/*--------------------------------*- C++ -*----------------------------------*\
  =========                 |
  \\      /  F ield         | OpenFOAM: The Open Source CFD Toolbox
   \\    /   O peration     | Website:  https://openfoam.org
    \\  /    A nd           | Version:  7
     \\/     M anipulation  |
\*---------------------------------------------------------------------------*/
FoamFile
{
    version     2.0;
    format      ascii;
    class       volScalarField;
    location    "1.6825";
    object      T;
}
// * * * * * * * * * * * * * * * * * * * * * * * * * * * * * * * * * * * * * //

dimensions      [0 0 0 1 0 0 0];

internalField   nonuniform List<scalar> 
4950
(
282.913
282.964
282.963
283
282.98
283.007
282.992
283.017
283.006
283.027
283.019
283.034
283.027
283.036
283.031
283.033
283.036
283.021
283.056
282.952
282.881
282.876
282.861
282.888
282.875
282.895
282.893
282.915
282.924
282.945
282.957
282.972
282.983
282.987
282.998
282.981
283.012
282.944
283.058
282.831
282.846
282.808
282.737
282.751
282.703
282.718
282.689
282.713
282.704
282.735
282.739
282.77
282.782
282.806
282.823
282.829
282.852
282.825
282.869
282.789
282.88
282.85
282.803
282.801
282.77
282.767
282.751
282.756
282.758
282.772
282.784
282.803
282.822
282.842
282.864
282.879
282.897
282.901
282.909
282.9
282.847
282.806
282.727
282.733
282.679
282.685
282.65
282.664
282.649
282.672
282.671
282.698
282.706
282.736
282.749
282.778
282.786
282.807
282.803
282.81
282.88
282.85
282.803
282.801
282.77
282.768
282.751
282.756
282.758
282.772
282.784
282.804
282.821
282.843
282.862
282.882
282.894
282.905
282.904
282.904
282.846
282.808
282.737
282.751
282.703
282.718
282.689
282.713
282.704
282.735
282.738
282.772
282.779
282.81
282.817
282.839
282.837
282.847
282.838
282.83
282.881
282.876
282.861
282.888
282.875
282.895
282.893
282.915
282.924
282.945
282.956
282.974
282.98
282.991
282.991
282.994
282.989
282.986
282.98
282.971
282.913
282.964
282.963
283
282.98
283.007
282.992
283.017
283.006
283.027
283.018
283.034
283.026
283.037
283.029
283.037
283.029
283.035
283.027
283.035
283.198
283.18
283.229
283.201
283.24
283.214
283.25
283.229
283.259
283.24
283.264
283.246
283.264
283.244
283.261
283.233
283.264
283.199
283.331
282.982
283.165
283.123
283.137
283.11
283.122
283.107
283.124
283.126
283.147
283.157
283.18
283.188
283.211
283.205
283.229
283.196
283.241
283.149
283.277
283.038
283.202
283.169
283.211
283.172
283.198
283.169
283.196
283.183
283.217
283.215
283.251
283.254
283.292
283.291
283.327
283.309
283.344
283.299
283.343
283.27
283.164
283.121
283.132
283.102
283.105
283.086
283.091
283.088
283.101
283.109
283.128
283.142
283.167
283.183
283.207
283.217
283.232
283.232
283.231
283.226
283.2
283.17
283.212
283.172
283.195
283.163
283.186
283.169
283.196
283.192
283.222
283.225
283.256
283.265
283.293
283.301
283.318
283.32
283.319
283.323
283.164
283.121
283.132
283.102
283.105
283.086
283.091
283.088
283.101
283.109
283.128
283.143
283.166
283.184
283.205
283.219
283.229
283.235
283.228
283.228
283.202
283.169
283.211
283.172
283.198
283.169
283.196
283.184
283.216
283.216
283.25
283.256
283.289
283.296
283.32
283.319
283.33
283.319
283.317
283.304
283.164
283.123
283.137
283.11
283.122
283.108
283.124
283.126
283.146
283.158
283.179
283.191
283.207
283.212
283.218
283.214
283.211
283.201
283.192
283.18
283.198
283.18
283.229
283.201
283.24
283.214
283.25
283.229
283.259
283.241
283.264
283.246
283.263
283.246
283.257
283.241
283.248
283.234
283.239
283.225
283.145
283.128
283.124
283.113
283.118
283.121
283.141
283.153
283.172
283.175
283.184
283.177
283.185
283.17
283.19
283.148
283.22
283.07
283.369
282.767
283.144
283.123
283.11
283.092
283.083
283.077
283.083
283.093
283.114
283.131
283.159
283.172
283.204
283.197
283.233
283.186
283.249
283.136
283.27
283.05
283.145
283.125
283.117
283.1
283.093
283.084
283.089
283.095
283.113
283.128
283.155
283.174
283.206
283.221
283.251
283.25
283.272
283.252
283.265
283.234
283.143
283.123
283.109
283.091
283.079
283.069
283.069
283.074
283.086
283.1
283.12
283.139
283.164
283.185
283.207
283.222
283.231
283.238
283.23
283.233
283.144
283.125
283.116
283.1
283.093
283.084
283.087
283.092
283.107
283.121
283.142
283.162
283.186
283.209
283.23
283.247
283.257
283.265
283.258
283.262
283.143
283.123
283.109
283.091
283.079
283.069
283.069
283.074
283.086
283.1
283.119
283.14
283.163
283.185
283.207
283.222
283.232
283.236
283.232
283.229
283.145
283.125
283.116
283.1
283.093
283.085
283.089
283.096
283.112
283.129
283.153
283.176
283.203
283.225
283.246
283.257
283.264
283.261
283.256
283.244
283.144
283.123
283.11
283.092
283.083
283.077
283.083
283.093
283.112
283.133
283.156
283.177
283.196
283.208
283.215
283.214
283.208
283.196
283.185
283.167
283.145
283.128
283.124
283.113
283.118
283.121
283.141
283.153
283.171
283.176
283.183
283.179
283.181
283.177
283.177
283.173
283.171
283.168
283.165
283.167
283.198
283.18
283.229
283.201
283.24
283.214
283.25
283.229
283.259
283.24
283.264
283.246
283.264
283.244
283.261
283.233
283.264
283.199
283.331
282.982
283.165
283.123
283.137
283.11
283.122
283.107
283.124
283.126
283.147
283.157
283.18
283.188
283.211
283.205
283.229
283.196
283.241
283.149
283.277
283.038
283.202
283.169
283.211
283.172
283.198
283.169
283.196
283.183
283.217
283.215
283.251
283.254
283.292
283.291
283.327
283.309
283.344
283.299
283.343
283.27
283.164
283.121
283.132
283.102
283.105
283.086
283.091
283.088
283.101
283.109
283.128
283.142
283.167
283.183
283.207
283.217
283.232
283.232
283.231
283.226
283.2
283.17
283.212
283.172
283.195
283.163
283.186
283.169
283.196
283.192
283.222
283.225
283.256
283.265
283.293
283.301
283.318
283.32
283.319
283.323
283.164
283.121
283.132
283.102
283.105
283.086
283.091
283.088
283.101
283.109
283.128
283.143
283.166
283.184
283.205
283.219
283.229
283.235
283.228
283.228
283.202
283.169
283.211
283.172
283.198
283.169
283.196
283.184
283.216
283.216
283.25
283.256
283.289
283.296
283.32
283.319
283.33
283.319
283.317
283.304
283.164
283.123
283.137
283.11
283.122
283.108
283.124
283.126
283.146
283.158
283.179
283.191
283.207
283.212
283.218
283.214
283.211
283.201
283.192
283.18
283.198
283.18
283.229
283.201
283.24
283.214
283.25
283.229
283.259
283.241
283.264
283.246
283.263
283.246
283.257
283.241
283.248
283.234
283.239
283.225
282.913
282.964
282.963
283
282.98
283.007
282.992
283.017
283.006
283.027
283.019
283.034
283.027
283.036
283.031
283.033
283.036
283.021
283.056
282.952
282.881
282.876
282.861
282.888
282.875
282.895
282.893
282.915
282.924
282.945
282.957
282.972
282.983
282.987
282.998
282.981
283.012
282.944
283.058
282.831
282.846
282.808
282.737
282.751
282.703
282.718
282.689
282.713
282.704
282.735
282.739
282.77
282.782
282.806
282.823
282.829
282.852
282.825
282.869
282.789
282.88
282.85
282.803
282.801
282.77
282.767
282.751
282.756
282.758
282.772
282.784
282.803
282.822
282.842
282.864
282.879
282.897
282.901
282.909
282.9
282.847
282.806
282.727
282.733
282.679
282.685
282.65
282.664
282.649
282.672
282.671
282.698
282.706
282.736
282.749
282.778
282.786
282.807
282.803
282.81
282.88
282.85
282.803
282.801
282.77
282.768
282.751
282.756
282.758
282.772
282.784
282.804
282.821
282.843
282.862
282.882
282.894
282.905
282.904
282.904
282.846
282.808
282.737
282.751
282.703
282.718
282.689
282.713
282.704
282.735
282.738
282.772
282.779
282.81
282.817
282.839
282.837
282.847
282.838
282.83
282.881
282.876
282.861
282.888
282.875
282.895
282.893
282.915
282.924
282.945
282.956
282.974
282.98
282.991
282.991
282.994
282.989
282.986
282.98
282.971
282.913
282.964
282.963
283
282.98
283.007
282.992
283.017
283.006
283.027
283.018
283.034
283.026
283.037
283.029
283.037
283.029
283.035
283.027
283.035
284.636
285.966
286.859
287.578
288.149
288.66
289.112
289.548
289.948
290.325
290.665
290.986
291.287
291.578
291.851
292.107
292.338
292.547
292.732
292.898
293.042
293.166
293.268
293.35
293.411
293.456
293.486
293.506
293.519
293.526
293.53
293.533
293.534
293.534
293.534
293.534
293.534
293.534
293.534
293.534
293.534
293.534
293.534
293.533
293.533
293.533
293.533
293.533
293.533
293.533
293.533
293.533
293.533
293.533
293.533
293.533
293.533
293.533
293.533
293.533
293.533
293.533
293.533
293.533
293.533
293.533
293.534
293.534
293.534
293.534
293.534
293.534
293.534
293.534
293.534
293.534
293.534
293.534
293.534
293.534
293.534
293.534
293.534
293.534
293.533
293.533
293.532
293.532
293.53
293.53
283.689
284.807
285.645
286.337
286.901
287.397
287.836
288.257
288.651
289.025
289.366
289.685
289.982
290.268
290.54
290.797
291.031
291.244
291.433
291.602
291.751
291.88
291.989
292.078
292.146
292.197
292.233
292.257
292.272
292.281
292.287
292.29
292.291
292.292
292.292
292.292
292.292
292.291
292.291
292.291
292.291
292.291
292.291
292.29
292.29
292.29
292.29
292.29
292.29
292.29
292.29
292.29
292.29
292.289
292.289
292.289
292.289
292.289
292.289
292.289
292.289
292.289
292.289
292.289
292.289
292.289
292.289
292.289
292.289
292.289
292.29
292.29
292.29
292.29
292.29
292.29
292.29
292.29
292.29
292.29
292.289
292.29
292.289
292.289
292.289
292.289
292.288
292.288
292.286
292.285
282.997
283.621
284.232
284.829
285.338
285.795
286.187
286.569
286.934
287.295
287.628
287.938
288.222
288.495
288.756
289.009
289.244
289.46
289.653
289.826
289.979
290.116
290.235
290.335
290.416
290.479
290.524
290.556
290.578
290.591
290.599
290.604
290.606
290.607
290.608
290.608
290.608
290.608
290.608
290.607
290.607
290.607
290.607
290.607
290.607
290.607
290.607
290.606
290.606
290.606
290.606
290.606
290.606
290.606
290.606
290.606
290.606
290.606
290.606
290.606
290.606
290.606
290.606
290.606
290.606
290.606
290.606
290.606
290.606
290.606
290.606
290.606
290.606
290.606
290.606
290.606
290.606
290.606
290.606
290.606
290.605
290.605
290.605
290.605
290.604
290.604
290.603
290.603
290.6
290.598
282.886
283.099
283.439
283.86
284.267
284.636
284.955
285.263
285.574
285.894
286.2
286.485
286.741
286.985
287.222
287.457
287.68
287.888
288.074
288.241
288.39
288.526
288.647
288.753
288.842
288.912
288.966
289.004
289.03
289.047
289.058
289.064
289.067
289.069
289.069
289.07
289.07
289.07
289.069
289.069
289.069
289.069
289.069
289.069
289.069
289.069
289.068
289.068
289.068
289.068
289.068
289.068
289.068
289.068
289.068
289.068
289.068
289.068
289.068
289.068
289.068
289.068
289.068
289.068
289.068
289.068
289.068
289.068
289.068
289.069
289.069
289.069
289.069
289.069
289.069
289.069
289.069
289.069
289.069
289.069
289.069
289.069
289.069
289.069
289.068
289.068
289.068
289.068
289.067
289.065
282.787
282.84
282.988
283.259
283.544
283.82
284.049
284.281
284.523
284.791
285.051
285.295
285.512
285.717
285.919
286.123
286.32
286.506
286.672
286.821
286.956
287.08
287.193
287.294
287.38
287.45
287.504
287.544
287.571
287.589
287.6
287.607
287.611
287.613
287.614
287.614
287.614
287.614
287.614
287.614
287.614
287.614
287.614
287.614
287.614
287.614
287.614
287.614
287.614
287.614
287.614
287.615
287.615
287.615
287.615
287.615
287.615
287.615
287.615
287.615
287.615
287.615
287.615
287.616
287.616
287.616
287.616
287.616
287.616
287.616
287.616
287.617
287.617
287.617
287.617
287.617
287.617
287.617
287.617
287.617
287.617
287.617
287.617
287.617
287.617
287.617
287.616
287.615
287.616
287.615
282.874
282.864
282.926
283.086
283.27
283.446
283.594
283.749
283.925
284.127
284.328
284.515
284.681
284.839
284.996
285.158
285.316
285.464
285.597
285.717
285.826
285.927
286.02
286.105
286.178
286.237
286.283
286.317
286.341
286.356
286.366
286.371
286.375
286.377
286.377
286.378
286.378
286.378
286.378
286.378
286.378
286.379
286.379
286.379
286.379
286.379
286.379
286.379
286.379
286.379
286.38
286.38
286.38
286.38
286.38
286.381
286.381
286.381
286.381
286.381
286.382
286.382
286.382
286.382
286.382
286.383
286.383
286.383
286.383
286.384
286.384
286.384
286.384
286.385
286.385
286.385
286.385
286.386
286.386
286.386
286.386
286.387
286.387
286.387
286.387
286.387
286.387
286.386
286.388
286.389
282.833
282.843
282.871
282.974
283.077
283.181
283.262
283.362
283.478
283.617
283.751
283.876
283.986
284.094
284.202
284.315
284.425
284.527
284.618
284.701
284.776
284.847
284.913
284.973
285.024
285.066
285.098
285.121
285.138
285.148
285.155
285.159
285.161
285.163
285.163
285.164
285.164
285.165
285.165
285.165
285.165
285.166
285.166
285.166
285.166
285.167
285.167
285.167
285.168
285.168
285.168
285.169
285.169
285.169
285.17
285.17
285.17
285.171
285.171
285.171
285.172
285.172
285.172
285.173
285.173
285.174
285.174
285.174
285.175
285.175
285.176
285.176
285.176
285.177
285.177
285.177
285.178
285.178
285.178
285.179
285.179
285.179
285.179
285.18
285.18
285.18
285.18
285.179
285.182
285.183
282.98
282.985
283.003
283.053
283.099
283.143
283.18
283.231
283.292
283.364
283.432
283.495
283.551
283.607
283.664
283.724
283.781
283.834
283.881
283.924
283.963
284.001
284.036
284.067
284.094
284.115
284.131
284.143
284.151
284.157
284.16
284.162
284.163
284.164
284.164
284.165
284.165
284.165
284.166
284.166
284.166
284.167
284.167
284.167
284.168
284.168
284.168
284.169
284.169
284.169
284.17
284.17
284.17
284.171
284.171
284.172
284.172
284.172
284.173
284.173
284.174
284.174
284.174
284.175
284.175
284.176
284.176
284.176
284.177
284.177
284.178
284.178
284.179
284.179
284.179
284.18
284.18
284.181
284.181
284.181
284.182
284.182
284.182
284.183
284.183
284.184
284.184
284.184
284.186
284.186
283.046
283.053
283.057
283.076
283.087
283.102
283.112
283.129
283.148
283.17
283.19
283.209
283.226
283.243
283.261
283.279
283.296
283.312
283.326
283.339
283.35
283.362
283.372
283.382
283.39
283.396
283.401
283.404
283.407
283.408
283.409
283.41
283.41
283.411
283.411
283.411
283.412
283.412
283.412
283.412
283.412
283.412
283.413
283.413
283.413
283.413
283.413
283.414
283.414
283.414
283.414
283.414
283.415
283.415
283.415
283.415
283.415
283.416
283.416
283.416
283.416
283.417
283.417
283.417
283.417
283.417
283.418
283.418
283.418
283.418
283.418
283.419
283.419
283.419
283.419
283.42
283.42
283.42
283.42
283.42
283.42
283.421
283.421
283.421
283.421
283.421
283.421
283.421
283.422
283.422
285.137
286.626
287.575
288.276
288.866
289.363
289.828
290.254
290.66
291.028
291.372
291.688
291.992
292.28
292.554
292.807
293.039
293.245
293.431
293.595
293.739
293.861
293.962
294.042
294.102
294.145
294.174
294.193
294.204
294.211
294.215
294.216
294.217
294.217
294.217
294.217
294.217
294.216
294.216
294.216
294.215
294.215
294.215
294.215
294.215
294.214
294.214
294.214
294.214
294.214
294.214
294.214
294.214
294.214
294.214
294.214
294.214
294.214
294.214
294.214
294.214
294.214
294.214
294.214
294.214
294.214
294.214
294.214
294.215
294.215
294.215
294.215
294.215
294.215
294.215
294.216
294.216
294.216
294.216
294.216
294.217
294.217
294.218
294.218
294.219
294.219
294.22
294.22
294.226
294.229
283.819
284.9
285.748
286.431
287.007
287.496
287.941
288.355
288.753
289.124
289.469
289.786
290.086
290.371
290.644
290.901
291.139
291.353
291.545
291.716
291.867
291.998
292.109
292.199
292.27
292.322
292.359
292.384
292.399
292.409
292.414
292.417
292.419
292.419
292.419
292.419
292.419
292.418
292.418
292.418
292.418
292.417
292.417
292.417
292.417
292.417
292.416
292.416
292.416
292.416
292.416
292.416
292.416
292.416
292.416
292.416
292.416
292.416
292.416
292.416
292.416
292.416
292.416
292.416
292.416
292.416
292.416
292.416
292.416
292.416
292.416
292.416
292.417
292.417
292.417
292.417
292.417
292.417
292.418
292.418
292.418
292.418
292.418
292.419
292.419
292.419
292.42
292.419
292.424
292.426
283.369
283.861
284.456
285.014
285.528
285.963
286.359
286.724
287.091
287.444
287.781
288.087
288.373
288.642
288.905
289.157
289.395
289.612
289.808
289.982
290.139
290.277
290.399
290.502
290.585
290.65
290.698
290.731
290.753
290.767
290.776
290.78
290.782
290.783
290.784
290.784
290.783
290.783
290.783
290.782
290.782
290.782
290.781
290.781
290.781
290.781
290.781
290.78
290.78
290.78
290.78
290.78
290.78
290.78
290.78
290.78
290.78
290.78
290.78
290.78
290.78
290.78
290.78
290.78
290.78
290.78
290.78
290.78
290.78
290.78
290.78
290.78
290.78
290.78
290.78
290.78
290.781
290.781
290.781
290.781
290.782
290.782
290.782
290.782
290.783
290.783
290.785
290.784
290.787
290.789
283.176
283.3
283.602
283.984
284.382
284.734
285.048
285.344
285.651
285.966
286.275
286.558
286.817
287.059
287.297
287.532
287.758
287.968
288.158
288.328
288.48
288.619
288.743
288.852
288.944
289.018
289.074
289.115
289.142
289.16
289.171
289.178
289.181
289.183
289.183
289.183
289.183
289.183
289.183
289.182
289.182
289.182
289.182
289.182
289.181
289.181
289.181
289.181
289.181
289.181
289.18
289.18
289.18
289.18
289.18
289.18
289.18
289.18
289.18
289.18
289.18
289.18
289.18
289.18
289.18
289.18
289.18
289.18
289.181
289.181
289.181
289.181
289.181
289.181
289.181
289.181
289.181
289.181
289.182
289.182
289.182
289.182
289.183
289.183
289.183
289.183
289.184
289.184
289.185
289.186
283.246
283.194
283.315
283.533
283.807
284.051
284.274
284.483
284.72
284.974
285.236
285.475
285.693
285.894
286.096
286.298
286.498
286.685
286.854
287.005
287.143
287.268
287.384
287.488
287.577
287.65
287.707
287.749
287.778
287.797
287.808
287.815
287.819
287.821
287.822
287.822
287.822
287.821
287.821
287.821
287.821
287.821
287.82
287.82
287.82
287.82
287.82
287.82
287.82
287.819
287.819
287.819
287.819
287.819
287.819
287.819
287.819
287.819
287.819
287.82
287.82
287.82
287.82
287.82
287.82
287.82
287.82
287.82
287.82
287.821
287.821
287.821
287.821
287.821
287.821
287.822
287.822
287.822
287.822
287.823
287.823
287.823
287.824
287.824
287.825
287.825
287.826
287.826
287.827
287.828
283.173
283.1
283.141
283.268
283.441
283.595
283.733
283.872
284.042
284.235
284.437
284.622
284.789
284.945
285.103
285.265
285.426
285.577
285.714
285.836
285.947
286.051
286.147
286.235
286.311
286.373
286.422
286.458
286.483
286.5
286.51
286.516
286.519
286.521
286.522
286.522
286.522
286.522
286.522
286.522
286.522
286.522
286.522
286.522
286.522
286.522
286.522
286.522
286.522
286.522
286.522
286.522
286.522
286.522
286.522
286.522
286.522
286.523
286.523
286.523
286.523
286.523
286.523
286.524
286.524
286.524
286.524
286.524
286.525
286.525
286.525
286.525
286.526
286.526
286.526
286.526
286.527
286.527
286.527
286.528
286.528
286.528
286.529
286.529
286.53
286.53
286.531
286.531
286.531
286.532
283.246
283.172
283.198
283.264
283.365
283.441
283.518
283.599
283.714
283.845
283.983
284.105
284.218
284.324
284.436
284.55
284.664
284.769
284.865
284.95
285.029
285.103
285.172
285.235
285.29
285.334
285.369
285.394
285.411
285.422
285.429
285.433
285.436
285.437
285.437
285.438
285.438
285.438
285.438
285.438
285.438
285.438
285.438
285.438
285.438
285.438
285.438
285.438
285.439
285.439
285.439
285.439
285.439
285.44
285.44
285.44
285.441
285.441
285.441
285.441
285.442
285.442
285.442
285.443
285.443
285.443
285.444
285.444
285.444
285.445
285.445
285.446
285.446
285.446
285.447
285.447
285.448
285.448
285.449
285.449
285.45
285.45
285.451
285.452
285.453
285.453
285.455
285.455
285.455
285.456
283.164
283.134
283.152
283.19
283.238
283.272
283.309
283.355
283.423
283.498
283.574
283.641
283.704
283.765
283.83
283.897
283.962
284.022
284.076
284.124
284.169
284.212
284.252
284.289
284.32
284.344
284.363
284.377
284.386
284.392
284.396
284.398
284.399
284.4
284.401
284.401
284.401
284.401
284.401
284.402
284.402
284.402
284.402
284.403
284.403
284.403
284.403
284.404
284.404
284.404
284.405
284.405
284.405
284.406
284.406
284.406
284.407
284.407
284.408
284.408
284.408
284.409
284.409
284.41
284.41
284.41
284.411
284.411
284.412
284.412
284.413
284.413
284.414
284.414
284.415
284.415
284.416
284.416
284.417
284.417
284.418
284.418
284.419
284.419
284.42
284.421
284.422
284.422
284.422
284.423
283.226
283.207
283.219
283.223
283.239
283.242
283.255
283.267
283.29
283.311
283.335
283.354
283.373
283.392
283.413
283.433
283.454
283.472
283.488
283.503
283.518
283.531
283.544
283.555
283.564
283.572
283.577
283.581
283.584
283.586
283.587
283.587
283.588
283.588
283.588
283.588
283.588
283.589
283.589
283.589
283.589
283.589
283.589
283.59
283.59
283.59
283.59
283.591
283.591
283.591
283.591
283.591
283.592
283.592
283.592
283.592
283.593
283.593
283.593
283.594
283.594
283.594
283.594
283.595
283.595
283.595
283.596
283.596
283.596
283.596
283.597
283.597
283.597
283.598
283.598
283.598
283.599
283.599
283.6
283.6
283.6
283.601
283.601
283.602
283.602
283.603
283.604
283.604
283.604
283.605
285.359
287.158
288.197
288.938
289.547
290.065
290.544
290.983
291.395
291.768
292.115
292.436
292.745
293.037
293.314
293.568
293.8
294.007
294.193
294.357
294.5
294.621
294.72
294.796
294.854
294.894
294.921
294.938
294.949
294.955
294.958
294.959
294.96
294.96
294.96
294.959
294.959
294.958
294.958
294.957
294.957
294.957
294.957
294.956
294.956
294.956
294.956
294.955
294.955
294.955
294.955
294.955
294.955
294.955
294.955
294.954
294.954
294.954
294.954
294.954
294.954
294.954
294.954
294.954
294.954
294.954
294.955
294.955
294.955
294.955
294.955
294.955
294.955
294.955
294.955
294.955
294.956
294.956
294.956
294.956
294.957
294.957
294.957
294.957
294.958
294.958
294.96
294.958
294.966
294.97
283.623
284.749
285.665
286.389
286.992
287.501
287.962
288.39
288.798
289.178
289.53
289.854
290.16
290.451
290.73
290.992
291.234
291.452
291.648
291.822
291.976
292.111
292.224
292.316
292.388
292.441
292.478
292.504
292.52
292.529
292.535
292.538
292.539
292.54
292.54
292.539
292.539
292.539
292.538
292.538
292.538
292.538
292.538
292.537
292.537
292.537
292.537
292.537
292.537
292.537
292.537
292.537
292.537
292.537
292.537
292.537
292.537
292.537
292.537
292.537
292.537
292.537
292.537
292.537
292.537
292.537
292.537
292.537
292.537
292.538
292.538
292.538
292.538
292.538
292.538
292.538
292.539
292.539
292.539
292.539
292.54
292.54
292.54
292.54
292.541
292.541
292.542
292.541
292.546
292.55
283.228
283.625
284.187
284.755
285.281
285.733
286.138
286.516
286.892
287.257
287.603
287.92
288.213
288.489
288.758
289.018
289.264
289.489
289.692
289.873
290.035
290.18
290.308
290.416
290.505
290.574
290.625
290.661
290.685
290.701
290.71
290.715
290.718
290.719
290.719
290.719
290.719
290.719
290.718
290.718
290.718
290.717
290.717
290.717
290.717
290.716
290.716
290.716
290.716
290.716
290.716
290.716
290.716
290.715
290.715
290.715
290.715
290.715
290.715
290.715
290.715
290.715
290.715
290.715
290.715
290.715
290.716
290.716
290.716
290.716
290.716
290.716
290.716
290.716
290.716
290.716
290.717
290.717
290.717
290.717
290.717
290.718
290.718
290.718
290.719
290.719
290.72
290.719
290.722
290.724
283.168
283.211
283.445
283.793
284.177
284.527
284.84
285.135
285.442
285.762
286.08
286.373
286.639
286.887
287.13
287.371
287.605
287.824
288.023
288.2
288.36
288.506
288.637
288.754
288.853
288.933
288.995
289.04
289.072
289.092
289.105
289.112
289.116
289.118
289.119
289.119
289.119
289.119
289.118
289.118
289.118
289.117
289.117
289.117
289.117
289.116
289.116
289.116
289.116
289.116
289.116
289.116
289.116
289.115
289.115
289.115
289.115
289.115
289.115
289.115
289.115
289.115
289.115
289.115
289.115
289.115
289.115
289.115
289.115
289.116
289.116
289.116
289.116
289.116
289.116
289.116
289.116
289.116
289.117
289.117
289.117
289.117
289.117
289.118
289.118
289.118
289.119
289.119
289.12
289.121
283.211
283.138
283.2
283.383
283.63
283.865
284.074
284.273
284.5
284.755
285.02
285.268
285.492
285.698
285.902
286.109
286.315
286.511
286.689
286.848
286.992
287.124
287.246
287.357
287.455
287.535
287.599
287.646
287.679
287.701
287.715
287.723
287.727
287.73
287.731
287.731
287.731
287.731
287.73
287.73
287.73
287.73
287.729
287.729
287.729
287.729
287.729
287.729
287.728
287.728
287.728
287.728
287.728
287.728
287.728
287.728
287.728
287.728
287.728
287.728
287.728
287.728
287.728
287.728
287.728
287.728
287.729
287.729
287.729
287.729
287.729
287.729
287.729
287.729
287.73
287.73
287.73
287.73
287.73
287.73
287.731
287.731
287.731
287.731
287.732
287.732
287.733
287.733
287.734
287.735
283.187
283.109
283.121
283.223
283.373
283.511
283.632
283.756
283.913
284.103
284.306
284.495
284.664
284.822
284.981
285.146
285.312
285.469
285.612
285.74
285.856
285.964
286.066
286.16
286.242
286.311
286.365
286.405
286.433
286.452
286.464
286.471
286.475
286.477
286.478
286.478
286.478
286.478
286.478
286.478
286.478
286.477
286.477
286.477
286.477
286.477
286.477
286.477
286.477
286.477
286.477
286.477
286.477
286.477
286.477
286.477
286.477
286.478
286.478
286.478
286.478
286.478
286.478
286.478
286.478
286.479
286.479
286.479
286.479
286.479
286.48
286.48
286.48
286.48
286.48
286.481
286.481
286.481
286.481
286.482
286.482
286.482
286.483
286.483
286.484
286.484
286.484
286.485
286.485
286.486
283.202
283.141
283.152
283.213
283.298
283.364
283.426
283.498
283.606
283.737
283.874
283.999
284.113
284.22
284.334
284.452
284.57
284.68
284.78
284.869
284.951
285.029
285.102
285.17
285.229
285.277
285.315
285.342
285.362
285.374
285.382
285.387
285.389
285.39
285.391
285.391
285.391
285.391
285.391
285.391
285.391
285.391
285.391
285.391
285.391
285.392
285.392
285.392
285.392
285.392
285.392
285.392
285.393
285.393
285.393
285.393
285.394
285.394
285.394
285.394
285.395
285.395
285.395
285.395
285.396
285.396
285.396
285.397
285.397
285.397
285.398
285.398
285.398
285.399
285.399
285.399
285.4
285.4
285.401
285.401
285.402
285.402
285.403
285.403
285.404
285.404
285.405
285.406
285.406
285.406
283.157
283.134
283.151
283.185
283.225
283.25
283.28
283.323
283.39
283.467
283.544
283.612
283.676
283.739
283.807
283.877
283.946
284.008
284.065
284.116
284.164
284.209
284.253
284.291
284.325
284.352
284.372
284.386
284.397
284.403
284.407
284.409
284.41
284.411
284.412
284.412
284.412
284.412
284.412
284.413
284.413
284.413
284.413
284.413
284.414
284.414
284.414
284.415
284.415
284.415
284.416
284.416
284.416
284.417
284.417
284.417
284.418
284.418
284.419
284.419
284.419
284.42
284.42
284.421
284.421
284.422
284.422
284.422
284.423
284.423
284.424
284.424
284.425
284.425
284.426
284.426
284.427
284.428
284.428
284.429
284.429
284.43
284.431
284.431
284.432
284.432
284.433
284.434
284.434
284.434
283.165
283.154
283.164
283.172
283.183
283.188
283.198
283.213
283.237
283.261
283.285
283.306
283.327
283.348
283.371
283.393
283.416
283.435
283.453
283.469
283.485
283.5
283.514
283.526
283.537
283.545
283.551
283.555
283.558
283.56
283.561
283.562
283.562
283.563
283.563
283.563
283.563
283.564
283.564
283.564
283.564
283.565
283.565
283.565
283.565
283.566
283.566
283.566
283.567
283.567
283.567
283.568
283.568
283.568
283.569
283.569
283.569
283.57
283.57
283.571
283.571
283.571
283.572
283.572
283.573
283.573
283.573
283.574
283.574
283.575
283.575
283.575
283.576
283.576
283.577
283.577
283.578
283.578
283.578
283.579
283.579
283.58
283.58
283.581
283.581
283.582
283.583
283.583
283.583
283.583
285.137
286.626
287.575
288.276
288.866
289.363
289.828
290.254
290.66
291.028
291.372
291.688
291.992
292.28
292.554
292.807
293.039
293.245
293.431
293.595
293.739
293.861
293.962
294.042
294.102
294.145
294.174
294.193
294.204
294.211
294.215
294.216
294.217
294.217
294.217
294.217
294.217
294.216
294.216
294.216
294.215
294.215
294.215
294.215
294.215
294.214
294.214
294.214
294.214
294.214
294.214
294.214
294.214
294.214
294.214
294.214
294.214
294.214
294.214
294.214
294.214
294.214
294.214
294.214
294.214
294.214
294.214
294.214
294.215
294.215
294.215
294.215
294.215
294.215
294.215
294.216
294.216
294.216
294.216
294.216
294.217
294.217
294.218
294.218
294.219
294.219
294.22
294.22
294.226
294.229
283.819
284.9
285.748
286.431
287.007
287.496
287.941
288.355
288.753
289.124
289.469
289.786
290.086
290.371
290.644
290.901
291.139
291.353
291.545
291.716
291.867
291.998
292.109
292.199
292.27
292.322
292.359
292.384
292.399
292.409
292.414
292.417
292.419
292.419
292.419
292.419
292.419
292.418
292.418
292.418
292.418
292.417
292.417
292.417
292.417
292.417
292.416
292.416
292.416
292.416
292.416
292.416
292.416
292.416
292.416
292.416
292.416
292.416
292.416
292.416
292.416
292.416
292.416
292.416
292.416
292.416
292.416
292.416
292.416
292.416
292.416
292.416
292.417
292.417
292.417
292.417
292.417
292.417
292.418
292.418
292.418
292.418
292.418
292.419
292.419
292.419
292.42
292.419
292.424
292.427
283.369
283.861
284.456
285.014
285.528
285.963
286.359
286.724
287.091
287.444
287.781
288.087
288.373
288.642
288.905
289.157
289.395
289.612
289.808
289.982
290.139
290.277
290.399
290.502
290.585
290.65
290.698
290.731
290.753
290.767
290.776
290.78
290.782
290.783
290.784
290.784
290.783
290.783
290.783
290.782
290.782
290.782
290.781
290.781
290.781
290.781
290.781
290.78
290.78
290.78
290.78
290.78
290.78
290.78
290.78
290.78
290.78
290.78
290.78
290.78
290.779
290.78
290.78
290.78
290.78
290.78
290.78
290.78
290.78
290.78
290.78
290.78
290.78
290.78
290.78
290.78
290.781
290.781
290.781
290.781
290.782
290.782
290.782
290.782
290.783
290.783
290.785
290.784
290.787
290.789
283.176
283.3
283.602
283.984
284.382
284.734
285.048
285.344
285.651
285.966
286.275
286.558
286.817
287.059
287.297
287.532
287.758
287.968
288.158
288.328
288.48
288.619
288.743
288.852
288.944
289.018
289.074
289.115
289.142
289.16
289.171
289.178
289.181
289.183
289.183
289.183
289.183
289.183
289.183
289.182
289.182
289.182
289.182
289.181
289.181
289.181
289.181
289.181
289.181
289.181
289.18
289.18
289.18
289.18
289.18
289.18
289.18
289.18
289.18
289.18
289.18
289.18
289.18
289.18
289.18
289.18
289.18
289.18
289.18
289.181
289.181
289.181
289.181
289.181
289.181
289.181
289.181
289.181
289.182
289.182
289.182
289.182
289.183
289.183
289.183
289.183
289.184
289.184
289.185
289.186
283.246
283.194
283.315
283.533
283.807
284.051
284.274
284.483
284.72
284.974
285.236
285.475
285.693
285.894
286.096
286.298
286.498
286.685
286.854
287.005
287.143
287.268
287.384
287.488
287.577
287.65
287.707
287.749
287.778
287.797