/*--------------------------------*- C++ -*----------------------------------*\
  =========                 |
  \\      /  F ield         | OpenFOAM: The Open Source CFD Toolbox
   \\    /   O peration     | Website:  https://openfoam.org
    \\  /    A nd           | Version:  7
     \\/     M anipulation  |
\*---------------------------------------------------------------------------*/
FoamFile
{
    version     2.0;
    format      ascii;
    class       surfaceScalarField;
    location    "0.345";
    object      phi_0;
}
// * * * * * * * * * * * * * * * * * * * * * * * * * * * * * * * * * * * * * //

dimensions      [1 0 -1 0 0 0 0];

internalField   nonuniform List<scalar> 
21708
(
0.00125473
0.000990701
1.2738e-05
0.000835915
0.000381765
5.39322e-06
0.000605171
0.000189009
1.07986e-05
0.000493574
7.55044e-05
5.87578e-06
0.000419064
3.4621e-05
9.9108e-06
0.000365817
1.71439e-05
6.03503e-06
0.000319932
6.52452e-06
9.17448e-06
0.00028113
2.54936e-06
6.11683e-06
0.000244953
-2.28657e-06
8.56575e-06
0.000213936
-4.6081e-06
6.13102e-06
0.000185272
-8.36541e-06
8.02942e-06
0.000160746
-9.98299e-06
6.08331e-06
0.000137633
-1.22371e-05
7.54561e-06
0.000116962
-1.24388e-05
5.98498e-06
9.70083e-05
-1.3545e-05
7.08952e-06
7.79706e-05
-1.24568e-05
5.84457e-06
5.87706e-05
-1.23443e-05
6.65275e-06
4.11672e-05
-1.21723e-05
5.67836e-06
-2.33718e-05
3.48405e-05
6.33876e-06
-1.54498e-05
5.2308e-06
-3.55463e-05
0.00219474
0.00105162
2.07688e-06
0.0019732
0.000576151
-4.64953e-06
0.00173839
0.000391695
8.66327e-07
0.00156645
0.000220682
-3.90981e-06
0.00143501
0.000135778
2.25247e-07
0.00133595
9.00216e-05
-3.60193e-06
0.00125071
6.25187e-05
-4.20449e-07
0.00118001
4.70353e-05
-3.46445e-06
0.0011155
3.3651e-05
-9.97547e-07
0.00106286
2.21612e-05
-3.43049e-06
0.00101569
1.14383e-05
-1.52022e-06
0.000977616
3.17302e-06
-3.46775e-06
0.000942008
-2.45337e-06
-2.0009e-06
0.000911198
-5.28756e-06
-3.56142e-06
0.000881419
-7.87686e-06
-2.45399e-06
0.000852325
-5.50207e-06
-3.70087e-06
0.000830053
-1.2247e-05
-2.90973e-06
0.000798614
-1.13323e-06
-3.86288e-06
0.00082599
-1.2569e-05
-3.46863e-06
-6.7599e-05
-4.46088e-06
0.00085998
0.00251963
0.000781092
8.74926e-06
0.00257807
0.000483486
2.4944e-06
0.00253906
0.000391709
7.63956e-06
0.00247156
0.000254301
2.75054e-06
0.00239224
0.000177646
6.79439e-06
0.002319
0.000130483
2.91514e-06
0.00224697
9.94064e-05
6.05562e-06
0.00218242
7.99315e-05
2.9911e-06
0.00211972
6.23311e-05
5.4389e-06
0.00206491
4.54206e-05
2.99703e-06
0.00201398
2.90894e-05
4.89277e-06
0.00197137
1.48488e-05
2.93967e-06
0.0019322
4.78536e-06
4.39986e-06
0.00189853
-1.51394e-06
2.83492e-06
0.0018655
-5.36778e-06
3.93674e-06
0.00183673
-5.45833e-06
2.68886e-06
0.00180349
-7.88536e-06
3.50074e-06
0.00177927
-4.0002e-06
2.5065e-06
0.00173399
5.75614e-06
3.2221e-06
-1.74516e-05
2.10824e-06
0.00165888
0.00252639
0.000508988
3.38452e-06
0.0026545
0.000326276
-2.60504e-06
0.00272795
0.000284482
2.49865e-06
0.00275702
0.00019626
-2.32985e-06
0.00275536
0.000146507
1.76257e-06
0.00274332
0.00011427
-2.07515e-06
0.00272041
9.20611e-05
1.10496e-06
0.00269602
7.8017e-05
-1.93969e-06
0.00266504
6.49711e-05
5.30024e-07
0.00263293
5.15717e-05
-1.90105e-06
0.00259695
3.72144e-05
1.01558e-08
0.00256248
2.3581e-05
-1.93646e-06
0.00252786
1.26554e-05
-4.68959e-07
0.00249574
5.84806e-06
-2.02568e-06
0.00246502
-1.26209e-07
-9.16439e-07
0.00243446
1.19347e-06
-2.16275e-06
0.0024091
-6.78812e-06
-1.36831e-06
0.00237881
3.63519e-06
-2.35422e-06
0.00237209
-9.7795e-06
-1.93461e-06
-2.18908e-05
-2.85468e-06
0.00235612
0.00251534
0.000244695
6.68991e-06
0.00265115
0.000157924
9.09755e-07
0.00275391
0.00014463
5.8716e-06
0.00281549
0.000102398
1.02962e-06
0.00284708
7.86331e-05
5.08845e-06
0.00286682
6.27976e-05
1.23109e-06
0.00287356
5.16358e-05
4.39168e-06
0.00287748
4.46725e-05
1.33813e-06
0.00287309
3.80978e-05
3.79911e-06
0.00286468
3.12247e-05
1.36431e-06
0.00284772
2.33998e-05
3.26569e-06
0.00282699
1.55971e-05
1.31382e-06
0.00280095
8.92264e-06
2.77461e-06
0.00277466
4.43278e-06
1.21297e-06
0.00274542
6.98503e-07
2.31672e-06
0.00271912
5.76776e-07
1.06763e-06
0.00268739
-2.52616e-06
1.87512e-06
0.00266359
1.44243e-06
8.70831e-07
0.00262842
-5.60038e-07
1.51886e-06
-2.58211e-07
4.94282e-07
0.0025828
0.00249741
1.56345e-09
4.97139e-06
0.0026244
2.65055e-09
-7.23924e-07
0.00273361
2.51681e-09
4.21977e-06
0.00280534
2.88735e-09
-6.19127e-07
0.0028493
2.42022e-09
3.44241e-06
0.00288192
4.27376e-09
-4.099e-07
0.00290147
3.09269e-09
2.75882e-06
0.00291836
6.37148e-09
-2.91493e-07
0.00292694
3.43011e-09
2.17407e-06
0.00293117
8.71288e-09
-2.59098e-07
0.00292554
7.09729e-09
1.64591e-06
0.00291408
1.98122e-08
-3.04394e-07
0.00289489
1.98688e-08
1.15853e-06
0.00287325
6.93573e-08
-4.00632e-07
0.00284725
3.2271e-08
7.06093e-07
0.00282233
2.80335e-07
-5.41546e-07
0.00279394
5.24293e-08
2.59658e-07
0.00277011
8.04895e-07
-7.45636e-07
0.00274484
3.68881e-07
-2.16383e-07
1.60812e-06
-1.1652e-06
0.00272044
0.00249741
-0.000244692
4.9714e-06
0.0026244
-0.000157919
-7.23923e-07
0.00273361
-0.000144625
4.21977e-06
0.00280534
-0.000102392
-6.19127e-07
0.0028493
-7.86281e-05
3.44242e-06
0.00288192
-6.27894e-05
-4.09907e-07
0.00290147
-5.16291e-05
2.75883e-06
0.00291836
-4.46607e-05
-2.91512e-07
0.00292694
-3.80899e-05
2.1741e-06
0.00293117
-3.12097e-05
-2.59142e-07
0.00292554
-2.33832e-05
1.64598e-06
0.00291408
-1.55633e-05
-3.04493e-07
0.00289489
-8.87388e-06
1.15872e-06
0.00287326
-4.30001e-06
-4.00808e-07
0.00284723
-6.16546e-07
7.06718e-07
0.00282235
-5.15866e-08
-5.4148e-07
0.00279392
2.6635e-06
2.6199e-07
0.00277002
2.39847e-07
-7.40881e-07
0.0027446
1.42971e-06
-2.06477e-07
3.61772e-06
-1.156e-06
0.00272006
0.00251534
-0.000508985
6.68991e-06
0.00265115
-0.000326271
9.09755e-07
0.00275391
-0.000284477
5.8716e-06
0.00281549
-0.000196254
1.02962e-06
0.00284708
-0.000146502
5.08845e-06
0.00286682
-0.000114262
1.2311e-06
0.00287356
-9.20547e-05
4.39167e-06
0.00287748
-7.80055e-05
1.33814e-06
0.00287309
-6.49643e-05
3.79909e-06
0.00286468
-5.15562e-05
1.36435e-06
0.00284773
-3.72011e-05
3.26563e-06
0.00282699
-2.35458e-05
1.31391e-06
0.00280096
-1.26193e-05
2.77443e-06
0.00277469
-5.72675e-06
1.21316e-06
0.00274547
1.80196e-07
2.31614e-06
0.00271919
-6.85189e-07
1.06757e-06
0.00268755
6.84431e-06
1.87288e-06
0.00266395
-2.14978e-06
8.65898e-07
0.00262918
1.02581e-05
1.50984e-06
2.46562e-05
4.83596e-07
0.00258416
0.00252639
-0.000781088
3.38452e-06
0.0026545
-0.000483481
-2.60503e-06
0.00272795
-0.000391704
2.49865e-06
0.00275702
-0.000254296
-2.32984e-06
0.00275536
-0.00017764
1.76258e-06
0.00274332
-0.000130476
-2.07515e-06
0.00272041
-9.93993e-05
1.10497e-06
0.00269602
-7.99226e-05
-1.93971e-06
0.00266504
-6.23232e-05
5.30054e-07
0.00263293
-4.54101e-05
-1.90109e-06
0.00259695
-2.90746e-05
1.02466e-08
0.00256249
-1.48253e-05
-1.93653e-06
0.00252787
-4.74431e-06
-4.68768e-07
0.00249578
1.60996e-06
-2.02583e-06
0.00246505
5.42781e-06
-9.15866e-07
0.00243461
5.85102e-06
-2.16259e-06
0.00240923
7.95084e-06
-1.3663e-06
0.00237913
5.30146e-06
-2.34893e-06
0.00237237
-5.25922e-06
-1.92587e-06
1.98995e-05
-2.84765e-06
0.00235673
0.00251963
-0.00105161
8.74926e-06
0.00257807
-0.000576146
2.4944e-06
0.00253906
-0.00039169
7.63956e-06
0.00247156
-0.000220677
2.75055e-06
0.00239225
-0.000135773
6.79439e-06
0.00231901
-9.00152e-05
2.91514e-06
0.00224697
-6.25122e-05
6.05561e-06
0.00218242
-4.70283e-05
2.9911e-06
0.00211972
-3.36444e-05
5.43888e-06
0.00206491
-2.21536e-05
2.99706e-06
0.00201399
-1.14272e-05
4.89272e-06
0.00197138
-3.15741e-06
2.93975e-06
0.00193223
2.47775e-06
4.39972e-06
0.0018986
5.34611e-06
2.83508e-06
0.0018656
7.90889e-06
3.9362e-06
0.00183697
5.76193e-06
2.68899e-06
0.00180382
1.22273e-05
3.49899e-06
0.00178006
1.97157e-06
2.5026e-06
0.00173536
1.24839e-05
3.2163e-06
6.85101e-05
2.10341e-06
0.00166181
0.00219474
-0.000990697
2.07689e-06
0.0019732
-0.00038176
-4.64952e-06
0.0017384
-0.000189003
8.66336e-07
0.00156645
-7.54986e-05
-3.9098e-06
0.00143501
-3.46148e-05
2.25254e-07
0.00133595
-1.71377e-05
-3.60194e-06
0.00125071
-6.51843e-06
-4.2044e-07
0.00118002
-2.5442e-06
-3.46447e-06
0.0011155
2.29248e-06
-9.97514e-07
0.00106287
4.61208e-06
-3.43051e-06
0.0010157
8.37376e-06
-1.52013e-06
0.000977638
9.98746e-06
-3.4678e-06
0.000942038
1.22541e-05
-2.00071e-06
0.000911272
1.24554e-05
-3.56157e-06
0.0008815
1.3572e-05
-2.45349e-06
0.000852586
1.25332e-05
-3.70107e-06
0.000830258
1.23885e-05
-2.90816e-06
0.000799358
1.24546e-05
-3.86209e-06
0.000826341
-3.45117e-05
-3.46163e-06
1.58743e-05
-4.4619e-06
0.00086076
0.00125473
1.2738e-05
0.000835915
5.39321e-06
0.000605171
1.07986e-05
0.000493575
5.87577e-06
0.000419065
9.91078e-06
0.000365817
6.03502e-06
0.000319932
9.17446e-06
0.000281131
6.11682e-06
0.000244955
8.56573e-06
0.000213938
6.13104e-06
0.000185278
8.02939e-06
0.000160755
6.0834e-06
0.000137655
7.54548e-06
0.000116998
5.98522e-06
9.70699e-05
7.08908e-06
7.81022e-05
5.84517e-06
5.89503e-05
6.65151e-06
4.16108e-05
5.67876e-06
-2.25778e-05
6.33557e-06
5.23099e-06
-3.45171e-05
0.00184985
0.000417649
2.59535e-06
0.00130761
0.000511473
4.27338e-06
0.000938779
0.000346646
1.73223e-06
0.000732505
0.000178674
3.07129e-06
0.000618208
9.24606e-05
1.72424e-06
0.000538895
5.25084e-05
2.71096e-06
0.000480066
3.5935e-05
1.80465e-06
0.000426394
2.71179e-05
2.4102e-06
0.000382471
2.06972e-05
1.77635e-06
0.000340907
1.5966e-05
2.08785e-06
0.000306611
1.15014e-05
1.69788e-06
0.000273556
8.73204e-06
1.82929e-06
0.000245233
6.31363e-06
1.62517e-06
0.000217001
5.31824e-06
1.63511e-06
0.00019169
4.31898e-06
1.56005e-06
0.000166104
4.1875e-06
1.47164e-06
0.000146748
-4.91636e-07
1.49784e-06
0.00011582
1.1086e-05
1.31725e-06
0.000206224
-0.000108981
1.40874e-06
-0.000109294
1.31878e-06
0.000296854
0.00235051
0.000319029
7.69438e-06
0.00225844
0.000557547
9.52212e-06
0.00210528
0.000462086
7.05742e-06
0.00194084
0.000299846
8.3549e-06
0.00180266
0.000193577
6.94581e-06
0.00168351
0.000130431
7.93778e-06
0.00158677
9.57777e-05
7.01687e-06
0.00150043
7.29418e-05
7.61631e-06
0.00142985
5.38913e-05
6.97655e-06
0.00136723
3.86295e-05
7.2891e-06
0.00131723
2.42395e-05
6.88404e-06
0.00127238
1.46862e-05
7.01692e-06
0.00123526
6.72796e-06
6.80415e-06
0.00119978
3.08447e-06
6.80241e-06
0.00116772
4.83278e-07
6.72979e-06
0.00113747
-1.85523e-06
6.61104e-06
0.0011047
-2.47519e-06
6.65908e-06
0.00108559
-4.42205e-06
6.41544e-06
0.000991883
-4.89223e-05
6.6352e-06
-2.89435e-05
6.48101e-06
0.000877894
0.00237481
0.000206778
3.48137e-06
0.00247174
0.000425844
5.48903e-06
0.00250309
0.000404211
2.66887e-06
0.00247137
0.000298534
4.397e-06
0.00242003
0.000218197
2.6446e-06
0.00235739
0.000162029
4.01637e-06
0.00229897
0.000128359
2.83505e-06
0.00223839
0.000104149
3.72755e-06
0.00218298
8.32286e-05
2.89301e-06
0.0021282
6.43527e-05
3.41638e-06
0.00208076
4.5265e-05
2.86018e-06
0.00203633
3.08094e-05
3.14672e-06
0.00199863
1.83221e-05
2.81959e-06
0.00196192
1.23878e-05
2.93656e-06
0.00193067
6.02508e-06
2.7807e-06
0.00189582
6.58916e-06
2.75416e-06
0.00187234
-3.84239e-06
2.73132e-06
0.00183431
8.73451e-06
2.59054e-06
0.00183222
-7.00969e-05
2.59501e-06
-4.51133e-05
2.60376e-06
0.0018249
0.00232728
0.000133709
6.57741e-06
0.002438
0.000272396
8.44694e-06
0.00254061
0.000266578
6.08155e-06
0.00258985
0.000208072
7.44315e-06
0.00261232
0.000160346
5.98518e-06
0.00261005
0.000125041
6.99501e-06
0.00260127
0.000103141
6.04783e-06
0.00258175
8.6848e-05
6.67466e-06
0.0025594
7.2052e-05
6.02384e-06
0.00252961
5.78143e-05
6.35571e-06
0.00249866
4.22102e-05
5.93564e-06
0.00246437
2.9344e-05
6.07799e-06
0.00243147
1.75424e-05
5.85323e-06
0.00239808
1.0924e-05
5.8622e-06
0.002366
4.71383e-06
5.78343e-06
0.00233517
3.2272e-06
5.67484e-06
0.00230092
-2.51384e-06
5.71187e-06
0.00227477
1.92937e-06
5.50176e-06
0.00220616
-3.33269e-05
5.69623e-06
-1.15598e-06
5.57516e-06
0.00213056
0.00232924
6.38959e-05
4.56667e-06
0.00243031
0.000134019
6.51028e-06
0.00253314
0.000134241
3.98811e-06
0.00259807
0.000107157
5.50682e-06
0.00264326
8.50773e-05
3.90216e-06
0.00266613
6.79946e-05
5.05293e-06
0.00268317
5.7398e-05
4.01168e-06
0.00268903
4.94621e-05
4.74828e-06
0.00269069
4.23865e-05
4.03005e-06
0.00268226
3.53164e-05
4.44235e-06
0.00266876
2.71243e-05
3.96874e-06
0.00264765
1.99486e-05
4.17017e-06
0.00262392
1.2944e-05
3.9041e-06
0.0025963
8.98846e-06
3.95913e-06
0.00256838
4.55253e-06
3.84728e-06
0.00253801
4.5434e-06
3.77679e-06
0.00250896
-1.36447e-06
3.78132e-06
0.00247806
4.69749e-06
3.62127e-06
0.002442
-2.39664e-05
3.67921e-06
-7.72463e-06
3.64771e-06
0.00242191
0.00232066
-2.82737e-10
5.55825e-06
0.00241483
-4.16028e-10
7.45871e-06
0.00251682
-7.01956e-10
5.0722e-06
0.00258538
-1.34669e-10
6.49167e-06
0.00263764
-4.29322e-11
4.97308e-06
0.00266883
1.80845e-09
6.0287e-06
0.00269486
2.90581e-10
5.04635e-06
0.00271024
2.40955e-09
5.71665e-06
0.00272207
-1.2803e-09
5.04564e-06
0.00272395
4.86164e-09
5.40975e-06
0.00271992
1.29831e-09
4.97137e-06
0.00270681
2.09831e-08
5.1353e-06
0.00268887
1.03238e-08
4.89566e-06
0.00266575
8.30668e-08
4.92214e-06
0.00263969
3.8183e-08
4.8309e-06
0.00261242
2.59885e-07
4.73722e-06
0.00258035
1.87359e-07
4.75902e-06
0.0025536
6.86222e-07
4.57696e-06
0.0024992
8.55657e-07
4.708e-06
1.70542e-06
4.62905e-06
0.00246038
0.00232066
-6.38965e-05
5.55825e-06
0.00241483
-0.000134019
7.45871e-06
0.00251682
-0.000134242
5.0722e-06
0.00258538
-0.000107157
6.49167e-06
0.00263764
-8.50776e-05
4.97308e-06
0.00266883
-6.79909e-05
6.0287e-06
0.00269486
-5.7398e-05
5.04634e-06
0.00271024
-4.94565e-05
5.71666e-06
0.00272207
-4.239e-05
5.04562e-06
0.00272395
-3.53043e-05
5.40977e-06
0.00271992
-2.71246e-05
4.97133e-06
0.00270681
-1.99003e-05
5.13537e-06
0.00268887
-1.29317e-05
4.89557e-06
0.00266575
-8.8098e-06
4.92233e-06
0.00263971
-4.50864e-06
4.83066e-06
0.00261245
-4.02236e-06
4.73793e-06
0.00258046
1.65454e-06
4.75785e-06
0.00255385
-3.45621e-06
4.57877e-06
0.00249966
2.54672e-05
4.70357e-06
1.07999e-05
4.62779e-06
0.00246121
0.00232924
-0.00013371
4.56667e-06
0.00243031
-0.000272396
6.51028e-06
0.00253314
-0.00026658
3.98811e-06
0.00259807
-0.000208073
5.50682e-06
0.00264326
-0.000160346
3.90216e-06
0.00266613
-0.000125038
5.05293e-06
0.00268317
-0.000103141
4.01168e-06
0.00268903
-8.68439e-05
4.74827e-06
0.00269069
-7.2054e-05
4.03006e-06
0.00268226
-5.7805e-05
4.44233e-06
0.00266876
-4.22076e-05
3.96878e-06
0.00264766
-2.93053e-05
4.17013e-06
0.00262393
-1.75247e-05
3.90419e-06
0.00259634
-1.07722e-05
3.95897e-06
0.0025684
-4.64947e-06
3.84751e-06
0.00253808
-2.7559e-06
3.77613e-06
0.00250898
2.84167e-06
3.78237e-06
0.0024781
-7.04964e-07
3.61968e-06
0.002442
3.48496e-05
3.68328e-06
4.31664e-06
3.65104e-06
0.00242181
0.00232728
-0.000206779
6.57741e-06
0.002438
-0.000425844
8.44694e-06
0.00254061
-0.000404212
6.08155e-06
0.00258985
-0.000298534
7.44315e-06
0.00261232
-0.000218197
5.98518e-06
0.00261005
-0.000162028
6.99501e-06
0.00260127
-0.000128359
6.04782e-06
0.00258175
-0.000104145
6.67467e-06
0.0025594
-8.32303e-05
6.02383e-06
0.00252961
-6.43431e-05
6.35574e-06
0.00249867
-4.52638e-05
5.9356e-06
0.00246437
-3.0772e-05
6.07806e-06
0.00243149
-1.83131e-05
5.85313e-06
0.00239811
-1.22488e-05
5.86239e-06
0.00236608
-6.00109e-06
5.78324e-06
0.0023353
-6.17358e-06
5.67543e-06
0.0023012
4.02528e-06
5.71082e-06
0.00227528
-7.74495e-06
5.50333e-06
0.00220717
7.11369e-05
5.6921e-06
4.73633e-05
5.57304e-06
0.0021325
0.00237481
-0.000319029
3.48137e-06
0.00247174
-0.000557548
5.48903e-06
0.00250309
-0.000462087
2.66887e-06
0.00247137
-0.000299847
4.39699e-06
0.00242003
-0.000193577
2.6446e-06
0.00235739
-0.000130431
4.01636e-06
0.00229897
-9.57773e-05
2.83506e-06
0.00223839
-7.29404e-05
3.72754e-06
0.00218299
-5.38904e-05
2.89302e-06
0.00212821
-3.86254e-05
3.41637e-06
0.00208076
-2.42349e-05
2.86022e-06
0.00203635
-1.46667e-05
3.14671e-06
0.00199865
-6.71447e-06
2.81968e-06
0.001962
-3.00168e-06
2.93642e-06
0.00193073
-4.45779e-07
2.78092e-06
0.00189604
2.12188e-06
2.75353e-06
0.00187254
2.66568e-06
2.7322e-06
0.00183482
5.09803e-06
2.58929e-06
0.00183282
4.98632e-05
2.59808e-06
3.07106e-05
2.60375e-06
0.001826
0.00235051
-0.000417648
7.69438e-06
0.00225844
-0.000511473
9.52212e-06
0.00210528
-0.000346647
7.05742e-06
0.00194084
-0.000178675
8.3549e-06
0.00180266
-9.24613e-05
6.94582e-06
0.00168351
-5.25085e-05
7.93778e-06
0.00158677
-3.59349e-05
7.01687e-06
0.00150043
-2.71173e-05
7.61632e-06
0.00142985
-2.06969e-05
6.97654e-06
0.00136724
-1.5964e-05
7.28913e-06
0.00131724
-1.14999e-05
6.884e-06
0.0012724
-8.72257e-06
7.01701e-06
0.00123529
-6.31036e-06
6.80404e-06
0.00119985
-5.27774e-06
6.80258e-06
0.00116784
-4.3165e-06
6.72952e-06
0.00113772
-4.05916e-06
6.61144e-06
0.00110514
5.04089e-07
6.65834e-06
0.00108635
-1.0742e-05
6.41672e-06
0.000993721
0.000108868
6.63225e-06
0.00010908
6.48268e-06
0.000881699
0.00184985
2.59536e-06
0.00130761
4.27338e-06
0.000938779
1.73224e-06
0.000732505
3.0713e-06
0.000618208
1.72424e-06
0.000538896
2.71097e-06
0.000480066
1.80465e-06
0.000426395
2.4102e-06
0.000382473
1.77636e-06
0.000340912
2.08785e-06
0.000306618
1.69791e-06
0.000273575
1.8293e-06
0.000245256
1.62519e-06
0.000217066
1.63511e-06
0.000191761
1.56005e-06
0.000166299
1.47148e-06
0.000146966
1.49797e-06
0.000116354
1.31683e-06
0.000206693
1.40928e-06
1.31793e-06
0.000296986
0.0020893
0.000170513
-2.01451e-10
0.00181471
0.000247006
-2.02639e-10
0.00152445
0.000260304
-2.02319e-10
0.00126708
0.000229719
-2.01742e-10
0.00105525
0.000183767
-1.96681e-10
0.000894947
0.000133261
-1.98219e-10
0.000780419
8.62522e-05
-1.92849e-10
0.000703987
4.86449e-05
-1.95185e-10
0.000651047
2.47123e-05
-1.8996e-10
0.000612088
1.14218e-05
-1.91804e-10
0.000579083
5.59965e-06
-1.87543e-10
0.000549054
3.34192e-06
-1.86975e-10
0.00052076
2.06762e-06
-1.81938e-10
0.000492534
2.71307e-06
-1.80814e-10
0.000467543
1.34509e-07
-1.76157e-10
0.000438856
4.51322e-06
-1.73946e-10
0.000419484
-4.04246e-06
-1.70856e-10
0.000386647
1.00473e-05
-1.68657e-10
0.000377464
-1.28138e-05
-1.65362e-10
-1.28038e-05
-1.62709e-10
0.00036902
0.00231238
0.000122939
-2.01979e-10
0.002325
0.000212186
-2.02549e-10
0.00229952
0.000261227
-2.00856e-10
0.00224415
0.00026203
-2.01106e-10
0.00216919
0.00023509
-1.97573e-10
0.00208879
0.000191999
-1.99873e-10
0.00200878
0.000144258
-1.95085e-10
0.00193587
0.000100217
-1.96569e-10
0.00187193
6.66041e-05
-1.90321e-10
0.00181868
4.30397e-05
-1.91544e-10
0.0017745
2.80172e-05
-1.87655e-10
0.00173715
1.93909e-05
-1.87883e-10
0.00170499
1.30841e-05
-1.83211e-10
0.00167522
1.17896e-05
-1.81551e-10
0.00164967
5.52431e-06
-1.76273e-10
0.00162263
1.20343e-05
-1.73676e-10
0.00160296
-2.98449e-06
-1.70458e-10
0.00157466
2.0355e-05
-1.68267e-10
0.00155946
-1.449e-05
-1.65329e-10
2.42831e-05
-1.62819e-10
0.00150612
0.00230059
8.29171e-05
-2.02047e-10
0.00233774
0.000148856
-2.02955e-10
0.002377
0.000193138
-2.00829e-10
0.00240946
0.000202383
-1.99933e-10
0.00242615
0.00019002
-1.96832e-10
0.00242903
0.000163266
-2.00963e-10
0.00241756
0.0001298
-1.97744e-10
0.00239603
9.71898e-05
-1.98355e-10
0.00236692
7.03119e-05
-1.90651e-10
0.0023345
5.0522e-05
-1.90497e-10
0.00230125
3.59657e-05
-1.86403e-10
0.00226926
2.67082e-05
-1.87457e-10
0.00223967
1.7965e-05
-1.83233e-10
0.00221198
1.50961e-05
-1.81024e-10
0.00218743
5.81049e-06
-1.74839e-10
0.00216328
1.23809e-05
-1.72155e-10
0.00214284
-5.63698e-06
-1.68985e-10
0.00212113
1.97621e-05
-1.67422e-10
0.00210321
-1.78937e-05
-1.65004e-10
3.03832e-05
-1.63061e-10
0.00207678
0.00229067
5.59e-05
-2.02238e-10
0.00231805
9.82735e-05
-2.03208e-10
0.00235852
0.00012728
-2.01067e-10
0.00240239
0.000134337
-2.00225e-10
0.00243937
0.000127895
-1.97068e-10
0.00246788
0.000111821
-2.0124e-10
0.00248388
9.11464e-05
-1.98141e-10
0.00248898
7.06855e-05
-1.98549e-10
0.00248359
5.36657e-05
-1.90722e-10
0.00247129
4.10054e-05
-1.90591e-10
0.00245395
3.12305e-05
-1.86592e-10
0.00243445
2.46558e-05
-1.88188e-10
0.00241321
1.77666e-05
-1.84273e-10
0.00239196
1.51026e-05
-1.81816e-10
0.00236927
7.32086e-06
-1.75312e-10
0.00234887
1.17743e-05
-1.72217e-10
0.00232527
-2.4028e-06
-1.68776e-10
0.00230873
1.65881e-05
-1.67334e-10
0.00228315
-1.08272e-05
-1.65231e-10
2.97049e-05
-1.63479e-10
0.00226628
0.00229125
2.62945e-05
-2.02255e-10
0.00231676
4.76274e-05
-2.02957e-10
0.00235388
6.26793e-05
-2.01646e-10
0.00239571
6.63822e-05
-2.00808e-10
0.00243303
6.33431e-05
-1.97553e-10
0.00246443
5.5536e-05
-2.00585e-10
0.00248554
4.53726e-05
-1.97006e-10
0.00249745
3.54781e-05
-1.97319e-10
0.00249983
2.72991e-05
-1.90671e-10
0.00249573
2.1409e-05
-1.90667e-10
0.00248621
1.67314e-05
-1.86533e-10
0.00247385
1.35929e-05
-1.87575e-10
0.00245842
9.88906e-06
-1.83454e-10
0.00244201
8.45356e-06
-1.81173e-10
0.00242234
3.92557e-06
-1.75183e-10
0.00240486
6.33909e-06
-1.72749e-10
0.00238169
-1.62587e-06
-1.69165e-10
0.00236791
8.65758e-06
-1.67611e-10
0.00234229
-5.87889e-06
-1.65238e-10
1.5335e-05
-1.63325e-10
0.00233708
0.00228893
-2.58425e-10
-2.02455e-10
0.00231237
-2.88604e-10
-2.03158e-10
0.00234865
-6.69948e-10
-2.01991e-10
0.0023899
2.42356e-10
-2.01801e-10
0.00242707
-5.87418e-10
-1.98204e-10
0.00245871
2.22645e-09
-2.00498e-10
0.00248046
-1.27775e-09
-1.96028e-10
0.00249362
3.93608e-09
-1.96814e-10
0.00249795
-4.10997e-09
-1.90944e-10
0.00249661
7.97252e-09
-1.91624e-10
0.00249033
-5.79864e-09
-1.87228e-10
0.00248144
2.46106e-08
-1.87779e-10
0.00246904
-6.40302e-09
-1.832e-10
0.00245535
8.102e-08
-1.81373e-10
0.00243722
-3.81272e-09
-1.7652e-10
0.00242135
2.53673e-07
-1.74506e-10
0.00239821
7.46455e-08
-1.70832e-10
0.00238541
6.52615e-07
-1.68622e-10
0.00235923
6.22445e-07
-1.65728e-10
1.47098e-06
-1.6315e-10
0.00235445
0.00228893
-2.6295e-05
-2.0251e-10
0.00231237
-4.76279e-05
-2.02875e-10
0.00234865
-6.26806e-05
-2.02221e-10
0.0023899
-6.63816e-05
-2.0197e-10
0.00242707
-6.33444e-05
-1.98748e-10
0.00245871
-5.55315e-05
-2.00225e-10
0.00248046
-4.53753e-05
-1.95044e-10
0.00249362
-3.547e-05
-1.95789e-10
0.00249795
-2.73077e-05
-1.90684e-10
0.00249661
-2.13923e-05
-1.91264e-10
0.00249033
-1.6744e-05
-1.86912e-10
0.00248144
-1.35425e-05
-1.86514e-10
0.00246905
-9.90425e-06
-1.81588e-10
0.00245535
-8.29024e-06
-1.8019e-10
0.00243722
-3.93967e-06
-1.76345e-10
0.00242136
-5.8326e-06
-1.75281e-10
0.00239824
1.75558e-06
-1.71647e-10
0.00238547
-7.37504e-06
-1.69401e-10
0.00235933
7.06671e-06
-1.65869e-10
-1.24765e-05
-1.6284e-10
0.00235464
0.00229125
-5.59004e-05
-2.02611e-10
0.00231676
-9.8274e-05
-2.03054e-10
0.00235388
-0.000127281
-2.02575e-10
0.00239571
-0.000134336
-2.02936e-10
0.00243303
-0.000127896
-1.9927e-10
0.00246443
-0.000111817
-2.00018e-10
0.00248554
-9.1149e-05
-1.93934e-10
0.00249745
-7.0678e-05
-1.95278e-10
0.00249983
-5.36735e-05
-1.9103e-10
0.00249573
-4.09897e-05
-1.9224e-10
0.00248621
-3.12418e-05
-1.87666e-10
0.00247385
-2.46083e-05
-1.86652e-10
0.00245842
-1.77806e-05
-1.81341e-10
0.00244202
-1.49477e-05
-1.80422e-10
0.00242235
-7.33641e-06
-1.77723e-10
0.00240489
-1.12865e-05
-1.76866e-10
0.00238175
2.51045e-06
-1.73276e-10
0.00236798
-1.53281e-05
-1.7068e-10
0.00234247
1.1912e-05
-1.66326e-10
-2.68732e-05
-1.63375e-10
0.00233729
0.00229067
-8.29174e-05
-2.02683e-10
0.00231805
-0.000148856
-2.02852e-10
0.00235852
-0.000193139
-2.02962e-10
0.00240239
-0.000202383
-2.03549e-10
0.00243937
-0.000190022
-1.9964e-10
0.00246788
-0.000163263
-1.99148e-10
0.00248388
-0.000129802
-1.92671e-10
0.00248898
-9.71829e-05
-1.94127e-10
0.00248359
-7.0319e-05
-1.91184e-10
0.00247129
-5.05067e-05
-1.92543e-10
0.00245395
-3.59769e-05
-1.87642e-10
0.00243445
-2.66633e-05
-1.85967e-10
0.00241322
-1.79814e-05
-1.80441e-10
0.00239199
-1.49523e-05
-1.79899e-10
0.0023693
-5.83704e-06
-1.7788e-10
0.00234894
-1.19262e-05
-1.77298e-10
0.00232539
5.69014e-06
-1.73695e-10
0.00230895
-1.85953e-05
-1.70942e-10
0.00228358
1.87601e-05
-1.66242e-10
-2.78763e-05
-1.6233e-10
0.00226703
0.00230059
-0.000122939
-2.0267e-10
0.00233775
-0.000212186
-2.03128e-10
0.002377
-0.000261228
-2.03314e-10
0.00240946
-0.000262031
-2.03851e-10
0.00242614
-0.000235091
-1.99524e-10
0.00242903
-0.000191997
-1.98989e-10
0.00241756
-0.000144259
-1.92657e-10
0.00239604
-0.000100213
-1.94347e-10
0.00236692
-6.66084e-05
-1.91602e-10
0.00233451
-4.30286e-05
-1.92959e-10
0.00230125
-2.80248e-05
-1.87925e-10
0.00226927
-1.93566e-05
-1.86466e-10
0.00223968
-1.30965e-05
-1.8129e-10
0.00221202
-1.16778e-05
-1.80701e-10
0.00218747
-5.5474e-06
-1.78194e-10
0.00216341
-1.167e-05
-1.77221e-10
0.002143
3.00571e-06
-1.73498e-10
0.00212149
-1.93926e-05
-1.70848e-10
0.00210381
1.51236e-05
-1.66314e-10
-2.2286e-05
-1.62264e-10
0.0020779
0.00231238
-0.000170512
-2.02966e-10
0.002325
-0.000247006
-2.03742e-10
0.00229952
-0.000260304
-2.03124e-10
0.00224415
-0.00022972
-2.02662e-10
0.00216919
-0.000183767
-1.98871e-10
0.00208879
-0.000133261
-2.00097e-10
0.00200878
-8.62522e-05
-1.95333e-10
0.00193587
-4.8644e-05
-1.96402e-10
0.00187193
-2.47127e-05
-1.92456e-10
0.00181869
-1.14181e-05
-1.92519e-10
0.0017745
-5.60118e-06
-1.86893e-10
0.00173717
-3.32588e-06
-1.85928e-10
0.00170501
-2.07249e-06
-1.81167e-10
0.00167529
-2.65488e-06
-1.80266e-10
0.00164974
-1.48669e-07
-1.77018e-10
0.00162286
-4.31228e-06
-1.75771e-10
0.00160321
4.03104e-06
-1.72224e-10
0.00157535
-9.50282e-06
-1.69937e-10
0.00156048
1.30978e-05
-1.66097e-10
1.35381e-05
-1.62928e-10
0.00150845
0.0020893
-2.03384e-10
0.00181471
-2.03681e-10
0.00152445
-2.01555e-10
0.00126708
-2.02084e-10
0.00105525
-1.99929e-10
0.000894947
-2.01741e-10
0.000780419
-1.97323e-10
0.000703989
-1.97787e-10
0.000651048
-1.92921e-10
0.000612095
-1.92276e-10
0.000579088
-1.86826e-10
0.000549077
-1.86693e-10
0.00052078
-1.82503e-10
0.000492611
-1.8129e-10
0.000467614
-1.77323e-10
0.000439115
-1.75633e-10
0.00041975
-1.71918e-10
0.000387428
-1.69627e-10
0.000378566
-1.66071e-10
-1.63226e-10
0.000370812
0.0020893
0.000170512
-2.59567e-06
0.00181471
0.000247006
-4.27376e-06
0.00152445
0.000260304
-1.7326e-06
0.00126708
0.000229719
-3.07167e-06
0.00105525
0.000183767
-1.72454e-06
0.000894947
0.000133261
-2.71134e-06
0.000780419
8.62517e-05
-1.80496e-06
0.000703987
4.86445e-05
-2.41057e-06
0.000651047
2.47119e-05
-1.77666e-06
0.000612088
1.14215e-05
-2.0882e-06
0.000579083
5.59938e-06
-1.69819e-06
0.000549054
3.34178e-06
-1.82962e-06
0.00052076
2.06754e-06
-1.62547e-06
0.000492534
2.71306e-06
-1.63543e-06
0.000467543
1.34501e-07
-1.56034e-06
0.000438855
4.5132e-06
-1.47193e-06
0.000419483
-4.04252e-06
-1.49813e-06
0.000386647
1.00473e-05
-1.31753e-06
0.000377464
-1.2814e-05
-1.40901e-06
-1.28039e-05
-1.31905e-06
0.00036902
0.00231238
0.000122939
-7.69478e-06
0.002325
0.000212186
-9.52253e-06
0.00229952
0.000261227
-7.05782e-06
0.00224415
0.00026203
-8.35531e-06
0.00216919
0.00023509
-6.94621e-06
0.00208879
0.000191998
-7.93819e-06
0.00200878
0.000144257
-7.01727e-06
0.00193587
0.000100217
-7.61671e-06
0.00187193
6.66036e-05
-6.97694e-06
0.00181868
4.30394e-05
-7.2895e-06
0.0017745
2.8017e-05
-6.88443e-06
0.00173715
1.93908e-05
-7.01731e-06
0.00170499
1.30842e-05
-6.80452e-06
0.00167522
1.17898e-05
-6.80278e-06
0.00164967
5.52451e-06
-6.73015e-06
0.00162263
1.20345e-05
-6.61139e-06
0.00160296
-2.98438e-06
-6.65943e-06
0.00157466
2.03551e-05
-6.41578e-06
0.00155946
-1.449e-05
-6.63554e-06
2.42831e-05
-6.48134e-06
0.00150612
0.00230059
8.2917e-05
-3.48174e-06
0.00233774
0.000148856
-5.48942e-06
0.002377
0.000193138
-2.66923e-06
0.00240946
0.000202383
-4.39738e-06
0.00242614
0.00019002
-2.64497e-06
0.00242903
0.000163265
-4.01675e-06
0.00241756
0.000129799
-2.83543e-06
0.00239603
9.71893e-05
-3.72792e-06
0.00236692
7.03117e-05
-2.89338e-06
0.0023345
5.0522e-05
-3.41674e-06
0.00230125
3.59658e-05
-2.86054e-06
0.00226926
2.67084e-05
-3.14707e-06
0.00223967
1.79652e-05
-2.81994e-06
0.00221198
1.50964e-05
-2.9369e-06
0.00218743
5.81087e-06
-2.78104e-06
0.00216328
1.23812e-05
-2.75449e-06
0.00214284
-5.63676e-06
-2.73164e-06
0.00212113
1.97621e-05
-2.59085e-06
0.00210321
-1.78938e-05
-2.59532e-06
3.03829e-05
-2.60406e-06
0.00207678
0.00229067
5.58999e-05
-6.5778e-06
0.00231805
9.82734e-05
-8.44735e-06
0.00235852
0.000127279
-6.08194e-06
0.00240239
0.000134336
-7.44356e-06
0.00243937
0.000127895
-5.98557e-06
0.00246788
0.00011182
-6.99541e-06
0.00248388
9.11455e-05
-6.04822e-06
0.00248898
7.06851e-05
-6.67506e-06
0.00248359
5.36659e-05
-6.02422e-06
0.00247129
4.1006e-05
-6.35609e-06
0.00245395
3.1231e-05
-5.93602e-06
0.00243445
2.46562e-05
-6.07836e-06
0.00241321
1.7767e-05
-5.8536e-06
0.00239196
1.51032e-05
-5.86257e-06
0.00236927
7.32152e-06
-5.78378e-06
0.00234887
1.1775e-05
-5.67519e-06
0.00232527
-2.40247e-06
-5.71222e-06
0.00230873
1.65881e-05
-5.5021e-06
0.00228315
-1.08274e-05
-5.69656e-06
2.97045e-05
-5.57548e-06
0.00226628
0.00229125
2.62944e-05
-4.56705e-06
0.00231676
4.76274e-05
-6.51068e-06
0.00235388
6.26792e-05
-3.98848e-06
0.00239571
6.6382e-05
-5.50721e-06
0.00243303
6.33426e-05
-3.90254e-06
0.00246443
5.5535e-05
-5.05331e-06
0.00248554
4.53716e-05
-4.01206e-06
0.00249745
3.54778e-05
-4.74866e-06
0.00249983
2.72995e-05
-4.03042e-06
0.00249573
2.14098e-05
-4.44272e-06
0.00248621
1.67321e-05
-3.9691e-06
0.00247385
1.35934e-05
-4.17053e-06
0.00245842
9.88956e-06
-3.90446e-06
0.00244201
8.45427e-06
-3.95948e-06
0.00242234
3.92641e-06
-3.84763e-06
0.00240486
6.33987e-06
-3.77713e-06
0.00238169
-1.62547e-06
-3.78165e-06
0.00236791
8.65754e-06
-3.62159e-06
0.00234229
-5.87928e-06
-3.67953e-06
1.53344e-05
-3.64802e-06
0.00233708
0.00228893
-3.53742e-10
-5.55863e-06
0.00231237
-3.09305e-10
-7.45911e-06
0.00234865
-7.08175e-10
-5.07258e-06
0.0023899
1.14649e-10
-6.49206e-06
0.00242707
-1.16633e-09
-4.97347e-06
0.00245871
1.21177e-09
-6.02909e-06
0.00248046
-2.23616e-09
-5.04673e-06
0.00249362
3.67999e-09
-5.71704e-06
0.00249795
-3.62926e-09
-5.04601e-06
0.00249661
8.82962e-09
-5.41012e-06
0.00249033
-5.05572e-09
-4.97174e-06
0.00248144
2.51702e-08
-5.13567e-06
0.00246904
-5.86699e-09
-4.89602e-06
0.00245535
8.1817e-08
-4.92249e-06
0.00243722
-2.88228e-09
-4.83125e-06
0.00242135
2.54554e-07
-4.73757e-06
0.00239821
7.50756e-08
-4.75935e-06
0.00238541
6.52595e-07
-4.5773e-06
0.00235923
6.22019e-07
-4.70832e-06
1.47035e-06