/*--------------------------------*- C++ -*----------------------------------*\
  =========                 |
  \\      /  F ield         | OpenFOAM: The Open Source CFD Toolbox
   \\    /   O peration     | Website:  https://openfoam.org
    \\  /    A nd           | Version:  7
     \\/     M anipulation  |
\*---------------------------------------------------------------------------*/
FoamFile
{
    version     2.0;
    format      ascii;
    class       volVectorField;
    location    "0.1025";
    object      UMean;
}
// * * * * * * * * * * * * * * * * * * * * * * * * * * * * * * * * * * * * * //

dimensions      [0 1 -1 0 0 0 0];

internalField   nonuniform List<vector> 
4950
(
(3.64721 0.309927 -27.0485)
(3.33856 0.0680801 -27.0988)
(2.91867 0.0054388 -27.1111)
(2.97556 -0.0269172 -27.1217)
(2.82946 -0.0315472 -27.123)
(2.91877 -0.033814 -27.1261)
(2.80474 -0.034957 -27.1249)
(2.87766 -0.034978 -27.1265)
(2.77903 -0.0356588 -27.1253)
(2.8383 -0.0354439 -27.1266)
(2.75297 -0.03562 -27.1257)
(2.80094 -0.0357738 -27.1267)
(2.72705 -0.0347016 -27.126)
(2.76522 -0.0364857 -27.1267)
(2.70128 -0.0307664 -27.1263)
(2.73005 -0.0381957 -27.1268)
(2.67413 -0.0141809 -27.1266)
(2.68772 -0.038501 -27.1266)
(2.6365 0.0575386 -27.1281)
(2.53398 0.11915 -27.1124)
(4.54295 0.400142 -27.0725)
(4.75254 0.178675 -27.1221)
(4.54011 0.0955019 -27.141)
(4.66006 0.0366292 -27.1617)
(4.49209 0.0217363 -27.1703)
(4.60076 0.019648 -27.1777)
(4.45878 0.0199825 -27.1778)
(4.54807 0.0211322 -27.1801)
(4.42399 0.0210411 -27.179)
(4.49682 0.0217429 -27.1804)
(4.38844 0.0211449 -27.1795)
(4.4479 0.0220783 -27.1806)
(4.35266 0.0204245 -27.18)
(4.40204 0.022854 -27.1808)
(4.31618 0.0170518 -27.1805)
(4.3625 0.0253494 -27.1808)
(4.27495 0.00403195 -27.1809)
(4.34881 0.0300462 -27.1801)
(4.2057 -0.0285176 -27.1825)
(4.47309 0.00541373 -27.1605)
(4.64469 0.200131 -27.0745)
(4.98193 0.0783648 -27.1187)
(4.8758 0.0393542 -27.1354)
(5.01965 -0.00279047 -27.1571)
(4.84968 -0.0133083 -27.1679)
(4.95429 -0.0173132 -27.1774)
(4.80636 -0.0181004 -27.1785)
(4.89425 -0.0182175 -27.1814)
(4.76697 -0.0184887 -27.1803)
(4.8392 -0.0184415 -27.182)
(4.72872 -0.0184588 -27.1811)
(4.78671 -0.0186372 -27.1823)
(4.69124 -0.0178924 -27.1816)
(4.73509 -0.0189972 -27.1826)
(4.65543 -0.0155879 -27.1821)
(4.67942 -0.0189353 -27.1829)
(4.62435 -0.00739964 -27.1825)
(4.60049 -0.00790414 -27.183)
(4.59736 0.0175215 -27.183)
(4.45176 0.0987073 -27.1679)
(4.62243 0.122572 -27.0812)
(4.91712 0.0604421 -27.1267)
(4.85856 0.0403253 -27.1443)
(5.02349 0.0165215 -27.1662)
(4.86979 0.00954009 -27.1775)
(4.98017 0.00722338 -27.1871)
(4.83568 0.00673618 -27.1884)
(4.92501 0.00692894 -27.1912)
(4.79821 0.00685715 -27.1902)
(4.87113 0.00709168 -27.1917)
(4.76002 0.00688234 -27.1908)
(4.81969 0.0072128 -27.1919)
(4.72143 0.00661379 -27.1914)
(4.77197 0.00749552 -27.1921)
(4.68212 0.00537389 -27.1918)
(4.73272 0.00841364 -27.1922)
(4.64324 0.000608192 -27.192)
(4.71889 0.0102367 -27.192)
(4.63599 -0.00941403 -27.1919)
(4.78599 0.00954616 -27.1762)
(4.623 -1.33884e-07 -27.0774)
(4.92009 -1.27794e-07 -27.1202)
(4.86416 -8.12644e-08 -27.1363)
(5.03117 5.66414e-09 -27.1576)
(4.87645 4.83654e-08 -27.1685)
(4.98597 2.70349e-07 -27.1781)
(4.83957 3.21573e-07 -27.1794)
(4.92761 2.78487e-07 -27.1823)
(4.80023 3.51544e-07 -27.1813)
(4.87227 5.21679e-07 -27.1829)
(4.76169 6.44879e-07 -27.182)
(4.8194 1.41381e-06 -27.1832)
(4.72399 1.61265e-06 -27.1826)
(4.76716 5.73384e-06 -27.1836)
(4.68814 5.78643e-06 -27.1831)
(4.70987 3.23514e-05 -27.1839)
(4.65759 1.84951e-05 -27.1834)
(4.62656 0.000175904 -27.1842)
(4.63668 0.000130471 -27.1833)
(4.47737 0.000581608 -27.1704)
(4.62243 -0.122572 -27.0812)
(4.91712 -0.0604424 -27.1267)
(4.85856 -0.0403257 -27.1443)
(5.02349 -0.0165214 -27.1662)
(4.86979 -0.00953998 -27.1775)
(4.98017 -0.00722282 -27.1871)
(4.83568 -0.00673555 -27.1884)
(4.92501 -0.00692837 -27.1912)
(4.79821 -0.00685658 -27.1902)
(4.87113 -0.00709047 -27.1917)
(4.76002 -0.0068808 -27.1908)
(4.81969 -0.00721071 -27.1919)
(4.72143 -0.00660989 -27.1914)
(4.77198 -0.00748395 -27.1921)
(4.68213 -0.00535892 -27.1918)
(4.73272 -0.00836387 -27.1922)
(4.64329 -0.000546954 -27.192)
(4.71894 -0.0100277 -27.1921)
(4.63614 0.00970901 -27.1918)
(4.78635 -0.00863645 -27.1766)
(4.64469 -0.200131 -27.0745)
(4.98194 -0.0783649 -27.1187)
(4.8758 -0.0393545 -27.1354)
(5.01965 0.00279053 -27.1571)
(4.84968 0.0133085 -27.1679)
(4.95429 0.0173138 -27.1774)
(4.80636 0.0181011 -27.1785)
(4.89425 0.0182181 -27.1814)
(4.76697 0.0184894 -27.1803)
(4.8392 0.0184426 -27.182)
(4.72872 0.01846 -27.1811)
(4.78671 0.0186391 -27.1823)
(4.69124 0.0178956 -27.1816)
(4.73509 0.0190066 -27.1826)
(4.65545 0.0155981 -27.1821)
(4.67944 0.0189832 -27.1829)
(4.62441 0.00743191 -27.1824)
(4.60059 0.00816314 -27.1832)
(4.59765 -0.0173669 -27.1822)
(4.45243 -0.0976548 -27.1697)
(4.54295 -0.400143 -27.0725)
(4.75254 -0.178675 -27.1221)
(4.54011 -0.0955022 -27.141)
(4.66006 -0.0366292 -27.1617)
(4.49209 -0.0217362 -27.1703)
(4.60076 -0.0196475 -27.1777)
(4.45878 -0.0199821 -27.1778)
(4.54807 -0.0211317 -27.1801)
(4.42399 -0.0210405 -27.179)
(4.49682 -0.0217422 -27.1804)
(4.38844 -0.0211441 -27.1795)
(4.4479 -0.0220767 -27.1806)
(4.35267 -0.0204222 -27.18)
(4.40205 -0.0228484 -27.1808)
(4.31621 -0.0170426 -27.1805)
(4.36253 -0.0253194 -27.1809)
(4.27507 -0.00399626 -27.1806)
(4.34899 -0.029874 -27.181)
(4.20614 0.028671 -27.1798)
(4.47443 -0.00475641 -27.1675)
(3.64721 -0.309928 -27.0485)
(3.33856 -0.0680805 -27.0988)
(2.91867 -0.00543908 -27.1111)
(2.97556 0.0269174 -27.1217)
(2.82946 0.0315475 -27.123)
(2.91877 0.0338145 -27.1261)
(2.80474 0.0349574 -27.1249)
(2.87766 0.0349784 -27.1265)
(2.77903 0.0356592 -27.1253)
(2.8383 0.0354445 -27.1266)
(2.75297 0.0356207 -27.1257)
(2.80095 0.0357744 -27.1267)
(2.72705 0.034703 -27.126)
(2.76523 0.0364883 -27.1268)
(2.7013 0.0307717 -27.1263)
(2.73009 0.0382026 -27.1268)
(2.67424 0.0141961 -27.1265)
(2.68791 0.0385208 -27.127)
(2.637 -0.0575457 -27.1261)
(2.53515 -0.11877 -27.1212)
(4.50228 0.104152 0.00551965)
(4.1149 0.157136 0.00420215)
(3.83491 0.112883 0.0048192)
(3.73635 0.0713673 0.00398496)
(3.66521 0.0516729 0.00449092)
(3.67289 0.042334 0.00380034)
(3.63106 0.0392845 0.00420472)
(3.64769 0.0376474 0.00362248)
(3.60578 0.0371418 0.00394529)
(3.62242 0.0367124 0.00345713)
(3.58078 0.036401 0.00371221)
(3.5962 0.0365979 0.00330518)
(3.55575 0.0353268 0.00350402)
(3.56937 0.0371941 0.00316665)
(3.53019 0.0308935 0.0033198)
(3.54403 0.0403149 0.00304161)
(3.49936 0.00923452 0.00316095)
(3.54442 0.0493783 0.00293143)
(3.41685 -0.0890454 0.00304961)
(3.75514 -0.0912319 0.00282036)
(4.52184 0.0444075 0.0038387)
(4.59662 0.0918545 0.00279207)
(4.60431 0.0320269 0.00335983)
(4.62112 -0.00718089 0.00253381)
(4.58296 -0.0256616 0.00303667)
(4.59901 -0.0293716 0.00234675)
(4.55669 -0.02921 0.00275253)
(4.57492 -0.028228 0.00216966)
(4.53029 -0.0276585 0.00249368)
(4.54802 -0.0273705 0.00200486)
(4.50316 -0.0270783 0.00226063)
(4.51906 -0.0273381 0.00185338)
(4.47571 -0.0262554 0.00205169)
(4.48777 -0.0279289 0.00171554)
(4.44853 -0.0228208 0.00186389)
(4.45048 -0.0291562 0.00159138)
(4.42483 -0.0106265 0.00168955)
(4.38541 -0.0182048 0.00147759)
(4.41238 0.0113566 0.00149575)
(4.16299 0.109306 0.00132905)
(4.48555 0.0350639 0.00497823)
(4.63847 0.0951162 0.00399682)
(4.68627 0.0755264 0.00454181)
(4.72954 0.0487697 0.00371478)
(4.69466 0.031973 0.00421338)
(4.7082 0.0238916 0.00352165)
(4.66173 0.0209361 0.00392664)
(4.67796 0.0196433 0.00334342)
(4.63179 0.0192383 0.00366699)
(4.64927 0.018985 0.0031778)
(4.60352 0.018772 0.00343365)
(4.62018 0.0189093 0.00302556)
(4.57501 0.0181052 0.00322563)
(4.5912 0.019236 0.00288675)
(4.54486 0.0154021 0.00304322)
(4.56714 0.0206344 0.00276165)
(4.51091 0.002842 0.00289307)
(4.56606 0.0232713 0.00265405)
(4.49418 -0.0420093 0.00281504)
(4.61932 -0.0112034 0.00258607)
(4.45837 0.0126094 0.00369053)
(4.56609 0.0297754 0.0028145)
(4.6287 0.0128682 0.00333944)
(4.69244 0.000756575 0.00252293)
(4.6773 -0.00653779 0.00301655)
(4.70207 -0.00899827 0.0023267)
(4.66253 -0.00950352 0.00273187)
(4.6816 -0.00934264 0.00214924)
(4.6371 -0.0091888 0.00247327)
(4.65484 -0.00909773 0.00198447)
(4.60989 -0.00898493 0.00224017)
(4.62548 -0.00908471 0.00183298)
(4.58224 -0.00867546 0.00203088)
(4.59305 -0.009266 0.00169501)
(4.555 -0.0074544 0.00184158)
(4.55188 -0.00936531 0.00156982)
(4.5308 -0.00342416 0.00166008)
(4.47316 -0.0034099 0.00144922)
(4.50995 0.0033506 0.00142994)
(4.25812 0.0382629 0.00127232)
(4.48016 8.04741e-08 0.0048977)
(4.62196 5.5634e-08 0.00401679)
(4.67006 1.94271e-07 0.00453957)
(4.72499 9.22429e-08 0.00371769)
(4.69763 3.38742e-08 0.0042114)
(4.71498 2.74207e-08 0.00351913)
(4.66975 4.79905e-08 0.00392379)
(4.68625 -8.38703e-08 0.00334044)
(4.64002 -6.96939e-08 0.00366411)
(4.65747 2.44516e-07 0.0031748)
(4.61163 2.60139e-07 0.00343078)
(4.62839 7.35546e-07 0.00302256)
(4.58302 1.08305e-06 0.00322289)
(4.59971 4.77784e-06 0.00288377)
(4.55287 6.29209e-06 0.0030411)
(4.57662 2.11014e-05 0.00275893)
(4.52133 3.66612e-05 0.00289371)
(4.57538 7.71428e-05 0.00265257)
(4.52094 0.000189121 0.0028236)
(4.61984 0.000300024 0.00258618)
(4.45837 -0.0126095 0.00369053)
(4.56609 -0.0297753 0.0028145)
(4.6287 -0.0128681 0.00333944)
(4.69244 -0.000756359 0.00252293)
(4.6773 0.00653786 0.00301655)
(4.70207 0.00899852 0.0023267)
(4.66253 0.00950372 0.00273187)
(4.6816 0.00934265 0.00214924)
(4.6371 0.00918879 0.00247327)
(4.65484 0.00909813 0.00198447)
(4.60989 0.00898546 0.00224017)
(4.62548 0.00908643 0.00183298)
(4.58224 0.00867739 0.00203088)
(4.59306 0.00927646 0.00169501)
(4.55501 0.00746354 0.00184158)
(4.55189 0.00941935 0.00156982)
(4.53083 0.00346772 0.00166005)
(4.47321 0.00366586 0.00144918)
(4.51005 -0.00304574 0.00142989)
(4.25832 -0.037368 0.00127211)
(4.48555 -0.0350638 0.00497823)
(4.63847 -0.095116 0.00399682)
(4.68627 -0.0755261 0.00454181)
(4.72954 -0.0487695 0.00371477)
(4.69466 -0.0319729 0.00421338)
(4.7082 -0.0238915 0.00352165)
(4.66173 -0.0209361 0.00392664)
(4.67796 -0.0196435 0.00334342)
(4.63179 -0.0192384 0.00366699)
(4.64927 -0.0189846 0.0031778)
(4.60352 -0.0187716 0.00343365)
(4.62018 -0.0189082 0.00302556)
(4.57501 -0.0181035 0.00322562)
(4.5912 -0.0192283 0.00288675)
(4.54487 -0.0153927 0.00304321)
(4.56716 -0.0205989 0.00276165)
(4.51098 -0.00278881 0.00289301)
(4.56616 -0.0231187 0.00265411)
(4.49441 0.0423778 0.00281476)
(4.61993 0.011848 0.00258615)
(4.52184 -0.0444074 0.0038387)
(4.59662 -0.0918544 0.00279207)
(4.60431 -0.0320267 0.00335983)
(4.62112 0.00718106 0.00253381)
(4.58296 0.0256617 0.00303667)
(4.59901 0.0293718 0.00234675)
(4.55669 0.0292101 0.00275252)
(4.57492 0.0282281 0.00216966)
(4.53029 0.0276586 0.00249367)
(4.54802 0.0273707 0.00200486)
(4.50316 0.0270787 0.00226063)
(4.51907 0.0273391 0.00185338)
(4.47572 0.0262568 0.00205169)
(4.48777 0.0279346 0.00171554)
(4.44855 0.022826 0.00186387)
(4.45051 0.0291876 0.00159137)
(4.42489 0.0106488 0.00168947)
(4.38564 0.018345 0.00147758)
(4.41253 -0.0111822 0.00149543)
(4.16436 -0.108633 0.00132881)
(4.50228 -0.104153 0.00551965)
(4.1149 -0.157136 0.00420215)
(3.83491 -0.112883 0.0048192)
(3.73635 -0.0713673 0.00398495)
(3.66521 -0.0516729 0.00449092)
(3.67289 -0.0423339 0.00380034)
(3.63106 -0.0392845 0.00420472)
(3.64769 -0.0376472 0.00362247)
(3.60578 -0.0371417 0.00394529)
(3.62242 -0.0367126 0.00345713)
(3.58078 -0.0364009 0.00371221)
(3.5962 -0.0365973 0.00330518)
(3.55576 -0.0353262 0.00350402)
(3.56938 -0.0371916 0.00316664)
(3.53022 -0.030892 0.0033198)
(3.54406 -0.040296 0.00304156)
(3.49947 -0.00922958 0.00316098)
(3.54464 -0.0492998 0.00293126)
(3.41711 0.089137 0.00304933)
(3.75747 0.0914821 0.00282119)
(4.4156 0.0252549 -5.84427e-08)
(4.43004 0.0215647 -5.86814e-08)
(4.28254 0.00914745 -5.8819e-08)
(4.33356 -0.000756272 -5.89195e-08)
(4.2495 -0.0063122 -5.90919e-08)
(4.31316 -0.00762223 -5.91579e-08)
(4.24908 -0.00865776 -5.94588e-08)
(4.3045 -0.00835971 -5.94854e-08)
(4.24972 -0.00881233 -5.98807e-08)
(4.29611 -0.00843585 -5.98325e-08)
(4.24879 -0.00878592 -6.03148e-08)
(4.28744 -0.00841639 -6.02206e-08)
(4.2466 -0.00880673 -6.07846e-08)
(4.27865 -0.00828736 -6.0659e-08)
(4.24331 -0.0092257 -6.1285e-08)
(4.27053 -0.00765859 -6.1136e-08)
(4.23684 -0.0116766 -6.18345e-08)
(4.26944 -0.004445 -6.16745e-08)
(4.20602 -0.0221524 -6.25275e-08)
(4.30646 0.00549996 -6.21997e-08)
(4.46409 0.0284881 -5.83105e-08)
(4.59122 0.0290446 -5.85244e-08)
(4.51591 0.0208805 -5.86936e-08)
(4.60358 0.0119418 -5.89465e-08)
(4.5271 0.00721315 -5.92686e-08)
(4.59643 0.0051622 -5.93763e-08)
(4.53001 0.00481197 -5.96895e-08)
(4.58802 0.00459296 -5.96684e-08)
(4.53077 0.00473845 -6.00697e-08)
(4.57926 0.00462355 -6.00026e-08)
(4.52985 0.0047446 -6.04911e-08)
(4.57019 0.00461087 -6.03813e-08)
(4.52766 0.00478025 -6.09466e-08)
(4.56088 0.00457147 -6.08133e-08)
(4.52465 0.00496706 -6.14391e-08)
(4.55115 0.00496002 -6.12921e-08)
(4.52134 0.00480183 -6.19797e-08)
(4.53965 0.0109268 -6.18126e-08)
(4.51865 0.000593885 -6.26973e-08)
(4.51629 0.0470707 -6.22986e-08)
(4.45877 0.00902005 -5.83172e-08)
(4.58646 0.0110672 -5.85439e-08)
(4.51616 0.00730206 -5.87135e-08)
(4.60966 0.00208395 -5.89053e-08)
(4.53581 -0.00171956 -5.91692e-08)
(4.60619 -0.00320767 -5.92595e-08)
(4.53975 -0.00411123 -5.95838e-08)
(4.59779 -0.00409693 -5.95921e-08)
(4.54041 -0.00436336 -5.99871e-08)
(4.58895 -0.0041839 -5.99256e-08)
(4.53947 -0.00436734 -6.041e-08)
(4.57994 -0.004175 -6.03111e-08)
(4.53725 -0.00439512 -6.08783e-08)
(4.5709 -0.00408644 -6.07599e-08)
(4.53408 -0.0046916 -6.13939e-08)
(4.56227 -0.00357572 -6.12224e-08)
(4.53085 -0.00642274 -6.19136e-08)
(4.55341 -0.000677692 -6.17717e-08)
(4.53707 -0.0121948 -6.25813e-08)
(4.53372 0.0100034 -6.23544e-08)
(4.45677 0.00855818 -5.82914e-08)
(4.5782 0.00933795 -5.85514e-08)
(4.50944 0.00733015 -5.87317e-08)
(4.60503 0.00440471 -5.89375e-08)
(4.53374 0.00269651 -5.92002e-08)
(4.60546 0.00185473 -5.9282e-08)
(4.53974 0.00164249 -5.95895e-08)
(4.59805 0.00153134 -5.95685e-08)
(4.5408 0.00156623 -5.99666e-08)
(4.58936 0.00152597 -5.98945e-08)
(4.5399 0.00156602 -6.03841e-08)
(4.58027 0.00152216 -6.04219e-08)
(4.53773 0.00157974 -6.10814e-08)
(4.57084 0.00152154 -6.14082e-08)
(4.53486 0.0016364 -6.24294e-08)
(4.56053 0.00175002 -6.14171e-08)
(4.53273 0.00156962 -6.19377e-08)
(4.54576 0.00415784 -6.21321e-08)
(4.53811 0.00104542 -6.26462e-08)
(4.51636 0.0165014 -6.22334e-08)
(4.45709 3.91317e-09 -5.83435e-08)
(4.58065 1.73567e-08 -5.86044e-08)
(4.51162 2.23892e-08 -5.87772e-08)
(4.60706 3.34678e-08 -5.8969e-08)
(4.53486 -3.62913e-08 -5.92125e-08)
(4.60612 3.07293e-08 -5.92943e-08)
(4.54002 6.03961e-08 -5.95971e-08)
(4.59816 -2.19355e-08 -5.95911e-08)
(4.54081 -4.65842e-08 -5.99839e-08)
(4.58935 1.92472e-07 -5.99201e-08)
(4.53987 1.59063e-07 -6.04032e-08)
(4.58034 5.40054e-07 -6.03017e-08)
(4.53765 4.86599e-07 -6.08509e-08)
(4.57132 3.27898e-06 -6.08072e-08)
(4.53457 3.57511e-06 -6.1541e-08)
(4.56263 1.46008e-05 -6.12117e-08)
(4.53216 2.23311e-05 -6.16961e-08)
(4.55346 5.73034e-05 -6.1738e-08)
(4.54235 0.000140643 -6.25478e-08)
(4.53978 0.000205686 -6.23609e-08)
(4.45677 -0.00855824 -5.83308e-08)
(4.5782 -0.00933794 -5.86242e-08)
(4.50944 -0.00733006 -5.88016e-08)
(4.60503 -0.00440466 -5.89893e-08)
(4.53374 -0.00269658 -5.92065e-08)
(4.60546 -0.00185466 -5.92702e-08)
(4.53974 -0.00164236 -5.95547e-08)
(4.59805 -0.00153139 -5.95367e-08)
(4.5408 -0.00156633 -5.9922e-08)
(4.58936 -0.0015256 -5.98487e-08)
(4.5399 -0.00156574 -6.0337e-08)
(4.58027 -0.00152109 -6.02231e-08)
(4.53774 -0.001579 -6.07891e-08)
(4.57084 -0.00151499 -6.06641e-08)
(4.53487 -0.00163054 -6.12974e-08)
(4.56054 -0.00172031 -6.11151e-08)
(4.53275 -0.00152934 -6.17819e-08)
(4.5458 -0.0040382 -6.16583e-08)
(4.53817 -0.000769497 -6.2446e-08)
(4.51655 -0.0160588 -6.22481e-08)
(4.45877 -0.00902008 -5.8369e-08)
(4.58646 -0.0110672 -5.86607e-08)
(4.51616 -0.00730197 -5.88329e-08)
(4.60966 -0.0020839 -5.90199e-08)
(4.53581 0.00171953 -5.92414e-08)
(4.60619 0.00320773 -5.93151e-08)
(4.53975 0.00411134 -5.95976e-08)
(4.59779 0.00409689 -5.9579e-08)
(4.54041 0.00436328 -5.99713e-08)
(4.58895 0.00418418 -5.99048e-08)
(4.53947 0.00436758 -6.03884e-08)
(4.57994 0.00417584 -6.02829e-08)
(4.53725 0.00439581 -6.08443e-08)
(4.57091 0.00409169 -6.10529e-08)
(4.53409 0.00469663 -6.19678e-08)
(4.56228 0.00359982 -6.11451e-08)
(4.53089 0.00645554 -6.11606e-08)
(4.55348 0.000774701 -6.16417e-08)
(4.53721 0.0124234 -6.24975e-08)
(4.53412 -0.00963422 -6.2332e-08)
(4.46409 -0.0284882 -5.83304e-08)
(4.59122 -0.0290446 -5.86628e-08)
(4.5159 -0.0208805 -5.88454e-08)
(4.60358 -0.0119417 -5.89739e-08)
(4.5271 -0.00721314 -5.91264e-08)
(4.59643 -0.00516213 -5.91622e-08)
(4.53001 -0.0048119 -5.9442e-08)
(4.58802 -0.00459298 -5.94277e-08)
(4.53077 -0.0047385 -5.98153e-08)
(4.57926 -0.00462337 -5.97422e-08)
(4.52985 -0.00474446 -6.0231e-08)
(4.57019 -0.00461029 -6.01156e-08)
(4.52766 -0.00477992 -6.06823e-08)
(4.56089 -0.00456756 -6.05516e-08)
(4.52466 -0.00496494 -6.11738e-08)
(4.55117 -0.00494082 -6.10002e-08)
(4.52138 -0.00478507 -6.16798e-08)
(4.53977 -0.0108475 -6.15381e-08)
(4.51877 -0.000434467 -6.23305e-08)
(4.51701 -0.0467343 -6.21238e-08)
(4.4156 -0.025255 -5.82801e-08)
(4.43004 -0.0215647 -5.85322e-08)
(4.28254 -0.0091474 -5.8714e-08)
(4.33356 0.000756326 -5.89372e-08)
(4.2495 0.00631221 -5.92251e-08)
(4.31316 0.00762227 -5.93299e-08)
(4.24908 0.00865779 -5.96469e-08)
(4.3045 0.00835969 -5.96271e-08)
(4.24972 0.0088123 -6.00307e-08)
(4.29611 0.00843593 -5.99529e-08)
(4.2488 0.00878595 -6.04429e-08)
(4.28744 0.00841663 -6.03292e-08)
(4.2466 0.00880668 -6.08956e-08)
(4.27865 0.00828918 -6.07559e-08)
(4.24332 0.0092253 -6.13742e-08)
(4.27057 0.00766867 -6.12178e-08)
(4.23684 0.011678 -6.18982e-08)
(4.26981 0.00449317 -6.17583e-08)
(4.20559 0.0222081 -6.25863e-08)
(4.30914 -0.00528259 -6.24538e-08)
(4.50228 0.104152 -0.00551975)
(4.1149 0.157136 -0.00420225)
(3.83491 0.112883 -0.0048193)
(3.73635 0.0713673 -0.00398505)
(3.66521 0.0516728 -0.00449102)
(3.67289 0.042334 -0.00380044)
(3.63106 0.0392845 -0.00420482)
(3.64769 0.0376474 -0.00362258)
(3.60578 0.0371418 -0.00394539)
(3.62242 0.0367124 -0.00345723)
(3.58078 0.0364009 -0.00371232)
(3.5962 0.0365979 -0.00330528)
(3.55575 0.0353267 -0.00350413)
(3.56937 0.0371941 -0.00316675)
(3.53019 0.0308934 -0.0033199)
(3.54403 0.0403148 -0.00304172)
(3.49936 0.0092345 -0.00316105)
(3.54442 0.0493783 -0.00293154)
(3.41685 -0.0890455 -0.00304972)
(3.75514 -0.0912319 -0.00282047)
(4.52184 0.0444075 -0.0038388)
(4.59662 0.0918544 -0.00279217)
(4.60431 0.0320268 -0.00335993)
(4.62112 -0.00718097 -0.00253391)
(4.58296 -0.0256617 -0.00303677)
(4.59901 -0.0293717 -0.00234685)
(4.55669 -0.0292101 -0.00275263)
(4.57491 -0.0282282 -0.00216976)
(4.53028 -0.0276587 -0.00249378)
(4.54802 -0.0273706 -0.00200496)
(4.50316 -0.0270784 -0.00226073)
(4.51906 -0.0273382 -0.00185348)
(4.47571 -0.0262555 -0.00205179)
(4.48777 -0.027929 -0.00171564)
(4.44853 -0.0228209 -0.00186399)
(4.45048 -0.0291563 -0.00159148)
(4.42483 -0.0106265 -0.00168966)
(4.38541 -0.0182049 -0.0014777)
(4.41238 0.0113565 -0.00149585)
(4.16299 0.109306 -0.00132915)
(4.48555 0.0350638 -0.00497833)
(4.63847 0.0951161 -0.00399692)
(4.68627 0.0755262 -0.00454191)
(4.72954 0.0487696 -0.00371487)
(4.69466 0.0319729 -0.00421348)
(4.7082 0.0238916 -0.00352175)
(4.66172 0.0209362 -0.00392674)
(4.67796 0.0196434 -0.00334352)
(4.63179 0.0192384 -0.0036671)
(4.64927 0.0189851 -0.0031779)
(4.60351 0.0187722 -0.00343376)
(4.62018 0.0189094 -0.00302567)
(4.57501 0.0181054 -0.00322573)
(4.5912 0.0192362 -0.00288685)
(4.54485 0.0154023 -0.00304333)
(4.56714 0.0206346 -0.00276175)
(4.51091 0.00284216 -0.00289318)
(4.56606 0.0232714 -0.00265415)
(4.49418 -0.0420091 -0.00281514)
(4.61932 -0.0112033 -0.00258618)
(4.45837 0.0126094 -0.00369063)
(4.56609 0.0297753 -0.00281459)
(4.6287 0.0128681 -0.00333954)
(4.69244 0.000756416 -0.00252303)
(4.6773 -0.00653794 -0.00301665)
(4.70207 -0.00899839 -0.0023268)
(4.66253 -0.0095036 -0.00273197)
(4.6816 -0.00934268 -0.00214934)
(4.6371 -0.00918882 -0.00247337)
(4.65484 -0.00909774 -0.00198458)
(4.60988 -0.00898493 -0.00224027)
(4.62548 -0.00908471 -0.00183308)
(4.58224 -0.00867545 -0.00203099)
(4.59305 -0.009266 -0.00169512)
(4.555 -0.00745438 -0.00184169)
(4.55188 -0.00936531 -0.00156993)
(4.5308 -0.00342413 -0.00166018)
(4.47316 -0.00340989 -0.00144933)
(4.50995 0.00335065 -0.00143005)
(4.25812 0.038263 -0.00127243)
(4.48016 6.30214e-08 -0.0048978)
(4.62196 -4.91999e-08 -0.00401689)
(4.67006 5.66121e-08 -0.00453967)
(4.72499 -3.94009e-08 -0.00371779)
(4.69763 -2.06693e-08 -0.00421151)
(4.71498 4.37711e-08 -0.00351923)
(4.66975 1.24962e-07 -0.00392389)
(4.68624 1.72843e-08 -0.00334054)
(4.64002 4.97376e-08 -0.00366421)
(4.65747 3.76627e-07 -0.0031749)
(4.61163 3.95105e-07 -0.00343089)
(4.62839 8.74289e-07 -0.00302266)
(4.58302 1.22378e-06 -0.00322299)
(4.59971 4.91792e-06 -0.00288387)
(4.55287 6.43259e-06 -0.0030412)
(4.57662 2.12461e-05 -0.00275904)
(4.52133 3.6826e-05 -0.00289382)
(4.57538 7.72868e-05 -0.00265268)
(4.52094 0.000189295 -0.00282371)
(4.61984 0.000300169 -0.00258629)
(4.45837 -0.0126095 -0.00369063)
(4.56609 -0.0297754 -0.00281459)
(4.6287 -0.0128682 -0.00333954)
(4.69244 -0.000756497 -0.00252303)
(4.6773 0.00653774 -0.00301665)
(4.70207 0.00899842 -0.0023268)
(4.66253 0.00950366 -0.00273197)
(4.6816 0.00934264 -0.00214934)
(4.6371 0.00918879 -0.00247337)
(4.65484 0.00909814 -0.00198458)
(4.60989 0.00898548 -0.00224027)
(4.62548 0.00908645 -0.00183308)
(4.58224 0.00867741 -0.00203099)
(4.59306 0.00927649 -0.00169512)
(4.55501 0.00746357 -0.00184168)
(4.55189 0.00941938 -0.00156992)
(4.53083 0.00346775 -0.00166016)
(4.4732 0.00366591 -0.00144929)
(4.51005 -0.00304569 -0.00143)
(4.25832 -0.0373679 -0.00127222)
(4.48555 -0.0350638 -0.00497833)
(4.63847 -0.0951162 -0.00399692)
(4.68627 -0.0755263 -0.00454191)
(4.72954 -0.0487697 -0.00371487)
(4.69466 -0.031973 -0.00421348)
(4.7082 -0.0238915 -0.00352175)
(4.66172 -0.020936 -0.00392674)
(4.67796 -0.0196434 -0.00334352)
(4.63179 -0.0192383 -0.0036671)
(4.64927 -0.0189845 -0.0031779)
(4.60351 -0.0187715 -0.00343376)
(4.62018 -0.0189081 -0.00302567)
(4.57501 -0.0181034 -0.00322573)
(4.5912 -0.0192282 -0.00288685)
(4.54487 -0.0153926 -0.00304331)
(4.56715 -0.0205988 -0.00276176)
(4.51098 -0.00278869 -0.00289312)
(4.56616 -0.0231185 -0.00265422)
(4.4944 0.0423779 -0.00281487)
(4.61993 0.0118481 -0.00258626)
(4.52184 -0.0444074 -0.0038388)
(4.59662 -0.0918545 -0.00279217)
(4.60431 -0.0320267 -0.00335993)
(4.62112 0.00718105 -0.00253391)
(4.58296 0.0256617 -0.00303677)
(4.59901 0.0293718 -0.00234685)
(4.55669 0.0292101 -0.00275263)
(4.57492 0.0282281 -0.00216976)
(4.53029 0.0276586 -0.00249378)
(4.54802 0.0273706 -0.00200496)
(4.50316 0.0270786 -0.00226073)
(4.51906 0.027339 -0.00185348)
(4.47572 0.0262567 -0.00205179)
(4.48777 0.0279345 -0.00171564)
(4.44855 0.022826 -0.00186398)
(4.45051 0.0291876 -0.00159148)
(4.42489 0.0106488 -0.00168958)
(4.38564 0.018345 -0.00147768)
(4.41253 -0.0111822 -0.00149554)
(4.16435 -0.108633 -0.00132892)
(4.50228 -0.104153 -0.00551974)
(4.1149 -0.157136 -0.00420225)
(3.83491 -0.112883 -0.0048193)
(3.73635 -0.0713673 -0.00398506)
(3.66521 -0.0516729 -0.00449103)
(3.67289 -0.042334 -0.00380044)
(3.63106 -0.0392846 -0.00420482)
(3.64769 -0.0376473 -0.00362258)
(3.60578 -0.0371418 -0.00394539)
(3.62242 -0.0367127 -0.00345723)
(3.58078 -0.0364009 -0.00371232)
(3.5962 -0.0365974 -0.00330528)
(3.55576 -0.0353263 -0.00350413)
(3.56938 -0.0371917 -0.00316674)
(3.53021 -0.030892 -0.0033199)
(3.54406 -0.0402961 -0.00304166)
(3.49947 -0.00922965 -0.00316109)
(3.54464 -0.0492998 -0.00293137)
(3.41711 0.089137 -0.00304944)
(3.75747 0.0914821 -0.0028213)
(3.64721 0.309928 27.0485)
(3.33856 0.0680804 27.0988)
(2.91867 0.00543909 27.1111)
(2.97556 -0.0269173 27.1217)
(2.82945 -0.0315475 27.123)
(2.91877 -0.0338144 27.1261)
(2.80474 -0.0349575 27.1249)
(2.87766 -0.0349785 27.1265)
(2.77903 -0.0356593 27.1253)
(2.8383 -0.0354444 27.1266)
(2.75297 -0.0356205 27.1257)
(2.80094 -0.0357742 27.1267)
(2.72704 -0.0347021 27.126)
(2.76522 -0.0364862 27.1267)
(2.70128 -0.0307668 27.1263)
(2.73004 -0.0381961 27.1268)
(2.67413 -0.0141813 27.1266)
(2.68771 -0.0385013 27.1266)
(2.6365 0.0575383 27.1281)
(2.53398 0.119149 27.1124)
(4.54295 0.400143 27.0725)
(4.75254 0.178675 27.1221)
(4.54011 0.0955023 27.141)
(4.66006 0.0366292 27.1617)
(4.49209 0.0217362 27.1703)
(4.60076 0.0196476 27.1777)
(4.45878 0.0199821 27.1778)
(4.54807 0.0211317 27.1801)
(4.42399 0.0210406 27.179)
(4.49681 0.0217424 27.1804)
(4.38844 0.0211444 27.1795)
(4.4479 0.0220778 27.1806)
(4.35266 0.0204241 27.18)
(4.40204 0.0228535 27.1808)
(4.31618 0.0170513 27.1805)
(4.36249 0.0253489 27.1808)
(4.27495 0.00403151 27.1809)
(4.34881 0.0300456 27.1801)
(4.2057 -0.0285181 27.1825)
(4.47309 0.00541318 27.1605)
(4.64469 0.200131 27.0745)
(4.98193 0.0783651 27.1187)
(4.8758 0.0393546 27.1354)
(5.01965 -0.00279047 27.1571)
(4.84967 -0.0133085 27.1679)
(4.95429 -0.0173137 27.1774)
(4.80636 -0.018101 27.1785)
(4.89425 -0.0182182 27.1814)
(4.76697 -0.0184893 27.1803)
(4.8392 -0.0184422 27.182)
(4.72872 -0.0184594 27.1811)
(4.78671 -0.0186379 27.1823)
(4.69124 -0.017893 27.1816)
(4.73509 -0.0189978 27.1826)
(4.65543 -0.0155885 27.1821)
(4.67942 -0.0189359 27.1829)
(4.62435 -0.00740022 27.1825)
(4.60048 -0.00790477 27.183)
(4.59735 0.017521 27.183)
(4.45176 0.0987065 27.1679)
(4.62243 0.122572 27.0812)
(4.91712 0.0604423 27.1267)
(4.85856 0.0403257 27.1443)
(5.02349 0.0165215 27.1662)
(4.86979 0.00953996 27.1775)
(4.98017 0.00722296 27.1871)
(4.83568 0.0067357 27.1884)
(4.92501 0.00692836 27.1912)
(4.79821 0.00685657 27.1902)
(4.87113 0.00709108 27.1917)
(4.76002 0.00688177 27.1908)
(4.81969 0.00721222 27.1919)
(4.72143 0.00661322 27.1914)
(4.77197 0.00749493 27.1921)
(4.68212 0.00537334 27.1918)
(4.73271 0.00841304 27.1922)
(4.64324 0.000607632 27.192)
(4.71889 0.0102362 27.192)
(4.63599 -0.00941455 27.1919)
(4.78598 0.00954551 27.1762)
(4.623 8.45227e-08 27.0774)
(4.92009 6.84138e-08 27.1202)
(4.86416 2.76086e-07 27.1363)
(5.03117 5.58558e-08 27.1576)
(4.87645 -4.92992e-08 27.1685)
(4.98597 -1.22854e-07 27.1781)
(4.83957 -1.44853e-07 27.1794)
(4.92761 -2.76211e-07 27.1823)
(4.80023 -1.96278e-07 27.1813)
(4.87227 -4.59578e-08 27.1829)
(4.76169 8.23247e-08 27.182)
(4.8194 8.43813e-07 27.1832)
(4.72399 1.03727e-06 27.1826)
(4.76716 5.16442e-06 27.1836)
(4.68813 5.21824e-06 27.1831)
(4.70986 3.17985e-05 27.1839)
(4.65759 1.7993e-05 27.1834)
(4.62656 0.000175274 27.1842)
(4.63668 0.00012992 27.1833)
(4.47736 0.00058091 27.1704)
(4.62243 -0.122572 27.0812)
(4.91712 -0.0604422 27.1267)
(4.85856 -0.0403253 27.1443)
(5.02349 -0.0165214 27.1662)
(4.86979 -0.00954009 27.1775)
(4.98017 -0.00722321 27.1871)
(4.83568 -0.006736 27.1884)
(4.92501 -0.00692892 27.1912)
(4.79821 -0.00685713 27.1902)
(4.87113 -0.00709104 27.1917)
(4.76002 -0.00688136 27.1908)
(4.81969 -0.00721127 27.1919)
(4.72143 -0.00661043 27.1914)
(4.77197 -0.00748451 27.1921)
(4.68213 -0.00535946 27.1918)
(4.73272 -0.00836444 27.1922)
(4.64329 -0.000547488 27.192)
(4.71893 -0.0100282 27.1921)
(4.63614 0.00970853 27.1918)
(4.78635 -0.00863699 27.1766)
(4.64469 -0.200131 27.0745)
(4.98193 -0.0783647 27.1187)
(4.8758 -0.0393542 27.1354)
(5.01965 0.00279057 27.1571)
(4.84967 0.0133083 27.1679)
(4.95429 0.0173134 27.1774)
(4.80636 0.0181006 27.1785)
(4.89425 0.0182175 27.1814)
(4.76697 0.0184888 27.1803)
(4.8392 0.0184421 27.182)
(4.72872 0.0184594 27.1811)
(4.78671 0.0186385 27.1823)
(4.69124 0.0178951 27.1816)
(4.73509 0.019006 27.1826)
(4.65544 0.0155975 27.1821)
(4.67944 0.0189826 27.1829)
(4.62441 0.00743134 27.1824)
(4.60058 0.00816256 27.1832)
(4.59764 -0.0173675 27.1822)
(4.45243 -0.0976555 27.1697)
(4.54295 -0.400142 27.0725)
(4.75254 -0.178675 27.1221)
(4.54011 -0.0955018 27.141)
(4.66006 -0.0366291 27.1617)
(4.49209 -0.0217363 27.1703)
(4.60076 -0.0196478 27.1777)
(4.45878 -0.0199824 27.1778)
(4.54807 -0.0211322 27.1801)
(4.42399 -0.0210409 27.179)
(4.49681 -0.0217426 27.1804)
(4.38844 -0.0211445 27.1795)
(4.4479 -0.0220771 27.1806)
(4.35267 -0.0204227 27.18)
(4.40204 -0.0228488 27.1808)
(4.3162 -0.017043 27.1805)
(4.36253 -0.0253198 27.1809)
(4.27507 -0.00399665 27.1806)
(4.34899 -0.0298744 27.181)
(4.20613 0.0286706 27.1798)
(4.47443 -0.00475676 27.1675)
(3.64721 -0.309927 27.0485)
(3.33856 -0.0680802 27.0988)
(2.91867 -0.00543876 27.1111)
(2.97556 0.0269174 27.1217)
(2.82945 0.0315474 27.123)
(2.91877 0.0338142 27.1261)
(2.80474 0.0349571 27.1249)
(2.87766 0.0349781 27.1265)
(2.77903 0.0356589 27.1253)
(2.8383 0.0354441 27.1266)
(2.75297 0.0356203 27.1257)
(2.80094 0.0357741 27.1267)
(2.72705 0.0347027 27.126)
(2.76522 0.0364879 27.1267)
(2.7013 0.0307713 27.1263)
(2.73009 0.0382022 27.1268)
(2.67423 0.0141957 27.1265)
(2.68791 0.0385205 27.127)
(2.637 -0.0575461 27.1261)
(2.53515 -0.11877 27.1211)
(1.89527 -0.112516 -27.1468)
(1.89814 -0.130002 -27.1724)
(1.81351 -0.101069 -27.1731)
(1.82566 -0.0964149 -27.1728)
(1.75552 -0.0954095 -27.1725)
(1.76378 -0.0949591 -27.1721)
(1.7026 -0.0950586 -27.1717)
(1.7091 -0.0948508 -27.171)
(1.65519 -0.0949806 -27.1706)
(1.66049 -0.0948166 -27.1698)
(1.61243 -0.0949355 -27.1693)
(1.61652 -0.094795 -27.1684)
(1.57319 -0.0949031 -27.1679)
(1.57647 -0.0947804 -27.1669)
(1.53715 -0.094879 -27.1664)
(1.53938 -0.0947687 -27.1654)
(1.50325 -0.0948569 -27.1648)
(1.50474 -0.0947576 -27.1638)
(1.47156 -0.0948379 -27.1632)
(1.47207 -0.0947468 -27.1621)
(1.44101 -0.0948175 -27.1615)
(1.44068 -0.0947324 -27.1605)
(1.41196 -0.094797 -27.1599)
(1.41088 -0.0947181 -27.1588)
(1.38366 -0.0947743 -27.1582)
(1.38151 -0.0946986 -27.1571)
(1.35602 -0.094749 -27.1565)
(1.35343 -0.09468 -27.1555)
(1.32929 -0.0947244 -27.1548)
(1.32551 -0.0946577 -27.1538)
(1.30237 -0.0946947 -27.1531)
(1.29822 -0.0946335 -27.1521)
(1.27657 -0.0946675 -27.1514)
(1.27154 -0.0946094 -27.1505)
(1.25031 -0.0946355 -27.1498)
(1.24447 -0.0945789 -27.1488)
(1.22456 -0.0946023 -27.1481)
(1.21858 -0.0945514 -27.1472)
(1.19924 -0.09457 -27.1464)