/*--------------------------------*- C++ -*----------------------------------*\
  =========                 |
  \\      /  F ield         | OpenFOAM: The Open Source CFD Toolbox
   \\    /   O peration     | Website:  https://openfoam.org
    \\  /    A nd           | Version:  7
     \\/     M anipulation  |
\*---------------------------------------------------------------------------*/
FoamFile
{
    version     2.0;
    format      ascii;
    class       volScalarField;
    location    "1.26";
    object      rho_0;
}
// * * * * * * * * * * * * * * * * * * * * * * * * * * * * * * * * * * * * * //

dimensions      [1 -3 0 0 0 0 0];

internalField   nonuniform List<scalar> 
7920
(
1.23487
1.23428
1.2344
1.23406
1.23421
1.23393
1.23404
1.23381
1.2339
1.23373
1.23382
1.23372
1.2338
1.23374
1.23381
1.23377
1.2338
1.23383
1.2337
1.23406
1.23504
1.23486
1.235
1.2346
1.23464
1.23426
1.23423
1.2339
1.23384
1.23361
1.23362
1.23352
1.23359
1.23358
1.23365
1.23375
1.23371
1.234
1.2335
1.2347
1.23539
1.23542
1.23594
1.23556
1.23576
1.23529
1.23532
1.23483
1.23474
1.23428
1.2342
1.23391
1.23392
1.23384
1.2339
1.23402
1.23402
1.2344
1.2341
1.23494
1.2352
1.23526
1.2358
1.23552
1.23572
1.23532
1.23535
1.23493
1.23481
1.23434
1.23413
1.23377
1.23364
1.2335
1.23347
1.23353
1.23354
1.23382
1.23383
1.23428
1.23533
1.23538
1.23602
1.23571
1.23599
1.23558
1.23568
1.23527
1.23522
1.23475
1.23456
1.23413
1.23399
1.23375
1.23372
1.23366
1.23372
1.23381
1.23399
1.2342
1.23528
1.23528
1.23592
1.2356
1.23588
1.23547
1.23558
1.23518
1.23516
1.2347
1.23452
1.23408
1.23393
1.23366
1.23364
1.23352
1.23359
1.2336
1.23382
1.23393
1.23528
1.23528
1.23592
1.2356
1.23588
1.23547
1.23558
1.23518
1.23516
1.2347
1.23453
1.23408
1.23393
1.23366
1.23364
1.23352
1.2336
1.2336
1.23382
1.23393
1.23533
1.23538
1.23602
1.23571
1.23599
1.23558
1.23568
1.23527
1.23522
1.23475
1.23457
1.23413
1.23399
1.23374
1.23373
1.23364
1.23374
1.23378
1.23402
1.23418
1.2352
1.23526
1.2358
1.23552
1.23572
1.23532
1.23535
1.23493
1.23481
1.23434
1.23414
1.23376
1.23365
1.23348
1.23349
1.23348
1.23361
1.23373
1.23394
1.23414
1.23539
1.23542
1.23594
1.23556
1.23576
1.23529
1.23532
1.23483
1.23474
1.23428
1.2342
1.2339
1.23394
1.23381
1.23395
1.23395
1.23414
1.2342
1.23442
1.23446
1.23504
1.23486
1.235
1.2346
1.23464
1.23426
1.23423
1.2339
1.23384
1.23361
1.23362
1.23352
1.23359
1.23357
1.23368
1.2337
1.23381
1.23381
1.2339
1.23384
1.23487
1.23428
1.2344
1.23406
1.23421
1.23393
1.23404
1.23381
1.2339
1.23373
1.23383
1.23371
1.23381
1.23373
1.23381
1.23376
1.23382
1.23377
1.23382
1.23374
1.2329
1.23316
1.2328
1.233
1.23266
1.2328
1.23251
1.23263
1.23242
1.23255
1.23242
1.23255
1.23248
1.23262
1.23256
1.23271
1.2326
1.23284
1.23235
1.23376
1.23324
1.23369
1.23355
1.2337
1.23342
1.23338
1.23306
1.23293
1.23267
1.23258
1.23244
1.23249
1.23247
1.23263
1.23264
1.23292
1.2328
1.23333
1.23262
1.23413
1.23292
1.23346
1.23323
1.23352
1.23316
1.23323
1.23283
1.23276
1.23232
1.23219
1.23186
1.23185
1.23169
1.23186
1.23182
1.23217
1.23212
1.23271
1.23238
1.23333
1.23312
1.23372
1.23357
1.23387
1.23358
1.23366
1.23335
1.23329
1.23291
1.23272
1.23236
1.23223
1.23204
1.23208
1.23204
1.23224
1.2323
1.23269
1.23278
1.2333
1.23297
1.23359
1.23338
1.23374
1.2334
1.23354
1.2332
1.23321
1.23281
1.23267
1.23226
1.23213
1.23188
1.2319
1.2318
1.23195
1.23199
1.23228
1.23248
1.23287
1.23302
1.2337
1.23348
1.23387
1.23353
1.23368
1.23334
1.23337
1.23299
1.23286
1.23245
1.23232
1.23205
1.23206
1.23195
1.23206
1.2321
1.23233
1.23257
1.23291
1.23302
1.2337
1.23348
1.23387
1.23353
1.23368
1.23334
1.23337
1.23299
1.23286
1.23245
1.23232
1.23205
1.23205
1.23195
1.23206
1.23211
1.23233
1.23257
1.23291
1.23297
1.23359
1.23338
1.23374
1.2334
1.23354
1.2332
1.23321
1.23282
1.23267
1.23226
1.23213
1.23188
1.23189
1.23181
1.23193
1.232
1.23226
1.2325
1.23286
1.23312
1.23372
1.23357
1.23387
1.23358
1.23366
1.23335
1.23329
1.23291
1.23272
1.23236
1.23223
1.23205
1.23206
1.23206
1.2322
1.23236
1.23262
1.23287
1.23319
1.23292
1.23346
1.23323
1.23352
1.23316
1.23323
1.23283
1.23276
1.23233
1.23219
1.23186
1.23184
1.23171
1.23183
1.23187
1.23209
1.23225
1.23251
1.23268
1.23289
1.23324
1.23369
1.23355
1.2337
1.23342
1.23338
1.23306
1.23293
1.23267
1.23258
1.23245
1.23248
1.23248
1.2326
1.23269
1.23284
1.23295
1.23305
1.23315
1.23314
1.2329
1.23316
1.2328
1.233
1.23266
1.2328
1.23251
1.23263
1.23242
1.23255
1.23242
1.23255
1.23249
1.23261
1.23258
1.23268
1.23266
1.23271
1.2327
1.23272
1.23313
1.23337
1.23344
1.23341
1.23322
1.23302
1.2328
1.23272
1.23266
1.2327
1.2327
1.23276
1.23276
1.23286
1.23279
1.23298
1.23264
1.23333
1.23176
1.23506
1.23313
1.23341
1.23357
1.2336
1.23348
1.23331
1.23304
1.23275
1.23242
1.23221
1.23202
1.23203
1.23201
1.23227
1.23228
1.2328
1.23253
1.23338
1.23238
1.2339
1.23312
1.2334
1.23356
1.2336
1.2335
1.23338
1.23317
1.23292
1.23257
1.23226
1.23195
1.23181
1.23167
1.23174
1.23175
1.23207
1.23215
1.2327
1.23267
1.2333
1.23312
1.23341
1.23358
1.23362
1.23353
1.23342
1.23324
1.23302
1.23271
1.23239
1.23208
1.23188
1.23173
1.23171
1.23168
1.23183
1.23197
1.23232
1.2326
1.23298
1.23311
1.23341
1.23357
1.23361
1.23352
1.23341
1.23324
1.23302
1.23271
1.2324
1.23209
1.23189
1.23174
1.2317
1.23166
1.23175
1.23188
1.23214
1.23248
1.23279
1.23311
1.23341
1.23357
1.23362
1.23353
1.23342
1.23325
1.23304
1.23273
1.23242
1.23211
1.23192
1.23177
1.23173
1.2317
1.23177
1.2319
1.23213
1.23247
1.23278
1.23311
1.23341
1.23357
1.23362
1.23353
1.23342
1.23325
1.23304
1.23273
1.23242
1.23211
1.23192
1.23177
1.23173
1.2317
1.23177
1.2319
1.23213
1.23246
1.23278
1.23311
1.23341
1.23357
1.23361
1.23352
1.23341
1.23324
1.23302
1.23271
1.2324
1.23209
1.23189
1.23174
1.2317
1.23166
1.23175
1.23188
1.23214
1.23246
1.23281
1.23312
1.23341
1.23358
1.23362
1.23353
1.23342
1.23325
1.23302
1.23271
1.23238
1.23208
1.23188
1.23174
1.2317
1.23169
1.23182
1.23198
1.23231
1.2326
1.23299
1.23312
1.2334
1.23356
1.2336
1.23351
1.23338
1.23317
1.23292
1.23258
1.23225
1.23197
1.23179
1.2317
1.23171
1.2318
1.232
1.23225
1.23258
1.23282
1.23312
1.23313
1.23341
1.23357
1.2336
1.23349
1.23331
1.23304
1.23274
1.23243
1.2322
1.23204
1.232
1.23205
1.2322
1.2324
1.23261
1.23283
1.23292
1.23306
1.23295
1.23313
1.23337
1.23344
1.23341
1.23322
1.23302
1.2328
1.23271
1.23267
1.2327
1.2327
1.23275
1.23277
1.23283
1.23285
1.23288
1.23286
1.23285
1.23284
1.23273
1.23313
1.23337
1.23344
1.23341
1.23322
1.23302
1.2328
1.23272
1.23266
1.2327
1.2327
1.23276
1.23276
1.23286
1.23279
1.23298
1.23264
1.23333
1.23176
1.23506
1.23313
1.23341
1.23357
1.2336
1.23348
1.23331
1.23304
1.23275
1.23242
1.23221
1.23202
1.23203
1.23201
1.23227
1.23228
1.2328
1.23253
1.23338
1.23238
1.2339
1.23312
1.2334
1.23356
1.2336
1.2335
1.23338
1.23317
1.23292
1.23257
1.23226
1.23195
1.23181
1.23167
1.23174
1.23175
1.23207
1.23215
1.2327
1.23267
1.2333
1.23312
1.23341
1.23358
1.23362
1.23353
1.23342
1.23324
1.23302
1.23271
1.23239
1.23208
1.23188
1.23173
1.23171
1.23168
1.23183
1.23197
1.23232
1.2326
1.23298
1.23311
1.23341
1.23357
1.23361
1.23352
1.23341
1.23324
1.23302
1.23271
1.2324
1.23209
1.23189
1.23174
1.2317
1.23166
1.23175
1.23188
1.23214
1.23248
1.23279
1.23311
1.23341
1.23357
1.23362
1.23353
1.23342
1.23325
1.23304
1.23273
1.23242
1.23211
1.23192
1.23177
1.23173
1.2317
1.23177
1.2319
1.23213
1.23247
1.23278
1.23311
1.23341
1.23357
1.23362
1.23353
1.23342
1.23325
1.23304
1.23273
1.23242
1.23211
1.23192
1.23177
1.23173
1.2317
1.23177
1.2319
1.23213
1.23246
1.23278
1.23311
1.23341
1.23357
1.23361
1.23352
1.23341
1.23324
1.23302
1.23271
1.2324
1.23209
1.23189
1.23174
1.2317
1.23166
1.23175
1.23188
1.23214
1.23246
1.23281
1.23312
1.23341
1.23358
1.23362
1.23353
1.23342
1.23325
1.23302
1.23271
1.23238
1.23208
1.23188
1.23174
1.2317
1.23169
1.23182
1.23198
1.23231
1.2326
1.23299
1.23312
1.2334
1.23356
1.2336
1.23351
1.23338
1.23317
1.23292
1.23258
1.23225
1.23197
1.23179
1.2317
1.23171
1.2318
1.232
1.23225
1.23258
1.23282
1.23312
1.23313
1.23341
1.23357
1.2336
1.23349
1.23331
1.23304
1.23274
1.23243
1.2322
1.23204
1.232
1.23205
1.2322
1.2324
1.23261
1.23283
1.23292
1.23306
1.23295
1.23313
1.23337
1.23344
1.23341
1.23322
1.23302
1.2328
1.23271
1.23267
1.2327
1.2327
1.23275
1.23277
1.23283
1.23285
1.23288
1.23286
1.23285
1.23284
1.23273
1.2329
1.23316
1.2328
1.233
1.23266
1.2328
1.23251
1.23263
1.23242
1.23255
1.23242
1.23255
1.23248
1.23262
1.23256
1.23271
1.2326
1.23284
1.23235
1.23376
1.23324
1.23369
1.23355
1.2337
1.23342
1.23338
1.23306
1.23293
1.23267
1.23258
1.23244
1.23249
1.23247
1.23263
1.23264
1.23292
1.2328
1.23333
1.23262
1.23413
1.23292
1.23346
1.23323
1.23352
1.23316
1.23323
1.23283
1.23276
1.23232
1.23219
1.23186
1.23185
1.23169
1.23186
1.23182
1.23217
1.23212
1.23271
1.23238
1.23333
1.23312
1.23372
1.23357
1.23387
1.23358
1.23366
1.23335
1.23329
1.23291
1.23272
1.23236
1.23223
1.23204
1.23208
1.23204
1.23224
1.2323
1.23269
1.23278
1.2333
1.23297
1.23359
1.23338
1.23374
1.2334
1.23354
1.2332
1.23321
1.23281
1.23267
1.23226
1.23213
1.23188
1.2319
1.2318
1.23195
1.23199
1.23228
1.23248
1.23287
1.23302
1.2337
1.23348
1.23387
1.23353
1.23368
1.23334
1.23337
1.23299
1.23286
1.23245
1.23232
1.23205
1.23206
1.23195
1.23206
1.2321
1.23233
1.23257
1.23291
1.23302
1.2337
1.23348
1.23387
1.23353
1.23368
1.23334
1.23337
1.23299
1.23286
1.23245
1.23232
1.23205
1.23205
1.23195
1.23206
1.23211
1.23233
1.23257
1.23291
1.23297
1.23359
1.23338
1.23374
1.2334
1.23354
1.2332
1.23321
1.23282
1.23267
1.23226
1.23213
1.23188
1.23189
1.23181
1.23193
1.232
1.23226
1.2325
1.23286
1.23312
1.23372
1.23357
1.23387
1.23358
1.23366
1.23335
1.23329
1.23291
1.23272
1.23236
1.23223
1.23205
1.23206
1.23206
1.2322
1.23236
1.23262
1.23287
1.23319
1.23292
1.23346
1.23323
1.23352
1.23316
1.23323
1.23283
1.23276
1.23233
1.23219
1.23186
1.23184
1.23171
1.23183
1.23187
1.23209
1.23225
1.23251
1.23268
1.23289
1.23324
1.23369
1.23355
1.2337
1.23342
1.23338
1.23306
1.23293
1.23267
1.23258
1.23245
1.23248
1.23248
1.2326
1.23269
1.23284
1.23295
1.23305
1.23315
1.23314
1.2329
1.23316
1.2328
1.233
1.23266
1.2328
1.23251
1.23263
1.23242
1.23255
1.23242
1.23255
1.23249
1.23261
1.23258
1.23268
1.23266
1.23271
1.2327
1.23272
1.23487
1.23428
1.2344
1.23406
1.23421
1.23393
1.23404
1.23381
1.2339
1.23373
1.23382
1.23372
1.2338
1.23374
1.23381
1.23377
1.2338
1.23383
1.2337
1.23406
1.23504
1.23486
1.235
1.2346
1.23464
1.23426
1.23423
1.2339
1.23384
1.23361
1.23362
1.23352
1.23359
1.23358
1.23365
1.23375
1.23371
1.234
1.2335
1.2347
1.23539
1.23542
1.23594
1.23556
1.23576
1.23529
1.23532
1.23483
1.23474
1.23428
1.2342
1.23391
1.23392
1.23384
1.2339
1.23402
1.23402
1.2344
1.2341
1.23494
1.2352
1.23526
1.2358
1.23552
1.23572
1.23532
1.23535
1.23493
1.23481
1.23434
1.23413
1.23377
1.23364
1.2335
1.23347
1.23353
1.23354
1.23382
1.23383
1.23428
1.23533
1.23538
1.23602
1.23571
1.23599
1.23558
1.23568
1.23527
1.23522
1.23475
1.23456
1.23413
1.23399
1.23375
1.23372
1.23366
1.23372
1.23381
1.23399
1.2342
1.23528
1.23528
1.23592
1.2356
1.23588
1.23547
1.23558
1.23518
1.23516
1.2347
1.23452
1.23408
1.23393
1.23366
1.23364
1.23352
1.23359
1.2336
1.23382
1.23393
1.23528
1.23528
1.23592
1.2356
1.23588
1.23547
1.23558
1.23518
1.23516
1.2347
1.23453
1.23408
1.23393
1.23366
1.23364
1.23352
1.2336
1.2336
1.23382
1.23393
1.23533
1.23538
1.23602
1.23571
1.23599
1.23558
1.23568
1.23527
1.23522
1.23475
1.23457
1.23413
1.23399
1.23374
1.23373
1.23364
1.23374
1.23378
1.23402
1.23418
1.2352
1.23526
1.2358
1.23552
1.23572
1.23532
1.23535
1.23493
1.23481
1.23434
1.23414
1.23376
1.23365
1.23348
1.23349
1.23348
1.23361
1.23373
1.23394
1.23414
1.23539
1.23542
1.23594
1.23556
1.23576
1.23529
1.23532
1.23483
1.23474
1.23428
1.2342
1.2339
1.23394
1.23381
1.23395
1.23395
1.23414
1.2342
1.23442
1.23446
1.23504
1.23486
1.235
1.2346
1.23464
1.23426
1.23423
1.2339
1.23384
1.23361
1.23362
1.23352
1.23359
1.23357
1.23368
1.2337
1.23381
1.23381
1.2339
1.23384
1.23487
1.23428
1.2344
1.23406
1.23421
1.23393
1.23404
1.23381
1.2339
1.23373
1.23383
1.23371
1.23381
1.23373
1.23381
1.23376
1.23382
1.23377
1.23382
1.23374
1.22545
1.21837
1.21394
1.21044
1.20786
1.20537
1.20319
1.20099
1.19919
1.19754
1.19627
1.19506
1.19408
1.19311
1.19235
1.19166
1.19119
1.19079
1.19056
1.19034
1.19024
1.19012
1.19007
1.18999
1.18996
1.18989
1.18986
1.1898
1.18977
1.18971
1.18968
1.18962
1.18959
1.18952
1.18949
1.18943
1.1894
1.18934
1.18931
1.18925
1.18921
1.18915
1.18912
1.18906
1.18902
1.18896
1.18892
1.18887
1.18883
1.18877
1.18873
1.18867
1.18862
1.18857
1.18852
1.18846
1.18842
1.18836
1.18831
1.18825
1.1882
1.18814
1.18809
1.18802
1.18797
1.18791
1.18785
1.18779
1.18773
1.18766
1.1876
1.18754
1.18747
1.1874
1.18734
1.18727
1.1872
1.18713
1.18706
1.18699
1.18691
1.18684
1.18676
1.18669
1.18661
1.18654
1.18647
1.18638
1.18633
1.18626
1.2287
1.22215
1.21774
1.21425
1.21169
1.20928
1.20715
1.20497
1.20312
1.20143
1.20012
1.1989
1.19791
1.19693
1.19614
1.19542
1.1949
1.19446
1.1942
1.19396
1.19384
1.19371
1.19366
1.19358
1.19354
1.19347
1.19345
1.19338
1.19335
1.19329
1.19326
1.1932
1.19317
1.19311
1.19308
1.19302
1.19299
1.19293
1.19289
1.19283
1.1928
1.19274
1.1927
1.19265
1.19261
1.19255
1.19251
1.19245
1.19241
1.19235
1.19231
1.19225
1.19221
1.19215
1.19211
1.19205
1.192
1.19194
1.1919
1.19184
1.19179
1.19173
1.19167
1.19161
1.19156
1.1915
1.19144
1.19138
1.19132
1.19125
1.19119
1.19112
1.19106
1.19099
1.19093
1.19086
1.19079
1.19072
1.19065
1.19057
1.1905
1.19043
1.19035
1.19028
1.1902
1.19013
1.19006
1.18997
1.18992
1.18985
1.23272
1.22786
1.22389
1.22046
1.21803
1.21582
1.21389
1.21179
1.20991
1.20813
1.20676
1.20553
1.20454
1.20354
1.20271
1.2019
1.2013
1.20077
1.20043
1.20014
1.19998
1.19983
1.19976
1.19966
1.19963
1.19955
1.19953
1.19946
1.19943
1.19937
1.19934
1.19928
1.19925
1.19918
1.19915
1.19909
1.19906
1.199
1.19897
1.19891
1.19887
1.19881
1.19878
1.19872
1.19868
1.19862
1.19858
1.19853
1.19848
1.19843
1.19838
1.19833
1.19828
1.19822
1.19818
1.19812
1.19807
1.19801
1.19797
1.19791
1.19786
1.1978
1.19774
1.19768
1.19763
1.19757
1.19751
1.19745
1.19739
1.19732
1.19726
1.19719
1.19713
1.19706
1.197
1.19693
1.19686
1.19679
1.19672
1.19664
1.19657
1.1965
1.19642
1.19635
1.19627
1.19619
1.19613
1.19604
1.19599
1.19593
1.23411
1.23134
1.2282
1.22513
1.22294
1.2211
1.21952
1.21766
1.21583
1.21402
1.21262
1.2114
1.21045
1.20948
1.20863
1.20776
1.20707
1.20644
1.20602
1.20566
1.20545
1.20527
1.20518
1.20508
1.20503
1.20496
1.20493
1.20486
1.20483
1.20477
1.20474
1.20468
1.20465
1.20459
1.20456
1.2045
1.20446
1.2044
1.20437
1.20431
1.20428
1.20422
1.20418
1.20412
1.20408
1.20403
1.20399
1.20393
1.20389
1.20383
1.20379
1.20373
1.20368
1.20363
1.20358
1.20352
1.20348
1.20342
1.20337
1.20331
1.20326
1.2032
1.20314
1.20308
1.20303
1.20297
1.20291
1.20284
1.20279
1.20272
1.20266
1.20259
1.20253
1.20246
1.20239
1.20232
1.20225
1.20218
1.20211
1.20204
1.20196
1.20189
1.20181
1.20174
1.20167
1.20159
1.20152
1.20143
1.20137
1.20132
1.23496
1.23368
1.23147
1.22883
1.22701
1.22556
1.22441
1.22286
1.22119
1.21943
1.21804
1.21687
1.216
1.2151
1.21428
1.21339
1.21263
1.21193
1.21144
1.21102
1.21078
1.21056
1.21046
1.21034
1.21029
1.21021
1.21018
1.21011
1.21008
1.21002
1.20999
1.20993
1.2099
1.20983
1.2098
1.20974
1.20971
1.20965
1.20962
1.20956
1.20952
1.20946
1.20942
1.20937
1.20933
1.20927
1.20923
1.20917
1.20913
1.20907
1.20903
1.20897
1.20893
1.20887
1.20882
1.20876
1.20871
1.20865
1.20861
1.20855
1.2085
1.20843
1.20838
1.20832
1.20827
1.2082
1.20815
1.20808
1.20802
1.20796
1.20789
1.20783
1.20776
1.20769
1.20763
1.20756
1.20749
1.20741
1.20734
1.20727
1.2072
1.20712
1.20705
1.20697
1.2069
1.20682
1.20675
1.20666
1.2066
1.20654
1.23492
1.23446
1.23295
1.23078
1.22935
1.22834
1.2276
1.22641
1.22497
1.22335
1.22207
1.22102
1.22026
1.21947
1.21872
1.21786
1.2171
1.21638
1.21586
1.21541
1.21515
1.21492
1.2148
1.21468
1.21463
1.21455
1.21451
1.21445
1.21442
1.21435
1.21432
1.21426
1.21423
1.21417
1.21414
1.21408
1.21405
1.21398
1.21395
1.21389
1.21386
1.2138
1.21376
1.2137
1.21366
1.2136
1.21356
1.2135
1.21346
1.2134
1.21336
1.2133
1.21326
1.2132
1.21315
1.21309
1.21305
1.21299
1.21294
1.21288
1.21283
1.21276
1.21271
1.21265
1.21259
1.21253
1.21247
1.21241
1.21235
1.21228
1.21222
1.21215
1.21209
1.21202
1.21195
1.21188
1.21181
1.21174
1.21167
1.21159
1.21152
1.21144
1.21137
1.21129
1.21122
1.21113
1.21106
1.21098
1.2109
1.21084
1.23491
1.23475
1.23367
1.23193
1.2309
1.23026
1.22986
1.22896
1.22776
1.22635
1.22525
1.22436
1.22374
1.22307
1.22241
1.22161
1.2209
1.22021
1.2197
1.21927
1.21901
1.21878
1.21867
1.21855
1.21849
1.21841
1.21838
1.21831
1.21828
1.21822
1.21819
1.21813
1.2181
1.21803
1.218
1.21794
1.21791
1.21785
1.21781
1.21775
1.21772
1.21766
1.21762
1.21756
1.21752
1.21746
1.21742
1.21736
1.21732
1.21726
1.21722
1.21716
1.21711
1.21706
1.21701
1.21695
1.2169
1.21684
1.21679
1.21673
1.21668
1.21662
1.21656
1.2165
1.21644
1.21638
1.21632
1.21626
1.2162
1.21613
1.21607
1.216
1.21594
1.21586
1.2158
1.21573
1.21566
1.21558
1.21551
1.21543
1.21536
1.21528
1.21521
1.21513
1.21505
1.21497
1.2149
1.21482
1.21474
1.21467
1.235
1.23483
1.23399
1.23264
1.232
1.23164
1.23147
1.23075
1.22979
1.22861
1.22775
1.22704
1.22657
1.22601
1.22545
1.22475
1.22413
1.22351
1.22307
1.22268
1.22245
1.22224
1.22214
1.22202
1.22198
1.22189
1.22186
1.22179
1.22176
1.2217
1.22167
1.2216
1.22157
1.22151
1.22148
1.22141
1.22138
1.22132
1.22128
1.22122
1.22118
1.22112
1.22108
1.22102
1.22098
1.22092
1.22088
1.22082
1.22078
1.22072
1.22068
1.22061
1.22057
1.22051
1.22046
1.2204
1.22035
1.22029
1.22024
1.22018
1.22012
1.22006
1.22001
1.21994
1.21989
1.21982
1.21976
1.2197
1.21964
1.21957
1.21951
1.21944
1.21937
1.2193
1.21923
1.21916
1.21909
1.21901
1.21894
1.21886
1.21879
1.21871
1.21864
1.21856
1.21848
1.2184
1.21833
1.21825
1.21816
1.21809
1.23461
1.23436
1.23368
1.23273
1.23241
1.23226
1.23219
1.23162
1.23088
1.22999
1.22939
1.22888
1.22855
1.22811
1.22766
1.22709
1.2266
1.2261
1.22576
1.22544
1.22526
1.22509
1.22501
1.2249
1.22486
1.22478
1.22475
1.22468
1.22465
1.22458
1.22455
1.22449
1.22446
1.22439
1.22436
1.22429
1.22426
1.2242
1.22416
1.2241
1.22406
1.224
1.22396
1.2239
1.22386
1.22379
1.22375
1.22369
1.22365
1.22358
1.22354
1.22348
1.22343
1.22337
1.22332
1.22326
1.22321
1.22314
1.22309
1.22303
1.22297
1.22291
1.22285
1.22279
1.22273
1.22267
1.22261
1.22254
1.22248
1.22241
1.22234
1.22227
1.2222
1.22213
1.22206
1.22199
1.22191
1.22184
1.22176
1.22168
1.22161
1.22153
1.22145
1.22137
1.22129
1.22121
1.22113
1.22105
1.22096
1.22089
1.23477
1.2344
1.23394
1.23331
1.23322
1.23312
1.23307
1.23261
1.23211
1.23151
1.23115
1.23081
1.2306
1.23026
1.22994
1.22952
1.22918
1.22882
1.22859
1.22836
1.22824
1.2281
1.22804
1.22794
1.22791
1.22783
1.2278
1.22773
1.2277
1.22763
1.22759
1.22753
1.22749
1.22743
1.22739
1.22733
1.22729
1.22722
1.22719
1.22712
1.22708
1.22702
1.22698
1.22691
1.22687
1.22681
1.22676
1.2267
1.22665
1.22659
1.22654
1.22648
1.22643
1.22637
1.22632
1.22625
1.2262
1.22613
1.22608
1.22601
1.22596
1.22589
1.22583
1.22577
1.22571
1.22564
1.22558
1.22551
1.22544
1.22537
1.2253
1.22523
1.22516
1.22508
1.22501
1.22494
1.22486
1.22478
1.22471
1.22463
1.22455
1.22446
1.22439
1.2243
1.22422
1.22414
1.22406
1.22398
1.22389
1.22381
1.23389
1.23359
1.23336
1.23302
1.23302
1.23293
1.2329
1.23259
1.23233
1.23199
1.23183
1.23162
1.23151
1.23129
1.23111
1.23085
1.23067
1.23045
1.23033
1.23018
1.23011
1.23
1.22996
1.22988
1.22984
1.22977
1.22974
1.22967
1.22964
1.22957
1.22954
1.22947
1.22943
1.22937
1.22933
1.22926
1.22923
1.22916
1.22912
1.22906
1.22902
1.22895
1.22891
1.22884
1.2288
1.22874
1.22869
1.22863
1.22858
1.22852
1.22847
1.2284
1.22835
1.22829
1.22823
1.22817
1.22811
1.22805
1.22799
1.22792
1.22787
1.2278
1.22774
1.22767
1.22761
1.22754
1.22747
1.2274
1.22734
1.22726
1.22719
1.22712
1.22705
1.22697
1.22689
1.22681
1.22674
1.22666
1.22658
1.22649
1.22641
1.22633
1.22624
1.22616
1.22607
1.22599
1.2259
1.22582
1.22573
1.22564
1.23398
1.23376
1.23371
1.2335
1.23352
1.2334
1.23339
1.23321
1.23313
1.23296
1.23291
1.23278
1.23274
1.23261
1.23254
1.23241
1.23234
1.23222
1.23217
1.23207
1.23203
1.23195
1.23192
1.23184
1.23182
1.23174
1.23171
1.23164
1.23161
1.23154
1.23151
1.23144
1.23141
1.23134
1.23131
1.23124
1.23121
1.23114
1.2311
1.23104
1.231
1.23093
1.23089
1.23083
1.23079
1.23072
1.23068
1.23061
1.23057
1.2305
1.23046
1.23039
1.23034
1.23028
1.23023
1.23016
1.23011
1.23004
1.22999
1.22992
1.22986
1.2298
1.22974
1.22967
1.22961
1.22954
1.22947
1.2294
1.22933
1.22926
1.22919
1.22911
1.22904
1.22896
1.22889
1.22881
1.22873
1.22865
1.22857
1.22849
1.2284
1.22832
1.22823
1.22815
1.22806
1.22797
1.22789
1.2278
1.22771
1.22762
1.22192
1.21423
1.20956
1.20618
1.2035
1.20107
1.19884
1.19671
1.1949
1.19332
1.19204
1.19087
1.18988
1.18895
1.18821
1.18756
1.1871
1.18673
1.18651
1.18632
1.18622
1.18612
1.18608
1.186
1.18598
1.18591
1.18589
1.18583
1.1858
1.18574
1.18572
1.18566
1.18563
1.18557
1.18554
1.18548
1.18545
1.18539
1.18536
1.1853
1.18527
1.18521
1.18518
1.18512
1.18508
1.18502
1.18499
1.18493
1.18489
1.18483
1.18479
1.18473
1.18469
1.18463
1.18459
1.18453
1.18448
1.18442
1.18437
1.18431
1.18426
1.1842
1.18415
1.18409
1.18404
1.18398
1.18392
1.18386
1.1838
1.18373
1.18367
1.1836
1.18354
1.18347
1.18341
1.18334
1.18327
1.1832
1.18312
1.18305
1.18297
1.1829
1.18282
1.18275
1.18266
1.18259
1.18251
1.18243
1.18233
1.18225
1.22829
1.22174
1.21717
1.21373
1.21109
1.20873
1.20656
1.20442
1.20255
1.20088
1.19954
1.19834
1.19733
1.19637
1.19558
1.19486
1.19434
1.1939
1.19364
1.19341
1.19329
1.19317
1.19312
1.19304
1.19301
1.19294
1.19292
1.19286
1.19283
1.19277
1.19274
1.19268
1.19266
1.1926
1.19257
1.19251
1.19248
1.19242
1.19238
1.19233
1.19229
1.19223
1.1922
1.19214
1.1921
1.19205
1.19201
1.19195
1.19191
1.19185
1.19181
1.19175
1.19171
1.19165
1.19161
1.19155
1.1915
1.19144
1.19139
1.19133
1.19128
1.19122
1.19117
1.19111
1.19106
1.19099
1.19094
1.19087
1.19082
1.19075
1.19069
1.19062
1.19056
1.19049
1.19043
1.19035
1.19029
1.19021
1.19014
1.19007
1.18999
1.18992
1.18984
1.18977
1.18968
1.18961
1.18953
1.18945
1.18935
1.18927
1.2313
1.22691
1.22289
1.21964
1.21716
1.21507
1.21312
1.21109
1.20918
1.20743
1.20603
1.20481
1.2038
1.20283
1.20198
1.20118
1.20056
1.20003
1.19969
1.1994
1.19924
1.19909
1.19902
1.19893
1.1989
1.19883
1.19881
1.19874
1.19872
1.19866
1.19863
1.19857
1.19855
1.19849
1.19846
1.1984
1.19837
1.19831
1.19828
1.19822
1.19819
1.19813
1.19809
1.19804
1.198
1.19794
1.1979
1.19784
1.1978
1.19775
1.19771
1.19765
1.1976
1.19755
1.1975
1.19744
1.1974
1.19734
1.19729
1.19723
1.19718
1.19712
1.19707
1.19701
1.19695
1.19689
1.19683
1.19677
1.19671
1.19665
1.19659
1.19652
1.19645
1.19639
1.19632
1.19625
1.19618
1.19611
1.19603
1.19596
1.19588
1.19581
1.19573
1.19566
1.19557
1.1955
1.19542
1.19534
1.19524
1.19517
1.23333
1.23104
1.228
1.22513
1.22297
1.22125
1.2197
1.2179
1.21606
1.21426
1.21282
1.2116
1.21064
1.20968
1.20882
1.20795
1.20724
1.2066
1.20616
1.20579
1.20558
1.20539
1.2053
1.2052
1.20516
1.20509
1.20506
1.205
1.20497
1.20491
1.20489
1.20483
1.2048
1.20474
1.20471
1.20465
1.20462
1.20456
1.20453
1.20447
1.20444
1.20438
1.20434
1.20428
1.20425
1.20419
1.20415
1.20409
1.20405
1.20399
1.20395
1.20389
1.20385
1.20379
1.20375
1.20369
1.20364
1.20358
1.20354
1.20348
1.20343
1.20336
1.20331
1.20325
1.2032
1.20313
1.20308
1.20301
1.20295
1.20289
1.20283
1.20276
1.2027
1.20263
1.20256
1.20249
1.20242
1.20235
1.20228
1.2022
1.20213
1.20205
1.20197
1.2019
1.20182
1.20174
1.20166
1.20158
1.20148
1.20141
1.23353
1.23276
1.23066
1.22833
1.22657
1.22533
1.22425
1.22283
1.22117
1.21943
1.21801
1.21686
1.21597
1.2151
1.21427
1.21339
1.21261
1.2119
1.21138
1.21096
1.2107
1.21048
1.21037
1.21025
1.21021
1.21013
1.2101
1.21004
1.21001
1.20995
1.20993
1.20987
1.20984
1.20978
1.20975
1.20969
1.20966
1.2096
1.20957
1.20951
1.20948
1.20942
1.20938
1.20933
1.20929
1.20923
1.20919
1.20913
1.20909
1.20904
1.20899
1.20894
1.20889
1.20883
1.20879
1.20873
1.20868
1.20862
1.20857
1.20851
1.20846
1.2084
1.20835
1.20829
1.20823
1.20817
1.20812
1.20805
1.20799
1.20793
1.20786
1.2078
1.20773
1.20766
1.2076
1.20752
1.20745
1.20738
1.20731
1.20724
1.20716
1.20708
1.207
1.20693
1.20685
1.20677
1.20668
1.20661
1.20651
1.20644
1.23378
1.23379
1.23236
1.23054
1.22919
1.22839
1.22777
1.22671
1.22531
1.22371
1.2224
1.22135
1.22059
1.21982
1.21907
1.21821
1.21743
1.21669
1.21614
1.21568
1.21539
1.21515
1.21503
1.2149
1.21485
1.21477
1.21474
1.21468
1.21465
1.21459
1.21456
1.2145
1.21447
1.21441
1.21438
1.21433
1.21429
1.21423
1.2142
1.21414
1.21411
1.21405
1.21401
1.21395
1.21392
1.21386
1.21382
1.21376
1.21372
1.21366
1.21362
1.21356
1.21352
1.21346
1.21341
1.21335
1.21331
1.21325
1.2132
1.21314
1.21309
1.21302
1.21297
1.21291
1.21285
1.21279
1.21273
1.21267
1.21261
1.21254
1.21248
1.21241
1.21235
1.21228
1.21221
1.21214
1.21207
1.212
1.21192
1.21185
1.21177
1.2117
1.21162
1.21154
1.21146
1.21138
1.2113
1.21122
1.21113
1.21106
1.23376
1.23401
1.23297
1.23155
1.2306
1.23019
1.22992
1.22916
1.22801
1.22664
1.22551
1.22463
1.22403
1.22338
1.22273
1.22194
1.22121
1.2205
1.21997
1.21952
1.21924
1.219
1.21888
1.21875
1.2187
1.21862
1.21859
1.21853
1.2185
1.21844
1.21841
1.21835
1.21832
1.21826
1.21823
1.21817
1.21814
1.21808
1.21805
1.21799
1.21795
1.21789
1.21786
1.2178
1.21776
1.2177
1.21766
1.2176
1.21756
1.2175
1.21746
1.2174
1.21735
1.2173
1.21725
1.21719
1.21714
1.21708
1.21703
1.21697
1.21692
1.21686
1.21681
1.21674
1.21669
1.21662
1.21657
1.2165
1.21644
1.21637
1.21631
1.21624
1.21618
1.21611
1.21604
1.21597
1.2159
1.21582
1.21575
1.21568
1.2156
1.21552
1.21544
1.21537
1.21529
1.21521
1.21512
1.21505
1.21495
1.21488
1.23355
1.23374
1.23288
1.23181
1.23122
1.2311
1.23104
1.23049
1.22957
1.22845
1.22758
1.22692
1.22646
1.22595
1.2254
1.22472
1.22408
1.22346
1.22299
1.22259
1.22235
1.22214
1.22203
1.22192
1.22187
1.22179
1.22176
1.2217
1.22167
1.22161
1.22158
1.22152
1.22149
1.22143
1.2214
1.22134
1.22131
1.22125
1.22122
1.22116
1.22112
1.22106
1.22102
1.22096
1.22093
1.22087
1.22083
1.22077
1.22073
1.22067
1.22062
1.22056
1.22052
1.22046
1.22041
1.22035
1.2203
1.22024
1.22019
1.22013
1.22008
1.22002
1.21996
1.2199
1.21984
1.21978
1.21972
1.21965
1.21959
1.21953
1.21946
1.21939
1.21933
1.21926
1.21919
1.21912
1.21904
1.21897
1.2189
1.21882
1.21874
1.21867
1.21858
1.21851
1.21842
1.21834
1.21826
1.21818
1.21808
1.218
1.23372
1.23369
1.23299
1.23221
1.23194
1.23197
1.23197
1.23152
1.23079
1.22995
1.22934
1.22887
1.22856
1.22814
1.2277
1.22714
1.22663
1.22612
1.22576
1.22543
1.22525
1.22507
1.22498
1.22488
1.22484
1.22477
1.22474
1.22467
1.22465
1.22458
1.22455
1.22449
1.22446
1.2244
1.22437
1.2243
1.22427
1.22421
1.22417
1.22411
1.22408
1.22402
1.22398
1.22392
1.22388
1.22382
1.22378
1.22372
1.22367
1.22361
1.22357
1.22351
1.22346
1.2234
1.22335
1.22329
1.22324
1.22318
1.22313
1.22306
1.22301
1.22295
1.22289
1.22283
1.22277
1.2227
1.22265
1.22258
1.22252
1.22245
1.22238
1.22231
1.22225
1.22217
1.2221
1.22203
1.22196
1.22188
1.22181
1.22173
1.22165
1.22157
1.22149
1.22141
1.22133
1.22125
1.22116
1.22108
1.22098
1.2209
1.23302
1.23291
1.23238
1.23195
1.23189
1.23198
1.23196
1.23159
1.23108
1.23052
1.23015
1.22985
1.22965
1.22933
1.229
1.22858
1.22822
1.22785
1.2276
1.22737
1.22724
1.22711
1.22705
1.22696
1.22692
1.22685
1.22682
1.22676
1.22673
1.22666
1.22664
1.22657
1.22654
1.22648
1.22644
1.22638
1.22635
1.22628
1.22625
1.22618
1.22615
1.22608
1.22604
1.22598
1.22594
1.22588
1.22584
1.22577
1.22573
1.22567
1.22562
1.22556
1.22551
1.22545
1.2254
1.22533
1.22528
1.22522
1.22517
1.2251
1.22505
1.22498
1.22492
1.22486
1.2248
1.22473
1.22467
1.2246
1.22454
1.22447
1.2244
1.22433
1.22426
1.22419
1.22411
1.22404
1.22396
1.22389
1.22381
1.22373
1.22365
1.22357
1.22348
1.2234
1.22332
1.22323
1.22314
1.22306
1.22296
1.22288
1.23332
1.23318
1.23288
1.23265
1.23268
1.2327
1.23266
1.23238
1.23208
1.23175
1.23157
1.23138
1.23126
1.23103
1.23083
1.23055
1.23033
1.2301
1.22996
1.2298
1.22972
1.22962
1.22957
1.22949
1.22946
1.22939
1.22936
1.22929
1.22927
1.2292
1.22917
1.2291
1.22907
1.229
1.22897
1.2289
1.22887
1.2288
1.22876
1.2287
1.22866
1.2286
1.22855
1.22849
1.22845
1.22838
1.22834
1.22827
1.22823
1.22816
1.22812
1.22805
1.228
1.22794
1.22789
1.22782
1.22777
1.2277
1.22765
1.22758
1.22752
1.22745
1.2274
1.22733
1.22727
1.2272
1.22713
1.22706
1.227
1.22692
1.22685
1.22678
1.22671
1.22663
1.22656
1.22648
1.2264
1.22632
1.22624
1.22616
1.22608
1.22599
1.22591
1.22582
1.22574
1.22565
1.22556
1.22547
1.22538
1.22529
1.23249
1.23242
1.23232
1.23222
1.23224
1.2322
1.23218
1.23204
1.23194
1.23179
1.23173
1.23162
1.23157
1.23145
1.23137
1.23123
1.23115
1.23103
1.23097
1.23088
1.23084
1.23076
1.23073
1.23066
1.23063
1.23056
1.23053
1.23046
1.23044
1.23037
1.23034
1.23027
1.23024
1.23017
1.23014
1.23007
1.23004
1.22997
1.22993
1.22987
1.22983
1.22977
1.22972
1.22966
1.22962
1.22955
1.22951
1.22945
1.2294
1.22933
1.22929
1.22922
1.22917
1.22911
1.22906
1.22899
1.22894
1.22887
1.22881
1.22875
1.22869
1.22862
1.22856
1.22849
1.22843
1.22836
1.2283
1.22822
1.22816
1.22808
1.22801
1.22794
1.22786
1.22779
1.22771
1.22763
1.22755
1.22747
1.22739
1.2273
1.22722
1.22714
1.22705
1.22696
1.22687
1.22678
1.22669
1.2266
1.2265
1.22641
1.21949
1.20961
1.20433
1.20067
1.19776
1.19516
1.19282
1.19069
1.18889
1.18733
1.18605
1.18487
1.18388
1.18298
1.18228
1.18169
1.18129
1.18096
1.18078
1.18062
1.18054
1.18045
1.18041
1.18035
1.18032
1.18027
1.18024
1.18019
1.18016
1.18011
1.18008
1.18002
1.18
1.17994
1.17991
1.17985
1.17982
1.17977
1.17973
1.17968
1.17965
1.17959
1.17955
1.1795
1.17946
1.17941
1.17937
1.17931
1.17927
1.17922
1.17918
1.17912
1.17908
1.17902
1.17898
1.17892
1.17887
1.17881
1.17877
1.17871
1.17866
1.1786
1.17855
1.17849
1.17843
1.17837
1.17832
1.17825
1.1782
1.17813
1.17807
1.17801
1.17794
1.17787
1.17781
1.17774
1.17767
1.1776
1.17753
1.17746
1.17738
1.17731
1.17723
1.17716
1.17707
1.177
1.17692
1.17684
1.17674
1.17666
1.22918
1.22182
1.2166
1.21284
1.20995
1.20741
1.20509
1.20288
1.20094
1.19924
1.19786
1.19662
1.19558
1.1946
1.1938
1.19309
1.19259
1.19217
1.19191
1.1917
1.19159
1.19147
1.19143
1.19135
1.19132
1.19126
1.19123
1.19117
1.19115
1.19109
1.19106
1.191
1.19098