/*--------------------------------*- C++ -*----------------------------------*\
  =========                 |
  \\      /  F ield         | OpenFOAM: The Open Source CFD Toolbox
   \\    /   O peration     | Website:  https://openfoam.org
    \\  /    A nd           | Version:  7
     \\/     M anipulation  |
\*---------------------------------------------------------------------------*/
FoamFile
{
    version     2.0;
    format      ascii;
    class       volScalarField;
    location    "3.6";
    object      k;
}
// * * * * * * * * * * * * * * * * * * * * * * * * * * * * * * * * * * * * * //

dimensions      [0 2 -2 0 0 0 0];

internalField   nonuniform List<scalar> 
3600
(
0.0350109
0.190143
0.468829
0.760898
1.0046
1.17243
1.26978
1.30409
1.2967
1.27233
1.2245
1.17023
1.11466
1.06091
1.0107
0.964846
0.92356
0.886742
0.854069
0.825133
0.799502
0.77675
0.756483
0.738344
0.722021
0.707238
0.693761
0.681403
0.669993
0.659411
0.649531
0.640278
0.631567
0.62333
0.615506
0.608059
0.600949
0.594148
0.587628
0.581368
0.575345
0.569546
0.563955
0.558559
0.55335
0.548311
0.543445
0.538716
0.53417
0.5297
0.525472
0.521184
0.517318
0.513067
0.509691
0.505225
0.502389
0.497646
0.493429
0.49866
0.000143279
0.00296296
0.0142854
0.0402923
0.0883264
0.147148
0.206967
0.261195
0.304754
0.339029
0.363659
0.3804
0.391058
0.397372
0.400609
0.401933
0.40181
0.40134
0.400375
0.399266
0.39817
0.397156
0.396255
0.39547
0.394792
0.394201
0.393686
0.393221
0.392795
0.39238
0.391976
0.391561
0.391132
0.39068
0.3902
0.38969
0.389144
0.388571
0.387956
0.387322
0.386641
0.385953
0.385209
0.384478
0.383672
0.382912
0.382042
0.381275
0.380332
0.379586
0.378553
0.377862
0.376721
0.376104
0.374864
0.37427
0.372928
0.372331
0.370332
0.370913
2.01632e-05
3.30774e-05
0.000138719
0.000568153
0.00179216
0.0044554
0.00917614
0.0157949
0.0236252
0.0321509
0.040729
0.0489288
0.0564105
0.0630631
0.0688086
0.0737233
0.0778483
0.0813176
0.0842249
0.0866804
0.0887713
0.090587
0.0921882
0.0936406
0.0949827
0.0962604
0.0974963
0.0987235
0.0999495
0.101196
0.10246
0.10376
0.105086
0.106457
0.107855
0.109299
0.110764
0.112275
0.113801
0.115371
0.116946
0.118562
0.120174
0.121825
0.123462
0.125134
0.126781
0.128463
0.130116
0.131793
0.13344
0.135101
0.13675
0.13837
0.14003
0.141575
0.143286
0.14472
0.146573
0.14793
2.00309e-05
2.0145e-05
2.08399e-05
2.46051e-05
3.93044e-05
8.25216e-05
0.000184995
0.000385678
0.000758822
0.00125754
0.00193659
0.00270911
0.00360582
0.00452597
0.00550636
0.00644733
0.00740165
0.0082771
0.00914735
0.00992308
0.0106931
0.0113656
0.0120406
0.012619
0.0132131
0.0137134
0.0142457
0.014688
0.0151775
0.0155769
0.0160363
0.016403
0.0168441
0.0171893
0.0176234
0.0179552
0.0183895
0.0187132
0.0191534
0.0194731
0.0199256
0.0202448
0.0207142
0.0210366
0.0215267
0.0218522
0.0223661
0.0226946
0.0232356
0.0235711
0.0241422
0.024481
0.025087
0.0254313
0.026073
0.0264227
0.0271052
0.0274715
0.0282113
0.0286344
2.00411e-05
2.00918e-05
2.02233e-05
2.04935e-05
2.10384e-05
2.19137e-05
2.37098e-05
2.7016e-05
3.46828e-05
4.4554e-05
6.66527e-05
8.61019e-05
0.000127919
0.000156878
0.000217407
0.000253556
0.0003276
0.000367905
0.000449242
0.000491673
0.000575612
0.000619235
0.000703581
0.000747066
0.000830813
0.000873304
0.000956794
0.00099923
0.00108301
0.0011257
0.0012097
0.00125202
0.00133609
0.00137833
0.00146276
0.00150544
0.00159061
0.00163346
0.00171889
0.00176185
0.00184775
0.00189103
0.00197773
0.00202158
0.0021095
0.00215394
0.00224291
0.00228786
0.00237802
0.00242378
0.00251561
0.00256235
0.0026564
0.00270435
0.00280111
0.00285059
0.00295128
0.00300332
0.00311206
0.00317073
2.00455e-05
2.00813e-05
2.01867e-05
2.04047e-05
2.09045e-05
2.13321e-05
2.22421e-05
2.28079e-05
2.39784e-05
2.46216e-05
2.59557e-05
2.66691e-05
2.81685e-05
2.89762e-05
3.06907e-05
3.16221e-05
3.35976e-05
3.46637e-05
3.69067e-05
3.81109e-05
4.06273e-05
4.19744e-05
4.47721e-05
4.62602e-05
4.93296e-05
5.09527e-05
5.42905e-05
5.60602e-05
5.96997e-05
6.16287e-05
6.55843e-05
6.76652e-05
7.1916e-05
7.41416e-05
7.86821e-05
8.10614e-05
8.59182e-05
8.84547e-05
9.36172e-05
9.62958e-05
0.000101735
0.00010455
0.000110266
0.000113231
0.000119259
0.000122377
0.000128693
0.000131944
0.000138528
0.000141916
0.000148783
0.000152326
0.000159512
0.000163215
0.000170729
0.000174604
0.000182514
0.000186618
0.00019512
0.000199614
2.00456e-05
2.0081e-05
2.01867e-05
2.04048e-05
2.09047e-05
2.13317e-05
2.22409e-05
2.28073e-05
2.39795e-05
2.46231e-05
2.59569e-05
2.667e-05
2.81701e-05
2.89798e-05
3.06975e-05
3.16281e-05
3.36002e-05
3.46671e-05
3.69154e-05
3.81219e-05
4.06427e-05
4.19869e-05
4.47745e-05
4.62563e-05
4.9324e-05
5.09549e-05
5.4317e-05
5.60941e-05
5.97395e-05
6.16557e-05
6.5581e-05
6.76478e-05
7.1882e-05
7.41084e-05
7.86581e-05
8.10329e-05
8.58711e-05
8.8387e-05
9.35113e-05
9.61776e-05
0.000101609
0.000104425
0.000110145
0.000113086
0.000119045
0.000122103
0.000128312
0.000131503
0.000137978
0.000141289
0.000147996
0.000151403
0.000158305
0.000161799
0.000168907
0.00017248
0.000179805
0.000183469
0.000191182
0.000195088
2.00414e-05
2.00912e-05
2.02237e-05
2.04935e-05
2.1038e-05
2.19141e-05
2.37478e-05
2.70424e-05
3.47344e-05
4.45977e-05
6.67059e-05
8.61733e-05
0.000128058
0.000157065
0.000217614
0.000253725
0.000327662
0.000367995
0.000449589
0.000491788
0.000576234
0.000619276
0.000703621
0.000746419
0.000830904
0.0008735
0.000957627
0.000999876
0.00108371
0.00112561
0.0012094
0.00125148
0.00133574
0.00137808
0.00146255
0.00150487
0.00158952
0.00163203
0.00171721
0.0017601
0.00184611
0.00188932
0.00197587
0.00201922
0.00210608
0.00214973
0.00223735
0.00228149
0.00237019
0.0024148
0.00250446
0.00254935
0.00263967
0.00268482
0.00277624
0.0028217
0.00291493
0.00296116
0.00305983
0.00311031
2.00316e-05
2.01436e-05
2.08423e-05
2.46144e-05
3.93337e-05
8.25951e-05
0.000187455
0.000383713
0.000761513
0.00125568
0.00193905
0.00270729
0.00360999
0.00452629
0.00551062
0.00644471
0.0074039
0.00827537
0.00915212
0.00992263
0.0106978
0.0113625
0.0120421
0.0126142
0.0132171
0.0137126
0.0142531
0.0146873
0.0151827
0.0155718
0.0160388
0.0163967
0.0168473
0.0171828
0.0176255
0.0179455
0.0183887
0.0187002
0.0191516
0.019459
0.0199225
0.0202282
0.0207074
0.0210123
0.0215113
0.0218183
0.0223399
0.0226502
0.0231969
0.0235086
0.0240808
0.024394
0.0249921
0.0253085
0.0259311
0.0262517
0.0268973
0.0272285
0.0279142
0.0282873
2.01688e-05
3.31179e-05
0.000138912
0.000568603
0.0017931
0.00445602
0.00917882
0.0157982
0.0236276
0.032152
0.0407313
0.0489337
0.0564187
0.0630705
0.0688146
0.0737257
0.0778515
0.08132
0.08423
0.0866836
0.0887757
0.0905868
0.0921903
0.0936404
0.0949888
0.0962631
0.0975039
0.0987234
0.0999526
0.101189
0.10246
0.10375
0.105086
0.106444
0.107852
0.109278
0.110759
0.112249
0.113795
0.115335
0.116935
0.118512
0.120154
0.121753
0.123427
0.125033
0.126728
0.128324
0.130034
0.131599
0.133318
0.134834
0.136562
0.138005
0.139748
0.141089
0.142854
0.144072
0.145873
0.147072
0.000144937
0.00296638
0.0142926
0.0402979
0.0883335
0.147161
0.206984
0.261209
0.304765
0.339039
0.363671
0.380416
0.391074
0.397384
0.400617
0.40194
0.401815
0.401346
0.400381
0.399271
0.398175
0.397161
0.396261
0.395477
0.394798
0.394207
0.39369
0.393222
0.392795
0.392378
0.391974
0.391559
0.39113
0.390676
0.390194
0.389683
0.389136
0.388561
0.387944
0.387306
0.38662
0.385927
0.385176
0.384438
0.383622
0.382857
0.381973
0.3812
0.380238
0.379485
0.378426
0.377724
0.376552
0.375917
0.37464
0.374018
0.372624
0.371941
0.369724
0.370171
0.0350119
0.190133
0.46882
0.760888
1.00459
1.17242
1.26977
1.30408
1.29669
1.27232
1.22449
1.17021
1.11465
1.0609
1.01069
0.964836
0.923553
0.886737
0.854065
0.82513
0.7995
0.776749
0.756484
0.738347
0.722026
0.707246
0.693772
0.681416
0.67001
0.659432
0.649556
0.640308
0.631603
0.623372
0.615555
0.608117
0.601018
0.594228
0.587722
0.581478
0.575475
0.5697
0.564136
0.558778
0.553603
0.54862
0.543798
0.539153
0.534655
0.530322
0.526132
0.522077
0.518204
0.514365
0.510854
0.507109
0.503885
0.500236
0.495624
0.50131
0.941053
1.0924
1.10431
1.09014
1.06836
1.05032
1.03397
1.0192
1.00578
0.993697
0.982881
0.973203
0.964528
0.956743
0.949745
0.943446
0.937779
0.93268
0.928095
0.923975
0.920278
0.916971
0.914018
0.91139
0.909061
0.90701
0.905216
0.903658
0.90232
0.901186
0.900241
0.899473
0.898859
0.898397
0.898073
0.897874
0.897793
0.897817
0.897923
0.898133
0.898417
0.898771
0.899189
0.899664
0.900191
0.900764
0.901377
0.902028
0.90271
0.903421
0.904156
0.904914
0.905691
0.906486
0.907294
0.908115
0.908948
0.909788
0.910637
0.911493
0.912354
0.913219
0.914088
0.914959
0.915831
0.916706
0.917582
0.918458
0.919334
0.92021
0.921085
0.921958
0.922831
0.923703
0.924573
0.925441
0.926308
0.927173
0.928036
0.928897
0.929756
0.930613
0.931468
0.932321
0.933172
0.93402
0.934865
0.935708
0.936549
0.937388
0.938224
0.939057
0.939888
0.940716
0.941542
0.942365
0.943186
0.944004
0.94482
0.945634
0.946444
0.947252
0.948057
0.94886
0.94966
0.950458
0.951253
0.952044
0.952833
0.953619
0.954402
0.955182
0.955959
0.956732
0.957503
0.95827
0.959034
0.959795
0.960553
0.961308
0.962059
0.962807
0.963552
0.964293
0.965031
0.965765
0.966496
0.967224
0.967947
0.968668
0.969384
0.970097
0.970806
0.971511
0.972213
0.972911
0.973605
0.974295
0.974981
0.975664
0.976343
0.977018
0.977689
0.978357
0.979021
0.979682
0.980339
0.980992
0.981641
0.982287
0.982929
0.983568
0.984203
0.984834
0.985462
0.986086
0.986707
0.987324
0.987938
0.988548
0.989155
0.989759
0.990359
0.990956
0.99155
0.992141
0.992729
0.993314
0.993896
0.994475
0.995051
0.995624
0.996195
0.996763
0.997328
0.99789
0.99845
0.999007
0.999562
1.00011
1.00066
1.00121
1.00176
1.0023
1.00284
1.00338
1.00391
1.00445
1.00498
1.00551
1.00604
1.00656
1.00709
1.00761
1.00813
1.00865
1.00917
1.00968
1.0102
1.01071
1.01122
1.01173
1.01224
1.01275
1.01325
1.01376
1.01426
1.01476
1.01526
1.01576
1.01626
1.01675
1.01725
1.01775
1.01824
1.01873
1.01923
1.01972
1.02021
1.0207
1.02119
1.02168
1.02217
1.02265
1.02314
1.02363
1.02411
1.0246
1.02507
1.02557
1.02603
1.02655
1.02698
1.02753
1.02792
1.02853
1.02884
1.02954
1.02975
1.0306
0.633202
0.910114
1.01694
1.04789
1.04642
1.03911
1.02661
1.01492
1.00445
0.995197
0.987071
0.97991
0.973589
0.968009
0.963079
0.958725
0.954896
0.951536
0.948596
0.946036
0.943819
0.941914
0.94029
0.938923
0.93779
0.936869
0.936142
0.935592
0.935204
0.934961
0.934855
0.934879
0.934978
0.935194
0.935506
0.935893
0.936349
0.93687
0.937443
0.938069
0.938739
0.939448
0.940191
0.940964
0.941762
0.942584
0.943425
0.944283
0.945156
0.946042
0.946938
0.947842
0.948755
0.949674
0.950598
0.951526
0.952458
0.953392
0.954328
0.955265
0.956202
0.957141
0.958079
0.959016
0.959953
0.960888
0.961822
0.962755
0.963686
0.964615
0.965543
0.966468
0.967391
0.968312
0.969231
0.970148
0.971062
0.971975
0.972885
0.973792
0.974698
0.975601
0.976502
0.9774
0.978296
0.97919
0.980082
0.980971
0.981858
0.982742
0.983624
0.984503
0.98538
0.986255
0.987127
0.987996
0.988863
0.989728
0.99059
0.99145
0.992308
0.993162
0.994015
0.994865
0.995712
0.996557
0.9974
0.99824
0.999077
0.999912
1.00074
1.00157
1.0024
1.00322
1.00405
1.00486
1.00568
1.00649
1.0073
1.00811
1.00891
1.00971
1.01051
1.0113
1.01209
1.01288
1.01367
1.01445
1.01523
1.016
1.01677
1.01754
1.01831
1.01907
1.01983
1.02058
1.02133
1.02208
1.02283
1.02357
1.02431
1.02504
1.02577
1.0265
1.02722
1.02794
1.02866
1.02937
1.03008
1.03079
1.03149
1.03219
1.03289
1.03358
1.03427
1.03495
1.03564
1.03632
1.03699
1.03766
1.03833
1.039
1.03966
1.04032
1.04097
1.04163
1.04228
1.04292
1.04357
1.04421
1.04484
1.04548
1.04611
1.04674
1.04736
1.04799
1.04861
1.04922
1.04984
1.05045
1.05106
1.05167
1.05227
1.05287
1.05347
1.05407
1.05467
1.05526
1.05585
1.05644
1.05702
1.0576
1.05819
1.05877
1.05934
1.05992
1.06049
1.06107
1.06164
1.0622
1.06277
1.06334
1.0639
1.06446
1.06502
1.06558
1.06614
1.06669
1.06725
1.0678
1.06835
1.0689
1.06945
1.06999
1.07054
1.07109
1.07163
1.07217
1.07272
1.07326
1.0738
1.07434
1.07487
1.07541
1.07595
1.07649
1.07701
1.07756
1.07808
1.07863
1.07914
1.0797
1.08018
1.08078
1.08121
1.08188
1.08223
1.08297
1.08327
1.08412
0.199383
0.348198
0.482617
0.5786
0.635577
0.667508
0.68406
0.692253
0.696079
0.697683
0.698226
0.698298
0.698276
0.698289
0.698369
0.698565
0.698914
0.699379
0.699949
0.700615
0.701362
0.702182
0.703065
0.704003
0.704986
0.706006
0.707056
0.70813
0.70922
0.710321
0.711424
0.712531
0.713628
0.714716
0.715793
0.716855
0.7179
0.718927
0.719933
0.72092
0.721888
0.722835
0.723763
0.724672
0.725564
0.726438
0.727296
0.728139
0.728968
0.729784
0.730587
0.731379
0.73216
0.732932
0.733695
0.734449
0.735196
0.735937
0.73667
0.737398
0.738121
0.738839
0.739553
0.740262
0.740968
0.74167
0.74237
0.743066
0.74376
0.744451
0.74514
0.745827
0.746511
0.747193
0.747873
0.748551
0.749227
0.749902
0.750574
0.751244
0.751913
0.75258
0.753246
0.75391
0.754572
0.755234
0.755893
0.756551
0.757208
0.757864
0.758518
0.759171
0.759822
0.760472
0.76112
0.761768
0.762413
0.763058
0.7637
0.764342
0.764982
0.765621
0.766258
0.766894
0.767528
0.768161
0.768793
0.769423
0.770052
0.77068
0.771307
0.771932
0.772556
0.773178
0.773799
0.774419
0.775037
0.775654
0.776269
0.776883
0.777495
0.778106
0.778715
0.779322
0.779928
0.780533
0.781135
0.781736
0.782336
0.782934
0.78353
0.784125
0.784719
0.78531
0.7859
0.786489
0.787075
0.78766
0.788243
0.788825
0.789404
0.789982
0.790558
0.791132
0.791704
0.792274
0.792842
0.793408
0.793973
0.794535
0.795096
0.795655
0.796211
0.796766
0.797319
0.797871
0.79842
0.798968
0.799513
0.800057
0.800598
0.801138
0.801676
0.802212
0.802746
0.803277
0.803807
0.804335
0.804861
0.805385
0.805906
0.806426
0.806945
0.807461
0.807975
0.808488
0.808998
0.809507
0.810014
0.81052
0.811024
0.811525
0.812026
0.812524
0.813021
0.813516
0.814009
0.8145
0.81499
0.815478
0.815964
0.816449
0.816932
0.817413
0.817893
0.818371
0.818848
0.819323
0.819797
0.820269
0.82074
0.82121
0.821678
0.822146
0.822611
0.823076
0.823539
0.824001
0.824461
0.824921
0.825379
0.825835
0.826291
0.826745
0.827198
0.82765
0.828101
0.828551
0.828999
0.829448
0.829894
0.83034
0.830784
0.83123
0.831671
0.832116
0.832553
0.833001
0.833431
0.833884
0.834302
0.834767
0.835165
0.835655
0.836017
0.836547
0.836859
0.837438
0.837716
0.838404
0.0345119
0.0545461
0.0902583
0.137554
0.187303
0.233666
0.273882
0.307278
0.334338
0.356052
0.373496
0.387645
0.399296
0.409075
0.417434
0.424701
0.431133
0.436913
0.442176
0.447021
0.45152
0.455725
0.459677
0.463405
0.466929
0.470263
0.473419
0.476407
0.47923
0.481896
0.484409
0.486776
0.489
0.491087
0.493042
0.494871
0.496581
0.498178
0.499668
0.501058
0.502356
0.503567
0.504699
0.505758
0.506749
0.507679
0.508553
0.509376
0.510154
0.510889
0.511588
0.512253
0.512888
0.513495
0.514078
0.51464
0.515182
0.515707
0.516217
0.516714
0.517198
0.517673
0.518138
0.518594
0.519045
0.519488
0.519927
0.52036
0.52079
0.521216
0.521639
0.522059
0.522477
0.522893
0.523308
0.52372
0.524132
0.524541
0.52495
0.525358
0.525765
0.526171
0.526576
0.52698
0.527384
0.527788
0.528191
0.528593
0.528996
0.529398
0.529799
0.530201
0.530602
0.531003
0.531404
0.531804
0.532205
0.532605
0.533005
0.533404
0.533804
0.534203
0.534601
0.535
0.535398
0.535795
0.536193
0.53659
0.536987
0.537384
0.53778
0.538177
0.538573
0.53897
0.539366
0.539762
0.540158
0.540554
0.54095
0.541346
0.541741
0.542137
0.542532
0.542927
0.543322
0.543716
0.544111
0.544505
0.544899
0.545292
0.545686
0.546079
0.546473
0.546866
0.547259
0.547652
0.548045
0.548438
0.548831
0.549223
0.549616
0.550008
0.5504
0.550792
0.551183
0.551574
0.551965
0.552356
0.552746
0.553135
0.553524
0.553913
0.554301
0.554689
0.555076
0.555464
0.55585
0.556237
0.556622
0.557008
0.557393
0.557778
0.558162
0.558546
0.558929
0.559311
0.559693
0.560074
0.560454
0.560834
0.561213
0.561591
0.561968
0.562345
0.562721
0.563096
0.56347
0.563843
0.564216
0.564588
0.564959
0.56533
0.5657
0.566069
0.566437
0.566805
0.567171
0.567537
0.567902
0.568266
0.568629
0.568991
0.569352
0.569713
0.570072
0.57043
0.570787
0.571144
0.571499
0.571853
0.572207
0.57256
0.572912
0.573263
0.573613
0.573962
0.574311
0.574659
0.575006
0.575352
0.575697
0.576042
0.576385
0.576728
0.577069
0.57741
0.577749
0.578089
0.578426
0.578763
0.579099
0.579435
0.579768
0.580104
0.580434
0.58077
0.581096
0.581434
0.581754
0.582097
0.582407
0.58276
0.583054
0.583424
0.583693
0.584091
0.584327
0.584754
0.584966
0.585485
0.00360576
0.00498033
0.00737193
0.0120589
0.0195958
0.0299091
0.0426283
0.0571336
0.0726981
0.0886516
0.104483
0.119823
0.134434
0.148179
0.161013
0.172944
0.184008
0.194254
0.203739
0.212517
0.220645
0.22817
0.235138
0.241586
0.24755
0.253061
0.258148
0.262837
0.267153
0.27112
0.274759
0.278092
0.281139
0.283921
0.286456
0.288763
0.29086
0.292762
0.294486
0.296047
0.297459
0.298735
0.299889
0.300931
0.301872
0.302723
0.303493
0.304189
0.30482
0.305392
0.305913
0.306387
0.306819
0.307215
0.307579
0.307914
0.308223
0.30851
0.308777
0.309027
0.309262
0.309483
0.309693
0.309893
0.310084
0.310267
0.310443
0.310614
0.31078
0.310943
0.311103
0.31126
0.311416
0.31157
0.311723
0.311875
0.312027
0.312178
0.312329
0.31248
0.312632
0.312783
0.312934
0.313086
0.313238
0.31339
0.313543
0.313696
0.31385
0.314005
0.31416
0.314316
0.314472
0.31463
0.314788
0.314947
0.315107
0.315268
0.315429
0.315591
0.315754
0.315917
0.316081
0.316246
0.316411
0.316577
0.316744
0.316911
0.317079
0.317247
0.317416
0.317586
0.317756
0.317928
0.3181
0.318273
0.318446
0.318621
0.318797
0.318973
0.31915
0.319329
0.319508
0.319687
0.319868
0.320049
0.320232
0.320415
0.320598
0.320783
0.320968
0.321154
0.321341
0.321529
0.321718
0.321908
0.322098
0.32229
0.322482
0.322676
0.322871
0.323067
0.323263
0.323461
0.323659
0.323859
0.324059
0.32426
0.324462
0.324665
0.324868
0.325072
0.325277
0.325482
0.325689
0.325896
0.326103
0.326312
0.326521
0.32673
0.326941
0.327152
0.327364
0.327577
0.327791
0.328005
0.328219
0.328434
0.32865
0.328866
0.329082
0.329299
0.329516
0.329733
0.329951
0.330169
0.330386
0.330605
0.330823
0.331041
0.33126
0.331479
0.331698
0.331918
0.332137
0.332357
0.332577
0.332797
0.333017
0.333237
0.333457
0.333677
0.333897
0.334117
0.334337
0.334556
0.334775
0.334994
0.335213
0.335431
0.335649
0.335867
0.336084
0.336301
0.336518
0.336735
0.336952
0.337168
0.337384
0.3376
0.337816
0.338031
0.338246
0.338461
0.338675
0.338889
0.339102
0.339315
0.339527
0.33974
0.33995
0.340162
0.34037
0.340583
0.340788
0.341002
0.341203
0.34142
0.341616
0.341837
0.342026
0.342255
0.342433
0.342673
0.342836
0.34309
0.343236
0.343506
0.343639
0.343969
0.00022342
0.000287608
0.000372601
0.000515641
0.000783145
0.00125177
0.00202523
0.00320594
0.0048844
0.00711681
0.00993173
0.0133237
0.0172599
0.0216833
0.026521
0.031692
0.037111
0.0426932
0.0483565
0.054026
0.0596346
0.0651242
0.0704466
0.0755626
0.0804429
0.0850658
0.0894173
0.0934906
0.0972833
0.100798
0.104042
0.107023
0.109753
0.112245
0.114513
0.11657
0.118431
0.12011
0.121622
0.12298
0.124197
0.125286
0.126257
0.127123
0.127894
0.128578
0.129185
0.129723
0.130199
0.130619
0.130991
0.131318
0.131607
0.131861
0.132085
0.132282
0.132455
0.132608
0.132742
0.132861
0.132965
0.133057
0.133139
0.133212
0.133277
0.133336
0.13339
0.133438
0.133483
0.133524
0.133562
0.133597
0.133631
0.133662
0.133693
0.133722
0.133751
0.133778
0.133806
0.133833
0.13386
0.133887
0.133914
0.133942
0.133969
0.133997
0.134025
0.134054
0.134083
0.134113
0.134143
0.134174
0.134205
0.134238
0.134271
0.134305
0.134339
0.134374
0.13441
0.134447
0.134485
0.134523
0.134562
0.134602
0.134642
0.134683
0.134725
0.134767
0.13481
0.134853
0.134898
0.134942
0.134988
0.135034
0.135081
0.135129
0.135177
0.135227
0.135277
0.135327
0.135379
0.135431
0.135484
0.135538
0.135593
0.135648
0.135704
0.135761
0.135818
0.135876
0.135935
0.135994
0.136055
0.136115
0.136177
0.136239
0.136302
0.136366
0.136431
0.136496
0.136562
0.13663
0.136697
0.136766
0.136836
0.136906
0.136977
0.137049
0.137121
0.137194
0.137268
0.137343
0.137418
0.137493
0.13757
0.137647
0.137724
0.137803
0.137882
0.137961
0.138041
0.138122
0.138204
0.138286
0.138369
0.138452
0.138536
0.138621
0.138706
0.138791
0.138878
0.138964
0.139051
0.139139
0.139226
0.139314
0.139403
0.139492
0.139581
0.13967
0.13976
0.13985
0.13994
0.140031
0.140122
0.140214
0.140305
0.140397
0.140489
0.140582
0.140675
0.140768
0.140861
0.140954
0.141047
0.141141
0.141234
0.141327
0.141421
0.141514
0.141608
0.141701
0.141795
0.141888
0.141982
0.142075
0.142169
0.142263
0.142356
0.14245
0.142543
0.142637
0.14273
0.142824
0.142916
0.143011
0.143103
0.143198
0.143288
0.143384
0.143473
0.143569
0.143656
0.143754
0.143839
0.143938
0.14402
0.144122
0.144201
0.144306
0.14438
0.144489
0.144559
0.144672
0.144737
0.144854
0.144915
0.145034
0.145093
0.145239
0.000218088
0.000279559
0.000353689
0.000478067
0.000713459
0.00113822
0.00184901
0.00295463
0.0045458
0.00668717
0.00941401
0.012731
0.0166115
0.0210046
0.02584
0.031038
0.0365137
0.0421796
0.0479527
0.053754
0.0595138
0.0651706
0.070673
0.0759795
0.0810582
0.0858856
0.0904463
0.0947311
0.0987373
0.102467
0.105925
0.10912
0.112064
0.114768
0.117247
0.119514
0.121584
0.12347
0.125187
0.126749
0.128168
0.129458
0.130629
0.131693
0.132661
0.133541
0.134342
0.135073
0.13574
0.136351
0.136911
0.137427
0.137902
0.138342
0.13875
0.139129
0.139484
0.139817
0.14013
0.140426
0.140707
0.140974
0.141229
0.141474
0.14171
0.141938
0.142159
0.142374
0.142584
0.14279
0.142991
0.143189
0.143383
0.143574
0.143763
0.14395
0.144135
0.144317
0.144499
0.144678
0.144857
0.145034
0.145211
0.145386
0.145561
0.145735
0.145908
0.14608
0.146252
0.146423
0.146594
0.146765
0.146935
0.147104
0.147274
0.147443
0.147612
0.147781
0.14795
0.148118
0.148286
0.148454
0.148621
0.148788
0.148955
0.149122
0.149288
0.149454
0.149619
0.149784
0.149949
0.150113
0.150277
0.15044
0.150604
0.150766
0.150929
0.151091
0.151253
0.151415
0.151576
0.151737
0.151897
0.152057
0.152217
0.152376
0.152535
0.152693
0.152851
0.153008
0.153164
0.15332
0.153475
0.15363
0.153784
0.153938
0.154091
0.154244
0.154396
0.154548
0.1547
0.15485
0.155001
0.155151
0.1553
0.155449
0.155597
0.155745
0.155892
0.156038
0.156184
0.156329
0.156473
0.156617
0.15676
0.156903
0.157045
0.157186
0.157327
0.157467
0.157606
0.157745
0.157884
0.158022
0.158159
0.158296
0.158432
0.158568
0.158703
0.158838
0.158972
0.159105
0.159238
0.159369
0.159501
0.159631
0.159761
0.159891
0.160019
0.160147
0.160275
0.160402
0.160528
0.160654
0.160779
0.160904
0.161028
0.161152
0.161275
0.161398
0.16152
0.161641
0.161762
0.161883
0.162003
0.162122
0.162241
0.162359
0.162476
0.162593
0.162709
0.162825
0.16294
0.163055
0.163169
0.163283
0.163396
0.163509
0.163621
0.163733
0.163844
0.163956
0.164065
0.164177
0.164285
0.164396
0.164503
0.164613
0.164719
0.164829
0.164932
0.165043
0.165143
0.165255
0.165353
0.165465
0.165559
0.165674
0.165764
0.165883
0.165967
0.16609
0.166168
0.166297
0.166369
0.166501
0.166569
0.166704
0.166769
0.166934
0.00354759
0.00486733
0.00708671
0.0114725
0.018675
0.0286821
0.0411615
0.0555367
0.07109
0.0871516
0.103198
0.118841
0.133824
0.147998
0.161295
0.173724
0.185304
0.196077
0.206091
0.215395
0.224041
0.232072
0.239531
0.246454
0.252875
0.258825
0.264332
0.269422
0.27412
0.27845
0.282436
0.286099
0.289462
0.292545
0.295368
0.29795
0.30031
0.302467
0.304435
0.306233
0.307874
0.309372
0.310741
0.311993
0.313138
0.314188
0.315153
0.31604
0.316858
0.317614
0.318315
0.318966
0.319574
0.320142
0.320675
0.321176
0.321651
0.3221
0.322528
0.322937
0.323328
0.323705
0.324068
0.324419
0.32476
0.325092
0.325416
0.325732
0.326043
0.326348
0.32665
0.326947
0.327241
0.327533
0.327823
0.32811
0.328396
0.328681
0.328964
0.329247
0.329528
0.329808
0.330088
0.330367
0.330646
0.330924
0.331202
0.33148
0.331757
0.332034
0.332311
0.332588
0.332865
0.333142
0.333418
0.333695
0.333972
0.334249
0.334527
0.334804
0.335081
0.335357
0.335634
0.335911
0.336187
0.336463
0.336739
0.337014
0.33729
0.337565
0.33784
0.338114
0.338389
0.338663
0.338937
0.339211
0.339485
0.339759
0.340033
0.340306
0.340579
0.340853
0.341125
0.341398
0.34167
0.341941
0.342213
0.342483
0.342754
0.343024
0.343293
0.343562
0.343831
0.344099
0.344367
0.344635
0.344902
0.345169
0.345436
0.345703
0.345969
0.346235
0.346501
0.346766
0.347031
0.347296
0.34756
0.347823
0.348087
0.348349
0.348611
0.348873
0.349134
0.349395
0.349655
0.349915
0.350174
0.350433
0.350691
0.35095
0.351207
0.351465
0.351722
0.351979
0.352235
0.352491
0.352747
0.353002
0.353257
0.353511
0.353764
0.354017
0.354269
0.354521
0.354772
0.355023
0.355273
0.355522
0.355771
0.356019
0.356267
0.356514
0.356761
0.357008
0.357254
0.357499
0.357744
0.357989
0.358233
0.358476
0.358719
0.358961
0.359203
0.359444
0.359684
0.359924
0.360163
0.360401
0.360638
0.360875
0.361111
0.361347
0.361581
0.361816
0.36205
0.362283
0.362515
0.362748
0.362979
0.36321
0.363441
0.363671
0.3639
0.364129
0.364357
0.364584
0.36481
0.365037
0.365261
0.365487
0.365709
0.365935
0.366154
0.36638
0.366596
0.366822
0.367035
0.367264
0.367471
0.367704
0.367903
0.368144
0.368331
0.368584
0.368756
0.369024
0.369177
0.369461
0.369602
0.369949
0.0341529
0.0537676
0.0886311
0.135317
0.18515
0.232102
0.273212
0.307686
0.335863
0.358633
0.377064
0.392128
0.404624
0.415167
0.424223
0.43212
0.439116
0.445402
0.451119
0.456371
0.461236
0.465771
0.470017
0.474005
0.47776
0.481298
0.484632
0.487772
0.490726
0.493501
0.496104
0.498542
0.50082
0.502946
0.504925
0.506765
0.508473
0.510058
0.511526
0.512887
0.514145
0.51531
0.516389
0.517389
0.518316
0.519178
0.51998
0.520727
0.521425
0.522079
0.522694
0.523273
0.523819
0.524338
0.52483
0.5253
0.52575
0.526182
0.526598
0.527001
0.527391
0.527771
0.528141
0.528503
0.528859
0.529209
0.529553
0.529894
0.53023
0.530564
0.530895
0.531224
0.531552
0.531878
0.532203
0.532527
0.53285
0.533173
0.533496
0.533818
0.534141
0.534463
0.534785
0.535108
0.535431
0.535754
0.536078
0.536402
0.536727
0.537052
0.537378
0.537704
0.538031
0.538359
0.538687
0.539016
0.539346
0.539676
0.540006
0.540337
0.540669
0.541001
0.541333
0.541665
0.541999
0.542332
0.542666
0.543
0.543335
0.54367
0.544005
0.544341
0.544678
0.545015
0.545352
0.54569
0.546029
0.546367
0.546706
0.547046
0.547386
0.547726
0.548066
0.548407
0.548747
0.549088
0.54943
0.549771
0.550113
0.550455
0.550797
0.55114
0.551483
0.551827
0.55217
0.552515
0.552859
0.553204
0.553549
0.553895
0.554241
0.554587
0.554933
0.55528
0.555627
0.555974
0.556321
0.556669
0.557016
0.557364
0.557712
0.55806
0.558408
0.558757
0.559106
0.559455
0.559804
0.560153
0.560503
0.560853
0.561203
0.561553
0.561903
0.562254
0.562605
0.562955
0.563306
0.563656
0.564007
0.564357
0.564708
0.565058
0.565408
0.565758
0.566108
0.566458
0.566808
0.567158
0.567507
0.567857
0.568206
0.568556
0.568905
0.569254
0.569603
0.569952
0.5703
0.570649
0.570997
0.571344
0.571691
0.572038
0.572384
0.57273
0.573076
0.573421
0.573766
0.57411
0.574454
0.574797
0.57514
0.575482
0.575824
0.576166
0.576508
0.576849
0.577189
0.577529
0.577868
0.578208
0.578546
0.578884
0.579221
0.579558
0.579894
0.580229
0.580564
0.580898
0.581231
0.581565
0.581896
0.582229
0.582558
0.582891
0.583218
0.583551
0.583874
0.58421
0.584528
0.584869
0.585176
0.585528
0.585819
0.586189
0.586455
0.586853
0.587085
0.587514
0.587724
0.588244
0.199673
0.34638
0.482013
0.580033
0.639187
0.672879
0.690781
0.699999
0.704532
0.706605
0.70746
0.707761
0.707849
0.707896
0.707988
0.708161
0.708424
0.708776
0.709211
0.709719
0.710292
0.710919
0.711595
0.712311
0.71306
0.713835
0.71463
0.715437
0.716251
0.717066
0.717878
0.71868
0.71947
0.720244
0.720999
0.721732
0.722443
0.723131
0.723794
0.724435
0.725051
0.725643
0.726215
0.726765
0.727295
0.727807
0.728302
0.728781
0.729245
0.729695
0.730134
0.730561
0.730978
0.731386
0.731786
0.73218
0.732567
0.732948
0.733325
0.733698
0.734068
0.734435
0.734799
0.735162
0.735523
0.735884
0.736243
0.736602
0.73696
0.737319
0.737677
0.738036
0.738394
0.738754
0.739113
0.739474
0.739835
0.740197
0.740559
0.740922
0.741286
0.741651
0.742017
0.742384
0.742752
0.74312
0.74349
0.743861
0.744232
0.744605
0.744979
0.745353
0.745729
0.746105
0.746482
0.74686
0.747239
0.747619
0.747999
0.748381
0.748763
0.749145
0.749529
0.749913
0.750298
0.750684
0.751071
0.751459
0.751847
0.752236
0.752627
0.753017
0.753409
0.753802
0.754195
0.754589
0.754983
0.755378
0.755774
0.756171
0.756569
0.756967
0.757365
0.757765
0.758165
0.758566
0.758968
0.759371
0.759774
0.760179
0.760584
0.76099
0.761396
0.761804
0.762213
0.762622
0.763032
0.763443
0.763855
0.764267
0.76468
0.765094
0.765508
0.765924
0.76634
0.766756
0.767174
0.767592
0.768011
0.76843
0.76885
0.769272
0.769693
0.770116
0.770539
0.770963
0.771388
0.771813
0.772239
0.772665
0.773092
0.77352
0.773948
0.774376
0.774805
0.775235
0.775664
0.776094
0.776525
0.776956
0.777387
0.777818
0.77825
0.778683
0.779115
0.779548
0.779982
0.780415
0.780849
0.781283
0.781717
0.782151
0.782586
0.78302
0.783455
0.783889
0.784324
0.784759
0.785193
0.785627
0.786062
0.786496
0.78693
0.787364
0.787798
0.788231
0.788665
0.789099
0.789532
0.789965
0.790398
0.790831
0.791264
0.791696
0.792128
0.79256
0.792992
0.793423
0.793853
0.794284
0.794714
0.795143
0.795573
0.796001
0.79643
0.796858
0.797285
0.797712
0.798139
0.798566
0.798991
0.799418
0.799842
0.800268
0.80069
0.801118
0.801536
0.801966
0.802379
0.802816
0.803217
0.803667
0.804048
0.804523
0.804869
0.805386
0.805682
0.806246
0.806513
0.807182
0.635267
0.913948
1.02402
1.05581
1.05427
1.04672
1.0337
1.02131
1.01004
0.999957
0.99097
0.982951
0.975783
0.969369
0.96363
0.958492
0.953893
0.949779
0.946101
0.942816
0.939887
0.93728
0.934963
0.932913
0.931104
0.929514
0.928124
0.926916
0.925874
0.924981
0.924225
0.923591
0.923068
0.922646
0.922313
0.92206
0.92188
0.921765
0.921705
0.921706
0.921736
0.921809
0.921926
0.922071
0.922244
0.922441
0.92266
0.922898
0.923151
0.923421
0.923703
0.923997
0.924302
0.924615
0.924937
0.925267
0.925603
0.925945
0.926293
0.926646
0.927003
0.927364
0.92773
0.928098
0.92847
0.928845
0.929222
0.929602
0.929984
0.930368
0.930754
0.931142
0.931532
0.931923
0.932316
0.932711
0.933108
0.933506
0.933905
0.934307
0.934709
0.935113
0.935519
0.935926
0.936334
0.936743
0.937153
0.937565