/*--------------------------------*- C++ -*----------------------------------*\
  =========                 |
  \\      /  F ield         | OpenFOAM: The Open Source CFD Toolbox
   \\    /   O peration     | Website:  https://openfoam.org
    \\  /    A nd           | Version:  7
     \\/     M anipulation  |
\*---------------------------------------------------------------------------*/
FoamFile
{
    version     2.0;
    format      ascii;
    class       volScalarField;
    location    "0.095";
    object      k_0;
}
// * * * * * * * * * * * * * * * * * * * * * * * * * * * * * * * * * * * * * //

dimensions      [0 2 -2 0 0 0 0];

internalField   nonuniform List<scalar> 
400
(
4.8219e-05
3.61216e-05
2.03088e-05
1.29149e-05
8.9474e-06
6.4424e-06
4.73429e-06
3.57206e-06
2.80757e-06
2.32683e-06
2.03787e-06
1.8722e-06
1.78448e-06
1.74742e-06
1.74627e-06
1.77465e-06
1.82778e-06
1.89513e-06
1.95184e-06
1.92862e-06
3.56429e-05
4.81373e-05
4.51964e-05
3.55057e-05
2.62087e-05
1.93438e-05
1.43707e-05
1.08869e-05
8.54277e-06
7.03354e-06
6.10145e-06
5.54697e-06
5.23143e-06
5.06823e-06
5.00693e-06
5.02075e-06
5.0941e-06
5.20466e-06
5.34362e-06
5.4198e-06
2.69351e-05
4.36788e-05
4.75527e-05
4.46953e-05
3.80272e-05
3.06056e-05
2.39558e-05
1.87127e-05
1.48922e-05
1.2255e-05
1.05021e-05
9.35816e-06
8.60803e-06
8.10669e-06
7.76606e-06
7.53709e-06
7.39186e-06
7.30491e-06
7.27813e-06
7.2238e-06
2.26742e-05
3.33589e-05
4.10151e-05
4.24863e-05
4.08366e-05
3.68047e-05
3.10716e-05
2.56286e-05
2.11207e-05
1.76513e-05
1.50998e-05
1.32577e-05
1.19105e-05
1.089e-05
1.00861e-05
9.43598e-06
8.9063e-06
8.47358e-06
8.15227e-06
7.83202e-06
2.09895e-05
2.5904e-05
3.18983e-05
3.65488e-05
3.80323e-05
3.66448e-05
3.33602e-05
2.93986e-05
2.55169e-05
2.20747e-05
1.92141e-05
1.69255e-05
1.51014e-05
1.36126e-05
1.23598e-05
1.1286e-05
1.03639e-05
9.5785e-06
8.95651e-06
8.35549e-06
2.12698e-05
2.29794e-05
2.63464e-05
3.01897e-05
3.24021e-05
3.2758e-05
3.17212e-05
2.94019e-05
2.69004e-05
2.43279e-05
2.18656e-05
1.96746e-05
1.77846e-05
1.61419e-05
1.46811e-05
1.33708e-05
1.22018e-05
1.11782e-05
1.03527e-05
9.55018e-06
2.10464e-05
2.17681e-05
2.33975e-05
2.56198e-05
2.71547e-05
2.7773e-05
2.76489e-05
2.70807e-05
2.58548e-05
2.42036e-05
2.25022e-05
2.08555e-05
1.93222e-05
1.79205e-05
1.66221e-05
1.53872e-05
1.4233e-05
1.31869e-05
1.23365e-05
1.15122e-05
2.12479e-05
2.13803e-05
2.20188e-05
2.29162e-05
2.35894e-05
2.39663e-05
2.39431e-05
2.37604e-05
2.33321e-05
2.25867e-05
2.15992e-05
2.05318e-05
1.95139e-05
1.85536e-05
1.76409e-05
1.67644e-05
1.59047e-05
1.50894e-05
1.44239e-05
1.3831e-05
2.13531e-05
2.14796e-05
2.1666e-05
2.16862e-05
2.1658e-05
2.16e-05
2.14694e-05
2.12407e-05
2.09325e-05
2.05083e-05
1.99682e-05
1.93858e-05
1.88063e-05
1.82647e-05
1.77636e-05
1.729e-05
1.6837e-05
1.64222e-05
1.60915e-05
1.59525e-05
2.13373e-05
2.12839e-05
2.13044e-05
2.10625e-05
2.06879e-05
2.03824e-05
2.00676e-05
1.97279e-05
1.93897e-05
1.90412e-05
1.8671e-05
1.83014e-05
1.79662e-05
1.76881e-05
1.74836e-05
1.7331e-05
1.7214e-05
1.71993e-05
1.72542e-05
1.75728e-05
2.11645e-05
2.11177e-05
2.10536e-05
2.07109e-05
2.02937e-05
1.99006e-05
1.94861e-05
1.9079e-05
1.87169e-05
1.8396e-05
1.81029e-05
1.78385e-05
1.76349e-05
1.75047e-05
1.74869e-05
1.75288e-05
1.76445e-05
1.78896e-05
1.82197e-05
1.90697e-05
2.08329e-05
2.12715e-05
2.11654e-05
2.0788e-05
2.03808e-05
1.99567e-05
1.95077e-05
1.90955e-05
1.87607e-05
1.85071e-05
1.83188e-05
1.81851e-05
1.81662e-05
1.82131e-05
1.83409e-05
1.85887e-05
1.89247e-05
1.94323e-05
1.9955e-05
2.12168e-05
2.11634e-05
2.18978e-05
2.17589e-05
2.13129e-05
2.08722e-05
2.04159e-05
1.99762e-05
1.96477e-05
1.94483e-05
1.94197e-05
1.94854e-05
1.96641e-05
1.99765e-05
2.0367e-05
2.08283e-05
2.13777e-05
2.1986e-05
2.28038e-05
2.35228e-05
2.51724e-05
2.17709e-05
2.2532e-05
2.23734e-05
2.20464e-05
2.18031e-05
2.15162e-05
2.12938e-05
2.12985e-05
2.14395e-05
2.18192e-05
2.2477e-05
2.32888e-05
2.42071e-05
2.51618e-05
2.6123e-05
2.71111e-05
2.80852e-05
2.92844e-05
3.02358e-05
3.2325e-05
2.27803e-05
2.25871e-05
2.26579e-05
2.29409e-05
2.34006e-05
2.3875e-05
2.444e-05
2.52308e-05
2.63082e-05
2.77045e-05
2.93592e-05
3.11508e-05
3.29599e-05
3.46675e-05
3.62409e-05
3.77335e-05
3.91358e-05
4.0745e-05
4.19897e-05
4.4593e-05
2.29323e-05
2.34425e-05
2.41529e-05
2.54579e-05
2.74845e-05
2.98325e-05
3.23355e-05
3.49973e-05
3.78119e-05
4.08364e-05
4.39776e-05
4.70466e-05
4.98821e-05
5.2371e-05
5.45385e-05
5.65067e-05
5.83558e-05
6.02676e-05
6.19927e-05
6.47667e-05
2.47624e-05
2.653e-05
2.93644e-05
3.4115e-05
4.00603e-05
4.64411e-05
5.25238e-05
5.80451e-05
6.32556e-05
6.84942e-05
7.34573e-05
7.78542e-05
8.15301e-05
8.44737e-05
8.68249e-05
8.881e-05
9.05445e-05
9.20683e-05
9.38231e-05
9.47367e-05
2.79711e-05
3.88483e-05
5.09503e-05
6.49555e-05
7.86631e-05
9.05905e-05
0.00010062
0.000109024
0.000117039
0.000124915
0.000130753
0.000134641
0.000136819
0.000137573
0.000137356
0.00013659
0.00013526
0.000132825
0.000130204
0.000124465
5.16564e-05
9.0717e-05
0.000126516
0.000155415
0.000176895
0.000192972
0.000203215
0.000209851
0.000210084
0.000208333
0.000204502
0.000198769
0.000191738
0.000183933
0.000175781
0.000167419
0.000159066
0.000149971
0.000141469
0.0001293
0.000185742
0.000281959
0.000316629
0.000330812
0.000328406
0.000315998
0.00029075
0.000262707
0.000234641
0.000208738
0.000185388
0.000164943
0.000147341
0.000132234
0.000119178
0.00010768
9.74312e-05
8.78166e-05
7.93759e-05
7.02027e-05
)
;

boundaryField
{
    upperWall
    {
        type            fixedValue;
        value           uniform 0;
    }
    lowerWall
    {
        type            fixedValue;
        value           uniform 0;
    }
    inlet
    {
        type            fixedValue;
        value           uniform 2e-05;
    }
    outlet
    {
        type            inletOutlet;
        inletValue      uniform 0;
        value           nonuniform List<scalar> 
20
(
1.92862e-06
5.4198e-06
7.2238e-06
7.83202e-06
8.35549e-06
9.55018e-06
1.15122e-05
1.3831e-05
1.59525e-05
1.75728e-05
1.90697e-05
2.12168e-05
2.51724e-05
3.2325e-05
4.4593e-05
6.47667e-05
9.47367e-05
0.000124465
0.0001293
7.02027e-05
)
;
    }
    frontAndBack
    {
        type            empty;
    }
}


// ************************************************************************* //
