/*--------------------------------*- C++ -*----------------------------------*\
  =========                 |
  \\      /  F ield         | OpenFOAM: The Open Source CFD Toolbox
   \\    /   O peration     | Website:  https://openfoam.org
    \\  /    A nd           | Version:  7
     \\/     M anipulation  |
\*---------------------------------------------------------------------------*/
FoamFile
{
    version     2.0;
    format      ascii;
    class       volScalarField;
    location    "1.79";
    object      alphat;
}
// * * * * * * * * * * * * * * * * * * * * * * * * * * * * * * * * * * * * * //

dimensions      [1 -1 -1 0 0 0 0];

internalField   nonuniform List<scalar> 
13200
(
0.0100565
0.010328
0.0103262
0.0103263
0.010324
0.0103238
0.0103224
0.0103224
0.0103212
0.0103214
0.0103207
0.0103209
0.0103205
0.0103207
0.0103204
0.0103205
0.0103206
0.0103198
0.010324
0.0103284
0.00487036
0.00463977
0.00448333
0.00442201
0.00439985
0.00439404
0.00438672
0.0043861
0.00438305
0.004383
0.00438077
0.00438088
0.00437912
0.00437929
0.00437782
0.00437801
0.00437687
0.00437672
0.00438267
0.00438652
0.00304562
0.00303485
0.00297667
0.00293262
0.00291223
0.00290416
0.00289606
0.002893
0.00288802
0.0028862
0.00288257
0.00288129
0.00287844
0.00287751
0.00287513
0.00287448
0.00287224
0.00287205
0.00286995
0.00287705
0.00257009
0.00271859
0.00273282
0.00273108
0.00272786
0.00272614
0.00272315
0.00272152
0.00271873
0.00271731
0.00271488
0.00271368
0.00271158
0.00271054
0.00270869
0.00270782
0.00270615
0.00270552
0.00270357
0.00270806
0.00246087
0.00265811
0.00269291
0.00270305
0.0027049
0.00270718
0.00270699
0.00270743
0.00270669
0.00270664
0.00270566
0.00270543
0.00270434
0.00270403
0.00270293
0.00270262
0.00270145
0.00270127
0.0026998
0.00270246
0.00244593
0.00265014
0.00268953
0.00270278
0.00270631
0.00271063
0.00271163
0.00271355
0.00271389
0.00271502
0.00271498
0.00271572
0.00271543
0.00271588
0.0027154
0.00271568
0.00271506
0.00271526
0.00271459
0.00271647
0.00244128
0.00264586
0.00268585
0.00269985
0.00270417
0.00270939
0.00271117
0.00271422
0.00271533
0.00271743
0.00271818
0.00271973
0.00272021
0.00272139
0.00272161
0.00272249
0.00272252
0.00272318
0.0027231
0.00272517
0.00244356
0.00264627
0.00268611
0.00270021
0.00270495
0.00271064
0.00271291
0.00271664
0.00271828
0.00272112
0.00272241
0.00272467
0.00272569
0.00272752
0.00272827
0.00272974
0.00273029
0.00273138
0.002732
0.002734
0.00244307
0.00264501
0.00268454
0.00269847
0.00270322
0.00270901
0.00271144
0.00271543
0.00271731
0.00272051
0.0027221
0.0027248
0.00272616
0.00272846
0.00272956
0.00273148
0.0027324
0.00273389
0.00273486
0.00273726
0.00244413
0.00264532
0.00268469
0.00269856
0.00270333
0.00270916
0.00271164
0.00271571
0.00271768
0.00272102
0.00272274
0.00272562
0.00272714
0.00272965
0.00273093
0.00273306
0.00273422
0.00273581
0.00273713
0.00273954
0.00244413
0.00264532
0.00268469
0.00269856
0.00270333
0.00270916
0.00271164
0.00271571
0.00271768
0.00272102
0.00272274
0.00272562
0.00272714
0.00272965
0.00273093
0.00273306
0.00273422
0.00273582
0.00273713
0.00273955
0.00244307
0.00264501
0.00268454
0.00269847
0.00270322
0.00270901
0.00271144
0.00271543
0.00271731
0.00272051
0.0027221
0.0027248
0.00272616
0.00272846
0.00272956
0.00273148
0.0027324
0.0027339
0.00273486
0.00273731
0.00244356
0.00264627
0.00268611
0.00270021
0.00270495
0.00271064
0.00271291
0.00271664
0.00271828
0.00272112
0.00272241
0.00272466
0.00272569
0.00272752
0.00272827
0.00272974
0.00273029
0.00273139
0.002732
0.00273406
0.00244128
0.00264586
0.00268585
0.00269985
0.00270417
0.00270939
0.00271117
0.00271422
0.00271533
0.00271743
0.00271819
0.00271973
0.00272022
0.00272138
0.00272162
0.00272248
0.00272255
0.00272319
0.00272315
0.00272523
0.00244593
0.00265014
0.00268953
0.00270278
0.00270631
0.00271063
0.00271163
0.00271354
0.00271389
0.00271502
0.00271499
0.00271571
0.00271544
0.00271587
0.00271543
0.00271566
0.00271511
0.00271524
0.00271471
0.00271638
0.00246087
0.00265811
0.00269291
0.00270305
0.0027049
0.00270718
0.00270699
0.00270743
0.00270669
0.00270663
0.00270567
0.00270542
0.00270436
0.00270401
0.00270297
0.00270257
0.00270152
0.00270119
0.00270004
0.00270219
0.00257009
0.00271859
0.00273282
0.00273108
0.00272786
0.00272614
0.00272315
0.00272151
0.00271873
0.00271731
0.00271489
0.00271367
0.00271159
0.00271052
0.00270871
0.00270779
0.00270618
0.00270548
0.00270385
0.00270737
0.00304562
0.00303485
0.00297667
0.00293262
0.00291223
0.00290416
0.00289606
0.002893
0.00288803
0.0028862
0.00288257
0.00288128
0.00287845
0.00287749
0.00287515
0.00287441
0.0028723
0.00287194
0.00287026
0.00287617
0.00487036
0.00463977
0.00448333
0.00442201
0.00439985
0.00439404
0.00438672
0.0043861
0.00438305
0.004383
0.00438077
0.00438088
0.00437912
0.00437928
0.00437783
0.00437798
0.0043769
0.00437662
0.00438267
0.00438568
0.0100565
0.010328
0.0103262
0.0103263
0.010324
0.0103238
0.0103224
0.0103224
0.0103212
0.0103214
0.0103207
0.0103209
0.0103204
0.0103207
0.0103203
0.0103206
0.0103205
0.0103201
0.0103233
0.0103303
0.00282215
0.00300946
0.00297961
0.00294523
0.00293938
0.00292586
0.00292586
0.00291792
0.00291877
0.0029132
0.00291409
0.00290996
0.00291067
0.00290752
0.00290802
0.00290558
0.00290593
0.00290381
0.00290337
0.00290913
0.00233029
0.00268613
0.00272371
0.00271793
0.00271085
0.00270425
0.00270057
0.00269671
0.00269458
0.00269197
0.0026905
0.00268853
0.00268736
0.00268585
0.00268486
0.00268385
0.00268269
0.00268277
0.0026799
0.00268422
0.00216358
0.00254208
0.00260092
0.00261526
0.00261919
0.00262215
0.00262231
0.00262324
0.00262281
0.00262313
0.00262254
0.00262259
0.00262198
0.00262186
0.00262118
0.00262113
0.0026203
0.00262054
0.00261878
0.00262553
0.00214359
0.00252405
0.00258021
0.00259277
0.00259597
0.0025997
0.00260108
0.00260347
0.00260428
0.00260587
0.00260638
0.00260741
0.00260773
0.00260835
0.00260852
0.00260893
0.00260888
0.00260923
0.00260887
0.00261103
0.00213349
0.00251428
0.00256982
0.00258109
0.00258185
0.00258403
0.0025841
0.00258577
0.00258613
0.00258766
0.00258809
0.00258937
0.00258978
0.0025908
0.00259118
0.0025919
0.00259231
0.00259277
0.00259298
0.0025959
0.0021381
0.0025193
0.00257452
0.00258551
0.00258575
0.00258712
0.0025865
0.00258737
0.0025871
0.00258798
0.00258795
0.00258875
0.00258884
0.00258954
0.00258974
0.0025903
0.00259062
0.00259087
0.0025911
0.00259291
0.00213472
0.00251561
0.00257071
0.00258177
0.00258183
0.00258313
0.00258227
0.00258296
0.00258238
0.00258301
0.00258262
0.00258318
0.00258298
0.00258344
0.00258338
0.00258378
0.00258383
0.00258414
0.00258427
0.00258593
0.00213775
0.00251889
0.00257374
0.00258476
0.00258482
0.00258614
0.00258527
0.00258595
0.00258532
0.00258589
0.00258539
0.00258586
0.00258551
0.00258587
0.00258568
0.00258593
0.00258585
0.00258603
0.00258603
0.00258748
0.00213621
0.00251707
0.00257188
0.00258284
0.00258286
0.00258419
0.00258331
0.00258401
0.00258338
0.00258396
0.00258345
0.00258391
0.00258353
0.00258387
0.00258364
0.00258387
0.00258373
0.00258388
0.00258379
0.00258519
0.00213736
0.00251823
0.00257296
0.00258387
0.00258387
0.00258519
0.00258432
0.00258502
0.00258439
0.00258497
0.00258447
0.00258493
0.00258455
0.00258488
0.00258464
0.00258486
0.0025847
0.00258483
0.00258472
0.00258611
0.00213736
0.00251823
0.00257296
0.00258387
0.00258387
0.00258519
0.00258432
0.00258502
0.00258439
0.00258497
0.00258447
0.00258493
0.00258455
0.00258488
0.00258464
0.00258486
0.0025847
0.00258483
0.00258472
0.00258612
0.00213621
0.00251707
0.00257188
0.00258284
0.00258286
0.00258419
0.00258331
0.00258401
0.00258338
0.00258396
0.00258345
0.00258391
0.00258353
0.00258387
0.00258364
0.00258387
0.00258372
0.00258388
0.00258379
0.00258522
0.00213775
0.00251889
0.00257374
0.00258476
0.00258482
0.00258614
0.00258527
0.00258595
0.00258532
0.00258589
0.00258539
0.00258586
0.00258552
0.00258588
0.00258568
0.00258593
0.00258585
0.00258604
0.002586
0.00258749
0.00213472
0.00251561
0.00257071
0.00258177
0.00258183
0.00258313
0.00258227
0.00258296
0.00258238
0.00258301
0.00258262
0.00258318
0.00258298
0.00258344
0.00258338
0.00258378
0.00258382
0.00258414
0.00258428
0.00258595
0.0021381
0.0025193
0.00257452
0.00258551
0.00258575
0.00258712
0.0025865
0.00258737
0.0025871
0.00258798
0.00258796
0.00258875
0.00258885
0.00258954
0.00258972
0.00259031
0.00259058
0.00259089
0.00259112
0.0025928
0.00213349
0.00251428
0.00256982
0.00258109
0.00258185
0.00258403
0.00258411
0.00258577
0.00258614
0.00258765
0.0025881
0.00258937
0.00258977
0.00259081
0.00259116
0.00259193
0.00259227
0.00259274
0.00259313
0.00259565
0.00214359
0.00252405
0.00258021
0.00259277
0.00259597
0.0025997
0.00260108
0.00260346
0.00260428
0.00260586
0.00260639
0.0026074
0.00260774
0.00260834
0.00260853
0.00260887
0.00260894
0.00260904
0.00260908
0.0026105
0.00216358
0.00254208
0.00260092
0.00261526
0.00261919
0.00262214
0.00262231
0.00262323
0.00262282
0.00262312
0.00262256
0.00262258
0.002622
0.00262183
0.00262126
0.002621
0.00262053
0.00262021
0.00261939
0.00262428
0.00233029
0.00268613
0.00272371
0.00271793
0.00271085
0.00270425
0.00270057
0.0026967
0.00269459
0.00269196
0.00269051
0.00268852
0.00268738
0.00268582
0.00268494
0.00268375
0.00268289
0.00268241
0.00268069
0.00268249
0.00282215
0.00300946
0.00297961
0.00294523
0.00293938
0.00292586
0.00292587
0.00291792
0.00291877
0.0029132
0.00291409
0.00290996
0.00291068
0.00290752
0.00290805
0.00290556
0.00290601
0.00290374
0.00290375
0.00290787
0.0010818
0.00122296
0.00113363
0.0010147
0.00094032
0.000898663
0.000869002
0.000847957
0.000830155
0.000815507
0.000803182
0.000792194
0.000783364
0.000774934
0.000768338
0.000761998
0.00075622
0.000752834
0.000744556
0.0007492
0.000442398
0.000707033
0.000776116
0.000788387
0.000787636
0.000784376
0.000777665
0.000770925
0.000763997
0.000757618
0.000751414
0.000745759
0.000740314
0.000735551
0.000730712
0.000727137
0.000722351
0.000720674
0.000714542
0.000716502
0.000192384
0.000437083
0.000529041
0.00056861
0.000585362
0.000599239
0.000607778
0.000617011
0.000623048
0.000629412
0.000633357
0.000637411
0.000639645
0.000642057
0.000642971
0.000644453
0.000644411
0.00064543
0.000644529
0.000646446
0.000176796
0.00039885
0.000483301
0.000522768
0.000537576
0.000547291
0.000551399
0.000556416
0.00055957
0.000563849
0.000567181
0.000571087
0.0005744
0.000577843
0.000580885
0.000583801
0.000586485
0.000588787
0.000591171
0.000593618
0.000172901
0.000389347
0.000469119
0.000508608
0.000522641
0.000531692
0.000533797
0.00053658
0.00053713
0.000538498
0.000539124
0.000540447
0.000541398
0.00054276
0.000544123
0.000545367
0.000547073
0.000548135
0.000549875
0.000551445
0.000176526
0.000395711
0.000475121
0.000513485
0.000527714
0.000536189
0.000538431
0.000540585
0.000540843
0.000541435
0.000541537
0.0005418
0.000541983
0.000542248
0.000542671
0.000542897
0.000543508
0.000543678
0.000544284
0.000545227
0.000174034
0.000391416
0.000470779
0.000509497
0.000523481
0.000532092
0.000534141
0.000536342
0.000536488
0.000536933
0.000536877
0.000537009
0.000536951
0.000536977
0.000536977
0.000536956
0.000537043
0.000536998
0.000537058
0.000537641
0.00017609
0.000395135
0.000474604
0.000512825
0.000526871
0.000535237
0.000537415
0.00053951
0.000539712
0.000540164
0.00054014
0.000540233
0.000540186
0.000540166
0.000540155
0.000540092
0.000540117
0.000540008
0.000540032
0.000540514
0.000174843
0.000392888
0.000472324
0.000510755
0.000524701
0.00053316
0.00053525
0.000537398
0.000537577
0.000538036
0.000538
0.000538114
0.000538052
0.000538052
0.000538021
0.000537965
0.000537954
0.000537861
0.000537807
0.000538279
0.000175541
0.000394176
0.000473664
0.000511926
0.000525875
0.000534242
0.00053636
0.000538467
0.00053866
0.000539119
0.000539097
0.000539205
0.000539158
0.000539152
0.000539136
0.000539078
0.000539078
0.000538975
0.000538944
0.000539406
0.000175541
0.000394176
0.000473664
0.000511926
0.000525875
0.000534242
0.00053636
0.000538467
0.00053866
0.000539119
0.000539097
0.000539206
0.000539158
0.000539152
0.000539136
0.000539079
0.000539078
0.000538978
0.000538946
0.000539411
0.000174843
0.000392888
0.000472324
0.000510755
0.000524701
0.00053316
0.00053525
0.000537398
0.000537577
0.000538036
0.000538
0.000538114
0.000538052
0.000538051
0.00053802
0.000537965
0.000537953
0.000537859
0.000537802
0.000538275
0.00017609
0.000395135
0.000474604
0.000512825
0.000526871
0.000535237
0.000537415
0.00053951
0.000539712
0.000540164
0.00054014
0.000540234
0.000540185
0.000540167
0.000540155
0.000540095
0.000540116
0.000540013
0.00054003
0.000540522
0.000174034
0.000391416
0.000470779
0.000509497
0.000523481
0.000532093
0.000534141
0.000536342
0.000536488
0.000536933
0.000536877
0.00053701
0.00053695
0.000536979
0.000536974
0.000536957
0.000537036
0.000536999
0.000537045
0.000537641
0.000176526
0.000395711
0.000475121
0.000513486
0.000527714
0.000536189
0.000538431
0.000540585
0.000540843
0.000541435
0.000541537
0.000541804
0.000541977
0.000542255
0.000542661
0.000542898
0.000543495
0.000543682
0.000544262
0.000545222
0.000172901
0.000389347
0.000469119
0.000508608
0.000522641
0.000531692
0.000533798
0.000536579
0.000537132
0.000538496
0.000539126
0.000540449
0.000541388
0.000542767
0.000544106
0.000545372
0.000547046
0.000548113
0.000549827
0.000551384
0.000176796
0.00039885
0.000483301
0.000522768
0.000537576
0.000547291
0.000551399
0.000556415
0.000559571
0.000563848
0.000567182
0.000571083
0.0005744
0.00057783
0.000580887
0.000583757
0.000586486
0.00058869
0.000591125
0.000593407
0.000192384
0.000437083
0.000529041
0.00056861
0.000585362
0.000599238
0.000607778
0.000617009
0.000623049
0.000629407
0.000633361
0.000637397
0.000639656
0.00064202
0.000643007
0.000644346
0.000644523
0.000645163
0.000644702
0.000645927
0.000442398
0.000707033
0.000776116
0.000788387
0.000787637
0.000784375
0.000777666
0.000770924
0.000763998
0.000757615
0.000751418
0.000745752
0.000740328
0.000735529
0.000730761
0.000727062
0.000722533
0.000720295
0.000715212
0.00071552
0.0010818
0.00122296
0.00113363
0.0010147
0.00094032
0.000898663
0.000869003
0.000847959
0.000830157
0.000815512
0.000803187
0.00079221
0.000783381
0.000774976
0.000768397
0.000762085
0.000756439
0.000752923
0.000745472
0.000748571
0.0010818
0.00122296
0.00113363
0.0010147
0.00094032
0.000898663
0.000869002
0.000847957
0.000830155
0.000815506
0.000803182
0.000792194
0.000783364
0.000774934
0.000768338
0.000761998
0.00075622
0.000752834
0.000744556
0.0007492
0.000442398
0.000707033
0.000776116
0.000788387
0.000787636
0.000784376
0.000777665
0.000770925
0.000763997
0.000757618
0.000751414
0.000745759
0.000740314
0.000735551
0.000730712
0.000727137
0.000722352
0.000720674
0.000714542
0.000716502
0.000192384
0.000437083
0.000529041
0.00056861
0.000585362
0.000599239
0.000607778
0.000617011
0.000623048
0.000629412
0.000633357
0.000637411
0.000639645
0.000642057
0.000642971
0.000644453
0.000644411
0.00064543
0.000644529
0.000646446
0.000176796
0.00039885
0.000483301
0.000522768
0.000537576
0.000547291
0.000551399
0.000556416
0.00055957
0.000563849
0.000567181
0.000571087
0.0005744
0.000577843
0.000580885
0.000583801
0.000586485
0.000588787
0.000591171
0.000593618
0.000172901
0.000389347
0.000469119
0.000508608
0.000522641
0.000531692
0.000533797
0.00053658
0.00053713
0.000538498
0.000539124
0.000540447
0.000541398
0.00054276
0.000544123
0.000545367
0.000547073
0.000548135
0.000549875
0.000551445
0.000176526
0.000395711
0.000475122
0.000513486
0.000527714
0.000536189
0.000538431
0.000540585
0.000540843
0.000541435
0.000541537
0.000541801
0.000541983
0.000542248
0.000542671
0.000542897
0.000543508
0.000543678
0.000544284
0.000545227
0.000174034
0.000391416
0.00047078
0.000509497
0.000523481
0.000532092
0.000534141
0.000536342
0.000536488
0.000536933
0.000536877
0.000537009
0.000536952
0.000536977
0.000536977
0.000536956
0.000537043
0.000536998
0.000537058
0.000537641
0.00017609
0.000395135
0.000474604
0.000512825
0.000526871
0.000535237
0.000537415
0.00053951
0.000539713
0.000540164
0.00054014
0.000540233
0.000540186
0.000540166
0.000540155
0.000540092
0.000540118
0.000540008
0.000540032
0.000540514
0.000174843
0.000392888
0.000472324
0.000510755
0.000524701
0.00053316
0.00053525
0.000537398
0.000537577
0.000538036
0.000538
0.000538114
0.000538052
0.000538052
0.000538021
0.000537965
0.000537954
0.000537861
0.000537807
0.000538279
0.000175541
0.000394176
0.000473664
0.000511926
0.000525875
0.000534242
0.00053636
0.000538467
0.00053866
0.000539119
0.000539097
0.000539205
0.000539158
0.000539152
0.000539136
0.000539078
0.000539078
0.000538975
0.000538944
0.000539406
0.000175541
0.000394176
0.000473664
0.000511926
0.000525875
0.000534242
0.00053636
0.000538467
0.00053866
0.000539119
0.000539097
0.000539206
0.000539158
0.000539153
0.000539136
0.000539079
0.000539078
0.000538978
0.000538946
0.000539412
0.000174843
0.000392888
0.000472324
0.000510755
0.000524701
0.00053316
0.00053525
0.000537398
0.000537577
0.000538036
0.000538
0.000538114
0.000538052
0.000538052
0.00053802
0.000537965
0.000537953
0.000537859
0.000537802
0.000538275
0.00017609
0.000395135
0.000474604
0.000512825
0.000526871
0.000535237
0.000537415
0.00053951
0.000539713
0.000540164
0.00054014
0.000540234
0.000540186
0.000540167
0.000540155
0.000540095
0.000540116
0.000540013
0.00054003
0.000540522
0.000174034
0.000391416
0.000470779
0.000509497
0.000523481
0.000532093
0.000534141
0.000536343
0.000536488
0.000536933
0.000536877
0.00053701
0.00053695
0.000536979
0.000536974
0.000536957
0.000537036
0.000536999
0.000537045
0.000537642
0.000176526
0.000395711
0.000475121
0.000513486
0.000527714
0.000536189
0.000538431
0.000540585
0.000540843
0.000541435
0.000541537
0.000541804
0.000541977
0.000542255
0.000542661
0.000542898
0.000543495
0.000543682
0.000544263
0.000545222
0.000172901
0.000389347
0.000469119
0.000508608
0.000522641
0.000531692
0.000533798
0.000536579
0.000537132
0.000538496
0.000539126
0.000540449
0.000541388
0.000542767
0.000544106
0.000545372
0.000547046
0.000548113
0.000549828
0.000551384
0.000176796
0.00039885
0.000483301
0.000522768
0.000537576
0.000547291
0.000551399
0.000556415
0.000559571
0.000563848
0.000567182
0.000571083
0.0005744
0.00057783
0.000580888
0.000583758
0.000586487
0.000588691
0.000591125
0.000593407
0.000192384
0.000437084
0.000529041
0.00056861
0.000585362
0.000599238
0.000607778
0.000617009
0.000623049
0.000629407
0.000633361
0.000637397
0.000639656
0.00064202
0.000643007
0.000644346
0.000644523
0.000645163
0.000644702
0.000645927
0.000442398
0.000707033
0.000776116
0.000788387
0.000787637
0.000784375
0.000777666
0.000770924
0.000763998
0.000757615
0.000751418
0.000745753
0.000740328
0.000735529
0.000730761
0.000727062
0.000722533
0.000720295
0.000715212
0.00071552
0.0010818
0.00122296
0.00113363
0.0010147
0.00094032
0.000898663
0.000869003
0.000847959
0.000830157
0.000815512
0.000803187
0.00079221
0.000783381
0.000774976
0.000768397
0.000762085
0.000756439
0.000752923
0.000745472
0.000748571
0.00282215
0.00300946
0.00297961
0.00294523
0.00293938
0.00292586
0.00292586
0.00291792
0.00291877
0.0029132
0.00291409
0.00290996
0.00291067
0.00290752
0.00290802
0.00290558
0.00290593
0.00290381
0.00290337
0.00290913
0.00233029
0.00268613
0.00272371
0.00271793
0.00271085
0.00270425
0.00270057
0.00269671
0.00269458
0.00269197
0.0026905
0.00268853
0.00268736
0.00268585
0.00268486
0.00268385
0.00268269
0.00268277
0.0026799
0.00268422
0.00216358
0.00254208
0.00260092
0.00261526
0.00261919
0.00262215
0.00262231
0.00262324
0.00262281
0.00262313
0.00262254
0.00262259
0.00262198
0.00262186
0.00262118
0.00262113
0.0026203
0.00262054
0.00261878
0.00262553
0.00214359
0.00252405
0.00258021
0.00259277
0.00259597
0.0025997
0.00260108
0.00260347
0.00260428
0.00260587
0.00260638
0.00260741
0.00260773
0.00260835
0.00260852
0.00260893
0.00260888
0.00260923
0.00260887
0.00261103
0.00213349
0.00251428
0.00256982
0.00258109
0.00258185
0.00258403
0.0025841
0.00258577
0.00258613
0.00258766
0.00258809
0.00258937
0.00258978
0.0025908
0.00259118
0.0025919
0.00259231
0.00259277
0.00259298
0.0025959
0.0021381
0.0025193
0.00257452
0.00258551
0.00258575
0.00258712
0.0025865
0.00258737
0.0025871
0.00258798
0.00258795
0.00258875
0.00258884
0.00258954
0.00258974
0.00259029
0.00259062
0.00259087
0.0025911
0.00259291
0.00213472
0.00251561
0.00257071
0.00258177
0.00258183
0.00258313
0.00258227
0.00258296
0.00258238
0.00258301
0.00258262
0.00258318
0.00258298
0.00258344
0.00258338
0.00258378
0.00258383
0.00258414
0.00258427
0.00258593
0.00213775
0.00251889
0.00257374
0.00258476
0.00258482
0.00258614
0.00258527
0.00258595
0.00258532
0.00258589
0.00258539
0.00258586
0.00258551
0.00258587
0.00258568
0.00258593
0.00258585
0.00258603
0.00258603
0.00258748
0.00213621
0.00251707
0.00257188
0.00258284
0.00258286
0.00258419
0.00258331
0.00258401
0.00258338
0.00258396
0.00258345
0.00258391
0.00258353
0.00258387
0.00258364
0.00258387
0.00258373
0.00258388
0.00258379
0.00258519
0.00213736
0.00251823
0.00257296
0.00258387
0.00258387
0.00258519
0.00258432
0.00258502
0.00258439
0.00258497
0.00258447
0.00258493
0.00258455
0.00258488
0.00258464
0.00258486
0.0025847
0.00258483
0.00258472
0.00258611
0.00213736
0.00251823
0.00257296
0.00258387
0.00258387
0.00258519
0.00258432
0.00258502
0.00258439
0.00258497
0.00258447
0.00258493
0.00258454
0.00258488
0.00258464
0.00258486
0.0025847
0.00258483
0.00258472
0.00258612
0.00213621
0.00251707
0.00257188
0.00258284
0.00258286
0.00258419
0.00258331
0.00258401
0.00258338
0.00258396
0.00258345
0.00258391
0.00258353
0.00258387
0.00258364
0.00258387
0.00258372
0.00258388
0.00258379
0.00258522
0.00213775
0.00251889
0.00257374
0.00258476
0.00258482
0.00258614
0.00258527
0.00258595
0.00258532
0.00258589
0.00258539
0.00258586
0.00258552
0.00258588
0.00258568
0.00258593
0.00258585
0.00258604
0.002586
0.00258749
0.00213472
0.00251561
0.00257071
0.00258177
0.00258183
0.00258313
0.00258227
0.00258296
0.00258238
0.00258301
0.00258262
0.00258318
0.00258298
0.00258344
0.00258338
0.00258378
0.00258382
0.00258415
0.00258428
0.00258595
0.0021381
0.0025193
0.00257452
0.00258551
0.00258575
0.00258712
0.0025865
0.00258737
0.0025871
0.00258798
0.00258796
0.00258875
0.00258885
0.00258954
0.00258972
0.00259032
0.00259058
0.00259089
0.00259112
0.0025928
0.00213349
0.00251428
0.00256982
0.00258109
0.00258185
0.00258403
0.00258411
0.00258577
0.00258614
0.00258765
0.0025881
0.00258937
0.00258977
0.00259081
0.00259116
0.00259193
0.00259227
0.00259274
0.00259313
0.00259565
0.00214359
0.00252405
0.00258021
0.00259277
0.00259597
0.0025997
0.00260108
0.00260346
0.00260428
0.00260586
0.00260639
0.0026074
0.00260774
0.00260834
0.00260853
0.00260887
0.00260894
0.00260904
0.00260908
0.0026105
0.00216358
0.00254208
0.00260092
0.00261526
0.00261919
0.00262214
0.00262231
0.00262323
0.00262282
0.00262312
0.00262256
0.00262258
0.002622
0.00262183
0.00262126
0.002621
0.00262053
0.00262021
0.00261939
0.00262428
0.00233029
0.00268613
0.00272371
0.00271793
0.00271085
0.00270425
0.00270057
0.0026967
0.00269459
0.00269196
0.00269051
0.00268852
0.00268738
0.00268582
0.00268494
0.00268375
0.00268289
0.00268241
0.00268069
0.00268249
0.00282215
0.00300946
0.00297961
0.00294523
0.00293938
0.00292586
0.00292587
0.00291792
0.00291877
0.0029132
0.00291409
0.00290996
0.00291068
0.00290752
0.00290805
0.00290556
0.00290601
0.00290374
0.00290375
0.00290787
0.0100565
0.010328
0.0103262
0.0103263
0.010324
0.0103238
0.0103224
0.0103224
0.0103212
0.0103214
0.0103207
0.0103209
0.0103205
0.0103207
0.0103204
0.0103205
0.0103206
0.0103198
0.010324
0.0103284
0.00487036
0.00463977
0.00448333
0.00442201
0.00439985
0.00439404
0.00438672
0.0043861
0.00438305
0.004383
0.00438077
0.00438088
0.00437912
0.00437929
0.00437782
0.00437801
0.00437687
0.00437672
0.00438267
0.00438652
0.00304562
0.00303485
0.00297667
0.00293262
0.00291223
0.00290416
0.00289606
0.002893
0.00288802
0.0028862
0.00288257
0.00288129
0.00287844
0.00287751
0.00287513
0.00287448
0.00287224
0.00287205
0.00286995
0.00287705
0.00257009
0.00271859
0.00273282
0.00273108
0.00272786
0.00272614
0.00272315
0.00272152
0.00271873
0.00271731
0.00271488
0.00271368
0.00271158
0.00271054
0.00270869
0.00270782
0.00270615
0.00270552
0.00270357
0.00270806
0.00246087
0.00265811
0.00269291
0.00270305
0.0027049
0.00270718
0.00270699
0.00270743
0.00270669
0.00270664
0.00270566
0.00270543
0.00270434
0.00270403
0.00270293
0.00270262
0.00270145
0.00270127
0.0026998
0.00270246
0.00244593
0.00265014
0.00268953
0.00270278
0.00270631
0.00271063
0.00271163
0.00271355
0.00271389
0.00271502
0.00271498
0.00271572
0.00271543
0.00271588
0.0027154
0.00271568
0.00271506
0.00271526
0.00271459
0.00271647
0.00244128
0.00264586
0.00268585
0.00269985
0.00270417
0.00270939
0.00271117
0.00271422
0.00271533
0.00271743
0.00271818
0.00271973
0.00272021
0.00272139
0.00272161
0.00272249
0.00272252
0.00272318
0.0027231
0.00272517
0.00244356
0.00264627
0.00268611
0.00270021
0.00270495
0.00271064
0.00271291
0.00271664
0.00271828
0.00272112
0.00272241
0.00272467
0.00272569
0.00272752
0.00272827
0.00272974
0.00273029
0.00273138
0.002732
0.002734
0.00244307
0.00264501
0.00268454
0.00269847
0.00270322
0.00270901
0.00271144
0.00271543
0.00271731
0.00272051
0.0027221
0.0027248
0.00272616
0.00272846
0.00272956
0.00273148
0.0027324
0.00273389
0.00273486
0.00273726
0.00244413
0.00264532
0.00268469
0.00269856
0.00270333
0.00270916
0.00271164
0.00271571
0.00271768
0.00272102
0.00272274
0.00272562
0.00272714
0.00272965
0.00273093
0.00273306
0.00273422
0.00273581
0.00273713
0.00273954
0.00244413
0.00264532
0.00268469
0.00269856
0.00270333
0.00270916
0.00271164
0.00271571
0.00271768
0.00272102
0.00272274
0.00272562
0.00272714
0.00272965
0.00273093
0.00273306
0.00273422
0.00273582
0.00273713
0.00273955
0.00244307
0.00264501
0.00268454
0.00269847
0.00270322
0.00270901
0.00271144
0.00271543
0.00271731
0.00272051
0.0027221
0.0027248
0.00272616
0.00272846
0.00272956
0.00273148
0.0027324
0.0027339
0.00273486
0.00273731
0.00244356
0.00264627
0.00268611
0.00270021
0.00270495
0.00271064
0.00271291
0.00271664
0.00271828
0.00272112
0.00272241
0.00272466
0.00272569
0.00272752
0.00272827
0.00272974
0.00273029
0.00273139
0.002732
0.00273406
0.00244128
0.00264586
0.00268585
0.00269985
0.00270417
0.00270939
0.00271117
0.00271422
0.00271533
0.00271743
0.00271819
0.00271973
0.00272022
0.00272138
0.00272162
0.00272248
0.00272255
0.00272319
0.00272315
0.00272523
0.00244593
0.00265014
0.00268953
0.00270278
0.00270631
0.00271063
0.00271163
0.00271354
0.00271389
0.00271502
0.00271499
0.00271571
0.00271544
0.00271587
0.00271543
0.00271566
0.00271511
0.00271524
0.00271471
0.00271638
0.00246087
0.00265811
0.00269291
0.00270305
0.0027049
0.00270718
0.00270699
0.00270743
0.00270669
0.00270663
0.00270567
0.00270542
0.00270436
0.00270401
0.00270297
0.00270257
0.00270152
0.00270119
0.00270004
0.00270219
0.00257009
0.00271859
0.00273282
0.00273108
0.00272786
0.00272614
0.00272315
0.00272151
0.00271873
0.00271731
0.00271489
0.00271367
0.00271159
0.00271052
0.00270871
0.00270779
0.00270618
0.00270548
0.00270385
0.00270737
0.00304562
0.00303485
0.00297667
0.00293262
0.00291223
0.00290416
0.00289606
0.002893
0.00288803
0.0028862
0.00288257
0.00288128
0.00287845
0.00287749
0.00287515
0.00287441
0.0028723
0.00287194
0.00287026
0.00287617
0.00487036
0.00463977
0.00448333
0.00442201
0.00439985
0.00439404
0.00438672
0.0043861
0.00438305
0.004383
0.00438077
0.00438088
0.00437912
0.00437928
0.00437783
0.00437798
0.0043769
0.00437662
0.00438267
0.00438568
0.0100565
0.010328
0.0103262
0.0103263
0.010324
0.0103238
0.0103224
0.0103224
0.0103212
0.0103214
0.0103207
0.0103209
0.0103204
0.0103207
0.0103203
0.0103206
0.0103205
0.0103201
0.0103233
0.0103303
0.028322
0.0283328
0.0283307
0.0283266
0.0283247
0.0283217
0.0283204
0.0283177
0.0283167
0.0283142
0.0283134
0.0283113
0.0283107
0.0283088
0.0283083
0.0283065
0.0283061
0.0283045
0.0283042
0.0283028
0.0283026
0.0283013
0.0283011
0.0282998
0.0282996
0.0282985
0.0282983
0.0282973
0.0282971
0.0282961
0.0282959
0.0282949
0.0282948
0.0282938
0.0282936
0.0282927
0.0282925
0.0282917
0.0282915
0.0282906
0.0282904
0.0282896
0.0282894
0.0282886
0.0282884
0.0282877
0.0282875
0.0282868
0.0282865
0.0282859
0.0282856
0.028285
0.0282848
0.0282842
0.028284
0.0282834
0.0282832
0.0282826
0.0282824
0.0282819
0.0282817
0.0282813
0.0282811
0.0282806
0.0282805
0.02828
0.0282799
0.0282795
0.0282793
0.028279
0.0282788
0.0282785
0.0282784
0.0282781
0.028278
0.0282777
0.0282776
0.0282773
0.0282773
0.028277
0.0282769
0.0282767
0.0282766
0.0282764
0.0282764
0.0282762
0.0282761
0.0282759
0.028275
0.0282746
0.0160352
0.0160996
0.016096
0.0160944
0.016091
0.0160897
0.0160872
0.0160863
0.0160846
0.0160838
0.0160822
0.0160812
0.0160797
0.0160789
0.0160777
0.0160769
0.0160759
0.016075
0.016074
0.0160732
0.0160724
0.0160717
0.016071
0.0160704
0.0160697
0.0160691
0.0160685
0.0160679
0.0160673
0.0160668
0.0160663
0.0160658
0.0160653
0.0160648
0.0160644
0.0160639
0.0160635
0.0160631
0.0160627
0.0160622
0.0160618
0.0160614
0.016061
0.0160606
0.0160603
0.0160599
0.0160595
0.0160592
0.0160588
0.0160585
0.0160581
0.0160578
0.0160575
0.0160571
0.0160568
0.0160565
0.0160562
0.0160559
0.0160557
0.0160554
0.0160551
0.0160549
0.0160546
0.0160544
0.0160542
0.016054
0.0160538
0.0160535
0.0160534
0.0160532
0.016053
0.0160528
0.0160527
0.0160525
0.0160524
0.0160522
0.0160521
0.016052
0.0160519
0.0160518
0.0160517
0.0160516
0.0160515
0.0160514
0.0160513
0.0160512
0.0160512
0.0160511
0.0160496
0.0160495
0.0107575
0.0108994
0.0108921
0.0108913
0.0108844
0.010884
0.0108788
0.010879
0.0108752
0.0108754
0.010872
0.0108718
0.0108687
0.0108685
0.0108659
0.0108658
0.0108635
0.0108631
0.0108609
0.0108605
0.0108586
0.0108583
0.0108566
0.0108564
0.0108549
0.0108546
0.0108531
0.0108528
0.0108515
0.0108512
0.01085
0.0108498
0.0108487
0.0108485
0.0108475
0.0108473
0.0108463
0.0108461
0.0108452
0.010845
0.0108442
0.010844
0.0108432
0.010843
0.0108422
0.010842
0.0108413
0.0108411
0.0108404
0.0108402
0.0108396
0.0108394
0.0108388
0.0108386
0.010838
0.0108378
0.0108373
0.0108372
0.0108367
0.0108365
0.010836
0.0108359
0.0108355
0.0108354
0.010835
0.0108349
0.0108345