/*--------------------------------*- C++ -*----------------------------------*\
  =========                 |
  \\      /  F ield         | OpenFOAM: The Open Source CFD Toolbox
   \\    /   O peration     | Website:  https://openfoam.org
    \\  /    A nd           | Version:  7
     \\/     M anipulation  |
\*---------------------------------------------------------------------------*/
FoamFile
{
    version     2.0;
    format      ascii;
    class       volScalarField;
    location    "1.79";
    object      k_0;
}
// * * * * * * * * * * * * * * * * * * * * * * * * * * * * * * * * * * * * * //

dimensions      [0 2 -2 0 0 0 0];

internalField   nonuniform List<scalar> 
13200
(
75.61
79.8382
79.7996
79.8278
79.7718
79.7877
79.748
79.7631
79.7314
79.747
79.7259
79.7415
79.7281
79.7412
79.7333
79.7409
79.7429
79.7302
79.8054
79.8448
17.7257
16.1077
15.0411
14.6395
14.4879
14.4531
14.4001
14.3985
14.3751
14.3771
14.3606
14.3639
14.3518
14.3552
14.346
14.3483
14.3428
14.3392
14.3868
14.3887
6.92598
6.88348
6.62157
6.43166
6.33927
6.3062
6.26752
6.25541
6.23103
6.22431
6.20702
6.20307
6.19042
6.18799
6.17845
6.17634
6.16905
6.16579
6.16426
6.17999
4.93284
5.52274
5.58008
5.57663
5.56131
5.55566
5.54056
5.53412
5.52002
5.51413
5.5025
5.49801
5.48933
5.48595
5.47979
5.47662
5.47312
5.46845
5.46786
5.47672
4.52118
5.27754
5.41473
5.45914
5.46401
5.47486
5.47094
5.47316
5.4669
5.46637
5.4597
5.4587
5.45318
5.45263
5.44884
5.44843
5.44624
5.44539
5.4443
5.45211
4.46739
5.2471
5.40232
5.45896
5.47074
5.48971
5.49075
5.49897
5.49721
5.50132
5.49811
5.50054
5.49757
5.49973
5.49775
5.49987
5.4989
5.50084
5.50122
5.50952
4.44967
5.22923
5.38613
5.4458
5.46039
5.48304
5.4871
5.50001
5.50128
5.50941
5.50914
5.51474
5.51436
5.51929
5.51943
5.5241
5.52481
5.52928
5.53075
5.54136
4.45848
5.2318
5.38815
5.44837
5.46456
5.48918
5.49514
5.51088
5.51427
5.52548
5.52728
5.53576
5.53728
5.54485
5.54672
5.55378
5.55611
5.56234
5.56626
5.57682
4.45635
5.22625
5.38121
5.44062
5.45681
5.48181
5.48837
5.50513
5.50949
5.52219
5.5252
5.53544
5.53824
5.54763
5.55082
5.55962
5.56328
5.57101
5.57618
5.58812
4.46042
5.22775
5.38214
5.44135
5.45761
5.48275
5.48951
5.50661
5.51134
5.5246
5.52812
5.53911
5.54253
5.55278
5.55665
5.56624
5.57086
5.57886
5.58552
5.59725
4.46042
5.22775
5.38214
5.44135
5.45761
5.48275
5.48951
5.50661
5.51133
5.52461
5.52812
5.53911
5.54253
5.55278
5.55665
5.56624
5.57087
5.57886
5.58555
5.59728
4.45635
5.22625
5.38121
5.44062
5.45681
5.48181
5.48837
5.50513
5.50949
5.52219
5.5252
5.53544
5.53824
5.54763
5.55083
5.55961
5.56332
5.57099
5.57629
5.58817
4.45848
5.2318
5.38815
5.44837
5.46456
5.48919
5.49514
5.51088
5.51427
5.52549
5.52728
5.53577
5.53727
5.54486
5.54672
5.55379
5.55615
5.56234
5.56638
5.57689
4.44967
5.22924
5.38612
5.4458
5.46038
5.48305
5.48709
5.50002
5.50127
5.50942
5.50912
5.51478
5.51432
5.51935
5.5194
5.52418
5.5248
5.52939
5.53087
5.54156
4.46739
5.2471
5.40232
5.45897
5.47073
5.48972
5.49075
5.49898
5.49719
5.50135
5.49807
5.5006
5.4975
5.49985
5.49761
5.5001
5.49869
5.50128
5.50106
5.50982
4.52117
5.27755
5.41473
5.45915
5.46401
5.47486
5.47093
5.47317
5.46687
5.4664
5.45964
5.45878
5.45306
5.45281
5.44859
5.44888
5.44563
5.44639
5.44338
5.45351
4.93283
5.52274
5.58008
5.57664
5.5613
5.55567
5.54055
5.53413
5.51999
5.51417
5.50242
5.4981
5.48916
5.48619
5.47934
5.47737
5.47186
5.47052
5.46526
5.47987
6.92598
6.88349
6.62156
6.43166
6.33927
6.3062
6.26751
6.25542
6.23101
6.22433
6.20697
6.20314
6.19027
6.18818
6.17808
6.17685
6.16798
6.16778
6.16089
6.18635
17.7257
16.1077
15.0411
14.6395
14.4879
14.4531
14.4001
14.3985
14.3751
14.3771
14.3606
14.364
14.3516
14.3555
14.3456
14.349
14.3416
14.3413
14.3808
14.4008
75.61
79.8382
79.7996
79.8278
79.7717
79.7877
79.748
79.7632
79.7313
79.7471
79.7257
79.7419
79.7274
79.7422
79.7316
79.7437
79.738
79.7393
79.7853
79.8969
5.96904
6.78906
6.65869
6.50413
6.48012
6.41867
6.41986
6.3835
6.38825
6.36291
6.36783
6.34919
6.35333
6.33909
6.34227
6.33084
6.33369
6.32249
6.32448
6.33741
4.06789
5.40633
5.56254
5.53838
5.5109
5.48227
5.46751
5.45017
5.44168
5.43025
5.42504
5.41691
5.41345
5.40729
5.40502
5.39996
5.39811
5.39434
5.39093
5.39024
3.50825
4.84373
5.07524
5.13067
5.14829
5.15774
5.15888
5.15993
5.15826
5.15751
5.15586
5.15514
5.15437
5.15351
5.15339
5.15207
5.15293
5.14941
5.15161
5.16328
3.4425
4.77324
4.9919
5.04021
5.05439
5.0673
5.07287
5.07988
5.08235
5.08632
5.08799
5.09082
5.09295
5.0951
5.09796
5.09917
5.10281
5.1019
5.10691
5.10837
3.41126
4.73776
4.95369
4.99636
5.0014
5.00798
5.00889
5.01292
5.01389
5.01709
5.01823
5.0213
5.02339
5.02657
5.02983
5.03248
5.03706
5.0386
5.04342
5.05331
3.42523
4.75522
4.97008
5.01165
5.01443
5.01786
5.01602
5.01709
5.01555
5.01625
5.01527
5.01623
5.01654
5.01837
5.02012
5.02246
5.02561
5.02767
5.03088
5.03932
3.41509
4.74234
4.95676
4.99825
5.00057
5.00349
5.00087
5.00119
4.99861
4.99829
4.99587
4.99578
4.99471
4.99548
4.99582
4.99753
4.99902
5.00155
5.0039
5.01255
3.42436
4.75371
4.96743
5.00868
5.01094
5.0139
5.01121
5.01147
5.0087
5.00816
5.00526
5.00481
5.00302
5.00337
5.00295
5.00402
5.00469
5.00666
5.00825
5.01613
3.41973
4.74743
4.96094
5.00193
5.00407
5.00701
5.00432
5.00461
5.00186
5.00135
4.99841
4.99791
4.99596
4.99621
4.99557
4.99646
4.9968
4.9985
4.99979
5.00726
3.42327
4.75153
4.96477
5.00555
5.00762
5.01052
5.00782
5.00811
5.00535
5.00485
5.00191
5.00141
4.99943
4.99965
4.99894
4.99977
5.00003
5.00153
5.00278
5.01004
3.42327
4.75153
4.96477
5.00556
5.00762
5.01052
5.00782
5.00811
5.00535
5.00485
5.00191
5.00141
4.99943
4.99965
4.99895
4.99977
5.00003
5.00153
5.00278
5.01003
3.41973
4.74743
4.96094
5.00193
5.00407
5.00701
5.00432
5.00461
5.00185
5.00135
4.99841
4.99791
4.99596
4.99621
4.99557
4.99645
4.99682
4.99846
4.99987
5.00726
3.42436
4.75371
4.96743
5.00868
5.01094
5.0139
5.01121
5.01147
5.0087
5.00817
5.00526
5.00482
5.00301
5.00338
5.00295
5.00402
5.00469
5.00663
5.00823
5.01602
3.41509
4.74234
4.95675
4.99825
5.00056
5.0035
5.00087
5.0012
4.99859
4.9983
4.99586
4.99581
4.99468
4.99553
4.99577
4.99758
4.99892
5.00161
5.00394
5.01255
3.42522
4.75522
4.97007
5.01165
5.01443
5.01787
5.01601
5.01711
5.01554
5.01627
5.01524
5.0163
5.01648
5.0185
5.01986
5.02277
5.02517
5.02808
5.03058
5.03927
3.41126
4.73776
4.95369
4.99637
5.0014
5.00799
5.00888
5.01293
5.01387
5.01713
5.01818
5.0214
5.02317
5.02688
5.02936
5.03313
5.03615
5.0395
5.04266
5.05402
3.4425
4.77324
4.9919
5.04022
5.05438
5.06731
5.07285
5.0799
5.08231
5.08638
5.08789
5.09097
5.09271
5.09546
5.0974
5.09987
5.10167
5.10326
5.10455
5.1109
3.50825
4.84374
5.07524
5.13067
5.14828
5.15775
5.15887
5.15995
5.15824
5.15753
5.15581
5.15524
5.1542
5.15377
5.15306
5.15262
5.15206
5.15109
5.14873
5.16761
4.06789
5.40633
5.56254
5.53839
5.5109
5.48228
5.46751
5.45018
5.44167
5.43027
5.42501
5.41696
5.41337
5.40744
5.40483
5.40034
5.39749
5.39551
5.38884
5.39554
5.96904
6.78906
6.65869
6.50413
6.48012
6.41867
6.41986
6.38351
6.38825
6.36292
6.36782
6.34922
6.3533
6.33918
6.3422
6.33108
6.33348
6.32323
6.32357
6.34102
0.876802
1.12095
0.963324
0.771776
0.662696
0.605189
0.565851
0.538739
0.516366
0.498316
0.483417
0.470299
0.459936
0.450066
0.442522
0.435123
0.428767
0.424486
0.416167
0.418774
0.146632
0.37467
0.451599
0.466028
0.465095
0.461132
0.453132
0.445152
0.437094
0.429762
0.422807
0.416493
0.410609
0.405324
0.400285
0.396122
0.391446
0.388809
0.383513
0.383446
0.0277294
0.143183
0.209835
0.242426
0.256914
0.269191
0.27685
0.285215
0.290723
0.296576
0.300271
0.304078
0.306307
0.308616
0.309724
0.311091
0.311411
0.31212
0.311782
0.313004
0.0234178
0.119229
0.175117
0.204908
0.216676
0.224544
0.227883
0.231974
0.23453
0.238028
0.240785
0.244048
0.246897
0.249856
0.252588
0.255168
0.257689
0.259762
0.262049
0.264228
0.0223977
0.113616
0.164992
0.193959
0.204804
0.211929
0.213571
0.215741
0.216109
0.217121
0.217555
0.218566
0.219314
0.220413
0.221548
0.222615
0.224084
0.225071
0.226584
0.228019
0.0233465
0.11736
0.16924
0.197695
0.208796
0.215524
0.217289
0.218969
0.2191
0.219492
0.219497
0.219655
0.219771
0.219983
0.220332
0.220567
0.221113
0.221367
0.221938
0.222843
0.0226922
0.114827
0.166162
0.194637
0.205461
0.212245
0.213841
0.215546
0.215586
0.215858
0.215735
0.215788
0.215709
0.215725
0.215728
0.215756
0.215873
0.215936
0.21607
0.216652
0.0232315
0.117019
0.168873
0.197187
0.208128
0.214758
0.216467
0.218094
0.21818
0.218458
0.21836
0.218381
0.21831
0.218289
0.218285
0.218274
0.218345
0.218347
0.218463
0.218951
0.0229036
0.115692
0.167255
0.195599
0.206418
0.213096
0.214727
0.216391
0.216457
0.216739
0.216634
0.216672
0.21659
0.216584
0.216565
0.216558
0.216602
0.216612
0.216668
0.21714
0.0230868
0.116452
0.168205
0.196496
0.207343
0.213961
0.215618
0.217252
0.217328
0.217611
0.217516
0.21755
0.21748
0.217469
0.217462
0.217453
0.217508
0.217507
0.217585
0.218047
0.0230868
0.116452
0.168205
0.196496
0.207343
0.213961
0.215618
0.217252
0.217328
0.217611
0.217516
0.21755
0.21748
0.217469
0.217463
0.217454
0.217508
0.217509
0.217587
0.218051
0.0229036
0.115692
0.167255
0.195599
0.206418
0.213096
0.214727
0.216391
0.216457
0.216739
0.216633
0.216671
0.21659
0.216583
0.216565
0.216557
0.216602
0.216609
0.216666
0.217135
0.0232315
0.117019
0.168872
0.197187
0.208128
0.214758
0.216467
0.218095
0.21818
0.218458
0.21836
0.218381
0.21831
0.218289
0.218285
0.218275
0.218346
0.218348
0.218464
0.218954
0.0226922
0.114827
0.166162
0.194637
0.205461
0.212245
0.213841
0.215546
0.215586
0.215858
0.215735
0.215788
0.215708
0.215726
0.215728
0.215754
0.21587
0.215932
0.216066
0.216643
0.0233465
0.11736
0.16924
0.197695
0.208795
0.215524
0.217289
0.218969
0.2191
0.219492
0.219497
0.219658
0.219767
0.219988
0.220326
0.220566
0.221107
0.221363
0.22193
0.222824
0.0223976
0.113616
0.164992
0.193959
0.204804
0.211929
0.213571
0.215741
0.216109
0.217122
0.217555
0.21857
0.219303
0.220422
0.221531
0.222622
0.224061
0.225052
0.226551
0.227956
0.0234178
0.119229
0.175116
0.204909
0.216675
0.224546
0.227882
0.231976
0.234527
0.238032
0.240778
0.244053
0.246884
0.249861
0.252568
0.255158
0.257655
0.259718
0.261962
0.264091
0.0277294
0.143183
0.209835
0.242426
0.256913
0.269192
0.276848
0.285218
0.290718
0.296582
0.30026
0.304087
0.306284
0.308629
0.309687
0.31109
0.311375
0.312062
0.31168
0.312855
0.146632
0.37467
0.451599
0.466028
0.465095
0.461132
0.45313
0.445156
0.437088
0.429771
0.422793
0.416514
0.410577
0.405374
0.400217
0.396233
0.391333
0.388899
0.38343
0.383667
0.876802
1.12095
0.963324
0.771777
0.662696
0.60519
0.565851
0.538743
0.516366
0.498327
0.483417
0.470329
0.459939
0.450143
0.442543
0.435304
0.428868
0.424882
0.416505
0.419947
0.876802
1.12095
0.963324
0.771776
0.662696
0.605189
0.565851
0.538739
0.516366
0.498316
0.483417
0.470299
0.459936
0.450066
0.442522
0.435123
0.428767
0.424486
0.416167
0.418774
0.146632
0.37467
0.451599
0.466028
0.465095
0.461132
0.453132
0.445152
0.437094
0.429762
0.422807
0.416493
0.410609
0.405324
0.400285
0.396122
0.391446
0.388809
0.383513
0.383446
0.0277294
0.143183
0.209835
0.242426
0.256914
0.269191
0.27685
0.285215
0.290723
0.296576
0.300272
0.304078
0.306307
0.308616
0.309724
0.311091
0.311411
0.31212
0.311782
0.313004
0.0234179
0.119229
0.175117
0.204908
0.216676
0.224545
0.227883
0.231974
0.23453
0.238028
0.240785
0.244048
0.246897
0.249856
0.252588
0.255168
0.257689
0.259762
0.262049
0.264228
0.0223977
0.113616
0.164992
0.193959
0.204805
0.211929
0.213571
0.215741
0.216109
0.217121
0.217555
0.218566
0.219314
0.220413
0.221548
0.222615
0.224084
0.225071
0.226585
0.228019
0.0233466
0.11736
0.169241
0.197695
0.208796
0.215524
0.217289
0.218969
0.2191
0.219492
0.219497
0.219655
0.219771
0.219983
0.220332
0.220567
0.221114
0.221367
0.221938
0.222843
0.0226922
0.114827
0.166163
0.194637
0.205461
0.212245
0.213841
0.215546
0.215586
0.215858
0.215736
0.215788
0.215709
0.215726
0.215728
0.215756
0.215873
0.215936
0.21607
0.216652
0.0232315
0.117019
0.168873
0.197187
0.208129
0.214758
0.216467
0.218095
0.21818
0.218458
0.21836
0.218381
0.21831
0.218289
0.218285
0.218274
0.218345
0.218347
0.218463
0.218951
0.0229036
0.115692
0.167255
0.195599
0.206418
0.213096
0.214727
0.216391
0.216457
0.21674
0.216634
0.216672
0.21659
0.216584
0.216565
0.216558
0.216602
0.216612
0.216668
0.21714
0.0230868
0.116452
0.168205
0.196496
0.207343
0.213961
0.215618
0.217252
0.217328
0.217611
0.217516
0.21755
0.21748
0.217469
0.217462
0.217453
0.217508
0.217507
0.217585
0.218047
0.0230868
0.116452
0.168205
0.196496
0.207343
0.213961
0.215618
0.217252
0.217328
0.217611
0.217516
0.21755
0.21748
0.217469
0.217463
0.217454
0.217508
0.217509
0.217587
0.218051
0.0229036
0.115692
0.167255
0.195599
0.206418
0.213096
0.214727
0.216391
0.216457
0.216739
0.216634
0.216672
0.21659
0.216583
0.216565
0.216557
0.216602
0.216609
0.216666
0.217135
0.0232315
0.117019
0.168873
0.197187
0.208128
0.214758
0.216467
0.218095
0.21818
0.218458
0.21836
0.218382
0.21831
0.218289
0.218285
0.218275
0.218346
0.218349
0.218465
0.218954
0.0226922
0.114827
0.166162
0.194637
0.205461
0.212245
0.213841
0.215546
0.215586
0.215858
0.215735
0.215788
0.215708
0.215726
0.215728
0.215754
0.21587
0.215932
0.216066
0.216643
0.0233465
0.11736
0.16924
0.197695
0.208795
0.215525
0.217289
0.218969
0.2191
0.219492
0.219497
0.219658
0.219767
0.219988
0.220326
0.220566
0.221107
0.221363
0.22193
0.222824
0.0223977
0.113616
0.164992
0.193959
0.204804
0.211929
0.213571
0.215741
0.216109
0.217122
0.217555
0.21857
0.219303
0.220422
0.221531
0.222622
0.224061
0.225052
0.226551
0.227957
0.0234179
0.119229
0.175117
0.204909
0.216675
0.224546
0.227882
0.231976
0.234527
0.238032
0.240778
0.244054
0.246884
0.249861
0.252569
0.255158
0.257655
0.259718
0.261962
0.264091
0.0277294
0.143183
0.209835
0.242426
0.256913
0.269192
0.276848
0.285218
0.290718
0.296582
0.30026
0.304088
0.306284
0.308629
0.309687
0.31109
0.311375
0.312062
0.31168
0.312855
0.146632
0.37467
0.451599
0.466028
0.465095
0.461132
0.45313
0.445156
0.437088
0.429771
0.422793
0.416514
0.410577
0.405375
0.400217
0.396233
0.391334
0.388899
0.38343
0.383667
0.876802
1.12095
0.963324
0.771777
0.662696
0.60519
0.565851
0.538743
0.516366
0.498327
0.483418
0.470329
0.459939
0.450143
0.442543
0.435304
0.428867
0.424882
0.416505
0.419947
5.96904
6.78906
6.65869
6.50413
6.48012
6.41867
6.41986
6.3835
6.38825
6.36291
6.36783
6.34919
6.35333
6.33909
6.34227
6.33084
6.33369
6.32249
6.32448
6.33741
4.06789
5.40633
5.56254
5.53838
5.5109
5.48227
5.46751
5.45017
5.44168
5.43025
5.42504
5.41691
5.41345
5.40729
5.40502
5.39996
5.39811
5.39434
5.39093
5.39024
3.50825
4.84373
5.07524
5.13067
5.14829
5.15774
5.15888
5.15993
5.15827
5.15751
5.15586
5.15514
5.15437
5.1535
5.15339
5.15207
5.15293
5.14941
5.15161
5.16327
3.4425
4.77324
4.9919
5.04021
5.05439
5.0673
5.07287
5.07988
5.08235
5.08632
5.08799
5.09082
5.09295
5.0951
5.09796
5.09917
5.1028
5.1019
5.10691
5.10837
3.41126
4.73776
4.95369
4.99636
5.0014
5.00798
5.00889
5.01292
5.01389
5.01709
5.01823
5.0213
5.02339
5.02657
5.02983
5.03248
5.03706
5.0386
5.04342
5.05331
3.42523
4.75522
4.97008
5.01165
5.01443
5.01786
5.01602
5.01709
5.01555
5.01625
5.01527
5.01623
5.01654
5.01837
5.02012
5.02246
5.02561
5.02767
5.03088
5.03932
3.41509
4.74234
4.95676
4.99825
5.00057
5.00349
5.00087
5.00119
4.99861
4.99829
4.99587
4.99578
4.99471
4.99548
4.99582
4.99753
4.99902
5.00155
5.0039
5.01255
3.42436
4.75371
4.96743
5.00868
5.01094
5.0139
5.01121
5.01147
5.0087
5.00816
5.00526
5.00481
5.00302
5.00337
5.00295
5.00402
5.00469
5.00666
5.00825
5.01613
3.41973
4.74743
4.96094
5.00193
5.00407
5.00701
5.00432
5.00461
5.00186
5.00135
4.99841
4.99791
4.99596
4.99621
4.99557
4.99646
4.9968
4.9985
4.99979
5.00726
3.42327
4.75153
4.96477
5.00555
5.00762
5.01052
5.00782
5.00811
5.00535
5.00485
5.00191
5.00141
4.99943
4.99965
4.99894
4.99977
5.00003
5.00153
5.00278
5.01004
3.42327
4.75153
4.96477
5.00556
5.00762
5.01052
5.00782
5.00811
5.00535
5.00485
5.00191
5.00141
4.99943
4.99965
4.99895
4.99977
5.00003
5.00153
5.00278
5.01003
3.41973
4.74743
4.96094
5.00193
5.00407
5.00701
5.00432
5.00461
5.00185
5.00135
4.99841
4.99791
4.99596
4.99621
4.99557
4.99645
4.99682
4.99846
4.99987
5.00726
3.42436
4.75371
4.96743
5.00868
5.01094
5.0139
5.01121
5.01147
5.00869
5.00817
5.00526
5.00482
5.00301
5.00338
5.00295
5.00402
5.00469
5.00663
5.00823
5.01602
3.41509
4.74234
4.95675
4.99825
5.00056
5.0035
5.00087
5.0012
4.99859
4.9983
4.99585
4.99581
4.99468
4.99553
4.99577
4.99758
4.99892
5.00161
5.00395
5.01255
3.42522
4.75522
4.97007
5.01165
5.01443
5.01787
5.01601
5.0171
5.01554
5.01627
5.01524
5.0163
5.01648
5.0185
5.01986
5.02277
5.02517
5.02808
5.03058
5.03927
3.41126
4.73777
4.95369
4.99637
5.0014
5.00799
5.00888
5.01293
5.01387
5.01713
5.01818
5.0214
5.02317
5.02688
5.02936
5.03313
5.03615
5.0395
5.04266
5.05403
3.4425
4.77324
4.9919
5.04022
5.05438
5.06731
5.07285
5.0799
5.08231
5.08638
5.08789
5.09097
5.09271
5.09546
5.0974
5.09987
5.10167
5.10327
5.10455
5.1109
3.50825
4.84374
5.07524
5.13067
5.14828
5.15775
5.15887
5.15995
5.15824
5.15753
5.15581
5.15524
5.1542
5.15377
5.15306
5.15263
5.15206
5.1511
5.14873
5.16761
4.06789
5.40633
5.56254
5.53839
5.5109
5.48228
5.4675
5.45018
5.44167
5.43027
5.42501
5.41696
5.41337
5.40744
5.40484
5.40034
5.39749
5.39551
5.38884
5.39554
5.96904
6.78906
6.65869
6.50413
6.48012
6.41867
6.41986
6.38351
6.38825
6.36292
6.36782
6.34922
6.3533
6.33918
6.3422
6.33108
6.33348
6.32324
6.32357
6.34102
75.61
79.8382
79.7996
79.8278
79.7718
79.7877
79.748
79.7631
79.7314
79.747
79.7259
79.7415
79.7281
79.7412
79.7333
79.7409
79.7429
79.7302
79.8054
79.8448
17.7257
16.1077
15.0411
14.6395
14.4879
14.4531
14.4001
14.3985
14.3751
14.3771
14.3606
14.3639
14.3518
14.3552
14.346
14.3483
14.3428
14.3392
14.3868
14.3887
6.92598
6.88348
6.62157
6.43166
6.33927
6.3062
6.26752
6.25541
6.23103
6.22431
6.20702
6.20307
6.19042
6.18799
6.17845
6.17634
6.16905
6.16579
6.16426
6.17999
4.93284
5.52274
5.58008
5.57663
5.5613
5.55566
5.54056
5.53412
5.52002
5.51413
5.5025
5.49801
5.48933
5.48595
5.47978
5.47662
5.47312
5.46845
5.46786
5.47672
4.52118
5.27754
5.41473
5.45914
5.46401
5.47486
5.47094
5.47316
5.4669
5.46637
5.4597
5.4587
5.45318
5.45263
5.44884
5.44843
5.44624
5.44539
5.4443
5.45211
4.46739
5.2471
5.40232
5.45896
5.47074
5.48971
5.49075
5.49897
5.49721
5.50132
5.49811
5.50054
5.49757
5.49973
5.49775
5.49987
5.4989
5.50084
5.50122
5.50951
4.44967
5.22923
5.38613
5.4458
5.46039
5.48304
5.4871
5.50001
5.50128
5.50941
5.50914
5.51474
5.51435
5.51929
5.51943
5.5241
5.52481
5.52928
5.53074
5.54136
4.45848
5.2318
5.38815
5.44836
5.46456
5.48918
5.49514
5.51088
5.51427
5.52548
5.52728
5.53576
5.53728
5.54485
5.54672
5.55378
5.55611
5.56234
5.56626
5.57682
4.45635
5.22625
5.38121
5.44062
5.45681
5.48181
5.48837
5.50513
5.50949
5.52219
5.5252
5.53544
5.53824
5.54763
5.55082
5.55962
5.56328
5.57101
5.57618
5.58812
4.46042
5.22775
5.38214
5.44135
5.45761
5.48275
5.48951
5.50661
5.51133
5.5246
5.52812
5.53911
5.54253
5.55278
5.55665
5.56624
5.57086
5.57886
5.58552
5.59725
4.46042
5.22775
5.38214
5.44135
5.45761
5.48275
5.48951
5.50661
5.51133
5.52461
5.52812
5.53911
5.54253
5.55278
5.55665
5.56624
5.57087
5.57886
5.58555
5.59728
4.45635
5.22625
5.38121
5.44062
5.45681
5.48181
5.48837
5.50513
5.50949
5.52219
5.5252
5.53544
5.53824
5.54763
5.55083
5.55961
5.56332
5.57099
5.57629
5.58817
4.45848
5.2318
5.38815
5.44837
5.46456
5.48919
5.49514
5.51088
5.51427
5.52549
5.52728
5.53577
5.53727
5.54486
5.54672
5.55379
5.55615
5.56234
5.56638
5.57689
4.44967
5.22924
5.38612
5.4458
5.46038
5.48305
5.48709
5.50002
5.50127
5.50942
5.50912
5.51477
5.51432
5.51935
5.5194
5.52418
5.5248
5.52939
5.53087
5.54156
4.46739
5.2471
5.40232
5.45897
5.47073
5.48972
5.49075
5.49898
5.49719
5.50135
5.49807
5.5006
5.4975
5.49985
5.49761
5.5001
5.49869
5.50128
5.50106
5.50982
4.52117
5.27755
5.41473
5.45915
5.46401
5.47486
5.47093
5.47317
5.46687
5.4664
5.45964
5.45878
5.45306
5.45281
5.44859
5.44888
5.44564
5.44639
5.44339
5.45351
4.93283
5.52274
5.58008
5.57664
5.5613
5.55567
5.54055
5.53413
5.51999
5.51417
5.50242
5.4981
5.48916
5.4862
5.47934
5.47737
5.47187
5.47052
5.46526
5.47987
6.92598
6.88349
6.62156
6.43166
6.33927
6.3062
6.26751
6.25542
6.23101
6.22433
6.20697
6.20314
6.19027
6.18818
6.17808
6.17685
6.16798
6.16778
6.16089
6.18635
17.7257
16.1077
15.0411
14.6395
14.4879
14.4531
14.4001
14.3985
14.3751
14.3771
14.3606
14.364
14.3516
14.3555
14.3456
14.349
14.3416
14.3413
14.3808
14.4008
75.61
79.8382
79.7996
79.8278
79.7717
79.7877
79.748
79.7632
79.7313
79.7471
79.7257
79.7419
79.7274
79.7422
79.7316
79.7437
79.738
79.7393
79.7853
79.8969
183.743
186.535
188.305
189.823
191.056
192.169
193.089
193.955
194.727
195.484
196.16
196.789
197.324
197.811
198.232
198.624
198.963
199.267
199.514
199.726
199.895
200.045
200.17
200.284
200.378
200.459
200.52
200.569
200.601
200.625
200.638
200.648
200.652
200.656
200.656
200.658
200.657
200.657
200.656
200.657
200.656
200.656
200.655
200.655
200.654
200.654
200.653
200.653
200.653
200.653
200.652
200.652
200.651
200.651
200.65
200.65
200.65
200.65
200.649
200.649
200.648
200.648
200.648
200.648
200.648
200.648
200.647
200.647
200.647
200.647
200.647
200.647
200.647
200.647
200.647
200.647
200.647
200.647
200.648
200.646
200.648
200.645
200.648
200.645
200.647
200.645
200.643
200.645
200.624
200.614
58.6705
59.9756
60.5187
61.0073
61.3846
61.7457
62.028
62.3104
62.5484
62.7956
63.0046
63.21
63.3748
63.5339
63.663
63.7914
63.8949
63.9945
64.0691
64.1388
64.1887
64.2383
64.2744
64.3123
64.3387
64.3659
64.382
64.3986
64.4056
64.4141
64.4154
64.4193
64.4178
64.4196
64.4171
64.4181
64.4154
64.416
64.4134
64.4139
64.4113
64.4117
64.4094
64.4097
64.4074
64.4077
64.4056
64.4058
64.4038
64.404
64.4021
64.4022
64.4005
64.4006
64.3989
64.399
64.3975
64.3976
64.3962
64.3963
64.395
64.3951
64.3939
64.394
64.3929
64.393
64.392
64.3921
64.3912
64.3914
64.3906
64.3907
64.39
64.3902
64.3896
64.3897
64.3894
64.3893
64.3892
64.3889
64.3891
64.3885
64.389
64.3881
64.3885
64.388
64.3871
64.3883
64.3738
64.3708
26.2279
27.2687
27.4758
27.6911
27.8351
28.0011
28.1104
28.241
28.333
28.4477
28.5303
28.6273
28.6923
28.7678
28.8174
28.8784
28.9178
28.9661
28.9937
29.0282
29.0449
29.0696
29.0803
29.0993
29.1062
29.1203
29.1231
29.1322
29.1312
29.1362
29.1327
29.1354
29.1309
29.1324
29.1276
29.1286
29.1239
29.1247
29.1202
29.1208
29.1166
29.1172
29.1132
29.1137
29.1099
29.1104
29.1069
29.1072
29.1039
29.1043
29.1012
29.1015
29.0986
29.0989
29.0962
29.0965
29.094
29.0942
29.0919
29.0922
29.09
29.0903
29.0883
29.0886
29.0868
29.0871
29.0854
29.0858
29.0842
29.0846
29.0832
29.0836
29.0824
29.0828
29.0817
29.0821
29.0812
29.0815
29.0809
29.0811
29.0807
29.0807
29.0805
29.0805
29.0802
29.0804
29.0795
29.0806
29.0717
29.0628
18.6896
19.8328
19.9603
20.1034
20.1862
20.3055
20.3706
20.4641
20.5164
20.5986
20.6486
20.7217
20.7622
20.8195
20.8485
20.8946
20.9177
20.9561
20.9726
21.0012
21.0098
21.0299
21.0339
21.0493
21.0512
21.0633
21.0628
21.0712
21.068
21.0731
21.068
21.0709
21.0649
21.0667
21.0605
21.0618
21.0558
21.0569
21.0512
21.0522
21.0468
21.0477
21.0427
21.0435
21.0388
21.0395
21.0351
21.0358
21.0317
21.0323
21.0285
21.029
21.0255
21.026
21.0227
21.0233
21.0202
21.0208
21.0179
21.0185
21.0159
21.0164
21.014
21.0146
21.0124
21.013
21.011
21.0116
21.0098
21.0104
21.0088
21.0095
21.008
21.0087
21.0075
21.0082
21.0071
21.0078
21.0069
21.0076
21.0069
21.0075
21.007
21.0076
21.0072
21.0079
21.0072
21.0083
21.0043
20.9933
17.0821
18.3457
18.451
18.5681
18.6297
18.7367
18.7887
18.8718
18.9099
18.9818
19.0213
19.0896
19.1239
19.1781
19.2011
19.244
19.2627
19.3005
19.3152
19.3447
19.352
19.3723
19.3748
19.3902
19.391
19.4038
19.403
19.4125
19.4092
19.4153
19.4099
19.4135
19.4069
19.4092
19.4023
19.404
19.3973
19.3987
19.3924
19.3936
19.3877
19.3887
19.3832
19.3842
19.3791
19.38
19.3752
19.3761
19.3716
19.3724
19.3682
19.369
19.3651
19.3659
19.3623
19.363
19.3597
19.3605
19.3574
19.3581
19.3553
19.3561
19.3535
19.3542
19.3519
19.3527
19.3506
19.3514
19.3495
19.3503
19.3486
19.3495
19.348
19.3489
19.3476
19.3485
19.3475
19.3484
19.3475
19.3484
19.3478
19.3487
19.3482
19.3491
19.3487
19.3498
19.3493
19.3506
19.3496
19.3381
16.8294
18.239
18.3383
18.4403
18.4881
18.5892
18.6348
18.7133
18.7426
18.8077
18.8406
18.9074
18.9395
18.9937
19.0138
19.0555
19.072
19.1105
19.1255
19.1573
19.165
19.1866
19.1886
19.2047
19.2053
19.2192
19.2188
19.2297
19.2269
19.2341
19.2288
19.2331
19.2263
19.2289
19.2217
19.2235
19.2164
19.2179
19.2111
19.2124
19.2061
19.2073
19.2014
19.2025
19.1969
19.198
19.1928
19.1938
19.189
19.19
19.1855
19.1864
19.1823
19.1832
19.1793
19.1802
19.1767
19.1775
19.1743
19.1752
19.1722
19.1731
19.1703
19.1713
19.1688
19.1698
19.1675
19.1685
19.1665
19.1675
19.1658
19.1668
19.1653
19.1664
19.1651
19.1662
19.1651
19.1663
19.1655
19.1666
19.166
19.1672
19.1667
19.168
19.1676
19.169
19.1687
19.1702
19.17
19.1579
16.7775
18.2919
18.3948
18.4869
18.5223
18.6168
18.6565
18.7311
18.7521
18.8098
18.8361
18.8999
18.9294
18.9833
19.0005
19.0403
19.0543
19.0925
19.1074
19.1409
19.1489
19.1716
19.1732
19.1896
19.19
19.2047
19.2046
19.2167
19.2144
19.2226
19.2175
19.2224
19.2155
19.2184
19.2108
19.2129
19.2053
19.2069
19.1997
19.2012
19.1944
19.1957
19.1895
19.1907
19.1848
19.186
19.1805
19.1816
19.1765
19.1776
19.1729
19.1739
19.1696
19.1706
19.1665
19.1676
19.1638
19.1648
19.1614
19.1625
19.1593
19.1604
19.1575
19.1586
19.156
19.1571
19.1548
19.156
19.1539
19.1551
19.1533
19.1546
19.153
19.1543
19.153
19.1543
19.1533
19.1546
19.1538
19.1552
19.1546
19.156
19.1556
19.1571
19.1568
19.1585
19.1583
19.16
19.1606
19.148
16.8364
18.4459
18.5531
18.6365
18.6614
18.7488
18.7835
18.8538
18.8674
18.9171
18.9369
18.9963
19.0231
19.0758
19.0901
19.1274
19.1388
19.1757
19.1902
19.2247
19.2329
19.2564
19.2576
19.2741
19.2742
19.2895
19.2896
19.3028
19.3009
19.31
19.3051
19.3106
19.3036
19.3069
19.299
19.3012
19.2934
19.2951
19.2876
19.2891
19.2821
19.2835
19.2769
19.2783
19.2722
19.2734
19.2678
19.269
19.2637
19.2649
19.26
19.2611
19.2566
19.2577
19.2536
19.2547
19.2509
19.252
19.2485
19.2496
19.2464
19.2476
19.2447
19.2459
19.2433
19.2446
19.2422
19.2435
19.2415
19.2428
19.241
19.2424
19.2409
19.2423
19.2411
19.2426
19.2416
19.2431
19.2423
19.2439
19.2434
19.245
19.2447
19.2464
19.2462
19.2481
19.2481
19.2499
19.2508
19.2378
16.8548
18.5175
18.633
18.7131
18.73
18.8104
18.8396
18.9046
18.9112
18.9533
18.9666
19.0207
19.0441
19.0943
19.1055
19.1396
19.1481
19.183
19.1964
19.2308
19.2388
19.2623
19.263
19.2792
19.2789
19.2943
19.2945
19.3083
19.3066
19.3164
19.3117
19.3176
19.3106
19.3141
19.3062
19.3084
19.3004
19.3022
19.2946
19.2961
19.289
19.2904
19.2837
19.2851
19.2789
19.2802
19.2745
19.2757
19.2704
19.2716
19.2667
19.2679
19.2633
19.2645
19.2603
19.2615
19.2577
19.2589
19.2553
19.2566
19.2534
19.2546
19.2517
19.253
19.2504
19.2518
19.2495
19.2509
19.2488
19.2503
19.2485
19.25
19.2486
19.2501
19.2489
19.2505
19.2496
19.2512
19.2505
19.2522
19.2518
19.2536
19.2533
19.2552
19.2551
19.2571
19.2572
19.2591
19.2604
19.2468
16.8824
18.5777
18.6967
18.7715
18.78
18.8526
18.8759
18.9343
18.9345
18.9693
18.9766
19.0249
19.0445
19.0909
19.0989
19.1292
19.135
19.1673
19.1793
19.2126
19.2198
19.2427
19.2427
19.2583
19.2576
19.2727
19.2729
19.2868
19.2853
19.2953
19.2907
19.2968
19.2899
19.2935
19.2855
19.2878
19.2798
19.2816
19.2739
19.2754
19.2682
19.2697
19.263
19.2644
19.2581
19.2595
19.2537
19.255
19.2496
19.2509
19.2459
19.2472
19.2426
19.2439
19.2397
19.2409
19.2371
19.2383
19.2348
19.2361
19.2329
19.2342
19.2313
19.2327
19.2301
19.2315
19.2292
19.2307
19.2287
19.2302
19.2285
19.2301
19.2286
19.2302
19.2291
19.2307
19.2298
19.2316
19.2309
19.2327
19.2323
19.2342
19.234
19.2359
19.2359
19.238
19.2382
19.2402
19.2417
19.2282
16.8832
18.5773
18.6914
18.759
18.7603
18.8243
18.8409
18.8912
18.8854
18.914
18.9158
18.9584
18.9739
19.0156
19.0202
19.0468
19.05
19.0795
19.0897
19.1211
19.1271
19.1486
19.1477
19.1625
19.1612
19.1759
19.1758
19.1894
19.1879
19.1978
19.1932
19.1993
19.1923
19.1959
19.1879
19.1902
19.1822
19.184
19.1764
19.1779
19.1708
19.1722
19.1655
19.167
19.1607
19.1621
19.1563
19.1576
19.1523
19.1536
19.1486
19.1499
19.1454
19.1466
19.1424
19.1437
19.1398
19.1411
19.1376
19.1389
19.1357
19.1371
19.1342
19.1356
19.133
19.1344
19.1322
19.1336
19.1317
19.1332
19.1315
19.1331
19.1316
19.1333
19.1321
19.1338
19.1329
19.1347
19.134
19.1358
19.1354
19.1373
19.1371
19.1391
19.1391
19.1411
19.1414
19.1433
19.1449
19.1317
16.8577
18.5166
18.6173
18.6748
18.6687
18.7236
18.7323
18.7732
18.7618
18.7851
18.7823
18.8195
18.8305
18.8668
18.8679
18.8909
18.8918
18.9186
18.9267
18.9555
18.9598
18.9793
18.9775
18.9913
18.9895
19.0034
19.0029
19.0159
19.014
19.0234
19.0187
19.0245
19.0176
19.021
19.0131
19.0154
19.0075
19.0093
19.0017
19.0033
18.9962
18.9977
18.9911
18.9925
18.9863
18.9877
18.982
18.9833
18.978
18.9793
18.9744
18.9756
18.9711
18.9724
18.9682
18.9695
18.9657
18.9669
18.9634
18.9647
18.9616
18.9629
18.96
18.9614
18.9588
18.9602
18.9579
18.9594
18.9574
18.9589
18.9572
18.9587
18.9573
18.9588
18.9577
18.9593
18.9584
18.9601
18.9594
18.9612
18.9607
18.9626
18.9623
18.9643
18.9642
18.9662
18.9664
18.9683
18.9698
18.9571
16.8403
18.4368
18.5126
18.5566
18.5432
18.5886
18.5891
18.6204
18.6043
18.6231
18.617
18.6494
18.6559
18.6863
18.6843
18.704
18.7031
18.7271
18.733
18.7586
18.761
18.7781
18.7754
18.788
18.7856
18.7986
18.7975
18.8095
18.8071
18.8158
18.8108
18.8162
18.8092
18.8124
18.8047
18.8069
18.7992
18.8009
18.7935
18.795
18.7881
18.7896
18.7831
18.7845
18.7785
18.7798
18.7743
18.7755
18.7703
18.7716
18.7668
18.768
18.7636
18.7647
18.7607
18.7619
18.7581
18.7593
18.7559
18.7571
18.754
18.7552
18.7524
18.7536
18.7511
18.7524
18.7502
18.7515
18.7495
18.7509
18.7492
18.7506
18.7492
18.7507
18.7495
18.751
18.7501
18.7517
18.7509
18.7526
18.7521
18.7538
18.7535
18.7553
18.7552
18.757
18.7572
18.7589
18.7602
18.7484
16.7815
18.2659
18.3164
18.3471
18.3273
18.3635
18.3561
18.3792
18.3594
18.3748
18.3666
18.3946
18.3966
18.4211
18.4164
18.4333
18.4308
18.4521
18.4557
18.4776
18.4778
18.4923
18.4887
18.5
18.4971
18.5088
18.507
18.5177
18.5147
18.5224
18.5171
18.5218
18.5149