/*--------------------------------*- C++ -*----------------------------------*\
  =========                 |
  \\      /  F ield         | OpenFOAM: The Open Source CFD Toolbox
   \\    /   O peration     | Website:  https://openfoam.org
    \\  /    A nd           | Version:  7
     \\/     M anipulation  |
\*---------------------------------------------------------------------------*/
FoamFile
{
    version     2.0;
    format      ascii;
    class       volScalarField;
    location    "0.1025";
    object      T;
}
// * * * * * * * * * * * * * * * * * * * * * * * * * * * * * * * * * * * * * //

dimensions      [0 0 0 1 0 0 0];

internalField   nonuniform List<scalar> 
1440
(
290.033
290.101
290.172
290.245
290.322
290.401
290.482
290.567
290.654
290.744
290.837
290.933
291.031
291.132
291.235
291.34
291.446
291.554
291.663
291.773
291.883
291.993
292.103
292.212
292.32
292.426
292.531
292.635
292.737
292.837
292.935
293.032
293.126
293.219
293.309
293.399
293.486
293.572
293.656
293.738
293.82
293.9
293.978
294.056
294.132
294.207
294.281
294.355
294.427
294.498
294.569
294.638
294.707
294.776
294.843
294.91
294.977
295.042
295.108
295.172
295.236
295.3
295.363
295.426
295.488
295.55
295.611
295.672
295.733
295.793
295.853
295.912
295.971
296.03
296.088
296.146
296.203
296.26
296.317
296.374
296.431
296.487
296.542
296.597
296.652
296.707
296.762
296.816
296.87
296.923
296.975
297.028
297.081
297.135
297.188
297.24
297.291
297.34
297.389
297.439
297.491
297.543
297.597
297.65
297.702
297.751
297.796
297.838
297.878
297.916
297.952
297.989
298.025
298.063
298.099
298.141
298.172
298.22
298.241
298.305
289.998
289.994
289.99
289.989
289.99
289.995
290.004
290.016
290.032
290.051
290.073
290.097
290.123
290.152
290.182
290.214
290.247
290.281
290.316
290.352
290.388
290.425
290.462
290.499
290.537
290.574
290.612
290.65
290.688
290.727
290.765
290.803
290.842
290.881
290.919
290.958
290.998
291.037
291.076
291.116
291.156
291.196
291.236
291.277
291.317
291.358
291.399
291.44
291.481
291.522
291.563
291.605
291.646
291.688
291.729
291.771
291.813
291.855
291.897
291.938
291.98
292.022
292.064
292.106
292.148
292.19
292.231
292.273
292.315
292.356
292.398
292.439
292.481
292.522
292.563
292.604
292.646
292.686
292.727
292.768
292.809
292.849
292.89
292.93
292.97
293.01
293.05
293.09
293.13
293.17
293.209
293.249
293.288
293.327
293.366
293.405
293.444
293.483
293.521
293.56
293.598
293.636
293.674
293.712
293.75
293.788
293.826
293.864
293.901
293.938
293.973
294.011
294.044
294.082
294.113
294.154
294.179
294.225
294.241
294.301
290
290
289.999
289.998
289.997
289.995
289.994
289.992
289.991
289.989
289.989
289.989
289.989
289.99
289.992
289.994
289.997
290
290.005
290.009
290.014
290.019
290.025
290.031
290.038
290.045
290.052
290.059
290.066
290.074
290.082
290.09
290.099
290.107
290.116
290.125
290.134
290.144
290.154
290.164
290.174
290.184
290.195
290.206
290.217
290.228
290.24
290.252
290.264
290.276
290.288
290.301
290.314
290.327
290.341
290.354
290.368
290.382
290.397
290.411
290.426
290.441
290.456
290.471
290.487
290.503
290.518
290.535
290.551
290.567
290.584
290.601
290.618
290.635
290.652
290.67
290.688
290.705
290.723
290.741
290.76
290.778
290.797
290.815
290.834
290.853
290.872
290.891
290.91
290.93
290.949
290.969
290.989
291.008
291.028
291.048
291.068
291.088
291.109
291.129
291.149
291.17
291.191
291.211
291.232
291.253
291.273
291.295
291.315
291.337
291.357
291.38
291.399
291.423
291.441
291.466
291.481
291.512
291.52
291.559
290
290
289.999
289.999
289.998
289.997
289.996
289.995
289.993
289.992
289.991
289.989
289.988
289.986
289.985
289.984
289.982
289.981
289.98
289.979
289.978
289.977
289.977
289.976
289.976
289.975
289.975
289.975
289.975
289.975
289.975
289.975
289.975
289.975
289.976
289.976
289.977
289.977
289.978
289.978
289.979
289.98
289.981
289.982
289.983
289.984
289.985
289.986
289.987
289.988
289.99
289.991
289.993
289.994
289.996
289.998
289.999
290.001
290.003
290.005
290.007
290.009
290.012
290.014
290.016
290.019
290.021
290.024
290.027
290.029
290.032
290.035
290.038
290.041
290.045
290.048
290.051
290.055
290.058
290.062
290.066
290.069
290.073
290.077
290.081
290.085
290.09
290.094
290.098
290.103
290.107
290.112
290.117
290.122
290.127
290.132
290.137
290.142
290.147
290.153
290.158
290.164
290.169
290.175
290.181
290.186
290.192
290.199
290.204
290.211
290.217
290.224
290.229
290.237
290.242
290.251
290.255
290.265
290.268
290.281
290
290
289.999
289.999
289.998
289.997
289.996
289.995
289.994
289.993
289.991
289.99
289.989
289.988
289.986
289.985
289.984
289.983
289.982
289.98
289.979
289.978
289.977
289.977
289.976
289.975
289.974
289.973
289.973
289.972
289.972
289.971
289.97
289.97
289.969
289.969
289.968
289.968
289.967
289.967
289.967
289.966
289.966
289.965
289.965
289.965
289.964
289.964
289.964
289.963
289.963
289.963
289.962
289.962
289.962
289.962
289.961
289.961
289.961
289.961
289.96
289.96
289.96
289.96
289.959
289.959
289.959
289.959
289.959
289.959
289.959
289.958
289.958
289.958
289.958
289.958
289.958
289.958
289.958
289.958
289.958
289.958
289.958
289.958
289.958
289.958
289.958
289.958
289.958
289.958
289.959
289.959
289.959
289.959
289.959
289.96
289.96
289.96
289.96
289.961
289.961
289.961
289.962
289.962
289.962
289.963
289.963
289.964
289.964
289.965
289.965
289.966
289.966
289.967
289.967
289.968
289.968
289.969
289.969
289.971
290
290
289.999
289.999
289.998
289.997
289.996
289.995
289.994
289.993
289.992
289.99
289.989
289.988
289.987
289.985
289.984
289.983
289.982
289.981
289.98
289.979
289.978
289.977
289.976
289.976
289.975
289.974
289.973
289.973
289.972
289.972
289.971
289.97
289.97
289.969
289.969
289.969
289.968
289.968
289.967
289.967
289.966
289.966
289.966
289.965
289.965
289.964
289.964
289.964
289.963
289.963
289.963
289.962
289.962
289.962
289.961
289.961
289.961
289.96
289.96
289.959
289.959
289.959
289.959
289.958
289.958
289.958
289.957
289.957
289.957
289.956
289.956
289.956
289.955
289.955
289.955
289.954
289.954
289.954
289.954
289.953
289.953
289.953
289.952
289.952
289.952
289.952
289.951
289.951
289.951
289.951
289.95
289.95
289.95
289.95
289.949
289.949
289.949
289.948
289.948
289.948
289.948
289.948
289.947
289.947
289.947
289.947
289.946
289.946
289.946
289.946
289.945
289.945
289.945
289.945
289.945
289.944
289.944
289.944
290
290
289.999
289.999
289.998
289.997
289.996
289.995
289.994
289.993
289.992
289.99
289.989
289.988
289.987
289.985
289.984
289.983
289.982
289.981
289.98
289.979
289.978
289.977
289.976
289.976
289.975
289.974
289.973
289.973
289.972
289.972
289.971
289.971
289.97
289.97
289.969
289.969
289.968
289.968
289.967
289.967
289.966
289.966
289.966
289.965
289.965
289.964
289.964
289.964
289.963
289.963
289.963
289.962
289.962
289.962
289.961
289.961
289.961
289.96
289.96
289.96
289.959
289.959
289.959
289.958
289.958
289.958
289.957
289.957
289.957
289.956
289.956
289.956
289.955
289.955
289.955
289.955
289.954
289.954
289.954
289.953
289.953
289.953
289.953
289.952
289.952
289.952
289.951
289.951
289.951
289.951
289.95
289.95
289.95
289.95
289.949
289.949
289.949
289.948
289.948
289.948
289.948
289.947
289.947
289.947
289.947
289.946
289.946
289.946
289.946
289.946
289.945
289.945
289.945
289.945
289.944
289.944
289.944
289.944
290
290
289.999
289.999
289.998
289.997
289.996
289.995
289.994
289.993
289.991
289.99
289.989
289.988
289.986
289.985
289.984
289.983
289.982
289.981
289.98
289.979
289.978
289.977
289.976
289.975
289.974
289.974
289.973
289.972
289.972
289.971
289.971
289.97
289.97
289.969
289.969
289.968
289.968
289.967
289.967
289.966
289.966
289.966
289.965
289.965
289.964
289.964
289.964
289.963
289.963
289.963
289.962
289.962
289.962
289.961
289.961
289.961
289.96
289.96
289.96
289.959
289.959
289.959
289.958
289.958
289.958
289.957
289.957
289.957
289.957
289.956
289.956
289.956
289.955
289.955
289.955
289.955
289.954
289.954
289.954
289.953
289.953
289.953
289.953
289.952
289.952
289.952
289.952
289.952
289.951
289.951
289.951
289.951
289.95
289.95
289.95
289.95
289.949
289.949
289.949
289.949
289.949
289.948
289.948
289.948
289.948
289.948
289.948
289.947
289.947
289.947
289.947
289.947
289.946
289.946
289.946
289.946
289.946
289.946
290
290
289.999
289.999
289.998
289.997
289.996
289.995
289.994
289.992
289.991
289.99
289.988
289.987
289.986
289.984
289.983
289.982
289.981
289.98
289.979
289.978
289.977
289.976
289.975
289.974
289.974
289.973
289.972
289.972
289.971
289.971
289.97
289.97
289.97
289.969
289.969
289.968
289.968
289.968
289.967
289.967
289.967
289.967
289.966
289.966
289.966
289.966
289.965
289.965
289.965
289.965
289.964
289.964
289.964
289.964
289.964
289.964
289.963
289.963
289.963
289.963
289.963
289.963
289.963
289.963
289.963
289.962
289.962
289.962
289.962
289.962
289.962
289.962
289.962
289.962
289.962
289.962
289.962
289.962
289.962
289.962
289.962
289.962
289.962
289.962
289.962
289.962
289.962
289.962
289.962
289.962
289.962
289.962
289.962
289.962
289.962
289.962
289.962
289.962
289.962
289.962
289.962
289.962
289.962
289.962
289.963
289.963
289.963
289.963
289.963
289.963
289.963
289.963
289.963
289.963
289.963
289.963
289.963
289.963
290
290
289.999
289.999
289.998
289.997
289.995
289.994
289.993
289.991
289.99
289.989
289.987
289.986
289.985
289.984
289.983
289.982
289.982
289.981
289.981
289.98
289.98
289.98
289.98
289.979
289.979
289.979
289.979
289.979
289.979
289.979
289.98
289.98
289.98
289.98
289.98
289.98
289.981
289.981
289.981
289.981
289.981
289.982
289.982
289.982
289.982
289.983
289.983
289.983
289.983
289.984
289.984
289.984
289.984
289.985
289.985
289.985
289.985
289.986
289.986
289.986
289.986
289.987
289.987
289.987
289.987
289.987
289.988
289.988
289.988
289.988
289.988
289.989
289.989
289.989
289.989
289.989
289.99
289.99
289.99
289.99
289.99
289.99
289.99
289.991
289.991
289.991
289.991
289.991
289.991
289.991
289.991
289.992
289.992
289.992
289.992
289.992
289.992
289.992
289.992
289.992
289.992
289.992
289.993
289.993
289.993
289.993
289.993
289.993
289.993
289.993
289.993
289.993
289.993
289.993
289.993
289.993
289.993
289.993
290
290
289.999
289.998
289.997
289.996
289.995
289.995
289.995
289.995
289.995
289.996
289.996
289.997
289.998
289.999
289.999
290
290.001
290.002
290.002
290.003
290.004
290.004
290.005
290.005
290.006
290.006
290.006
290.007
290.007
290.007
290.007
290.008
290.008
290.008
290.008
290.008
290.008
290.009
290.009
290.009
290.009
290.009
290.009
290.009
290.009
290.009
290.009
290.009
290.009
290.009
290.009
290.009
290.008
290.008
290.008
290.008
290.008
290.008
290.008
290.008
290.008
290.008
290.007
290.007
290.007
290.007
290.007
290.007
290.007
290.007
290.006
290.006
290.006
290.006
290.006
290.006
290.006
290.005
290.005
290.005
290.005
290.005
290.005
290.005
290.005
290.004
290.004
290.004
290.004
290.004
290.004
290.004
290.004
290.004
290.003
290.003
290.003
290.003
290.003
290.003
290.003
290.003
290.003
290.003
290.002
290.002
290.002
290.002
290.002
290.002
290.002
290.002
290.002
290.002
290.002
290.002
290.002
290.001
290
290.001
290.004
290.007
290.01
290.014
290.017
290.02
290.022
290.023
290.024
290.025
290.025
290.024
290.023
290.022
290.021
290.02
290.018
290.017
290.015
290.014
290.012
290.011
290.01
290.009
290.008
290.007
290.006
290.005
290.005
290.004
290.004
290.004
290.003
290.003
290.003
290.003
290.003
290.003
290.003
290.003
290.003
290.002
290.002
290.002
290.002
290.002
290.002
290.002
290.002
290.002
290.002
290.002
290.002
290.002
290.002
290.002
290.002
290.002
290.002
290.002
290.002
290.002
290.002
290.002
290.002
290.002
290.002
290.002
290.002
290.002
290.002
290.002
290.002
290.002
290.002
290.002
290.002
290.002
290.002
290.002
290.002
290.002
290.002
290.002
290.002
290.002
290.002
290.001
290.001
290.001
290.001
290.001
290.001
290.001
290.001
290.001
290.001
290.001
290.001
290.001
290.001
290.001
290.001
290.001
290.001
290.001
290.001
290.001
290.001
290.001
290.001
290.001
290.001
290.001
290.001
290.001
290.001
290.001
)
;

boundaryField
{
    upperWall
    {
        type            fixedValue;
        value           uniform 290;
    }
    lowerWall
    {
        type            externalWallHeatFluxTemperature;
        mode            flux;
        kappaMethod     fluidThermo;
        kappa           none;
        alphaAni        Anialpha;
        q               uniform 890;
        qr              none;
        refValue        nonuniform List<scalar> 
120
(
299.009
294.296
292.859
292.309
292.066
291.965
291.941
291.965
292.021
292.097
292.192
292.295
292.408
292.529
292.656
292.786
292.919
293.054
293.191
293.328
293.464
293.6
293.734
293.867
293.998
294.126
294.252
294.375
294.496
294.614
294.729
294.841
294.951
295.058
295.162
295.265
295.365
295.463
295.558
295.652
295.745
295.835
295.924
296.011
296.097
296.182
296.265
296.348
296.429
296.509
296.588
296.666
296.743
296.82
296.895
296.97
297.044
297.117
297.19
297.262
297.333
297.404
297.474
297.544
297.613
297.682
297.75
297.817
297.884
297.951
298.017
298.082
298.147
298.212
298.276
298.34
298.403
298.466
298.529
298.591
298.653
298.714
298.775
298.835
298.895
298.955
299.015
299.074
299.133
299.191
299.248
299.305
299.363
299.422
299.479
299.536
299.591
299.645
299.698
299.752
299.808
299.865
299.923
299.98
300.036
300.088
300.138
300.184
300.227
300.268
300.308
300.349
300.388
300.431
300.469
300.515
300.55
300.602
300.625
300.694
)
;
        refGradient     nonuniform List<scalar> 
120
(
4787.62
2237.01
1433.21
1100.8
930.456
834.32
778.204
745.799
728.688
721.537
722.567
726.356
734.393
745.282
757.791
771.36
785.567
800.081
814.649
829.073
843.206
856.94
870.194
882.919
895.084
906.68
917.702
928.173
938.119
947.562
956.526
965.041
973.138
980.85
988.211
995.249
1002
1008.48
1014.72
1020.74
1026.56
1032.2
1037.67
1043
1048.18
1053.24
1058.18
1063.02
1067.75
1072.39
1076.94
1081.4
1085.79
1090.1
1094.34
1098.52
1102.62
1106.66
1110.65
1114.57
1118.43
1122.23
1125.99
1129.68
1133.33
1136.92
1140.46
1143.95
1147.39
1150.79
1154.13
1157.43
1160.69
1163.9
1167.06
1170.18
1173.26
1176.29
1179.28
1182.24
1185.15
1188.02
1190.85
1193.64
1196.4
1199.12
1201.8
1204.45
1207.06
1209.63
1212.17
1214.69
1217.17
1219.62
1222.04
1224.42
1226.78
1229.1
1231.39
1233.66
1235.9
1238.13
1240.33
1242.51
1244.66
1246.78
1248.85
1250.9
1252.89
1254.89
1256.81
1258.8
1260.62
1262.64
1264.32
1266.46
1267.89
1270.22
1271.35
1274.12
)
;
        valueFraction   uniform 0;
        value           nonuniform List<scalar> 
120
(
299.009
294.296
292.859
292.309
292.066
291.965
291.941
291.965
292.021
292.097
292.192
292.295
292.408
292.529
292.656
292.786
292.919
293.054
293.191
293.328
293.464
293.6
293.734
293.867
293.998
294.126
294.252
294.375
294.496
294.614
294.729
294.841
294.951
295.058
295.162
295.265
295.365
295.463
295.558
295.652
295.745
295.835
295.924
296.011
296.097
296.182
296.265
296.348
296.429
296.509
296.588
296.666
296.743
296.82
296.895
296.97
297.044
297.117
297.19
297.262
297.333
297.404
297.474
297.544
297.613
297.682
297.75
297.817
297.884
297.951
298.017
298.082
298.147
298.212
298.276
298.34
298.403
298.466
298.529
298.591
298.653
298.714
298.775
298.835
298.895
298.955
299.015
299.074
299.133
299.191
299.248
299.305
299.363
299.422
299.479
299.536
299.591
299.645
299.698
299.752
299.808
299.865
299.923
299.98
300.036
300.088
300.138
300.184
300.227
300.268
300.308
300.349
300.388
300.431
300.469
300.515
300.55
300.602
300.625
300.694
)
;
    }
    inlet
    {
        type            fixedValue;
        value           uniform 290;
    }
    outlet
    {
        type            inletOutlet;
        inletValue      uniform 290;
        value           nonuniform List<scalar> 
12
(
298.305
294.301
291.559
290.281
289.971
289.944
289.944
289.946
289.963
289.993
290.001
290.001
)
;
    }
    frontAndBack
    {
        type            empty;
    }
}


// ************************************************************************* //
