/*--------------------------------*- C++ -*----------------------------------*\
  =========                 |
  \\      /  F ield         | OpenFOAM: The Open Source CFD Toolbox
   \\    /   O peration     | Website:  https://openfoam.org
    \\  /    A nd           | Version:  7
     \\/     M anipulation  |
\*---------------------------------------------------------------------------*/
FoamFile
{
    version     2.0;
    format      ascii;
    class       volVectorField;
    location    "1.065";
    object      UMean;
}
// * * * * * * * * * * * * * * * * * * * * * * * * * * * * * * * * * * * * * //

dimensions      [0 1 -1 0 0 0 0];

internalField   nonuniform List<vector> 
4950
(
(3.52519 0.409788 -27.0294)
(2.85439 0.14259 -27.0661)
(2.13414 0.0410836 -27.068)
(1.95379 -0.0236467 -27.0751)
(1.69328 -0.0427488 -27.0733)
(1.69198 -0.0486161 -27.0774)
(1.54619 -0.0493411 -27.0753)
(1.58077 -0.0480814 -27.0784)
(1.47469 -0.0467849 -27.0767)
(1.51462 -0.0454668 -27.0792)
(1.43069 -0.043906 -27.0778)
(1.46932 -0.0437971 -27.0798)
(1.40084 -0.04087 -27.0787)
(1.43654 -0.043598 -27.0802)
(1.37884 -0.0350436 -27.0795)
(1.41192 -0.0451592 -27.0804)
(1.3593 -0.0148894 -27.0806)
(1.38098 -0.044323 -27.0798)
(1.35319 0.0884916 -27.083)
(1.15093 0.121935 -27.0709)
(4.59618 0.535059 -27.0543)
(4.79008 0.360024 -27.0832)
(4.50531 0.270931 -27.0829)
(4.46754 0.173655 -27.0897)
(4.19081 0.11956 -27.0894)
(4.17913 0.089679 -27.0939)
(3.97039 0.0715655 -27.0931)
(3.98707 0.0612516 -27.0962)
(3.82758 0.0535437 -27.0957)
(3.858 0.0487806 -27.098)
(3.73239 0.0440996 -27.0979)
(3.76847 0.0422103 -27.0996)
(3.66621 0.0373368 -27.0997)
(3.70559 0.0392714 -27.1007)
(3.61695 0.0291053 -27.1015)
(3.66583 0.0399825 -27.101)
(3.57398 0.0115848 -27.104)
(3.66687 0.0342143 -27.0992)
(3.52351 -0.0208264 -27.1093)
(3.87107 -0.0632743 -27.0788)
(4.71388 0.280569 -27.056)
(5.18495 0.199438 -27.0794)
(5.27945 0.175736 -27.0721)
(5.51381 0.115489 -27.0762)
(5.44993 0.0792339 -27.0722)
(5.57032 0.0543872 -27.0759)
(5.4774 0.0370552 -27.0731)
(5.55745 0.0251893 -27.0763)
(5.4677 0.0162496 -27.0743)
(5.52809 0.0091422 -27.0771)
(5.44839 0.00430573 -27.076)
(5.49577 -0.000837288 -27.0785)
(5.4283 -0.00263725 -27.0781)
(5.46339 -0.00752671 -27.0799)
(5.41204 -0.00530846 -27.0803)
(5.42666 -0.0116326 -27.0811)
(5.40374 0.000157598 -27.0829)
(5.36637 -0.00776272 -27.0817)
(5.38971 0.0317428 -27.086)
(5.23997 0.0616324 -27.0651)
(4.69175 0.16493 -27.0646)
(5.10413 0.124894 -27.0884)
(5.29374 0.116108 -27.0826)
(5.62171 0.0860265 -27.0848)
(5.66829 0.0675109 -27.0815)
(5.87853 0.0553187 -27.0834)
(5.8749 0.0466426 -27.0814)
(6.02206 0.0408609 -27.083)
(6.00058 0.0359709 -27.0818)
(6.11018 0.0323103 -27.0832)
(6.08112 0.0288121 -27.0827)
(6.16655 0.0264689 -27.084)
(6.13306 0.0231917 -27.084)
(6.20442 0.0226499 -27.0852)
(6.16529 0.0175672 -27.0856)
(6.23518 0.0207866 -27.0864)
(6.1849 0.00919937 -27.0873)
(6.2813 0.0170677 -27.0876)
(6.21401 -0.00138743 -27.0889)
(6.42398 -0.00865085 -27.069)
(4.69298 -2.22734e-08 -27.0599)
(5.10107 4.62874e-08 -27.0821)
(5.29992 -4.20747e-08 -27.0734)
(5.64162 1.56008e-07 -27.0758)
(5.70111 -4.1962e-08 -27.0704)
(5.92522 4.63996e-07 -27.0729)
(5.93771 1.605e-07 -27.0692)
(6.10025 1.23633e-06 -27.0715)
(6.09701 1.09585e-06 -27.0688)
(6.2211 3.53065e-06 -27.071)
(6.21105 3.92705e-06 -27.0693)
(6.30645 1.18752e-05 -27.0714)
(6.29457 9.27166e-06 -27.0704)
(6.36436 4.46605e-05 -27.0724)
(6.35846 1.35275e-05 -27.0719)
(6.39471 0.000157763 -27.0738)
(6.41285 1.99639e-05 -27.0736)
(6.38287 0.000461883 -27.0753)
(6.44792 0.000135938 -27.0752)
(6.30407 0.000784806 -27.0577)
(4.69175 -0.16493 -27.0646)
(5.10413 -0.124894 -27.0884)
(5.29374 -0.116108 -27.0826)
(5.62171 -0.0860263 -27.0848)
(5.66829 -0.0675108 -27.0815)
(5.87854 -0.055318 -27.0835)
(5.8749 -0.0466419 -27.0814)
(6.02206 -0.0408594 -27.083)
(6.00058 -0.0359677 -27.0818)
(6.11019 -0.0323065 -27.0832)
(6.08112 -0.0288013 -27.0826)
(6.16657 -0.0264573 -27.0841)
(6.13307 -0.0231629 -27.0839)
(6.20446 -0.0226056 -27.0853)
(6.16532 -0.0175022 -27.0854)
(6.23528 -0.020627 -27.0867)
(6.18506 -0.00903869 -27.087)
(6.28151 -0.0166036 -27.088)
(6.21444 0.00199781 -27.0885)
(6.42462 0.00988179 -27.0695)
(4.71388 -0.280569 -27.056)
(5.18495 -0.199438 -27.0794)
(5.27945 -0.175736 -27.0721)
(5.51381 -0.115489 -27.0762)
(5.44993 -0.0792338 -27.0722)
(5.57032 -0.0543865 -27.076)
(5.4774 -0.0370548 -27.073)
(5.55745 -0.0251876 -27.0763)
(5.4677 -0.0162478 -27.0743)
(5.52811 -0.0091373 -27.0772)
(5.44839 -0.00430005 -27.0759)
(5.49582 0.000853697 -27.0786)
(5.4283 0.00264845 -27.0778)
(5.4635 0.00758898 -27.0803)
(5.41206 0.00531561 -27.0798)
(5.42694 0.0118532 -27.0819)
(5.40391 -0.000173916 -27.0817)
(5.36705 0.00839529 -27.0835)
(5.39052 -0.0316106 -27.0834)
(5.24193 -0.0602346 -27.0687)
(4.59618 -0.535059 -27.0543)
(4.79008 -0.360024 -27.0832)
(4.50531 -0.270931 -27.0829)
(4.46754 -0.173655 -27.0897)
(4.19081 -0.11956 -27.0894)
(4.17913 -0.0896789 -27.0939)
(3.97039 -0.0715648 -27.0931)
(3.98708 -0.0612514 -27.0962)
(3.82758 -0.0535415 -27.0957)
(3.85801 -0.04878 -27.0981)
(3.7324 -0.0440926 -27.0978)
(3.76851 -0.0422075 -27.0997)
(3.66624 -0.0373182 -27.0995)
(3.7057 -0.0392552 -27.101)
(3.61707 -0.029063 -27.1009)
(3.66608 -0.0399083 -27.1021)
(3.57443 -0.0114869 -27.102)
(3.66746 -0.0339778 -27.1028)
(3.5248 0.0211445 -27.1025)
(3.87299 0.0635602 -27.091)
(3.52519 -0.409788 -27.0294)
(2.85439 -0.14259 -27.0661)
(2.13414 -0.0410836 -27.068)
(1.95379 0.0236467 -27.0751)
(1.69328 0.0427487 -27.0733)
(1.69198 0.0486162 -27.0774)
(1.54619 0.049341 -27.0753)
(1.58077 0.0480818 -27.0784)
(1.4747 0.0467844 -27.0767)
(1.51462 0.0454677 -27.0792)
(1.4307 0.0439043 -27.0778)
(1.46934 0.0437993 -27.0798)
(1.40086 0.0408652 -27.0786)
(1.43661 0.0436039 -27.0803)
(1.37891 0.0350312 -27.0794)
(1.41208 0.0451748 -27.0807)
(1.35961 0.0148588 -27.0799)
(1.38138 0.0443795 -27.081)
(1.35415 -0.0884628 -27.0803)
(1.15259 -0.121369 -27.079)
(4.49861 0.184293 0.00531727)
(3.76991 0.269259 0.00371996)
(3.20037 0.229654 0.00449627)
(2.66894 0.155597 0.00346771)
(2.42587 0.108032 0.00420484)
(2.18528 0.0770343 0.00338467)
(2.12075 0.0626238 0.00403345)
(2.00231 0.0547102 0.00333176)
(1.99047 0.0512945 0.00388161)
(1.91805 0.0494956 0.00327251)
(1.91875 0.0480266 0.00373511)
(1.86859 0.0482527 0.00320734)
(1.87175 0.0454925 0.00359707)
(1.83541 0.0488104 0.00314133)
(1.83815 0.0392105 0.00347059)
(1.81436 0.0528165 0.00307706)
(1.80877 0.0129933 0.00335885)
(1.83476 0.0596564 0.00301356)
(1.74942 -0.120559 0.00329116)
(2.18617 -0.161261 0.00289478)
(4.62389 0.103492 0.00345267)
(4.66186 0.220594 0.00216357)
(4.7906 0.195271 0.00289783)
(4.67319 0.141443 0.00188166)
(4.65061 0.087499 0.00261246)
(4.50506 0.0467923 0.00178966)
(4.46805 0.0205069 0.00243492)
(4.35277 0.00445904 0.00173147)
(4.3266 -0.00568591 0.00227934)
(4.24115 -0.0119675 0.00166959)
(4.22407 -0.0160993 0.00213071)
(4.16028 -0.019876 0.00160335)
(4.14984 -0.0202708 0.00199072)
(4.09952 -0.0254424 0.00153745)
(4.09717 -0.0191491 0.00186007)
(4.04736 -0.0309887 0.00147432)
(4.06592 -0.00926411 0.00173271)
(3.97543 -0.0261523 0.00140727)
(4.06446 0.00403751 0.00158045)
(3.69794 0.0740154 0.00122198)
(4.55795 0.0589721 0.0047424)
(4.71739 0.17818 0.00354209)
(5.02523 0.203707 0.00424444)
(5.13187 0.179052 0.00321767)
(5.30061 0.14799 0.00393772)
(5.31461 0.117422 0.00311003)
(5.3915 0.0965176 0.00375617)
(5.37118 0.0808687 0.00305368)
(5.4099 0.0699863 0.00360485)
(5.38396 0.0619991 0.00299666)
(5.40539 0.0552452 0.00346102)
(5.38252 0.0509177 0.00293375)
(5.39298 0.0452249 0.00332542)
(5.37784 0.0440966 0.00286892)
(5.3757 0.0357458 0.00320225)
(5.37924 0.0406485 0.00280517)
(5.35137 0.016919 0.00310092)
(5.40552 0.0358493 0.00274608)
(5.3351 -0.0453161 0.00307383)
(5.48194 -0.0428631 0.00270234)
(4.51683 0.0274856 0.00328742)
(4.58582 0.0682601 0.00220287)
(4.91539 0.0700864 0.00289408)
(5.07281 0.0610432 0.00188742)
(5.31749 0.0475765 0.00260264)
(5.40751 0.0351937 0.00177427)
(5.55636 0.026119 0.00241588)
(5.6027 0.0196241 0.00171146)
(5.69927 0.0149464 0.00225927)
(5.72597 0.0114736 0.0016504)
(5.79336 0.00871726 0.00211187)
(5.80926 0.0062024 0.00158561)
(5.85934 0.00475201 0.00197273)
(5.86546 0.00206724 0.00152058)
(5.90847 0.00272278 0.00184139)
(5.89578 -0.00125381 0.00145668)
(5.94944 0.00298128 0.00170759)
(5.87331 0.000839026 0.00138184)
(5.9762 0.00171931 0.00151798)
(5.67103 0.0311686 0.00121247)
(4.54803 -7.39271e-09 0.00465415)
(4.66685 5.05115e-08 0.00357074)
(4.9701 4.71013e-09 0.0042511)
(5.11875 1.33868e-07 0.00322982)
(5.35498 4.7596e-08 0.00394148)
(5.44719 3.35204e-07 0.0031098)
(5.601 3.43959e-07 0.00375367)
(5.65626 8.01058e-07 0.00305)
(5.76245 1.41692e-06 0.00360115)
(5.80147 2.03845e-06 0.00299306)
(5.87905 4.64322e-06 0.00345786)
(5.90997 5.75879e-06 0.00293089)
(5.96616 1.30385e-05 0.00332305)
(5.99441 1.76017e-05 0.0028667)
(6.02948 3.58849e-05 0.00320112)
(6.06605 5.00734e-05 0.00280366)
(6.07269 0.000112762 0.00310414)
(6.13909 0.000142653 0.00274636)
(6.12596 0.000399831 0.00309063)
(6.21094 0.000572706 0.00272347)
(4.51683 -0.0274856 0.00328742)
(4.58582 -0.0682599 0.00220287)
(4.91539 -0.0700865 0.00289408)
(5.07281 -0.0610428 0.00188742)
(5.31749 -0.0475766 0.00260264)
(5.40751 -0.0351927 0.00177427)
(5.55636 -0.026119 0.00241588)
(5.60271 -0.0196213 0.00171146)
(5.69927 -0.0149453 0.00225927)
(5.72597 -0.0114657 0.00165041)
(5.79336 -0.00871343 0.00211187)
(5.80928 -0.00617753 0.00158561)
(5.85934 -0.00474307 0.00197272)
(5.8655 -0.00198489 0.00152058)
(5.90847 -0.00270647 0.00184137)
(5.89587 0.00151344 0.00145668)
(5.94951 -0.00293142 0.00170755)
(5.87356 -0.000123329 0.00138179)
(5.97655 -0.00143188 0.00151806)
(5.67174 -0.0295794 0.00121231)
(4.55795 -0.0589721 0.0047424)
(4.71739 -0.17818 0.00354209)
(5.02523 -0.203707 0.00424444)
(5.13187 -0.179052 0.00321767)
(5.30061 -0.14799 0.00393771)
(5.31461 -0.117422 0.00311003)
(5.3915 -0.0965169 0.00375617)
(5.37119 -0.0808675 0.00305368)
(5.40989 -0.0699834 0.00360484)
(5.38397 -0.0619958 0.00299667)
(5.40539 -0.0552362 0.00346101)
(5.38255 -0.050907 0.00293377)
(5.39298 -0.0452002 0.00332539)
(5.37792 -0.0440596 0.00286896)
(5.37575 -0.0356794 0.00320218)
(5.37945 -0.0405307 0.00280527)
(5.35159 -0.0167174 0.00310074)
(5.40603 -0.035537 0.00274627)
(5.33581 0.0460213 0.00307342)
(5.48335 0.0437037 0.00270244)
(4.62389 -0.103492 0.00345267)
(4.66186 -0.220594 0.00216357)
(4.7906 -0.195271 0.00289783)
(4.67319 -0.141443 0.00188166)
(4.65061 -0.0874989 0.00261246)
(4.50506 -0.0467918 0.00178966)
(4.46805 -0.0205067 0.00243492)
(4.35277 -0.00445776 0.00173147)
(4.3266 0.00568682 0.00227934)
(4.24116 0.0119712 0.0016696)
(4.22407 0.0161018 0.0021307)
(4.16033 0.0198875 0.00160335)
(4.14985 0.0202747 0.0019907)
(4.09966 0.0254819 0.00153747)
(4.09719 0.0191484 0.00186)
(4.04775 0.0311186 0.00147438)
(4.06602 0.00924952 0.00173254)
(3.97663 0.0265327 0.00140739)
(4.06481 -0.00393732 0.00158021)
(3.7018 -0.0729163 0.00122207)
(4.49861 -0.184293 0.00531727)
(3.76991 -0.269259 0.00371996)
(3.20037 -0.229654 0.00449627)
(2.66894 -0.155597 0.00346771)
(2.42587 -0.108032 0.00420484)
(2.18528 -0.0770344 0.00338467)
(2.12075 -0.0626234 0.00403345)
(2.00232 -0.0547104 0.00333177)
(1.99048 -0.0512932 0.00388161)
(1.91805 -0.0494963 0.00327251)
(1.91876 -0.0480229 0.00373511)
(1.86861 -0.0482538 0.00320735)
(1.87179 -0.0454815 0.00359704)
(1.83548 -0.0488097 0.00314136)
(1.83827 -0.0391819 0.00347051)
(1.81454 -0.0528036 0.00307719)
(1.80919 -0.0129283 0.00335859)
(1.83524 -0.0596395 0.00301402)
(1.75043 0.120639 0.00328994)
(2.1884 0.160733 0.00289716)
(4.45086 0.0629559 -1.66816e-08)
(4.24434 0.111454 -1.67669e-08)
(3.89505 0.118973 -1.68082e-08)
(3.58203 0.10298 -1.67993e-08)
(3.26676 0.0786301 -1.6862e-08)
(3.02966 0.0558711 -1.68277e-08)
(2.82548 0.0351483 -1.68979e-08)
(2.68751 0.0203643 -1.68006e-08)
(2.57796 0.0085613 -1.68396e-08)
(2.50811 0.0017068 -1.6732e-08)
(2.45526 -0.00388313 -1.6846e-08)
(2.42149 -0.00580306 -1.68009e-08)
(2.3966 -0.00873894 -1.69467e-08)
(2.381 -0.00759203 -1.68922e-08)
(2.36611 -0.0111181 -1.70405e-08)
(2.36626 -0.00632136 -1.70123e-08)
(2.34137 -0.0150815 -1.7182e-08)
(2.37936 -0.00491493 -1.7167e-08)
(2.30154 -0.0270425 -1.73405e-08)
(2.44459 -0.0410656 -1.72531e-08)
(4.51049 0.0560398 -1.66585e-08)
(4.64318 0.104144 -1.66741e-08)
(4.7188 0.130991 -1.66816e-08)
(4.79924 0.13724 -1.66631e-08)
(4.80896 0.130185 -1.67291e-08)
(4.8174 0.113993 -1.67574e-08)
(4.78686 0.0958437 -1.69068e-08)
(4.76346 0.0771827 -1.68514e-08)
(4.72379 0.062246 -1.6897e-08)
(4.6936 0.0491807 -1.67954e-08)
(4.65852 0.0403673 -1.69292e-08)
(4.63111 0.03261 -1.6916e-08)
(4.60437 0.0281369 -1.70788e-08)
(4.58213 0.0236887 -1.70118e-08)
(4.56382 0.0209524 -1.71178e-08)
(4.54676 0.0201416 -1.70314e-08)
(4.53513 0.0144919 -1.71907e-08)
(4.52414 0.0244608 -1.71615e-08)
(4.51026 0.00644056 -1.7406e-08)
(4.50661 0.0439467 -1.7302e-08)
(4.5004 0.0210173 -1.66869e-08)
(4.62214 0.051989 -1.67263e-08)
(4.72189 0.0749992 -1.67324e-08)
(4.87676 0.0853893 -1.67085e-08)
(4.99023 0.0852941 -1.6787e-08)
(5.11611 0.0789669 -1.67914e-08)
(5.19964 0.0685696 -1.68977e-08)
(5.28162 0.0581656 -1.68294e-08)
(5.33262 0.0479502 -1.69137e-08)
(5.38181 0.0399471 -1.6875e-08)
(5.41154 0.0327543 -1.70727e-08)
(5.44221 0.0279967 -1.71203e-08)
(5.46005 0.0228153 -1.73273e-08)
(5.48214 0.0209107 -1.72647e-08)
(5.493 0.0153028 -1.73356e-08)
(5.51193 0.0176096 -1.71761e-08)
(5.51976 0.00655646 -1.7285e-08)
(5.53444 0.0175274 -1.72129e-08)
(5.55246 -0.0071461 -1.74351e-08)
(5.5458 0.00926827 -1.73942e-08)
(4.49864 0.0169171 -1.66765e-08)
(4.59746 0.0319595 -1.67283e-08)
(4.68608 0.0417751 -1.6744e-08)
(4.8371 0.0457782 -1.6743e-08)
(4.95926 0.046097 -1.68251e-08)
(5.10342 0.043227 -1.68223e-08)
(5.21252 0.0391103 -1.69053e-08)
(5.32455 0.0341749 -1.68254e-08)
(5.40822 0.0298666 -1.68983e-08)
(5.49015 0.0258321 -1.68511e-08)
(5.55369 0.0228373 -1.70281e-08)
(5.61472 0.0202002 -1.70623e-08)
(5.66601 0.0182277 -1.72557e-08)
(5.71234 0.0167707 -1.72554e-08)
(5.7584 0.0148021 -1.73932e-08)
(5.78959 0.0153027 -1.72019e-08)
(5.84111 0.0109958 -1.72936e-08)
(5.8433 0.0172751 -1.72869e-08)
(5.9228 0.00664733 -1.74351e-08)
(5.8606 0.0261369 -1.73613e-08)
(4.49936 -2.71276e-08 -1.66891e-08)
(4.60903 8.02626e-08 -1.6738e-08)
(4.6985 -6.0957e-08 -1.67667e-08)
(4.84866 2.00672e-07 -1.67752e-08)
(4.96741 -5.93651e-08 -1.68583e-08)
(5.11021 5.02469e-07 -1.68353e-08)
(5.21943 1.66577e-07 -1.6913e-08)
(5.33395 1.24769e-06 -1.68532e-08)
(5.42099 1.00343e-06 -1.69672e-08)
(5.50815 3.50457e-06 -1.69411e-08)
(5.57645 3.09928e-06 -1.70934e-08)
(5.64468 1.11623e-05 -1.70463e-08)
(5.70058 7.00755e-06 -1.71592e-08)
(5.75644 3.62661e-05 -1.70826e-08)
(5.80529 1.59531e-05 -1.72092e-08)
(5.84972 0.000105697 -1.71356e-08)
(5.9011 5.80951e-05 -1.72565e-08)
(5.92213 0.000261079 -1.72357e-08)
(6.00633 0.000271782 -1.73967e-08)
(5.96875 0.000565453 -1.72972e-08)
(4.49864 -0.0169171 -1.66786e-08)
(4.59746 -0.0319593 -1.67341e-08)
(4.68608 -0.0417752 -1.67693e-08)
(4.8371 -0.0457778 -1.67943e-08)
(4.95925 -0.0460972 -1.68708e-08)
(5.10342 -0.0432259 -1.68346e-08)
(5.21252 -0.0391102 -1.69029e-08)
(5.32455 -0.0341721 -1.68719e-08)
(5.40822 -0.0298655 -1.70237e-08)
(5.49016 -0.025824 -1.70165e-08)
(5.55369 -0.0228337 -1.71344e-08)
(5.61472 -0.0201747 -1.7016e-08)
(5.66602 -0.0182209 -1.70602e-08)
(5.71235 -0.01669 -1.69456e-08)
(5.75843 -0.014789 -1.70887e-08)
(5.78962 -0.0150723 -1.70792e-08)
(5.84121 -0.0109253 -1.72601e-08)
(5.8434 -0.0167156 -1.72312e-08)
(5.92309 -0.00620861 -1.73525e-08)
(5.86097 -0.0249611 -1.72157e-08)
(4.5004 -0.0210174 -1.66906e-08)
(4.62214 -0.0519889 -1.67508e-08)
(4.72189 -0.0749993 -1.68054e-08)
(4.87676 -0.085389 -1.68425e-08)
(4.99023 -0.0852941 -1.69217e-08)
(5.11611 -0.0789661 -1.68707e-08)
(5.19964 -0.0685693 -1.69329e-08)
(5.28162 -0.0581634 -1.68977e-08)
(5.33262 -0.0479484 -1.70414e-08)
(5.38182 -0.0399409 -1.70063e-08)
(5.41153 -0.0327488 -1.70832e-08)
(5.44224 -0.0279771 -1.6925e-08)
(5.46005 -0.0228036 -1.69549e-08)
(5.4822 -0.0208467 -1.69053e-08)
(5.49304 -0.0152792 -1.71275e-08)
(5.51208 -0.0174218 -1.70935e-08)
(5.51995 -0.00647208 -1.72013e-08)
(5.53479 -0.0170657 -1.72128e-08)
(5.55309 0.00757468 -1.73341e-08)
(5.5468 -0.00829748 -1.71759e-08)
(4.51049 -0.0560398 -1.67023e-08)
(4.64318 -0.104144 -1.6797e-08)
(4.7188 -0.130991 -1.68477e-08)
(4.79924 -0.13724 -1.68811e-08)
(4.80896 -0.130185 -1.69597e-08)
(4.8174 -0.113992 -1.6887e-08)
(4.78686 -0.0958433 -1.69074e-08)
(4.76347 -0.0771812 -1.68669e-08)
(4.72379 -0.0622447 -1.70415e-08)
(4.69362 -0.0491761 -1.70566e-08)
(4.65851 -0.0403643 -1.71809e-08)
(4.63117 -0.0325942 -1.70799e-08)
(4.60435 -0.0281337 -1.71673e-08)
(4.58229 -0.0236355 -1.71113e-08)
(4.56382 -0.0209535 -1.72802e-08)
(4.54716 -0.0199849 -1.72429e-08)
(4.53526 -0.0144798 -1.7375e-08)
(4.52511 -0.0240827 -1.72581e-08)
(4.51082 -0.00622864 -1.73659e-08)
(4.50916 -0.0431775 -1.71972e-08)
(4.45086 -0.0629559 -1.66972e-08)
(4.24434 -0.111454 -1.67132e-08)
(3.89505 -0.118973 -1.67343e-08)
(3.58203 -0.10298 -1.67512e-08)
(3.26676 -0.0786299 -1.68214e-08)
(3.02966 -0.0558712 -1.67849e-08)
(2.82548 -0.0351478 -1.68931e-08)
(2.68751 -0.0203645 -1.6921e-08)
(2.57796 -0.00855974 -1.71221e-08)
(2.50812 -0.00170708 -1.71356e-08)
(2.45527 0.00388696 -1.72687e-08)
(2.42153 0.00580381 -1.71956e-08)
(2.39663 0.00874643 -1.73064e-08)
(2.38111 0.00759986 -1.72392e-08)
(2.36624 0.0111303 -1.73546e-08)
(2.36655 0.00635462 -1.72652e-08)
(2.34173 0.0151084 -1.73595e-08)
(2.38029 0.00499971 -1.72638e-08)
(2.30207 0.0271652 -1.73846e-08)
(2.44846 0.0411185 -1.73065e-08)
(4.49861 0.184293 -0.0053173)
(3.76991 0.269259 -0.00371999)
(3.20037 0.229654 -0.00449629)
(2.66894 0.155597 -0.00346773)
(2.42587 0.108032 -0.00420487)
(2.18528 0.0770343 -0.0033847)
(2.12075 0.0626238 -0.00403347)
(2.00231 0.0547102 -0.00333179)
(1.99047 0.0512945 -0.00388164)
(1.91805 0.0494957 -0.00327254)
(1.91875 0.0480266 -0.00373514)
(1.86859 0.0482527 -0.00320737)
(1.87175 0.0454925 -0.00359709)
(1.83541 0.0488104 -0.00314135)
(1.83815 0.0392105 -0.00347062)
(1.81436 0.0528165 -0.00307709)
(1.80877 0.0129933 -0.00335888)
(1.83476 0.0596564 -0.00301359)
(1.74942 -0.120559 -0.00329119)
(2.18617 -0.161261 -0.0028948)
(4.62389 0.103492 -0.0034527)
(4.66186 0.220594 -0.0021636)
(4.7906 0.195271 -0.00289786)
(4.67319 0.141443 -0.00188168)
(4.65061 0.087499 -0.00261248)
(4.50506 0.0467923 -0.00178969)
(4.46805 0.0205069 -0.00243495)
(4.35277 0.00445904 -0.0017315)
(4.3266 -0.00568592 -0.00227937)
(4.24115 -0.0119675 -0.00166962)
(4.22407 -0.0160993 -0.00213074)
(4.16028 -0.019876 -0.00160338)
(4.14984 -0.0202708 -0.00199075)
(4.09952 -0.0254424 -0.00153748)
(4.09717 -0.0191491 -0.0018601)
(4.04735 -0.0309887 -0.00147435)
(4.06592 -0.00926413 -0.00173274)
(3.97543 -0.0261524 -0.0014073)
(4.06446 0.0040375 -0.00158048)
(3.69794 0.0740154 -0.001222)
(4.55795 0.0589721 -0.00474243)
(4.71739 0.17818 -0.00354212)
(5.02523 0.203707 -0.00424447)
(5.13187 0.179052 -0.00321769)
(5.30061 0.14799 -0.00393774)
(5.31461 0.117422 -0.00311006)
(5.3915 0.0965176 -0.0037562)
(5.37118 0.0808687 -0.00305371)
(5.4099 0.0699863 -0.00360488)
(5.38396 0.0619991 -0.00299669)
(5.40539 0.0552452 -0.00346105)
(5.38252 0.0509177 -0.00293378)
(5.39298 0.0452249 -0.00332545)
(5.37783 0.0440966 -0.00286895)
(5.3757 0.0357457 -0.00320228)
(5.37924 0.0406485 -0.00280519)
(5.35137 0.016919 -0.00310095)
(5.40552 0.0358492 -0.00274611)
(5.3351 -0.0453161 -0.00307385)
(5.48194 -0.0428631 -0.00270237)
(4.51683 0.0274856 -0.00328745)
(4.58582 0.0682601 -0.0022029)
(4.91539 0.0700864 -0.00289411)
(5.07281 0.0610432 -0.00188745)
(5.31749 0.0475764 -0.00260267)
(5.40751 0.0351937 -0.0017743)
(5.55636 0.026119 -0.00241591)
(5.6027 0.0196241 -0.00171149)
(5.69927 0.0149464 -0.0022593)
(5.72597 0.0114736 -0.00165043)
(5.79336 0.00871725 -0.0021119)
(5.80926 0.00620239 -0.00158564)
(5.85934 0.004752 -0.00197276)
(5.86546 0.00206722 -0.00152061)
(5.90846 0.00272277 -0.00184142)
(5.89578 -0.00125384 -0.00145671)
(5.94944 0.00298126 -0.00170762)
(5.87331 0.000838996 -0.00138187)
(5.9762 0.00171929 -0.00151801)
(5.67103 0.0311686 -0.0012125)
(4.54803 -8.83764e-09 -0.00465418)
(4.66685 4.3311e-08 -0.00357077)
(4.9701 -1.99556e-09 -0.00425113)
(5.11875 1.27586e-07 -0.00322985)
(5.35498 4.59004e-08 -0.00394151)
(5.44719 3.34057e-07 -0.00310982)
(5.601 3.45854e-07 -0.0037537)
(5.65626 8.00472e-07 -0.00305003)
(5.76245 1.41499e-06 -0.00360118)
(5.80147 2.0355e-06 -0.00299309)
(5.87905 4.63721e-06 -0.00345789)
(5.90997 5.7497e-06 -0.00293092)
(5.96616 1.30156e-05 -0.00332308)
(5.99441 1.75851e-05 -0.00286673)
(6.02948 3.5856e-05 -0.00320114)
(6.06605 5.00595e-05 -0.00280369)
(6.07269 0.00011274 -0.00310417)
(6.13909 0.000142638 -0.00274639)
(6.12596 0.000399818 -0.00309066)
(6.21094 0.000572679 -0.0027235)
(4.51683 -0.0274856 -0.00328745)
(4.58582 -0.0682599 -0.0022029)
(4.91539 -0.0700865 -0.00289411)
(5.07281 -0.0610428 -0.00188745)
(5.31749 -0.0475766 -0.00260267)
(5.40751 -0.0351927 -0.0017743)
(5.55636 -0.026119 -0.00241591)
(5.60271 -0.0196213 -0.00171149)
(5.69927 -0.0149453 -0.0022593)
(5.72597 -0.0114657 -0.00165043)
(5.79335 -0.00871343 -0.0021119)
(5.80928 -0.00617753 -0.00158564)
(5.85934 -0.00474307 -0.00197275)
(5.8655 -0.0019849 -0.00152061)
(5.90847 -0.00270648 -0.0018414)
(5.89587 0.00151343 -0.00145671)
(5.94951 -0.00293143 -0.00170758)
(5.87356 -0.000123349 -0.00138182)
(5.97655 -0.00143189 -0.00151809)
(5.67174 -0.0295795 -0.00121234)
(4.55795 -0.0589721 -0.00474243)
(4.71739 -0.17818 -0.00354212)
(5.02523 -0.203707 -0.00424447)
(5.13187 -0.179052 -0.00321769)
(5.30061 -0.14799 -0.00393774)
(5.31461 -0.117422 -0.00311006)
(5.3915 -0.0965169 -0.0037562)
(5.37119 -0.0808675 -0.00305371)
(5.40989 -0.0699834 -0.00360487)
(5.38397 -0.0619958 -0.0029967)
(5.40539 -0.0552362 -0.00346104)
(5.38255 -0.050907 -0.0029338)
(5.39298 -0.0452002 -0.00332542)
(5.37792 -0.0440596 -0.00286899)
(5.37575 -0.0356794 -0.00320221)
(5.37945 -0.0405307 -0.00280529)
(5.35159 -0.0167174 -0.00310077)
(5.40603 -0.0355371 -0.0027463)
(5.33581 0.0460213 -0.00307345)
(5.48335 0.0437037 -0.00270247)
(4.62389 -0.103492 -0.0034527)
(4.66186 -0.220594 -0.0021636)
(4.7906 -0.195271 -0.00289786)
(4.67319 -0.141443 -0.00188168)
(4.65061 -0.0874989 -0.00261248)
(4.50506 -0.0467918 -0.00178969)
(4.46805 -0.0205066 -0.00243495)
(4.35277 -0.00445774 -0.0017315)
(4.3266 0.00568683 -0.00227937)
(4.24116 0.0119712 -0.00166962)
(4.22407 0.0161018 -0.00213073)
(4.16033 0.0198875 -0.00160338)
(4.14985 0.0202747 -0.00199073)
(4.09966 0.0254819 -0.0015375)
(4.09719 0.0191484 -0.00186003)
(4.04775 0.0311186 -0.00147441)
(4.06602 0.00924953 -0.00173257)
(3.97663 0.0265327 -0.00140742)
(4.06481 -0.00393732 -0.00158024)
(3.7018 -0.0729163 -0.0012221)
(4.49861 -0.184293 -0.0053173)
(3.76991 -0.269259 -0.00371999)
(3.20037 -0.229654 -0.00449629)
(2.66894 -0.155597 -0.00346774)
(2.42587 -0.108032 -0.00420487)
(2.18528 -0.0770344 -0.0033847)
(2.12075 -0.0626234 -0.00403347)
(2.00232 -0.0547104 -0.00333179)
(1.99048 -0.0512932 -0.00388164)
(1.91805 -0.0494963 -0.00327254)
(1.91876 -0.0480229 -0.00373514)
(1.86861 -0.0482537 -0.00320738)
(1.87179 -0.0454815 -0.00359707)
(1.83548 -0.0488097 -0.00314139)
(1.83827 -0.0391819 -0.00347054)
(1.81454 -0.0528036 -0.00307722)
(1.80919 -0.0129283 -0.00335862)
(1.83524 -0.0596395 -0.00301405)
(1.75043 0.120639 -0.00328997)
(2.1884 0.160733 -0.00289719)
(3.52519 0.409788 27.0294)
(2.85439 0.14259 27.0661)
(2.13414 0.0410836 27.068)
(1.95379 -0.0236467 27.0751)
(1.69328 -0.0427488 27.0733)
(1.69198 -0.0486161 27.0774)
(1.54619 -0.0493412 27.0753)
(1.58077 -0.0480814 27.0784)
(1.47469 -0.0467849 27.0767)
(1.51462 -0.0454668 27.0792)
(1.43069 -0.043906 27.0778)
(1.46932 -0.0437971 27.0798)
(1.40084 -0.0408701 27.0787)
(1.43654 -0.043598 27.0802)
(1.37884 -0.0350436 27.0795)
(1.41192 -0.0451592 27.0804)
(1.3593 -0.0148894 27.0806)
(1.38098 -0.044323 27.0798)
(1.35319 0.0884917 27.083)
(1.15093 0.121935 27.0709)
(4.59618 0.535059 27.0543)
(4.79008 0.360024 27.0832)
(4.50531 0.270931 27.0829)
(4.46754 0.173655 27.0897)
(4.19081 0.11956 27.0894)
(4.17913 0.089679 27.0939)
(3.97039 0.0715655 27.0931)
(3.98707 0.0612516 27.0962)
(3.82758 0.0535438 27.0957)
(3.85799 0.0487806 27.098)
(3.73239 0.0440996 27.0979)
(3.76847 0.0422103 27.0996)
(3.66621 0.0373368 27.0997)
(3.70559 0.0392714 27.1007)
(3.61695 0.0291053 27.1015)
(3.66583 0.0399825 27.101)
(3.57397 0.0115848 27.104)
(3.66687 0.0342143 27.0992)
(3.52351 -0.0208264 27.1093)
(3.87107 -0.0632743 27.0788)
(4.71388 0.280569 27.056)
(5.18495 0.199439 27.0794)
(5.27945 0.175736 27.0721)
(5.51381 0.115489 27.0762)
(5.44993 0.0792339 27.0722)
(5.57032 0.0543872 27.0759)
(5.4774 0.0370552 27.0731)
(5.55745 0.0251893 27.0763)
(5.4677 0.0162496 27.0743)
(5.52809 0.00914222 27.0771)
(5.44839 0.00430575 27.076)
(5.49577 -0.000837273 27.0785)
(5.4283 -0.00263724 27.0781)
(5.46339 -0.00752669 27.0799)
(5.41204 -0.00530845 27.0803)
(5.42666 -0.0116326 27.0811)
(5.40373 0.000157608 27.0829)
(5.36637 -0.00776273 27.0817)
(5.38971 0.0317428 27.086)
(5.23997 0.0616324 27.0651)
(4.69175 0.16493 27.0646)
(5.10413 0.124894 27.0884)
(5.29374 0.116108 27.0826)
(5.62171 0.0860266 27.0848)
(5.66829 0.0675109 27.0815)
(5.87853 0.0553187 27.0834)
(5.8749 0.0466426 27.0814)
(6.02206 0.0408609 27.083)
(6.00058 0.0359709 27.0818)
(6.11018 0.0323103 27.0832)
(6.08112 0.0288121 27.0827)
(6.16655 0.0264689 27.084)
(6.13306 0.0231917 27.084)
(6.20442 0.0226499 27.0852)
(6.16529 0.0175672 27.0856)
(6.23518 0.0207865 27.0864)
(6.1849 0.00919936 27.0873)
(6.2813 0.0170677 27.0876)
(6.21401 -0.00138743 27.0889)
(6.42398 -0.00865087 27.069)
(4.69298 4.30661e-10 27.0599)
(5.10107 6.81015e-08 27.0821)
(5.29992 7.68531e-09 27.0734)
(5.64162 1.97837e-07 27.0758)
(5.70111 1.5364e-08 27.0704)
(5.92522 5.16884e-07 27.0729)
(5.93771 2.26186e-07 27.0692)
(6.10025 1.29785e-06 27.0715)
(6.09701 1.15594e-06 27.0688)
(6.2211 3.58151e-06 27.071)
(6.21105 3.97105e-06 27.0693)
(6.30645 1.19127e-05 27.0714)
(6.29457 9.29683e-06 27.0704)
(6.36436 4.46813e-05 27.0724)
(6.35846 1.35447e-05 27.0719)
(6.39471 0.000157785 27.0738)
(6.41285 1.99963e-05 27.0736)
(6.38287 0.000461907 27.0753)
(6.44792 0.000135952 27.0752)
(6.30407 0.000784787 27.0577)
(4.69175 -0.16493 27.0646)
(5.10413 -0.124894 27.0884)
(5.29374 -0.116108 27.0826)
(5.62171 -0.0860263 27.0848)
(5.66829 -0.0675108 27.0815)
(5.87854 -0.055318 27.0835)
(5.8749 -0.0466418 27.0814)
(6.02206 -0.0408594 27.083)
(6.00058 -0.0359677 27.0818)
(6.11019 -0.0323065 27.0832)
(6.08112 -0.0288013 27.0826)
(6.16657 -0.0264573 27.0841)
(6.13306 -0.0231628 27.0839)
(6.20446 -0.0226056 27.0853)
(6.16532 -0.0175022 27.0854)
(6.23528 -0.0206269 27.0867)
(6.18506 -0.00903866 27.087)
(6.28151 -0.0166036 27.088)
(6.21444 0.00199782 27.0885)
(6.42461 0.00988179 27.0695)
(4.71388 -0.280569 27.056)
(5.18495 -0.199438 27.0794)
(5.27945 -0.175736 27.0721)
(5.51381 -0.115489 27.0762)
(5.44993 -0.0792338 27.0722)
(5.57032 -0.0543865 27.076)
(5.4774 -0.0370548 27.073)
(5.55745 -0.0251875 27.0763)
(5.4677 -0.0162478 27.0743)
(5.52811 -0.00913727 27.0772)
(5.44839 -0.00430001 27.0759)
(5.49582 0.000853732 27.0786)
(5.4283 0.00264849 27.0778)
(5.4635 0.00758902 27.0803)
(5.41206 0.00531563 27.0798)
(5.42694 0.0118532 27.0819)
(5.40391 -0.000173898 27.0817)
(5.36705 0.0083953 27.0835)
(5.39052 -0.0316106 27.0834)
(5.24193 -0.0602346 27.0687)
(4.59618 -0.535059 27.0543)
(4.79008 -0.360024 27.0832)
(4.50531 -0.270931 27.0829)
(4.46754 -0.173655 27.0897)
(4.19081 -0.11956 27.0894)
(4.17913 -0.0896789 27.0939)
(3.97039 -0.0715648 27.0931)
(3.98708 -0.0612513 27.0962)
(3.82758 -0.0535415 27.0957)
(3.85801 -0.0487799 27.0981)
(3.7324 -0.0440925 27.0978)
(3.76851 -0.0422075 27.0997)
(3.66624 -0.0373182 27.0995)
(3.7057 -0.0392552 27.101)
(3.61707 -0.029063 27.1009)
(3.66608 -0.0399083 27.1021)
(3.57443 -0.0114869 27.102)
(3.66746 -0.0339778 27.1028)
(3.5248 0.0211445 27.1025)
(3.87299 0.0635602 27.091)
(3.52519 -0.409788 27.0294)
(2.85439 -0.14259 27.0661)
(2.13414 -0.0410836 27.068)
(1.95379 0.0236467 27.0751)
(1.69328 0.0427487 27.0733)
(1.69198 0.0486162 27.0774)
(1.54619 0.049341 27.0753)
(1.58077 0.0480818 27.0784)
(1.4747 0.0467844 27.0767)
(1.51462 0.0454677 27.0792)
(1.4307 0.0439043 27.0778)
(1.46934 0.0437993 27.0798)
(1.40086 0.0408652 27.0786)
(1.43661 0.0436038 27.0803)
(1.37891 0.0350312 27.0794)
(1.41208 0.0451748 27.0807)
(1.3596 0.0148588 27.0799)
(1.38138 0.0443795 27.081)
(1.35415 -0.0884628 27.0803)
(1.15259 -0.121369 27.079)
(1.17084 -0.154459 -27.1216)
(1.2482 -0.144686 -27.2313)
(1.19849 -0.113084 -27.2947)
(1.21695 -0.109298 -27.3406)
(1.18442 -0.108796 -27.372)
(1.20115 -0.10866 -27.3974)
(1.17612 -0.109001 -27.4155)
(1.19049 -0.108976 -27.4306)
(1.17023 -0.109208 -27.4413)
(1.18264 -0.109149 -27.4499)
(1.16581 -0.109285 -27.4556)
(1.17675 -0.109204 -27.4599)
(1.16252 -0.109281 -27.4624)
(1.17234 -0.109196 -27.4642)
(1.16013 -0.109243 -27.465)
(1.16908 -0.109164 -27.4656)
(1.1585 -0.109198 -27.4658)
(1.16674 -0.10913 -27.4659)
(1.15747 -0.109158 -27.4659)
(1.16513 -0.1091 -27.4658)
(1.15694 -0.109124 -27.4657)
(1.16409 -0.109075 -27.4656)
(1.15681 -0.109097 -27.4654)
(1.16352 -0.109054 -27.4653)
(1.15701 -0.109074 -27.4651)
(1.16331 -0.109037 -27.465)
(1.15747 -0.109056 -27.4648)
(1.1634 -0.109023 -27.4646)
(1.15813 -0.10904 -27.4645)
(1.16373 -0.109011 -27.4643)
(1.15897 -0.109027 -27.4641)
(1.16425 -0.109001 -27.4639)
(1.15994 -0.109016 -27.4637)
(1.16492 -0.108992 -27.4635)
(1.16102 -0.109006 -27.4633)
(1.16573 -0.108985 -27.4631)
(1.16219 -0.108997 -27.4629)
(1.16664 -0.108978 -27.4627)
(1.16343 -0.108989 -27.4625)
(1.16764 -0.108972 -27.4623)
(1.16473 -0.108982 -27.4621)
(1.16872 -0.108966 -27.4619)
(1.16607 -0.108976 -27.4617)
(1.16985 -0.108961 -27.4615)
(1.16745 -0.10897 -27.4613)
(1.17104 -0.108956 -27.4611)
(1.16886 -0.108964 -27.4609)
(1.17226 -0.108952 -27.4607)
(1.17029 -0.108959 -27.4605)
(1.17352 -0.108947 -27.4603)
(1.17173 -0.108954 -27.4601)