/*--------------------------------*- C++ -*----------------------------------*\
  =========                 |
  \\      /  F ield         | OpenFOAM: The Open Source CFD Toolbox
   \\    /   O peration     | Website:  https://openfoam.org
    \\  /    A nd           | Version:  7
     \\/     M anipulation  |
\*---------------------------------------------------------------------------*/
FoamFile
{
    version     2.0;
    format      ascii;
    class       volVectorField;
    location    "1.7";
    object      U_0;
}
// * * * * * * * * * * * * * * * * * * * * * * * * * * * * * * * * * * * * * //

dimensions      [0 1 -1 0 0 0 0];

internalField   nonuniform List<vector> 
4950
(
(-2.57754 -6.87894 -219.313)
(3.20183 -8.42831 -226.201)
(-0.0996133 -8.77473 -225.587)
(1.65473 -8.62368 -226.119)
(0.639787 -8.73535 -225.88)
(1.28985 -8.66989 -226.03)
(0.938461 -8.71335 -225.943)
(1.18946 -8.6898 -225.994)
(1.0716 -8.70474 -225.962)
(1.18317 -8.69551 -225.98)
(1.15122 -8.6982 -225.969)
(1.22505 -8.69386 -225.974)
(1.22442 -8.689 -225.973)
(1.3135 -8.68628 -225.968)
(1.32128 -8.67276 -225.974)
(1.47674 -8.67047 -225.957)
(1.47757 -8.63942 -225.978)
(1.75795 -8.63648 -225.933)
(1.73433 -8.5192 -225.989)
(1.81669 -8.45626 -226.174)
(-1.03269 4.88197 -235.412)
(6.34725 4.78847 -241.712)
(1.33719 4.74967 -243.485)
(4.18079 4.79925 -243.814)
(2.43217 4.66278 -244.087)
(3.53283 4.71625 -244.111)
(2.92387 4.67845 -244.19)
(3.36121 4.69713 -244.19)
(3.16141 4.68558 -244.212)
(3.36134 4.69145 -244.206)
(3.3105 4.69024 -244.196)
(3.44934 4.69108 -244.18)
(3.44975 4.69637 -244.137)
(3.62225 4.69306 -244.102)
(3.62852 4.70731 -244.007)
(3.93013 4.69503 -243.936)
(3.9013 4.73596 -243.745)
(4.50696 4.69922 -243.596)
(4.35451 4.83316 -243.137)
(5.87109 4.88981 -241.761)
(-1.5643 -1.85662 -234.914)
(8.01782 -2.62124 -243.033)
(2.45501 -3.14851 -244.049)
(6.15906 -3.06749 -245.545)
(4.14012 -3.21891 -245.456)
(5.48738 -3.18907 -245.829)
(4.80131 -3.23385 -245.772)
(5.33264 -3.22149 -245.89)
(5.11663 -3.23412 -245.866)
(5.36715 -3.2288 -245.907)
(5.3189 -3.22938 -245.89)
(5.50529 -3.2271 -245.896)
(5.51285 -3.22012 -245.865)
(5.75713 -3.22014 -245.841)
(5.76375 -3.20317 -245.779)
(6.20166 -3.20823 -245.698)
(6.13798 -3.17016 -245.605)
(7.04144 -3.18459 -245.355)
(6.73479 -3.13809 -245.283)
(8.77481 -3.09417 -242.821)
(-1.13294 1.20287 -236.063)
(8.48034 1.27722 -241.344)
(3.60288 1.2528 -243.169)
(7.00321 1.21707 -243.611)
(5.35032 1.15983 -244.177)
(6.57821 1.15014 -244.29)
(6.00563 1.13878 -244.477)
(6.48268 1.13665 -244.509)
(6.30074 1.135 -244.569)
(6.52666 1.13441 -244.58)
(6.48869 1.1352 -244.579)
(6.66075 1.13472 -244.573)
(6.67135 1.13705 -244.512)
(6.89836 1.13567 -244.484)
(6.90675 1.14079 -244.334)
(7.30616 1.13608 -244.259)
(7.25017 1.14959 -243.978)
(8.04079 1.13737 -243.726)
(7.80131 1.15148 -243.378)
(9.27531 1.2001 -240.473)
(-1.59786 1.75368e-05 -234.943)
(8.34185 -1.08122e-05 -241.348)
(3.38741 -1.64528e-05 -242.622)
(7.29104 6.72109e-06 -243.747)
(5.54783 1.87812e-05 -244.063)
(6.90647 -4.14622e-06 -244.506)
(6.30557 -1.53775e-05 -244.553)
(6.82508 2.54834e-06 -244.69)
(6.6371 1.33808e-05 -244.699)
(6.88422 5.78339e-07 -244.75)
(6.847 -8.41769e-06 -244.74)
(7.0379 8.76805e-07 -244.755)
(7.05084 1.0701e-05 -244.715)
(7.30697 7.05716e-06 -244.7)
(7.31479 1.81615e-05 -244.609)
(7.77601 2.62594e-05 -244.544)
(7.70079 0.0001304 -244.361)
(8.65012 0.000114757 -244.118)
(8.3067 0.000760246 -243.781)
(10.2477 0.000790333 -240.537)
(-1.13295 -1.20286 -236.063)
(8.48033 -1.27723 -241.344)
(3.60289 -1.25281 -243.169)
(7.00322 -1.21706 -243.611)
(5.35031 -1.15982 -244.177)
(6.5782 -1.15014 -244.29)
(6.00563 -1.13879 -244.477)
(6.48269 -1.13665 -244.509)
(6.30073 -1.13499 -244.569)
(6.52665 -1.13441 -244.58)
(6.48869 -1.1352 -244.579)
(6.66076 -1.13472 -244.573)
(6.67135 -1.13704 -244.512)
(6.89836 -1.13566 -244.484)
(6.90677 -1.14075 -244.334)
(7.30621 -1.13602 -244.259)
(7.25022 -1.14933 -243.977)
(8.04101 -1.13712 -243.726)
(7.80172 -1.15001 -243.376)
(9.2756 -1.19875 -240.476)
(-1.5643 1.85659 -234.914)
(8.01781 2.62126 -243.033)
(2.45502 3.14854 -244.049)
(6.15906 3.06748 -245.545)
(4.14012 3.21889 -245.456)
(5.48738 3.18908 -245.829)
(4.80131 3.23388 -245.772)
(5.33264 3.22149 -245.89)
(5.11662 3.2341 -245.866)
(5.36714 3.2288 -245.907)
(5.3189 3.22939 -245.89)
(5.5053 3.2271 -245.896)
(5.51285 3.22012 -245.865)
(5.75715 3.22014 -245.841)
(5.76378 3.20321 -245.779)
(6.2018 3.20827 -245.698)
(6.1381 3.17034 -245.604)
(7.04218 3.18468 -245.356)
(6.73553 3.13959 -245.28)
(8.77666 3.09541 -242.818)
(-1.03268 -4.88199 -235.413)
(6.34726 -4.78845 -241.712)
(1.33718 -4.74964 -243.484)
(4.18079 -4.79927 -243.814)
(2.43217 -4.66281 -244.087)
(3.53284 -4.71624 -244.111)
(2.92387 -4.67843 -244.19)
(3.36121 -4.69714 -244.19)
(3.16141 -4.6856 -244.212)
(3.36135 -4.69145 -244.206)
(3.31051 -4.69023 -244.196)
(3.44934 -4.69108 -244.18)
(3.44976 -4.69637 -244.137)
(3.62227 -4.69306 -244.102)
(3.62855 -4.70729 -244.007)
(3.93022 -4.695 -243.936)
(3.90143 -4.73586 -243.744)
(4.50751 -4.69919 -243.597)
(4.35487 -4.83182 -243.135)
(5.87567 -4.88912 -241.748)
(-2.57753 6.87894 -219.313)
(3.20183 8.42832 -226.201)
(-0.0996179 8.77473 -225.587)
(1.65472 8.62367 -226.119)
(0.639791 8.73535 -225.88)
(1.28985 8.66989 -226.03)
(0.938459 8.71335 -225.943)
(1.18946 8.68979 -225.994)
(1.0716 8.70474 -225.962)
(1.18318 8.69551 -225.98)
(1.15123 8.6982 -225.969)
(1.22505 8.69386 -225.974)
(1.22443 8.689 -225.973)
(1.31351 8.68628 -225.968)
(1.3213 8.67276 -225.974)
(1.47681 8.67047 -225.957)
(1.47767 8.63942 -225.978)
(1.75846 8.6365 -225.933)
(1.73456 8.51924 -225.989)
(1.82218 8.45641 -226.184)
(9.75521 9.81866 0.657074)
(1.45581 11.6408 0.220668)
(2.70639 11.3741 0.519656)
(0.860974 11.1055 0.324589)
(1.57538 11.114 0.453751)
(1.08224 11.0977 0.367419)
(1.30804 11.1029 0.421545)
(1.12926 11.1025 0.383768)
(1.21048 11.1038 0.40413)
(1.12816 11.1053 0.386949)
(1.16209 11.105 0.391449)
(1.10502 11.106 0.382524)
(1.1206 11.1024 0.377879)
(1.05189 11.1031 0.372164)
(1.06326 11.0917 0.359745)
(0.935403 11.0926 0.355603)
(0.968647 11.0615 0.333771)
(0.672613 11.062 0.33139)
(0.810375 10.7565 0.300232)
(1.86624 10.805 0.295675)
(11.3859 -3.98971 0.00631858)
(2.25031 -5.26227 -0.442942)
(6.0743 -5.33444 -0.154146)
(2.99549 -5.89374 -0.352671)
(4.04582 -5.85133 -0.223398)
(3.12737 -5.88537 -0.310157)
(3.45531 -5.851 -0.25616)
(3.13207 -5.85473 -0.293738)
(3.24264 -5.84479 -0.273502)
(3.09213 -5.84499 -0.290512)
(3.13369 -5.84374 -0.286051)
(3.02234 -5.84339 -0.294798)
(3.03875 -5.84963 -0.299382)
(2.88885 -5.84874 -0.304883)
(2.90186 -5.86961 -0.317235)
(2.59747 -5.86682 -0.320979)
(2.65065 -5.92436 -0.34306)
(1.92215 -5.90937 -0.344657)
(2.18419 -6.53601 -0.381155)
(0.0470683 -6.41909 -0.382002)
(11.2816 3.50634 0.331823)
(3.75857 4.95597 -0.104365)
(7.61602 4.78018 0.191299)
(5.17283 4.44874 -0.0109594)
(5.93823 4.30532 0.122165)
(5.1702 4.27535 0.032473)
(5.40156 4.23993 0.0880209)
(5.12538 4.245 0.0490715)
(5.20471 4.23736 0.0698879)
(5.07 4.24217 0.0522287)
(5.10093 4.24024 0.0567624)
(4.99805 4.24322 0.0476758)
(5.01066 4.24105 0.0429048)
(4.87064 4.24325 0.0371429)
(4.88055 4.23671 0.0244681)
(4.59373 4.23772 0.0204458)
(4.63403 4.21676 -0.00185711)
(3.94922 4.20153 -0.00369214)
(4.15257 4.14939 -0.039625)
(1.59999 4.18438 -0.0385985)
(10.8082 -0.84587 0.0810031)
(2.80491 -1.02681 -0.380103)
(8.14358 -0.964399 -0.0967519)
(5.94633 -1.30865 -0.29425)
(7.11984 -1.36822 -0.166269)
(6.40095 -1.40869 -0.251502)
(6.66532 -1.41369 -0.19858)
(6.37634 -1.415 -0.235268)
(6.44576 -1.41419 -0.215546)
(6.29658 -1.41276 -0.23211)
(6.31776 -1.41292 -0.227822)
(6.1989 -1.4118 -0.236363)
(6.2069 -1.41481 -0.240874)
(6.03751 -1.41377 -0.246263)
(6.05014 -1.42382 -0.25836)
(5.69103 -1.42233 -0.262092)
(5.746 -1.45473 -0.283668)
(4.84805 -1.45245 -0.285444)
(5.03757 -1.68261 -0.320821)
(2.77452 -1.64841 -0.318266)
(11.0347 1.06574e-05 0.291545)
(3.47283 -2.02768e-05 -0.135841)
(8.32335 -7.94563e-06 0.159855)
(6.55678 1.65882e-05 -0.0417341)
(7.50938 1.13027e-05 0.0914089)
(6.88846 -1.61779e-05 0.002311)
(7.09647 -1.13542e-05 0.0574169)
(6.84315 1.15895e-05 0.0188708)
(6.89949 9.5228e-06 0.0393918)
(6.7685 -8.08271e-06 0.0219899)
(6.78692 -8.07899e-06 0.0264164)
(6.68383 4.78394e-06 0.0174353)
(6.6909 6.5318e-06 0.0126522)
(6.5466 -3.83207e-06 0.00698134)
(6.55623 -8.53579e-06 -0.00561151)
(6.25132 -7.92072e-06 -0.0095598)
(6.29897 -0.00010014 -0.0317786)
(5.51212 3.17546e-05 -0.0335082)
(5.72039 -0.000983894 -0.0704671)
(2.84417 0.000176396 -0.0673894)
(10.8081 0.845876 0.0809782)
(2.80491 1.0268 -0.380102)
(8.14359 0.964393 -0.0967294)
(5.94634 1.30866 -0.294248)
(7.11983 1.36822 -0.166291)
(6.40094 1.40869 -0.251509)
(6.66534 1.41369 -0.198563)
(6.37635 1.415 -0.23526)
(6.44576 1.41419 -0.215559)
(6.29657 1.41275 -0.232118)
(6.31776 1.41292 -0.227814)
(6.19891 1.4118 -0.236357)
(6.20689 1.41482 -0.240879)
(6.03751 1.41377 -0.246267)
(6.05013 1.42381 -0.258357)
(5.69103 1.42232 -0.262089)
(5.74592 1.45455 -0.283666)
(4.84783 1.45267 -0.285445)
(5.03734 1.68063 -0.320807)
(2.7737 1.64954 -0.318256)
(11.2816 -3.50636 0.331805)
(3.75856 -4.95594 -0.104362)
(7.61602 -4.78017 0.191315)
(5.17283 -4.44876 -0.0109617)
(5.93822 -4.30534 0.12215)
(5.1702 -4.27532 0.032472)
(5.40157 -4.23992 0.088033)
(5.12538 -4.24502 0.0490735)
(5.20471 -4.23738 0.0698775)
(5.07 -4.24216 0.0522248)
(5.10093 -4.24023 0.056769)
(4.99805 -4.24323 0.0476786)
(5.01066 -4.24105 0.0428997)
(4.87065 -4.24325 0.037141)
(4.88054 -4.23672 0.0244707)
(4.59375 -4.23774 0.0204466)
(4.63393 -4.21691 -0.00185897)
(3.94915 -4.20149 -0.00369432)
(4.15257 -4.15135 -0.0396253)
(1.59622 -4.18453 -0.0385819)
(11.3859 3.9897 0.00632918)
(2.25031 5.26229 -0.442938)
(6.07429 5.33444 -0.154154)
(2.99548 5.89371 -0.352675)
(4.04582 5.85132 -0.223391)
(3.12737 5.88539 -0.310151)
(3.4553 5.85101 -0.256166)
(3.13206 5.85472 -0.293745)
(3.24264 5.84478 -0.273498)
(3.09214 5.845 -0.290508)
(3.13369 5.84374 -0.286053)
(3.02234 5.84338 -0.294802)
(3.03875 5.84963 -0.29938)
(2.88885 5.84874 -0.304882)
(2.90185 5.86961 -0.317235)
(2.59738 5.86683 -0.320979)
(2.65053 5.92421 -0.343055)
(1.92116 5.90953 -0.344654)
(2.18382 6.53559 -0.381141)
(0.0372172 6.4206 -0.381944)
(9.75521 -9.81866 0.657093)
(1.45581 -11.6408 0.22066)
(2.70639 -11.3741 0.519639)
(0.86097 -11.1055 0.324593)
(1.57538 -11.114 0.453769)
(1.08224 -11.0977 0.367419)
(1.30804 -11.1029 0.421531)
(1.12925 -11.1025 0.383766)
(1.21048 -11.1038 0.404142)
(1.12816 -11.1053 0.386953)
(1.16209 -11.105 0.391441)
(1.10502 -11.106 0.382522)
(1.1206 -11.1024 0.377885)
(1.0519 -11.1031 0.372167)
(1.06326 -11.0917 0.359743)
(0.935388 -11.0926 0.355603)
(0.968641 -11.0614 0.333775)
(0.672286 -11.062 0.331396)
(0.810815 -10.7557 0.300223)
(1.8665 -10.8032 0.295731)
(2.65193 -0.769102 -9.16644e-06)
(2.16628 -0.718108 1.10178e-05)
(3.01297 -0.612674 6.8831e-06)
(1.10764 -0.989885 -9.02656e-06)
(2.76295 -0.911336 -8.49768e-06)
(1.50334 -0.985533 6.86506e-06)
(2.47725 -0.962232 7.48818e-06)
(1.79035 -0.981157 -5.06746e-06)
(2.26459 -0.976183 -6.86246e-06)
(1.89552 -0.982021 2.22262e-06)
(2.10809 -0.983167 4.73107e-06)
(1.87691 -0.985933 -1.57355e-06)
(1.96638 -0.992177 -4.06252e-06)
(1.79115 -0.993206 -2.66462e-07)
(1.83339 -1.0094 1.9084e-06)
(1.72291 -1.00727 -3.9631e-07)
(1.75764 -1.04522 -1.99812e-06)
(1.90411 -1.01885 -6.13837e-07)
(1.74646 -1.20852 3.39851e-07)
(3.79019 -1.16792 4.41484e-08)
(4.79805 0.114706 -1.25215e-05)
(3.12331 -0.429389 1.58762e-06)
(5.75881 -0.395754 1.01182e-05)
(3.32376 -0.558128 -8.90034e-07)
(5.01538 -0.624576 -1.0136e-05)
(3.66451 -0.606776 -1.87119e-06)
(4.56001 -0.646296 8.11064e-06)
(3.88815 -0.623965 2.68163e-06)
(4.31085 -0.648262 -6.09187e-06)
(3.94945 -0.636238 -3.3955e-06)
(4.13232 -0.647745 3.48335e-06)
(3.88526 -0.641702 2.38901e-06)
(3.95581 -0.646053 -2.53932e-06)
(3.72764 -0.645616 -1.95529e-06)
(3.75341 -0.64418 1.02147e-06)
(3.51188 -0.650898 8.96927e-07)
(3.53776 -0.649857 -1.0191e-06)
(3.33562 -0.626179 -1.12585e-06)
(3.43165 -0.882793 2.94227e-08)
(3.29629 -0.831704 2.42696e-07)
(4.41618 -0.0579565 5.58823e-06)
(3.99339 0.467857 -1.10119e-05)
(6.47779 0.558785 -2.28216e-06)
(4.71253 0.237635 9.51417e-06)
(6.32125 0.18609 2.36548e-06)
(5.2068 0.103406 -9.75232e-06)
(6.08261 0.066862 -3.69441e-06)
(5.50476 0.0533511 7.17095e-06)
(5.91869 0.0370222 3.64539e-06)
(5.59318 0.0368529 -5.20378e-06)
(5.76832 0.0287527 -3.80732e-06)
(5.537 0.0299043 2.73708e-06)
(5.59593 0.0229404 2.46133e-06)
(5.38995 0.0225218 -1.58166e-06)
(5.39159 0.0129967 -2.13816e-06)
(5.22193 0.00842616 5.23395e-07)
(5.17823 -0.00927142 1.23992e-06)
(5.21776 -0.0193666 -5.89015e-07)
(5.10379 -0.10008 -9.19783e-07)
(5.65511 -0.0840518 -1.60787e-07)
(4.06148 -0.086888 1.44469e-05)
(3.01244 -0.257247 -9.01398e-06)
(6.6305 -0.138563 -1.20212e-05)
(5.17016 -0.243546 7.09994e-06)
(7.08565 -0.283784 1.29577e-05)
(6.19969 -0.297913 -3.48759e-06)
(7.0367 -0.328423 -1.19592e-05)
(6.5504 -0.322978 3.22978e-07)
(6.90493 -0.337727 8.79308e-06)
(6.61551 -0.332425 5.92997e-07)
(6.75593 -0.338247 -6.8617e-06)
(6.53711 -0.335499 -1.80448e-06)
(6.58261 -0.337178 3.88188e-06)
(6.36428 -0.336517 7.99041e-07)
(6.36866 -0.336298 -3.05678e-06)
(6.12587 -0.336643 -1.3532e-06)
(6.10775 -0.343953 1.40549e-06)
(5.89218 -0.327953 4.93903e-07)
(5.83055 -0.461836 -1.0115e-06)
(5.78634 -0.443767 -7.98897e-07)
(4.42669 -8.82955e-06 5.85686e-06)
(3.79238 -1.42363e-05 4.56518e-06)
(6.7053 9.19451e-06 -6.54096e-06)
(5.50926 1.32418e-05 -4.89394e-06)
(7.28606 -6.42188e-06 5.05069e-06)
(6.47216 -1.60597e-05 7.10446e-06)
(7.31833 3.45022e-06 -3.70769e-06)
(6.86091 1.42169e-05 -7.07021e-06)
(7.23342 -5.05079e-07 1.33313e-06)
(6.95839 -1.00392e-05 4.89769e-06)
(7.10776 2.31628e-06 -1.01343e-06)
(6.90149 1.22591e-05 -4.11336e-06)
(6.94563 1.66959e-05 -2.98309e-07)
(6.75542 1.5276e-05 1.6831e-06)
(6.74548 6.55492e-05 -2.27729e-07)
(6.58156 9.70373e-05 -1.87406e-06)
(6.52877 0.00024406 -5.54892e-07)
(6.49833 0.000512367 5.72524e-07)
(6.44453 0.000958485 -9.08e-08)
(6.47921 0.00241395 -6.60018e-07)
(4.06148 0.0868803 -1.17989e-05)
(3.01244 0.257241 9.44086e-06)
(6.63051 0.138569 7.28418e-06)
(5.17015 0.243551 -6.93781e-06)
(7.08564 0.283779 -9.09813e-06)
(6.19969 0.297907 6.25312e-06)
(7.03671 0.328426 8.25964e-06)
(6.5504 0.322984 -4.15762e-06)
(6.90492 0.337725 -7.40403e-06)
(6.61551 0.332422 1.51594e-06)
(6.75594 0.338252 5.00971e-06)
(6.53712 0.33551 -9.29204e-07)
(6.58261 0.337198 -3.90237e-06)
(6.36431 0.336538 -3.07433e-07)
(6.3687 0.336396 2.15311e-06)
(6.12602 0.336756 -1.09251e-07)
(6.10788 0.344334 -1.85237e-06)
(5.89283 0.328661 -5.84033e-07)
(5.83105 0.463452 4.27312e-07)
(5.78979 0.447677 6.04976e-09)
(4.41618 0.0579665 -1.25387e-05)
(3.9934 -0.467834 2.24307e-06)
(6.47779 -0.558798 8.77851e-06)
(4.71252 -0.237655 -2.14137e-06)
(6.32124 -0.186081 -8.83633e-06)
(5.20681 -0.103383 -2.54911e-06)
(6.08261 -0.0668666 6.77189e-06)
(5.50475 -0.0533715 3.13312e-06)
(5.91868 -0.0370213 -5.26297e-06)
(5.59319 -0.0368359 -3.31434e-06)
(5.76833 -0.0287471 3.39749e-06)
(5.53701 -0.0299087 2.5085e-06)
(5.59594 -0.0229213 -2.28968e-06)
(5.39001 -0.0224909 -1.75189e-06)
(5.39163 -0.0129084 1.21856e-06)
(5.22222 -0.00829634 1.09675e-06)
(5.17839 0.00957487 -9.74257e-07)
(5.21908 0.020123 -1.11266e-06)
(5.10494 0.101168 2.48299e-08)
(5.66007 0.0873806 2.28951e-07)
(4.79806 -0.114689 2.03524e-06)
(3.12331 0.429394 -5.89713e-06)
(5.7588 0.395733 -1.50812e-06)
(3.32376 0.55812 4.19629e-06)
(5.01539 0.624592 2.67112e-06)
(3.66451 0.606786 -4.6531e-06)
(4.56 0.646282 -2.94832e-06)
(3.88815 0.623954 3.41062e-06)
(4.31085 0.648272 2.61506e-06)
(3.94945 0.63625 -1.96374e-06)
(4.13232 0.647742 -1.68683e-06)
(3.88527 0.641699 1.43432e-06)
(3.95583 0.646073 1.4963e-06)
(3.72771 0.645645 -3.69063e-07)
(3.7535 0.644246 -7.80562e-07)
(3.51213 0.651012 4.35219e-07)
(3.53816 0.650107 7.21295e-07)
(3.33648 0.62673 -6.30158e-08)
(3.43377 0.884099 -2.95472e-07)
(3.29953 0.834854 -8.63552e-08)
(2.65192 0.769109 1.10115e-05)
(2.16627 0.718096 -4.11741e-06)
(3.01297 0.612665 -6.96272e-06)
(1.10765 0.989891 2.83167e-06)
(2.76296 0.911344 7.18973e-06)
(1.50333 0.985528 -4.54203e-07)
(2.47725 0.962223 -5.85169e-06)
(1.79035 0.981159 -5.90868e-07)
(2.26459 0.976191 5.0681e-06)
(1.89552 0.982021 1.67046e-06)
(2.10809 0.983161 -2.97117e-06)
(1.87692 0.985933 -8.97725e-07)
(1.96641 0.992181 2.57416e-06)
(1.79122 0.993207 1.25147e-06)
(1.83348 1.0094 -1.07407e-06)
(1.72322 1.00726 -3.74894e-07)
(1.75806 1.04531 1.16223e-06)
(1.90564 1.01879 7.91654e-07)
(1.74803 1.2092 -1.75489e-07)
(3.80065 1.1699 -2.12348e-07)
(9.75521 9.81865 -0.657084)
(1.45582 11.6407 -0.220655)
(2.70639 11.3741 -0.519646)
(0.860965 11.1056 -0.324599)
(1.57538 11.114 -0.453763)
(1.08225 11.0977 -0.36741)
(1.30804 11.1029 -0.421535)
(1.12925 11.1025 -0.383774)
(1.21048 11.1038 -0.404139)
(1.12816 11.1053 -0.386946)
(1.16209 11.105 -0.391442)
(1.10502 11.106 -0.382526)
(1.1206 11.1024 -0.377885)
(1.05189 11.1031 -0.372164)
(1.06326 11.0917 -0.359742)
(0.935402 11.0926 -0.355604)
(0.968647 11.0615 -0.333774)
(0.672614 11.062 -0.331391)
(0.810376 10.7565 -0.300231)
(1.86624 10.805 -0.295675)
(11.3859 -3.98969 -0.00633136)
(2.25032 -5.2623 0.442942)
(6.07429 -5.33445 0.154156)
(2.99547 -5.89371 0.352674)
(4.04582 -5.85131 0.223389)
(3.12738 -5.88539 0.310152)
(3.45531 -5.85102 0.256169)
(3.13206 -5.85472 0.293744)
(3.24264 -5.84478 0.273495)
(3.09214 -5.845 0.290507)
(3.13369 -5.84375 0.286055)
(3.02234 -5.84339 0.294803)
(3.03875 -5.84962 0.29938)
(2.88886 -5.84874 0.30488)
(2.90186 -5.86962 0.317237)
(2.59747 -5.86682 0.320981)
(2.65065 -5.92435 0.34306)
(1.92215 -5.90937 0.344656)
(2.18419 -6.53601 0.381155)
(0.0470682 -6.41909 0.382003)
(11.2816 3.50637 -0.331818)
(3.75856 4.95596 0.104351)
(7.61602 4.78016 -0.191303)
(5.17283 4.44874 0.0109713)
(5.93822 4.30535 -0.122159)
(5.1702 4.27534 -0.0324855)
(5.40157 4.23991 -0.0880272)
(5.12538 4.245 -0.0490616)
(5.20471 4.23738 -0.0698812)
(5.06999 4.24218 -0.052235)
(5.10093 4.24023 -0.056768)
(4.99805 4.24322 -0.0476718)
(5.01066 4.24105 -0.0429004)
(4.87064 4.24325 -0.0371447)
(4.88055 4.23671 -0.024471)
(4.59373 4.23772 -0.0204447)
(4.63403 4.21676 0.00185915)
(3.94922 4.20153 0.00369176)
(4.15257 4.14939 0.039624)
(1.59999 4.18438 0.0385985)
(10.8081 -0.845872 -0.0809858)
(2.8049 -1.02679 0.380095)
(8.14358 -0.9644 0.096736)
(5.94634 -1.30867 0.294254)
(7.11984 -1.36822 0.166284)
(6.40093 -1.40867 0.251499)
(6.66533 -1.41369 0.198566)
(6.37635 -1.41501 0.235267)
(6.44576 -1.41419 0.215558)
(6.29657 -1.41275 0.232112)
(6.31776 -1.41292 0.227813)
(6.19891 -1.41181 0.23636)
(6.2069 -1.41482 0.240879)
(6.0375 -1.41377 0.246265)
(6.05014 -1.42381 0.258357)
(5.69103 -1.42233 0.26209)
(5.746 -1.45474 0.283669)
(4.84805 -1.45244 0.285445)
(5.03757 -1.6826 0.32082)
(2.77452 -1.64841 0.318265)
(11.0347 -2.10689e-05 -0.291539)
(3.47282 8.39374e-07 0.135849)
(8.32334 1.76962e-05 -0.159862)
(6.55679 1.68832e-06 0.0417242)
(7.50938 -1.84682e-05 -0.0914046)
(6.88846 -7.34137e-06 -0.00230053)
(7.09646 1.50717e-05 -0.05742)
(6.84316 9.02857e-06 -0.0188809)
(6.89949 -1.04589e-05 -0.0393913)
(6.76849 -8.59089e-06 -0.0219828)
(6.78691 6.53622e-06 -0.0264168)
(6.68383 7.12919e-06 -0.0174412)
(6.6909 -2.68796e-06 -0.0126533)
(6.5466 -5.65837e-06 -0.00697866)
(6.55623 -2.08641e-06 0.00561164)
(6.25132 -5.85404e-06 0.0095572)
(6.29897 -0.000103968 0.0317774)
(5.51212 3.03607e-05 0.0335088)
(5.72039 -0.000981952 0.070467)
(2.84417 0.000177726 0.0673884)
(10.8082 0.845858 -0.0809909)
(2.80492 1.02679 0.380114)
(8.14359 0.96441 0.096739)
(5.94633 1.30867 0.294239)
(7.11984 1.36821 0.166278)
(6.40095 1.40867 0.251516)
(6.66533 1.4137 0.198574)
(6.37634 1.41501 0.235255)
(6.44576 1.41419 0.215549)
(6.29658 1.41274 0.232119)
(6.31776 1.41292 0.22782)
(6.19891 1.41181 0.236356)
(6.20689 1.41482 0.240873)
(6.03751 1.41376 0.246266)
(6.05013 1.42381 0.258359)
(5.69103 1.42232 0.262088)
(5.74592 1.45455 0.283663)
(4.84784 1.45267 0.285444)
(5.03734 1.68063 0.320807)
(2.77369 1.64954 0.318255)
(11.2816 -3.50634 -0.331818)
(3.75857 -4.95596 0.104361)
(7.61602 -4.78018 -0.191304)
(5.17283 -4.44874 0.0109638)
(5.93822 -4.30533 -0.122161)
(5.1702 -4.27534 -0.0324772)
(5.40157 -4.23993 -0.0880252)
(5.12537 -4.24501 -0.0490688)
(5.20471 -4.23737 -0.0698849)
(5.07 -4.24217 -0.0522306)
(5.10093 -4.24024 -0.0567652)
(4.99805 -4.24322 -0.0476752)
(5.01066 -4.24105 -0.0429031)
(4.87065 -4.24325 -0.0371443)
(4.88054 -4.23672 -0.0244698)
(4.59375 -4.23774 -0.0204453)
(4.63393 -4.21691 0.00185756)
(3.94915 -4.20149 0.00369245)
(4.15257 -4.15135 0.0396249)
(1.59622 -4.18453 0.0385819)
(11.3859 3.98973 -0.00632616)
(2.25031 5.26229 0.442929)
(6.07429 5.33442 0.154151)
(2.99548 5.89372 0.352682)
(4.04582 5.85134 0.223394)
(3.12737 5.88539 0.310144)
(3.4553 5.85099 0.256162)
(3.13206 5.85471 0.293749)
(3.24264 5.8448 0.273501)
(3.09213 5.84501 0.290504)
(3.13369 5.84374 0.28605)
(3.02234 5.84338 0.294804)
(3.03875 5.84963 0.299382)
(2.88885 5.84874 0.30488)
(2.90185 5.8696 0.317233)
(2.59738 5.86682 0.320979)
(2.65053 5.92422 0.343056)
(1.92116 5.90953 0.344653)
(2.18382 6.53559 0.38114)
(0.0372171 6.4206 0.381944)
(9.75521 -9.81865 -0.657081)
(1.45581 -11.6408 -0.220666)
(2.70639 -11.3741 -0.519646)
(0.860974 -11.1055 -0.324591)
(1.57538 -11.114 -0.45376)
(1.08224 -11.0977 -0.367419)
(1.30804 -11.1029 -0.421538)
(1.12926 -11.1025 -0.383767)
(1.21048 -11.1038 -0.404135)
(1.12816 -11.1053 -0.386951)
(1.16209 -11.105 -0.391446)
(1.10503 -11.106 -0.382523)
(1.1206 -11.1024 -0.377882)
(1.05189 -11.1031 -0.372165)
(1.06326 -11.0917 -0.359744)
(0.935389 -11.0926 -0.355604)
(0.968641 -11.0614 -0.333773)
(0.672285 -11.062 -0.331395)
(0.810814 -10.7557 -0.300223)
(1.8665 -10.8032 -0.295731)
(-2.57753 -6.87894 219.313)
(3.20183 -8.42832 226.201)
(-0.0996222 -8.77473 225.587)
(1.65472 -8.62367 226.119)
(0.639795 -8.73535 225.88)
(1.28985 -8.6699 226.03)
(0.938455 -8.71336 225.943)
(1.18945 -8.68979 225.994)
(1.07161 -8.70473 225.962)
(1.18318 -8.69552 225.98)
(1.15122 -8.6982 225.969)
(1.22505 -8.69385 225.974)
(1.22443 -8.689 225.973)
(1.3135 -8.68628 225.968)
(1.32128 -8.67276 225.974)
(1.47674 -8.67047 225.957)
(1.47757 -8.63942 225.978)
(1.75795 -8.63648 225.933)
(1.73433 -8.5192 225.989)
(1.81669 -8.45626 226.174)
(-1.03268 4.88198 235.413)
(6.34726 4.78844 241.712)
(1.33719 4.74965 243.484)
(4.18078 4.79928 243.815)
(2.43217 4.6628 244.087)
(3.53284 4.71623 244.111)
(2.92388 4.67843 244.19)
(3.3612 4.69715 244.191)
(3.1614 4.6856 244.212)
(3.36135 4.69144 244.206)
(3.31051 4.69023 244.196)
(3.44933 4.69109 244.18)
(3.44975 4.69638 244.137)
(3.62226 4.69306 244.102)
(3.62852 4.7073 244.007)
(3.93013 4.69503 243.936)
(3.9013 4.73597 243.745)
(4.50697 4.69922 243.596)
(4.35451 4.83315 243.137)
(5.87109 4.88981 241.761)
(-1.5643 -1.85659 234.914)
(8.01781 -2.62125 243.033)
(2.45502 -3.14854 244.049)
(6.15906 -3.06749 245.545)
(4.14011 -3.21889 245.456)
(5.48738 -3.18907 245.829)
(4.80132 -3.23388 245.772)
(5.33264 -3.2215 245.89)
(5.11662 -3.2341 245.866)
(5.36714 -3.22879 245.907)
(5.3189 -3.22939 245.89)
(5.5053 -3.22711 245.896)
(5.51284 -3.22011 245.865)
(5.75713 -3.22013 245.841)
(5.76375 -3.20318 245.779)
(6.20166 -3.20823 245.698)
(6.13798 -3.17016 245.605)
(7.04144 -3.18459 245.355)
(6.7348 -3.13809 245.283)
(8.77481 -3.09417 242.821)
(-1.13295 1.20287 236.063)
(8.48032 1.27724 241.344)
(3.60288 1.2528 243.169)
(7.00322 1.21705 243.611)
(5.35032 1.15982 244.177)
(6.5782 1.15016 244.29)
(6.00563 1.13879 244.477)
(6.48269 1.13664 244.509)
(6.30074 1.13499 244.569)
(6.52665 1.13442 244.58)
(6.48868 1.1352 244.579)
(6.66076 1.13471 244.573)
(6.67135 1.13705 244.512)
(6.89836 1.13567 244.484)
(6.90675 1.14079 244.334)
(7.30617 1.13607 244.259)
(7.25017 1.14959 243.978)
(8.04078 1.13737 243.726)
(7.80131 1.15148 243.378)
(9.27531 1.2001 240.473)
(-1.59787 -1.32949e-05 234.943)
(8.34185 6.71791e-06 241.349)
(3.3874 1.28606e-05 242.622)
(7.29104 -3.97345e-06 243.747)
(5.54784 -1.53929e-05 244.063)
(6.90647 2.04767e-06 244.506)
(6.30555 1.32584e-05 244.553)
(6.82508 -1.98275e-07 244.69)
(6.63711 -1.16619e-05 244.699)
(6.88422 -2.71555e-06 244.75)
(6.847 7.53095e-06 244.74)
(7.0379 2.98959e-06 244.755)
(7.05084 -1.6171e-06 244.715)
(7.30697 3.09766e-06 244.7)
(7.31479 2.43689e-05 244.609)
(7.77601 2.78936e-05 244.544)
(7.70079 0.000125137 244.361)
(8.65012 0.000111715 244.118)
(8.3067 0.000760809 243.781)
(10.2477 0.000790412 240.537)
(-1.13294 -1.20288 236.063)
(8.48033 -1.27724 241.344)
(3.60288 -1.25279 243.169)
(7.00321 -1.21705 243.611)
(5.35032 -1.15983 244.177)
(6.5782 -1.15016 244.29)
(6.00563 -1.13878 244.477)
(6.48268 -1.13664 244.509)
(6.30074 -1.135 244.569)
(6.52666 -1.13443 244.58)
(6.48869 -1.1352 244.579)
(6.66076 -1.13471 244.573)
(6.67135 -1.13704 244.512)
(6.89837 -1.13567 244.484)
(6.90677 -1.14075 244.334)
(7.30621 -1.13602 244.259)
(7.25022 -1.14933 243.977)
(8.04101 -1.13712 243.726)
(7.80172 -1.15001 243.376)
(9.2756 -1.19875 240.476)
(-1.5643 1.85661 234.914)
(8.01782 2.62123 243.033)
(2.45502 3.14852 244.049)
(6.15906 3.0675 245.545)
(4.14012 3.21891 245.456)
(5.48738 3.18907 245.829)
(4.80132 3.23386 245.772)
(5.33264 3.2215 245.89)
(5.11662 3.23412 245.866)
(5.36715 3.22879 245.907)
(5.3189 3.22938 245.89)
(5.5053 3.22711 245.896)
(5.51285 3.22013 245.865)
(5.75715 3.22014 245.841)
(5.76378 3.2032 245.779)
(6.20179 3.20827 245.698)
(6.1381 3.17034 245.604)
(7.04218 3.18468 245.356)
(6.73553 3.13959 245.28)
(8.77666 3.09541 242.818)
(-1.03268 -4.88197 235.413)
(6.34726 -4.78845 241.712)
(1.33719 -4.74967 243.485)
(4.18079 -4.79927 243.814)
(2.43217 -4.66278 244.087)
(3.53284 -4.71624 244.111)
(2.92387 -4.67845 244.19)
(3.36121 -4.69714 244.19)
(3.1614 -4.68558 244.212)
(3.36135 -4.69144 244.206)
(3.31051 -4.69024 244.196)
(3.44934 -4.69109 244.18)
(3.44976 -4.69636 244.137)
(3.62227 -4.69305 244.102)
(3.62855 -4.70729 244.007)
(3.93022 -4.69501 243.936)
(3.90143 -4.73586 243.744)
(4.50751 -4.69918 243.597)
(4.35487 -4.83182 243.135)
(5.87567 -4.88912 241.748)
(-2.57754 6.87895 219.313)
(3.20183 8.42832 226.201)
(-0.099617 8.77473 225.587)
(1.65472 8.62367 226.119)
(0.639791 8.73535 225.88)
(1.28985 8.66989 226.03)
(0.938458 8.71335 225.943)
(1.18946 8.68979 225.994)
(1.07161 8.70474 225.962)
(1.18317 8.69552 225.98)
(1.15122 8.6982 225.969)
(1.22505 8.69386 225.974)
(1.22443 8.689 225.973)
(1.31351 8.68628 225.968)
(1.3213 8.67276 225.974)
(1.47681 8.67047 225.957)
(1.47767 8.63942 225.978)
(1.75846 8.6365 225.933)
(1.73456 8.51924 225.989)
(1.82218 8.45641 226.184)
(1.85818 -9.21574 -185.335)
(1.3052 -9.25953 -186.488)
(1.28051 -9.25375 -187.113)
(1.20284 -9.26653 -187.404)
(1.18583 -9.26965 -187.542)
(1.179 -9.2729 -187.614)
(1.17232 -9.27466 -187.655)
(1.17453 -9.27591 -187.68)
(1.1713 -9.27689 -187.697)
(1.17411 -9.27753 -187.71)
(1.17225 -9.27812 -187.719)
(1.17454 -9.27849 -187.726)
(1.17341 -9.27885 -187.731)
(1.17519 -9.27908 -187.735)
(1.17453 -9.27931 -187.739)
(1.17592 -9.27945 -187.742)
(1.17558 -9.27961 -187.744)
(1.17669 -9.27969 -187.746)
(1.17658 -9.27978 -187.747)
(1.17749 -9.27981 -187.748)
(1.17753 -9.27984 -187.748)
(1.1783 -9.27984 -187.748)
(1.17846 -9.27984 -187.748)
(1.17913 -9.27983 -187.748)
(1.17938 -9.27983 -187.748)
(1.17998 -9.27983 -187.749)
(1.18028 -9.27986 -187.749)
(1.18084 -9.27988 -187.75)
(1.18118 -9.27992 -187.75)
(1.18171 -9.27996 -187.751)
(1.18209 -9.28001 -187.752)
(1.18259 -9.28006 -187.753)
(1.18299 -9.28012 -187.754)
(1.18348 -9.28017 -187.755)
(1.18389 -9.28022 -187.756)
(1.18437 -9.28028 -187.757)
(1.18479 -9.28033 -187.758)
(1.18526 -9.28038 -187.759)
(1.1857 -9.28044 -187.76)
(1.18616 -9.28049 -187.761)
(1.1866 -9.28055 -187.762)
(1.18706 -9.2806 -187.762)
(1.1875 -9.28066 -187.763)
(1.18796 -9.28071 -187.764)
(1.1884 -9.28077 -187.765)
(1.18886 -9.28082 -187.766)
(1.18931 -9.28088 -187.767)
(1.18977 -9.28093 -187.768)
(1.19022 -9.28099 -187.769)
(1.19067 -9.28104 -187.77)
(1.19113 -9.2811 -187.771)
(1.19158 -9.28115 -187.772)
(1.19204 -9.28121 -187.773)
(1.1925 -9.28126 -187.774)
(1.19295 -9.28132 -187.775)
(1.19341 -9.28138 -187.776)
(1.19387 -9.28143 -187.777)
(1.19433 -9.28149 -187.778)
(1.19479 -9.28154 -187.779)
(1.19525 -9.2816 -187.78)
(1.19571 -9.28165 -187.781)
(1.19617 -9.28171 -187.782)
(1.19663 -9.28177 -187.783)
(1.19709 -9.28182 -187.784)
(1.19755 -9.28188 -187.785)
(1.19801 -9.28194 -187.786)
(1.19847 -9.28199 -187.787)
(1.19894 -9.28205 -187.788)
(1.19939 -9.2821 -187.789)
(1.19986 -9.28216 -187.79)
(1.20031 -9.28222 -187.791)
(1.20078 -9.28228 -187.792)
(1.20123 -9.28233 -187.793)
(1.20171 -9.28239 -187.794)
(1.20215 -9.28245 -187.795)
(1.20264 -9.2825 -187.796)
(1.20308 -9.28256 -187.797)
(1.20357 -9.28262 -187.799)
(1.204 -9.28268 -187.8)
(1.2045 -9.28273 -187.801)
(1.20492 -9.2828 -187.802)
(1.2054 -9.28284 -187.802)
(1.20583 -9.28295 -187.804)
(1.2061 -9.28293 -187.804)
(1.20662 -9.28328 -187.808)
(1.20555 -9.283 -187.804)
(1.20655 -9.28459 -187.818)
(1.19876 -9.28364 -187.806)
(1.20212 -9.30437 -187.863)
(1.56619 -9.32289 -188.055)
(5.3095 3.30418 -217.015)
(3.70953 3.36854 -218.842)
(3.58644 3.42366 -219.581)
(3.41911 3.43625 -219.955)
(3.37406 3.44385 -220.123)
(3.36073 3.44647 -220.215)
(3.3436 3.4478 -220.266)
(3.3501 3.44861 -220.299)
(3.34181 3.44889 -220.321)
(3.34932 3.44923 -220.337)
(3.34456 3.4493 -220.348)
(3.35066 3.44949 -220.357)
(3.34779 3.44951 -220.364)
(3.35254 3.44963 -220.369)
(3.35089 3.44964 -220.373)
(3.35462 3.44972 -220.377)
(3.35382 3.44972 -220.379)
(3.35682 3.44977 -220.382)
(3.35662 3.44977 -220.383)
(3.35909 3.4498 -220.384)
(3.35931 3.44979 -220.384)
(3.36142 3.44981 -220.384)
(3.36195 3.4498 -220.384)
(3.3638 3.44981 -220.384)
(3.36454 3.44981 -220.384)
(3.36623 3.44982 -220.384)
(3.36712 3.44982 -220.384)
(3.36869 3.44983 -220.385)
(3.3697 3.44983 -220.386)
(3.37119 3.44985 -220.386)
(3.37228 3.44986 -220.387)
(3.3737 3.44987 -220.388)
(3.37485 3.44989 -220.389)
(3.37623 3.4499 -220.39)
(3.37742 3.44991 -220.391)
(3.37877 3.44993 -220.393)
(3.37999 3.44994 -220.394)