/*--------------------------------*- C++ -*----------------------------------*\
  =========                 |
  \\      /  F ield         | OpenFOAM: The Open Source CFD Toolbox
   \\    /   O peration     | Website:  https://openfoam.org
    \\  /    A nd           | Version:  7
     \\/     M anipulation  |
\*---------------------------------------------------------------------------*/
FoamFile
{
    version     2.0;
    format      ascii;
    class       volScalarField;
    location    "0.8825";
    object      pPrime2Mean;
}
// * * * * * * * * * * * * * * * * * * * * * * * * * * * * * * * * * * * * * //

dimensions      [2 -2 -4 0 0 0 0];

internalField   nonuniform List<scalar> 
7920
(
1.9187e+06
1.91675e+06
1.91683e+06
1.91475e+06
1.91468e+06
1.91215e+06
1.91171e+06
1.90871e+06
1.90787e+06
1.90453e+06
1.90335e+06
1.89978e+06
1.89833e+06
1.89462e+06
1.89294e+06
1.8891e+06
1.88722e+06
1.88325e+06
1.88125e+06
1.87743e+06
1.91853e+06
1.91655e+06
1.91655e+06
1.91439e+06
1.91429e+06
1.91173e+06
1.91129e+06
1.90828e+06
1.90744e+06
1.90408e+06
1.9029e+06
1.89932e+06
1.89786e+06
1.89413e+06
1.89245e+06
1.88859e+06
1.88671e+06
1.88271e+06
1.88072e+06
1.87688e+06
1.91856e+06
1.91655e+06
1.91656e+06
1.91443e+06
1.91431e+06
1.91177e+06
1.91133e+06
1.90836e+06
1.90754e+06
1.90422e+06
1.90305e+06
1.89949e+06
1.89804e+06
1.89433e+06
1.89265e+06
1.88879e+06
1.8869e+06
1.88292e+06
1.88088e+06
1.87701e+06
1.91853e+06
1.91653e+06
1.91653e+06
1.91438e+06
1.91425e+06
1.91168e+06
1.91123e+06
1.90823e+06
1.9074e+06
1.90407e+06
1.9029e+06
1.89934e+06
1.89789e+06
1.89417e+06
1.89249e+06
1.88863e+06
1.88675e+06
1.88274e+06
1.88072e+06
1.87674e+06
1.91856e+06
1.91654e+06
1.91654e+06
1.9144e+06
1.91426e+06
1.9117e+06
1.91124e+06
1.90826e+06
1.90744e+06
1.90412e+06
1.90296e+06
1.89941e+06
1.89797e+06
1.89426e+06
1.89259e+06
1.88874e+06
1.88685e+06
1.88286e+06
1.8808e+06
1.87681e+06
1.91854e+06
1.91652e+06
1.91651e+06
1.91436e+06
1.91423e+06
1.91166e+06
1.91121e+06
1.90822e+06
1.9074e+06
1.90408e+06
1.90292e+06
1.89936e+06
1.89793e+06
1.89421e+06
1.89254e+06
1.88869e+06
1.88681e+06
1.88281e+06
1.88076e+06
1.87674e+06
1.91854e+06
1.91652e+06
1.91651e+06
1.91436e+06
1.91423e+06
1.91166e+06
1.91121e+06
1.90822e+06
1.9074e+06
1.90408e+06
1.90292e+06
1.89936e+06
1.89793e+06
1.89421e+06
1.89254e+06
1.88869e+06
1.88681e+06
1.88281e+06
1.88075e+06
1.87674e+06
1.91856e+06
1.91654e+06
1.91654e+06
1.9144e+06
1.91426e+06
1.9117e+06
1.91124e+06
1.90826e+06
1.90744e+06
1.90412e+06
1.90296e+06
1.89941e+06
1.89797e+06
1.89426e+06
1.89259e+06
1.88874e+06
1.88685e+06
1.88286e+06
1.8808e+06
1.87682e+06
1.91853e+06
1.91653e+06
1.91653e+06
1.91438e+06
1.91425e+06
1.91168e+06
1.91123e+06
1.90823e+06
1.9074e+06
1.90407e+06
1.9029e+06
1.89934e+06
1.89789e+06
1.89417e+06
1.89249e+06
1.88864e+06
1.88675e+06
1.88274e+06
1.88072e+06
1.87674e+06
1.91856e+06
1.91655e+06
1.91656e+06
1.91443e+06
1.91431e+06
1.91177e+06
1.91133e+06
1.90836e+06
1.90754e+06
1.90422e+06
1.90305e+06
1.89949e+06
1.89804e+06
1.89433e+06
1.89265e+06
1.88879e+06
1.8869e+06
1.88292e+06
1.88088e+06
1.87702e+06
1.91853e+06
1.91655e+06
1.91655e+06
1.91439e+06
1.91429e+06
1.91173e+06
1.91129e+06
1.90828e+06
1.90744e+06
1.90408e+06
1.9029e+06
1.89932e+06
1.89786e+06
1.89413e+06
1.89245e+06
1.88859e+06
1.88671e+06
1.88271e+06
1.88072e+06
1.87689e+06
1.9187e+06
1.91675e+06
1.91683e+06
1.91475e+06
1.91468e+06
1.91215e+06
1.91171e+06
1.90871e+06
1.90787e+06
1.90453e+06
1.90335e+06
1.89978e+06
1.89833e+06
1.89462e+06
1.89294e+06
1.8891e+06
1.88722e+06
1.88325e+06
1.88125e+06
1.87743e+06
1.91694e+06
1.9145e+06
1.91507e+06
1.91252e+06
1.91294e+06
1.90997e+06
1.91003e+06
1.90668e+06
1.90635e+06
1.9027e+06
1.90201e+06
1.89819e+06
1.89719e+06
1.89324e+06
1.89198e+06
1.88794e+06
1.88643e+06
1.88229e+06
1.88061e+06
1.87649e+06
1.91709e+06
1.91457e+06
1.91515e+06
1.91264e+06
1.91308e+06
1.91015e+06
1.91025e+06
1.90695e+06
1.90664e+06
1.90303e+06
1.90235e+06
1.89855e+06
1.89755e+06
1.89363e+06
1.89236e+06
1.88834e+06
1.88682e+06
1.88271e+06
1.88104e+06
1.87697e+06
1.91705e+06
1.91456e+06
1.91515e+06
1.9126e+06
1.91301e+06
1.91003e+06
1.9101e+06
1.90677e+06
1.90646e+06
1.90284e+06
1.90216e+06
1.89834e+06
1.89734e+06
1.89341e+06
1.89214e+06
1.8881e+06
1.88658e+06
1.88243e+06
1.88074e+06
1.87651e+06
1.91712e+06
1.91458e+06
1.91514e+06
1.91258e+06
1.91299e+06
1.91004e+06
1.91013e+06
1.90683e+06
1.90654e+06
1.90295e+06
1.90229e+06
1.89849e+06
1.89751e+06
1.89359e+06
1.89233e+06
1.8883e+06
1.88678e+06
1.88265e+06
1.88095e+06
1.87674e+06
1.9171e+06
1.91455e+06
1.91511e+06
1.91254e+06
1.91296e+06
1.90999e+06
1.91007e+06
1.90675e+06
1.90646e+06
1.90285e+06
1.90219e+06
1.89838e+06
1.8974e+06
1.89347e+06
1.89221e+06
1.88818e+06
1.88666e+06
1.88251e+06
1.88081e+06
1.87654e+06
1.91713e+06
1.91457e+06
1.91513e+06
1.91255e+06
1.91297e+06
1.91001e+06
1.91009e+06
1.90678e+06
1.90649e+06
1.90289e+06
1.90223e+06
1.89843e+06
1.89745e+06
1.89353e+06
1.89228e+06
1.88825e+06
1.88673e+06
1.88258e+06
1.88088e+06
1.87662e+06
1.91713e+06
1.91457e+06
1.91513e+06
1.91255e+06
1.91297e+06
1.91001e+06
1.91009e+06
1.90678e+06
1.90649e+06
1.90289e+06
1.90223e+06
1.89843e+06
1.89745e+06
1.89353e+06
1.89228e+06
1.88825e+06
1.88673e+06
1.88258e+06
1.88088e+06
1.87662e+06
1.9171e+06
1.91455e+06
1.91511e+06
1.91254e+06
1.91296e+06
1.90999e+06
1.91007e+06
1.90675e+06
1.90646e+06
1.90285e+06
1.90219e+06
1.89838e+06
1.8974e+06
1.89347e+06
1.89221e+06
1.88818e+06
1.88666e+06
1.88251e+06
1.88081e+06
1.87654e+06
1.91712e+06
1.91458e+06
1.91514e+06
1.91258e+06
1.91299e+06
1.91004e+06
1.91013e+06
1.90683e+06
1.90654e+06
1.90295e+06
1.90229e+06
1.89849e+06
1.89751e+06
1.89359e+06
1.89233e+06
1.8883e+06
1.88678e+06
1.88265e+06
1.88095e+06
1.87675e+06
1.91705e+06
1.91456e+06
1.91515e+06
1.9126e+06
1.91301e+06
1.91003e+06
1.9101e+06
1.90677e+06
1.90646e+06
1.90284e+06
1.90216e+06
1.89834e+06
1.89734e+06
1.89341e+06
1.89214e+06
1.8881e+06
1.88658e+06
1.88243e+06
1.88074e+06
1.87651e+06
1.91709e+06
1.91457e+06
1.91515e+06
1.91264e+06
1.91308e+06
1.91015e+06
1.91025e+06
1.90695e+06
1.90664e+06
1.90303e+06
1.90235e+06
1.89855e+06
1.89755e+06
1.89363e+06
1.89236e+06
1.88834e+06
1.88682e+06
1.88271e+06
1.88104e+06
1.87697e+06
1.91694e+06
1.9145e+06
1.91507e+06
1.91252e+06
1.91294e+06
1.90997e+06
1.91003e+06
1.90668e+06
1.90635e+06
1.9027e+06
1.90201e+06
1.89819e+06
1.89719e+06
1.89325e+06
1.89198e+06
1.88794e+06
1.88643e+06
1.88229e+06
1.88061e+06
1.8765e+06
1.91673e+06
1.91428e+06
1.9146e+06
1.91218e+06
1.91255e+06
1.90985e+06
1.9099e+06
1.90672e+06
1.90633e+06
1.90281e+06
1.9021e+06
1.89836e+06
1.89737e+06
1.89347e+06
1.89223e+06
1.88818e+06
1.8867e+06
1.88247e+06
1.88088e+06
1.87668e+06
1.91679e+06
1.9143e+06
1.91461e+06
1.91218e+06
1.91253e+06
1.9098e+06
1.90984e+06
1.90667e+06
1.90631e+06
1.90281e+06
1.90212e+06
1.89839e+06
1.8974e+06
1.8935e+06
1.89225e+06
1.8882e+06
1.88671e+06
1.88248e+06
1.88088e+06
1.87663e+06
1.91679e+06
1.91432e+06
1.91463e+06
1.91218e+06
1.91251e+06
1.90977e+06
1.90981e+06
1.90665e+06
1.9063e+06
1.90281e+06
1.90212e+06
1.89839e+06
1.89741e+06
1.89352e+06
1.89227e+06
1.88821e+06
1.88672e+06
1.88248e+06
1.88087e+06
1.87658e+06
1.91682e+06
1.91433e+06
1.91463e+06
1.91218e+06
1.9125e+06
1.90975e+06
1.90978e+06
1.90662e+06
1.90628e+06
1.90279e+06
1.90211e+06
1.89839e+06
1.89742e+06
1.89353e+06
1.89229e+06
1.88823e+06
1.88675e+06
1.88251e+06
1.88089e+06
1.87659e+06
1.91683e+06
1.91434e+06
1.91464e+06
1.91218e+06
1.91249e+06
1.90974e+06
1.90977e+06
1.90662e+06
1.90628e+06
1.90279e+06
1.90211e+06
1.89839e+06
1.89741e+06
1.89352e+06
1.89229e+06
1.88823e+06
1.88675e+06
1.88251e+06
1.88088e+06
1.87659e+06
1.91684e+06
1.91434e+06
1.91464e+06
1.91218e+06
1.91249e+06
1.90973e+06
1.90977e+06
1.90661e+06
1.90627e+06
1.90279e+06
1.9021e+06
1.89839e+06
1.89741e+06
1.89353e+06
1.89229e+06
1.88823e+06
1.88675e+06
1.88251e+06
1.88089e+06
1.8766e+06
1.91684e+06
1.91434e+06
1.91464e+06
1.91218e+06
1.91249e+06
1.90973e+06
1.90977e+06
1.90661e+06
1.90627e+06
1.90279e+06
1.9021e+06
1.89839e+06
1.89741e+06
1.89353e+06
1.89229e+06
1.88823e+06
1.88675e+06
1.88251e+06
1.88089e+06
1.8766e+06
1.91683e+06
1.91434e+06
1.91464e+06
1.91218e+06
1.91249e+06
1.90974e+06
1.90977e+06
1.90662e+06
1.90628e+06
1.90279e+06
1.90211e+06
1.89839e+06
1.89741e+06
1.89352e+06
1.89229e+06
1.88823e+06
1.88675e+06
1.88251e+06
1.88088e+06
1.87659e+06
1.91682e+06
1.91433e+06
1.91463e+06
1.91218e+06
1.9125e+06
1.90975e+06
1.90978e+06
1.90662e+06
1.90628e+06
1.90279e+06
1.90211e+06
1.89839e+06
1.89742e+06
1.89353e+06
1.89229e+06
1.88823e+06
1.88675e+06
1.88251e+06
1.88089e+06
1.87659e+06
1.91679e+06
1.91432e+06
1.91463e+06
1.91218e+06
1.91251e+06
1.90977e+06
1.90981e+06
1.90665e+06
1.9063e+06
1.90281e+06
1.90212e+06
1.89839e+06
1.89741e+06
1.89352e+06
1.89227e+06
1.88821e+06
1.88672e+06
1.88249e+06
1.88087e+06
1.87659e+06
1.91679e+06
1.9143e+06
1.91461e+06
1.91218e+06
1.91253e+06
1.9098e+06
1.90984e+06
1.90667e+06
1.90631e+06
1.90281e+06
1.90212e+06
1.89839e+06
1.8974e+06
1.8935e+06
1.89225e+06
1.8882e+06
1.88671e+06
1.88249e+06
1.88088e+06
1.87664e+06
1.91673e+06
1.91428e+06
1.9146e+06
1.91218e+06
1.91255e+06
1.90985e+06
1.9099e+06
1.90672e+06
1.90633e+06
1.90281e+06
1.9021e+06
1.89836e+06
1.89737e+06
1.89347e+06
1.89223e+06
1.88818e+06
1.8867e+06
1.88248e+06
1.88088e+06
1.87669e+06
1.91673e+06
1.91428e+06
1.9146e+06
1.91218e+06
1.91255e+06
1.90985e+06
1.9099e+06
1.90672e+06
1.90633e+06
1.90281e+06
1.9021e+06
1.89836e+06
1.89737e+06
1.89347e+06
1.89223e+06
1.88818e+06
1.8867e+06
1.88247e+06
1.88088e+06
1.87668e+06
1.91679e+06
1.9143e+06
1.91461e+06
1.91218e+06
1.91253e+06
1.9098e+06
1.90984e+06
1.90667e+06
1.90631e+06
1.90281e+06
1.90212e+06
1.89839e+06
1.8974e+06
1.8935e+06
1.89225e+06
1.8882e+06
1.88671e+06
1.88248e+06
1.88088e+06
1.87663e+06
1.91679e+06
1.91432e+06
1.91463e+06
1.91218e+06
1.91251e+06
1.90977e+06
1.90981e+06
1.90665e+06
1.9063e+06
1.90281e+06
1.90212e+06
1.89839e+06
1.89741e+06
1.89352e+06
1.89227e+06
1.88821e+06
1.88672e+06
1.88248e+06
1.88087e+06
1.87658e+06
1.91682e+06
1.91433e+06
1.91463e+06
1.91218e+06
1.9125e+06
1.90975e+06
1.90978e+06
1.90662e+06
1.90628e+06
1.90279e+06
1.90211e+06
1.89839e+06
1.89742e+06
1.89353e+06
1.89229e+06
1.88823e+06
1.88675e+06
1.88251e+06
1.88089e+06
1.87659e+06
1.91683e+06
1.91434e+06
1.91464e+06
1.91218e+06
1.91249e+06
1.90974e+06
1.90977e+06
1.90662e+06
1.90628e+06
1.90279e+06
1.90211e+06
1.89839e+06
1.89741e+06
1.89352e+06
1.89229e+06
1.88823e+06
1.88675e+06
1.88251e+06
1.88088e+06
1.87659e+06
1.91684e+06
1.91434e+06
1.91464e+06
1.91218e+06
1.91249e+06
1.90973e+06
1.90977e+06
1.90661e+06
1.90627e+06
1.90279e+06
1.9021e+06
1.89839e+06
1.89741e+06
1.89353e+06
1.89229e+06
1.88823e+06
1.88675e+06
1.88251e+06
1.88089e+06
1.8766e+06
1.91684e+06
1.91434e+06
1.91464e+06
1.91218e+06
1.91249e+06
1.90973e+06
1.90977e+06
1.90661e+06
1.90627e+06
1.90279e+06
1.9021e+06
1.89839e+06
1.89741e+06
1.89353e+06
1.89229e+06
1.88823e+06
1.88675e+06
1.88251e+06
1.88089e+06
1.8766e+06
1.91683e+06
1.91434e+06
1.91464e+06
1.91218e+06
1.91249e+06
1.90974e+06
1.90977e+06
1.90662e+06
1.90628e+06
1.90279e+06
1.90211e+06
1.89839e+06
1.89741e+06
1.89352e+06
1.89229e+06
1.88823e+06
1.88675e+06
1.88251e+06
1.88088e+06
1.87659e+06
1.91682e+06
1.91433e+06
1.91463e+06
1.91218e+06
1.9125e+06
1.90975e+06
1.90978e+06
1.90662e+06
1.90628e+06
1.90279e+06
1.90211e+06
1.89839e+06
1.89742e+06
1.89353e+06
1.89229e+06
1.88823e+06
1.88675e+06
1.88251e+06
1.88089e+06
1.87659e+06
1.91679e+06
1.91432e+06
1.91463e+06
1.91218e+06
1.91251e+06
1.90977e+06
1.90981e+06
1.90665e+06
1.9063e+06
1.90281e+06
1.90212e+06
1.89839e+06
1.89741e+06
1.89352e+06
1.89227e+06
1.88821e+06
1.88672e+06
1.88249e+06
1.88087e+06
1.87659e+06
1.91679e+06
1.9143e+06
1.91461e+06
1.91218e+06
1.91253e+06
1.9098e+06
1.90984e+06
1.90667e+06
1.90631e+06
1.90281e+06
1.90212e+06
1.89839e+06
1.8974e+06
1.8935e+06
1.89225e+06
1.8882e+06
1.88671e+06
1.88249e+06
1.88088e+06
1.87664e+06
1.91673e+06
1.91428e+06
1.9146e+06
1.91218e+06
1.91255e+06
1.90985e+06
1.9099e+06
1.90672e+06
1.90633e+06
1.90281e+06
1.9021e+06
1.89836e+06
1.89737e+06
1.89347e+06
1.89223e+06
1.88818e+06
1.8867e+06
1.88248e+06
1.88088e+06
1.87669e+06
1.91694e+06
1.9145e+06
1.91507e+06
1.91252e+06
1.91294e+06
1.90997e+06
1.91003e+06
1.90668e+06
1.90635e+06
1.9027e+06
1.90201e+06
1.89819e+06
1.89719e+06
1.89325e+06
1.89198e+06
1.88794e+06
1.88643e+06
1.88229e+06
1.88061e+06
1.87649e+06
1.91709e+06
1.91457e+06
1.91515e+06
1.91264e+06
1.91308e+06
1.91015e+06
1.91025e+06
1.90695e+06
1.90664e+06
1.90303e+06
1.90235e+06
1.89855e+06
1.89755e+06
1.89363e+06
1.89236e+06
1.88834e+06
1.88682e+06
1.88271e+06
1.88104e+06
1.87697e+06
1.91705e+06
1.91456e+06
1.91515e+06
1.9126e+06
1.91301e+06
1.91003e+06
1.9101e+06
1.90677e+06
1.90646e+06
1.90284e+06
1.90216e+06
1.89834e+06
1.89734e+06
1.89341e+06
1.89214e+06
1.8881e+06
1.88658e+06
1.88243e+06
1.88074e+06
1.87651e+06
1.91712e+06
1.91458e+06
1.91514e+06
1.91258e+06
1.91299e+06
1.91004e+06
1.91013e+06
1.90683e+06
1.90654e+06
1.90295e+06
1.90229e+06
1.89849e+06
1.89751e+06
1.89359e+06
1.89233e+06
1.8883e+06
1.88678e+06
1.88265e+06
1.88095e+06
1.87674e+06
1.9171e+06
1.91455e+06
1.91511e+06
1.91254e+06
1.91296e+06
1.90999e+06
1.91007e+06
1.90675e+06
1.90646e+06
1.90285e+06
1.90219e+06
1.89838e+06
1.8974e+06
1.89347e+06
1.89221e+06
1.88818e+06
1.88666e+06
1.88251e+06
1.88081e+06
1.87654e+06
1.91713e+06
1.91457e+06
1.91513e+06
1.91255e+06
1.91297e+06
1.91001e+06
1.91009e+06
1.90678e+06
1.90649e+06
1.90289e+06
1.90223e+06
1.89843e+06
1.89745e+06
1.89353e+06
1.89228e+06
1.88825e+06
1.88673e+06
1.88258e+06
1.88088e+06
1.87662e+06
1.91713e+06
1.91457e+06
1.91513e+06
1.91255e+06
1.91297e+06
1.91001e+06
1.91009e+06
1.90678e+06
1.90649e+06
1.90289e+06
1.90223e+06
1.89843e+06
1.89745e+06
1.89353e+06
1.89228e+06
1.88825e+06
1.88673e+06
1.88258e+06
1.88088e+06
1.87662e+06
1.9171e+06
1.91455e+06
1.91511e+06
1.91254e+06
1.91296e+06
1.90999e+06
1.91007e+06
1.90675e+06
1.90646e+06
1.90285e+06
1.90219e+06
1.89838e+06
1.8974e+06
1.89347e+06
1.89221e+06
1.88818e+06
1.88666e+06
1.88251e+06
1.88081e+06
1.87654e+06
1.91712e+06
1.91458e+06
1.91514e+06
1.91258e+06
1.91299e+06
1.91004e+06
1.91013e+06
1.90683e+06
1.90654e+06
1.90295e+06
1.90229e+06
1.89849e+06
1.89751e+06
1.89359e+06
1.89233e+06
1.8883e+06
1.88678e+06
1.88265e+06
1.88095e+06
1.87675e+06
1.91705e+06
1.91456e+06
1.91515e+06
1.9126e+06
1.91301e+06
1.91003e+06
1.9101e+06
1.90677e+06
1.90646e+06
1.90284e+06
1.90216e+06
1.89834e+06
1.89734e+06
1.89341e+06
1.89214e+06
1.8881e+06
1.88658e+06
1.88243e+06
1.88074e+06
1.87651e+06
1.91709e+06
1.91457e+06
1.91515e+06
1.91264e+06
1.91308e+06
1.91015e+06
1.91025e+06
1.90695e+06
1.90664e+06
1.90303e+06
1.90235e+06
1.89855e+06
1.89755e+06
1.89363e+06
1.89236e+06
1.88834e+06
1.88682e+06
1.88271e+06
1.88104e+06
1.87697e+06
1.91694e+06
1.9145e+06
1.91507e+06
1.91252e+06
1.91294e+06
1.90997e+06
1.91003e+06
1.90668e+06
1.90635e+06
1.9027e+06
1.90201e+06
1.89819e+06
1.89719e+06
1.89325e+06
1.89198e+06
1.88794e+06
1.88643e+06
1.88229e+06
1.88061e+06
1.8765e+06
1.9187e+06
1.91675e+06
1.91683e+06
1.91475e+06
1.91468e+06
1.91215e+06
1.91171e+06
1.90872e+06
1.90787e+06
1.90453e+06
1.90335e+06
1.89978e+06
1.89833e+06
1.89462e+06
1.89294e+06
1.8891e+06
1.88722e+06
1.88325e+06
1.88125e+06
1.87743e+06
1.91853e+06
1.91655e+06
1.91655e+06
1.91439e+06
1.91429e+06
1.91174e+06
1.91129e+06
1.90828e+06
1.90744e+06
1.90408e+06
1.9029e+06
1.89932e+06
1.89786e+06
1.89413e+06
1.89245e+06
1.88859e+06
1.88671e+06
1.88271e+06
1.88072e+06
1.87688e+06
1.91856e+06
1.91655e+06
1.91656e+06
1.91443e+06
1.91431e+06
1.91177e+06
1.91133e+06
1.90836e+06
1.90754e+06
1.90422e+06
1.90305e+06
1.89949e+06
1.89804e+06
1.89433e+06
1.89265e+06
1.88879e+06
1.8869e+06
1.88292e+06
1.88088e+06
1.87701e+06
1.91853e+06
1.91653e+06
1.91653e+06
1.91438e+06
1.91425e+06
1.91168e+06
1.91123e+06
1.90823e+06
1.9074e+06
1.90407e+06
1.9029e+06
1.89934e+06
1.89789e+06
1.89417e+06
1.89249e+06
1.88863e+06
1.88675e+06
1.88274e+06
1.88072e+06
1.87674e+06
1.91856e+06
1.91654e+06
1.91654e+06
1.9144e+06
1.91426e+06
1.9117e+06
1.91124e+06
1.90826e+06
1.90744e+06
1.90412e+06
1.90296e+06
1.89941e+06
1.89797e+06
1.89426e+06
1.89259e+06
1.88874e+06
1.88685e+06
1.88286e+06
1.8808e+06
1.87681e+06
1.91854e+06
1.91652e+06
1.91651e+06
1.91436e+06
1.91423e+06
1.91166e+06
1.91121e+06
1.90822e+06
1.9074e+06
1.90408e+06
1.90292e+06
1.89936e+06
1.89793e+06
1.89421e+06
1.89254e+06
1.88869e+06
1.88681e+06
1.88281e+06
1.88076e+06
1.87674e+06
1.91854e+06
1.91652e+06
1.91651e+06
1.91436e+06
1.91423e+06
1.91166e+06
1.91121e+06
1.90822e+06
1.9074e+06
1.90408e+06
1.90292e+06
1.89936e+06
1.89793e+06
1.89421e+06
1.89254e+06
1.88869e+06
1.88681e+06
1.88281e+06
1.88075e+06
1.87674e+06
1.91856e+06
1.91654e+06
1.91654e+06
1.9144e+06
1.91426e+06
1.9117e+06
1.91124e+06
1.90826e+06
1.90744e+06
1.90412e+06
1.90296e+06
1.89941e+06
1.89797e+06
1.89426e+06
1.89259e+06
1.88874e+06
1.88685e+06
1.88286e+06
1.8808e+06
1.87682e+06
1.91853e+06
1.91653e+06
1.91653e+06
1.91438e+06
1.91425e+06
1.91168e+06
1.91123e+06
1.90823e+06
1.9074e+06
1.90407e+06
1.9029e+06
1.89934e+06
1.89789e+06
1.89417e+06
1.89249e+06
1.88864e+06
1.88675e+06
1.88274e+06
1.88072e+06
1.87674e+06
1.91856e+06
1.91655e+06
1.91656e+06
1.91443e+06
1.91431e+06
1.91177e+06
1.91133e+06
1.90836e+06
1.90754e+06
1.90422e+06
1.90305e+06
1.89949e+06
1.89804e+06
1.89433e+06
1.89265e+06
1.88879e+06
1.8869e+06
1.88292e+06
1.88088e+06
1.87702e+06
1.91853e+06
1.91655e+06
1.91655e+06
1.91439e+06
1.91429e+06
1.91174e+06
1.91129e+06
1.90828e+06
1.90744e+06
1.90408e+06
1.9029e+06
1.89932e+06
1.89786e+06
1.89413e+06
1.89245e+06
1.88859e+06
1.88671e+06
1.88271e+06
1.88072e+06
1.87689e+06
1.9187e+06
1.91675e+06
1.91683e+06
1.91475e+06
1.91468e+06
1.91215e+06
1.91171e+06
1.90872e+06
1.90787e+06
1.90453e+06
1.90335e+06
1.89978e+06
1.89833e+06
1.89462e+06
1.89294e+06
1.8891e+06
1.88722e+06
1.88325e+06
1.88125e+06
1.87743e+06
1.87227e+06
1.8549e+06
1.84594e+06
1.82774e+06
1.817e+06
1.79781e+06
1.78561e+06
1.76559e+06
1.75209e+06
1.73132e+06
1.71663e+06
1.69519e+06
1.67943e+06
1.65737e+06
1.64062e+06
1.61801e+06
1.60034e+06
1.57723e+06
1.55872e+06
1.53514e+06
1.51586e+06
1.49186e+06
1.47186e+06
1.44748e+06
1.42683e+06
1.4021e+06
1.38085e+06
1.35581e+06
1.33401e+06
1.3087e+06
1.28641e+06
1.26086e+06
1.23812e+06
1.21237e+06
1.18924e+06
1.16333e+06
1.13985e+06
1.11382e+06
1.09006e+06
1.06394e+06
1.03996e+06
1.01382e+06
989648
963441
939017
912758
888236
862080
837556
811550
787096
761294
736967
711410
687263
661989
638074
613120
589488
564893
541597
517399
494494
470733
448276
424996
403049
380295
358923
336748
316021
294480
274480
253634
234449
214379
196105
176890
159657
141411
125342
108195
93482
77595.5
64416.1
50144.2
38896.4
26197.6
16979.9
7548.61
1.87107e+06
1.85374e+06
1.8448e+06
1.82662e+06
1.81588e+06
1.79668e+06
1.78448e+06
1.76445e+06
1.75095e+06
1.73018e+06
1.7155e+06
1.69406e+06
1.67831e+06
1.65626e+06
1.63952e+06
1.61692e+06
1.59926e+06
1.57616e+06
1.55766e+06
1.53409e+06
1.51482e+06
1.49084e+06
1.47085e+06
1.44648e+06
1.42584e+06
1.40113e+06
1.37988e+06
1.35486e+06
1.33307e+06
1.30778e+06
1.2855e+06
1.25996e+06
1.23724e+06
1.2115e+06
1.18838e+06
1.16249e+06
1.13903e+06
1.113e+06
1.08926e+06
1.06316e+06
1.03919e+06
1.01307e+06
988915
962725
938316
912075
887569
861431
836924
810936
786499
760715
736405
710866
686736
661481
637583
612648
589033
564456
541177
516997
494109
470366
447926
424664
402732
379996
358640
336481
315770
294245
274260
253431
234260
214205
195945
176744
159524
141292
125235
108101
93399.6
77525.1
64356.5
50095.1
38857.2
26167.2
16956.1
7530.83
1.87113e+06
1.85379e+06
1.84481e+06
1.82662e+06
1.81587e+06
1.79668e+06
1.78448e+06
1.76446e+06
1.75095e+06
1.73019e+06
1.71551e+06
1.69408e+06
1.67832e+06
1.65629e+06
1.63954e+06
1.61695e+06
1.59929e+06
1.5762e+06
1.5577e+06
1.53415e+06
1.51488e+06
1.4909e+06
1.47092e+06
1.44656e+06
1.42592e+06
1.40122e+06
1.37998e+06
1.35497e+06
1.33318e+06
1.30789e+06
1.28561e+06
1.26009e+06
1.23736e+06
1.21163e+06
1.18852e+06
1.16262e+06
1.13916e+06
1.11314e+06
1.0894e+06
1.0633e+06
1.03933e+06
1.01321e+06
989053
962862
938452
912208
887700
861559
837049
811057
786616
760829
736514
710971
686836
661576
637673
612732
589113
564530
541246
517060
494167
470418
447973
424705
402769
380027
358667
336503
315787
294258
274269
253435
234261
214202
195939
176735
159513
141279
125221
108085
93383.7
77508.4
64340.3
50079.5
38843.1
26155.2
16947.3
7526.04
1.87084e+06
1.85359e+06
1.84462e+06
1.82645e+06
1.8157e+06
1.79651e+06
1.7843e+06
1.76428e+06
1.75077e+06
1.73e+06
1.71532e+06
1.69389e+06
1.67813e+06
1.65609e+06
1.63934e+06
1.61675e+06
1.59909e+06
1.57599e+06
1.55749e+06
1.53393e+06
1.51466e+06
1.49068e+06
1.4707e+06
1.44634e+06
1.4257e+06
1.40099e+06
1.37975e+06
1.35473e+06
1.33295e+06
1.30766e+06
1.28538e+06
1.25985e+06
1.23713e+06
1.2114e+06
1.18828e+06
1.16239e+06
1.13893e+06
1.11291e+06
1.08917e+06
1.06307e+06
1.03911e+06
1.01299e+06
988833
962645
938239
911999
887495
861359
836853
810867
786431
760649
736340
710802
686673
661418
637521
612587
588973
564397
541119
516939
494052
470310
447870
424609
402678
379943
358588
336430
315720
294196
274213
253384
234215
214161
195903
176703
159485
141256
125200
108069
93370.1
77498.1
64332.4
50073.8
38839.1
26152.4
16944.1
7522.86
1.87093e+06
1.85363e+06
1.84463e+06
1.82643e+06
1.81568e+06
1.79649e+06
1.78428e+06
1.76426e+06
1.75075e+06
1.72998e+06
1.7153e+06
1.69387e+06
1.67811e+06
1.65607e+06
1.63932e+06
1.61673e+06
1.59907e+06
1.57597e+06
1.55748e+06
1.53392e+06
1.51465e+06
1.49067e+06
1.47069e+06
1.44633e+06
1.42569e+06
1.40098e+06
1.37974e+06
1.35473e+06
1.33294e+06
1.30765e+06
1.28537e+06
1.25985e+06
1.23712e+06
1.2114e+06
1.18828e+06
1.16239e+06
1.13893e+06
1.11291e+06
1.08917e+06
1.06307e+06
1.03911e+06
1.01298e+06
988831
962642
938235
911994
887489
861352
836845
810857
786420
760636
736326
710787
686656
661400
637502
612566
588951
564373
541094
516912
494024
470280
447840
424577
402646
379909
358554
336395
315685
294161
274177
253348
234179
214125
195868
176669
159452
141223
125169
108039
93342.2
77471.9
64308.6
50052.6
38820.9
26137.5
16933.3
7516.29
1.87087e+06
1.85361e+06
1.8446e+06
1.82643e+06
1.81569e+06
1.7965e+06
1.78429e+06
1.76426e+06
1.75076e+06
1.72999e+06
1.71531e+06
1.69387e+06
1.67811e+06
1.65607e+06
1.63932e+06
1.61673e+06
1.59907e+06
1.57597e+06
1.55747e+06
1.53392e+06
1.51464e+06
1.49066e+06
1.47068e+06
1.44632e+06
1.42568e+06
1.40097e+06
1.37973e+06
1.35472e+06
1.33293e+06
1.30764e+06
1.28536e+06
1.25983e+06
1.23711e+06
1.21138e+06
1.18826e+06
1.16237e+06
1.13891e+06
1.11289e+06
1.08915e+06
1.06305e+06
1.03909e+06
1.01296e+06
988811
962623
938216
911976
887471
861334
836828
810841
786404
760622
736312
710773
686644
661389
637491
612556
588942
564365
541087
516907
494020
470277
447838
424576
402645
379910
358555
336397
315687
294164
274181
253353
234184
214131
195874
176675
159459
141230
125176
108046
93348.8
77478.4
64314.6
50058.1
38825.7
26141.3
16935.6
7517.48
1.87086e+06
1.85356e+06
1.84456e+06
1.82637e+06
1.81562e+06
1.79643e+06
1.78422e+06
1.76419e+06
1.75068e+06
1.72992e+06
1.71524e+06
1.6938e+06
1.67804e+06
1.656e+06
1.63926e+06
1.61666e+06
1.59901e+06
1.57591e+06
1.55741e+06
1.53385e+06
1.51458e+06
1.4906e+06
1.47062e+06
1.44626e+06
1.42562e+06
1.40092e+06
1.37968e+06
1.35466e+06
1.33288e+06
1.30759e+06
1.28531e+06
1.25978e+06
1.23706e+06
1.21133e+06
1.18821e+06
1.16232e+06
1.13886e+06
1.11285e+06
1.0891e+06
1.06301e+06
1.03905e+06
1.01292e+06
988772
962584
938178
911939
887435
861299
836794
810808
786372
760590
736281
710743
686614
661360
637463
612529
588916
564340
541062
516883
493997
470254
447816
424555
402625
379890
358536
336379
315670
294148
274166
253338
234170
214118
195861
176664
159448
141220
125167
108038
93341.2
77471.5
64308.7
50053
38821.5
26138.2
16933.4
7515.93
1.87094e+06
1.85367e+06
1.84467e+06
1.82648e+06
1.81575e+06
1.79656e+06
1.78435e+06
1.76432e+06
1.75082e+06
1.73005e+06
1.71537e+06
1.69393e+06
1.67817e+06
1.65613e+06
1.63938e+06
1.61679e+06
1.59913e+06
1.57603e+06
1.55753e+06
1.53398e+06
1.5147e+06
1.49072e+06
1.47074e+06
1.44638e+06
1.42574e+06
1.40103e+06
1.37979e+06
1.35478e+06
1.33299e+06
1.3077e+06
1.28542e+06
1.25989e+06
1.23717e+06
1.21144e+06
1.18832e+06
1.16243e+06
1.13897e+06
1.11295e+06
1.08921e+06
1.06311e+06
1.03914e+06
1.01302e+06
988867
962677
938269
912027
887522
861383
836876
810888
786449
760665
736354
710814
686683
661426
637527
612590
588974
564395
541116
516934
494045
470300
447859
424596
402664
379926
358570
336411
315699
294175
274191
253361
234192
214137
195879
176679
159462
141232
125178
108047
93349.2
77478.2
64314.1
50057.3
38824.8
26140.6
16935.5
7517.68
1.87082e+06
1.85354e+06
1.84456e+06
1.82637e+06
1.81562e+06
1.79643e+06
1.78422e+06
1.76419e+06
1.75069e+06
1.72992e+06
1.71524e+06
1.69381e+06
1.67805e+06
1.65601e+06
1.63926e+06
1.61667e+06
1.59902e+06
1.57592e+06
1.55742e+06
1.53386e+06
1.51459e+06
1.49061e+06
1.47063e+06
1.44627e+06
1.42563e+06
1.40092e+06
1.37969e+06
1.35467e+06
1.33289e+06
1.3076e+06
1.28532e+06
1.25979e+06
1.23707e+06
1.21134e+06
1.18822e+06
1.16233e+06
1.13887e+06
1.11286e+06
1.08912e+06
1.06302e+06
1.03906e+06
1.01294e+06
988785
962598
938192
911954
887451
861316
836811
810826
786391
760609
736301
710765
686637
661383
637487
612553
588941
564365
541088
516910
494024
470282
447844
424583
402654
379919
358565
336408
315699
294176
274194
253366
234198
214145
195888
176689
159473
141244
125189
108059
93361.2
77490
64325.4
50067.9
38834.4
26148.7
16941.5
7520.93
1.87115e+06
1.85382e+06
1.84484e+06
1.82667e+06
1.81593e+06
1.79674e+06
1.78454e+06
1.76452e+06
1.75101e+06
1.73025e+06
1.71557e+06
1.69414e+06
1.67838e+06
1.65634e+06
1.63959e+06
1.617e+06
1.59935e+06
1.57625e+06
1.55775e+06
1.5342e+06
1.51493e+06
1.49095e+06
1.47096e+06
1.44661e+06
1.42597e+06
1.40126e+06
1.38002e+06
1.35501e+06
1.33322e+06
1.30793e+06
1.28565e+06
1.26013e+06
1.2374e+06
1.21167e+06
1.18855e+06
1.16266e+06
1.1392e+06
1.11318e+06
1.08943e+06
1.06333e+06
1.03937e+06
1.01324e+06
989084
962891
938480
912236
887727
861586
837075
811083
786641
760853
736538
710993
686858
661597
637694
612752
589132
564549
541264
517078
494184
470435
447989
424720
402783
380041
358680
336516
315799
294270
274280
253446
234271
214212
195948
176744
159521
141287
125228
108092
93389.6
77513.8
64345.1
50083.6
38846.6
26158
16949.4
7527.17
1.87105e+06
1.85367e+06
1.84472e+06
1.82652e+06
1.81577e+06
1.79658e+06
1.78437e+06
1.76434e+06
1.75084e+06
1.73008e+06
1.7154e+06
1.69396e+06
1.67821e+06
1.65616e+06
1.63942e+06
1.61682e+06
1.59917e+06
1.57607e+06
1.55757e+06
1.53401e+06
1.51473e+06
1.49075e+06
1.47076e+06
1.4464e+06
1.42576e+06
1.40105e+06
1.37981e+06
1.35479e+06
1.333e+06
1.30771e+06
1.28542e+06
1.25989e+06
1.23717e+06
1.21144e+06
1.18832e+06
1.16242e+06
1.13896e+06
1.11294e+06
1.0892e+06
1.0631e+06
1.03913e+06
1.01301e+06
988858
962669
938261
912021
887517
861380
836874
810888
786451
760669
736360
710822
686694
661439
637543
612609
588995
564419
541142
516963
494076
470334
447895
424634
402704
379968
358614
336456
315746
294222
274239
253410
234241
214186
195928
176728
159509
141279
125222
108090
93389.5
77516
64348.8
50088.5
38851.9
26163.1
16953.2
7528.45
1.87228e+06
1.85494e+06
1.84601e+06
1.82783e+06
1.8171e+06
1.79791e+06
1.78572e+06
1.76569e+06
1.75219e+06
1.73142e+06
1.71673e+06
1.69529e+06
1.67952e+06
1.65747e+06
1.64071e+06
1.6181e+06
1.60043e+06
1.57731e+06
1.5588e+06
1.53523e+06
1.51594e+06
1.49194e+06
1.47194e+06
1.44756e+06
1.42691e+06
1.40218e+06
1.38092e+06
1.35589e+06
1.33409e+06
1.30878e+06
1.28648e+06
1.26093e+06
1.23819e+06
1.21244e+06
1.18931e+06
1.16339e+06
1.13992e+06
1.11388e+06
1.09012e+06
1.064e+06
1.04002e+06
1.01388e+06
989706
963498
939072
912812
888289
862132
837607
811600
787144
761341
737013
711455
687306
662031
638115
613160
589527
564931
541634
517434
494529
470766
448308
425027
403078
380324
358951
336774
316046
294504
274503
253656
234470
214398
196124
176907
159673
141426
125355
108208
93493.5
77605.8
64425.3
50152.1
38903.3
26203.1
16984.1
7550.92
1.8716e+06
1.85388e+06
1.84557e+06
1.82714e+06
1.81677e+06
1.79741e+06
1.78544e+06
1.76529e+06
1.75194e+06
1.73106e+06
1.71648e+06
1.69495e+06
1.67926e+06
1.65713e+06
1.64043e+06
1.61775e+06
1.60012e+06
1.57694e+06
1.55846e+06
1.53483e+06
1.51557e+06
1.49153e+06
1.47155e+06
1.44713e+06
1.42649e+06
1.40173e+06
1.38049e+06
1.35543e+06
1.33364e+06
1.30831e+06
1.28602e+06
1.26046e+06
1.23773e+06
1.21197e+06
1.18885e+06
1.16293e+06
1.13947e+06
1.11343e+06
1.08969e+06
1.06357e+06
1.03961e+06
1.01347e+06
989316
963112
938705
912450
887945
861796
837289
811291
786854
761061
736752
711204
687075
661811
637914
612970
589356
564771
541493
517305
494417
470666
448226
424955
403023
380278
358922
336753
316041
294506
274520
253678
234505
214436
196173
176957
159732
141481
125416
108260
93545.1
77644.2
64454.5
50163.7
38895.7
26171.5
16918.5
7486.42
1.8728e+06
1.85503e+06
1.84672e+06
1.82831e+06
1.81796e+06
1.79863e+06
1.78668e+06
1.76654e+06
1.75321e+06
1.73234e+06
1.71777e+06
1.69624e+06
1.68055e+06
1.65842e+06
1.64171e+06
1.61903e+06
1.60139e+06
1.57821e+06
1.55972e+06
1.53608e+06
1.5168e+06
1.49274e+06
1.47275e+06
1.44832e+06
1.42766e+06
1.40289e+06
1.38163e+06
1.35655e+06
1.33475e+06
1.3094e+06
1.2871e+06
1.26152e+06
1.23878e+06
1.213e+06
1.18986e+06
1.16393e+06
1.14045e+06
1.11439e+06
1.09063e+06
1.06449e+06
1.04051e+06
1.01435e+06
990178
963955
939529
913254
888730
862560
838035
812017
787561
761748
737419
711851
687703
662418
638502
613538
589905
565300
542003
517794
494888
471117
448658
425368
403418
380653
359279
337091
316361
294807
274803
253943
234753
214666
196386
177151
159910
141643
125561
108389
93658.5
77741.9
64537.3
50232.2
38950.2
26213
16948.2
7507.35
1.87189e+06
1.85438e+06
1.84607e+06
1.82766e+06
1.81731e+06
1.79796e+06
1.78599e+06
1.76584e+06
1.75249e+06
1.73162e+06
1.71704e+06
1.69551e+06
1.67982e+06
1.65768e+06
1.64098e+06
1.6183e+06
1.60067e+06
1.57749e+06
1.559e+06
1.53537e+06
1.5161e+06
1.49205e+06
1.47206e+06
1.44764e+06
1.42699e+06
1.40223e+06
1.38097e+06
1.35591e+06
1.33411e+06