/*--------------------------------*- C++ -*----------------------------------*\
  =========                 |
  \\      /  F ield         | OpenFOAM: The Open Source CFD Toolbox
   \\    /   O peration     | Website:  https://openfoam.org
    \\  /    A nd           | Version:  7
     \\/     M anipulation  |
\*---------------------------------------------------------------------------*/
FoamFile
{
    version     2.0;
    format      ascii;
    class       volVectorField;
    location    "0.0025";
    object      U;
}
// * * * * * * * * * * * * * * * * * * * * * * * * * * * * * * * * * * * * * //

dimensions      [0 1 -1 0 0 0 0];

internalField   nonuniform List<vector> 
27000
(
(8.5919 -0.967428 -239.593)
(10.5768 -2.75334 -246.963)
(9.10834 -3.41306 -247.923)
(9.7754 -3.56393 -248.37)
(9.33529 -3.51463 -247.955)
(9.5346 -3.49093 -247.775)
(9.36363 -3.48894 -247.685)
(9.4385 -3.49966 -247.712)
(9.35511 -3.50164 -247.728)
(9.37725 -3.49833 -247.748)
(9.31658 -3.50466 -247.762)
(9.31349 -3.50561 -247.776)
(9.26362 -3.50493 -247.79)
(9.24156 -3.50859 -247.806)
(9.19786 -3.51102 -247.821)
(9.16699 -3.51422 -247.836)
(9.12648 -3.51654 -247.851)
(9.09144 -3.51812 -247.869)
(9.05228 -3.51599 -247.882)
(9.01298 -3.51462 -247.895)
(8.97324 -3.51937 -247.913)
(8.93688 -3.51943 -247.929)
(8.89858 -3.51851 -247.943)
(8.8624 -3.52129 -247.958)
(8.82812 -3.52339 -247.973)
(8.79622 -3.52574 -247.985)
(8.76686 -3.52494 -247.994)
(8.73774 -3.52458 -248.002)
(8.71174 -3.52742 -248.011)
(8.6889 -3.52744 -248.017)
(8.66723 -3.52709 -248.022)
(8.64796 -3.529 -248.029)
(8.63177 -3.53111 -248.034)
(8.61826 -3.5314 -248.039)
(8.60623 -3.53177 -248.043)
(8.59638 -3.53257 -248.047)
(8.58851 -3.53296 -248.05)
(8.58238 -3.53416 -248.055)
(8.57815 -3.53424 -248.057)
(8.57506 -3.53466 -248.06)
(9.85714 1.2589 -240.894)
(11.7944 1.87073 -245.832)
(10.6278 2.37636 -246.566)
(11.1545 2.33696 -246.612)
(10.7734 2.29581 -246.247)
(10.9779 2.24244 -245.983)
(10.8395 2.2278 -245.91)
(10.9213 2.22134 -245.931)
(10.8389 2.21831 -245.964)
(10.8654 2.21516 -245.999)
(10.8083 2.21649 -246.021)
(10.8013 2.21648 -246.036)
(10.7528 2.21622 -246.054)
(10.7294 2.21743 -246.071)
(10.683 2.2183 -246.085)
(10.6477 2.2194 -246.098)
(10.6009 2.21992 -246.112)
(10.5586 2.22013 -246.129)
(10.5113 2.21946 -246.141)
(10.4691 2.21893 -246.151)
(10.4238 2.22012 -246.166)
(10.3777 2.22009 -246.178)
(10.334 2.21984 -246.189)
(10.2909 2.22074 -246.199)
(10.2482 2.22135 -246.209)
(10.2062 2.222 -246.221)
(10.1654 2.22182 -246.23)
(10.1285 2.22167 -246.238)
(10.0925 2.22225 -246.247)
(10.0577 2.22232 -246.255)
(10.0262 2.22226 -246.263)
(9.99688 2.22281 -246.27)
(9.96858 2.22343 -246.276)
(9.94188 2.22338 -246.283)
(9.91767 2.22363 -246.289)
(9.89505 2.22376 -246.295)
(9.8742 2.22375 -246.3)
(9.85468 2.22415 -246.306)
(9.83629 2.22418 -246.312)
(9.81989 2.22439 -246.316)
(9.59637 -0.437115 -240.216)
(11.3179 -1.42108 -245.841)
(10.3294 -1.85841 -246.113)
(11.0242 -2.02009 -246.261)
(10.6844 -2.04104 -245.704)
(10.9041 -2.04278 -245.442)
(10.7531 -2.04214 -245.328)
(10.8323 -2.04452 -245.357)
(10.7487 -2.04577 -245.382)
(10.7709 -2.04521 -245.411)
(10.7093 -2.04703 -245.43)
(10.703 -2.04774 -245.447)
(10.6517 -2.04824 -245.459)
(10.627 -2.04943 -245.476)
(10.5801 -2.0509 -245.491)
(10.5455 -2.05249 -245.502)
(10.5001 -2.05336 -245.516)
(10.4594 -2.05441 -245.53)
(10.4143 -2.05425 -245.543)
(10.37 -2.05428 -245.556)
(10.3244 -2.05586 -245.57)
(10.2805 -2.05608 -245.583)
(10.2357 -2.05653 -245.596)
(10.1923 -2.05764 -245.608)
(10.1502 -2.0585 -245.62)
(10.1096 -2.05975 -245.631)
(10.0709 -2.05982 -245.641)
(10.0332 -2.06027 -245.653)
(9.9977 -2.06136 -245.662)
(9.96452 -2.06153 -245.672)
(9.93284 -2.06212 -245.681)
(9.90331 -2.06279 -245.69)
(9.87599 -2.06365 -245.699)
(9.85072 -2.06424 -245.708)
(9.82717 -2.06457 -245.716)
(9.80518 -2.06526 -245.725)
(9.78485 -2.06558 -245.733)
(9.76624 -2.06618 -245.741)
(9.74877 -2.06652 -245.75)
(9.73259 -2.06684 -245.758)
(9.7215 0.495787 -240.721)
(11.5519 1.08178 -245.809)
(10.5266 1.43097 -246.627)
(11.0944 1.45625 -246.692)
(10.7441 1.45958 -246.32)
(10.9435 1.43043 -246.059)
(10.8055 1.42097 -245.992)
(10.8872 1.41195 -246.024)
(10.8086 1.40834 -246.064)
(10.8344 1.40489 -246.096)
(10.7765 1.40394 -246.122)
(10.7711 1.40349 -246.139)
(10.7216 1.4032 -246.154)
(10.6977 1.40336 -246.171)
(10.6514 1.40402 -246.188)
(10.6164 1.40453 -246.203)
(10.5703 1.40486 -246.215)
(10.5293 1.40532 -246.228)
(10.4829 1.40522 -246.243)
(10.4395 1.40515 -246.255)
(10.3941 1.40582 -246.267)
(10.3491 1.40595 -246.281)
(10.3051 1.40608 -246.291)
(10.2618 1.40663 -246.301)
(10.2191 1.40686 -246.314)
(10.1781 1.40744 -246.325)
(10.1381 1.4075 -246.334)
(10.1007 1.40761 -246.342)
(10.0651 1.40813 -246.35)
(10.0309 1.40816 -246.36)
(9.99947 1.40834 -246.367)
(9.96992 1.40874 -246.374)
(9.94201 1.40891 -246.381)
(9.91624 1.40922 -246.387)
(9.89206 1.4094 -246.394)
(9.86974 1.40945 -246.4)
(9.84925 1.40973 -246.405)
(9.82985 1.40986 -246.411)
(9.81207 1.40994 -246.416)
(9.79574 1.41023 -246.421)
(9.62068 -0.345652 -240.537)
(11.3386 -0.952929 -245.841)
(10.3709 -1.25165 -246.507)
(11.0144 -1.34152 -246.666)
(10.702 -1.37243 -246.311)
(10.922 -1.37222 -246.074)
(10.7874 -1.37283 -246.017)
(10.8709 -1.3707 -246.052)
(10.7922 -1.36964 -246.092)
(10.8173 -1.36796 -246.129)
(10.7582 -1.36804 -246.153)
(10.7526 -1.36761 -246.168)
(10.7021 -1.36771 -246.185)
(10.6781 -1.36837 -246.201)
(10.6314 -1.36904 -246.215)
(10.5964 -1.36972 -246.229)
(10.5508 -1.37009 -246.243)
(10.5099 -1.3708 -246.258)
(10.4641 -1.37105 -246.272)
(10.4201 -1.37104 -246.284)
(10.3747 -1.37175 -246.297)
(10.3302 -1.37211 -246.31)
(10.2854 -1.37233 -246.321)
(10.242 -1.3729 -246.333)
(10.1996 -1.37355 -246.344)
(10.1587 -1.37401 -246.354)
(10.1195 -1.3742 -246.364)
(10.0819 -1.37469 -246.373)
(10.0463 -1.37516 -246.381)
(10.0126 -1.37542 -246.39)
(9.98093 -1.37569 -246.397)
(9.95122 -1.37611 -246.405)
(9.92351 -1.37668 -246.412)
(9.89805 -1.37687 -246.417)
(9.87405 -1.37707 -246.425)
(9.85186 -1.37748 -246.431)
(9.83148 -1.37771 -246.437)
(9.81239 -1.37805 -246.442)
(9.79475 -1.37819 -246.448)
(9.77837 -1.37849 -246.454)
(9.62073 0.345682 -240.537)
(11.3386 0.952972 -245.84)
(10.3712 1.25175 -246.507)
(11.0147 1.34161 -246.666)
(10.7024 1.37254 -246.311)
(10.9227 1.37232 -246.075)
(10.7881 1.37281 -246.016)
(10.8716 1.37057 -246.051)
(10.7924 1.36953 -246.094)
(10.8172 1.36766 -246.129)
(10.7581 1.36789 -246.152)
(10.7523 1.36753 -246.17)
(10.702 1.36735 -246.186)
(10.6777 1.36818 -246.202)
(10.6311 1.36876 -246.217)
(10.5963 1.36925 -246.228)
(10.5504 1.36998 -246.243)
(10.5096 1.3704 -246.258)
(10.4639 1.37088 -246.271)
(10.4201 1.3711 -246.284)
(10.3744 1.37135 -246.298)
(10.3298 1.37217 -246.31)
(10.2858 1.37245 -246.32)
(10.2423 1.37271 -246.333)
(10.1997 1.37355 -246.345)
(10.1589 1.37384 -246.354)
(10.1192 1.37405 -246.364)
(10.0817 1.37465 -246.373)
(10.0462 1.37502 -246.382)
(10.0124 1.3754 -246.39)
(9.98096 1.3757 -246.398)
(9.95132 1.37612 -246.406)
(9.92364 1.3766 -246.412)
(9.89812 1.3768 -246.417)
(9.87404 1.37707 -246.425)
(9.85192 1.37732 -246.431)
(9.83144 1.3776 -246.437)
(9.81229 1.37792 -246.442)
(9.79478 1.3781 -246.448)
(9.77833 1.37841 -246.454)
(9.72146 -0.495779 -240.721)
(11.5519 -1.08177 -245.809)
(10.5264 -1.43095 -246.627)
(11.0941 -1.45614 -246.692)
(10.7437 -1.45958 -246.32)
(10.9427 -1.43039 -246.059)
(10.8046 -1.42063 -245.993)
(10.8866 -1.41161 -246.022)
(10.8082 -1.40778 -246.063)
(10.8344 -1.40431 -246.097)
(10.7769 -1.40397 -246.119)
(10.7712 -1.40322 -246.138)
(10.7217 -1.40268 -246.156)
(10.6982 -1.40348 -246.173)
(10.6512 -1.40385 -246.187)
(10.6166 -1.40424 -246.198)
(10.5708 -1.40473 -246.214)
(10.5294 -1.40499 -246.229)
(10.4836 -1.40534 -246.241)
(10.4393 -1.40514 -246.254)
(10.3943 -1.40526 -246.269)
(10.3499 -1.4062 -246.28)
(10.3046 -1.40618 -246.29)
(10.2615 -1.40627 -246.303)
(10.219 -1.40702 -246.314)
(10.1777 -1.40707 -246.324)
(10.1385 -1.40715 -246.334)
(10.1009 -1.40763 -246.343)
(10.0652 -1.40796 -246.351)
(10.0313 -1.4082 -246.36)
(9.99952 -1.40838 -246.367)
(9.96971 -1.40867 -246.375)
(9.94172 -1.40893 -246.381)
(9.91625 -1.40898 -246.386)
(9.89202 -1.40922 -246.394)
(9.86958 -1.40934 -246.4)
(9.8493 -1.40953 -246.405)
(9.82998 -1.40987 -246.411)
(9.81213 -1.40982 -246.416)
(9.79574 -1.41003 -246.422)
(9.59641 0.437153 -240.216)
(11.3179 1.42123 -245.841)
(10.3296 1.85866 -246.113)
(11.0244 2.02017 -246.261)
(10.6847 2.04147 -245.705)
(10.9051 2.04321 -245.442)
(10.7541 2.04167 -245.328)
(10.8329 2.04379 -245.357)
(10.749 2.04453 -245.382)
(10.7706 2.04389 -245.412)
(10.7089 2.04666 -245.431)
(10.703 2.04718 -245.447)
(10.6515 2.04713 -245.463)
(10.6266 2.04925 -245.478)
(10.5802 2.05063 -245.49)
(10.5451 2.05121 -245.504)
(10.4997 2.05265 -245.517)
(10.4592 2.05359 -245.53)
(10.4137 2.05441 -245.544)
(10.3704 2.05418 -245.557)
(10.3241 2.05456 -245.571)
(10.2798 2.05674 -245.584)
(10.2363 2.05692 -245.596)
(10.1925 2.05684 -245.608)
(10.1503 2.0587 -245.62)
(10.1101 2.05891 -245.63)
(10.0704 2.05898 -245.642)
(10.033 2.06045 -245.653)
(9.99764 2.06081 -245.662)
(9.96414 2.06161 -245.672)
(9.93293 2.06231 -245.681)
(9.90359 2.06291 -245.691)
(9.87634 2.06359 -245.7)
(9.85078 2.0638 -245.707)
(9.827 2.06454 -245.716)
(9.80528 2.06476 -245.726)
(9.78474 2.06506 -245.734)
(9.76604 2.06595 -245.742)
(9.74888 2.06611 -245.75)
(9.73246 2.06645 -245.759)
(9.85711 -1.25889 -240.894)
(11.7945 -1.87086 -245.832)
(10.6275 -2.37648 -246.566)
(11.1544 -2.33679 -246.612)
(10.7734 -2.29628 -246.247)
(10.9764 -2.24273 -245.983)
(10.8375 -2.22687 -245.91)
(10.9201 -2.22015 -245.931)
(10.838 -2.21668 -245.964)
(10.8659 -2.21362 -245.999)
(10.8096 -2.2163 -246.022)
(10.8012 -2.21626 -246.037)
(10.7526 -2.21516 -246.054)
(10.7302 -2.21696 -246.071)
(10.6823 -2.21794 -246.089)
(10.6475 -2.21843 -246.1)
(10.6015 -2.21907 -246.111)
(10.5598 -2.21947 -246.127)
(10.5128 -2.21991 -246.141)
(10.4677 -2.21864 -246.155)
(10.4243 -2.21882 -246.166)
(10.3798 -2.22084 -246.177)
(10.3326 -2.22025 -246.191)
(10.2904 -2.21998 -246.201)
(10.248 -2.22136 -246.21)
(10.2051 -2.221 -246.221)
(10.1667 -2.2207 -246.232)
(10.129 -2.22178 -246.24)
(10.0923 -2.22198 -246.247)
(10.0586 -2.22209 -246.256)
(10.0266 -2.22271 -246.263)
(9.99628 -2.22316 -246.269)
(9.96755 -2.22285 -246.276)
(9.94227 -2.22282 -246.283)
(9.91773 -2.22356 -246.29)
(9.89444 -2.22329 -246.295)
(9.8744 -2.2235 -246.3)
(9.85474 -2.2241 -246.305)
(9.83624 -2.22388 -246.311)
(9.82001 -2.22404 -246.316)
(8.59193 0.967405 -239.593)
(10.5768 2.75373 -246.963)
(9.10869 3.41345 -247.923)
(9.7757 3.5636 -248.37)
(9.33555 3.51633 -247.956)
(9.53634 3.49312 -247.776)
(9.36597 3.48807 -247.682)
(9.44037 3.4977 -247.709)
(9.35658 3.49856 -247.725)
(9.37762 3.4949 -247.743)
(9.31636 3.50476 -247.761)
(9.31423 3.50618 -247.776)
(9.26434 3.50288 -247.787)
(9.24152 3.50835 -247.804)
(9.19906 3.5113 -247.82)
(9.16796 3.51193 -247.834)
(9.12642 3.51423 -247.85)
(9.09091 3.51622 -247.867)
(9.05136 3.51823 -247.883)
(9.01441 3.51491 -247.896)
(8.97307 3.51498 -247.912)
(8.93516 3.52187 -247.929)
(8.90014 3.52082 -247.943)
(8.8631 3.51939 -247.957)
(8.82856 3.52409 -247.972)
(8.79765 3.52335 -247.983)
(8.76599 3.52234 -247.992)
(8.73742 3.52593 -248.003)
(8.71212 3.52641 -248.011)
(8.68812 3.52678 -248.017)
(8.66707 3.52881 -248.023)
(8.64863 3.53023 -248.029)
(8.63267 3.52982 -248.034)
(8.61815 3.53002 -248.038)
(8.60628 3.53248 -248.043)
(8.59708 3.53172 -248.047)
(8.58838 3.53203 -248.05)
(8.58245 3.53438 -248.054)
(8.57845 3.53364 -248.057)
(8.57484 3.53386 -248.06)
(14.5389 1.59759 0.201972)
(11.8778 3.81444 0.0792943)
(12.3622 4.73671 0.150596)
(11.2921 4.80775 0.109799)
(11.1195 4.60344 0.130631)
(10.935 4.45385 0.115901)
(10.8375 4.39282 0.121298)
(10.8164 4.38083 0.116759)
(10.7243 4.37355 0.118048)
(10.7143 4.3645 0.116486)
(10.6457 4.36887 0.116461)
(10.622 4.37027 0.115617)
(10.5648 4.36844 0.115277)
(10.5343 4.37111 0.114702)
(10.483 4.37242 0.114275)
(10.4454 4.37579 0.113809)
(10.3963 4.37897 0.113407)
(10.3516 4.37964 0.113004)
(10.3038 4.37571 0.11266)
(10.2625 4.3739 0.112332)
(10.2178 4.37868 0.112055)
(10.1714 4.37784 0.111789)
(10.1297 4.3756 0.111599)
(10.0889 4.37806 0.111431)
(10.0481 4.37957 0.111282)
(10.0092 4.38185 0.111181)
(9.97069 4.38091 0.111101)
(9.93798 4.37962 0.111064)
(9.906 4.38196 0.11103)
(9.87599 4.38142 0.110993)
(9.8502 4.38074 0.110992)
(9.82661 4.38178 0.110984)
(9.80523 4.38429 0.110971)
(9.78483 4.38477 0.110954)
(9.76782 4.38382 0.110939)
(9.75337 4.38426 0.110927)
(9.74073 4.38489 0.110889)
(9.72975 4.3853 0.110851)
(9.721 4.38489 0.110798)
(9.71376 4.38575 0.110739)
(13.8033 -0.737009 0.0210326)
(11.1675 -1.41273 -0.0926422)
(12.6535 -1.83101 -0.0301495)
(12.3104 -2.16739 -0.0668828)
(12.5318 -2.34429 -0.0480045)
(12.4321 -2.42294 -0.0617486)
(12.3388 -2.4367 -0.0567239)
(12.2966 -2.43768 -0.0610046)
(12.1978 -2.43444 -0.0597935)
(12.1683 -2.43105 -0.0613422)
(12.0854 -2.42997 -0.0614209)
(12.0551 -2.4287 -0.0622013)
(11.9894 -2.42753 -0.06257)
(11.9512 -2.42825 -0.0631894)
(11.8951 -2.42891 -0.063583)
(11.852 -2.4311 -0.0640507)
(11.8007 -2.43139 -0.06447)
(11.7558 -2.43155 -0.0648758)
(11.7061 -2.43341 -0.0652527)
(11.6544 -2.43363 -0.0655856)
(11.6037 -2.4334 -0.0658655)
(11.5559 -2.43428 -0.066123)
(11.5047 -2.43577 -0.0663515)
(11.4559 -2.43667 -0.0665614)
(11.4085 -2.4371 -0.0666804)
(11.3634 -2.43861 -0.0667777)
(11.3206 -2.43961 -0.0668945)
(11.2774 -2.44013 -0.0669498)
(11.2375 -2.44066 -0.0669877)
(11.2003 -2.44184 -0.067026)
(11.1638 -2.44271 -0.0670625)
(11.1298 -2.44334 -0.0671025)
(11.0984 -2.44509 -0.067095)
(11.0696 -2.44543 -0.0671087)
(11.0427 -2.44603 -0.0671567)
(11.0169 -2.44732 -0.0671713)
(10.9931 -2.44772 -0.0671985)
(10.971 -2.44841 -0.0672403)
(10.9504 -2.44938 -0.0672948)
(10.9307 -2.45004 -0.0673635)
(13.9592 0.47112 0.11688)
(11.7112 1.61261 0.0174973)
(12.8634 2.18721 0.0789464)
(12.371 2.43461 0.0426505)
(12.4522 2.44283 0.0620781)
(12.3116 2.40842 0.0480801)
(12.1991 2.37177 0.0532035)
(12.1583 2.35347 0.0488001)
(12.057 2.34281 0.0500163)
(12.0338 2.33505 0.0484693)
(11.9566 2.33309 0.0484566)
(11.9278 2.33231 0.0476037)
(11.8662 2.3311 0.0472636)
(11.8308 2.33138 0.0466969)
(11.7765 2.332 0.0462428)
(11.7346 2.33368 0.0457845)
(11.682 2.33467 0.0453931)
(11.6364 2.33518 0.0449474)
(11.5855 2.33488 0.0446108)
(11.536 2.33459 0.0442836)
(11.4863 2.33566 0.0439638)
(11.4373 2.3358 0.0437249)
(11.3884 2.3357 0.0435263)
(11.3404 2.33684 0.0433409)
(11.2932 2.33735 0.0431945)
(11.2481 2.33848 0.0430645)
(11.2039 2.3386 0.043002)
(11.1622 2.33863 0.0429518)
(11.1224 2.33961 0.0428814)
(11.0851 2.33958 0.0428679)
(11.0495 2.34019 0.0428609)
(11.0163 2.34067 0.0428323)
(10.9854 2.34163 0.0428146)
(10.956 2.34228 0.0427795)
(10.9293 2.34238 0.042781)
(10.904 2.34303 0.0427644)
(10.8804 2.34345 0.0427016)
(10.8588 2.34396 0.0426786)
(10.8386 2.3442 0.0426353)
(10.8196 2.34474 0.0425618)
(13.8432 -0.258048 0.0555053)
(11.2245 -0.735982 -0.0514768)
(12.4384 -0.966062 0.00812068)
(12.0172 -1.14532 -0.0276221)
(12.2504 -1.24495 -0.00929075)
(12.2016 -1.31423 -0.0227863)
(12.1519 -1.34223 -0.0178718)
(12.1351 -1.35709 -0.022102)
(12.0478 -1.36208 -0.020922)
(12.0276 -1.36363 -0.0224249)
(11.9502 -1.36406 -0.0224448)
(11.9213 -1.36414 -0.0232727)
(11.858 -1.36373 -0.0236128)
(11.8213 -1.36395 -0.0241703)
(11.7659 -1.36443 -0.0245924)
(11.7234 -1.36542 -0.0250723)
(11.6723 -1.36592 -0.0254985)
(11.6262 -1.36633 -0.0258909)
(11.5762 -1.36727 -0.0262328)
(11.5271 -1.36765 -0.0266077)
(11.4769 -1.36789 -0.0268815)
(11.4282 -1.36854 -0.0271226)
(11.3783 -1.36943 -0.0273763)
(11.3305 -1.37022 -0.0275417)
(11.2836 -1.37042 -0.027672)
(11.2384 -1.37132 -0.027794)
(11.1951 -1.37188 -0.027881)
(11.1533 -1.37256 -0.0279738)
(11.1136 -1.37319 -0.0280055)
(11.0764 -1.37369 -0.0280243)
(11.0408 -1.37464 -0.0280859)
(11.0078 -1.37511 -0.02809)
(10.9769 -1.37576 -0.0280938)
(10.9477 -1.37648 -0.0281257)
(10.9212 -1.37697 -0.0281489)
(10.8962 -1.37761 -0.0282008)
(10.873 -1.37813 -0.0282188)
(10.8514 -1.37864 -0.0282502)
(10.8312 -1.37925 -0.0283318)
(10.8123 -1.37979 -0.0283799)
(13.9146 0.225444 0.0829755)
(11.4893 0.793688 -0.017568)
(12.6195 1.06817 0.0419999)
(12.1425 1.25029 0.00702989)
(12.2993 1.3111 0.025773)
(12.2184 1.34573 0.0122996)
(12.1473 1.35433 0.0173131)
(12.1235 1.35964 0.0130379)
(12.0314 1.3597 0.0142714)
(12.0106 1.35851 0.0127623)
(11.9341 1.35786 0.0127135)
(11.9055 1.35745 0.0119429)
(11.8431 1.35681 0.0115998)
(11.8071 1.35712 0.0109895)
(11.7524 1.35747 0.0105947)
(11.7104 1.35848 0.0101309)
(11.6585 1.35896 0.0097022)
(11.6126 1.35934 0.00929907)
(11.5621 1.36006 0.00894329)
(11.5132 1.36015 0.00858203)
(11.4633 1.3607 0.00830564)
(11.4142 1.3612 0.00805671)
(11.3653 1.36151 0.00783414)
(11.3176 1.36224 0.0076511)
(11.2706 1.36283 0.00748134)
(11.2256 1.36343 0.00738981)
(11.1819 1.364 0.00731662)
(11.1402 1.36436 0.00722155)
(11.1007 1.36495 0.00719482)
(11.0634 1.36549 0.00717361)
(11.0281 1.36591 0.00714288)
(10.9952 1.36641 0.00712376)
(10.9645 1.36717 0.00708431)
(10.9353 1.36774 0.00708342)
(10.9088 1.368 0.00707357)
(10.8839 1.36857 0.00701927)
(10.8606 1.36909 0.00700152)
(10.8392 1.36961 0.00697185)
(10.8192 1.37 0.0069094)
(10.8004 1.37056 0.00684771)
(13.9145 -0.225454 0.0829704)
(11.4893 -0.793679 -0.0175752)
(12.6194 -1.06818 0.0419923)
(12.1423 -1.25019 0.00702028)
(12.299 -1.31108 0.0257608)
(12.2179 -1.34573 0.0122899)
(12.1468 -1.35407 0.0173026)
(12.1229 -1.35927 0.0130459)
(12.0311 -1.35916 0.014278)
(12.0105 -1.3579 0.012741)
(11.9341 -1.3576 0.0127282)
(11.9058 -1.3572 0.011934)
(11.8432 -1.35637 0.0115629)
(11.8073 -1.35676 0.0109895)
(11.7526 -1.35714 0.01055)
(11.7104 -1.35795 0.0100927)
(11.6588 -1.35867 0.0097016)
(11.6127 -1.35896 0.00925283)
(11.5624 -1.35986 0.00892238)
(11.5134 -1.36018 0.00859194)
(11.4635 -1.36011 0.00826799)
(11.4146 -1.36116 0.00803283)
(11.3651 -1.3618 0.00782338)
(11.3175 -1.36207 0.00763886)
(11.2705 -1.36281 0.00749233)
(11.2254 -1.3633 0.00738344)
(11.1819 -1.36371 0.00730724)
(11.1403 -1.36444 0.00721338)
(11.1008 -1.36487 0.00718435)
(11.0635 -1.36551 0.00716764)
(11.028 -1.36611 0.00713225)
(10.9952 -1.36649 0.00711563)
(10.9644 -1.36719 0.007078)
(10.9353 -1.36762 0.00707545)
(10.9088 -1.36803 0.00706617)
(10.8839 -1.36846 0.00700828)
(10.8608 -1.36891 0.00699297)
(10.8392 -1.36956 0.00696343)
(10.8192 -1.36997 0.00689874)
(10.8006 -1.37048 0.00683815)
(13.8433 0.258055 0.055509)
(11.2245 0.735947 -0.0514711)
(12.4386 0.966087 0.00812716)
(12.0174 1.14535 -0.0276145)
(12.2506 1.24488 -0.00928074)
(12.2022 1.31412 -0.0227759)
(12.1527 1.3422 -0.017859)
(12.1359 1.35684 -0.0220915)
(12.0483 1.36189 -0.0208782)
(12.0275 1.36338 -0.0224047)
(11.95 1.36343 -0.0224353)
(11.9211 1.36382 -0.0232205)
(11.8579 1.36353 -0.0235923)
(11.8209 1.36377 -0.0241655)
(11.766 1.36426 -0.0245926)
(11.7237 1.36516 -0.0250563)
(11.6718 1.36581 -0.0254471)
(11.6261 1.36601 -0.0258897)
(11.5756 1.36698 -0.0262294)
(11.5271 1.36762 -0.0265552)
(11.4768 1.36796 -0.0268864)
(11.4273 1.36869 -0.027127)
(11.3786 1.36918 -0.0273287)
(11.3306 1.36999 -0.0275216)
(11.2836 1.37058 -0.0276742)
(11.2389 1.37107 -0.0277828)
(11.1949 1.37169 -0.0278648)
(11.153 1.3723 -0.0279636)
(11.1136 1.37307 -0.0279937)
(11.0761 1.37378 -0.0280169)
(11.0407 1.37426 -0.0280549)
(11.0079 1.3749 -0.0280766)
(10.9772 1.37561 -0.0281164)
(10.9478 1.37631 -0.0281214)
(10.9212 1.37674 -0.0281339)
(10.8964 1.37726 -0.0281895)
(10.8728 1.37806 -0.0282105)
(10.8512 1.37856 -0.0282418)
(10.8311 1.37893 -0.0283061)
(10.8121 1.37965 -0.0283712)
(13.9591 -0.471115 0.116875)
(11.7111 -1.61261 0.01749)
(12.8633 -2.18734 0.0789393)
(12.3706 -2.43436 0.0426414)
(12.4519 -2.44296 0.0620689)
(12.3111 -2.40873 0.0480716)
(12.1981 -2.37121 0.0531924)
(12.1574 -2.35237 0.0487897)
(12.0568 -2.3409 0.0500054)
(12.0332 -2.33325 0.0484521)
(11.9566 -2.33226 0.0484433)
(11.9286 -2.33156 0.0476181)
(11.8661 -2.32991 0.0472503)
(11.831 -2.33091 0.0466433)
(11.7765 -2.33175 0.046244)
(11.7344 -2.33263 0.045777)
(11.6825 -2.33381 0.0453416)
(11.6363 -2.33413 0.0449441)
(11.586 -2.33508 0.04461)
(11.5366 -2.33468 0.0442625)
(11.4866 -2.33392 0.0439749)
(11.4376 -2.33618 0.0437001)
(11.388 -2.33659 0.0435013)
(11.3404 -2.33605 0.0433409)
(11.2931 -2.33778 0.0431709)
(11.2475 -2.33784 0.0430746)
(11.204 -2.33765 0.0430067)
(11.1624 -2.33887 0.0429392)
(11.1227 -2.33914 0.0428943)
(11.085 -2.33997 0.042846)
(11.0494 -2.34056 0.0428409)
(11.0163 -2.34096 0.0428385)
(10.9852 -2.34163 0.0427927)
(10.956 -2.34161 0.0427907)
(10.9292 -2.34239 0.0427875)
(10.9041 -2.34243 0.0427423)
(10.8807 -2.34266 0.0427089)
(10.8587 -2.34392 0.0426556)
(10.8387 -2.34374 0.0426164)
(10.8199 -2.34412 0.0425654)
(13.8033 0.737043 0.0210332)
(11.1674 1.41264 -0.0926407)
(12.6538 1.83118 -0.0301465)
(12.3105 2.16742 -0.0668801)
(12.5317 2.3441 -0.048)
(12.4335 2.42306 -0.0617383)
(12.3406 2.43668 -0.0567137)
(12.2981 2.43632 -0.0609977)
(12.1985 2.43355 -0.0597839)
(12.1669 2.43001 -0.0613359)
(12.084 2.42753 -0.0614154)
(12.0551 2.42813 -0.0621844)
(11.9891 2.4274 -0.0625604)
(11.9501 2.42723 -0.0631557)
(11.8953 2.42842 -0.0635635)
(11.8523 2.42993 -0.0640774)
(11.8002 2.43069 -0.0644587)
(11.7543 2.43069 -0.0648562)
(11.7045 2.43237 -0.0652206)
(11.6561 2.43358 -0.0655565)
(11.603 2.43351 -0.0658895)
(11.5529 2.43482 -0.0661251)
(11.506 2.43533 -0.0663207)
(11.4565 2.43618 -0.0665452)
(11.4084 2.43763 -0.066671)
(11.3646 2.4379 -0.0667713)
(11.3192 2.43838 -0.0668705)
(11.2769 2.43948 -0.0669377)
(11.2376 2.44044 -0.0669778)
(11.199 2.44199 -0.0670109)
(11.1633 2.44252 -0.0670715)
(11.1305 2.44351 -0.0670717)
(11.0997 2.44452 -0.0670778)
(11.0693 2.44515 -0.0671162)
(11.0423 2.44594 -0.0671377)
(11.0176 2.44647 -0.067168)
(10.9927 2.44789 -0.0672131)
(10.9707 2.44837 -0.0672575)
(10.9507 2.44875 -0.067293)
(10.9303 2.44995 -0.0673602)
(14.5389 -1.59747 0.201969)
(11.878 -3.81469 0.0792897)
(12.3617 -4.73701 0.150592)
(11.2921 -4.80699 0.109795)
(11.1198 -4.60483 0.130622)
(10.9331 -4.45575 0.115895)
(10.8358 -4.39212 0.121297)
(10.815 -4.37858 0.116758)
(10.7239 -4.3687 0.118053)
(10.7169 -4.36065 0.116484)
(10.6476 -4.36923 0.116453)
(10.622 -4.37023 0.115618)
(10.5657 -4.36612 0.115273)
(10.5359 -4.37065 0.114694)
(10.4833 -4.3729 0.114264)
(10.4452 -4.37411 0.113795)
(10.3969 -4.37624 0.113403)
(10.3536 -4.37711 0.112985)
(10.3054 -4.37869 0.112645)
(10.2604 -4.3743 0.112319)
(10.2188 -4.37241 0.112053)
(10.1759 -4.38004 0.111803)
(10.1287 -4.37935 0.11158)
(10.0885 -4.37619 0.11143)
(10.0486 -4.38063 0.111296)
(10.0077 -4.3797 0.111175)
(9.97274 -4.37785 0.111118)
(9.93874 -4.38108 0.111068)
(9.90586 -4.38082 0.111018)
(9.8775 -4.38092 0.11101)
(9.85059 -4.38291 0.110987)
(9.82561 -4.38423 0.110976)
(9.80307 -4.38278 0.110966)
(9.78515 -4.3822 0.110954)
(9.76808 -4.38497 0.110944)
(9.75225 -4.38314 0.110904)
(9.74144 -4.38342 0.110886)
(9.73001 -4.38622 0.11085)
(9.72033 -4.38432 0.110786)
(9.71433 -4.38426 0.110738)
(11.6935 -0.152935 -0.110155)
(11.7425 -0.244724 0.00370798)
(11.833 -0.315579 -0.0664256)
(11.8275 -0.347833 -0.0444724)
(11.8825 -0.355168 -0.0597724)
(11.9126 -0.357512 -0.0578232)
(11.8851 -0.356298 -0.0617817)
(11.9177 -0.356267 -0.0627653)
(11.8686 -0.355681 -0.0645346)
(11.8826 -0.355643 -0.0659061)
(11.8322 -0.355791 -0.067258)
(11.825 -0.35511 -0.0685089)
(11.7763 -0.354647 -0.0696689)
(11.7517 -0.354474 -0.0706938)
(11.7048 -0.354494 -0.0716009)
(11.6698 -0.354786 -0.0724121)
(11.6236 -0.354132 -0.0731489)
(11.5811 -0.353888 -0.0738233)
(11.5343 -0.354385 -0.0743426)
(11.4894 -0.354231 -0.0748473)
(11.4419 -0.353986 -0.0753147)
(11.3957 -0.354151 -0.0756809)
(11.3493 -0.354171 -0.075999)
(11.304 -0.354143 -0.0762821)
(11.2595 -0.35424 -0.0765136)
(11.2169 -0.354368 -0.076687)
(11.1757 -0.354311 -0.0768538)
(11.1363 -0.354269 -0.0769991)
(11.0988 -0.354323 -0.0771208)
(11.0636 -0.354557 -0.0772075)
(11.0308 -0.354538 -0.0772973)
(10.9996 -0.354614 -0.0773891)
(10.9713 -0.355053 -0.077446)
(10.9449 -0.354703 -0.0775397)
(10.9199 -0.354733 -0.0776328)
(10.8974 -0.355168 -0.0776987)
(10.8766 -0.354936 -0.0778048)
(10.8568 -0.355047 -0.0779211)
(10.8393 -0.355376 -0.0780041)
(10.8229 -0.355201 -0.0781434)
(11.7716 -0.0129788 0.0136216)
(11.9375 -0.0696077 0.145352)
(12.0658 -0.110978 0.0842766)
(12.0391 -0.136125 0.11432)
(12.0791 -0.141353 0.0991642)
(12.0889 -0.13952 0.102336)
(12.0518 -0.136864 0.0979787)
(12.0761 -0.134719 0.0971225)
(12.0225 -0.132901 0.0952148)
(12.0331 -0.131809 0.0938615)
(11.9799 -0.131123 0.0925147)
(11.9705 -0.130489 0.0912725)
(11.9209 -0.130215 0.0901134)
(11.8953 -0.130167 0.0891316)
(11.8478 -0.130252 0.0882259)
(11.8113 -0.130319 0.0874507)
(11.7642 -0.130073 0.0867328)
(11.7217 -0.130139 0.0860854)
(11.6742 -0.130161 0.0855669)
(11.6282 -0.12997 0.0850736)
(11.5805 -0.130033 0.0846413)
(11.5336 -0.130058 0.0843023)
(11.4867 -0.130039 0.083982)
(11.4407 -0.130112 0.0837054)
(11.3956 -0.130197 0.083488)
(11.352 -0.130143 0.0833084)
(11.31 -0.130048 0.0831695)
(11.2699 -0.130031 0.0830289)
(11.2318 -0.130105 0.0829156)
(11.1957 -0.130117 0.0828401)
(11.1618 -0.130043 0.0827498)
(11.13 -0.130149 0.0826607)
(11.1003 -0.130075 0.0826227)
(11.0727 -0.129901 0.0825323)
(11.0472 -0.129989 0.0824344)
(11.0234 -0.129974 0.082366)
(11.0012 -0.129788 0.0822757)
(10.9809 -0.12988 0.0821686)
(10.9617 -0.129864 0.0820564)
(10.944 -0.129685 0.0819659)
(11.7366 0.0158612 -0.0630626)
(11.8756 0.0738894 0.0467505)
(11.992 0.0880995 -0.0156813)
(11.9928 0.094329 0.00760594)
(12.0395 0.0896378 -0.00824238)
(12.062 0.0826461 -0.00694799)
(12.0286 0.0788974 -0.0113857)
(12.0574 0.0756769 -0.012644)
(12.0058 0.0744347 -0.0145785)
(12.0184 0.073526 -0.0160214)
(11.9664 0.0730052 -0.0173914)
(11.9581 0.0728913 -0.018639)
(11.9092 0.0729303 -0.0198032)
(11.884 0.0729792 -0.0208116)
(11.8368 0.0729972 -0.0217173)
(11.8007 0.0728809 -0.0225131)
(11.7538 0.073027 -0.0232414)
(11.7114 0.0730768 -0.0239008)
(11.6638 0.073002 -0.024438)
(11.6183 0.0730507 -0.0249522)
(11.5706 0.0731166 -0.0254017)
(11.5239 0.0730861 -0.0257659)
(11.4771 0.0731043 -0.0260935)
(11.4312 0.0730399 -0.0263511)
(11.3863 0.07304 -0.0265996)
(11.3428 0.0730529 -0.0268052)
(11.3009 0.0730921 -0.0269644)
(11.2609 0.0730939 -0.0271021)
(11.2229 0.0730649 -0.0272172)
(11.1869 0.0730557 -0.0273246)
(11.1532 0.0730108 -0.0273886)
(11.1217 0.0729521 -0.0274897)
(11.0921 0.072877 -0.0275888)
(11.0647 0.0729552 -0.0276546)
(11.0393 0.0729105 -0.0277427)
(11.0156 0.0728068 -0.0278319)
(10.9938 0.0728711 -0.0279337)
(10.9736 0.0728338 -0.0280427)
(10.9547 0.0727519 -0.0281564)
(10.9373 0.0727831 -0.0282807)
(11.7523 -0.0498824 -0.0244878)
(11.8884 -0.173845 0.0997635)
(12.0011 -0.235173 0.0402529)
(11.9897 -0.273827 0.0702788)
(12.0428 -0.27903 0.0561757)
(12.0633 -0.283552 0.0599175)
(12.0331 -0.282409 0.0558288)
(12.0609 -0.282064 0.055126)
(12.0096 -0.280963 0.0532449)
(12.0215 -0.280044 0.0519131)
(11.9692 -0.279246 0.0505494)
(11.9604 -0.278555 0.0493085)
(11.9109 -0.278066 0.0481386)
(11.8855 -0.277771 0.0471336)
(11.838 -0.277559 0.0462228)
(11.8017 -0.277473 0.0454223)
(11.7545 -0.277317 0.0447075)
(11.712 -0.277259 0.0440807)
(11.6645 -0.277232 0.0435328)
(11.6186 -0.277168 0.0430426)
(11.5709 -0.277154 0.042613)
(11.5241 -0.277178 0.0422786)
(11.4774 -0.277193 0.0419556)
(11.4315 -0.277151 0.0416747)
(11.3864 -0.277247 0.0414506)
(11.3429 -0.277262 0.0412702)
(11.3011 -0.27729 0.0411111)
(11.2611 -0.277306 0.0409766)
(11.2231 -0.277299 0.0408719)
(11.1871 -0.277385 0.0407745)
(11.1534 -0.277328 0.0406962)
(11.1217 -0.277367 0.0406092)
(11.0922 -0.277447 0.0405639)
(11.0649 -0.277368 0.0404774)
(11.0394 -0.277388 0.0403794)
(11.0158 -0.277397 0.0403071)
(10.9939 -0.277385 0.0402181)
(10.9737 -0.27744 0.040126)
(10.9549 -0.277427 0.0400076)
(10.9374 -0.277409 0.0398887)
(11.7447 0.04973 -0.0434721)
(11.8849 0.169363 0.0729574)
(11.9923 0.224143 0.0128037)
(11.9863 0.251064 0.0397228)
(12.039 0.254407 0.0250627)
(12.061 0.255604 0.0276848)
(12.0303 0.254341 0.0233904)
(12.0587 0.25389 0.022391)
(12.0073 0.253141 0.0204643)
(12.0194 0.252622 0.0190623)
(11.9672 0.252045 0.0176873)
(11.9586 0.251623 0.0164378)
(11.9093 0.251235 0.0152643)
(11.8839 0.250889 0.0142649)
(11.8365 0.250638 0.0133563)
(11.8003 0.250391 0.0125637)
(11.7534 0.250325 0.0118328)
(11.7108 0.250279 0.011177)
(11.6633 0.250155 0.0106492)
(11.6177 0.250159 0.0101374)
(11.5699 0.250155 0.00968811)
(11.5231 0.250139 0.00935016)
(11.4764 0.250119 0.00901086)
(11.4305 0.250103 0.00871898)
(11.3855 0.25008 0.00850438)
(11.3421 0.250097 0.00831132)
(11.3002 0.250083 0.00816691)
(11.2602 0.250111 0.00801749)
(11.2222 0.250141 0.00789581)
(11.1862 0.250124 0.00782146)
(11.1526 0.250173 0.00771756)
(11.1209 0.250181 0.00762309)
(11.0915 0.250209 0.00757319)
(11.0642 0.250239 0.00747837)
(11.0387 0.250251 0.00737628)
(11.015 0.250255 0.0072951)
(10.9932 0.250277 0.00720421)
(10.973 0.250291 0.00710996)
(10.9542 0.250283 0.00699042)
(10.9368 0.250301 0.00686693)
(11.7446 -0.0497411 -0.0434704)
(11.8849 -0.169398 0.072961)
(11.9923 -0.224186 0.0128082)
(11.9863 -0.251101 0.0397299)
(12.0389 -0.254463 0.0250733)
(12.0609 -0.25567 0.0276989)
(12.0302 -0.254418 0.0234043)
(12.0586 -0.254011 0.0224078)
(12.0073 -0.253208 0.0204798)
(12.0194 -0.252719 0.0190814)
(11.9672 -0.252172 0.0177107)
(11.9586 -0.251685 0.0164576)
(11.9093 -0.25134 0.0152877)
(11.8839 -0.251003 0.0142859)
(11.8365 -0.250738 0.0133749)
(11.8004 -0.250595 0.0125847)
(11.7535 -0.250467 0.0118475)
(11.7109 -0.250379 0.0111964)
(11.6634 -0.25028 0.0106635)
(11.6177 -0.250203 0.0101451)
(11.57 -0.250176 0.00969738)
(11.5232 -0.250131 0.009357)
(11.4764 -0.250162 0.00902304)
(11.4305 -0.250154 0.00872985)
(11.3855 -0.250152 0.00851024)
(11.342 -0.25018 0.00831998)
(11.3002 -0.250179 0.00817362)
(11.2603 -0.250211 0.00802361)
(11.2222 -0.250213 0.00790464)
(11.1863 -0.250223 0.00782534)
(11.1526 -0.250228 0.00772345)
(11.1209 -0.250262 0.00762737)
(11.0914 -0.250265 0.0075781)