/*--------------------------------*- C++ -*----------------------------------*\
  =========                 |
  \\      /  F ield         | OpenFOAM: The Open Source CFD Toolbox
   \\    /   O peration     | Website:  https://openfoam.org
    \\  /    A nd           | Version:  7
     \\/     M anipulation  |
\*---------------------------------------------------------------------------*/
FoamFile
{
    version     2.0;
    format      ascii;
    class       volSymmTensorField;
    location    "2.13";
    object      UPrime2Mean;
}
// * * * * * * * * * * * * * * * * * * * * * * * * * * * * * * * * * * * * * //

dimensions      [0 2 -2 0 0 0 0];

internalField   nonuniform List<symmTensor> 
4950
(
(0.00660069 -0.00230708 -0.000485486 0.00150236 0.000343261 0.000131075)
(0.0344631 -0.00369746 -0.00189275 0.000495659 0.000244043 0.000299257)
(0.0644211 -0.00219747 -0.0028022 9.44312e-05 0.000130315 0.00042882)
(0.0975171 -9.96613e-05 -0.00342295 5.0954e-06 2.85341e-05 0.000490846)
(0.110269 0.000939794 -0.00374915 1.42096e-05 -1.35222e-05 0.000546362)
(0.129207 0.00141786 -0.00395035 2.51698e-05 -2.34818e-05 0.000549106)
(0.133327 0.0014592 -0.00408468 2.73399e-05 -2.20791e-05 0.000547992)
(0.146138 0.00147505 -0.00412688 2.69758e-05 -1.37834e-05 0.000509114)
(0.147712 0.001323 -0.00415931 2.43813e-05 -7.31302e-06 0.000479414)
(0.157579 0.00127288 -0.00411548 2.23039e-05 -3.24594e-06 0.000432844)
(0.158272 0.00109238 -0.00409059 1.89176e-05 -9.86422e-07 0.000403567)
(0.166156 0.00107658 -0.00400367 1.74413e-05 -2.3577e-06 0.000368536)
(0.166502 0.000860105 -0.00394751 1.391e-05 2.62656e-07 0.000351368)
(0.172787 0.000946521 -0.0038416 1.43005e-05 -5.60408e-06 0.000333747)
(0.173166 0.000618252 -0.00376594 9.15794e-06 2.08735e-06 0.000329283)
(0.178082 0.000890048 -0.00366209 1.29864e-05 -1.16311e-05 0.000329501)
(0.17875 9.6269e-05 -0.0035714 2.90223e-06 1.19085e-05 0.000329727)
(0.183571 0.00062225 -0.00352204 1.11601e-05 -1.94179e-05 0.000347413)
(0.179937 -0.00347854 -0.00334087 0.000113045 7.49218e-05 0.000336456)
(0.207262 -0.000245277 -0.00274936 0.000118197 4.1229e-05 0.000355355)
(0.00377793 0.00119782 0.000272735 0.00262656 0.000420794 0.000130577)
(0.00440932 0.000611037 0.000258928 0.00258048 0.000618086 0.000424653)
(0.00852338 -0.000133214 0.000231931 0.00198539 0.000685711 0.000785657)
(0.0125518 -0.00155716 -0.000432622 0.00119432 0.000593389 0.0011025)
(0.020023 -0.00196593 -0.000891361 0.000701393 0.00048329 0.00145542)
(0.0298368 -0.00231839 -0.00163401 0.000448297 0.000379227 0.0017122)
(0.0401894 -0.0023016 -0.0021396 0.000293188 0.000279726 0.00191571)
(0.0525239 -0.00229447 -0.00282601 0.000205575 0.000201221 0.00196195)
(0.063575 -0.00214311 -0.00323055 0.00014855 0.000138613 0.00192488)
(0.0759931 -0.00200009 -0.00372743 0.000112092 9.5679e-05 0.00179239)
(0.0864517 -0.00181056 -0.00394565 8.68363e-05 6.64825e-05 0.00162228)
(0.0978884 -0.00163517 -0.00422645 6.98708e-05 5.13813e-05 0.00143622)
(0.107266 -0.00144043 -0.00428607 5.67514e-05 3.85521e-05 0.00125154)
(0.117531 -0.00127394 -0.00437862 4.93557e-05 4.56195e-05 0.00109765)
(0.125697 -0.00111522 -0.00429715 3.89695e-05 3.43782e-05 0.000956731)
(0.135364 -0.000866579 -0.00422072 3.64568e-05 5.8194e-05 0.000884539)
(0.141234 -0.000869854 -0.00402284 2.36734e-05 3.87806e-05 0.000798229)
(0.152783 0.000300096 -0.00388632 1.93659e-05 1.9748e-05 0.000827834)
(0.150227 -0.000439348 -0.00354697 2.74086e-05 7.39157e-05 0.000767758)
(0.161942 0.00540351 -0.00280379 0.000402616 -0.000302583 0.00085059)
(0.00450496 0.00102313 0.000376556 0.000894098 0.000237371 0.000129787)
(0.00860838 0.00204628 0.000957858 0.0010647 0.000397206 0.000448943)
(0.0226521 0.00372628 0.00228156 0.00115523 0.000561481 0.000859372)
(0.0288936 0.00351817 0.00289349 0.000906202 0.000559712 0.0012457)
(0.0405521 0.00327089 0.00390145 0.00066556 0.000525085 0.00169894)
(0.0438873 0.00257646 0.00415965 0.000502505 0.000447811 0.00212451)
(0.0524641 0.00210494 0.00470494 0.000367936 0.000358203 0.00255445)
(0.0550234 0.00156596 0.0044663 0.000277805 0.000265348 0.00285874)
(0.0623158 0.00125586 0.00449143 0.000207562 0.000189625 0.00305256)
(0.065361 0.000913328 0.00394208 0.000156259 0.000122882 0.00308535)
(0.0722009 0.000757403 0.00378439 0.000119722 8.07968e-05 0.0030127)
(0.0759971 0.000540992 0.0032497 8.93485e-05 4.71009e-05 0.00284149)
(0.0827069 0.000493129 0.00309434 7.21242e-05 3.05588e-05 0.00261202)
(0.0870215 0.000325078 0.00268006 5.14112e-05 2.17681e-05 0.00234131)
(0.0938765 0.000343415 0.00260537 4.79346e-05 1.43432e-05 0.00205289)
(0.0980792 0.000204812 0.00245799 2.76476e-05 1.39637e-05 0.0017738)
(0.105806 0.000303717 0.00256058 4.10025e-05 2.64571e-05 0.00151862)
(0.108773 0.000107307 0.00278581 9.81257e-06 -3.56802e-05 0.00132791)
(0.11757 0.000797452 0.0029245 5.04152e-05 8.60473e-05 0.00115995)
(0.119963 0.000514972 0.0038411 0.000256927 -0.000329782 0.00112153)
(0.00442458 0.000565397 0.000342438 0.000256155 0.000119198 0.000119142)
(0.00782215 0.00105166 0.000830333 0.000314643 0.00021156 0.000427606)
(0.0239347 0.00231097 0.00225589 0.000366633 0.000308335 0.000837693)
(0.035738 0.00259157 0.00329484 0.000312208 0.000331857 0.00122548)
(0.0576484 0.0029054 0.00488003 0.000252522 0.000324522 0.00168631)
(0.0706362 0.00282391 0.00589369 0.000212451 0.000298767 0.00213255)
(0.0926254 0.0028684 0.00716471 0.000175317 0.000253241 0.00260467)
(0.104473 0.00272224 0.00765506 0.000149596 0.000208192 0.00298607)
(0.125056 0.00270706 0.0082489 0.000125725 0.000161059 0.00326601)
(0.135858 0.00254908 0.00820043 0.000106996 0.000122497 0.00340734)
(0.154723 0.00249702 0.00840113 9.03692e-05 8.9178e-05 0.00342365)
(0.164923 0.00235802 0.00818136 7.63811e-05 6.69803e-05 0.00334588)
(0.181915 0.00226915 0.00825038 6.50585e-05 4.7035e-05 0.00319075)
(0.1921 0.00218379 0.0079848 5.41392e-05 4.39895e-05 0.00296522)
(0.206956 0.00199976 0.00799988 4.7392e-05 3.00564e-05 0.00271229)
(0.217884 0.0019889 0.00785235 3.62913e-05 3.68355e-05 0.00239382)
(0.229724 0.00165996 0.00800163 3.50496e-05 3.11754e-05 0.00211285)
(0.243314 0.00133399 0.0082469 1.6328e-05 1.67617e-07 0.00181431)
(0.247617 0.00142044 0.0084413 2.70917e-05 4.85857e-05 0.00156883)
(0.273957 -0.00173115 0.0100938 3.73865e-05 -0.000198453 0.00146707)
(0.00440749 -8.5276e-09 0.000353772 1.41162e-10 -1.76395e-11 0.000124112)
(0.00759244 2.42086e-09 0.00082843 1.49946e-10 -1.33002e-09 0.000444048)
(0.0240038 7.94456e-11 0.00234608 1.09457e-10 -2.39194e-09 0.000859499)
(0.0367198 4.04976e-09 0.00342761 5.21186e-11 -3.84323e-09 0.00125232)
(0.0604052 -1.94209e-08 0.00520393 4.8125e-11 -3.90377e-09 0.00171269)
(0.0755256 1.83783e-08 0.00629747 6.31763e-11 -7.25208e-09 0.00216229)
(0.100937 -2.19583e-08 0.00783552 8.48727e-11 -8.79197e-09 0.00264197)
(0.116199 4.96887e-08 0.00842592 1.04086e-10 -3.91537e-09 0.00303495)
(0.141835 1.12856e-07 0.00931982 1.24764e-10 -1.68036e-08 0.0033404)
(0.156838 3.74389e-07 0.00935881 1.45189e-10 1.89694e-08 0.00349709)
(0.181861 5.30966e-07 0.00984415 1.7111e-10 -4.26835e-08 0.00354965)
(0.196324 1.20679e-06 0.00968494 1.94361e-10 1.01159e-07 0.00348535)
(0.220362 1.67273e-06 0.0100173 2.55111e-10 -9.22242e-08 0.00336682)
(0.234019 5.25105e-06 0.00976925 3.9646e-10 2.50119e-07 0.00315091)
(0.257152 3.1909e-06 0.0100291 5.58579e-10 -5.25177e-08 0.0029264)
(0.269388 1.80818e-05 0.00980596 2.08109e-09 3.66207e-07 0.00260507)
(0.291531 6.13943e-06 0.0102192 1.92975e-09 4.32461e-07 0.00232978)
(0.303017 4.41149e-05 0.0103167 1.23535e-08 3.11398e-07 0.00201559)
(0.317812 1.15807e-05 0.0108199 7.33251e-09 1.18216e-06 0.00174307)
(0.336453 3.57484e-05 0.0124756 1.87848e-08 5.28702e-07 0.00165514)
(0.00442459 -0.000565412 0.000342442 0.000256152 -0.000119201 0.000119143)
(0.00782215 -0.00105164 0.00083032 0.000314641 -0.000211557 0.000427612)
(0.0239347 -0.00231096 0.00225594 0.000366631 -0.000308348 0.00083768)
(0.035738 -0.00259156 0.00329475 0.000312207 -0.000331849 0.00122551)
(0.0576484 -0.00290544 0.00488022 0.00025252 -0.000324551 0.00168627)
(0.0706363 -0.0028239 0.00589336 0.000212444 -0.000298745 0.00213257)
(0.0926253 -0.00286843 0.00716531 0.000175308 -0.0002533 0.00260473)
(0.104473 -0.00272225 0.00765409 0.00014958 -0.000208132 0.00298581)
(0.125056 -0.00270681 0.00825056 0.000125693 -0.000161152 0.00326666)
(0.13586 -0.00254874 0.00819783 0.000106967 -0.0001224 0.00340615)
(0.154723 -0.00249594 0.00840522 9.02817e-05 -8.92736e-05 0.00342553)
(0.164927 -0.00235711 0.00817523 7.63101e-05 -6.68534e-05 0.0033434)
(0.181915 -0.00226589 0.00825968 6.48702e-05 -4.70838e-05 0.00319354)
(0.192112 -0.00217944 0.0079714 5.39391e-05 -4.37854e-05 0.00296283)
(0.206962 -0.0019926 0.00801922 4.70738e-05 -2.99596e-05 0.00271366)
(0.217914 -0.00197424 0.00782664 3.57783e-05 -3.62887e-05 0.00239432)
(0.229753 -0.00164631 0.00803428 3.45451e-05 -3.04918e-05 0.00211038)
(0.243373 -0.00129745 0.00821227 1.56748e-05 1.3923e-06 0.00181907)
(0.247702 -0.00138023 0.00847556 2.60586e-05 -4.60817e-05 0.00156206)
(0.274065 0.00178873 0.0100864 3.8518e-05 0.000200775 0.00147723)
(0.00450499 -0.00102315 0.000376561 0.000894094 -0.000237376 0.000129788)
(0.00860839 -0.00204627 0.000957838 0.0010647 -0.000397196 0.000448948)
(0.0226521 -0.00372628 0.00228161 0.00115523 -0.000561506 0.000859359)
(0.0288936 -0.00351817 0.00289338 0.000906197 -0.000559683 0.00124574)
(0.0405522 -0.00327093 0.00390163 0.000665557 -0.000525142 0.00169887)
(0.0438874 -0.00257647 0.00415936 0.000502493 -0.000447749 0.00212458)
(0.052464 -0.00210499 0.00470543 0.000367928 -0.000358318 0.00255449)
(0.0550237 -0.00156603 0.00446561 0.000277779 -0.000265214 0.00285846)
(0.0623158 -0.00125581 0.00449259 0.000207536 -0.000189826 0.00305351)
(0.0653621 -0.000913224 0.00394032 0.000156214 -0.000122659 0.00308349)
(0.0722008 -0.000757205 0.0037875 0.000119656 -8.10786e-05 0.00301614)
(0.0760005 -0.000540714 0.00324439 8.92627e-05 -4.67413e-05 0.00283653)
(0.0827064 -0.000492763 0.00310447 7.19902e-05 -3.09917e-05 0.00261869)
(0.0870317 -0.000322776 0.00266236 5.12224e-05 -2.10493e-05 0.00233401)
(0.0938749 -0.000344332 0.00263752 4.77485e-05 -1.50584e-05 0.00206027)
(0.0981042 -0.000196281 0.00240649 2.72668e-05 -1.25145e-05 0.00176793)
(0.105806 -0.0003108 0.00264328 4.07354e-05 -2.73208e-05 0.0015227)
(0.108826 -8.5463e-05 0.00267278 9.54507e-06 3.75388e-05 0.00132601)
(0.117592 -0.000814386 0.00307937 4.95221e-05 -8.68177e-05 0.00115875)
(0.120068 -0.000478317 0.00367781 0.000255491 0.00033071 0.00112888)
(0.00377795 -0.00119783 0.000272737 0.00262655 -0.000420796 0.000130577)
(0.00440935 -0.000611021 0.000258924 0.00258047 -0.000618078 0.000424657)
(0.0085234 0.000133197 0.000231921 0.00198539 -0.000685726 0.00078566)
(0.0125518 0.00155715 -0.000432601 0.00119432 -0.000593369 0.00110252)
(0.020023 0.00196587 -0.000891482 0.000701389 -0.000483323 0.00145539)
(0.0298367 0.00231836 -0.00163377 0.000448295 -0.000379188 0.00171229)
(0.0401892 0.00230149 -0.00214015 0.000293179 -0.00027979 0.0019157)
(0.0525234 0.00229435 -0.00282495 0.00020557 -0.000201142 0.00196201)
(0.0635746 0.00214288 -0.00323258 0.000148529 -0.000138722 0.00192525)
(0.0759909 0.00199999 -0.00372394 0.000112085 -9.55509e-05 0.00179174)
(0.0864503 0.00180988 -0.00395152 8.67911e-05 -6.66206e-05 0.00162408)
(0.0978809 0.0016347 -0.00421746 6.98518e-05 -5.1215e-05 0.00143333)
(0.107261 0.0014389 -0.00429916 5.66706e-05 -3.87106e-05 0.00125664)
(0.11751 0.00127241 -0.00436132 4.92883e-05 -4.5285e-05 0.00109027)
(0.125676 0.00111207 -0.00431763 3.88432e-05 -3.47681e-05 0.000967665)
(0.135319 0.000861251 -0.00420105 3.62791e-05 -5.69619e-05 0.000869634)
(0.141157 0.000863898 -0.00403542 2.34859e-05 -3.98111e-05 0.000817796)
(0.152702 -0.000305006 -0.00389458 1.92315e-05 -1.72344e-05 0.000804483)
(0.150022 0.000421649 -0.0035237 2.71595e-05 -7.62174e-05 0.000785582)
(0.161863 -0.0053688 -0.00286729 0.000398756 0.000281396 0.000857889)
(0.00660073 0.00230706 -0.000485467 0.00150235 -0.00034325 0.000131074)
(0.0344632 0.00369747 -0.00189271 0.000495654 -0.000244038 0.000299266)
(0.0644211 0.00219745 -0.00280219 9.44306e-05 -0.000130316 0.000428835)
(0.0975172 9.96989e-05 -0.00342301 5.09504e-06 -2.85377e-05 0.000490877)
(0.110269 -0.000939794 -0.00374935 1.42089e-05 1.35202e-05 0.000546397)
(0.129207 -0.00141783 -0.00395039 2.51695e-05 2.34746e-05 0.000549166)
(0.133327 -0.00145918 -0.00408508 2.73385e-05 2.20797e-05 0.000548041)
(0.146138 -0.00147508 -0.00412665 2.69765e-05 1.37699e-05 0.000509191)
(0.147712 -0.00132294 -0.0041602 2.43789e-05 7.31948e-06 0.000479479)
(0.157578 -0.00127292 -0.00411443 2.23058e-05 3.22465e-06 0.000432879)
(0.15827 -0.00109213 -0.00409286 1.89117e-05 9.96462e-07 0.000403729)
(0.166151 -0.00107679 -0.00400035 1.74429e-05 2.33825e-06 0.000368355)
(0.166498 -0.000859363 -0.00395342 1.38989e-05 -2.67721e-07 0.00035192)
(0.172774 -0.000946817 -0.00383258 1.43011e-05 5.59368e-06 0.000332811)
(0.173152 -0.000616449 -0.00378057 9.14425e-06 -2.16337e-06 0.000331181)
(0.178055 -0.000890871 -0.00364033 1.29897e-05 1.16252e-05 0.000326147)
(0.1787 -9.2401e-05 -0.00360334 2.89195e-06 -1.22625e-05 0.000335663)
(0.183521 -0.000623973 -0.00348421 1.11677e-05 1.91596e-05 0.000337759)
(0.179822 0.00346882 -0.0033432 0.000112682 -7.62113e-05 0.000349628)
(0.207134 0.000229824 -0.00298954 0.000117056 -3.0738e-05 0.000343567)
(0.00348962 0.000111401 1.73403e-05 0.000524649 3.64623e-06 3.48638e-07)
(0.014479 -0.00319446 7.36397e-07 0.00099861 2.17581e-06 2.83515e-07)
(0.0359251 -0.00519947 1.36005e-05 0.00097726 1.92769e-06 3.18253e-07)
(0.0887496 -0.00614621 2.91283e-05 0.000494339 -1.03912e-06 2.77451e-07)
(0.114305 -0.00471109 3.23933e-05 0.000231792 -2.21994e-08 3.04106e-07)
(0.165504 -0.00360709 5.14344e-05 9.5223e-05 -3.62244e-07 2.62599e-07)
(0.174178 -0.00249386 4.28232e-05 4.8024e-05 4.56156e-07 2.84479e-07)
(0.212207 -0.00203373 5.93098e-05 2.85938e-05 3.73136e-07 2.44429e-07)
(0.211311 -0.00162151 4.59132e-05 2.16024e-05 7.94842e-07 2.64679e-07)
(0.240999 -0.00156426 6.1383e-05 1.87504e-05 6.37382e-07 2.28112e-07)
(0.236927 -0.00137875 4.66522e-05 1.69395e-05 8.7223e-07 2.46523e-07)
(0.261371 -0.00144896 6.19048e-05 1.70016e-05 7.1701e-07 2.13337e-07)
(0.25654 -0.00125379 4.69079e-05 1.51031e-05 8.48513e-07 2.28897e-07)
(0.277205 -0.00141053 6.22143e-05 1.75286e-05 8.30872e-07 1.98601e-07)
(0.272256 -0.00107905 4.72853e-05 1.29538e-05 6.93603e-07 2.11034e-07)
(0.290398 -0.00136193 6.31608e-05 2.09242e-05 1.11659e-06 1.83561e-07)
(0.284124 -0.000475784 4.76969e-05 6.98809e-06 -4.42106e-08 1.9326e-07)
(0.301634 -0.000789357 6.67537e-05 2.99553e-05 1.69745e-06 1.68499e-07)
(0.286411 0.00480531 4.55809e-05 0.00020302 -1.99642e-06 1.77168e-07)
(0.281489 0.00830399 7.84703e-05 0.000464335 -1.4178e-06 1.4983e-07)
(0.00429888 0.000542428 1.47709e-05 0.000290801 9.48523e-07 2.68148e-07)
(0.00434519 0.000550696 6.85682e-06 0.00120231 -1.85224e-06 2.30684e-07)
(0.0110024 0.00202091 2.62069e-05 0.00168176 -3.87061e-06 2.51874e-07)
(0.0102814 0.00038835 2.30189e-05 0.00144373 -7.59135e-06 2.23504e-07)
(0.0153586 6.40422e-05 3.98085e-05 0.000999885 -6.03388e-06 2.38278e-07)
(0.0186535 -0.00112128 4.14646e-05 0.000596062 -5.90392e-06 2.07956e-07)
(0.0251211 -0.00125384 5.49845e-05 0.000349987 -4.22878e-06 2.194e-07)
(0.0338975 -0.00153461 5.80062e-05 0.000206476 -3.61875e-06 1.89841e-07)
(0.0418834 -0.00139446 6.78445e-05 0.000126244 -2.60972e-06 2.00937e-07)
(0.053914 -0.00135305 7.08903e-05 8.08919e-05 -2.13352e-06 1.74105e-07)
(0.0622429 -0.00116326 7.75199e-05 5.29278e-05 -1.54711e-06 1.84571e-07)
(0.0754503 -0.00105385 8.01851e-05 3.61611e-05 -1.24921e-06 1.60339e-07)
(0.0833466 -0.000896971 8.40957e-05 2.55709e-05 -9.03913e-07 1.68928e-07)
(0.0965891 -0.000786624 8.63713e-05 1.79301e-05 -7.80985e-07 1.46956e-07)
(0.103719 -0.000708663 8.81583e-05 1.40296e-05 -5.19066e-07 1.53134e-07)
(0.116908 -0.000457111 9.03689e-05 1.03535e-05 -4.81532e-07 1.33755e-07)
(0.122505 -0.00072664 9.05989e-05 1.15069e-05 -2.84773e-07 1.37487e-07)
(0.137298 0.000603 9.31456e-05 1.25463e-05 3.10407e-07 1.21277e-07)
(0.137654 -0.000669521 9.17723e-05 2.71521e-05 -2.28085e-07 1.22538e-07)
(0.168294 0.00474225 9.90532e-05 0.000322429 3.81681e-06 1.10646e-07)
(0.00377335 0.000171355 1.60548e-05 4.66673e-05 9.68902e-07 3.22623e-07)
(0.00453247 0.000492872 9.2863e-06 0.000523657 1.04941e-06 2.75362e-07)
(0.0168148 0.00305133 3.23316e-05 0.00107468 1.23161e-07 3.05101e-07)
(0.0205138 0.00333964 1.70374e-05 0.0011194 -3.81743e-06 2.65095e-07)
(0.0383128 0.00452811 3.55341e-05 0.000995703 -3.19037e-06 2.90855e-07)
(0.0400527 0.00374822 2.0818e-05 0.000770196 -4.53941e-06 2.50899e-07)
(0.0552064 0.00376766 4.10027e-05 0.000605192 -3.26631e-06 2.72351e-07)
(0.0547188 0.00299868 2.90687e-05 0.000472659 -3.61319e-06 2.33798e-07)
(0.0671681 0.00286377 4.95476e-05 0.000379321 -2.46129e-06 2.53697e-07)
(0.0664822 0.00235443 3.9546e-05 0.000309382 -2.49518e-06 2.18195e-07)
(0.0774308 0.00224811 5.90477e-05 0.00025397 -1.55662e-06 2.36397e-07)
(0.0775647 0.00193467 5.04496e-05 0.000211903 -1.4928e-06 2.03956e-07)
(0.0874297 0.00184352 6.83477e-05 0.000178356 -7.95681e-07 2.19513e-07)
(0.0887668 0.00167153 6.09169e-05 0.000146081 -6.6697e-07 1.89653e-07)
(0.097403 0.00151935 7.68973e-05 0.000134026 -3.68472e-07 2.02265e-07)
(0.100466 0.00150633 7.07563e-05 9.29253e-05 4.91689e-08 1.74861e-07)
(0.10719 0.00105655 8.47712e-05 0.000115295 -5.90598e-07 1.85219e-07)
(0.113103 0.00124951 8.01696e-05 4.43759e-05 8.41642e-07 1.60143e-07)
(0.11713 -0.000323802 9.42788e-05 0.000111707 -1.70862e-06 1.70711e-07)
(0.126761 -0.00132347 8.84982e-05 0.000109429 7.58318e-07 1.46971e-07)
(0.00354792 7.94087e-05 1.25481e-05 1.95487e-05 2.8231e-07 2.60706e-07)
(0.00408428 4.25068e-05 7.52398e-06 0.000110878 -4.17389e-07 2.30132e-07)
(0.0141012 0.00107542 2.39747e-05 0.000206358 -1.22313e-06 2.49115e-07)
(0.0191209 0.00140436 1.00073e-05 0.000235616 -2.88872e-06 2.20622e-07)
(0.0406977 0.00215558 2.21513e-05 0.000221504 -2.6152e-06 2.35294e-07)
(0.048459 0.00208438 5.1552e-06 0.000182224 -3.07537e-06 2.05534e-07)
(0.0729641 0.00225693 2.01959e-05 0.000149377 -2.4869e-06 2.16925e-07)
(0.0802795 0.00207556 3.96316e-06 0.000121755 -2.54006e-06 1.87756e-07)
(0.104158 0.00210263 2.14233e-05 0.000101557 -2.02071e-06 1.9845e-07)
(0.110976 0.00196699 6.4933e-06 8.59391e-05 -1.96809e-06 1.71798e-07)
(0.133639 0.00196743 2.51828e-05 7.33152e-05 -1.52473e-06 1.81979e-07)
(0.140226 0.00184793 1.16984e-05 6.26652e-05 -1.43543e-06 1.5799e-07)
(0.161624 0.00184171 3.0814e-05 5.46832e-05 -1.06328e-06 1.66563e-07)
(0.168045 0.00168952 1.87884e-05 4.52898e-05 -9.80213e-07 1.44873e-07)
(0.188252 0.00171503 3.78572e-05 4.23887e-05 -6.80208e-07 1.51096e-07)
(0.194371 0.00144715 2.68652e-05 2.99896e-05 -5.75241e-07 1.3192e-07)
(0.213152 0.0015033 4.6092e-05 3.35803e-05 -4.06505e-07 1.35584e-07)
(0.219226 0.000901584 3.39494e-05 1.25644e-05 2.37197e-08 1.197e-07)
(0.233383 0.000697342 5.54319e-05 1.92107e-05 -1.85994e-07 1.19728e-07)
(0.236076 -0.000346851 3.59712e-05 3.7968e-05 1.32018e-06 1.08834e-07)
(0.00370438 -2.021e-09 1.56214e-05 1.04106e-10 -2.79665e-12 3.19076e-07)
(0.00422901 3.00867e-09 9.57534e-06 8.37646e-11 -7.04349e-12 2.7657e-07)
(0.0151147 3.82567e-09 3.26247e-05 6.38418e-11 6.91239e-12 3.05172e-07)
(0.0200429 4.96445e-09 1.73742e-05 4.30705e-11 -5.06925e-12 2.64973e-07)
(0.0423038 4.85718e-09 3.42836e-05 4.76822e-11 1.5952e-11 2.90741e-07)
(0.0508519 3.39035e-08 1.55398e-05 6.37278e-11 -2.60379e-11 2.50872e-07)
(0.077363 2.82953e-08 3.41324e-05 8.65677e-11 -9.80118e-12 2.72425e-07)
(0.0866482 4.61679e-08 1.60541e-05 1.06401e-10 -3.26544e-11 2.33918e-07)
(0.113739 1.75866e-07 3.65505e-05 1.29785e-10 -7.54669e-11 2.53686e-07)
(0.123521 2.693e-07 1.9771e-05 1.48899e-10 -8.99338e-11 2.18108e-07)
(0.150303 5.58844e-07 4.12708e-05 1.76365e-10 -2.40149e-10 2.36192e-07)
(0.160799 6.44357e-07 2.60617e-05 1.98244e-10 -1.40084e-10 2.03723e-07)
(0.186642 1.79628e-06 4.79337e-05 2.58565e-10 -4.98945e-10 2.19289e-07)
(0.198123 2.1036e-06 3.45273e-05 3.06671e-10 -4.7293e-10 1.89446e-07)
(0.221925 4.9978e-06 5.63392e-05 5.18134e-10 -8.2691e-10 2.02146e-07)
(0.235206 4.44355e-06 4.47912e-05 5.91097e-10 -1.04537e-09 1.74755e-07)
(0.254332 1.254e-05 6.66677e-05 1.56278e-09 -1.5895e-09 1.85326e-07)
(0.271238 1.01257e-05 5.60581e-05 1.52072e-09 -1.47292e-09 1.60234e-07)
(0.280059 3.20015e-05 8.19753e-05 8.65284e-09 -2.48274e-09 1.71197e-07)
(0.298548 4.62245e-05 6.86077e-05 1.53507e-08 1.45305e-09 1.47193e-07)
(0.00354792 -7.94157e-05 1.25483e-05 1.95486e-05 -2.82307e-07 2.60706e-07)
(0.00408428 -4.24975e-05 7.52408e-06 0.000110879 4.17359e-07 2.30132e-07)
(0.0141012 -0.0010754 2.39749e-05 0.000206359 1.22315e-06 2.49115e-07)
(0.0191209 -0.00140434 1.00077e-05 0.000235613 2.88868e-06 2.20622e-07)
(0.0406977 -0.00215557 2.2152e-05 0.000221505 2.61524e-06 2.35295e-07)
(0.048459 -0.0020843 5.15574e-06 0.000182214 3.07526e-06 2.05534e-07)
(0.072964 -0.00225691 2.01964e-05 0.000149377 2.48694e-06 2.16925e-07)
(0.0802798 -0.00207541 3.96348e-06 0.000121731 2.53983e-06 1.87756e-07)
(0.104158 -0.00210244 2.14237e-05 0.000101545 2.02067e-06 1.9845e-07)
(0.110977 -0.00196621 6.49321e-06 8.58894e-05 1.96762e-06 1.71798e-07)
(0.133638 -0.00196684 2.51829e-05 7.3264e-05 1.52443e-06 1.81979e-07)
(0.140229 -0.00184577 1.16981e-05 6.256e-05 1.43455e-06 1.57991e-07)
(0.161623 -0.00183993 3.08139e-05 5.45455e-05 1.06213e-06 1.66562e-07)
(0.168055 -0.001682 1.87881e-05 4.50644e-05 9.78504e-07 1.44874e-07)
(0.188254 -0.00171086 3.78544e-05 4.20815e-05 6.76424e-07 1.51094e-07)
(0.194395 -0.00142626 2.6861e-05 2.95539e-05 5.73807e-07 1.31923e-07)
(0.213168 -0.00149433 4.60843e-05 3.2935e-05 3.95129e-07 1.35581e-07)
(0.219289 -0.000850092 3.39411e-05 1.19188e-05 -1.99763e-08 1.19702e-07)
(0.233467 -0.000690257 5.54359e-05 1.85003e-05 1.5974e-07 1.19736e-07)
(0.236245 0.000427408 3.59584e-05 3.71642e-05 -1.31049e-06 1.08845e-07)
(0.00377336 -0.000171359 1.60552e-05 4.66677e-05 -9.68914e-07 3.22622e-07)
(0.00453247 -0.000492866 9.28622e-06 0.000523659 -1.04942e-06 2.75362e-07)
(0.0168148 -0.00305131 3.23323e-05 0.00107469 -1.23147e-07 3.05101e-07)
(0.0205138 -0.00333964 1.70387e-05 0.0011194 3.81743e-06 2.65096e-07)
(0.0383128 -0.00452809 3.55362e-05 0.0009957 3.1904e-06 2.90856e-07)
(0.0400528 -0.00374818 2.082e-05 0.000770188 4.53939e-06 2.50899e-07)
(0.0552063 -0.0037676 4.10045e-05 0.000605178 3.26632e-06 2.72352e-07)
(0.0547192 -0.00299867 2.90704e-05 0.000472637 3.61313e-06 2.33798e-07)
(0.067168 -0.00286353 4.95492e-05 0.000379272 2.46119e-06 2.53698e-07)
(0.0664834 -0.00235423 3.95464e-05 0.000309335 2.49499e-06 2.18194e-07)
(0.0774307 -0.00224758 5.90493e-05 0.000253847 1.55624e-06 2.36398e-07)
(0.0775682 -0.00193434 5.04513e-05 0.00021178 1.49247e-06 2.03956e-07)
(0.0874305 -0.00184211 6.83472e-05 0.00017809 7.94827e-07 2.19512e-07)
(0.0887763 -0.00167006 6.09156e-05 0.000145794 6.65914e-07 1.89656e-07)
(0.0974064 -0.00151586 7.68917e-05 0.000133455 3.67074e-07 2.02259e-07)
(0.100491 -0.00150316 7.07624e-05 9.23862e-05 -5.16057e-08 1.74872e-07)
(0.107203 -0.00104838 8.47582e-05 0.00011401 5.88121e-07 1.85201e-07)
(0.113155 -0.00124213 8.01759e-05 4.37649e-05 -8.42671e-07 1.60178e-07)
(0.117169 0.000339435 9.42434e-05 0.00011028 1.7048e-06 1.70675e-07)
(0.126855 0.00133903 8.84896e-05 0.000109743 -7.44862e-07 1.47032e-07)
(0.00429889 -0.000542428 1.47714e-05 0.000290803 -9.48534e-07 2.68148e-07)
(0.00434519 -0.000550689 6.85707e-06 0.00120231 1.85222e-06 2.30684e-07)
(0.0110025 -0.0020209 2.62076e-05 0.00168177 3.8706e-06 2.51874e-07)
(0.0102814 -0.000388348 2.30204e-05 0.00144372 7.59133e-06 2.23505e-07)
(0.0153586 -6.40326e-05 3.98105e-05 0.000999884 6.03391e-06 2.38279e-07)
(0.0186534 0.00112128 4.14664e-05 0.000596053 5.90387e-06 2.07956e-07)
(0.0251211 0.00125385 5.49861e-05 0.000349984 4.22881e-06 2.19401e-07)
(0.033897 0.0015345 5.80074e-05 0.000206461 3.61862e-06 1.89841e-07)
(0.0418835 0.00139446 6.7846e-05 0.000126234 2.60972e-06 2.00938e-07)
(0.0539121 0.00135285 7.08896e-05 8.08669e-05 2.13322e-06 1.74104e-07)
(0.0622428 0.00116311 7.75219e-05 5.29054e-05 1.54704e-06 1.84573e-07)
(0.0754437 0.00105297 8.0183e-05 3.61218e-05 1.24856e-06 1.60338e-07)
(0.0833444 0.000896511 8.40978e-05 2.55291e-05 9.03665e-07 1.68929e-07)
(0.0965715 0.000784669 8.63659e-05 1.78754e-05 7.79926e-07 1.46955e-07)
(0.103703 0.000706858 8.81543e-05 1.39653e-05 5.17669e-07 1.53131e-07)
(0.116867 0.000453248 9.0363e-05 1.03277e-05 4.81391e-07 1.33762e-07)
(0.12244 0.000719093 9.05733e-05 1.13726e-05 2.77851e-07 1.37468e-07)
(0.137201 -0.000602866 9.31527e-05 1.26061e-05 -3.02474e-07 1.21307e-07)
(0.137483 0.000644165 9.17064e-05 2.63841e-05 2.07e-07 1.22503e-07)
(0.167971 -0.00473006 9.90514e-05 0.000320411 -3.79266e-06 1.10703e-07)
(0.00348963 -0.000111403 1.73409e-05 0.000524647 -3.64621e-06 3.48634e-07)
(0.014479 0.00319447 7.36733e-07 0.000998612 -2.17584e-06 2.83514e-07)
(0.0359251 0.00519947 1.36017e-05 0.00097726 -1.92772e-06 3.18252e-07)
(0.0887496 0.00614622 2.91311e-05 0.00049434 1.03909e-06 2.77452e-07)
(0.114305 0.00471108 3.23966e-05 0.00023179 2.21743e-08 3.04107e-07)
(0.165504 0.00360713 5.14376e-05 9.5224e-05 3.62244e-07 2.62599e-07)
(0.174178 0.00249381 4.28259e-05 4.80219e-05 -4.5618e-07 2.84479e-07)
(0.212206 0.00203377 5.93122e-05 2.85949e-05 -3.73127e-07 2.44427e-07)
(0.21131 0.00162134 4.59152e-05 2.15994e-05 -7.94941e-07 2.64678e-07)
(0.240996 0.00156435 6.13832e-05 1.875e-05 -6.37249e-07 2.2811e-07)
(0.236924 0.00137816 4.66546e-05 1.6932e-05 -8.72432e-07 2.46522e-07)
(0.261361 0.00144919 6.19039e-05 1.70043e-05 -7.16899e-07 2.13333e-07)
(0.256529 0.0012522 4.69114e-05 1.50855e-05 -8.48886e-07 2.28897e-07)
(0.277181 0.00141076 6.22041e-05 1.75342e-05 -8.30907e-07 1.98596e-07)
(0.272222 0.00107521 4.72938e-05 1.29088e-05 -6.93826e-07 2.11034e-07)
(0.290343 0.00136255 6.3137e-05 2.09413e-05 -1.11661e-06 1.8356e-07)
(0.284024 0.000468883 4.77203e-05 6.90339e-06 4.5345e-08 1.93242e-07)
(0.301538 0.000795172 6.67071e-05 2.9994e-05 -1.69781e-06 1.68552e-07)
(0.28616 -0.00479157 4.56217e-05 0.00020232 1.9979e-06 1.77015e-07)
(0.281546 -0.00821198 7.8465e-05 0.00045735 1.42373e-06 1.50159e-07)
(0.00330306 0.00010374 1.7132e-10 0.000102969 9.70197e-11 1.08039e-15)
(0.0065365 -0.00109058 -3.33653e-10 0.000511437 2.53437e-10 5.1579e-16)
(0.0168969 -0.00272044 -6.87997e-10 0.000785285 3.2541e-10 1.36136e-15)
(0.0466102 -0.00528814 -2.03802e-09 0.000781459 3.23858e-10 8.11981e-16)
(0.0801582 -0.00637183 -2.45369e-09 0.000621274 2.76187e-10 1.61178e-15)
(0.13813 -0.00696265 -3.28271e-09 0.000422635 2.11892e-10 1.23129e-15)
(0.182975 -0.00612127 -3.20209e-09 0.000249424 1.51154e-10 2.39689e-15)
(0.245532 -0.00501307 -3.55891e-09 0.000130866 1.05799e-10 2.18248e-15)
(0.282 -0.00350587 -3.62137e-09 6.02515e-05 7.3645e-11 2.32899e-15)
(0.33304 -0.00228738 -3.84867e-09 2.51178e-05 5.17579e-11 2.15244e-15)
(0.355594 -0.00121706 -3.97231e-09 9.36458e-06 3.34192e-11 1.8685e-15)
(0.394044 -0.000580531 -4.06384e-09 4.05231e-06 2.0981e-11 1.95756e-15)
(0.406747 -3.7433e-05 -4.12442e-09 2.50918e-06 7.8301e-12 1.90541e-15)
(0.436697 9.48967e-05 -4.08877e-09 2.46989e-06 3.84301e-12 2.21509e-15)
(0.44417 0.000384204 -4.12145e-09 2.37581e-06 -6.29643e-12 2.16416e-15)
(0.469366 0.000283186 -4.0327e-09 3.00034e-06 -5.33671e-13 2.37915e-15)
(0.472459 0.0003473 -4.07457e-09 2.97603e-06 -1.21758e-11 2.36733e-15)
(0.498813 0.00109561 -3.75962e-09 6.11248e-06 -7.84693e-12 3.08458e-15)
(0.484023 0.000124244 -3.50235e-09 1.07133e-05 -1.3079e-11 3.17973e-15)
(0.527793 0.011105 -3.47466e-09 0.000268828 -1.45956e-10 2.62119e-15)
(0.00350301 0.000129716 1.83204e-10 5.8733e-05 6.91639e-11 9.23599e-16)
(0.00427175 0.000233169 3.49574e-10 0.000356364 2.07917e-10 4.70573e-16)
(0.0106702 0.00137997 9.53001e-10 0.000788358 3.23656e-10 1.09586e-15)
(0.0122959 0.00143687 8.22053e-10 0.00115297 3.87566e-10 7.22103e-16)
(0.0189429 0.00198282 1.37587e-09 0.00132922 3.92402e-10 1.35799e-15)
(0.019883 0.00108765 1.39022e-09 0.00127229 3.51838e-10 1.16926e-15)
(0.0255636 0.000780254 1.98432e-09 0.00108922 2.99929e-10 2.10459e-15)
(0.0280367 -0.000195924 2.03501e-09 0.000842708 2.47808e-10 2.09761e-15)
(0.0346558 -0.000461182 2.26062e-09 0.000630105 2.11339e-10 2.21604e-15)
(0.0403465 -0.000964243 2.22545e-09 0.000447676 1.78933e-10 2.17015e-15)
(0.0486279 -0.000997319 2.27038e-09 0.000325519 1.59327e-10 1.89807e-15)
(0.0572689 -0.00118364 2.23845e-09 0.000228315 1.37303e-10 2.04517e-15)
(0.0667456 -0.00113234 2.25377e-09 0.000174214 1.25828e-10 1.95737e-15)
(0.0774996 -0.00115482 2.25361e-09 0.000119907 1.08497e-10 2.26774e-15)
(0.0874157 -0.00118966 2.2601e-09 0.00010549 9.96151e-11 2.204e-15)
(0.0999868 -0.000871334 2.25685e-09 6.10188e-05 8.81775e-11 2.43186e-15)
(0.109121 -0.00141167 2.25158e-09 7.85081e-05 7.69257e-11 2.40759e-15)
(0.124523 0.000151589 2.41988e-09 2.8597e-05 6.63043e-11 3.13547e-15)
(0.13037 -0.00149739 2.73708e-09 5.81867e-05 6.15737e-11 3.18147e-15)
(0.149969 0.00374302 2.60954e-09 0.000193176 -1.56441e-11 2.63397e-15)
(0.00345651 4.77021e-05 1.40234e-10 1.09536e-05 3.07468e-11 7.27297e-16)
(0.0041858 8.38224e-05 3.02359e-10 0.00010653 1.13863e-10 4.32243e-16)
(0.0107281 0.000843768 9.36341e-10 0.000296635 1.98355e-10 9.48726e-16)
(0.014268 0.00135057 1.07051e-09 0.000503687 2.5638e-10 6.99886e-16)
(0.0267883 0.00255661 1.88621e-09 0.000651933 2.75766e-10 1.14879e-15)
(0.0331898 0.00296461 2.28777e-09 0.00070317 2.64093e-10 1.07478e-15)
(0.0491249 0.00366592 3.18975e-09 0.000668623 2.39244e-10 1.79992e-15)
(0.0556518 0.00359379 3.6076e-09 0.000587483 2.13248e-10 1.92529e-15)
(0.0712739 0.00374331 4.14896e-09 0.000492767 1.92627e-10 2.00571e-15)
(0.0764788 0.00344125 4.43348e-09 0.000404885 1.74876e-10 2.08191e-15)
(0.0903002 0.00335374 4.76456e-09 0.000332739 1.6164e-10 1.84107e-15)
(0.0944044 0.00304382 4.99801e-09 0.000273625 1.49317e-10 2.03818e-15)
(0.106311 0.00289176 5.26167e-09 0.000233183 1.40225e-10 1.93941e-15)
(0.110014 0.00264932 5.49156e-09 0.000190926 1.31812e-10 2.2607e-15)