/*--------------------------------*- C++ -*----------------------------------*\
  =========                 |
  \\      /  F ield         | OpenFOAM: The Open Source CFD Toolbox
   \\    /   O peration     | Website:  https://openfoam.org
    \\  /    A nd           | Version:  7
     \\/     M anipulation  |
\*---------------------------------------------------------------------------*/
FoamFile
{
    version     2.0;
    format      ascii;
    class       volScalarField;
    location    "0.0925";
    object      nut;
}
// * * * * * * * * * * * * * * * * * * * * * * * * * * * * * * * * * * * * * //

dimensions      [0 2 -1 0 0 0 0];

internalField   nonuniform List<scalar> 
27000
(
0.00166973
0.00152057
0.00150614
0.00151088
0.00151398
0.00151855
0.00152221
0.00152629
0.00153002
0.0015338
0.00153736
0.00154082
0.00154408
0.00154719
0.00155012
0.00155289
0.00155552
0.001558
0.00156034
0.00156252
0.00156455
0.00156644
0.0015682
0.00156986
0.00157145
0.00157296
0.00157441
0.00157582
0.00157717
0.00157845
0.00157967
0.00158087
0.00158201
0.00158311
0.00158422
0.00158535
0.00158636
0.00158729
0.00158836
0.00158947
0.001287
0.00104608
0.00100886
0.0010094
0.00101101
0.00101337
0.00101503
0.00101669
0.00101804
0.0010193
0.00102039
0.0010214
0.00102231
0.00102315
0.00102393
0.00102466
0.00102533
0.00102597
0.00102657
0.00102716
0.00102773
0.00102829
0.00102885
0.00102941
0.00102998
0.00103055
0.00103112
0.0010317
0.00103229
0.00103287
0.00103345
0.00103403
0.00103461
0.00103518
0.00103574
0.00103631
0.00103688
0.00103742
0.00103799
0.00103858
0.00127873
0.00103859
0.00100041
0.0010019
0.00100327
0.00100609
0.00100792
0.00101005
0.00101177
0.00101351
0.00101504
0.00101651
0.00101785
0.00101912
0.00102029
0.00102139
0.00102243
0.00102341
0.00102433
0.00102521
0.00102605
0.00102685
0.00102762
0.00102837
0.00102909
0.00102979
0.00103048
0.00103115
0.0010318
0.00103244
0.00103306
0.00103366
0.00103424
0.00103479
0.00103532
0.00103583
0.00103631
0.00103676
0.00103721
0.00103763
0.00128246
0.00104144
0.0010049
0.00100578
0.00100783
0.00101055
0.0010126
0.00101462
0.00101631
0.00101787
0.00101923
0.00102047
0.00102156
0.00102254
0.00102342
0.00102421
0.00102492
0.00102555
0.00102611
0.00102662
0.00102707
0.00102749
0.00102787
0.00102822
0.00102855
0.00102886
0.00102915
0.00102942
0.00102969
0.00102994
0.00103018
0.00103041
0.00103062
0.00103082
0.00103099
0.00103115
0.00103129
0.00103141
0.00103151
0.0010316
0.00128104
0.00103977
0.00100306
0.00100438
0.00100682
0.00100993
0.00101236
0.00101478
0.00101686
0.00101881
0.00102055
0.00102215
0.0010236
0.00102493
0.00102614
0.00102725
0.00102826
0.00102918
0.00103003
0.00103081
0.00103153
0.00103219
0.0010328
0.00103337
0.00103391
0.00103442
0.00103489
0.00103535
0.00103578
0.00103618
0.00103657
0.00103693
0.00103727
0.00103758
0.00103786
0.00103812
0.00103835
0.00103855
0.00103873
0.00103888
0.00128108
0.00103984
0.00100316
0.00100443
0.00100691
0.00101001
0.00101244
0.00101487
0.00101694
0.0010189
0.00102064
0.00102225
0.0010237
0.00102504
0.00102625
0.00102737
0.00102838
0.00102931
0.00103017
0.00103095
0.00103168
0.00103235
0.00103297
0.00103355
0.00103409
0.00103461
0.00103509
0.00103555
0.00103599
0.00103641
0.0010368
0.00103718
0.00103752
0.00103785
0.00103815
0.00103841
0.00103865
0.00103887
0.00103906
0.00103922
0.00128238
0.00104133
0.00100481
0.00100571
0.00100777
0.00101048
0.00101252
0.00101453
0.00101621
0.00101778
0.00101913
0.00102037
0.00102146
0.00102246
0.00102334
0.00102413
0.00102484
0.00102548
0.00102606
0.00102658
0.00102705
0.00102748
0.00102788
0.00102825
0.0010286
0.00102893
0.00102925
0.00102955
0.00102985
0.00103013
0.0010304
0.00103066
0.00103091
0.00103115
0.00103136
0.00103156
0.00103174
0.00103189
0.00103203
0.00103217
0.00127877
0.00103868
0.00100047
0.001002
0.00100339
0.00100625
0.00100809
0.00101025
0.001012
0.00101377
0.00101534
0.00101686
0.00101825
0.00101957
0.00102081
0.00102199
0.00102311
0.00102418
0.0010252
0.00102618
0.00102712
0.00102802
0.0010289
0.00102976
0.00103059
0.0010314
0.0010322
0.00103298
0.00103375
0.0010345
0.00103523
0.00103593
0.00103661
0.00103727
0.0010379
0.0010385
0.00103908
0.0010396
0.00104013
0.00104063
0.00128694
0.00104598
0.00100911
0.00100989
0.00101194
0.00101466
0.00101675
0.0010188
0.00102057
0.00102224
0.00102375
0.00102516
0.00102647
0.0010277
0.00102886
0.00102995
0.00103097
0.00103193
0.00103285
0.00103372
0.00103456
0.00103538
0.00103618
0.00103695
0.00103772
0.00103848
0.00103922
0.00103994
0.00104065
0.00104135
0.00104201
0.00104266
0.00104331
0.00104391
0.00104447
0.00104506
0.00104565
0.0010461
0.00104659
0.00104722
0.00167605
0.0015298
0.00152162
0.00153107
0.00153909
0.00154764
0.00155483
0.00156181
0.00156799
0.00157371
0.00157879
0.00158337
0.0015874
0.00159096
0.00159405
0.00159674
0.00159906
0.00160108
0.00160282
0.00160434
0.00160568
0.00160687
0.00160794
0.00160891
0.00160982
0.00161066
0.00161144
0.00161219
0.00161291
0.00161358
0.00161422
0.00161487
0.00161548
0.00161601
0.00161657
0.0016172
0.00161767
0.00161801
0.00161865
0.0016194
0.000900962
0.000989174
0.000995413
0.00099937
0.00100165
0.00100444
0.00100705
0.00100971
0.00101235
0.00101495
0.0010175
0.00101999
0.0010224
0.00102472
0.00102695
0.0010291
0.00103117
0.00103315
0.00103503
0.00103679
0.00103842
0.00103994
0.00104135
0.00104267
0.00104392
0.00104511
0.00104624
0.00104732
0.00104834
0.00104931
0.00105022
0.0010511
0.00105194
0.00105275
0.00105357
0.00105437
0.00105511
0.00105581
0.00105655
0.00105727
0.000894413
0.00099181
0.000998567
0.00100296
0.00100475
0.00100703
0.00100867
0.00101027
0.00101163
0.00101289
0.00101401
0.00101504
0.00101598
0.00101685
0.00101766
0.00101841
0.00101912
0.00101979
0.00102043
0.00102105
0.00102167
0.00102227
0.00102287
0.00102347
0.00102408
0.00102468
0.0010253
0.00102591
0.00102653
0.00102714
0.00102776
0.00102837
0.00102897
0.00102957
0.00103016
0.00103076
0.00103135
0.00103191
0.00103251
0.00103313
0.000889398
0.00098697
0.000991675
0.000997055
0.000998431
0.00100113
0.00100288
0.00100484
0.00100647
0.00100805
0.00100949
0.00101085
0.00101212
0.00101332
0.00101445
0.00101552
0.00101653
0.0010175
0.00101841
0.00101929
0.00102013
0.00102093
0.00102171
0.00102246
0.00102319
0.0010239
0.0010246
0.00102528
0.00102594
0.00102658
0.00102721
0.00102782
0.0010284
0.00102896
0.0010295
0.00103001
0.0010305
0.00103096
0.00103143
0.00103184
0.00089283
0.000989705
0.00099689
0.00100163
0.00100379
0.00100645
0.00100843
0.00101035
0.00101196
0.00101343
0.00101471
0.00101586
0.00101688
0.00101779
0.0010186
0.00101932
0.00101997
0.00102055
0.00102106
0.00102153
0.00102194
0.00102233
0.00102267
0.001023
0.0010233
0.00102358
0.00102385
0.0010241
0.00102435
0.00102458
0.0010248
0.00102501
0.00102521
0.00102539
0.00102555
0.00102569
0.00102581
0.00102591
0.001026
0.00102608
0.000891477
0.000988339
0.000994912
0.00100008
0.00100259
0.00100562
0.001008
0.0010103
0.00101231
0.00101415
0.0010158
0.00101731
0.00101868
0.00101992
0.00102106
0.0010221
0.00102305
0.00102392
0.00102472
0.00102545
0.00102612
0.00102675
0.00102732
0.00102786
0.00102836
0.00102884
0.00102928
0.00102971
0.00103011
0.00103049
0.00103085
0.00103118
0.00103149
0.00103178
0.00103204
0.00103227
0.00103248
0.00103266
0.00103281
0.00103294
0.000891466
0.000988294
0.000994931
0.00100007
0.00100261
0.00100564
0.00100803
0.00101033
0.00101234
0.00101419
0.00101585
0.00101736
0.00101873
0.00101998
0.00102113
0.00102217
0.00102313
0.00102401
0.00102481
0.00102555
0.00102623
0.00102686
0.00102745
0.00102799
0.0010285
0.00102899
0.00102944
0.00102988
0.00103029
0.00103067
0.00103104
0.00103139
0.00103171
0.00103201
0.00103228
0.00103252
0.00103274
0.00103294
0.00103311
0.00103324
0.000892838
0.0009897
0.000996871
0.00100164
0.00100379
0.00100643
0.00100841
0.00101031
0.00101192
0.00101337
0.00101465
0.0010158
0.00101682
0.00101773
0.00101855
0.00101928
0.00101993
0.00102052
0.00102105
0.00102152
0.00102196
0.00102236
0.00102272
0.00102307
0.00102339
0.00102369
0.00102399
0.00102427
0.00102454
0.00102481
0.00102506
0.00102531
0.00102554
0.00102575
0.00102595
0.00102613
0.0010263
0.00102644
0.00102657
0.00102669
0.000889365
0.000986941
0.00099163
0.000997074
0.000998461
0.00100119
0.00100296
0.00100494
0.00100661
0.00100823
0.00100971
0.00101112
0.00101244
0.0010137
0.00101489
0.00101604
0.00101714
0.00101819
0.0010192
0.00102018
0.00102112
0.00102203
0.00102291
0.00102378
0.00102462
0.00102545
0.00102626
0.00102705
0.00102782
0.00102858
0.00102932
0.00103004
0.00103073
0.0010314
0.00103204
0.00103264
0.00103322
0.00103376
0.0010343
0.00103479
0.000894312
0.000991822
0.000998996
0.00100372
0.00100594
0.00100861
0.00101068
0.00101268
0.00101444
0.00101607
0.00101758
0.00101898
0.00102029
0.00102153
0.0010227
0.0010238
0.00102484
0.00102584
0.00102679
0.0010277
0.00102858
0.00102944
0.00103027
0.00103109
0.0010319
0.0010327
0.00103347
0.00103423
0.00103498
0.00103571
0.0010364
0.00103708
0.00103776
0.00103839
0.00103897
0.00103959
0.0010402
0.00104067
0.00104119
0.00104185
0.00090371
0.000997145
0.00100879
0.00101732
0.00102384
0.00103019
0.00103592
0.00104114
0.0010459
0.00105017
0.00105401
0.0010574
0.0010604
0.00106301
0.00106527
0.00106722
0.00106889
0.00107031
0.00107153
0.00107257
0.00107347
0.00107425
0.00107493
0.00107553
0.00107607
0.00107656
0.00107701
0.00107743
0.00107783
0.00107819
0.00107853
0.00107887
0.00107919
0.00107947
0.00107978
0.0010801
0.00108033
0.00108056
0.00108092
0.00108125
9.42199e-05
0.000148427
0.000162481
0.000167459
0.000169308
0.000170191
0.000170871
0.000171347
0.00017183
0.000172223
0.000172613
0.000172948
0.000173267
0.000173547
0.000173808
0.000174042
0.000174256
0.000174448
0.000174621
0.000174774
0.000174908
0.000175025
0.000175128
0.00017522
0.000175301
0.000175374
0.00017544
0.0001755
0.000175553
0.000175599
0.000175641
0.000175679
0.000175715
0.000175751
0.000175788
0.000175825
0.000175858
0.000175891
0.000175928
0.000175961
7.51775e-05
0.00018575
0.000195376
0.000206828
0.000207834
0.00020902
0.000209519
0.000209456
0.00020943
0.000209157
0.000208895
0.000208465
0.000208143
0.00020778
0.000207498
0.000207232
0.000207028
0.000206849
0.000206711
0.000206596
0.000206509
0.000206441
0.000206391
0.000206356
0.000206334
0.000206321
0.000206318
0.000206321
0.000206328
0.000206339
0.000206356
0.000206378
0.000206404
0.000206434
0.00020647
0.000206508
0.000206546
0.00020659
0.00020665
0.000206708
7.30688e-05
0.000161711
0.000161929
0.000165089
0.00016442
0.000164512
0.000164771
0.000165169
0.000165521
0.000165834
0.00016611
0.000166349
0.000166561
0.000166748
0.000166918
0.000167072
0.000167214
0.000167345
0.000167467
0.000167582
0.000167689
0.000167791
0.000167887
0.00016798
0.000168068
0.000168153
0.000168234
0.000168313
0.000168388
0.000168459
0.000168528
0.000168592
0.000168652
0.00016871
0.000168764
0.000168813
0.000168859
0.000168905
0.000168949
0.000168988
7.30863e-05
0.000174588
0.000179488
0.00019044
0.000191514
0.000193071
0.000193797
0.000193903
0.000194104
0.000193959
0.000193835
0.000193536
0.000193285
0.000192956
0.000192682
0.000192393
0.000192145
0.000191907
0.0001917
0.000191509
0.000191341
0.000191187
0.00019105
0.000190923
0.000190808
0.0001907
0.000190599
0.000190503
0.000190411
0.000190323
0.000190238
0.000190156
0.000190076
0.000189997
0.000189917
0.000189838
0.000189762
0.000189686
0.000189609
0.000189539
7.28575e-05
0.000168875
0.000169687
0.000177854
0.000179092
0.00018072
0.000181433
0.000181499
0.000181657
0.000181482
0.000181323
0.000180961
0.000180659
0.000180269
0.000179944
0.000179609
0.000179328
0.000179067
0.000178848
0.000178653
0.000178487
0.00017834
0.000178212
0.000178097
0.000177993
0.000177897
0.000177808
0.000177722
0.000177638
0.000177556
0.000177476
0.000177396
0.000177319
0.000177244
0.000177168
0.000177089
0.000177013
0.000176937
0.000176855
0.000176776
7.28556e-05
0.000168634
0.000169379
0.000177474
0.000178717
0.000180338
0.000181039
0.000181087
0.000181209
0.000181011
0.000180817
0.000180403
0.00018006
0.000179629
0.000179264
0.000178893
0.000178578
0.000178288
0.000178044
0.000177828
0.000177646
0.000177489
0.000177353
0.000177234
0.000177129
0.000177033
0.000176946
0.000176863
0.000176783
0.000176707
0.000176633
0.00017656
0.000176488
0.000176418
0.000176346
0.000176271
0.0001762
0.000176134
0.00017606
0.000175981
7.30885e-05
0.000174809
0.000179801
0.000190824
0.000191904
0.000193472
0.000194213
0.000194339
0.000194571
0.000194445
0.000194348
0.000194087
0.000193866
0.000193564
0.000193314
0.000193047
0.000192817
0.000192595
0.000192401
0.00019222
0.00019206
0.000191913
0.00019178
0.000191657
0.000191544
0.000191438
0.000191339
0.000191246
0.000191156
0.000191071
0.000190987
0.000190907
0.00019083
0.000190754
0.000190678
0.000190605
0.000190536
0.000190464
0.000190387
0.000190323
7.33625e-05
0.000161397
0.000161766
0.000164834
0.000164326
0.000164467
0.000164786
0.000165194
0.000165551
0.000165868
0.000166144
0.000166383
0.000166594
0.000166781
0.000166951
0.000167105
0.00016725
0.000167384
0.000167511
0.000167632
0.000167748
0.000167859
0.000167966
0.00016807
0.000168172
0.00016827
0.000168367
0.00016846
0.000168551
0.00016864
0.000168725
0.000168806
0.000168884
0.000168959
0.000169029
0.000169095
0.000169158
0.000169218
0.000169277
0.00016933
7.53018e-05
0.000185992
0.000195776
0.000207297
0.000208425
0.000209711
0.000210351
0.000210377
0.000210467
0.000210282
0.000210121
0.00020979
0.000209556
0.000209276
0.000209073
0.000208881
0.000208745
0.000208632
0.000208556
0.000208501
0.000208471
0.00020846
0.000208463
0.000208477
0.000208504
0.000208538
0.000208577
0.00020862
0.000208666
0.000208711
0.000208757
0.000208805
0.000208853
0.000208897
0.000208944
0.000208996
0.000209043
0.000209083
0.00020914
0.000209205
9.43523e-05
0.000149342
0.000164102
0.000169712
0.000172147
0.000173528
0.000174632
0.000175448
0.000176202
0.000176804
0.000177351
0.000177798
0.000178192
0.000178516
0.000178792
0.000179017
0.000179202
0.00017935
0.000179468
0.000179559
0.000179628
0.00017968
0.000179718
0.000179745
0.000179763
0.000179773
0.000179776
0.000179775
0.00017977
0.00017976
0.000179747
0.000179735
0.000179718
0.000179701
0.000179688
0.000179673
0.000179652
0.000179636
0.000179631
0.000179617
8.18589e-06
2.202e-05
3.18808e-05
4.12228e-05
4.72945e-05
5.18192e-05
5.4901e-05
5.70424e-05
5.85229e-05
5.95251e-05
6.02296e-05
6.07063e-05
6.10493e-05
6.12865e-05
6.14632e-05
6.15909e-05
6.16905e-05
6.17667e-05
6.18289e-05
6.18788e-05
6.19206e-05
6.19548e-05
6.19835e-05
6.20064e-05
6.20245e-05
6.20376e-05
6.2047e-05
6.20483e-05
6.2047e-05
6.20435e-05
6.20354e-05
6.20211e-05
6.20025e-05
6.19803e-05
6.19546e-05
6.19252e-05
6.18924e-05
6.18564e-05
6.18169e-05
6.17738e-05
3.24919e-06
1.56601e-05
2.02792e-05
2.74805e-05
3.07603e-05
3.38337e-05
3.56245e-05
3.70357e-05
3.793e-05
3.8573e-05
3.89899e-05
3.92594e-05
3.9426e-05
3.95212e-05
3.95702e-05
3.95906e-05
3.95894e-05
3.95837e-05
3.95721e-05
3.95582e-05
3.95468e-05
3.95369e-05
3.95271e-05
3.95179e-05
3.95104e-05
3.95043e-05
3.95003e-05
3.94973e-05
3.94962e-05
3.9497e-05
3.94995e-05
3.95043e-05
3.95113e-05
3.95201e-05
3.95304e-05
3.95421e-05
3.95559e-05
3.95718e-05
3.95894e-05
3.96084e-05
2.82027e-06
1.30309e-05
1.63278e-05
2.17119e-05
2.3855e-05
2.62908e-05
2.76272e-05
2.88592e-05
2.96641e-05
3.03253e-05
3.07927e-05
3.11557e-05
3.14224e-05
3.16244e-05
3.17756e-05
3.18893e-05
3.19754e-05
3.20403e-05
3.20902e-05
3.21282e-05
3.21576e-05
3.21801e-05
3.21973e-05
3.22101e-05
3.22192e-05
3.22255e-05
3.22286e-05
3.22284e-05
3.22273e-05
3.22247e-05
3.22196e-05
3.22128e-05
3.22047e-05
3.21954e-05
3.21849e-05
3.21732e-05
3.21609e-05
3.21478e-05
3.21334e-05
3.21181e-05
3.09586e-06
1.46138e-05
1.85346e-05
2.49725e-05
2.7765e-05
3.06703e-05
3.23093e-05
3.36667e-05
3.4528e-05
3.51679e-05
3.55888e-05
3.58719e-05
3.6053e-05
3.61594e-05
3.62176e-05
3.62399e-05
3.62368e-05
3.62257e-05
3.62031e-05
3.61743e-05
3.61436e-05
3.61117e-05
3.60801e-05
3.60489e-05
3.60185e-05
3.59886e-05
3.59593e-05
3.59305e-05
3.59021e-05
3.58741e-05
3.58466e-05
3.58195e-05
3.57925e-05
3.57656e-05
3.57386e-05
3.57118e-05
3.56853e-05
3.56589e-05
3.56328e-05
3.56075e-05
2.93699e-06
1.38795e-05
1.74121e-05
2.33057e-05
2.57271e-05
2.85178e-05
3.00594e-05
3.14025e-05
3.22538e-05
3.29095e-05
3.33467e-05
3.36517e-05
3.38506e-05
3.39766e-05
3.40476e-05
3.40859e-05
3.40925e-05
3.40872e-05
3.40741e-05
3.40516e-05
3.40261e-05
3.39986e-05
3.39708e-05
3.39428e-05
3.3915e-05
3.38872e-05
3.38596e-05
3.38318e-05
3.38039e-05
3.37758e-05
3.37476e-05
3.37193e-05
3.36911e-05
3.36628e-05
3.36341e-05
3.36051e-05
3.3576e-05
3.35464e-05
3.35166e-05
3.34873e-05
2.92827e-06
1.3842e-05
1.73642e-05
2.32415e-05
2.56518e-05
2.84377e-05
2.99739e-05
3.13142e-05
3.21611e-05
3.28126e-05
3.32458e-05
3.35457e-05
3.37388e-05
3.38597e-05
3.39243e-05
3.39581e-05
3.39575e-05
3.39496e-05
3.3932e-05
3.39058e-05
3.38772e-05
3.38472e-05
3.38172e-05
3.37875e-05
3.37585e-05
3.373e-05
3.3702e-05
3.36743e-05
3.36468e-05
3.36195e-05
3.35924e-05
3.35652e-05
3.35379e-05
3.35105e-05
3.34828e-05
3.34549e-05
3.34271e-05
3.33991e-05
3.33705e-05
3.33422e-05
3.10285e-06
1.46475e-05
1.8584e-05
2.50435e-05
2.78489e-05
3.07613e-05
3.24062e-05
3.37679e-05
3.46335e-05
3.52784e-05
3.57026e-05
3.59916e-05
3.61766e-05
3.62897e-05
3.63505e-05
3.63804e-05
3.63793e-05
3.63712e-05
3.63531e-05
3.63272e-05
3.62989e-05
3.6269e-05
3.62389e-05
3.62088e-05
3.61791e-05
3.61498e-05
3.6121e-05
3.60924e-05
3.60642e-05
3.60361e-05
3.60084e-05
3.59809e-05
3.59538e-05
3.59267e-05
3.58998e-05
3.58732e-05
3.58468e-05
3.58201e-05
3.57938e-05
3.57684e-05
2.82841e-06
1.30025e-05
1.62926e-05
2.16618e-05
2.38069e-05
2.62462e-05
2.7589e-05
2.88259e-05
2.9634e-05
3.0297e-05
3.07652e-05
3.11281e-05
3.1394e-05
3.15947e-05
3.17445e-05
3.18565e-05
3.19411e-05
3.20046e-05
3.20534e-05
3.20904e-05
3.21193e-05
3.21413e-05
3.21587e-05
3.21716e-05
3.21816e-05
3.21882e-05
3.21931e-05
3.21946e-05
3.21942e-05
3.21929e-05
3.21901e-05
3.21852e-05
3.2179e-05
3.21717e-05
3.21631e-05
3.21534e-05
3.21432e-05
3.21324e-05
3.21197e-05
3.21065e-05
3.25849e-06
1.5692e-05
2.03335e-05
2.75617e-05
3.08625e-05
3.39529e-05
3.57658e-05
3.71949e-05
3.81083e-05
3.87677e-05
3.92018e-05
3.9487e-05
3.96699e-05
3.97783e-05
3.98429e-05
3.98736e-05
3.98887e-05
3.98896e-05
3.98879e-05
3.98847e-05
3.98796e-05
3.9874e-05
3.98693e-05
3.98654e-05
3.98639e-05
3.98629e-05
3.98637e-05
3.98659e-05
3.98702e-05
3.98753e-05
3.98819e-05
3.98901e-05
3.98996e-05
3.99105e-05
3.99228e-05
3.99364e-05
3.99513e-05
3.99675e-05
3.99848e-05
4.00031e-05
8.18862e-06
2.20754e-05
3.19524e-05
4.13657e-05
4.74713e-05
5.20391e-05
5.51467e-05
5.73135e-05
5.88116e-05
5.98292e-05
6.05451e-05
6.10307e-05
6.13802e-05
6.16217e-05
6.18008e-05
6.19291e-05
6.20276e-05
6.21014e-05
6.21599e-05
6.22053e-05
6.2242e-05
6.22707e-05
6.22929e-05
6.23096e-05
6.23212e-05
6.23269e-05
6.23266e-05
6.23247e-05
6.23196e-05
6.23083e-05
6.2292e-05
6.22717e-05
6.22475e-05
6.22196e-05
6.21882e-05
6.2153e-05
6.21144e-05
6.2073e-05
6.20281e-05
6.19794e-05
6.48845e-06
1.52025e-05
2.41177e-05
3.16234e-05
3.78349e-05
4.27361e-05
4.64994e-05
4.9259e-05
5.12888e-05
5.27432e-05
5.38076e-05
5.45672e-05
5.51195e-05
5.55094e-05
5.57901e-05
5.59872e-05
5.61291e-05
5.62295e-05
5.63023e-05
5.63542e-05
5.6392e-05
5.64191e-05
5.6439e-05
5.64532e-05
5.64635e-05
5.64707e-05
5.64759e-05
5.64776e-05
5.64777e-05
5.64776e-05
5.64772e-05
5.64755e-05
5.64715e-05
5.64663e-05
5.64604e-05
5.64538e-05
5.64464e-05
5.64384e-05
5.64297e-05
5.64203e-05
3.93052e-07
8.37473e-07
1.45926e-06
2.42726e-06
3.25131e-06
4.34299e-06
5.27691e-06
6.21949e-06
7.04281e-06
7.80322e-06
8.47682e-06
9.09045e-06
9.6387e-06
1.01293e-05
1.05601e-05
1.09381e-05
1.12682e-05
1.1559e-05
1.18169e-05
1.20464e-05
1.22493e-05
1.24273e-05
1.25824e-05
1.2718e-05
1.2838e-05
1.2945e-05
1.30409e-05
1.31263e-05
1.32015e-05
1.32674e-05
1.33257e-05
1.33781e-05
1.3426e-05
1.34703e-05
1.35114e-05
1.35489e-05
1.35827e-05
1.36129e-05
1.36403e-05
1.36659e-05
3.73497e-07
6.28954e-07
9.53356e-07
1.53115e-06
1.85987e-06
2.40453e-06
2.76605e-06
3.20214e-06
3.55111e-06
3.90309e-06
4.21139e-06
4.50721e-06
4.77441e-06
5.02256e-06
5.25009e-06
5.46314e-06
5.65967e-06
5.83938e-06
6.00298e-06
6.15384e-06
6.29447e-06
6.42511e-06
6.54481e-06
6.65326e-06
6.75173e-06
6.84318e-06
6.92958e-06
7.01027e-06
7.0839e-06
7.14979e-06
7.20853e-06
7.26226e-06
7.3133e-06
7.36249e-06
7.40909e-06
7.45153e-06
7.48831e-06
7.51912e-06
7.54491e-06
7.56817e-06
3.75439e-07
6.77853e-07
1.05467e-06
1.7207e-06
2.11548e-06
2.75832e-06
3.19468e-06
3.70339e-06
4.11159e-06
4.51501e-06
4.86309e-06
5.19095e-06
5.48299e-06
5.74998e-06
5.98972e-06
6.21011e-06
6.41076e-06
6.5924e-06
6.7551e-06
6.90198e-06
7.03613e-06
7.15909e-06
7.27073e-06
7.37056e-06
7.45973e-06
7.54083e-06
7.61565e-06
7.6847e-06
7.74747e-06
7.80304e-06
7.85164e-06
7.8949e-06
7.93476e-06
7.97257e-06
8.00847e-06
8.04126e-06
8.06918e-06
8.09098e-06
8.1074e-06
8.12162e-06
3.74277e-07
6.544e-07
1.00467e-06
1.62508e-06
1.98343e-06
2.57665e-06
2.97386e-06
3.45003e-06
3.83041e-06
4.21042e-06
4.53871e-06
4.85076e-06
5.12959e-06
5.38569e-06
5.61649e-06
5.82973e-06
6.0249e-06
6.20187e-06
6.36077e-06
6.50478e-06
6.63706e-06
6.75898e-06
6.86996e-06
6.96931e-06
7.0584e-06
7.13994e-06
7.21564e-06
7.28583e-06
7.34976e-06
7.40637e-06
7.45603e-06
7.50053e-06
7.54193e-06
7.58161e-06
7.61944e-06
7.65386e-06
7.68287e-06
7.70539e-06
7.72266e-06
7.73839e-06
3.74209e-07
6.53107e-07
1.00214e-06
1.62063e-06
1.97776e-06
2.56922e-06
2.96496e-06
3.44012e-06
3.81927e-06
4.19823e-06
4.52553e-06
4.83689e-06
5.11487e-06
5.37025e-06
5.60011e-06
5.81274e-06
6.00717e-06
6.18346e-06
6.34165e-06
6.48504e-06
6.61678e-06
6.73814e-06
6.84858e-06
6.94742e-06
7.03608e-06
7.11723e-06
7.1926e-06
7.26253e-06
7.32622e-06
7.38262e-06
7.43206e-06
7.47638e-06
7.5177e-06
7.55738e-06
7.59527e-06
7.62972e-06
7.65872e-06
7.68119e-06
7.69847e-06
7.7143e-06
3.75498e-07
6.791e-07
1.05721e-06
1.72543e-06
2.12172e-06
2.76694e-06
3.20458e-06
3.7151e-06
4.12432e-06
4.52938e-06
4.87837e-06
5.20738e-06
5.50018e-06
5.76827e-06
6.00881e-06
6.23002e-06
6.43143e-06
6.61374e-06
6.77709e-06
6.92454e-06
7.05921e-06
7.18265e-06
7.29472e-06
7.39493e-06
7.48445e-06
7.56587e-06
7.64096e-06
7.7102e-06
7.77312e-06
7.82883e-06
7.87756e-06
7.92093e-06
7.96086e-06
7.9987e-06
8.03459e-06
8.06738e-06
8.0953e-06
8.11714e-06
8.13364e-06
8.14788e-06
3.73551e-07
6.28154e-07
9.51623e-07
1.5278e-06
1.85591e-06
2.39971e-06
2.76094e-06
3.19682e-06
3.5459e-06
3.8981e-06
4.2065e-06
4.50247e-06
4.76983e-06
5.01822e-06
5.24592e-06
5.45896e-06
5.65567e-06
5.83544e-06
5.99915e-06
6.14998e-06
6.29065e-06
6.42135e-06
6.54116e-06
6.6497e-06
6.74822e-06
6.83972e-06
6.92622e-06
7.00707e-06
7.08083e-06
7.14689e-06
7.20582e-06
7.25971e-06
7.31092e-06
7.36032e-06
7.40715e-06
7.44984e-06
7.48687e-06
7.51787e-06
7.54396e-06
7.56758e-06
3.93136e-07
8.38658e-07
1.46163e-06
2.43164e-06
3.25735e-06
4.35122e-06
5.2872e-06
6.23144e-06
7.05716e-06
7.81911e-06
8.49455e-06
9.1098e-06
9.65977e-06
1.0152e-05
1.05844e-05
1.09636e-05
1.1295e-05
1.15871e-05
1.18462e-05
1.20766e-05
1.22805e-05
1.24594e-05
1.26151e-05
1.27515e-05
1.28721e-05
1.29798e-05
1.30762e-05
1.31623e-05
1.32381e-05
1.33047e-05
1.33637e-05
1.34168e-05
1.34653e-05
1.35103e-05
1.3552e-05
1.35899e-05
1.36238e-05
1.36543e-05
1.36821e-05
1.3708e-05
6.48845e-06
1.52043e-05
2.4118e-05
3.16245e-05
3.78367e-05
4.27389e-05
4.65028e-05
4.92629e-05
5.12931e-05
5.27479e-05
5.38125e-05
5.45723e-05
5.51247e-05
5.55148e-05
5.57955e-05
5.59926e-05
5.61345e-05
5.62348e-05
5.63075e-05
5.63593e-05
5.6397e-05
5.6424e-05
5.64436e-05
5.64576e-05
5.64677e-05
5.64748e-05
5.64796e-05
5.64808e-05
5.64809e-05
5.64808e-05
5.64802e-05
5.6478e-05
5.64737e-05
5.64683e-05
5.64622e-05
5.64553e-05
5.64477e-05
5.64394e-05
5.64304e-05
5.64208e-05
6.48675e-06
1.52094e-05
2.40723e-05
3.15198e-05
3.76636e-05
4.25521e-05
4.62785e-05
4.90271e-05
5.1027e-05
5.24689e-05
5.3513e-05
5.42616e-05
5.47983e-05
5.5176e-05
5.54414e-05
5.56245e-05
5.57508e-05
5.58365e-05
5.58934e-05
5.59303e-05
5.59518e-05
5.59647e-05
5.59666e-05
5.59651e-05
5.59618e-05
5.59548e-05
5.59447e-05
5.59326e-05
5.59194e-05
5.59052e-05
5.589e-05
5.58739e-05
5.5857e-05
5.58394e-05
5.58213e-05
5.58027e-05
5.57837e-05
5.57644e-05
5.57449e-05
5.57251e-05
3.80514e-07
5.60651e-07
9.70656e-07
1.53761e-06
2.28119e-06
3.08336e-06
3.90096e-06
4.68604e-06
5.41139e-06
6.0718e-06
6.67624e-06
7.23321e-06
7.74517e-06
8.21061e-06
8.62604e-06
8.99326e-06
9.31755e-06
9.60805e-06
9.87184e-06
1.01122e-05
1.03284e-05
1.05197e-05
1.06871e-05
1.08353e-05
1.09688e-05
1.10905e-05
1.12014e-05
1.13008e-05
1.13883e-05
1.14652e-05
1.15332e-05
1.1595e-05
1.16528e-05
1.17069e-05
1.17563e-05
1.18008e-05
1.184e-05
1.18741e-05
1.19044e-05
1.19328e-05
3.63714e-07
3.63963e-07
3.65364e-07
3.70122e-07
3.79745e-07
4.00943e-07
4.26325e-07
4.71924e-07
5.22106e-07
5.7854e-07
6.39645e-07
7.10133e-07
7.84e-07
8.57463e-07
9.31896e-07
1.008e-06
1.08499e-06
1.15773e-06
1.22854e-06
1.29975e-06
1.37393e-06
1.44787e-06
1.51686e-06
1.57906e-06
1.63817e-06
1.69909e-06
1.76491e-06
1.83026e-06
1.89074e-06
1.94364e-06
1.99073e-06
2.03817e-06
2.08947e-06
2.14509e-06
2.20046e-06
2.25174e-06
2.2945e-06
2.33057e-06
2.36257e-06
2.39742e-06
3.63708e-07
3.63966e-07
3.65236e-07
3.70006e-07
3.77301e-07
3.94704e-07
4.10533e-07
4.40275e-07
4.71064e-07
5.08069e-07
5.44582e-07
5.88305e-07
6.33612e-07
6.78011e-07
7.20848e-07
7.66906e-07
8.157e-07
8.63349e-07
9.06975e-07
9.48882e-07
9.92562e-07
1.03836e-06
1.08308e-06
1.12357e-06
1.16033e-06
1.19719e-06
1.23668e-06
1.27762e-06
1.31666e-06
1.35108e-06
1.38111e-06
1.41019e-06
1.44201e-06
1.4772e-06
1.51338e-06
1.54667e-06
1.57393e-06
1.5956e-06
1.61458e-06
1.63612e-06
3.63705e-07
3.63921e-07
3.65031e-07
3.69268e-07
3.75637e-07
3.909e-07
4.04683e-07
4.30837e-07
4.57978e-07
4.90828e-07
5.23494e-07
5.63207e-07
6.04412e-07
6.44691e-07
6.83806e-07
7.26449e-07
7.71823e-07
8.15904e-07
8.56077e-07
8.94957e-07
9.35953e-07
9.79041e-07
1.02087e-06
1.05843e-06
1.0928e-06
1.12766e-06
1.16511e-06
1.2038e-06
1.2405e-06
1.27251e-06
1.30057e-06
1.32821e-06
1.35878e-06
1.39258e-06
1.42691e-06
1.45793e-06
1.48297e-06
1.50272e-06
1.52084e-06
1.54187e-06
3.63705e-07
3.63919e-07
3.65021e-07
3.69231e-07
3.75562e-07
3.90735e-07
4.04436e-07
4.30481e-07
4.57492e-07
4.90145e-07
5.22631e-07
5.62263e-07
6.03332e-07
6.43421e-07
6.82328e-07
7.24839e-07
7.70112e-07
8.14012e-07
8.54016e-07
8.92731e-07
9.33606e-07
9.76564e-07
1.01824e-06
1.05565e-06
1.08984e-06
1.12459e-06
1.16191e-06
1.20053e-06
1.23709e-06
1.26898e-06
1.29684e-06
1.3244e-06
1.35487e-06
1.38865e-06
1.42292e-06
1.4538e-06
1.47868e-06
1.49831e-06
1.51637e-06
1.53736e-06
3.63708e-07
3.63969e-07
3.65247e-07
3.70045e-07
3.77385e-07
3.94899e-07
4.10825e-07
4.40734e-07
4.71597e-07
5.0889e-07
5.45603e-07
5.89439e-07
6.34905e-07
6.79553e-07
7.22605e-07
7.6879e-07
8.17754e-07
8.6559e-07
9.09432e-07
9.51477e-07
9.95324e-07
1.04127e-06
1.08614e-06
1.12681e-06
1.16373e-06
1.20074e-06
1.24034e-06
1.28137e-06
1.32055e-06
1.35512e-06
1.38531e-06
1.41451e-06
1.44639e-06
1.48163e-06
1.5179e-06
1.55126e-06
1.57874e-06
1.60042e-06
1.61968e-06
1.64111e-06
3.63714e-07
3.63961e-07
3.65358e-07
3.701e-07
3.79697e-07
4.00873e-07
4.26204e-07
4.71526e-07
5.21903e-07
5.78469e-07
6.39231e-07
7.09572e-07
7.83639e-07
8.57186e-07
9.31449e-07
1.00744e-06
1.08457e-06
1.15737e-06
1.22807e-06
1.29915e-06
1.37347e-06
1.44742e-06
1.51627e-06
1.57848e-06
1.63761e-06
1.69875e-06
1.76405e-06
1.82977e-06
1.89009e-06
1.94324e-06
1.98997e-06
2.03776e-06
2.08892e-06
2.14441e-06
2.20037e-06
2.25097e-06
2.29404e-06
2.33003e-06
2.36281e-06
2.39625e-06
3.80516e-07
5.60666e-07
9.70703e-07
1.53769e-06
2.28124e-06
3.08341e-06
3.90096e-06
4.68586e-06
5.41149e-06
6.0719e-06
6.67621e-06
7.23301e-06
7.7452e-06
8.21061e-06
8.6262e-06
8.99335e-06
9.31778e-06
9.60841e-06
9.87216e-06
1.01126e-05
1.03288e-05
1.052e-05
1.06875e-05
1.08355e-05
1.0969e-05
1.10908e-05
1.12015e-05
1.13009e-05
1.13887e-05
1.14654e-05
1.15337e-05
1.15958e-05
1.16537e-05
1.17077e-05
1.17576e-05
1.18021e-05
1.1841e-05
1.18752e-05
1.19056e-05
1.19339e-05
6.48676e-06
1.52093e-05
2.40727e-05
3.152e-05
3.76635e-05
4.2552e-05
4.62785e-05
4.90271e-05
5.1027e-05
5.24689e-05
5.3513e-05
5.42617e-05
5.47984e-05
5.51761e-05
5.54414e-05
5.56246e-05
5.57509e-05
5.58366e-05
5.58935e-05
5.59304e-05
5.59519e-05
5.59648e-05
5.59666e-05
5.59652e-05
5.59618e-05
5.59548e-05
5.59446e-05
5.59326e-05
5.59194e-05
5.59051e-05
5.58899e-05
5.58738e-05
5.58569e-05
5.58393e-05
5.58212e-05
5.58026e-05
5.57837e-05
5.57644e-05
5.57448e-05
5.57249e-05
6.48695e-06
1.52027e-05
2.40633e-05
3.15036e-05
3.76385e-05
4.25175e-05
4.62279e-05
4.89644e-05
5.09478e-05
5.23777e-05
5.34065e-05
5.41429e-05
5.46652e-05
5.50303e-05
5.52819e-05
5.54525e-05
5.55658e-05
5.5639e-05
5.56833e-05
5.57084e-05
5.57165e-05
5.57147e-05
5.5709e-05
5.56973e-05
5.56805e-05
5.56606e-05
5.56388e-05
5.56156e-05
5.55912e-05
5.55657e-05
5.55394e-05
5.55122e-05
5.54844e-05
5.5456e-05
5.54272e-05
5.53981e-05
5.53687e-05
5.53391e-05
5.53093e-05
5.52794e-05
3.80442e-07
5.60326e-07
9.7002e-07
1.5363e-06
2.2802e-06
3.08087e-06
3.8975e-06
4.68092e-06
5.4036e-06
6.06169e-06
6.66368e-06
7.21814e-06
7.72759e-06
8.18981e-06
8.60201e-06
8.96579e-06
9.2869e-06
9.57435e-06
9.83565e-06
1.00732e-05
1.02865e-05
1.04744e-05
1.06391e-05
1.07847e-05
1.09154e-05
1.10348e-05
1.11433e-05
1.12403e-05
1.13253e-05
1.13992e-05
1.14647e-05
1.15245e-05
1.15803e-05
1.16321e-05
1.16794e-05
1.17213e-05
1.1758e-05
1.17893e-05
1.18168e-05
1.18434e-05
3.63912e-07
3.63434e-07
3.63657e-07
3.64882e-07
3.68576e-07
3.76699e-07
3.92209e-07
4.17776e-07
4.52042e-07
4.91213e-07
5.35783e-07
5.87404e-07
6.44579e-07
7.03809e-07
7.6418e-07
8.25071e-07
8.85552e-07
9.44037e-07
1.00173e-06
1.062e-06
1.12386e-06
1.1852e-06
1.24154e-06
1.29183e-06
1.34094e-06
1.3931e-06
1.44935e-06
1.50527e-06
1.55552e-06
1.5987e-06
1.63826e-06
1.6785e-06
1.724e-06
1.77293e-06
1.82106e-06
1.86422e-06
1.90023e-06
1.93029e-06
1.95844e-06
1.98956e-06
3.63867e-07
3.63464e-07
3.63015e-07
3.62752e-07
3.62413e-07
3.61985e-07
3.61723e-07
3.61604e-07
3.61515e-07