/*--------------------------------*- C++ -*----------------------------------*\
  =========                 |
  \\      /  F ield         | OpenFOAM: The Open Source CFD Toolbox
   \\    /   O peration     | Website:  https://openfoam.org
    \\  /    A nd           | Version:  7
     \\/     M anipulation  |
\*---------------------------------------------------------------------------*/
FoamFile
{
    version     2.0;
    format      ascii;
    class       volScalarField;
    location    "0.4";
    object      k_0;
}
// * * * * * * * * * * * * * * * * * * * * * * * * * * * * * * * * * * * * * //

dimensions      [0 2 -2 0 0 0 0];

internalField   nonuniform List<scalar> 
9000
(
0.0022745
0.0124561
0.0346933
0.0722245
0.0950553
0.132788
0.190419
0.242085
0.284918
0.329697
0.377616
0.422475
0.461772
0.497316
0.530064
0.558904
0.583089
0.603394
0.620845
0.635692
0.647519
0.656565
0.663121
0.668199
0.671372
0.673509
0.6735
0.672948
0.67158
0.669275
0.666313
0.662772
0.658773
0.654418
0.649776
0.644894
0.639815
0.634585
0.629247
0.623836
0.618375
0.612881
0.607372
0.601866
0.596381
0.590923
0.585501
0.580122
0.574798
0.569534
0.564334
0.559195
0.55412
0.549114
0.544183
0.539332
0.534562
0.529874
0.525283
0.520795
0.516383
0.512023
0.507717
0.50348
0.499318
0.495232
0.491227
0.487311
0.483489
0.479759
0.47612
0.472566
0.469092
0.46569
0.462357
0.45909
0.455893
0.452769
0.449719
0.446744
0.44384
0.441004
0.438233
0.435527
0.432886
0.430311
0.427802
0.425361
0.422987
0.42068
0.418438
0.416262
0.414151
0.412102
0.410114
0.408184
0.406309
0.404487
0.402716
0.400995
0.399322
0.397695
0.396115
0.394578
0.393085
0.391637
0.390234
0.388878
0.387571
0.386311
0.3851
0.383935
0.382818
0.38175
0.380731
0.379761
0.37884
0.377965
0.377134
0.376348
0.375607
0.374913
0.374265
0.373663
0.373105
0.372587
0.372104
0.37165
0.371227
0.370834
0.370474
0.370148
0.369862
0.369612
0.3694
0.369214
0.369059
0.368915
0.368784
0.368653
0.368513
0.368344
0.368188
0.367896
0.367673
0.367166
0.366818
0.365894
0.365274
0.369039
2.05054e-05
3.33482e-05
0.000100637
0.00029479
0.000575005
0.0011402
0.00246987
0.00451808
0.00619035
0.00789301
0.0113797
0.0167164
0.0214291
0.0250152
0.0291148
0.0349736
0.0418504
0.0481447
0.0533256
0.058254
0.0638292
0.0700009
0.075893
0.0809538
0.0852924
0.0894824
0.0937911
0.0980437
0.101905
0.105236
0.108168
0.110903
0.113529
0.115996
0.11821
0.120137
0.121823
0.123347
0.12476
0.126066
0.127238
0.128259
0.129146
0.129934
0.130654
0.131315
0.13191
0.132435
0.13289
0.133286
0.133651
0.133993
0.134309
0.134597
0.134848
0.135066
0.135271
0.135476
0.135691
0.135908
0.136118
0.136316
0.136501
0.136679
0.136853
0.137024
0.137191
0.137354
0.137515
0.137676
0.137832
0.137989
0.138153
0.138334
0.13853
0.13873
0.138927
0.139122
0.139325
0.139549
0.139804
0.140086
0.140386
0.14069
0.140987
0.141275
0.141555
0.141825
0.142084
0.142336
0.142587
0.142844
0.143108
0.143378
0.143652
0.143927
0.144198
0.144466
0.144731
0.144992
0.145251
0.14551
0.145766
0.146018
0.146264
0.146504
0.146736
0.146957
0.14717
0.147376
0.14757
0.147752
0.147925
0.148088
0.148235
0.148367
0.148488
0.148599
0.148692
0.148767
0.148828
0.148881
0.148921
0.148941
0.148945
0.148944
0.14894
0.14893
0.148906
0.148869
0.148819
0.148758
0.148697
0.148623
0.148544
0.148476
0.148395
0.148297
0.148214
0.148129
0.148012
0.147942
0.14794
0.147959
0.148011
0.148159
0.148274
0.148566
0.148694
0.149055
1.999e-05
1.99827e-05
2.0016e-05
2.01862e-05
2.06643e-05
2.1977e-05
2.57355e-05
3.56413e-05
4.66198e-05
6.02196e-05
8.74503e-05
0.000152231
0.000239388
0.000310217
0.000374974
0.000489575
0.000720076
0.000998595
0.00120823
0.00136461
0.00160809
0.0020202
0.00251165
0.00292948
0.00323834
0.00356251
0.00403471
0.00463943
0.00523543
0.00571569
0.00611665
0.00656512
0.00713458
0.00777213
0.00836235
0.00884763
0.00927845
0.00974954
0.0102998
0.0108808
0.0114124
0.0118615
0.0122677
0.012697
0.0131752
0.0136671
0.0141181
0.0145086
0.0148645
0.0152271
0.0156157
0.0160116
0.0163805
0.0167063
0.0170019
0.0172933
0.0175961
0.0179039
0.0181976
0.0184634
0.0187037
0.0189331
0.019165
0.0193994
0.0196261
0.0198345
0.0200224
0.0201979
0.0203709
0.0205435
0.0207107
0.0208638
0.0209988
0.0211242
0.021251
0.0213809
0.0215085
0.0216267
0.0217282
0.0218149
0.0218996
0.021995
0.0221049
0.0222269
0.0223535
0.0224751
0.0225856
0.0226828
0.0227651
0.0228353
0.0228949
0.0229438
0.0229865
0.0230303
0.0230779
0.0231293
0.023185
0.023243
0.0232998
0.0233561
0.0234139
0.0234733
0.0235334
0.0235942
0.0236544
0.0237112
0.023765
0.0238182
0.0238705
0.02392
0.0239668
0.0240119
0.0240535
0.0240911
0.0241275
0.024164
0.0241978
0.0242269
0.0242529
0.0242774
0.0242992
0.0243174
0.0243329
0.0243469
0.024359
0.024368
0.0243736
0.0243764
0.0243776
0.0243782
0.0243782
0.0243773
0.0243729
0.0243663
0.0243534
0.0243423
0.024334
0.0243175
0.0243113
0.024299
0.0242929
0.0242841
0.0242826
0.0242864
0.0242983
0.0243206
0.0243715
0.0244228
0.0245358
0.0246343
1.99917e-05
1.99764e-05
1.99684e-05
1.99525e-05
1.99406e-05
1.99344e-05
1.99376e-05
1.9952e-05
1.99825e-05
2.00328e-05
2.01373e-05
2.03944e-05
2.09762e-05
2.15181e-05
2.20266e-05
2.29034e-05
2.49064e-05
2.87037e-05
3.19313e-05
3.4236e-05
3.71319e-05
4.33055e-05
5.47544e-05
6.60062e-05
7.37442e-05
7.96101e-05
8.9934e-05
0.000110489
0.000135346
0.000154938
0.000166524
0.000179503
0.000204479
0.000240907
0.000277402
0.000303098
0.000319928
0.000342137
0.000380692
0.000430625
0.000475789
0.000505924
0.000528034
0.000559262
0.000608333
0.000666337
0.000716562
0.000751632
0.000779725
0.000816254
0.000869276
0.000931271
0.000986342
0.00102591
0.00105692
0.00109473
0.00114806
0.00121066
0.00126775
0.00131046
0.00134375
0.00138075
0.00143044
0.00148949
0.00154624
0.00159149
0.00162608
0.00165975
0.00170206
0.00175424
0.00180854
0.00185444
0.00188814
0.00191681
0.00195121
0.00199561
0.00204537
0.0020911
0.0021255
0.00215006
0.00217457
0.00220808
0.00225103
0.002296
0.00233484
0.00236558
0.00239303
0.00242314
0.00245791
0.00249467
0.0025278
0.00255247
0.00256932
0.00258443
0.00260414
0.00262989
0.00265799
0.00268288
0.00270177
0.00271647
0.00273187
0.00275201
0.00277679
0.00280223
0.00282385
0.00284015
0.00285344
0.00286756
0.00288479
0.00290473
0.00292471
0.00294137
0.00295286
0.00296076
0.00296924
0.00298143
0.00299657
0.00301055
0.00301967
0.00302387
0.00302614
0.00302993
0.00303661
0.00304423
0.00304951
0.00305129
0.00305131
0.0030507
0.00304896
0.0030466
0.00304522
0.00304294
0.00304137
0.00303819
0.00303529
0.00302884
0.00302294
0.00301367
0.00300692
0.00299981
0.00299661
0.00299034
0.00298545
0.00297649
0.00297131
0.00296701
0.00296675
0.00296759
0.00297121
0.00297645
1.99924e-05
1.99747e-05
1.99616e-05
1.99501e-05
1.99346e-05
1.99273e-05
1.99239e-05
1.99181e-05
1.99181e-05
1.99197e-05
1.9924e-05
1.99334e-05
1.99475e-05
1.99694e-05
1.99963e-05
2.00151e-05
2.00386e-05
2.00862e-05
2.01404e-05
2.018e-05
2.02163e-05
2.02861e-05
2.04481e-05
2.06361e-05
2.0768e-05
2.08527e-05
2.09735e-05
2.12547e-05
2.17201e-05
2.21144e-05
2.23504e-05
2.25287e-05
2.28498e-05
2.35737e-05
2.44489e-05
2.51128e-05
2.54915e-05
2.58229e-05
2.64897e-05
2.78236e-05
2.92267e-05
3.02222e-05
3.07702e-05
3.13096e-05
3.24577e-05
3.44697e-05
3.64862e-05
3.78778e-05
3.86276e-05
3.93931e-05
4.10261e-05
4.3709e-05
4.64164e-05
4.82971e-05
4.92857e-05
5.02186e-05
5.21703e-05
5.54355e-05
5.88565e-05
6.13244e-05
6.26148e-05
6.36475e-05
6.57091e-05
6.9304e-05
7.33421e-05
7.64791e-05
7.81858e-05
7.92511e-05
8.11177e-05
8.46867e-05
8.91399e-05
9.29289e-05
9.51279e-05
9.62899e-05
9.79249e-05
0.000101099
0.000105519
0.000109871
0.00011291
0.000114457
0.000115517
0.000117501
0.000121691
0.000126689
0.000130889
0.000133519
0.000135075
0.000136829
0.000139794
0.000143973
0.000148396
0.000151878
0.000153873
0.000154818
0.000155772
0.000157876
0.00016196
0.000166169
0.000169281
0.000170937
0.000171803
0.000173039
0.000175982
0.000180402
0.000184252
0.000186618
0.000187724
0.000188695
0.000190791
0.000194627
0.000198497
0.000201237
0.000202608
0.000203354
0.000204568
0.000207093
0.000210447
0.000213643
0.000215876
0.000216999
0.000217507
0.000218125
0.00021954
0.0002219
0.000224367
0.000226361
0.000227591
0.000228139
0.000228333
0.000228517
0.000228938
0.000230173
0.000231802
0.000232985
0.000233638
0.000233882
0.000233931
0.000233931
0.000233938
0.00023399
0.000234232
0.000234683
0.000235105
0.000235369
0.000235728
0.000235996
0.000236555
0.000237042
0.000238154
0.00023902
1.9992e-05
1.99744e-05
1.99598e-05
1.99482e-05
1.99331e-05
1.99225e-05
1.99191e-05
1.99126e-05
1.99095e-05
1.99102e-05
1.99129e-05
1.99186e-05
1.99298e-05
1.99474e-05
1.99678e-05
1.99859e-05
2.00014e-05
2.00189e-05
2.00413e-05
2.00689e-05
2.0101e-05
2.01382e-05
2.01806e-05
2.02272e-05
2.0275e-05
2.03231e-05
2.03731e-05
2.04278e-05
2.04869e-05
2.05456e-05
2.06003e-05
2.06512e-05
2.07025e-05
2.07599e-05
2.08199e-05
2.08748e-05
2.0922e-05
2.0964e-05
2.10105e-05
2.10693e-05
2.11314e-05
2.1181e-05
2.1217e-05
2.12511e-05
2.12974e-05
2.13609e-05
2.14284e-05
2.14778e-05
2.15036e-05
2.15281e-05
2.1578e-05
2.16538e-05
2.17289e-05
2.17782e-05
2.18019e-05
2.18232e-05
2.18688e-05
2.19548e-05
2.2042e-05
2.21026e-05
2.21323e-05
2.21517e-05
2.21874e-05
2.22709e-05
2.23737e-05
2.24548e-05
2.25003e-05
2.25219e-05
2.25452e-05
2.2597e-05
2.27055e-05
2.28139e-05
2.28888e-05
2.29257e-05
2.2947e-05
2.2984e-05
2.30716e-05
2.31733e-05
2.32445e-05
2.32846e-05
2.33219e-05
2.33872e-05
2.34872e-05
2.36019e-05
2.37027e-05
2.37711e-05
2.38069e-05
2.38245e-05
2.38439e-05
2.38847e-05
2.39969e-05
2.4142e-05
2.4246e-05
2.43141e-05
2.43814e-05
2.4483e-05
2.46264e-05
2.47871e-05
2.49259e-05
2.50148e-05
2.50561e-05
2.50804e-05
2.51253e-05
2.52175e-05
2.53225e-05
2.54078e-05
2.54581e-05
2.54811e-05
2.54989e-05
2.55343e-05
2.56194e-05
2.5718e-05
2.57917e-05
2.58316e-05
2.585e-05
2.58697e-05
2.59139e-05
2.60024e-05
2.60916e-05
2.61578e-05
2.6194e-05
2.62089e-05
2.62191e-05
2.6239e-05
2.62911e-05
2.63628e-05
2.64197e-05
2.64535e-05
2.64677e-05
2.64714e-05
2.64736e-05
2.64788e-05
2.64979e-05
2.65339e-05
2.65575e-05
2.65683e-05
2.65716e-05
2.65719e-05
2.65695e-05
2.65651e-05
2.65654e-05
2.65675e-05
2.65746e-05
2.65824e-05
2.65938e-05
2.66046e-05
2.66274e-05
2.66504e-05
2.67027e-05
2.67435e-05
1.9992e-05
1.99744e-05
1.99598e-05
1.99482e-05
1.99331e-05
1.99225e-05
1.99191e-05
1.99125e-05
1.99095e-05
1.99102e-05
1.99129e-05
1.99186e-05
1.99298e-05
1.99474e-05
1.99678e-05
1.99859e-05
2.00014e-05
2.00189e-05
2.00413e-05
2.00689e-05
2.0101e-05
2.01382e-05
2.01807e-05
2.02272e-05
2.0275e-05
2.03231e-05
2.03731e-05
2.04278e-05
2.04869e-05
2.05456e-05
2.06002e-05
2.06512e-05
2.07025e-05
2.07599e-05
2.08199e-05
2.08748e-05
2.0922e-05
2.09639e-05
2.10105e-05
2.10694e-05
2.11314e-05
2.1181e-05
2.1217e-05
2.12511e-05
2.12975e-05
2.13609e-05
2.14284e-05
2.14778e-05
2.15036e-05
2.15281e-05
2.1578e-05
2.16539e-05
2.17289e-05
2.17782e-05
2.18019e-05
2.18231e-05
2.18689e-05
2.19548e-05
2.20421e-05
2.21026e-05
2.21323e-05
2.21517e-05
2.21874e-05
2.22709e-05
2.23737e-05
2.24547e-05
2.25002e-05
2.25218e-05
2.25451e-05
2.25969e-05
2.27055e-05
2.28137e-05
2.28885e-05
2.29254e-05
2.29467e-05
2.29836e-05
2.30712e-05
2.31729e-05
2.32442e-05
2.32842e-05
2.33214e-05
2.33865e-05
2.34864e-05
2.3601e-05
2.37015e-05
2.37698e-05
2.38055e-05
2.38231e-05
2.38424e-05
2.38832e-05
2.39954e-05
2.41404e-05
2.42441e-05
2.4312e-05
2.43791e-05
2.44804e-05
2.46234e-05
2.47836e-05
2.49218e-05
2.50104e-05
2.50514e-05
2.50754e-05
2.51197e-05
2.52112e-05
2.53155e-05
2.54001e-05
2.54498e-05
2.54724e-05
2.54898e-05
2.55243e-05
2.56077e-05
2.57051e-05
2.57776e-05
2.58167e-05
2.58345e-05
2.58532e-05
2.5895e-05
2.59813e-05
2.60684e-05
2.61325e-05
2.6167e-05
2.61808e-05
2.61897e-05
2.62069e-05
2.62537e-05
2.6322e-05
2.63751e-05
2.64055e-05
2.64169e-05
2.64187e-05
2.64186e-05
2.64198e-05
2.64297e-05
2.64567e-05
2.64727e-05
2.64774e-05
2.64775e-05
2.64756e-05
2.64657e-05
2.64488e-05
2.64404e-05
2.64382e-05
2.64377e-05
2.64328e-05
2.64276e-05
2.64292e-05
2.6436e-05
2.64511e-05
2.64893e-05
2.65212e-05
1.99924e-05
1.99747e-05
1.99616e-05
1.99501e-05
1.99346e-05
1.99273e-05
1.99238e-05
1.99181e-05
1.99181e-05
1.99197e-05
1.9924e-05
1.99334e-05
1.99475e-05
1.99694e-05
1.99963e-05
2.00151e-05
2.00386e-05
2.00862e-05
2.01404e-05
2.018e-05
2.02163e-05
2.02861e-05
2.04481e-05
2.06361e-05
2.0768e-05
2.08527e-05
2.09736e-05
2.12549e-05
2.17203e-05
2.21145e-05
2.23503e-05
2.25287e-05
2.28499e-05
2.35741e-05
2.44492e-05
2.51128e-05
2.54913e-05
2.58228e-05
2.649e-05
2.78241e-05
2.9227e-05
3.02222e-05
3.077e-05
3.13095e-05
3.24581e-05
3.44703e-05
3.64866e-05
3.78777e-05
3.86272e-05
3.9393e-05
4.10266e-05
4.37096e-05
4.64167e-05
4.82969e-05
4.92853e-05
5.02183e-05
5.21704e-05
5.54357e-05
5.88564e-05
6.13237e-05
6.26138e-05
6.36465e-05
6.57084e-05
6.93034e-05
7.33409e-05
7.64764e-05
7.81816e-05
7.92468e-05
8.11154e-05
8.46876e-05
8.91395e-05
9.29226e-05
9.51159e-05
9.62778e-05
9.79162e-05
0.000101088
0.000105506
0.00010986
0.000112904
0.000114455
0.000115512
0.000117487
0.000121667
0.000126661
0.000130858
0.000133488
0.000135046
0.000136801
0.000139765
0.000143941
0.00014836
0.000151839
0.000153834
0.000154777
0.000155727
0.000157818
0.000161892
0.000166094
0.000169198
0.00017085
0.000171712
0.000172942
0.000175871
0.00018028
0.00018412
0.000186481
0.000187583
0.000188545
0.000190619
0.000194434
0.000198285
0.000201014
0.000202379
0.000203114
0.000204297
0.00020679
0.000210117
0.000213283
0.000215497
0.00021661
0.000217104
0.000217686
0.000219023
0.000221344
0.000223768
0.000225717
0.000226908
0.000227426
0.000227594
0.000227741
0.000228086
0.000229177
0.000230754
0.000231851
0.000232396
0.00023255
0.000232553
0.000232476
0.000232398
0.000232398
0.000232468
0.000232698
0.000232981
0.000233166
0.000233352
0.000233518
0.000233863
0.000234225
0.000235099
0.000235828
1.99917e-05
1.99764e-05
1.99684e-05
1.99525e-05
1.99406e-05
1.99343e-05
1.99376e-05
1.9952e-05
1.99825e-05
2.00328e-05
2.01373e-05
2.03945e-05
2.09763e-05
2.15182e-05
2.20268e-05
2.29038e-05
2.49071e-05
2.87043e-05
3.19314e-05
3.42359e-05
3.71322e-05
4.33072e-05
5.47563e-05
6.60069e-05
7.37435e-05
7.96098e-05
8.99367e-05
0.000110495
0.000135351
0.00015494
0.000166523
0.000179504
0.000204485
0.000240915
0.000277407
0.000303097
0.000319925
0.000342139
0.0003807
0.000430634
0.000475793
0.000505922
0.000528031
0.000559263
0.00060834
0.000666344
0.000716563
0.000751629
0.000779721
0.000816254
0.000869281
0.000931275
0.000986343
0.00102591
0.00105692
0.00109473
0.00114805
0.00121066
0.00126774
0.00131045
0.00134374
0.00138074
0.00143043
0.00148947
0.00154621
0.00159145
0.00162604
0.00165972
0.00170204
0.00175421
0.0018085
0.00185437
0.00188805
0.00191671
0.00195112
0.00199552
0.00204529
0.00209102
0.0021254
0.00214993
0.00217442
0.00220789
0.00225082
0.00229578
0.00233461
0.00236534
0.0023928
0.00242291
0.00245766
0.00249441
0.00252751
0.00255213
0.00256894
0.00258401
0.00260367
0.00262939
0.00265744
0.00268228
0.00270112
0.00271577
0.00273112
0.00275121
0.00277592
0.00280131
0.00282285
0.00283906
0.00285228
0.00286633
0.00288346
0.00290328
0.00292317
0.00293973
0.00295107
0.00295882
0.00296718
0.00297923
0.00299422
0.00300797
0.00301691
0.00302094
0.00302296
0.00302651
0.00303304
0.00304039
0.00304518
0.00304654
0.00304646
0.00304561
0.00304354
0.0030406
0.00303891
0.00303596
0.00303402
0.00303003
0.00302682
0.00301962
0.0030135
0.00300302
0.00299622
0.00298743
0.00298328
0.0029763
0.00297018
0.00296131
0.00295351
0.00294883
0.0029463
0.00294602
0.00294788
0.00295179
1.999e-05
1.99827e-05
2.00161e-05
2.01864e-05
2.06647e-05
2.19778e-05
2.57373e-05
3.5644e-05
4.66228e-05
6.02241e-05
8.74574e-05
0.000152243
0.0002394
0.000310228
0.000374986
0.000489588
0.000720094
0.000998611
0.00120824
0.00136462
0.00160813
0.00202025
0.00251169
0.00292949
0.00323833
0.00356251
0.00403475
0.00463948
0.00523547
0.00571571
0.00611667
0.00656515
0.00713464
0.00777219
0.00836239
0.00884765
0.00927847
0.00974957
0.0102999
0.0108808
0.0114124
0.0118615
0.0122677
0.012697
0.0131752
0.0136672
0.0141181
0.0145086
0.0148645
0.0152271
0.0156157
0.0160116
0.0163805
0.0167063
0.0170019
0.0172933
0.0175961
0.0179039
0.0181976
0.0184634
0.0187036
0.0189331
0.0191649
0.0193992
0.0196259
0.0198344
0.0200222
0.0201978
0.0203707
0.0205433
0.0207104
0.0208634
0.0209984
0.0211238
0.0212506
0.0213805
0.0215081
0.0216262
0.0217276
0.0218141
0.0218988
0.0219941
0.0221039
0.0222259
0.0223526
0.022474
0.0225846
0.0226816
0.0227637
0.0228338
0.0228933
0.0229419
0.0229845
0.0230282
0.0230755
0.0231267
0.0231824
0.0232401
0.0232966
0.0233527
0.0234103
0.0234693
0.0235291
0.0235897
0.0236495
0.0237058
0.0237592
0.0238122
0.0238639
0.0239126
0.0239592
0.0240039
0.0240446
0.0240812
0.0241173
0.0241532
0.0241857
0.0242137
0.0242392
0.0242629
0.0242832
0.0242999
0.0243144
0.0243276
0.0243382
0.0243449
0.0243481
0.024349
0.0243491
0.0243488
0.0243467
0.0243428
0.0243341
0.0243232
0.0243117
0.0242928
0.0242835
0.024264
0.024252
0.0242385
0.0242215
0.0242133
0.0242002
0.0242007
0.024207
0.0242226
0.0242611
0.0243053
0.0244054
0.0244955
2.05067e-05
3.33584e-05
0.000100661
0.000294837
0.000575071
0.00114031
0.00247005
0.00451827
0.00619053
0.0078932
0.0113799
0.0167168
0.0214295
0.0250156
0.0291151
0.0349739
0.0418507
0.048145
0.053326
0.0582544
0.0638296
0.0700012
0.0758933
0.080954
0.0852926
0.0894827
0.0937914
0.0980441
0.101905
0.105236
0.108168
0.110903
0.113529
0.115996
0.118211
0.120137
0.121823
0.123347
0.124761
0.126066
0.127238
0.12826
0.129146
0.129934
0.130654
0.131315
0.13191
0.132436
0.13289
0.133286
0.133651
0.133994
0.134309
0.134597
0.134848
0.135066
0.135271
0.135476
0.135691
0.135908
0.136118
0.136316
0.136501
0.136679
0.136853
0.137024
0.13719
0.137353
0.137515
0.137675
0.137832
0.137988
0.138152
0.138333
0.138529
0.138729
0.138925
0.13912
0.139323
0.139547
0.139802
0.140084
0.140384
0.140687
0.140984
0.141272
0.141551
0.141821
0.14208
0.142331
0.142583
0.142839
0.143102
0.143372
0.143646
0.14392
0.144191
0.144458
0.144722
0.144983
0.145241
0.145499
0.145755
0.146006
0.146251
0.14649
0.146721
0.14694
0.147152
0.147356
0.147549
0.14773
0.147902
0.148062
0.148207
0.148337
0.148457
0.148565
0.148656
0.148727
0.148786
0.148837
0.148873
0.148887
0.148888
0.148886
0.148879
0.148864
0.148832
0.148789
0.148735
0.148668
0.148598
0.14852
0.148431
0.148352
0.148267
0.14816
0.148059
0.147965
0.147841
0.147743
0.147723
0.147735
0.14777
0.147884
0.147979
0.148225
0.148327
0.148644
0.00227452
0.0124561
0.0346934
0.0722243
0.0950551
0.132788
0.190419
0.242085
0.284918
0.329697
0.377616
0.422475
0.461772
0.497316
0.530064
0.558904
0.58309
0.603394
0.620845
0.635692
0.647519
0.656565
0.663121
0.6682
0.671373
0.673509
0.673501
0.672948
0.671581
0.669275
0.666313
0.662772
0.658773
0.654418
0.649776
0.644894
0.639815
0.634585
0.629247
0.623836
0.618375
0.612881
0.607371
0.601866
0.59638
0.590923
0.585501
0.580122
0.574797
0.569534
0.564334
0.559195
0.55412
0.549114
0.544183
0.539332
0.534562
0.529874
0.525284
0.520795
0.516383
0.512023
0.507718
0.503481
0.499319
0.495233
0.491229
0.487313
0.483491
0.479761
0.476122
0.472569
0.469094
0.465693
0.46236
0.459094
0.455897
0.452773
0.449724
0.446749
0.443845
0.44101
0.438239
0.435534
0.432894
0.430319
0.427811
0.425371
0.422998
0.420691
0.41845
0.416275
0.414165
0.412118
0.410131
0.408202
0.406329
0.404508
0.402739
0.40102
0.399348
0.397724
0.396145
0.394612
0.393121
0.391675
0.390276
0.388923
0.387619
0.386363
0.385155
0.383994
0.382882
0.381818
0.380805
0.379841
0.378925
0.378056
0.377232
0.376453
0.375719
0.375033
0.374394
0.373801
0.373254
0.372747
0.372274
0.371832
0.371422
0.371043
0.370698
0.37039
0.370121
0.369889
0.369696
0.369532
0.369398
0.369279
0.369174
0.369073
0.368961
0.36883
0.368698
0.368454
0.368254
0.367805
0.367473
0.366636
0.365977
0.36979
0.631226
0.857893
0.93831
0.953424
0.948062
0.938011
0.928575
0.920172
0.912348
0.904937
0.898038
0.891724
0.886002
0.880803
0.875984
0.871331
0.866625
0.861626
0.856219
0.850429
0.844387
0.83833
0.832537
0.827216
0.822411
0.81803
0.813922
0.809942
0.806009
0.802118
0.798306
0.794637
0.791167
0.787944
0.785002
0.782356
0.780011
0.777958
0.776168
0.774609
0.77325
0.772079
0.7711
0.77033
0.769793
0.769505
0.769467
0.76968
0.770143
0.77082
0.771696
0.772746
0.773943
0.775264
0.776684
0.778179
0.779732
0.781325
0.782943
0.784576
0.786214
0.787851
0.789481
0.791103
0.792715
0.794318
0.795911
0.797498
0.799078
0.800655
0.802228
0.803799
0.805368
0.806935
0.8085
0.810064
0.811628
0.81319
0.814752
0.816314
0.817874
0.819435
0.820995
0.822555
0.824114
0.825674
0.827235
0.828797
0.830359
0.831922
0.833486
0.83505
0.836615
0.838181
0.839749
0.841318
0.842888
0.844461
0.846035
0.84761
0.849187
0.850767
0.852348
0.853932
0.855518
0.857107
0.858699
0.860294
0.861891
0.863491
0.865094
0.8667
0.868309
0.869922
0.871537
0.873157
0.87478
0.876407
0.878038
0.879673
0.881312
0.882955
0.884602
0.886254
0.887911
0.889572
0.891238
0.89291
0.894588
0.89627
0.897958
0.899651
0.901348
0.903051
0.904759
0.906473
0.908194
0.909921
0.911654
0.913394
0.91514
0.916892
0.918651
0.920415
0.922187
0.923965
0.925751
0.927544
0.929344
0.931152
0.932967
0.93479
0.93662
0.938458
0.940304
0.942157
0.944018
0.945888
0.947765
0.949652
0.951548
0.953452
0.955365
0.957286
0.959215
0.961154
0.963101
0.965058
0.967025
0.969002
0.970989
0.972987
0.974994
0.977011
0.979038
0.981075
0.983123
0.985181
0.98725
0.989331
0.991423
0.993526
0.995641
0.997767
0.999906
1.00206
1.00422
1.00639
1.00858
1.01078
1.013
1.01522
1.01746
1.01971
1.02198
1.02426
1.02655
1.02886
1.03119
1.03352
1.03588
1.03824
1.04062
1.04302
1.04543
1.04786
1.0503
1.05277
1.05524
1.05774
1.06025
1.06278
1.06532
1.06788
1.07046
1.07306
1.07568
1.07831
1.08097
1.08364
1.08634
1.08905
1.09178
1.09453
1.09731
1.1001
1.10291
1.10574
1.1086
1.11148
1.11438
1.1173
1.12024
1.12321
1.1262
1.12922
1.13226
1.13532
1.13841
1.14152
1.14465
1.14781
1.151
1.15422
1.15746
1.16073
1.16403
1.16735
1.17071
1.17409
1.1775
1.18094
1.1844
1.1879
1.19143
1.19499
1.19857
1.20219
1.20584
1.20952
1.21324
1.21699
1.22077
1.22459
1.22844
1.23232
1.23624
1.24019
1.24418
1.24821
1.25227
1.25637
1.2605
1.26468
1.26889
1.27314
1.27743
1.28176
1.28613
1.29054
1.29499
1.29948
1.30401
1.30858
1.3132
1.31785
1.32256
1.3273
1.33209
1.33693
1.3418
1.34672
1.35169
1.3567
1.36177
1.36687
1.37203
1.37723
1.38248
1.38778
1.39312
1.39851
1.40396
1.40945
1.415
1.42059
1.42624
1.43194
1.43769
1.44349
1.44935
1.45526
1.46121
1.46722
1.47328
1.4794
1.48557
1.49179
1.49806
1.5044
1.51078
1.51723
1.52373
1.53028
1.53689
1.54355
1.55026
1.55704
1.56386
1.57074
1.57768
1.58466
1.5917
1.59879
1.60593
1.61313
1.62038
1.62769
1.63505
1.64246
1.64993
1.65744
1.66501
1.67262
1.68028
1.68798
1.69573
1.70353
1.71138
1.71927
1.7272
1.73517
1.74318
1.75123
1.75931
1.76743
1.77558
1.78377
1.79199
1.80023
1.8085
1.8168
1.82512
1.83346
1.84181
1.85017
1.85855
1.86693
1.87532
1.88371
1.89211
1.9005
1.90889
1.91727
1.92564
1.93399
1.94233
1.95064
1.95893
1.96718
1.97541
1.98359
1.99174
1.99983
2.00787
2.01586
2.02378
2.03163
2.03941
2.0471
2.05471
2.06224
2.06967
2.07699
2.08421
2.09132
2.09831
2.10518
2.11191
2.1185
2.12496
2.13126
2.13741
2.14341
2.14924
2.15491
2.16041
2.16574
2.17089
2.17587
2.18066
2.18527
2.1897
2.19395
2.19801
2.20189
2.20558
2.20909
2.21241
2.21555
2.21851
2.2213
2.22393
2.22638
2.22868
2.23082
2.23281
2.23465
2.23635
2.2379
2.23934
2.24064
2.24184
2.24293
2.24391
2.2448
2.24558
2.24628
2.2469
2.24743
2.2479
2.24829
2.24863
2.24891
2.24914
2.24932
2.24945
2.24955
2.24961
2.24964
2.24964
2.24961
2.24955
2.24947
2.24938
2.24927
2.24915
2.24901
2.24886
2.2487
2.24852
2.24833
2.24814
2.24794
2.24774
2.24753
2.24732
2.2471
2.24688
2.24667
2.24645
2.24623
2.246
2.24578
2.24556
2.24533
2.2451
2.24487
2.24464
2.24442
2.24419
2.24397
2.24375
2.24353
2.24331
2.24308
2.24286
2.24264
2.24241
2.24219
2.24197
2.24175
2.24152
2.2413
2.24108
2.24086
2.24064
2.24042
2.2402
2.23998
2.23975
2.23952
2.2393
2.23907
2.23885
2.23863
2.23842
2.2382
2.23799
2.23778
2.23756
2.23734
2.23712
2.23689
2.23667
2.23645
2.23623
2.23601
2.23579
2.23557
2.23534
2.23512
2.2349
2.23468
2.23446
2.23424
2.23402
2.2338
2.23358
2.23336
2.23314
2.23292
2.2327
2.23248
2.23226
2.23204
2.23183
2.23161
2.23139
2.23118
2.23096
2.23074
2.23052
2.2303
2.23009
2.22987
2.22966
2.22945
2.22923
2.22902
2.22881
2.2286
2.22839
2.22818
2.22797
2.22776
2.22756
2.22735
2.22714
2.22693
2.22672
2.22652
2.22631
2.22611
2.22591
2.22571
2.22551
2.22532
2.22512
2.22492
2.22472
2.22452
2.22432
2.22412
2.22392
2.22372
2.22352
2.22332
2.2231
2.2229
2.22267
2.22245
2.22221
2.22193
2.22171
2.2213
2.2211
2.22055
2.22033
2.21955
2.21931
2.21814
2.21793
2.21605
2.21592
2.21312
2.21277
2.20878
2.2084
2.20297
0.179529
0.260858
0.352981
0.436427
0.498284
0.540416
0.569454
0.590387
0.605718
0.616649
0.624237
0.62936
0.632574
0.634407
0.635411
0.635955
0.636344
0.636681
0.636737
0.636658
0.636353
0.635474
0.63338
0.630813
0.628245
0.625897
0.623898
0.622233
0.620801
0.619492
0.618216
0.61692
0.61557
0.614166
0.612737
0.611329
0.610004
0.608834
0.607879
0.607171
0.6067
0.60646
0.606378
0.606382
0.606472
0.606692
0.606992
0.607395
0.607928
0.60861
0.60945
0.610452
0.611613
0.612923
0.614371
0.615939
0.617605
0.619348
0.621147
0.622987
0.624855
0.626738
0.628627
0.630514
0.632397
0.634274
0.636145
0.638011
0.639873
0.641734
0.643594
0.645454
0.647316
0.64918
0.651046
0.652913
0.654782
0.656653
0.658526
0.6604
0.662277
0.664156
0.666037
0.667919
0.669803
0.671688
0.673575
0.675464
0.677355
0.679248
0.681143
0.68304
0.684938
0.686839
0.68874
0.690643
0.692548
0.694454
0.696363
0.698273
0.700185
0.702098
0.704013
0.705929
0.707847
0.709766
0.711686
0.713609
0.715533
0.717459
0.719387
0.721316
0.723246
0.725177
0.72711
0.729043
0.730978
0.732914
0.734853
0.736792
0.738733
0.740674
0.742617
0.744561
0.746506
0.748452
0.750399
0.752347
0.754296
0.756248
0.758201
0.760155
0.762109
0.764065
0.766021
0.767977
0.769934
0.771892
0.773852
0.775812
0.777775
0.779738
0.781702
0.783667
0.785632
0.787598
0.789564
0.791531
0.793499
0.795468
0.797438
0.799409
0.801381
0.803353
0.805327
0.807301
0.809275
0.811249
0.813224
0.815199
0.817175
0.819152
0.821131
0.82311
0.825089
0.827068
0.829047
0.831026
0.833006
0.834985
0.836966
0.838947
0.840929
0.842911
0.844894
0.846878
0.848861
0.850844
0.852827
0.854809
0.856792
0.858775
0.860758
0.862742
0.864726
0.866711
0.868696
0.87068
0.872664
0.874648
0.876631
0.878615
0.880599
0.882584
0.884568
0.886551
0.888533
0.890515
0.892499
0.894484
0.896469
0.898451
0.900432
0.902411
0.90439
0.90637
0.908351
0.910332
0.912311
0.914289
0.916266
0.918243
0.92022
0.922198
0.924174
0.926148
0.928121
0.930093
0.932063
0.934033
0.936003
0.937975
0.939946
0.941916
0.943883
0.945848
0.947811
0.949772
0.951733
0.953693
0.955652
0.95761
0.959567
0.96152
0.963471
0.965421
0.96737
0.969319
0.971267
0.973213
0.975155
0.977093
0.979029
0.980962
0.982894
0.984824
0.986754
0.988683
0.990612
0.992538
0.994462
0.996382
0.998299
1.00021
1.00213
1.00403
1.00594
1.00784
1.00974
1.01163
1.01353
1.01541
1.0173
1.01919
1.02107
1.02295
1.02482
1.02669
1.02856
1.03042
1.03228
1.03414
1.03599
1.03784
1.03968
1.04152
1.04335
1.04518
1.04701
1.04883
1.05065
1.05247
1.05428
1.05608
1.05788
1.05967
1.06146
1.06324
1.06502
1.0668
1.06856
1.07033
1.07208
1.07383
1.07558
1.07731
1.07904
1.08077
1.08249
1.08421
1.08592
1.08761
1.0893
1.09099
1.09267
1.09434
1.09601
1.09767
1.09932
1.10097
1.10261
1.10424
1.10586
1.10748
1.10909
1.11069
1.11227
1.11385
1.11543
1.11699
1.11854
1.12009
1.12163
1.12316
1.12469
1.1262
1.12771
1.12921
1.13069
1.13217
1.13364
1.13511
1.13656
1.13799
1.13942
1.14084
1.14224
1.14364
1.14502
1.1464
1.14777
1.14913
1.15049
1.15183
1.15316
1.15448
1.15579
1.15708
1.15836
1.15964
1.1609
1.16215
1.16339
1.16462
1.16584
1.16704
1.16824
1.16942
1.17059
1.17176
1.17291
1.17405
1.17518
1.1763
1.1774
1.1785
1.17958
1.18065
1.18171
1.18275
1.18379
1.18481
1.18582
1.18681
1.1878
1.18878
1.18975
1.1907
1.19165
1.19258
1.1935
1.19441
1.19531
1.19619
1.19707
1.19794
1.19879
1.19964
1.20047
1.20129
1.2021
1.2029
1.20369
1.20447
1.20524
1.20601
1.20676
1.20751
1.20825
1.20897
1.20969
1.2104
1.2111
1.21179
1.21246
1.21314
1.2138
1.21446
1.2151
1.21574
1.21637
1.21699
1.21761
1.21822
1.21882
1.21941
1.22
1.22059
1.22117
1.22174
1.2223
1.22285
1.22339
1.22393
1.22446
1.22499
1.22552
1.22604
1.22655
1.22706
1.22756
1.22805
1.22854
1.22902
1.2295
1.22998
1.23046
1.23094
1.23141
1.23187
1.23233
1.23278
1.23323
1.23368
1.23413
1.23457
1.23501
1.23544
1.23588
1.23631
1.23674
1.23716
1.23759
1.23801
1.23843
1.23884
1.23926
1.23968
1.24009
1.24051
1.24092
1.24133
1.24174
1.24214
1.24254
1.24294
1.24333
1.24373
1.24413
1.24452
1.24491
1.24531
1.2457
1.24609
1.24648
1.24687
1.24725
1.24764
1.24802
1.2484
1.24877
1.24915
1.24953
1.24991
1.25029
1.25066
1.25104
1.25141
1.25178
1.25215
1.25252
1.25288
1.25325
1.25361
1.25397
1.25434
1.2547
1.25506
1.25542
1.25577
1.25613
1.25648
1.25683
1.25717
1.25752
1.25787
1.25821
1.25856
1.25891
1.25926
1.25961
1.25995
1.2603
1.26064
1.26097
1.26131
1.26165
1.26198
1.26232
1.26265
1.26298
1.26331
1.26364
1.26397
1.26429
1.26462
1.26495
1.26527
1.2656
1.26593
1.26625
1.26657
1.26689
1.26721
1.26752
1.26784
1.26816
1.26847
1.26879
1.2691
1.26942
1.26973
1.27004
1.27035
1.27066
1.27096
1.27127
1.27158
1.27188
1.27219
1.2725
1.2728
1.2731
1.2734
1.2737
1.27401
1.27431
1.27461
1.27491
1.2752
1.2755
1.27579
1.27609
1.27638
1.27667
1.27697
1.27726
1.27755
1.27785
1.27814
1.27843
1.27872
1.27901
1.2793
1.27958
1.27987
1.28015
1.28044
1.28072
1.281
1.28129
1.28156
1.28187
1.2821
1.28244
1.28264
1.28299
1.2832
1.28349
1.28377
1.28395
1.28428
1.28442
1.28476
1.28481
1.28511
1.28507
1.28528
1.28508
1.28567
0.0268927
0.0322672
0.0423448
0.0572896
0.0726515
0.0856317
0.0966881
0.107202
0.11808
0.129263
0.140173
0.150401
0.159832
0.168501
0.176475
0.183773
0.190441
0.196641
0.20269
0.208956
0.215513
0.222034
0.228081
0.233396
0.237931
0.241854
0.245442
0.248929
0.252432
0.255939
0.259382
0.262704
0.265873
0.26887
0.271655
0.27417
0.276362
0.278233
0.279831
0.281237
0.282551