/*--------------------------------*- C++ -*----------------------------------*\
  =========                 |
  \\      /  F ield         | OpenFOAM: The Open Source CFD Toolbox
   \\    /   O peration     | Website:  https://openfoam.org
    \\  /    A nd           | Version:  7
     \\/     M anipulation  |
\*---------------------------------------------------------------------------*/
FoamFile
{
    version     2.0;
    format      ascii;
    class       volVectorField;
    location    "0.255";
    object      U_0;
}
// * * * * * * * * * * * * * * * * * * * * * * * * * * * * * * * * * * * * * //

dimensions      [0 1 -1 0 0 0 0];

internalField   nonuniform List<vector> 
1600
(
(-6.37879 0.942267 0)
(-7.13988 1.22186 0)
(-8.28882 -3.04903 0)
(-9.80704 -5.19632 0)
(-7.53259 -5.18698 0)
(-1.78715 -3.07258 0)
(-2.14553 -1.72924 0)
(-1.40669 -1.15943 0)
(-1.16001 -1.15671 0)
(-0.95507 -1.27341 0)
(-0.831861 -1.47519 0)
(-0.997502 -1.62585 0)
(-1.52716 -1.74418 0)
(-2.2781 -2.00357 0)
(-2.9247 -2.54907 0)
(-3.16111 -3.46289 0)
(-2.61732 -4.84491 0)
(-1.13898 -6.49601 0)
(0.769826 -8.32501 0)
(2.56048 -9.65521 0)
(4.76394 -9.93104 0)
(0.171031 -5.70821 0)
(4.40408 -8.10886 0)
(-2.34155 -3.87968 0)
(2.28411 -2.14344 0)
(-2.33015 1.74457 0)
(-3.64446 -0.135986 0)
(-3.06444 0.545258 0)
(-9.68821 4.20051 0)
(-14.395 3.57329 0)
(-15.6226 -0.396361 0)
(-8.8901 -2.24968 0)
(-8.76259 3.19903 0)
(-9.00919 0.178949 0)
(-5.55098 -4.53172 0)
(-2.95304 -10.1418 0)
(-2.1195 -11.8991 0)
(1.67478 -10.9062 0)
(5.68741 -6.27729 0)
(4.31183 6.17859 0)
(-2.4015 3.34458 0)
(3.0998 6.07752 0)
(5.72381 5.51741 0)
(7.6409 6.7593 0)
(-4.12015 -0.0189938 0)
(-3.00646 -0.574173 0)
(-8.53577 -0.562864 0)
(-9.977 -0.455624 0)
(-9.82484 -0.412657 0)
(-9.7949 -0.541231 0)
(-9.26153 -0.513638 0)
(-9.06261 -0.185552 0)
(-9.11886 0.0903058 0)
(-9.50562 0.0104395 0)
(-9.76744 -0.592946 0)
(-9.49187 -1.56271 0)
(-8.73703 -2.98984 0)
(-7.34015 -3.7693 0)
(-6.0908 -3.31988 0)
(-6.06426 -2.65556 0)
(-6.30446 1.42583 0)
(-9.13477 6.1323 0)
(-10.4454 3.819 0)
(-14.1919 -2.84972 0)
(-11.3869 3.32196 0)
(-10.887 -0.825564 0)
(-10.745 -5.08988 0)
(-14.9609 0.439344 0)
(-16.8672 4.95682 0)
(-15.9465 3.89488 0)
(-9.86164 -7.89474 0)
(-6.029 -10.396 0)
(-3.53784 -2.01456 0)
(1.82725 -11.8842 0)
(6.37517 -16.0605 0)
(7.67029 -8.12887 0)
(4.69805 -5.4311 0)
(4.04665 -14.1624 0)
(5.57848 -8.64434 0)
(7.00476 -8.97808 0)
(-6.60778 -2.18945 0)
(2.57898 1.18905 0)
(-5.77126 1.10416 0)
(-10.6788 1.55276 0)
(-2.21501 4.84781 0)
(-6.04987 2.90277 0)
(-11.4195 1.42422 0)
(-11.8952 0.576153 0)
(-12.2067 -0.253686 0)
(-11.5778 -0.724417 0)
(-10.8951 -0.770164 0)
(-10.1201 -0.157564 0)
(-9.65979 0.579615 0)
(-9.65177 0.764219 0)
(-9.73002 0.248967 0)
(-9.73644 -0.660765 0)
(-10.4255 -2.12108 0)
(-10.7987 -2.82056 0)
(-10.9878 -2.02624 0)
(-12.2235 -0.796115 0)
(-14.0711 3.73315 0)
(-14.5295 4.08069 0)
(-14.2118 0.952649 0)
(-17.4508 -0.120538 0)
(-17.1717 -0.00365864 0)
(-17.5127 1.04907 0)
(-18.1553 7.94193 0)
(-19.6517 10.1768 0)
(-13.8585 3.45428 0)
(-7.72076 -5.59301 0)
(-0.183521 -16.3946 0)
(-0.85549 -15.8789 0)
(1.76964 -9.97297 0)
(5.30768 -9.42795 0)
(4.19383 -2.78752 0)
(3.46468 8.40317 0)
(5.77389 5.26678 0)
(6.5943 -0.363491 0)
(7.0882 0.867706 0)
(8.17799 -4.73376 0)
(-10.7551 0.530198 0)
(-13.9705 1.10421 0)
(-11.5822 3.91114 0)
(-9.37056 5.30556 0)
(-10.4536 4.19048 0)
(-9.86258 4.7657 0)
(-12.9222 2.61701 0)
(-12.6257 0.903319 0)
(-12.9073 -0.461695 0)
(-12.2482 -1.29628 0)
(-11.4703 -1.46642 0)
(-10.3948 -0.784671 0)
(-9.54862 0.43411 0)
(-9.36267 1.08357 0)
(-9.84062 0.788784 0)
(-10.4491 0.244891 0)
(-11.9058 -0.643521 0)
(-13.516 -1.17562 0)
(-14.7824 -0.940809 0)
(-16.0832 0.193832 0)
(-16.7697 3.0332 0)
(-16.6222 3.96344 0)
(-15.3799 1.98059 0)
(-14.7225 1.99488 0)
(-13.5438 2.51107 0)
(-10.3739 -0.9541 0)
(-6.12942 -4.85419 0)
(-7.34725 -2.2104 0)
(5.23127 -10.308 0)
(7.82004 -2.0284 0)
(8.21545 -11.0553 0)
(6.67037 -11.58 0)
(5.32659 -1.21537 0)
(5.57597 -4.71585 0)
(3.14503 -3.42662 0)
(3.80441 -2.43393 0)
(7.21774 -4.09055 0)
(8.90497 -5.42601 0)
(10.5332 -3.05181 0)
(10.8431 -4.98553 0)
(-6.59522 6.81933 0)
(-9.11205 6.91646 0)
(-2.66345 8.34464 0)
(-5.97126 7.22649 0)
(-9.93694 6.46391 0)
(-11.1772 5.93923 0)
(-13.0056 3.54813 0)
(-13.3144 1.22682 0)
(-13.6299 -0.518011 0)
(-13.2051 -1.85637 0)
(-12.3262 -2.44852 0)
(-11.1284 -1.83272 0)
(-9.96974 -0.203607 0)
(-9.45355 1.24892 0)
(-10.3006 1.51216 0)
(-11.2004 1.27384 0)
(-12.4041 0.929649 0)
(-13.7531 0.803156 0)
(-15.0235 1.16715 0)
(-16.0452 2.08499 0)
(-15.9744 3.20001 0)
(-14.6089 2.83386 0)
(-11.6876 0.0242742 0)
(-7.37484 -2.38035 0)
(-3.22288 -3.93571 0)
(1.72918 -3.16568 0)
(5.86501 -1.5447 0)
(2.87623 -1.81236 0)
(8.04311 -7.22632 0)
(8.14318 -7.75522 0)
(6.53022 -7.26094 0)
(3.40801 -2.4044 0)
(2.64278 -1.74994 0)
(3.62866 -3.83792 0)
(3.6537 -3.89199 0)
(5.45247 -5.37359 0)
(8.03959 -7.18513 0)
(9.00967 -7.68489 0)
(11.068 -7.18829 0)
(9.89447 -4.62953 0)
(-4.14053 8.65998 0)
(-5.54919 8.87949 0)
(-3.69852 8.24079 0)
(-5.4116 9.56858 0)
(-9.1449 8.83828 0)
(-11.0087 7.3204 0)
(-12.6341 4.51102 0)
(-13.739 1.85182 0)
(-14.295 -0.4735 0)
(-13.9746 -2.4606 0)
(-13.006 -3.5293 0)
(-11.7747 -2.99008 0)
(-10.3789 -0.916493 0)
(-9.42376 1.35591 0)
(-10.3239 2.19121 0)
(-11.2787 1.91196 0)
(-11.7186 1.57107 0)
(-12.2665 1.45405 0)
(-12.6883 1.76885 0)
(-12.6207 2.34547 0)
(-11.5973 2.59869 0)
(-9.18245 0.888577 0)
(-5.89527 -2.61356 0)
(-2.8233 -4.636 0)
(-1.72435 -3.99425 0)
(-0.260555 -3.33246 0)
(2.09884 -1.56369 0)
(4.70885 -3.6635 0)
(5.22365 -5.91257 0)
(5.06516 -6.06756 0)
(5.10057 -7.20628 0)
(4.28855 -6.43214 0)
(4.07496 -5.33093 0)
(4.80154 -5.42843 0)
(5.16623 -5.28592 0)
(6.04823 -6.33751 0)
(6.09241 -6.74904 0)
(5.96659 -6.38977 0)
(5.51233 -5.19052 0)
(6.15253 1.917 0)
(-3.29381 8.94672 0)
(-4.08586 10.8675 0)
(-5.10664 10.0139 0)
(-5.44125 12.1899 0)
(-8.52341 11.2327 0)
(-10.2417 9.05364 0)
(-12.1183 5.89656 0)
(-13.8209 2.83836 0)
(-14.7203 -0.325545 0)
(-14.3192 -3.13346 0)
(-13.2695 -4.74111 0)
(-11.9428 -4.41673 0)
(-10.4084 -1.98211 0)
(-8.82515 1.35144 0)
(-9.42202 2.93083 0)
(-10.5443 2.60742 0)
(-10.5086 2.04709 0)
(-10.5949 1.75531 0)
(-10.3236 1.44902 0)
(-9.24924 1.13607 0)
(-7.50616 0.339957 0)
(-5.23003 -2.12247 0)
(-3.20182 -5.19406 0)
(-2.42253 -6.34736 0)
(-1.81577 -6.69345 0)
(-0.254128 -7.17824 0)
(1.36847 -6.15911 0)
(2.82295 -6.97819 0)
(4.03798 -7.8812 0)
(4.82327 -7.97143 0)
(5.36016 -7.62794 0)
(5.58329 -6.65696 0)
(6.23183 -6.0112 0)
(7.18752 -6.03101 0)
(7.32606 -5.71106 0)
(7.82257 -6.20237 0)
(8.3744 -6.93422 0)
(8.36711 -7.22707 0)
(8.92692 -5.97544 0)
(9.75568 -2.11465 0)
(-2.59346 9.50624 0)
(-2.82368 13.5094 0)
(-4.86588 12.4813 0)
(-4.6058 14.2951 0)
(-7.41646 13.3547 0)
(-9.03308 10.972 0)
(-11.242 7.7836 0)
(-13.3874 4.28891 0)
(-14.5779 0.058595 0)
(-14.0257 -3.8816 0)
(-13.0688 -5.96887 0)
(-11.9073 -6.02693 0)
(-10.3276 -3.55968 0)
(-8.08374 0.929629 0)
(-8.26698 3.46478 0)
(-9.82633 2.93184 0)
(-9.60904 1.92393 0)
(-9.60828 1.3617 0)
(-9.20628 0.37479 0)
(-7.90461 -0.844499 0)
(-6.14672 -2.37742 0)
(-4.23628 -4.55458 0)
(-3.14586 -6.34005 0)
(-2.4593 -7.13611 0)
(-1.25095 -7.8689 0)
(0.184084 -7.93098 0)
(1.36288 -7.84441 0)
(2.97783 -8.62212 0)
(3.81704 -8.46036 0)
(4.56511 -8.36295 0)
(5.21281 -7.99525 0)
(5.9461 -7.38933 0)
(7.37133 -7.39482 0)
(8.62035 -7.3924 0)
(9.29165 -7.31615 0)
(9.8256 -7.61635 0)
(9.60554 -7.43187 0)
(9.29548 -7.12248 0)
(10.5135 -8.21512 0)
(12.0417 -3.8881 0)
(-1.95153 10.0468 0)
(-1.57898 15.6915 0)
(-3.6954 14.4297 0)
(-3.39803 15.7625 0)
(-5.69442 15.2293 0)
(-7.24937 13.0045 0)
(-9.54224 9.97371 0)
(-11.8613 5.94035 0)
(-13.2186 0.389891 0)
(-12.5453 -4.59695 0)
(-11.8747 -6.86242 0)
(-11.2743 -7.55175 0)
(-9.94734 -5.66747 0)
(-7.02055 0.126298 0)
(-6.61932 4.56046 0)
(-8.85948 3.44596 0)
(-8.64719 1.96913 0)
(-8.7836 1.24286 0)
(-8.58396 -0.437777 0)
(-7.449 -2.45345 0)
(-5.83903 -3.95207 0)
(-4.48545 -5.689 0)
(-3.25616 -7.24216 0)
(-1.89111 -8.44804 0)
(-0.413544 -9.20542 0)
(0.637642 -9.1379 0)
(1.95657 -9.35007 0)
(3.05179 -9.40562 0)
(3.87169 -9.28733 0)
(4.61689 -9.08864 0)
(5.17995 -8.71607 0)
(5.96459 -8.54477 0)
(6.70489 -8.30276 0)
(6.59588 -7.6601 0)
(7.10001 -7.7942 0)
(8.1215 -7.12608 0)
(8.91619 -6.23215 0)
(10.1597 -6.82575 0)
(11.3747 -7.36272 0)
(10.4728 -4.499 0)
(-1.40421 10.1162 0)
(-0.547492 17.1017 0)
(-2.20741 15.9116 0)
(-1.91563 16.8794 0)
(-3.56651 16.7517 0)
(-4.82698 14.9079 0)
(-6.82802 12.2182 0)
(-9.06203 8.0264 0)
(-10.8072 1.44767 0)
(-10.4815 -4.72096 0)
(-10.0187 -6.94501 0)
(-9.98379 -8.74131 0)
(-9.44669 -8.46128 0)
(-6.54366 -2.65787 0)
(-4.34551 6.30396 0)
(-7.0473 4.00585 0)
(-6.58954 2.12652 0)
(-7.38427 1.27627 0)
(-7.39031 -0.766099 0)
(-6.65254 -3.5089 0)
(-5.55065 -5.12442 0)
(-4.33664 -7.11147 0)
(-2.82181 -8.70918 0)
(-1.31742 -9.89591 0)
(-0.0183627 -10.3909 0)
(1.20569 -10.5396 0)
(2.40317 -10.5299 0)
(3.43612 -10.3388 0)
(4.23002 -10.0312 0)
(4.94917 -9.7122 0)
(5.47966 -9.30576 0)
(5.993 -8.88393 0)
(6.30346 -8.0866 0)
(6.2697 -7.79166 0)
(5.76418 -7.80115 0)
(5.79768 -6.687 0)
(7.1979 -6.65078 0)
(8.56696 -7.68185 0)
(7.99688 -8.15743 0)
(4.57635 -14.2387 0)
(-0.884567 9.71485 0)
(0.355583 17.8207 0)
(-0.69427 16.9474 0)
(-0.217118 17.5763 0)
(-1.11471 17.8075 0)
(-1.77984 16.4525 0)
(-3.19325 14.1533 0)
(-5.35513 9.65974 0)
(-8.82133 0.439658 0)
(-10.7904 -8.45528 0)
(-9.61082 -7.10539 0)
(-8.46096 -9.30696 0)
(-9.05875 -10.3156 0)
(-8.41657 -7.84781 0)
(-1.85889 8.36151 0)
(-4.11936 5.21808 0)
(-2.91767 2.94579 0)
(-3.81526 3.05162 0)
(-4.69456 -0.301895 0)
(-4.87623 -4.53036 0)
(-4.12074 -6.24363 0)
(-3.36924 -8.6082 0)
(-1.98564 -10.2565 0)
(-0.640729 -11.3472 0)
(0.576374 -11.6544 0)
(1.81541 -11.6986 0)
(2.96302 -11.5525 0)
(3.96244 -11.1835 0)
(4.74799 -10.7344 0)
(5.38577 -10.2672 0)
(5.83878 -9.7144 0)
(5.99948 -9.10869 0)
(5.98976 -8.09338 0)
(5.62694 -7.67001 0)
(4.88948 -7.80327 0)
(5.08146 -7.59079 0)
(6.5957 -7.18715 0)
(5.98283 -7.99535 0)
(3.13374 -10.2744 0)
(2.11566 -11.6759 0)
(-0.466258 8.77582 0)
(1.18054 17.883 0)
(0.773838 17.4963 0)
(1.38955 17.6818 0)
(1.3456 18.1081 0)
(1.57166 17.1994 0)
(1.46527 15.5157 0)
(0.912533 12.1159 0)
(-2.21006 4.03122 0)
(-4.49552 -4.22551 0)
(-7.28804 -8.51387 0)
(-6.01764 -9.24161 0)
(-6.97468 -8.82324 0)
(-8.96386 -9.45441 0)
(-6.57815 -2.62898 0)
(-1.73046 4.63436 0)
(1.35945 2.03749 0)
(-0.588537 1.25573 0)
(-1.29665 1.26069 0)
(-1.65222 -6.25027 0)
(-2.10317 -7.1019 0)
(-1.87587 -9.80358 0)
(-0.922431 -11.6089 0)
(0.111247 -12.4615 0)
(1.28929 -12.8756 0)
(2.5592 -12.9197 0)
(3.67698 -12.6116 0)
(4.69688 -12.0982 0)
(5.45645 -11.4702 0)
(6.03634 -10.8186 0)
(6.45045 -10.0199 0)
(6.30796 -9.03081 0)
(6.31806 -8.11755 0)
(5.70473 -7.84838 0)
(4.7383 -7.7909 0)
(6.38833 -6.13739 0)
(7.10137 -4.56988 0)
(3.87936 -6.1433 0)
(-0.881942 -11.0721 0)
(0.232405 -6.66703 0)
(-0.168891 7.40533 0)
(1.89287 17.3731 0)
(2.11509 17.6213 0)
(2.83414 17.3205 0)
(3.44014 17.5811 0)
(4.40927 16.7806 0)
(5.3106 15.1212 0)
(6.06093 12.1326 0)
(4.94752 6.48476 0)
(4.85111 2.49235 0)
(1.4932 -5.07299 0)
(-1.38785 -8.81001 0)
(-2.16675 -6.99408 0)
(-4.37733 -6.7838 0)
(-4.32523 -4.25412 0)
(-2.89572 -4.61226 0)
(6.02559 1.3711 0)
(3.70355 2.83358 0)
(-0.162164 -1.04614 0)
(3.58001 -3.10002 0)
(0.512379 -6.94125 0)
(0.18904 -9.96917 0)
(0.333808 -12.1921 0)
(1.1262 -13.5215 0)
(2.27249 -14.0949 0)
(3.4913 -14.0977 0)
(4.5382 -13.6356 0)
(5.56755 -12.9806 0)
(6.26577 -12.1577 0)
(6.83119 -11.2774 0)
(7.20644 -10.1504 0)
(6.82973 -8.77832 0)
(6.55214 -7.59622 0)
(5.11613 -7.01895 0)
(3.84832 -6.74467 0)
(6.01373 -3.56249 0)
(4.5307 -1.48082 0)
(-3.84323 -6.28631 0)
(-6.44129 -11.9254 0)
(-3.40621 -5.59456 0)
(-0.0525216 5.84358 0)
(2.45323 16.3802 0)
(3.22805 17.365 0)
(4.01513 16.6717 0)
(4.97008 16.5573 0)
(6.34496 15.7273 0)
(7.69412 14.0555 0)
(8.86935 11.2589 0)
(9.11894 7.18727 0)
(8.40792 2.01673 0)
(7.62325 -1.06217 0)
(4.54287 -4.56333 0)
(2.89309 -5.84466 0)
(2.22084 -4.98956 0)
(2.90644 -3.38572 0)
(3.78201 -2.6055 0)
(6.50708 -4.92583 0)
(8.04972 8.73217 0)
(5.51739 5.75166 0)
(4.72795 2.46754 0)
(2.76966 -5.62175 0)
(2.15869 -9.34193 0)
(1.87986 -12.5628 0)
(2.52518 -14.4628 0)
(3.4553 -15.1691 0)
(4.55124 -15.1558 0)
(5.49472 -14.6137 0)
(6.52305 -13.8544 0)
(7.14519 -12.8948 0)
(7.80873 -11.8313 0)
(8.18348 -10.2956 0)
(7.52352 -8.44168 0)
(7.13633 -7.17946 0)
(5.33227 -5.8622 0)
(6.52422 -2.95529 0)
(3.28035 1.00616 0)
(-3.47256 0.373639 0)
(-12.0434 -8.58137 0)
(-7.86832 -12.618 0)
(-4.47142 -5.69359 0)
(-0.307837 3.95388 0)
(2.78148 14.8821 0)
(4.06744 16.7642 0)
(4.89071 15.8656 0)
(5.94504 15.2666 0)
(7.45001 14.3025 0)
(8.94873 12.6501 0)
(10.226 10.1083 0)
(10.9167 6.94525 0)
(10.6626 3.18565 0)
(9.99932 0.338063 0)
(7.94416 -2.83081 0)
(6.35033 -4.77734 0)
(5.72041 -5.24679 0)
(5.34889 -5.91339 0)
(6.49338 -5.48374 0)
(5.95599 -6.43308 0)
(7.42386 5.32042 0)
(9.79587 6.49485 0)
(8.77953 1.72144 0)
(6.06794 -2.65978 0)
(4.41412 -8.41434 0)
(3.83791 -12.7004 0)
(4.08043 -15.0877 0)
(4.76246 -16.0436 0)
(5.70952 -16.0986 0)
(6.48623 -15.5088 0)
(7.4772 -14.6758 0)
(7.98497 -13.7066 0)
(8.89192 -12.5718 0)
(9.2169 -10.7238 0)
(8.49155 -8.84275 0)
(8.4722 -7.81901 0)
(9.56888 -3.75221 0)
(12.1758 5.27367 0)
(-6.62934 4.42162 0)
(-23.2338 -9.49409 0)
(-12.5407 -9.48674 0)
(-6.71111 -10.7417 0)
(-5.2393 -6.03503 0)
(-0.731834 1.69217 0)
(2.80013 12.7704 0)
(4.53126 15.803 0)
(5.49047 15.0121 0)
(6.57475 13.9943 0)
(8.03542 12.8107 0)
(9.59012 11.2168 0)
(10.8356 8.98768 0)
(11.573 6.45955 0)
(11.5755 3.60389 0)
(11.2161 1.11629 0)
(9.92439 -1.55151 0)
(8.78685 -3.91046 0)
(7.97212 -4.61317 0)
(7.8076 -4.74676 0)
(8.1822 -4.81576 0)
(4.71638 -7.07457 0)
(6.14564 0.405311 0)
(9.98759 6.52128 0)
(9.89184 3.15361 0)
(7.96881 -1.13382 0)
(6.23508 -7.20336 0)
(5.54993 -12.3899 0)
(5.60661 -15.4485 0)
(6.10322 -16.7326 0)
(6.88844 -16.8695 0)
(7.42199 -16.2304 0)
(8.27772 -15.3287 0)
(8.5466 -14.5001 0)
(9.69575 -13.3937 0)
(9.64512 -11.2566 0)
(9.47375 -9.04365 0)
(9.54524 -8.22062 0)
(16.2207 0.798139 0)
(12.857 15.9093 0)
(12.5251 20.7239 0)
(-5.11884 -0.0345888 0)
(-4.80307 -11.0819 0)
(-6.9754 -16.6634 0)
(-4.96637 -5.36765 0)
(-1.02521 -0.332564 0)
(2.59652 10.3592 0)
(4.59908 14.3469 0)
(5.80868 13.9509 0)
(6.98613 12.7286 0)
(8.3955 11.3176 0)
(9.88134 9.7283 0)
(11.15 7.91673 0)
(11.9811 5.92415 0)
(12.2739 3.74216 0)
(12.2541 1.65151 0)
(11.4243 -0.781549 0)
(10.7496 -3.0615 0)
(9.80584 -4.11706 0)
(9.48906 -4.48876 0)
(9.56433 -3.84032 0)
(8.83655 -6.10973 0)
(7.20013 -1.10134 0)
(9.23647 4.93463 0)
(9.99083 3.85639 0)
(9.08397 0.293422 0)
(7.46283 -5.90651 0)
(7.03668 -12.0015 0)
(7.07856 -15.6938 0)
(7.44365 -17.2721 0)
(8.04847 -17.4564 0)
(8.25631 -16.7162 0)
(8.81491 -15.6513 0)
(8.58492 -15.033 0)
(9.67559 -14.0419 0)
(8.56686 -11.1699 0)
(11.4675 -5.84385 0)
(3.72633 -12.0151 0)
(9.05706 -0.780816 0)
(-0.169767 8.91436 0)
(31.2356 26.969 0)
(7.70208 8.92353 0)
(-1.95253 -7.10748 0)
(-5.38315 -14.3691 0)
(-4.92151 -4.55524 0)
(-0.801458 -1.02829 0)
(2.32181 8.23555 0)
(4.30608 12.7314 0)
(5.81222 12.6846 0)
(7.22884 11.5035 0)
(8.72167 9.97907 0)
(10.1833 8.39331 0)
(11.428 6.82434 0)
(12.3982 5.28403 0)
(12.9881 3.77888 0)
(13.2263 2.05608 0)
(12.8933 0.0220605 0)
(12.3759 -2.1122 0)
(11.2517 -3.39928 0)
(10.4936 -3.9965 0)
(10.0426 -3.54122 0)
(10.6827 -5.06588 0)
(8.17622 -0.736007 0)
(8.62418 4.27626 0)
(9.67155 4.31974 0)
(9.74255 0.929501 0)
(8.513 -5.13752 0)
(8.39855 -11.7407 0)
(8.47702 -15.8769 0)
(8.73864 -17.6638 0)
(9.1323 -17.8433 0)
(8.97661 -16.9253 0)
(9.05574 -15.5107 0)
(8.12693 -15.1521 0)
(8.54953 -14.7025 0)
(5.5532 -12.5516 0)
(16.1277 -0.107732 0)
(8.97402 3.59106 0)
(-6.49209 2.78241 0)
(-4.39939 7.51818 0)
(8.80455 16.0879 0)
(0.62216 9.67923 0)
(-2.88782 -3.49288 0)
(-4.4676 -10.2257 0)
(-4.47218 -4.52404 0)
(-0.795078 -1.40118 0)
(1.12624 6.41151 0)
(4.07863 11.0208 0)
(5.49402 11.1669 0)
(7.20676 9.93011 0)
(8.84473 8.33757 0)
(10.4793 6.97727 0)
(11.7761 5.63871 0)
(12.8188 4.46325 0)
(13.6861 3.45497 0)
(14.0673 2.13652 0)
(13.8852 0.2759 0)
(13.452 -1.4763 0)
(12.5111 -2.44232 0)
(11.6277 -3.1223 0)
(10.8417 -3.11391 0)
(11.1015 -4.13803 0)
(8.8449 -0.548115 0)
(8.74897 3.75522 0)
(9.70816 4.05748 0)
(10.3967 0.933118 0)
(9.50032 -4.82264 0)
(9.57875 -11.5955 0)
(9.70262 -15.9974 0)
(9.87204 -17.8759 0)
(9.9867 -18.0071 0)
(9.52062 -16.8281 0)
(8.94989 -14.8512 0)
(7.56357 -14.6014 0)
(7.08433 -13.8797 0)
(-1.55875 -16.6609 0)
(3.24663 -6.19891 0)
(1.38353 -1.00693 0)
(4.79754 8.89095 0)
(-4.87028 6.84058 0)
(-6.33472 7.27253 0)
(-0.0406159 8.96022 0)
(1.34434 2.6045 0)
(-3.12244 -6.66635 0)
(-3.76787 -4.58143 0)
(-0.870705 -1.91157 0)
(-0.433901 4.13074 0)
(3.33346 8.39602 0)
(5.00105 9.31 0)
(6.84094 8.37652 0)
(8.75922 6.93541 0)
(10.9439 5.94821 0)
(12.4822 5.02389 0)
(13.3298 3.95976 0)
(14.1356 3.19517 0)
(14.614 2.25931 0)
(14.568 0.769818 0)
(14.0729 -0.704033 0)
(13.1597 -1.55316 0)
(12.2381 -2.26784 0)
(11.266 -2.39366 0)
(10.9803 -3.02318 0)
(9.32561 -0.145172 0)
(9.21499 3.34237 0)
(9.96127 3.64763 0)
(10.8877 0.737801 0)
(10.2497 -4.85389 0)
(10.5089 -11.5928 0)
(10.6342 -16.0185 0)
(10.6537 -17.7907 0)
(10.3167 -17.8428 0)
(9.65223 -16.2599 0)
(8.27459 -13.6095 0)
(7.72507 -12.9939 0)
(6.23745 -11.279 0)
(1.95763 -11.9894 0)
(1.46594 -6.37706 0)
(5.26886 1.66065 0)
(14.308 10.4482 0)
(14.434 11.2362 0)
(12.5327 9.8507 0)
(1.99029 7.62071 0)
(0.960966 4.28126 0)
(-1.91014 -1.83907 0)
(-3.36997 -4.0024 0)
(-1.09557 -1.33765 0)
(-1.34616 3.86278 0)
(1.90659 5.68093 0)
(5.01662 7.78629 0)
(6.46747 6.72058 0)
(8.09535 5.59428 0)
(10.2784 4.95265 0)
(12.1947 4.16263 0)
(13.028 2.83433 0)
(13.8247 2.01558 0)
(14.536 1.50213 0)
(14.768 0.582126 0)
(14.3896 -0.402946 0)
(13.6799 -0.876355 0)
(12.5399 -1.53615 0)
(11.5832 -1.5248 0)
(10.8091 -1.96483 0)
(9.44504 0.259118 0)
(9.3571 2.9711 0)
(10.0708 3.10497 0)
(11.095 0.296167 0)
(10.7226 -5.18316 0)
(11.1441 -11.6792 0)
(11.1276 -15.7916 0)
(10.8449 -17.1823 0)
(9.7537 -17.1942 0)
(8.92563 -15.0004 0)
(6.87096 -11.6 0)
(7.23313 -9.98806 0)
(2.87953 -8.47026 0)
(0.0609803 -9.24476 0)
(-2.12716 -8.08299 0)
(-10.7777 -7.65633 0)
(7.69927 7.02689 0)
(7.19178 8.59877 0)
(6.13205 12.4945 0)
(-0.639709 11.0661 0)
(0.0296567 5.78804 0)
(-1.85338 1.20603 0)
(-3.06551 -3.21043 0)
(-2.37538 0.644796 0)
(-3.24748 3.34566 0)
(-0.505613 3.19815 0)
(3.209 6.64593 0)
(5.01181 6.42174 0)
(5.74496 2.37813 0)
(6.7195 0.703856 0)
(9.55292 0.762154 0)
(11.8244 0.749448 0)
(13.4453 0.613454 0)
(14.5533 0.598942 0)
(15.0813 0.310683 0)
(14.8573 -0.161729 0)
(14.2686 -0.284198 0)
(13.3872 -0.35877 0)
(12.3664 -0.398865 0)
(11.1422 -0.647056 0)
(9.82043 0.820317 0)
(9.6185 2.53755 0)
(10.2661 2.37203 0)
(11.1143 -0.34343 0)
(10.8536 -5.7053 0)
(11.3819 -11.6993 0)
(11.0044 -14.994 0)
(10.2258 -15.7097 0)
(8.02618 -15.999 0)
(7.21044 -13.5757 0)
(5.66719 -10.1345 0)
(6.76091 -6.88514 0)
(-0.851028 -6.89992 0)
(-3.05878 -10.7281 0)
(11.5366 4.13833 0)
(-5.42861 -2.81959 0)
(3.20388 6.28255 0)
(-2.33117 10.5264 0)
(-3.31595 13.5861 0)
(-4.10932 10.5584 0)
(-2.10558 5.93838 0)
(-2.3882 2.62178 0)
(-2.858 -2.54251 0)
(-1.47835 2.48404 0)
(-3.44152 4.31944 0)
(-3.15219 1.97565 0)
(-3.75874 -1.6001 0)
(0.320101 1.39054 0)
(4.77198 1.06887 0)
(6.59001 -2.02934 0)
(9.12322 -2.85327 0)
(11.5867 -2.24351 0)
(13.552 -1.32269 0)
(14.8785 -0.459106 0)
(15.5829 0.106609 0)
(15.5023 0.26053 0)
(14.8364 0.435373 0)
(13.8893 0.666369 0)
(12.7764 0.772137 0)
(11.4377 0.789572 0)
(10.1844 1.58674 0)
(9.80895 2.34433 0)
(10.2005 1.83722 0)
(10.5467 -0.877272 0)
(10.4382 -6.26022 0)
(11.0021 -11.2469 0)
(10.0472 -13.0497 0)
(8.52931 -12.969 0)
(4.59896 -14.7022 0)
(4.19973 -13.7948 0)
(5.06416 -10.6074 0)
(7.12298 -4.4404 0)
(4.36121 -0.950158 0)
(0.795077 -11.2068 0)
(1.40931 -5.54237 0)
(-8.53661 -3.53898 0)
(-5.42209 6.63836 0)
(-8.41122 10.6986 0)
(-8.16061 11.1921 0)
(-6.34604 8.9893 0)
(-4.18914 5.36205 0)
(-2.99117 2.34798 0)
(-2.67735 -2.35316 0)
(0.229046 0.560497 0)
(1.48762 5.45021 0)
(0.840741 2.73783 0)
(0.832323 -1.78866 0)
(1.53303 -2.90801 0)
(6.17692 -3.25045 0)
(10.0084 -3.94416 0)
(12.4149 -3.52558 0)
(13.8764 -2.82978 0)
(14.9887 -1.93714 0)
(15.7454 -0.818121 0)
(16.1291 0.186497 0)
(15.9133 0.885446 0)
(15.0824 1.44517 0)
(14.0063 1.89471 0)
(12.8282 2.12441 0)
(11.5422 2.19336 0)
(10.3655 2.51333 0)
(9.78023 2.56458 0)
(9.66171 1.76663 0)
(9.26063 -1.18041 0)
(9.48927 -6.56856 0)
(9.45707 -9.91818 0)
(7.92394 -10.1289 0)
(4.94226 -10.0516 0)
(-1.22063 -14.978 0)
(-0.604457 -16.117 0)
(1.91817 -12.9338 0)
(3.70399 -4.58619 0)
(6.43947 3.37069 0)
(-0.591007 0.752105 0)
(0.179249 5.4969 0)
(-4.4298 7.19129 0)
(-12.1533 6.62809 0)
(-9.50484 10.0995 0)
(-9.55805 9.14692 0)
(-7.91073 7.53365 0)
(-5.57811 3.9027 0)
(-3.44688 1.06556 0)
(-2.54016 -2.64965 0)
(1.09682 0.541863 0)
(5.60897 5.57845 0)
(4.1388 0.609666 0)
(5.82273 -2.60901 0)
(7.06349 -4.80416 0)
(9.68141 -5.88897 0)
(12.2327 -5.67858 0)
(13.7613 -4.7539 0)
(14.7917 -3.52287 0)
(15.4627 -2.17688 0)
(15.8245 -0.770882 0)
(15.8947 0.570288 0)
(15.5286 1.69201 0)
(14.6823 2.55549 0)
(13.6477 3.13741 0)
(12.5556 3.40447 0)
(11.4466 3.44221 0)
(10.387 3.49116 0)
(9.64773 3.20431 0)
(8.81278 2.35987 0)
(7.657 -1.03099 0)
(7.87702 -6.25522 0)
(4.8795 -9.16111 0)
(5.35008 -7.41444 0)
(2.45744 -6.02437 0)
(-4.27757 -13.3196 0)
(-4.07144 -15.7865 0)
(-4.7105 -15.3117 0)
(-3.94513 -9.44405 0)
(0.286945 -1.32979 0)
(-9.84299 -6.26025 0)
(-9.27742 1.72846 0)
(-8.19096 7.96156 0)
(-11.8652 8.17222 0)
(-9.62526 8.48461 0)
(-9.85315 8.28581 0)
(-9.56793 5.4424 0)
(-6.30935 1.76551 0)
(-3.75002 -0.892483 0)
(-2.5731 -3.20798 0)
(-3.54533 -6.2846 0)
(3.97265 1.42561 0)
(2.30566 -2.33686 0)
(6.86197 -3.65667 0)
(10.1668 -5.26482 0)
(12.0227 -6.24966 0)
(13.3241 -6.35781 0)
(14.2125 -5.44851 0)
(14.8094 -4.08946 0)
(15.1792 -2.48442 0)
(15.315 -0.771739 0)
(15.1704 0.95153 0)
(14.6586 2.47426 0)
(13.8518 3.56756 0)
(12.9399 4.2191 0)
(12.0475 4.46114 0)
(11.1838 4.43986 0)
(10.3296 4.35756 0)
(9.58131 4.18981 0)
(7.7576 3.66501 0)
(6.38042 -0.0984974 0)
(5.68707 -5.01933 0)
(2.04352 -6.53484 0)
(1.93175 -5.47779 0)
(2.04278 0.999257 0)
(-6.32002 -10.2888 0)
(-6.32006 -14.9886 0)
(-4.84365 -12.6014 0)
(-2.13903 -3.56737 0)
(-0.237569 5.06987 0)
(-14.0621 -4.34677 0)
(-8.73152 4.81463 0)
(-9.61049 8.57586 0)
(-10.0235 8.5986 0)
(-8.84841 8.01292 0)
(-8.9046 9.02536 0)
(-10.4997 2.46537 0)
(-6.34427 -0.505587 0)
(-3.8915 -3.02828 0)
(-2.72383 -3.84316 0)
(-3.74788 -6.82005 0)
(7.83927 6.94295 0)
(6.43096 -0.284584 0)
(8.90627 -4.80955 0)
(10.3842 -7.39597 0)
(11.4192 -8.2305 0)
(12.4893 -7.88917 0)
(13.2717 -6.47788 0)
(13.68 -4.75221 0)
(13.904 -2.84439 0)
(14.0057 -0.802815 0)
(13.8716 1.33483 0)
(13.3145 3.21176 0)
(12.6037 4.40293 0)
(11.8592 5.0279 0)
(11.2378 5.23518 0)
(10.7046 5.17812 0)
(10.2434 5.00162 0)
(9.72888 5.48317 0)
(7.01813 4.81874 0)
(4.97478 0.765669 0)
(0.802618 -5.76869 0)
(0.357139 -4.1965 0)
(-4.06083 -8.60107 0)
(-7.90191 2.28941 0)
(-11.2961 -9.24667 0)
(-9.01704 -14.5182 0)
(-7.24634 -13.9311 0)
(-5.9911 -7.39741 0)
(-3.82949 4.60788 0)
(-9.73188 2.58757 0)
(-10.2347 6.0826 0)
(-9.69403 8.22832 0)
(-7.88709 7.83679 0)
(-3.93659 7.82184 0)
(-3.69341 11.327 0)
(-9.74487 0.355666 0)
(-5.68052 -2.55969 0)
(-3.76663 -4.85943 0)
(-2.85543 -4.45521 0)
(-6.51626 -14.6306 0)
(2.92894 -1.41607 0)
(5.88845 -3.6935 0)
(7.36035 -6.76549 0)
(8.15755 -8.46178 0)
(8.90864 -8.99044 0)
(9.99884 -8.65818 0)
(10.7712 -6.92907 0)
(11.1319 -4.97763 0)
(11.3721 -3.00633 0)
(11.563 -0.822172 0)
(11.5897 1.71768 0)
(11.1574 3.95378 0)
(10.7485 5.15337 0)
(10.3649 5.572 0)
(10.115 5.50485 0)
(9.96526 5.15639 0)
(10.2883 4.95319 0)
(9.21174 4.92164 0)
(10.1655 4.84695 0)
(14.7514 6.13264 0)
(9.65747 0.114637 0)
(0.931783 3.07105 0)
(-2.4224 11.2655 0)
(-22.4743 -2.55905 0)
(-12.853 -13.0317 0)
(-10.0113 -16.8151 0)
(-8.39858 -14.4814 0)
(-5.53236 -7.94246 0)
(-9.31715 1.25446 0)
(-9.16391 5.47496 0)
(-10.0135 7.07632 0)
(-8.02517 6.70626 0)
(-4.14753 4.99404 0)
(2.68189 6.12878 0)
(4.51475 15.8856 0)
(-6.95408 1.09739 0)
(-4.48323 -3.83789 0)
(-3.40809 -5.95443 0)
(-2.91567 -5.00989 0)
(-5.54984 -7.74735 0)
(0.00468354 -1.95759 0)
(2.19976 -6.07332 0)
(3.70748 -8.0617 0)
(4.88079 -9.61998 0)
(6.0845 -10.33 0)
(7.58236 -9.89233 0)
(8.27052 -7.56786 0)
(8.61171 -5.35545 0)
(8.7418 -3.3145 0)
(8.52865 -0.901213 0)
(8.51535 1.74557 0)
(8.23743 4.11699 0)
(8.19964 5.33615 0)
(8.184 5.79977 0)
(8.39691 6.0113 0)
(9.12981 5.62826 0)
(9.83058 4.97902 0)
(6.13624 0.809996 0)
(15.4662 7.88071 0)
(24.6527 15.0625 0)
(0.326473 -0.62026 0)
(0.228589 10.9483 0)
(-3.30189 14.0893 0)
(-15.6924 -7.78995 0)
(-4.42854 -15.3664 0)
(-7.14225 -20.7583 0)
(-8.84107 -14.5182 0)
(-6.44811 -7.38611 0)
(-9.58476 0.834818 0)
(-8.8049 5.46145 0)
(-8.37407 5.87547 0)
(-5.5111 3.02714 0)
(-1.52708 -1.17727 0)
(2.19937 0.458379 0)
(9.63434 18.1639 0)
(-2.87563 5.21687 0)
(-3.10789 -3.50003 0)
(-2.90523 -6.11003 0)
(-2.84601 -5.50146 0)
(-5.65241 -3.35706 0)
(-1.36624 -3.44649 0)
(0.710123 -7.25987 0)
(2.11664 -9.19895 0)
(3.30377 -11.0978 0)
(4.53967 -11.7815 0)
(5.90889 -10.9169 0)
(6.30885 -8.14327 0)
(6.85404 -5.85915 0)
(6.51723 -3.65268 0)
(5.03487 -0.598651 0)
(4.24092 2.21041 0)
(4.03289 4.30687 0)
(5.0717 5.29486 0)
(5.85863 5.16146 0)
(6.31089 4.11029 0)
(6.87188 3.41432 0)
(7.0466 3.44593 0)
(5.66277 0.904707 0)
(11.4011 2.80998 0)
(19.0124 12.8651 0)
(16.7259 10.9671 0)
(12.5157 18.372 0)
(8.18359 18.1953 0)
(4.11883 7.67199 0)
(10.2033 -11.4895 0)
(3.2876 -18.2854 0)
(-4.40995 -12.784 0)
(-8.18133 -7.04827 0)
(-4.69903 0.734645 0)
(-6.99493 4.34322 0)
(-5.54443 3.72992 0)
(-2.54712 -0.111816 0)
(-1.51253 -3.61144 0)
(-2.99461 -4.30448 0)
(6.13558 13.461 0)
(-0.440984 8.15881 0)
(-1.96783 -1.22834 0)
(-2.27605 -5.29877 0)
(-2.64144 -5.81376 0)
(-5.83254 -5.44202 0)
(-1.19267 -8.25685 0)
(-0.00128237 -8.98084 0)
(1.19335 -10.7146 0)
(1.89491 -12.4874 0)
(2.66037 -12.7562 0)
(3.49163 -11.5074 0)
(3.80321 -8.77398 0)
(4.5034 -6.1164 0)
(3.06629 -2.4574 0)
(-1.41232 1.41874 0)
(-1.5402 2.40159 0)
(-0.864489 3.29381 0)
(0.45252 3.26671 0)
(2.65036 4.18189 0)
(5.45808 5.64777 0)
(5.74057 5.12798 0)
(4.5342 3.75644 0)
(4.87187 1.19897 0)
(-2.52767 -4.44251 0)
(3.61623 1.81125 0)
(16.7179 13.6619 0)
(17.9066 19.676 0)
(15.0636 17.1028 0)
(16.4208 10.0718 0)
(16.1529 -9.12498 0)
(7.14408 -11.5439 0)
(-1.12057 -8.11081 0)
(-1.5772 -3.27392 0)
(-2.08191 1.27412 0)
(-4.77826 4.1866 0)
(-3.34305 2.48563 0)
(-2.22742 -0.829597 0)
(-1.48524 -2.12251 0)
(-3.57803 -4.21834 0)
(3.16084 13.5045 0)
(0.459654 9.68248 0)
(-1.21713 0.628925 0)
(-1.58138 -3.78425 0)
(-2.36989 -5.7789 0)
(-5.20365 -4.37448 0)
(-1.33041 -7.59436 0)
(-0.695935 -8.64061 0)
(0.1354 -11.5284 0)
(-0.0186336 -13.1766 0)
(0.0787381 -13.3467 0)
(0.234779 -12.3243 0)
(0.494548 -9.81188 0)
(0.120007 -5.75763 0)
(-2.20819 -0.0180445 0)
(-6.39085 5.02569 0)
(-11.3324 3.17984 0)
(-10.0432 -1.44229 0)
(-7.70598 1.67969 0)
(-3.87465 0.552195 0)
(0.496437 0.574078 0)
(4.52468 3.53387 0)
(3.66441 5.13539 0)
(5.69675 2.67351 0)
(2.93976 3.48039 0)
(1.88847 1.65155 0)
(-3.99677 -1.40133 0)
(15.1018 13.1974 0)
(16.2544 14.7318 0)
(19.5201 7.00008 0)
(20.6731 -3.57555 0)
(13.7302 -6.02805 0)
(5.35159 -5.8154 0)
(0.576224 1.31738 0)
(-2.35877 3.298 0)
(-3.95114 4.45125 0)
(-1.79109 2.09822 0)
(-1.80839 -1.2254 0)
(1.12985 -1.5098 0)
(-2.25587 -3.49063 0)
(-0.278261 9.40723 0)
(0.553724 10.0155 0)
(-0.850739 2.1551 0)
(-1.07861 -2.08822 0)
(-2.13525 -5.36444 0)
(-5.4292 -4.20347 0)
(-2.27286 -6.53062 0)
(-0.813031 -8.48212 0)
(-1.15568 -11.5988 0)
(-2.32386 -12.6283 0)
(-3.11795 -12.9265 0)
(-3.93718 -12.3217 0)
(-4.14091 -10.0707 0)
(-4.57926 -4.92694 0)
(-8.75448 3.82226 0)
(-3.95114 6.88549 0)
(-6.00165 6.85399 0)
(-2.28632 3.84345 0)
(-2.43563 -0.0471435 0)
(-3.00095 -0.73705 0)
(-6.23116 -7.94062 0)
(-1.09164 0.96535 0)
(2.86528 2.98112 0)
(0.65402 -3.43989 0)
(8.35912 4.12447 0)
(11.8619 5.13041 0)
(12.6949 2.88564 0)
(17.171 6.01775 0)
(18.9461 9.18725 0)
(21.2678 4.55462 0)
(17.0366 -1.38722 0)
(10.7899 -1.60256 0)
(2.65335 3.08846 0)
(-1.09387 5.81312 0)
(-3.43779 5.51968 0)
(-4.37327 4.378 0)
(-1.10244 1.667 0)
(-1.8625 -4.02827 0)
(4.16751 -1.86797 0)
(2.6254 -1.6376 0)
(2.15422 10.4466 0)
(-1.18172 11.5908 0)
(-1.08694 2.24815 0)
(-0.982949 -0.686648 0)
(-2.08338 -4.74645 0)
(-6.27398 -4.09252 0)
(-3.28805 -4.99739 0)
(0.212169 -8.17138 0)
(-3.08099 -10.3449 0)
(-4.9164 -11.191 0)
(-6.72118 -11.4352 0)
(-8.68785 -10.4933 0)
(-10.7074 -7.16973 0)
(-11.7505 -1.19913 0)
(-10.4354 3.87915 0)
(-10.6068 7.13898 0)
(-6.80687 5.02472 0)
(-4.81462 0.434156 0)
(-4.24477 -0.0282301 0)
(-1.99718 3.498 0)
(-1.5657 3.64486 0)
(-4.80586 -0.290422 0)
(-0.899463 2.47909 0)
(-4.94612 -3.41171 0)
(5.64364 1.48499 0)
(1.05722 -1.10739 0)
(-2.05158 -4.95141 0)
(6.13848 2.98159 0)
(10.0989 8.14827 0)
(12.4662 10.0835 0)
(8.17545 5.80695 0)
(1.96428 5.5895 0)
(-1.97245 8.04781 0)
(-3.63733 8.19641 0)
(-5.32268 6.97423 0)
(-5.04529 3.81894 0)
(-7.15307 -5.38306 0)
(9.0613 -6.05118 0)
(17.4885 -0.983918 0)
(16.078 0.0838685 0)
(10.2853 7.82549 0)
(0.635628 7.9955 0)
(-1.15087 2.13299 0)
(-1.17582 0.254177 0)
(-2.18854 -4.10936 0)
(-7.79119 -4.04688 0)
(-2.20489 -4.65173 0)
(-0.082578 -6.31498 0)
(-5.23826 -8.02533 0)
(-7.16163 -9.18528 0)
(-9.44943 -9.40045 0)
(-11.6526 -8.71922 0)
(-13.8992 -6.5636 0)
(-15.0855 -1.99294 0)
(-13.8994 2.62631 0)
(-12.0388 3.65544 0)
(-9.22935 1.3746 0)
(-8.39872 -2.24381 0)
(-7.73148 -1.87595 0)
(-6.79209 -1.33146 0)
(-5.45858 -1.99917 0)
(-3.4153 -0.969389 0)
(-0.548411 -0.367563 0)
(-2.57121 -5.40767 0)
(-0.486555 0.168491 0)
(1.27928 2.33431 0)
(-0.241567 -1.8392 0)
(-5.90041 -0.22847 0)
(-4.63065 5.15466 0)
(-3.08647 8.18798 0)
(-3.50144 8.47352 0)
(-4.87488 8.48015 0)
(-5.17367 8.87452 0)
(-4.81667 8.22775 0)
(-3.98584 6.75605 0)
(2.96454 3.55088 0)
(7.93173 -7.47225 0)
(6.31649 -14.7705 0)
(11.8725 -5.73915 0)
(11.1192 1.26055 0)
(10.9389 15.6636 0)