/*--------------------------------*- C++ -*----------------------------------*\
  =========                 |
  \\      /  F ield         | OpenFOAM: The Open Source CFD Toolbox
   \\    /   O peration     | Website:  https://openfoam.org
    \\  /    A nd           | Version:  7
     \\/     M anipulation  |
\*---------------------------------------------------------------------------*/
FoamFile
{
    version     2.0;
    format      ascii;
    class       surfaceScalarField;
    location    "1.35";
    object      phi_0;
}
// * * * * * * * * * * * * * * * * * * * * * * * * * * * * * * * * * * * * * //

dimensions      [1 0 -1 0 0 0 0];

internalField   nonuniform List<scalar> 
16780
(
3.84456e-05
-0.00170084
0.00322491
0.000291516
-0.00265622
0.00240322
0.000267718
-0.00276834
0.00279213
0.000279732
-0.00276781
0.0027558
0.000282447
-0.0027808
0.00277808
0.000287471
-0.00277878
0.00277376
0.000297095
-0.00277043
0.0027608
0.000323383
-0.00276716
0.00274088
0.00042306
-0.00271376
0.00261409
-0.00261782
0.0026255
0.000415377
0.000638807
0.00034415
-0.00140028
0.000830793
-0.000518755
-0.00232919
0.000788782
-0.000785946
-0.00194038
0.000808989
-0.000809455
-0.00197856
0.000806956
-0.000821742
-0.00195702
0.000816019
-0.000825841
-0.00196199
0.000832238
-0.00081013
-0.00197653
0.000873112
-0.00081027
-0.00199776
0.0010585
-0.000762064
-0.00213708
-0.0007183
-0.00213081
0.0012898
0.000994434
-0.000198882
0.000950497
0.00132164
-0.000962312
0.000118672
0.00127222
-0.0012546
0.000518063
0.00129561
-0.00131322
0.000480406
0.00129375
-0.00132212
0.000502238
0.00130218
-0.0013315
0.000497265
0.00132631
-0.00131749
0.000483203
0.00137213
-0.00131827
0.000462207
0.00158892
-0.00130659
0.000327745
-0.00127836
0.00033842
0.00181056
0.00120309
0.000331246
-0.000318663
0.00163055
-0.000151328
-0.00124239
0.00162451
-0.000396202
-0.000852416
0.00165163
-0.000456632
-0.000883619
0.00165324
-0.000460638
-0.000863101
0.0016613
-0.000472671
-0.000866873
0.0016848
-0.000459433
-0.000881577
0.00173123
-0.000461506
-0.000903175
0.00192036
-0.000451172
-0.00104455
-0.000417403
-0.00103606
0.00209546
0.00131088
4.46346e-05
0.000391587
0.0018367
-0.000224153
-0.00046635
0.00185274
-0.000345914
-6.62877e-05
0.00188147
-0.000382946
-0.000102511
0.00188803
-0.000386779
-8.04166e-05
0.00189416
-0.000393773
-8.50282e-05
0.00192152
-0.000387616
-9.91698e-05
0.00196885
-0.000388588
-0.000120248
0.00216389
-0.00038854
-0.00025768
-0.000380669
-0.000247921
0.00237508
0.00134466
5.40037e-09
0.000114965
0.00192038
2.51377e-09
-0.00078506
0.00196002
1.44413e-08
-0.00038554
0.00199476
3.71929e-10
-0.000417715
0.00200471
4.73986e-08
-0.000396769
0.00201154
-1.96328e-08
-0.000400589
0.00203877
2.27681e-07
-0.000415066
0.00208645
1.64729e-07
-0.000436433
0.00227333
8.00291e-07
-0.000576218
4.31932e-06
-0.000567087
0.00245543
0.00134466
-4.46262e-05
0.000114967
0.00192038
0.000224162
-0.000785058
0.00196003
0.000345939
-0.000385539
0.00199477
0.000382949
-0.000417716
0.00200472
0.000386859
-0.000396764
0.00201153
0.00039376
-0.000400593
0.00203879
0.000388012
-0.000415044
0.00208643
0.000388955
-0.000436427
0.0022733
0.000390043
-0.000576116
0.000388299
-0.000566741
0.00245607
0.00131089
-0.000331241
0.000391587
0.0018367
0.000151335
-0.000466345
0.00185275
0.000396223
-6.62873e-05
0.00188148
0.000456634
-0.000102513
0.00188805
0.00046071
-8.04192e-05
0.0018942
0.00047264
-8.50302e-05
0.00192163
0.000459779
-9.91895e-05
0.00196911
0.000461753
-0.000120286
0.0021648
0.000452176
-0.000257814
0.000424443
-0.000248687
0.00237734
0.00120309
0.000198884
-0.000318657
0.00163055
0.000962323
-0.00124239
0.00162452
0.00125461
-0.000852412
0.00165164
0.00131323
-0.000883624
0.00165328
0.00132216
-0.000863092
0.0016613
0.00133151
-0.000866885
0.00168493
0.00131768
-0.000881545
0.00173138
0.00131852
-0.000903205
0.00192107
0.00130695
-0.00104446
0.00128351
-0.00103595
0.00209796
0.000994439
-0.000344148
0.000950479
0.00132165
0.00051876
0.000118674
0.00127223
0.000785951
0.000518063
0.00129562
0.00080946
0.000480405
0.00129379
0.000821758
0.000502239
0.00130223
0.000825848
0.000497258
0.00132647
0.000810214
0.000483192
0.00137247
0.000810395
0.000462156
0.00158995
0.000761813
0.000327661
0.000720326
0.000337573
0.00181556
0.00063881
0.00170082
-0.00140034
0.000830796
0.00265622
-0.00232919
0.00078879
0.00276833
-0.00194037
0.000808996
0.00276783
-0.00197857
0.000806987
0.00278077
-0.00195701
0.000816019
0.00277884
-0.00196201
0.00083236
0.00277035
-0.00197649
0.000873264
0.00276735
-0.00199784
0.00105875
0.00271324
-0.00213692
0.00261822
-0.00213133
0.0012922
3.84459e-05
0.00322491
0.000291517
0.00240322
0.000267719
0.00279213
0.000279737
0.00275581
0.00028245
0.00277806
0.000287505
0.00277379
0.000297116
0.00276074
0.000323499
0.00274096
0.000422918
0.00261382
0.00262552
0.00041561
0.000830701
0.00491279
-0.00109221
0.000324906
0.00399731
-0.00108829
0.000297065
0.00392292
-0.00110294
0.000270869
0.00393479
-0.00115279
0.000267083
0.00392802
-0.00114616
0.000262882
0.00393619
-0.00115823
0.000256628
0.00393543
-0.00116837
0.000243176
0.00392961
-0.00117528
0.000202643
0.00382876
-0.00117414
0.00378701
-0.00118327
0.000224399
0.00152514
0.00243201
0.000957302
0.000889964
0.00132399
0.000979203
0.000829993
0.00104194
0.0010006
0.00078656
0.00107376
0.000925889
0.000770536
0.00105213
0.000934904
0.000763579
0.00105899
0.000922212
0.000748703
0.00106141
0.000912312
0.000723592
0.0010508
0.000906222
0.000536581
0.000964006
0.00091469
0.000941728
0.000905758
0.000345292
0.00198939
0.00292181
-0.000117981
0.0014161
0.00216618
-0.000149998
0.00132079
0.00181727
-0.000162037
0.00127929
0.00180938
-0.000213584
0.00125733
0.00178489
-0.000208566
0.00124921
0.00178464
-0.000220045
0.00123615
0.00179263
-0.000235218
0.0012112
0.00178749
-0.000249276
0.0010209
0.00175036
-0.000268302
0.00174942
-0.000277339
0.00082897
0.00216345
0.00154361
0.000311197
0.0017508
0.000969581
0.000366325
0.00168847
0.000663565
0.000363286
0.00165559
0.000643686
0.000315535
0.00163469
0.000619134
0.000323563
0.00162574
0.000615038
0.000311714
0.00161247
0.000622593
0.000301691
0.00158334
0.00061741
0.000296071
0.00139126
0.000591169
0.000306722
0.000571496
0.000298554
0.00123457
0.00231297
0.00096428
7.23419e-05
0.0019835
0.000713797
0.000117405
0.00192719
0.000544742
0.000109181
0.00190573
0.00052915
3.28527e-05
0.00188809
0.000515145
4.12175e-05
0.00187924
0.000512564
2.62896e-05
0.0018696
0.000516429
1.6644e-05
0.00184337
0.000513651
9.73651e-06
0.00165714
0.000504948
1.47652e-05
0.000506789
7.68949e-06
0.00146624
0.00233433
-2.74373e-08
0.000159553
0.00207192
3.45646e-08
0.000192723
0.00204322
5.8843e-09
0.000187974
0.00202943
2.92612e-08
0.000125075
0.0020157
4.11931e-10
0.000132099
0.00200739
6.14761e-08
0.000120224
0.00199846
1.16941e-08
0.000110285
0.00197129
2.78193e-07
0.000104107
0.00178783
-2.62157e-07
0.000112462
1.6644e-06
0.000105104
0.00162076
0.00233433
-0.00096433
0.000159553
0.00207192
-0.000713738
0.000192721
0.00204322
-0.00054473
0.000187978
0.00202943
-0.000529104
0.00012508
0.00201571
-0.000515141
0.000132102
0.0020074
-0.000512457
0.000120232
0.00199846
-0.000516389
0.000110297
0.00197131
-0.000513144
0.000104147
0.00178763
-0.000505215
0.000112515
-0.000503668
0.000105368
0.00162086
0.00231297
-0.00154366
7.2337e-05
0.0019835
-0.000969526
0.000117402
0.00192719
-0.000663557
0.000109177
0.00190574
-0.000643637
3.28473e-05
0.00188811
-0.000619133
4.12094e-05
0.00187927
-0.000614936
2.62834e-05
0.00186966
-0.000622586
1.6625e-05
0.00184348
-0.00061696
9.70083e-06
0.00165714
-0.000591388
1.47041e-05
-0.000569003
7.51847e-06
0.00146627
0.00216343
-0.00292185
0.000311194
0.0017508
-0.00216614
0.000366329
0.00168848
-0.00181726
0.000363286
0.00165561
-0.00180935
0.000315545
0.00163471
-0.00178488
0.000323563
0.00162578
-0.00178458
0.000311725
0.00161252
-0.0017926
0.000301694
0.00158346
-0.00178719
0.000296124
0.00139084
-0.00175001
0.00030678
-0.00174771
0.00029887
0.00123472
0.00198936
-0.00243204
-0.000117975
0.00141611
-0.00132397
-0.000150001
0.0013208
-0.00104193
-0.000162038
0.00127931
-0.00107374
-0.000213586
0.00125736
-0.00105212
-0.000208572
0.00124926
-0.00105896
-0.000220045
0.00123622
-0.00106139
-0.000235245
0.0012114
-0.00105065
-0.000249299
0.00102102
-0.000963592
-0.000268382
-0.000940786
-0.000277459
0.00082913
0.00152512
-0.00491277
0.000957327
0.000889966
-0.00399731
0.000979203
0.000829994
-0.00392291
0.0010006
0.000786576
-0.0039348
0.000925895
0.000770546
-0.00392799
0.000934899
0.000763633
-0.00393624
0.000922224
0.000748717
-0.00393531
0.000912298
0.000723745
-0.00392975
0.000906272
0.000536885
-0.00382829
0.00091464
-0.00378719
0.000906081
0.000345878
0.000830694
-0.00109221
0.000324906
-0.00108829
0.000297068
-0.00110294
0.000270872
-0.0011528
0.000267093
-0.00114615
0.000262882
-0.00115824
0.000256664
-0.00116836
0.000243212
-0.00117533
0.000202815
-0.00117407
-0.00118338
0.000224529
0.000577766
-0.000171017
-8.25395e-05
0.000428491
-0.000992747
5.3678e-05
0.000430648
-0.00111114
6.02842e-06
0.000386603
-0.00109413
-1.46278e-05
0.000378707
-0.00111757
-2.06941e-05
0.000361691
-0.00110839
-3.28161e-05
0.00033957
-0.00111066
-3.56002e-05
0.000314831
-0.00111393
-3.66093e-05
0.000363965
-0.00120991
-1.33687e-05
-0.00123274
-1.77702e-05
0.000431198
0.00126857
0.000898935
3.42409e-05
0.00103285
4.97326e-05
0.000171145
0.00100433
-0.000203142
0.000121025
0.00094471
-0.000208047
9.93323e-05
0.000920029
-0.000250139
9.21603e-05
0.000896822
-0.000242811
8.00704e-05
0.000862753
-0.000241962
7.74241e-05
0.000827404
-0.000248251
7.61355e-05
0.000742884
-0.000309887
9.91908e-05
-0.000323159
9.50168e-05
0.000644047
0.00159953
0.000709367
-0.00011431
0.00147494
-1.44481e-05
3.86396e-05
0.00144775
-0.000335765
-2.59858e-06
0.00139842
-0.000348735
-2.30961e-05
0.00137212
-0.000404494
-2.79067e-05
0.00134717
-0.000401987
-3.40202e-05
0.0013125
-0.000402419
-4.22444e-05
0.00127177
-0.000417596
-3.70152e-05
0.00120063
-0.000486577
-2.04644e-05
-0.000539339
-2.44963e-05
0.00116397
0.00176452
0.000639515
3.08183e-05
0.0017683
0.000194006
0.000154025
0.00177635
-8.78484e-05
0.000103631
0.00174721
-8.29649e-05
8.42073e-05
0.00172087
-0.000135413
8.08312e-05
0.00169713
-0.000138805
7.23434e-05
0.00166525
-0.000139373
7.04537e-05
0.00162579
-0.000150917
6.89148e-05
0.00154234
-0.000180889
8.44877e-05
-0.000207358
8.13231e-05
0.00142759
0.00186126
0.000306075
-4.13697e-05
0.00194478
0.000120697
0.000107051
0.00198012
-4.5205e-05
3.5136e-05
0.00196802
-6.25326e-05
1.89595e-05
0.00195192
-9.28653e-05
1.47625e-05
0.00193105
-9.72861e-05
5.57874e-06
0.00190249
-9.68327e-05
2.73578e-06
0.00186292
-0.000103617
1.95065e-06
0.00178618
-0.000120295
3.09126e-05
-0.000135889
2.81441e-05
0.00169426
0.00188061
-1.80969e-08
-7.40474e-07
0.00201722
1.49696e-08
0.00017698
0.00207921
1.43979e-08
8.1186e-05
0.00208084
4.32008e-08
6.03614e-05
0.00206789
2.14614e-08
5.21582e-05
0.00204888
3.77016e-08
4.19008e-05
0.00202262
4.05911e-08
3.96859e-05
0.00198412
1.77721e-07
3.88047e-05
0.00190844
1.95497e-07
6.76498e-05
1.87159e-06
7.30828e-05
0.00180271
0.00188061
-0.000306109
-7.41306e-07
0.00201722
-0.00012067
0.000176981
0.00207921
4.5235e-05
8.11837e-05
0.00208084
6.2631e-05
6.03532e-05
0.0020679
9.29106e-05
5.21562e-05
0.0020489
9.73668e-05
4.1899e-05
0.00202263
9.6926e-05
3.96837e-05
0.00198416
0.000103997
3.87972e-05
0.00190841
0.000120967
6.74898e-05
0.000139935
7.27366e-05
0.00180298
0.00186126
-0.000639548
-4.13705e-05
0.00194478
-0.000193978
0.000107051
0.00198012
8.78689e-05
3.51367e-05
0.00196803
8.30241e-05
1.89669e-05
0.00195195
0.000135442
1.47642e-05
0.00193107
0.000138876
5.58228e-06
0.00190252
0.000139439
2.74272e-06
0.00186295
0.000151226
1.9801e-06
0.00178601
0.000181603
3.10171e-05
0.000210086
2.83008e-05
0.00169507
0.00176452
-0.000709397
3.08162e-05
0.0017683
1.44723e-05
0.000154027
0.00177636
0.000335773
0.00010363
0.00174724
0.000348799
8.42046e-05
0.0017209
0.000404519
8.08306e-05
0.00169718
0.000402051
7.23435e-05
0.0016653
0.000402484
7.04535e-05
0.00162591
0.000417884
6.89221e-05
0.00154235
0.000487439
8.45061e-05
0.000541601
8.13794e-05
0.00142833
0.00159952
-0.000898956
-0.000114307
0.00147494
-4.97174e-05
3.86395e-05
0.00144775
0.000203141
-2.59769e-06
0.00139845
0.000208079
-2.30952e-05
0.00137216
0.000250148
-2.79038e-05
0.00134723
0.000242854
-3.40187e-05
0.00131256
0.000241991
-4.22368e-05
0.00127191
0.000248416
-3.6991e-05
0.00120078
0.000310559
-2.03744e-05
0.000323816
-2.43911e-05
0.0011655
0.00126856
0.00017102
3.42499e-05
0.00103285
0.000992753
0.000171145
0.00100433
0.00111114
0.000121024
0.000944737
0.00109414
9.93311e-05
0.000920058
0.00111757
9.21602e-05
0.00089688
0.00110842
8.00713e-05
0.000862818
0.00111066
7.74248e-05
0.000827553
0.00111404
7.61526e-05
0.000743239
0.00121029
9.92257e-05
0.00123369
9.51327e-05
0.000644314
0.000577762
-8.25439e-05
0.00042849
5.36783e-05
0.000430646
6.02996e-06
0.00038661
-1.46274e-05
0.000378719
-2.06918e-05
0.000361717
-3.28157e-05
0.000339611
-3.55923e-05
0.000314913
-3.65855e-05
0.000364429
-1.32915e-05
-1.76681e-05
0.0004324
0.000675807
0.000639079
1.71601e-05
0.000527922
0.000140416
6.11861e-05
0.000483696
1.42336e-05
3.59594e-05
0.000447143
-1.9161e-05
4.1085e-05
0.000444962
-5.76001e-05
3.90877e-05
0.000432825
-5.51631e-05
3.44873e-05
0.000422559
-6.04314e-05
3.50966e-05
0.000416067
-6.47411e-05
3.46205e-05
0.000471469
-0.000111666
4.28962e-05
-0.000104801
3.84608e-05
0.000520044
0.00124858
0.000826672
1.24397e-05
0.00115693
0.000366972
3.71668e-05
0.00110805
0.000161647
2.12156e-05
0.00106089
0.000102606
2.47157e-05
0.00104278
2.87702e-05
2.39032e-05
0.00102478
2.07807e-05
2.20489e-05
0.0010048
1.43919e-05
2.26799e-05
0.000991541
1.87863e-06
2.25661e-05
0.000992182
-3.90968e-05
2.59814e-05
-3.99296e-05
2.37868e-05
0.00099854
0.00148046
0.000634474
1.15926e-05
0.00152723
0.000301274
5.75896e-05
0.00152409
0.000131962
3.01492e-05
0.00150549
6.34644e-05
3.47517e-05
0.00149111
-1.7683e-05
3.29265e-05
0.00147641
-2.88204e-05
2.81845e-05
0.00145929
-3.63484e-05
2.80004e-05
0.00144219
-4.85869e-05
2.82894e-05
0.00145327
-0.000107412
3.67774e-05
-0.000122456
3.27852e-05
0.00147851
0.00158273
0.000484724
1.20613e-05
0.00173398
0.000265413
3.8628e-05
0.00179067
0.000155088
2.41695e-05
0.00181046
0.000104452
2.43736e-05
0.00181112
3.85643e-05
2.39321e-05
0.00180555
2.71556e-05
2.19561e-05
0.00179456
2.25427e-05
2.25203e-05
0.00178272
9.76983e-06
2.2424e-05
0.00177291
-3.90558e-05
2.59451e-05
-4.60097e-05
2.39845e-05
0.0017538
0.00161708
0.000229152
1.13475e-05
0.00183857
0.000111999
3.89369e-05
0.00193958
6.59113e-05
2.36634e-05
0.00199203
3.36723e-05
3.66841e-05
0.00200979
-1.56045e-07
3.57207e-05
0.00201555
-5.55708e-06
3.25264e-05
0.00201334
-5.94497e-06
3.34434e-05
0.00200405
-1.22951e-05
3.33076e-05
0.00200191
-4.49263e-05
3.89224e-05
-5.39423e-05
3.56564e-05
0.00200233
0.00162608
-7.16958e-09
1.65643e-05
0.00187879
-2.19074e-08
3.63315e-05
0.00200618
4.55101e-08
1.97142e-05
0.00207696
2.35128e-08
2.31575e-05
0.00210554
1.69407e-07
2.32613e-05
0.00211801
3.43807e-08
2.38391e-05
0.0021204
3.66957e-07
3.09795e-05
0.00211452
8.3197e-07
3.15645e-05
0.00210941
2.47123e-06
2.53594e-05
9.09247e-06
2.30417e-05
0.00209642
0.00162608
-0.000229169
1.65644e-05
0.00187878
-0.000112031
3.63307e-05
0.00200619
-6.58381e-05
1.97115e-05
0.00207696
-3.36239e-05
2.31592e-05
0.00210556
4.61183e-07
2.32624e-05
0.00211802
5.63395e-06
2.38449e-05
0.00212043
6.65414e-06
3.09893e-05
0.0021147
1.37669e-05
3.15898e-05
0.00210974
4.95275e-05
2.53947e-05
7.08894e-05
2.30372e-05
0.00209764
0.00161709
-0.000484747
1.13473e-05
0.00183856
-0.000265419
3.89351e-05
0.00193959
-0.000155049
2.36652e-05
0.00199202
-0.000104378
3.66822e-05
0.00200987
-3.83444e-05
3.57239e-05
0.00201556
-2.70105e-05
3.25282e-05
0.0020135
-2.19904e-05
3.34515e-05
0.00200425
-8.29226e-06
3.32933e-05
0.00200272
4.30987e-05
3.89763e-05
6.05819e-05
3.57287e-05
0.0020056
0.00158274
-0.000634503
1.20613e-05
0.00173396
-0.000301256
3.86281e-05
0.00179068
-0.000131955
2.41717e-05
0.00181048
-6.33919e-05
2.43712e-05
0.00181121
1.78201e-05
2.39345e-05
0.00180562
2.89862e-05
2.19585e-05
0.00179474
3.67768e-05
2.25347e-05
0.00178326
4.97063e-05
2.2437e-05
0.00177414
0.000110699
2.60261e-05
0.000132709
2.40464e-05
0.00175934
0.00148046
-0.0008267
1.15931e-05
0.00152722
-0.000366946
5.75885e-05
0.00152409
-0.000161654
3.015e-05
0.00150551
-0.000102556
3.47534e-05
0.00149119
-2.86964e-05
3.29324e-05
0.00147653
-2.065e-05
2.8192e-05
0.00145954
-1.41095e-05
2.8022e-05
0.00144296
-1.20079e-06
2.82793e-05
0.00145515
4.12113e-05
3.692e-05
4.66072e-05
3.29405e-05
0.00148393
0.00124857
-0.000639085
1.24453e-05
0.00115693
-0.000140407
3.7166e-05
0.00110805
-1.42379e-05
2.12157e-05
0.00106092
1.91735e-05
2.47171e-05
0.00104285
5.76309e-05
2.39064e-05
0.00102492
5.52207e-05
2.20565e-05
0.00100504
6.05948e-05
2.26948e-05
0.000992193
6.49727e-05
2.25828e-05
0.000993872
0.000112664
2.60944e-05
0.00010829
2.3903e-05
0.00100342
0.000675798
1.71599e-05
0.000527923
6.11843e-05
0.000483692
3.59607e-05
0.00044715
4.10868e-05
0.000444997
3.90938e-05
0.000432908
3.44974e-05
0.000422787
3.51223e-05
0.000416537
3.46317e-05
0.000472836
4.30749e-05
3.86495e-05
0.000524813
0.000971697
0.000459714
6.23598e-11
0.000716565
0.000316354
-4.63027e-11
0.000587259
0.000165332
6.75997e-10
0.000543626
8.47196e-05
1.51042e-11
0.000541793
4.09216e-05
3.34272e-12
0.000542354
3.39261e-05
7.82627e-11
0.000552038
2.5415e-05
-8.69359e-11
0.000565484
2.11725e-05
1.1441e-10
0.000603758
4.62394e-06
3.19987e-12
1.08009e-05
-2.5105e-11
0.000631419
0.00142643
0.000459953
-1.81463e-09
0.0013578
0.000422807
-5.5043e-12
0.00126943
0.000276413
-1.10821e-11
0.00121687
0.00016199
-7.45634e-11
0.0011965
8.51985e-05
4.75356e-12
0.00119022
6.22372e-05
3.55888e-10
0.00119718
4.11551e-05
-4.19337e-10
0.00121
3.08834e-05
3.98482e-10
0.00123486
5.75025e-06
2.49503e-12
1.29327e-05
6.72519e-12
0.00125651
0.00153005
0.000355674
2.62941e-11
0.00161186
0.000398627
-1.86454e-11
0.00162351
0.000294911
-8.33707e-10
0.00162724
0.000193028
-4.13115e-10
0.00162921
0.000116155
9.64598e-12
0.00163588
8.34631e-05
-2.42308e-11
0.00165078
5.45957e-05
2.54607e-11
0.00166633
4.32919e-05
-3.09624e-11
0.00169314
1.57162e-05
-5.40361e-12
2.21162e-05
-2.10067e-13
0.00171675
0.00154806
0.000233866
1.77362e-10
0.00169848
0.00028683
-7.16927e-11
0.0017851
0.000231278
-3.27287e-10
0.00184796
0.000154761
4.64487e-10
0.00188729
0.000100765
6.759e-12
0.00192115
7.15473e-05
-3.31915e-10
0.00195197
4.63124e-05
4.07052e-10
0.0019827
3.49754e-05
-3.82619e-10
0.00200834
1.60225e-05
1.21762e-12
2.87738e-05
4.42254e-12
0.00202566
0.00154631
0.000113092
1.58854e-10
0.00172286
0.000149216
9.72695e-11
0.00185146
0.000126405
3.59837e-10
0.00195089
9.19107e-05
4.2775e-10
0.00202184
6.55356e-05
-6.18411e-12
0.00207935
4.65653e-05
-3.81136e-11
0.0021286
3.05085e-05
5.18979e-11
0.00217323
2.36472e-05
-4.1924e-11
0.00220846
1.97191e-05
1.39337e-12
3.51158e-05
4.62341e-12
0.00223777
0.0015437
1.39386e-07
5.30844e-11
0.00172954
-2.83393e-07
1.15687e-10
0.00187547
2.05946e-07
4.10999e-10
0.0019907
-1.83493e-07
-3.57675e-10
0.00207876
7.35525e-07
1.28008e-12
0.00214921
-4.45963e-08
-7.87692e-12
0.00220857
2.13612e-06
1.28101e-11
0.00226255
1.23e-06
-7.37634e-12
0.00230165
5.97388e-06
2.09638e-12
2.53056e-05
-1.13838e-12
0.00233451
0.00154379
-0.000112893
-5.60165e-11
0.0017295
-0.000149661
-1.1206e-10
0.00187549
-0.000126056
-4.04468e-10
0.00199064
-9.21925e-05
3.60863e-10
0.00207884
-6.42034e-05
1.81775e-12
0.00214919
-4.65454e-05
1.11227e-11
0.0022088
-2.64891e-05
-9.68416e-12
0.00226289
-2.12726e-05
9.94727e-12
0.00230243
-8.16292e-06
1.3345e-12
1.4198e-05
6.93309e-13
0.00233657
0.00154643
-0.000233789
-1.73305e-10
0.00172271
-0.000287011
-9.92469e-11
0.00185151
-0.000231126
-3.44829e-10
0.00195063
-0.00015473
-4.13574e-10
0.00202205
-9.99016e-05
-2.34355e-12
0.00207923
-7.11935e-05
4.62735e-11
0.00212918
-4.29938e-05
-4.32915e-11
0.00217378
-3.25705e-05
4.95059e-11
0.00221066
-6.06526e-06
1.30823e-12
1.61805e-05
2.31588e-12
0.0022444
0.00154814
-0.000355682
-1.84942e-10
0.00169832
-0.000398567
9.05039e-11
0.00178517
-0.000294982
3.19833e-10
0.00184788
-0.00019285
-4.59529e-10
0.0018876
-0.000115685
1.26012e-11
0.0019212
-8.28437e-05
3.32319e-10
0.00195302
-5.22633e-05
-4.02434e-10
0.00198404
-4.1167e-05
3.78724e-10
0.00201214
-8.13767e-06
1.17101e-12
1.47627e-05
-1.45301e-12
0.00203761
0.00153009
-0.000459994
-1.35435e-11
0.00161182
-0.000422679
3.15429e-11
0.00162353
-0.000276533
8.39683e-10
0.00162728
-0.000161823
4.17387e-10
0.00162952
-8.49919e-05
1.08586e-11
0.00163628
-6.17121e-05
9.84764e-12
0.00165208
-3.9704e-05
-2.12535e-11
0.00166812
-2.92464e-05
6.82008e-11
0.00169827
-1.37066e-06
-6.03071e-12
1.07575e-05
-6.75457e-12
0.00173522
0.00142642
-0.000459746
1.61704e-09
0.00135783
-0.000316266
3.18406e-11
0.0012694
-0.000165395
1.26456e-11
0.00121697
-8.46736e-05
5.39502e-11
0.00119671
-4.08285e-05
1.34081e-12
0.00119086
-3.38258e-05
-3.5543e-10
0.00119857
-2.46951e-05
4.23818e-10
0.00121225
-2.03901e-05
-3.80102e-10
0.00124016
-3.18038e-06
-1.88229e-12
-2.45766e-07
-5.33524e-12
0.00127507
0.000971664
-9.61028e-11
0.000716619
-6.83279e-13
0.000587252
-5.88313e-10
0.000543666
-1.08698e-11
0.000541932
1.52572e-12
0.000542604
-6.54744e-11
0.000553033
8.26429e-11
0.000567272
-1.00078e-10
0.000607168
-7.21685e-13
-2.54648e-11
0.000645574
0.000971697
0.000459713
-1.71596e-05
0.000716565
0.000316354
-6.11857e-05
0.000587259
0.000165332
-3.59597e-05
0.000543626
8.47195e-05
-4.1085e-05
0.000541793
4.09216e-05
-3.90877e-05
0.000542354
3.39262e-05
-3.44874e-05
0.000552038
2.54149e-05
-3.50964e-05
0.000565484
2.11726e-05
-3.46207e-05
0.000603758
4.62392e-06
-4.28962e-05
1.08009e-05
-3.84608e-05
0.000631419
0.00142643
0.000459953
-1.24451e-05
0.0013578
0.000422807
-3.7167e-05
0.00126943
0.000276412
-2.12153e-05
0.00121687
0.000161989
-2.47159e-05
0.0011965
8.51985e-05
-2.39032e-05
0.00119022
6.22371e-05
-2.205e-05
0.00119718
4.11553e-05
-2.26788e-05
0.00121
3.08833e-05
-2.25672e-05
0.00123486
5.75022e-06
-2.59814e-05
1.29327e-05
-2.37868e-05
0.00125651
0.00153005
0.000355674
-1.15928e-05
0.00161186
0.000398627
-5.75901e-05
0.00162351
0.000294911
-3.01483e-05
0.00162724
0.000193029
-3.47525e-05
0.00162921
0.000116155
-3.29265e-05
0.00163588
8.3463e-05
-2.81845e-05
0.00165078
5.45958e-05
-2.80004e-05
0.00166633
4.32918e-05
-2.82894e-05
0.00169314
1.57162e-05
-3.67773e-05
2.21162e-05
-3.27852e-05
0.00171675
0.00154806
0.000233866
-1.20607e-05
0.00169848
0.00028683
-3.86287e-05
0.0017851
0.000231278
-2.41703e-05
0.00184796
0.000154761
-2.43714e-05
0.00188729
0.000100765
-2.39321e-05
0.00192115
7.15474e-05
-2.19548e-05
0.00195197
4.63123e-05
-2.25216e-05
0.0019827
3.49755e-05
-2.24228e-05
0.00200834
1.60224e-05
-2.59451e-05
2.87737e-05
-2.39845e-05
0.00202566
0.00154631
0.000113091
-1.13472e-05
0.00172286
0.000149216
-3.89367e-05
0.00185146
0.000126405
-2.3664e-05
0.00195089
9.19104e-05
-3.66832e-05
0.00202184
6.55356e-05
-3.57207e-05
0.00207935
4.65653e-05
-3.25264e-05
0.0021286
3.05085e-05
-3.34435e-05
0.00217323
2.36472e-05
-3.33075e-05
0.00220846
1.97191e-05
-3.89224e-05
3.51157e-05
-3.56563e-05
0.00223777
0.0015437
1.39345e-07
-1.65643e-05
0.00172954
-2.8345e-07
-3.6331e-05
0.00187547
2.05305e-07
-1.97114e-05
0.0019907
-1.83379e-07
-2.31583e-05
0.00207876
7.35517e-07
-2.32613e-05
0.00214921
-4.45847e-08
-2.38391e-05
0.00220857
2.13611e-06
-3.09795e-05
0.00226255
1.23002e-06
-3.15646e-05
0.00230165
5.97382e-06
-2.53594e-05
2.53055e-05
-2.30417e-05
0.00233451
0.00154379
-0.000112893
-1.65645e-05
0.0017295
-0.000149661
-3.63312e-05
0.00187549
-0.000126056
-1.97143e-05
0.00199064
-9.21927e-05
-2.31584e-05
0.00207884
-6.42034e-05
-2.32624e-05
0.00214919
-4.65454e-05
-2.38449e-05
0.0022088
-2.64891e-05
-3.09893e-05
0.00226289
-2.12726e-05
-3.15898e-05
0.00230243
-8.16299e-06
-2.53947e-05
1.41979e-05
-2.30372e-05
0.00233657
0.00154643
-0.000233789
-1.13478e-05
0.00172271
-0.000287011
-3.89353e-05
0.00185151
-0.000231126
-2.36645e-05
0.00195063
-0.00015473
-3.66831e-05
0.00202205
-9.99016e-05
-3.57239e-05
0.00207923
-7.11934e-05
-3.25283e-05
0.00212918
-4.29939e-05
-3.34514e-05
0.00217378
-3.25703e-05
-3.32934e-05
0.00221066
-6.06532e-06
-3.89763e-05
1.61805e-05
-3.57287e-05
0.0022444
0.00154814
-0.000355682
-1.2062e-05
0.00169832
-0.000398567
-3.86271e-05
0.00178517
-0.000294982
-2.41708e-05
0.00184788
-0.00019285
-2.43735e-05
0.0018876
-0.000115685
-2.39345e-05
0.0019212
-8.28438e-05
-2.19598e-05
0.00195302
-5.22632e-05
-2.25334e-05
0.00198404
-4.11671e-05
-2.24382e-05
0.00201214
-8.13773e-06
-2.6026e-05
1.47626e-05
-2.40464e-05
0.00203761
0.00153009
-0.000459994
-1.15929e-05
0.00161182
-0.000422679
-5.7588e-05
0.00162353
-0.000276534
-3.01509e-05
0.00162728
-0.000161823
-3.47526e-05
0.00162952
-8.49919e-05
-3.29324e-05
0.00163628
-6.17122e-05
-2.8192e-05
0.00165208
-3.97038e-05
-2.8022e-05
0.00166812
-2.92465e-05
-2.82794e-05
0.00169827
-1.37068e-06
-3.692e-05
1.07575e-05
-3.29405e-05
0.00173522
0.00142642
-0.000459747
-1.24404e-05
0.00135783
-0.000316266
-3.71659e-05
0.0012694
-0.000165395
-2.1216e-05
0.00121697
-8.46737e-05
-2.47168e-05
0.00119671
-4.08285e-05
-2.39064e-05
0.00119086
-3.38257e-05
-2.20554e-05
0.00119857
-2.46952e-05
-2.26959e-05
0.00121225
-2.039e-05
-2.25818e-05
0.00124016
-3.1804e-06
-2.60944e-05
-2.45795e-07
-2.3903e-05
0.00127507
0.000971664
-1.71604e-05
0.000716619
-6.11848e-05
0.000587252
-3.59605e-05
0.000543666
-4.10869e-05
0.000541932
-3.90937e-05
0.000542604
-3.44973e-05
0.000553033
-3.51224e-05
0.000567272
-3.46315e-05
0.000607168
-4.30749e-05
-3.86495e-05
0.000645574
0.000675807
0.000639076
8.25437e-05
0.000527922
0.000140416
-5.36784e-05
0.000483696
1.42334e-05
-6.02935e-06
0.000447143
-1.91611e-05
1.46278e-05
0.000444962
-5.76001e-05
2.06941e-05
0.000432825
-5.51633e-05
3.28161e-05
0.000422559
-6.04311e-05
3.56001e-05
0.000416067
-6.47413e-05
3.66093e-05
0.000471469
-0.000111666
1.33687e-05
-0.000104802
1.77702e-05
0.000520044
0.00124858
0.000826674
-3.42514e-05
0.00115693
0.000366972
-0.000171146
0.00110805
0.000161647
-0.000121025
0.00106089
0.000102606
-9.9332e-05
0.00104278
2.87702e-05
-9.21603e-05
0.00102478
2.07809e-05
-8.00704e-05
0.0010048
1.43916e-05
-7.7424e-05
0.000991541
1.879e-06
-7.61355e-05
0.000992182
-3.90968e-05
-9.91908e-05
-3.99296e-05
-9.50169e-05
0.00099854
0.00148046
0.000634474
0.000114307
0.00152723
0.000301274
-3.86396e-05
0.00152409
0.000131961
2.59889e-06
0.00150549
6.34653e-05
2.30976e-05
0.00149111
-1.7683e-05
2.79067e-05
0.00147641
-2.88203e-05
3.40201e-05
0.00145929
-3.63486e-05
4.22444e-05
0.00144219
-4.85867e-05
3.70152e-05
0.00145327
-0.000107412
2.04644e-05
-0.000122456
2.44964e-05
0.00147851
0.00158273
0.000484724
-3.08172e-05
0.00173398
0.000265413
-0.000154026
0.00179067
0.000155089
-0.00010363
0.00181046
0.000104452
-8.42094e-05
0.00181112
3.85643e-05
-8.08313e-05
0.00180555
2.71554e-05
-7.23434e-05
0.00179456
2.25429e-05
-7.04536e-05
0.00178272
9.76957e-06
-6.89149e-05
0.00177291
-3.90558e-05
-8.44877e-05
-4.60097e-05
-8.13231e-05
0.0017538
0.00161708
0.000229152
4.13706e-05
0.00183857
0.000111999
-0.000107051
0.00193958
6.59122e-05
-3.51355e-05
0.00199203
3.36714e-05
-1.89613e-05
0.00200979
-1.56017e-07
-1.47624e-05
0.00201555
-5.55707e-06
-5.57867e-06
0.00201334
-5.94495e-06
-2.73586e-06
0.00200405
-1.22951e-05
-1.95059e-06
0.00200191
-4.49263e-05
-3.09126e-05
-5.39423e-05
-2.81441e-05
0.00200233
0.00162608
-7.25904e-09
7.40585e-07
0.00187879
-2.20846e-08
-0.000176979
0.00200618
4.54556e-08
-8.11866e-05
0.00207696
2.45909e-08
-6.03604e-05
0.00210554
1.69415e-07
-5.21582e-05
0.00211801
3.44165e-08
-4.19008e-05
0.0021204
3.66932e-07
-3.96859e-05
0.00211452
8.31976e-07
-3.88047e-05
0.00210941
2.47126e-06
-6.76498e-05
9.09249e-06
-7.30828e-05
0.00209642
0.00162608
-0.000229169
7.412e-07
0.00187878
-0.000112031
-0.000176982
0.00200619
-6.58373e-05
-8.11831e-05
0.00207696
-3.36248e-05
-6.03542e-05
0.00210556
4.61177e-07
-5.21561e-05
0.00211802
5.63395e-06
-4.1899e-05
0.00212043
6.65415e-06
-3.96837e-05
0.0021147
1.37668e-05
-3.87972e-05
0.00210974
4.95275e-05
-6.74898e-05
7.08894e-05
-7.27365e-05
0.00209764
0.00161709
-0.000484747
4.13693e-05
0.00183856
-0.000265419
-0.000107051
0.00193959
-0.000155048
-3.51373e-05
0.00199202
-0.000104378
-1.89651e-05
0.00200987
-3.83444e-05
-1.47641e-05
0.00201556
-2.70107e-05
-5.58234e-06
0.0020135
-2.19902e-05
-2.74264e-06
0.00200425
-8.29252e-06
-1.98015e-06
0.00200272
4.30987e-05
-3.10171e-05
6.05819e-05
-2.83008e-05
0.0020056
0.00158274
-0.000634503
-3.08174e-05
0.00173396
-0.000301255
-0.000154026
0.00179068
-0.000131955
-0.000103632
0.00181048
-6.3391e-05
-8.42025e-05
0.00181121
1.78201e-05
-8.08307e-05
0.00180562
2.89864e-05
-7.23435e-05
0.00179474
3.67766e-05
-7.04536e-05
0.00178326
4.97065e-05
-6.89219e-05
0.00177414
0.000110699
-8.45061e-05
0.000132709
-8.13794e-05
0.00175934
0.00148046
-0.000826698
0.000114311
0.00152722
-0.000366946
-3.86394e-05
0.00152409
-0.000161654
2.59739e-06
0.00150551
-0.000102556
2.30937e-05
0.00149119
-2.86964e-05
2.79038e-05
0.00147653
-2.06498e-05
3.40188e-05
0.00145954
-1.41098e-05
4.22368e-05
0.00144296
-1.2005e-06
3.6991e-05
0.00145515
4.12113e-05
2.03744e-05
4.66072e-05
2.43911e-05
0.00148393
0.00124856
-0.000639087
-3.42403e-05
0.00115693
-0.000140407
-0.000171145
0.00110805
-1.4238e-05
-0.000121024
0.00106092
1.91735e-05
-9.93313e-05
0.00104285
5.76309e-05
-9.21602e-05
0.00102492
5.52205e-05
-8.00712e-05
0.00100504
6.0595e-05
-7.74248e-05
0.000992193
6.49725e-05
-7.61526e-05
0.000993872
0.000112664
-9.92257e-05
0.00010829
-9.51327e-05
0.00100342
0.000675798
8.25403e-05
0.000527923
-5.36783e-05
0.000483692
-6.02914e-06
0.00044715
1.46275e-05
0.000444997
2.06918e-05
0.000432908
3.28156e-05
0.000422787
3.55924e-05
0.000416537
3.65855e-05
0.000472836
1.32915e-05
1.76681e-05
0.000524813
0.000577766
-0.000171027
0.00109221
0.000428491
-0.000992748
0.00108829
0.000430648
-0.00111114
0.00110294
0.000386603
-0.00109413
0.00115279
0.000378707
-0.00111757
0.00114616