/*--------------------------------*- C++ -*----------------------------------*\
  =========                 |
  \\      /  F ield         | OpenFOAM: The Open Source CFD Toolbox
   \\    /   O peration     | Website:  https://openfoam.org
    \\  /    A nd           | Version:  7
     \\/     M anipulation  |
\*---------------------------------------------------------------------------*/
FoamFile
{
    version     2.0;
    format      ascii;
    class       volScalarField;
    location    "0.005";
    object      k;
}
// * * * * * * * * * * * * * * * * * * * * * * * * * * * * * * * * * * * * * //

dimensions      [0 2 -2 0 0 0 0];

internalField   nonuniform List<scalar> 
1440
(
1.18137
6.39479
16.3927
28.477
40.6258
51.2983
59.6936
65.677
69.4859
71.6337
72.3127
72.0858
71.4153
70.1219
68.6042
67.0175
65.453
63.9421
62.5075
61.1858
60.0032
58.9546
58.0163
57.1723
56.4266
55.8007
55.3148
54.9783
54.7811
54.6965
54.6914
54.7839
54.9632
55.1775
55.4223
55.6919
55.9819
56.2862
56.5992
56.9154
57.2289
57.534
57.8271
58.1066
58.3736
58.6303
58.8803
59.1272
59.3742
59.624
59.8782
60.1375
60.4019
60.6709
60.9436
61.2188
61.4953
61.7722
62.0485
62.3234
62.5964
62.867
63.135
63.4
63.6621
63.9211
64.1768
64.4294
64.6788
64.925
65.1679
65.4076
65.6442
65.8774
66.1075
66.3343
66.558
66.7784
66.9956
67.2097
67.4206
67.6283
67.8329
68.0344
68.2328
68.4282
68.6206
68.81
68.9964
69.18
69.3607
69.5387
69.7139
69.8865
70.0564
70.2239
70.3887
70.5513
70.7113
70.8694
71.0248
71.1787
71.3297
71.4798
71.6265
71.7734
71.9154
72.06
72.1963
72.3398
72.4686
72.6123
72.7307
72.8743
72.9815
73.1157
73.2213
73.3206
73.4337
73.5251
0.00256652
0.0581723
0.29251
0.863876
2.03213
3.77783
5.92338
8.21878
10.4579
12.5016
14.3007
15.8185
17.0979
18.1385
18.9491
19.5398
19.9586
20.2583
20.4634
20.6029
20.7121
20.7884
20.828
20.8611
20.9065
20.9407
20.9484
20.9439
20.9248
20.8697
20.7747
20.6659
20.5418
20.4446
20.3704
20.292
20.2673
20.2749
20.3017
20.3587
20.4512
20.5743
20.7245
20.8959
21.0815
21.2751
21.4711
21.6656
21.8563
22.0424
22.2242
22.4025
22.5787
22.7538
22.929
23.105
23.2823
23.4611
23.6415
23.8234
24.0067
24.191
24.3762
24.5622
24.7488
24.936
25.1237
25.3117
25.5001
25.6888
25.8778
26.0669
26.2563
26.4459
26.6357
26.8257
27.0158
27.2061
27.3964
27.5867
27.7771
27.9675
28.1579
28.3484
28.5386
28.729
28.919
29.1091
29.2987
29.4886
29.6776
29.8673
30.0555
30.2448
30.4322
30.6208
30.8074
30.9956
31.1808
31.3688
31.5523
31.7401
31.9216
32.1096
32.2879
32.4779
32.6511
32.8452
33.0107
33.2124
33.3671
33.5801
33.7227
33.9494
34.0812
34.3237
34.4521
34.716
34.8553
35.2561
2.15824e-05
0.000163807
0.00137623
0.00654877
0.0225669
0.0601927
0.136912
0.267662
0.437465
0.653878
0.918639
1.19912
1.48265
1.77879
2.07864
2.35995
2.61686
2.83966
3.01948
3.18462
3.35212
3.48826
3.59198
3.69103
3.77642
3.83688
3.89062
3.9352
3.94925
3.94797
3.93981
3.9194
3.8817
3.83516
3.78095
3.71851
3.64992
3.57813
3.50436
3.43043
3.35847
3.28911
3.22293
3.1607
3.1018
3.04689
2.99768
2.95395
2.91525
2.88449
2.86111
2.84228
2.8281
2.82337
2.82371
2.82601
2.83131
2.84111
2.85428
2.87016
2.88842
2.90849
2.93002
2.95268
2.97625
3.00055
3.02536
3.05064
3.07616
3.10209
3.12814
3.15444
3.18084
3.20749
3.23416
3.26111
3.28806
3.31538
3.34259
3.37018
3.3976
3.42553
3.45313
3.48144
3.5092
3.53795
3.56565
3.59491
3.62249
3.65231
3.67978
3.71002
3.73758
3.76805
3.79559
3.82645
3.85369
3.88514
3.91209
3.94395
3.9707
4.003
4.02917
4.06235
4.08753
4.12186
4.14586
4.18168
4.20413
4.24174
4.26283
4.30213
4.32256
4.36339
4.38457
4.42778
4.45076
4.49979
4.52724
4.60799
2.00992e-05
2.09927e-05
2.60352e-05
5.29295e-05
0.000164634
0.000519041
0.00145789
0.00353717
0.00777904
0.0133869
0.0240032
0.0383969
0.0547384
0.0731102
0.0950695
0.1235
0.156033
0.183685
0.203555
0.226248
0.256609
0.287294
0.310964
0.328217
0.345161
0.365533
0.383624
0.395891
0.405761
0.413015
0.414957
0.414639
0.413076
0.409429
0.403004
0.394182
0.383223
0.370463
0.356033
0.339992
0.322418
0.303433
0.283298
0.26243
0.241263
0.220366
0.200299
0.181512
0.164349
0.1491
0.135889
0.124588
0.115155
0.107517
0.101421
0.0966068
0.0929496
0.0902529
0.0883447
0.087009
0.0862916
0.0861205
0.0861385
0.0862475
0.0866194
0.0871334
0.0877423
0.0884279
0.0891491
0.0899117
0.0906844
0.0914782
0.09227
0.0930804
0.093884
0.0947094
0.0955228
0.0963647
0.097188
0.0980439
0.0988731
0.0997482
0.100584
0.101485
0.102323
0.103259
0.104082
0.105058
0.105864
0.106881
0.107679
0.108722
0.109528
0.110587
0.111391
0.112477
0.113264
0.114385
0.115162
0.116306
0.117076
0.118245
0.118991
0.120201
0.120913
0.122167
0.122851
0.124149
0.124815
0.126153
0.126837
0.128226
0.128953
0.130459
0.131285
0.133068
0.134119
0.136562
0.138033
0.142825
2.00575e-05
2.05969e-05
2.18781e-05
2.4199e-05
2.77812e-05
3.29459e-05
4.36397e-05
6.59053e-05
0.000115516
0.000199701
0.000340025
0.000632296
0.00106937
0.00150103
0.00196297
0.00283918
0.00422064
0.00548817
0.0062642
0.00693912
0.00811677
0.00997272
0.0117307
0.0126202
0.0132562
0.0144217
0.0156435
0.0165081
0.0172164
0.0178215
0.0180775
0.0180867
0.0180211
0.0178624
0.0174978
0.0169643
0.0162881
0.0154631
0.0144866
0.0133814
0.012195
0.0109846
0.00980019
0.00867583
0.00762927
0.0066678
0.00579269
0.00500236
0.00429434
0.00366597
0.00311395
0.00263379
0.00222122
0.00187199
0.00158055
0.00134132
0.00114891
0.000997264
0.000880216
0.000792166
0.000728481
0.000683966
0.00065357
0.000633896
0.000622135
0.000617487
0.00061714
0.000617741
0.000620463
0.00062474
0.000629638
0.000635047
0.000640549
0.000646209
0.000651767
0.000657433
0.000662953
0.000668625
0.000674082
0.000679744
0.000685101
0.00069082
0.000696116
0.000701996
0.000707205
0.000713334
0.000718324
0.000724727
0.000729476
0.000736168
0.00074079
0.000747631
0.000752301
0.000759215
0.000763808
0.000770875
0.00077529
0.00078254
0.00078686
0.000794202
0.00079842
0.000805872
0.000809883
0.000817468
0.000821292
0.000828939
0.000832755
0.000840467
0.000844365
0.000852339
0.000856533
0.000865378
0.000870376
0.000881443
0.000888449
0.000905051
0.000916438
0.000945278
0.00096405
0.00103104
2.00382e-05
2.05133e-05
2.18562e-05
2.37123e-05
2.64706e-05
3.19352e-05
3.71583e-05
4.11111e-05
5.02951e-05
6.28799e-05
7.02256e-05
8.23141e-05
0.000102543
0.000118197
0.000129228
0.000149504
0.000191415
0.000233624
0.000259404
0.000271678
0.000293462
0.000342638
0.000385107
0.0004114
0.000429604
0.000446659
0.00046514
0.0004842
0.000497393
0.000501163
0.000500574
0.000494347
0.000488844
0.000483008
0.000455269
0.000416242
0.000388945
0.00037732
0.000372909
0.00034704
0.000276844
0.000202657
0.000138197
0.000106594
0.000112176
0.000188844
0.000307667
0.000425226
0.000531911
0.000604234
0.000644357
0.000652244
0.000626984
0.000563186
0.000487533
0.000408696
0.000333467
0.000266089
0.000208897
0.000162445
0.000126139
9.89643e-05
7.92505e-05
6.55718e-05
5.64015e-05
5.06255e-05
4.7109e-05
4.52202e-05
4.43815e-05
4.41227e-05
4.41882e-05
4.45033e-05
4.48975e-05
4.53029e-05
4.56859e-05
4.60308e-05
4.63313e-05
4.65892e-05
4.68077e-05
4.69904e-05
4.71389e-05
4.72588e-05
4.73555e-05
4.74322e-05
4.74853e-05
4.75155e-05
4.75332e-05
4.75425e-05
4.75438e-05
4.75245e-05
4.75005e-05
4.74472e-05
4.74149e-05
4.7337e-05
4.72943e-05
4.72028e-05
4.71483e-05
4.70415e-05
4.69829e-05
4.68589e-05
4.67942e-05
4.66605e-05
4.65888e-05
4.64462e-05
4.63723e-05
4.62196e-05
4.61403e-05
4.5981e-05
4.59009e-05
4.57363e-05
4.56551e-05
4.54897e-05
4.54129e-05
4.52503e-05
4.51867e-05
4.50465e-05
4.50136e-05
4.49306e-05
4.49579e-05
4.50873e-05
2.00382e-05
2.05128e-05
2.18558e-05
2.36982e-05
2.64979e-05
3.19307e-05
3.71387e-05
4.10964e-05
5.00079e-05
6.30486e-05
7.07839e-05
8.15934e-05
0.000102098
0.000119768
0.000131529
0.000148883
0.000192087
0.000242129
0.000279644
0.000299632
0.000321151
0.000389689
0.000461951
0.000506153
0.000539008
0.000578434
0.000619362
0.000651849
0.00067947
0.000705354
0.000721122
0.000724058
0.000722676
0.000720642
0.000706024
0.000658165
0.000612933
0.000585409
0.000569747
0.000528956
0.000446904
0.000346315
0.000266552
0.000217255
0.000207871
0.000251825
0.000351702
0.000454996
0.000550547
0.000616295
0.000652435
0.000658502
0.000630482
0.000565325
0.000488995
0.000409832
0.000334456
0.000267017
0.000209807
0.000163353
0.000127051
9.98801e-05
8.01692e-05
6.64922e-05
5.73222e-05
5.15454e-05
4.80264e-05
4.61351e-05
4.52941e-05
4.50336e-05
4.50947e-05
4.5407e-05
4.57958e-05
4.61965e-05
4.65736e-05
4.69118e-05
4.72052e-05
4.74561e-05
4.76677e-05
4.78428e-05
4.79822e-05
4.80935e-05
4.81832e-05
4.82507e-05
4.82913e-05
4.83109e-05
4.83204e-05
4.83229e-05
4.83153e-05
4.82764e-05
4.82434e-05
4.81773e-05
4.81358e-05
4.80443e-05
4.79951e-05
4.78882e-05
4.78264e-05
4.77057e-05
4.76376e-05
4.74986e-05
4.74259e-05
4.72758e-05
4.71964e-05
4.70392e-05
4.69583e-05
4.67925e-05
4.67075e-05
4.65376e-05
4.64534e-05
4.62814e-05
4.61994e-05
4.60339e-05
4.59609e-05
4.58096e-05
4.5758e-05
4.56499e-05
4.56355e-05
4.56378e-05
4.56954e-05
4.59609e-05
2.00574e-05
2.05979e-05
2.18998e-05
2.42062e-05
2.7771e-05
3.29187e-05
4.35782e-05
6.57918e-05
0.000115499
0.000202353
0.000340292
0.000619931
0.00108422
0.00157381
0.00202906
0.00285688
0.00432746
0.00591066
0.00696766
0.00778031
0.00939769
0.0118979
0.0141491
0.0155386
0.0166644
0.0182757
0.0201243
0.0214939
0.0223738
0.0231806
0.0238651
0.0241443
0.0241503
0.0240503
0.0238301
0.0232288
0.0223387
0.0212585
0.0199858
0.0185225
0.0168947
0.0151554
0.0133746
0.0116232
0.00996354
0.00844255
0.00708833
0.00591244
0.00491228
0.00407561
0.00338382
0.00281651
0.00235509
0.00198218
0.00168269
0.00144478
0.00125817
0.00111395
0.00100451
0.000923775
0.000866231
0.000826044
0.000799191
0.000782069
0.000772747
0.000769743
0.000769792
0.000770886
0.000773932
0.000777974
0.000782471
0.000787286
0.000792092
0.000797018
0.000801697
0.000806468
0.000810978
0.000815535
0.000819809
0.00082426
0.000828336
0.000832716
0.000836652
0.000841002
0.00084478
0.000849194
0.0008528
0.000857266
0.000860654
0.000865205
0.000868444
0.000872963
0.000876021
0.000880431
0.000883324
0.000887701
0.000890439
0.000894857
0.000897449
0.000901893
0.000904329
0.000908811
0.000911092
0.000915644
0.000917945
0.000922617
0.000925056
0.000930105
0.000932931
0.000938848
0.000942414
0.00095027
0.000955377
0.000967116
0.000975397
0.000995394
0.00100971
0.00104631
0.0010703
0.00115556
2.00992e-05
2.09927e-05
2.60328e-05
5.2924e-05
0.000164645
0.000519228
0.00146263
0.00349587
0.00785672
0.0135188
0.0235436
0.0386384
0.0555752
0.0737583
0.0956416
0.124429
0.158613
0.190139
0.214684
0.241404
0.27645
0.313033
0.343495
0.366753
0.387887
0.411069
0.433193
0.448402
0.459192
0.468536
0.473439
0.473779
0.472883
0.47015
0.464281
0.45433
0.441574
0.426876
0.410575
0.392536
0.372363
0.349809
0.325064
0.298663
0.27148
0.244599
0.218977
0.195391
0.174443
0.156443
0.14135
0.128972
0.119159
0.111557
0.105713
0.101356
0.0982082
0.0960089
0.0944996
0.0936226
0.0933191
0.0933158
0.093399
0.0937133
0.0942022
0.0947926
0.0954502
0.0961579
0.0968886
0.0976451
0.0984088
0.099181
0.0999511
0.100733
0.101507
0.102295
0.103072
0.103866
0.104641
0.105448
0.106224
0.107045
0.10782
0.108657
0.109427
0.110287
0.111045
0.111931
0.112675
0.113588
0.114321
0.11525
0.115978
0.116917
0.117635
0.118592
0.119293
0.120275
0.120961
0.121961
0.122633
0.123653
0.124302
0.125357
0.125975
0.127073
0.127667
0.12881
0.129403
0.130593
0.131218
0.132496
0.133188
0.134638
0.135467
0.137285
0.138397
0.141032
0.142655
0.148015
2.15817e-05
0.000163723
0.00137562
0.006548
0.0225718
0.060201
0.137244
0.267596
0.437927
0.653783
0.91877
1.20122
1.48582
1.78149
2.08035
2.36573
2.63575
2.88025
3.08634
3.27469
3.46474
3.62762
3.75282
3.86543
3.96473
4.03455
4.08958
4.13798
4.16332
4.16539
4.1614
4.14939
4.12134
4.08036
4.02929
3.96761
3.89827
3.82496
3.74939
3.67278
3.59493
3.51527
3.43482
3.35398
3.27416
3.19882
3.13025
3.06863
3.01755
2.97854
2.9486
2.926
2.91441
2.91288
2.91445
2.91873
2.9284
2.94173
2.95798
2.97644
2.99676
3.01844
3.04128
3.0649
3.08924
3.1141
3.13933
3.16486
3.19067
3.21669
3.24284
3.26915
3.29552
3.32213
3.34874
3.37563
3.40241
3.42956
3.45654
3.4839
3.51105
3.53871
3.56594
3.59389
3.62118
3.64952
3.67673
3.70548
3.73258
3.76182
3.78878
3.81832
3.84524
3.87495
3.90173
3.93179
3.95827
3.98883
4.01499
4.04593
4.0718
4.10318
4.12845
4.16061
4.18494
4.21822
4.24134
4.27614
4.29778
4.33446
4.35488
4.39335
4.41344
4.4537
4.47475
4.51798
4.5413
4.59155
4.62004
4.70514
0.00256422
0.058138
0.292455
0.863833
2.03337
3.77621
5.9259
8.21792
10.4583
12.5031
14.3077
15.8238
17.0922
18.1216
18.9301
19.5371
19.9935
20.3417
20.5957
20.7818
20.9272
21.0277
21.0882
21.1342
21.1721
21.1923
21.1963
21.1933
21.1806
21.1472
21.0769
21.004
20.9203
20.839
20.7887
20.7336
20.7056
20.71
20.7296
20.773
20.8456
20.9445
21.0682
21.2137
21.3768
21.5525
21.7362
21.9236
22.1118
22.299
22.4842
22.6671
22.8484
23.0285
23.2082
23.3878
23.568
23.7489
23.9307
24.1134
24.2969
24.4812
24.6661
24.8517
25.0377
25.2242
25.4112
25.5984
25.786
25.9737
26.1617
26.3499
26.5383
26.727
26.9158
27.1047
27.2937
27.4829
27.672
27.8613
28.0505
28.2397
28.4288
28.618
28.8068
28.9959
29.1845
29.3733
29.5616
29.7501
29.9377
30.1259
30.3126
30.5003
30.6863
30.8735
31.0585
31.2452
31.4288
31.6154
31.7972
31.9837
32.1635
32.3504
32.527
32.716
32.8875
33.0809
33.245
33.4462
33.5999
33.8129
33.9546
34.1825
34.314
34.5586
34.6885
34.9569
35.0992
35.5126
1.18133
6.39379
16.392
28.4755
40.627
51.2967
59.7013
65.6947
69.543
71.698
72.4449
72.2448
71.6301
70.4158
68.9829
67.4547
65.908
64.3871
62.9272
61.5601
60.3062
59.1713
58.151
57.2412
56.4435
55.7674
55.221
54.8082
54.5222
54.3502
54.2684
54.2593
54.3293
54.4676
54.6444
54.8585
55.1066
55.3828
55.6797
55.9905
56.3083
56.6265
56.94
57.2454
57.5415
57.8284
58.1078
58.3816
58.6521
58.9214
59.1911
59.4621
59.7349
60.0096
60.2858
60.563
60.8406
61.1177
61.394
61.6687
61.9414
62.2118
62.4797
62.7448
63.0071
63.2663
63.5226
63.7758
64.0259
64.2729
64.5169
64.7577
64.9954
65.2299
65.4614
65.6897
65.9149
66.137
66.356
66.5719
66.7848
66.9946
67.2013
67.405
67.6058
67.8035
67.9983
68.1903
68.3793
68.5656
68.749
68.9298
69.1079
69.2834
69.4563
69.6268
69.7947
69.9605
70.1236
70.2848
70.4434
70.6004
70.7545
70.9076
71.0572
71.2069
71.3516
71.4985
71.6371
71.782
71.9127
72.0563
72.1763
72.3167
72.426
72.5509
72.6615
72.7408
72.8636
72.9244
)
;

boundaryField
{
    upperWall
    {
        type            fixedValue;
        value           uniform 0;
    }
    lowerWall
    {
        type            fixedValue;
        value           uniform 0;
    }
    inlet
    {
        type            fixedValue;
        value           uniform 2e-05;
    }
    outlet
    {
        type            inletOutlet;
        inletValue      uniform 0;
        value           nonuniform List<scalar> 
12
(
73.5251
35.2561
4.60799
0.142825
0.00103104
4.50873e-05
4.59609e-05
0.00115556
0.148015
4.70514
35.5126
72.9244
)
;
    }
    frontAndBack
    {
        type            empty;
    }
}


// ************************************************************************* //
