/*--------------------------------*- C++ -*----------------------------------*\
  =========                 |
  \\      /  F ield         | OpenFOAM: The Open Source CFD Toolbox
   \\    /   O peration     | Website:  https://openfoam.org
    \\  /    A nd           | Version:  7
     \\/     M anipulation  |
\*---------------------------------------------------------------------------*/
FoamFile
{
    version     2.0;
    format      ascii;
    class       surfaceScalarField;
    location    "0.135";
    object      phi;
}
// * * * * * * * * * * * * * * * * * * * * * * * * * * * * * * * * * * * * * //

dimensions      [1 0 -1 0 0 0 0];

internalField   nonuniform List<scalar> 
3120
(
2.90744e-08
3.63814e-08
1.45483e-08
1.45287e-08
7.95199e-09
6.60499e-09
4.87372e-09
3.08911e-09
3.37142e-09
1.5139e-09
2.58507e-09
7.98299e-10
2.14059e-09
4.56877e-10
1.87037e-09
2.83279e-10
1.69751e-09
1.86703e-10
1.58403e-09
1.28124e-10
1.50911e-09
9.03655e-11
1.45971e-09
6.5584e-11
1.42732e-09
4.92745e-11
1.40634e-09
3.85198e-11
1.39267e-09
3.17899e-11
1.38403e-09
2.72614e-11
1.37873e-09
2.43375e-11
1.37565e-09
2.24269e-11
1.37404e-09
2.1162e-11
1.37344e-09
2.02405e-11
1.37369e-09
1.93809e-11
1.37473e-09
1.84637e-11
1.37675e-09
1.7254e-11
1.37963e-09
1.60491e-11
1.38361e-09
1.44923e-11
1.38899e-09
1.25314e-11
1.39602e-09
1.01949e-11
1.40437e-09
8.09848e-12
1.41445e-09
5.47257e-12
1.42547e-09
3.55605e-12
1.43718e-09
1.86266e-12
1.4487e-09
1.11304e-12
1.4593e-09
1.24315e-12
1.46727e-09
3.21908e-12
1.47079e-09
6.64511e-12
1.46477e-09
1.35204e-11
1.44073e-09
2.50852e-11
1.38261e-09
4.58119e-11
1.32759e-09
4.66009e-11
3.19473e-10
4.20362e-08
4.37611e-08
2.93276e-08
2.72523e-08
1.97023e-08
1.62452e-08
1.33208e-08
9.48486e-09
9.19471e-09
5.65333e-09
6.50783e-09
3.49798e-09
4.72161e-09
2.25591e-09
3.50898e-09
1.5092e-09
2.67302e-09
1.03664e-09
2.09156e-09
7.24319e-10
1.68501e-09
5.12401e-10
1.40009e-09
3.66695e-10
1.20036e-09
2.65871e-10
1.06122e-09
1.95139e-10
9.65399e-10
1.45675e-10
9.01095e-10
1.10126e-10
8.59963e-10
8.44447e-11
8.36285e-10
6.53986e-11
8.2597e-10
5.09831e-11
8.26224e-10
3.95979e-11
8.35221e-10
2.99922e-11
8.51789e-10
2.13937e-11
8.7531e-10
1.30149e-11
9.05706e-10
4.61065e-12
9.42806e-10
-4.08088e-12
9.86817e-10
-1.34943e-11
1.03778e-09
-2.34355e-11
1.09604e-09
-3.35973e-11
1.16105e-09
-4.38502e-11
1.23287e-09
-5.35228e-11
1.31065e-09
-6.2176e-11
1.39364e-09
-6.90838e-11
1.48049e-09
-7.36114e-11
1.57003e-09
-7.49735e-11
1.65997e-09
-7.28022e-11
1.748e-09
-6.62111e-11
1.82946e-09
-5.3753e-11
1.89342e-09
-2.93771e-11
1.91035e-09
2.62095e-12
2.96965e-10
5.04178e-08
5.48646e-08
4.05934e-08
3.70928e-08
3.1564e-08
2.52921e-08
2.38953e-08
1.71699e-08
1.78816e-08
1.16814e-08
1.33842e-08
8.0087e-09
1.00923e-08
5.56095e-09
7.69833e-09
3.91652e-09
5.95708e-09
2.79189e-09
4.68671e-09
2.00937e-09
3.75565e-09
1.4588e-09
3.06971e-09
1.0686e-09
2.56185e-09
7.90297e-10
2.18457e-09
5.89569e-10
1.90486e-09
4.43083e-10
1.69836e-09
3.34808e-10
1.54808e-09
2.53324e-10
1.44194e-09
1.90473e-10
1.37056e-09
1.41518e-10
1.3273e-09
1.02148e-10
1.30739e-09
6.92121e-11
1.30738e-09
4.06416e-11
1.32487e-09
1.45745e-11
1.35835e-09
-1.00855e-11
1.40709e-09
-3.44378e-11
1.47026e-09
-5.87736e-11
1.54743e-09
-8.33109e-11
1.6383e-09
-1.079e-10
1.74218e-09
-1.31982e-10
1.85835e-09
-1.54867e-10
1.98571e-09
-1.75688e-10
2.12293e-09
-1.934e-10
2.26832e-09
-2.06927e-10
2.41999e-09
-2.15236e-10
2.57555e-09
-2.17614e-10
2.73199e-09
-2.13318e-10
2.88634e-09
-2.0232e-10
3.03681e-09
-1.8202e-10
3.16764e-09
-1.4774e-10
-2.64868e-11
5.84954e-08
6.05982e-08
5.09016e-08
4.47061e-08
4.25606e-08
3.36511e-08
3.44283e-08
2.53176e-08
2.73389e-08
1.87844e-08
2.1566e-08
1.37943e-08
1.7037e-08
1.01024e-08
1.35523e-08
7.41424e-09
1.08957e-08
5.46204e-09
8.87627e-09
4.043e-09
7.339e-09
3.01086e-09
6.16408e-09
2.25886e-09
5.26191e-09
1.70835e-09
4.56638e-09
1.30154e-09
4.02934e-09
9.97079e-10
3.6158e-09
7.65807e-10
3.29972e-09
5.87301e-10
3.06116e-09
4.47292e-10
2.88548e-09
3.35711e-10
2.76113e-09
2.4519e-10
2.67973e-09
1.69371e-10
2.63461e-09
1.04496e-10
2.62087e-09
4.69263e-11
2.63505e-09
-5.8747e-12
2.67449e-09
-5.58063e-11
2.73736e-09
-1.04002e-10
2.82217e-09
-1.51011e-10
2.92754e-09
-1.96809e-10
3.05222e-09
-2.40952e-10
3.19476e-09
-2.82549e-10
3.35343e-09
-3.20431e-10
3.52623e-09
-3.53211e-10
3.71086e-09
-3.79428e-10
3.90473e-09
-3.97674e-10
4.10486e-09
-4.06893e-10
4.30817e-09
-4.06561e-10
4.51122e-09
-3.97061e-10
4.71254e-09
-3.78718e-10
4.91355e-09
-3.50523e-10
-2.99006e-10
6.00664e-08
5.28015e-08
5.67272e-08
4.80659e-08
5.00519e-08
4.03432e-08
4.27334e-08
3.26502e-08
3.57547e-08
2.57758e-08
2.95919e-08
1.99694e-08
2.44058e-08
1.53006e-08
2.0175e-08
1.16574e-08
1.67887e-08
8.86135e-09
1.41053e-08
6.7399e-09
1.19867e-08
5.14355e-09
1.03132e-08
3.94676e-09
8.98873e-09
3.0478e-09
7.93831e-09
2.3674e-09
7.10496e-09
1.84639e-09
6.44537e-09
1.44186e-09
5.92629e-09
1.12332e-09
5.52178e-09
8.69125e-10
5.2115e-09
6.63619e-10
4.97947e-09
4.95066e-10
4.8123e-09
3.54521e-10
4.70009e-09
2.34712e-10
4.63546e-09
1.29508e-10
4.61209e-09
3.53008e-11
4.62532e-09
-5.14694e-11
4.67153e-09
-1.32988e-10
4.74781e-09
-2.10519e-10
4.85172e-09
-2.84498e-10
4.98098e-09
-3.54651e-10
5.13333e-09
-4.20111e-10
5.30639e-09
-4.79548e-10
5.49751e-09
-5.31299e-10
5.70377e-09
-5.73521e-10
5.92189e-09
-6.04396e-10
6.14824e-09
-6.2245e-10
6.37888e-09
-6.2695e-10
6.60975e-09
-6.18484e-10
6.83805e-09
-5.99077e-10
7.06494e-09
-5.71798e-10
-5.39532e-10
6.39418e-08
5.57865e-08
5.91892e-08
5.28377e-08
5.40301e-08
4.55186e-08
4.83324e-08
3.83623e-08
4.23979e-08
3.17234e-08
3.66628e-08
2.57168e-08
3.14522e-08
2.0523e-08
2.69253e-08
1.61964e-08
2.31074e-08
1.26917e-08
1.99454e-08
9.91476e-09
1.73527e-08
7.74949e-09
1.52368e-08
6.07613e-09
1.35136e-08
4.78485e-09
1.2112e-08
3.78331e-09
1.09743e-08
2.99892e-09
1.00542e-08
2.37724e-09
9.31462e-09
1.87864e-09
8.72548e-09
1.47446e-09
8.26206e-09
1.14358e-09
7.904e-09
8.69923e-10
7.63468e-09
6.40827e-10
7.44048e-09
4.45983e-10
7.30998e-09
2.77099e-10
7.23474e-09
1.27552e-10
7.20791e-09
-7.77788e-12
7.22369e-09
-1.32168e-10
7.27758e-09
-2.48156e-10
7.36578e-09
-3.56893e-10
7.48494e-09
-4.58564e-10
7.63194e-09
-5.52532e-10
7.80371e-09
-6.37497e-10
7.99706e-09
-7.11659e-10
8.20857e-09
-7.72901e-10
8.43452e-09
-8.19014e-10
8.67075e-09
-8.48053e-10
8.91271e-09
-8.58841e-10
9.15549e-09
-8.51743e-10
9.39464e-09
-8.29368e-10
9.62803e-09
-7.97257e-10
-7.65398e-10
6.02748e-08
5.46638e-08
5.86031e-08
5.45297e-08
5.57871e-08
4.83523e-08
5.19716e-08
4.21934e-08
4.74267e-08
3.62822e-08
4.25757e-08
3.05803e-08
3.78109e-08
2.52998e-08
3.33959e-08
2.06234e-08
2.94637e-08
1.66361e-08
2.60523e-08
1.33384e-08
2.3143e-08
1.06712e-08
2.06887e-08
8.54306e-09
1.86326e-08
6.85368e-09
1.69192e-08
5.50978e-09
1.54986e-08
4.43307e-09
1.43276e-08
3.56226e-09
1.33694e-08
2.85135e-09
1.25924e-08
2.26631e-09
1.19697e-08
1.78158e-09
1.1478e-08
1.37726e-09
1.10973e-08
1.03725e-09
1.08111e-08
7.48177e-10
1.06053e-08
4.9895e-10
1.04682e-08
2.80642e-10
1.03907e-08
8.56211e-11
1.03652e-08
-9.08743e-11
1.03853e-08
-2.52749e-10
1.04458e-08
-4.02245e-10
1.05423e-08
-5.40293e-10
1.06707e-08
-6.66745e-10
1.08273e-08
-7.80571e-10
1.10085e-08
-8.80046e-10
1.12105e-08
-9.6295e-10
1.14295e-08
-1.02681e-09
1.16611e-08
-1.06927e-09
1.19006e-08
-1.0886e-09
1.21427e-08
-1.08463e-09
1.23818e-08
-1.05979e-09
1.26134e-08
-1.02072e-09
-9.82939e-10
6.1294e-08
5.92917e-08
5.98182e-08
5.60257e-08
5.78162e-08
5.03727e-08
5.49632e-08
4.50626e-08
5.1438e-08
3.98216e-08
4.74904e-08
3.45408e-08
4.33872e-08
2.94153e-08
3.93605e-08
2.46622e-08
3.55782e-08
2.04302e-08
3.21403e-08
1.67881e-08
2.90894e-08
1.37338e-08
2.64282e-08
1.12159e-08
2.41356e-08
9.15794e-09
2.21794e-08
7.4779e-09
2.0524e-08
6.10074e-09
1.91346e-08
4.96433e-09
1.79789e-08
4.02026e-09
1.70269e-08
3.2318e-09
1.62518e-08
2.57069e-09
1.56289e-08
2.01439e-09
1.51366e-08
1.54408e-09
1.47557e-08
1.14367e-09
1.44701e-08
7.99379e-10
1.42659e-08
4.99666e-10
1.41313e-08
2.34985e-10
1.40572e-08
-1.98154e-12
1.40353e-08
-2.1637e-10
1.40593e-08
-4.11839e-10
1.41233e-08
-5.90338e-10
1.42226e-08
-7.52481e-10
1.43528e-08
-8.97769e-10
1.451e-08
-1.02481e-09
1.46902e-08
-1.13151e-09
1.48897e-08
-1.21536e-09
1.51043e-08
-1.27374e-09
1.53296e-08
-1.30446e-09
1.55605e-08
-1.30668e-09
1.57911e-08
-1.28217e-09
1.60157e-08
-1.23774e-09
-1.19305e-09
5.58483e-08
6.00882e-08
5.76598e-08
5.42341e-08
5.7835e-08
5.02158e-08
5.65311e-08
4.63828e-08
5.42697e-08
4.20976e-08
5.13779e-08
3.7446e-08
4.81036e-08
3.27022e-08
4.46617e-08
2.81162e-08
4.12353e-08
2.38684e-08
3.79648e-08
2.00699e-08
3.49427e-08
1.6767e-08
3.22171e-08
1.39523e-08
2.98031e-08
1.15826e-08
2.76949e-08
9.59694e-09
2.58748e-08
7.93181e-09
2.43203e-08
6.53029e-09
2.30065e-08
5.3459e-09
2.19082e-08
4.34225e-09
2.10008e-08
3.49065e-09
2.02605e-08
2.76751e-09
1.96652e-08
2.15242e-09
1.91949e-08
1.6273e-09
1.88316e-08
1.17605e-09
1.856e-08
7.8471e-10
1.83667e-08
4.41784e-10
1.82409e-08
1.37392e-10
1.81729e-08
-1.35026e-10
1.81551e-08
-3.80712e-10
1.81806e-08
-6.0286e-10
1.82439e-08
-8.03075e-10
1.83401e-08
-9.81644e-10
1.84648e-08
-1.13776e-09
1.86143e-08
-1.26976e-09
1.87848e-08
-1.37535e-09
1.89728e-08
-1.45191e-09
1.91744e-08
-1.49699e-09
1.93853e-08
-1.5092e-09
1.96004e-08
-1.48944e-09
1.98136e-08
-1.44384e-09
-1.39433e-09
5.31654e-08
5.09079e-08
5.69007e-08
5.05187e-08
5.80117e-08
4.91228e-08
5.76786e-08
4.6732e-08
5.64048e-08
4.33861e-08
5.4461e-08
3.94034e-08
5.20181e-08
3.51579e-08
4.92381e-08
3.09083e-08
4.62904e-08
2.68276e-08
4.33316e-08
2.30396e-08
4.04847e-08
1.96243e-08
3.78317e-08
1.66153e-08
3.54178e-08
1.40063e-08
3.3261e-08
1.17635e-08
3.13622e-08
9.84052e-09
2.97121e-08
8.19061e-09
2.82956e-08
6.77298e-09
2.70942e-08
5.55452e-09
2.60876e-08
4.50839e-09
2.52548e-08
3.61174e-09
2.45749e-08
2.84397e-09
2.40281e-08
2.1859e-09
2.35962e-08
1.61982e-09
2.32632e-08
1.12981e-09
2.30149e-08
7.02149e-10
2.28389e-08
3.25471e-10
2.27251e-08
-9.13389e-12
2.26646e-08
-3.08142e-10
2.26498e-08
-5.76178e-10
2.26743e-08
-8.15997e-10
2.27329e-08
-1.02887e-09
2.28209e-08
-1.21483e-09
2.29345e-08
-1.37289e-09
2.30704e-08
-1.50128e-09
2.32255e-08
-1.59771e-09
2.3397e-08
-1.6598e-09
2.35816e-08
-1.68582e-09
2.37754e-08
-1.67588e-09
2.39732e-08
-1.63485e-09
-1.58462e-09
5.74932e-08
5.03279e-08
5.84055e-08
4.96253e-08
5.89249e-08
4.8621e-08
5.88385e-08
4.68345e-08
5.81835e-08
4.40561e-08
5.69743e-08
4.06264e-08
5.52481e-08
3.68971e-08
5.30987e-08
3.30698e-08
5.06665e-08
2.9271e-08
4.81032e-08
2.56133e-08
4.55415e-08
2.21958e-08
4.30797e-08
1.90864e-08
4.07816e-08
1.63135e-08
3.86826e-08
1.38713e-08
3.67987e-08
1.17334e-08
3.51331e-08
9.8654e-09
3.36806e-08
8.23478e-09
3.24309e-08
6.81394e-09
3.13692e-08
5.57988e-09
3.04789e-08
4.51219e-09
2.97416e-08
3.59141e-09
2.91394e-08
2.79841e-09
2.86551e-08
2.11459e-09
2.82727e-08
1.52265e-09
2.79783e-08
1.00721e-09
2.77591e-08
5.5527e-10
2.76044e-08
1.56236e-10
2.75048e-08
-1.97878e-10
2.74521e-08
-5.12971e-10
2.74396e-08
-7.93038e-10
2.74614e-08
-1.04046e-09
2.75127e-08
-1.25627e-09
2.75898e-08
-1.44039e-09
2.76895e-08
-1.59186e-09
2.78094e-08
-1.70905e-09
2.79477e-08
-1.79e-09
2.81024e-08
-1.83304e-09
2.82711e-08
-1.83776e-09
2.84501e-08
-1.80747e-09
-1.76193e-09
6.24172e-08
5.18081e-08
6.13713e-08
5.06901e-08
6.08018e-08
4.9208e-08
6.04302e-08
4.72223e-08
5.99569e-08
4.45443e-08
5.91548e-08
4.14425e-08
5.79238e-08
3.81409e-08
5.62839e-08
3.47214e-08
5.4332e-08
3.12336e-08
5.2194e-08
2.77613e-08
4.99889e-08
2.441e-08
4.78122e-08
2.12718e-08
4.57314e-08
1.84026e-08
4.379e-08
1.58209e-08
4.20136e-08
1.35179e-08
4.04154e-08
1.14718e-08
3.89995e-08
9.65906e-09
3.7763e-08
8.05889e-09
3.66981e-08
6.6535e-09
3.57928e-08
5.42626e-09
3.5033e-08
4.36008e-09
3.44034e-08
3.43683e-09
3.38891e-08
2.63792e-09
3.34755e-08
1.94529e-09
3.31493e-08
1.34243e-09
3.28986e-08
8.15066e-10
3.27126e-08
3.51423e-10
3.25819e-08
-5.80301e-11
3.24982e-08
-4.20153e-10
3.24544e-08
-7.40163e-10
3.24444e-08
-1.02156e-09
3.24634e-08
-1.26649e-09
3.25074e-08
-1.47593e-09
3.25736e-08
-1.64994e-09
3.26601e-08
-1.78783e-09
3.27659e-08
-1.88844e-09
3.28902e-08
-1.95058e-09
3.30325e-08
-1.97375e-09
3.31907e-08
-1.95985e-09
-1.9249e-09
6.31679e-08
5.19704e-08
6.2527e-08
5.135e-08
6.2034e-08
4.97183e-08
6.17379e-08
4.75345e-08
6.14283e-08
4.48688e-08
6.08897e-08
4.19948e-08
6.00058e-08
3.90372e-08
5.8773e-08
3.59655e-08
5.72576e-08
3.27593e-08
5.55532e-08
2.94752e-08
5.37519e-08
2.62201e-08
5.1931e-08
2.31008e-08
5.015e-08
2.01914e-08
4.84519e-08
1.75266e-08
4.68667e-08
1.51105e-08
4.54142e-08
1.29317e-08
4.41058e-08
1.09749e-08
4.29458e-08
9.2265e-09
4.19323e-08
7.6746e-09
4.10589e-08
6.30723e-09
4.03161e-08
5.11052e-09
3.96923e-08
4.06817e-09
3.91755e-08
3.16232e-09
3.87535e-08
2.37484e-09
3.84149e-08
1.68867e-09
3.81489e-08
1.0887e-09
3.79454e-08
5.62601e-10
3.77957e-08
9.9282e-11
3.76917e-08
-3.08472e-10
3.76263e-08
-6.67083e-10
3.75933e-08
-9.81061e-10
3.75879e-08
-1.25362e-09
3.76061e-08
-1.4869e-09
3.76453e-08
-1.68209e-09
3.77038e-08
-1.83966e-09
3.77813e-08
-1.95954e-09
3.78781e-08
-2.04143e-09
3.79951e-08
-2.08524e-09
3.81324e-08
-2.09199e-09
-2.07315e-09
6.67107e-08
5.53276e-08
6.46196e-08
5.34597e-08
6.34082e-08
5.09467e-08
6.27813e-08
4.81771e-08
6.24242e-08
4.52404e-08
6.20229e-08
4.24094e-08
6.14036e-08
3.96685e-08
6.05285e-08
3.68516e-08
5.94319e-08
3.38658e-08
5.81721e-08
3.07441e-08
5.68083e-08
2.75924e-08
5.53935e-08
2.45234e-08
5.3973e-08
2.16193e-08
5.25844e-08
1.89223e-08
5.12583e-08
1.64435e-08
5.00181e-08
1.41786e-08
4.88805e-08
1.21192e-08
4.78553e-08
1.02585e-08
4.6946e-08
8.59054e-09
4.61514e-08
7.10843e-09
4.54665e-08
5.80192e-09
4.48839e-08
4.65711e-09
4.43952e-08
3.65738e-09
4.39911e-08
2.78513e-09
4.36627e-08
2.02332e-09
4.34009e-08
1.35665e-09
4.31976e-08
7.72094e-10
4.30443e-08
2.58799e-10
4.29339e-08
-1.9187e-10
4.28596e-08
-5.86599e-10
4.28156e-08
-9.30842e-10
4.27968e-08
-1.2288e-09
4.27996e-08
-1.48368e-09
4.28212e-08
-1.69791e-09
4.28603e-08
-1.87321e-09
4.29169e-08
-2.01079e-09
4.2992e-08
-2.11153e-09
4.30877e-08
-2.17629e-09
4.32059e-08
-2.20588e-09
-2.20748e-09
6.64171e-08
5.84908e-08
6.46109e-08
5.52836e-08
6.34707e-08
5.21034e-08
6.28867e-08
4.87765e-08
6.26298e-08
4.55115e-08
6.24122e-08
4.264e-08
6.20726e-08
4.00198e-08
6.15655e-08
3.73694e-08
6.08992e-08
3.45417e-08
6.0099e-08
3.15532e-08
5.91937e-08
2.85058e-08
5.82135e-08
2.55112e-08
5.71896e-08
2.26503e-08
5.61532e-08
1.99654e-08
5.51334e-08
1.74696e-08
5.41555e-08
1.51628e-08
5.32388e-08
1.30419e-08
5.23971e-08
1.11062e-08
5.16381e-08
9.3554e-09
5.09648e-08
7.78745e-09
5.03764e-08
6.39577e-09
4.98699e-08
5.16901e-09
4.94402e-08
4.09218e-09
4.90818e-08
3.14863e-09
4.87881e-08
2.32188e-09
4.85528e-08
1.59688e-09
4.8369e-08
9.60686e-10
4.82301e-08
4.02556e-10
4.81297e-08
-8.66287e-11
4.80617e-08
-5.1379e-10
4.80206e-08
-8.85003e-10
4.80018e-08
-1.20528e-09
4.80016e-08
-1.47882e-09
4.80174e-08
-1.70919e-09
4.8048e-08
-1.89938e-09
4.80934e-08
-2.05197e-09
4.8155e-08
-2.16922e-09
4.82357e-08
-2.25327e-09
4.83387e-08
-2.30549e-09
-2.32992e-09
5.74724e-08
4.84564e-08
6.05296e-08
5.22436e-08
6.12496e-08
5.13996e-08
6.16006e-08
4.84405e-08
6.18673e-08
4.52587e-08
6.20347e-08
4.24853e-08
6.20771e-08
3.99888e-08
6.19898e-08
3.74671e-08
6.17761e-08
3.47649e-08
6.14417e-08
3.18963e-08
6.09957e-08
2.89599e-08
6.04531e-08
2.60612e-08
5.98356e-08
2.32747e-08
5.91692e-08
2.06382e-08
5.8481e-08
1.81639e-08
5.77959e-08
1.58537e-08
5.71344e-08
1.3709e-08
5.65119e-08
1.1734e-08
5.5939e-08
9.9335e-09
5.54218e-08
8.30959e-09
5.49632e-08
6.859e-09
5.45638e-08
5.57283e-09
5.42223e-08
4.43786e-09
5.39362e-08
3.43872e-09
5.3702e-08
2.55987e-09
5.35156e-08
1.787e-09
5.33722e-08
1.10767e-09
5.32666e-08
5.11693e-10
5.31938e-08
-1.02953e-11
5.31485e-08
-4.6497e-10
5.31258e-08
-8.58863e-10
5.31215e-08
-1.19755e-09
5.31321e-08
-1.48605e-09
5.31552e-08
-1.72893e-09
5.31894e-08
-1.93038e-09
5.32348e-08
-2.09431e-09
5.32928e-08
-2.22439e-09
5.33665e-08
-2.32425e-09
5.34599e-08
-2.39645e-09
-2.4436e-09
5.89143e-08
5.30862e-08
5.86435e-08
5.25312e-08
5.93495e-08
5.07095e-08
6.01129e-08
4.76919e-08
6.07702e-08
4.4615e-08
6.13008e-08
4.19671e-08
6.17221e-08
3.95789e-08
6.20426e-08
3.71569e-08
6.22573e-08
3.45596e-08
6.23574e-08
3.18047e-08
6.23395e-08
2.89857e-08
6.22094e-08
2.61985e-08
6.19826e-08
2.35082e-08
6.16809e-08
2.0946e-08
6.13283e-08
1.85221e-08
6.09478e-08
1.62396e-08
6.05589e-08
1.41031e-08
6.0177e-08
1.21207e-08
5.98138e-08
1.03012e-08
5.94777e-08
8.64995e-09
5.91743e-08
7.16624e-09
5.89074e-08
5.84333e-09
5.86789e-08
4.66977e-09
5.8489e-08
3.63164e-09
5.8337e-08
2.71467e-09
5.82211e-08
1.90565e-09
5.81382e-08
1.19307e-09
5.80851e-08
5.67281e-10
5.80575e-08
1.96698e-11
5.80514e-08
-4.56585e-10
5.80627e-08
-8.67919e-10
5.80877e-08
-1.22031e-09
5.81232e-08
-1.51935e-09
5.81668e-08
-1.77045e-09
5.82172e-08
-1.97881e-09
5.82744e-08
-2.14955e-09
5.83395e-08
-2.28767e-09
5.84152e-08
-2.39833e-09
5.85058e-08
-2.48559e-09
-2.55258e-09
5.69798e-08
5.44092e-08
5.74184e-08
5.21095e-08
5.83035e-08
4.98401e-08
5.91866e-08
4.68233e-08
5.99743e-08
4.38407e-08
6.06924e-08
4.12613e-08
6.13681e-08
3.89143e-08
6.19973e-08
3.65379e-08
6.25554e-08
3.40108e-08
6.30163e-08
3.13523e-08
6.33644e-08
2.86453e-08
6.35976e-08
2.59723e-08
6.37254e-08
2.33868e-08
6.37644e-08
2.09129e-08
6.37341e-08
1.85579e-08
6.36533e-08
1.63254e-08
6.35389e-08
1.42222e-08
6.34048e-08
1.22591e-08
6.32627e-08
1.04473e-08
6.31222e-08
8.79414e-09
6.29908e-08
7.30084e-09
6.28747e-08
5.96237e-09
6.27782e-08
4.76888e-09
6.27041e-08
3.70804e-09
6.26537e-08
2.76707e-09
6.26271e-08
1.9341e-09
6.2623e-08
1.19877e-09
6.26394e-08
5.52359e-10
6.26736e-08
-1.31087e-11
6.27223e-08
-5.04038e-10
6.27824e-08
-9.26796e-10
6.28506e-08
-1.28747e-09
6.29244e-08
-1.59204e-09
6.30014e-08
-1.84649e-09
6.30803e-08
-2.05683e-09
6.31608e-08
-2.22915e-09
6.32435e-08
-2.36963e-09
6.33306e-08
-2.4848e-09
6.34258e-08
-2.58029e-09
-2.66142e-09
5.2597e-08
4.7588e-08
5.58805e-08
4.88425e-08
5.75546e-08
4.81816e-08
5.86981e-08
4.56942e-08
5.95901e-08
4.2962e-08
6.04019e-08
4.04616e-08
6.12167e-08
3.81105e-08
6.2039e-08
3.57256e-08
6.28343e-08
3.32246e-08
6.35639e-08
3.0631e-08
6.42015e-08
2.80153e-08
6.47365e-08
2.54441e-08
6.51709e-08
2.29585e-08
6.55145e-08
2.0575e-08
6.578e-08
1.82975e-08
6.5981e-08
1.61291e-08
6.61302e-08
1.40773e-08
6.62392e-08
1.21541e-08
6.63186e-08
1.03714e-08
6.63784e-08
8.73751e-09
6.64272e-08
7.2547e-09
6.64728e-08
5.91914e-09
6.65212e-08
4.72245e-09
6.65769e-08
3.65393e-09
6.66429e-08
2.7024e-09
6.67206e-08
1.85747e-09
6.68102e-08
1.11008e-09
6.69107e-08
4.52498e-10
6.70206e-08
-1.22431e-10
6.71375e-08
-6.20638e-10
6.72593e-08
-1.04825e-09
6.73833e-08
-1.41129e-09
6.75072e-08
-1.7159e-09
6.76291e-08
-1.96841e-09
6.77476e-08
-2.17536e-09
6.78619e-08
-2.34356e-09
6.79721e-08
-2.48006e-09
6.80795e-08
-2.59251e-09
6.81867e-08
-2.68793e-09
-2.77478e-09
6.0929e-08
5.90355e-08
5.82383e-08
5.15501e-08
5.82731e-08
4.81624e-08
5.89207e-08
4.50609e-08
5.96794e-08
4.22163e-08
6.04816e-08
3.96713e-08
6.13455e-08
3.72573e-08
6.22645e-08
3.48165e-08
6.32015e-08
3.22965e-08
6.41132e-08
2.97275e-08
6.49657e-08
2.717e-08
6.57402e-08
2.46762e-08
6.64298e-08
2.22749e-08
6.70356e-08
1.99745e-08
6.7563e-08
1.77749e-08
6.8019e-08
1.56774e-08
6.84118e-08
1.36885e-08
6.87499e-08
1.18195e-08
6.90426e-08
1.00818e-08
6.92993e-08
8.4835e-09
6.95291e-08
7.02713e-09
6.97404e-08
5.70965e-09
6.99403e-08
4.52399e-09
7.01343e-08
3.46101e-09
7.03263e-08
2.51115e-09
7.05187e-08
1.66556e-09
7.07125e-08
9.16487e-10
7.0908e-08
2.57071e-10
7.11041e-08
-3.18797e-10
7.12998e-08
-8.16697e-10
7.14934e-08
-1.24236e-09
7.16831e-08
-1.60162e-09
7.1867e-08
-1.90056e-09
7.20434e-08
-2.14561e-09
7.22106e-08
-2.34356e-09
7.23676e-08
-2.50159e-09
7.25138e-08
-2.62733e-09
7.26493e-08
-2.72919e-09
7.27753e-08
-2.81522e-09
-2.89697e-09
5.62665e-08
5.35439e-08
5.78339e-08
5.00002e-08
5.8505e-08
4.7507e-08
5.92472e-08
4.4333e-08
6.00396e-08
4.14367e-08
6.08604e-08
3.88622e-08
6.17442e-08
3.6384e-08
6.27041e-08
3.38661e-08
6.37178e-08
3.12914e-08
6.47466e-08
2.87064e-08
6.57541e-08
2.61695e-08
6.67138e-08
2.37228e-08
6.76101e-08
2.13842e-08
6.84355e-08
1.91542e-08
6.91876e-08
1.70274e-08
6.98674e-08
1.50016e-08
7.04783e-08
1.30811e-08
7.1026e-08
1.12749e-08
7.15178e-08
9.5927e-09
7.19621e-08
8.04144e-09
7.23677e-08
6.62327e-09
7.27431e-08
5.33564e-09
7.30955e-08
4.17258e-09
7.34308e-08
3.12638e-09
7.37532e-08
2.18903e-09
7.40657e-08
1.35306e-09
7.43698e-08
6.12085e-10
7.46666e-08
-4.02665e-11
7.49559e-08
-6.08834e-10
7.52372e-08
-1.099e-09
7.55097e-08
-1.516e-09
7.57722e-08
-1.86536e-09
7.60231e-08
-2.15293e-09
7.62609e-08
-2.38497e-09
7.64839e-08
-2.56821e-09
7.66904e-08
-2.70992e-09
7.68791e-08
-2.81788e-09
7.70488e-08
-2.90089e-09
7.71992e-08
-2.96758e-09
-3.03136e-09
6.55463e-08
5.68428e-08
6.18745e-08
5.36895e-08
6.05599e-08
4.88371e-08
6.04844e-08
4.44224e-08
6.09234e-08
4.10102e-08
6.159e-08
3.82069e-08
6.24105e-08
3.55736e-08
6.33624e-08
3.29234e-08
6.44138e-08
3.02482e-08
6.5522e-08
2.76056e-08
6.6645e-08
2.50532e-08
6.77494e-08
2.26244e-08
6.8812e-08
2.03269e-08
6.98181e-08
1.81528e-08
7.07591e-08
1.60905e-08
7.16309e-08
1.41335e-08
7.24331e-08
1.22822e-08
7.31683e-08
1.05425e-08
7.38419e-08
8.92142e-09
7.44609e-08
7.42425e-09
7.50333e-08
6.05232e-09
7.55667e-08
4.80325e-09
7.6068e-08
3.67194e-09
7.65427e-08
2.65192e-09
7.69952e-08
1.7365e-09
7.74284e-08
9.19453e-10
7.78446e-08
1.9518e-10
7.82448e-08
-4.41483e-10
7.86299e-08
-9.95162e-10
7.90001e-08
-1.47059e-09
7.9355e-08
-1.87257e-09
7.9694e-08
-2.2062e-09
8.00159e-08
-2.47688e-09
8.03193e-08
-2.6905e-09
8.06022e-08
-2.85341e-09
8.08624e-08
-2.9726e-09
8.10977e-08
-3.0557e-09
8.13056e-08
-3.11141e-09
8.14839e-08
-3.14861e-09
-3.17992e-09
6.83103e-08
6.45947e-08
6.3862e-08
5.81548e-08
6.21409e-08
5.05734e-08
6.17201e-08
4.48566e-08
6.19117e-08
4.08306e-08
6.24459e-08
3.76836e-08
6.32212e-08
3.4808e-08
6.41845e-08
3.19689e-08
6.52852e-08
2.91553e-08
6.64713e-08
2.64265e-08
6.76958e-08
2.3835e-08
6.89217e-08
2.14042e-08
7.01219e-08
1.91317e-08
7.12779e-08
1.70012e-08
7.23773e-08
1.49949e-08
7.34127e-08
1.31014e-08
7.43808e-08
1.1317e-08
7.52819e-08
9.64378e-09
7.61194e-08
8.0859e-09
7.68987e-08
6.64645e-09
7.76263e-08
5.3258e-09
7.83088e-08
4.12152e-09
7.89519e-08
3.02912e-09
7.95606e-08
2.04313e-09
8.01389e-08
1.15786e-09
8.06896e-08
3.67977e-10
8.12152e-08
-3.31444e-10
8.17173e-08
-9.44868e-10
8.21971e-08
-1.47659e-09
8.26555e-08
-1.93082e-09
8.30928e-08
-2.31188e-09
8.35086e-08
-2.6243e-09
8.39021e-08
-2.87287e-09
8.42718e-08
-3.06283e-09
8.46155e-08
-3.1999e-09
8.49305e-08
-3.29047e-09
8.52134e-08
-3.34167e-09
8.54604e-08
-3.36163e-09
8.56678e-08
-3.35929e-09
-3.34249e-09
6.29423e-08
6.16827e-08
6.29242e-08
5.8189e-08
6.25274e-08
5.09845e-08
6.23899e-08
4.50068e-08
6.26281e-08
4.06038e-08
6.32055e-08
3.71164e-08
6.40574e-08
3.39653e-08
6.51171e-08
3.09175e-08
6.63208e-08
2.7959e-08
6.76124e-08
2.51416e-08
6.8946e-08
2.25073e-08
7.02868e-08
2.00687e-08
7.16092e-08
1.78139e-08
7.28949e-08
1.57195e-08
7.41306e-08
1.37628e-08
7.53075e-08
1.19276e-08
7.64206e-08
1.02065e-08
7.74686e-08
8.59781e-09
7.84534e-08
7.10277e-09
7.93787e-08
5.72237e-09
8.02494e-08
4.45596e-09
8.10704e-08
3.30093e-09
8.18463e-08
2.25321e-09
8.25812e-08
1.30797e-09
8.32782e-08
4.60206e-10
8.39401e-08
-2.94991e-10
8.45694e-08
-9.62054e-10
8.51682e-08
-1.5452e-09
8.57381e-08
-2.04837e-09
8.62805e-08
-2.47536e-09
8.67962e-08
-2.82994e-09
8.72852e-08
-3.11593e-09
8.77469e-08
-3.33735e-09
8.81796e-08
-3.49853e-09
8.85808e-08
-3.60433e-09
8.89473e-08
-3.66026e-09
8.92748e-08
-3.67264e-09
8.95581e-08
-3.64855e-09
8.97922e-08
-3.59713e-09
-3.51614e-09
5.30769e-08
5.89261e-08
5.75892e-08
5.36911e-08
6.01367e-08
4.84502e-08
6.15879e-08
4.35675e-08
6.26551e-08
3.95472e-08
6.3698e-08
3.60832e-08
6.48532e-08
3.28187e-08
6.61358e-08
2.96427e-08
6.75152e-08
2.65865e-08
6.89534e-08
2.37095e-08
7.04173e-08
2.1049e-08
7.18808e-08
1.861e-08
7.33243e-08
1.63746e-08
7.47323e-08
1.43153e-08
7.60929e-08
1.24054e-08
7.73976e-08
1.06257e-08
7.86411e-08
8.96519e-09
7.98216e-08
7.41907e-09
8.09399e-08
5.98585e-09
8.19985e-08
4.66481e-09
8.30005e-08
3.45451e-09
8.39494e-08
2.35221e-09
8.48482e-08
1.35415e-09
8.56998e-08
4.55859e-10
8.65066e-08
-3.47517e-10
8.72711e-08
-1.06067e-09
8.79956e-08
-1.68811e-09
8.86826e-08
-2.23397e-09
8.93342e-08
-2.70204e-09
8.99522e-08
-3.09574e-09
9.05379e-08
-3.41823e-09
9.10916e-08
-3.6725e-09
9.16127e-08
-3.86158e-09
9.20997e-08
-3.98877e-09
9.25497e-08
-4.05782e-09
9.29589e-08
-4.07314e-09
9.33225e-08
-4.04003e-09
9.3634e-08
-3.96404e-09
9.38878e-08
-3.85499e-09
-3.69428e-09
5.96126e-08
5.87017e-08
5.95609e-08
5.37563e-08
6.05862e-08
4.74371e-08
6.17517e-08
4.24131e-08
6.2964e-08
3.83447e-08
6.42928e-08
3.47632e-08
6.57418e-08
3.13777e-08
6.72806e-08
2.8111e-08
6.88745e-08
2.4999e-08
7.04939e-08
2.20958e-08
7.21161e-08
1.94318e-08
7.37234e-08
1.70071e-08
7.53015e-08
1.48005e-08
7.68384e-08
1.27817e-08
7.83244e-08
1.09221e-08
7.97528e-08
9.1997e-09
8.11196e-08
7.6004e-09
8.24234e-08
6.11674e-09
8.36651e-08
4.74526e-09
8.48464e-08
3.48426e-09
8.59691e-08
2.33213e-09
8.70354e-08
1.2859e-09
8.80466e-08
3.4255e-10
8.90042e-08
-5.02518e-10
8.99098e-08
-1.25421e-09
9.07654e-08
-1.9176e-09
9.15731e-08
-2.49756e-09
9.23357e-08
-2.99851e-09
9.30556e-08
-3.42427e-09
9.37353e-08
-3.77795e-09
9.43763e-08
-4.06208e-09
9.49795e-08
-4.27871e-09
9.55444e-08
-4.42979e-09
9.60696e-08
-4.51737e-09
9.65521e-08
-4.54402e-09
9.69879e-08
-4.51286e-09
9.73719e-08
-4.4281e-09
9.76969e-08
-4.2933e-09
9.79573e-08
-4.11972e-09
-3.86588e-09
5.86736e-08
5.51591e-08
5.97988e-08
5.26437e-08
6.0679e-08
4.65681e-08
6.18623e-08
4.12398e-08
6.3315e-08
3.6901e-08
6.49632e-08
3.31231e-08
6.67278e-08
2.96203e-08
6.85494e-08
2.6296e-08
7.03907e-08
2.31635e-08
7.22284e-08
2.02632e-08
7.40461e-08
1.76187e-08
7.58304e-08
1.52268e-08
7.75699e-08
1.30645e-08
7.92548e-08
1.10999e-08
8.08779e-08
9.30157e-09
8.2435e-08
7.64466e-09
8.39248e-08
6.11231e-09
8.53479e-08
4.69489e-09
8.67061e-08
3.38791e-09
8.80014e-08
2.1895e-09
8.92342e-08
1.09945e-09
9.04062e-08
1.13581e-10
9.1517e-08
-7.68804e-10
9.25667e-08
-1.55312e-09
9.35559e-08
-2.24463e-09
9.44859e-08
-2.84916e-09
9.53589e-08
-3.37238e-09
9.61776e-08
-3.81935e-09
9.69451e-08
-4.19414e-09
9.76641e-08
-4.4997e-09
9.8337e-08
-4.73792e-09
9.89651e-08
-4.90992e-09
9.95483e-08
-5.01645e-09
1.00086e-07
-5.05831e-09
1.00574e-07
-5.03679e-09
1.01011e-07
-4.95369e-09
1.01391e-07
-4.8121e-09
1.01707e-07
-4.61332e-09
1.01953e-07
-4.3709e-09
-4.01486e-09
6.50267e-08
6.25459e-08
6.19802e-08
5.57007e-08
6.1578e-08
4.698e-08
6.24399e-08
4.03868e-08
6.39742e-08
3.53747e-08
6.5854e-08
3.12506e-08
6.78902e-08
2.75906e-08
6.99856e-08
2.42064e-08
7.20919e-08
2.10625e-08
7.41815e-08
1.81782e-08
7.62348e-08
1.55695e-08
7.82356e-08
1.32297e-08
8.01705e-08
1.11328e-08
8.20298e-08
9.24317e-09
8.38085e-08
7.52515e-09
8.55053e-08
5.94966e-09
8.71223e-08
4.49668e-09
8.86632e-08
3.15506e-09
9.01315e-08
1.92021e-09
9.15298e-08
7.91468e-10
9.28601e-08
-2.30888e-10
9.41208e-08
-1.14749e-09
9.53115e-08
-1.96031e-09
9.64313e-08
-2.67391e-09
9.74796e-08
-3.2944e-09
9.84575e-08
-3.82873e-09
9.9367e-08
-4.2838e-09
1.00211e-07
-4.66564e-09
1.00993e-07
-4.97886e-09
1.01717e-07
-5.22643e-09
1.02386e-07
-5.4097e-09
1.03002e-07
-5.52888e-09
1.03565e-07
-5.58356e-09
1.04076e-07
-5.57331e-09
1.04534e-07
-5.49819e-09
1.04935e-07
-5.35878e-09
1.05275e-07
-5.15713e-09
1.05549e-07
-4.89214e-09
1.05754e-07
-4.58039e-09
-4.12026e-09
5.46077e-08
5.44213e-08
5.91794e-08
5.11383e-08
6.12837e-08
4.48841e-08
6.30245e-08
3.86537e-08
6.49296e-08
3.34767e-08
6.70458e-08
2.91407e-08
6.93157e-08
2.53265e-08
7.16704e-08
2.1857e-08
7.40545e-08
1.8683e-08
7.64262e-08
1.58106e-08
7.87523e-08
1.32471e-08
8.10062e-08
1.09789e-08
8.31688e-08
8.97299e-09
8.52284e-08
7.18583e-09
8.71809e-08
5.57456e-09
8.9028e-08
4.10412e-09
9.0775e-08
2.75083e-09
9.24287e-08
1.50211e-09
9.39951e-08
3.54276e-10
9.54785e-08
-6.91874e-10
9.68804e-08
-1.63305e-09
9.82003e-08
-2.46796e-09
9.94369e-08
-3.19781e-09
1.00589e-07
-3.82695e-09
1.01655e-07
-4.36237e-09
1.02637e-07
-4.81243e-09
1.03537e-07
-5.1856e-09
1.04358e-07
-5.4892e-09
1.05105e-07
-5.72866e-09
1.05783e-07
-5.90708e-09
1.06396e-07
-6.02547e-09
1.06947e-07
-6.08321e-09
1.07438e-07
-6.07883e-09
1.07872e-07
-6.01079e-09
1.08248e-07
-5.87812e-09
1.08565e-07
-5.68034e-09
1.08822e-07
-5.41866e-09
1.09015e-07
-5.08982e-09
1.09143e-07
-4.71342e-09
-4.15753e-09
5.55727e-08
5.32533e-08
5.87722e-08
4.79462e-08
6.15199e-08
4.21435e-08
6.38303e-08
3.63498e-08
6.60915e-08
3.12214e-08
6.84839e-08
2.67539e-08
7.10325e-08
2.27829e-08
7.36903e-08
1.92036e-08
7.63939e-08
1.59834e-08
7.90851e-08
1.31231e-08
8.17155e-08
1.06198e-08
8.42485e-08
8.44875e-09
8.66588e-08
6.56506e-09
8.89325e-08
4.91406e-09
9.10656e-08
3.44307e-09
9.30617e-08
2.10934e-09
9.49282e-08
8.85222e-10
9.66749e-08
-2.44063e-10
9.83101e-08
-1.28067e-09
9.98395e-08
-2.22133e-09
1.01266e-07
-3.06034e-09
1.02592e-07
-3.79387e-09
1.03815e-07
-4.42182e-09
1.04935e-07
-4.94848e-09
1.05952e-07
-5.3817e-09
1.0687e-07
-5.73142e-09
1.0769e-07
-6.00779e-09
1.08417e-07
-6.2196e-09
1.09059e-07
-6.37316e-09
1.09621e-07
-6.47188e-09
1.10109e-07
-6.51644e-09
1.10528e-07
-6.50554e-09
1.10882e-07
-6.43686e-09
1.11175e-07
-6.30794e-09
1.1141e-07
-6.11703e-09
1.11588e-07
-5.86291e-09
1.11711e-07
-5.54618e-09
1.11779e-07
-5.16208e-09
1.11793e-07
-4.73218e-09
-4.10169e-09
5.61264e-08
5.1171e-08
5.9128e-08
4.49507e-08
6.20673e-08
3.92101e-08
6.47149e-08
3.37077e-08
6.73649e-08
2.85765e-08
7.01722e-08
2.39511e-08
7.31397e-08
1.98196e-08
7.62053e-08
1.61418e-08
7.92946e-08
1.28975e-08
8.23407e-08
1.00799e-08
8.529e-08
7.67313e-09
8.81026e-08
5.63853e-09
9.07516e-08
3.918e-09
9.32231e-08
2.44424e-09
9.55122e-08
1.15523e-09
9.76239e-08
-1.32261e-12
9.95672e-08
-1.05741e-09
1.01353e-07
-2.02916e-09
1.02991e-07
-2.91928e-09
1.04492e-07
-3.72209e-09
1.0586e-07
-4.42939e-09
1.07101e-07
-5.03498e-09
1.08215e-07
-5.53746e-09
1.09206e-07
-5.94089e-09
1.10077e-07
-6.25395e-09
1.10831e-07
-6.48797e-09
1.11476e-07
-6.65461e-09
1.12017e-07
-6.76391e-09