/*--------------------------------*- C++ -*----------------------------------*\
  =========                 |
  \\      /  F ield         | OpenFOAM: The Open Source CFD Toolbox
   \\    /   O peration     | Website:  https://openfoam.org
    \\  /    A nd           | Version:  7
     \\/     M anipulation  |
\*---------------------------------------------------------------------------*/
FoamFile
{
    version     2.0;
    format      ascii;
    class       volScalarField;
    location    "2.3125";
    object      alphat;
}
// * * * * * * * * * * * * * * * * * * * * * * * * * * * * * * * * * * * * * //

dimensions      [1 -1 -1 0 0 0 0];

internalField   nonuniform List<scalar> 
4950
(
0.0108297
0.0115336
0.0115587
0.0115662
0.0115613
0.0115629
0.0115575
0.0115576
0.0115528
0.0115527
0.0115489
0.011549
0.011546
0.0115462
0.0115438
0.0115439
0.0115429
0.0115414
0.011547
0.0115797
0.00569529
0.00606736
0.006027
0.0059138
0.00582981
0.00578686
0.00575719
0.00574326
0.00572924
0.00572279
0.00571389
0.00571002
0.00570359
0.00570108
0.00569641
0.00569462
0.00569456
0.00568857
0.00574232
0.00576203
0.0045282
0.00501743
0.00512652
0.00515257
0.00515732
0.0051637
0.00516557
0.00516936
0.00517051
0.00517307
0.00517355
0.00517513
0.00517515
0.00517628
0.00517589
0.00517697
0.00517621
0.00517713
0.00517816
0.00518944
0.00442676
0.00491373
0.0050413
0.00509101
0.00511426
0.00513431
0.00514584
0.00515913
0.00516651
0.00517641
0.00518152
0.00518927
0.00519291
0.00519914
0.00520178
0.00520672
0.00520891
0.00521211
0.00521439
0.00522401
0.00441297
0.00490475
0.00503372
0.00508546
0.00511023
0.00513177
0.00514475
0.00515959
0.00516857
0.00518016
0.00518697
0.0051964
0.00520172
0.00520948
0.00521371
0.00522
0.00522364
0.00522827
0.00523138
0.00524186
0.00442676
0.00491373
0.0050413
0.00509101
0.00511426
0.00513431
0.00514584
0.00515913
0.00516651
0.00517641
0.00518152
0.00518927
0.00519291
0.00519914
0.00520179
0.00520672
0.00520892
0.00521209
0.00521449
0.005224
0.0045282
0.00501743
0.00512652
0.00515257
0.00515732
0.0051637
0.00516558
0.00516936
0.00517052
0.00517307
0.00517356
0.00517511
0.00517517
0.00517625
0.00517595
0.0051769
0.00517634
0.00517689
0.0051786
0.00518895
0.00569529
0.00606736
0.006027
0.0059138
0.00582981
0.00578686
0.00575719
0.00574326
0.00572923
0.00572279
0.00571388
0.00571002
0.00570358
0.00570104
0.00569642
0.00569449
0.00569466
0.00568829
0.00574237
0.00576001
0.0108297
0.0115336
0.0115587
0.0115662
0.0115612
0.0115629
0.0115575
0.0115576
0.0115528
0.0115527
0.0115489
0.011549
0.0115459
0.0115462
0.0115437
0.011544
0.0115427
0.0115418
0.0115465
0.0115798
0.00425168
0.00511277
0.00522195
0.00520387
0.0051887
0.00516536
0.00515921
0.0051456
0.00514283
0.0051339
0.00513237
0.0051259
0.005125
0.00511999
0.00511959
0.0051152
0.00511568
0.0051105
0.00510781
0.00513452
0.00366676
0.00464551
0.00483629
0.00487612
0.00488505
0.00488954
0.00489163
0.00489412
0.00489515
0.00489665
0.00489706
0.00489801
0.00489804
0.00489883
0.0048985
0.0048995
0.00489838
0.00489994
0.0048995
0.00490933
0.00357491
0.00454521
0.00474062
0.00478771
0.00479637
0.0048018
0.00480239
0.00480569
0.00480643
0.00480949
0.00481034
0.00481302
0.00481391
0.00481615
0.00481703
0.00481885
0.00481959
0.0048211
0.00482047
0.00483214
0.00357954
0.00454856
0.00474246
0.004789
0.00479791
0.00480218
0.00480199
0.00480317
0.00480295
0.00480382
0.00480377
0.00480463
0.00480469
0.0048055
0.00480564
0.00480637
0.00480666
0.00480721
0.00480781
0.00481586
0.00357047
0.00453793
0.00473254
0.00478024
0.00478883
0.00479354
0.00479284
0.00479406
0.0047933
0.00479421
0.00479363
0.00479437
0.00479395
0.00479458
0.00479428
0.00479482
0.00479456
0.00479498
0.00479465
0.00480165
0.00357954
0.00454856
0.00474246
0.004789
0.00479791
0.00480218
0.00480199
0.00480317
0.00480295
0.00480382
0.00480378
0.00480463
0.0048047
0.00480549
0.00480565
0.00480637
0.00480662
0.0048072
0.00480782
0.00481579
0.00357491
0.00454521
0.00474062
0.00478771
0.00479637
0.0048018
0.0048024
0.00480569
0.00480644
0.00480948
0.00481034
0.00481303
0.0048139
0.00481616
0.004817
0.00481888
0.00481955
0.00482105
0.0048207
0.00483164
0.00366676
0.00464551
0.00483629
0.00487612
0.00488505
0.00488954
0.00489163
0.00489412
0.00489515
0.00489664
0.00489706
0.00489799
0.00489809
0.00489876
0.0048986
0.00489932
0.00489862
0.00489943
0.00490036
0.00490774
0.00425168
0.00511277
0.00522195
0.00520387
0.0051887
0.00516536
0.00515921
0.0051456
0.00514284
0.0051339
0.00513238
0.0051259
0.00512501
0.00511998
0.00511964
0.00511515
0.00511585
0.00511026
0.00510891
0.0051314
0.00101691
0.00185831
0.00208643
0.00212189
0.00210474
0.00206701
0.00202905
0.00199766
0.00197271
0.00195204
0.00193679
0.00192282
0.00191332
0.00190316
0.00189692
0.00188941
0.00188412
0.00188081
0.00186984
0.00188753
0.000476359
0.00113761
0.00144146
0.00156684
0.00161696
0.00164182
0.00165399
0.00166463
0.00167206
0.00167987
0.0016854
0.00169111
0.00169483
0.00169888
0.00170127
0.00170408
0.0017059
0.00170739
0.00170837
0.00171474
0.000440424
0.00104637
0.00132011
0.00144681
0.00149408
0.00152054
0.00152807
0.00153626
0.00153833
0.00154307
0.00154498
0.00154923
0.00155146
0.00155552
0.00155811
0.00156177
0.00156438
0.00156788
0.00156946
0.00157607
0.000446705
0.00105991
0.00133277
0.00145504
0.00150148
0.00152535
0.00153254
0.00153805
0.0015388
0.00154042
0.00154053
0.00154114
0.00154132
0.00154181
0.00154231
0.0015427
0.00154356
0.00154395
0.00154491
0.00154927
0.000439603
0.00104462
0.00131442
0.00143947
0.00148535
0.00151098
0.00151739
0.0015237
0.00152404
0.00152551
0.00152517
0.00152562
0.00152528
0.00152553
0.00152531
0.00152547
0.00152532
0.00152547
0.001525
0.00152839
0.000446705
0.00105991
0.00133277
0.00145504
0.00150148
0.00152535
0.00153254
0.00153805
0.0015388
0.00154042
0.00154053
0.00154114
0.00154132
0.00154181
0.0015423
0.0015427
0.00154355
0.00154395
0.00154488
0.00154926
0.000440424
0.00104637
0.00132011
0.00144681
0.00149408
0.00152054
0.00152807
0.00153626
0.00153833
0.00154307
0.00154498
0.00154924
0.00155145
0.00155553
0.00155809
0.00156177
0.00156436
0.00156782
0.00156948
0.00157591
0.000476359
0.00113761
0.00144146
0.00156684
0.00161696
0.00164182
0.00165399
0.00166463
0.00167206
0.00167987
0.0016854
0.0016911
0.00169485
0.00169885
0.00170131
0.00170398
0.00170601
0.00170704
0.0017088
0.00171393
0.00101691
0.00185831
0.00208643
0.00212189
0.00210474
0.00206701
0.00202905
0.00199766
0.00197271
0.00195205
0.00193679
0.00192283
0.00191333
0.00190317
0.00189699
0.00188939
0.00188442
0.00188045
0.00187121
0.00188559
0.00425168
0.00511277
0.00522195
0.00520387
0.0051887
0.00516536
0.00515921
0.0051456
0.00514283
0.0051339
0.00513237
0.0051259
0.005125
0.00511999
0.00511959
0.0051152
0.00511568
0.0051105
0.00510781
0.00513452
0.00366676
0.00464551
0.00483629
0.00487612
0.00488505
0.00488954
0.00489163
0.00489412
0.00489515
0.00489665
0.00489706
0.00489801
0.00489804
0.00489883
0.0048985
0.0048995
0.00489838
0.00489994
0.0048995
0.00490933
0.00357491
0.00454521
0.00474062
0.00478771
0.00479637
0.0048018
0.00480239
0.00480569
0.00480643
0.00480949
0.00481034
0.00481302
0.00481391
0.00481615
0.00481703
0.00481885
0.00481959
0.0048211
0.00482047
0.00483214
0.00357954
0.00454856
0.00474246
0.004789
0.00479791
0.00480218
0.00480199
0.00480317
0.00480295
0.00480382
0.00480377
0.00480463
0.00480469
0.0048055
0.00480564
0.00480637
0.00480666
0.00480721
0.00480781
0.00481586
0.00357047
0.00453793
0.00473254
0.00478024
0.00478883
0.00479354
0.00479284
0.00479406
0.0047933
0.00479421
0.00479363
0.00479437
0.00479395
0.00479458
0.00479428
0.00479482
0.00479456
0.00479498
0.00479465
0.00480165
0.00357954
0.00454856
0.00474246
0.004789
0.00479791
0.00480218
0.00480199
0.00480317
0.00480295
0.00480382
0.00480378
0.00480463
0.0048047
0.00480549
0.00480565
0.00480637
0.00480662
0.0048072
0.00480782
0.00481579
0.00357491
0.00454521
0.00474062
0.00478771
0.00479637
0.0048018
0.0048024
0.00480569
0.00480644
0.00480948
0.00481034
0.00481303
0.0048139
0.00481616
0.004817
0.00481888
0.00481955
0.00482105
0.0048207
0.00483164
0.00366676
0.00464551
0.00483629
0.00487612
0.00488505
0.00488954
0.00489163
0.00489412
0.00489515
0.00489664
0.00489706
0.00489799
0.00489809
0.00489876
0.0048986
0.00489932
0.00489862
0.00489943
0.00490036
0.00490774
0.00425168
0.00511277
0.00522195
0.00520387
0.0051887
0.00516536
0.00515921
0.0051456
0.00514284
0.0051339
0.00513238
0.0051259
0.00512501
0.00511998
0.00511964
0.00511515
0.00511585
0.00511026
0.00510891
0.0051314
0.0108297
0.0115336
0.0115587
0.0115662
0.0115613
0.0115629
0.0115575
0.0115576
0.0115528
0.0115527
0.0115489
0.011549
0.011546
0.0115462
0.0115438
0.0115439
0.0115429
0.0115414
0.011547
0.0115797
0.00569529
0.00606736
0.006027
0.0059138
0.00582981
0.00578686
0.00575719
0.00574326
0.00572924
0.00572279
0.00571389
0.00571002
0.00570359
0.00570108
0.00569641
0.00569462
0.00569456
0.00568857
0.00574232
0.00576203
0.0045282
0.00501743
0.00512652
0.00515257
0.00515732
0.0051637
0.00516557
0.00516936
0.00517051
0.00517307
0.00517355
0.00517513
0.00517515
0.00517628
0.00517589
0.00517697
0.00517621
0.00517713
0.00517816
0.00518944
0.00442676
0.00491373
0.0050413
0.00509101
0.00511426
0.00513431
0.00514584
0.00515913
0.00516651
0.00517641
0.00518152
0.00518927
0.00519291
0.00519914
0.00520178
0.00520672
0.00520891
0.00521211
0.00521439
0.00522401
0.00441297
0.00490475
0.00503372
0.00508546
0.00511023
0.00513177
0.00514475
0.00515959
0.00516857
0.00518016
0.00518697
0.0051964
0.00520172
0.00520948
0.00521371
0.00522
0.00522364
0.00522827
0.00523138
0.00524186
0.00442676
0.00491373
0.0050413
0.00509101
0.00511426
0.00513431
0.00514584
0.00515913
0.00516651
0.00517641
0.00518152
0.00518927
0.00519291
0.00519914
0.00520179
0.00520672
0.00520892
0.00521209
0.00521449
0.005224
0.0045282
0.00501743
0.00512652
0.00515257
0.00515732
0.0051637
0.00516558
0.00516936
0.00517052
0.00517307
0.00517356
0.00517511
0.00517517
0.00517625
0.00517595
0.0051769
0.00517634
0.00517689
0.0051786
0.00518895
0.00569529
0.00606736
0.006027
0.0059138
0.00582981
0.00578686
0.00575719
0.00574326
0.00572923
0.00572279
0.00571388
0.00571002
0.00570358
0.00570104
0.00569642
0.00569449
0.00569466
0.00568829
0.00574237
0.00576001
0.0108297
0.0115336
0.0115587
0.0115662
0.0115612
0.0115629
0.0115575
0.0115576
0.0115528
0.0115527
0.0115489
0.011549
0.0115459
0.0115462
0.0115437
0.011544
0.0115427
0.0115418
0.0115465
0.0115798
0.0337343
0.0338588
0.0338593
0.0338579
0.0338519
0.0338504
0.0338458
0.0338445
0.0338407
0.0338392
0.0338359
0.0338344
0.0338314
0.0338298
0.0338271
0.0338255
0.0338229
0.0338213
0.0338189
0.0338173
0.0338149
0.0338133
0.0338111
0.0338095
0.0338073
0.0338057
0.0338037
0.0338021
0.0338001
0.0337985
0.0337966
0.0337951
0.0337932
0.0337917
0.0337898
0.0337883
0.0337865
0.033785
0.0337832
0.0337817
0.0337799
0.0337783
0.0337766
0.033775
0.0337732
0.0337717
0.0337699
0.0337683
0.0337666
0.033765
0.0337632
0.0337616
0.0337598
0.0337582
0.0337565
0.0337549
0.0337531
0.0337515
0.0337497
0.0337481
0.0337463
0.0337447
0.0337429
0.0337413
0.0337395
0.0337378
0.0337361
0.0337344
0.0337326
0.033731
0.0337292
0.0337275
0.0337257
0.033724
0.0337223
0.0337206
0.0337188
0.0337171
0.0337153
0.0337135
0.0337118
0.03371
0.0337082
0.0337064
0.0337046
0.0337028
0.033701
0.0336993
0.0336924
0.0336867
0.0197352
0.020269
0.0202788
0.0202842
0.0202739
0.0202778
0.0202693
0.0202725
0.0202652
0.0202679
0.0202616
0.0202639
0.0202584
0.0202603
0.0202553
0.0202569
0.0202523
0.0202537
0.0202496
0.0202508
0.020247
0.020248
0.0202444
0.0202452
0.0202419
0.0202426
0.0202394
0.0202399
0.0202369
0.0202374
0.0202346
0.020235
0.0202324
0.0202327
0.0202303
0.0202305
0.0202284
0.0202285
0.0202265
0.0202267
0.0202248
0.0202249
0.0202232
0.0202233
0.0202216
0.0202216
0.0202201
0.02022
0.0202185
0.0202184
0.0202169
0.0202168
0.0202154
0.0202152
0.0202138
0.0202135
0.0202122
0.0202119
0.0202106
0.0202103
0.020209
0.0202086
0.0202074
0.020207
0.0202058
0.0202053
0.0202041
0.0202037
0.0202025
0.020202
0.0202008
0.0202003
0.0201991
0.0201986
0.0201975
0.0201969
0.0201958
0.0201951
0.020194
0.0201934
0.0201923
0.0201916
0.0201905
0.0201897
0.0201886
0.0201878
0.0201867
0.0201861
0.0201817
0.0201797
0.016615
0.0174555
0.0174925
0.017504
0.0174897
0.017496
0.017484
0.0174894
0.0174788
0.0174835
0.0174741
0.0174785
0.0174702
0.0174741
0.0174666
0.0174701
0.0174633
0.0174666
0.0174603
0.0174634
0.0174576
0.0174603
0.017455
0.0174575
0.0174527
0.0174549
0.0174504
0.0174524
0.0174483
0.0174501
0.0174464
0.017448
0.0174447
0.0174461
0.0174431
0.0174444
0.0174418
0.0174429
0.0174406
0.0174417
0.0174395
0.0174406
0.0174386
0.0174396
0.0174378
0.0174387
0.0174369
0.0174378
0.0174361
0.0174369
0.0174353
0.017436
0.0174345
0.0174351
0.0174336
0.0174342
0.0174328
0.0174333
0.017432
0.0174324
0.0174311
0.0174315
0.0174303
0.0174306
0.0174294
0.0174297
0.0174286
0.0174288
0.0174277
0.0174278
0.0174268
0.0174269
0.0174259
0.017426
0.017425
0.017425
0.0174241
0.017424
0.0174231
0.017423
0.0174221
0.0174219
0.0174211
0.0174208
0.01742
0.0174197
0.0174189
0.0174184
0.0174181
0.0174107
0.0162347
0.0172827
0.0173591
0.01738
0.017366
0.0173732
0.0173607
0.0173667
0.0173552
0.0173604
0.0173501
0.0173549
0.0173458
0.0173503
0.017342
0.017346
0.0173385
0.0173423
0.0173355
0.017339
0.0173327
0.0173359
0.0173301
0.017333
0.0173277
0.0173305
0.0173256
0.0173281
0.0173236
0.0173259
0.0173218
0.0173239
0.0173203
0.0173222
0.017319
0.0173206
0.0173178
0.0173194
0.0173169
0.0173184
0.0173161
0.0173175
0.0173154
0.0173168
0.0173149
0.0173161
0.0173143
0.0173155
0.0173138
0.0173149
0.0173133
0.0173143
0.0173128
0.0173137
0.0173123
0.0173131
0.0173118
0.0173125
0.0173112
0.0173119
0.0173107
0.0173113
0.0173102
0.0173107
0.0173096
0.0173101
0.0173091
0.0173095
0.0173085
0.0173089
0.017308
0.0173083
0.0173074
0.0173077
0.0173068
0.017307
0.0173062
0.0173064
0.0173055
0.0173057
0.0173049
0.0173049
0.0173042
0.0173042
0.0173034
0.0173033
0.0173026
0.0173023
0.0173023
0.0172951
0.0162401
0.0173142
0.017401
0.0174262
0.0174137
0.017421
0.0174093
0.0174153
0.0174042
0.0174094
0.0173994
0.0174042
0.0173954
0.0173999
0.0173918
0.017396
0.0173886
0.0173925
0.0173858
0.0173894
0.0173832
0.0173866
0.0173809
0.017384
0.0173788
0.0173817
0.0173769
0.0173795
0.0173751
0.0173775
0.0173735
0.0173757
0.0173721
0.0173741
0.0173709
0.0173727
0.0173699
0.0173716
0.017369
0.0173706
0.0173683
0.0173699
0.0173678
0.0173693
0.0173673
0.0173687
0.0173669
0.0173682
0.0173665
0.0173676
0.0173661
0.0173671
0.0173657
0.0173666
0.0173652
0.0173662
0.0173648
0.0173657
0.0173644
0.0173652
0.017364
0.0173647
0.0173636
0.0173642
0.0173632
0.0173638
0.0173628
0.0173633
0.0173623
0.0173628
0.0173619
0.0173623
0.0173614
0.0173618
0.0173609
0.0173612
0.0173604
0.0173607
0.0173599
0.0173601
0.0173593
0.0173594
0.0173587
0.0173588
0.0173581
0.0173581
0.0173575
0.0173571
0.0173581
0.0173497
0.0162353
0.0172861
0.017365
0.0173874
0.0173756
0.0173829
0.0173722
0.017378
0.0173681
0.0173733
0.0173643
0.0173691
0.0173612
0.0173657
0.0173584
0.0173625
0.0173558
0.0173597
0.0173536
0.0173572
0.0173517
0.017355
0.0173498
0.0173529
0.0173482
0.017351
0.0173466
0.0173492
0.0173451
0.0173475
0.0173438
0.0173459
0.0173426
0.0173445
0.0173415
0.0173432
0.0173405
0.0173421
0.0173396
0.0173412
0.0173389
0.0173404
0.0173383
0.0173397
0.0173378
0.017339
0.0173372
0.0173384
0.0173367
0.0173378
0.0173362
0.0173372
0.0173357
0.0173367
0.0173352
0.0173361
0.0173347
0.0173355
0.0173342
0.0173349
0.0173337
0.0173344
0.0173332
0.0173338
0.0173327
0.0173332
0.0173322
0.0173326
0.0173316
0.017332
0.0173311
0.0173314
0.0173305
0.0173308
0.01733
0.0173302
0.0173294
0.0173295
0.0173287
0.0173289
0.0173281
0.0173281
0.0173274
0.0173274
0.0173266
0.0173266
0.0173259
0.0173256
0.0173256
0.0173184
0.0166148
0.0174595
0.0174995
0.0175126
0.017501
0.0175071
0.0174974
0.0175026
0.0174939
0.0174983
0.0174906
0.0174947
0.0174879
0.0174917
0.0174855
0.0174889
0.0174832
0.0174864
0.0174813
0.0174843
0.0174795
0.0174822
0.0174778
0.0174803
0.0174763
0.0174786
0.0174748
0.0174769
0.0174733
0.0174752
0.017472
0.0174737
0.0174707
0.0174722
0.0174695
0.0174709
0.0174684
0.0174697
0.0174673
0.0174686
0.0174664
0.0174675
0.0174655
0.0174666
0.0174647
0.0174657
0.0174639
0.0174648
0.0174631
0.0174639
0.0174623
0.017463
0.0174615
0.0174622
0.0174607
0.0174613
0.0174599
0.0174604
0.0174591
0.0174596
0.0174583
0.0174587
0.0174575
0.0174578
0.0174567
0.0174569
0.0174558
0.0174561
0.017455
0.0174552
0.0174541
0.0174543
0.0174533
0.0174533
0.0174524
0.0174524
0.0174515
0.0174514
0.0174505
0.0174505
0.0174496
0.0174494
0.0174486
0.0174484
0.0174475
0.0174473
0.0174465
0.017446
0.0174457
0.0174383
0.0197326
0.0202704
0.0202817
0.0202879
0.020279
0.0202828
0.0202756
0.0202787
0.0202724
0.020275
0.0202695
0.0202717
0.0202669
0.0202688
0.0202644
0.020266
0.020262
0.0202634
0.0202597
0.020261
0.0202576
0.0202587
0.0202555
0.0202564
0.0202535
0.0202543
0.0202515
0.0202522
0.0202496
0.0202502
0.0202477
0.0202482
0.0202459
0.0202463
0.0202441
0.0202444
0.0202424
0.0202426
0.0202407
0.0202409
0.0202391
0.0202393
0.0202375
0.0202376
0.020236
0.020236
0.0202344
0.0202344
0.0202329
0.0202328
0.0202313
0.0202312
0.0202298
0.0202296
0.0202282
0.020228
0.0202267
0.0202264
0.0202251
0.0202248
0.0202235
0.0202232
0.0202219
0.0202216
0.0202203
0.0202199
0.0202187
0.0202183
0.0202171
0.0202166
0.0202154
0.020215
0.0202138
0.0202133
0.0202121
0.0202116
0.0202105
0.0202099
0.0202087
0.0202081
0.020207
0.0202063
0.0202052
0.0202045
0.0202034
0.0202026
0.0202015
0.020201
0.0201965
0.0201946
0.0337803
0.0339175
0.0339222
0.0339238
0.0339202
0.0339214
0.0339195
0.0339209
0.0339199
0.0339212
0.0339204
0.0339215
0.033921
0.033922
0.0339216
0.0339224
0.033922
0.0339226
0.0339223
0.0339227
0.0339223
0.0339226
0.0339221
0.0339222
0.0339216
0.0339215
0.0339208
0.0339205
0.0339197
0.0339192
0.0339182
0.0339175
0.0339163
0.0339154
0.0339141
0.033913
0.0339115
0.0339102
0.0339086
0.0339072
0.0339055
0.033904
0.0339023
0.0339007
0.033899
0.0338974
0.0338956
0.0338941
0.0338923
0.0338907
0.0338889
0.0338873
0.0338855
0.033884
0.0338822
0.0338806
0.0338788
0.0338772
0.0338754
0.0338738
0.033872
0.0338703
0.0338686
0.0338669
0.0338651
0.0338635
0.0338617
0.03386
0.0338583
0.0338566
0.0338548
0.0338531
0.0338513
0.0338496
0.0338479
0.0338462
0.0338444
0.0338426
0.0338409
0.0338391
0.0338373
0.0338356
0.0338338
0.033832
0.0338302
0.0338283
0.0338265
0.0338247
0.0338178
0.0338121
0.0164642
0.0166758
0.0166788
0.0166774
0.0166749
0.0166748
0.0166723
0.0166728
0.0166702
0.0166709
0.0166682
0.0166691
0.0166663
0.0166672
0.0166644
0.0166652
0.0166625
0.0166632
0.0166606
0.0166613
0.0166587
0.0166593
0.0166568
0.0166573
0.016655
0.0166554
0.0166531
0.0166535
0.0166513
0.0166516
0.0166496
0.0166498
0.0166479
0.0166481
0.0166464
0.0166465
0.0166449
0.016645
0.0166435
0.0166435
0.0166421
0.0166421
0.0166408
0.0166408
0.0166394
0.0166394
0.0166381
0.016638
0.0166368
0.0166366
0.0166354
0.0166352
0.0166341
0.0166339
0.0166327
0.0166325
0.0166313
0.0166311
0.01663
0.0166296
0.0166286
0.0166282
0.0166272
0.0166268
0.0166258
0.0166254
0.0166244
0.016624
0.016623
0.0166225
0.0166216
0.0166211
0.0166201
0.0166197
0.0166187
0.0166182
0.0166173
0.0166168
0.0166159
0.0166154
0.0166145
0.016614
0.0166131
0.0166127
0.0166118
0.0166115
0.0166105
0.0166107
0.0166077
0.0166077
0.0157877
0.0163288
0.0163534
0.0163552
0.0163534
0.0163543
0.0163526
0.0163531
0.0163513
0.0163517
0.0163499
0.0163503
0.0163485
0.0163487
0.0163469
0.016347
0.0163452
0.0163452
0.0163435
0.0163434
0.0163416
0.0163414
0.0163397
0.0163394
0.0163377
0.0163374
0.0163357
0.0163353
0.0163336
0.0163332
0.0163316
0.0163311
0.0163296
0.0163291
0.0163277
0.0163272
0.0163259
0.0163254
0.0163242
0.0163238
0.0163227
0.0163222
0.0163212
0.0163207
0.0163197
0.0163193
0.0163183
0.0163178
0.0163169
0.0163164
0.0163154
0.0163149
0.016314
0.0163135
0.0163126
0.016312
0.0163111
0.0163105
0.0163096
0.0163091
0.0163082
0.0163076
0.0163067
0.0163061
0.0163053
0.0163047
0.0163038
0.0163032
0.0163024
0.0163017
0.0163009
0.0163003
0.0162994
0.0162988
0.016298
0.0162973
0.0162965
0.0162959
0.016295
0.0162944
0.0162936
0.016293
0.0162921
0.0162916
0.0162906
0.0162901
0.0162892
0.0162886
0.0162879
0.0162867
0.01506
0.0158874
0.0159532
0.0159618
0.0159617
0.0159629
0.0159621
0.0159624
0.0159612
0.0159611
0.0159599
0.0159597
0.0159586
0.0159582
0.0159571
0.0159565
0.0159554
0.0159548
0.0159536
0.015953
0.0159518
0.0159511
0.0159499
0.0159491
0.0159479
0.0159471
0.0159458
0.0159449
0.0159437
0.0159428
0.0159416
0.0159406
0.0159395
0.0159386
0.0159374
0.0159366
0.0159355
0.0159347
0.0159337
0.0159329
0.0159321
0.0159313
0.0159305
0.0159298
0.015929
0.0159282
0.0159275
0.0159268
0.015926
0.0159253
0.0159245
0.0159238
0.015923
0.0159223
0.0159215
0.0159208
0.01592
0.0159193
0.0159185
0.0159178
0.015917
0.0159163
0.0159155
0.0159148
0.015914
0.0159133
0.0159125
0.0159118
0.015911
0.0159103
0.0159095
0.0159088
0.015908
0.0159073
0.0159065
0.0159058
0.015905
0.0159042
0.0159035
0.0159027
0.0159019
0.0159012
0.0159004
0.0158997
0.0158988
0.0158981
0.0158971
0.0158965
0.0158959
0.0158896
0.0148648
0.0157851
0.0158713
0.0158825
0.0158833
0.0158845
0.0158842
0.0158844
0.0158836
0.0158832
0.0158823
0.0158819
0.0158811
0.0158806
0.0158797
0.015879
0.015878
0.0158773
0.0158763
0.0158756
0.0158746
0.0158738
0.0158727
0.0158719
0.0158708
0.0158699
0.0158689
0.0158679
0.0158668
0.0158658
0.0158647
0.0158637
0.0158627
0.0158617
0.0158606
0.0158596
0.0158587
0.0158577
0.0158568
0.0158559
0.0158551
0.0158542
0.0158534
0.0158526
0.0158519
0.0158511
0.0158503
0.0158496
0.0158488
0.015848
0.0158473
0.0158465
0.0158458
0.015845
0.0158442
0.0158435
0.0158427
0.0158419
0.0158412
0.0158404
0.0158396
0.0158388
0.0158381
0.0158373
0.0158365
0.0158358
0.015835
0.0158342
0.0158335
0.0158327
0.0158319
0.0158311
0.0158304
0.0158296
0.0158288
0.015828
0.0158273
0.0158265
0.0158257
0.0158249
0.0158241
0.0158234
0.0158225
0.0158218
0.0158209
0.0158202
0.0158192
0.0158185
0.0158173
0.0158124
0.0147225
0.0157041
0.0157997
0.0158123
0.0158132
0.0158146
0.0158145
0.015815
0.0158144
0.0158141
0.0158133
0.0158129
0.0158122
0.0158118
0.0158109
0.0158102
0.0158092
0.0158085
0.0158076
0.0158069
0.0158059
0.0158051
0.0158041
0.0158032
0.0158022
0.0158014
0.0158004
0.0157994
0.0157983
0.0157974
0.0157963
0.0157953
0.0157943
0.0157933
0.0157923
0.0157913
0.0157903
0.0157894
0.0157885
0.0157876
0.0157867
0.0157859
0.0157851
0.0157843
0.0157835
0.0157827
0.015782
0.0157812
0.0157805
0.0157797
0.0157789
0.0157782
0.0157774
0.0157766
0.0157759
0.0157751
0.0157743
0.0157736
0.0157728
0.015772
0.0157713
0.0157705
0.0157697
0.0157689
0.0157682
0.0157674
0.0157666
0.0157658
0.0157651
0.0157643
0.0157635
0.0157627
0.015762
0.0157612
0.0157604
0.0157596
0.0157588
0.0157581
0.0157573
0.0157565
0.0157557
0.0157549
0.0157541
0.0157533
0.0157524
0.0157517
0.0157507
0.0157499
0.0157494
0.0157427
0.0148644
0.0157839
0.0158699
0.0158812
0.0158823
0.0158837
0.0158838
0.0158842
0.0158838
0.0158835
0.0158828
0.0158824
0.0158817
0.0158813
0.0158805
0.0158797
0.0158788
0.0158781
0.0158772
0.0158765
0.0158756
0.0158748
0.0158738
0.0158729
0.015872
0.0158711
0.0158702
0.0158692
0.0158682
0.0158673
0.0158663
0.0158653
0.0158643
0.0158634
0.0158624
0.0158615
0.0158605
0.0158596
0.0158587
0.0158578
0.015857
0.0158562
0.0158554
0.0158546
0.0158538
0.015853
0.0158523
0.0158515
0.0158508
0.01585
0.0158492
0.0158485
0.0158477
0.0158469
0.0158462
0.0158454
0.0158447
0.0158439
0.0158431
0.0158424
0.0158416
0.0158408
0.0158401
0.0158393
0.0158385
0.0158378
0.015837
0.0158362
0.0158355
0.0158347
0.0158339
0.0158331
0.0158324
0.0158316
0.0158308
0.0158301
0.0158293
0.0158285
0.0158277
0.015827
0.0158262
0.0158254
0.0158246
0.0158238
0.015823
0.0158222
0.0158213
0.0158205
0.0158196
0.0158148
0.0150586
0.0158859
0.0159524
0.0159612
0.0159619
0.0159635
0.0159634
0.015964
0.0159633
0.0159632
0.0159624
0.0159622
0.0159613
0.0159609
0.0159599
0.0159593
0.0159582
0.0159576
0.0159566
0.0159559
0.0159548
0.0159541
0.015953
0.0159522
0.0159511
0.0159504
0.0159493
0.0159485
0.0159473
0.0159465
0.0159454
0.0159446
0.0159435
0.0159427
0.0159417
0.0159409
0.0159399
0.0159391
0.0159382
0.0159374
0.0159366
0.0159358
0.015935
0.0159343
0.0159335
0.0159328
0.015932
0.0159313
0.0159305
0.0159298
0.0159291
0.0159283
0.0159276
0.0159269
0.0159261
0.0159254
0.0159246
0.0159239
0.0159231
0.0159224
0.0159216
0.0159209
0.0159201
0.0159194
0.0159187
0.0159179
0.0159172
0.0159164
0.0159157
0.0159149
0.0159142
0.0159135
0.0159127
0.015912
0.0159112
0.0159105
0.0159097
0.015909
0.0159082
0.0159075
0.0159067
0.015906
0.0159051
0.0159045
0.0159036
0.0159029
0.015902
0.0159013
0.0159011
0.0158951
0.0157882
0.0163345
0.0163612
0.0163641
0.0163636
0.0163649
0.0163641
0.0163651
0.0163637
0.0163643
0.0163628
0.0163633
0.0163617
0.016362
0.0163603
0.0163604
0.0163587
0.0163588
0.0163571
0.0163571
0.0163554
0.0163553
0.0163537
0.0163535
0.0163519
0.0163517
0.0163501
0.0163498
0.0163483
0.016348
0.0163465
0.0163462
0.0163448
0.0163444
0.0163431
0.0163427
0.0163415
0.016341
0.0163399
0.0163395
0.0163384
0.016338
0.0163369
0.0163365
0.0163355
0.0163351
0.0163341
0.0163336
0.0163327
0.0163322
0.0163312
0.0163308
0.0163298
0.0163293
0.0163284
0.0163279
0.016327
0.0163264
0.0163255
0.016325
0.0163241
0.0163235
0.0163226
0.0163221
0.0163212
0.0163206
0.0163198
0.0163192
0.0163183
0.0163177
0.0163169
0.0163163
0.0163154
0.0163148
0.016314
0.0163134
0.0163126
0.016312
0.0163111
0.0163105
0.0163097
0.0163091
0.0163083
0.0163077
0.0163068
0.0163063
0.0163054
0.0163048
0.0163046
0.0163036
0.0164941
0.0167202
0.0167277
0.0167279
0.0167274
0.0167283
0.0167274
0.0167288
0.0167274
0.016729
0.0167273
0.016729
0.0167272
0.0167288
0.0167269
0.0167284
0.0167265
0.0167279
0.016726
0.0167273
0.0167254
0.0167266
0.0167248
0.0167259
0.0167241
0.016725
0.0167233
0.0167241
0.0167224
0.0167231
0.0167214
0.016722
0.0167203
0.0167208
0.0167192
0.0167195
0.016718
0.0167182
0.0167167
0.0167169
0.0167155
0.0167156
0.0167142
0.0167142
0.0167129
0.0167129
0.0167115
0.0167115
0.0167102
0.0167101
0.0167089
0.0167088
0.0167075
0.0167074
0.0167062
0.016706
0.0167048
0.0167046
0.0167035
0.0167032
0.0167021
0.0167018
0.0167007
0.0167004
0.0166994
0.016699
0.016698
0.0166976
0.0166966
0.0166962
0.0166952
0.0166948
0.0166938
0.0166934
0.0166924
0.0166919
0.016691
0.0166906
0.0166896
0.0166892
0.0166883
0.0166878
0.0166869
0.0166866
0.0166857
0.0166854
0.0166844
0.0166847
0.0166821
0.0166823
0.00737981
0.00762876
0.00763681
0.00763333
0.00763539
0.00763735
0.00763884
0.00764306
0.00764304
0.00764826
0.00764689
0.00765248
0.00765008
0.00765561
0.00765258
0.0076579
0.0076545
0.00765953
0.00765591
0.00766059
0.00765687
0.00766121
0.0076575
0.00766151
0.00765788
0.00766157
0.00765807
0.00766146
0.00765815
0.00766131
0.00765821
0.00766116
0.00765827
0.00766105
0.00765838
0.007661
0.00765854
0.00766101
0.00765875
0.00766107
0.00765898
0.00766115
0.00765921
0.00766123
0.00765942
0.00766129
0.00765959
0.00766134
0.00765975
0.00766137
0.00765988
0.00766138
0.00765998
0.00766138
0.00766008
0.00766138
0.00766015
0.00766136
0.00766022
0.00766135
0.00766027
0.00766133
0.00766033
0.00766132
0.00766037
0.00766131
0.00766042
0.00766131
0.00766047
0.00766132
0.00766053
0.00766135
0.00766061
0.00766141
0.00766071
0.0076615
0.00766084
0.00766164
0.00766101
0.00766182
0.00766122
0.00766205
0.00766147
0.00766231
0.00766174
0.00766258
0.0076619
0.00766312
0.00766098
0.00766165
0.00712718
0.0078422
0.00790777
0.00791339
0.00791396
0.00791526
0.00791503
0.00791644
0.00791567
0.00791719
0.00791615
0.0079177
0.00791638
0.0079178
0.00791625
0.00791756
0.00791594
0.00791715
0.00791546
0.00791652
0.00791477
0.00791569
0.00791394
0.00791473
0.007913
0.00791366
0.00791195
0.00791251
0.00791087
0.00791134
0.00790983
0.00791021
0.00790886
0.00790918
0.00790799
0.00790826
0.00790724
0.00790749
0.00790662
0.00790688
0.00790611
0.00790637
0.00790566
0.00790591
0.00790524
0.00790547
0.00790484
0.00790503
0.00790443
0.0079046
0.00790402
0.00790417
0.00790361
0.00790373
0.0079032
0.0079033
0.00790279
0.00790287
0.00790239
0.00790245
0.00790198
0.00790203
0.00790158
0.00790162
0.00790119
0.00790121
0.0079008
0.00790082
0.00790042
0.00790043
0.00790006
0.00790006
0.0078997
0.00789971
0.00789937
0.00789938
0.00789905
0.00789908
0.00789875
0.0078988
0.00789848
0.00789855
0.00789823
0.00789832
0.00789799
0.00789809
0.00789779
0.00789764
0.00789771
0.00789821
0.00643332
0.0074567
0.0076008
0.00762435
0.00762836
0.00763047
0.00763054
0.00763113
0.00763057
0.00763074
0.0076302
0.00763035
0.00762983
0.00762982
0.00762917
0.00762902
0.00762837
0.00762821
0.00762757
0.00762733
0.00762662
0.00762628
0.00762555
0.00762517
0.00762442
0.00762398
0.0076232
0.00762269
0.00762189
0.00762136
0.0076206
0.00762007
0.00761935
0.00761885
0.00761819
0.00761772
0.00761714
0.00761674
0.00761624
0.00761591
0.0076155
0.0076152
0.00761485
0.00761457
0.00761426
0.00761398
0.00761368
0.00761341
0.00761312
0.00761285
0.00761256
0.00761229
0.007612
0.00761173
0.00761143
0.00761116
0.00761087
0.0076106
0.00761031
0.00761004
0.00760975
0.00760948
0.00760919
0.00760893
0.00760864
0.00760837
0.00760808
0.00760782
0.00760753
0.00760728
0.00760698
0.00760673
0.00760644
0.00760619
0.0076059
0.00760566
0.00760537
0.00760513
0.00760484
0.00760461
0.00760432
0.0076041
0.00760379
0.00760358
0.00760327
0.00760307
0.00760273
0.00760256
0.00760247
0.00760017
0.00617043
0.0072774
0.0074577
0.00748683
0.00749326
0.00749379
0.00749479
0.00749385
0.00749384
0.00749257
0.00749236
0.00749137
0.00749117
0.00749027
0.00748985
0.00748892
0.00748844
0.00748766
0.00748721
0.00748649
0.00748596
0.00748522
0.00748464
0.00748392
0.00748334
0.00748264
0.00748201
0.00748126
0.00748059
0.00747983
0.00747916
0.00747843
0.00747778
0.00747708
0.00747646
0.00747579
0.00747522
0.00747462
0.00747412
0.0074736
0.00747319
0.00747273
0.00747238
0.00747196
0.00747165
0.00747125
0.00747095
0.00747057
0.00747027
0.0074699
0.0074696
0.00746923
0.00746892
0.00746856
0.00746825
0.00746789
0.00746758