/*--------------------------------*- C++ -*----------------------------------*\
  =========                 |
  \\      /  F ield         | OpenFOAM: The Open Source CFD Toolbox
   \\    /   O peration     | Website:  https://openfoam.org
    \\  /    A nd           | Version:  7
     \\/     M anipulation  |
\*---------------------------------------------------------------------------*/
FoamFile
{
    version     2.0;
    format      ascii;
    class       volScalarField;
    location    "2.7";
    object      k;
}
// * * * * * * * * * * * * * * * * * * * * * * * * * * * * * * * * * * * * * //

dimensions      [0 2 -2 0 0 0 0];

internalField   nonuniform List<scalar> 
5280
(
0.0147592
0.0791475
0.206055
0.365082
0.53256
0.687769
0.819691
0.921531
0.995432
1.04104
1.06796
1.07231
1.06771
1.05548
1.03419
1.00892
0.981383
0.952812
0.924094
0.895854
0.868509
0.842333
0.817484
0.794048
0.772046
0.751467
0.73227
0.714396
0.697773
0.682325
0.667971
0.654632
0.642228
0.630683
0.619925
0.609885
0.600501
0.591714
0.583468
0.575716
0.56841
0.561511
0.55498
0.548785
0.542893
0.537275
0.531908
0.526771
0.521845
0.517112
0.512557
0.508165
0.503923
0.499821
0.495848
0.491993
0.488251
0.484613
0.481073
0.477624
0.474263
0.470981
0.467779
0.464646
0.461586
0.458583
0.455656
0.45276
0.449963
0.447141
0.444493
0.441677
0.439244
0.436293
0.434214
0.430911
0.429182
0.425518
0.422796
0.426911
4.2933e-05
0.000551035
0.00277346
0.00839805
0.020144
0.0385825
0.0630157
0.090767
0.120386
0.14912
0.176187
0.200124
0.220594
0.237863
0.251842
0.262895
0.271388
0.277784
0.282418
0.285719
0.287899
0.289329
0.290079
0.290495
0.290486
0.290395
0.290187
0.289905
0.289617
0.289351
0.289125
0.288952
0.288836
0.28878
0.288792
0.288835
0.288927
0.289064
0.289233
0.289427
0.28964
0.289864
0.290095
0.290325
0.290552
0.290771
0.290979
0.291173
0.291352
0.291513
0.291656
0.291779
0.291881
0.291963
0.292024
0.292065
0.292084
0.292079
0.292061
0.292026
0.291962
0.291893
0.291791
0.291692
0.291553
0.291432
0.291257
0.291119
0.290908
0.290763
0.290517
0.290373
0.290096
0.289954
0.289651
0.289513
0.289147
0.288982
0.28828
0.288648
2.00148e-05
2.09933e-05
2.94892e-05
6.69736e-05
0.000186149
0.00047441
0.00107709
0.00214689
0.00375623
0.00592311
0.00860171
0.0117292
0.0151655
0.0188168
0.0225498
0.0262755
0.0298913
0.0333467
0.0365819
0.039584
0.0423269
0.04482
0.0470594
0.0490642
0.0508469
0.052426
0.0538267
0.0550635
0.0561625
0.0571357
0.0580084
0.058788
0.059499
0.0601436
0.0607458
0.0613027
0.0618378
0.0623431
0.0628431
0.0633241
0.0638129
0.0642896
0.0647843
0.0652709
0.0657833
0.0662889
0.0668272
0.0673579
0.0679273
0.0684862
0.0690895
0.0696775
0.0703158
0.0709324
0.0716057
0.0722494
0.0729573
0.0736259
0.0743673
0.0750578
0.0758315
0.0765402
0.077345
0.0780681
0.0789034
0.079637
0.0805029
0.0812428
0.0821399
0.0828813
0.0838117
0.0845496
0.0855179
0.0862468
0.0872609
0.0879737
0.0890484
0.0897444
0.090929
0.0916795
1.99976e-05
2.0005e-05
2.00473e-05
2.02306e-05
2.09186e-05
2.30548e-05
2.87015e-05
4.15009e-05
7.10467e-05
0.000112206
0.000195824
0.000296309
0.000453789
0.00063285
0.000871559
0.00112949
0.00144146
0.00176286
0.00212805
0.00249039
0.00288581
0.00326622
0.00367028
0.00404893
0.00444436
0.00480658
0.00518163
0.00551836
0.00586678
0.00617384
0.00649331
0.00676953
0.00706011
0.00730647
0.00757024
0.00778929
0.0080293
0.00822397
0.00844336
0.00861679
0.00881912
0.0089748
0.00916365
0.00930472
0.0094831
0.00961213
0.00978265
0.00990198
0.0100671
0.0101789
0.010341
0.0104471
0.0106079
0.0107097
0.0108708
0.0109696
0.0111324
0.0112293
0.0113952
0.0114913
0.0116614
0.0117574
0.0119326
0.0120293
0.0122106
0.0123087
0.0124971
0.0125974
0.0127936
0.0128969
0.0131016
0.0132087
0.0134231
0.0135356
0.0137615
0.0138812
0.0141242
0.0142568
0.0145339
0.0146919
1.99877e-05
1.99887e-05
2.0004e-05
2.0046e-05
2.01464e-05
2.02631e-05
2.05078e-05
2.07584e-05
2.13095e-05
2.19232e-05
2.33138e-05
2.48144e-05
2.81495e-05
3.12186e-05
3.78849e-05
4.31313e-05
5.43022e-05
6.20542e-05
7.82877e-05
8.85345e-05
0.000109725
0.000122188
0.000147712
0.000161941
0.000190861
0.000206346
0.000237449
0.000254077
0.000286234
0.000303643
0.000336202
0.00035392
0.000386501
0.000404163
0.000436509
0.00045392
0.000485884
0.000502919
0.000534395
0.000550964
0.000581946
0.000598073
0.000628632
0.000644373
0.000674545
0.00068993
0.00071973
0.000734799
0.000764278
0.000779079
0.000808305
0.000822913
0.000851943
0.00086642
0.000895276
0.000909635
0.000938345
0.000952654
0.000981286
0.000995583
0.0010242
0.00103852
0.00106718
0.00108155
0.00111034
0.00112481
0.00115385
0.00116848
0.00119786
0.00121271
0.00124252
0.00125764
0.00128807
0.00130361
0.00133504
0.00135133
0.00138464
0.00140237
0.00143965
0.0014602
1.99864e-05
1.99797e-05
1.99916e-05
2.0028e-05
2.01192e-05
2.02201e-05
2.04382e-05
2.05976e-05
2.09321e-05
2.11378e-05
2.15612e-05
2.1797e-05
2.22783e-05
2.25334e-05
2.3054e-05
2.33252e-05
2.38812e-05
2.41706e-05
2.47676e-05
2.50794e-05
2.57254e-05
2.60631e-05
2.67633e-05
2.71279e-05
2.78832e-05
2.82738e-05
2.90797e-05
2.94938e-05
3.03441e-05
3.07784e-05
3.16669e-05
3.21185e-05
3.30398e-05
3.35064e-05
3.44563e-05
3.49366e-05
3.59122e-05
3.6405e-05
3.74045e-05
3.79095e-05
3.89329e-05
3.94508e-05
4.05004e-05
4.10327e-05
4.21109e-05
4.26586e-05
4.37671e-05
4.43308e-05
4.54712e-05
4.6052e-05
4.72268e-05
4.78259e-05
4.90375e-05
4.96562e-05
5.09069e-05
5.1546e-05
5.28376e-05
5.3498e-05
5.48322e-05
5.55149e-05
5.68938e-05
5.76001e-05
5.90265e-05
5.97583e-05
6.12365e-05
6.19967e-05
6.35328e-05
6.43246e-05
6.59251e-05
6.67517e-05
6.84235e-05
6.92896e-05
7.1044e-05
7.19596e-05
7.38233e-05
7.48101e-05
7.68398e-05
7.79398e-05
8.02131e-05
8.15818e-05
1.99864e-05
1.99797e-05
1.99916e-05
2.0028e-05
2.01192e-05
2.02201e-05
2.04382e-05
2.05976e-05
2.09321e-05
2.11378e-05
2.15612e-05
2.1797e-05
2.22783e-05
2.25334e-05
2.3054e-05
2.33252e-05
2.38812e-05
2.41705e-05
2.47675e-05
2.50794e-05
2.57253e-05
2.6063e-05
2.67631e-05
2.71278e-05
2.78829e-05
2.82735e-05
2.9079e-05
2.94931e-05
3.03431e-05
3.07773e-05
3.16654e-05
3.21169e-05
3.30375e-05
3.35039e-05
3.4453e-05
3.49327e-05
3.59072e-05
3.63992e-05
3.73971e-05
3.79009e-05
3.89219e-05
3.94384e-05
4.04845e-05
4.10147e-05
4.20883e-05
4.26329e-05
4.37349e-05
4.42943e-05
4.54259e-05
4.60009e-05
4.71634e-05
4.77546e-05
4.89495e-05
4.95573e-05
5.07853e-05
5.14097e-05
5.26705e-05
5.3311e-05
5.46038e-05
5.52597e-05
5.6583e-05
5.72534e-05
5.86052e-05
5.9289e-05
6.06674e-05
6.13635e-05
6.27666e-05
6.34732e-05
6.48967e-05
6.56102e-05
6.7047e-05
6.77632e-05
6.92069e-05
6.99251e-05
7.13797e-05
7.21076e-05
7.36017e-05
7.43666e-05
7.59872e-05
7.68543e-05
1.99877e-05
1.99887e-05
2.0004e-05
2.0046e-05
2.01464e-05
2.02631e-05
2.05078e-05
2.07584e-05
2.13095e-05
2.19232e-05
2.33126e-05
2.48138e-05
2.81482e-05
3.12179e-05
3.78835e-05
4.31305e-05
5.43005e-05
6.20529e-05
7.82852e-05
8.85323e-05
0.000109722
0.000122185
0.000147707
0.000161936
0.000190853
0.000206337
0.000237362
0.00025414
0.00028614
0.000303692
0.000336104
0.000353955
0.000386385
0.000404181
0.000436375
0.000453911
0.000485726
0.000502874
0.000534201
0.000550871
0.000581699
0.000597921
0.000628312
0.000644143
0.000674123
0.000689585
0.000719186
0.000734302
0.000763565
0.000778384
0.000807363
0.000821951
0.000850703
0.000865106
0.00089363
0.00090786
0.000936166
0.000950254
0.000978399
0.000992397
0.00102038
0.00103428
0.0010621
0.00107594
0.00110362
0.0011174
0.00114499
0.00115871
0.00118619
0.00119983
0.00122715
0.00124068
0.00126784
0.00128131
0.00130848
0.00132206
0.00134982
0.00136403
0.00139414
0.00141022
1.99976e-05
2.0005e-05
2.00473e-05
2.02306e-05
2.09186e-05
2.30548e-05
2.87018e-05
4.1501e-05
7.10478e-05
0.000112206
0.000195695
0.00029644
0.000453652
0.000632981
0.000871423
0.00112962
0.00144132
0.00176298
0.00212789
0.00249051
0.00288563
0.00326634
0.00367008
0.00404903
0.00444412
0.00480665
0.00518133
0.0055184
0.00586641
0.00617383
0.00649285
0.00676944
0.00705953
0.00730627
0.00756951
0.00778896
0.00802836
0.00822344
0.00844214
0.00861601
0.00881754
0.00897367
0.00916161
0.00930313
0.00948046
0.00960991
0.00977923
0.00989893
0.0100627
0.0101748
0.0103351
0.0104415
0.0106002
0.0107021
0.0108608
0.0109594
0.0111192
0.0112158
0.011378
0.0114733
0.0116388
0.0117334
0.0119029
0.0119974
0.0121717
0.0122666
0.012446
0.0125418
0.0127267
0.0128234
0.0130139
0.013112
0.0133079
0.0134084
0.0136104
0.0137143
0.0139256
0.0140376
0.0142738
0.014405
2.00148e-05
2.09933e-05
2.94892e-05
6.69735e-05
0.000186149
0.00047441
0.00107715
0.00214683
0.0037563
0.00592304
0.00860178
0.0117291
0.0151655
0.0188167
0.0225499
0.0262753
0.0298913
0.0333465
0.0365819
0.0395837
0.0423269
0.0448197
0.0470593
0.0490638
0.0508467
0.0524254
0.0538263
0.0550627
0.056162
0.0571346
0.0580076
0.0587866
0.0594979
0.0601416
0.0607443
0.0613002
0.0618356
0.0623397
0.0628401
0.0633197
0.0638088
0.0642837
0.0647788
0.0652631
0.0657758
0.0662786
0.0668172
0.0673443
0.0679139
0.0684683
0.0690717
0.069654
0.070292
0.0709016
0.0715743
0.0722091
0.0729158
0.0735732
0.0743127
0.0749892
0.0757598
0.0764509
0.0772511
0.0779521
0.0787807
0.0794866
0.0803429
0.081048
0.0819316
0.0826296
0.083541
0.084225
0.0851661
0.0858289
0.0868029
0.0874361
0.0884473
0.0890536
0.0901355
0.0907972
4.29331e-05
0.000551034
0.00277346
0.00839804
0.0201439
0.0385825
0.0630157
0.090767
0.120386
0.14912
0.176187
0.200124
0.220594
0.237863
0.251841
0.262895
0.271388
0.277784
0.282418
0.285719
0.287898
0.289329
0.290078
0.290494
0.290485
0.290394
0.290186
0.289904
0.289616
0.289349
0.289123
0.28895
0.288834
0.288777
0.288788
0.288831
0.288922
0.289059
0.289227
0.28942
0.289632
0.289855
0.290084
0.290314
0.290538
0.290755
0.290961
0.291154
0.291329
0.291488
0.291626
0.291747
0.291843
0.291923
0.291975
0.292014
0.29202
0.292011
0.291985
0.291941
0.291865
0.291786
0.291668
0.291557
0.291398
0.291262
0.291061
0.290906
0.290662
0.290496
0.290208
0.290038
0.289708
0.289533
0.289163
0.288976
0.288524
0.288277
0.28743
0.287682
0.0147592
0.0791476
0.206055
0.365082
0.53256
0.687769
0.819691
0.921531
0.995432
1.04104
1.06796
1.07231
1.06771
1.05549
1.03419
1.00892
0.981384
0.952813
0.924095
0.895855
0.86851
0.842334
0.817485
0.79405
0.772048
0.75147
0.732273
0.7144
0.697777
0.68233
0.667977
0.654639
0.642236
0.630692
0.619936
0.609899
0.600517
0.591731
0.583489
0.575739
0.568437
0.561542
0.555016
0.548826
0.54294
0.537329
0.531969
0.52684
0.521924
0.517202
0.512659
0.508282
0.504057
0.499973
0.49602
0.492189
0.488474
0.484866
0.48136
0.47795
0.474632
0.471401
0.468253
0.465185
0.462195
0.459276
0.456433
0.45365
0.450954
0.448287
0.445749
0.443159
0.440822
0.438224
0.436176
0.433425
0.431648
0.428806
0.425802
0.430549
0.750501
0.907766
0.949463
0.951527
0.945301
0.933093
0.921832
0.912124
0.903499
0.89576
0.888706
0.882243
0.87633
0.870924
0.865975
0.861437
0.857279
0.853475
0.85
0.846833
0.843951
0.841334
0.838962
0.836818
0.834886
0.833153
0.831606
0.83023
0.829016
0.827952
0.827027
0.826233
0.825558
0.825
0.824547
0.824189
0.823926
0.82375
0.82366
0.823645
0.823698
0.823823
0.824018
0.824275
0.824591
0.824965
0.825395
0.825879
0.826414
0.827
0.827635
0.828315
0.829041
0.829811
0.830623
0.831476
0.832369
0.8333
0.834267
0.83527
0.836307
0.837377
0.838477
0.839608
0.840768
0.841955
0.843169
0.84441
0.845675
0.846964
0.848278
0.849614
0.850972
0.852353
0.853755
0.855178
0.856621
0.858084
0.859567
0.861069
0.862589
0.864128
0.865684
0.867258
0.868848
0.870454
0.872076
0.873713
0.875365
0.877031
0.878711
0.880403
0.882109
0.883826
0.885556
0.887296
0.889048
0.89081
0.892582
0.894364
0.896154
0.897953
0.899761
0.901576
0.903399
0.905229
0.907065
0.908906
0.910753
0.912605
0.914462
0.916322
0.918185
0.92005
0.921918
0.923787
0.925657
0.927527
0.929398
0.931267
0.933136
0.935002
0.936867
0.938729
0.940588
0.942443
0.944295
0.946142
0.947985
0.949824
0.951657
0.953485
0.955308
0.957125
0.958936
0.96074
0.962539
0.964331
0.966116
0.967895
0.969667
0.971431
0.973189
0.974938
0.976681
0.978415
0.980142
0.98186
0.983571
0.985272
0.986965
0.98865
0.990325
0.991991
0.993647
0.995294
0.996931
0.998559
1.00018
1.00178
1.00338
1.00497
1.00654
1.00811
1.00967
1.01121
1.01275
1.01427
1.01579
1.0173
1.01879
1.02028
1.02176
1.02323
1.02469
1.02615
1.02759
1.02903
1.03046
1.03188
1.0333
1.03471
1.03611
1.03751
1.0389
1.04028
1.04166
1.04303
1.04439
1.04575
1.0471
1.04844
1.04978
1.05111
1.05244
1.05375
1.05506
1.05636
1.05766
1.05894
1.06022
1.06149
1.06275
1.064
1.06524
1.06648
1.0677
1.06892
1.07012
1.07132
1.07251
1.07368
1.07485
1.07601
1.07716
1.0783
1.07943
1.08055
1.08166
1.08277
1.08387
1.08496
1.08604
1.08712
1.08819
1.08926
1.09032
1.09138
1.09243
1.09348
1.09453
1.09558
1.09662
1.09767
1.09872
1.09977
1.10082
1.10187
1.10293
1.10399
1.10506
1.10613
1.10721
1.1083
1.10939
1.1105
1.11161
1.11273
1.11386
1.11499
1.11614
1.1173
1.11846
1.11964
1.12082
1.12202
1.12322
1.12443
1.12565
1.12688
1.12811
1.12935
1.1306
1.13185
1.13311
1.13437
1.13564
1.1369
1.13817
1.13945
1.14072
1.14199
1.14326
1.14453
1.1458
1.14707
1.14834
1.1496
1.15086
1.15211
1.15337
1.15462
1.15586
1.1571
1.15834
1.15957
1.1608
1.16202
1.16324
1.16446
1.16568
1.16689
1.16809
1.1693
1.1705
1.1717
1.1729
1.1741
1.17529
1.17649
1.17768
1.17887
1.18007
1.18126
1.18246
1.18365
1.18485
1.18605
1.18725
1.18845
1.18965
1.19085
1.19206
1.19327
1.19448
1.19569
1.19691
1.19813
1.19935
1.20057
1.20179
1.20302
1.20425
1.20548
1.20671
1.20794
1.20917
1.2104
1.21164
1.21287
1.21411
1.21534
1.21658
1.21781
1.21905
1.22028
1.22152
1.22275
1.22399
1.22522
1.22646
1.22769
1.22893
1.23017
1.2314
1.23265
1.23387
1.23513
1.23634
1.23764
1.23881
1.24016
1.24127
1.24273
1.24371
1.24535
1.24614
1.24801
1.24857
1.2508
0.402549
0.582138
0.693042
0.749352
0.774569
0.781303
0.779883
0.775621
0.768728
0.76164
0.754835
0.748527
0.742802
0.737672
0.733109
0.729064
0.725484
0.722322
0.719531
0.717071
0.714905
0.713001
0.711332
0.709874
0.708608
0.707517
0.706588
0.705809
0.705167
0.704654
0.704259
0.70398
0.703797
0.703723
0.703744
0.703822
0.70399
0.704243
0.704564
0.704951
0.705398
0.705902
0.706463
0.707077
0.707741
0.708454
0.709212
0.710014
0.710858
0.711742
0.712665
0.713626
0.714622
0.715653
0.716717
0.717812
0.718937
0.720091
0.721273
0.722481
0.723714
0.72497
0.726249
0.72755
0.728871
0.730212
0.731572
0.73295
0.734344
0.735756
0.737183
0.738625
0.740082
0.741553
0.743038
0.744537
0.746048
0.747571
0.749107
0.750654
0.752212
0.753781
0.75536
0.756948
0.758546
0.760153
0.761768
0.76339
0.76502
0.766657
0.7683
0.76995
0.771605
0.773266
0.774932
0.776602
0.778277
0.779957
0.78164
0.783327
0.785017
0.786711
0.788407
0.790107
0.791809
0.793514
0.795221
0.79693
0.798641
0.800355
0.802069
0.803786
0.805503
0.807222
0.808942
0.810663
0.812384
0.814105
0.815827
0.817549
0.81927
0.820991
0.822712
0.824431
0.82615
0.827867
0.829582
0.831296
0.833008
0.834718
0.836425
0.838129
0.839831
0.84153
0.843226
0.844918
0.846607
0.848292
0.849974
0.851652
0.853325
0.854995
0.85666
0.858321
0.859977
0.861629
0.863277
0.86492
0.866558
0.868191
0.86982
0.871443
0.873061
0.874675
0.876283
0.877886
0.879483
0.881075
0.882662
0.884243
0.885818
0.887388
0.888951
0.890509
0.892061
0.893607
0.895146
0.89668
0.898208
0.899729
0.901245
0.902754
0.904258
0.905756
0.907248
0.908733
0.910214
0.911688
0.913157
0.91462
0.916078
0.917531
0.918978
0.92042
0.921857
0.923289
0.924715
0.926137
0.927553
0.928965
0.930371
0.931773
0.933169
0.934561
0.935948
0.93733
0.938707
0.940079
0.941446
0.942809
0.944167
0.94552
0.946869
0.948213
0.949552
0.950888
0.952219
0.953546
0.954869
0.956188
0.957503
0.958815
0.960123
0.961428
0.96273
0.964029
0.965325
0.966618
0.967908
0.969195
0.97048
0.971763
0.973043
0.974321
0.975596
0.97687
0.978141
0.979409
0.980676
0.98194
0.983202
0.984462
0.985719
0.986975
0.988228
0.989479
0.990728
0.991975
0.99322
0.994463
0.995704
0.996944
0.998181
0.999417
1.00065
1.00188
1.00312
1.00435
1.00558
1.0068
1.00803
1.00926
1.01048
1.01171
1.01293
1.01416
1.01538
1.01661
1.01783
1.01905
1.02028
1.0215
1.02273
1.02395
1.02517
1.0264
1.02762
1.02884
1.03007
1.03129
1.03251
1.03373
1.03496
1.03618
1.0374
1.03863
1.03985
1.04107
1.04229
1.04352
1.04474
1.04596
1.04719
1.04841
1.04963
1.05086
1.05208
1.05331
1.05453
1.05576
1.05699
1.05821
1.05944
1.06067
1.0619
1.06313
1.06436
1.0656
1.06683
1.06807
1.0693
1.07054
1.07177
1.07301
1.07425
1.07549
1.07672
1.07796
1.0792
1.08044
1.08168
1.08292
1.08416
1.08541
1.08665
1.08789
1.08913
1.09038
1.09162
1.09286
1.09411
1.09535
1.0966
1.09785
1.09909
1.10034
1.10159
1.10284
1.10409
1.10534
1.1066
1.10785
1.10911
1.11037
1.11162
1.11288
1.11414
1.11541
1.11667
1.11793
1.1192
1.12047
1.12173
1.123
1.12426
1.12554
1.1268
1.12809
1.12933
1.13065
1.13186
1.13322
1.13437
1.13582
1.13685
1.13844
1.13932
1.14107
1.14186
1.14385
0.107893
0.155459
0.209501
0.264047
0.313124
0.353357
0.384147
0.407014
0.42341
0.434939
0.442895
0.448286
0.451882
0.454247
0.45578
0.456755
0.457365
0.457741
0.457973
0.458125
0.458239
0.458346
0.458464
0.458605
0.458777
0.458986
0.459233
0.459524
0.459857
0.460236
0.460657
0.461122
0.461628
0.462173
0.462761
0.463382
0.464038
0.464728
0.465451
0.466203
0.466984
0.467789
0.468619
0.469471
0.470344
0.471237
0.472149
0.473077
0.474023
0.474983
0.475958
0.476947
0.477949
0.478964
0.47999
0.481027
0.482076
0.483135
0.484204
0.485283
0.486371
0.487467
0.488571
0.489682
0.490801
0.491926
0.493056
0.494193
0.495334
0.496479
0.497629
0.498782
0.499938
0.501097
0.502258
0.503422
0.504588
0.505756
0.506926
0.508097
0.50927
0.510444
0.51162
0.512797
0.513975
0.515154
0.516335
0.517517
0.5187
0.519885
0.52107
0.522256
0.523443
0.524631
0.525819
0.527009
0.528199
0.529389
0.53058
0.531771
0.532963
0.534155
0.535347
0.536539
0.537731
0.538923
0.540116
0.541308
0.542501
0.543693
0.544886
0.546079
0.547272
0.548466
0.549659
0.550853
0.552047
0.553241
0.554436
0.555632
0.556827
0.558023
0.55922
0.560417
0.561615
0.562812
0.564011
0.565209
0.566408
0.567607
0.568807
0.570007
0.571206
0.572406
0.573606
0.574806
0.576005
0.577205
0.578404
0.579603
0.580801
0.581999
0.583197
0.584394
0.585591
0.586787
0.587983
0.589178
0.590373
0.591567
0.592761
0.593954
0.595147
0.59634
0.597532
0.598723
0.599914
0.601104
0.602294
0.603483
0.604672
0.60586
0.607047
0.608233
0.609418
0.610602
0.611785
0.612967
0.614148
0.615326
0.616504
0.617679
0.618853
0.620025
0.621195
0.622363
0.623529
0.624693
0.625855
0.627014
0.628172
0.629327
0.63048
0.631632
0.632781
0.633928
0.635073
0.636216
0.637357
0.638496
0.639634
0.640769
0.641903
0.643035
0.644166
0.645294
0.646421
0.647546
0.648669
0.64979
0.650909
0.652027
0.653142
0.654255
0.655365
0.656474
0.65758
0.658684
0.659786
0.660885
0.661981
0.663075
0.664166
0.665255
0.666342
0.667425
0.668507
0.669585
0.670662
0.671736
0.672807
0.673877
0.674944
0.676009
0.677071
0.678132
0.67919
0.680247
0.681301
0.682353
0.683404
0.684452
0.685498
0.686542
0.687584
0.688624
0.689661
0.690696
0.691729
0.69276
0.693789
0.694815
0.695838
0.696859
0.697878
0.698895
0.699909
0.70092
0.70193
0.702937
0.703941
0.704944
0.705945
0.706943
0.70794
0.708935
0.709929
0.710921
0.711911
0.712901
0.713889
0.714876
0.715862
0.716847
0.717831
0.718815
0.719797
0.72078
0.721761
0.722742
0.723722
0.724702
0.725681
0.72666
0.727637
0.728614
0.72959
0.730566
0.73154
0.732514
0.733487
0.734459
0.73543
0.7364
0.737369
0.738337
0.739304
0.740271
0.741236
0.7422
0.743164
0.744127
0.74509
0.746051
0.747013
0.747974
0.748934
0.749895
0.750855
0.751815
0.752775
0.753735
0.754695
0.755655
0.756615
0.757575
0.758536
0.759497
0.760458
0.761419
0.76238
0.763341
0.764303
0.765264
0.766225
0.767186
0.768147
0.769108
0.770069
0.771029
0.771989
0.772949
0.773908
0.774867
0.775825
0.776784
0.777741
0.778699
0.779655
0.780612
0.781568
0.782525
0.783481
0.784437
0.785393
0.786349
0.787305
0.788262
0.789217
0.790176
0.791131
0.792091
0.793045
0.794008
0.79496
0.795929
0.796876
0.797853
0.79879
0.799784
0.800699
0.801723
0.802601
0.803676
0.804492
0.805644
0.806372
0.807622
0.808264
0.809783
0.0160983
0.0205343
0.0271641
0.0362978
0.0480164
0.0617487
0.0765883
0.0918384
0.106968
0.121586
0.135406
0.148246
0.160027
0.17075
0.18046
0.189227
0.197131
0.204257
0.210686
0.216498
0.221766
0.226559
0.230934
0.234944
0.238629
0.24203
0.245177
0.2481
0.250824
0.253373
0.255765
0.258019
0.26015
0.262171
0.264094
0.265929
0.267687
0.269375
0.271001
0.272573
0.274096
0.275574
0.277013
0.278414
0.279781
0.281117
0.282424
0.283703
0.284958
0.286188
0.287396
0.288583
0.289749
0.290895
0.292022
0.293131
0.294224
0.2953
0.296361
0.297408
0.298442
0.299462
0.30047
0.301466
0.302451
0.303424
0.304387
0.305339
0.306281
0.307214
0.308136
0.309048
0.30995
0.310843
0.311724
0.312596
0.313458
0.31431
0.315152
0.315985
0.316808
0.317622
0.318427
0.319223
0.32001
0.32079
0.321561
0.322326
0.323083
0.323834
0.324579
0.325318
0.326052
0.326781
0.327504
0.328223
0.328938
0.329648
0.330355
0.331058
0.331757
0.332453
0.333146
0.333835
0.334522
0.335205
0.335886
0.336563
0.337239
0.337912
0.338582
0.339251
0.339918
0.340583
0.341246
0.341908
0.342569
0.343228
0.343887
0.344545
0.345202
0.34586
0.346517
0.347175
0.347832
0.348491
0.349149
0.349808
0.350468
0.35113
0.351792
0.352455
0.35312
0.353786
0.354454
0.355123
0.355794
0.356466
0.35714
0.357816
0.358493
0.359172
0.359853
0.360535
0.361219
0.361906
0.362593
0.363283
0.363975
0.364668
0.365363
0.36606
0.36676
0.367461
0.368165
0.368871
0.369579
0.37029
0.371003
0.371719
0.372437
0.373157
0.373881
0.374607
0.375335
0.376067
0.376801
0.377538
0.378277
0.379019
0.379763
0.38051
0.381258
0.382009
0.382762
0.383516
0.384273
0.385031
0.38579
0.386551
0.387313
0.388076
0.38884
0.389605
0.39037
0.391137
0.391905
0.392673
0.393442
0.394212
0.394983
0.395754
0.396527
0.3973
0.398074
0.398849
0.399625
0.400402
0.401181
0.40196
0.40274
0.403521
0.404303
0.405085
0.405868
0.406652
0.407436
0.408221
0.409006
0.409791
0.410576
0.41136
0.412145
0.412928
0.413711
0.414494
0.415275
0.416055
0.416835
0.417613
0.41839
0.419166
0.41994
0.420714
0.421486
0.422256
0.423026
0.423794
0.424561
0.425327
0.426092
0.426856
0.427619
0.428381
0.429142
0.429902
0.430661
0.431419
0.432176
0.432931
0.433686
0.434439
0.435192
0.435942
0.436692
0.43744
0.438186
0.438931
0.439674
0.440415
0.441155
0.441892
0.442628
0.443361
0.444093
0.444822
0.44555
0.446276
0.447
0.447722
0.448443
0.449162
0.44988
0.450596
0.451311
0.452025
0.452738
0.45345
0.454161
0.454871
0.455581
0.45629
0.456998
0.457706
0.458413
0.45912
0.459826
0.460532
0.461237
0.461941
0.462645
0.463348
0.464049
0.46475
0.46545
0.466149
0.466846
0.467542
0.468237
0.46893
0.469622
0.470312
0.471
0.471688
0.472373
0.473057
0.47374
0.474422
0.475102
0.475781
0.476459
0.477136
0.477811
0.478487
0.479161
0.479835
0.480508
0.481181
0.481854
0.482526
0.483198
0.48387
0.484542
0.485214
0.485886
0.486558
0.487229
0.487901
0.488572
0.489243
0.489914
0.490584
0.491254
0.491924
0.492592
0.493261
0.493928
0.494594
0.49526
0.495925
0.496588
0.497251
0.497912
0.498574
0.499232
0.499893
0.500549
0.501208
0.501862
0.502521
0.503172
0.503832
0.504479
0.505142
0.505784
0.506451
0.507088
0.507763
0.508388
0.509078
0.509685
0.510398
0.510979
0.511725
0.512268
0.513063
0.513552
0.514407
0.514847
0.515902
0.00156565
0.00186212
0.00225915
0.00279834
0.0035746
0.00466623
0.00610085
0.0078943
0.010061
0.0126011
0.0154934
0.0186987
0.0221704
0.025861
0.0297261
0.0337237
0.0378159
0.0419664
0.046143
0.050317
0.0544655
0.0585705
0.0626181
0.0665972
0.0704983
0.0743139
0.0780375
0.0816646
0.0851921
0.0886184
0.0919434
0.0951678
0.0982929
0.10132
0.104251
0.107089
0.109834
0.112491
0.115061
0.117548
0.119955
0.122285
0.124541
0.126724
0.128838
0.130883
0.132862
0.134776
0.136627
0.138416
0.140145
0.141816
0.143429
0.144987
0.146488
0.147936
0.149332
0.150676
0.15197
0.153216
0.154415
0.15557
0.156682
0.157753
0.158783
0.159775
0.16073
0.16165
0.162536
0.163389
0.164211
0.165003
0.165766
0.166502
0.16721
0.167893
0.16855
0.169182
0.169791
0.170376
0.170939
0.171481
0.172002
0.172503
0.172985
0.173448
0.173893
0.174321
0.174733
0.175129
0.175511
0.175878
0.176233
0.176576
0.176907
0.177227
0.177537
0.177838
0.178129
0.178412
0.178686
0.178954
0.179214
0.179468
0.179716
0.179958
0.180194
0.180425
0.180651
0.180872
0.181089
0.181301
0.181509
0.181714
0.181916
0.182114
0.182309
0.182501
0.18269
0.182877
0.183062
0.183245
0.183426
0.183606
0.183785
0.183964
0.184141
0.184318
0.184495
0.184672
0.18485
0.185028
0.185206
0.185386
0.185566
0.185749
0.185932
0.186117
0.186304
0.186493
0.186683
0.186876
0.187071
0.187267
0.187466
0.187668
0.187871
0.188077
0.188286
0.188496
0.188709
0.188924
0.189141
0.189361
0.189584
0.189809
0.190036
0.190267
0.1905
0.190736
0.190975
0.191217
0.191463
0.191711
0.191963
0.192219
0.192478
0.192741
0.193008
0.193278
0.193553
0.193831
0.194113
0.194399
0.194689
0.194983
0.19528
0.195581
0.195886
0.196194
0.196505
0.19682
0.197138
0.197458
0.197782
0.198108
0.198436
0.198768
0.199101
0.199438
0.199776
0.200118
0.200461
0.200807
0.201155
0.201506
0.201859
0.202215
0.202573
0.202934
0.203297
0.203663
0.204032
0.204404
0.204778
0.205155
0.205535
0.205917
0.206302
0.206689
0.207079
0.207471
0.207864
0.20826
0.208658
0.209057
0.209458
0.20986
0.210263
0.210667
0.211072
0.211478
0.211884
0.212291
0.212698
0.213106
0.213514
0.213922
0.214331
0.214739
0.215148
0.215558
0.215967
0.216377
0.216787
0.217198
0.21761
0.218022
0.218434
0.218847
0.219261
0.219675
0.220089
0.220504
0.22092
0.221336
0.221752
0.222169
0.222585
0.223002
0.223419
0.223835
0.224251
0.224667
0.225082
0.225496
0.22591
0.226323
0.226735
0.227146
0.227556
0.227966
0.228374
0.228782
0.229188
0.229594
0.229999
0.230404
0.230807
0.23121
0.231613
0.232015
0.232417
0.232819
0.233221
0.233622
0.234024
0.234425
0.234827
0.235229
0.23563
0.236032
0.236433
0.236835
0.237236
0.237637
0.238038
0.238438
0.238838
0.239237
0.239635
0.240032
0.240428
0.240824
0.241218
0.241611
0.242002
0.242393
0.242782
0.243169
0.243556
0.243941
0.244325
0.244708
0.245089
0.24547
0.245849
0.246228
0.246606
0.246983
0.24736
0.247737
0.248112
0.248489
0.248864
0.24924
0.249615
0.249991
0.250366
0.250742
0.251117
0.251493
0.251868
0.252244
0.252619
0.252995
0.253369
0.253745
0.254117
0.254492
0.254863
0.255237
0.255606
0.255979
0.256345
0.256718
0.25708
0.257452
0.257811
0.258183
0.258537
0.25891
0.259259
0.259634
0.259977
0.260355
0.26069
0.261075
0.2614
0.261795
0.262106
0.262514
0.262812
0.263235
0.263514
0.26396
0.264217
0.264686
0.264927
0.265512
8.70332e-05
0.000101584
0.000119426
0.000140392
0.000167416
0.000203768
0.000252244
0.000316027
0.000399826
0.000509296
0.000650151
0.000827788
0.00104711
0.00131251
0.00162816
0.00199762
0.00242409
0.00290991
0.00345651
0.0040641
0.00473216
0.00545979
0.00624572
0.00708862
0.0079865
0.00893697
0.00993676
0.0109821
0.012069
0.0131934
0.0143514
0.0155393
0.0167537
0.0179908
0.0192468
0.0205178
0.0217996
0.0230887
0.0243814
0.0256749
0.0269664
0.0282533
0.0295332
0.0308036
0.0320619
0.0333059
0.0345328
0.0357409
0.036928
0.0380929
0.0392342
0.0403505
0.0414407
0.0425035
0.0435377
0.0445422
0.0455161
0.046459
0.0473703
0.0482501
0.0490982
0.0499151
0.0507009
0.0514561
0.0521811
0.0528764
0.0535424
0.0541799
0.0547896
0.0553723
0.055929
0.0564606
0.0569679
0.0574518
0.057913
0.0583522
0.05877
0.059167
0.0595438
0.0599011
0.0602397
0.0605602
0.0608633
0.0611498
0.06142
0.0616747
0.0619143
0.0621393
0.0623505
0.0625483
0.0627335
0.0629068
0.0630689
0.0632205
0.0633621
0.0634943
0.0636176
0.0637325
0.0638395
0.0639391
0.0640319
0.0641183
0.0641988
0.064274
0.0643441
0.0644095
0.0644705
0.0645273
0.0645801
0.0646292
0.0646748
0.0647172
0.0647566
0.0647933
0.0648275
0.0648593
0.064889
0.0649165
0.0649421
0.0649659
0.064988
0.0650086
0.065028
0.0650463
0.0650637
0.0650804
0.0650966
0.0651123
0.0651278
0.065143
0.0651582
0.0651735
0.065189
0.065205
0.0652216
0.065239
0.0652572
0.0652763
0.0652964
0.0653175
0.0653397
0.0653631
0.0653876
0.0654134
0.0654405
0.0654689
0.0654987
0.0655299
0.0655624
0.0655962
0.0656313
0.0656677
0.0657053
0.0657442
0.0657844
0.0658259
0.0658687
0.065913
0.0659586
0.0660057
0.0660542
0.0661041
0.0661555
0.0662084
0.0662629
0.0663191
0.0663769
0.0664366
0.0664981
0.0665615
0.0666268
0.066694
0.0667631
0.0668341
0.066907
0.0669819
0.0670586
0.0671372
0.0672177
0.0673001
0.0673843
0.0674702
0.0675577
0.0676468
0.0677374
0.0678295
0.0679228
0.0680176
0.0681136
0.0682108
0.0683094
0.0684091
0.06851
0.0686121
0.0687154
0.0688197
0.0689252
0.0690318
0.0691396
0.0692486
0.0693588
0.0694703
0.0695832
0.0696973
0.0698128
0.0699297
0.0700479
0.0701674
0.0702882
0.0704103
0.0705336
0.0706582
0.070784
0.070911
0.0710391
0.0711682
0.0712983
0.0714293
0.071561
0.0716935
0.0718266
0.0719602
0.0720943
0.0722288
0.0723638
0.0724992
0.0726348
0.0727708
0.0729071
0.0730436
0.0731803
0.0733173
0.0734545
0.0735919
0.0737296
0.0738676
0.0740059
0.0741447
0.0742838
0.0744234
0.0745635
0.074704
0.0748449
0.0749863
0.0751281
0.0752704
0.0754131
0.0755562
0.0756997
0.0758435
0.0759876
0.076132
0.0762766
0.0764214
0.0765661
0.0767109
0.0768555
0.0770001
0.0771444
0.0772886
0.0774325
0.0775761
0.0777195
0.0778626
0.0780054
0.0781479
0.0782901
0.0784319
0.0785734
0.0787147
0.0788557
0.0789966
0.0791373
0.079278
0.0794185
0.0795591
0.0796997
0.0798404
0.0799812
0.080122
0.0802629
0.0804039
0.080545
0.0806862
0.0808275
0.0809689
0.0811102
0.0812517
0.081393
0.0815344
0.0816754
0.0818164
0.081957
0.0820974
0.0822372
0.0823768
0.0825157
0.0826544
0.0827922
0.0829299
0.0830666
0.0832032
0.0833387
0.0834743
0.0836086
0.0837431
0.0838763
0.0840099
0.084142
0.084275
0.0844062
0.0845387
0.0846694
0.0848016
0.0849318
0.0850641
0.0851939
0.0853264
0.0854558
0.0855887
0.0857179
0.0858513
0.0859801
0.0861142
0.0862425
0.0863773
0.086505
0.0866405
0.0867673
0.0869034
0.087029
0.0871658
0.0872897
0.0874274
0.0875491
0.0876876
0.0878068
0.0879464
0.0880627
0.0882034
0.0883164
0.0884586
0.0885681
0.088712
0.0888177
0.0889637
0.0890653
0.089214
0.0893111
0.0894628
0.0895562
0.08971
0.0898009
0.0899568
0.0900447
0.0902038
0.0902891
0.0904513
0.0905345
0.0907382
8.07655e-05
9.19165e-05
0.000104331