/*--------------------------------*- C++ -*----------------------------------*\
  =========                 |
  \\      /  F ield         | OpenFOAM: The Open Source CFD Toolbox
   \\    /   O peration     | Website:  https://openfoam.org
    \\  /    A nd           | Version:  7
     \\/     M anipulation  |
\*---------------------------------------------------------------------------*/
FoamFile
{
    version     2.0;
    format      ascii;
    class       volScalarField;
    location    "0.25";
    object      alphat;
}
// * * * * * * * * * * * * * * * * * * * * * * * * * * * * * * * * * * * * * //

dimensions      [1 -1 -1 0 0 0 0];

internalField   nonuniform List<scalar> 
1440
(
0.00822316
0.00809202
0.007586
0.00696087
0.00656526
0.00634092
0.00619048
0.00607614
0.00598481
0.00590249
0.00582114
0.00573942
0.00565796
0.00557738
0.00549828
0.00542095
0.00534546
0.00527188
0.00520025
0.0051306
0.00506298
0.0049974
0.00493388
0.00487245
0.00481311
0.00475585
0.00470068
0.00464758
0.00459655
0.00454756
0.00450059
0.00445561
0.00441259
0.00437145
0.00433225
0.00429484
0.0042592
0.00422529
0.00419305
0.00416241
0.00413332
0.00410572
0.00407954
0.00405473
0.00403121
0.00400891
0.00398778
0.00396775
0.00394875
0.00393072
0.00391361
0.00389734
0.00388185
0.00386709
0.00385301
0.00383954
0.00382664
0.00381425
0.00380234
0.00379084
0.00377973
0.00376895
0.00375849
0.0037483
0.00373835
0.00372862
0.00371907
0.00370971
0.00370049
0.00369142
0.00368247
0.00367365
0.00366495
0.00365635
0.00364788
0.00363952
0.00363127
0.00362316
0.00361519
0.00360735
0.00359968
0.00359218
0.00358485
0.00357773
0.00357083
0.00356415
0.00355771
0.00355153
0.00354562
0.00354
0.00353468
0.00352965
0.00352495
0.00352055
0.00351649
0.00351275
0.00350934
0.00350626
0.00350349
0.00350104
0.00349889
0.00349703
0.00349546
0.00349415
0.00349309
0.00349226
0.00349164
0.00349122
0.00349096
0.00349087
0.00349087
0.00349104
0.00349119
0.00349158
0.00349177
0.00349234
0.00349249
0.00349309
0.00349027
0.00342588
0.00568667
0.00728511
0.00768195
0.00758952
0.00735801
0.00717713
0.00707058
0.00700241
0.0069514
0.00690675
0.00686277
0.0068186
0.00677501
0.00673225
0.00669059
0.00665018
0.00661106
0.00657321
0.00653658
0.00650115
0.00646691
0.00643379
0.00640177
0.00637081
0.00634089
0.00631198
0.00628404
0.00625705
0.00623096
0.00620574
0.00618137
0.00615782
0.00613505
0.00611301
0.00609177
0.00607119
0.00605128
0.00603204
0.00601344
0.00599544
0.00597803
0.0059612
0.00594491
0.00592916
0.00591392
0.00589918
0.00588492
0.00587114
0.0058578
0.0058449
0.00583245
0.0058204
0.00580876
0.00579751
0.00578664
0.00577616
0.00576603
0.00575626
0.00574683
0.00573774
0.00572898
0.00572054
0.00571241
0.00570459
0.00569707
0.00568983
0.00568287
0.0056762
0.00566978
0.00566362
0.00565772
0.00565205
0.00564662
0.00564142
0.00563644
0.00563168
0.00562712
0.00562277
0.00561861
0.00561463
0.00561084
0.00560722
0.00560378
0.0056005
0.00559737
0.0055944
0.00559157
0.00558889
0.00558636
0.00558396
0.00558169
0.00557956
0.00557755
0.00557566
0.0055739
0.00557226
0.00557074
0.00556933
0.00556803
0.00556684
0.00556575
0.00556478
0.0055639
0.00556312
0.00556244
0.00556185
0.00556135
0.00556095
0.0055606
0.00556038
0.00556016
0.00556015
0.00556001
0.00556022
0.00556009
0.0055606
0.00556043
0.00556122
0.00555991
0.00555561
0.00288655
0.00491197
0.00597259
0.00641378
0.00650488
0.00649713
0.00648407
0.00646704
0.00645107
0.00644035
0.00643179
0.00642352
0.00641581
0.00640856
0.00640172
0.00639531
0.00638938
0.00638392
0.0063789
0.00637416
0.00637012
0.00636619
0.00636262
0.00635939
0.00635644
0.00635377
0.00635134
0.00634915
0.00634718
0.0063454
0.00634382
0.00634241
0.00634117
0.00634006
0.00633912
0.0063383
0.00633761
0.00633703
0.00633656
0.00633619
0.00633593
0.00633575
0.00633566
0.00633565
0.00633573
0.00633588
0.0063361
0.0063364
0.00633678
0.00633721
0.00633772
0.00633831
0.00633895
0.00633965
0.00634043
0.00634129
0.00634221
0.00634319
0.00634425
0.00634537
0.00634657
0.00634783
0.00634916
0.00635056
0.00635203
0.00635356
0.00635516
0.00635684
0.00635857
0.00636037
0.00636223
0.00636415
0.00636613
0.00636816
0.00637024
0.00637237
0.00637455
0.00637677
0.00637903
0.00638132
0.00638363
0.00638597
0.00638833
0.00639071
0.00639309
0.00639547
0.00639786
0.00640025
0.00640263
0.006405
0.00640735
0.00640969
0.006412
0.00641429
0.00641654
0.00641877
0.00642097
0.00642312
0.00642524
0.00642732
0.00642935
0.00643134
0.00643328
0.00643518
0.00643702
0.00643881
0.00644054
0.00644223
0.00644384
0.00644544
0.00644691
0.00644846
0.00644975
0.00645126
0.0064523
0.00645386
0.00645463
0.00645622
0.00645662
0.0064565
0.00102648
0.00244863
0.00362519
0.00447732
0.00495287
0.00521338
0.00535166
0.00540609
0.00541939
0.00542614
0.00543616
0.00544922
0.00546386
0.0054793
0.00549503
0.00551083
0.00552667
0.00554255
0.00555844
0.00557431
0.00559017
0.00560597
0.0056217
0.00563736
0.00565292
0.00566838
0.00568372
0.00569893
0.00571401
0.00572894
0.00574372
0.00575835
0.00577283
0.00578714
0.00580129
0.00581527
0.00582909
0.00584274
0.00585623
0.00586956
0.00588272
0.00589573
0.00590857
0.00592126
0.0059338
0.00594619
0.00595843
0.00597053
0.00598251
0.00599434
0.00600605
0.00601763
0.00602908
0.00604041
0.00605163
0.00606276
0.00607377
0.00608468
0.00609549
0.00610621
0.00611683
0.00612735
0.0061378
0.00614816
0.00615843
0.00616862
0.00617873
0.00618876
0.00619872
0.00620859
0.00621837
0.00622807
0.00623769
0.00624723
0.00625668
0.00626604
0.00627531
0.00628448
0.00629355
0.00630252
0.00631139
0.00632014
0.00632879
0.00633732
0.00634572
0.00635398
0.00636212
0.00637013
0.006378
0.00638572
0.00639329
0.00640071
0.00640798
0.00641507
0.00642201
0.00642878
0.00643537
0.00644178
0.00644802
0.00645407
0.00645993
0.0064656
0.00647108
0.00647637
0.00648145
0.00648633
0.006491
0.00649548
0.00649972
0.00650379
0.00650758
0.00651132
0.00651462
0.00651799
0.00652073
0.00652383
0.00652597
0.00652874
0.00653108
0.00653201
0.000287296
0.000845767
0.00148606
0.00230011
0.00299068
0.00349505
0.00380541
0.00394842
0.00399408
0.00400802
0.00401922
0.00403779
0.00406149
0.00408787
0.00411528
0.00414301
0.00417079
0.00419857
0.0042263
0.00425394
0.00428146
0.00430885
0.00433607
0.00436312
0.00438996
0.00441661
0.00444302
0.00446919
0.00449511
0.00452075
0.00454615
0.00457124
0.00459608
0.00462063
0.00464485
0.00466878
0.00469246
0.0047158
0.00473885
0.00476162
0.00478409
0.00480627
0.00482816
0.00484975
0.00487108
0.00489213
0.00491289
0.0049334
0.00495366
0.00497364
0.00499339
0.00501289
0.00503213
0.00505113
0.00506992
0.00508849
0.00510683
0.00512495
0.00514286
0.00516057
0.00517808
0.00519537
0.00521247
0.00522938
0.00524609
0.00526261
0.00527896
0.00529512
0.00531109
0.00532687
0.00534246
0.00535785
0.00537306
0.00538809
0.00540292
0.00541757
0.00543202
0.00544628
0.00546033
0.00547417
0.0054878
0.00550123
0.00551446
0.00552747
0.00554025
0.0055528
0.00556512
0.00557722
0.00558908
0.0056007
0.00561208
0.00562321
0.00563408
0.0056447
0.00565506
0.00566516
0.00567497
0.00568452
0.0056938
0.00570279
0.00571149
0.00571991
0.00572804
0.00573587
0.00574339
0.00575062
0.00575752
0.00576414
0.00577041
0.00577641
0.005782
0.00578749
0.00579237
0.00579729
0.00580135
0.00580581
0.005809
0.00581295
0.0058164
0.00581923
6.93318e-05
0.000202643
0.000397178
0.000729393
0.00117226
0.00174301
0.00210208
0.00226677
0.0023169
0.00232198
0.00232332
0.00232865
0.0023432
0.00236898
0.00239671
0.00242533
0.00245443
0.00248386
0.00251351
0.00254333
0.0025733
0.00260336
0.00263351
0.00266372
0.00269393
0.00272419
0.00275437
0.00278453
0.00281465
0.00284463
0.00287456
0.00290427
0.00293393
0.00296342
0.00299263
0.00302171
0.00305068
0.00307931
0.0031077
0.00313594
0.0031639
0.00319161
0.00321902
0.00324616
0.0032731
0.00329974
0.00332602
0.0033521
0.00337794
0.0034034
0.00342864
0.00345358
0.0034782
0.00350255
0.00352666
0.00355051
0.00357404
0.00359728
0.00362027
0.00364297
0.00366541
0.00368758
0.00370947
0.00373112
0.00375246
0.00377356
0.00379442
0.003815
0.00383532
0.00385537
0.00387513
0.00389462
0.00391389
0.00393289
0.00395158
0.00397002
0.00398821
0.00400612
0.00402373
0.00404106
0.0040581
0.00407486
0.00409137
0.00410758
0.00412348
0.00413909
0.00415441
0.00416944
0.00418415
0.00419856
0.00421266
0.00422646
0.00423993
0.00425308
0.00426593
0.00427845
0.00429062
0.00430248
0.00431401
0.00432518
0.00433601
0.0043465
0.00435665
0.00436644
0.00437587
0.00438493
0.00439361
0.00440199
0.00440989
0.00441752
0.00442459
0.00443172
0.00443784
0.00444437
0.00444943
0.00445546
0.00445945
0.00446503
0.00446852
0.00447408
6.87306e-05
0.000198439
0.000392576
0.000729711
0.00118085
0.00174802
0.00210502
0.00226941
0.00232038
0.00232641
0.00232835
0.00233365
0.00234812
0.00237381
0.00240143
0.00242995
0.00245895
0.00248828
0.00251784
0.00254756
0.00257743
0.0026074
0.00263747
0.00266755
0.00269768
0.00272783
0.00275789
0.00278796
0.00281796
0.00284786
0.00287762
0.00290725
0.00293681
0.00296613
0.00299526
0.00302423
0.00305306
0.00308157
0.00310985
0.00313797
0.00316579
0.00319338
0.00322067
0.00324769
0.00327451
0.00330103
0.00332719
0.00335316
0.00337887
0.00340421
0.00342933
0.00345414
0.00347865
0.00350288
0.00352688
0.00355061
0.00357402
0.00359714
0.00362002
0.00364261
0.00366493
0.00368698
0.00370877
0.0037303
0.00375153
0.00377251
0.00379327
0.00381374
0.00383394
0.00385389
0.00387354
0.00389292
0.00391208
0.00393097
0.00394956
0.0039679
0.00398599
0.0040038
0.00402131
0.00403854
0.00405548
0.00407214
0.00408856
0.00410467
0.00412047
0.00413599
0.00415121
0.00416615
0.00418077
0.00419509
0.00420909
0.0042228
0.00423618
0.00424924
0.004262
0.00427444
0.00428652
0.0042983
0.00430974
0.00432084
0.00433157
0.00434199
0.00435206
0.00436177
0.00437113
0.00438011
0.00438872
0.00439703
0.00440486
0.00441242
0.00441941
0.00442648
0.00443254
0.004439
0.00444401
0.00444995
0.00445391
0.00445942
0.00446268
0.00446838
0.000285219
0.000835746
0.00147615
0.00230036
0.00299725
0.00350057
0.00381048
0.00395379
0.00399918
0.00401248
0.00402371
0.00404244
0.00406626
0.0040927
0.00412011
0.00414779
0.00417551
0.00420321
0.00423085
0.0042584
0.00428582
0.0043131
0.00434023
0.00436716
0.0043939
0.00442043
0.00444671
0.00447277
0.00449857
0.00452411
0.00454936
0.00457435
0.00459907
0.00462348
0.00464759
0.00467142
0.00469497
0.00471821
0.00474114
0.0047638
0.00478615
0.00480823
0.00483001
0.0048515
0.00487272
0.00489367
0.00491433
0.00493473
0.00495489
0.00497478
0.00499443
0.00501383
0.00503298
0.00505189
0.00507058
0.00508907
0.00510732
0.00512534
0.00514317
0.00516079
0.00517821
0.00519542
0.00521243
0.00522927
0.00524589
0.00526233
0.00527859
0.00529467
0.00531056
0.00532626
0.00534177
0.00535708
0.00537222
0.00538717
0.00540193
0.00541649
0.00543087
0.00544505
0.00545902
0.00547279
0.00548634
0.0054997
0.00551285
0.00552578
0.00553849
0.00555096
0.00556321
0.00557524
0.00558703
0.00559858
0.00560988
0.00562093
0.00563174
0.00564228
0.00565257
0.0056626
0.00567234
0.00568183
0.00569104
0.00569996
0.00570859
0.00571694
0.00572501
0.00573278
0.00574024
0.0057474
0.00575425
0.00576082
0.00576703
0.00577296
0.0057785
0.00578394
0.00578877
0.00579363
0.00579765
0.00580205
0.00580522
0.00580908
0.00581244
0.00581535
0.00102234
0.00243326
0.00361519
0.00447766
0.00495688
0.00521936
0.00535884
0.00541359
0.00542653
0.00543301
0.00544304
0.00545628
0.00547113
0.00548673
0.00550258
0.00551846
0.00553435
0.00555026
0.00556615
0.00558202
0.00559786
0.00561362
0.00562932
0.00564492
0.00566043
0.00567583
0.0056911
0.00570625
0.00572126
0.00573613
0.00575084
0.0057654
0.00577981
0.00579405
0.00580814
0.00582205
0.00583581
0.00584941
0.00586283
0.0058761
0.00588921
0.00590217
0.00591496
0.0059276
0.00594009
0.00595244
0.00596464
0.0059767
0.00598863
0.00600043
0.00601209
0.00602365
0.00603507
0.00604636
0.00605756
0.00606866
0.00607965
0.00609053
0.00610131
0.00611201
0.00612262
0.00613313
0.00614355
0.0061539
0.00616415
0.00617433
0.00618443
0.00619445
0.0062044
0.00621426
0.00622403
0.00623372
0.00624334
0.00625287
0.00626231
0.00627166
0.00628093
0.0062901
0.00629916
0.00630813
0.00631698
0.00632573
0.00633438
0.0063429
0.0063513
0.00635956
0.0063677
0.0063757
0.00638357
0.00639128
0.00639885
0.00640627
0.00641353
0.00642062
0.00642756
0.00643432
0.00644091
0.00644732
0.00645356
0.00645961
0.00646547
0.00647113
0.00647661
0.0064819
0.00648698
0.00649186
0.00649653
0.00650102
0.00650525
0.00650932
0.00651311
0.00651686
0.00652016
0.00652353
0.00652628
0.00652937
0.00653153
0.00653427
0.00653679
0.00653732
0.00288121
0.00490855
0.00596959
0.00641648
0.00651124
0.00650763
0.0064961
0.00647932
0.00646274
0.00645181
0.00644343
0.00643556
0.00642824
0.00642132
0.00641475
0.00640856
0.0064028
0.00639747
0.00639255
0.0063879
0.00638391
0.00638001
0.00637646
0.00637323
0.00637029
0.0063676
0.00636515
0.00636293
0.00636092
0.00635911
0.00635748
0.00635603
0.00635475
0.00635361
0.00635263
0.00635177
0.00635104
0.00635043
0.00634991
0.00634952
0.00634922
0.00634902
0.0063489
0.00634887
0.00634892
0.00634906
0.00634926
0.00634955
0.0063499
0.00635033
0.00635082
0.0063514
0.00635204
0.00635273
0.00635351
0.00635437
0.00635528
0.00635627
0.00635732
0.00635845
0.00635965
0.00636092
0.00636226
0.00636367
0.00636515
0.0063667
0.00636833
0.00637002
0.00637178
0.0063736
0.00637548
0.00637742
0.00637942
0.00638148
0.00638359
0.00638575
0.00638795
0.0063902
0.00639248
0.0063948
0.00639714
0.00639952
0.00640191
0.00640432
0.00640674
0.00640916
0.00641158
0.00641401
0.00641642
0.00641883
0.00642122
0.0064236
0.00642595
0.00642828
0.00643058
0.00643285
0.00643509
0.00643729
0.00643945
0.00644158
0.00644365
0.00644568
0.00644768
0.00644962
0.00645151
0.00645334
0.00645513
0.00645687
0.00645852
0.00646017
0.00646169
0.00646329
0.00646463
0.00646619
0.00646729
0.00646888
0.00646973
0.00647133
0.00647206
0.00647083
0.00568745
0.00729803
0.00769486
0.00760462
0.00737485
0.00719898
0.00709364
0.00702421
0.00697225
0.00692735
0.00688366
0.00683995
0.00679681
0.00675443
0.00671307
0.00667289
0.00663395
0.00659622
0.00655968
0.00652431
0.00649008
0.00645695
0.00642491
0.00639391
0.00636394
0.00633497
0.00630697
0.00627992
0.00625377
0.00622848
0.00620406
0.00618044
0.00615761
0.00613552
0.00611421
0.00609358
0.00607363
0.00605433
0.00603568
0.00601764
0.00600019
0.00598331
0.00596699
0.0059512
0.00593593
0.00592116
0.00590688
0.00589307
0.00587972
0.00586681
0.00585432
0.00584227
0.00583061
0.00581935
0.00580848
0.00579799
0.00578786
0.00577809
0.00576866
0.00575958
0.00575082
0.00574239
0.00573427
0.00572646
0.00571894
0.00571172
0.00570478
0.00569811
0.00569172
0.00568558
0.00567969
0.00567404
0.00566864
0.00566346
0.00565851
0.00565377
0.00564924
0.00564491
0.00564079
0.00563685
0.00563309
0.00562952
0.00562611
0.00562287
0.00561979
0.00561687
0.0056141
0.00561147
0.00560898
0.00560664
0.00560443
0.00560235
0.0056004
0.00559858
0.00559688
0.0055953
0.00559384
0.00559249
0.00559126
0.00559014
0.00558912
0.00558821
0.0055874
0.00558669
0.00558607
0.00558556
0.00558512
0.00558479
0.00558451
0.00558436
0.00558421
0.00558427
0.0055842
0.00558449
0.00558444
0.00558499
0.00558494
0.00558575
0.00558477
0.00557859
0.00823904
0.00812512
0.00761462
0.00698638
0.00659365
0.00637324
0.00622345
0.00610794
0.00601557
0.00593288
0.00585168
0.00577027
0.00568912
0.0056088
0.00552988
0.00545266
0.00537725
0.00530369
0.00523203
0.00516233
0.00509463
0.00502894
0.00496531
0.00490373
0.00484424
0.00478682
0.00473147
0.0046782
0.00462697
0.00457779
0.00453062
0.00448544
0.00444221
0.00440088
0.00436147
0.00432386
0.00428802
0.00425391
0.00422146
0.00419064
0.00416136
0.00413357
0.0041072
0.0040822
0.0040585
0.00403602
0.00401472
0.00399452
0.00397536
0.00395717
0.00393988
0.00392347
0.00390783
0.00389293
0.0038787
0.0038651
0.00385207
0.00383955
0.00382751
0.00381589
0.00380467
0.00379379
0.00378322
0.00377293
0.00376288
0.00375306
0.00374343
0.00373398
0.00372469
0.00371555
0.00370653
0.00369764
0.00368887
0.00368022
0.00367168
0.00366326
0.00365497
0.0036468
0.00363878
0.00363091
0.0036232
0.00361566
0.00360831
0.00360116
0.00359423
0.00358753
0.00358108
0.00357488
0.00356897
0.00356333
0.003558
0.00355297
0.00354826
0.00354386
0.0035398
0.00353606
0.00353265
0.00352957
0.00352681
0.00352436
0.00352221
0.00352037
0.0035188
0.0035175
0.00351645
0.00351564
0.00351503
0.00351462
0.00351438
0.00351431
0.00351432
0.00351452
0.0035147
0.00351511
0.00351533
0.00351592
0.00351612
0.00351673
0.00351416
0.00344866
)
;

boundaryField
{
    upperWall
    {
        type            zeroGradient;
    }
    lowerWall
    {
        type            zeroGradient;
    }
    inlet
    {
        type            zeroGradient;
    }
    outlet
    {
        type            zeroGradient;
    }
    frontAndBack
    {
        type            empty;
    }
}


// ************************************************************************* //
