/*--------------------------------*- C++ -*----------------------------------*\
  =========                 |
  \\      /  F ield         | OpenFOAM: The Open Source CFD Toolbox
   \\    /   O peration     | Website:  https://openfoam.org
    \\  /    A nd           | Version:  7
     \\/     M anipulation  |
\*---------------------------------------------------------------------------*/
FoamFile
{
    version     2.0;
    format      ascii;
    class       volVectorField;
    location    "0.25";
    object      U_0;
}
// * * * * * * * * * * * * * * * * * * * * * * * * * * * * * * * * * * * * * //

dimensions      [0 1 -1 0 0 0 0];

internalField   nonuniform List<vector> 
1440
(
(2.32093 0.116994 0)
(1.56546 0.0173834 0)
(1.32479 -0.00113406 0)
(1.15088 -0.00353459 0)
(1.07183 -0.00367524 0)
(1.03269 -0.00249371 0)
(0.998476 -0.00194004 0)
(0.967863 -0.0020434 0)
(0.943681 -0.00223052 0)
(0.923153 -0.00227829 0)
(0.903237 -0.00223936 0)
(0.882937 -0.00218706 0)
(0.862292 -0.00213955 0)
(0.841519 -0.00209298 0)
(0.820787 -0.00204557 0)
(0.800181 -0.00199868 0)
(0.779737 -0.00195202 0)
(0.759483 -0.00190537 0)
(0.739451 -0.00185882 0)
(0.719666 -0.00181253 0)
(0.700154 -0.00176646 0)
(0.680939 -0.00172058 0)
(0.662044 -0.00167504 0)
(0.643493 -0.00162998 0)
(0.625305 -0.00158535 0)
(0.607502 -0.00154114 0)
(0.590101 -0.00149748 0)
(0.573121 -0.00145451 0)
(0.556576 -0.00141216 0)
(0.540482 -0.00137044 0)
(0.524849 -0.00132923 0)
(0.509687 -0.00128905 0)
(0.495006 -0.00125028 0)
(0.480806 -0.00120994 0)
(0.467108 -0.00117269 0)
(0.453897 -0.00113544 0)
(0.441177 -0.00109784 0)
(0.428951 -0.00106171 0)
(0.41721 -0.00102614 0)
(0.405947 -0.000991149 0)
(0.395155 -0.000956767 0)
(0.384823 -0.000923113 0)
(0.374938 -0.000889975 0)
(0.365488 -0.000857455 0)
(0.356453 -0.000825509 0)
(0.347815 -0.000794033 0)
(0.339555 -0.000762976 0)
(0.331653 -0.000731838 0)
(0.324081 -0.000700924 0)
(0.316816 -0.00067103 0)
(0.309834 -0.000642214 0)
(0.303106 -0.000613699 0)
(0.296608 -0.000585602 0)
(0.290309 -0.000558162 0)
(0.284182 -0.000531021 0)
(0.278194 -0.000504453 0)
(0.272317 -0.000477759 0)
(0.266526 -0.000451927 0)
(0.260789 -0.000426586 0)
(0.255075 -0.000401673 0)
(0.24936 -0.00037734 0)
(0.243616 -0.000353311 0)
(0.237815 -0.000329536 0)
(0.231933 -0.000305439 0)
(0.225946 -0.000281557 0)
(0.219832 -0.000258106 0)
(0.213567 -0.000234603 0)
(0.207134 -0.000211022 0)
(0.200513 -0.000187256 0)
(0.193691 -0.000162759 0)
(0.186653 -0.000136689 0)
(0.179388 -0.000108224 0)
(0.171887 -8.36758e-05 0)
(0.164138 -6.38596e-05 0)
(0.156137 -4.6279e-05 0)
(0.147882 -2.72035e-05 0)
(0.13937 -1.4318e-05 0)
(0.130601 3.65489e-07 0)
(0.121581 1.51606e-05 0)
(0.112311 2.97787e-05 0)
(0.102801 4.40461e-05 0)
(0.0930585 5.55588e-05 0)
(0.0830934 6.58007e-05 0)
(0.0729189 7.707e-05 0)
(0.0625511 8.81338e-05 0)
(0.0520063 9.83489e-05 0)
(0.0413014 0.000108226 0)
(0.0304561 0.000117663 0)
(0.0194905 0.000126883 0)
(0.00842773 0.000135495 0)
(-0.00270768 0.000143774 0)
(-0.0138918 0.000151776 0)
(-0.0250992 0.000159366 0)
(-0.0363027 0.00016648 0)
(-0.0474736 0.000173333 0)
(-0.0585865 0.00018003 0)
(-0.0696096 0.000186324 0)
(-0.0805144 0.000190757 0)
(-0.0912717 0.000194721 0)
(-0.101852 0.000198905 0)
(-0.112223 0.000203152 0)
(-0.122356 0.000207335 0)
(-0.132222 0.00021163 0)
(-0.14179 0.00021609 0)
(-0.151032 0.000221112 0)
(-0.159919 0.000226833 0)
(-0.168422 0.000231298 0)
(-0.176511 0.00023552 0)
(-0.184173 0.000239181 0)
(-0.191358 0.000240998 0)
(-0.198084 0.000245064 0)
(-0.204262 0.000248049 0)
(-0.209979 0.000253946 0)
(-0.215042 0.000254569 0)
(-0.21969 0.00026129 0)
(-0.223549 0.000262954 0)
(-0.227074 0.000269016 0)
(-0.229499 0.000284637 0)
(-0.232343 0.000525413 0)
(-0.241738 0.000574292 0)
(3.90869 0.310205 0)
(3.6012 0.111638 0)
(3.32208 0.036355 0)
(3.00719 0.0161039 0)
(2.81592 0.00349237 0)
(2.7116 0.000565717 0)
(2.63598 8.39409e-05 0)
(2.57431 -0.00119532 0)
(2.52402 -0.0022383 0)
(2.47941 -0.00255978 0)
(2.43572 -0.00248533 0)
(2.39162 -0.00234743 0)
(2.3472 -0.00224131 0)
(2.3028 -0.00216383 0)
(2.25872 -0.00210035 0)
(2.21509 -0.00204273 0)
(2.17199 -0.00198705 0)
(2.12944 -0.00193256 0)
(2.08748 -0.0018793 0)
(2.04614 -0.00182722 0)
(2.00545 -0.00177613 0)
(1.96543 -0.0017259 0)
(1.92612 -0.0016767 0)
(1.88753 -0.00162855 0)
(1.84969 -0.00158133 0)
(1.81261 -0.00153454 0)
(1.77632 -0.00148873 0)
(1.74083 -0.00144414 0)
(1.70615 -0.00140052 0)
(1.67229 -0.00135792 0)
(1.63927 -0.00131582 0)
(1.60708 -0.00127528 0)
(1.57575 -0.00123663 0)
(1.54525 -0.00119506 0)
(1.51562 -0.00115851 0)
(1.48683 -0.00112186 0)
(1.45888 -0.00108397 0)
(1.43177 -0.00104836 0)
(1.40549 -0.00101315 0)
(1.38004 -0.000978242 0)
(1.35539 -0.000943934 0)
(1.33154 -0.000910392 0)
(1.30847 -0.000877151 0)
(1.28617 -0.000844296 0)
(1.26461 -0.000811608 0)
(1.24377 -0.000779159 0)
(1.22363 -0.000747068 0)
(1.20418 -0.000715212 0)
(1.18537 -0.00068279 0)
(1.16719 -0.000650882 0)
(1.14961 -0.000619576 0)
(1.13259 -0.000588149 0)
(1.11612 -0.000557129 0)
(1.10015 -0.000526351 0)
(1.08467 -0.000495026 0)
(1.06963 -0.000463903 0)
(1.055 -0.000433341 0)
(1.04076 -0.00040311 0)
(1.02686 -0.000372679 0)
(1.01328 -0.000342566 0)
(0.99999 -0.000313379 0)
(0.986953 -0.00028324 0)
(0.974138 -0.000252045 0)
(0.961516 -0.000218564 0)
(0.949059 -0.000187949 0)
(0.936736 -0.000157211 0)
(0.92452 -0.000126714 0)
(0.912386 -9.66032e-05 0)
(0.900308 -6.70343e-05 0)
(0.888266 -3.70347e-05 0)
(0.876235 -5.76153e-06 0)
(0.864202 2.73463e-05 0)
(0.852144 5.65564e-05 0)
(0.840042 8.10745e-05 0)
(0.827888 0.000102706 0)
(0.815667 0.00012538 0)
(0.803372 0.000142097 0)
(0.790993 0.000160039 0)
(0.778528 0.000177682 0)
(0.76597 0.000194852 0)
(0.753322 0.000211513 0)
(0.740583 0.000225319 0)
(0.727757 0.000237614 0)
(0.714848 0.000250583 0)
(0.701869 0.000262954 0)
(0.688829 0.000274477 0)
(0.675736 0.000285722 0)
(0.662608 0.000296359 0)
(0.649458 0.000306742 0)
(0.636307 0.000316327 0)
(0.623172 0.000325531 0)
(0.610075 0.000334443 0)
(0.597039 0.000343201 0)
(0.584087 0.000351528 0)
(0.571247 0.000359811 0)
(0.558539 0.000368107 0)
(0.545997 0.000375851 0)
(0.533645 0.000382303 0)
(0.521513 0.000388657 0)
(0.509629 0.000395061 0)
(0.498025 0.000401559 0)
(0.486729 0.000408776 0)
(0.475766 0.000416445 0)
(0.465174 0.000423999 0)
(0.454976 0.000432501 0)
(0.445201 0.000441475 0)
(0.435879 0.000449977 0)
(0.427046 0.000458462 0)
(0.418698 0.000467506 0)
(0.410915 0.000473375 0)
(0.403627 0.000483587 0)
(0.397009 0.000490662 0)
(0.390841 0.000502919 0)
(0.38552 0.000506857 0)
(0.380507 0.000521401 0)
(0.376594 0.000526397 0)
(0.372769 0.000535542 0)
(0.370532 0.00056606 0)
(0.367577 0.00115145 0)
(0.366605 0.00121615 0)
(4.4971 0.333679 0)
(4.78989 0.149449 0)
(4.7264 0.0666571 0)
(4.43691 0.0395689 0)
(4.2111 0.0165797 0)
(4.07756 0.00720491 0)
(3.98551 0.0037167 0)
(3.91296 0.000614614 0)
(3.85313 -0.00139405 0)
(3.79952 -0.0019697 0)
(3.74725 -0.00186718 0)
(3.69483 -0.00165188 0)
(3.64225 -0.00149961 0)
(3.58985 -0.00140471 0)
(3.53791 -0.00134295 0)
(3.48661 -0.00128712 0)
(3.43601 -0.00123671 0)
(3.38613 -0.00118888 0)
(3.33703 -0.00114297 0)
(3.28871 -0.00109853 0)
(3.24122 -0.00105532 0)
(3.19457 -0.00101323 0)
(3.14878 -0.000972318 0)
(3.10388 -0.000932446 0)
(3.05988 -0.000893679 0)
(3.0168 -0.000855369 0)
(2.97465 -0.000818079 0)
(2.93345 -0.000782123 0)
(2.8932 -0.000747065 0)
(2.85392 -0.000713303 0)
(2.8156 -0.000681284 0)
(2.77826 -0.000649885 0)
(2.74189 -0.000616277 0)
(2.70648 -0.000582839 0)
(2.67205 -0.000554076 0)
(2.63859 -0.000525111 0)
(2.60608 -0.000495068 0)
(2.57452 -0.000467417 0)
(2.5439 -0.000440157 0)
(2.51421 -0.000412811 0)
(2.48542 -0.000386137 0)
(2.45753 -0.000360329 0)
(2.43052 -0.000334804 0)
(2.40436 -0.000309595 0)
(2.37904 -0.000284147 0)
(2.35453 -0.000258927 0)
(2.33081 -0.000234392 0)
(2.30786 -0.000210445 0)
(2.28564 -0.000185675 0)
(2.26412 -0.000161268 0)
(2.24329 -0.000136989 0)
(2.2231 -0.000112342 0)
(2.20353 -8.83601e-05 0)
(2.18455 -6.43569e-05 0)
(2.16612 -3.93284e-05 0)
(2.14822 -1.4103e-05 0)
(2.1308 9.67576e-06 0)
(2.11383 3.33729e-05 0)
(2.09729 5.78542e-05 0)
(2.08114 8.21173e-05 0)
(2.06535 0.000105259 0)
(2.04988 0.000129303 0)
(2.0347 0.00015458 0)
(2.01978 0.000181531 0)
(2.0051 0.000205375 0)
(1.99062 0.000229205 0)
(1.97631 0.000252649 0)
(1.96214 0.000275298 0)
(1.9481 0.00029644 0)
(1.93416 0.000316896 0)
(1.92028 0.000336688 0)
(1.90647 0.000355237 0)
(1.89268 0.000373586 0)
(1.87892 0.000391549 0)
(1.86515 0.0004081 0)
(1.85137 0.000423382 0)
(1.83757 0.000438224 0)
(1.82373 0.000452139 0)
(1.80986 0.000464962 0)
(1.79594 0.000476993 0)
(1.78198 0.000488285 0)
(1.76797 0.000498765 0)
(1.75391 0.000508597 0)
(1.73981 0.000517685 0)
(1.72568 0.000525405 0)
(1.71153 0.000532621 0)
(1.69736 0.000539679 0)
(1.68319 0.000546031 0)
(1.66903 0.000551891 0)
(1.65491 0.000556941 0)
(1.64083 0.000561555 0)
(1.62683 0.000565718 0)
(1.61291 0.00056975 0)
(1.59911 0.000573232 0)
(1.58546 0.000576793 0)
(1.57196 0.000580323 0)
(1.55866 0.0005829 0)
(1.54558 0.000585651 0)
(1.53276 0.000588778 0)
(1.52021 0.000591259 0)
(1.50797 0.000593307 0)
(1.49607 0.000596262 0)
(1.48453 0.000599453 0)
(1.4734 0.000601792 0)
(1.4627 0.000604904 0)
(1.45245 0.000607187 0)
(1.44268 0.000609661 0)
(1.43345 0.000612534 0)
(1.42472 0.000616698 0)
(1.41661 0.000617958 0)
(1.409 0.000623308 0)
(1.40214 0.000624908 0)
(1.39572 0.000630264 0)
(1.39024 0.000629066 0)
(1.38503 0.000636945 0)
(1.38105 0.000636773 0)
(1.37708 0.000634802 0)
(1.37485 0.000660973 0)
(1.37172 0.00110169 0)
(1.37312 0.00107358 0)
(4.61972 0.248172 0)
(5.32086 0.1295 0)
(5.58818 0.0745664 0)
(5.47448 0.0567817 0)
(5.3112 0.0312261 0)
(5.19926 0.016137 0)
(5.11838 0.00861539 0)
(5.04992 0.00317064 0)
(4.98937 3.24984e-05 0)
(4.93382 -0.000822169 0)
(4.88019 -0.000689317 0)
(4.82703 -0.00042031 0)
(4.77406 -0.000239223 0)
(4.72144 -0.000137896 0)
(4.66936 -8.61629e-05 0)
(4.61796 -4.76857e-05 0)
(4.56727 -1.62006e-05 0)
(4.51735 1.24911e-05 0)
(4.46823 3.90437e-05 0)
(4.41992 6.40208e-05 0)
(4.37245 8.76777e-05 0)
(4.32585 0.000110126 0)
(4.28014 0.000131354 0)
(4.23533 0.000151659 0)
(4.19145 0.000170744 0)
(4.1485 0.000189035 0)
(4.10649 0.000206313 0)
(4.06545 0.000222187 0)
(4.02537 0.000237553 0)
(3.98627 0.000251864 0)
(3.94815 0.000264693 0)
(3.91101 0.000276916 0)
(3.87485 0.000292119 0)
(3.83966 0.000306497 0)
(3.80546 0.000316795 0)
(3.77223 0.000327881 0)
(3.73995 0.00034038 0)
(3.70863 0.000350701 0)
(3.67826 0.000360873 0)
(3.64881 0.000371601 0)
(3.62027 0.000381795 0)
(3.59263 0.000391287 0)
(3.56587 0.000400694 0)
(3.53997 0.000409918 0)
(3.5149 0.00041995 0)
(3.49065 0.000430057 0)
(3.46719 0.000439139 0)
(3.44449 0.000448375 0)
(3.42253 0.000459074 0)
(3.40128 0.000469292 0)
(3.3807 0.000479288 0)
(3.36078 0.000489576 0)
(3.34148 0.000499354 0)
(3.32276 0.000509538 0)
(3.3046 0.000520962 0)
(3.28696 0.000532862 0)
(3.26982 0.000543625 0)
(3.25313 0.000554259 0)
(3.23687 0.000566029 0)
(3.221 0.000577847 0)
(3.2055 0.000588905 0)
(3.19032 0.00060024 0)
(3.17544 0.00061205 0)
(3.16083 0.00062354 0)
(3.14646 0.000634615 0)
(3.13229 0.000645375 0)
(3.1183 0.000656645 0)
(3.10446 0.000667814 0)
(3.09075 0.000677851 0)
(3.07715 0.000687597 0)
(3.06362 0.00069695 0)
(3.05015 0.00070507 0)
(3.03673 0.000713623 0)
(3.02332 0.00072252 0)
(3.00992 0.000730088 0)
(2.99651 0.00073652 0)
(2.98308 0.000743287 0)
(2.96962 0.000749238 0)
(2.95613 0.0007543 0)
(2.94259 0.000758854 0)
(2.92901 0.000762789 0)
(2.91539 0.000766297 0)
(2.90172 0.000769444 0)
(2.888 0.000771847 0)
(2.87426 0.000772856 0)
(2.86049 0.000773606 0)
(2.8467 0.00077441 0)
(2.8329 0.000774597 0)
(2.81912 0.000774274 0)
(2.80537 0.000773262 0)
(2.79166 0.000771904 0)
(2.77801 0.000770175 0)
(2.76445 0.000768242 0)
(2.751 0.000765498 0)
(2.73769 0.00076298 0)
(2.72453 0.000760553 0)
(2.71157 0.000756982 0)
(2.69881 0.000753683 0)
(2.68631 0.000750859 0)
(2.67407 0.000747298 0)
(2.66213 0.000743108 0)
(2.65053 0.000739781 0)
(2.63929 0.000736517 0)
(2.62844 0.000732135 0)
(2.61801 0.00072884 0)
(2.60804 0.000724401 0)
(2.59853 0.000719601 0)
(2.58956 0.000715979 0)
(2.58108 0.000713423 0)
(2.57322 0.000708449 0)
(2.56585 0.000706134 0)
(2.55923 0.000701963 0)
(2.55303 0.000698656 0)
(2.54779 0.000692576 0)
(2.54277 0.00069087 0)
(2.53904 0.000686317 0)
(2.53526 0.000672487 0)
(2.53322 0.000700015 0)
(2.53033 0.000990519 0)
(2.53218 0.000898968 0)
(4.60132 0.141135 0)
(5.40737 0.0757326 0)
(5.90824 0.0496453 0)
(6.031 0.0493064 0)
(6.02091 0.0346986 0)
(5.99957 0.0213267 0)
(5.97222 0.0123078 0)
(5.92913 0.00536186 0)
(5.87592 0.00134824 0)
(5.82163 0.000135982 0)
(5.76955 0.000218377 0)
(5.71892 0.000520102 0)
(5.66916 0.000726218 0)
(5.62012 0.000834279 0)
(5.57176 0.000883485 0)
(5.52408 0.00090473 0)
(5.47709 0.000917744 0)
(5.43083 0.000928354 0)
(5.38532 0.000937209 0)
(5.34059 0.000944694 0)
(5.29667 0.000950905 0)
(5.25357 0.000956068 0)
(5.21132 0.000960304 0)
(5.16993 0.000963895 0)
(5.12942 0.000966316 0)
(5.08981 0.000968078 0)
(5.0511 0.000969116 0)
(5.01331 0.000968863 0)
(4.97644 0.000968466 0)
(4.9405 0.000967697 0)
(4.9055 0.000967122 0)
(4.87144 0.000965015 0)
(4.83832 0.000963168 0)
(4.80613 0.00096144 0)
(4.77489 0.000957051 0)
(4.74458 0.000954213 0)
(4.71517 0.000952432 0)
(4.6867 0.000948723 0)
(4.65912 0.000945608 0)
(4.63243 0.000943202 0)
(4.60662 0.000940061 0)
(4.58167 0.000936423 0)
(4.55756 0.000933051 0)
(4.53427 0.000929517 0)
(4.51179 0.000926972 0)
(4.49009 0.000924846 0)
(4.46914 0.000921558 0)
(4.44893 0.000918674 0)
(4.42941 0.000917506 0)
(4.41058 0.00091593 0)
(4.3924 0.000914145 0)
(4.37484 0.000912581 0)
(4.35788 0.000910674 0)
(4.34146 0.000909501 0)
(4.32558 0.000909397 0)
(4.3102 0.000909777 0)
(4.29529 0.000909531 0)
(4.28081 0.0009092 0)
(4.26673 0.000909976 0)
(4.25302 0.000910853 0)
(4.23965 0.000911053 0)
(4.22659 0.000911552 0)
(4.2138 0.000912671 0)
(4.20126 0.000913639 0)
(4.18894 0.000914515 0)
(4.1768 0.00091523 0)
(4.16481 0.000916579 0)
(4.15297 0.000918091 0)
(4.14123 0.000918825 0)
(4.12957 0.000919488 0)
(4.11797 0.000920009 0)
(4.1064 0.000919444 0)
(4.09486 0.000919481 0)
(4.08332 0.00092017 0)
(4.07176 0.000919914 0)
(4.06018 0.000918841 0)
(4.04855 0.000918134 0)
(4.03687 0.000916892 0)
(4.02513 0.000914983 0)
(4.01332 0.00091287 0)
(4.00145 0.000910488 0)
(3.98951 0.000907831 0)
(3.97749 0.000905024 0)
(3.96541 0.000901849 0)
(3.95327 0.000897471 0)
(3.94108 0.000892978 0)
(3.92884 0.000888762 0)
(3.91657 0.000884079 0)
(3.90428 0.000879049 0)
(3.89199 0.00087363 0)
(3.87971 0.000868003 0)
(3.86747 0.000862206 0)
(3.85528 0.000856272 0)
(3.84317 0.000849433 0)
(3.83117 0.000842903 0)
(3.81929 0.00083667 0)
(3.80756 0.000829313 0)
(3.79601 0.000822091 0)
(3.78467 0.000815361 0)
(3.77357 0.000808109 0)
(3.76273 0.000800122 0)
(3.75219 0.00079288 0)
(3.74197 0.000785775 0)
(3.73211 0.000777448 0)
(3.72263 0.000770573 0)
(3.71357 0.000762726 0)
(3.70493 0.000753616 0)
(3.69679 0.000746441 0)
(3.68911 0.000740067 0)
(3.682 0.000731907 0)
(3.67534 0.000724423 0)
(3.6694 0.000717435 0)
(3.66384 0.000708863 0)
(3.6592 0.00070091 0)
(3.65473 0.000693229 0)
(3.65152 0.000687115 0)
(3.6482 0.000668535 0)
(3.64658 0.00069354 0)
(3.64424 0.000861353 0)
(3.6463 0.000752598 0)
(4.59241 0.0466508 0)
(5.38785 0.025253 0)
(5.92813 0.0151559 0)
(6.16197 0.0178431 0)
(6.29115 0.0159111 0)
(6.3945 0.0119056 0)
(6.45783 0.00776062 0)
(6.46426 0.00395177 0)
(6.42866 0.00160396 0)
(6.37792 0.000826124 0)
(6.3271 0.000819409 0)
(6.27931 0.000970337 0)
(6.2337 0.00108856 0)
(6.18948 0.00115152 0)
(6.14626 0.00117819 0)
(6.10381 0.00118614 0)
(6.06206 0.00118727 0)
(6.02101 0.00118587 0)
(5.98066 0.00118313 0)
(5.94105 0.00117972 0)
(5.90219 0.00117528 0)
(5.86411 0.0011699 0)
(5.82681 0.0011641 0)
(5.79031 0.00115831 0)
(5.75463 0.00115182 0)
(5.71977 0.00114498 0)
(5.68575 0.00113778 0)
(5.65258 0.00112968 0)
(5.62026 0.00112174 0)
(5.58881 0.0011141 0)
(5.55821 0.00110668 0)
(5.52848 0.00109797 0)
(5.49961 0.00109071 0)
(5.47161 0.00108216 0)
(5.44447 0.00107191 0)
(5.41818 0.00106423 0)
(5.39272 0.00105677 0)
(5.36813 0.00104689 0)
(5.34436 0.00103906 0)
(5.3214 0.00103221 0)
(5.29925 0.00102397 0)
(5.27789 0.00101512 0)
(5.2573 0.00100694 0)
(5.23747 0.000998982 0)
(5.21836 0.000991464 0)
(5.19998 0.000984098 0)
(5.18229 0.000976211 0)
(5.16526 0.000968776 0)
(5.14887 0.000962068 0)
(5.13312 0.000955115 0)
(5.11795 0.000948254 0)
(5.10336 0.000941308 0)
(5.0893 0.000934379 0)
(5.07573 0.000928233 0)
(5.06264 0.000922488 0)
(5.05001 0.000916756 0)
(5.0378 0.000910906 0)
(5.02597 0.000905183 0)
(5.0145 0.000900129 0)
(5.00335 0.000895225 0)
(4.9925 0.000889971 0)
(4.98191 0.000884763 0)
(4.97156 0.000880124 0)
(4.96141 0.00087555 0)
(4.95144 0.00087132 0)
(4.94162 0.000866986 0)
(4.93191 0.000862782 0)
(4.92231 0.000858642 0)
(4.91277 0.000854343 0)
(4.90328 0.00085031 0)
(4.89382 0.000846145 0)
(4.88435 0.000841614 0)
(4.87487 0.000837576 0)
(4.86535 0.000833533 0)
(4.85579 0.000829031 0)
(4.84617 0.000824615 0)
(4.83646 0.000820565 0)
(4.82668 0.000816466 0)
(4.8168 0.000812391 0)
(4.80682 0.000807792 0)
(4.79673 0.000802938 0)
(4.78655 0.000798446 0)
(4.77625 0.000794032 0)
(4.76587 0.000789583 0)
(4.75538 0.000784611 0)
(4.7448 0.000779703 0)
(4.73415 0.000775072 0)
(4.72343 0.000770263 0)
(4.71265 0.000765034 0)
(4.70184 0.000759929 0)
(4.69101 0.000754716 0)
(4.68017 0.000749632 0)
(4.66935 0.00074463 0)
(4.65857 0.000739098 0)
(4.64786 0.000733738 0)
(4.63723 0.000728732 0)
(4.62673 0.000723193 0)
(4.61635 0.000717619 0)
(4.60616 0.000712279 0)
(4.59616 0.000707058 0)
(4.58638 0.00070142 0)
(4.57686 0.000696106 0)
(4.56762 0.000690819 0)
(4.55871 0.000684493 0)
(4.55013 0.000679738 0)
(4.54192 0.000674299 0)
(4.53411 0.000667106 0)
(4.52674 0.000661849 0)
(4.5198 0.000657907 0)
(4.51338 0.000652843 0)
(4.50737 0.000647144 0)
(4.50203 0.000641914 0)
(4.49707 0.000635579 0)
(4.49292 0.000630329 0)
(4.48898 0.000624213 0)
(4.48619 0.000620626 0)
(4.48329 0.000609311 0)
(4.48198 0.000625585 0)
(4.48015 0.000678627 0)
(4.48234 0.000603926 0)
(4.59233 -0.0443805 0)
(5.38767 -0.020976 0)
(5.92848 -0.0128863 0)
(6.16194 -0.0171988 0)
(6.29031 -0.0142416 0)
(6.39361 -0.00915197 0)
(6.45712 -0.00503376 0)
(6.46354 -0.00155567 0)
(6.42783 0.000617849 0)
(6.37698 0.0014088 0)
(6.32613 0.00144074 0)
(6.27835 0.00129034 0)
(6.23276 0.00116404 0)
(6.18856 0.00109442 0)
(6.14536 0.00105924 0)
(6.10294 0.00104004 0)
(6.06121 0.00102567 0)
(6.02017 0.00101171 0)
(5.97985 0.000997587 0)
(5.94026 0.000983673 0)
(5.90142 0.000969574 0)
(5.86335 0.000955334 0)
(5.82607 0.000941382 0)
(5.78959 0.00092791 0)
(5.75393 0.000914545 0)
(5.7191 0.000901029 0)
(5.68511 0.00088761 0)
(5.65196 0.000873659 0)
(5.61966 0.000860087 0)
(5.58823 0.000849262 0)
(5.55766 0.00083795 0)
(5.52796 0.000825534 0)
(5.49911 0.000815263 0)
(5.47114 0.000803071 0)
(5.44403 0.000791173 0)
(5.41776 0.000781336 0)
(5.39235 0.00077084 0)
(5.36779 0.000758023 0)
(5.34405 0.000748077 0)
(5.32112 0.000739245 0)
(5.299 0.000728689 0)
(5.27768 0.000717788 0)
(5.25712 0.000707943 0)
(5.23733 0.000698901 0)
(5.21826 0.000689805 0)
(5.19991 0.000680382 0)
(5.18226 0.000671523 0)
(5.16527 0.000663274 0)
(5.14892 0.000654536 0)
(5.13321 0.000646145 0)
(5.11808 0.000639057 0)
(5.10352 0.00063043 0)
(5.0895 0.000621774 0)
(5.07597 0.000612872 0)
(5.06293 0.000602908 0)
(5.05034 0.000593135 0)
(5.03817 0.000584302 0)
(5.02638 0.000575898 0)
(5.01495 0.000567317 0)
(5.00385 0.000559033 0)
(4.99304 0.000551525 0)
(4.9825 0.000543736 0)
(4.97219 0.000536053 0)
(4.96208 0.000528685 0)
(4.95216 0.00052295 0)
(4.94238 0.00051699 0)
(4.93272 0.000509988 0)
(4.92316 0.000502781 0)
(4.91367 0.00049509 0)
(4.90423 0.000488477 0)
(4.89481 0.000482278 0)
(4.8854 0.000476621 0)
(4.87596 0.00047203 0)
(4.86649 0.000466969 0)
(4.85698 0.000461143 0)
(4.8474 0.000455991 0)
(4.83775 0.000451297 0)
(4.82801 0.000447388 0)
(4.81818 0.000445051 0)
(4.80825 0.000442193 0)
(4.79821 0.000438347 0)
(4.78808 0.000435066 0)
(4.77783 0.000432351 0)
(4.7675 0.000430138 0)
(4.75706 0.000428546 0)
(4.74654 0.000427197 0)
(4.73593 0.000425734 0)
(4.72526 0.000424854 0)
(4.71454 0.000423913 0)
(4.70377 0.000423374 0)
(4.69299 0.000422751 0)
(4.6822 0.000422201 0)
(4.67144 0.000421786 0)
(4.66071 0.000421521 0)
(4.65004 0.000421432 0)
(4.63947 0.000421657 0)
(4.62901 0.000422259 0)
(4.61869 0.000422771 0)
(4.60854 0.000423211 0)
(4.59859 0.000424444 0)
(4.58886 0.000425903 0)
(4.57939 0.000427612 0)
(4.5702 0.000428829 0)
(4.56133 0.00042937 0)
(4.55279 0.000431844 0)
(4.54463 0.000433254 0)
(4.53686 0.000432498 0)
(4.52954 0.000433684 0)
(4.52263 0.000436934 0)
(4.51626 0.000439646 0)
(4.5103 0.000440688 0)
(4.505 0.000441507 0)
(4.50008 0.000443887 0)
(4.49597 0.000446252 0)
(4.49206 0.000448 0)
(4.48931 0.000449281 0)
(4.48644 0.000454165 0)
(4.48517 0.00046259 0)
(4.48342 0.000393233 0)
(4.48554 0.00038571 0)
(4.60069 -0.138843 0)
(5.4081 -0.0713839 0)
(5.91028 -0.0473129 0)
(6.0301 -0.0484925 0)
(6.01773 -0.0329598 0)
(5.99659 -0.018675 0)
(5.97 -0.00971377 0)
(5.92714 -0.00306023 0)
(5.87383 0.000802609 0)
(5.81945 0.00201805 0)
(5.76739 0.00194606 0)
(5.71683 0.00164186 0)
(5.66717 0.00142261 0)
(5.61822 0.00130651 0)
(5.56995 0.00124857 0)
(5.52235 0.0012156 0)
(5.47545 0.00118894 0)
(5.42927 0.00116307 0)
(5.38385 0.00113782 0)
(5.33921 0.00111346 0)
(5.29537 0.00108959 0)
(5.25235 0.00106617 0)
(5.21018 0.00104346 0)
(5.16888 0.00102158 0)
(5.12845 0.00100047 0)
(5.08892 0.000979406 0)
(5.05029 0.000959386 0)
(5.01258 0.000939996 0)
(4.9758 0.000921275 0)
(4.93995 0.000905094 0)
(4.90503 0.000889271 0)
(4.87105 0.000874134 0)
(4.83801 0.00085921 0)
(4.80592 0.000841235 0)
(4.77476 0.000826045 0)
(4.74451 0.000811862 0)
(4.7152 0.000796055 0)
(4.68681 0.000779136 0)
(4.65931 0.000762928 0)
(4.63271 0.000747317 0)
(4.60698 0.000730891 0)
(4.58212 0.000714974 0)
(4.55809 0.000700386 0)
(4.53488 0.000686779 0)
(4.51248 0.000672729 0)
(4.49086 0.00065832 0)
(4.47 0.000645516 0)
(4.44987 0.00063319 0)
(4.43044 0.000619391 0)
(4.41169 0.000606167 0)
(4.39359 0.000594193 0)
(4.37612 0.000580878 0)
(4.35923 0.000567976 0)
(4.3429 0.000554879 0)
(4.3271 0.000540412 0)
(4.31181 0.000525785 0)
(4.29698 0.000512658 0)
(4.28258 0.000500199 0)
(4.26858 0.000486974 0)
(4.25496 0.000473946 0)
(4.24168 0.00046251 0)
(4.2287 0.000450865 0)
(4.21599 0.000437791 0)
(4.20354 0.000424766 0)
(4.1913 0.000413029 0)
(4.17924 0.000401627 0)
(4.16735 0.000389413 0)
(4.15559 0.000377272 0)
(4.14394 0.000365373 0)
(4.13237 0.00035388 0)
(4.12085 0.000342837 0)
(4.10938 0.000333 0)
(4.09792 0.000323719 0)
(4.08647 0.000314172 0)
(4.07501 0.000306017 0)
(4.06351 0.000298902 0)
(4.05197 0.000291952 0)
(4.04038 0.000284545 0)
(4.02874 0.000278609 0)
(4.01702 0.000273007 0)
(4.00524 0.000267946 0)
(3.99339 0.000263771 0)
(3.98147 0.000259385 0)
(3.96948 0.00025574 0)
(3.95744 0.000253644 0)
(3.94534 0.000251866 0)
(3.93319 0.000249802 0)
(3.92102 0.000248204 0)
(3.90883 0.000247414 0)
(3.89663 0.000247163 0)
(3.88445 0.000247435 0)
(3.8723 0.000247917 0)
(3.86021 0.000248369 0)
(3.8482 0.000249212 0)
(3.83628 0.000250091 0)
(3.82449 0.000251241 0)
(3.81286 0.00025333 0)
(3.8014 0.000255185 0)
(3.79016 0.000256831 0)
(3.77915 0.000259547 0)
(3.7684 0.0002627 0)
(3.75795 0.000265785 0)
(3.74782 0.00026811 0)
(3.73804 0.000270575 0)
(3.72865 0.00027483 0)
(3.71967 0.000278349 0)
(3.71112 0.000279934 0)
(3.70305 0.000283434 0)
(3.69545 0.000288665 0)
(3.68842 0.000293646 0)
(3.68184 0.000296092 0)
(3.67598 0.000297998 0)
(3.6705 0.000302424 0)
(3.66592 0.000307457 0)
(3.66153 0.000311716 0)
(3.65839 0.000315239 0)
(3.65513 0.00032761 0)
(3.65358 0.000321189 0)
(3.65139 0.000149998 0)
(3.6533 0.000185054 0)
(4.61865 -0.245981 0)
(5.32393 -0.125339 0)
(5.5919 -0.0720855 0)
(5.47292 -0.0556024 0)
(5.30677 -0.0294224 0)
(5.19547 -0.0136874 0)
(5.11578 -0.00620048 0)
(5.04774 -0.00100016 0)
(4.98713 0.00208004 0)
(4.93151 0.00292419 0)
(4.87794 0.00278572 0)
(4.82491 0.00251235 0)
(4.77208 0.00231731 0)
(4.71959 0.0022032 0)
(4.66765 0.00213788 0)
(4.61638 0.00209109 0)
(4.56583 0.00204769 0)
(4.51605 0.00200465 0)
(4.46705 0.00196241 0)
(4.41888 0.00192122 0)
(4.37154 0.00188063 0)
(4.32507 0.00184049 0)
(4.27949 0.00180094 0)
(4.23481 0.00176269 0)
(4.19104 0.00172548 0)
(4.14822 0.0016887 0)
(4.10634 0.00165333 0)
(4.06541 0.00161918 0)
(4.02546 0.00158583 0)
(3.98647 0.00155347 0)
(3.94846 0.00152291 0)
(3.91143 0.00149464 0)
(3.87539 0.00146564 0)
(3.84032 0.00143091 0)
(3.80622 0.00140147 0)
(3.77309 0.00137273 0)
(3.74093 0.00134279 0)
(3.70972 0.00131319 0)
(3.67944 0.00128421 0)
(3.6501 0.00125563 0)
(3.62167 0.00122671 0)
(3.59414 0.00119899 0)
(3.56747 0.00117208 0)
(3.54167 0.00114596 0)
(3.51671 0.00111944 0)
(3.49255 0.00109311 0)
(3.46919 0.00106757 0)
(3.44659 0.00104263 0)
(3.42472 0.00101657 0)
(3.40357 0.000990848 0)
(3.38309 0.00096575 0)
(3.36326 0.000940628 0)
(3.34405 0.000916289 0)
(3.32543 0.000892703 0)
(3.30736 0.000867826 0)
(3.28982 0.000842512 0)
(3.27277 0.000818464 0)
(3.25617 0.000794881 0)
(3.24001 0.000770642 0)
(3.22423 0.000746616 0)
(3.20882 0.000724285 0)
(3.19374 0.000701833 0)
(3.17895 0.000678215 0)
(3.16443 0.00065453 0)
(3.15015 0.000631537 0)
(3.13608 0.000609215 0)
(3.12219 0.000586743 0)
(3.10845 0.000564729 0)
(3.09484 0.000544064 0)
(3.08133 0.00052358 0)
(3.0679 0.000503505 0)
(3.05453 0.000484554 0)
(3.0412 0.000465958 0)
(3.02789 0.000447774 0)
(3.01459 0.000431703 0)
(3.00128 0.00041651 0)
(2.98795 0.000400993 0)
(2.97459 0.000386129 0)
(2.9612 0.000372987 0)
(2.94777 0.0003605 0)
(2.93429 0.00034895 0)
(2.92077 0.000338157 0)
(2.9072 0.000327447 0)
(2.89359 0.000317902 0)
(2.87995 0.00030992 0)
(2.86628 0.000302367 0)
(2.8526 0.000294795 0)
(2.83892 0.000287807 0)
(2.82524 0.00028172 0)
(2.81159 0.000276242 0)
(2.79799 0.00027138 0)
(2.78445 0.000267258 0)
(2.771 0.000263351 0)
(2.75766 0.000260307 0)
(2.74445 0.000257393 0)
(2.7314 0.000254659 0)
(2.71854 0.000252791 0)
(2.7059 0.000250681 0)
(2.69349 0.000248374 0)
(2.68136 0.000247109 0)
(2.66952 0.000246197 0)
(2.65802 0.000244976 0)
(2.64688 0.000243249 0)
(2.63613 0.00024201 0)
(2.6258 0.000242081 0)
(2.61592 0.000241839 0)
(2.60651 0.000239814 0)
(2.59762 0.000239677 0)
(2.58924 0.000240285 0)
(2.58147 0.000241538 0)
(2.57419 0.000238943 0)
(2.56765 0.000237583 0)
(2.56154 0.000236528 0)
(2.55638 0.000239339 0)
(2.55144 0.000237595 0)
(2.54779 0.000238624 0)
(2.54408 0.000246241 0)
(2.54212 0.000231021 0)
(2.5394 -5.03007e-05 0)
(2.54111 -9.43187e-06 0)
(4.49597 -0.331733 0)
(4.79385 -0.145635 0)
(4.73025 -0.0640858 0)
(4.43491 -0.0380646 0)
(4.20676 -0.0147413 0)
(4.07428 -0.00494906 0)
(3.98352 -0.00146291 0)
(3.91141 0.00147574 0)
(3.85155 0.00346639 0)
(3.79787 0.00400986 0)
(3.74566 0.00389237 0)
(3.69336 0.00367098 0)
(3.64093 0.00350517 0)
(3.58867 0.00339491 0)
(3.53688 0.00331783 0)
(3.48573 0.00325202 0)
(3.43528 0.00318807 0)
(3.38556 0.00312461 0)
(3.33661 0.00306194 0)
(3.28845 0.00300031 0)
(3.2411 0.00293938 0)
(3.1946 0.00287874 0)
(3.14896 0.00281734 0)
(3.1042 0.0027574 0)
(3.06034 0.00269892 0)
(3.0174 0.00264135 0)
(2.97539 0.00258518 0)
(2.93432 0.00253038 0)
(2.8942 0.00247663 0)
(2.85505 0.00242392 0)
(2.81685 0.00237287 0)
(2.77963 0.00232357 0)
(2.74338 0.00227564 0)
(2.7081 0.00222141 0)
(2.67379 0.00217454 0)
(2.64044 0.0021278 0)
(2.60804 0.00208066 0)
(2.57659 0.00203503 0)
(2.54608 0.00199174 0)
(2.51649 0.00194883 0)
(2.48782 0.00190568 0)
(2.46003 0.00186465 0)
(2.43312 0.00182284 0)
(2.40706 0.00178133 0)
(2.38184 0.0017397 0)
(2.35743 0.00169886 0)
(2.33381 0.00165645 0)
(2.31095 0.00161543 0)
(2.28883 0.00157435 0)
(2.26741 0.00153389 0)
(2.24666 0.00149443 0)
(2.22656 0.00145531 0)
(2.20709 0.00141725 0)
(2.1882 0.0013812 0)
(2.16986 0.00134307 0)
(2.15204 0.00130458 0)
(2.13471 0.00126654 0)
(2.11783 0.0012284 0)
(2.10138 0.00119049 0)
(2.08532 0.00115304 0)
(2.06961 0.00111721 0)
(2.05423 0.00108162 0)
(2.03914 0.00104685 0)
(2.02431 0.00101192 0)
(2.00972 0.000977826 0)
(1.99532 0.000943963 0)
(1.98111 0.000909833 0)
(1.96703 0.00087664 0)
(1.95308 0.00084533 0)
(1.93923 0.000814804 0)
(1.92545 0.0007849 0)
(1.91173 0.000756149 0)
(1.89804 0.000728196 0)
(1.88437 0.00070076 0)
(1.8707 0.000674768 0)
(1.85701 0.000649815 0)
(1.84331 0.000625072 0)
(1.82957 0.000602497 0)
(1.8158 0.000581399 0)
(1.80198 0.000560861 0)
(1.78812 0.00054103 0)
(1.77421 0.000522154 0)
(1.76026 0.000504031 0)
(1.74626 0.000487137 0)
(1.73224 0.000471474 0)
(1.71819 0.000456368 0)
(1.70413 0.000441509 0)
(1.69006 0.000427432 0)
(1.67601 0.000414141 0)
(1.66199 0.000401546 0)
(1.64803 0.000389595 0)
(1.63413 0.00037862 0)
(1.62032 0.000367932 0)
(1.60663 0.000358247 0)
(1.59308 0.000348686 0)
(1.5797 0.000339308 0)
(1.56651 0.000330764 0)
(1.55354 0.000322084 0)
(1.54082 0.000313277 0)
(1.52837 0.000305408 0)
(1.51624 0.000297837 0)
(1.50444 0.000290007 0)
(1.49301 0.000281891 0)
(1.48198 0.000274234 0)
(1.47137 0.000267442 0)
(1.46123 0.000260533 0)
(1.45156 0.000252063 0)
(1.44241 0.000245354 0)
(1.43378 0.000238506 0)
(1.42576 0.000233271 0)
(1.41825 0.000223409 0)
(1.41147 0.000216533 0)
(1.40514 0.00020729 0)
(1.39974 0.000205125 0)
(1.39462 0.000193544 0)
(1.39072 0.0001904 0)
(1.38683 0.000187572 0)
(1.38467 0.00016822 0)
(1.38173 -0.000253211 0)
(1.38308 -0.000228456 0)
(3.90647 -0.308566 0)
(3.60342 -0.108549 0)
(3.32407 -0.034043 0)
(3.00491 -0.0145368 0)
(2.81243 -0.00173023 0)
(2.70923 0.00139677 0)
(2.63465 0.00190166 0)
(2.5733 0.0031332 0)
(2.52298 0.00413435 0)
(2.47832 0.00441593 0)
(2.43468 0.00432343 0)
(2.39068 0.00417421 0)
(2.34639 0.00405496 0)
(2.30211 0.00396483 0)
(2.25816 0.00389033 0)
(2.21467 0.00382036 0)
(2.1717 0.00375124 0)
(2.12929 0.00368251 0)
(2.08747 0.00361428 0)
(2.04627 0.00354673 0)
(2.00572 0.00347967 0)
(1.96584 0.00341271 0)
(1.92666 0.00334537 0)
(1.88821 0.00327932 0)
(1.8505 0.00321439 0)
(1.81355 0.00315018 0)
(1.77738 0.00308701 0)
(1.74202 0.00302504 0)
(1.70746 0.00296404 0)
(1.67372 0.00290388 0)