/*--------------------------------*- C++ -*----------------------------------*\
  =========                 |
  \\      /  F ield         | OpenFOAM: The Open Source CFD Toolbox
   \\    /   O peration     | Website:  https://openfoam.org
    \\  /    A nd           | Version:  7
     \\/     M anipulation  |
\*---------------------------------------------------------------------------*/
FoamFile
{
    version     2.0;
    format      ascii;
    class       volScalarField;
    location    "0.23";
    object      rho;
}
// * * * * * * * * * * * * * * * * * * * * * * * * * * * * * * * * * * * * * //

dimensions      [1 -3 0 0 0 0 0];

internalField   nonuniform List<scalar> 
400
(
1.1552
1.14689
1.13973
1.1339
1.12922
1.12552
1.12268
1.12058
1.11908
1.11807
1.11746
1.11717
1.11716
1.11738
1.11785
1.11863
1.11982
1.12168
1.12465
1.12891
1.15743
1.15267
1.14721
1.14194
1.13738
1.13366
1.13079
1.12865
1.12713
1.12609
1.12545
1.12513
1.12507
1.12524
1.12564
1.1263
1.12728
1.12869
1.1306
1.13268
1.15825
1.15577
1.15214
1.14804
1.14407
1.14063
1.13786
1.13575
1.13422
1.13315
1.13246
1.13208
1.13195
1.13204
1.13232
1.1328
1.1335
1.13444
1.13557
1.13657
1.1585
1.15728
1.15508
1.15221
1.14912
1.14623
1.14376
1.1418
1.14031
1.13923
1.1385
1.13805
1.13783
1.13781
1.13796
1.13826
1.13871
1.1393
1.13997
1.14052
1.15857
1.15799
1.15672
1.15488
1.1527
1.15048
1.14846
1.14676
1.1454
1.14435
1.14359
1.14308
1.14278
1.14266
1.14269
1.14284
1.14309
1.14344
1.14384
1.14417
1.1586
1.15833
1.15765
1.15653
1.1551
1.15352
1.152
1.15063
1.14947
1.14852
1.14779
1.14725
1.1469
1.1467
1.14663
1.14666
1.14677
1.14695
1.14717
1.14738
1.1586
1.15849
1.15814
1.1575
1.15661
1.15558
1.15451
1.1535
1.15258
1.15179
1.15114
1.15063
1.15026
1.15002
1.14988
1.14982
1.14983
1.1499
1.15
1.15012
1.15861
1.15856
1.15838
1.15803
1.15752
1.15688
1.15619
1.15549
1.15483
1.15422
1.15368
1.15325
1.15291
1.15266
1.1525
1.15239
1.15234
1.15233
1.15236
1.1524
1.15861
1.15859
1.1585
1.15832
1.15804
1.15768
1.15725
1.1568
1.15635
1.15592
1.15553
1.15519
1.15491
1.15469
1.15453
1.15442
1.15434
1.15429
1.15426
1.15426
1.15861
1.1586
1.15856
1.15847
1.15833
1.15813
1.15789
1.15762
1.15733
1.15705
1.15678
1.15654
1.15634
1.15617
1.15604
1.15594
1.15586
1.15579
1.15575
1.15571
1.15861
1.1586
1.15859
1.15855
1.15848
1.15837
1.15824
1.15809
1.15793
1.15776
1.15759
1.15744
1.1573
1.15719
1.15709
1.15701
1.15695
1.15689
1.15684
1.15679
1.15861
1.15861
1.1586
1.15858
1.15855
1.1585
1.15844
1.15836
1.15827
1.15817
1.15808
1.15799
1.15791
1.15784
1.15778
1.15772
1.15767
1.15763
1.15759
1.15754
1.15861
1.15861
1.15861
1.1586
1.15858
1.15856
1.15853
1.15849
1.15845
1.15841
1.15836
1.15831
1.15827
1.15823
1.15819
1.15816
1.15813
1.15809
1.15807
1.15803
1.15861
1.15861
1.15861
1.15861
1.1586
1.15859
1.15858
1.15856
1.15854
1.15852
1.1585
1.15848
1.15846
1.15844
1.15842
1.1584
1.15838
1.15836
1.15834
1.15832
1.15861
1.15861
1.15861
1.15861
1.15861
1.1586
1.1586
1.15859
1.15859
1.15858
1.15857
1.15856
1.15855
1.15854
1.15853
1.15852
1.15851
1.1585
1.15849
1.15847
1.15861
1.15861
1.15861
1.15861
1.15861
1.15861
1.15861
1.1586
1.1586
1.1586
1.1586
1.15859
1.15859
1.15858
1.15858
1.15858
1.15857
1.15857
1.15856
1.15855
1.15861
1.15861
1.15861
1.15861
1.15861
1.15861
1.15861
1.15861
1.15861
1.15861
1.15861
1.15861
1.1586
1.1586
1.1586
1.1586
1.1586
1.15859
1.15859
1.15859
1.15861
1.15861
1.15861
1.15861
1.15861
1.15861
1.15861
1.15861
1.15861
1.15861
1.15861
1.15861
1.15861
1.15861
1.15861
1.15861
1.15861
1.1586
1.1586
1.1586
1.15861
1.15861
1.15861
1.15861
1.15861
1.15861
1.15861
1.15861
1.15861
1.15861
1.15861
1.15861
1.15861
1.15861
1.15861
1.15861
1.15861
1.15861
1.15861
1.15861
1.15861
1.15861
1.15861
1.15861
1.15861
1.15861
1.15861
1.15861
1.15861
1.15861
1.15861
1.15861
1.15861
1.15861
1.15861
1.15861
1.15861
1.15861
1.15861
1.15861
)
;

boundaryField
{
    upperWall
    {
        type            calculated;
        value           nonuniform List<scalar> 
20
(
1.15861
1.15861
1.1586
1.1586
1.15861
1.15861
1.15861
1.15861
1.15861
1.15861
1.15861
1.15861
1.15861
1.15861
1.15861
1.15861
1.15861
1.15861
1.15861
1.15861
)
;
    }
    lowerWall
    {
        type            calculated;
        value           nonuniform List<scalar> 
20
(
1.15042
1.14218
1.13507
1.12929
1.12465
1.12098
1.11817
1.11608
1.11459
1.1136
1.11299
1.1127
1.11268
1.11291
1.11338
1.11414
1.11533
1.11717
1.12012
1.12434
)
;
    }
    inlet
    {
        type            calculated;
        value           nonuniform List<scalar> 
20
(
1.1586
1.1586
1.1586
1.1586
1.1586
1.1586
1.1586
1.1586
1.1586
1.1586
1.1586
1.1586
1.15861
1.15861
1.1586
1.1586
1.1586
1.1586
1.15861
1.15861
)
;
    }
    outlet
    {
        type            calculated;
        value           nonuniform List<scalar> 
20
(
1.15861
1.13268
1.13657
1.14052
1.14417
1.14738
1.15012
1.1524
1.15426
1.15571
1.15679
1.15754
1.15803
1.15832
1.15847
1.15855
1.15859
1.1586
1.15861
1.15861
)
;
    }
    frontAndBack
    {
        type            empty;
    }
}


// ************************************************************************* //
