/*--------------------------------*- C++ -*----------------------------------*\
  =========                 |
  \\      /  F ield         | OpenFOAM: The Open Source CFD Toolbox
   \\    /   O peration     | Website:  https://openfoam.org
    \\  /    A nd           | Version:  7
     \\/     M anipulation  |
\*---------------------------------------------------------------------------*/
FoamFile
{
    version     2.0;
    format      ascii;
    class       volScalarField;
    location    "0.17";
    object      p;
}
// * * * * * * * * * * * * * * * * * * * * * * * * * * * * * * * * * * * * * //

dimensions      [1 -1 -2 0 0 0 0];

internalField   nonuniform List<scalar> 
400
(
104513
104478
104432
104383
104349
104331
104318
104303
104290
104278
104269
104262
104260
104261
104260
104254
104247
104242
104239
104237
104475
104447
104390
104337
104312
104300
104290
104278
104266
104258
104252
104250
104251
104255
104257
104252
104246
104241
104236
104234
104411
104383
104330
104288
104266
104255
104252
104244
104235
104229
104226
104227
104233
104240
104246
104246
104242
104235
104229
104224
104335
104305
104268
104246
104227
104223
104223
104218
104211
104205
104203
104205
104211
104219
104228
104232
104232
104226
104216
104209
104278
104260
104242
104225
104208
104205
104204
104199
104192
104186
104184
104185
104190
104199
104208
104215
104218
104214
104204
104198
104242
104238
104234
104224
104210
104201
104194
104185
104176
104168
104165
104166
104172
104181
104191
104199
104203
104203
104195
104191
104226
104229
104229
104223
104213
104202
104190
104177
104164
104153
104148
104149
104156
104166
104177
104186
104192
104195
104191
104188
104223
104227
104228
104224
104216
104205
104192
104177
104160
104145
104136
104136
104145
104157
104169
104179
104187
104191
104191
104190
104226
104230
104231
104227
104220
104210
104198
104183
104167
104149
104135
104131
104140
104153
104166
104178
104187
104193
104194
104194
104232
104235
104236
104232
104225
104216
104204
104191
104175
104158
104144
104138
104144
104157
104170
104182
104191
104198
104201
104201
104239
104242
104243
104239
104232
104222
104210
104198
104183
104168
104155
104150
104155
104167
104179
104190
104200
104206
104210
104211
104246
104250
104251
104247
104240
104230
104218
104206
104192
104179
104168
104165
104170
104180
104191
104202
104211
104217
104221
104222
104254
104258
104260
104257
104250
104240
104229
104217
104205
104193
104186
104184
104189
104196
104205
104214
104222
104228
104232
104233
104263
104267
104270
104267
104260
104251
104241
104230
104220
104211
104206
104205
104208
104213
104220
104227
104234
104239
104242
104244
104270
104275
104280
104277
104270
104261
104251
104242
104234
104227
104224
104223
104224
104228
104233
104238
104244
104248
104252
104253
104277
104284
104291
104289
104280
104270
104260
104252
104244
104239
104236
104236
104237
104240
104243
104248
104253
104257
104260
104262
104284
104294
104302
104301
104292
104280
104269
104260
104252
104248
104246
104246
104247
104249
104252
104256
104260
104264
104267
104268
104293
104303
104312
104311
104301
104288
104276
104266
104259
104254
104252
104253
104255
104257
104260
104263
104266
104269
104271
104272
104303
104310
104317
104318
104308
104294
104281
104270
104262
104257
104256
104257
104259
104262
104265
104267
104270
104272
104274
104274
104311
104315
104320
104321
104313
104298
104284
104272
104263
104259
104257
104258
104261
104264
104267
104270
104272
104274
104275
104275
)
;

boundaryField
{
    upperWall
    {
        type            zeroGradient;
    }
    lowerWall
    {
        type            zeroGradient;
    }
    inlet
    {
        type            zeroGradient;
    }
    outlet
    {
        type            waveTransmissive;
        gamma           1.3;
        fieldInf        100000;
        lInf            0.3;
        value           nonuniform List<scalar> 
20
(
104237
104234
104224
104210
104198
104191
104188
104190
104194
104202
104211
104222
104233
104244
104253
104262
104268
104272
104274
104275
)
;
    }
    frontAndBack
    {
        type            empty;
    }
}


// ************************************************************************* //
