/*--------------------------------*- C++ -*----------------------------------*\
  =========                 |
  \\      /  F ield         | OpenFOAM: The Open Source CFD Toolbox
   \\    /   O peration     | Website:  https://openfoam.org
    \\  /    A nd           | Version:  7
     \\/     M anipulation  |
\*---------------------------------------------------------------------------*/
FoamFile
{
    version     2.0;
    format      ascii;
    class       volScalarField;
    location    "0.7775";
    object      nut;
}
// * * * * * * * * * * * * * * * * * * * * * * * * * * * * * * * * * * * * * //

dimensions      [0 2 -1 0 0 0 0];

internalField   nonuniform List<scalar> 
13200
(
0.00817431
0.00840115
0.00840118
0.00840426
0.00840222
0.00840328
0.00840103
0.00840138
0.00839912
0.00839924
0.00839753
0.0083979
0.00839691
0.00839755
0.00839718
0.00839786
0.00839822
0.00839804
0.00840235
0.00840491
0.00395783
0.00377323
0.00364722
0.00359899
0.0035808
0.00357652
0.00357063
0.00357013
0.00356683
0.00356664
0.0035642
0.00356433
0.00356264
0.00356303
0.00356188
0.00356231
0.00356178
0.0035615
0.00356709
0.00356836
0.00247413
0.0024667
0.00242024
0.00238634
0.00236983
0.00236379
0.00235663
0.00235402
0.00234881
0.00234685
0.00234274
0.00234144
0.00233847
0.00233776
0.00233575
0.00233544
0.00233417
0.0023339
0.00233376
0.00233713
0.00208814
0.00220952
0.00222214
0.00222251
0.00222067
0.0022199
0.00221711
0.00221563
0.00221238
0.00221036
0.00220693
0.0022049
0.00220211
0.00220072
0.00219891
0.00219805
0.00219716
0.00219649
0.0021966
0.00219889
0.00199918
0.00215995
0.00218883
0.0021991
0.00220119
0.00220402
0.00220343
0.00220391
0.00220258
0.00220196
0.00219951
0.00219817
0.00219548
0.00219445
0.00219263
0.00219205
0.00219108
0.00219085
0.00219072
0.00219269
0.00198728
0.0021537
0.00218627
0.00219901
0.00220256
0.00220697
0.00220741
0.00220918
0.00220884
0.0022094
0.00220809
0.00220739
0.00220512
0.00220432
0.0022026
0.00220222
0.00220127
0.00220113
0.00220102
0.00220269
0.00198333
0.00215005
0.002183
0.00219638
0.00220048
0.00220564
0.00220666
0.00220939
0.00220971
0.00221121
0.00221061
0.00221065
0.00220909
0.00220861
0.00220726
0.00220717
0.00220651
0.00220654
0.00220642
0.00220816
0.00198529
0.00215058
0.00218343
0.00219693
0.00220135
0.00220691
0.00220829
0.00221157
0.00221234
0.00221459
0.00221449
0.00221508
0.00221403
0.00221393
0.00221304
0.00221322
0.00221293
0.00221307
0.00221335
0.00221477
0.0019848
0.00214945
0.00218204
0.00219541
0.00219982
0.00220545
0.00220694
0.00221043
0.00221139
0.002214
0.00221418
0.00221511
0.00221438
0.00221457
0.00221401
0.00221444
0.00221447
0.00221481
0.00221532
0.00221687
0.0019857
0.00214977
0.00218224
0.00219558
0.0022
0.00220565
0.00220718
0.00221073
0.00221177
0.0022145
0.00221481
0.00221589
0.00221531
0.00221562
0.00221523
0.00221576
0.002216
0.00221645
0.00221717
0.00221866
0.0019857
0.00214977
0.00218224
0.00219558
0.0022
0.00220565
0.00220718
0.00221073
0.00221177
0.0022145
0.00221481
0.00221589
0.00221531
0.00221562
0.00221523
0.00221576
0.00221601
0.00221645
0.00221717
0.00221867
0.0019848
0.00214945
0.00218204
0.00219541
0.00219982
0.00220545
0.00220694
0.00221043
0.00221139
0.002214
0.00221418
0.00221511
0.00221439
0.00221457
0.00221402
0.00221443
0.00221448
0.00221481
0.00221534
0.00221689
0.00198529
0.00215058
0.00218343
0.00219693
0.00220135
0.00220691
0.00220829
0.00221157
0.00221234
0.00221459
0.00221449
0.00221508
0.00221403
0.00221393
0.00221304
0.00221322
0.00221293
0.00221307
0.00221337
0.00221478
0.00198333
0.00215005
0.00218299
0.00219638
0.00220048
0.00220565
0.00220666
0.00220939
0.00220971
0.00221122
0.00221061
0.00221066
0.00220908
0.00220861
0.00220726
0.00220718
0.00220651
0.00220657
0.00220644
0.00220822
0.00198727
0.0021537
0.00218627
0.00219901
0.00220256
0.00220697
0.0022074
0.00220918
0.00220884
0.0022094
0.00220808
0.0022074
0.00220511
0.00220433
0.00220258
0.00220225
0.00220124
0.00220121
0.00220098
0.00220277
0.00199918
0.00215995
0.00218883
0.0021991
0.00220119
0.00220402
0.00220343
0.00220391
0.00220257
0.00220196
0.0021995
0.00219819
0.00219546
0.00219448
0.00219258
0.00219212
0.00219099
0.00219105
0.00219053
0.00219301
0.00208814
0.00220952
0.00222214
0.00222251
0.00222067
0.00221991
0.0022171
0.00221564
0.00221237
0.00221037
0.00220691
0.00220493
0.00220208
0.00220077
0.00219883
0.00219817
0.00219696
0.00219681
0.00219614
0.00219959
0.00247413
0.0024667
0.00242024
0.00238634
0.00236982
0.00236379
0.00235663
0.00235403
0.0023488
0.00234686
0.00234273
0.00234145
0.00233845
0.00233779
0.00233571
0.00233551
0.00233404
0.00233416
0.0023332
0.00233839
0.00395783
0.00377323
0.00364722
0.00359899
0.0035808
0.00357652
0.00357063
0.00357013
0.00356683
0.00356664
0.00356419
0.00356434
0.00356262
0.00356305
0.00356184
0.00356236
0.00356166
0.00356168
0.00356642
0.00356988
0.00817431
0.00840115
0.00840118
0.00840426
0.00840222
0.00840328
0.00840103
0.00840139
0.00839912
0.00839925
0.00839752
0.00839792
0.00839688
0.00839759
0.00839712
0.00839796
0.00839804
0.00839839
0.00840145
0.00840772
0.00229641
0.00244937
0.00242617
0.00239814
0.00239387
0.00238251
0.00238269
0.00237581
0.00237655
0.00237169
0.00237252
0.00236898
0.00236974
0.0023671
0.00236774
0.0023657
0.00236627
0.00236431
0.00236475
0.00236705
0.00189595
0.00218638
0.00221856
0.00221425
0.00220898
0.00220319
0.00220003
0.00219621
0.00219409
0.00219135
0.00218992
0.00218799
0.00218712
0.00218579
0.00218529
0.00218433
0.00218399
0.00218337
0.00218277
0.00218292
0.00176085
0.00206976
0.00211989
0.00213262
0.00213702
0.00213924
0.00213945
0.00213936
0.0021385
0.00213762
0.00213655
0.0021358
0.00213515
0.00213472
0.00213457
0.00213437
0.00213467
0.00213431
0.00213493
0.00213785
0.00174431
0.00205461
0.00210244
0.00211402
0.00211811
0.00212136
0.00212281
0.00212424
0.00212446
0.0021245
0.00212397
0.00212352
0.00212309
0.00212297
0.00212309
0.00212326
0.002124
0.00212416
0.00212558
0.00212659
0.00173639
0.00204691
0.00209425
0.00210472
0.00210699
0.00210904
0.00210956
0.00211067
0.00211083
0.00211103
0.00211045
0.00210988
0.0021091
0.00210883
0.00210876
0.00210889
0.0021095
0.00210988
0.00211115
0.00211385
0.00173996
0.00205066
0.00209767
0.00210787
0.00210969
0.00211111
0.00211105
0.00211151
0.00211138
0.00211135
0.00211048
0.00210953
0.00210816
0.0021074
0.00210678
0.00210655
0.00210663
0.0021067
0.00210737
0.0021093
0.00173737
0.0020479
0.00209486
0.00210507
0.00210677
0.00210809
0.00210783
0.00210814
0.00210785
0.00210778
0.00210681
0.00210573
0.00210398
0.00210291
0.00210185
0.00210138
0.00210104
0.00210088
0.00210112
0.00210273
0.00173973
0.00205036
0.00209714
0.0021073
0.00210898
0.0021103
0.00211
0.00211029
0.00210997
0.00210994
0.00210898
0.0021079
0.002106
0.00210477
0.0021035
0.00210287
0.00210233
0.0021019
0.0021019
0.00210301
0.00173853
0.00204902
0.00209579
0.00210592
0.00210756
0.00210887
0.00210856
0.00210885
0.00210853
0.00210853
0.00210761
0.00210655
0.00210463
0.00210335
0.00210203
0.00210135
0.00210076
0.00210023
0.00210009
0.00210099
0.00173943
0.00204991
0.00209661
0.0021067
0.00210832
0.00210962
0.0021093
0.00210959
0.00210927
0.00210927
0.00210836
0.00210732
0.0021054
0.0021041
0.00210277
0.00210207
0.00210148
0.00210091
0.00210072
0.00210152
0.00173942
0.00204991
0.00209661
0.0021067
0.00210832
0.00210962
0.0021093
0.00210959
0.00210927
0.00210927
0.00210837
0.00210732
0.0021054
0.0021041
0.00210278
0.00210207
0.00210148
0.00210091
0.00210072
0.00210152
0.00173853
0.00204902
0.00209579
0.00210592
0.00210756
0.00210887
0.00210856
0.00210885
0.00210853
0.00210853
0.00210761
0.00210655
0.00210463
0.00210335
0.00210204
0.00210135
0.00210076
0.00210023
0.0021001
0.00210099
0.00173972
0.00205036
0.00209714
0.0021073
0.00210898
0.0021103
0.00211
0.00211029
0.00210997
0.00210994
0.00210898
0.0021079
0.002106
0.00210477
0.0021035
0.00210287
0.00210233
0.0021019
0.00210189
0.00210299
0.00173737
0.0020479
0.00209486
0.00210507
0.00210677
0.00210809
0.00210783
0.00210814
0.00210784
0.00210779
0.0021068
0.00210574
0.00210397
0.00210291
0.00210185
0.00210139
0.00210103
0.00210089
0.00210112
0.00210274
0.00173996
0.00205066
0.00209767
0.00210787
0.00210969
0.00211112
0.00211105
0.00211151
0.00211137
0.00211135
0.00211047
0.00210955
0.00210815
0.00210742
0.00210675
0.00210658
0.00210659
0.00210674
0.00210731
0.00210931
0.00173639
0.00204691
0.00209425
0.00210472
0.00210699
0.00210905
0.00210956
0.00211067
0.00211082
0.00211104
0.00211044
0.0021099
0.00210908
0.00210886
0.00210873
0.00210893
0.00210937
0.00211005
0.00211098
0.00211404
0.00174431
0.00205461
0.00210244
0.00211402
0.00211811
0.00212136
0.00212281
0.00212424
0.00212445
0.0021245
0.00212396
0.00212354
0.00212306
0.002123
0.00212303
0.00212333
0.00212382
0.00212438
0.00212509
0.00212719
0.00176085
0.00206977
0.00211989
0.00213262
0.00213702
0.00213924
0.00213945
0.00213937
0.0021385
0.00213763
0.00213654
0.00213582
0.00213512
0.00213476
0.00213451
0.00213445
0.00213454
0.00213457
0.00213445
0.00213879
0.00189595
0.00218638
0.00221856
0.00221426
0.00220898
0.00220319
0.00220003
0.00219621
0.00219409
0.00219136
0.00218992
0.002188
0.00218711
0.00218582
0.00218526
0.00218439
0.0021839
0.00218355
0.00218243
0.00218398
0.00229641
0.00244937
0.00242617
0.00239814
0.00239387
0.00238251
0.00238269
0.00237581
0.00237655
0.00237169
0.00237252
0.00236898
0.00236973
0.00236712
0.00236773
0.00236573
0.00236625
0.00236442
0.00236462
0.00236771
0.000880104
0.000993688
0.000919916
0.000821289
0.000759679
0.000724623
0.000699585
0.000681373
0.00066608
0.000653252
0.000642549
0.00063284
0.000625038
0.00061745
0.000611326
0.000605646
0.000599931
0.000597186
0.000590635
0.000592216
0.000360062
0.000574925
0.000631141
0.000640977
0.000640231
0.000637202
0.000631176
0.000625115
0.000618863
0.000613147
0.000607757
0.000602909
0.000598413
0.000594412
0.000590587
0.000587442
0.00058396
0.000582042
0.000578173
0.000578885
0.000156424
0.000355617
0.000430822
0.000463187
0.00047697
0.000488297
0.000495228
0.000502597
0.00050742
0.000512426
0.000515484
0.000518596
0.000520405
0.000522332
0.00052338
0.000524556
0.000525086
0.000525478
0.000525154
0.000526185
0.000143667
0.000324307
0.000393473
0.000425806
0.000437957
0.000445849
0.000449171
0.000453127
0.000455554
0.000458786
0.000461301
0.000464252
0.000466864
0.000469576
0.00047218
0.00047454
0.000477137
0.000478788
0.000481091
0.000482768
0.000140424
0.000316439
0.000381804
0.000414215
0.000425697
0.000433059
0.000434686
0.000436825
0.000437113
0.000437932
0.000438207
0.000438971
0.000439569
0.000440588
0.000441642
0.000442703
0.000444212
0.000445161
0.00044681
0.00044812
0.000143381
0.000321607
0.000386712
0.000418184
0.000429857
0.00043673
0.0004385
0.000440112
0.000440174
0.000440339
0.000440158
0.000440125
0.000440042
0.000440088
0.00044029
0.000440493
0.000441012
0.00044129
0.000441998
0.000442964
0.000141342
0.000318105
0.000383158
0.000414933
0.000426387
0.000433382
0.000434996
0.000436634
0.000436602
0.000436705
0.000436409
0.000436262
0.000435912
0.000435797
0.000435656
0.000435607
0.000435653
0.000435738
0.000435947
0.000436651
0.000143024
0.000321139
0.000386297
0.00041765
0.000429163
0.00043595
0.000437673
0.000439238
0.000439263
0.000439349
0.000439099
0.000438923
0.000438571
0.000438401
0.000438262
0.000438146
0.000438172
0.000438152
0.00043831
0.000438915
0.000142004
0.000319311
0.000384436
0.000415966
0.000427388
0.000434254
0.000435901
0.000437507
0.000437509
0.000437614
0.000437352
0.000437197
0.00043684
0.00043669
0.000436526
0.000436416
0.000436407
0.000436389
0.000436479
0.000437049
0.000142574
0.000320363
0.000385534
0.000416923
0.00042835
0.000435138
0.000436809
0.000438382
0.000438397
0.000438496
0.000438247
0.000438089
0.000437744
0.000437585
0.000437441
0.000437323
0.000437329
0.000437295
0.000437399
0.000437953
0.000142574
0.000320363
0.000385534
0.000416923
0.00042835
0.000435138
0.000436809
0.000438382
0.000438397
0.000438496
0.000438247
0.000438089
0.000437744
0.000437586
0.000437441
0.000437324
0.000437329
0.000437297
0.000437401
0.000437957
0.000142004
0.000319311
0.000384436
0.000415966
0.000427388
0.000434254
0.000435901
0.000437507
0.000437509
0.000437614
0.000437353
0.000437197
0.00043684
0.000436689
0.000436526
0.000436415
0.000436407
0.000436387
0.000436475
0.000437043
0.000143024
0.000321139
0.000386297
0.00041765
0.000429163
0.00043595
0.000437673
0.000439238
0.000439263
0.000439349
0.000439099
0.000438923
0.000438571
0.000438401
0.000438263
0.000438147
0.000438173
0.000438154
0.000438312
0.000438918
0.000141342
0.000318105
0.000383158
0.000414933
0.000426387
0.000433382
0.000434996
0.000436634
0.000436602
0.000436706
0.000436409
0.000436262
0.000435912
0.000435796
0.000435656
0.000435605
0.000435652
0.000435733
0.000435941
0.000436642
0.000143381
0.000321607
0.000386712
0.000418184
0.000429857
0.000436731
0.0004385
0.000440112
0.000440174
0.000440339
0.000440157
0.000440126
0.000440042
0.000440089
0.000440288
0.000440492
0.000441007
0.000441286
0.000441987
0.000442944
0.000140424
0.000316439
0.000381804
0.000414215
0.000425696
0.000433059
0.000434685
0.000436825
0.000437113
0.000437933
0.000438207
0.000438974
0.000439563
0.000440592
0.000441632
0.000442703
0.000444192
0.000445148
0.00044677
0.00044806
0.000143667
0.000324307
0.000393473
0.000425807
0.000437956
0.00044585
0.00044917
0.000453128
0.000455551
0.000458788
0.000461297
0.000464256
0.000466856
0.000469577
0.000472166
0.000474529
0.00047711
0.000478748
0.000481004
0.000482654
0.000156424
0.000355617
0.000430822
0.000463187
0.00047697
0.000488298
0.000495226
0.0005026
0.000507416
0.000512431
0.000515475
0.000518604
0.000520389
0.000522339
0.000523355
0.000524548
0.000525047
0.00052543
0.000525071
0.000526059
0.000360062
0.000574925
0.000631141
0.000640977
0.000640231
0.000637203
0.000631174
0.000625117
0.000618859
0.000613153
0.000607747
0.000602924
0.000598392
0.000594445
0.000590544
0.000587511
0.000583892
0.000582105
0.000578134
0.000579007
0.000880104
0.000993689
0.000919916
0.000821289
0.000759679
0.000724623
0.000699585
0.000681375
0.00066608
0.000653258
0.000642549
0.000632857
0.000625038
0.000617498
0.000611335
0.00060576
0.000600003
0.000597414
0.000590898
0.000592974
0.000880104
0.000993689
0.000919916
0.000821289
0.000759679
0.000724623
0.000699586
0.000681373
0.000666081
0.000653252
0.000642549
0.00063284
0.000625038
0.00061745
0.000611325
0.000605646
0.000599931
0.000597186
0.000590636
0.000592217
0.000360062
0.000574925
0.000631141
0.000640977
0.000640231
0.000637202
0.000631176
0.000625115
0.000618863
0.000613147
0.000607757
0.000602909
0.000598413
0.000594412
0.000590587
0.000587442
0.00058396
0.000582042
0.000578173
0.000578885
0.000156424
0.000355617
0.000430823
0.000463187
0.000476971
0.000488298
0.000495228
0.000502598
0.00050742
0.000512426
0.000515484
0.000518597
0.000520406
0.000522332
0.00052338
0.000524556
0.000525086
0.000525478
0.000525154
0.000526185
0.000143667
0.000324307
0.000393473
0.000425807
0.000437957
0.00044585
0.000449171
0.000453127
0.000455554
0.000458786
0.000461302
0.000464253
0.000466864
0.000469577
0.000472181
0.000474541
0.000477138
0.000478788
0.000481091
0.000482769
0.000140424
0.000316439
0.000381805
0.000414215
0.000425697
0.000433059
0.000434686
0.000436825
0.000437113
0.000437932
0.000438208
0.000438971
0.000439569
0.000440588
0.000441642
0.000442703
0.000444213
0.000445161
0.00044681
0.00044812
0.000143381
0.000321608
0.000386712
0.000418184
0.000429857
0.000436731
0.000438501
0.000440112
0.000440174
0.00044034
0.000440158
0.000440125
0.000440043
0.000440088
0.00044029
0.000440494
0.000441013
0.00044129
0.000441998
0.000442964
0.000141342
0.000318105
0.000383159
0.000414933
0.000426388
0.000433382
0.000434997
0.000436634
0.000436603
0.000436706
0.000436409
0.000436262
0.000435912
0.000435797
0.000435657
0.000435607
0.000435653
0.000435739
0.000435947
0.000436651
0.000143024
0.00032114
0.000386297
0.000417651
0.000429163
0.00043595
0.000437673
0.000439239
0.000439263
0.00043935
0.000439099
0.000438924
0.000438571
0.000438402
0.000438263
0.000438146
0.000438172
0.000438152
0.000438311
0.000438915
0.000142004
0.000319311
0.000384436
0.000415967
0.000427389
0.000434254
0.000435901
0.000437507
0.000437509
0.000437615
0.000437353
0.000437198
0.000436841
0.00043669
0.000436526
0.000436417
0.000436407
0.00043639
0.000436479
0.000437049
0.000142574
0.000320363
0.000385534
0.000416924
0.00042835
0.000435139
0.000436809
0.000438383
0.000438397
0.000438496
0.000438248
0.00043809
0.000437744
0.000437586
0.000437441
0.000437324
0.000437329
0.000437295
0.000437399
0.000437953
0.000142574
0.000320363
0.000385534
0.000416924
0.00042835
0.000435139
0.000436809
0.000438383
0.000438397
0.000438496
0.000438248
0.00043809
0.000437744
0.000437586
0.000437441
0.000437324
0.00043733
0.000437297
0.000437401
0.000437958
0.000142004
0.000319311
0.000384436
0.000415967
0.000427389
0.000434254
0.000435901
0.000437507
0.000437509
0.000437615
0.000437353
0.000437198
0.000436841
0.00043669
0.000436526
0.000436415
0.000436407
0.000436387
0.000436476
0.000437044
0.000143024
0.00032114
0.000386297
0.000417651
0.000429163
0.00043595
0.000437673
0.000439239
0.000439263
0.00043935
0.000439099
0.000438924
0.000438571
0.000438402
0.000438263
0.000438147
0.000438173
0.000438154
0.000438312
0.000438918
0.000141342
0.000318105
0.000383159
0.000414933
0.000426388
0.000433383
0.000434996
0.000436634
0.000436602
0.000436706
0.000436409
0.000436262
0.000435912
0.000435797
0.000435656
0.000435606
0.000435652
0.000435734
0.000435941
0.000436642
0.000143381
0.000321608
0.000386712
0.000418185
0.000429857
0.000436731
0.0004385
0.000440112
0.000440174
0.00044034
0.000440157
0.000440126
0.000440043
0.000440089
0.000440288
0.000440492
0.000441008
0.000441286
0.000441987
0.000442945
0.000140424
0.00031644
0.000381804
0.000414216
0.000425697
0.00043306
0.000434686
0.000436825
0.000437113
0.000437933
0.000438207
0.000438975
0.000439563
0.000440592
0.000441632
0.000442703
0.000444193
0.000445148
0.000446771
0.00044806
0.000143667
0.000324307
0.000393473
0.000425807
0.000437956
0.000445851
0.00044917
0.000453129
0.000455551
0.000458789
0.000461297
0.000464257
0.000466856
0.000469578
0.000472167
0.000474529
0.000477111
0.000478749
0.000481004
0.000482655
0.000156424
0.000355617
0.000430822
0.000463187
0.00047697
0.000488299
0.000495226
0.0005026
0.000507416
0.000512431
0.000515475
0.000518604
0.000520389
0.000522339
0.000523355
0.000524549
0.000525047
0.00052543
0.000525071
0.00052606
0.000360062
0.000574925
0.000631141
0.000640977
0.000640231
0.000637203
0.000631174
0.000625117
0.000618859
0.000613154
0.000607747
0.000602924
0.000598392
0.000594445
0.000590544
0.000587511
0.000583892
0.000582105
0.000578135
0.000579007
0.000880104
0.000993689
0.000919916
0.000821289
0.000759679
0.000724623
0.000699585
0.000681375
0.00066608
0.000653258
0.000642549
0.000632858
0.000625038
0.000617498
0.000611335
0.00060576
0.000600003
0.000597414
0.000590898
0.000592974
0.00229641
0.00244937
0.00242617
0.00239814
0.00239387
0.00238251
0.00238269
0.00237581
0.00237655
0.00237169
0.00237252
0.00236898
0.00236974
0.0023671
0.00236774
0.0023657
0.00236627
0.00236431
0.00236475
0.00236705
0.00189595
0.00218638
0.00221856
0.00221425
0.00220898
0.00220319
0.00220003
0.00219621
0.00219409
0.00219135
0.00218992
0.00218799
0.00218712
0.00218579
0.00218529
0.00218433
0.00218399
0.00218337
0.00218277
0.00218292
0.00176085
0.00206976
0.00211989
0.00213262
0.00213702
0.00213924
0.00213945
0.00213937
0.0021385
0.00213762
0.00213655
0.0021358
0.00213515
0.00213472
0.00213457
0.00213437
0.00213467
0.00213431
0.00213492
0.00213785
0.00174431
0.00205461
0.00210244
0.00211402
0.00211811
0.00212136
0.00212281
0.00212424
0.00212446
0.0021245
0.00212397
0.00212352
0.00212309
0.00212297
0.00212309
0.00212326
0.002124
0.00212416
0.00212557
0.00212658
0.00173639
0.00204691
0.00209425
0.00210472
0.00210699
0.00210904
0.00210956
0.00211067
0.00211083
0.00211103
0.00211045
0.00210988
0.0021091
0.00210883
0.00210876
0.00210889
0.0021095
0.00210988
0.00211115
0.00211385
0.00173996
0.00205066
0.00209767
0.00210787
0.00210969
0.00211111
0.00211105
0.00211151
0.00211138
0.00211135
0.00211048
0.00210953
0.00210816
0.0021074
0.00210678
0.00210656
0.00210663
0.0021067
0.00210737
0.0021093
0.00173737
0.0020479
0.00209486
0.00210507
0.00210677
0.00210809
0.00210783
0.00210814
0.00210784
0.00210778
0.00210681
0.00210573
0.00210398
0.00210291
0.00210185
0.00210138
0.00210104
0.00210088
0.00210112
0.00210273
0.00173973
0.00205036
0.00209714
0.0021073
0.00210898
0.0021103
0.00211
0.00211029
0.00210997
0.00210994
0.00210898
0.0021079
0.002106
0.00210477
0.0021035
0.00210287
0.00210233
0.0021019
0.0021019
0.00210301
0.00173853
0.00204902
0.00209579
0.00210592
0.00210756
0.00210887
0.00210856
0.00210885
0.00210853
0.00210853
0.00210761
0.00210655
0.00210463
0.00210335
0.00210203
0.00210135
0.00210076
0.00210023
0.00210009
0.00210099
0.00173943
0.00204991
0.00209661
0.0021067
0.00210832
0.00210962
0.0021093
0.00210959
0.00210927
0.00210927
0.00210836
0.00210732
0.0021054
0.0021041
0.00210277
0.00210207
0.00210148
0.00210091
0.00210072
0.00210152
0.00173942
0.00204991
0.00209661
0.0021067
0.00210832
0.00210962
0.0021093
0.00210959
0.00210927
0.00210927
0.00210837
0.00210732
0.0021054
0.0021041
0.00210278
0.00210207
0.00210148
0.00210091
0.00210072
0.00210152
0.00173853
0.00204902
0.00209579
0.00210592
0.00210756
0.00210887
0.00210856
0.00210885
0.00210853
0.00210853
0.00210761
0.00210655
0.00210463
0.00210335
0.00210204
0.00210135
0.00210076
0.00210023
0.0021001
0.00210099
0.00173972
0.00205036
0.00209714
0.0021073
0.00210898
0.0021103
0.00211
0.00211029
0.00210997
0.00210994
0.00210898
0.0021079
0.002106
0.00210477
0.0021035
0.00210287
0.00210233
0.0021019
0.00210189
0.00210299
0.00173737
0.0020479
0.00209486
0.00210507
0.00210677
0.00210809
0.00210783
0.00210814
0.00210784
0.00210779
0.0021068
0.00210574
0.00210397
0.00210291
0.00210185
0.00210139
0.00210103
0.00210089
0.00210112
0.00210274
0.00173996
0.00205066
0.00209767
0.00210787
0.00210969
0.00211112
0.00211105
0.00211151
0.00211137
0.00211135
0.00211047
0.00210955
0.00210815
0.00210742
0.00210675
0.00210658
0.00210659
0.00210674
0.00210731
0.00210931
0.00173639
0.00204691
0.00209425
0.00210472
0.00210699
0.00210905
0.00210956
0.00211067
0.00211082
0.00211104
0.00211044
0.0021099
0.00210908
0.00210886
0.00210873
0.00210893
0.00210937
0.00211005
0.00211098
0.00211404
0.00174431
0.00205461
0.00210244
0.00211402
0.00211811
0.00212136
0.00212281
0.00212424
0.00212445
0.0021245
0.00212396
0.00212354
0.00212306
0.002123
0.00212303
0.00212333
0.00212382
0.00212438
0.00212509
0.00212719
0.00176085
0.00206977
0.00211989
0.00213262
0.00213702
0.00213924
0.00213945
0.00213937
0.0021385
0.00213763
0.00213653
0.00213582
0.00213512
0.00213476
0.00213451
0.00213445
0.00213454
0.00213457
0.00213445
0.00213879
0.00189595
0.00218638
0.00221856
0.00221425
0.00220898
0.00220319
0.00220003
0.00219621
0.00219409
0.00219136
0.00218992
0.002188
0.00218711
0.00218582
0.00218526
0.00218439
0.0021839
0.00218355
0.00218243
0.00218398
0.00229641
0.00244937
0.00242617
0.00239814
0.00239387
0.00238251
0.00238269
0.00237581
0.00237655
0.00237169
0.00237252
0.00236898
0.00236973
0.00236712
0.00236773
0.00236573
0.00236625
0.00236442
0.00236462
0.00236771
0.00817431
0.00840115
0.00840118
0.00840426
0.00840222
0.00840328
0.00840103
0.00840139
0.00839912
0.00839925
0.00839753
0.0083979
0.00839691
0.00839755
0.00839718
0.00839786
0.00839822
0.00839804
0.00840235
0.00840491
0.00395783
0.00377323
0.00364722
0.00359899
0.0035808
0.00357652
0.00357063
0.00357013
0.00356684
0.00356664
0.0035642
0.00356433
0.00356264
0.00356303
0.00356188
0.00356231
0.00356178
0.0035615
0.00356709
0.00356836
0.00247413
0.0024667
0.00242024
0.00238634
0.00236983
0.00236379
0.00235663
0.00235402
0.00234881
0.00234685
0.00234274
0.00234144
0.00233847
0.00233777
0.00233575
0.00233544
0.00233417
0.0023339
0.00233376
0.00233713
0.00208814
0.00220952
0.00222214
0.00222251
0.00222067
0.0022199
0.00221711
0.00221563
0.00221238
0.00221036
0.00220693
0.0022049
0.00220211
0.00220072
0.00219891
0.00219805
0.00219716
0.00219649
0.0021966
0.00219889
0.00199918
0.00215995
0.00218883
0.0021991
0.00220119
0.00220402
0.00220343
0.00220391
0.00220258
0.00220196
0.00219951
0.00219817
0.00219548
0.00219445
0.00219263
0.00219205
0.00219108
0.00219085
0.00219072
0.00219269
0.00198728
0.0021537
0.00218627
0.00219901
0.00220256
0.00220697
0.00220741
0.00220918
0.00220884
0.0022094
0.00220809
0.00220739
0.00220512
0.00220432
0.0022026
0.00220222
0.00220127
0.00220113
0.00220102
0.00220269
0.00198333
0.00215005
0.002183
0.00219638
0.00220048
0.00220564
0.00220666
0.00220939
0.00220971
0.00221121
0.00221061
0.00221065
0.00220909
0.00220861
0.00220726
0.00220717
0.00220651
0.00220654
0.00220642
0.00220816
0.00198529
0.00215058
0.00218343
0.00219693
0.00220135
0.00220691
0.00220829
0.00221157
0.00221234
0.00221459
0.00221449
0.00221508
0.00221403
0.00221393
0.00221304
0.00221322
0.00221293
0.00221307
0.00221335
0.00221477
0.0019848
0.00214945
0.00218204
0.00219541
0.00219982
0.00220545
0.00220694
0.00221043
0.00221139
0.00221399
0.00221418
0.00221511
0.00221438
0.00221457
0.00221401
0.00221444
0.00221447
0.00221481
0.00221532
0.00221687
0.0019857
0.00214977
0.00218224
0.00219558
0.0022
0.00220565
0.00220718
0.00221073
0.00221177
0.0022145
0.00221481
0.00221589
0.00221531
0.00221562
0.00221523
0.00221576
0.002216
0.00221645
0.00221717
0.00221866
0.0019857
0.00214977
0.00218224
0.00219558
0.0022
0.00220565
0.00220718
0.00221073
0.00221177
0.0022145
0.00221481
0.00221589
0.00221531
0.00221562
0.00221523
0.00221576
0.00221601
0.00221645
0.00221717
0.00221867
0.0019848
0.00214945
0.00218204
0.00219541
0.00219982
0.00220545
0.00220694
0.00221043
0.00221139
0.002214
0.00221418
0.00221511
0.00221438
0.00221456
0.00221401
0.00221443
0.00221448
0.00221481
0.00221534
0.00221689
0.00198529
0.00215058
0.00218343
0.00219693
0.00220135
0.00220691
0.00220829
0.00221157
0.00221234
0.00221459
0.00221449
0.00221508
0.00221403
0.00221393
0.00221304
0.00221322
0.00221293
0.00221307
0.00221337
0.00221478
0.00198333
0.00215005
0.00218299
0.00219638
0.00220048
0.00220565
0.00220666
0.00220939
0.00220971
0.00221122
0.00221061
0.00221066
0.00220908
0.00220861
0.00220726
0.00220718
0.00220651
0.00220657
0.00220644
0.00220822
0.00198727
0.0021537
0.00218627
0.00219901
0.00220256
0.00220697
0.0022074
0.00220918
0.00220884
0.0022094
0.00220808
0.0022074
0.00220511
0.00220433
0.00220258
0.00220225
0.00220124
0.00220121
0.00220098
0.00220277
0.00199918
0.00215995
0.00218883
0.0021991
0.00220119
0.00220402
0.00220343
0.00220391
0.00220257
0.00220196
0.0021995
0.00219819
0.00219546
0.00219448
0.00219258
0.00219212
0.00219099
0.00219105
0.00219053
0.00219302
0.00208814
0.00220952
0.00222214
0.00222251
0.00222067
0.00221991
0.0022171
0.00221564
0.00221237
0.00221037
0.00220691
0.00220493
0.00220207
0.00220077
0.00219883
0.00219817
0.00219697
0.00219681
0.00219614
0.00219959
0.00247413
0.0024667
0.00242024
0.00238634
0.00236982
0.00236379
0.00235663
0.00235403
0.0023488
0.00234686
0.00234273
0.00234145
0.00233845
0.00233779
0.00233571
0.00233551
0.00233404
0.00233416
0.00233321
0.00233839
0.00395783
0.00377323
0.00364722
0.00359899
0.0035808
0.00357652
0.00357063
0.00357013
0.00356683
0.00356664
0.00356419
0.00356434
0.00356262
0.00356305
0.00356184
0.00356236
0.00356167
0.00356168
0.00356642
0.00356988
0.00817431
0.00840115
0.00840118
0.00840426
0.00840222
0.00840328
0.00840103
0.00840139
0.00839911
0.00839925
0.00839752
0.00839792
0.00839688
0.00839759
0.00839712
0.00839796
0.00839804
0.00839839
0.00840145
0.00840772
0.0233056
0.0234649
0.023559
0.0236426
0.0237077
0.023759
0.0237902
0.0238106
0.0238203
0.0238268
0.023829
0.0238312
0.0238315
0.0238324
0.0238323
0.0238329
0.0238327
0.0238331
0.0238329
0.0238332
0.023833
0.0238332
0.023833
0.0238332
0.023833
0.0238331
0.0238329
0.0238329
0.0238327
0.0238328
0.0238326
0.0238325
0.0238323
0.0238323
0.0238321
0.023832
0.0238317
0.0238316
0.0238314
0.0238313
0.023831
0.0238309
0.0238306
0.0238304
0.0238302
0.02383
0.0238297
0.0238295
0.0238292
0.023829
0.0238287
0.0238284
0.0238281
0.0238279
0.0238275
0.0238272
0.0238269
0.0238266
0.0238262
0.0238259
0.0238255
0.0238252
0.0238248
0.0238244
0.023824
0.0238236
0.0238231
0.0238227
0.0238222
0.0238217
0.0238212
0.0238207
0.0238201
0.0238195
0.023819
0.0238183
0.0238177
0.023817
0.0238164
0.0238156
0.0238149
0.0238141
0.0238134
0.0238122
0.0238124
0.023809
0.0238133
0.0238025
0.0238163
0.0237811
0.0131682
0.0133041
0.0133548
0.0134023
0.0134371
0.0134667
0.0134828
0.0134949
0.0134992
0.0135033
0.0135036
0.0135052
0.0135046
0.0135055
0.0135047
0.0135053
0.0135046
0.013505
0.0135043
0.0135047
0.013504
0.0135043
0.0135037
0.0135039
0.0135033
0.0135035
0.0135029
0.013503
0.0135025
0.0135025
0.013502
0.013502
0.0135015
0.0135015
0.013501
0.0135009
0.0135005
0.0135004
0.0134999
0.0134998
0.0134993
0.0134991
0.0134986
0.0134985
0.013498
0.0134978
0.0134973
0.0134971
0.0134966
0.0134963
0.0134958
0.0134956
0.0134951
0.0134948
0.0134942
0.0134939
0.0134934
0.0134931
0.0134926
0.0134922
0.0134917
0.0134913
0.0134908
0.0134904
0.0134898
0.0134894
0.0134889
0.0134884
0.0134879
0.0134875
0.0134869
0.0134865
0.0134859
0.0134855
0.013485
0.0134845
0.013484
0.0134835
0.013483
0.0134825
0.013482
0.0134815
0.0134811
0.0134804
0.0134805
0.0134786
0.013481
0.013475
0.0134821
0.0134628
0.00880197
0.00896813
0.00899579
0.00902598
0.00904455
0.0090648
0.00907302
0.00908198
0.00908275
0.00908601
0.00908431
0.00908566
0.00908347
0.00908417
0.00908201
0.00908243
0.0090804
0.00908066
0.00907878
0.00907891
0.00907715
0.00907719
0.00907553
0.00907548
0.0090739
0.00907379
0.00907228
0.00907211
0.00907065
0.00907043
0.00906902
0.00906875
0.00906739
0.00906706
0.00906574
0.00906538
0.00906408
0.00906368
0.00906242
0.00906198
0.00906074
0.00906026
0.00905905
0.00905854
0.00905734
0.00905681
0.00905563
0.00905506
0.0090539
0.00905331
0.00905217
0.00905155
0.00905043
0.00904979
0.00904868