/*--------------------------------*- C++ -*----------------------------------*\
  =========                 |
  \\      /  F ield         | OpenFOAM: The Open Source CFD Toolbox
   \\    /   O peration     | Website:  https://openfoam.org
    \\  /    A nd           | Version:  7
     \\/     M anipulation  |
\*---------------------------------------------------------------------------*/
FoamFile
{
    version     2.0;
    format      ascii;
    class       volScalarField;
    location    "0.0075";
    object      rho_0;
}
// * * * * * * * * * * * * * * * * * * * * * * * * * * * * * * * * * * * * * //

dimensions      [1 -3 0 0 0 0 0];

internalField   nonuniform List<scalar> 
27000
(
1.27479
1.28135
1.2792
1.27405
1.27022
1.26398
1.2572
1.25086
1.24664
1.24448
1.24383
1.24386
1.24411
1.24431
1.24443
1.24448
1.2445
1.24451
1.24452
1.24453
1.24454
1.24455
1.24457
1.24458
1.2446
1.24462
1.24464
1.24467
1.24469
1.24471
1.24474
1.24477
1.2448
1.24484
1.24489
1.24494
1.24499
1.24505
1.24511
1.24518
1.27258
1.28894
1.28939
1.28993
1.29061
1.29064
1.28936
1.28669
1.28314
1.27971
1.27724
1.27601
1.27574
1.27596
1.27627
1.27648
1.27658
1.27659
1.27657
1.27654
1.27652
1.27651
1.27651
1.27652
1.27653
1.27655
1.27658
1.27661
1.27664
1.27668
1.27673
1.27677
1.27682
1.27687
1.27693
1.27699
1.27706
1.27713
1.2772
1.27728
1.27745
1.29164
1.29496
1.29501
1.29653
1.29616
1.2946
1.29111
1.28674
1.28254
1.27973
1.27851
1.27847
1.27892
1.27939
1.27969
1.27984
1.27988
1.27989
1.27988
1.27988
1.27989
1.27991
1.27993
1.27995
1.27998
1.28
1.28003
1.28006
1.28009
1.28012
1.28015
1.28019
1.28023
1.28028
1.28033
1.28039
1.28044
1.28051
1.28058
1.27432
1.29073
1.29124
1.29164
1.29217
1.29203
1.29062
1.28758
1.28337
1.27912
1.27592
1.27421
1.2737
1.27382
1.27408
1.27428
1.27435
1.27435
1.27431
1.27428
1.27425
1.27424
1.27424
1.27425
1.27426
1.27428
1.27431
1.27434
1.27437
1.27441
1.27445
1.2745
1.27455
1.2746
1.27466
1.27472
1.27479
1.27486
1.27494
1.27502
1.27584
1.29133
1.29298
1.29295
1.29332
1.29254
1.29031
1.28648
1.28165
1.27701
1.27361
1.2718
1.27125
1.27135
1.2716
1.27178
1.27184
1.27183
1.2718
1.27177
1.27176
1.27176
1.27177
1.27178
1.2718
1.27182
1.27185
1.27187
1.2719
1.27194
1.27197
1.27201
1.27206
1.27211
1.27216
1.27222
1.27228
1.27235
1.27242
1.2725
1.27584
1.29133
1.29298
1.29295
1.29332
1.29254
1.29031
1.28648
1.28165
1.27701
1.27361
1.2718
1.27125
1.27135
1.2716
1.27178
1.27184
1.27183
1.2718
1.27177
1.27176
1.27176
1.27176
1.27178
1.2718
1.27182
1.27185
1.27187
1.2719
1.27194
1.27197
1.27201
1.27206
1.2721
1.27216
1.27222
1.27228
1.27235
1.27242
1.2725
1.27432
1.29073
1.29124
1.29164
1.29217
1.29203
1.29061
1.28758
1.28337
1.27912
1.27592
1.27421
1.2737
1.27382
1.27408
1.27427
1.27435
1.27435
1.27431
1.27428
1.27425
1.27424
1.27424
1.27425
1.27426
1.27428
1.27431
1.27434
1.27437
1.27441
1.27445
1.2745
1.27455
1.2746
1.27466
1.27472
1.27479
1.27486
1.27494
1.27502
1.27745
1.29164
1.29496
1.29501
1.29653
1.29616
1.2946
1.29111
1.28674
1.28255
1.27973
1.27851
1.27847
1.27892
1.27939
1.27969
1.27984
1.27988
1.27988
1.27988
1.27988
1.27989
1.27991
1.27993
1.27995
1.27998
1.28
1.28003
1.28005
1.28008
1.28012
1.28015
1.28019
1.28023
1.28028
1.28033
1.28038
1.28044
1.28051
1.28058
1.27258
1.28894
1.28939
1.28993
1.29061
1.29064
1.28936
1.28669
1.28314
1.27971
1.27724
1.27601
1.27574
1.27596
1.27627
1.27648
1.27658
1.27659
1.27657
1.27654
1.27652
1.27651
1.2765
1.27651
1.27653
1.27655
1.27658
1.27661
1.27664
1.27668
1.27672
1.27677
1.27682
1.27687
1.27693
1.27699
1.27706
1.27713
1.2772
1.27728
1.27479
1.28135
1.2792
1.27405
1.27022
1.26398
1.2572
1.25086
1.24664
1.24448
1.24383
1.24386
1.24411
1.24432
1.24444
1.24449
1.24451
1.24451
1.24452
1.24453
1.24454
1.24455
1.24457
1.24458
1.2446
1.24462
1.24464
1.24467
1.24469
1.24471
1.24474
1.24477
1.24481
1.24484
1.24489
1.24494
1.24499
1.24505
1.24511
1.24518
1.16295
1.172
1.17334
1.17847
1.17997
1.18014
1.17678
1.17256
1.16914
1.1676
1.16721
1.16738
1.16763
1.16782
1.16791
1.16794
1.16793
1.16792
1.16791
1.1679
1.1679
1.16791
1.16793
1.16796
1.168
1.16804
1.16808
1.16813
1.16818
1.16823
1.16829
1.16835
1.16841
1.16848
1.16855
1.16863
1.1687
1.16878
1.16887
1.16896
1.1692
1.17935
1.18707
1.19633
1.20312
1.20831
1.21102
1.21219
1.21247
1.21226
1.21161
1.21084
1.21029
1.21008
1.21008
1.21015
1.21021
1.21022
1.2102
1.21018
1.21015
1.21012
1.21012
1.21012
1.21014
1.21016
1.21018
1.21022
1.21026
1.2103
1.21034
1.21039
1.21044
1.2105
1.21056
1.21063
1.2107
1.21077
1.21084
1.21092
1.16493
1.17543
1.18034
1.18918
1.19462
1.19955
1.20275
1.20493
1.20521
1.20392
1.20174
1.19982
1.19868
1.19828
1.19828
1.19841
1.1985
1.19853
1.19851
1.19849
1.19847
1.19845
1.19845
1.19845
1.19847
1.1985
1.19853
1.19857
1.19861
1.19866
1.19872
1.19877
1.19884
1.1989
1.19897
1.19905
1.19913
1.19921
1.1993
1.19939
1.16755
1.1772
1.18542
1.19508
1.20221
1.20818
1.21283
1.21623
1.2176
1.21711
1.21558
1.21407
1.21315
1.21284
1.2129
1.21305
1.21317
1.21322
1.21321
1.21319
1.21316
1.21315
1.21314
1.21314
1.21315
1.21316
1.21319
1.21321
1.21325
1.21328
1.21332
1.21337
1.21342
1.21348
1.21354
1.2136
1.21367
1.21374
1.21382
1.2139
1.16635
1.17627
1.18304
1.19267
1.19962
1.2056
1.21029
1.21376
1.21522
1.21481
1.21337
1.21193
1.21107
1.2108
1.21087
1.21103
1.21114
1.21117
1.21116
1.21113
1.2111
1.21109
1.21108
1.21108
1.21109
1.21111
1.21113
1.21116
1.2112
1.21124
1.21129
1.21134
1.21139
1.21145
1.21151
1.21158
1.21165
1.21173
1.21181
1.2119
1.16635
1.17627
1.18304
1.19267
1.19962
1.2056
1.21029
1.21376
1.21522
1.21481
1.21337
1.21193
1.21107
1.2108
1.21088
1.21103
1.21114
1.21117
1.21116
1.21113
1.21111
1.21109
1.21108
1.21108
1.21109
1.21111
1.21113
1.21116
1.2112
1.21124
1.21129
1.21134
1.21139
1.21145
1.21152
1.21158
1.21165
1.21173
1.21181
1.2119
1.16755
1.1772
1.18542
1.19508
1.20221
1.20818
1.21283
1.21623
1.2176
1.2171
1.21558
1.21407
1.21315
1.21284
1.2129
1.21305
1.21317
1.21321
1.21321
1.21319
1.21317
1.21315
1.21314
1.21314
1.21315
1.21316
1.21319
1.21321
1.21325
1.21328
1.21332
1.21337
1.21342
1.21348
1.21354
1.2136
1.21367
1.21374
1.21382
1.2139
1.16493
1.17543
1.18034
1.18918
1.19462
1.19955
1.20275
1.20493
1.20521
1.20392
1.20174
1.19982
1.19868
1.19828
1.19828
1.19841
1.1985
1.19853
1.19852
1.19849
1.19847
1.19845
1.19845
1.19846
1.19847
1.1985
1.19853
1.19857
1.19861
1.19866
1.19872
1.19877
1.19884
1.1989
1.19897
1.19905
1.19913
1.19921
1.1993
1.19939
1.1692
1.17935
1.18707
1.19633
1.20312
1.20831
1.21102
1.2122
1.21247
1.21226
1.2116
1.21083
1.2103
1.21008
1.21008
1.21016
1.21021
1.21022
1.2102
1.21017
1.21015
1.21013
1.21012
1.21012
1.21014
1.21016
1.21019
1.21022
1.21025
1.2103
1.21034
1.21039
1.21044
1.2105
1.21057
1.21063
1.2107
1.21077
1.21084
1.21092
1.16295
1.172
1.17334
1.17847
1.17997
1.18014
1.17678
1.17257
1.16914
1.16759
1.1672
1.16738
1.16763
1.16783
1.16792
1.16795
1.16794
1.16792
1.1679
1.1679
1.16791
1.16791
1.16793
1.16796
1.168
1.16804
1.16808
1.16813
1.16818
1.16823
1.16829
1.16835
1.16841
1.16848
1.16855
1.16862
1.1687
1.16878
1.16887
1.16896
1.16769
1.17076
1.1752
1.17977
1.1827
1.18499
1.18674
1.18696
1.1847
1.1807
1.17653
1.17351
1.17196
1.17153
1.17166
1.17193
1.17217
1.17231
1.17238
1.17242
1.17245
1.17246
1.17248
1.17251
1.17253
1.17256
1.17259
1.17263
1.17267
1.17271
1.17275
1.1728
1.17285
1.1729
1.17296
1.17302
1.17309
1.17316
1.17323
1.1733
1.1678
1.17082
1.17548
1.18066
1.18424
1.18709
1.18977
1.19165
1.19132
1.18864
1.18478
1.18133
1.17915
1.17824
1.17812
1.17832
1.17856
1.17871
1.17879
1.17883
1.17885
1.17885
1.17886
1.17887
1.17889
1.1789
1.17893
1.17896
1.17899
1.17902
1.17906
1.1791
1.17915
1.1792
1.17925
1.17931
1.17938
1.17944
1.17951
1.17959
1.16769
1.17072
1.17529
1.18022
1.18342
1.18596
1.18838
1.18986
1.18889
1.18547
1.18105
1.17728
1.175
1.17409
1.17401
1.17424
1.17449
1.17465
1.17474
1.17479
1.1748
1.17482
1.17483
1.17484
1.17486
1.17488
1.17491
1.17494
1.17497
1.17501
1.17505
1.1751
1.17514
1.1752
1.17525
1.17531
1.17538
1.17545
1.17552
1.1756
1.16779
1.17077
1.17542
1.1805
1.18393
1.18673
1.1895
1.19139
1.19087
1.1879
1.18385
1.18035
1.17821
1.17736
1.1773
1.17754
1.17779
1.17796
1.17804
1.17808
1.17809
1.1781
1.17811
1.17812
1.17813
1.17815
1.17817
1.1782
1.17823
1.17826
1.1783
1.17834
1.17839
1.17844
1.17849
1.17854
1.17861
1.17867
1.17874
1.17882
1.16774
1.17074
1.17535
1.18035
1.18369
1.18638
1.18902
1.19075
1.19006
1.18695
1.18281
1.17927
1.17713
1.1763
1.17626
1.1765
1.17676
1.17693
1.17701
1.17705
1.17706
1.17707
1.17708
1.17709
1.17711
1.17713
1.17715
1.17718
1.17721
1.17725
1.17728
1.17733
1.17737
1.17742
1.17747
1.17753
1.17759
1.17766
1.17773
1.17781
1.16774
1.17074
1.17535
1.18035
1.18369
1.18638
1.18902
1.19075
1.19006
1.18695
1.18281
1.17927
1.17713
1.1763
1.17626
1.17651
1.17676
1.17693
1.17701
1.17705
1.17707
1.17707
1.17708
1.17709
1.17711
1.17713
1.17715
1.17718
1.17721
1.17725
1.17728
1.17733
1.17737
1.17742
1.17747
1.17753
1.17759
1.17766
1.17773
1.17781
1.16779
1.17077
1.17542
1.1805
1.18393
1.18673
1.1895
1.19139
1.19087
1.1879
1.18385
1.18035
1.17821
1.17736
1.1773
1.17754
1.17779
1.17795
1.17804
1.17808
1.17809
1.1781
1.17811
1.17812
1.17813
1.17815
1.17817
1.1782
1.17823
1.17826
1.1783
1.17834
1.17839
1.17844
1.17849
1.17854
1.17861
1.17867
1.17874
1.17882
1.16769
1.17072
1.17529
1.18022
1.18342
1.18596
1.18838
1.18986
1.18889
1.18547
1.18105
1.17728
1.175
1.17409
1.17401
1.17424
1.17449
1.17466
1.17475
1.17479
1.17481
1.17482
1.17483
1.17484
1.17486
1.17488
1.17491
1.17494
1.17497
1.17501
1.17505
1.1751
1.17515
1.1752
1.17525
1.17531
1.17538
1.17545
1.17552
1.1756
1.1678
1.17082
1.17548
1.18066
1.18424
1.18709
1.18977
1.19165
1.19132
1.18864
1.18478
1.18133
1.17915
1.17824
1.17812
1.17832
1.17856
1.17871
1.1788
1.17883
1.17885
1.17886
1.17886
1.17887
1.17889
1.17891
1.17893
1.17896
1.17899
1.17902
1.17906
1.17911
1.17915
1.1792
1.17926
1.17932
1.17938
1.17944
1.17951
1.17959
1.16769
1.17076
1.1752
1.17977
1.1827
1.18499
1.18674
1.18696
1.1847
1.1807
1.17653
1.17351
1.17196
1.17153
1.17166
1.17194
1.17217
1.17231
1.17238
1.17242
1.17245
1.17246
1.17248
1.17251
1.17253
1.17256
1.17259
1.17263
1.17267
1.17271
1.17275
1.1728
1.17285
1.1729
1.17296
1.17302
1.17309
1.17315
1.17323
1.1733
1.16766
1.17043
1.17499
1.17954
1.1825
1.18476
1.18694
1.18788
1.18611
1.1819
1.17701
1.17316
1.17102
1.17032
1.17042
1.17078
1.1711
1.17131
1.17144
1.1715
1.17154
1.17157
1.1716
1.17163
1.17166
1.17169
1.17173
1.17176
1.1718
1.17184
1.17189
1.17193
1.17198
1.17204
1.1721
1.17216
1.17222
1.17229
1.17237
1.17245
1.16766
1.17041
1.17498
1.17958
1.18256
1.1848
1.18704
1.18817
1.1866
1.18246
1.17744
1.17337
1.17104
1.17022
1.17027
1.17062
1.17095
1.17118
1.17131
1.17138
1.17142
1.17145
1.17148
1.17151
1.17154
1.17157
1.1716
1.17164
1.17168
1.17172
1.17177
1.17181
1.17186
1.17192
1.17198
1.17204
1.17211
1.17218
1.17225
1.17233
1.16765
1.17042
1.175
1.17959
1.18257
1.18483
1.18706
1.18812
1.18644
1.18222
1.17718
1.17312
1.17081
1.17001
1.17008
1.17043
1.17077
1.17099
1.17112
1.1712
1.17124
1.17127
1.1713
1.17133
1.17136
1.17139
1.17143
1.17146
1.1715
1.17155
1.17159
1.17164
1.17169
1.17175
1.1718
1.17187
1.17193
1.172
1.17208
1.17216
1.16766
1.17041
1.17498
1.17958
1.18256
1.1848
1.18705
1.18814
1.1865
1.1823
1.17725
1.17318
1.17085
1.17005
1.1701
1.17046
1.17079
1.17102
1.17115
1.17122
1.17126
1.17129
1.17132
1.17135
1.17138
1.17141
1.17145
1.17148
1.17152
1.17156
1.17161
1.17166
1.17171
1.17176
1.17182
1.17188
1.17195
1.17202
1.17209
1.17217
1.16765
1.17041
1.17499
1.17959
1.18256
1.18482
1.18705
1.18812
1.18645
1.18223
1.17718
1.17311
1.17079
1.16999
1.17005
1.17041
1.17074
1.17097
1.1711
1.17117
1.17121
1.17124
1.17127
1.1713
1.17133
1.17136
1.1714
1.17143
1.17147
1.17152
1.17156
1.17161
1.17166
1.17172
1.17177
1.17184
1.1719
1.17197
1.17205
1.17213
1.16765
1.17041
1.17499
1.17959
1.18256
1.18482
1.18705
1.18812
1.18645
1.18223
1.17718
1.17311
1.17079
1.16999
1.17005
1.17041
1.17074
1.17097
1.1711
1.17117
1.17121
1.17124
1.17127
1.1713
1.17133
1.17136
1.1714
1.17143
1.17147
1.17152
1.17156
1.17161
1.17166
1.17172
1.17177
1.17184
1.1719
1.17197
1.17205
1.17213
1.16766
1.17041
1.17498
1.17958
1.18256
1.1848
1.18705
1.18814
1.1865
1.1823
1.17725
1.17318
1.17085
1.17005
1.1701
1.17046
1.17079
1.17102
1.17115
1.17122
1.17126
1.17129
1.17132
1.17135
1.17138
1.17141
1.17145
1.17148
1.17152
1.17156
1.17161
1.17166
1.17171
1.17176
1.17182
1.17188
1.17195
1.17202
1.17209
1.17217
1.16765
1.17042
1.175
1.17959
1.18257
1.18483
1.18706
1.18812
1.18644
1.18222
1.17718
1.17312
1.17081
1.17001
1.17008
1.17043
1.17077
1.17099
1.17112
1.1712
1.17124
1.17127
1.1713
1.17133
1.17136
1.17139
1.17143
1.17146
1.1715
1.17155
1.17159
1.17164
1.17169
1.17175
1.1718
1.17187
1.17193
1.172
1.17208
1.17216
1.16766
1.17041
1.17498
1.17958
1.18256
1.1848
1.18704
1.18817
1.1866
1.18246
1.17744
1.17337
1.17104
1.17022
1.17027
1.17062
1.17095
1.17118
1.17131
1.17138
1.17142
1.17145
1.17148
1.17151
1.17154
1.17157
1.1716
1.17164
1.17168
1.17172
1.17177
1.17181
1.17186
1.17192
1.17198
1.17204
1.17211
1.17218
1.17225
1.17233
1.16766
1.17043
1.17499
1.17954
1.1825
1.18476
1.18694
1.18788
1.1861
1.1819
1.17701
1.17316
1.17102
1.17032
1.17042
1.17078
1.1711
1.17131
1.17143
1.1715
1.17154
1.17157
1.1716
1.17163
1.17166
1.17169
1.17172
1.17176
1.1718
1.17184
1.17189
1.17193
1.17198
1.17204
1.1721
1.17216
1.17222
1.17229
1.17237
1.17245
1.16754
1.17029
1.17486
1.17941
1.18242
1.18468
1.18684
1.1877
1.18587
1.18165
1.17683
1.1731
1.17109
1.17049
1.17066
1.17104
1.17137
1.17158
1.17171
1.17177
1.17181
1.17185
1.17188
1.17191
1.17194
1.17197
1.17201
1.17204
1.17208
1.17213
1.17217
1.17222
1.17227
1.17233
1.17238
1.17245
1.17251
1.17258
1.17266
1.17274
1.16753
1.17029
1.17486
1.17946
1.18248
1.18474
1.18694
1.1879
1.18616
1.18196
1.17703
1.17314
1.17099
1.17031
1.17044
1.17082
1.17117
1.17139
1.17152
1.17159
1.17164
1.17167
1.1717
1.17173
1.17177
1.1718
1.17184
1.17188
1.17192
1.17196
1.17201
1.17205
1.17211
1.17216
1.17222
1.17229
1.17235
1.17242
1.1725
1.17258
1.16753
1.17029
1.17487
1.17945
1.18248
1.18474
1.18694
1.18789
1.18613
1.18191
1.17698
1.17308
1.17094
1.17027
1.17041
1.17079
1.17113
1.17136
1.17149
1.17156
1.1716
1.17164
1.17167
1.1717
1.17173
1.17177
1.1718
1.17184
1.17188
1.17192
1.17197
1.17202
1.17207
1.17213
1.17219
1.17225
1.17232
1.17239
1.17247
1.17255
1.16753
1.17029
1.17487
1.17945
1.18248
1.18474
1.18694
1.18788
1.18612
1.18189
1.17695
1.17305
1.17091
1.17024
1.17037
1.17076
1.1711
1.17133
1.17146
1.17153
1.17157
1.17161
1.17164
1.17167
1.1717
1.17173
1.17177
1.17181
1.17185
1.17189
1.17194
1.17199
1.17204
1.1721
1.17216
1.17222
1.17229
1.17236
1.17243
1.17251
1.16753
1.17029
1.17487
1.17945
1.18248
1.18474
1.18694
1.18788
1.18611
1.18188
1.17693
1.17304
1.17089
1.17022
1.17036
1.17075
1.17109
1.17132
1.17144
1.17151
1.17156
1.17159
1.17162
1.17166
1.17169
1.17172
1.17176
1.1718
1.17184
1.17188
1.17193
1.17198
1.17203
1.17208
1.17214
1.17221
1.17227
1.17235
1.17242
1.1725
1.16753
1.17029
1.17487
1.17945
1.18248
1.18474
1.18694
1.18788
1.18611
1.18188
1.17693
1.17304
1.17089
1.17022
1.17036
1.17075
1.17109
1.17132
1.17144
1.17151
1.17156
1.17159
1.17162
1.17166
1.17169
1.17172
1.17176
1.1718
1.17184
1.17188
1.17193
1.17198
1.17203
1.17208
1.17214
1.17221
1.17227
1.17235
1.17242
1.1725
1.16753
1.17029
1.17487
1.17945
1.18248
1.18474
1.18694
1.18788
1.18612
1.18189
1.17695
1.17305
1.17091
1.17024
1.17037
1.17076
1.1711
1.17133
1.17146
1.17153
1.17157
1.17161
1.17164
1.17167
1.1717
1.17173
1.17177
1.17181
1.17185
1.17189
1.17194
1.17199
1.17204
1.1721
1.17216
1.17222
1.17229
1.17236
1.17243
1.17251
1.16753
1.17029
1.17487
1.17945
1.18248
1.18474
1.18694
1.18789
1.18613
1.18191
1.17698
1.17308
1.17094
1.17027
1.17041
1.17079
1.17113
1.17136
1.17149
1.17156
1.1716
1.17164
1.17167
1.1717
1.17173
1.17177
1.1718
1.17184
1.17188
1.17192
1.17197
1.17202
1.17207
1.17213
1.17219
1.17225
1.17232
1.17239
1.17247
1.17255
1.16753
1.17029
1.17486
1.17946
1.18248
1.18474
1.18694
1.1879
1.18616
1.18196
1.17703
1.17314
1.17099
1.17031
1.17044
1.17082
1.17117
1.17139
1.17152
1.17159
1.17164
1.17167
1.1717
1.17173
1.17177
1.1718
1.17184
1.17188
1.17192
1.17196
1.17201
1.17206
1.17211
1.17216
1.17222
1.17229
1.17235
1.17243
1.1725
1.17258
1.16754
1.17029
1.17486
1.17941
1.18242
1.18468
1.18684
1.1877
1.18587
1.18165
1.17683
1.1731
1.17109
1.17049
1.17066
1.17104
1.17137
1.17158
1.17171
1.17177
1.17181
1.17185
1.17188
1.17191
1.17194
1.17197
1.17201
1.17204
1.17208
1.17213
1.17217
1.17222
1.17227
1.17233
1.17238
1.17245
1.17251
1.17258
1.17266
1.17274
1.16744
1.1702
1.17476
1.17931
1.18234
1.18461
1.18674
1.18754
1.18567
1.18147
1.17673
1.17309
1.17116
1.17063
1.17082
1.17121
1.17154
1.17175
1.17186
1.17193
1.17197
1.172
1.17204
1.17207
1.1721
1.17213
1.17217
1.17221
1.17225
1.17229
1.17234
1.17239
1.17244
1.1725
1.17255
1.17262
1.17268
1.17276
1.17283
1.17291
1.16744
1.17019
1.17476
1.17936
1.18241
1.18467
1.18683
1.18773
1.18597
1.18179
1.17695
1.17316
1.1711
1.17048
1.17064
1.17103
1.17137
1.1716
1.17172
1.17179
1.17184
1.17187
1.1719
1.17193
1.17197
1.172
1.17204
1.17208
1.17212
1.17217
1.17221
1.17226
1.17232
1.17237
1.17243
1.1725
1.17256
1.17264
1.17271
1.17279
1.16744
1.17019
1.17476
1.17936
1.18241
1.18467
1.18683
1.18772
1.18595
1.18176
1.17692
1.17313
1.17107
1.17046
1.17062
1.17101
1.17136
1.17158
1.1717
1.17177
1.17182
1.17185
1.17188
1.17192
1.17195
1.17198
1.17202
1.17206
1.1721
1.17215
1.17219
1.17224
1.1723
1.17235
1.17241
1.17248
1.17254
1.17262
1.17269
1.17277
1.16744
1.17019
1.17476
1.17936
1.18241
1.18467
1.18683
1.18772
1.18593
1.18174
1.1769
1.17311
1.17105
1.17044
1.17061
1.171
1.17134
1.17156
1.17169
1.17176
1.1718
1.17184
1.17187
1.1719
1.17193
1.17197
1.17201
1.17205
1.17209
1.17213
1.17218
1.17223
1.17228
1.17234
1.1724
1.17246
1.17253
1.1726
1.17268
1.17276
1.16744
1.17019
1.17476
1.17936
1.18241
1.18467
1.18683
1.18772
1.18593
1.18174
1.17689
1.1731
1.17104
1.17043
1.1706
1.17099
1.17133
1.17156
1.17168
1.17175
1.17179
1.17183
1.17186
1.17189
1.17193
1.17196
1.172
1.17204
1.17208
1.17212
1.17217
1.17222
1.17227
1.17233
1.17239
1.17245
1.17252
1.17259
1.17267
1.17275
1.16744
1.17019
1.17476
1.17936
1.18241
1.18467
1.18683
1.18772
1.18593
1.18174
1.17689
1.1731
1.17104
1.17043
1.1706
1.17099
1.17133
1.17156
1.17168
1.17175
1.17179
1.17183
1.17186
1.17189
1.17193
1.17196
1.172
1.17204
1.17208
1.17212
1.17217
1.17222
1.17227
1.17233
1.17239
1.17245
1.17252
1.17259
1.17267
1.17275
1.16744
1.17019
1.17476
1.17936
1.18241
1.18467
1.18683
1.18772
1.18593
1.18174
1.1769
1.17311
1.17105
1.17044
1.17061
1.171
1.17134
1.17156
1.17169
1.17176
1.1718
1.17184
1.17187
1.1719
1.17193
1.17197
1.17201
1.17205
1.17209
1.17213
1.17218
1.17223
1.17228
1.17234
1.1724
1.17246
1.17253
1.1726
1.17268
1.17276
1.16744
1.17019
1.17476
1.17936
1.18241
1.18467
1.18683
1.18772
1.18595
1.18176
1.17692
1.17313
1.17107
1.17046
1.17062
1.17101
1.17136
1.17158
1.1717
1.17177
1.17182
1.17185
1.17188
1.17192
1.17195
1.17198
1.17202
1.17206
1.1721
1.17215
1.17219
1.17224
1.1723
1.17235
1.17241
1.17248
1.17254
1.17262
1.17269
1.17277
1.16744
1.17019
1.17476
1.17936
1.18241
1.18467
1.18683
1.18773
1.18597
1.18179
1.17695
1.17316
1.1711
1.17048
1.17064
1.17103
1.17137
1.1716
1.17172
1.17179
1.17184
1.17187
1.1719
1.17193
1.17197
1.172
1.17204
1.17208
1.17212
1.17217
1.17221
1.17226
1.17232
1.17237
1.17243
1.1725
1.17256
1.17264
1.17271
1.17279
1.16744
1.1702
1.17476
1.17931
1.18234
1.18461
1.18674
1.18754
1.18567
1.18147
1.17673
1.17309
1.17116
1.17063
1.17082
1.17121
1.17154
1.17175
1.17186
1.17193
1.17197
1.17201
1.17204
1.17207
1.1721
1.17213
1.17217
1.17221
1.17225
1.17229
1.17234
1.17239
1.17244
1.1725
1.17256
1.17262
1.17268
1.17276
1.17283
1.17291
1.16736
1.17011
1.17467
1.17924
1.18228
1.18453
1.18663
1.18741
1.18554
1.18139
1.1767
1.17311
1.17122
1.1707
1.1709
1.17128
1.17161
1.17182
1.17193
1.172
1.17204
1.17207
1.1721
1.17214
1.17217
1.17221
1.17224
1.17228
1.17232
1.17237
1.17241
1.17246
1.17252
1.17257
1.17263
1.17269
1.17276
1.17283
1.17291
1.17299
1.16736
1.1701
1.17467
1.17928
1.18235
1.18459
1.18672
1.1876
1.18585
1.18171
1.17693
1.17319
1.17117
1.17057
1.17074
1.17113
1.17146
1.17168
1.1718
1.17187
1.17192
1.17195
1.17198
1.17202
1.17205
1.17209
1.17213
1.17217
1.17221
1.17225
1.1723
1.17235
1.17241
1.17246
1.17252
1.17259
1.17266
1.17273
1.1728
1.17289
1.16736
1.1701
1.17468
1.17928
1.18234
1.18459
1.18672
1.18759
1.18583
1.18169
1.17691
1.17317
1.17115
1.17056
1.17073
1.17112
1.17146
1.17167
1.1718
1.17186
1.17191
1.17194
1.17198
1.17201
1.17204
1.17208
1.17212
1.17216
1.1722
1.17225
1.17229
1.17234
1.1724
1.17245
1.17251
1.17258
1.17265
1.17272
1.1728
1.17288
1.16735
1.1701
1.17468
1.17928
1.18234
1.18459
1.18672
1.18759
1.18582
1.18168
1.17689
1.17316
1.17114
1.17055
1.17072
1.17111
1.17145
1.17167
1.17179
1.17186
1.1719
1.17194
1.17197
1.172
1.17204
1.17207
1.17211
1.17215
1.17219
1.17224
1.17228
1.17234
1.17239
1.17245
1.17251
1.17257
1.17264
1.17271
1.17279
1.17287
1.16735
1.1701
1.17468
1.17928
1.18234
1.18459
1.18672
1.18759
1.18582
1.18167
1.17689
1.17315
1.17114
1.17054
1.17072
1.17111
1.17144
1.17166
1.17178
1.17185
1.1719
1.17193
1.17196
1.172
1.17203
1.17207
1.17211
1.17215
1.17219
1.17223
1.17228
1.17233
1.17238
1.17244
1.1725
1.17257
1.17263
1.17271
1.17278
1.17287
1.16735
1.1701
1.17468
1.17928
1.18234
1.18459
1.18672
1.18759
1.18582
1.18167
1.17689
1.17315
1.17114
1.17054
1.17072
1.17111
1.17144
1.17166
1.17178
1.17185
1.1719
1.17193
1.17196
1.172
1.17203
1.17207
1.17211
1.17215
1.17219
1.17223
1.17228
1.17233
1.17238
1.17244
1.1725
1.17257
1.17263
1.17271
1.17278
1.17287
1.16735
1.1701
1.17468
1.17928
1.18234
1.18459
1.18672
1.18759
1.18582
1.18168
1.17689
1.17316
1.17114
1.17055
1.17072
1.17111
1.17145
1.17167
1.17179
1.17186
1.1719
1.17194
1.17197
1.172
1.17204
1.17207
1.17211
1.17215
1.17219
1.17224
1.17228
1.17234
1.17239
1.17245
1.17251
1.17257
1.17264
1.17271
1.17279
1.17287
1.16736
1.1701
1.17468
1.17928
1.18234
1.18459
1.18672
1.18759
1.18583
1.18169
1.17691
1.17317
1.17115
1.17056
1.17073
1.17112
1.17146
1.17167
1.1718
1.17186
1.17191
1.17194
1.17198
1.17201
1.17204
1.17208
1.17212
1.17216
1.1722
1.17224
1.17229
1.17234
1.1724
1.17245
1.17251
1.17258
1.17265
1.17272
1.1728
1.17288
1.16736
1.1701
1.17467
1.17928
1.18235
1.18459
1.18672
1.1876
1.18585
1.18171
1.17693
1.17319
1.17117
1.17057
1.17074
1.17113
1.17146
1.17168
1.1718
1.17187
1.17192
1.17195
1.17198
1.17202
1.17205
1.17209
1.17213
1.17217
1.17221
1.17225
1.1723
1.17235
1.17241
1.17246
1.17252
1.17259
1.17265
1.17273
1.1728
1.17289
1.16736
1.17011
1.17467
1.17924
1.18228
1.18453
1.18663
1.18741
1.18554
1.18139
1.1767
1.17311
1.17122
1.1707
1.1709
1.17128
1.17161
1.17182
1.17193
1.172
1.17204
1.17207
1.1721
1.17214
1.17217
1.17221
1.17224
1.17228
1.17232
1.17237
1.17241
1.17246
1.17252
1.17257
1.17263
1.17269
1.17276
1.17283
1.17291
1.17299
1.16729
1.17004
1.1746
1.17918
1.18222
1.18446
1.18654
1.18731
1.18547
1.18135
1.1767
1.17313
1.17125
1.17074
1.17093
1.17131
1.17164
1.17184
1.17195
1.17201
1.17206
1.17209
1.17212
1.17215
1.17219
1.17222
1.17226
1.1723
1.17234
1.17239
1.17244
1.17249
1.17254
1.1726
1.17266
1.17272
1.17279
1.17286
1.17293
1.17302
1.16729
1.17003
1.1746
1.17922
1.18229
1.18452
1.18663
1.1875
1.18577
1.18168
1.17693
1.17322
1.17121
1.17061
1.17078
1.17116
1.1715
1.17171
1.17183
1.1719
1.17194
1.17198
1.17201
1.17204
1.17208
1.17211
1.17215
1.17219
1.17224
1.17228
1.17233
1.17238
1.17243
1.17249
1.17255
1.17262
1.17269
1.17276
1.17284
1.17292
1.16729
1.17003
1.1746
1.17922
1.18229
1.18452
1.18662
1.1875
1.18576
1.18166
1.17692
1.17321
1.1712
1.17061
1.17077
1.17116
1.17149
1.17171
1.17183
1.17189
1.17194
1.17197
1.17201
1.17204
1.17207
1.17211
1.17215
1.17219
1.17223
1.17228
1.17233
1.17238
1.17243
1.17249
1.17255
1.17261
1.17268
1.17275
1.17283
1.17291
1.16729
1.17003
1.1746
1.17922
1.18229
1.18452
1.18663
1.18749
1.18575
1.18165
1.1769
1.17319
1.17119
1.1706
1.17077
1.17116
1.17149
1.1717
1.17182
1.17189
1.17193
1.17197
1.172
1.17204
1.17207
1.17211
1.17215
1.17219
1.17223
1.17227
1.17232
1.17237
1.17243
1.17248
1.17255
1.17261
1.17268
1.17275
1.17283
1.17291
1.16729
1.17003
1.1746
1.17922
1.18229
1.18452
1.18663
1.18749
1.18575
1.18165
1.1769
1.17319
1.17119
1.1706
1.17077
1.17115
1.17149
1.1717
1.17182
1.17189
1.17193
1.17197
1.172
1.17203
1.17207
1.17211
1.17214
1.17218
1.17223
1.17227
1.17232
1.17237
1.17243
1.17248
1.17254
1.17261
1.17268
1.17275
1.17283
1.17291
1.16729
1.17003
1.1746
1.17922
1.18229
1.18452
1.18663
1.18749
1.18575
1.18165
1.1769
1.17319
1.17119
1.1706
1.17077
1.17115
1.17149
1.1717
1.17182
1.17189
1.17193
1.17197
1.172
1.17203
1.17207
1.17211
1.17214
1.17218
1.17223
1.17227
1.17232
1.17237
1.17243
1.17248
1.17254
1.17261
1.17268
1.17275
1.17283
1.17291
1.16729
1.17003
1.1746
1.17922
1.18229
1.18452
1.18663
1.18749
1.18575
1.18165
1.1769
1.17319
1.17119
1.1706
1.17077
1.17116
1.17149
1.1717
1.17182
1.17189
1.17193
1.17197
1.172
1.17204
1.17207
1.17211
1.17215
1.17219
1.17223
1.17227
1.17232
1.17237
1.17243
1.17248
1.17255
1.17261
1.17268
1.17275
1.17283
1.17291
1.16729
1.17003
1.1746
1.17922
1.18229
1.18452
1.18662
1.1875
1.18576
1.18166
1.17692
1.1732
1.1712
1.17061
1.17077
1.17116
1.17149
1.17171
1.17183
1.17189
1.17194
1.17197
1.172
1.17204
1.17207
1.17211
1.17215
1.17219
1.17223
1.17228
1.17233
1.17238
1.17243
1.17249
1.17255
1.17261
1.17268
1.17275
1.17283
1.17291
1.16729
1.17003
1.1746
1.17922
1.18229
1.18452
1.18663
1.1875
1.18577
1.18168
1.17693
1.17322
1.17121
1.17061
1.17078
1.17116
1.1715
1.17171
1.17183
1.1719
1.17194
1.17198
1.17201
1.17204
1.17208
1.17211
1.17215
1.17219
1.17224
1.17228
1.17233
1.17238
1.17243
1.17249
1.17255
1.17262
1.17269
1.17276
1.17284
1.17292
1.16729
1.17004
1.1746
1.17918
1.18222
1.18446
1.18654
1.18731
1.18547
1.18135
1.1767
1.17313
1.17125
1.17074
1.17093
1.17131
1.17164
1.17184
1.17195
1.17201
1.17206
1.17209
1.17212
1.17215
1.17219
1.17222
1.17226
1.1723
1.17234
1.17239
1.17244
1.17249
1.17254
1.1726
1.17265
1.17272
1.17279
1.17286
1.17293
1.17302
1.16723
1.16998
1.17453
1.17912
1.18217
1.18439
1.18645
1.18723
1.18542
1.18134
1.1767
1.17315
1.17127
1.17075
1.17094
1.17132
1.17163
1.17184
1.17195
1.17201
1.17205
1.17208
1.17211
1.17215
1.17218
1.17222
1.17226
1.1723
1.17234
1.17238
1.17243
1.17248
1.17253
1.17259
1.17265
1.17271
1.17278
1.17285
1.17293
1.17301
1.16723
1.16997
1.17454
1.17917
1.18224
1.18445
1.18654
1.18742
1.18572
1.18166
1.17694
1.17324
1.17123
1.17063
1.17079
1.17117
1.1715
1.17171
1.17183
1.17189
1.17194
1.17197
1.172
1.17204
1.17207
1.17211
1.17215
1.17219
1.17223
1.17228
1.17233
1.17238
1.17243
1.17249
1.17255
1.17262
1.17268
1.17276
1.17283
1.17292
1.16723
1.16997
1.17454
1.17917
1.18224
1.18445
1.18654
1.18742
1.18571
1.18165
1.17693
1.17323
1.17122
1.17063
1.17079
1.17117
1.1715
1.17171
1.17183
1.17189
1.17193
1.17197
1.172
1.17204
1.17207
1.17211
1.17215
1.17219
1.17223
1.17228
1.17233
1.17238
1.17243
1.17249
1.17255
1.17261
1.17268
1.17276
1.17283
1.17292
1.16723
1.16997
1.17454
1.17917
1.18224
1.18445
1.18655
1.18742
1.1857
1.18164
1.17692
1.17322
1.17122
1.17062
1.17078
1.17117
1.1715
1.17171
1.17183
1.17189
1.17193
1.17197
1.172
1.17203
1.17207
1.17211
1.17215
1.17219
1.17223
1.17228
1.17232
1.17238
1.17243
1.17249
1.17255
1.17261
1.17268
1.17275
1.17283
1.17291
1.16723
1.16997
1.17454
1.17917
1.18224
1.18445
1.18654
1.18742
1.1857
1.18163
1.17692
1.17322
1.17122
1.17062
1.17078
1.17117
1.1715
1.17171
1.17182
1.17189
1.17193
1.17197
1.172
1.17203
1.17207
1.17211
1.17215
1.17219
1.17223
1.17228
1.17232
1.17237
1.17243
1.17249
1.17255
1.17261
1.17268
1.17275
1.17283
1.17291
1.16723
1.16997
1.17454
1.17917
1.18224
1.18445
1.18654
1.18742
1.1857
1.18163
1.17692
1.17322
1.17122
1.17062
1.17078
1.17117
1.1715
1.17171
1.17182
1.17189
1.17193
1.17197
1.172
1.17203
1.17207
1.17211
1.17215
1.17219
1.17223
1.17228
1.17232
1.17237
1.17243
1.17249
1.17255
1.17261
1.17268
1.17275
1.17283
1.17291
1.16723
1.16997
1.17454
1.17917
1.18224
1.18445
1.18655
1.18742
1.1857
1.18164
1.17692
1.17322
1.17122
1.17062
1.17078
1.17117
1.1715
1.17171
1.17183
1.17189
1.17193
1.17197
1.172
1.17203
1.17207
1.17211
1.17215
1.17219
1.17223
1.17228
1.17232
1.17238
1.17243
1.17249
1.17255
1.17261
1.17268
1.17275
1.17283
1.17291
1.16723
1.16997
1.17454
1.17917
1.18224
1.18445
1.18654
1.18742
1.18571
1.18165
1.17693
1.17323
1.17122
1.17063
1.17079
1.17117
1.1715
1.17171
1.17183
1.17189
1.17193
1.17197
1.172
1.17204
1.17207
1.17211
1.17215
1.17219
1.17223
1.17228
1.17233
1.17238
1.17243
1.17249
1.17255
1.17261
1.17268
1.17276
1.17283
1.17292
1.16723
1.16997
1.17454
1.17917
1.18224
1.18445
1.18654
1.18742
1.18572
1.18166
1.17694
1.17324
1.17123
1.17063
1.17079
1.17117
1.1715
1.17171
1.17183
1.17189
1.17194
1.17197
1.172
1.17204
1.17207
1.17211
1.17215
1.17219
1.17223
1.17228
1.17233
1.17238
1.17243
1.17249
1.17255
1.17262
1.17268
1.17276
1.17283
1.17292
1.16723
1.16998
1.17453
1.17912
1.18217
1.18439
1.18645
1.18723
1.18542
1.18134
1.1767
1.17315
1.17127
1.17075
1.17094
1.17132
1.17163
1.17184
1.17195
1.17201
1.17205
1.17208
1.17211
1.17215
1.17218
1.17222
1.17226
1.1723
1.17234
1.17238
1.17243
1.17248
1.17253
1.17259
1.17265
1.17271
1.17278
1.17285
1.17293
1.17301
1.16718
1.16992
1.17448
1.17908
1.18213
1.18433
1.18638
1.18717
1.18539
1.18133
1.17671
1.17316
1.17128
1.17075
1.17093
1.17131
1.17162
1.17182
1.17193
1.17199
1.17203
1.17206
1.17209
1.17213
1.17216
1.1722
1.17224
1.17228
1.17232
1.17236
1.17241
1.17246
1.17252
1.17257
1.17263
1.1727
1.17276
1.17284
1.17291
1.17299
1.16718
1.16991
1.17449
1.17912
1.18219
1.1844
1.18647
1.18736
1.18569
1.18166
1.17696
1.17326
1.17124
1.17063
1.17078
1.17116
1.17149
1.1717
1.17181
1.17188
1.17192
1.17195
1.17198
1.17202
1.17205
1.17209
1.17213
1.17217
1.17222
1.17226
1.17231
1.17236
1.17242
1.17247
1.17253
1.1726
1.17267
1.17274
1.17282
1.1729
1.16718
1.16991
1.17449
1.17912
1.18219
1.18439
1.18647
1.18736
1.18568
1.18164
1.17694
1.17325
1.17123
1.17063
1.17078
1.17116
1.17149
1.1717
1.17181
1.17188
1.17192
1.17195
1.17198
1.17202
1.17205
1.17209
1.17213
1.17217
1.17222
1.17226
1.17231
1.17236
1.17242
1.17247