/*--------------------------------*- C++ -*----------------------------------*\
  =========                 |
  \\      /  F ield         | OpenFOAM: The Open Source CFD Toolbox
   \\    /   O peration     | Website:  https://openfoam.org
    \\  /    A nd           | Version:  7
     \\/     M anipulation  |
\*---------------------------------------------------------------------------*/
FoamFile
{
    version     2.0;
    format      ascii;
    class       volVectorField;
    location    "0.55";
    object      UMean;
}
// * * * * * * * * * * * * * * * * * * * * * * * * * * * * * * * * * * * * * //

dimensions      [0 1 -1 0 0 0 0];

internalField   nonuniform List<vector> 
1440
(
(11.9776 0.0363946 0)
(11.8841 0.135981 0)
(11.6958 0.227181 0)
(11.4223 0.299682 0)
(11.0862 0.351864 0)
(10.7075 0.383484 0)
(10.3026 0.396405 0)
(9.88313 0.393534 0)
(9.46085 0.37907 0)
(9.04258 0.356148 0)
(8.63762 0.328065 0)
(8.24864 0.298093 0)
(7.87957 0.267289 0)
(7.53331 0.236945 0)
(7.21067 0.207871 0)
(6.91182 0.180439 0)
(6.63648 0.154929 0)
(6.38412 0.13154 0)
(6.15386 0.110355 0)
(5.94465 0.0913584 0)
(5.75517 0.0744637 0)
(5.58411 0.059546 0)
(5.43006 0.0464631 0)
(5.29163 0.0350675 0)
(5.16747 0.0252097 0)
(5.05626 0.0167418 0)
(4.95674 0.00952205 0)
(4.86774 0.00341747 0)
(4.78815 -0.00169593 0)
(4.71695 -0.00593321 0)
(4.65322 -0.00940008 0)
(4.59608 -0.0121932 0)
(4.54479 -0.0144007 0)
(4.49864 -0.0161024 0)
(4.45701 -0.0173699 0)
(4.41935 -0.0182676 0)
(4.38517 -0.0188524 0)
(4.35403 -0.019175 0)
(4.32556 -0.0192799 0)
(4.29942 -0.0192058 0)
(4.27531 -0.0189865 0)
(4.25298 -0.0186509 0)
(4.23221 -0.0182234 0)
(4.21278 -0.0177242 0)
(4.19455 -0.0171696 0)
(4.17736 -0.0165722 0)
(4.16107 -0.0159418 0)
(4.14558 -0.0152882 0)
(4.13079 -0.0146209 0)
(4.11661 -0.0139485 0)
(4.10296 -0.0132777 0)
(4.0898 -0.0126133 0)
(4.07706 -0.011959 0)
(4.0647 -0.0113174 0)
(4.05267 -0.0106907 0)
(4.04096 -0.0100803 0)
(4.02952 -0.00948739 0)
(4.01834 -0.00891267 0)
(4.00739 -0.0083566 0)
(3.99667 -0.00781947 0)
(3.98614 -0.00730149 0)
(3.97581 -0.00680287 0)
(3.96566 -0.00632371 0)
(3.95569 -0.00586405 0)
(3.94588 -0.00542374 0)
(3.93622 -0.00500256 0)
(3.92672 -0.00460019 0)
(3.91736 -0.00421625 0)
(3.90815 -0.0038503 0)
(3.89908 -0.00350192 0)
(3.89014 -0.00317063 0)
(3.88134 -0.00285597 0)
(3.87267 -0.00255738 0)
(3.86413 -0.00227433 0)
(3.85571 -0.00200622 0)
(3.84742 -0.00175253 0)
(3.83925 -0.00151265 0)
(3.8312 -0.00128614 0)
(3.82328 -0.00107244 0)
(3.81547 -0.00087104 0)
(3.80778 -0.000681313 0)
(3.80021 -0.000502725 0)
(3.79275 -0.000334675 0)
(3.7854 -0.000176786 0)
(3.77817 -2.86048e-05 0)
(3.77105 0.000110152 0)
(3.76403 0.000240036 0)
(3.75713 0.000361479 0)
(3.75033 0.000475155 0)
(3.74363 0.000581363 0)
(3.73704 0.000680536 0)
(3.73055 0.000772682 0)
(3.72417 0.000858129 0)
(3.71788 0.000937018 0)
(3.71169 0.00100997 0)
(3.70559 0.00107742 0)
(3.69959 0.00113993 0)
(3.69368 0.00119773 0)
(3.68786 0.00125075 0)
(3.68214 0.00129913 0)
(3.67651 0.00134218 0)
(3.67096 0.00138102 0)
(3.66551 0.00141428 0)
(3.66012 0.00144547 0)
(3.65483 0.00147073 0)
(3.64961 0.00149787 0)
(3.6445 0.00151591 0)
(3.63944 0.00154196 0)
(3.63452 0.00154853 0)
(3.62963 0.00157539 0)
(3.62492 0.00155861 0)
(3.62014 0.00159169 0)
(3.61567 0.00152966 0)
(3.61094 0.00158691 0)
(3.6068 0.00144047 0)
(3.60195 0.00156558 0)
(3.59842 0.00126974 0)
(3.59303 0.00157192 0)
(3.59092 0.00107404 0)
(3.5835 0.00185211 0)
(11.9997 0.0498603 0)
(12.0392 0.138619 0)
(12.1059 0.215294 0)
(12.189 0.28231 0)
(12.2792 0.340456 0)
(12.3674 0.388698 0)
(12.4467 0.426355 0)
(12.5116 0.453697 0)
(12.5594 0.471832 0)
(12.5888 0.481936 0)
(12.6006 0.485128 0)
(12.5959 0.482516 0)
(12.5765 0.475024 0)
(12.5443 0.463417 0)
(12.5012 0.448392 0)
(12.4491 0.430663 0)
(12.3899 0.410961 0)
(12.3251 0.389957 0)
(12.2563 0.368246 0)
(12.1847 0.346315 0)
(12.1111 0.324556 0)
(12.0365 0.303295 0)
(11.9615 0.282757 0)
(11.8866 0.263122 0)
(11.8123 0.244516 0)
(11.7389 0.227016 0)
(11.6666 0.210663 0)
(11.5957 0.195466 0)
(11.5261 0.181408 0)
(11.4582 0.168455 0)
(11.3917 0.156558 0)
(11.3269 0.14566 0)
(11.2637 0.135698 0)
(11.202 0.126607 0)
(11.1419 0.118322 0)
(11.0834 0.110778 0)
(11.0263 0.103912 0)
(10.9707 0.0976654 0)
(10.9166 0.091982 0)
(10.8638 0.0868097 0)
(10.8123 0.0821003 0)
(10.7622 0.0778091 0)
(10.7133 0.0738947 0)
(10.6657 0.0703193 0)
(10.6193 0.0670478 0)
(10.574 0.0640485 0)
(10.5299 0.0612947 0)
(10.4868 0.0587621 0)
(10.4448 0.0564283 0)
(10.4039 0.0542723 0)
(10.3639 0.0522756 0)
(10.3249 0.0504209 0)
(10.2869 0.0486931 0)
(10.2498 0.0470786 0)
(10.2135 0.0455653 0)
(10.1782 0.0441423 0)
(10.1437 0.0427999 0)
(10.11 0.0415296 0)
(10.0771 0.0403241 0)
(10.045 0.0391774 0)
(10.0136 0.0380846 0)
(9.98302 0.0370414 0)
(9.95314 0.036044 0)
(9.92396 0.0350892 0)
(9.89547 0.0341741 0)
(9.86764 0.0332959 0)
(9.84047 0.0324525 0)
(9.81393 0.0316416 0)
(9.788 0.0308614 0)
(9.76268 0.03011 0)
(9.73794 0.0293858 0)
(9.71377 0.0286872 0)
(9.69016 0.0280131 0)
(9.66708 0.0273621 0)
(9.64452 0.0267333 0)
(9.62248 0.0261256 0)
(9.60094 0.0255382 0)
(9.57987 0.0249702 0)
(9.55928 0.0244207 0)
(9.53915 0.0238891 0)
(9.51945 0.0233747 0)
(9.5002 0.022877 0)
(9.48136 0.0223954 0)
(9.46293 0.0219293 0)
(9.4449 0.0214781 0)
(9.42726 0.0210413 0)
(9.40999 0.0206184 0)
(9.39309 0.0202089 0)
(9.37654 0.0198127 0)
(9.36034 0.0194292 0)
(9.34447 0.0190582 0)
(9.32893 0.018699 0)
(9.31371 0.0183511 0)
(9.2988 0.018014 0)
(9.28418 0.0176875 0)
(9.26986 0.0173715 0)
(9.25582 0.0170657 0)
(9.24205 0.01677 0)
(9.22855 0.0164835 0)
(9.21532 0.0162061 0)
(9.20234 0.0159362 0)
(9.18961 0.0156748 0)
(9.17711 0.0154193 0)
(9.16485 0.0151733 0)
(9.15282 0.0149317 0)
(9.141 0.0147019 0)
(9.12942 0.0144727 0)
(9.11802 0.014259 0)
(9.10688 0.0140364 0)
(9.09586 0.0138363 0)
(9.0852 0.0136082 0)
(9.07448 0.013419 0)
(9.06436 0.0131661 0)
(9.05378 0.0129865 0)
(9.04445 0.01268 0)
(9.03361 0.0125059 0)
(9.0257 0.0121067 0)
(9.01369 0.0119139 0)
(9.00889 0.0114347 0)
(8.99332 0.0112123 0)
(11.9984 0.0300866 0)
(12.0196 0.0880472 0)
(12.059 0.141643 0)
(12.1154 0.189956 0)
(12.1873 0.2327 0)
(12.2728 0.269423 0)
(12.3692 0.299601 0)
(12.4735 0.323003 0)
(12.5826 0.339802 0)
(12.6935 0.350419 0)
(12.8036 0.355333 0)
(12.911 0.355156 0)
(13.0139 0.35048 0)
(13.1114 0.342001 0)
(13.2025 0.330575 0)
(13.287 0.317033 0)
(13.3646 0.30209 0)
(13.4355 0.286327 0)
(13.4996 0.270229 0)
(13.5574 0.25419 0)
(13.609 0.238522 0)
(13.6549 0.223458 0)
(13.6955 0.209164 0)
(13.7311 0.195745 0)
(13.7622 0.183264 0)
(13.7892 0.171751 0)
(13.8125 0.161206 0)
(13.8324 0.151609 0)
(13.8493 0.142919 0)
(13.8634 0.135086 0)
(13.8751 0.12805 0)
(13.8846 0.121749 0)
(13.8921 0.116118 0)
(13.8979 0.111093 0)
(13.9021 0.106612 0)
(13.9049 0.102618 0)
(13.9064 0.0990558 0)
(13.9068 0.0958756 0)
(13.9062 0.0930321 0)
(13.9046 0.0904844 0)
(13.9021 0.0881958 0)
(13.8989 0.0861334 0)
(13.895 0.0842677 0)
(13.8904 0.0825724 0)
(13.8853 0.0810233 0)
(13.8796 0.0795976 0)
(13.8734 0.0782731 0)
(13.8668 0.0770304 0)
(13.8597 0.0758543 0)
(13.8522 0.0747331 0)
(13.8444 0.0736573 0)
(13.8362 0.0726193 0)
(13.8277 0.0716126 0)
(13.8188 0.070632 0)
(13.8097 0.069673 0)
(13.8003 0.0687323 0)
(13.7907 0.0678068 0)
(13.7809 0.0668935 0)
(13.7708 0.0659899 0)
(13.7605 0.0650946 0)
(13.75 0.0642065 0)
(13.7394 0.0633249 0)
(13.7286 0.0624497 0)
(13.7176 0.0615807 0)
(13.7065 0.0607181 0)
(13.6953 0.059862 0)
(13.684 0.059013 0)
(13.6725 0.0581712 0)
(13.661 0.057337 0)
(13.6493 0.0565107 0)
(13.6376 0.0556924 0)
(13.6258 0.0548824 0)
(13.614 0.0540808 0)
(13.602 0.053288 0)
(13.5901 0.0525042 0)
(13.5781 0.0517295 0)
(13.566 0.0509645 0)
(13.554 0.050209 0)
(13.5419 0.0494635 0)
(13.5298 0.048728 0)
(13.5176 0.0480029 0)
(13.5055 0.0472882 0)
(13.4934 0.0465842 0)
(13.4813 0.0458909 0)
(13.4692 0.0452085 0)
(13.4571 0.0445368 0)
(13.445 0.0438763 0)
(13.433 0.0432265 0)
(13.421 0.0425879 0)
(13.409 0.0419602 0)
(13.3971 0.0413437 0)
(13.3852 0.0407378 0)
(13.3734 0.0401429 0)
(13.3616 0.0395581 0)
(13.3498 0.0389844 0)
(13.3382 0.0384205 0)
(13.3265 0.0378678 0)
(13.315 0.0373244 0)
(13.3035 0.0367919 0)
(13.292 0.0362676 0)
(13.2806 0.0357541 0)
(13.2694 0.0352472 0)
(13.2581 0.0347521 0)
(13.247 0.0342613 0)
(13.2359 0.0337848 0)
(13.2249 0.0333084 0)
(13.214 0.0328511 0)
(13.2032 0.032384 0)
(13.1925 0.0319461 0)
(13.1818 0.0314769 0)
(13.1713 0.0310605 0)
(13.1607 0.0305677 0)
(13.1505 0.0301827 0)
(13.1398 0.029625 0)
(13.1303 0.0292987 0)
(13.1191 0.0285908 0)
(13.1109 0.0283836 0)
(13.0982 0.0273376 0)
(13.0931 0.0273511 0)
(13.0765 0.0255235 0)
(11.9983 0.0208858 0)
(12.0174 0.0618197 0)
(12.0527 0.100394 0)
(12.1031 0.135303 0)
(12.1671 0.165847 0)
(12.2429 0.1917 0)
(12.3284 0.21267 0)
(12.4214 0.228699 0)
(12.5197 0.239962 0)
(12.6215 0.246864 0)
(12.7251 0.249954 0)
(12.829 0.249836 0)
(12.9321 0.247121 0)
(13.0334 0.242398 0)
(13.1322 0.236229 0)
(13.2278 0.229076 0)
(13.3197 0.221292 0)
(13.4076 0.213128 0)
(13.4911 0.204759 0)
(13.5703 0.196317 0)
(13.645 0.187922 0)
(13.7153 0.179676 0)
(13.7814 0.171662 0)
(13.8433 0.163939 0)
(13.9015 0.156551 0)
(13.956 0.149527 0)
(14.0072 0.142891 0)
(14.0552 0.136652 0)
(14.1004 0.130814 0)
(14.143 0.125372 0)
(14.1832 0.120318 0)
(14.2213 0.115639 0)
(14.2574 0.111317 0)
(14.2917 0.107334 0)
(14.3244 0.103668 0)
(14.3556 0.100297 0)
(14.3856 0.0971973 0)
(14.4143 0.094347 0)
(14.442 0.0917245 0)
(14.4686 0.0893084 0)
(14.4944 0.0870799 0)
(14.5193 0.0850202 0)
(14.5435 0.0831135 0)
(14.5669 0.0813438 0)
(14.5897 0.0796975 0)
(14.6119 0.0781606 0)
(14.6334 0.0767193 0)
(14.6545 0.0753605 0)
(14.675 0.074075 0)
(14.695 0.0728545 0)
(14.7145 0.0716933 0)
(14.7336 0.0705856 0)
(14.7523 0.0695272 0)
(14.7705 0.0685136 0)
(14.7884 0.0675419 0)
(14.8058 0.0666085 0)
(14.8229 0.0657118 0)
(14.8396 0.06485 0)
(14.8559 0.0640219 0)
(14.8718 0.0632249 0)
(14.8874 0.0624573 0)
(14.9027 0.0617163 0)
(14.9176 0.0610003 0)
(14.9322 0.0603068 0)
(14.9464 0.0596345 0)
(14.9604 0.0589814 0)
(14.974 0.0583467 0)
(14.9873 0.0577288 0)
(15.0003 0.0571273 0)
(15.013 0.0565405 0)
(15.0254 0.0559682 0)
(15.0375 0.0554087 0)
(15.0493 0.0548621 0)
(15.0609 0.0543268 0)
(15.0721 0.0538029 0)
(15.0831 0.053289 0)
(15.0938 0.0527855 0)
(15.1043 0.0522909 0)
(15.1145 0.0518057 0)
(15.1244 0.0513286 0)
(15.1341 0.0508601 0)
(15.1435 0.0503989 0)
(15.1527 0.0499458 0)
(15.1616 0.0494994 0)
(15.1704 0.0490604 0)
(15.1788 0.0486276 0)
(15.1871 0.0482018 0)
(15.1951 0.0477817 0)
(15.2029 0.0473682 0)
(15.2105 0.04696 0)
(15.2179 0.0465581 0)
(15.2251 0.0461609 0)
(15.2321 0.0457696 0)
(15.2388 0.0453825 0)
(15.2454 0.0450012 0)
(15.2518 0.0446234 0)
(15.258 0.0442515 0)
(15.264 0.0438824 0)
(15.2698 0.0435192 0)
(15.2755 0.0431574 0)
(15.281 0.0428021 0)
(15.2863 0.0424459 0)
(15.2914 0.0420981 0)
(15.2964 0.0417457 0)
(15.3012 0.0414065 0)
(15.3059 0.0410546 0)
(15.3104 0.0407263 0)
(15.3148 0.0403679 0)
(15.319 0.0400545 0)
(15.3231 0.0396744 0)
(15.3269 0.0393856 0)
(15.3308 0.0389548 0)
(15.3343 0.0387135 0)
(15.3381 0.0381784 0)
(15.3412 0.0380328 0)
(15.3449 0.0372914 0)
(15.3473 0.0373259 0)
(15.3513 0.0361784 0)
(15.3525 0.0364807 0)
(15.3574 0.0344837 0)
(11.9983 0.01232 0)
(12.0162 0.0365243 0)
(12.0491 0.0593827 0)
(12.0961 0.0800634 0)
(12.1563 0.0980927 0)
(12.2282 0.113307 0)
(12.3095 0.125668 0)
(12.3983 0.135193 0)
(12.4924 0.142001 0)
(12.5902 0.14634 0)
(12.69 0.148547 0)
(12.7904 0.148978 0)
(12.8903 0.14796 0)
(12.9888 0.145762 0)
(13.0849 0.142603 0)
(13.1782 0.138666 0)
(13.2681 0.134113 0)
(13.3541 0.129084 0)
(13.4362 0.123691 0)
(13.5143 0.11804 0)
(13.5882 0.112239 0)
(13.6581 0.106395 0)
(13.7241 0.100615 0)
(13.7865 0.0949937 0)
(13.8452 0.0896054 0)
(13.9007 0.0845039 0)
(13.9531 0.0797224 0)
(14.0027 0.0752761 0)
(14.0496 0.071167 0)
(14.0942 0.0673887 0)
(14.1366 0.0639292 0)
(14.177 0.060773 0)
(14.2156 0.0579018 0)
(14.2526 0.0552965 0)
(14.2881 0.0529369 0)
(14.3224 0.0508029 0)
(14.3554 0.0488748 0)
(14.3874 0.0471335 0)
(14.4185 0.0455609 0)
(14.4486 0.0441404 0)
(14.478 0.0428564 0)
(14.5067 0.0416948 0)
(14.5348 0.0406427 0)
(14.5622 0.0396885 0)
(14.5891 0.0388214 0)
(14.6156 0.0380326 0)
(14.6415 0.0373155 0)
(14.6671 0.0366646 0)
(14.6922 0.0360736 0)
(14.717 0.0355363 0)
(14.7415 0.0350466 0)
(14.7656 0.0345988 0)
(14.7894 0.0341874 0)
(14.8129 0.0338079 0)
(14.8361 0.0334559 0)
(14.8591 0.0331279 0)
(14.8818 0.0328216 0)
(14.9042 0.0325352 0)
(14.9264 0.0322671 0)
(14.9484 0.0320155 0)
(14.9701 0.031778 0)
(14.9916 0.0315527 0)
(15.0129 0.0313376 0)
(15.0339 0.0311312 0)
(15.0548 0.030932 0)
(15.0754 0.0307387 0)
(15.0958 0.0305499 0)
(15.116 0.0303645 0)
(15.1361 0.0301818 0)
(15.1559 0.030001 0)
(15.1755 0.0298218 0)
(15.1949 0.0296438 0)
(15.2141 0.0294668 0)
(15.2332 0.0292907 0)
(15.2521 0.0291152 0)
(15.2707 0.0289404 0)
(15.2892 0.0287663 0)
(15.3076 0.0285928 0)
(15.3257 0.02842 0)
(15.3437 0.0282479 0)
(15.3615 0.0280766 0)
(15.3791 0.027906 0)
(15.3966 0.0277364 0)
(15.4139 0.0275677 0)
(15.431 0.0274 0)
(15.448 0.0272334 0)
(15.4648 0.0270678 0)
(15.4815 0.0269035 0)
(15.498 0.0267404 0)
(15.5144 0.0265786 0)
(15.5306 0.0264182 0)
(15.5466 0.0262591 0)
(15.5625 0.0261013 0)
(15.5783 0.0259448 0)
(15.5939 0.0257898 0)
(15.6094 0.025636 0)
(15.6247 0.0254838 0)
(15.64 0.0253325 0)
(15.655 0.0251832 0)
(15.67 0.0250339 0)
(15.6848 0.0248871 0)
(15.6994 0.024739 0)
(15.714 0.0245949 0)
(15.7284 0.0244468 0)
(15.7427 0.024306 0)
(15.7569 0.024156 0)
(15.7708 0.02402 0)
(15.7848 0.023863 0)
(15.7985 0.023734 0)
(15.8124 0.0235602 0)
(15.8257 0.0234436 0)
(15.8395 0.0232346 0)
(15.8522 0.0231437 0)
(15.8663 0.0228671 0)
(15.8781 0.0228291 0)
(15.8929 0.0224243 0)
(15.9028 0.0224818 0)
(15.9197 0.0218256 0)
(15.9255 0.0220086 0)
(15.9476 0.0208376 0)
(11.9982 0.00411565 0)
(12.0155 0.0121871 0)
(12.0472 0.0198076 0)
(12.0926 0.0267075 0)
(12.151 0.0327287 0)
(12.2209 0.0378238 0)
(12.3003 0.0419948 0)
(12.3872 0.0452609 0)
(12.4796 0.047669 0)
(12.5758 0.0493039 0)
(12.6742 0.0502687 0)
(12.7734 0.0506674 0)
(12.8722 0.0505823 0)
(12.9697 0.050083 0)
(13.065 0.0492262 0)
(13.1575 0.0480757 0)
(13.2467 0.0466897 0)
(13.3322 0.0451279 0)
(13.4139 0.0434543 0)
(13.4915 0.0417324 0)
(13.5652 0.0400087 0)
(13.6349 0.0383198 0)
(13.7008 0.0366983 0)
(13.7631 0.0351775 0)
(13.8219 0.0337825 0)
(13.8775 0.0325227 0)
(13.9299 0.0313938 0)
(13.9795 0.0303879 0)
(14.0265 0.029494 0)
(14.071 0.0287006 0)
(14.1134 0.0279945 0)
(14.1537 0.0273633 0)
(14.1923 0.0267946 0)
(14.2292 0.0262784 0)
(14.2646 0.0258058 0)
(14.2987 0.0253696 0)
(14.3317 0.024964 0)
(14.3635 0.0245843 0)
(14.3945 0.0242264 0)
(14.4245 0.0238877 0)
(14.4538 0.023566 0)
(14.4824 0.0232602 0)
(14.5103 0.0229694 0)
(14.5377 0.0226933 0)
(14.5645 0.0224314 0)
(14.5909 0.0221839 0)
(14.6168 0.021951 0)
(14.6423 0.0217329 0)
(14.6674 0.0215285 0)
(14.6922 0.0213365 0)
(14.7166 0.0211551 0)
(14.7407 0.0209829 0)
(14.7646 0.0208187 0)
(14.7881 0.0206613 0)
(14.8114 0.0205095 0)
(14.8344 0.0203624 0)
(14.8572 0.0202191 0)
(14.8798 0.0200784 0)
(14.9021 0.0199394 0)
(14.9242 0.0198014 0)
(14.946 0.0196638 0)
(14.9677 0.0195263 0)
(14.9892 0.0193886 0)
(15.0104 0.0192507 0)
(15.0315 0.0191124 0)
(15.0524 0.0189738 0)
(15.073 0.0188346 0)
(15.0935 0.0186948 0)
(15.1139 0.0185542 0)
(15.134 0.0184131 0)
(15.154 0.0182715 0)
(15.1738 0.0181297 0)
(15.1934 0.0179878 0)
(15.2129 0.017846 0)
(15.2322 0.0177044 0)
(15.2513 0.0175635 0)
(15.2703 0.0174231 0)
(15.2891 0.0172837 0)
(15.3078 0.0171453 0)
(15.3263 0.0170081 0)
(15.3447 0.0168723 0)
(15.363 0.0167379 0)
(15.3811 0.016605 0)
(15.399 0.0164738 0)
(15.4168 0.0163443 0)
(15.4345 0.0162167 0)
(15.4521 0.0160908 0)
(15.4695 0.0159668 0)
(15.4868 0.0158447 0)
(15.5039 0.0157245 0)
(15.521 0.0156062 0)
(15.5379 0.0154898 0)
(15.5547 0.0153751 0)
(15.5714 0.0152622 0)
(15.5879 0.015151 0)
(15.6044 0.0150413 0)
(15.6207 0.0149333 0)
(15.6369 0.0148267 0)
(15.6531 0.0147216 0)
(15.6691 0.0146173 0)
(15.685 0.0145145 0)
(15.7008 0.0144118 0)
(15.7165 0.0143109 0)
(15.7321 0.014209 0)
(15.7475 0.0141096 0)
(15.763 0.0140072 0)
(15.7782 0.0139091 0)
(15.7935 0.0138037 0)
(15.8085 0.0137066 0)
(15.8237 0.0135936 0)
(15.8384 0.0134981 0)
(15.8536 0.0133701 0)
(15.8677 0.0132805 0)
(15.8833 0.0131253 0)
(15.8964 0.0130526 0)
(15.913 0.0128466 0)
(15.924 0.0128125 0)
(15.9431 0.0125011 0)
(15.9494 0.0125301 0)
(15.9743 0.0119587 0)
(11.9982 -0.00395791 0)
(12.0155 -0.0117197 0)
(12.0472 -0.0190458 0)
(12.0926 -0.025673 0)
(12.151 -0.0314428 0)
(12.2208 -0.0362991 0)
(12.3003 -0.0402301 0)
(12.3872 -0.0432392 0)
(12.4796 -0.045358 0)
(12.5758 -0.0466589 0)
(12.6742 -0.0472381 0)
(12.7734 -0.0472002 0)
(12.8723 -0.046637 0)
(12.9698 -0.0456307 0)
(13.0651 -0.0442463 0)
(13.1576 -0.04255 0)
(13.2468 -0.0405984 0)
(13.3324 -0.0384483 0)
(13.414 -0.0361455 0)
(13.4917 -0.0337425 0)
(13.5654 -0.0312988 0)
(13.6351 -0.028878 0)
(13.701 -0.0265375 0)
(13.7632 -0.0243305 0)
(13.822 -0.0222974 0)
(13.8774 -0.0204725 0)
(13.9298 -0.0188725 0)
(13.9793 -0.0174983 0)
(14.0262 -0.0163368 0)
(14.0706 -0.0153693 0)
(14.1129 -0.0145739 0)
(14.1532 -0.0139292 0)
(14.1917 -0.0134141 0)
(14.2286 -0.0130092 0)
(14.264 -0.0126966 0)
(14.2981 -0.0124605 0)
(14.331 -0.0122869 0)
(14.3628 -0.0121639 0)
(14.3937 -0.0120811 0)
(14.4238 -0.0120296 0)
(14.453 -0.0120012 0)
(14.4816 -0.0119886 0)
(14.5096 -0.0119858 0)
(14.5369 -0.0119878 0)
(14.5638 -0.0119904 0)
(14.5902 -0.0119904 0)
(14.6161 -0.0119854 0)
(14.6416 -0.0119736 0)
(14.6667 -0.0119541 0)
(14.6915 -0.0119264 0)
(14.7159 -0.0118903 0)
(14.7401 -0.0118459 0)
(14.7639 -0.0117931 0)
(14.7875 -0.0117321 0)
(14.8107 -0.0116631 0)
(14.8338 -0.0115867 0)
(14.8566 -0.0115036 0)
(14.8791 -0.0114149 0)
(14.9014 -0.0113211 0)
(14.9235 -0.0112229 0)
(14.9454 -0.0111205 0)
(14.967 -0.0110143 0)
(14.9885 -0.0109048 0)
(15.0097 -0.0107924 0)
(15.0308 -0.0106775 0)
(15.0516 -0.0105604 0)
(15.0723 -0.0104414 0)
(15.0928 -0.0103208 0)
(15.1131 -0.0101987 0)
(15.1333 -0.0100757 0)
(15.1532 -0.0099521 0)
(15.173 -0.00982843 0)
(15.1926 -0.00970495 0)
(15.2121 -0.00958199 0)
(15.2314 -0.00945977 0)
(15.2505 -0.00933853 0)
(15.2695 -0.00921843 0)
(15.2883 -0.00909968 0)
(15.307 -0.00898238 0)
(15.3255 -0.00886668 0)
(15.3439 -0.00875267 0)
(15.3621 -0.00864044 0)
(15.3802 -0.00853004 0)
(15.3981 -0.00842155 0)
(15.4159 -0.00831499 0)
(15.4336 -0.00821042 0)
(15.4511 -0.00810786 0)
(15.4685 -0.00800734 0)
(15.4858 -0.00790885 0)
(15.503 -0.00781243 0)
(15.52 -0.00771807 0)
(15.5369 -0.0076258 0)
(15.5537 -0.00753565 0)
(15.5704 -0.0074476 0)
(15.5869 -0.00736171 0)
(15.6034 -0.00727793 0)
(15.6197 -0.00719638 0)
(15.6359 -0.00711694 0)
(15.652 -0.0070399 0)
(15.668 -0.00696496 0)
(15.6839 -0.0068927 0)
(15.6997 -0.00682245 0)
(15.7154 -0.00675537 0)
(15.731 -0.00668989 0)
(15.7464 -0.00662851 0)
(15.7618 -0.00656778 0)
(15.7771 -0.00651312 0)
(15.7924 -0.00645702 0)
(15.8074 -0.00641094 0)
(15.8226 -0.00635864 0)
(15.8372 -0.00632399 0)
(15.8524 -0.00627233 0)
(15.8665 -0.00625301 0)
(15.8821 -0.00619354 0)
(15.8952 -0.00619518 0)
(15.9118 -0.00610879 0)
(15.9228 -0.00613834 0)
(15.9419 -0.00598091 0)
(15.9482 -0.00603698 0)
(15.9731 -0.00570061 0)
(11.9983 -0.0121574 0)
(12.0162 -0.0360409 0)
(12.049 -0.0585953 0)
(12.096 -0.0789978 0)
(12.1562 -0.0967753 0)
(12.228 -0.111756 0)
(12.3094 -0.123889 0)
(12.3982 -0.133177 0)
(12.4924 -0.139726 0)
(12.5902 -0.143769 0)
(12.6901 -0.145626 0)
(12.7906 -0.145635 0)
(12.8906 -0.144105 0)
(12.9891 -0.141306 0)
(13.0852 -0.137474 0)
(13.1785 -0.13282 0)
(13.2684 -0.127536 0)
(13.3545 -0.121792 0)
(13.4366 -0.115743 0)
(13.5147 -0.109522 0)
(13.5886 -0.103244 0)
(13.6585 -0.097008 0)
(13.7245 -0.0909033 0)
(13.7867 -0.0850116 0)
(13.8454 -0.0794047 0)
(13.9008 -0.0741322 0)
(13.953 -0.0692234 0)
(14.0024 -0.0646914 0)
(14.0492 -0.0605381 0)
(14.0936 -0.0567567 0)
(14.1358 -0.0533342 0)
(14.1761 -0.0502524 0)
(14.2146 -0.0474897 0)
(14.2514 -0.0450223 0)
(14.2869 -0.0428254 0)
(14.321 -0.0408742 0)
(14.354 -0.0391449 0)
(14.3859 -0.0376146 0)
(14.4168 -0.0362614 0)
(14.447 -0.0350639 0)
(14.4763 -0.0340014 0)
(14.5049 -0.0330554 0)
(14.533 -0.0322093 0)
(14.5604 -0.031449 0)
(14.5873 -0.0307619 0)
(14.6137 -0.0301366 0)
(14.6397 -0.0295637 0)
(14.6652 -0.0290352 0)
(14.6904 -0.0285448 0)
(14.7151 -0.0280875 0)
(14.7396 -0.0276591 0)
(14.7637 -0.0272559 0)
(14.7875 -0.0268747 0)
(14.811 -0.0265126 0)
(14.8343 -0.0261668 0)
(14.8572 -0.0258354 0)
(14.8799 -0.025517 0)
(14.9024 -0.0252106 0)
(14.9246 -0.0249156 0)
(14.9466 -0.0246312 0)
(14.9683 -0.0243565 0)
(14.9898 -0.0240908 0)
(15.0111 -0.0238332 0)
(15.0321 -0.0235832 0)
(15.053 -0.0233399 0)
(15.0736 -0.0231027 0)
(15.094 -0.0228708 0)
(15.1143 -0.022644 0)
(15.1343 -0.0224222 0)
(15.1541 -0.0222055 0)
(15.1738 -0.0219938 0)
(15.1932 -0.0217873 0)
(15.2125 -0.0215858 0)
(15.2315 -0.0213892 0)
(15.2504 -0.0211973 0)
(15.2691 -0.02101 0)
(15.2877 -0.0208271 0)
(15.306 -0.0206483 0)
(15.3242 -0.0204735 0)
(15.3422 -0.0203026 0)
(15.3601 -0.0201354 0)
(15.3777 -0.0199717 0)
(15.3952 -0.0198115 0)
(15.4126 -0.0196546 0)
(15.4298 -0.0195008 0)
(15.4468 -0.0193503 0)
(15.4637 -0.0192028 0)
(15.4804 -0.0190583 0)
(15.497 -0.0189167 0)
(15.5134 -0.018778 0)
(15.5296 -0.0186422 0)
(15.5458 -0.0185091 0)
(15.5617 -0.0183789 0)
(15.5776 -0.0182514 0)
(15.5932 -0.0181267 0)
(15.6088 -0.0180047 0)
(15.6242 -0.0178856 0)
(15.6395 -0.0177689 0)
(15.6546 -0.0176556 0)
(15.6696 -0.0175443 0)
(15.6845 -0.017437 0)
(15.6992 -0.0173309 0)
(15.7138 -0.0172304 0)
(15.7283 -0.017129 0)
(15.7427 -0.0170363 0)
(15.7569 -0.0169386 0)
(15.771 -0.0168559 0)
(15.7851 -0.016759 0)
(15.7988 -0.0166907 0)
(15.8127 -0.0165885 0)
(15.8261 -0.0165422 0)
(15.84 -0.0164208 0)
(15.8528 -0.0164102 0)
(15.8669 -0.0162405 0)
(15.8788 -0.0162889 0)
(15.8937 -0.0160132 0)
(15.9036 -0.016154 0)
(15.9207 -0.0156536 0)
(15.9265 -0.0158941 0)
(15.9487 -0.014895 0)
(11.9983 -0.020718 0)
(12.0174 -0.0613229 0)
(12.0527 -0.0995859 0)
(12.1029 -0.134213 0)
(12.1669 -0.1645 0)
(12.2427 -0.190114 0)
(12.3282 -0.210849 0)
(12.4212 -0.226644 0)
(12.5196 -0.237676 0)
(12.6215 -0.244351 0)
(12.7252 -0.247208 0)
(12.8293 -0.246826 0)
(12.9326 -0.243758 0)
(13.0341 -0.238515 0)
(13.133 -0.231588 0)
(13.2287 -0.223426 0)
(13.3205 -0.21443 0)
(13.4083 -0.20493 0)
(13.4917 -0.195201 0)
(13.5706 -0.18545 0)
(13.6451 -0.175838 0)
(13.7152 -0.166483 0)
(13.781 -0.157482 0)
(13.8428 -0.148904 0)
(13.9007 -0.140801 0)
(13.955 -0.133199 0)
(14.0059 -0.126112 0)
(14.0538 -0.119546 0)
(14.0988 -0.113496 0)
(14.1412 -0.10795 0)
(14.1813 -0.102892 0)
(14.2192 -0.0982969 0)
(14.2552 -0.0941364 0)
(14.2895 -0.0903787 0)
(14.3221 -0.0869915 0)
(14.3534 -0.0839414 0)
(14.3834 -0.0811983 0)
(14.4121 -0.0787344 0)
(14.4399 -0.076523 0)
(14.4666 -0.0745339 0)
(14.4925 -0.0727384 0)
(14.5175 -0.0711095 0)
(14.5418 -0.0696253 0)
(14.5654 -0.0682657 0)
(14.5884 -0.067014 0)
(14.6107 -0.0658539 0)
(14.6324 -0.0647705 0)
(14.6536 -0.0637504 0)
(14.6743 -0.0627839 0)
(14.6945 -0.0618627 0)
(14.7142 -0.0609812 0)
(14.7335 -0.0601337 0)
(14.7523 -0.059317 0)
(14.7707 -0.0585274 0)
(14.7887 -0.057763 0)
(14.8063 -0.0570213 0)
(14.8235 -0.0563013 0)
(14.8403 -0.0556015 0)
(14.8567 -0.0549216 0)
(14.8728 -0.0542601 0)
(14.8885 -0.0536167 0)
(14.9039 -0.0529898 0)
(14.9189 -0.0523793 0)
(14.9336 -0.0517836 0)
(14.948 -0.0512022 0)
(14.962 -0.0506328 0)
(14.9757 -0.0500748 0)
(14.9891 -0.0495269 0)
(15.0022 -0.0489894 0)
(15.015 -0.0484616 0)
(15.0275 -0.0479438 0)
(15.0397 -0.0474352 0)
(15.0516 -0.0469363 0)
(15.0632 -0.0464461 0)
(15.0745 -0.045965 0)
(15.0855 -0.0454921 0)
(15.0963 -0.0450278 0)
(15.1068 -0.044571 0)
(15.117 -0.0441224 0)
(15.127 -0.0436806 0)
(15.1367 -0.0432465 0)
(15.1462 -0.0428188 0)
(15.1554 -0.0423983 0)
(15.1644 -0.0419837 0)
(15.1731 -0.0415759 0)
(15.1816 -0.0411737 0)
(15.1899 -0.0407779 0)
(15.1979 -0.0403872 0)
(15.2057 -0.0400028 0)
(15.2133 -0.0396232 0)
(15.2207 -0.0392496 0)
(15.2278 -0.0388805 0)
(15.2348 -0.0385173 0)
(15.2415 -0.0381583 0)
(15.248 -0.0378052 0)
(15.2544 -0.037456 0)
(15.2605 -0.0371127 0)
(15.2665 -0.0367729 0)
(15.2722 -0.0364394 0)
(15.2778 -0.0361086 0)
(15.2832 -0.0357851 0)
(15.2884 -0.0354628 0)
(15.2934 -0.0351498 0)
(15.2983 -0.034835 0)
(15.303 -0.0345339 0)
(15.3075 -0.0342245 0)
(15.3119 -0.0339382 0)
(15.3161 -0.0336294 0)
(15.3201 -0.0333639 0)
(15.3241 -0.0330453 0)
(15.3277 -0.0328125 0)
(15.3314 -0.0324615 0)
(15.3347 -0.0322839 0)
(15.3382 -0.0318532 0)
(15.3411 -0.031773 0)
(15.3445 -0.0311685 0)
(15.3467 -0.0312554 0)
(15.3503 -0.0302942 0)
(15.3515 -0.0306167 0)
(15.3558 -0.0289039 0)
(11.9984 -0.0299182 0)
(12.0195 -0.0875865 0)
(12.0589 -0.14096 0)
(12.1152 -0.189113 0)
(12.1871 -0.23172 0)
(12.2724 -0.268288 0)
(12.3688 -0.298275 0)
(12.4731 -0.321457 0)
(12.5822 -0.338048 0)
(12.693 -0.348508 0)
(12.8029 -0.353394 0)
(12.9102 -0.353358 0)
(13.013 -0.349026 0)
(13.1104 -0.341035 0)
(13.2015 -0.330079 0)
(13.2859 -0.316859 0)
(13.3632 -0.302034 0)
(13.4335 -0.286188 0)
(13.4971 -0.269821 0)
(13.5541 -0.253355 0)
(13.605 -0.237139 0)
(13.6501 -0.221453 0)
(13.6899 -0.206509 0)
(13.7248 -0.192452 0)
(13.7552 -0.179372 0)
(13.7816 -0.167315 0)
(13.8043 -0.156291 0)
(13.8237 -0.146283 0)
(13.8402 -0.137257 0)
(13.854 -0.129157 0)
(13.8654 -0.121922 0)
(13.8747 -0.115479 0)
(13.882 -0.109757 0)
(13.8877 -0.104681 0)
(13.8918 -0.100177 0)
(13.8945 -0.0961765 0)
(13.896 -0.0926143 0)
(13.8963 -0.0894435 0)
(13.8955 -0.0866201 0)
(13.8939 -0.084098 0)
(13.8913 -0.0818325 0)
(13.888 -0.0797841 0)
(13.884 -0.077919 0)
(13.8793 -0.0762082 0)
(13.874 -0.0746273 0)
(13.8681 -0.0731553 0)
(13.8616 -0.0717751 0)
(13.8547 -0.0704717 0)
(13.8473 -0.0692323 0)
(13.8395 -0.0680458 0)
(13.8313 -0.0669031 0)
(13.8226 -0.0657968 0)
(13.8137 -0.064721 0)
(13.8044 -0.0636711 0)
(13.7947 -0.0626436 0)
(13.7848 -0.0616358 0)
(13.7747 -0.0606454 0)
(13.7642 -0.0596706 0)
(13.7535 -0.05871 0)
(13.7426 -0.0577625 0)
(13.7315 -0.0568276 0)
(13.7203 -0.0559049 0)
(13.7088 -0.0549944 0)
(13.6971 -0.0540962 0)
(13.6854 -0.0532106 0)
(13.6734 -0.0523366 0)
(13.6614 -0.0514732 0)
(13.6492 -0.0506201 0)
(13.6369 -0.0497775 0)
(13.6245 -0.0489456 0)
(13.612 -0.0481244 0)
(13.5995 -0.047314 0)
(13.5868 -0.0465143 0)
(13.5741 -0.0457254 0)
(13.5614 -0.0449474 0)
(13.5486 -0.0441803 0)
(13.5357 -0.0434245 0)
(13.5228 -0.0426798 0)
(13.5099 -0.0419467 0)
(13.497 -0.0412249 0)
(13.4841 -0.0405149 0)
(13.4711 -0.0398164 0)
(13.4582 -0.0391298 0)
(13.4452 -0.0384549 0)
(13.4323 -0.037792 0)
(13.4194 -0.0371408 0)
(13.4064 -0.0365016 0)
(13.3936 -0.0358742 0)
(13.3807 -0.0352588 0)
(13.3679 -0.0346549 0)
(13.3551 -0.0340631 0)
(13.3423 -0.0334827 0)
(13.3296 -0.0329142 0)
(13.317 -0.0323569 0)
(13.3043 -0.0318115 0)
(13.2918 -0.0312769 0)
(13.2793 -0.0307542 0)
(13.2668 -0.0302419 0)
(13.2544 -0.0297416 0)
(13.2421 -0.029251 0)
(13.2298 -0.0287729 0)
(13.2176 -0.0283033 0)
(13.2055 -0.0278472 0)
(13.1935 -0.0273976 0)
(13.1815 -0.0269638 0)
(13.1696 -0.0265324 0)
(13.1577 -0.0261217 0)
(13.146 -0.0257053 0)
(13.1343 -0.0253202 0)
(13.1227 -0.0249115 0)
(13.1112 -0.0245573 0)
(13.0996 -0.0241406 0)
(13.0886 -0.0238285 0)
(13.0768 -0.023369 0)
(13.0664 -0.0231221 0)
(13.054 -0.0225443 0)
(13.045 -0.0224093 0)
(13.0309 -0.0215496 0)
(13.0253 -0.0216025 0)
(13.0066 -0.0200943 0)
(11.9997 -0.0494186 0)
(12.0389 -0.137383 0)
(12.105 -0.213462 0)
(12.1875 -0.280105 0)
(12.2767 -0.338007 0)
(12.3635 -0.38604 0)
(12.441 -0.423377 0)
(12.5036 -0.450211 0)
(12.5485 -0.467557 0)
(12.5745 -0.476545 0)
(12.5825 -0.4783 0)
(12.5736 -0.473966 0)
(12.5499 -0.464522 0)
(12.5134 -0.450896 0)
(12.4662 -0.434002 0)
(12.4102 -0.41468 0)
(12.3472 -0.393674 0)
(12.2788 -0.371615 0)
(12.2066 -0.349045 0)
(12.1317 -0.326427 0)
(12.0552 -0.304134 0)
(11.9779 -0.282489 0)
(11.9005 -0.261721 0)
(11.8234 -0.241995 0)
(11.7472 -0.223428 0)
(11.6721 -0.206085 0)
(11.5984 -0.189992 0)
(11.5262 -0.175145 0)
(11.4555 -0.161515 0)
(11.3866 -0.149054 0)
(11.3193 -0.137702 0)
(11.2537 -0.12739 0)
(11.1898 -0.118045 0)
(11.1274 -0.10959 0)
(11.0667 -0.101951 0)
(11.0075 -0.0950515 0)
(10.9498 -0.08882 0)
(10.8935 -0.0831798 0)
(10.8386 -0.0780614 0)
(10.785 -0.0734077 0)
(10.7327 -0.0691722 0)
(10.6817 -0.065313 0)
(10.6319 -0.0617913 0)
(10.5833 -0.0585715 0)
(10.5358 -0.0556205 0)
(10.4894 -0.0529114 0)
(10.4441 -0.0504213 0)
(10.3999 -0.0481287 0)
(10.3567 -0.0460139 0)
(10.3144 -0.0440583 0)
(10.2732 -0.0422453 0)
(10.2329 -0.0405598 0)
(10.1936 -0.0389886 0)
(10.1552 -0.0375201 0)
(10.1176 -0.0361442 0)
(10.081 -0.0348518 0)
(10.0451 -0.0336348 0)
(10.0102 -0.0324862 0)
(9.97602 -0.0313997 0)
(9.94266 -0.0303698 0)
(9.91008 -0.0293917 0)
(9.87825 -0.0284611 0)
(9.84717 -0.0275741 0)
(9.81681 -0.0267278 0)
(9.78716 -0.0259197 0)
(9.75819 -0.0251489 0)
(9.7299 -0.0244147 0)
(9.70226 -0.0237153 0)
(9.67526 -0.0230483 0)
(9.64888 -0.0224112 0)
(9.62311 -0.021802 0)
(9.59792 -0.0212184 0)
(9.57331 -0.0206589 0)
(9.54925 -0.0201217 0)
(9.52574 -0.0196056 0)
(9.50275 -0.0191093 0)
(9.48028 -0.0186319 0)
(9.4583 -0.0181723 0)
(9.43681 -0.0177297 0)
(9.41579 -0.0173034 0)
(9.39523 -0.0168925 0)
(9.37511 -0.0164965 0)
(9.35542 -0.0161147 0)
(9.33615 -0.0157466 0)
(9.31729 -0.0153916 0)
(9.29883 -0.0150493 0)
(9.28075 -0.0147192 0)
(9.26305 -0.0144008 0)
(9.2457 -0.0140937 0)
(9.22871 -0.0137976 0)
(9.21206 -0.013512 0)
(9.19575 -0.0132367 0)
(9.17975 -0.0129711 0)
(9.16407 -0.0127151 0)
(9.14869 -0.0124683 0)
(9.13361 -0.0122304 0)
(9.11881 -0.0120011 0)
(9.1043 -0.0117801 0)
(9.09004 -0.0115671 0)
(9.07606 -0.0113621 0)
(9.06232 -0.0111643 0)
(9.04883 -0.0109743 0)
(9.03558 -0.0107907 0)
(9.02256 -0.0106149 0)
(9.00977 -0.0104442 0)
(8.99719 -0.0102821 0)
(8.98484 -0.0101226 0)
(8.97266 -0.00997396 0)
(8.96073 -0.009823 0)
(8.94891 -0.00968802 0)
(8.93743 -0.00953995 0)
(8.92587 -0.00941941 0)
(8.91492 -0.00926279 0)
(8.90345 -0.00915701 0)
(8.89328 -0.00896923 0)
(8.88147 -0.00887338 0)
(8.87279 -0.00861647 0)
(8.85961 -0.0085074 0)
(8.85426 -0.0081653 0)
(8.83703 -0.00801733 0)