/*--------------------------------*- C++ -*----------------------------------*\
  =========                 |
  \\      /  F ield         | OpenFOAM: The Open Source CFD Toolbox
   \\    /   O peration     | Website:  https://openfoam.org
    \\  /    A nd           | Version:  7
     \\/     M anipulation  |
\*---------------------------------------------------------------------------*/
FoamFile
{
    version     2.0;
    format      ascii;
    class       volScalarField;
    location    "0.42";
    object      T;
}
// * * * * * * * * * * * * * * * * * * * * * * * * * * * * * * * * * * * * * //

dimensions      [0 0 0 1 0 0 0];

internalField   nonuniform List<scalar> 
1600
(
300.656
301.935
303.134
304.239
305.253
306.184
307.045
307.842
308.58
309.261
309.888
310.461
310.983
311.454
311.879
312.258
312.595
312.893
313.154
313.381
313.577
313.743
313.881
313.992
314.077
314.136
314.169
314.174
314.149
314.091
313.997
313.86
313.673
313.427
313.101
312.661
312.045
311.164
309.902
307.214
300.284
301.135
302.12
303.129
304.098
305.008
305.856
306.646
307.38
308.059
308.684
309.257
309.778
310.249
310.674
311.053
311.389
311.687
311.947
312.174
312.369
312.534
312.672
312.784
312.87
312.93
312.965
312.972
312.951
312.898
312.81
312.682
312.508
312.278
311.979
311.586
311.057
310.344
309.466
308.616
300.132
300.669
301.416
302.262
303.125
303.966
304.771
305.533
306.25
306.917
307.535
308.103
308.622
309.092
309.515
309.893
310.229
310.525
310.784
311.01
311.204
311.369
311.507
311.619
311.707
311.769
311.807
311.82
311.805
311.762
311.685
311.573
311.42
311.22
310.964
310.641
310.232
309.725
309.161
308.72
300.079
300.432
300.969
301.627
302.345
303.081
303.813
304.524
305.205
305.849
306.451
307.009
307.52
307.986
308.406
308.781
309.115
309.41
309.667
309.891
310.084
310.249
310.387
310.5
310.589
310.655
310.698
310.717
310.712
310.68
310.619
310.527
310.401
310.236
310.03
309.778
309.48
309.141
308.8
308.557
300.046
300.279
300.66
301.157
301.732
302.352
302.993
303.635
304.265
304.871
305.446
305.984
306.483
306.939
307.353
307.724
308.054
308.345
308.6
308.822
309.013
309.176
309.314
309.428
309.519
309.589
309.637
309.664
309.669
309.651
309.608
309.539
309.441
309.313
309.154
308.966
308.753
308.528
308.32
308.183
300.028
300.18
300.445
300.813
301.261
301.768
302.311
302.874
303.439
303.995
304.532
305.042
305.52
305.962
306.365
306.728
307.052
307.338
307.589
307.807
307.995
308.156
308.293
308.407
308.501
308.574
308.628
308.663
308.679
308.674
308.649
308.602
308.531
308.438
308.322
308.185
308.036
307.884
307.752
307.669
300.019
300.119
300.301
300.567
300.908
301.311
301.76
302.239
302.733
303.23
303.72
304.193
304.643
305.063
305.45
305.801
306.116
306.394
306.638
306.851
307.035
307.193
307.328
307.442
307.536
307.613
307.672
307.714
307.739
307.748
307.739
307.712
307.667
307.604
307.523
307.429
307.326
307.224
307.137
307.083
300.011
300.077
300.201
300.392
300.648
300.962
301.324
301.722
302.143
302.576
303.011
303.441
303.855
304.248
304.614
304.948
305.25
305.518
305.754
305.959
306.138
306.292
306.423
306.536
306.63
306.708
306.771
306.819
306.853
306.872
306.878
306.869
306.845
306.807
306.756
306.695
306.627
306.559
306.502
306.466
300.007
300.049
300.135
300.271
300.461
300.702
300.987
301.309
301.659
302.027
302.406
302.787
303.161
303.521
303.861
304.174
304.459
304.714
304.938
305.135
305.306
305.454
305.582
305.691
305.784
305.863
305.928
305.98
306.02
306.049
306.066
306.071
306.065
306.048
306.02
305.984
305.943
305.901
305.865
305.842
300.005
300.034
300.093
300.19
300.328
300.509
300.73
300.986
301.27
301.576
301.898
302.228
302.559
302.883
303.192
303.481
303.746
303.984
304.196
304.381
304.543
304.684
304.806
304.911
305.001
305.079
305.145
305.2
305.245
305.28
305.305
305.322
305.329
305.327
305.318
305.302
305.281
305.259
305.239
305.225
300.004
300.024
300.065
300.133
300.233
300.367
300.535
300.734
300.96
301.21
301.478
301.759
302.046
302.331
302.608
302.869
303.111
303.33
303.526
303.699
303.851
303.983
304.098
304.197
304.284
304.359
304.424
304.48
304.527
304.567
304.598
304.623
304.64
304.65
304.654
304.653
304.647
304.639
304.631
304.626
300.002
300.016
300.044
300.092
300.164
300.263
300.389
300.541
300.718
300.918
301.138
301.372
301.616
301.863
302.105
302.337
302.554
302.752
302.931
303.089
303.229
303.351
303.458
303.551
303.633
303.705
303.768
303.823
303.871
303.912
303.947
303.977
304
304.019
304.032
304.042
304.047
304.05
304.052
304.052
300.001
300.01
300.03
300.064
300.115
300.186
300.279
300.394
300.531
300.689
300.866
301.058
301.262
301.471
301.679
301.881
302.071
302.248
302.407
302.55
302.677
302.788
302.886
302.972
303.048
303.115
303.175
303.228
303.275
303.317
303.354
303.386
303.414
303.438
303.457
303.474
303.487
303.498
303.506
303.511
300.001
300.007
300.02
300.044
300.079
300.13
300.198
300.283
300.388
300.511
300.652
300.808
300.975
301.148
301.324
301.496
301.66
301.813
301.954
302.08
302.193
302.293
302.382
302.46
302.529
302.591
302.647
302.696
302.742
302.782
302.819
302.852
302.882
302.908
302.932
302.952
302.971
302.986
303
303.009
300
300.004
300.013
300.029
300.054
300.09
300.139
300.202
300.281
300.376
300.487
300.611
300.745
300.887
301.032
301.175
301.314
301.444
301.565
301.675
301.774
301.863
301.941
302.011
302.074
302.13
302.181
302.227
302.269
302.308
302.343
302.376
302.405
302.433
302.458
302.481
302.502
302.52
302.537
302.549
300
300.002
300.008
300.019
300.036
300.062
300.097
300.143
300.203
300.276
300.361
300.458
300.565
300.678
300.795
300.912
301.026
301.136
301.238
301.332
301.417
301.493
301.562
301.624
301.679
301.729
301.775
301.817
301.855
301.891
301.924
301.955
301.984
302.011
302.036
302.06
302.082
302.102
302.12
302.133
300
300.001
300.005
300.013
300.024
300.042
300.067
300.102
300.146
300.201
300.266
300.341
300.424
300.513
300.605
300.699
300.792
300.881
300.965
301.044
301.116
301.181
301.24
301.293
301.341
301.385
301.426
301.463
301.498
301.53
301.561
301.589
301.616
301.642
301.666
301.689
301.711
301.731
301.749
301.764
300
300
300.003
300.008
300.016
300.029
300.047
300.072
300.105
300.146
300.195
300.252
300.315
300.384
300.456
300.529
300.602
300.674
300.742
300.806
300.866
300.92
300.97
301.015
301.057
301.095
301.13
301.163
301.193
301.222
301.249
301.275
301.3
301.323
301.346
301.367
301.388
301.407
301.425
301.44
300
300
300.002
300.005
300.011
300.02
300.033
300.052
300.076
300.106
300.143
300.185
300.232
300.284
300.339
300.395
300.452
300.508
300.562
300.613
300.662
300.706
300.748
300.785
300.82
300.852
300.882
300.911
300.937
300.962
300.986
301.009
301.031
301.052
301.073
301.092
301.111
301.129
301.146
301.16
300
300
300.001
300.003
300.008
300.014
300.023
300.037
300.054
300.076
300.103
300.134
300.169
300.207
300.248
300.29
300.334
300.377
300.419
300.459
300.498
300.533
300.567
300.598
300.627
300.653
300.679
300.702
300.725
300.747
300.767
300.787
300.806
300.825
300.843
300.86
300.877
300.893
300.909
300.922
299.999
299.999
300
300.002
300.005
300.01
300.017
300.026
300.039
300.055
300.074
300.096
300.121
300.149
300.179
300.21
300.243
300.275
300.307
300.338
300.368
300.396
300.422
300.447
300.471
300.493
300.513
300.533
300.552
300.57
300.588
300.604
300.621
300.637
300.652
300.667
300.682
300.696
300.71
300.722
299.999
299.999
300
300.001
300.003
300.007
300.012
300.018
300.027
300.039
300.052
300.068
300.086
300.106
300.127
300.15
300.173
300.197
300.221
300.244
300.267
300.289
300.309
300.329
300.347
300.365
300.382
300.398
300.413
300.428
300.443
300.457
300.47
300.484
300.497
300.509
300.522
300.534
300.546
300.557
299.999
299.999
300
300.001
300.002
300.005
300.008
300.013
300.019
300.027
300.036
300.047
300.06
300.073
300.089
300.105
300.122
300.139
300.156
300.173
300.19
300.206
300.222
300.237
300.251
300.265
300.278
300.291
300.304
300.316
300.327
300.339
300.35
300.361
300.372
300.382
300.393
300.403
300.413
300.423
300
299.999
300
300
300.001
300.003
300.005
300.009
300.013
300.018
300.025
300.032
300.041
300.05
300.061
300.072
300.084
300.096
300.108
300.121
300.133
300.145
300.156
300.167
300.178
300.189
300.199
300.209
300.219
300.228
300.238
300.247
300.256
300.265
300.273
300.282
300.291
300.299
300.308
300.315
299.999
299.999
299.999
300
300.001
300.002
300.003
300.006
300.008
300.012
300.016
300.021
300.027
300.033
300.041
300.048
300.056
300.065
300.073
300.082
300.091
300.099
300.107
300.116
300.124
300.132
300.139
300.147
300.154
300.162
300.169
300.176
300.183
300.19
300.197
300.204
300.211
300.218
300.225
300.231
299.999
299.999
299.999
300
300
300.001
300.002
300.003
300.005
300.008
300.01
300.014
300.017
300.022
300.026
300.032
300.037
300.043
300.048
300.054
300.06
300.066
300.072
300.078
300.084
300.089
300.095
300.101
300.106
300.112
300.117
300.123
300.128
300.134
300.139
300.144
300.15
300.155
300.161
300.166
299.999
299.999
299.999
300
300
300
300.001
300.002
300.003
300.005
300.006
300.009
300.011
300.014
300.017
300.02
300.024
300.027
300.031
300.035
300.039
300.043
300.047
300.051
300.055
300.059
300.063
300.067
300.072
300.076
300.08
300.084
300.088
300.092
300.096
300.1
300.104
300.108
300.113
300.117
299.999
299.999
299.999
299.999
300
300
300
300.001
300.002
300.003
300.004
300.005
300.007
300.008
300.01
300.012
300.015
300.017
300.019
300.022
300.025
300.027
300.03
300.033
300.035
300.038
300.041
300.044
300.047
300.05
300.053
300.056
300.059
300.062
300.065
300.068
300.071
300.074
300.077
300.081
299.999
299.999
299.999
299.999
299.999
300
300
300
300.001
300.001
300.002
300.003
300.004
300.005
300.006
300.007
300.009
300.01
300.012
300.013
300.015
300.017
300.018
300.02
300.022
300.024
300.026
300.028
300.03
300.032
300.034
300.036
300.038
300.04
300.042
300.045
300.047
300.05
300.052
300.055
299.999
299.999
299.999
299.999
299.999
299.999
300
300
300
300
300.001
300.001
300.002
300.002
300.003
300.004
300.005
300.006
300.007
300.008
300.009
300.01
300.011
300.012
300.013
300.014
300.016
300.017
300.018
300.02
300.021
300.023
300.024
300.026
300.027
300.029
300.031
300.032
300.034
300.036
299.999
299.999
299.999
299.999
299.999
299.999
299.999
299.999
300
300
300
300
300.001
300.001
300.001
300.002
300.002
300.003
300.003
300.004
300.005
300.005
300.006
300.007
300.007
300.008
300.009
300.01
300.011
300.012
300.013
300.014
300.015
300.016
300.017
300.018
300.019
300.021
300.022
300.023
299.999
299.999
299.999
299.999
299.999
299.999
299.999
299.999
299.999
299.999
300
300
300
300
300
300.001
300.001
300.001
300.001
300.002
300.002
300.003
300.003
300.003
300.004
300.004
300.005
300.006
300.006
300.007
300.007
300.008
300.009
300.01
300.01
300.011
300.012
300.013
300.014
300.015
299.999
299.999
299.999
299.999
299.999
299.999
299.999
299.999
299.999
299.999
299.999
299.999
299.999
300
300
300
300
300
300
300.001
300.001
300.001
300.001
300.002
300.002
300.002
300.002
300.003
300.003
300.004
300.004
300.005
300.005
300.006
300.006
300.007
300.007
300.008
300.009
300.009
299.999
299.999
299.999
299.999
299.999
299.999
299.999
299.999
299.999
299.999
299.999
299.999
299.999
299.999
299.999
299.999
300
300
300
300
300
300
300
300
300.001
300.001
300.001
300.001
300.002
300.002
300.002
300.002
300.003
300.003
300.003
300.004
300.004
300.005
300.005
300.006
299.999
299.999
299.999
299.999
299.999
299.999
299.999
299.999
299.999
299.999
299.999
299.999
299.999
299.999
299.999
299.999
299.999
299.999
299.999
299.999
300
300
300
300
300
300
300
300
300.001
300.001
300.001
300.001
300.001
300.002
300.002
300.002
300.002
300.003
300.003
300.003
299.999
299.999
299.999
299.999
299.999
299.999
299.999
299.999
299.999
299.999
299.999
299.999
299.999
299.999
299.999
299.999
299.999
299.999
299.999
299.999
299.999
299.999
299.999
300
300
300
300
300
300
300
300
300
300
300.001
300.001
300.001
300.001
300.001
300.002
300.002
299.999
299.999
299.999
299.999
299.999
299.999
299.999
299.999
299.999
299.999
299.999
299.999
299.999
299.999
299.999
299.999
299.999
299.999
299.999
299.999
299.999
299.999
299.999
299.999
299.999
299.999
299.999
300
300
300
300
300
300
300
300
300
300
300.001
300.001
300.001
299.999
299.999
299.999
299.999
299.999
299.999
299.999
299.999
299.999
299.999
299.999
299.999
299.999
299.999
299.999
299.999
299.999
299.999
299.999
299.999
299.999
299.999
299.999
299.999
299.999
299.999
299.999
299.999
299.999
299.999
299.999
300
300
300
300
300
300
300
300
300
299.999
299.999
299.999
299.999
299.999
299.999
299.999
299.999
299.999
299.999
299.999
299.999
299.999
299.999
299.999
299.999
299.999
299.999
299.999
299.999
299.999
299.999
299.999
299.999
299.999
299.999
299.999
299.999
299.999
299.999
299.999
299.999
299.999
299.999
299.999
299.999
300
300
300
300
300
299.999
299.999
299.999
299.999
299.999
299.999
299.999
299.999
299.999
299.999
299.999
299.999
299.999
299.999
299.999
299.999
299.999
299.999
299.999
299.999
299.999
299.999
299.999
299.999
299.999
299.999
299.999
299.999
299.999
299.999
299.999
299.999
299.999
299.999
299.999
299.999
299.999
299.999
299.999
)
;

boundaryField
{
    upperWall
    {
        type            fixedValue;
        value           uniform 300;
    }
    lowerWall
    {
        type            fixedGradient;
        gradient        uniform 5000;
    }
    inlet
    {
        type            fixedValue;
        value           uniform 300;
    }
    outlet
    {
        type            inletOutlet;
        inletValue      uniform 300;
        value           nonuniform List<scalar> 
40
(
300
308.612
308.72
308.557
308.183
307.669
307.083
306.466
305.842
305.225
304.626
304.052
303.511
303.009
302.549
302.133
301.764
301.44
301.16
300.922
300.722
300.557
300.423
300.315
300.231
300.166
300.117
300.081
300.055
300.036
300.023
300.015
300.009
300.006
300.003
300.002
300.001
300
300
299.999
)
;
    }
    frontAndBack
    {
        type            empty;
    }
}


// ************************************************************************* //
