/*--------------------------------*- C++ -*----------------------------------*\
  =========                 |
  \\      /  F ield         | OpenFOAM: The Open Source CFD Toolbox
   \\    /   O peration     | Website:  https://openfoam.org
    \\  /    A nd           | Version:  7
     \\/     M anipulation  |
\*---------------------------------------------------------------------------*/
FoamFile
{
    version     2.0;
    format      ascii;
    class       volVectorField;
    location    "0.925";
    object      U_0;
}
// * * * * * * * * * * * * * * * * * * * * * * * * * * * * * * * * * * * * * //

dimensions      [0 1 -1 0 0 0 0];

internalField   nonuniform List<vector> 
7920
(
(2.93235 0.102241 -32.3798)
(2.11047 -0.46094 -32.4268)
(1.4004 -0.614973 -32.4243)
(1.29323 -0.671085 -32.4327)
(1.06019 -0.687967 -32.4294)
(1.08722 -0.693053 -32.4364)
(0.947571 -0.697352 -32.4346)
(0.993947 -0.697735 -32.4407)
(0.889987 -0.699815 -32.4398)
(0.936189 -0.699704 -32.4444)
(0.853881 -0.701347 -32.4431)
(0.895861 -0.700876 -32.4459)
(0.829179 -0.701913 -32.4442)
(0.866132 -0.701356 -32.4454)
(0.811432 -0.701713 -32.4436)
(0.843371 -0.701753 -32.4436)
(0.797053 -0.697758 -32.4427)
(0.82032 -0.704293 -32.4408)
(0.786042 -0.645782 -32.444)
(0.61875 -0.657829 -32.4322)
(4.41346 0.967587 -32.4261)
(4.34052 0.873081 -32.4592)
(3.6936 0.818958 -32.4518)
(3.55077 0.752095 -32.4594)
(3.15607 0.724475 -32.4579)
(3.15493 0.711195 -32.4675)
(2.89708 0.704682 -32.4699)
(2.94336 0.701254 -32.4801)
(2.7526 0.699338 -32.4851)
(2.80908 0.697766 -32.4938)
(2.65915 0.696768 -32.4973)
(2.715 0.695623 -32.5019)
(2.59398 0.695049 -32.5021)
(2.64562 0.694108 -32.5023)
(2.54636 0.693502 -32.5008)
(2.59456 0.693569 -32.497)
(2.50653 0.690131 -32.497)
(2.57212 0.695254 -32.4866)
(2.4531 0.685006 -32.4982)
(2.73641 0.677391 -32.4539)
(4.75376 0.193131 -32.431)
(5.26387 -0.228494 -32.4541)
(5.12409 -0.374037 -32.4328)
(5.241 -0.49216 -32.4359)
(5.00253 -0.556918 -32.4279)
(5.05848 -0.593561 -32.4383)
(4.85075 -0.618064 -32.4378)
(4.89949 -0.632003 -32.4506)
(4.72994 -0.642805 -32.4559)
(4.77667 -0.649628 -32.4719)
(4.63879 -0.655141 -32.4805)
(4.68252 -0.659194 -32.4934)
(4.5695 -0.662271 -32.4983)
(4.60907 -0.664993 -32.5035)
(4.51693 -0.666971 -32.5045)
(4.54884 -0.667786 -32.5018)
(4.48088 -0.671189 -32.502)
(4.48569 -0.666197 -32.4894)
(4.4651 -0.667961 -32.4949)
(4.37806 -0.686527 -32.4529)
(4.75469 0.649314 -32.4411)
(5.28986 0.749471 -32.4618)
(5.39467 0.79669 -32.438)
(5.70468 0.767103 -32.4368)
(5.65158 0.749298 -32.4272)
(5.82932 0.735068 -32.4349)
(5.742 0.724791 -32.4334)
(5.86071 0.716782 -32.4431)
(5.77278 0.71081 -32.4468)
(5.86039 0.70523 -32.4613)
(5.78065 0.701309 -32.4726)
(5.84943 0.697087 -32.4889)
(5.77898 0.694671 -32.4998)
(5.83577 0.691142 -32.509)
(5.77221 0.69034 -32.5146)
(5.82467 0.68632 -32.5157)
(5.7605 0.688997 -32.5179)
(5.82641 0.682369 -32.5112)
(5.74451 0.695631 -32.5094)
(5.88812 0.708448 -32.4737)
(4.74681 -0.0881488 -32.4403)
(5.25342 -0.386775 -32.4603)
(5.41522 -0.479218 -32.4335)
(5.78029 -0.544913 -32.4318)
(5.79631 -0.58069 -32.4197)
(6.03396 -0.600727 -32.4271)
(6.01317 -0.615072 -32.4237)
(6.18423 -0.623145 -32.4322)
(6.15518 -0.630223 -32.433)
(6.28617 -0.634709 -32.4458)
(6.25686 -0.638949 -32.4555)
(6.36061 -0.641983 -32.4731)
(6.33292 -0.645019 -32.4851)
(6.41643 -0.646863 -32.4978)
(6.39113 -0.650294 -32.5041)
(6.45788 -0.648719 -32.5098)
(6.4397 -0.657892 -32.5115)
(6.48322 -0.646202 -32.5123)
(6.48676 -0.669997 -32.5077)
(6.48822 -0.689852 -32.48)
(4.73427 0.352061 -32.4439)
(5.19677 0.556915 -32.4644)
(5.36861 0.635195 -32.4374)
(5.74903 0.655308 -32.4357)
(5.78877 0.665515 -32.4232)
(6.05 0.66887 -32.4305)
(6.0558 0.671073 -32.4266)
(6.25124 0.67122 -32.4347)
(6.24931 0.671674 -32.4344)
(6.40359 0.670993 -32.4462)
(6.40021 0.670911 -32.4548)
(6.52534 0.669996 -32.4724)
(6.52123 0.67003 -32.4845)
(6.62409 0.668692 -32.4983)
(6.6186 0.670006 -32.5047)
(6.70465 0.66628 -32.5119)
(6.69865 0.673458 -32.5135)
(6.77147 0.662501 -32.5174)
(6.77112 0.685348 -32.5127)
(6.83813 0.707693 -32.4881)
(4.73427 -0.352061 -32.4439)
(5.19677 -0.556915 -32.4644)
(5.36861 -0.635195 -32.4374)
(5.74903 -0.655308 -32.4357)
(5.78877 -0.665515 -32.4232)
(6.05 -0.66887 -32.4305)
(6.0558 -0.671073 -32.4266)
(6.25124 -0.671218 -32.4347)
(6.24931 -0.67167 -32.4344)
(6.40359 -0.670986 -32.4462)
(6.40022 -0.670896 -32.4548)
(6.52533 -0.669974 -32.4724)
(6.52126 -0.669987 -32.4844)
(6.62407 -0.668613 -32.4984)
(6.61869 -0.669925 -32.5046)
(6.70458 -0.665967 -32.512)
(6.69885 -0.673351 -32.5134)
(6.77127 -0.661569 -32.5175)
(6.77138 -0.684918 -32.5127)
(6.83765 -0.706 -32.488)
(4.74681 0.0881489 -32.4403)
(5.25342 0.386775 -32.4603)
(5.41522 0.479218 -32.4335)
(5.78029 0.544913 -32.4318)
(5.79631 0.580689 -32.4197)
(6.03396 0.600727 -32.4271)
(6.01317 0.615072 -32.4237)
(6.18424 0.623147 -32.4322)
(6.15517 0.630227 -32.433)
(6.28619 0.634714 -32.4459)
(6.25685 0.638966 -32.4554)
(6.36065 0.641997 -32.4733)
(6.33289 0.645068 -32.4849)
(6.41655 0.646925 -32.4981)
(6.39108 0.65039 -32.5038)
(6.45818 0.648995 -32.5102)
(6.43973 0.658026 -32.511)
(6.48396 0.647116 -32.513)
(6.48735 0.670444 -32.5072)
(6.49019 0.691723 -32.4804)
(4.75469 -0.649314 -32.4411)
(5.28986 -0.749471 -32.4618)
(5.39467 -0.79669 -32.438)
(5.70468 -0.767103 -32.4368)
(5.65158 -0.749299 -32.4272)
(5.82932 -0.735068 -32.4349)
(5.742 -0.724791 -32.4334)
(5.86072 -0.716779 -32.4431)
(5.77278 -0.710808 -32.4468)
(5.8604 -0.705222 -32.4614)
(5.78065 -0.7013 -32.4725)
(5.84947 -0.697065 -32.4892)
(5.779 -0.694643 -32.4994)
(5.83589 -0.691065 -32.5096)
(5.77231 -0.690298 -32.5137)
(5.82495 -0.686034 -32.5171)
(5.76092 -0.688994 -32.516)
(5.82691 -0.681565 -32.5137)
(5.7457 -0.695493 -32.5063)
(5.88912 -0.707305 -32.4773)
(4.75376 -0.193131 -32.431)
(5.26387 0.228494 -32.4541)
(5.12409 0.374037 -32.4328)
(5.241 0.49216 -32.4359)
(5.00253 0.556918 -32.4279)
(5.05848 0.593561 -32.4383)
(4.85075 0.618065 -32.4378)
(4.89949 0.632003 -32.4506)
(4.72994 0.642809 -32.4559)
(4.7767 0.649627 -32.472)
(4.63879 0.655156 -32.4803)
(4.6826 0.659193 -32.4936)
(4.56949 0.662314 -32.4979)
(4.60932 0.665005 -32.5043)
(4.51695 0.667059 -32.5032)
(4.5495 0.667905 -32.504)
(4.48115 0.671319 -32.4985)
(4.48731 0.666751 -32.4951)
(4.46645 0.668309 -32.4863)
(4.38266 0.687861 -32.4653)
(4.41346 -0.967587 -32.4261)
(4.34052 -0.873081 -32.4592)
(3.6936 -0.818958 -32.4518)
(3.55077 -0.752095 -32.4595)
(3.15607 -0.724475 -32.4579)
(3.15493 -0.711195 -32.4675)
(2.89708 -0.704683 -32.4699)
(2.94336 -0.701253 -32.4801)
(2.7526 -0.699339 -32.4851)
(2.8091 -0.697762 -32.4939)
(2.65917 -0.696767 -32.4973)
(2.71506 -0.69561 -32.502)
(2.59403 -0.695046 -32.5019)
(2.64579 -0.694064 -32.5028)
(2.54652 -0.693509 -32.5001)
(2.59495 -0.693407 -32.4985)
(2.50722 -0.690247 -32.4942)
(2.57267 -0.694845 -32.4921)
(2.45537 -0.685393 -32.4871)
(2.73675 -0.677754 -32.4762)
(2.93235 -0.102241 -32.3798)
(2.11047 0.46094 -32.4268)
(1.4004 0.614973 -32.4243)
(1.29323 0.671085 -32.4327)
(1.06019 0.687967 -32.4294)
(1.08722 0.693053 -32.4364)
(0.947571 0.697352 -32.4346)
(0.993949 0.697734 -32.4407)
(0.88999 0.699816 -32.4398)
(0.936198 0.6997 -32.4444)
(0.853889 0.701351 -32.4431)
(0.895893 0.700866 -32.446)
(0.829195 0.701927 -32.4441)
(0.866229 0.701324 -32.4455)
(0.81149 0.701755 -32.4434)
(0.843601 0.701665 -32.444)
(0.797359 0.697921 -32.4419)
(0.820755 0.70417 -32.4424)
(0.787291 0.646511 -32.4406)
(0.620762 0.658838 -32.4407)
(4.32671 0.565995 0.00715696)
(3.08655 0.847487 0.0046892)
(2.32643 0.869283 0.00595972)
(1.76278 0.852434 0.00448376)
(1.62602 0.855161 0.0056286)
(1.4246 0.86704 0.00446075)
(1.41926 0.877228 0.00541638)
(1.30005 0.885555 0.00443539)
(1.3086 0.890132 0.00521713)
(1.22526 0.894032 0.00438875)
(1.23483 0.895985 0.00502917)
(1.17476 0.898139 0.00433338)
(1.1828 0.898978 0.00485886)
(1.13762 0.900453 0.00427624)
(1.14473 0.900237 0.00470628)
(1.10724 0.902621 0.00421878)
(1.11639 0.894841 0.00457063)
(1.09707 0.917047 0.00415893)
(1.0498 0.793828 0.00447745)
(1.49822 0.820023 0.00404142)
(4.76064 -0.100071 0.00458154)
(4.61928 -0.276787 0.0025495)
(4.53841 -0.476051 0.00385092)
(4.16268 -0.641388 0.00240876)
(4.02537 -0.737524 0.00356087)
(3.75352 -0.792962 0.00239853)
(3.68433 -0.820628 0.00335766)
(3.50356 -0.838011 0.00238006)
(3.46836 -0.848506 0.00316472)
(3.34211 -0.856519 0.0023384)
(3.32119 -0.862 0.0029809)
(3.22929 -0.866581 0.00228577)
(3.2148 -0.869484 0.00281246)
(3.14462 -0.872831 0.00222985)
(3.13522 -0.873315 0.00266015)
(3.07473 -0.877858 0.00217322)
(3.08006 -0.874715 0.0025205)
(2.9994 -0.881063 0.00211688)
(3.07937 -0.885943 0.00236853)
(2.69183 -0.891537 0.00198805)
(4.63931 0.43509 0.00587958)
(4.8327 0.870646 0.00392369)
(5.15229 0.968668 0.00510658)
(5.09897 0.959657 0.00362383)
(5.1665 0.941695 0.00474956)
(5.038 0.928712 0.0035744)
(5.04972 0.919556 0.00452724)
(4.93772 0.913889 0.0035466)
(4.93788 0.907639 0.00433022)
(4.84876 0.904171 0.00350318)
(4.84402 0.899781 0.00414542)
(4.7737 0.89774 0.00344965)
(4.76602 0.894892 0.00397638)
(4.71072 0.89338 0.00339299)
(4.69965 0.891968 0.00382359)
(4.66032 0.889687 0.00333417)
(4.63601 0.888417 0.0036864)
(4.63631 0.888998 0.00327143)
(4.562 0.84813 0.00359072)
(4.68179 0.891922 0.00317879)
(4.57764 -0.201614 0.00470105)
(4.70645 -0.397904 0.00296508)
(5.1405 -0.518239 0.00415304)
(5.24569 -0.622596 0.00269952)
(5.46774 -0.690214 0.0038266)
(5.47501 -0.737399 0.0026553)
(5.5921 -0.764164 0.00361058)
(5.57308 -0.783729 0.00263276)
(5.6432 -0.79654 0.00341826)
(5.61922 -0.807227 0.00259374)
(5.66345 -0.815124 0.0032372)
(5.6402 -0.821967 0.00254343)
(5.66854 -0.827196 0.00307133)
(5.64722 -0.831931 0.00249017)
(5.66603 -0.835664 0.00292169)
(5.6449 -0.838423 0.00243507)
(5.66195 -0.845575 0.00278158)
(5.62378 -0.839232 0.00237553)
(5.6685 -0.875452 0.00262475)
(5.4767 -0.894454 0.00227167)
(4.59063 0.341317 0.0053542)
(4.70253 0.687837 0.00365757)
(5.11642 0.802473 0.00479786)
(5.24225 0.843929 0.00333028)
(5.50411 0.861017 0.00444458)
(5.56013 0.870884 0.00326671)
(5.72764 0.874821 0.0042188)
(5.76074 0.877549 0.00323905)
(5.87907 0.877062 0.00402378)
(5.90284 0.877354 0.00319833)
(5.98933 0.875845 0.00384106)
(6.00746 0.875504 0.0031466)
(6.07133 0.87415 0.00367408)
(6.08594 0.873287 0.00309261)
(6.13205 0.873144 0.00352448)
(6.14737 0.870013 0.00303724)
(6.174 0.874216 0.00338827)
(6.1977 0.866127 0.00297604)
(6.20378 0.868901 0.00327638)
(6.20286 0.917727 0.00289889)
(4.58459 -0.268959 0.00498339)
(4.67448 -0.538904 0.00335131)
(5.08327 -0.653074 0.00449095)
(5.21038 -0.723711 0.00303052)
(5.48352 -0.764152 0.00414304)
(5.55446 -0.791874 0.00296507)
(5.73974 -0.806657 0.00391707)
(5.79199 -0.817593 0.00293752)
(5.93018 -0.823576 0.00372253)
(5.97455 -0.829072 0.00289744)
(6.08135 -0.832351 0.00354025)
(6.11964 -0.835734 0.00284604)
(6.20318 -0.837987 0.00337357)
(6.23577 -0.839936 0.00279259)
(6.30146 -0.842565 0.00322443)
(6.32887 -0.841477 0.00273819)
(6.38121 -0.850189 0.00308635)
(6.39507 -0.839367 0.00267798)
(6.45125 -0.869755 0.00294948)
(6.36795 -0.904313 0.00259574)
(4.58459 0.268959 0.00498339)
(4.67448 0.538904 0.00335131)
(5.08327 0.653074 0.00449095)
(5.21038 0.723712 0.00303052)
(5.48352 0.764153 0.00414304)
(5.55446 0.791875 0.00296507)
(5.73974 0.806659 0.00391707)
(5.79199 0.817596 0.00293752)
(5.93018 0.823581 0.00372253)
(5.97456 0.829082 0.00289744)
(6.08134 0.832367 0.00354025)
(6.11966 0.835765 0.00284602)
(6.20315 0.83803 0.00337358)
(6.23583 0.840032 0.00279254)
(6.30138 0.842679 0.00322449)
(6.32907 0.841757 0.00273803)
(6.38108 0.850518 0.00308664)
(6.39572 0.840149 0.00267762)
(6.45153 0.870662 0.00295075)
(6.36916 0.906408 0.00259554)
(4.59063 -0.341317 0.0053542)
(4.70253 -0.687837 0.00365757)
(5.11642 -0.802473 0.00479786)
(5.24225 -0.843928 0.00333028)
(5.50411 -0.861017 0.00444458)
(5.56013 -0.870882 0.00326671)
(5.72764 -0.87482 0.0042188)
(5.76074 -0.877544 0.00323905)
(5.87907 -0.877058 0.00402377)
(5.90285 -0.877342 0.00319834)
(5.98934 -0.875834 0.00384105)
(6.00747 -0.875468 0.00314663)
(6.07137 -0.874119 0.00367403)
(6.08596 -0.873179 0.00309269)
(6.13217 -0.873066 0.00352435)
(6.14737 -0.869718 0.00303744)
(6.17437 -0.873998 0.00338789)
(6.19758 -0.865454 0.00297635)
(6.20443 -0.868276 0.00327514)
(6.20293 -0.915936 0.0028987)
(4.57764 0.201614 0.00470105)
(4.70645 0.397904 0.00296508)
(5.1405 0.518239 0.00415304)
(5.24569 0.622596 0.00269952)
(5.46774 0.690214 0.0038266)
(5.47501 0.7374 0.0026553)
(5.59209 0.764166 0.00361058)
(5.57308 0.783732 0.00263276)
(5.6432 0.796546 0.00341826)
(5.61924 0.807232 0.00259374)
(5.66344 0.815141 0.0032372)
(5.64026 0.821984 0.00254343)
(5.66853 0.827243 0.00307132)
(5.6474 0.83199 0.00249017)
(5.66603 0.83579 0.00292167)
(5.6454 0.838617 0.00243506)
(5.66207 0.845932 0.00278168)
(5.62518 0.839902 0.00237541)
(5.66947 0.876433 0.00262587)
(5.48039 0.896401 0.00227154)
(4.63931 -0.43509 0.00587958)
(4.8327 -0.870646 0.00392369)
(5.15229 -0.968668 0.00510658)
(5.09897 -0.959656 0.00362384)
(5.1665 -0.941695 0.00474956)
(5.038 -0.928711 0.00357441)
(5.04972 -0.919555 0.00452724)
(4.93773 -0.913886 0.0035466)
(4.93788 -0.907637 0.00433022)
(4.84878 -0.904162 0.00350319)
(4.84403 -0.899775 0.0041454)
(4.77376 -0.897711 0.00344969)
(4.76606 -0.89488 0.0039763)
(4.71089 -0.893291 0.00339312)
(4.69982 -0.891949 0.00382333)
(4.66074 -0.889449 0.00333455)
(4.63653 -0.888388 0.00368568)
(4.63731 -0.888557 0.00327219)
(4.56327 -0.848091 0.00358897)
(4.68435 -0.891521 0.00317919)
(4.76064 0.100071 0.00458154)
(4.61928 0.276787 0.0025495)
(4.53841 0.476051 0.00385092)
(4.16268 0.641388 0.00240877)
(4.02537 0.737525 0.00356087)
(3.75352 0.792962 0.00239853)
(3.68433 0.82063 0.00335766)
(3.50357 0.838011 0.00238006)
(3.46836 0.84851 0.00316472)
(3.34214 0.856517 0.0023384)
(3.3212 0.862012 0.0029809)
(3.22938 0.866576 0.00228577)
(3.21483 0.869521 0.00281245)
(3.14486 0.872817 0.00222987)
(3.13533 0.87342 0.00266009)
(3.07543 0.877834 0.00217333)
(3.08035 0.875013 0.00252031)
(3.00167 0.881238 0.00211724)
(3.07983 0.886787 0.00236852)
(2.7001 0.893363 0.00198905)
(4.32671 -0.565995 0.00715696)
(3.08655 -0.847487 0.0046892)
(2.32643 -0.869283 0.00595972)
(1.76278 -0.852434 0.00448376)
(1.62602 -0.855161 0.0056286)
(1.4246 -0.86704 0.00446075)
(1.41926 -0.877229 0.00541638)
(1.30005 -0.885553 0.00443539)
(1.30861 -0.890133 0.00521713)
(1.22527 -0.894027 0.00438876)
(1.23485 -0.89599 0.00502916)
(1.1748 -0.898124 0.00433341)
(1.18285 -0.898994 0.00485883)
(1.13774 -0.900404 0.00427632)
(1.1449 -0.900294 0.00470615)
(1.10753 -0.902484 0.00421903)
(1.11689 -0.895068 0.0045702)
(1.09767 -0.916861 0.00415965)
(1.05137 -0.794952 0.00447549)
(1.49858 -0.821765 0.00404534)
(4.38065 0.0971642 0.00149412)
(3.97462 0.149076 0.00203815)
(3.44473 0.162954 0.00108375)
(2.97421 0.156878 0.0016264)
(2.56706 0.145411 0.00110327)
(2.26844 0.136913 0.00151981)
(2.04771 0.13183 0.00117639)
(1.89967 0.13138 0.00143813)
(1.80097 0.133708 0.00120613)
(1.7325 0.138279 0.00135873)
(1.69096 0.14341 0.00121528)
(1.65509 0.148963 0.00129595)
(1.63648 0.153634 0.00122175)
(1.61382 0.15859 0.00125311)
(1.60402 0.16133 0.00123255)
(1.59022 0.16658 0.00122714)
(1.57866 0.164958 0.00125246)
(1.58618 0.175272 0.00121236)
(1.54238 0.16009 0.00126388)
(1.6281 0.169674 0.00128059)
(4.54341 0.087829 0.00328578)
(4.68544 0.119313 0.00400765)
(4.73219 0.120458 0.00304579)
(4.7271 0.0943118 0.00356312)
(4.65583 0.0564161 0.00301548)
(4.56723 0.0143609 0.00341783)
(4.46571 -0.0235636 0.00306657)
(4.36732 -0.0562819 0.003326)
(4.27747 -0.0814315 0.00309338)
(4.19222 -0.101403 0.00324695)
(4.12088 -0.115963 0.00310366)
(4.05074 -0.127633 0.00318492)
(3.99553 -0.136142 0.00311036)
(3.93838 -0.143465 0.00314099)
(3.89661 -0.14872 0.00311991)
(3.85045 -0.153481 0.00311205)
(3.81931 -0.157856 0.00314009)
(3.78534 -0.159007 0.00309289)
(3.75566 -0.166306 0.00318697)
(3.74189 -0.167893 0.00319343)
(4.51874 0.0458119 0.00185133)
(4.66351 0.110437 0.00245853)
(4.79953 0.162527 0.00152932)
(4.95316 0.190876 0.00205066)
(5.06566 0.201272 0.00150899)
(5.15621 0.202384 0.00191745)
(5.2127 0.19923 0.00157365)
(5.24842 0.196247 0.00183722)
(5.26849 0.194355 0.00160925)
(5.27542 0.194015 0.00176425)
(5.27839 0.194509 0.00162352)
(5.27286 0.195577 0.00170526)
(5.26791 0.196365 0.00163241)
(5.25824 0.197543 0.00166409)
(5.24848 0.197086 0.0016437)
(5.24037 0.199472 0.00163835)
(5.22477 0.194376 0.00165992)
(5.2242 0.204595 0.00162784)
(5.19946 0.183708 0.00165264)
(5.2098 0.21157 0.00168681)
(4.51477 0.0441844 0.00286942)
(4.62913 0.0508258 0.0035858)
(4.75725 0.0464174 0.00268073)
(4.92183 0.0289069 0.00320735)
(5.06601 0.00679569 0.00265171)
(5.20418 -0.0181491 0.00304875)
(5.31638 -0.0418999 0.00269434)
(5.41207 -0.0634608 0.00295312)
(5.49206 -0.0812245 0.0027211)
(5.55821 -0.0958866 0.00287485)
(5.61816 -0.10747 0.00273243)
(5.6672 -0.116782 0.00281388)
(5.71479 -0.124497 0.00274026)
(5.75349 -0.130479 0.00277195)
(5.79252 -0.136408 0.00275186)
(5.82427 -0.139618 0.00274625)
(5.85732 -0.146263 0.00277178)
(5.88076 -0.144882 0.00273573)
(5.91519 -0.15534 0.00282082)
(5.9157 -0.150845 0.00282644)
(4.51588 0.0166268 0.00216911)
(4.6303 0.0557013 0.00284035)
(4.75146 0.0912989 0.00194537)
(4.91006 0.116879 0.00246324)
(5.05198 0.133182 0.00190538)
(5.19381 0.144326 0.00230241)
(5.31443 0.1521 0.00195059)
(5.42296 0.158847 0.00221144)
(5.51875 0.164757 0.00198183)
(5.60322 0.170428 0.00213633)
(5.68344 0.17537 0.00199504)
(5.75397 0.179916 0.00207651)
(5.82476 0.183349 0.00200368)
(5.88638 0.186811 0.00203565)
(5.95088 0.188201 0.00201599)
(6.00481 0.192001 0.00201171)
(6.06701 0.189182 0.0020332)
(6.10647 0.198567 0.00200629)
(6.18166 0.184341 0.00204007)
(6.18169 0.210878 0.00207269)
(4.51462 0.0119152 0.00250199)
(4.62247 -0.00404469 0.00320224)
(4.74223 -0.0234469 0.00231478)
(4.89914 -0.0448645 0.0028385)
(5.0402 -0.0639005 0.00227924)
(5.18189 -0.081633 0.00267469)
(5.30354 -0.0971033 0.0023205)
(5.41423 -0.110878 0.00258047)
(5.51351 -0.122441 0.00234995)
(5.60227 -0.132263 0.00250429)
(5.68828 -0.140332 0.00236257)
(5.76463 -0.146927 0.00244395)
(5.84339 -0.152433 0.00237085)
(5.91149 -0.156728 0.00240273)
(5.98664 -0.160574 0.00238312)
(6.04605 -0.163344 0.00237863)
(6.12317 -0.165943 0.00240204)
(6.16386 -0.168593 0.00237371)
(6.26139 -0.168001 0.00243565)
(6.25401 -0.176988 0.0024518)
(4.51462 -0.0119153 0.00250199)
(4.62247 0.00404492 0.00320224)
(4.74223 0.0234467 0.00231478)
(4.89914 0.0448651 0.0028385)
(5.0402 0.0639005 0.00227924)
(5.18189 0.0816348 0.00267469)
(5.30354 0.0971043 0.0023205)
(5.41423 0.110882 0.00258047)
(5.51351 0.122445 0.00234994)
(5.60227 0.132275 0.0025043)
(5.68827 0.140343 0.00236256)
(5.76463 0.146964 0.00244396)
(5.84339 0.152461 0.00237083)
(5.9115 0.156841 0.00240278)
(5.98664 0.160637 0.00238304)
(6.04608 0.163664 0.00237877)
(6.12319 0.166123 0.0024017)
(6.16394 0.169379 0.00237393)
(6.26151 0.168681 0.00243386)
(6.25424 0.178629 0.00245201)
(4.51588 -0.0166269 0.00216911)
(4.6303 -0.055701 0.00284035)
(4.75146 -0.0912991 0.00194537)
(4.91006 -0.116878 0.00246324)
(5.05198 -0.133182 0.00190538)
(5.19381 -0.144324 0.00230241)
(5.31443 -0.152099 0.00195059)
(5.42296 -0.158842 0.00221144)
(5.51875 -0.164754 0.00198183)
(5.60322 -0.170416 0.00213632)
(5.68345 -0.175359 0.00199505)
(5.75397 -0.179879 0.0020765)
(5.82478 -0.183324 0.00200369)
(5.88638 -0.186697 0.0020356)
(5.95096 -0.188144 0.00201605)
(6.00482 -0.191685 0.00201157)
(6.06721 -0.189017 0.00203349)
(6.10655 -0.197805 0.00200607)
(6.18208 -0.183714 0.00204157)
(6.18208 -0.209348 0.00207247)
(4.51477 -0.0441845 0.00286942)
(4.62913 -0.0508256 0.0035858)
(4.75725 -0.0464177 0.00268073)
(4.92183 -0.0289064 0.00320735)
(5.06601 -0.00679568 0.00265171)
(5.20418 0.0181507 0.00304875)
(5.31638 0.041901 0.00269434)
(5.41207 0.0634646 0.00295312)
(5.49206 0.0812288 0.00272109)
(5.55822 0.0958965 0.00287486)
(5.61816 0.107482 0.00273241)
(5.66724 0.116813 0.00281391)
(5.7148 0.124526 0.00274022)
(5.75356 0.130578 0.00277202)
(5.79258 0.136468 0.00275174)
(5.82445 0.139906 0.00274639)
(5.85757 0.146419 0.00277136)
(5.8812 0.145616 0.00273596)
(5.91605 0.155917 0.00281912)
(5.91696 0.152418 0.00282631)
(4.51874 -0.0458119 0.00185133)
(4.66351 -0.110437 0.00245853)
(4.79953 -0.162527 0.00152932)
(4.95316 -0.190875 0.00205067)
(5.06566 -0.201272 0.00150899)
(5.15622 -0.202382 0.00191745)
(5.2127 -0.19923 0.00157365)
(5.24843 -0.196243 0.00183723)
(5.26848 -0.194352 0.00160925)
(5.27545 -0.194005 0.00176426)
(5.27838 -0.194501 0.00162351)
(5.27294 -0.195546 0.00170527)
(5.26791 -0.196347 0.0016324)
(5.25843 -0.19745 0.00166411)
(5.24855 -0.197054 0.00164367)
(5.2408 -0.199211 0.00163837)
(5.22514 -0.194289 0.00165992)
(5.22516 -0.203983 0.00162788)
(5.2007 -0.18334 0.00165334)
(5.21214 -0.210498 0.00168689)
(4.54341 -0.087829 0.00328578)
(4.68544 -0.119313 0.00400765)
(4.73219 -0.120458 0.00304579)
(4.7271 -0.0943117 0.00356312)
(4.65583 -0.0564158 0.00301547)
(4.56723 -0.0143604 0.00341783)
(4.46571 0.0235649 0.00306657)
(4.36734 0.056283 0.00332601)
(4.27747 0.0814358 0.00309336)
(4.19227 0.101406 0.00324698)
(4.12088 0.115974 0.00310362)
(4.05086 0.127644 0.00318499)
(3.99553 0.136167 0.00311024)
(3.93869 0.143506 0.0031412)
(3.89665 0.148767 0.00311954)
(3.85125 0.153617 0.00311265)
(3.81954 0.15795 0.00313898)
(3.78736 0.159392 0.00309444)
(3.75652 0.166611 0.00318378)
(3.74684 0.168748 0.00319635)
(4.38065 -0.0971642 0.00149412)
(3.97462 -0.149076 0.00203815)
(3.44473 -0.162954 0.00108375)
(2.97421 -0.156878 0.0016264)
(2.56706 -0.145411 0.00110327)
(2.26845 -0.136913 0.00151981)
(2.04771 -0.13183 0.00117639)
(1.89968 -0.131379 0.00143813)
(1.80098 -0.133708 0.00120613)
(1.73253 -0.138277 0.00135874)
(1.69098 -0.143409 0.00121528)
(1.65518 -0.148958 0.00129595)
(1.63655 -0.153633 0.00122174)
(1.61402 -0.158572 0.00125311)
(1.60427 -0.161333 0.00123252)
(1.59066 -0.166526 0.00122718)
(1.57941 -0.164982 0.0012523)
(1.58732 -0.175143 0.00121271)
(1.54388 -0.160177 0.00126287)
(1.63249 -0.169755 0.00128273)
(4.38065 0.0971642 -0.00149413)
(3.97462 0.149076 -0.00203815)
(3.44473 0.162954 -0.00108375)
(2.97421 0.156878 -0.0016264)
(2.56706 0.145411 -0.00110327)
(2.26844 0.136913 -0.00151981)
(2.04771 0.13183 -0.0011764)
(1.89967 0.13138 -0.00143814)
(1.80097 0.133708 -0.00120613)
(1.7325 0.138279 -0.00135874)
(1.69096 0.14341 -0.00121529)
(1.65509 0.148964 -0.00129595)
(1.63648 0.153634 -0.00122175)
(1.61382 0.15859 -0.00125311)
(1.60402 0.16133 -0.00123255)
(1.59022 0.16658 -0.00122715)
(1.57866 0.164958 -0.00125246)
(1.58618 0.175273 -0.00121236)
(1.54238 0.16009 -0.00126389)
(1.6281 0.169674 -0.0012806)
(4.54341 0.087829 -0.00328578)
(4.68544 0.119313 -0.00400765)
(4.73219 0.120458 -0.0030458)
(4.7271 0.0943118 -0.00356312)
(4.65583 0.0564161 -0.00301548)
(4.56723 0.014361 -0.00341783)
(4.46571 -0.0235636 -0.00306658)
(4.36732 -0.0562818 -0.003326)
(4.27747 -0.0814314 -0.00309338)
(4.19222 -0.101403 -0.00324696)
(4.12088 -0.115962 -0.00310367)
(4.05074 -0.127633 -0.00318492)
(3.99553 -0.136142 -0.00311036)
(3.93838 -0.143465 -0.003141)
(3.89661 -0.14872 -0.00311991)
(3.85045 -0.153481 -0.00311206)
(3.81931 -0.157856 -0.0031401)
(3.78534 -0.159007 -0.00309289)
(3.75566 -0.166306 -0.00318697)
(3.74189 -0.167893 -0.00319344)
(4.51874 0.0458119 -0.00185134)
(4.66351 0.110437 -0.00245853)
(4.79953 0.162527 -0.00152933)
(4.95316 0.190876 -0.00205067)
(5.06566 0.201272 -0.00150899)
(5.15621 0.202384 -0.00191745)
(5.2127 0.19923 -0.00157366)
(5.24842 0.196247 -0.00183723)
(5.26849 0.194355 -0.00160925)
(5.27542 0.194015 -0.00176426)
(5.27839 0.194509 -0.00162352)
(5.27286 0.195577 -0.00170527)
(5.26791 0.196365 -0.00163242)
(5.25824 0.197543 -0.00166409)
(5.24848 0.197086 -0.00164371)
(5.24037 0.199472 -0.00163835)
(5.22477 0.194376 -0.00165992)
(5.2242 0.204595 -0.00162785)
(5.19946 0.183708 -0.00165264)
(5.2098 0.21157 -0.00168682)
(4.51477 0.0441844 -0.00286942)
(4.62913 0.0508258 -0.00358581)
(4.75725 0.0464175 -0.00268074)
(4.92183 0.028907 -0.00320735)
(5.06601 0.0067957 -0.00265172)
(5.20418 -0.0181492 -0.00304875)
(5.31638 -0.0418999 -0.00269435)
(5.41207 -0.0634609 -0.00295312)
(5.49206 -0.0812245 -0.0027211)
(5.55821 -0.0958866 -0.00287486)
(5.61816 -0.10747 -0.00273243)
(5.6672 -0.116783 -0.00281389)
(5.71479 -0.124497 -0.00274027)
(5.75349 -0.130479 -0.00277196)
(5.79252 -0.136408 -0.00275186)
(5.82427 -0.139618 -0.00274625)
(5.85732 -0.146263 -0.00277178)
(5.88076 -0.144882 -0.00273573)
(5.91519 -0.15534 -0.00282083)
(5.9157 -0.150845 -0.00282644)
(4.51588 0.0166268 -0.00216911)
(4.6303 0.0557013 -0.00284035)
(4.75146 0.0912989 -0.00194538)
(4.91006 0.116879 -0.00246324)
(5.05198 0.133182 -0.00190538)
(5.19381 0.144326 -0.00230241)
(5.31443 0.1521 -0.0019506)
(5.42296 0.158847 -0.00221145)
(5.51875 0.164757 -0.00198183)
(5.60322 0.170428 -0.00213633)
(5.68344 0.17537 -0.00199505)
(5.75397 0.179916 -0.00207651)
(5.82476 0.183349 -0.00200368)
(5.88638 0.18681 -0.00203565)
(5.95088 0.188201 -0.00201599)
(6.00481 0.192001 -0.00201171)
(6.06701 0.189182 -0.00203321)
(6.10647 0.198567 -0.00200629)
(6.18166 0.184341 -0.00204007)
(6.18169 0.210878 -0.00207269)
(4.51462 0.0119152 -0.00250199)
(4.62247 -0.00404467 -0.00320224)
(4.74223 -0.0234469 -0.00231479)
(4.89914 -0.0448645 -0.00283851)
(5.0402 -0.0639005 -0.00227924)
(5.18189 -0.0816331 -0.00267469)
(5.30354 -0.0971034 -0.00232051)
(5.41423 -0.110878 -0.00258047)
(5.51351 -0.122441 -0.00234995)
(5.60227 -0.132263 -0.0025043)
(5.68828 -0.140332 -0.00236257)
(5.76463 -0.146927 -0.00244395)
(5.84339 -0.152433 -0.00237086)
(5.91149 -0.156728 -0.00240273)
(5.98664 -0.160574 -0.00238312)
(6.04605 -0.163344 -0.00237863)
(6.12317 -0.165943 -0.00240204)
(6.16386 -0.168593 -0.00237371)
(6.26139 -0.168001 -0.00243566)
(6.25401 -0.176988 -0.0024518)
(4.51462 -0.0119153 -0.00250199)
(4.62247 0.00404494 -0.00320224)
(4.74223 0.0234468 -0.00231479)
(4.89914 0.0448652 -0.00283851)
(5.0402 0.0639005 -0.00227924)
(5.18189 0.0816347 -0.00267469)
(5.30354 0.0971043 -0.0023205)
(5.41423 0.110882 -0.00258047)
(5.51351 0.122445 -0.00234995)
(5.60227 0.132275 -0.0025043)
(5.68827 0.140343 -0.00236256)
(5.76463 0.146963 -0.00244397)
(5.84339 0.15246 -0.00237084)
(5.9115 0.156841 -0.00240279)
(5.98664 0.160636 -0.00238304)
(6.04608 0.163664 -0.00237878)
(6.12319 0.166123 -0.0024017)
(6.16394 0.169379 -0.00237394)
(6.26151 0.168681 -0.00243387)
(6.25424 0.178629 -0.00245201)
(4.51588 -0.0166269 -0.00216911)
(4.6303 -0.055701 -0.00284035)
(4.75146 -0.0912991 -0.00194538)
(4.91006 -0.116878 -0.00246324)
(5.05198 -0.133182 -0.00190538)
(5.19381 -0.144324 -0.00230241)
(5.31443 -0.152099 -0.0019506)
(5.42296 -0.158842 -0.00221144)
(5.51875 -0.164754 -0.00198183)
(5.60322 -0.170416 -0.00213633)
(5.68345 -0.175359 -0.00199505)
(5.75397 -0.179879 -0.0020765)
(5.82478 -0.183324 -0.0020037)
(5.88638 -0.186697 -0.00203561)
(5.95096 -0.188144 -0.00201606)
(6.00482 -0.191685 -0.00201158)
(6.06721 -0.189017 -0.00203349)
(6.10655 -0.197805 -0.00200607)
(6.18208 -0.183714 -0.00204157)
(6.18208 -0.209348 -0.00207248)
(4.51476 -0.0441844 -0.00286942)
(4.62913 -0.0508256 -0.00358581)
(4.75725 -0.0464176 -0.00268074)
(4.92183 -0.0289064 -0.00320736)
(5.06601 -0.00679569 -0.00265172)
(5.20418 0.0181506 -0.00304875)
(5.31638 0.0419009 -0.00269434)
(5.41207 0.0634645 -0.00295313)
(5.49206 0.0812288 -0.0027211)
(5.55822 0.0958965 -0.00287487)
(5.61816 0.107482 -0.00273242)
(5.66724 0.116813 -0.00281392)
(5.7148 0.124526 -0.00274023)
(5.75356 0.130578 -0.00277202)
(5.79258 0.136468 -0.00275174)
(5.82445 0.139906 -0.0027464)
(5.85757 0.146419 -0.00277137)
(5.8812 0.145615 -0.00273597)
(5.91605 0.155917 -0.00281912)
(5.91696 0.152417 -0.00282631)
(4.51874 -0.0458119 -0.00185134)
(4.66351 -0.110437 -0.00245853)
(4.79953 -0.162527 -0.00152932)
(4.95316 -0.190875 -0.00205067)
(5.06566 -0.201272 -0.00150899)
(5.15622 -0.202383 -0.00191746)
(5.2127 -0.19923 -0.00157365)
(5.24843 -0.196243 -0.00183723)
(5.26848 -0.194352 -0.00160925)
(5.27545 -0.194005 -0.00176427)
(5.27838 -0.194501 -0.00162351)
(5.27294 -0.195546 -0.00170528)
(5.26791 -0.196347 -0.0016324)
(5.25843 -0.19745 -0.00166411)
(5.24855 -0.197054 -0.00164368)
(5.24079 -0.199211 -0.00163838)
(5.22513 -0.194289 -0.00165993)
(5.22516 -0.203983 -0.00162788)
(5.2007 -0.183341 -0.00165334)
(5.21214 -0.210498 -0.0016869)
(4.54341 -0.087829 -0.00328578)
(4.68544 -0.119313 -0.00400765)
(4.73219 -0.120458 -0.00304579)
(4.7271 -0.0943117 -0.00356312)
(4.65583 -0.0564157 -0.00301548)
(4.56723 -0.0143604 -0.00341784)
(4.46571 0.023565 -0.00306657)
(4.36734 0.0562831 -0.00332601)
(4.27747 0.081436 -0.00309336)
(4.19227 0.101406 -0.00324699)
(4.12088 0.115974 -0.00310362)
(4.05086 0.127644 -0.003185)
(3.99553 0.136167 -0.00311024)
(3.93869 0.143506 -0.00314121)
(3.89665 0.148767 -0.00311955)
(3.85125 0.153617 -0.00311265)
(3.81954 0.15795 -0.00313899)
(3.78736 0.159392 -0.00309444)
(3.75652 0.166611 -0.00318379)
(3.74684 0.168748 -0.00319635)
(4.38065 -0.0971642 -0.00149413)
(3.97462 -0.149076 -0.00203815)
(3.44473 -0.162954 -0.00108375)
(2.97421 -0.156878 -0.0016264)
(2.56706 -0.145411 -0.00110327)
(2.26845 -0.136913 -0.00151981)
(2.04771 -0.13183 -0.0011764)
(1.89968 -0.131379 -0.00143814)
(1.80098 -0.133708 -0.00120613)
(1.73253 -0.138277 -0.00135874)
(1.69098 -0.143409 -0.00121529)
(1.65518 -0.148958 -0.00129596)
(1.63655 -0.153633 -0.00122175)
(1.61402 -0.158572 -0.00125312)
(1.60427 -0.161333 -0.00123253)
(1.59066 -0.166526 -0.00122719)
(1.57941 -0.164982 -0.00125231)
(1.58732 -0.175143 -0.00121271)
(1.54388 -0.160177 -0.00126287)
(1.63249 -0.169755 -0.00128273)
(4.32671 0.565995 -0.00715696)
(3.08655 0.847487 -0.0046892)
(2.32643 0.869283 -0.00595972)
(1.76278 0.852434 -0.00448376)
(1.62602 0.855161 -0.0056286)
(1.4246 0.86704 -0.00446075)
(1.41926 0.877228 -0.00541638)
(1.30004 0.885555 -0.00443539)
(1.3086 0.890132 -0.00521713)
(1.22526 0.894032 -0.00438875)
(1.23483 0.895985 -0.00502916)
(1.17476 0.898139 -0.00433338)
(1.1828 0.898978 -0.00485886)
(1.13762 0.900454 -0.00427624)