/*--------------------------------*- C++ -*----------------------------------*\
  =========                 |
  \\      /  F ield         | OpenFOAM: The Open Source CFD Toolbox
   \\    /   O peration     | Website:  https://openfoam.org
    \\  /    A nd           | Version:  7
     \\/     M anipulation  |
\*---------------------------------------------------------------------------*/
FoamFile
{
    version     2.0;
    format      ascii;
    class       volVectorField;
    location    "0.0375";
    object      U;
}
// * * * * * * * * * * * * * * * * * * * * * * * * * * * * * * * * * * * * * //

dimensions      [0 1 -1 0 0 0 0];

internalField   nonuniform List<vector> 
1600
(
(0.0530765 0.0428888 0)
(0.0151036 0.00919156 0)
(0.00526672 0.0017346 0)
(0.000399961 -1.67658e-05 0)
(-0.00196562 -0.000340031 0)
(-0.0031409 -0.000317122 0)
(-0.00382266 -0.000222053 0)
(-0.00427207 -0.00013061 0)
(-0.00457573 -6.64081e-05 0)
(-0.00474012 -2.92792e-05 0)
(-0.00474672 -1.57042e-05 0)
(-0.00458117 -2.10231e-05 0)
(-0.0042412 -3.69228e-05 0)
(-0.00373751 -5.71215e-05 0)
(-0.00309386 -7.74288e-05 0)
(-0.00234293 -9.41391e-05 0)
(-0.00152061 -0.000105745 0)
(-0.000661545 -0.000112107 0)
(0.000204108 -0.000113592 0)
(0.00105221 -0.000111089 0)
(0.0018652 -0.00010554 0)
(0.00263165 -9.79726e-05 0)
(0.00334506 -8.92476e-05 0)
(0.00400281 -8.00126e-05 0)
(0.00460503 -7.07273e-05 0)
(0.00515359 -6.16935e-05 0)
(0.00565135 -5.30899e-05 0)
(0.00610169 -4.50089e-05 0)
(0.00650812 -3.74884e-05 0)
(0.0068741 -3.0536e-05 0)
(0.00720299 -2.41471e-05 0)
(0.00749799 -1.832e-05 0)
(0.00776223 -1.3071e-05 0)
(0.00799886 -8.4565e-06 0)
(0.00821129 -4.6291e-06 0)
(0.00840345 -1.98984e-06 0)
(0.00857945 -1.14614e-06 0)
(0.00874493 -1.75955e-06 0)
(0.00892709 -3.53984e-06 0)
(0.00922722 -3.96075e-05 0)
(0.0798197 0.0659827 0)
(0.0520895 0.0322037 0)
(0.032731 0.016018 0)
(0.0194886 0.00799342 0)
(0.0108002 0.00417623 0)
(0.00513207 0.00238045 0)
(0.00132228 0.00150598 0)
(-0.00127614 0.00100873 0)
(-0.00299222 0.000635625 0)
(-0.00398376 0.000283208 0)
(-0.00433411 -7.87652e-05 0)
(-0.00409898 -0.000444334 0)
(-0.00334026 -0.00079107 0)
(-0.00213425 -0.00109455 0)
(-0.00056796 -0.001337 0)
(0.00126267 -0.00150903 0)
(0.00326177 -0.00161025 0)
(0.00534358 -0.00164733 0)
(0.00743586 -0.00163125 0)
(0.00948184 -0.0015748 0)
(0.0114408 -0.00149036 0)
(0.0132863 -0.00138886 0)
(0.0150038 -0.001279 0)
(0.0165876 -0.00116714 0)
(0.0180385 -0.00105759 0)
(0.0193611 -0.000952969 0)
(0.0205624 -0.000854683 0)
(0.0216507 -0.000763305 0)
(0.0226341 -0.000678906 0)
(0.0235211 -0.000601292 0)
(0.0243194 -0.000530182 0)
(0.0250366 -0.00046533 0)
(0.0256798 -0.000406631 0)
(0.0262561 -0.000354241 0)
(0.0267725 -0.000308767 0)
(0.0272367 -0.000271614 0)
(0.0276558 -0.000245453 0)
(0.0280389 -0.000234729 0)
(0.0284214 -0.000245622 0)
(0.0289502 -0.000292681 0)
(0.0938568 0.0691212 0)
(0.075909 0.0512982 0)
(0.0571134 0.0341927 0)
(0.0411718 0.0217199 0)
(0.0287937 0.0138763 0)
(0.0196083 0.0091379 0)
(0.0128989 0.00620586 0)
(0.0080875 0.00421964 0)
(0.00478334 0.0026896 0)
(0.00273249 0.0013697 0)
(0.00176285 0.00016411 0)
(0.0017395 -0.000941302 0)
(0.00253413 -0.00192258 0)
(0.0040135 -0.00274511 0)
(0.00603697 -0.00338327 0)
(0.008461 -0.00382873 0)
(0.0111479 -0.0040892 0)
(0.0139744 -0.00418599 0)
(0.0168369 -0.00414903 0)
(0.0196536 -0.00401111 0)
(0.0223648 -0.0038035 0)
(0.0249309 -0.0035533 0)
(0.0273288 -0.00328204 0)
(0.0295482 -0.00300552 0)
(0.0315881 -0.00273445 0)
(0.0334535 -0.00247543 0)
(0.035153 -0.00223196 0)
(0.036697 -0.00200549 0)
(0.0380965 -0.00179619 0)
(0.0393624 -0.00160354 0)
(0.0405052 -0.00142679 0)
(0.0415348 -0.00126521 0)
(0.0424607 -0.00111833 0)
(0.043292 -0.000986135 0)
(0.0440374 -0.000869326 0)
(0.0447058 -0.000769697 0)
(0.0453049 -0.000690563 0)
(0.0458425 -0.000637039 0)
(0.0463449 -0.000614423 0)
(0.0469978 -0.000638689 0)
(0.0907005 0.072789 0)
(0.0818767 0.0634284 0)
(0.0708141 0.0494551 0)
(0.0581471 0.0357019 0)
(0.045988 0.025407 0)
(0.0355452 0.0181601 0)
(0.0271382 0.0130118 0)
(0.020687 0.00915273 0)
(0.0159967 0.00603936 0)
(0.012861 0.00336112 0)
(0.0110938 0.000975254 0)
(0.0105282 -0.00115428 0)
(0.0110032 -0.00300533 0)
(0.0123537 -0.00453888 0)
(0.0144093 -0.00572601 0)
(0.0169985 -0.00656125 0)
(0.0199566 -0.00706415 0)
(0.0231342 -0.0072749 0)
(0.0264033 -0.00724639 0)
(0.0296607 -0.00703582 0)
(0.0328284 -0.00669788 0)
(0.0358522 -0.00628016 0)
(0.0386981 -0.00582087 0)
(0.0413483 -0.00534844 0)
(0.0437969 -0.00488242 0)
(0.0460463 -0.00443505 0)
(0.0481041 -0.00401312 0)
(0.0499807 -0.00361959 0)
(0.0516877 -0.00325508 0)
(0.053237 -0.00291885 0)
(0.0546402 -0.00260962 0)
(0.0559085 -0.00232607 0)
(0.0570521 -0.00206716 0)
(0.058081 -0.00183244 0)
(0.0590044 -0.00162226 0)
(0.0598313 -0.00143817 0)
(0.0605685 -0.0012832 0)
(0.0612228 -0.00116206 0)
(0.0618094 -0.00107812 0)
(0.0625508 -0.00104978 0)
(0.0981215 0.080515 0)
(0.0915161 0.0721673 0)
(0.0825295 0.0602086 0)
(0.0721023 0.0473757 0)
(0.0611727 0.0365243 0)
(0.0508246 0.0278827 0)
(0.0418243 0.020984 0)
(0.0344664 0.015323 0)
(0.0287893 0.0105138 0)
(0.0247085 0.00629922 0)
(0.0220939 0.00254263 0)
(0.0208027 -0.000793498 0)
(0.0206844 -0.00368576 0)
(0.0215777 -0.00608706 0)
(0.0233107 -0.00796344 0)
(0.0257052 -0.00931089 0)
(0.0285852 -0.010159 0)
(0.0317863 -0.0105658 0)
(0.0351624 -0.0106072 0)
(0.0385917 -0.0103663 0)
(0.0419781 -0.00992353 0)
(0.0452513 -0.00934989 0)
(0.0483637 -0.00870337 0)
(0.0512867 -0.00802797 0)
(0.0540065 -0.00735459 0)
(0.0565201 -0.0067032 0)
(0.0588313 -0.00608533 0)
(0.0609483 -0.00550652 0)
(0.0628817 -0.00496847 0)
(0.0646429 -0.00447061 0)
(0.0662434 -0.00401133 0)
(0.0676942 -0.0035887 0)
(0.0690059 -0.00320103 0)
(0.0701884 -0.00284719 0)
(0.0712507 -0.00252689 0)
(0.0722013 -0.00224091 0)
(0.0730462 -0.00199128 0)
(0.0737918 -0.00178156 0)
(0.0744431 -0.00161381 0)
(0.075255 -0.00151053 0)
(0.0959869 0.0957618 0)
(0.0965546 0.0794489 0)
(0.0904544 0.0681927 0)
(0.0825241 0.0568647 0)
(0.073398 0.04646 0)
(0.064069 0.0372943 0)
(0.0554209 0.0292346 0)
(0.0479154 0.0221103 0)
(0.0417596 0.0157657 0)
(0.0370091 0.0100624 0)
(0.0336361 0.00491324 0)
(0.0315683 0.000303777 0)
(0.0307075 -0.00372269 0)
(0.0309306 -0.00710297 0)
(0.0320893 -0.00978895 0)
(0.03402 -0.0117699 0)
(0.0365517 -0.0130781 0)
(0.039516 -0.0137837 0)
(0.042757 -0.0139823 0)
(0.0461382 -0.0137809 0)
(0.0495473 -0.0132859 0)
(0.0528972 -0.0125933 0)
(0.0561254 -0.011783 0)
(0.0591902 -0.0109174 0)
(0.0620675 -0.0100412 0)
(0.0647462 -0.00918449 0)
(0.0672242 -0.00836531 0)
(0.0695058 -0.00759322 0)
(0.0715986 -0.00687201 0)
(0.0735122 -0.00620196 0)
(0.075257 -0.00558148 0)
(0.0768433 -0.00500828 0)
(0.078281 -0.00448008 0)
(0.0795794 -0.00399502 0)
(0.0807472 -0.00355196 0)
(0.081792 -0.00315068 0)
(0.0827191 -0.00279194 0)
(0.0835353 -0.00247788 0)
(0.0842367 -0.00220977 0)
(0.0851048 -0.00201369 0)
(0.100912 0.102883 0)
(0.10054 0.0843615 0)
(0.0958824 0.0737351 0)
(0.0896556 0.0641622 0)
(0.0824124 0.0547233 0)
(0.0746709 0.0456192 0)
(0.0670697 0.0369774 0)
(0.0600515 0.0288816 0)
(0.0539118 0.0213642 0)
(0.0488298 0.0144074 0)
(0.0448947 0.00799662 0)
(0.0421321 0.00216463 0)
(0.040519 -0.00300592 0)
(0.0399907 -0.00742032 0)
(0.0404454 -0.011002 0)
(0.0417513 -0.0137208 0)
(0.0437564 -0.015601 0)
(0.0463008 -0.0167154 0)
(0.0492269 -0.0171719 0)
(0.05239 -0.0170975 0)
(0.0556649 -0.016622 0)
(0.0589501 -0.0158663 0)
(0.0621677 -0.0149338 0)
(0.0652628 -0.0139067 0)
(0.0681992 -0.0128465 0)
(0.0709564 -0.0117952 0)
(0.073525 -0.0107796 0)
(0.0759035 -0.00981497 0)
(0.0780956 -0.00890833 0)
(0.080108 -0.00806175 0)
(0.081949 -0.00727436 0)
(0.0836274 -0.00654386 0)
(0.085152 -0.00586761 0)
(0.0865314 -0.0052431 0)
(0.0877732 -0.00466837 0)
(0.0888847 -0.00414217 0)
(0.0898701 -0.00366395 0)
(0.0907369 -0.0032344 0)
(0.0914743 -0.00285421 0)
(0.0923838 -0.00255159 0)
(0.101115 0.104917 0)
(0.101255 0.0891448 0)
(0.0982899 0.0782914 0)
(0.0938958 0.0696578 0)
(0.088682 0.0610948 0)
(0.082769 0.0523911 0)
(0.0765436 0.0436906 0)
(0.0703854 0.0351565 0)
(0.064628 0.0269163 0)
(0.0595345 0.0190448 0)
(0.0552902 0.0116048 0)
(0.0520112 0.00469216 0)
(0.0497525 -0.00155743 0)
(0.0485167 -0.00700083 0)
(0.0482584 -0.0115185 0)
(0.048888 -0.0150483 0)
(0.0502846 -0.0175933 0)
(0.052307 -0.0192177 0)
(0.0548058 -0.0200327 0)
(0.0576351 -0.0201778 0)
(0.0606624 -0.0198025 0)
(0.0637747 -0.0190505 0)
(0.0668814 -0.0180486 0)
(0.0699148 -0.0169003 0)
(0.0728271 -0.0156852 0)
(0.0755878 -0.0144595 0)
(0.0781793 -0.0132608 0)
(0.0805939 -0.0121114 0)
(0.0828303 -0.0110233 0)
(0.0848917 -0.0100012 0)
(0.0867836 -0.0090459 0)
(0.0885129 -0.00815555 0)
(0.0900871 -0.00732751 0)
(0.0915135 -0.00655891 0)
(0.0927989 -0.00584708 0)
(0.0939498 -0.00518985 0)
(0.0949698 -0.00458551 0)
(0.095867 -0.0040333 0)
(0.0966255 -0.00353337 0)
(0.0975597 -0.00311478 0)
(0.101464 0.0946377 0)
(0.102763 0.0910027 0)
(0.0999186 0.0815357 0)
(0.0968797 0.0734522 0)
(0.0932561 0.0656492 0)
(0.0888679 0.0575856 0)
(0.0839314 0.0492271 0)
(0.0787324 0.040692 0)
(0.0735727 0.0321372 0)
(0.0687316 0.0236963 0)
(0.0644416 0.0154964 0)
(0.0608806 0.0076959 0)
(0.058165 0.000488997 0)
(0.0563594 -0.00591861 0)
(0.0554753 -0.0113617 0)
(0.05547 -0.0157341 0)
(0.0562613 -0.0190058 0)
(0.0577355 -0.0212202 0)
(0.0597595 -0.0224809 0)
(0.0621938 -0.022932 0)
(0.0649046 -0.0227364 0)
(0.0677722 -0.0220574 0)
(0.0706966 -0.0210435 0)
(0.0735992 -0.01982 0)
(0.0764221 -0.0184852 0)
(0.0791251 -0.0171115 0)
(0.0816829 -0.0157485 0)
(0.084081 -0.0144275 0)
(0.0863134 -0.0131666 0)
(0.088379 -0.0119744 0)
(0.0902806 -0.0108539 0)
(0.0920229 -0.00980469 0)
(0.0936117 -0.00882446 0)
(0.095053 -0.0079103 0)
(0.0963528 -0.0070591 0)
(0.097517 -0.00626794 0)
(0.0985484 -0.00553411 0)
(0.0994557 -0.00485558 0)
(0.10022 -0.00423193 0)
(0.101161 -0.00369223 0)
(0.105827 0.108445 0)
(0.104619 0.0951258 0)
(0.102203 0.0840961 0)
(0.0996724 0.0761802 0)
(0.096713 0.0690091 0)
(0.0932538 0.0615995 0)
(0.089339 0.0537186 0)
(0.0850709 0.0454175 0)
(0.0806322 0.0368356 0)
(0.0762516 0.0281164 0)
(0.0721598 0.0194184 0)
(0.0685604 0.0109457 0)
(0.0656155 0.00294602 0)
(0.0634328 -0.00432001 0)
(0.0620685 -0.0106331 0)
(0.0615328 -0.0158375 0)
(0.0617851 -0.0198611 0)
(0.0627441 -0.0227164 0)
(0.0642997 -0.0244889 0)
(0.0663254 -0.0253176 0)
(0.0686918 -0.0253723 0)
(0.0712779 -0.0248307 0)
(0.0739778 -0.0238608 0)
(0.076705 -0.0226083 0)
(0.0793931 -0.0211912 0)
(0.0819938 -0.0196984 0)
(0.0844745 -0.018193 0)
(0.0868149 -0.0167165 0)
(0.0890036 -0.0152944 0)
(0.0910362 -0.0139402 0)
(0.0929123 -0.0126602 0)
(0.0946345 -0.0114558 0)
(0.0962068 -0.0103256 0)
(0.0976344 -0.00926698 0)
(0.0989223 -0.00827678 0)
(0.100076 -0.00735153 0)
(0.101097 -0.00648774 0)
(0.101995 -0.00568225 0)
(0.10275 -0.00493412 0)
(0.10368 -0.00427206 0)
(0.0977188 0.105725 0)
(0.101839 0.0946929 0)
(0.101826 0.0860552 0)
(0.100677 0.0788491 0)
(0.0984735 0.0719973 0)
(0.0958466 0.0648893 0)
(0.0928838 0.0573338 0)
(0.0895488 0.0493148 0)
(0.0859129 0.0408775 0)
(0.082143 0.0321039 0)
(0.0784467 0.023139 0)
(0.0750284 0.0142084 0)
(0.0720668 0.00559884 0)
(0.0697013 -0.00238842 0)
(0.0680287 -0.00947888 0)
(0.0671003 -0.0154663 0)
(0.0669167 -0.0202316 0)
(0.0674323 -0.0237478 0)
(0.0685637 -0.0260729 0)
(0.0702027 -0.0273319 0)
(0.0722297 -0.0276934 0)
(0.0745264 -0.0273444 0)
(0.0769853 -0.0264684 0)
(0.0795148 -0.0252301 0)
(0.0820422 -0.0237661 0)
(0.0845127 -0.0221826 0)
(0.0868874 -0.0205571 0)
(0.0891406 -0.0189422 0)
(0.0912567 -0.0173717 0)
(0.0932276 -0.0158652 0)
(0.0950505 -0.0144328 0)
(0.0967259 -0.0130784 0)
(0.0982565 -0.0118022 0)
(0.0996463 -0.0106023 0)
(0.1009 -0.00947552 0)
(0.102022 -0.00841818 0)
(0.103014 -0.00742625 0)
(0.103887 -0.00649567 0)
(0.104618 -0.00562501 0)
(0.105521 -0.00484251 0)
(0.0971626 0.104794 0)
(0.0967225 0.0925287 0)
(0.0977857 0.0856331 0)
(0.0984467 0.0798287 0)
(0.0979013 0.0737057 0)
(0.0966553 0.0670429 0)
(0.0948514 0.0599062 0)
(0.0925073 0.0522918 0)
(0.0897144 0.0441574 0)
(0.086634 0.0355137 0)
(0.0834577 0.0264795 0)
(0.0803781 0.0172867 0)
(0.0775735 0.00824592 0)
(0.0751985 -0.000306797 0)
(0.0733778 -0.00805599 0)
(0.0721971 -0.0147483 0)
(0.0716934 -0.0202152 0)
(0.0718554 -0.0243844 0)
(0.0726283 -0.0272785 0)
(0.0739249 -0.0290003 0)
(0.0756393 -0.0297097 0)
(0.07766 -0.0295966 0)
(0.0798808 -0.0288562 0)
(0.0822084 -0.0276692 0)
(0.0845655 -0.0261901 0)
(0.0868923 -0.0245419 0)
(0.0891449 -0.0228169 0)
(0.0912931 -0.0210798 0)
(0.0933175 -0.0193735 0)
(0.095207 -0.0177243 0)
(0.0969566 -0.016147 0)
(0.0985652 -0.0146487 0)
(0.100035 -0.0132315 0)
(0.101368 -0.0118944 0)
(0.102569 -0.0106348 0)
(0.103643 -0.00944896 0)
(0.104591 -0.00833247 0)
(0.105424 -0.00728056 0)
(0.106121 -0.00629143 0)
(0.106981 -0.00539267 0)
(0.0941842 0.102927 0)
(0.0950901 0.0914042 0)
(0.0964052 0.0842908 0)
(0.0973758 0.0792701 0)
(0.0975772 0.0739367 0)
(0.0971836 0.067968 0)
(0.0961815 0.0614648 0)
(0.0945852 0.054403 0)
(0.0924999 0.0466906 0)
(0.0900679 0.0383023 0)
(0.0874439 0.0293444 0)
(0.0847863 0.0200512 0)
(0.0822537 0.0107436 0)
(0.0800006 0.00177638 0)
(0.0781654 -0.00650561 0)
(0.0768575 -0.0138086 0)
(0.0761446 -0.0199161 0)
(0.0760455 -0.0247082 0)
(0.076533 -0.0281666 0)
(0.0775422 -0.0303651 0)
(0.0789832 -0.031448 0)
(0.080754 -0.0316023 0)
(0.082753 -0.03103 0)
(0.0848869 -0.0299248 0)
(0.0870761 -0.0284572 0)
(0.0892571 -0.0267666 0)
(0.0913819 -0.0249599 0)
(0.0934165 -0.0231147 0)
(0.0953384 -0.0212835 0)
(0.0971342 -0.0195004 0)
(0.0987971 -0.0177853 0)
(0.100325 -0.016149 0)
(0.101719 -0.0145958 0)
(0.102981 -0.0131263 0)
(0.104116 -0.0117385 0)
(0.105129 -0.0104287 0)
(0.106021 -0.00919246 0)
(0.106803 -0.00802436 0)
(0.107455 -0.00692229 0)
(0.10826 -0.00591292 0)
(0.101606 0.0990021 0)
(0.099289 0.0901525 0)
(0.0980447 0.084005 0)
(0.0980078 0.0789941 0)
(0.0981255 0.0738504 0)
(0.0979559 0.0683794 0)
(0.0973012 0.0624561 0)
(0.0961581 0.0559165 0)
(0.094608 0.0486159 0)
(0.0927417 0.0405146 0)
(0.0906527 0.0317121 0)
(0.0884479 0.0224348 0)
(0.0862534 0.0129955 0)
(0.0842104 0.00375009 0)
(0.082461 -0.0049425 0)
(0.0811286 -0.0127562 0)
(0.0803029 -0.0194314 0)
(0.0800279 -0.0248006 0)
(0.0803012 -0.028802 0)
(0.0810799 -0.0314755 0)
(0.0822911 -0.0329442 0)
(0.0838447 -0.0333865 0)
(0.0856453 -0.033006 0)
(0.0876016 -0.0320063 0)
(0.0896331 -0.0305714 0)
(0.0916736 -0.0288562 0)
(0.093672 -0.0269823 0)
(0.0955911 -0.0250401 0)
(0.097406 -0.023093 0)
(0.0991012 -0.0211829 0)
(0.100669 -0.0193358 0)
(0.102106 -0.0175666 0)
(0.103414 -0.0158824 0)
(0.104595 -0.0142853 0)
(0.105653 -0.0127741 0)
(0.106594 -0.0113456 0)
(0.107421 -0.00999516 0)
(0.108143 -0.00871694 0)
(0.108743 -0.00750847 0)
(0.109481 -0.00639497 0)
(0.100613 0.10193 0)
(0.0984532 0.0929173 0)
(0.0989907 0.0850358 0)
(0.0991113 0.0790371 0)
(0.09907 0.0738436 0)
(0.0987855 0.0687095 0)
(0.0982108 0.0631989 0)
(0.0973534 0.0570325 0)
(0.0962364 0.050047 0)
(0.0948759 0.0422032 0)
(0.093295 0.0335899 0)
(0.0915466 0.0244083 0)
(0.0897215 0.0149445 0)
(0.0879432 0.00553706 0)
(0.0863495 -0.0034536 0)
(0.0850704 -0.0116796 0)
(0.0842097 -0.0188441 0)
(0.083831 -0.0247349 0)
(0.0839532 -0.0292463 0)
(0.0845543 -0.0323813 0)
(0.0855789 -0.0342372 0)
(0.0869494 -0.0349785 0)
(0.0885781 -0.0348061 0)
(0.0903769 -0.0339289 0)
(0.0922654 -0.0325428 0)
(0.0941754 -0.0308163 0)
(0.0960531 -0.0288858 0)
(0.0978589 -0.0268548 0)
(0.0995658 -0.0247978 0)
(0.101157 -0.0227656 0)
(0.102624 -0.0207908 0)
(0.103964 -0.0188927 0)
(0.105178 -0.0170816 0)
(0.106269 -0.0153614 0)
(0.107242 -0.0137319 0)
(0.108102 -0.0121903 0)
(0.108855 -0.0107317 0)
(0.10951 -0.00935002 0)
(0.110051 -0.0080424 0)
(0.110713 -0.00683173 0)
(0.096015 0.100292 0)
(0.0983448 0.0898908 0)
(0.0996412 0.0837386 0)
(0.100074 0.0787667 0)
(0.0998745 0.0740281 0)
(0.0994012 0.0691466 0)
(0.0988618 0.0638215 0)
(0.0982604 0.0578285 0)
(0.0975458 0.051035 0)
(0.0966574 0.0434028 0)
(0.0955568 0.0349936 0)
(0.094252 0.0259659 0)
(0.0928044 0.0165617 0)
(0.0913192 0.00708949 0)
(0.0899258 -0.00209979 0)
(0.0887546 -0.0106454 0)
(0.0879171 -0.0182203 0)
(0.0874913 -0.0245722 0)
(0.0875145 -0.029553 0)
(0.0879837 -0.0331278 0)
(0.0888605 -0.0353643 0)
(0.0900804 -0.0364085 0)
(0.0915638 -0.0364538 0)
(0.0932265 -0.0357112 0)
(0.0949885 -0.0343848 0)
(0.09678 -0.0326562 0)
(0.098545 -0.0306757 0)
(0.100242 -0.0285604 0)
(0.101841 -0.0263967 0)
(0.103327 -0.0242448 0)
(0.104689 -0.0221445 0)
(0.105925 -0.0201203 0)
(0.107038 -0.0181856 0)
(0.108031 -0.0163464 0)
(0.108911 -0.0146036 0)
(0.109684 -0.0129545 0)
(0.110356 -0.0113944 0)
(0.110936 -0.00991654 0)
(0.111413 -0.00851751 0)
(0.11199 -0.00721703 0)
(0.10115 0.101289 0)
(0.100908 0.0893216 0)
(0.101855 0.0832317 0)
(0.101258 0.0789934 0)
(0.100408 0.0745559 0)
(0.0997376 0.06968 0)
(0.0993031 0.06429 0)
(0.099003 0.0582917 0)
(0.0986957 0.0515931 0)
(0.0982562 0.0441398 0)
(0.0976044 0.0359478 0)
(0.0967196 0.0271183 0)
(0.0956416 0.0178398 0)
(0.094459 0.0083825 0)
(0.0932901 -0.000919129 0)
(0.092261 -0.0096994 0)
(0.0914864 -0.0176084 0)
(0.0910546 -0.0243596 0)
(0.0910187 -0.0297657 0)
(0.0913929 -0.0337535 0)
(0.092155 -0.0363589 0)
(0.0932532 -0.0377049 0)
(0.0946162 -0.037973 0)
(0.0961634 -0.0373719 0)
(0.0978153 -0.036112 0)
(0.0995007 -0.034386 0)
(0.101161 -0.0323582 0)
(0.102753 -0.0301596 0)
(0.104246 -0.027889 0)
(0.105623 -0.0256173 0)
(0.106876 -0.0233919 0)
(0.108003 -0.0212428 0)
(0.109008 -0.019187 0)
(0.109896 -0.0172326 0)
(0.110675 -0.0153814 0)
(0.111352 -0.013631 0)
(0.111936 -0.0119763 0)
(0.112435 -0.0104099 0)
(0.112841 -0.00892785 0)
(0.113326 -0.00754535 0)
(0.110878 0.0965698 0)
(0.106351 0.0888141 0)
(0.10405 0.0840221 0)
(0.101708 0.0800976 0)
(0.100346 0.0754649 0)
(0.0997392 0.0702004 0)
(0.0996076 0.0645035 0)
(0.0997064 0.0583791 0)
(0.0998268 0.0517267 0)
(0.0998159 0.0444433 0)
(0.0995802 0.0364839 0)
(0.0990871 0.0278869 0)
(0.0983621 0.0187853 0)
(0.0974789 0.00940815 0)
(0.0965431 6.8705e-05 0)
(0.0956737 -0.00886921 0)
(0.0949857 -0.0170405 0)
(0.0945753 -0.0241308 0)
(0.0945088 -0.0299174 0)
(0.0948162 -0.0342896 0)
(0.0954903 -0.0372492 0)
(0.0964915 -0.0388928 0)
(0.0977557 -0.039385 0)
(0.0992061 -0.038929 0)
(0.100763 -0.0377382 0)
(0.102353 -0.0360157 0)
(0.103916 -0.0339391 0)
(0.105406 -0.0316543 0)
(0.106792 -0.0292737 0)
(0.108057 -0.0268792 0)
(0.109194 -0.024527 0)
(0.110204 -0.0222529 0)
(0.111091 -0.0200778 0)
(0.111865 -0.0180117 0)
(0.112534 -0.0160572 0)
(0.113108 -0.0142119 0)
(0.113596 -0.0124701 0)
(0.114007 -0.0108238 0)
(0.114338 -0.00926769 0)
(0.114722 -0.00781161 0)
(0.10912 0.0987166 0)
(0.103715 0.0933357 0)
(0.101605 0.0869107 0)
(0.0997749 0.0817653 0)
(0.0991286 0.0761975 0)
(0.0992695 0.0702702 0)
(0.0997964 0.064217 0)
(0.100444 0.0579921 0)
(0.101031 0.0514197 0)
(0.10144 0.0443326 0)
(0.101596 0.0366296 0)
(0.10147 0.028295 0)
(0.101079 0.0194117 0)
(0.100485 0.0101696 0)
(0.0997801 0.000857631 0)
(0.0990765 -0.00816841 0)
(0.0984876 -0.0165355 0)
(0.0981157 -0.0239079 0)
(0.0980383 -0.0300316 0)
(0.0982998 -0.0347598 0)
(0.0989068 -0.0380581 0)
(0.0998305 -0.0399931 0)
(0.101014 -0.0407086 0)
(0.102382 -0.0403978 0)
(0.103856 -0.0392753 0)
(0.105359 -0.0375529 0)
(0.106827 -0.0354221 0)
(0.108215 -0.0330444 0)
(0.10949 -0.030547 0)
(0.110636 -0.0280242 0)
(0.111648 -0.0255416 0)
(0.11253 -0.0231414 0)
(0.11329 -0.0208482 0)
(0.113939 -0.0186739 0)
(0.114488 -0.0166217 0)
(0.114949 -0.0146887 0)
(0.115332 -0.0128685 0)
(0.115648 -0.0111516 0)
(0.115897 -0.00953134 0)
(0.116173 -0.00801108 0)
(0.101641 0.0981756 0)
(0.0984123 0.093949 0)
(0.0973692 0.0883117 0)
(0.0972152 0.0822751 0)
(0.0978434 0.0758671 0)
(0.0989474 0.0694668 0)
(0.100197 0.0632591 0)
(0.101391 0.0570818 0)
(0.102423 0.0506759 0)
(0.103224 0.0438302 0)
(0.103745 0.0364108 0)
(0.103961 0.0283652 0)
(0.103885 0.0197359 0)
(0.103567 0.0106766 0)
(0.103087 0.00144976 0)
(0.10255 -0.0076018 0)
(0.102067 -0.0161039 0)
(0.101745 -0.0237055 0)
(0.101672 -0.0301254 0)
(0.101903 -0.0351819 0)
(0.102459 -0.0388032 0)
(0.10332 -0.0410223 0)
(0.104436 -0.0419579 0)
(0.105733 -0.0417899 0)
(0.10713 -0.0407311 0)
(0.108548 -0.0390012 0)
(0.109921 -0.0368066 0)
(0.1112 -0.0343254 0)
(0.112355 -0.0317014 0)
(0.11337 -0.0290424 0)
(0.114245 -0.0264243 0)
(0.114985 -0.0238961 0)
(0.115603 -0.0214861 0)
(0.116113 -0.0192078 0)
(0.11653 -0.0170643 0)
(0.116867 -0.015052 0)
(0.117136 -0.013163 0)
(0.117349 -0.0113862 0)
(0.117509 -0.00971306 0)
(0.117672 -0.00813929 0)
(0.100305 0.0899279 0)
(0.0956354 0.0951283 0)
(0.094951 0.0890851 0)
(0.0958514 0.0817268 0)
(0.0974146 0.0745739 0)
(0.0992146 0.0679199 0)
(0.101006 0.0617399 0)
(0.102642 0.0557233 0)
(0.104061 0.0495432 0)
(0.105221 0.0429689 0)
(0.106084 0.0358532 0)
(0.106625 0.0281186 0)
(0.106849 0.0197741 0)
(0.106797 0.0109391 0)
(0.106539 0.00184846 0)
(0.106172 -0.00717239 0)
(0.105804 -0.0157538 0)
(0.105543 -0.0235352 0)
(0.105487 -0.0302123 0)
(0.105702 -0.0355698 0)
(0.106218 -0.0394978 0)
(0.107028 -0.0419921 0)
(0.108083 -0.0431423 0)
(0.109313 -0.0431111 0)
(0.110633 -0.0421072 0)
(0.111962 -0.0403582 0)
(0.11323 -0.0380858 0)
(0.114388 -0.0354869 0)
(0.115405 -0.0327234 0)
(0.116272 -0.0299185 0)
(0.116989 -0.027159 0)
(0.117568 -0.0245008 0)
(0.118027 -0.021976 0)
(0.118382 -0.0195991 0)
(0.118652 -0.0173724 0)
(0.118852 -0.0152909 0)
(0.118997 -0.0133446 0)
(0.119098 -0.0115203 0)
(0.119165 -0.00980708 0)
(0.119206 -0.00819213 0)
(0.0905419 0.103687 0)
(0.0894238 0.096525 0)
(0.0917395 0.0872744 0)
(0.094766 0.0794737 0)
(0.0974724 0.0722789 0)
(0.0999156 0.0657452 0)
(0.102154 0.0597673 0)
(0.104168 0.0539825 0)
(0.105941 0.0480573 0)
(0.107443 0.0417701 0)
(0.108636 0.034972 0)
(0.109494 0.0275668 0)
(0.110016 0.0195334 0)
(0.110233 0.0109591 0)
(0.110206 0.00205014 0)
(0.110021 -0.00688871 0)
(0.109782 -0.0154972 0)
(0.109599 -0.0234104 0)
(0.109575 -0.0303055 0)
(0.109787 -0.0359356 0)
(0.110275 -0.0401515 0)
(0.111038 -0.042909 0)
(0.112034 -0.0442643 0)
(0.113193 -0.0443593 0)
(0.114426 -0.043397 0)
(0.11565 -0.0416124 0)
(0.116793 -0.039244 0)
(0.117805 -0.0365097 0)
(0.11866 -0.0335917 0)
(0.119351 -0.0306301 0)
(0.119884 -0.0277234 0)
(0.120278 -0.0249347 0)
(0.120555 -0.022299 0)
(0.120735 -0.0198309 0)
(0.120841 -0.0175316 0)
(0.120891 -0.0153933 0)
(0.120901 -0.0134036 0)
(0.120881 -0.0115462 0)
(0.120847 -0.0098077 0)
(0.120762 -0.00816595 0)
(0.0852434 0.099048 0)
(0.0873547 0.0898204 0)
(0.0923209 0.0827799 0)
(0.0959352 0.0762452 0)
(0.0987009 0.0695402 0)
(0.101256 0.0632649 0)
(0.103696 0.0574966 0)
(0.10598 0.0519249 0)
(0.108062 0.0462431 0)
(0.10989 0.0402425 0)
(0.111412 0.0337694 0)
(0.112594 0.0267069 0)
(0.113427 0.0190058 0)
(0.113932 0.0107234 0)
(0.114157 0.00203769 0)
(0.114179 -0.00676998 0)
(0.114095 -0.0153535 0)
(0.114014 -0.0233495 0)
(0.114043 -0.0304205 0)
(0.114266 -0.0362907 0)
(0.114734 -0.0407709 0)
(0.115453 -0.0437736 0)
(0.116384 -0.0453182 0)
(0.117455 -0.0455225 0)
(0.118579 -0.0445819 0)
(0.119668 -0.0427397 0)
(0.120652 -0.040253 0)
(0.121482 -0.0373631 0)
(0.122136 -0.0342748 0)
(0.122614 -0.0311463 0)
(0.122929 -0.0280886 0)
(0.123107 -0.0251714 0)
(0.123174 -0.0224319 0)
(0.123157 -0.0198838 0)
(0.12308 -0.0175255 0)
(0.122965 -0.0153461 0)
(0.122827 -0.0133294 0)
(0.122678 -0.0114561 0)
(0.122537 -0.0097095 0)
(0.122321 -0.00805783 0)
(0.0909545 0.0900562 0)
(0.0885738 0.0836613 0)
(0.0933154 0.0788511 0)
(0.0970521 0.073243 0)
(0.100037 0.0668328 0)
(0.102809 0.0606753 0)
(0.105477 0.0550118 0)
(0.10803 0.0495877 0)
(0.110417 0.0441158 0)
(0.11257 0.0383879 0)
(0.114431 0.032236 0)
(0.115957 0.0255206 0)
(0.117131 0.0181663 0)
(0.117959 0.0102029 0)
(0.118473 0.00178 0)
(0.118739 -0.00684711 0)
(0.118844 -0.0153519 0)
(0.118897 -0.0233777 0)
(0.119004 -0.0305774 0)
(0.119258 -0.0366479 0)
(0.119715 -0.0413596 0)
(0.120385 -0.0445799 0)
(0.121233 -0.0462879 0)
(0.122189 -0.0465748 0)
(0.123164 -0.0456282 0)
(0.124071 -0.0437003 0)
(0.124843 -0.0410693 0)
(0.125438 -0.0380024 0)
(0.125839 -0.0347291 0)
(0.126055 -0.0314265 0)
(0.126109 -0.0282181 0)
(0.126033 -0.0251793 0)
(0.12586 -0.0223479 0)
(0.125621 -0.0197356 0)
(0.125342 -0.0173366 0)
(0.125046 -0.0151355 0)
(0.12475 -0.013112 0)
(0.124462 -0.0112428 0)
(0.12421 -0.00950777 0)
(0.12386 -0.00786581 0)
(0.0946141 0.0765926 0)
(0.0923259 0.0791611 0)
(0.0956634 0.076124 0)
(0.0988192 0.0705476 0)
(0.101759 0.064102 0)
(0.104641 0.0579365 0)
(0.107507 0.052304 0)
(0.110321 0.046976 0)
(0.113012 0.0416784 0)
(0.115504 0.0361978 0)
(0.11773 0.03035 0)
(0.119638 0.0239755 0)
(0.121194 0.0169764 0)
(0.122388 0.00935643 0)
(0.123238 0.00123577 0)
(0.123792 -0.00716051 0)
(0.124131 -0.01553 0)
(0.124356 -0.0235279 0)
(0.124576 -0.0308009 0)
(0.124883 -0.037021 0)
(0.125334 -0.0419182 0)
(0.125945 -0.0453133 0)
(0.12668 -0.0471435 0)
(0.127473 -0.0474732 0)
(0.128238 -0.0464825 0)
(0.128894 -0.0444345 0)
(0.129382 -0.0416308 0)
(0.129669 -0.0383668 0)
(0.129751 -0.0348977 0)
(0.129646 -0.03142 0)
(0.129389 -0.0280683 0)
(0.129018 -0.024922 0)
(0.128571 -0.022018 0)
(0.128084 -0.0193635 0)
(0.127584 -0.0169474 0)
(0.127093 -0.0147488 0)
(0.126629 -0.0127422 0)
(0.126198 -0.0109002 0)
(0.12583 -0.00919909 0)
(0.125346 -0.00758927 0)
(0.098288 0.0840893 0)
(0.0938336 0.0759225 0)
(0.0962961 0.0725911 0)
(0.0995806 0.0673361 0)
(0.103014 0.0610298 0)
(0.106342 0.0549017 0)
(0.109587 0.0493014 0)
(0.112764 0.0440511 0)
(0.115827 0.0388995 0)
(0.118714 0.0336361 0)
(0.121359 0.0280689 0)
(0.1237 0.0220249 0)
(0.12569 0.0153877 0)
(0.1273 0.00813543 0)
(0.128532 0.000356324 0)
(0.129423 -0.00775796 0)
(0.130044 -0.0159331 0)
(0.130489 -0.0238394 0)
(0.130857 -0.0311203 0)
(0.131238 -0.037424 0)
(0.131686 -0.0424413 0)
(0.132214 -0.0459469 0)
(0.132789 -0.0478377 0)
(0.133349 -0.0481531 0)
(0.133819 -0.0470682 0)
(0.134131 -0.0448597 0)
(0.13424 -0.0418551 0)
(0.13413 -0.0383788 0)
(0.133813 -0.0347117 0)
(0.133321 -0.031068 0)
(0.132698 -0.0275909 0)
(0.131989 -0.0243615 0)
(0.131238 -0.0214129 0)
(0.13048 -0.018746 0)
(0.129743 -0.0163428 0)
(0.129048 -0.0141755 0)
(0.12841 -0.0122135 0)
(0.127832 -0.0104247 0)
(0.127349 -0.00878215 0)
(0.126733 -0.00722944 0)
(0.106714 0.095567 0)
(0.100818 0.0815162 0)
(0.098665 0.0712661 0)
(0.100793 0.0639586 0)
(0.104314 0.0573676 0)
(0.108032 0.0513173 0)
(0.111723 0.0458292 0)
(0.115353 0.0406936 0)
(0.118883 0.0356885 0)
(0.122251 0.030628 0)
(0.125387 0.0253286 0)
(0.128221 0.0196132 0)
(0.130692 0.0133501 0)
(0.132762 0.00649146 0)
(0.134423 -0.000907563 0)
(0.1357 -0.0086896 0)
(0.136651 -0.0166098 0)
(0.137359 -0.0243544 0)
(0.13791 -0.0315643 0)
(0.13838 -0.0378655 0)
(0.138812 -0.0429118 0)
(0.139213 -0.0464361 0)
(0.139556 -0.0483003 0)
(0.139787 -0.0485241 0)
(0.139849 -0.0472829 0)
(0.139698 -0.0448704 0)
(0.139315 -0.041641 0)
(0.138706 -0.0379476 0)
(0.137904 -0.0340937 0)
(0.136955 -0.0303078 0)
(0.135914 -0.0267379 0)
(0.134831 -0.0234625 0)
(0.133751 -0.020508 0)
(0.132707 -0.0178669 0)
(0.131726 -0.0155126 0)
(0.130823 -0.0134104 0)
(0.130012 -0.0115236 0)
(0.129289 -0.00981657 0)
(0.128694 -0.00825882 0)
(0.127954 -0.00679006 0)
(0.0887502 0.0904407 0)
(0.0939028 0.0817065 0)
(0.0974463 0.0694101 0)
(0.101624 0.0603475 0)
(0.105739 0.0533014 0)
(0.109866 0.04727 0)
(0.114025 0.0418683 0)
(0.118182 0.036827 0)
(0.122271 0.0319549 0)
(0.126207 0.0270924 0)
(0.129902 0.0220648 0)
(0.133276 0.0166901 0)
(0.136267 0.0108206 0)
(0.138831 0.00438314 0)
(0.140955 -0.00259918 0)
(0.142656 -0.0100013 0)
(0.143977 -0.0176045 0)
(0.14498 -0.0251088 0)
(0.145729 -0.0321513 0)
(0.146278 -0.0383378 0)
(0.146653 -0.0432905 0)
(0.146853 -0.0467096 0)
(0.146856 -0.0484317 0)
(0.146629 -0.0484672 0)
(0.146145 -0.0469988 0)
(0.145395 -0.0443409 0)
(0.144395 -0.0408741 0)
(0.143181 -0.0369756 0)
(0.141811 -0.0329662 0)
(0.140346 -0.0290815 0)
(0.138847 -0.0254687 0)
(0.137367 -0.022199 0)
(0.135947 -0.0192887 0)
(0.134616 -0.0167198 0)
(0.133395 -0.0144563 0)
(0.132292 -0.0124562 0)
(0.131317 -0.0106777 0)
(0.13046 -0.00908164 0)
(0.129761 -0.00763539 0)
(0.128911 -0.00627799 0)
(0.0904676 0.0948077 0)
(0.0959715 0.0764607 0)
(0.0991461 0.0646446 0)
(0.103358 0.0559929 0)
(0.107545 0.0489665 0)
(0.111947 0.0428914 0)
(0.116599 0.0374352 0)
(0.121371 0.0323944 0)
(0.126116 0.0276211 0)
(0.130695 0.0229613 0)
(0.134998 0.0182276 0)
(0.138944 0.0132201 0)
(0.142472 0.00777064 0)
(0.145545 0.0017814 0)
(0.148148 -0.00474947 0)
(0.150288 -0.0117239 0)
(0.151987 -0.0189427 0)
(0.153281 -0.0261138 0)
(0.154203 -0.032869 0)
(0.154773 -0.0387976 0)
(0.155 -0.0434999 0)
(0.154876 -0.046657 0)
(0.154392 -0.0480969 0)
(0.153547 -0.0478343 0)
(0.152358 -0.0460681 0)
(0.150864 -0.0431353 0)
(0.149125 -0.0394389 0)
(0.147216 -0.0353727 0)
(0.145214 -0.0312643 0)
(0.143196 -0.0273478 0)
(0.141224 -0.0237613 0)
(0.139348 -0.0205636 0)
(0.137599 -0.0177578 0)
(0.136 -0.0153138 0)
(0.134559 -0.0131865 0)
(0.133278 -0.0113271 0)
(0.132159 -0.00968965 0)
(0.131186 -0.0082332 0)
(0.1304 -0.00692372 0)
(0.12946 -0.00570382 0)
(0.104477 0.0983926 0)
(0.102648 0.0751438 0)
(0.103716 0.0617801 0)
(0.106186 0.0524626 0)
(0.109845 0.0448062 0)
(0.114466 0.0382117 0)
(0.119688 0.0324273 0)
(0.125162 0.0272807 0)
(0.130623 0.0225992 0)
(0.135877 0.0181789 0)
(0.140801 0.0137864 0)
(0.145314 0.00918893 0)
(0.149367 0.00419429 0)
(0.152931 -0.00131475 0)
(0.155988 -0.00735754 0)
(0.158531 -0.0138508 0)
(0.160559 -0.0206045 0)
(0.16207 -0.0273277 0)
(0.16306 -0.0336464 0)
(0.163518 -0.0391405 0)
(0.163431 -0.0434036 0)
(0.162798 -0.0461179 0)
(0.161634 -0.0471232 0)
(0.159986 -0.0464547 0)
(0.157929 -0.0443356 0)
(0.15556 -0.0411246 0)
(0.15299 -0.0372386 0)
(0.150328 -0.0330745 0)
(0.147673 -0.0289539 0)
(0.145105 -0.0250967 0)
(0.142683 -0.0216238 0)
(0.140444 -0.0185763 0)
(0.138409 -0.0159419 0)
(0.136582 -0.0136786 0)
(0.134962 -0.0117328 0)
(0.133541 -0.010051 0)
(0.132311 -0.00858478 0)
(0.131251 -0.00729308 0)
(0.1304 -0.00614203 0)
(0.129396 -0.00508206 0)
(0.0982483 0.0823067 0)