/*--------------------------------*- C++ -*----------------------------------*\
  =========                 |
  \\      /  F ield         | OpenFOAM: The Open Source CFD Toolbox
   \\    /   O peration     | Website:  https://openfoam.org
    \\  /    A nd           | Version:  7
     \\/     M anipulation  |
\*---------------------------------------------------------------------------*/
FoamFile
{
    version     2.0;
    format      ascii;
    class       surfaceScalarField;
    location    "1.445";
    object      phi;
}
// * * * * * * * * * * * * * * * * * * * * * * * * * * * * * * * * * * * * * //

dimensions      [1 0 -1 0 0 0 0];

internalField   nonuniform List<scalar> 
13265
(
0.00259546
0.00108769
1.34445e-05
0.00198951
0.000597675
6.87042e-06
0.00159441
0.000382076
1.1653e-05
0.00139062
0.000195327
7.14029e-06
0.00126952
0.000108788
1.10116e-05
0.00119514
6.56995e-05
7.38807e-06
0.001141
4.23989e-05
1.04639e-05
0.00110154
3.07005e-05
7.47623e-06
0.00106802
2.22895e-05
9.93754e-06
0.00104184
1.73869e-05
7.48665e-06
0.00101799
1.30624e-05
9.46509e-06
0.000998959
1.0237e-05
7.45718e-06
0.000981038
7.52801e-06
9.04446e-06
0.000966326
5.95697e-06
7.39855e-06
0.000952206
4.0938e-06
8.66521e-06
0.000939514
4.01293e-06
7.31721e-06
0.000922772
7.05282e-06
8.33061e-06
0.000917509
-3.29807e-06
7.20893e-06
0.000813621
9.43173e-05
8.22693e-06
6.16353e-05
6.78376e-06
0.000743863
0.00386233
0.000918196
3.22811e-06
0.00381664
0.000644709
-2.76505e-06
0.00367231
0.000523248
1.80884e-06
0.00352304
0.000346035
-2.70478e-06
0.00338755
0.000241956
1.15055e-06
0.00327638
0.000178243
-2.49165e-06
0.00318119
0.000135927
5.80833e-07
0.00310413
0.00010911
-2.41425e-06
0.0030367
8.86054e-05
4.71497e-08
0.00298169
7.3714e-05
-2.40663e-06
0.00293234
6.17087e-05
-4.29486e-07
0.0028914
5.24165e-05
-2.43649e-06
0.00285448
4.40706e-05
-8.57724e-07
0.0028224
3.92423e-05
-2.49249e-06
0.00279619
3.02446e-05
-1.25895e-06
0.00276891
3.25298e-05
-2.56733e-06
0.00276028
1.60216e-05
-1.68687e-06
0.00273404
2.42984e-05
-2.69941e-06
0.00281669
1.2684e-05
-2.3365e-06
-3.6333e-05
-3.68421e-06
0.00291703
0.00408202
0.000521038
1.15649e-05
0.00432567
0.000393389
6.23955e-06
0.00447454
0.000362371
1.06392e-05
0.00455063
0.000262522
6.1473e-06
0.00458076
0.000200673
9.98432e-06
0.00459299
0.000158566
6.36453e-06
0.00459023
0.000128193
9.45369e-06
0.00458444
0.000107433
6.47539e-06
0.00457242
9.07092e-05
8.94559e-06
0.00456122
7.74607e-05
6.50001e-06
0.00454647
6.7001e-05
8.48364e-06
0.00453415
5.72376e-05
6.47774e-06
0.00451838
5.06604e-05
8.07182e-06
0.00450721
4.2803e-05
6.42241e-06
0.00448898
3.94906e-05
7.70952e-06
0.00448082
3.30124e-05
6.34223e-06
0.00445251
3.55068e-05
7.43938e-06
0.00444133
2.77868e-05
6.24793e-06
0.00438449
6.04738e-05
7.58724e-06
5.91515e-05
6.12648e-06
0.00428138
0.00403787
0.000176385
2.801e-06
0.00429743
0.000134907
-2.51127e-06
0.00452933
0.000127285
1.81153e-06
0.00469859
9.46931e-05
-2.70536e-06
0.00482273
7.42634e-05
1.10905e-06
0.00492189
6.08573e-05
-2.54023e-06
0.00499739
5.1121e-05
5.39543e-07
0.0050616
4.46734e-05
-2.45301e-06
0.00511224
3.90957e-05
1.36013e-08
0.00515632
3.48927e-05
-2.43789e-06
0.00519202
3.0838e-05
-4.59718e-07
0.00522277
2.80099e-05
-2.464e-06
0.00524906
2.42432e-05
-8.87996e-07
0.00526999
2.32785e-05
-2.51868e-06
0.00529186
1.77178e-05
-1.29749e-06
0.00530571
2.04643e-05
-2.60237e-06
0.00533289
8.73012e-06
-1.76994e-06
0.00534716
1.48673e-05
-2.8002e-06
0.00541352
-4.70986e-06
-2.67278e-06
-2.2114e-05
-3.75475e-06
0.00549695
0.00403786
-0.000176385
1.13044e-05
0.0042999
-0.000134907
6.34202e-06
0.00454248
-0.000127285
1.06152e-05
0.00472445
-9.46918e-05
6.13967e-06
0.00486186
-7.42628e-05
9.95118e-06
0.00497616
-6.08543e-05
6.32785e-06
0.00506795
-5.11186e-05
9.41878e-06
0.00514984
-4.46666e-05
6.44247e-06
0.00521814
-3.9086e-05
8.91569e-06
0.00528052
-3.48759e-05
6.47203e-06
0.0053328
-3.08064e-05
8.45727e-06
0.00538139
-2.79588e-05
6.45285e-06
0.00542076
-2.41643e-05
8.04865e-06
0.00545966
-2.30969e-05
6.39981e-06
0.00548606
-1.75593e-05
7.69273e-06
0.00551877
-1.98504e-05
6.32181e-06
0.00552712
-8.41336e-06
7.44894e-06
0.00554753
-1.32093e-05
6.23033e-06
0.00552763
6.01928e-06
7.68297e-06
2.58322e-05
6.19865e-06
0.00547188
0.00403787
-0.000521038
2.801e-06
0.00429743
-0.000393388
-2.51127e-06
0.00452933
-0.000362371
1.81153e-06
0.00469859
-0.000262521
-2.70536e-06
0.00482273
-0.000200673
1.10905e-06
0.00492189
-0.000158563
-2.54023e-06
0.00499739
-0.000128191
5.39543e-07
0.0050616
-0.000107427
-2.45301e-06
0.00511224
-9.07002e-05
1.36019e-08
0.00515632
-7.74463e-05
-2.43789e-06
0.00519203
-6.69728e-05
-4.5972e-07
0.00522279
-5.71938e-05
-2.46401e-06
0.00524909
-5.0591e-05
-8.88009e-07
0.00527004
-4.26463e-05
-2.51872e-06
0.00529193
-3.9357e-05
-1.29754e-06
0.00530586
-3.24775e-05
-2.60251e-06
0.0053331
-3.52443e-05
-1.77001e-06
0.00534753
-2.62916e-05
-2.8006e-06
0.0054141
-5.93754e-05
-2.67187e-06
-5.58755e-05
-3.75537e-06
0.00549797
0.00408202
-0.000918196
1.15649e-05
0.00432567
-0.000644709
6.23955e-06
0.00447454
-0.000523248
1.06392e-05
0.00455063
-0.000346034
6.1473e-06
0.00458076
-0.000241955
9.98432e-06
0.00459299
-0.000178241
6.36453e-06
0.00459023
-0.000135925
9.45369e-06
0.00458444
-0.000109106
6.47539e-06
0.00457243
-8.85984e-05
8.94559e-06
0.00456123
-7.37047e-05
6.50001e-06
0.00454649
-6.16881e-05
8.48364e-06
0.00453418
-5.23871e-05
6.47774e-06
0.00451844
-4.4023e-05
8.07181e-06
0.00450731
-3.91335e-05
6.42244e-06
0.00448914
-3.01604e-05
7.70948e-06
0.00448113
-3.21494e-05
6.34235e-06
0.00445293
-1.58823e-05
7.43929e-06
0.00444222
-2.32664e-05
6.24811e-06
0.00438588
-1.20912e-05
7.58665e-06
3.82803e-05
6.12595e-06
0.00428411
0.00386233
-0.00108769
3.22811e-06
0.00381664
-0.000597675
-2.76505e-06
0.00367231
-0.000382076
1.80884e-06
0.00352304
-0.000195326
-2.70478e-06
0.00338755
-0.000108787
1.15055e-06
0.00327638
-6.56988e-05
-2.49165e-06
0.00318119
-4.23978e-05
5.80833e-07
0.00310413
-3.06991e-05
-2.41425e-06
0.00303671
-2.22863e-05
4.71507e-08
0.0029817
-1.7384e-05
-2.40664e-06
0.00293236
-1.30533e-05
-4.29485e-07
0.00289145
-1.0228e-05
-2.43651e-06
0.00285455
-7.50602e-06
-8.57725e-07
0.00282255
-5.92306e-06
-2.49254e-06
0.00279638
-4.05178e-06
-1.25894e-06
0.00276935
-3.89018e-06
-2.56755e-06
0.00276077
-6.95471e-06
-1.68666e-06
0.00273521
3.64702e-06
-2.70022e-06
0.00281797
-9.38419e-05
-2.33445e-06
-6.07205e-05
-3.68668e-06
0.00291937
0.00259546
1.34446e-05
0.00198951
6.87044e-06
0.00159441
1.1653e-05
0.00139062
7.14031e-06
0.00126952
1.10116e-05
0.00119514
7.38809e-06
0.001141
1.04639e-05
0.00110154
7.47625e-06
0.00106802
9.93755e-06
0.00104185
7.48667e-06
0.00101801
9.46509e-06
0.000998986
7.45722e-06
0.000981087
9.04444e-06
0.000966408
7.39865e-06
0.00095233
8.6651e-06
0.000939761
7.31743e-06
0.000923118
8.33027e-06
0.000918203
7.20942e-06
0.00081479
8.22619e-06
6.78408e-06
0.000745956
0.0033774
0.000328292
3.22305e-06
0.00281349
0.000564352
5.02218e-06
0.00232174
0.000499743
2.30555e-06
0.00196805
0.000355759
3.7781e-06
0.00173737
0.000238418
2.03253e-06
0.00158752
0.000152798
3.2138e-06
0.00149162
0.000103089
2.06314e-06
0.00142191
7.29874e-05
2.9749e-06
0.00137291
5.55384e-05
2.15296e-06
0.00133147
4.48575e-05
2.80377e-06
0.00130008
3.73623e-05
2.21294e-06
0.00127119
3.23915e-05
2.64642e-06
0.00124846
2.8217e-05
2.24569e-06
0.00122683
2.51905e-05
2.51316e-06
0.00121023
2.16645e-05
2.27254e-06
0.00119237
2.1443e-05
2.41257e-06
0.00119304
4.03794e-06
2.30408e-06
0.0011675
2.91006e-05
2.35151e-06
0.00131524
-0.000143034
2.22133e-06
-0.000128403
2.4976e-06
0.00144664
0.00381889
0.000200428
7.99453e-06
0.00388986
0.000479668
9.5271e-06
0.00388983
0.000492729
7.49772e-06
0.0038236
0.000409549
8.48004e-06
0.00374033
0.000314479
7.20026e-06
0.00365017
0.000231379
7.99415e-06
0.00357038
0.000175194
7.22424e-06
0.00349574
0.000136403
7.78438e-06
0.00343282
0.000110202
7.29475e-06
0.00337467
9.19226e-05
7.63092e-06
0.00332543
7.77389e-05
7.32407e-06
0.00327997
6.67507e-05
7.49131e-06
0.00324029
5.84832e-05
7.32469e-06
0.00320506
4.92513e-05
7.37186e-06
0.00317003
4.67698e-05
7.32428e-06
0.00314546
3.47975e-05
7.27693e-06
0.00310266
3.64102e-05
7.3584e-06
0.00309387
2.65993e-05
7.22236e-06
0.00295944
-1.98206e-05
7.52707e-06
3.13789e-05
7.57714e-06
0.00278708
0.00381324
9.09208e-05
3.29661e-06
0.00401546
0.000277165
5.09362e-06
0.00419774
0.000317209
2.51469e-06
0.00432421
0.000283954
4.0134e-06
0.00440913
0.000236205
2.18036e-06
0.00445475
0.000187637
3.41243e-06
0.00448281
0.000153379
2.17618e-06
0.00449407
0.000127488
3.14305e-06
0.00450079
0.000109202
2.27208e-06
0.00449983
9.54602e-05
2.97137e-06
0.00449871
8.40216e-05
2.35175e-06
0.00449265
7.54173e-05
2.82413e-06
0.00448887
6.67999e-05
2.40237e-06
0.00447945
6.11593e-05
2.7008e-06
0.00447745
5.27342e-05
2.43792e-06
0.00446395
5.06495e-05
2.60779e-06
0.00447215
3.17678e-05
2.44068e-06
0.0044597
4.12533e-05
2.54789e-06
0.00448836
-4.45977e-05
2.18791e-06
-2.96086e-05
2.56582e-06
0.00455137
0.00373999
4.16599e-05
7.85427e-06
0.00391274
9.10613e-05
9.41469e-06
0.00412692
9.59916e-05
7.48924e-06
0.00431066
8.77411e-05
8.50834e-06
0.00446618
7.34341e-05
7.21495e-06
0.00458268
5.95281e-05
7.99409e-06
0.00467925
4.91154e-05
7.20422e-06
0.00475407
4.14586e-05
7.75692e-06
0.0048192
3.58753e-05
7.26254e-06
0.00487208
3.16302e-05
7.59908e-06
0.0049192
2.82145e-05
7.29362e-06
0.00495874
2.49664e-05
7.46223e-06
0.0049932
2.30873e-05
7.29849e-06
0.00502395
1.938e-05
7.3453e-06
0.00504653
2.02893e-05
7.30411e-06
0.00507169
1.42912e-05
7.2562e-06
0.00507242
2.049e-05
7.36046e-06
0.00508761
1.45187e-05
7.23926e-06
0.00501268
1.84567e-05
7.65438e-06
4.63924e-05
7.62693e-06
0.00492366
0.0037868
-4.166e-05
3.27718e-06
0.00396875
-9.10609e-05
5.08763e-06
0.00416742
-9.59917e-05
2.56761e-06
0.00434371
-8.77399e-05
4.06999e-06
0.00449715
-7.3434e-05
2.22869e-06
0.004618
-5.95251e-05
3.45584e-06
0.00472241
-4.91139e-05
2.20537e-06
0.0048076
-4.14511e-05
3.16857e-06
0.00488501
-3.58675e-05
2.2932e-06
0.00495082
-3.16105e-05
2.99181e-06
0.00501238
-2.81886e-05
2.37315e-06
0.0050649
-2.49089e-05
2.84521e-06
0.00511558
-2.3017e-05
2.42547e-06
0.00515668
-1.91995e-05
2.72276e-06
0.00520108
-2.01145e-05
2.45936e-06
0.00523147
-1.37464e-05
2.6302e-06
0.00527557
-1.99996e-05
2.44574e-06
0.00530531
-1.30575e-05
2.57318e-06
0.00534452
-1.67702e-05
2.14223e-06
-4.28327e-05
2.57097e-06
0.00543572
0.00373999
-9.09209e-05
7.85427e-06
0.00391274
-0.000277165
9.41469e-06
0.00412692
-0.000317209
7.48924e-06
0.00431066
-0.000283953
8.50834e-06
0.00446618
-0.000236205
7.21495e-06
0.00458268
-0.000187634
7.99409e-06
0.00467925
-0.000153377
7.20422e-06
0.00475407
-0.000127481
7.75692e-06
0.0048192
-0.000109194
7.26254e-06
0.00487208
-9.54421e-05
7.59908e-06
0.00491921
-8.3998e-05
7.29362e-06
0.00495875
-7.53645e-05
7.46224e-06
0.00499322
-6.67377e-05
7.2985e-06
0.00502398
-6.09924e-05
7.34532e-06
0.00504659
-5.25842e-05
7.30412e-06
0.00507179
-5.01504e-05
7.25627e-06
0.0050726
-3.13561e-05
7.36042e-06
0.00508796
-3.99581e-05
7.23944e-06
0.00501328
4.60312e-05
7.65382e-06
3.26956e-05
7.62696e-06
0.00492473
0.00381324
-0.000200428
3.29661e-06
0.00401546
-0.000479668
5.09362e-06
0.00419774
-0.000492729
2.51469e-06
0.00432421
-0.000409548
4.0134e-06
0.00440913
-0.000314479
2.18036e-06
0.00445475
-0.000231377
3.41243e-06
0.00448281
-0.000175193
2.17618e-06
0.00449407
-0.000136399
3.14305e-06
0.00450079
-0.000110195
2.27208e-06
0.00449984
-9.19106e-05
2.97137e-06
0.00449872
-7.77188e-05
2.35175e-06
0.00449268
-6.67153e-05
2.82413e-06
0.00448891
-5.84326e-05
2.40238e-06
0.00447955
-4.91367e-05
2.70077e-06
0.00447758
-4.66523e-05
2.43794e-06
0.00446423
-3.4449e-05
2.60771e-06
0.00447252
-3.60915e-05
2.44066e-06
0.00446045
-2.56764e-05
2.54773e-06
0.00448945
2.0905e-05
2.18806e-06
-2.89844e-05
2.56537e-06
0.00455316
0.00381889
-0.000328292
7.99453e-06
0.00388986
-0.000564352
9.5271e-06
0.00388983
-0.000499743
7.49772e-06
0.0038236
-0.000355759
8.48004e-06
0.00374033
-0.000238417
7.20027e-06
0.00365018
-0.000152797
7.99415e-06
0.00357038
-0.000103088
7.22424e-06
0.00349575
-7.29854e-05
7.78438e-06
0.00343282
-5.55348e-05
7.29475e-06
0.00337468
-4.48523e-05
7.63092e-06
0.00332546
-3.7352e-05
7.32407e-06
0.00328002
-3.23756e-05
7.49133e-06
0.00324036
-2.81931e-05
7.32468e-06
0.00320519
-2.51356e-05
7.37191e-06
0.00317023
-2.16169e-05
7.32424e-06
0.00314584
-2.1269e-05
7.27709e-06
0.00310326
-3.94148e-06
7.35815e-06
0.00309493
-2.86423e-05
7.22279e-06
0.0029613
0.000143316
7.52569e-06
0.000128858
7.57808e-06
0.00279089
0.0033774
3.22305e-06
0.00281349
5.02218e-06
0.00232174
2.30555e-06
0.00196805
3.7781e-06
0.00173737
2.03253e-06
0.00158752
3.2138e-06
0.00149162
2.06314e-06
0.00142191
2.9749e-06
0.00137292
2.15296e-06
0.00133148
2.80377e-06
0.0013001
2.21296e-06
0.00127123
2.64641e-06
0.00124852
2.24573e-06
0.00122695
2.51313e-06
0.0012104
2.2726e-06
0.00119271
2.41253e-06
0.00119348
2.30411e-06
0.00116839
2.35139e-06
0.00131642
2.22136e-06
2.49701e-06
0.00144829
0.00356301
0.00013862
-3.22307e-06
0.00331039
0.000261249
-5.0222e-06
0.00300266
0.000310994
-2.30557e-06
0.00270153
0.000307444
-3.77812e-06
0.0024284
0.000276024
-2.03254e-06
0.00220118
0.00023251
-3.21382e-06
0.00201746
0.000186726
-2.06316e-06
0.00187698
0.00014528
-2.97492e-06
0.00176916
0.000110935
-2.15298e-06
0.00168964
8.3888e-05
-2.80379e-06
0.00162909
6.37059e-05
-2.21296e-06
0.00158419
4.89242e-05
-2.64644e-06
0.00154948
3.79257e-05
-2.24571e-06
0.00152206
3.11804e-05
-2.51318e-06
0.00150207
2.32655e-05
-2.27256e-06
0.00148137
2.42725e-05
-2.41259e-06
0.00147457
1.01529e-05
-2.3041e-06
0.00145377
2.42813e-05
-2.35153e-06
0.00147066
-1.36657e-05
-2.22135e-06
-2.10036e-05
-2.49762e-06
0.00149544
0.00376054
8.92482e-05
-7.99455e-06
0.0038508
0.000188617
-9.52712e-06
0.00391969
0.00025574
-7.49774e-06
0.00395844
0.000284421
-8.48007e-06
0.00396374
0.000283987
-7.20029e-06
0.0039484
0.000262783
-7.99417e-06
0.00391648
0.000232082
-7.22426e-06
0.003878
0.000198358
-7.7844e-06
0.00383454
0.000168025
-7.29478e-06
0.00379148
0.000141208
-7.63094e-06
0.00374834
0.000120418
-7.32409e-06
0.00370816
0.000102931
-7.49133e-06
0.00366947
9.00213e-05
-7.32471e-06
0.00363467
7.94053e-05
-7.37189e-06
0.00360141
6.97895e-05
-7.32431e-06
0.00357245
6.63528e-05
-7.27695e-06
0.00354472
5.1148e-05
-7.35842e-06
0.00351946
6.25578e-05
-7.22238e-06
0.00349546
2.39928e-05
-7.52709e-06
5.06621e-05
-7.57717e-06
0.00343762
0.00374682
4.41939e-05
-3.29663e-06
0.00384257
0.000101624
-5.09364e-06
0.0039569
0.000145088
-2.51471e-06
0.0040804
0.000167709
-4.01342e-06
0.00419422
0.000173392
-2.18038e-06
0.0042961
0.000166668
-3.41245e-06
0.00437919
0.000152331
-2.1762e-06
0.00444729
0.000135579
-3.14307e-06
0.00449997
0.000118959
-2.2721e-06
0.00454181
0.000104402
-2.97139e-06
0.00457401
9.19594e-05
-2.35177e-06
0.00459935
8.21926e-05
-2.82415e-06
0.0046196
7.34271e-05
-2.40239e-06
0.00463524
6.79269e-05
-2.70082e-06
0.00464889
5.96912e-05
-2.43794e-06
0.00465912
5.99186e-05
-2.60782e-06
0.00466857
4.50886e-05
-2.4407e-06
0.00467745
5.72076e-05
-2.54791e-06
0.00468172
2.25086e-05
-2.18793e-06
4.2412e-05
-2.56584e-06
0.0046935
0.0037355
1.95692e-05
-7.85429e-06
0.00381602
3.85025e-05
-9.41471e-06
0.0039231
5.16367e-05
-7.48926e-06
0.00404842
5.81743e-05
-8.50837e-06
0.00417477
6.03414e-05
-7.21497e-06
0.004298
5.83578e-05
-7.99412e-06
0.00440919
5.45378e-05
-7.20424e-06
0.00451004
4.92765e-05
-7.75694e-06
0.00459808
4.45194e-05
-7.26256e-06
0.00467701
3.97696e-05
-7.5991e-06
0.00474638
3.62438e-05
-7.29364e-06
0.00480957
3.29132e-05
-7.46226e-06
0.0048659
3.05916e-05
-7.29852e-06
0.00491879
2.8518e-05
-7.34532e-06
0.00496534
2.64545e-05
-7.30413e-06
0.00501212
2.62795e-05
-7.25622e-06
0.00504837
2.21062e-05
-7.36049e-06
0.00509127
2.72335e-05
-7.23929e-06
0.00511107
1.64012e-05
-7.6544e-06
3.3e-05
-7.62695e-06
0.00513404
0.00374086
-1.95694e-05
-3.2772e-06
0.00382661
-3.85019e-05
-5.08765e-06
0.00393367
-5.16372e-05
-2.56763e-06
0.00405692
-5.81727e-05
-4.07001e-06
0.00418093
-6.03417e-05
-2.22871e-06
0.00430349
-5.8354e-05
-3.45586e-06
0.00441596
-5.45363e-05
-2.20539e-06
0.00451987
-4.92671e-05
-3.16859e-06
0.00461256
-4.45109e-05
-2.29322e-06
0.00469716
-3.97452e-05
-2.99183e-06
0.00477344
-3.6217e-05
-2.37317e-06
0.00484388
-3.28408e-05
-2.84523e-06
0.00490875
-3.05299e-05
-2.42549e-06
0.0049698
-2.82934e-05
-2.72278e-06
0.00502622
-2.63244e-05
-2.45938e-06
0.00508204
-2.56501e-05
-2.63022e-06
0.00512934
-2.17353e-05
-2.44576e-06
0.00518593
-2.57554e-05
-2.57321e-06
0.00521999
-1.49825e-05
-2.14225e-06
-3.00708e-05
-2.57099e-06
0.0052865
0.0037355
-4.41941e-05
-7.85429e-06
0.00381602
-0.000101623
-9.41471e-06
0.0039231
-0.000145088
-7.48926e-06
0.00404842
-0.000167708
-8.50837e-06
0.00417477
-0.000173393
-7.21497e-06
0.004298
-0.000166664
-7.99412e-06
0.00440919
-0.000152329
-7.20424e-06
0.00451004
-0.00013557
-7.75694e-06
0.00459808
-0.000118952
-7.26256e-06
0.00467701
-0.000104379
-7.5991e-06
0.00474638
-9.19348e-05
-7.29364e-06
0.00480958
-8.21238e-05
-7.46226e-06
0.00486591
-7.33708e-05
-7.29852e-06
0.00491881
-6.77144e-05
-7.34534e-06
0.00496539
-5.95763e-05
-7.30414e-06
0.0050122
-5.93251e-05
-7.25629e-06
0.00504849
-4.47642e-05
-7.36044e-06
0.00509149
-5.5825e-05
-7.23947e-06
0.00511144
-2.12408e-05
-7.65384e-06
-3.97462e-05
-7.62698e-06
0.00513468
0.00374682
-8.92483e-05
-3.29663e-06
0.00384257
-0.000188617
-5.09364e-06
0.0039569
-0.00025574
-2.51471e-06
0.0040804
-0.00028442
-4.01342e-06
0.00419422
-0.000283987
-2.18038e-06
0.0042961
-0.000262781
-3.41245e-06
0.00437919
-0.000232081
-2.17619e-06
0.00444729
-0.000198351
-3.14307e-06
0.00449998
-0.000168018
-2.2721e-06
0.00454181
-0.000141189
-2.97139e-06
0.00457402
-0.000120397
-2.35177e-06
0.00459937
-0.000102875
-2.82415e-06
0.00461964
-8.99772e-05
-2.4024e-06
0.00463532
-7.92322e-05
-2.70079e-06
0.004649
-6.97083e-05
-2.43796e-06
0.00465934
-6.58689e-05
-2.60773e-06
0.00466889
-5.09239e-05
-2.44068e-06
0.00467805
-6.14502e-05
-2.54775e-06
0.00468264
-2.30458e-05
-2.18808e-06
-4.86269e-05
-2.56539e-06
0.00469504
0.00376054
-0.00013862
-7.99455e-06
0.0038508
-0.000261249
-9.52712e-06
0.00391969
-0.000310994
-7.49774e-06
0.00395844
-0.000307443
-8.48007e-06
0.00396374
-0.000276024
-7.20029e-06
0.0039484
-0.000232509
-7.99417e-06
0.00391648
-0.000186725
-7.22426e-06
0.00387801
-0.000145277
-7.7844e-06
0.00383454
-0.000110929
-7.29478e-06
0.0037915
-8.38803e-05
-7.63095e-06
0.00374837
-6.3691e-05
-7.32409e-06
0.00370822
-4.8899e-05
-7.49135e-06
0.00366954
-3.78971e-05
-7.32471e-06
0.00363483
-3.10934e-05
-7.37193e-06
0.0036016
-2.32204e-05
-7.32426e-06
0.00357287
-2.40189e-05
-7.27711e-06
0.00354526
-1.00422e-05
-7.35818e-06
0.00352053
-2.37121e-05
-7.22281e-06
0.00349697
1.41692e-05
-7.52571e-06
2.17641e-05
-7.5781e-06
0.00344042
0.00356301
-3.22307e-06
0.00331039
-5.0222e-06
0.00300266
-2.30557e-06
0.00270153
-3.77812e-06
0.0024284
-2.03254e-06
0.00220119
-3.21382e-06
0.00201747
-2.06316e-06
0.00187699
-2.97492e-06
0.00176917
-2.15298e-06
0.00168966
-2.80379e-06
0.00162913
-2.21298e-06
0.00158425
-2.64643e-06
0.00154957
-2.24575e-06
0.00152223
-2.51315e-06
0.00150229
-2.27262e-06
0.00148184
-2.41255e-06
0.00147516
-2.30413e-06
0.00145492
-2.35141e-06
0.00147232
-2.22138e-06
-2.49703e-06
0.00149788
0.0033774
0.000328292
-1.34446e-05
0.00281349
0.000564352
-6.87045e-06
0.00232174
0.000499743
-1.1653e-05
0.00196805
0.000355759
-7.14032e-06
0.00173737
0.000238418
-1.10116e-05
0.00158752
0.000152798
-7.3881e-06
0.00149162
0.000103089
-1.04639e-05
0.00142191
7.29874e-05
-7.47626e-06
0.00137291
5.55384e-05
-9.93756e-06
0.00133147
4.48575e-05
-7.48668e-06
0.00130008
3.73623e-05
-9.46512e-06
0.00127119
3.23915e-05
-7.45721e-06
0.00124846
2.8217e-05
-9.04449e-06
0.00122683
2.51905e-05
-7.39858e-06
0.00121023
2.16645e-05
-8.66525e-06
0.00119237
2.1443e-05
-7.31724e-06
0.00119304
4.03798e-06
-8.33064e-06
0.00116749
2.91007e-05
-7.20896e-06
0.00131524
-0.000143034
-8.22696e-06
-0.000128403
-6.78379e-06
0.00144664
0.00381889
0.000200428
-3.22813e-06
0.00388986
0.000479668
2.76504e-06
0.00388983
0.000492729
-1.80885e-06
0.0038236
0.000409549
2.70477e-06
0.00374033
0.000314479
-1.15056e-06
0.00365017
0.000231379
2.49164e-06
0.00357038
0.000175194
-5.80843e-07
0.00349574
0.000136403
2.41424e-06
0.00343282
0.000110202
-4.71602e-08
0.00337467
9.19226e-05
2.40662e-06
0.00332543
7.7739e-05
4.29475e-07
0.00327997
6.67507e-05
2.43648e-06
0.00324029
5.84833e-05
8.57712e-07
0.00320506
4.92514e-05
2.49247e-06
0.00317003
4.67699e-05
1.25894e-06
0.00314546
3.47976e-05
2.56732e-06
0.00310266
3.64103e-05
1.68686e-06
0.00309387
2.65994e-05
2.69939e-06
0.00295944
-1.98205e-05
2.33648e-06
3.1379e-05
3.6842e-06
0.00278708
0.00381324
9.09208e-05
-1.15649e-05
0.00401546
0.000277165
-6.23956e-06
0.00419774
0.000317209
-1.06392e-05
0.00432421
0.000283954
-6.14731e-06
0.00440913
0.000236205
-9.98433e-06
0.00445475
0.000187637
-6.36454e-06
0.00448281
0.000153379
-9.45371e-06
0.00449407
0.000127488
-6.4754e-06
0.00450079
0.000109202
-8.9456e-06
0.00449983
9.54603e-05
-6.50002e-06
0.00449871
8.40217e-05
-8.48365e-06
0.00449265
7.54175e-05
-6.47775e-06
0.00448887
6.68e-05
-8.07183e-06
0.00447945
6.11594e-05
-6.42242e-06
0.00447745
5.27343e-05
-7.70953e-06
0.00446395
5.06496e-05
-6.34224e-06
0.00447215
3.17678e-05
-7.4394e-06
0.0044597
4.12534e-05
-6.24795e-06
0.00448836
-4.45976e-05
-7.58726e-06
-2.96085e-05
-6.1265e-06
0.00455137
0.00373999
4.16599e-05
-2.80101e-06
0.00391274
9.10613e-05
2.51126e-06
0.00412692
9.59916e-05
-1.81154e-06
0.00431066
8.77411e-05
2.70535e-06
0.00446618
7.34341e-05
-1.10907e-06
0.00458268
5.95281e-05
2.54022e-06
0.00467925
4.91155e-05
-5.39555e-07
0.00475407
4.14587e-05
2.453e-06
0.0048192
3.58753e-05
-1.36139e-08
0.00487208
3.16303e-05
2.43787e-06
0.0049192
2.82147e-05
4.59705e-07
0.00495874
2.49666e-05
2.46399e-06
0.0049932
2.30875e-05
8.87983e-07
0.00502395
1.93802e-05
2.51867e-06
0.00504653
2.02894e-05
1.29748e-06
0.00507169
1.42913e-05
2.60235e-06
0.00507242
2.04901e-05
1.76992e-06
0.00508761
1.45187e-05
2.80018e-06
0.00501268
1.84567e-05
2.67277e-06
4.63924e-05
3.75474e-06
0.00492366
0.0037868
-4.166e-05
-1.13044e-05
0.00396875
-9.10609e-05
-6.34203e-06
0.00416742
-9.59917e-05
-1.06152e-05
0.00434371
-8.77399e-05
-6.13968e-06
0.00449715
-7.3434e-05
-9.9512e-06
0.004618
-5.95251e-05
-6.32787e-06
0.00472241
-4.91138e-05
-9.41879e-06
0.0048076
-4.1451e-05
-6.44248e-06
0.00488501
-3.58675e-05
-8.9157e-06
0.00495082
-3.16104e-05
-6.47205e-06
0.00501238
-2.81884e-05
-8.45729e-06
0.0050649
-2.49088e-05
-6.45286e-06
0.00511558
-2.30168e-05
-8.04866e-06
0.00515668
-1.91993e-05
-6.39983e-06
0.00520108
-2.01144e-05
-7.69275e-06
0.00523147
-1.37464e-05
-6.32183e-06
0.00527557
-1.99996e-05
-7.44895e-06
0.00530531
-1.30575e-05
-6.23034e-06
0.00534452
-1.67702e-05
-7.68298e-06
-4.28327e-05
-6.19866e-06
0.00543572
0.00373999
-9.09209e-05
-2.80101e-06
0.00391274
-0.000277165
2.51126e-06
0.00412692
-0.000317209
-1.81154e-06
0.00431066
-0.000283953
2.70535e-06
0.00446618
-0.000236205
-1.10907e-06
0.00458268
-0.000187634
2.54022e-06
0.00467925
-0.000153377
-5.39556e-07
0.00475407
-0.000127481
2.453e-06
0.0048192
-0.000109194
-1.3615e-08
0.00487208
-9.5442e-05
2.43788e-06
0.00491921
-8.39979e-05
4.59706e-07
0.00495875
-7.53643e-05
2.464e-06
0.00499322
-6.67376e-05
8.87995e-07
0.00502398
-6.09923e-05
2.5187e-06
0.00504659
-5.25841e-05
1.29753e-06
0.00507179
-5.01503e-05
2.6025e-06
0.0050726
-3.13561e-05
1.77e-06
0.00508796
-3.99581e-05
2.80059e-06
0.00501328
4.60312e-05
2.67186e-06
3.26956e-05
3.75536e-06
0.00492473
0.00381324
-0.000200428
-1.15649e-05
0.00401546
-0.000479668
-6.23956e-06
0.00419774
-0.000492729
-1.06392e-05
0.00432421
-0.000409548
-6.14731e-06
0.00440913
-0.000314478
-9.98433e-06
0.00445475
-0.000231377
-6.36454e-06
0.00448281
-0.000175193
-9.45371e-06
0.00449407
-0.000136399
-6.4754e-06
0.00450079
-0.000110195
-8.9456e-06
0.00449984
-9.19106e-05
-6.50002e-06
0.00449872
-7.77188e-05
-8.48366e-06
0.00449268
-6.67152e-05
-6.47776e-06
0.00448891
-5.84325e-05
-8.07183e-06
0.00447955
-4.91366e-05
-6.42245e-06
0.00447758
-4.66523e-05
-7.70949e-06
0.00446423
-3.44489e-05
-6.34237e-06
0.00447252
-3.60914e-05
-7.4393e-06
0.00446045
-2.56763e-05
-6.24813e-06
0.00448945
2.09051e-05
-7.58666e-06
-2.89843e-05
-6.12596e-06
0.00455316
0.00381889
-0.000328292
-3.22813e-06
0.00388986
-0.000564352
2.76504e-06
0.00388983
-0.000499743
-1.80885e-06
0.0038236
-0.000355759
2.70477e-06
0.00374033
-0.000238417
-1.15056e-06
0.00365018
-0.000152797
2.49164e-06
0.00357038
-0.000103088
-5.80847e-07
0.00349575
-7.29854e-05
2.41424e-06
0.00343282
-5.55348e-05
-4.71654e-08
0.00337468
-4.48523e-05
2.40663e-06
0.00332546
-3.7352e-05
4.2947e-07
0.00328002
-3.23756e-05
2.4365e-06
0.00324036
-2.81931e-05
8.5771e-07
0.00320519
-2.51355e-05
2.49253e-06
0.00317023
-2.16169e-05
1.25892e-06
0.00314584
-2.12689e-05
2.56753e-06
0.00310326
-3.94144e-06
1.68664e-06
0.00309493
-2.86422e-05
2.70021e-06
0.0029613
0.000143317
2.33443e-06
0.000128858
3.68667e-06
0.00279089
0.0033774
-1.34446e-05
0.00281349
-6.87044e-06
0.00232174
-1.1653e-05
0.00196805
-7.1403e-06
0.00173737
-1.10116e-05
0.00158752
-7.38809e-06
0.00149162
-1.04639e-05
0.00142191
-7.47625e-06
0.00137292
-9.93755e-06
0.00133148
-7.48667e-06
0.0013001
-9.46509e-06
0.00127123
-7.45722e-06
0.00124852
-9.04444e-06
0.00122695
-7.39864e-06
0.0012104
-8.6651e-06
0.00119271
-7.31743e-06
0.00119348
-8.33027e-06
0.00116839
-7.20942e-06
0.00131642
-8.22618e-06
-6.78408e-06
0.00144829
0.00259546
0.00108769
0.00198951
0.000597675
0.00159441
0.000382076
0.00139062
0.000195327
0.00126952
0.000108787
0.00119514
6.56993e-05
0.001141
4.23987e-05
0.00110154
3.07003e-05
0.00106802
2.22893e-05
0.00104184
1.73867e-05
0.00101799
1.30623e-05
0.000998959
1.02369e-05
0.000981038
7.5279e-06
0.000966326
5.95689e-06
0.000952206
4.09373e-06
0.000939514
4.01286e-06
0.000922772
7.05275e-06
0.000917509
-3.29814e-06
0.000813621
9.43173e-05
6.16352e-05
0.000743863
0.00386233
0.000918196
0.00381664
0.000644709
0.00367231
0.000523248
0.00352304
0.000346035
0.00338755
0.000241956
0.00327638
0.000178243
0.00318119
0.000135927
0.00310413
0.00010911
0.0030367
8.86052e-05
0.00298169
7.37138e-05
0.00293234
6.17085e-05
0.0028914
5.24164e-05
0.00285448
4.40704e-05
0.0028224
3.92422e-05
0.00279619
3.02445e-05
0.00276891
3.25297e-05
0.00276028
1.60216e-05
0.00273404
2.42983e-05
0.00281668
1.2684e-05
-3.63331e-05
0.00291703
0.00408202
0.000521038
0.00432567
0.000393388
0.00447454
0.000362371
0.00455063
0.000262522
0.00458076
0.000200673
0.00459299
0.000158566
0.00459023
0.000128193
0.00458444
0.000107433
0.00457242
9.07089e-05
0.00456122
7.74605e-05
0.00454647
6.70009e-05
0.00453415
5.72375e-05
0.00451838
5.06603e-05
0.00450721
4.28029e-05
0.00448898
3.94905e-05
0.00448082
3.30124e-05
0.00445251
3.55067e-05
0.00444132
2.77868e-05
0.00438448
6.04738e-05
5.91515e-05
0.00428138
0.00403787
0.000176385
0.00429743
0.000134907
0.00452933
0.000127285
0.00469859
9.46928e-05
0.00482273
7.42631e-05
0.00492189
6.0857e-05
0.00499739
5.11207e-05
0.0050616
4.46732e-05
0.00511224
3.90955e-05
0.00515632
3.48925e-05
0.00519202
3.08378e-05
0.00522277
2.80098e-05
0.00524906
2.42431e-05
0.00526999
2.32784e-05
0.00529186
1.77177e-05
0.00530571
2.04642e-05
0.00533289
8.73004e-06
0.00534716
1.48673e-05
0.00541352
-4.70991e-06
-2.2114e-05
0.00549695
0.00403786
-0.000176385
0.0042999
-0.000134907
0.00454248
-0.000127285
0.00472445
-9.4692e-05
0.00486186
-7.42631e-05
0.00497616
-6.08546e-05
0.00506795
-5.11189e-05
0.00514984
-4.46669e-05
0.00521814
-3.90862e-05
0.00528052
-3.48761e-05
0.0053328
-3.08066e-05
0.00538139
-2.7959e-05
0.00542076
-2.41644e-05
0.00545966
-2.3097e-05
0.00548606
-1.75594e-05
0.00551877
-1.98505e-05
0.00552712
-8.41343e-06
0.00554753
-1.32093e-05
0.00552763
6.01924e-06
2.58323e-05
0.00547188
0.00403787
-0.000521038
0.00429743
-0.000393388
0.00452933
-0.000362371
0.00469859
-0.000262521
0.00482273
-0.000200673
0.00492189
-0.000158564
0.00499739
-0.000128191
0.0050616
-0.000107427
0.00511224
-9.07004e-05
0.00515632
-7.74465e-05
0.00519203
-6.6973e-05
0.00522279
-5.7194e-05
0.00524909
-5.05911e-05
0.00527004
-4.26464e-05
0.00529193
-3.93571e-05
0.00530586
-3.24776e-05
0.0053331
-3.52444e-05
0.00534753
-2.62916e-05
0.0054141
-5.93754e-05
-5.58754e-05
0.00549797
0.00408202
-0.000918196
0.00432567
-0.000644709
0.00447454
-0.000523248
0.00455063
-0.000346034
0.00458076
-0.000241955
0.00459299
-0.000178241
0.00459023
-0.000135925
0.00458444
-0.000109107
0.00457243
-8.85986e-05
0.00456123
-7.37049e-05
0.00454649
-6.16883e-05
0.00453418
-5.23873e-05
0.00451844
-4.40232e-05
0.00450731
-3.91335e-05
0.00448914
-3.01605e-05
0.00448113
-3.21495e-05
0.00445293
-1.58824e-05
0.00444222
-2.32664e-05
0.00438588
-1.20912e-05
3.82803e-05
0.00428411
0.00386233
-0.00108769
0.00381664
-0.000597675
0.00367231
-0.000382076
0.00352304
-0.000195327
0.00338755
-0.000108787
0.00327638
-6.5699e-05
0.00318119
-4.2398e-05
0.00310413
-3.06993e-05
0.00303671
-2.22864e-05
0.0029817
-1.73841e-05
0.00293236
-1.30535e-05
0.00289145
-1.02281e-05
0.00285455
-7.5061e-06
0.00282255
-5.92312e-06
0.00279638
-4.05183e-06
0.00276935
-3.89023e-06
0.00276077
-6.95476e-06
0.00273521
3.64697e-06
0.00281797
-9.3842e-05
-6.07206e-05
0.00291937
0.00259546
0.00198951
0.00159441
0.00139062
0.00126952
0.00119514
0.001141
0.00110154
0.00106802
0.00104185
0.00101801
0.000998986
0.000981087
0.000966408
0.00095233
0.000939761
0.000923118
0.000918203
0.00081479
0.000745956
0.000873316
-0.000201742
6.8533e-05
0.000895843
-8.66193e-05
6.04569e-05
0.000884925
-5.70364e-05
6.4059e-05
0.00087735
-5.41905e-05
5.75895e-05
0.000869612
-5.59361e-05
5.94434e-05
0.000863838
-5.32548e-05
5.49791e-05
0.000858074
-5.41004e-05
5.60355e-05
0.000853383
-5.19719e-05
5.29267e-05
0.000848713
-5.2632e-05
5.35152e-05
0.00084464
-5.11248e-05
5.13278e-05
0.000840708
-5.15809e-05
5.16388e-05
0.000837158
-5.03082e-05
5.00849e-05
0.000833841
-5.05249e-05
5.02266e-05
0.00083074
-4.94773e-05
4.91106e-05
0.000827891
-4.96532e-05
4.91498e-05
0.000825137
-4.88424e-05
4.83423e-05
0.000822654
-4.89773e-05
4.8323e-05