/*--------------------------------*- C++ -*----------------------------------*\
  =========                 |
  \\      /  F ield         | OpenFOAM: The Open Source CFD Toolbox
   \\    /   O peration     | Website:  https://openfoam.org
    \\  /    A nd           | Version:  7
     \\/     M anipulation  |
\*---------------------------------------------------------------------------*/
FoamFile
{
    version     2.0;
    format      ascii;
    class       volScalarField;
    location    "0.055";
    object      p;
}
// * * * * * * * * * * * * * * * * * * * * * * * * * * * * * * * * * * * * * //

dimensions      [1 -1 -2 0 0 0 0];

internalField   nonuniform List<scalar> 
1440
(
100003
100002
100001
100000
99998.9
99997.4
99995.8
99994.1
99992.4
99990.7
99989.1
99987.4
99985.8
99984.3
99982.9
99981.5
99980.2
99979.1
99978
99977
99976.1
99975.2
99974.3
99973.6
99972.9
99972.2
99971.7
99971.3
99971
99970.7
99970.4
99970
99969.7
99969.3
99969
99968.8
99968.7
99968.8
99968.8
99968.8
99968.8
99968.7
99968.6
99968.5
99968.6
99968.8
99969.1
99969.5
99969.9
99970.3
99970.6
99970.8
99971
99971.1
99971.3
99971.4
99971.6
99971.8
99972.1
99972.4
99972.8
99973.1
99973.5
99973.9
99974.4
99974.8
99975.2
99975.7
99976.1
99976.6
99977.1
99977.6
99978.1
99978.6
99979.2
99979.7
99980.3
99980.9
99981.5
99982.1
99982.7
99983.4
99984
99984.7
99985.4
99986
99986.7
99987.4
99988.1
99988.7
99989.4
99990.1
99990.7
99991.4
99992
99992.7
99993.3
99994
99994.6
99995.2
99995.9
99996.5
99997.2
99997.9
99998.7
99999.5
100000
100001
100002
100003
100004
100005
100006
100007
100007
100008
100009
100010
100010
100010
100001
100000
99999.8
99998.9
99997.9
99996.7
99995.3
99993.8
99992.2
99990.5
99988.9
99987.3
99985.7
99984.2
99982.8
99981.4
99980.2
99979
99977.9
99976.9
99976
99975.1
99974.4
99973.6
99973
99972.4
99971.9
99971.4
99971
99970.7
99970.4
99970
99969.7
99969.4
99969.2
99969
99968.9
99968.8
99968.7
99968.7
99968.6
99968.6
99968.6
99968.6
99968.7
99968.8
99969
99969.3
99969.6
99969.9
99970.1
99970.4
99970.6
99970.8
99971
99971.2
99971.4
99971.6
99971.9
99972.2
99972.5
99972.8
99973.2
99973.6
99974
99974.4
99974.9
99975.3
99975.8
99976.3
99976.7
99977.2
99977.8
99978.3
99978.8
99979.4
99980
99980.6
99981.2
99981.8
99982.4
99983.1
99983.8
99984.4
99985.1
99985.8
99986.5
99987.2
99987.9
99988.6
99989.2
99989.9
99990.5
99991.2
99991.8
99992.4
99993
99993.6
99994.2
99994.8
99995.4
99996
99996.7
99997.4
99998.1
99998.9
99999.8
100001
100002
100003
100004
100005
100006
100007
100008
100008
100009
100010
100010
100011
100000
99999.8
99999.3
99998.4
99997.4
99996.2
99994.9
99993.5
99992
99990.5
99989
99987.5
99986
99984.6
99983.2
99981.8
99980.6
99979.4
99978.3
99977.3
99976.4
99975.5
99974.7
99974
99973.3
99972.7
99972.2
99971.7
99971.2
99970.9
99970.5
99970.2
99969.9
99969.6
99969.3
99969.1
99968.9
99968.8
99968.7
99968.6
99968.6
99968.5
99968.5
99968.5
99968.6
99968.7
99968.8
99969
99969.3
99969.5
99969.8
99970
99970.3
99970.5
99970.7
99971
99971.2
99971.5
99971.8
99972.1
99972.4
99972.7
99973
99973.3
99973.6
99974
99974.4
99974.8
99975.2
99975.6
99976
99976.5
99977
99977.6
99978.1
99978.7
99979.3
99980
99980.6
99981.4
99982.1
99982.8
99983.5
99984.3
99985
99985.8
99986.5
99987.3
99987.9
99988.6
99989.2
99989.8
99990.4
99990.9
99991.5
99991.9
99992.4
99992.8
99993.3
99993.8
99994.4
99995
99995.6
99996.3
99997
99997.8
99998.8
99999.9
100001
100002
100004
100005
100006
100007
100008
100009
100010
100011
100011
100011
99999
99998.8
99998.4
99997.7
99996.8
99995.8
99994.6
99993.3
99991.9
99990.4
99989
99987.5
99986
99984.6
99983.2
99981.9
99980.7
99979.5
99978.4
99977.4
99976.5
99975.6
99974.8
99974.1
99973.4
99972.8
99972.3
99971.8
99971.4
99971
99970.6
99970.3
99970
99969.7
99969.5
99969.3
99969.1
99968.9
99968.8
99968.7
99968.6
99968.5
99968.5
99968.5
99968.6
99968.6
99968.8
99968.9
99969.1
99969.4
99969.6
99969.8
99970.1
99970.4
99970.7
99970.9
99971.2
99971.5
99971.8
99972.1
99972.4
99972.7
99973
99973.3
99973.5
99973.8
99974.1
99974.5
99974.8
99975.2
99975.6
99976
99976.4
99976.9
99977.5
99978.1
99978.7
99979.3
99980
99980.7
99981.5
99982.4
99983.2
99984
99984.7
99985.6
99986.4
99987.3
99988
99988.7
99989.3
99989.8
99990.3
99990.9
99991.4
99991.8
99992.2
99992.4
99992.7
99993
99993.5
99994.1
99994.7
99995.3
99995.9
99996.6
99997.5
99998.6
99999.9
100001
100003
100004
100006
100007
100008
100010
100011
100012
100013
100013
99998.8
99998.6
99998.1
99997.4
99996.6
99995.5
99994.4
99993.1
99991.8
99990.4
99989
99987.5
99986.1
99984.7
99983.4
99982.1
99980.8
99979.7
99978.6
99977.6
99976.6
99975.8
99975
99974.2
99973.6
99973
99972.4
99971.9
99971.5
99971.1
99970.7
99970.4
99970.1
99969.8
99969.5
99969.3
99969.1
99968.9
99968.8
99968.7
99968.6
99968.5
99968.5
99968.5
99968.5
99968.6
99968.7
99968.9
99969
99969.3
99969.5
99969.7
99970
99970.3
99970.6
99970.9
99971.2
99971.5
99971.8
99972.1
99972.4
99972.6
99972.9
99973.2
99973.5
99973.7
99974
99974.3
99974.6
99974.9
99975.3
99975.7
99976.1
99976.6
99977.1
99977.7
99978.3
99978.9
99979.6
99980.4
99981.2
99982.1
99983
99983.8
99984.6
99985.4
99986.4
99987.3
99988.1
99988.8
99989.3
99989.8
99990.3
99990.8
99991.3
99991.7
99992
99992.1
99992.2
99992.5
99992.9
99993.5
99994.1
99994.7
99995.2
99995.9
99996.7
99997.8
99999.2
100001
100002
100004
100006
100007
100008
100010
100011
100013
100014
100014
99998.4
99998.2
99997.8
99997.2
99996.4
99995.4
99994.3
99993
99991.7
99990.4
99988.9
99987.5
99986.1
99984.7
99983.4
99982.1
99980.9
99979.7
99978.6
99977.6
99976.7
99975.8
99975
99974.3
99973.6
99973
99972.5
99972
99971.5
99971.1
99970.8
99970.4
99970.1
99969.8
99969.6
99969.3
99969.1
99969
99968.8
99968.7
99968.6
99968.5
99968.5
99968.5
99968.5
99968.6
99968.7
99968.8
99969
99969.2
99969.5
99969.7
99970
99970.3
99970.6
99970.9
99971.2
99971.5
99971.8
99972.1
99972.4
99972.6
99972.9
99973.2
99973.4
99973.7
99973.9
99974.2
99974.5
99974.8
99975.1
99975.5
99975.9
99976.4
99976.9
99977.5
99978.1
99978.7
99979.4
99980.2
99981.1
99982
99982.9
99983.7
99984.5
99985.4
99986.4
99987.3
99988.2
99988.8
99989.3
99989.7
99990.2
99990.8
99991.3
99991.6
99991.8
99991.9
99991.9
99992.2
99992.6
99993.2
99993.8
99994.4
99994.9
99995.5
99996.3
99997.5
99999
100001
100002
100004
100006
100007
100009
100010
100012
100013
100014
100014
99998.5
99998.2
99997.8
99997.2
99996.4
99995.4
99994.3
99993
99991.7
99990.3
99988.9
99987.5
99986.1
99984.7
99983.4
99982.1
99980.9
99979.7
99978.6
99977.6
99976.6
99975.8
99975
99974.3
99973.6
99973
99972.5
99972
99971.5
99971.1
99970.8
99970.4
99970.1
99969.8
99969.6
99969.4
99969.1
99969
99968.8
99968.7
99968.6
99968.5
99968.5
99968.5
99968.5
99968.6
99968.7
99968.8
99969
99969.2
99969.4
99969.7
99970
99970.3
99970.6
99970.9
99971.2
99971.5
99971.8
99972.1
99972.3
99972.6
99972.9
99973.1
99973.4
99973.6
99973.9
99974.2
99974.5
99974.8
99975.1
99975.4
99975.8
99976.3
99976.9
99977.4
99978
99978.6
99979.3
99980.1
99981
99982
99982.8
99983.6
99984.4
99985.3
99986.3
99987.3
99988.1
99988.7
99989.2
99989.7
99990.2
99990.7
99991.2
99991.6
99991.8
99991.8
99991.9
99992.1
99992.6
99993.2
99993.8
99994.3
99994.8
99995.4
99996.2
99997.4
99998.9
100001
100002
100004
100006
100007
100009
100010
100012
100013
100014
100014
99998.8
99998.5
99998.1
99997.4
99996.6
99995.5
99994.4
99993.1
99991.8
99990.4
99989
99987.5
99986.1
99984.7
99983.4
99982.1
99980.8
99979.6
99978.6
99977.5
99976.6
99975.7
99974.9
99974.2
99973.5
99973
99972.4
99971.9
99971.5
99971.1
99970.7
99970.4
99970.1
99969.8
99969.5
99969.3
99969.1
99968.9
99968.8
99968.7
99968.6
99968.5
99968.5
99968.5
99968.5
99968.6
99968.7
99968.8
99969
99969.2
99969.4
99969.7
99969.9
99970.2
99970.5
99970.8
99971.1
99971.4
99971.7
99972
99972.3
99972.5
99972.8
99973.1
99973.3
99973.6
99973.8
99974.1
99974.4
99974.8
99975.1
99975.5
99975.9
99976.4
99976.9
99977.5
99978.1
99978.7
99979.4
99980.1
99981
99981.9
99982.7
99983.5
99984.4
99985.2
99986.2
99987.1
99987.9
99988.6
99989.1
99989.6
99990.1
99990.6
99991.2
99991.5
99991.8
99991.9
99992
99992.3
99992.7
99993.3
99993.9
99994.4
99995
99995.6
99996.4
99997.5
99998.9
100001
100002
100004
100005
100007
100008
100010
100011
100012
100013
100014
99999
99998.8
99998.4
99997.7
99996.8
99995.7
99994.6
99993.2
99991.8
99990.4
99988.9
99987.4
99986
99984.5
99983.2
99981.8
99980.6
99979.4
99978.3
99977.3
99976.4
99975.5
99974.8
99974
99973.4
99972.8
99972.3
99971.8
99971.4
99971
99970.6
99970.3
99970
99969.7
99969.5
99969.3
99969.1
99968.9
99968.8
99968.7
99968.6
99968.5
99968.5
99968.5
99968.6
99968.6
99968.7
99968.9
99969
99969.2
99969.5
99969.7
99970
99970.2
99970.5
99970.8
99971.1
99971.4
99971.6
99971.9
99972.2
99972.4
99972.7
99973
99973.2
99973.5
99973.8
99974.1
99974.4
99974.8
99975.2
99975.6
99976
99976.5
99977
99977.6
99978.2
99978.8
99979.5
99980.3
99981.1
99981.9
99982.7
99983.5
99984.3
99985.1
99986
99986.8
99987.6
99988.3
99988.8
99989.4
99989.9
99990.4
99991
99991.4
99991.7
99992
99992.2
99992.6
99993
99993.6
99994.2
99994.8
99995.4
99996.1
99996.9
99998
99999.3
100001
100002
100004
100005
100006
100008
100009
100010
100011
100012
100013
100000
99999.7
99999.2
99998.4
99997.4
99996.2
99994.9
99993.5
99992
99990.5
99989
99987.4
99986
99984.5
99983.1
99981.8
99980.5
99979.3
99978.2
99977.2
99976.3
99975.4
99974.6
99973.9
99973.2
99972.7
99972.1
99971.6
99971.2
99970.8
99970.5
99970.2
99969.9
99969.6
99969.4
99969.2
99969
99968.8
99968.7
99968.6
99968.5
99968.5
99968.5
99968.5
99968.6
99968.7
99968.8
99968.9
99969.1
99969.3
99969.5
99969.7
99969.9
99970.2
99970.4
99970.7
99970.9
99971.2
99971.4
99971.7
99971.9
99972.2
99972.5
99972.7
99973
99973.4
99973.7
99974.1
99974.4
99974.8
99975.3
99975.7
99976.2
99976.7
99977.3
99977.9
99978.5
99979.1
99979.8
99980.5
99981.2
99982
99982.7
99983.4
99984.2
99985
99985.7
99986.4
99987.1
99987.7
99988.3
99988.9
99989.5
99990.1
99990.6
99991.1
99991.5
99991.9
99992.4
99993
99993.5
99994.1
99994.7
99995.3
99996
99996.9
99997.8
99998.9
100000
100001
100002
100004
100005
100006
100007
100008
100009
100010
100010
100010
100001
100000
99999.8
99998.9
99997.9
99996.6
99995.2
99993.7
99992.1
99990.5
99988.8
99987.2
99985.6
99984.1
99982.7
99981.3
99980
99978.9
99977.8
99976.8
99975.9
99975
99974.3
99973.6
99972.9
99972.4
99971.9
99971.4
99971
99970.6
99970.3
99970
99969.7
99969.5
99969.3
99969.1
99968.9
99968.8
99968.7
99968.6
99968.6
99968.6
99968.6
99968.6
99968.7
99968.8
99968.9
99969.1
99969.2
99969.4
99969.6
99969.8
99970
99970.2
99970.4
99970.6
99970.8
99971
99971.2
99971.5
99971.7
99972
99972.3
99972.6
99973
99973.4
99973.7
99974.2
99974.6
99975.1
99975.5
99976
99976.5
99977.1
99977.6
99978.2
99978.7
99979.3
99979.9
99980.6
99981.2
99981.9
99982.5
99983.2
99983.8
99984.5
99985.2
99985.9
99986.6
99987.3
99987.9
99988.6
99989.3
99989.9
99990.6
99991.2
99991.8
99992.4
99993
99993.6
99994.2
99994.8
99995.4
99996
99996.8
99997.5
99998.4
99999.3
100000
100001
100002
100003
100004
100005
100006
100007
100007
100008
100009
100009
100003
100002
100001
100000
99998.9
99997.4
99995.8
99994.1
99992.4
99990.7
99989
99987.4
99985.8
99984.2
99982.8
99981.4
99980.1
99978.9
99977.8
99976.8
99975.9
99975
99974.2
99973.5
99972.9
99972.3
99971.8
99971.3
99970.9
99970.5
99970.2
99969.9
99969.6
99969.4
99969.2
99969
99968.9
99968.8
99968.7
99968.6
99968.6
99968.6
99968.6
99968.7
99968.7
99968.8
99968.9
99969
99969.2
99969.3
99969.5
99969.7
99969.9
99970.1
99970.3
99970.5
99970.7
99970.9
99971.2
99971.4
99971.7
99972
99972.3
99972.6
99973
99973.4
99973.8
99974.2
99974.6
99975.1
99975.6
99976.1
99976.6
99977.1
99977.7
99978.2
99978.8
99979.4
99980
99980.6
99981.2
99981.8
99982.5
99983.1
99983.8
99984.5
99985.1
99985.8
99986.5
99987.1
99987.8
99988.5
99989.1
99989.8
99990.5
99991.1
99991.7
99992.4
99993
99993.7
99994.3
99995
99995.6
99996.3
99997
99997.8
99998.6
99999.4
100000
100001
100002
100003
100004
100005
100005
100006
100007
100008
100008
100009
)
;

boundaryField
{
    upperWall
    {
        type            zeroGradient;
    }
    lowerWall
    {
        type            zeroGradient;
    }
    inlet
    {
        type            zeroGradient;
    }
    outlet
    {
        type            waveTransmissive;
        gamma           1.3;
        fieldInf        100000;
        lInf            0.3;
        value           nonuniform List<scalar> 
12
(
100010
100011
100011
100013
100014
100014
100014
100014
100013
100010
100009
100009
)
;
    }
    frontAndBack
    {
        type            empty;
    }
}


// ************************************************************************* //
