/*--------------------------------*- C++ -*----------------------------------*\
  =========                 |
  \\      /  F ield         | OpenFOAM: The Open Source CFD Toolbox
   \\    /   O peration     | Website:  https://openfoam.org
    \\  /    A nd           | Version:  7
     \\/     M anipulation  |
\*---------------------------------------------------------------------------*/
FoamFile
{
    version     2.0;
    format      ascii;
    class       volScalarField;
    location    "0.165";
    object      k;
}
// * * * * * * * * * * * * * * * * * * * * * * * * * * * * * * * * * * * * * //

dimensions      [0 2 -2 0 0 0 0];

internalField   nonuniform List<scalar> 
1440
(
0.0246134
0.132826
0.338712
0.587681
0.836349
1.05498
1.2289
1.35579
1.43959
1.48774
1.50789
1.50515
1.49423
1.4712
1.44146
1.40874
1.37486
1.34113
1.30837
1.27713
1.24772
1.22031
1.19493
1.17156
1.15013
1.13053
1.11265
1.09636
1.08155
1.06808
1.05584
1.04473
1.03464
1.02549
1.01719
1.00967
1.00285
0.996669
0.991047
0.985962
0.981435
0.977433
0.973877
0.970694
0.967837
0.965277
0.962992
0.960963
0.959173
0.957603
0.95624
0.955071
0.954082
0.953263
0.952603
0.952093
0.951724
0.951485
0.951379
0.951404
0.951503
0.95172
0.952051
0.952478
0.952996
0.953601
0.95429
0.955061
0.955909
0.956832
0.957828
0.958895
0.960029
0.96123
0.962495
0.963822
0.965211
0.966658
0.968163
0.969724
0.97134
0.973008
0.974729
0.9765
0.97832
0.980188
0.982102
0.984061
0.986065
0.988112
0.9902
0.992329
0.994497
0.996704
0.998948
1.00123
1.00354
1.00589
1.00828
1.01069
1.01313
1.01561
1.01811
1.02064
1.02319
1.02578
1.02838
1.03103
1.03365
1.03639
1.03899
1.04188
1.04435
1.0475
1.04968
1.05325
1.05509
1.05912
1.0606
1.06549
0.00011053
0.00182226
0.00825335
0.022675
0.0515357
0.0906042
0.137797
0.185901
0.232164
0.273754
0.30943
0.338237
0.360799
0.377999
0.389941
0.398297
0.402867
0.405695
0.405661
0.405004
0.403438
0.40097
0.398087
0.394967
0.391743
0.388506
0.385323
0.382236
0.379275
0.37645
0.373773
0.371235
0.368841
0.366573
0.364439
0.362421
0.360531
0.35874
0.357065
0.355459
0.353933
0.352482
0.351102
0.349788
0.348537
0.347347
0.346213
0.345133
0.344104
0.343123
0.342187
0.341296
0.340446
0.339638
0.338869
0.338138
0.337444
0.336786
0.336163
0.335575
0.33502
0.334497
0.334006
0.333545
0.333115
0.332714
0.332342
0.331997
0.331679
0.331388
0.331122
0.33088
0.330663
0.330467
0.330297
0.330146
0.33002
0.329911
0.329828
0.329758
0.329718
0.329685
0.329686
0.329696
0.32972
0.329769
0.329832
0.329916
0.330012
0.330131
0.330257
0.330409
0.330564
0.330749
0.330929
0.331147
0.33135
0.331601
0.331824
0.33211
0.332349
0.332671
0.33292
0.333281
0.333532
0.333934
0.334181
0.334625
0.334865
0.335345
0.335592
0.336106
0.336355
0.336916
0.337157
0.337781
0.337991
0.338698
0.338826
0.339543
2.01222e-05
2.70489e-05
7.57209e-05
0.000256796
0.000770842
0.00187707
0.0040774
0.00749474
0.0120375
0.0176576
0.0239898
0.03085
0.0378145
0.044752
0.0513168
0.0574852
0.0630516
0.0680639
0.0724499
0.0762479
0.0795096
0.0822646
0.0845707
0.086474
0.0880334
0.0892892
0.0902952
0.0910813
0.0916944
0.0921531
0.0924985
0.0927379
0.092908
0.0930045
0.0930638
0.0930755
0.0930682
0.0930473
0.0930197
0.0929753
0.0929279
0.0928893
0.0928537
0.0928314
0.0928142
0.0928155
0.0928237
0.0928427
0.0928764
0.0929227
0.0929806
0.0930506
0.0931312
0.0932229
0.0933239
0.0934347
0.0935533
0.0936805
0.0938139
0.0939544
0.0940996
0.0942506
0.0944046
0.0945633
0.0947234
0.0948869
0.0950504
0.0952164
0.0953811
0.0955473
0.0957109
0.0958752
0.0960358
0.0961963
0.0963519
0.0965071
0.0966562
0.0968046
0.096946
0.0970867
0.0972193
0.0973515
0.0974744
0.0975975
0.0977102
0.0978237
0.0979257
0.0980295
0.0981206
0.0982146
0.0982947
0.0983788
0.0984479
0.0985224
0.0985804
0.0986455
0.0986924
0.0987482
0.0987845
0.0988314
0.0988577
0.0988956
0.0989128
0.0989416
0.0989509
0.0989697
0.0989732
0.0989809
0.0989783
0.0989769
0.0989662
0.0989617
0.0989399
0.0989338
0.0988997
0.098894
0.0988436
0.0988409
0.0987845
0.098744
2.00124e-05
2.00767e-05
2.03783e-05
2.17334e-05
2.66405e-05
4.06181e-05
7.49201e-05
0.000149046
0.000283564
0.000508318
0.000825389
0.00125509
0.00178894
0.0024279
0.00315484
0.00395709
0.00481599
0.00571383
0.00663502
0.0075633
0.00848662
0.00939444
0.0102779
0.0111314
0.0119493
0.0127299
0.0134696
0.0141696
0.0148278
0.0154471
0.0160259
0.0165687
0.0170733
0.0175442
0.0179799
0.0183877
0.0187638
0.0191162
0.0194405
0.019745
0.0200247
0.0202895
0.0205325
0.0207636
0.0209753
0.0211778
0.0213632
0.0215419
0.0217052
0.0218641
0.0220092
0.022152
0.022282
0.0224116
0.0225294
0.0226483
0.0227561
0.0228665
0.0229664
0.02307
0.0231634
0.0232618
0.0233501
0.0234443
0.0235285
0.0236195
0.0237004
0.0237889
0.0238671
0.0239538
0.0240298
0.024115
0.024189
0.0242729
0.0243451
0.0244281
0.0244986
0.0245806
0.0246496
0.0247308
0.0247981
0.0248785
0.0249443
0.0250239
0.025088
0.0251669
0.0252292
0.0253073
0.0253677
0.025445
0.0255034
0.0255798
0.0256362
0.0257117
0.0257658
0.0258403
0.025892
0.0259656
0.0260147
0.0260873
0.0261338
0.0262054
0.0262492
0.0263199
0.026361
0.0264307
0.026469
0.0265376
0.0265732
0.0266407
0.026674
0.02674
0.0267717
0.0268358
0.0268661
0.0269286
0.0269571
0.0270181
0.0270435
0.0271081
2.00012e-05
2.00251e-05
2.00989e-05
2.02795e-05
2.05189e-05
2.10033e-05
2.16481e-05
2.2993e-05
2.51319e-05
2.98918e-05
3.58807e-05
4.88961e-05
6.15625e-05
8.76126e-05
0.000111783
0.000153591
0.000191784
0.000249403
0.000302454
0.000374455
0.000441425
0.000525844
0.000604459
0.00069916
0.000786715
0.000889416
0.000983736
0.00109195
0.00119107
0.00130286
0.00140488
0.00151879
0.00162202
0.00173655
0.00183965
0.00195366
0.00205595
0.00216865
0.00226915
0.00237983
0.00247806
0.00258674
0.00268247
0.00278847
0.00288127
0.00298424
0.00307392
0.00317392
0.0032605
0.00335736
0.00344056
0.00353409
0.00361391
0.00370436
0.00378107
0.00386846
0.00394177
0.00402584
0.00409587
0.00417711
0.00424426
0.0043227
0.00438673
0.00446214
0.00452308
0.00459589
0.00465429
0.00472474
0.00478038
0.0048481
0.00490092
0.00496631
0.00501683
0.00508017
0.00512837
0.00518945
0.00523514
0.00529401
0.00533753
0.00539466
0.00543628
0.0054916
0.0055311
0.00558454
0.00562205
0.00567381
0.0057096
0.00576004
0.00579433
0.00584325
0.00587562
0.00592284
0.00595373
0.00599993
0.00602978
0.00607485
0.00610325
0.0061468
0.00617377
0.00621622
0.00624239
0.00628419
0.00630946
0.00635009
0.00637403
0.00641363
0.00643691
0.0064762
0.00649888
0.00653741
0.00655909
0.00659695
0.0066181
0.00665585
0.00667646
0.00671404
0.00673378
0.00677141
0.0067904
0.00683652
1.99893e-05
2.00015e-05
2.00524e-05
2.0189e-05
2.03613e-05
2.07346e-05
2.10148e-05
2.16084e-05
2.19842e-05
2.27574e-05
2.32019e-05
2.41237e-05
2.4673e-05
2.5833e-05
2.65449e-05
2.80403e-05
2.90011e-05
3.10398e-05
3.23605e-05
3.51302e-05
3.68773e-05
4.05121e-05
4.27516e-05
4.73922e-05
5.01754e-05
5.59098e-05
5.92555e-05
6.61122e-05
7.00261e-05
7.80186e-05
8.24937e-05
9.16009e-05
9.6615e-05
0.000106794
0.00011232
0.000123509
0.000129512
0.000141642
0.000148093
0.000161113
0.000167993
0.000181864
0.000189141
0.000203791
0.000211433
0.000226805
0.000234789
0.000250841
0.000259138
0.000275799
0.000284375
0.00030159
0.000310433
0.000328124
0.000337358
0.000355369
0.000364825
0.000383137
0.000393043
0.000411683
0.000421682
0.00044042
0.000450815
0.000470039
0.000480605
0.000499662
0.000510166
0.000529585
0.000540668
0.000560388
0.000571287
0.000590627
0.000601426
0.000621158
0.000632567
0.00065262
0.000663771
0.000683237
0.000694014
0.000713696
0.000725097
0.000745298
0.000756633
0.000776206
0.000786789
0.000806097
0.00081712
0.000837256
0.00084875
0.000868514
0.000878936
0.000897751
0.00090809
0.000927775
0.00093916
0.000959142
0.000969705
0.000988333
0.000998017
0.00101691
0.00102771
0.00104762
0.00105844
0.00107732
0.00108681
0.00110505
0.00111493
0.00113424
0.00114502
0.00116444
0.00117443
0.00119276
0.00120205
0.0012206
0.0012307
0.00125014
0.0012605
0.00127961
0.00128918
0.00131284
1.99862e-05
1.99966e-05
2.00446e-05
2.01758e-05
2.03502e-05
2.07321e-05
2.10195e-05
2.1624e-05
2.19956e-05
2.2759e-05
2.31811e-05
2.40482e-05
2.4515e-05
2.54714e-05
2.59595e-05
2.69383e-05
2.74466e-05
2.84981e-05
2.9061e-05
3.0087e-05
3.06024e-05
3.16509e-05
3.21898e-05
3.31285e-05
3.35752e-05
3.44909e-05
3.49277e-05
3.57942e-05
3.62354e-05
3.71233e-05
3.75951e-05
3.85676e-05
3.91025e-05
4.02043e-05
4.07843e-05
4.19499e-05
4.25567e-05
4.37919e-05
4.44601e-05
4.58369e-05
4.65745e-05
4.80723e-05
4.8849e-05
5.04141e-05
5.1237e-05
5.29198e-05
5.38194e-05
5.56557e-05
5.66134e-05
5.85432e-05
5.95414e-05
6.15645e-05
6.26305e-05
6.48045e-05
6.59433e-05
6.82456e-05
6.9433e-05
7.18279e-05
7.30732e-05
7.56011e-05
7.69223e-05
7.95988e-05
8.09823e-05
8.37704e-05
8.52057e-05
8.81028e-05
8.96055e-05
9.26492e-05
9.42259e-05
9.74077e-05
9.904e-05
0.000102326
0.000104017
0.000107437
0.000109205
0.000112774
0.000114601
0.000118273
0.000120151
0.000123939
0.000125894
0.000129846
0.000131873
0.000135947
0.000138017
0.000142176
0.000144307
0.000148611
0.000150827
0.000155296
0.00015757
0.000162136
0.000164455
0.000169122
0.000171516
0.000176348
0.00017882
0.000183794
0.000186321
0.0001914
0.00019399
0.00019921
0.000201882
0.000207264
0.000210006
0.000215517
0.000218322
0.000223966
0.000226854
0.000232675
0.000235651
0.000241633
0.000244671
0.000250762
0.000253893
0.000260234
0.000263494
0.000269944
0.000273223
0.000281535
1.9993e-05
2.00073e-05
2.00628e-05
2.02063e-05
2.04081e-05
2.08298e-05
2.13065e-05
2.22934e-05
2.36517e-05
2.66565e-05
3.02557e-05
3.81763e-05
4.54868e-05
6.02339e-05
7.3928e-05
9.60616e-05
0.000115558
0.000143932
0.000168882
0.000201346
0.000229822
0.000264614
0.000294092
0.000329373
0.000358366
0.000393139
0.000421147
0.000454557
0.000480653
0.000512149
0.000536301
0.000566502
0.000589273
0.000617969
0.00063922
0.00066691
0.000687048
0.000714296
0.000733782
0.000760277
0.000779263
0.000805625
0.000824134
0.000850459
0.000868612
0.000894942
0.000913038
0.000939396
0.000957321
0.000983802
0.00100177
0.00102877
0.00104645
0.00107347
0.00109112
0.00111849
0.00113665
0.00116454
0.00118217
0.00121008
0.00122768
0.00125641
0.00127453
0.00130366
0.00132148
0.00135062
0.00136857
0.00139863
0.00141673
0.00144761
0.00146571
0.00149683
0.00151508
0.00154688
0.00156543
0.00159814
0.00161693
0.00165045
0.00166916
0.00170363
0.00172254
0.00175783
0.00177727
0.00181345
0.00183322
0.00187051
0.00189036
0.00192853
0.0019485
0.00198793
0.00200846
0.00204916
0.00207041
0.00211203
0.00213344
0.00217635
0.00219877
0.00224381
0.00226743
0.00231352
0.00233707
0.002384
0.00240828
0.00245717
0.00248311
0.00253378
0.00255971
0.00261069
0.00263677
0.00268896
0.00271651
0.00277121
0.00279957
0.00285448
0.00288229
0.00293731
0.00296554
0.0030227
0.00305193
0.00312446
2.00035e-05
2.00368e-05
2.02093e-05
2.10055e-05
2.40264e-05
3.30931e-05
5.60463e-05
0.000106261
0.000201749
0.0003642
0.000596404
0.000912161
0.0013027
0.00176901
0.00229208
0.00286548
0.00346656
0.00408858
0.00471094
0.0053301
0.00592966
0.00651053
0.00706032
0.00758431
0.00807263
0.00853428
0.00896012
0.00936188
0.00973076
0.0100796
0.0103998
0.010705
0.0109857
0.0112565
0.0115064
0.0117505
0.0119773
0.0122022
0.0124126
0.0126242
0.0128232
0.0130261
0.0132176
0.0134154
0.0136029
0.0137986
0.0139846
0.0141808
0.0143676
0.014566
0.0147553
0.0149576
0.0151505
0.0153581
0.0155557
0.0157693
0.0159726
0.0161932
0.0164025
0.0166308
0.0168469
0.0170832
0.0173064
0.0175515
0.0177819
0.0180358
0.0182739
0.0185371
0.0187827
0.0190557
0.019309
0.0195915
0.0198527
0.0201453
0.0204138
0.0207168
0.0209928
0.0213058
0.0215891
0.0219128
0.0222027
0.0225367
0.0228336
0.0231779
0.0234807
0.0238358
0.0241441
0.0245093
0.0248231
0.0251987
0.0255165
0.0259025
0.0262242
0.0266196
0.0269441
0.0273497
0.0276757
0.0280906
0.0284181
0.0288423
0.0291691
0.029603
0.0299286
0.0303708
0.0306937
0.0311458
0.031463
0.0319244
0.0322358
0.0327055
0.0330087
0.0334872
0.0337803
0.0342665
0.0345475
0.0350409
0.0353073
0.0358062
0.0360557
0.0366644
2.00625e-05
2.3928e-05
5.46202e-05
0.000180773
0.000560971
0.0014255
0.00316219
0.00601595
0.00988395
0.0147385
0.0202699
0.026251
0.0323815
0.0384568
0.0442552
0.0496794
0.0546181
0.0590644
0.0629892
0.066432
0.0694163
0.0719858
0.0741973
0.0760907
0.0777189
0.0791199
0.0803397
0.0814085
0.0823626
0.0832256
0.084024
0.0847769
0.0855009
0.0862094
0.0869147
0.0876249
0.0883494
0.089092
0.0898601
0.0906553
0.0914792
0.0923336
0.0932187
0.0941353
0.0950827
0.0960609
0.0970685
0.0981052
0.0991691
0.10026
0.101375
0.102513
0.103673
0.104854
0.106053
0.107269
0.108501
0.109747
0.111005
0.112274
0.113553
0.11484
0.116134
0.117434
0.118738
0.120046
0.121355
0.122667
0.123977
0.125289
0.126596
0.127904
0.129205
0.130506
0.131798
0.133088
0.134368
0.135647
0.136912
0.138176
0.139424
0.140672
0.141901
0.143131
0.14434
0.145549
0.146736
0.147926
0.149088
0.150256
0.151394
0.15254
0.153651
0.154776
0.155858
0.156961
0.158014
0.159095
0.160116
0.161176
0.162163
0.163204
0.164154
0.165177
0.166087
0.167095
0.167961
0.168957
0.169775
0.170763
0.171527
0.172511
0.173214
0.174201
0.174835
0.175829
0.17639
0.177387
0.177876
0.179048
7.96897e-05
0.00132969
0.0065115
0.0189266
0.0440622
0.080725
0.124331
0.170922
0.215582
0.25646
0.290821
0.319304
0.341803
0.358931
0.371421
0.380308
0.386199
0.390055
0.392127
0.393306
0.393417
0.393247
0.392831
0.392193
0.391542
0.390908
0.390385
0.389937
0.389651
0.389435
0.389405
0.38945
0.389572
0.389801
0.390107
0.390477
0.390901
0.391368
0.391873
0.392405
0.392954
0.393514
0.394077
0.394639
0.395195
0.39574
0.396273
0.39679
0.39729
0.397771
0.398233
0.398674
0.399094
0.399494
0.399872
0.40023
0.400567
0.400884
0.401182
0.401461
0.401721
0.401964
0.402189
0.402399
0.402592
0.402771
0.402936
0.403087
0.403225
0.403352
0.403467
0.403571
0.403664
0.403749
0.403824
0.403891
0.403949
0.404
0.404044
0.404081
0.404112
0.404137
0.404156
0.404171
0.40418
0.404186
0.404185
0.404183
0.404176
0.404167
0.404153
0.404139
0.40412
0.404101
0.404078
0.404055
0.404029
0.404004
0.403975
0.403949
0.403919
0.403893
0.403863
0.403838
0.403809
0.403786
0.403758
0.403738
0.403714
0.403699
0.403679
0.403669
0.403657
0.403655
0.403652
0.403654
0.403656
0.403665
0.40367
0.403685
0.024406
0.131705
0.336552
0.581304
0.82131
1.0266
1.18343
1.29039
1.35306
1.38023
1.37687
1.3629
1.33326
1.29501
1.25324
1.21044
1.16823
1.12769
1.08946
1.05388
1.02108
0.991043
0.963683
0.938842
0.916337
0.895968
0.877536
0.860843
0.845705
0.83195
0.819418
0.807969
0.797463
0.787796
0.778852
0.770541
0.76279
0.755536
0.748715
0.742269
0.736157
0.730343
0.7248
0.719503
0.71443
0.709562
0.70488
0.70037
0.69602
0.691818
0.687754
0.68382
0.680008
0.676313
0.672729
0.66925
0.665874
0.662595
0.65941
0.656317
0.653311
0.650391
0.647554
0.644797
0.642119
0.639516
0.636986
0.634529
0.63214
0.62982
0.627564
0.625373
0.623243
0.621174
0.619162
0.617207
0.615308
0.613461
0.611667
0.609923
0.608228
0.606581
0.60498
0.603424
0.601913
0.600445
0.599018
0.597633
0.596288
0.594982
0.593715
0.592486
0.591293
0.590137
0.589016
0.58793
0.586877
0.58586
0.584875
0.583925
0.583007
0.582124
0.581271
0.580455
0.579666
0.578917
0.578192
0.57751
0.576847
0.576235
0.575633
0.575096
0.574553
0.574092
0.573611
0.573225
0.572821
0.572488
0.57222
0.571869
)
;

boundaryField
{
    upperWall
    {
        type            fixedValue;
        value           uniform 0;
    }
    lowerWall
    {
        type            fixedValue;
        value           uniform 0;
    }
    inlet
    {
        type            fixedValue;
        value           uniform 2e-05;
    }
    outlet
    {
        type            inletOutlet;
        inletValue      uniform 0;
        value           nonuniform List<scalar> 
12
(
1.06549
0.339543
0.098744
0.0271081
0.00683652
0.00131284
0.000281535
0.00312446
0.0366644
0.179048
0.403685
0.571869
)
;
    }
    frontAndBack
    {
        type            empty;
    }
}


// ************************************************************************* //
