/*--------------------------------*- C++ -*----------------------------------*\
  =========                 |
  \\      /  F ield         | OpenFOAM: The Open Source CFD Toolbox
   \\    /   O peration     | Website:  https://openfoam.org
    \\  /    A nd           | Version:  7
     \\/     M anipulation  |
\*---------------------------------------------------------------------------*/
FoamFile
{
    version     2.0;
    format      ascii;
    class       volScalarField;
    location    "0.1925";
    object      k;
}
// * * * * * * * * * * * * * * * * * * * * * * * * * * * * * * * * * * * * * //

dimensions      [0 2 -2 0 0 0 0];

internalField   nonuniform List<scalar> 
1600
(
2.78737e-05
1.8323e-05
1.10026e-05
7.21196e-06
5.20126e-06
3.99005e-06
3.15644e-06
2.5449e-06
2.08772e-06
1.74187e-06
1.47576e-06
1.26701e-06
1.10043e-06
9.6573e-07
8.55787e-07
7.65426e-07
6.90747e-07
6.28709e-07
5.76902e-07
5.33396e-07
4.96644e-07
4.65402e-07
4.38678e-07
4.15679e-07
3.95773e-07
3.78456e-07
3.63324e-07
3.50049e-07
3.38363e-07
3.28046e-07
3.18911e-07
3.10803e-07
3.03581e-07
2.97104e-07
2.91183e-07
2.85483e-07
2.79368e-07
2.71601e-07
2.58032e-07
2.25949e-07
2.64854e-05
2.86898e-05
2.48321e-05
1.89937e-05
1.46867e-05
1.16187e-05
9.31158e-06
7.54501e-06
6.20008e-06
5.17605e-06
4.38679e-06
3.76752e-06
3.27336e-06
2.87385e-06
2.54778e-06
2.27981e-06
2.05836e-06
1.87442e-06
1.72084e-06
1.59191e-06
1.48302e-06
1.39048e-06
1.31133e-06
1.2432e-06
1.18422e-06
1.13287e-06
1.08796e-06
1.04851e-06
1.01373e-06
9.82961e-07
9.5567e-07
9.31395e-07
9.09735e-07
8.90305e-07
8.7263e-07
8.55924e-07
8.38866e-07
8.19883e-07
7.98611e-07
7.7766e-07
2.4666e-05
2.8478e-05
2.78996e-05
2.50193e-05
2.14624e-05
1.80537e-05
1.49446e-05
1.23074e-05
1.01973e-05
8.55228e-06
7.26942e-06
6.25616e-06
5.44414e-06
4.78568e-06
4.24711e-06
3.80379e-06
3.43698e-06
3.13202e-06
2.87728e-06
2.66336e-06
2.48269e-06
2.32916e-06
2.19784e-06
2.0848e-06
1.98688e-06
1.90158e-06
1.82688e-06
1.76115e-06
1.7031e-06
1.65164e-06
1.60588e-06
1.56508e-06
1.5286e-06
1.49588e-06
1.46631e-06
1.43907e-06
1.41288e-06
1.38649e-06
1.36079e-06
1.34233e-06
2.23927e-05
2.57837e-05
2.6955e-05
2.65582e-05
2.51628e-05
2.26278e-05
1.95281e-05
1.64939e-05
1.38831e-05
1.17642e-05
1.00708e-05
8.71115e-06
7.60881e-06
6.70737e-06
5.96549e-06
5.35195e-06
4.84246e-06
4.41773e-06
4.06221e-06
3.76327e-06
3.51058e-06
3.29576e-06
3.11197e-06
2.9537e-06
2.81653e-06
2.69691e-06
2.592e-06
2.49953e-06
2.41767e-06
2.34491e-06
2.28004e-06
2.22204e-06
2.17006e-06
2.1234e-06
2.08143e-06
2.04351e-06
2.00889e-06
1.97706e-06
1.94931e-06
1.93112e-06
2.13804e-05
2.34841e-05
2.52047e-05
2.62947e-05
2.62656e-05
2.51299e-05
2.26263e-05
1.97007e-05
1.69609e-05
1.4613e-05
1.2663e-05
1.10521e-05
9.71829e-06
8.61034e-06
7.68776e-06
6.91787e-06
6.274e-06
5.73423e-06
5.28045e-06
4.89765e-06
4.57336e-06
4.29724e-06
4.06076e-06
3.85695e-06
3.68012e-06
3.52572e-06
3.39008e-06
3.27025e-06
3.16388e-06
3.06907e-06
2.98427e-06
2.9082e-06
2.83982e-06
2.77831e-06
2.72304e-06
2.67356e-06
2.62966e-06
2.59157e-06
2.56087e-06
2.54184e-06
2.1387e-05
2.24014e-05
2.39043e-05
2.54391e-05
2.60648e-05
2.56374e-05
2.40749e-05
2.16514e-05
1.9158e-05
1.68718e-05
1.48702e-05
1.31471e-05
1.16749e-05
1.04228e-05
9.36153e-06
8.4635e-06
7.70401e-06
7.06144e-06
6.51724e-06
6.05552e-06
5.66268e-06
5.32715e-06
5.03917e-06
4.79053e-06
4.57448e-06
4.38549e-06
4.21911e-06
4.07174e-06
3.94052e-06
3.82317e-06
3.71781e-06
3.62296e-06
3.5374e-06
3.46018e-06
3.39065e-06
3.32847e-06
3.27373e-06
3.22721e-06
3.19089e-06
3.16877e-06
2.10448e-05
2.15133e-05
2.26458e-05
2.40228e-05
2.50021e-05
2.49758e-05
2.409e-05
2.23556e-05
2.03716e-05
1.83933e-05
1.65404e-05
1.48578e-05
1.33602e-05
1.2047e-05
1.09074e-05
9.9249e-06
9.08114e-06
8.35802e-06
7.73895e-06
7.20908e-06
6.75519e-06
6.36554e-06
6.02983e-06
5.73918e-06
5.48604e-06
5.2641e-06
5.0682e-06
4.89417e-06
4.73867e-06
4.59905e-06
4.47319e-06
4.35941e-06
4.25636e-06
4.16299e-06
4.07858e-06
4.00282e-06
3.93593e-06
3.87898e-06
3.83441e-06
3.80692e-06
2.05265e-05
2.10062e-05
2.17759e-05
2.27132e-05
2.34586e-05
2.35867e-05
2.32329e-05
2.21653e-05
2.07185e-05
1.9171e-05
1.76025e-05
1.60863e-05
1.46713e-05
1.33852e-05
1.22376e-05
1.12256e-05
1.03397e-05
9.56789e-06
8.89767e-06
8.31713e-06
7.81502e-06
7.38077e-06
7.00457e-06
6.67753e-06
6.39176e-06
6.1405e-06
5.91805e-06
5.71978e-06
5.54193e-06
5.38155e-06
5.23631e-06
5.10439e-06
4.98434e-06
4.87507e-06
4.77583e-06
4.68624e-06
4.60656e-06
4.538e-06
4.48341e-06
4.44883e-06
2.06873e-05
2.07454e-05
2.10751e-05
2.15056e-05
2.18994e-05
2.20287e-05
2.18839e-05
2.13911e-05
2.0465e-05
1.93193e-05
1.80828e-05
1.68041e-05
1.55504e-05
1.43668e-05
1.32783e-05
1.22939e-05
1.1413e-05
1.06303e-05
9.93881e-06
9.33081e-06
8.79834e-06
8.33325e-06
7.92731e-06
7.57244e-06
7.26105e-06
6.98631e-06
6.74228e-06
6.52397e-06
6.32733e-06
6.14918e-06
5.98701e-06
5.83893e-06
5.70347e-06
5.57952e-06
5.46632e-06
5.3635e-06
5.27125e-06
5.19083e-06
5.12544e-06
5.08263e-06
2.04556e-05
2.04155e-05
2.03932e-05
2.04521e-05
2.05801e-05
2.06569e-05
2.05984e-05
2.03577e-05
1.98328e-05
1.90545e-05
1.80855e-05
1.70543e-05
1.60001e-05
1.49675e-05
1.3989e-05
1.30808e-05
1.22485e-05
1.14927e-05
1.08116e-05
1.02021e-05
9.66034e-06
9.18125e-06
8.75907e-06
8.38739e-06
8.05956e-06
7.76914e-06
7.51025e-06
7.27779e-06
7.06752e-06
6.87607e-06
6.70084e-06
6.53989e-06
6.39178e-06
6.25545e-06
6.13019e-06
6.01564e-06
5.91197e-06
5.82039e-06
5.74429e-06
5.69274e-06
2.02703e-05
2.00848e-05
1.98538e-05
1.97171e-05
1.96589e-05
1.96254e-05
1.9549e-05
1.93773e-05
1.90295e-05
1.84871e-05
1.77883e-05
1.69571e-05
1.6083e-05
1.52159e-05
1.43737e-05
1.35726e-05
1.28209e-05
1.21228e-05
1.14802e-05
1.08939e-05
1.03638e-05
9.88838e-06
9.46463e-06
9.08838e-06
8.75447e-06
8.45733e-06
8.19147e-06
7.95189e-06
7.73429e-06
7.53521e-06
7.35196e-06
7.1826e-06
7.02572e-06
6.88038e-06
6.74594e-06
6.62211e-06
6.50906e-06
6.40791e-06
6.32209e-06
6.26188e-06
2.03704e-05
2.00044e-05
1.95885e-05
1.92839e-05
1.90566e-05
1.88882e-05
1.87335e-05
1.85374e-05
1.82386e-05
1.78071e-05
1.72546e-05
1.66136e-05
1.59144e-05
1.51875e-05
1.44783e-05
1.37945e-05
1.31389e-05
1.25169e-05
1.19322e-05
1.13881e-05
1.08872e-05
1.0431e-05
1.00193e-05
9.65023e-06
9.32041e-06
9.0255e-06
8.76068e-06
8.52126e-06
8.30303e-06
8.10249e-06
7.91691e-06
7.74431e-06
7.58334e-06
7.43315e-06
7.29323e-06
7.16338e-06
7.04378e-06
6.93547e-06
6.84173e-06
6.77363e-06
2.04887e-05
1.99997e-05
1.9445e-05
1.90205e-05
1.8673e-05
1.83851e-05
1.81293e-05
1.78631e-05
1.75421e-05
1.71416e-05
1.66645e-05
1.61298e-05
1.55596e-05
1.49771e-05
1.43866e-05
1.38028e-05
1.32413e-05
1.27e-05
1.21813e-05
1.16897e-05
1.12292e-05
1.08034e-05
1.04142e-05
1.00618e-05
9.74457e-06
9.45949e-06
9.20266e-06
8.96987e-06
8.75713e-06
8.56094e-06
8.37855e-06
8.20794e-06
8.04777e-06
7.89726e-06
7.75599e-06
7.62386e-06
7.5011e-06
7.38863e-06
7.28944e-06
7.21486e-06
2.04468e-05
2.00598e-05
1.94542e-05
1.89216e-05
1.84686e-05
1.80679e-05
1.77027e-05
1.73466e-05
1.69699e-05
1.65566e-05
1.61073e-05
1.56327e-05
1.51444e-05
1.46525e-05
1.41619e-05
1.36762e-05
1.31924e-05
1.27194e-05
1.22634e-05
1.18255e-05
1.14093e-05
1.10192e-05
1.06584e-05
1.03285e-05
1.00294e-05
9.75941e-06
9.51548e-06
9.29402e-06
9.09134e-06
8.90405e-06
8.72938e-06
8.56526e-06
8.41031e-06
8.26373e-06
8.12516e-06
7.99457e-06
7.8722e-06
7.75885e-06
7.65712e-06
7.578e-06
2.05749e-05
2.03739e-05
1.96252e-05
1.89409e-05
1.83687e-05
1.78589e-05
1.73946e-05
1.69551e-05
1.652e-05
1.60795e-05
1.56343e-05
1.51893e-05
1.47488e-05
1.43145e-05
1.38863e-05
1.34637e-05
1.30468e-05
1.26357e-05
1.22306e-05
1.18378e-05
1.14626e-05
1.11077e-05
1.07764e-05
1.0471e-05
1.01924e-05
9.93976e-06
9.71108e-06
9.50332e-06
9.31315e-06
9.13739e-06
8.97332e-06
8.81879e-06
8.67233e-06
8.53308e-06
8.40064e-06
8.27496e-06
8.15628e-06
8.04524e-06
7.94396e-06
7.86253e-06
2.08991e-05
2.05302e-05
1.96759e-05
1.89156e-05
1.82572e-05
1.76767e-05
1.71504e-05
1.66564e-05
1.61804e-05
1.57174e-05
1.52686e-05
1.48361e-05
1.44195e-05
1.40167e-05
1.36244e-05
1.32402e-05
1.2863e-05
1.24923e-05
1.21294e-05
1.17759e-05
1.14341e-05
1.11084e-05
1.08035e-05
1.05211e-05
1.02621e-05
1.00265e-05
9.81288e-06
9.61881e-06
9.44145e-06
9.27785e-06
9.12533e-06
8.98175e-06
8.84555e-06
8.71571e-06
8.59175e-06
8.47353e-06
8.36117e-06
8.25515e-06
8.15705e-06
8.07563e-06
2.15318e-05
2.04947e-05
1.95369e-05
1.87533e-05
1.80843e-05
1.74965e-05
1.69544e-05
1.64396e-05
1.59444e-05
1.54689e-05
1.50158e-05
1.45864e-05
1.41786e-05
1.37886e-05
1.34124e-05
1.30472e-05
1.26912e-05
1.23441e-05
1.20061e-05
1.16784e-05
1.1363e-05
1.10626e-05
1.07792e-05
1.05155e-05
1.02731e-05
1.00522e-05
9.85156e-06
9.6694e-06
9.50332e-06
9.3507e-06
9.20903e-06
9.07615e-06
8.95041e-06
8.83069e-06
8.71633e-06
8.60702e-06
8.50273e-06
8.40372e-06
8.311e-06
8.23164e-06
2.06377e-05
2.01656e-05
1.9329e-05
1.86029e-05
1.79666e-05
1.73885e-05
1.68444e-05
1.6321e-05
1.58155e-05
1.53311e-05
1.48718e-05
1.44387e-05
1.40296e-05
1.36404e-05
1.32673e-05
1.29075e-05
1.25597e-05
1.22234e-05
1.18988e-05
1.15865e-05
1.12878e-05
1.10041e-05
1.07372e-05
1.04887e-05
1.02596e-05
1.005e-05
9.85954e-06
9.68668e-06
9.52947e-06
9.38565e-06
9.25297e-06
9.12937e-06
9.01317e-06
8.90312e-06
8.79838e-06
8.69844e-06
8.60306e-06
8.51222e-06
8.42639e-06
8.35077e-06
2.076e-05
2.00686e-05
1.93444e-05
1.8629e-05
1.79841e-05
1.73981e-05
1.68456e-05
1.63114e-05
1.57927e-05
1.52954e-05
1.48247e-05
1.43819e-05
1.39647e-05
1.35693e-05
1.31918e-05
1.28297e-05
1.2482e-05
1.21485e-05
1.18296e-05
1.15255e-05
1.12367e-05
1.0964e-05
1.07083e-05
1.04703e-05
1.02507e-05
1.00496e-05
9.86641e-06
9.70024e-06
9.54946e-06
9.4122e-06
9.28648e-06
9.17041e-06
9.06235e-06
8.96096e-06
8.86522e-06
8.77442e-06
8.68807e-06
8.60587e-06
8.52781e-06
8.45705e-06
2.12468e-05
2.03329e-05
1.95422e-05
1.8776e-05
1.80977e-05
1.74908e-05
1.69195e-05
1.63671e-05
1.58337e-05
1.53243e-05
1.48436e-05
1.43922e-05
1.39674e-05
1.35643e-05
1.31796e-05
1.2812e-05
1.24609e-05
1.21265e-05
1.18093e-05
1.15093e-05
1.12265e-05
1.0961e-05
1.07128e-05
1.04821e-05
1.02692e-05
1.00742e-05
9.89649e-06
9.73528e-06
9.5893e-06
9.45703e-06
9.3368e-06
9.22693e-06
9.12585e-06
9.03217e-06
8.94473e-06
8.86261e-06
8.78506e-06
8.71151e-06
8.64157e-06
8.57633e-06
2.24578e-05
2.10827e-05
1.98564e-05
1.89631e-05
1.82478e-05
1.76282e-05
1.70469e-05
1.64813e-05
1.59314e-05
1.54059e-05
1.49111e-05
1.44477e-05
1.40127e-05
1.36022e-05
1.32123e-05
1.28409e-05
1.24877e-05
1.21531e-05
1.18374e-05
1.15406e-05
1.12627e-05
1.1003e-05
1.07614e-05
1.05375e-05
1.0331e-05
1.01415e-05
9.9688e-06
9.81209e-06
9.67049e-06
9.54283e-06
9.42774e-06
9.32371e-06
9.22925e-06
9.14295e-06
9.0635e-06
8.98978e-06
8.9208e-06
8.85574e-06
8.79396e-06
8.7344e-06
2.12176e-05
2.06737e-05
1.97686e-05
1.89795e-05
1.83245e-05
1.77338e-05
1.71614e-05
1.65943e-05
1.604e-05
1.55095e-05
1.50095e-05
1.45409e-05
1.41005e-05
1.36843e-05
1.32897e-05
1.29155e-05
1.25616e-05
1.22285e-05
1.19163e-05
1.16247e-05
1.13531e-05
1.11005e-05
1.08661e-05
1.06492e-05
1.04492e-05
1.02658e-05
1.00986e-05
9.94731e-06
9.81111e-06
9.6891e-06
9.58011e-06
9.48278e-06
9.39566e-06
9.31726e-06
9.24614e-06
9.18097e-06
9.12054e-06
9.06376e-06
9.00996e-06
8.95579e-06
2.09706e-05
2.02715e-05
1.95327e-05
1.88934e-05
1.83348e-05
1.77973e-05
1.72458e-05
1.66866e-05
1.61371e-05
1.56112e-05
1.5115e-05
1.46489e-05
1.421e-05
1.3795e-05
1.34021e-05
1.30307e-05
1.26812e-05
1.2354e-05
1.20489e-05
1.17655e-05
1.15026e-05
1.12591e-05
1.10337e-05
1.08257e-05
1.06343e-05
1.04591e-05
1.03e-05
1.01566e-05
1.00282e-05
9.91423e-06
9.81355e-06
9.72488e-06
9.64673e-06
9.57751e-06
9.51561e-06
9.45948e-06
9.40769e-06
9.35889e-06
9.31263e-06
9.26292e-06
2.04346e-05
1.99852e-05
1.93925e-05
1.885e-05
1.83503e-05
1.78394e-05
1.7302e-05
1.6755e-05
1.62187e-05
1.57065e-05
1.52228e-05
1.47672e-05
1.4337e-05
1.39301e-05
1.35455e-05
1.31835e-05
1.28446e-05
1.2529e-05
1.22365e-05
1.19662e-05
1.17166e-05
1.14864e-05
1.12743e-05
1.10791e-05
1.09002e-05
1.07372e-05
1.05899e-05
1.0458e-05
1.0341e-05
1.02383e-05
1.01489e-05
1.00714e-05
1.00042e-05
9.94571e-06
9.894e-06
9.84731e-06
9.80403e-06
9.76249e-06
9.72286e-06
9.6758e-06
2.04566e-05
2.00568e-05
1.94503e-05
1.88843e-05
1.83729e-05
1.78609e-05
1.73352e-05
1.68077e-05
1.62943e-05
1.58044e-05
1.53411e-05
1.49034e-05
1.4489e-05
1.40971e-05
1.37278e-05
1.3382e-05
1.30606e-05
1.27635e-05
1.24902e-05
1.22394e-05
1.20095e-05
1.17987e-05
1.16056e-05
1.14289e-05
1.1268e-05
1.11223e-05
1.09916e-05
1.08756e-05
1.07738e-05
1.06857e-05
1.06103e-05
1.0546e-05
1.04914e-05
1.04445e-05
1.04032e-05
1.03657e-05
1.033e-05
1.02942e-05
1.02594e-05
1.02121e-05
2.06021e-05
2.01247e-05
1.95657e-05
1.89551e-05
1.83986e-05
1.78793e-05
1.73713e-05
1.68721e-05
1.63898e-05
1.59293e-05
1.54924e-05
1.50783e-05
1.4686e-05
1.43156e-05
1.39685e-05
1.36462e-05
1.33496e-05
1.30786e-05
1.28323e-05
1.2609e-05
1.24066e-05
1.2223e-05
1.20565e-05
1.19054e-05
1.17689e-05
1.16462e-05
1.15369e-05
1.14408e-05
1.13573e-05
1.1286e-05
1.12259e-05
1.11756e-05
1.11335e-05
1.10976e-05
1.10657e-05
1.10355e-05
1.10053e-05
1.09725e-05
1.094e-05
1.08883e-05
2.08652e-05
2.02922e-05
1.97232e-05
1.90463e-05
1.84542e-05
1.79368e-05
1.74558e-05
1.69932e-05
1.65469e-05
1.61195e-05
1.57127e-05
1.53268e-05
1.49621e-05
1.46199e-05
1.43022e-05
1.40112e-05
1.37477e-05
1.35115e-05
1.33011e-05
1.31143e-05
1.29485e-05
1.2801e-05
1.26693e-05
1.25513e-05
1.24455e-05
1.23508e-05
1.22666e-05
1.21925e-05
1.21283e-05
1.20737e-05
1.20279e-05
1.199e-05
1.19583e-05
1.19307e-05
1.19052e-05
1.18793e-05
1.18511e-05
1.18177e-05
1.17839e-05
1.17232e-05
2.04656e-05
2.04302e-05
1.98343e-05
1.91271e-05
1.85691e-05
1.80892e-05
1.7649e-05
1.72272e-05
1.68175e-05
1.64245e-05
1.60513e-05
1.56994e-05
1.53696e-05
1.50638e-05
1.47845e-05
1.45339e-05
1.43128e-05
1.41205e-05
1.3955e-05
1.38137e-05
1.36932e-05
1.35898e-05
1.35002e-05
1.34212e-05
1.33503e-05
1.32862e-05
1.32279e-05
1.31752e-05
1.31284e-05
1.30876e-05
1.30528e-05
1.30233e-05
1.29979e-05
1.29748e-05
1.29517e-05
1.29263e-05
1.28966e-05
1.28587e-05
1.28203e-05
1.27464e-05
2.07707e-05
2.05399e-05
1.98502e-05
1.92704e-05
1.88139e-05
1.84058e-05
1.80128e-05
1.76286e-05
1.72579e-05
1.69068e-05
1.6578e-05
1.62721e-05
1.59897e-05
1.57323e-05
1.55024e-05
1.53019e-05
1.51315e-05
1.49905e-05
1.48764e-05
1.47861e-05
1.47157e-05
1.46608e-05
1.46164e-05
1.45781e-05
1.45428e-05
1.45081e-05
1.44733e-05
1.44388e-05
1.44054e-05
1.4374e-05
1.43457e-05
1.43207e-05
1.42979e-05
1.42759e-05
1.42525e-05
1.4225e-05
1.41915e-05
1.41471e-05
1.41015e-05
1.4012e-05
2.14216e-05
2.08521e-05
2.01185e-05
1.96099e-05
1.92273e-05
1.88899e-05
1.85616e-05
1.82414e-05
1.79391e-05
1.76599e-05
1.74036e-05
1.71678e-05
1.69515e-05
1.67563e-05
1.65848e-05
1.64396e-05
1.63223e-05
1.62327e-05
1.61688e-05
1.61269e-05
1.61036e-05
1.60949e-05
1.60935e-05
1.60929e-05
1.60901e-05
1.60817e-05
1.60665e-05
1.6047e-05
1.60241e-05
1.6e-05
1.5977e-05
1.59559e-05
1.5936e-05
1.59157e-05
1.58926e-05
1.5864e-05
1.58272e-05
1.57765e-05
1.57223e-05
1.56168e-05
2.1591e-05
2.11271e-05
2.04111e-05
1.99625e-05
1.9701e-05
1.95047e-05
1.93178e-05
1.91407e-05
1.89826e-05
1.88415e-05
1.87084e-05
1.85772e-05
1.84463e-05
1.83191e-05
1.82025e-05
1.81035e-05
1.8027e-05
1.79755e-05
1.79489e-05
1.79446e-05
1.79552e-05
1.79862e-05
1.80236e-05
1.8058e-05
1.8085e-05
1.81014e-05
1.81064e-05
1.81048e-05
1.80972e-05
1.80849e-05
1.8073e-05
1.80622e-05
1.80515e-05
1.80381e-05
1.802e-05
1.79942e-05
1.7956e-05
1.78993e-05
1.78336e-05
1.77106e-05
2.10912e-05
2.10393e-05
2.06607e-05
2.04262e-05
2.03576e-05
2.03712e-05
2.04221e-05
2.05104e-05
2.06157e-05
2.07079e-05
2.07566e-05
2.07556e-05
2.07165e-05
2.06366e-05
2.05444e-05
2.04589e-05
2.03936e-05
2.03561e-05
2.03473e-05
2.03599e-05
2.04072e-05
2.04788e-05
2.05553e-05
2.06291e-05
2.06934e-05
2.07446e-05
2.07821e-05
2.08085e-05
2.08266e-05
2.084e-05
2.08515e-05
2.08616e-05
2.08677e-05
2.08653e-05
2.08555e-05
2.08328e-05
2.07882e-05
2.07183e-05
2.06307e-05
2.04805e-05
2.12275e-05
2.11753e-05
2.10796e-05
2.11152e-05
2.13264e-05
2.16961e-05
2.21658e-05
2.26922e-05
2.32019e-05
2.36159e-05
2.38813e-05
2.39838e-05
2.39785e-05
2.39138e-05
2.37874e-05
2.36707e-05
2.35881e-05
2.35512e-05
2.35545e-05
2.35988e-05
2.37044e-05
2.38332e-05
2.39703e-05
2.41038e-05
2.42249e-05
2.43286e-05
2.44138e-05
2.44823e-05
2.45377e-05
2.45836e-05
2.46222e-05
2.46504e-05
2.46672e-05
2.46647e-05
2.46478e-05
2.46062e-05
2.45305e-05
2.44212e-05
2.42846e-05
2.40816e-05
2.07181e-05
2.12357e-05
2.16991e-05
2.22975e-05
2.30758e-05
2.40508e-05
2.51601e-05
2.62796e-05
2.72619e-05
2.7986e-05
2.8396e-05
2.85116e-05
2.84772e-05
2.83393e-05
2.81448e-05
2.79929e-05
2.79124e-05
2.79075e-05
2.79595e-05
2.81062e-05
2.83089e-05
2.85314e-05
2.8756e-05
2.89654e-05
2.91503e-05
2.93053e-05
2.94288e-05
2.95225e-05
2.95921e-05
2.96417e-05
2.96712e-05
2.96706e-05
2.9653e-05
2.96062e-05
2.95193e-05
2.93959e-05
2.92334e-05
2.90307e-05
2.87953e-05
2.84957e-05
2.13868e-05
2.2407e-05
2.35684e-05
2.50065e-05
2.66841e-05
2.85467e-05
3.04271e-05
3.21215e-05
3.34469e-05
3.42992e-05
3.46733e-05
3.46948e-05
3.45866e-05
3.43387e-05
3.41292e-05
3.40217e-05
3.40194e-05
3.40978e-05
3.43094e-05
3.45939e-05
3.49029e-05
3.52084e-05
3.54862e-05
3.5715e-05
3.58947e-05
3.60219e-05
3.60937e-05
3.61115e-05
3.60952e-05
3.60465e-05
3.59544e-05
3.58232e-05
3.56526e-05
3.54406e-05
3.51847e-05
3.4886e-05
3.45481e-05
3.41735e-05
3.37743e-05
3.33289e-05
2.29648e-05
2.50957e-05
2.79229e-05
3.0932e-05
3.39242e-05
3.6745e-05
3.92396e-05
4.12331e-05
4.26084e-05
4.33454e-05
4.35353e-05
4.3466e-05
4.32217e-05
4.29494e-05
4.28021e-05
4.27853e-05
4.28507e-05
4.30533e-05
4.33342e-05
4.36231e-05
4.38852e-05
4.40886e-05
4.42141e-05
4.4242e-05
4.42067e-05
4.40993e-05
4.39023e-05
4.36469e-05
4.33435e-05
4.29987e-05
4.26098e-05
4.21757e-05
4.17005e-05
4.1187e-05
4.06386e-05
4.00604e-05
3.94608e-05
3.88452e-05
3.82332e-05
3.76184e-05
2.62487e-05
3.19039e-05
3.76999e-05
4.27311e-05
4.68362e-05
5.02525e-05
5.30205e-05
5.50604e-05
5.62806e-05
5.67404e-05
5.6669e-05
5.6304e-05
5.57486e-05
5.52687e-05
5.49257e-05
5.46937e-05
5.45412e-05
5.44451e-05
5.43497e-05
5.4211e-05
5.39915e-05
5.3669e-05
5.32336e-05
5.26794e-05
5.20403e-05
5.13374e-05
5.0584e-05
4.97963e-05
4.89849e-05
4.81548e-05
4.73126e-05
4.64621e-05
4.55993e-05
4.47259e-05
4.3847e-05
4.29699e-05
4.21049e-05
4.12596e-05
4.04616e-05
3.97288e-05
3.41807e-05
4.78591e-05
5.63159e-05
6.17943e-05
6.64492e-05
7.05891e-05
7.36365e-05
7.5544e-05
7.59118e-05
7.54397e-05
7.40026e-05
7.19963e-05
7.00256e-05
6.82712e-05
6.67678e-05
6.54948e-05
6.43882e-05
6.33568e-05
6.23281e-05
6.12605e-05
6.01317e-05
5.89328e-05
5.76691e-05
5.63544e-05
5.50128e-05
5.36648e-05
5.23245e-05
5.10016e-05
4.97007e-05
4.8423e-05
4.71688e-05
4.59391e-05
4.47369e-05
4.35662e-05
4.24325e-05
4.13423e-05
4.03044e-05
3.93272e-05
3.84431e-05
3.76947e-05
5.38431e-05
7.78099e-05
8.52332e-05
8.97772e-05
9.36115e-05
9.5851e-05
9.62278e-05
9.52075e-05
9.20635e-05
8.75393e-05
8.27145e-05
7.80899e-05
7.39724e-05
7.04308e-05
6.73966e-05
6.47524e-05
6.23874e-05
6.02089e-05
5.81453e-05
5.61536e-05
5.42118e-05
5.23125e-05
5.04587e-05
4.86595e-05
4.69251e-05
4.52627e-05
4.36746e-05
4.21595e-05
4.07139e-05
3.93333e-05
3.80142e-05
3.67546e-05
3.55545e-05
3.44152e-05
3.33388e-05
3.23284e-05
3.13883e-05
3.05254e-05
2.97674e-05
2.91638e-05
0.000113476
0.000135927
0.000128476
0.000115379
0.000104291
9.36861e-05
8.32557e-05
7.35983e-05
6.49274e-05
5.74928e-05
5.13493e-05
4.63802e-05
4.23927e-05
3.91718e-05
3.65212e-05
3.42822e-05
3.23371e-05
3.06027e-05
2.90219e-05
2.75589e-05
2.61927e-05
2.49117e-05
2.37103e-05
2.25857e-05
2.15356e-05
2.05569e-05
1.9645e-05
1.87947e-05
1.80006e-05
1.72578e-05
1.65622e-05
1.59111e-05
1.53026e-05
1.47355e-05
1.42091e-05
1.37229e-05
1.32772e-05
1.28732e-05
1.2521e-05
1.22395e-05
)
;

boundaryField
{
    upperWall
    {
        type            fixedValue;
        value           uniform 0;
    }
    lowerWall
    {
        type            fixedValue;
        value           uniform 0;
    }
    inlet
    {
        type            fixedValue;
        value           uniform 2e-05;
    }
    outlet
    {
        type            inletOutlet;
        inletValue      uniform 0;
        value           nonuniform List<scalar> 
40
(
2.25949e-07
7.7766e-07
1.34233e-06
1.93112e-06
2.54184e-06
3.16877e-06
3.80692e-06
4.44883e-06
5.08263e-06
5.69274e-06
6.26188e-06
6.77363e-06
7.21486e-06
7.578e-06
7.86253e-06
8.07563e-06
8.23164e-06
8.35077e-06
8.45705e-06
8.57633e-06
8.7344e-06
8.95579e-06
9.26292e-06
9.6758e-06
1.02121e-05
1.08883e-05
1.17232e-05
1.27464e-05
1.4012e-05
1.56168e-05
1.77106e-05
2.04805e-05
2.40816e-05
2.84957e-05
3.33289e-05
3.76184e-05
3.97288e-05
3.76947e-05
2.91638e-05
1.22395e-05
)
;
    }
    frontAndBack
    {
        type            empty;
    }
}


// ************************************************************************* //
