/*--------------------------------*- C++ -*----------------------------------*\
  =========                 |
  \\      /  F ield         | OpenFOAM: The Open Source CFD Toolbox
   \\    /   O peration     | Website:  https://openfoam.org
    \\  /    A nd           | Version:  7
     \\/     M anipulation  |
\*---------------------------------------------------------------------------*/
FoamFile
{
    version     2.0;
    format      ascii;
    class       volScalarField;
    location    "0.1025";
    object      k;
}
// * * * * * * * * * * * * * * * * * * * * * * * * * * * * * * * * * * * * * //

dimensions      [0 2 -2 0 0 0 0];

internalField   nonuniform List<scalar> 
1440
(
0.144817
0.783855
2.00022
3.45412
4.87631
6.10482
7.04836
7.70855
8.0955
8.29097
8.28104
8.21252
8.05745
7.83986
7.59745
7.34502
7.09277
6.8475
6.61339
6.39294
6.18726
5.99673
5.82111
5.65977
5.51187
5.37645
5.25249
5.13897
5.03488
4.93929
4.85132
4.77019
4.69519
4.62567
4.56105
4.50079
4.44442
4.39151
4.3417
4.29467
4.25016
4.20794
4.16778
4.12947
4.09284
4.05773
4.02403
3.99163
3.96046
3.93042
3.90143
3.8734
3.84626
3.81993
3.79439
3.7696
3.74555
3.7222
3.69952
3.67745
3.65593
3.63493
3.61445
3.59449
3.57507
3.55617
3.53776
3.51979
3.50221
3.485
3.46817
3.45171
3.43567
3.42002
3.40476
3.38982
3.37514
3.36068
3.34637
3.33223
3.31824
3.30445
3.29088
3.27757
3.26454
3.25178
3.23928
3.22703
3.21497
3.20309
3.19135
3.17973
3.1682
3.15677
3.1454
3.13412
3.12288
3.11173
3.1006
3.08955
3.0785
3.06755
3.05656
3.04566
3.03473
3.02382
3.01296
3.00196
2.99124
2.97996
2.96963
2.95783
2.94821
2.93527
2.92699
2.91258
2.90561
2.89017
2.88419
2.86766
0.000354423
0.00713393
0.0365026
0.108009
0.252979
0.468056
0.723377
1.00058
1.26588
1.51133
1.71791
1.88886
2.02499
2.12887
2.20503
2.2591
2.29509
2.31807
2.33036
2.33634
2.33592
2.33393
2.32966
2.32406
2.31806
2.31208
2.30643
2.30127
2.29672
2.29278
2.28942
2.28658
2.28417
2.28212
2.28039
2.27893
2.27768
2.27658
2.27556
2.27455
2.27352
2.27246
2.27134
2.27017
2.26893
2.2676
2.26614
2.26454
2.26281
2.26095
2.259
2.25697
2.25488
2.2527
2.25041
2.24798
2.24544
2.2428
2.2401
2.23739
2.23465
2.23187
2.22902
2.22606
2.223
2.21987
2.21672
2.21358
2.21047
2.20736
2.20419
2.20092
2.19756
2.19411
2.19064
2.18722
2.18391
2.18074
2.1777
2.17475
2.17185
2.16892
2.16592
2.16281
2.15959
2.15627
2.15289
2.14948
2.14608
2.1427
2.13937
2.13609
2.13287
2.12969
2.12656
2.12347
2.12041
2.11737
2.11438
2.11139
2.10844
2.1055
2.1026
2.09972
2.0969
2.09408
2.09136
2.08863
2.08599
2.08335
2.08084
2.0783
2.07588
2.07339
2.07106
2.0687
2.0664
2.06397
2.06225
2.0593
2.02762e-05
3.86389e-05
0.000198255
0.00087876
0.00297187
0.00780778
0.0175175
0.0338472
0.0562072
0.0845803
0.117191
0.152666
0.18931
0.225902
0.261171
0.294496
0.325168
0.35304
0.377821
0.399706
0.418767
0.435345
0.449735
0.46221
0.47303
0.482435
0.490636
0.497826
0.504181
0.50987
0.515053
0.519869
0.52443
0.528825
0.533123
0.537373
0.541613
0.545868
0.550176
0.554556
0.559036
0.563639
0.568375
0.573286
0.578352
0.583556
0.588882
0.59426
0.599752
0.605376
0.611135
0.617103
0.623183
0.629343
0.635568
0.641825
0.648109
0.654459
0.660913
0.66743
0.674022
0.680698
0.687362
0.693983
0.700627
0.707186
0.713754
0.720385
0.727067
0.733773
0.740484
0.747157
0.753705
0.76023
0.766588
0.772878
0.779042
0.785338
0.791584
0.797638
0.803675
0.809577
0.815375
0.821062
0.826628
0.832001
0.837281
0.842491
0.847762
0.853024
0.858371
0.863714
0.869232
0.874936
0.880511
0.886129
0.891873
0.897477
0.903005
0.908529
0.914079
0.91958
0.925124
0.9304
0.935775
0.940923
0.946175
0.951405
0.956621
0.961556
0.966308
0.971297
0.976145
0.981115
0.985076
0.989942
0.993323
0.998562
1.00114
1.00687
2.00255e-05
2.01462e-05
2.08183e-05
2.44563e-05
3.96193e-05
8.73976e-05
0.000211397
0.0004823
0.00102367
0.00195686
0.00329898
0.0051335
0.00747952
0.010305
0.0134995
0.017018
0.0208272
0.0248656
0.0289927
0.0330844
0.0370922
0.0410265
0.0448847
0.0486243
0.0521934
0.0555711
0.0587757
0.0618179
0.0647152
0.0674309
0.0699544
0.0722908
0.0744838
0.076617
0.0787218
0.0807499
0.0826411
0.0843714
0.0859898
0.0875828
0.0891951
0.0907782
0.092252
0.0936305
0.0949992
0.096434
0.0979366
0.0994136
0.100794
0.102053
0.103228
0.104448
0.105819
0.107357
0.108975
0.110521
0.111885
0.113087
0.11426
0.115553
0.117053
0.118748
0.120523
0.12224
0.123831
0.125278
0.126657
0.128071
0.129612
0.131318
0.133183
0.135154
0.13717
0.139161
0.141089
0.142921
0.14467
0.146353
0.147994
0.149548
0.151059
0.152451
0.153679
0.154806
0.155833
0.156706
0.15739
0.15776
0.158231
0.158834
0.159408
0.160086
0.160672
0.16121
0.161925
0.162918
0.164052
0.165441
0.167472
0.16935
0.171503
0.173695
0.175787
0.177871
0.17991
0.181806
0.183793
0.185747
0.187541
0.18911
0.191016
0.192664
0.194774
0.195995
0.1974
0.198397
0.200252
0.201481
0.20259
0.203478
2.00061e-05
2.00588e-05
2.02069e-05
2.05233e-05
2.10702e-05
2.20122e-05
2.36378e-05
2.68655e-05
3.3324e-05
4.70408e-05
7.03836e-05
0.00010339
0.000158891
0.000242206
0.000343374
0.000460161
0.000605573
0.000788933
0.00100018
0.00122108
0.00144578
0.00168459
0.00194923
0.00223741
0.00253202
0.00281639
0.00309176
0.00337577
0.00368679
0.0040113
0.00431782
0.00458623
0.00483636
0.00511521
0.00544223
0.00578432
0.00609001
0.00634102
0.00657315
0.00684144
0.00716192
0.0074918
0.00777355
0.00799764
0.008212
0.00847659
0.00880815
0.00916406
0.0094775
0.00970955
0.00987829
0.0100524
0.0102993
0.0106395
0.0110313
0.0113999
0.0116854
0.0118762
0.0120174
0.0121692
0.0123952
0.0127073
0.0130962
0.0135268
0.0139026
0.0141832
0.0143417
0.0144568
0.0146025
0.0148321
0.0151864
0.0156108
0.0160603
0.0164847
0.0168289
0.0170911
0.0172544
0.0173464
0.0173982
0.0174135
0.0174138
0.0174134
0.0174125
0.0174028
0.0173561
0.0171936
0.0167867
0.0162722
0.0157214
0.0151397
0.0145615
0.0140312
0.0135502
0.0131171
0.0127526
0.0124567
0.0122205
0.0120625
0.0119944
0.0119795
0.0119734
0.0119553
0.0119521
0.0119799
0.0120776
0.0121424
0.0121506
0.012156
0.0121992
0.0122698
0.0122794
0.0122704
0.0122789
0.0122803
0.0122801
0.0122334
0.0122099
0.0121182
0.012063
0.011815
2.0002e-05
2.00398e-05
2.01592e-05
2.04457e-05
2.0822e-05
2.1538e-05
2.26562e-05
2.35052e-05
2.44695e-05
2.63505e-05
2.83914e-05
2.96679e-05
3.10587e-05
3.39517e-05
3.74212e-05
3.99675e-05
4.22915e-05
4.61957e-05
5.18944e-05
5.7739e-05
6.25051e-05
6.69428e-05
7.30606e-05
8.16033e-05
9.10754e-05
9.91749e-05
0.000105331
0.000111997
0.000122333
0.000135759
0.000147993
0.000155876
0.000161548
0.000170477
0.000185216
0.000202402
0.000216353
0.000225039
0.000232141
0.000243221
0.000260096
0.000278986
0.000294539
0.000304581
0.000312278
0.000323784
0.000342561
0.000365981
0.000387603
0.000402571
0.000411241
0.000418663
0.000430831
0.000450878
0.000477466
0.000505824
0.000530325
0.000547204
0.000556501
0.00056243
0.000571806
0.000592063
0.000622874
0.000658489
0.000692063
0.000718077
0.000734276
0.00074283
0.00074927
0.000760649
0.000787125
0.000828609
0.000873569
0.000914344
0.000944797
0.000962672
0.000969536
0.000970361
0.000970358
0.00097035
0.000970134
0.000969573
0.000967353
0.000960469
0.000940729
0.000893925
0.000835236
0.000771664
0.00070696
0.000643024
0.000582984
0.000528159
0.000480274
0.000438487
0.000404039
0.000375046
0.000352766
0.000334538
0.000322433
0.000312273
0.000306368
0.000300379
0.000297565
0.000293924
0.000292368
0.000289271
0.000287639
0.000284163
0.000282303
0.000278213
0.000275866
0.00027049
0.00026763
0.000261143
0.000258002
0.000250825
0.000247518
0.000239859
0.000235898
0.000222933
2.0002e-05
2.00399e-05
2.01597e-05
2.04434e-05
2.08212e-05
2.15746e-05
2.26566e-05
2.34576e-05
2.45023e-05
2.64451e-05
2.83869e-05
2.95674e-05
3.10349e-05
3.39914e-05
3.73304e-05
3.95724e-05
4.16819e-05
4.54663e-05
5.07784e-05
5.57922e-05
5.95003e-05
6.30481e-05
6.82998e-05
7.55514e-05
8.29047e-05
8.83793e-05
9.23282e-05
9.73312e-05
0.000105244
0.000114778
0.000122701
0.000127347
0.000130633
0.0001363
0.000146072
0.000157631
0.000166675
0.000171475
0.00017512
0.000181815
0.000192503
0.000204384
0.000213908
0.000219957
0.00022465
0.00023141
0.000242248
0.000256292
0.000270278
0.000280684
0.000286404
0.000290044
0.000296226
0.000307828
0.00032404
0.000341746
0.000357281
0.000368196
0.000374308
0.000377908
0.000382891
0.000393953
0.000412783
0.000434345
0.000454151
0.000468841
0.000477518
0.000482057
0.000486345
0.000494923
0.000513969
0.00053875
0.000563452
0.000583342
0.000595606
0.000600481
0.000601101
0.000601082
0.000601043
0.000600842
0.000600306
0.000598525
0.000593415
0.000579369
0.000545971
0.00050358
0.000457707
0.000411215
0.000366126
0.000324408
0.000286856
0.000254434
0.000226756
0.000204085
0.000185315
0.000170615
0.000158647
0.000149651
0.000142389
0.000137126
0.000132484
0.000128892
0.000125469
0.000122503
0.0001197
0.000116788
0.000114128
0.000110689
0.000108026
0.000103935
0.000101553
9.693e-05
9.44547e-05
8.94611e-05
8.68428e-05
8.13349e-05
7.83952e-05
7.21417e-05
6.89196e-05
6.0584e-05
2.0006e-05
2.00581e-05
2.02051e-05
2.05147e-05
2.10684e-05
2.20033e-05
2.36259e-05
2.6823e-05
3.32105e-05
4.67638e-05
6.98285e-05
0.000101532
0.000156045
0.00023725
0.000333655
0.000443531
0.000581349
0.000755029
0.000951417
0.00115176
0.00135254
0.001567
0.00180451
0.00206022
0.00231444
0.00255421
0.00278417
0.0030245
0.0032883
0.00355938
0.00380672
0.00401714
0.0042156
0.00444449
0.00471616
0.00499447
0.00523329
0.00542411
0.00560526
0.00582387
0.00608692
0.00635283
0.00657632
0.00675182
0.00692283
0.00713782
0.00740495
0.00769152
0.00795014
0.00814735
0.00828679
0.00841908
0.00860807
0.0088843
0.00921382
0.00952924
0.009771
0.00992974
0.0100422
0.0101678
0.0103506
0.0106089
0.0109429
0.0112982
0.0115969
0.0118027
0.0119301
0.0120398
0.0121829
0.0124043
0.0127136
0.0130579
0.0134166
0.0137441
0.0139929
0.014171
0.0142771
0.0143158
0.0143339
0.0143372
0.014337
0.0143366
0.0143292
0.0142943
0.0141696
0.0138248
0.0133363
0.012808
0.0122575
0.0117179
0.0112071
0.0107544
0.0103511
0.0100138
0.0097251
0.00950504
0.00933526
0.00922114
0.0091626
0.00913787
0.0091301
0.00912782
0.00912037
0.00912389
0.00913024
0.00912977
0.00912866
0.00912146
0.00911425
0.00908622
0.00906444
0.00901026
0.00897386
0.00888866
0.0088383
0.0087198
0.00864948
0.00848016
0.00838
0.00804288
2.0025e-05
2.01451e-05
2.08095e-05
2.44088e-05
3.94442e-05
8.68602e-05
0.000210104
0.000479092
0.00101742
0.00194153
0.00326852
0.00507489
0.00738588
0.0101547
0.0132723
0.0166912
0.0203834
0.0242768
0.0282296
0.0321213
0.0359137
0.0396271
0.0432517
0.0467475
0.0500541
0.0531663
0.0561031
0.0588889
0.0615339
0.0640052
0.0662885
0.0683978
0.0703876
0.0723339
0.0742676
0.0761239
0.0778442
0.0794181
0.0809053
0.0823964
0.0839257
0.0854378
0.0868442
0.0881538
0.0894757
0.0908722
0.0923404
0.0937994
0.0951648
0.0964304
0.0976369
0.0988897
0.100282
0.101841
0.103471
0.105033
0.106423
0.107685
0.108935
0.110326
0.11193
0.113694
0.115507
0.117242
0.118847
0.120351
0.121835
0.123392
0.125074
0.126896
0.128847
0.130868
0.132914
0.134923
0.136894
0.138827
0.14063
0.142442
0.144108
0.145667
0.147156
0.148459
0.149596
0.150624
0.151565
0.152252
0.152691
0.153232
0.153839
0.154375
0.154927
0.15553
0.156106
0.156818
0.157574
0.158672
0.159998
0.161514
0.163486
0.165609
0.167518
0.1694
0.17135
0.173372
0.175302
0.177145
0.178875
0.180117
0.181894
0.183567
0.185135
0.18667
0.187854
0.188872
0.190357
0.191513
0.192263
0.192508
0.192974
0.192916
2.02632e-05
3.82688e-05
0.000195802
0.000870385
0.00295272
0.00776256
0.0174534
0.0336975
0.0559816
0.0842113
0.116585
0.15178
0.188095
0.224301
0.259154
0.292023
0.322233
0.349618
0.373957
0.395398
0.414109
0.430363
0.444503
0.456776
0.467458
0.47677
0.484945
0.49216
0.498611
0.504454
0.509869
0.514977
0.519906
0.524721
0.52949
0.534233
0.539004
0.543825
0.548754
0.553819
0.559033
0.564411
0.569947
0.575649
0.581546
0.587563
0.59374
0.600026
0.606429
0.613025
0.61977
0.626678
0.633681
0.640771
0.647893
0.6551
0.662373
0.669801
0.677265
0.684816
0.692389
0.699932
0.707505
0.715046
0.722623
0.730225
0.737861
0.745506
0.753105
0.760687
0.768264
0.775798
0.783215
0.790576
0.797896
0.805144
0.812315
0.819311
0.826196
0.832908
0.83953
0.845963
0.852212
0.858365
0.864489
0.870559
0.876423
0.882231
0.888091
0.894073
0.900076
0.906015
0.912015
0.917965
0.924064
0.930064
0.935807
0.941643
0.947448
0.95319
0.958759
0.964164
0.96956
0.975102
0.980429
0.985556
0.990553
0.995408
1.00047
1.00526
1.00977
1.0141
1.01856
1.02297
1.02697
1.03026
1.03393
1.03691
1.03957
1.04289
0.000343744
0.00703815
0.0361997
0.107376
0.25223
0.46603
0.722011
0.997767
1.26314
1.50701
1.71236
1.88287
2.01805
2.12131
2.19707
2.25117
2.28738
2.31106
2.3242
2.33151
2.33286
2.332
2.32979
2.32619
2.32233
2.31854
2.31518
2.31226
2.31004
2.3083
2.30728
2.30658
2.30652
2.30666
2.30702
2.30764
2.3084
2.30922
2.31008
2.31089
2.31168
2.31234
2.31293
2.31331
2.31363
2.31365
2.31357
2.31335
2.31293
2.31232
2.31155
2.3106
2.30949
2.30822
2.3068
2.30524
2.30355
2.30173
2.29978
2.29771
2.29554
2.29326
2.29089
2.28843
2.28588
2.28326
2.28057
2.2778
2.27496
2.27206
2.26911
2.26609
2.26302
2.25991
2.25674
2.25352
2.25026
2.24695
2.24359
2.24021
2.23679
2.23333
2.22986
2.22636
2.22285
2.21933
2.21582
2.2123
2.20879
2.20529
2.20178
2.19829
2.1948
2.19132
2.18787
2.18442
2.18101
2.1776
2.17424
2.17089
2.16758
2.16428
2.16105
2.15781
2.15465
2.15147
2.14842
2.14529
2.14237
2.13924
2.13648
2.13332
2.13079
2.12742
2.12518
2.12153
2.11956
2.11562
2.11364
2.10878
0.1447
0.782272
1.99885
3.44768
4.86484
6.08116
7.01292
7.65172
8.02603
8.19174
8.17264
8.09027
7.91443
7.68446
7.43157
7.17054
6.91145
6.66095
6.42304
6.20003
5.99289
5.80178
5.62633
5.46573
5.31903
5.18513
5.06292
4.95127
4.84914
4.7555
4.66944
4.59011
4.51676
4.4487
4.38533
4.32612
4.27059
4.21834
4.16901
4.12226
4.07785
4.03551
3.99506
3.95631
3.91912
3.88334
3.84888
3.81563
3.7835
3.75241
3.7223
3.69311
3.66479
3.63729
3.61057
3.58459
3.55931
3.53472
3.51076
3.48744
3.46471
3.44256
3.42098
3.39993
3.37941
3.35939
3.33987
3.32083
3.30226
3.28413
3.26645
3.24919
3.23235
3.2159
3.19984
3.18417
3.16885
3.15389
3.13927
3.12498
3.111
3.09733
3.08396
3.07087
3.05806
3.04551
3.03322
3.02118
3.00936
2.99778
2.98641
2.97526
2.96431
2.95356
2.94299
2.93263
2.92242
2.91241
2.90253
2.89287
2.88329
2.87398
2.8647
2.85576
2.84676
2.83822
2.82948
2.82139
2.8129
2.80531
2.79711
2.79007
2.78229
2.77575
2.76873
2.76254
2.7569
2.7508
2.74722
2.74125
)
;

boundaryField
{
    upperWall
    {
        type            fixedValue;
        value           uniform 0;
    }
    lowerWall
    {
        type            fixedValue;
        value           uniform 0;
    }
    inlet
    {
        type            fixedValue;
        value           uniform 2e-05;
    }
    outlet
    {
        type            inletOutlet;
        inletValue      uniform 0;
        value           nonuniform List<scalar> 
12
(
2.86766
2.0593
1.00687
0.203478
0.011815
0.000222933
6.0584e-05
0.00804288
0.192916
1.04289
2.10878
2.74125
)
;
    }
    frontAndBack
    {
        type            empty;
    }
}


// ************************************************************************* //
