/*--------------------------------*- C++ -*----------------------------------*\
  =========                 |
  \\      /  F ield         | OpenFOAM: The Open Source CFD Toolbox
   \\    /   O peration     | Website:  https://openfoam.org
    \\  /    A nd           | Version:  7
     \\/     M anipulation  |
\*---------------------------------------------------------------------------*/
FoamFile
{
    version     2.0;
    format      ascii;
    class       volScalarField;
    location    "0.7325";
    object      T;
}
// * * * * * * * * * * * * * * * * * * * * * * * * * * * * * * * * * * * * * //

dimensions      [0 0 0 1 0 0 0];

internalField   nonuniform List<scalar> 
4950
(
282.974
283.135
283.184
283.229
283.199
283.205
283.162
283.156
283.119
283.12
283.102
283.115
283.112
283.133
283.142
283.161
283.18
283.183
283.224
283.145
282.944
283.092
283.192
283.258
283.246
283.233
283.177
283.111
283.024
282.954
282.898
282.874
282.87
282.886
282.923
282.956
283.035
283.04
283.196
283.035
282.904
283.026
283.081
283.15
283.108
283.106
283.046
283.007
282.893
282.787
282.65
282.565
282.492
282.471
282.46
282.477
282.528
282.577
282.716
282.756
282.939
283.066
283.149
283.2
283.176
283.157
283.124
283.087
283.005
282.889
282.743
282.614
282.51
282.452
282.415
282.398
282.403
282.421
282.512
282.587
282.905
283.025
283.075
283.135
283.085
283.077
283.024
283.005
282.913
282.814
282.653
282.529
282.404
282.349
282.296
282.279
282.264
282.274
282.338
282.41
282.939
283.066
283.149
283.2
283.176
283.157
283.124
283.087
283.004
282.89
282.742
282.615
282.509
282.453
282.414
282.399
282.401
282.424
282.508
282.591
282.904
283.026
283.081
283.15
283.108
283.107
283.046
283.007
282.892
282.788
282.649
282.566
282.49
282.474
282.456
282.483
282.518
282.592
282.692
282.793
282.944
283.092
283.192
283.258
283.246
283.233
283.177
283.111
283.023
282.955
282.898
282.876
282.868
282.889
282.918
282.965
283.019
283.069
283.136
283.159
282.974
283.135
283.184
283.229
283.199
283.205
283.162
283.156
283.119
283.12
283.101
283.115
283.112
283.134
283.14
283.164
283.175
283.193
283.203
283.211
283.258
283.373
283.498
283.486
283.505
283.439
283.425
283.358
283.354
283.315
283.332
283.316
283.346
283.342
283.382
283.378
283.428
283.389
283.513
283.207
283.221
283.347
283.476
283.497
283.505
283.465
283.415
283.317
283.215
283.109
283.045
282.997
282.996
282.999
283.058
283.092
283.208
283.216
283.403
283.255
283.258
283.392
283.556
283.565
283.594
283.552
283.545
283.456
283.365
283.211
283.1
282.988
282.942
282.896
282.903
282.906
282.981
283.04
283.195
283.262
283.219
283.349
283.481
283.498
283.5
283.473
283.452
283.391
283.293
283.152
283.011
282.891
282.809
282.759
282.725
282.709
282.722
282.77
282.878
283.004
283.256
283.394
283.559
283.565
283.589
283.547
283.548
283.477
283.398
283.246
283.112
282.978
282.898
282.837
282.803
282.77
282.775
282.795
282.897
283.008
283.219
283.349
283.481
283.499
283.5
283.473
283.452
283.392
283.293
283.153
283.01
282.892
282.808
282.76
282.724
282.71
282.721
282.772
282.876
283.007
283.258
283.392
283.556
283.565
283.594
283.552
283.544
283.456
283.364
283.212
283.099
282.99
282.94
282.899
282.899
282.912
282.971
283.054
283.174
283.293
283.221
283.347
283.476
283.497
283.505
283.465
283.415
283.318
283.214
283.11
283.043
282.999
282.992
283.004
283.049
283.105
283.186
283.254
283.337
283.38
283.258
283.373
283.498
283.486
283.505
283.439
283.425
283.358
283.354
283.315
283.331
283.317
283.344
283.345
283.378
283.385
283.415
283.415
283.443
283.419
283.208
283.349
283.444
283.464
283.45
283.381
283.299
283.219
283.188
283.184
283.211
283.23
283.262
283.269
283.31
283.287
283.37
283.243
283.508
282.947
283.202
283.355
283.465
283.493
283.488
283.457
283.396
283.283
283.151
283.023
282.939
282.875
282.868
282.863
282.947
282.995
283.162
283.186
283.408
283.308
283.203
283.358
283.473
283.498
283.494
283.477
283.445
283.36
283.234
283.082
282.955
282.857
282.799
282.76
282.745
282.768
282.834
282.949
283.098
283.241
283.202
283.357
283.466
283.488
283.478
283.461
283.429
283.351
283.223
283.071
282.931
282.832
282.761
282.722
282.678
282.667
282.685
282.757
282.892
283.041
283.203
283.359
283.474
283.497
283.492
283.476
283.448
283.372
283.247
283.096
282.956
282.857
282.787
282.748
282.704
282.682
282.696
282.744
282.878
283.014
283.202
283.357
283.466
283.488
283.478
283.461
283.429
283.351
283.223
283.071
282.931
282.832
282.761
282.722
282.678
282.667
282.686
282.755
282.894
283.038
283.203
283.358
283.473
283.498
283.494
283.477
283.445
283.361
283.233
283.083
282.953
282.859
282.797
282.763
282.742
282.772
282.829
282.954
283.091
283.25
283.202
283.355
283.465
283.493
283.487
283.458
283.395
283.284
283.15
283.025
282.936
282.88
282.861
282.873
282.932
283.016
283.131
283.232
283.339
283.412
283.208
283.349
283.444
283.464
283.45
283.381
283.299
283.22
283.187
283.184
283.21
283.232
283.259
283.276
283.297
283.311
283.327
283.323
283.345
283.296
283.258
283.373
283.498
283.486
283.505
283.439
283.425
283.358
283.354
283.315
283.332
283.316
283.346
283.342
283.382
283.378
283.428
283.389
283.513
283.207
283.221
283.347
283.476
283.497
283.505
283.465
283.415
283.317
283.214
283.109
283.045
282.997
282.996
282.999
283.058
283.092
283.208
283.216
283.403
283.255
283.258
283.392
283.556
283.565
283.594
283.552
283.545
283.456
283.365
283.211
283.1
282.988
282.942
282.896
282.903
282.906
282.981
283.04
283.195
283.262
283.219
283.349
283.481
283.498
283.5
283.473
283.452
283.391
283.293
283.152
283.011
282.891
282.809
282.759
282.725
282.709
282.722
282.77
282.878
283.004
283.256
283.394
283.559
283.565
283.589
283.547
283.548
283.477
283.398
283.246
283.112
282.978
282.898
282.837
282.803
282.77
282.775
282.795
282.897
283.008
283.219
283.349
283.481
283.499
283.5
283.473
283.452
283.392
283.293
283.153
283.01
282.892
282.808
282.76
282.724
282.71
282.721
282.772
282.876
283.007
283.258
283.392
283.556
283.565
283.594
283.552
283.544
283.456
283.364
283.212
283.099
282.99
282.94
282.899
282.899
282.912
282.971
283.054
283.174
283.293
283.221
283.347
283.476
283.497
283.505
283.465
283.415
283.318
283.214
283.11
283.043
282.999
282.992
283.004
283.049
283.105
283.186
283.254
283.337
283.38
283.258
283.373
283.498
283.486
283.505
283.439
283.425
283.358
283.354
283.315
283.331
283.317
283.344
283.345
283.378
283.385
283.415
283.415
283.443
283.419
282.974
283.135
283.184
283.229
283.199
283.205
283.162
283.156
283.119
283.12
283.102
283.115
283.112
283.133
283.142
283.161
283.18
283.183
283.224
283.145
282.944
283.092
283.192
283.258
283.246
283.233
283.177
283.111
283.024
282.954
282.899
282.874
282.87
282.886
282.923
282.956
283.035
283.039
283.196
283.035
282.904
283.026
283.081
283.15
283.108
283.106
283.046
283.007
282.893
282.787
282.65
282.565
282.492
282.471
282.46
282.477
282.528
282.577
282.716
282.756
282.939
283.066
283.149
283.2
283.176
283.157
283.124
283.087
283.005
282.889
282.743
282.614
282.51
282.452
282.415
282.398
282.403
282.421
282.512
282.587
282.905
283.025
283.075
283.135
283.085
283.077
283.024
283.005
282.913
282.814
282.653
282.529
282.404
282.349
282.296
282.279
282.264
282.274
282.338
282.41
282.939
283.066
283.149
283.2
283.176
283.157
283.124
283.087
283.004
282.89
282.742
282.615
282.509
282.453
282.414
282.399
282.401
282.424
282.508
282.591
282.904
283.026
283.081
283.15
283.108
283.107
283.046
283.007
282.892
282.788
282.649
282.566
282.49
282.474
282.456
282.483
282.518
282.592
282.692
282.793
282.944
283.092
283.192
283.258
283.246
283.233
283.177
283.111
283.023
282.955
282.898
282.876
282.868
282.889
282.918
282.965
283.019
283.069
283.136
283.159
282.974
283.135
283.184
283.229
283.199
283.205
283.162
283.156
283.119
283.12
283.101
283.115
283.112
283.134
283.14
283.164
283.175
283.193
283.203
283.211
284.869
285.943
286.631
287.306
287.941
288.505
288.916
289.205
289.377
289.484
289.539
289.571
289.584
289.592
289.593
289.595
289.594
289.594
289.593
289.593
289.591
289.59
289.589
289.588
289.586
289.584
289.583
289.581
289.579
289.578
289.576
289.574
289.572
289.571
289.569
289.567
289.565
289.563
289.561
289.559
289.557
289.554
289.552
289.549
289.547
289.544
289.541
289.538
289.535
289.532
289.529
289.527
289.524
289.521
289.519
289.517
289.515
289.513
289.511
289.51
289.509
289.508
289.507
289.506
289.506
289.506
289.506
289.506
289.506
289.507
289.507
289.508
289.509
289.51
289.51
289.511
289.512
289.513
289.514
289.515
289.516
289.517
289.519
289.519
289.522
289.517
289.528
289.513
289.529
289.525
283.955
284.897
285.494
286.069
286.655
287.214
287.656
287.978
288.181
288.309
288.379
288.419
288.437
288.447
288.45
288.452
288.451
288.451
288.45
288.449
288.448
288.447
288.445
288.444
288.442
288.44
288.439
288.437
288.435
288.434
288.432
288.43
288.428
288.427
288.425
288.423
288.421
288.42
288.418
288.415
288.413
288.411
288.409
288.406
288.404
288.401
288.398
288.395
288.392
288.39
288.387
288.384
288.382
288.379
288.377
288.375
288.373
288.371
288.37
288.368
288.367
288.366
288.366
288.365
288.365
288.365
288.365
288.365
288.366
288.366
288.367
288.368
288.369
288.37
288.371
288.372
288.373
288.374
288.375
288.376
288.377
288.378
288.38
288.38
288.384
288.379
288.39
288.377
288.389
288.388
283.243
283.904
284.262
284.606
285.032
285.542
286.006
286.383
286.64
286.812
286.911
286.973
287.002
287.02
287.025
287.029
287.029
287.03
287.029
287.029
287.028
287.027
287.026
287.025
287.024
287.023
287.021
287.02
287.018
287.017
287.015
287.013
287.012
287.01
287.009
287.007
287.006
287.004
287.002
287
286.998
286.996
286.994
286.992
286.989
286.987
286.984
286.981
286.979
286.976
286.973
286.971
286.968
286.966
286.964
286.962
286.96
286.959
286.957
286.956
286.955
286.955
286.954
286.954
286.954
286.954
286.954
286.955
286.955
286.956
286.957
286.958
286.959
286.96
286.961
286.962
286.963
286.965
286.966
286.967
286.968
286.969
286.971
286.971
286.975
286.971
286.979
286.972
286.976
286.978
283.025
283.516
283.652
283.719
283.927
284.313
284.746
285.134
285.423
285.622
285.746
285.822
285.862
285.885
285.894
285.898
285.899
285.899
285.898
285.898
285.897
285.896
285.895
285.894
285.892
285.891
285.89
285.888
285.887
285.885
285.884
285.883
285.881
285.88
285.878
285.877
285.876
285.874
285.872
285.871
285.869
285.867
285.865
285.863
285.861
285.858
285.856
285.854
285.851
285.849
285.846
285.844
285.842
285.84
285.838
285.836
285.834
285.833
285.832
285.831
285.83
285.83
285.83
285.83
285.83
285.83
285.831
285.831
285.832
285.833
285.834
285.835
285.836
285.838
285.839
285.841
285.842
285.843
285.845
285.847
285.848
285.849
285.852
285.851
285.856
285.853
285.859
285.857
285.857
285.862
282.88
283.314
283.299
283.184
283.217
283.481
283.839
284.195
284.468
284.667
284.792
284.873
284.916
284.941
284.951
284.958
284.959
284.96
284.959
284.959
284.958
284.958
284.957
284.956
284.955
284.954
284.953
284.952
284.95
284.949
284.948
284.947
284.946
284.945
284.943
284.942
284.941
284.939
284.938
284.936
284.935
284.933
284.931
284.929
284.927
284.925
284.922
284.92
284.918
284.915
284.913
284.911
284.909
284.907
284.905
284.903
284.902
284.901
284.9
284.899
284.898
284.898
284.898
284.898
284.898
284.898
284.899
284.9
284.901
284.902
284.903
284.904
284.905
284.907
284.908
284.909
284.911
284.913
284.914
284.916
284.917
284.919
284.921
284.921
284.924
284.923
284.926
284.927
284.926
284.931
283.009
283.33
283.23
283.035
282.994
283.17
283.444
283.722
283.942
284.102
284.204
284.27
284.306
284.327
284.335
284.339
284.34
284.34
284.34
284.339
284.338
284.337
284.336
284.335
284.334
284.333
284.331
284.33
284.329
284.327
284.326
284.325
284.323
284.322
284.321
284.32
284.318
284.317
284.315
284.314
284.312
284.31
284.308
284.306
284.304
284.301
284.299
284.297
284.294
284.292
284.29
284.287
284.285
284.283
284.281
284.279
284.278
284.277
284.276
284.275
284.274
284.273
284.273
284.273
284.273
284.274
284.274
284.275
284.275
284.276
284.277
284.278
284.28
284.281
284.282
284.283
284.285
284.286
284.288
284.289
284.291
284.292
284.294
284.294
284.297
284.297
284.299
284.301
284.301
284.306
283.077
283.253
283.111
282.952
282.918
283.05
283.236
283.425
283.568
283.675
283.741
283.785
283.808
283.822
283.827
283.83
283.83
283.831
283.83
283.829
283.828
283.828
283.826
283.825
283.824
283.823
283.821
283.82
283.818
283.817
283.815
283.814
283.812
283.81
283.809
283.807
283.805
283.804
283.802
283.8
283.798
283.795
283.793
283.79
283.788
283.785
283.782
283.779
283.777
283.774
283.771
283.768
283.765
283.763
283.76
283.758
283.756
283.754
283.753
283.751
283.75
283.749
283.748
283.748
283.747
283.747
283.747
283.747
283.747
283.747
283.748
283.748
283.749
283.75
283.75
283.751
283.752
283.753
283.754
283.755
283.755
283.756
283.757
283.757
283.759
283.758
283.76
283.76
283.76
283.764
283.237
283.281
283.178
283.094
283.091
283.168
283.266
283.36
283.428
283.478
283.509
283.529
283.539
283.544
283.546
283.547
283.546
283.546
283.545
283.544
283.543
283.542
283.54
283.539
283.537
283.536
283.534
283.533
283.531
283.529
283.528
283.526
283.524
283.522
283.521
283.519
283.517
283.515
283.513
283.511
283.508
283.506
283.503
283.5
283.497
283.494
283.491
283.488
283.484
283.481
283.477
283.474
283.471
283.468
283.465
283.462
283.459
283.457
283.454
283.452
283.45
283.449
283.447
283.446
283.445
283.444
283.443
283.442
283.442
283.441
283.441
283.441
283.44
283.44
283.44
283.44
283.44
283.441
283.441
283.441
283.441
283.441
283.441
283.441
283.442
283.441
283.442
283.442
283.442
283.444
283.178
283.188
283.151
283.133
283.134
283.162
283.19
283.219
283.238
283.253
283.261
283.268
283.27
283.272
283.273
283.273
283.273
283.273
283.273
283.273
283.273
283.272
283.272
283.272
283.271
283.27
283.27
283.269
283.268
283.268
283.267
283.266
283.266
283.265
283.264
283.264
283.263
283.262
283.261
283.26
283.259
283.258
283.256
283.255
283.253
283.251
283.249
283.247
283.245
283.242
283.24
283.237
283.235
283.233
283.23
283.228
283.226
283.224
283.221
283.22
283.218
283.216
283.215
283.213
283.212
283.211
283.21
283.209
283.208
283.208
283.207
283.206
283.206
283.206
283.205
283.205
283.205
283.204
283.204
283.204
283.204
283.203
283.203
283.203
283.203
283.202
283.202
283.202
283.201
283.202
285.365
286.574
287.328
288.005
288.667
289.211
289.625
289.892
290.061
290.153
290.205
290.227
290.239
290.24
290.24
290.237
290.235
290.232
290.23
290.227
290.225
290.222
290.22
290.217
290.215
290.212
290.21
290.207
290.205
290.203
290.201
290.199
290.196
290.194
290.192
290.19
290.188
290.186
290.184
290.182
290.179
290.177
290.174
290.172
290.169
290.166
290.163
290.16
290.157
290.154
290.151
290.148
290.146
290.143
290.141
290.138
290.136
290.135
290.133
290.131
290.13
290.129
290.129
290.128
290.128
290.128
290.128
290.128
290.128
290.129
290.129
290.13
290.131
290.132
290.133
290.134
290.135
290.136
290.138
290.138
290.14
290.141
290.144
290.143
290.149
290.143
290.158
290.141
290.167
290.165
284.106
285.005
285.603
286.158
286.752
287.307
287.762
288.084
288.296
288.423
288.495
288.532
288.55
288.557
288.559
288.557
288.556
288.553
288.551
288.548
288.546
288.544
288.541
288.539
288.537
288.534
288.532
288.53
288.528
288.525
288.523
288.521
288.519
288.517
288.515
288.513
288.511
288.509
288.507
288.505
288.502
288.5
288.497
288.495
288.492
288.489
288.487
288.484
288.481
288.478
288.475
288.472
288.47
288.467
288.465
288.463
288.461
288.459
288.457
288.456
288.455
288.454
288.453
288.453
288.453
288.453
288.453
288.453
288.454
288.454
288.455
288.456
288.457
288.458
288.459
288.46
288.461
288.462
288.464
288.465
288.467
288.468
288.47
288.47
288.475
288.47
288.483
288.47
288.488
288.49
283.653
284.175
284.499
284.784
285.204
285.693
286.17
286.544
286.814
286.983
287.089
287.145
287.176
287.188
287.193
287.192
287.191
287.188
287.186
287.183
287.181
287.178
287.176
287.174
287.171
287.169
287.167
287.164
287.162
287.16
287.158
287.156
287.154
287.153
287.151
287.149
287.147
287.145
287.143
287.141
287.139
287.137
287.135
287.132
287.13
287.127
287.125
287.122
287.119
287.117
287.114
287.112
287.109
287.107
287.105
287.103
287.101
287.1
287.098
287.097
287.096
287.096
287.095
287.095
287.095
287.095
287.096
287.096
287.097
287.098
287.099
287.1
287.101
287.102
287.103
287.105
287.106
287.107
287.109
287.111
287.113
287.114
287.117
287.116
287.122
287.118
287.129
287.122
287.13
287.136
283.393
283.762
283.837
283.843
284.025
284.389
284.825
285.214
285.513
285.716
285.846
285.922
285.964
285.984
285.993
285.995
285.995
285.993
285.991
285.989
285.987
285.985
285.983
285.981
285.979
285.977
285.975
285.973
285.971
285.969
285.967
285.966
285.964
285.963
285.961
285.959
285.958
285.956
285.954
285.953
285.951
285.949
285.947
285.945
285.942
285.94
285.938
285.935
285.933
285.93
285.928
285.925
285.923
285.921
285.919
285.918
285.916
285.915
285.914
285.913
285.912
285.912
285.911
285.911
285.912
285.912
285.912
285.913
285.914
285.915
285.916
285.917
285.919
285.92
285.921
285.923
285.925
285.926
285.928
285.929
285.932
285.933
285.936
285.935
285.941
285.938
285.945
285.944
285.946
285.953
283.41
283.71
283.646
283.454
283.456
283.681
284.038
284.383
284.665
284.861
284.992
285.07
285.115
285.136
285.146
285.148
285.148
285.146
285.144
285.141
285.139
285.137
285.135
285.133
285.131
285.129
285.127
285.125
285.123
285.121
285.12
285.118
285.117
285.115
285.114
285.112
285.111
285.109
285.108
285.106
285.104
285.103
285.101
285.099
285.097
285.094
285.092
285.09
285.088
285.085
285.083
285.081
285.079
285.077
285.075
285.074
285.072
285.071
285.07
285.07
285.069
285.069
285.069
285.069
285.069
285.07
285.07
285.071
285.072
285.073
285.075
285.076
285.077
285.079
285.081
285.082
285.084
285.086
285.088
285.09
285.092
285.093
285.097
285.096
285.102
285.1
285.106
285.108
285.107
285.114
283.385
283.605
283.454
283.203
283.135
283.283
283.554
283.827
284.052
284.212
284.319
284.384
284.422
284.44
284.448
284.45
284.45
284.448
284.447
284.445
284.443
284.441
284.439
284.437
284.435
284.434
284.432
284.43
284.429
284.427
284.425
284.424
284.422
284.421
284.42
284.418
284.417
284.415
284.414
284.412
284.41
284.409
284.407
284.405
284.402
284.4
284.398
284.396
284.393
284.391
284.389
284.386
284.384
284.382
284.381
284.379
284.378
284.376
284.375
284.375
284.374
284.374
284.374
284.374
284.374
284.374
284.375
284.376
284.377
284.378
284.379
284.38
284.381
284.383
284.384
284.386
284.388
284.389
284.391
284.393
284.395
284.396
284.399
284.399
284.403
284.403
284.407
284.409
284.408
284.414
283.528
283.6
283.427
283.207
283.161
283.267
283.459
283.639
283.789
283.891
283.961
284
284.024
284.034
284.038
284.038
284.037
284.034
284.032
284.03
284.028
284.025
284.023
284.021
284.019
284.017
284.015
284.013
284.011
284.009
284.007
284.006
284.004
284.002
284.001
283.999
283.997
283.995
283.994
283.992
283.99
283.987
283.985
283.983
283.98
283.978
283.975
283.973
283.97
283.967
283.965
283.962
283.96
283.958
283.955
283.953
283.952
283.95
283.949
283.947
283.946
283.946
283.945
283.945
283.945
283.945
283.945
283.945
283.946
283.946
283.947
283.948
283.949
283.95
283.951
283.952
283.953
283.955
283.956
283.957
283.959
283.96
283.962
283.963
283.966
283.966
283.969
283.971
283.97
283.975
283.459
283.452
283.321
283.202
283.197
283.272
283.383
283.481
283.558
283.61
283.645
283.664
283.675
283.679
283.68
283.679
283.678
283.676
283.674
283.672
283.67
283.668
283.667
283.665
283.663
283.661
283.659
283.656
283.654
283.652
283.65
283.648
283.647
283.645
283.643
283.641
283.639
283.636
283.634
283.632
283.629
283.627
283.624
283.621
283.618
283.615
283.612
283.609
283.605
283.602
283.599
283.596
283.592
283.589
283.587
283.584
283.581
283.579
283.577
283.575
283.573
283.572
283.57
283.569
283.568
283.567
283.567
283.566
283.566
283.566
283.566
283.566
283.566
283.566
283.566
283.567
283.567
283.567
283.568
283.568
283.569
283.569
283.57
283.57
283.572
283.572
283.573
283.574
283.573
283.576
283.399
283.376
283.334
283.294
283.302
283.324
283.36
283.385
283.408
283.42
283.43
283.433
283.436
283.435
283.435
283.434
283.433
283.432
283.431
283.429
283.428
283.427
283.426
283.424
283.423
283.422
283.421
283.419
283.418
283.417
283.415
283.414
283.413
283.412
283.411
283.409
283.408
283.407
283.405
283.404
283.402
283.4
283.398
283.396
283.393
283.391
283.388
283.385
283.382
283.379
283.377
283.374
283.371
283.368
283.365
283.362
283.36
283.357
283.355
283.353
283.351
283.349
283.347
283.346
283.344
283.343
283.342
283.341
283.34
283.339
283.339
283.338
283.338
283.337
283.337
283.336
283.336
283.336
283.336
283.336
283.336
283.336
283.336
283.336
283.336
283.336
283.337
283.336
283.336
283.337
285.56
287.062
287.936
288.691
289.385
289.939
290.342
290.597
290.754
290.837
290.883
290.902
290.91
290.911
290.91
290.907
290.905
290.901
290.899
290.896
290.894
290.891
290.889
290.886
290.883
290.881
290.878
290.876
290.874
290.871
290.869
290.866
290.864
290.862
290.86
290.858
290.856
290.853
290.851
290.849
290.846
290.844
290.841
290.838
290.835
290.832
290.829
290.826
290.823
290.82
290.817
290.814
290.811
290.808
290.806
290.803
290.801
290.799
290.797
290.795
290.794
290.793
290.792
290.791
290.791
290.791
290.791
290.791
290.791
290.791
290.792
290.792
290.793
290.794
290.795
290.795
290.797
290.797
290.799
290.8
290.801
290.802
290.804
290.804
290.809
290.803
290.818
290.798
290.829
290.825
283.937
284.854
285.507
286.109
286.741
287.322
287.794
288.126
288.343
288.471
288.544
288.58
288.598
288.604
288.605
288.603
288.6
288.598
288.595
288.592
288.589
288.587
288.584
288.581
288.579
288.576
288.573
288.571
288.568
288.566
288.564
288.562
288.559
288.557
288.555
288.553
288.551
288.548
288.546
288.544
288.541
288.539
288.536
288.533
288.53
288.527
288.524
288.521
288.518
288.515
288.512
288.51
288.507
288.504
288.502
288.5
288.497
288.496
288.494
288.493
288.491
288.49
288.49
288.489
288.489
288.489
288.489
288.489
288.489
288.49
288.491
288.491
288.492
288.493
288.494
288.495
288.496
288.497
288.499
288.5
288.502
288.503
288.505
288.505
288.51
288.504
288.518
288.504
288.522
288.526
283.567
283.992
284.256
284.524
284.941
285.453
285.955
286.358
286.647
286.834
286.948
287.011
287.045
287.06
287.065
287.065
287.064
287.061
287.059
287.056
287.054
287.051
287.049
287.047
287.044
287.042
287.04
287.037
287.035
287.033
287.031
287.029
287.027
287.025
287.024
287.022
287.02
287.018
287.016
287.014
287.012
287.01
287.007
287.005
287.002
287
286.997
286.995
286.992
286.989
286.987
286.984
286.982
286.979
286.977
286.975
286.973
286.972
286.971
286.969
286.969
286.968
286.967
286.967
286.967
286.967
286.968
286.968
286.969
286.97
286.971
286.971
286.973
286.974
286.975
286.976
286.978
286.979
286.981
286.982
286.984
286.985
286.988
286.987
286.994
286.988
286.999
286.993
287
287.007
283.433
283.748
283.743
283.674
283.802
284.147
284.593
285.008
285.333
285.558
285.704
285.791
285.84
285.864
285.874
285.877
285.877
285.875
285.873
285.87
285.868
285.866
285.864
285.862
285.859
285.857
285.855
285.853
285.851
285.85
285.848
285.846
285.844
285.843
285.841
285.84
285.838
285.836
285.834
285.833
285.831
285.829
285.827
285.825
285.822
285.82
285.818
285.815
285.813
285.81
285.808
285.805
285.803
285.801
285.799
285.798
285.796
285.795
285.794
285.793
285.792
285.792
285.791
285.791
285.792
285.792
285.793
285.793
285.794
285.795
285.796
285.797
285.799
285.8
285.802
285.803
285.805
285.806
285.808
285.81
285.812
285.813
285.816
285.815
285.821
285.818
285.825
285.825
285.826
285.833
283.43
283.73
283.607
283.337
283.26
283.446
283.794
284.156
284.458
284.676
284.823
284.913
284.965
284.992
285.004
285.008
285.008
285.006
285.004
285.002
284.999
284.997
284.995
284.993
284.991
284.989
284.987
284.985
284.983
284.981
284.98
284.978
284.977
284.975
284.974
284.972
284.971
284.969
284.968
284.966
284.964
284.962
284.961
284.959
284.956
284.954
284.952
284.95
284.947
284.945
284.943
284.941
284.939
284.937
284.935
284.934
284.932
284.931
284.93
284.93
284.929
284.929
284.929
284.929
284.929
284.93
284.931
284.931
284.933
284.934
284.935
284.936
284.938
284.939
284.941
284.943
284.945
284.946
284.948
284.95
284.953
284.954
284.957
284.957
284.962
284.961
284.965
284.969
284.967
284.974
283.446
283.673
283.478
283.16
283.029
283.143
283.404
283.684
283.919
284.091
284.207
284.28
284.322
284.344
284.353
284.356
284.356
284.354
284.352
284.35
284.348
284.346
284.344
284.342
284.341
284.339
284.337
284.335
284.334
284.332
284.33
284.329
284.328
284.326
284.325
284.324
284.322
284.321
284.319
284.318
284.316
284.315
284.313
284.311
284.309
284.307
284.305
284.302
284.3
284.298
284.296
284.294
284.292
284.29
284.288
284.287
284.286
284.285
284.284
284.283
284.283
284.283
284.283
284.283
284.283
284.284
284.285
284.286
284.287
284.288
284.289
284.291
284.292
284.294
284.296
284.297
284.299
284.301
284.303
284.305
284.307
284.309
284.312
284.312
284.317
284.317
284.32
284.324
284.322
284.328
283.534
283.596
283.373
283.117
283.042
283.141
283.329
283.515
283.667
283.774
283.847
283.891
283.917
283.928
283.933
283.933
283.933
283.931
283.929
283.927
283.925
283.923
283.921
283.919
283.917
283.915
283.913
283.912
283.91
283.908
283.907
283.905
283.903
283.902
283.901
283.899
283.898
283.896
283.895
283.893
283.891
283.889
283.887
283.885
283.883
283.881
283.878
283.876
283.874
283.871
283.869
283.867
283.864
283.862
283.86
283.859
283.857
283.856
283.855
283.854
283.853
283.853
283.853
283.853
283.853
283.853
283.854
283.854
283.855
283.856
283.857
283.858
283.859
283.861
283.862
283.863
283.865
283.867
283.868
283.87
283.872
283.873
283.875
283.876
283.88
283.88
283.883
283.886
283.885
283.89
283.485
283.447
283.287
283.158
283.153
283.234
283.346
283.445
283.522
283.574
283.608
283.628
283.639
283.643
283.644
283.643
283.642
283.64
283.638
283.636
283.634
283.632
283.63
283.628
283.626
283.624
283.622
283.62
283.618
283.616
283.614
283.612
283.61
283.608
283.606
283.604
283.602
283.6
283.598
283.596
283.593
283.591
283.588
283.586
283.583
283.58
283.577
283.574
283.571
283.567
283.564
283.561
283.558
283.556
283.553
283.551
283.548
283.546
283.544
283.543
283.541
283.54
283.539
283.538
283.537
283.537
283.536
283.536
283.536
283.536
283.536
283.537
283.537
283.537
283.538
283.538
283.539
283.54
283.541
283.541
283.542
283.543
283.544
283.544
283.546
283.546
283.548
283.549
283.548
283.552
283.369
283.354
283.302
283.269
283.28
283.31
283.346
283.373
283.395
283.408
283.417
283.421
283.423
283.423
283.422
283.421
283.42
283.418
283.417
283.416
283.414
283.413
283.411
283.409
283.408
283.406
283.404
283.402
283.401
283.399
283.397
283.395
283.394
283.392
283.39
283.388
283.386
283.384
283.382
283.38
283.377
283.374
283.372
283.369
283.366
283.363
283.359
283.356
283.352
283.349
283.345
283.342
283.338
283.335
283.332
283.329
283.326
283.323
283.32
283.318
283.315
283.313
283.311
283.31
283.308
283.307
283.305
283.304
283.303
283.302
283.302
283.301
283.3
283.3
283.299
283.299
283.298
283.298
283.298
283.298
283.297
283.297
283.297
283.297
283.297
283.296
283.297
283.297
283.296
283.297
285.365
286.574
287.328
288.005
288.666
289.211
289.625
289.892
290.061
290.153
290.205
290.227
290.239
290.24
290.24
290.237
290.235
290.232
290.23
290.227
290.225
290.222
290.22
290.217
290.215
290.212
290.21
290.207
290.205
290.203
290.201
290.199
290.196
290.194
290.192
290.19
290.188
290.186
290.184
290.182
290.179
290.177
290.174
290.172
290.169
290.166
290.163
290.16
290.157
290.154
290.151
290.148
290.146
290.143
290.141
290.138
290.136
290.135
290.133
290.131
290.13
290.129
290.129
290.128
290.128
290.128
290.128
290.128
290.128
290.129
290.129
290.13
290.131
290.132
290.133
290.134
290.135
290.136
290.138
290.138
290.14
290.141
290.144
290.143
290.149
290.143
290.158
290.141
290.167
290.165
284.106
285.005
285.603
286.158
286.752
287.307
287.762
288.084
288.296
288.423
288.495
288.532
288.55
288.557
288.559
288.557
288.556
288.553
288.551
288.548
288.546
288.544
288.541
288.539
288.537
288.534
288.532
288.53
288.528
288.525
288.523
288.521
288.519
288.517
288.515
288.513
288.511
288.509
288.507
288.505
288.502
288.5
288.497
288.495
288.492
288.489
288.487
288.484
288.481
288.478
288.475
288.472
288.47
288.467
288.465
288.463
288.461
288.459
288.457
288.456
288.455
288.454
288.453
288.453
288.453
288.453
288.453
288.453
288.454
288.454
288.455
288.456
288.457
288.458
288.459
288.46
288.461
288.462
288.464
288.465
288.467
288.468
288.47
288.47
288.475
288.47
288.483
288.47
288.488
288.49
283.653
284.175
284.499
284.784
285.204
285.693
286.17
286.544
286.814
286.983
287.089
287.145
287.176
287.188
287.193
287.192
287.191
287.188
287.186
287.183
287.181
287.178
287.176
287.174
287.171
287.169
287.167
287.164
287.162
287.16
287.158
287.156
287.154
287.153
287.151
287.149
287.147
287.145
287.143
287.141
287.139
287.137
287.135
287.132
287.13
287.127
287.125
287.122
287.119
287.117
287.114
287.112
287.109
287.107
287.105
287.103
287.101
287.1
287.098
287.097
287.096
287.096
287.095
287.095
287.095
287.095
287.096
287.096
287.097
287.098
287.099
287.1
287.101
287.102
287.103
287.105
287.106
287.107
287.109
287.111
287.113
287.114
287.117
287.116
287.122
287.118
287.129
287.122
287.13
287.136
283.393
283.762
283.837
283.843
284.025
284.389
284.825
285.214
285.513
285.716
285.846
285.922
285.964
285.984
285.993
285.995
285.995
285.993
285.991
285.989
285.987
285.985
285.983
285.981
285.979
285.977
285.975
285.973
285.971
285.969
285.967
285.966
285.964
285.963
285.961
285.959
285.958
285.956
285.954
285.953
285.951
285.949
285.947
285.945
285.942
285.94
285.938
285.935
285.933
285.93
285.928
285.925
285.923
285.921
285.919
285.918
285.916
285.915
285.914
285.913
285.912
285.912
285.911
285.911
285.912
285.912
285.912
285.913
285.914
285.915
285.916
285.917
285.919
285.92
285.921
285.923
285.925
285.926
285.928
285.929
285.932
285.933
285.936
285.935
285.941
285.938
285.945
285.944
285.946
285.953
283.41
283.71
283.646
283.454
283.456
283.681
284.038
284.383
284.665
284.861
284.992
285.07
285.115
285.136
285.146
285.148
285.148
285.146
285.144
285.141