/*--------------------------------*- C++ -*----------------------------------*\
  =========                 |
  \\      /  F ield         | OpenFOAM: The Open Source CFD Toolbox
   \\    /   O peration     | Website:  https://openfoam.org
    \\  /    A nd           | Version:  7
     \\/     M anipulation  |
\*---------------------------------------------------------------------------*/
FoamFile
{
    version     2.0;
    format      ascii;
    class       volVectorField;
    location    "2.4125";
    object      U_0;
}
// * * * * * * * * * * * * * * * * * * * * * * * * * * * * * * * * * * * * * //

dimensions      [0 1 -1 0 0 0 0];

internalField   nonuniform List<vector> 
7920
(
(2.92941 0.101205 -32.3658)
(2.10408 -0.462395 -32.4032)
(1.39208 -0.616569 -32.3903)
(1.28341 -0.672562 -32.4013)
(1.04926 -0.689289 -32.3928)
(1.07508 -0.694198 -32.404)
(0.934491 -0.698277 -32.3989)
(0.979682 -0.698484 -32.4074)
(0.874649 -0.700701 -32.4026)
(0.919444 -0.700443 -32.4081)
(0.835903 -0.701983 -32.4042)
(0.876462 -0.701468 -32.4083)
(0.808457 -0.702444 -32.4061)
(0.84406 -0.701869 -32.4083)
(0.787982 -0.702227 -32.4084)
(0.818624 -0.702293 -32.4072)
(0.77109 -0.698374 -32.4123)
(0.792411 -0.704836 -32.4028)
(0.757861 -0.646479 -32.4224)
(0.586516 -0.659007 -32.3859)
(4.41106 0.967274 -32.4274)
(4.33277 0.872793 -32.4639)
(3.68055 0.818456 -32.4562)
(3.5329 0.751355 -32.4641)
(3.13377 0.723624 -32.4585)
(3.12852 0.710258 -32.4656)
(2.86646 0.703739 -32.4634)
(2.90858 0.700315 -32.4694)
(2.71334 0.698247 -32.4682)
(2.76574 0.69656 -32.472)
(2.61118 0.695458 -32.4707)
(2.66298 0.694273 -32.4731)
(2.53727 0.693602 -32.4729)
(2.58512 0.692647 -32.4736)
(2.48109 0.692 -32.4755)
(2.52575 0.692061 -32.4726)
(2.43315 0.688823 -32.4796)
(2.49421 0.693685 -32.4678)
(2.37382 0.684054 -32.49)
(2.6499 0.675813 -32.44)
(4.75172 0.1927 -32.4349)
(5.25774 -0.229254 -32.4679)
(5.11328 -0.374982 -32.4551)
(5.22487 -0.493326 -32.4631)
(4.98064 -0.558186 -32.4542)
(5.03078 -0.594875 -32.4608)
(4.81706 -0.619344 -32.455)
(4.86007 -0.633203 -32.4615)
(4.68438 -0.643801 -32.4583)
(4.72524 -0.650481 -32.464)
(4.58104 -0.655929 -32.4624)
(4.61915 -0.659954 -32.4668)
(4.50004 -0.663097 -32.4665)
(4.53446 -0.665807 -32.469)
(4.43639 -0.667943 -32.4707)
(4.46361 -0.668831 -32.4698)
(4.3897 -0.672223 -32.4754)
(4.39013 -0.667899 -32.468)
(4.36432 -0.668963 -32.4817)
(4.26999 -0.690056 -32.4468)
(4.75264 0.64918 -32.4452)
(5.28371 0.74947 -32.4766)
(5.38444 0.796615 -32.4647)
(5.6897 0.766849 -32.4709)
(5.63133 0.748911 -32.4631)
(5.8034 0.734602 -32.4678)
(5.71024 0.724305 -32.4623)
(5.82313 0.716334 -32.4664)
(5.72919 0.710287 -32.4634)
(5.81089 0.7047 -32.4674)
(5.72494 0.700744 -32.4665)
(5.78779 0.696572 -32.47)
(5.71128 0.694093 -32.4708)
(5.76253 0.690639 -32.4731)
(5.69332 0.689782 -32.4754)
(5.74071 0.685837 -32.476)
(5.67095 0.688758 -32.4796)
(5.73282 0.681615 -32.4775)
(5.64413 0.69613 -32.4829)
(5.78634 0.70654 -32.4567)
(4.74477 -0.0883667 -32.4442)
(5.24747 -0.38723 -32.4754)
(5.40538 -0.479708 -32.4611)
(5.76607 -0.54545 -32.4679)
(5.77708 -0.581236 -32.4582)
(6.00938 -0.601275 -32.4636)
(5.98296 -0.615583 -32.4564)
(6.14859 -0.6236 -32.4609)
(6.11385 -0.630527 -32.4561)
(6.23919 -0.634922 -32.4603)
(6.20374 -0.639127 -32.4578)
(6.30155 -0.642167 -32.462)
(6.26773 -0.645288 -32.4612)
(6.34559 -0.647158 -32.465)
(6.3147 -0.650769 -32.4654)
(6.37605 -0.649241 -32.4686)
(6.35263 -0.65858 -32.4696)
(6.39137 -0.647217 -32.472)
(6.38866 -0.670885 -32.4728)
(6.3879 -0.692672 -32.4519)
(4.73222 0.352085 -32.4479)
(5.19071 0.557123 -32.4797)
(5.35864 0.635408 -32.4652)
(5.73479 0.65547 -32.4722)
(5.76967 0.665617 -32.4622)
(6.02574 0.668929 -32.4676)
(6.02607 0.671094 -32.4602)
(6.21622 0.671221 -32.4646)
(6.20875 0.671556 -32.4594)
(6.35757 0.67082 -32.4636)
(6.34817 0.670695 -32.4605)
(6.46742 0.669817 -32.4647)
(6.45718 0.669867 -32.4634)
(6.55429 0.668607 -32.4674)
(6.54323 0.669976 -32.4672)
(6.62369 0.666348 -32.471)
(6.61254 0.67372 -32.4713)
(6.68025 0.662712 -32.4748)
(6.67367 0.68617 -32.4746)
(6.73857 0.708328 -32.4539)
(4.73222 -0.352085 -32.4479)
(5.19071 -0.557123 -32.4797)
(5.35864 -0.635408 -32.4652)
(5.73479 -0.655469 -32.4722)
(5.76967 -0.665617 -32.4621)
(6.02573 -0.668927 -32.4676)
(6.02607 -0.671093 -32.4602)
(6.21622 -0.671217 -32.4646)
(6.20876 -0.671553 -32.4594)
(6.35756 -0.67081 -32.4636)
(6.34818 -0.670682 -32.4605)
(6.46741 -0.669791 -32.4647)
(6.45722 -0.669828 -32.4633)
(6.55426 -0.668515 -32.4674)
(6.54333 -0.669904 -32.4671)
(6.62362 -0.666012 -32.4711)
(6.61277 -0.673617 -32.4712)
(6.68009 -0.661718 -32.4749)
(6.67398 -0.685708 -32.4746)
(6.73831 -0.706504 -32.4539)
(4.74477 0.0883667 -32.4442)
(5.24747 0.38723 -32.4754)
(5.40538 0.479708 -32.4611)
(5.76607 0.545451 -32.4679)
(5.77708 0.581236 -32.4582)
(6.00939 0.601277 -32.4636)
(5.98296 0.615584 -32.4564)
(6.1486 0.623603 -32.4609)
(6.11384 0.630531 -32.456)
(6.23921 0.634928 -32.4604)
(6.20372 0.639143 -32.4577)
(6.30161 0.642185 -32.4621)
(6.26769 0.645332 -32.461)
(6.34572 0.647231 -32.4652)
(6.31464 0.650852 -32.4651)
(6.37635 0.649543 -32.4689)
(6.35267 0.658695 -32.4692)
(6.39206 0.648193 -32.4725)
(6.3893 0.671309 -32.4723)
(6.38967 0.694643 -32.4523)
(4.75264 -0.64918 -32.4452)
(5.28371 -0.74947 -32.4766)
(5.38444 -0.796616 -32.4647)
(5.6897 -0.766849 -32.4709)
(5.63133 -0.748911 -32.4631)
(5.8034 -0.7346 -32.4678)
(5.71024 -0.724305 -32.4622)
(5.82314 -0.71633 -32.4665)
(5.72919 -0.710286 -32.4633)
(5.8109 -0.70469 -32.4675)
(5.72494 -0.700736 -32.4663)
(5.78784 -0.696545 -32.4703)
(5.7113 -0.694071 -32.4704)
(5.76266 -0.690549 -32.4737)
(5.69343 -0.689747 -32.4745)
(5.74097 -0.68553 -32.4772)
(5.67142 -0.688747 -32.4779)
(5.73331 -0.680762 -32.4798)
(5.64549 -0.695915 -32.48)
(5.78754 -0.705187 -32.4602)
(4.75172 -0.1927 -32.4349)
(5.25774 0.229254 -32.4679)
(5.11328 0.374982 -32.4551)
(5.22487 0.493326 -32.4631)
(4.98064 0.558186 -32.4542)
(5.03078 0.594875 -32.4609)
(4.81706 0.619345 -32.455)
(4.86009 0.633203 -32.4615)
(4.68438 0.643806 -32.4582)
(4.72528 0.650481 -32.4642)
(4.58103 0.655944 -32.4621)
(4.61925 0.659955 -32.4672)
(4.50001 0.663135 -32.4659)
(4.53475 0.665828 -32.47)
(4.43637 0.668016 -32.4691)
(4.4643 0.668973 -32.4723)
(4.38998 0.672318 -32.4716)
(4.39172 0.668487 -32.4739)
(4.36582 0.669224 -32.473)
(4.27445 0.691268 -32.4596)
(4.41106 -0.967274 -32.4274)
(4.33277 -0.872793 -32.4639)
(3.68055 -0.818456 -32.4562)
(3.5329 -0.751355 -32.4641)
(3.13377 -0.723625 -32.4585)
(3.12852 -0.710256 -32.4656)
(2.86646 -0.70374 -32.4634)
(2.90859 -0.700312 -32.4695)
(2.71334 -0.698248 -32.4681)
(2.76576 -0.696554 -32.4721)
(2.61119 -0.695459 -32.4704)
(2.66305 -0.694255 -32.4735)
(2.5373 -0.693603 -32.4723)
(2.58531 -0.692591 -32.4747)
(2.48124 -0.692012 -32.4737)
(2.52616 -0.691878 -32.4755)
(2.43383 -0.688921 -32.4747)
(2.49484 -0.693224 -32.4762)
(2.37614 -0.684357 -32.4751)
(2.65049 -0.675996 -32.4664)
(2.92941 -0.101205 -32.3658)
(2.10408 0.462395 -32.4032)
(1.39208 0.616569 -32.3903)
(1.28341 0.672562 -32.4013)
(1.04926 0.689289 -32.3928)
(1.07508 0.694197 -32.404)
(0.934491 0.698278 -32.3988)
(0.979687 0.698482 -32.4075)
(0.874649 0.700704 -32.4025)
(0.919457 0.700438 -32.4083)
(0.835905 0.70199 -32.4039)
(0.876503 0.701454 -32.4087)
(0.808461 0.70246 -32.4056)
(0.844175 0.70183 -32.4093)
(0.788018 0.702268 -32.4068)
(0.818892 0.702195 -32.4097)
(0.771344 0.698509 -32.408)
(0.792958 0.704691 -32.4105)
(0.75899 0.64709 -32.4088)
(0.588625 0.659806 -32.4104)
(4.32523 0.565816 0.00694823)
(3.07995 0.847601 0.00448118)
(2.31613 0.869359 0.00575209)
(1.74897 0.852501 0.00427565)
(1.61068 0.855059 0.00542019)
(1.40659 0.866901 0.00425284)
(1.39972 0.876874 0.00520862)
(1.27763 0.885041 0.00422868)
(1.28447 0.889325 0.00501048)
(1.19815 0.893034 0.00418326)
(1.20597 0.894763 0.00482439)
(1.14291 0.896839 0.00413005)
(1.14914 0.897617 0.00465691)
(1.10105 0.899111 0.00407554)
(1.10613 0.898958 0.00450771)
(1.06603 0.90137 0.00402086)
(1.07286 0.893885 0.00437653)
(1.04997 0.915614 0.00396339)
(1.00482 0.791976 0.00428888)
(1.44659 0.819304 0.00385133)
(4.75869 -0.100165 0.00437181)
(4.61239 -0.277203 0.00234095)
(4.52697 -0.477031 0.00364381)
(4.14518 -0.642848 0.00220193)
(4.00287 -0.739124 0.0033544)
(3.72486 -0.794478 0.00219243)
(3.65094 -0.821963 0.00315125)
(3.46404 -0.839116 0.00217424)
(3.42409 -0.849364 0.00295865)
(3.29161 -0.857178 0.00213379)
(3.26601 -0.862488 0.00277659)
(3.16799 -0.86698 0.00208343)
(3.14901 -0.869886 0.00261117)
(3.07303 -0.87318 0.0020308)
(3.05908 -0.873859 0.00246292)
(2.99331 -0.878317 0.00197786)
(2.99352 -0.875281 0.00232761)
(2.90814 -0.882206 0.00192466)
(2.98355 -0.885923 0.00217941)
(2.58265 -0.894264 0.00180091)
(4.63737 0.435047 0.00566997)
(4.82628 0.871003 0.00371504)
(5.14186 0.969061 0.00489955)
(5.08267 0.959908 0.00341745)
(5.14478 0.941731 0.00454424)
(5.00969 0.92864 0.0033696)
(5.0159 0.919332 0.00432242)
(4.89728 0.913579 0.00334178)
(4.89188 0.907174 0.0041243)
(4.79607 0.903608 0.00329766)
(4.78584 0.89907 0.0039393)
(4.70905 0.896976 0.0032449)
(4.6962 0.894029 0.00377172)
(4.63486 0.892578 0.00319023)
(4.61892 0.891079 0.00362214)
(4.57389 0.888991 0.00313527)
(4.54483 0.887817 0.00349073)
(4.54009 0.887864 0.00307753)
(4.45973 0.848819 0.00340106)
(4.578 0.889289 0.00299008)
(4.57563 -0.201711 0.00449142)
(4.70001 -0.398212 0.0027563)
(5.13051 -0.51877 0.00394584)
(5.23063 -0.623377 0.00249293)
(5.44777 -0.691073 0.00362148)
(5.44898 -0.738246 0.00245099)
(5.56071 -0.764874 0.00340671)
(5.53545 -0.784271 0.00242911)
(5.60002 -0.796871 0.00321426)
(5.56951 -0.80741 0.00239043)
(5.60795 -0.815191 0.00303385)
(5.57824 -0.821986 0.00234161)
(5.6011 -0.827285 0.00286946)
(5.57379 -0.831977 0.00228978)
(5.58758 -0.835965 0.00272162)
(5.56074 -0.838616 0.00223718)
(5.57332 -0.845981 0.00258583)
(5.52995 -0.840101 0.00218227)
(5.56965 -0.875815 0.00243476)
(5.37488 -0.897032 0.00208415)
(4.58868 0.34131 0.00514464)
(4.69598 0.688154 0.00344878)
(5.10639 0.802934 0.00459075)
(5.22731 0.844432 0.00312382)
(5.48459 0.861416 0.00423967)
(5.53479 0.871196 0.00306262)
(5.69726 0.874969 0.00401515)
(5.72437 0.877557 0.00303536)
(5.83743 0.876872 0.00381953)
(5.85489 0.877042 0.00299456)
(5.93571 0.875407 0.00363737)
(5.9474 0.875053 0.00294432)
(6.00576 0.87367 0.0034717)
(6.01428 0.872886 0.00289136)
(6.05541 0.872753 0.00332322)
(6.06476 0.869773 0.00283768)
(6.08697 0.87411 0.0031909)
(6.1053 0.865751 0.00278073)
(6.10568 0.869739 0.00308524)
(6.10351 0.916256 0.00270889)
(4.58264 -0.269011 0.00477383)
(4.66787 -0.539225 0.00314248)
(5.07317 -0.653556 0.00428378)
(5.19541 -0.724322 0.00282397)
(5.46411 -0.764736 0.00393806)
(5.52937 -0.792409 0.00276095)
(5.70977 -0.807042 0.00371342)
(5.75618 -0.817827 0.00273389)
(5.88924 -0.823609 0.00351848)
(5.92738 -0.828977 0.00269406)
(6.02851 -0.832144 0.00333724)
(6.06033 -0.835504 0.0026447)
(6.1383 -0.837799 0.00317226)
(6.1647 -0.839763 0.00259244)
(6.22537 -0.84256 0.00302406)
(6.24664 -0.841457 0.00253946)
(6.2946 -0.850425 0.00288951)
(6.30255 -0.839619 0.00248331)
(6.35375 -0.870409 0.0027586)
(6.26761 -0.905308 0.00240642)
(4.58264 0.269011 0.00477383)
(4.66787 0.539226 0.00314248)
(5.07317 0.653556 0.00428378)
(5.19541 0.724322 0.00282397)
(5.46411 0.764736 0.00393806)
(5.52938 0.792411 0.00276095)
(5.70977 0.807042 0.00371342)
(5.75619 0.817831 0.00273388)
(5.88923 0.823613 0.00351849)
(5.92739 0.828988 0.00269405)
(6.0285 0.832157 0.00333725)
(6.06036 0.835539 0.00264466)
(6.13826 0.837832 0.0031723)
(6.16477 0.839878 0.00259235)
(6.22529 0.842647 0.00302417)
(6.24685 0.841785 0.00253921)
(6.29446 0.85072 0.00288987)
(6.3032 0.840441 0.00248276)
(6.35402 0.871423 0.00275991)
(6.26868 0.907301 0.00240576)
(4.58868 -0.34131 0.00514464)
(4.69598 -0.688154 0.00344878)
(5.10639 -0.802935 0.00459075)
(5.22731 -0.844431 0.00312383)
(5.48459 -0.861416 0.00423966)
(5.53479 -0.871193 0.00306262)
(5.69726 -0.874969 0.00401515)
(5.72438 -0.877552 0.00303537)
(5.83743 -0.87687 0.00381952)
(5.8549 -0.877029 0.00299458)
(5.93572 -0.875398 0.00363735)
(5.94741 -0.875012 0.00294437)
(6.0058 -0.873649 0.00347164)
(6.01429 -0.87276 0.00289147)
(6.05555 -0.8727 0.00332306)
(6.06474 -0.869432 0.00283795)
(6.08739 -0.873918 0.00319045)
(6.10514 -0.865046 0.00278121)
(6.10645 -0.868982 0.00308394)
(6.10361 -0.914524 0.00270903)
(4.57563 0.201711 0.00449142)
(4.70001 0.398212 0.0027563)
(5.13051 0.51877 0.00394584)
(5.23064 0.623378 0.00249293)
(5.44777 0.691073 0.00362148)
(5.44898 0.738247 0.00245099)
(5.56071 0.764876 0.00340671)
(5.53547 0.784274 0.00242911)
(5.60001 0.796876 0.00321426)
(5.56954 0.807417 0.00239042)
(5.60793 0.815206 0.00303385)
(5.57832 0.822009 0.00234159)
(5.60107 0.827323 0.00286947)
(5.57398 0.832055 0.00228974)
(5.58756 0.836062 0.00272165)
(5.56124 0.838856 0.00223707)
(5.57348 0.8463 0.00258601)
(5.5313 0.840804 0.00218193)
(5.57075 0.876896 0.00243594)
(5.3783 0.898806 0.00208344)
(4.63737 -0.435047 0.00566997)
(4.82628 -0.871003 0.00371504)
(5.14186 -0.969061 0.00489955)
(5.08267 -0.959908 0.00341746)
(5.14478 -0.941732 0.00454424)
(5.0097 -0.928638 0.00336961)
(5.0159 -0.919332 0.00432241)
(4.89729 -0.913575 0.0033418)
(4.89188 -0.907174 0.00412428)
(4.7961 -0.903596 0.00329769)
(4.78584 -0.899069 0.00393925)
(4.70912 -0.89694 0.00324497)
(4.69623 -0.894028 0.00377159)
(4.63503 -0.892469 0.00319042)
(4.61909 -0.891087 0.00362183)
(4.57429 -0.88871 0.00313572)
(4.54545 -0.887815 0.00348995)
(4.54098 -0.887407 0.00307836)
(4.46132 -0.848593 0.00339927)
(4.58042 -0.888753 0.00299053)
(4.75869 0.100165 0.00437181)
(4.61239 0.277203 0.00234095)
(4.52697 0.477031 0.00364381)
(4.14519 0.642848 0.00220193)
(4.00287 0.739125 0.00335439)
(3.72487 0.794478 0.00219243)
(3.65093 0.821965 0.00315124)
(3.46406 0.839115 0.00217424)
(3.42408 0.849369 0.00295865)
(3.29165 0.857175 0.0021338)
(3.26601 0.862502 0.00277657)
(3.16811 0.866975 0.00208345)
(3.14901 0.869919 0.00261113)
(3.07332 0.873175 0.00203085)
(3.05915 0.873946 0.00246282)
(2.99406 0.878322 0.00197798)
(2.99382 0.875548 0.00232739)
(2.9104 0.882387 0.00192487)
(2.9842 0.886848 0.00217954)
(2.59085 0.895719 0.0018012)
(4.32523 -0.565816 0.00694822)
(3.07995 -0.8476 0.00448118)
(2.31613 -0.869359 0.00575209)
(1.74897 -0.852501 0.00427565)
(1.61068 -0.855059 0.00542018)
(1.40659 -0.8669 0.00425285)
(1.39972 -0.876875 0.00520861)
(1.27764 -0.885038 0.0042287)
(1.28448 -0.889328 0.00501045)
(1.19817 -0.893026 0.0041833)
(1.20599 -0.894771 0.00482433)
(1.14296 -0.896818 0.00413015)
(1.1492 -0.897639 0.00465674)
(1.10116 -0.899052 0.00407581)
(1.10632 -0.899024 0.00450726)
(1.06628 -0.901219 0.00402158)
(1.07343 -0.894107 0.00437528)
(1.05059 -0.915427 0.00396527)
(1.00616 -0.793103 0.004285)
(1.44779 -0.820697 0.0038566)
(4.37877 0.0970499 0.00138739)
(3.96782 0.148976 0.00193107)
(3.433 0.162935 0.000977141)
(2.95603 0.156764 0.00151954)
(2.54377 0.145213 0.000996388)
(2.23997 0.136664 0.00141291)
(2.01539 0.131672 0.00106947)
(1.86256 0.131293 0.001332)
(1.75938 0.133647 0.00110003)
(1.68534 0.138119 0.00125381)
(1.63903 0.143124 0.00111024)
(1.59772 0.148525 0.00119227)
(1.57476 0.153133 0.00111777)
(1.5468 0.158029 0.00115034)
(1.53266 0.160784 0.00112945)
(1.51383 0.166105 0.00112498)
(1.4972 0.164491 0.00115046)
(1.5 0.174782 0.0011106)
(1.45313 0.160139 0.00116424)
(1.52852 0.167246 0.00117923)
(4.5412 0.0877558 0.00317866)
(4.67809 0.119347 0.00390114)
(4.72051 0.120705 0.00294052)
(4.70935 0.0944844 0.00345842)
(4.63224 0.0563677 0.00291065)
(4.53689 0.0140049 0.00331304)
(4.42946 -0.0239741 0.0029606)
(4.32455 -0.0566196 0.00321951)
(4.22887 -0.0815589 0.00298527)
(4.13723 -0.10142 0.00313872)
(4.06032 -0.115889 0.00299438)
(3.98413 -0.127555 0.0030764)
(3.92383 -0.136071 0.00300159)
(3.8611 -0.143322 0.00303398)
(3.81434 -0.148733 0.00301354)
(3.76309 -0.153239 0.00300788)
(3.72619 -0.157829 0.00303706)
(3.68766 -0.159325 0.00299118)
(3.65186 -0.165593 0.00308761)
(3.63318 -0.17103 0.00309198)
(4.51654 0.0457263 0.00174438)
(4.6561 0.1104 0.00235138)
(4.78815 0.162746 0.00142289)
(4.93661 0.191209 0.00194473)
(5.04418 0.20155 0.00140343)
(5.1286 0.202506 0.00181256)
(5.1794 0.199303 0.00146834)
(5.20871 0.196317 0.00173214)
(5.2229 0.194438 0.00150312)
(5.2234 0.194012 0.00165844)
(5.22057 0.194397 0.00151678)
(5.20893 0.195324 0.00159929)
(5.1986 0.196035 0.00152567)
(5.18335 0.197234 0.00155846)
(5.16856 0.196706 0.00153767)
(5.1554 0.199361 0.00153421)
(5.13494 0.194124 0.00155612)
(5.13024 0.204235 0.00152612)
(5.09907 0.184053 0.00155222)
(5.10838 0.208376 0.00158639)
(4.51259 0.044147 0.00276232)
(4.6217 0.050844 0.00347905)
(4.74582 0.0465637 0.0025751)
(4.90537 0.0290583 0.00310242)
(5.04497 0.00685419 0.00254706)
(5.1774 -0.0182662 0.00294469)
(5.28428 -0.0420837 0.00258964)
(5.37387 -0.0636272 0.00284842)
(5.44813 -0.0812891 0.00261489)
(5.50789 -0.0958979 0.00276857)
(5.5618 -0.107434 0.00262477)
(5.60457 -0.116752 0.00270666)
(5.6463 -0.124505 0.0026319)
(5.67917 -0.130412 0.00266432)
(5.71272 -0.136507 0.00264333)
(5.73891 -0.139422 0.00263924)
(5.76737 -0.146365 0.00266516)
(5.78557 -0.144921 0.00263119)
(5.81562 -0.155093 0.00271858)
(5.8132 -0.153078 0.00272316)
(4.5137 0.0165824 0.00206211)
(4.62287 0.0556639 0.00273334)
(4.74001 0.0913853 0.00183918)
(4.89355 0.117049 0.00235758)
(5.03092 0.133371 0.0018001)
(5.1671 0.144487 0.00219786)
(5.28252 0.152255 0.00184557)
(5.38508 0.158983 0.00210655)
(5.47521 0.164849 0.00187574)
(5.55336 0.170417 0.00203066)
(5.62749 0.175252 0.00188853)
(5.69171 0.179689 0.00197093)
(5.75648 0.183066 0.00189711)
(5.81215 0.186515 0.00192985)
(5.87097 0.187905 0.00190905)
(5.91902 0.191817 0.00190606)
(5.9765 0.189001 0.00192755)
(6.01014 0.198384 0.00190234)
(6.08128 0.184371 0.00193776)
(6.07705 0.209502 0.0019703)
(4.51244 0.0119177 0.00239494)
(4.61504 -0.00401769 0.00309535)
(4.73076 -0.0234224 0.00220888)
(4.88259 -0.0448759 0.00273323)
(5.0191 -0.0639659 0.0021743)
(5.15516 -0.0817624 0.00257042)
(5.27166 -0.0972591 0.00221565)
(5.37643 -0.111014 0.00247562)
(5.47011 -0.12251 0.00224372)
(5.55258 -0.132259 0.00239834)
(5.63248 -0.14026 0.00225571)
(5.70251 -0.146804 0.00233794)
(5.77521 -0.152312 0.00226387)
(5.8373 -0.156558 0.00229639)
(5.90671 -0.160501 0.00227567)
(5.96008 -0.163167 0.00227229)
(6.03246 -0.165937 0.00229598)
(6.06697 -0.16852 0.00226901)
(6.16078 -0.16792 0.00233316)
(6.14841 -0.177475 0.00234828)
(4.51244 -0.011918 0.00239494)
(4.61504 0.0040182 0.00309535)
(4.73076 0.0234219 0.00220888)
(4.88259 0.0448771 0.00273323)
(5.0191 0.0639653 0.0021743)
(5.15516 0.0817649 0.00257042)
(5.27166 0.0972591 0.00221564)
(5.37643 0.111019 0.00247562)
(5.47011 0.122512 0.00224371)
(5.55259 0.132274 0.00239835)
(5.63248 0.140269 0.00225569)
(5.70252 0.146846 0.00233798)
(5.77521 0.152334 0.00226382)
(5.83732 0.156682 0.00229648)
(5.90671 0.160554 0.00227555)
(5.96011 0.163503 0.0022725)
(6.03248 0.166113 0.00229554)
(6.06704 0.169306 0.00226937)
(6.1609 0.168642 0.00233117)
(6.14864 0.179044 0.00234882)
(4.5137 -0.0165826 0.00206211)
(4.62287 -0.0556634 0.00273334)
(4.74001 -0.0913859 0.00183918)
(4.89355 -0.117048 0.00235758)
(5.03092 -0.133372 0.0018001)
(5.1671 -0.144485 0.00219786)
(5.28252 -0.152255 0.00184557)
(5.38508 -0.158977 0.00210655)
(5.47522 -0.164847 0.00187575)
(5.55336 -0.170402 0.00203065)
(5.6275 -0.175243 0.00188855)
(5.69171 -0.179646 0.00197089)
(5.7565 -0.183046 0.00189715)
(5.81215 -0.186391 0.00192977)
(5.87105 -0.187857 0.00190916)
(5.91903 -0.191485 0.00190585)
(5.9767 -0.18884 0.00192794)
(6.01021 -0.197623 0.00190195)
(6.08172 -0.183703 0.00193945)
(6.07739 -0.208048 0.00196976)
(4.51259 -0.0441472 0.00276232)
(4.6217 -0.0508436 0.00347905)
(4.74582 -0.0465641 0.0025751)
(4.90537 -0.0290573 0.00310243)
(5.04497 -0.0068547 0.00254705)
(5.17741 0.0182685 0.00294469)
(5.28428 0.0420838 0.00258963)
(5.37388 0.0636323 0.00284843)
(5.44812 0.0812919 0.00261488)
(5.50791 0.0959106 0.00276859)
(5.56179 0.107444 0.00262474)
(5.6046 0.116789 0.0027067)
(5.64631 0.124527 0.00263184)
(5.67925 0.130523 0.00266441)
(5.71279 0.136556 0.00264318)
(5.73908 0.13973 0.00263942)
(5.76766 0.146516 0.00266469)
(5.78598 0.145652 0.0026315)
(5.81654 0.155723 0.00271668)
(5.81439 0.154558 0.00272338)
(4.51654 -0.0457264 0.00174438)
(4.6561 -0.1104 0.00235138)
(4.78815 -0.162746 0.00142289)
(4.93661 -0.191208 0.00194473)
(5.04418 -0.201551 0.00140343)
(5.12861 -0.202504 0.00181256)
(5.17939 -0.199303 0.00146834)
(5.20873 -0.196311 0.00173215)
(5.22288 -0.194437 0.00150312)
(5.22344 -0.193998 0.00165845)
(5.22055 -0.194392 0.00151678)
(5.20902 -0.195287 0.0015993)
(5.19858 -0.196025 0.00152566)
(5.18355 -0.197128 0.00155845)
(5.16863 -0.196684 0.00153769)
(5.15582 -0.199083 0.00153413)
(5.13536 -0.194041 0.00155628)
(5.13113 -0.203632 0.0015259)
(5.10047 -0.183634 0.00155311)
(5.11055 -0.207402 0.00158621)
(4.5412 -0.0877558 0.00317866)
(4.67809 -0.119347 0.00390114)
(4.72051 -0.120705 0.00294052)
(4.70935 -0.0944841 0.00345843)
(4.63224 -0.0563675 0.00291064)
(4.5369 -0.0140041 0.00331305)
(4.42945 0.0239752 0.00296058)
(4.32457 0.0566215 0.00321954)
(4.22886 0.0815625 0.00298523)
(4.13729 0.101425 0.00313879)
(4.06029 0.115898 0.00299429)
(3.98429 0.12757 0.00307654)
(3.92378 0.13609 0.00300138)
(3.86148 0.143374 0.0030343)
(3.81434 0.148766 0.00301305)
(3.76394 0.153393 0.00300859)
(3.72646 0.157917 0.00303587)
(3.6896 0.159701 0.0029927)
(3.65298 0.16596 0.0030844)
(3.63787 0.171781 0.00309492)
(4.37877 -0.0970499 0.00138739)
(3.96782 -0.148976 0.00193107)
(3.433 -0.162935 0.00097714)
(2.95603 -0.156764 0.00151954)
(2.54377 -0.145213 0.000996386)
(2.23997 -0.136664 0.00141291)
(2.01539 -0.131672 0.00106947)
(1.86257 -0.131292 0.00133201)
(1.75938 -0.133647 0.00110002)
(1.68538 -0.138116 0.00125383)
(1.63904 -0.143125 0.00111022)
(1.59784 -0.148516 0.0011923)
(1.5748 -0.153136 0.00111772)
(1.54706 -0.158002 0.00115043)
(1.53282 -0.1608 0.00112931)
(1.51442 -0.166031 0.00112518)
(1.49773 -0.164539 0.00115003)
(1.50152 -0.174632 0.00111122)
(1.45421 -0.160237 0.0011629)
(1.53322 -0.167366 0.00118133)
(4.37877 0.0970499 -0.00138739)
(3.96782 0.148976 -0.00193108)
(3.433 0.162935 -0.000977145)
(2.95603 0.156764 -0.00151954)
(2.54377 0.145213 -0.000996392)
(2.23997 0.136664 -0.00141291)
(2.01539 0.131672 -0.00106947)
(1.86256 0.131293 -0.00133201)
(1.75938 0.133647 -0.00110004)
(1.68534 0.138119 -0.00125382)
(1.63903 0.143124 -0.00111024)
(1.59772 0.148525 -0.00119227)
(1.57476 0.153133 -0.00111778)
(1.5468 0.158029 -0.00115035)
(1.53266 0.160784 -0.00112945)
(1.51383 0.166105 -0.00112498)
(1.4972 0.164491 -0.00115047)
(1.5 0.174782 -0.00111061)
(1.45313 0.160139 -0.00116425)
(1.52852 0.167246 -0.00117924)
(4.5412 0.0877558 -0.00317867)
(4.67809 0.119347 -0.00390114)
(4.72051 0.120705 -0.00294053)
(4.70935 0.0944844 -0.00345843)
(4.63224 0.0563677 -0.00291065)
(4.53689 0.0140049 -0.00331304)
(4.42946 -0.0239742 -0.0029606)
(4.32455 -0.0566196 -0.00321952)
(4.22887 -0.0815588 -0.00298528)
(4.13723 -0.10142 -0.00313873)
(4.06032 -0.115889 -0.00299439)
(3.98413 -0.127555 -0.00307641)
(3.92383 -0.136071 -0.00300159)
(3.8611 -0.143322 -0.00303399)
(3.81434 -0.148733 -0.00301355)
(3.76309 -0.153239 -0.00300788)
(3.72619 -0.157829 -0.00303707)
(3.68766 -0.159325 -0.00299119)
(3.65186 -0.165593 -0.00308762)
(3.63318 -0.17103 -0.00309199)
(4.51654 0.0457263 -0.00174438)
(4.6561 0.1104 -0.00235138)
(4.78815 0.162746 -0.00142289)
(4.9366 0.191209 -0.00194473)
(5.04418 0.20155 -0.00140344)
(5.1286 0.202506 -0.00181257)
(5.1794 0.199303 -0.00146835)
(5.20871 0.196317 -0.00173215)
(5.2229 0.194438 -0.00150312)
(5.2234 0.194012 -0.00165845)
(5.22057 0.194397 -0.00151679)
(5.20893 0.195325 -0.0015993)
(5.1986 0.196035 -0.00152567)
(5.18335 0.197234 -0.00155846)
(5.16856 0.196706 -0.00153767)
(5.1554 0.199361 -0.00153422)
(5.13494 0.194124 -0.00155612)
(5.13024 0.204235 -0.00152612)
(5.09907 0.184053 -0.00155222)
(5.10838 0.208376 -0.0015864)
(4.51259 0.044147 -0.00276232)
(4.6217 0.050844 -0.00347905)
(4.74582 0.0465637 -0.0025751)
(4.90537 0.0290583 -0.00310243)
(5.04497 0.00685419 -0.00254706)
(5.1774 -0.0182662 -0.00294469)
(5.28428 -0.0420837 -0.00258964)
(5.37387 -0.0636272 -0.00284843)
(5.44813 -0.081289 -0.0026149)
(5.50789 -0.0958979 -0.00276857)
(5.5618 -0.107434 -0.00262477)
(5.60457 -0.116752 -0.00270666)
(5.6463 -0.124505 -0.00263191)
(5.67917 -0.130412 -0.00266432)
(5.71272 -0.136507 -0.00264334)
(5.73891 -0.139423 -0.00263924)
(5.76737 -0.146365 -0.00266516)
(5.78557 -0.144921 -0.00263119)
(5.81562 -0.155093 -0.00271858)
(5.8132 -0.153078 -0.00272316)
(4.5137 0.0165824 -0.00206211)
(4.62287 0.0556639 -0.00273334)
(4.74001 0.0913853 -0.00183919)
(4.89355 0.117049 -0.00235759)
(5.03092 0.133371 -0.0018001)
(5.1671 0.144487 -0.00219787)
(5.28252 0.152255 -0.00184558)
(5.38508 0.158983 -0.00210656)
(5.47521 0.164849 -0.00187575)
(5.55336 0.170417 -0.00203066)
(5.62749 0.175252 -0.00188854)
(5.69171 0.179689 -0.00197093)
(5.75648 0.183066 -0.00189711)
(5.81215 0.186515 -0.00192986)
(5.87097 0.187905 -0.00190905)
(5.91902 0.191817 -0.00190607)
(5.9765 0.189001 -0.00192755)
(6.01014 0.198384 -0.00190235)
(6.08128 0.184371 -0.00193776)
(6.07705 0.209502 -0.00197031)
(4.51244 0.0119177 -0.00239495)
(4.61504 -0.0040177 -0.00309536)
(4.73076 -0.0234224 -0.00220889)
(4.88259 -0.0448759 -0.00273323)
(5.0191 -0.0639659 -0.0021743)
(5.15516 -0.0817623 -0.00257042)
(5.27166 -0.0972591 -0.00221565)
(5.37643 -0.111014 -0.00247562)
(5.47011 -0.12251 -0.00224373)
(5.55258 -0.132259 -0.00239834)
(5.63248 -0.14026 -0.00225571)
(5.70251 -0.146804 -0.00233795)
(5.77521 -0.152312 -0.00226387)
(5.8373 -0.156558 -0.0022964)
(5.90671 -0.160501 -0.00227568)
(5.96008 -0.163167 -0.00227229)
(6.03246 -0.165937 -0.00229598)
(6.06697 -0.16852 -0.00226902)
(6.16078 -0.167921 -0.00233317)
(6.14841 -0.177475 -0.00234828)
(4.51244 -0.011918 -0.00239495)
(4.61504 0.0040182 -0.00309536)
(4.73076 0.0234219 -0.00220889)
(4.88259 0.0448771 -0.00273323)
(5.0191 0.0639653 -0.0021743)
(5.15516 0.0817649 -0.00257043)
(5.27166 0.0972592 -0.00221565)
(5.37643 0.111019 -0.00247563)
(5.47011 0.122512 -0.00224372)
(5.55259 0.132274 -0.00239836)
(5.63248 0.140269 -0.0022557)
(5.70252 0.146846 -0.00233798)
(5.77521 0.152334 -0.00226383)
(5.83732 0.156682 -0.00229649)
(5.90671 0.160554 -0.00227555)
(5.96011 0.163503 -0.00227251)
(6.03248 0.166113 -0.00229555)
(6.06704 0.169306 -0.00226938)
(6.1609 0.168642 -0.00233118)
(6.14864 0.179044 -0.00234882)
(4.5137 -0.0165826 -0.00206211)
(4.62287 -0.0556634 -0.00273334)
(4.74001 -0.0913859 -0.00183919)
(4.89355 -0.117048 -0.00235759)
(5.03092 -0.133372 -0.0018001)
(5.1671 -0.144485 -0.00219787)
(5.28252 -0.152255 -0.00184558)
(5.38508 -0.158977 -0.00210655)
(5.47522 -0.164847 -0.00187575)
(5.55336 -0.170402 -0.00203065)
(5.6275 -0.175243 -0.00188855)
(5.69171 -0.179646 -0.0019709)
(5.7565 -0.183046 -0.00189716)
(5.81215 -0.186391 -0.00192977)
(5.87105 -0.187857 -0.00190916)
(5.91903 -0.191485 -0.00190585)
(5.9767 -0.18884 -0.00192794)
(6.01021 -0.197624 -0.00190195)
(6.08172 -0.183703 -0.00193945)
(6.07739 -0.208048 -0.00196976)
(4.51259 -0.0441472 -0.00276232)
(4.6217 -0.0508436 -0.00347905)
(4.74582 -0.0465641 -0.0025751)
(4.90537 -0.0290573 -0.00310243)
(5.04497 -0.00685469 -0.00254706)
(5.17741 0.0182685 -0.0029447)
(5.28428 0.0420838 -0.00258964)
(5.37388 0.0636323 -0.00284844)
(5.44812 0.0812919 -0.00261488)
(5.50791 0.0959106 -0.00276859)
(5.56179 0.107444 -0.00262474)
(5.6046 0.116789 -0.00270671)
(5.64631 0.124527 -0.00263184)
(5.67925 0.130523 -0.00266441)
(5.71279 0.136556 -0.00264319)
(5.73908 0.13973 -0.00263943)
(5.76766 0.146516 -0.00266469)
(5.78598 0.145652 -0.00263151)
(5.81654 0.155723 -0.00271668)
(5.81439 0.154558 -0.00272339)
(4.51654 -0.0457264 -0.00174438)
(4.6561 -0.1104 -0.00235139)
(4.78815 -0.162746 -0.00142289)
(4.93661 -0.191208 -0.00194473)
(5.04418 -0.201551 -0.00140344)
(5.12861 -0.202504 -0.00181257)
(5.17939 -0.199303 -0.00146834)
(5.20873 -0.196311 -0.00173215)
(5.22288 -0.194437 -0.00150312)
(5.22344 -0.193998 -0.00165845)
(5.22055 -0.194392 -0.00151678)
(5.20902 -0.195287 -0.0015993)
(5.19858 -0.196025 -0.00152567)
(5.18355 -0.197128 -0.00155845)
(5.16863 -0.196684 -0.0015377)
(5.15582 -0.199083 -0.00153413)
(5.13536 -0.194041 -0.00155628)
(5.13113 -0.203632 -0.00152591)
(5.10047 -0.183634 -0.00155312)
(5.11055 -0.207402 -0.00158621)
(4.5412 -0.0877558 -0.00317867)
(4.67809 -0.119347 -0.00390115)
(4.72051 -0.120705 -0.00294052)
(4.70935 -0.0944841 -0.00345843)
(4.63224 -0.0563676 -0.00291065)
(4.5369 -0.0140041 -0.00331305)
(4.42945 0.0239752 -0.00296058)
(4.32457 0.0566215 -0.00321955)
(4.22886 0.0815625 -0.00298524)
(4.13729 0.101425 -0.00313879)
(4.06029 0.115898 -0.00299429)
(3.98429 0.127571 -0.00307655)
(3.92378 0.13609 -0.00300138)
(3.86148 0.143374 -0.0030343)
(3.81434 0.148766 -0.00301305)
(3.76394 0.153393 -0.00300859)
(3.72646 0.157917 -0.00303587)
(3.6896 0.159701 -0.0029927)
(3.65298 0.16596 -0.00308441)
(3.63787 0.171781 -0.00309493)
(4.37877 -0.0970499 -0.00138739)
(3.96782 -0.148976 -0.00193108)
(3.433 -0.162935 -0.000977145)
(2.95603 -0.156764 -0.00151954)
(2.54377 -0.145213 -0.000996392)
(2.23997 -0.136664 -0.00141292)
(2.01539 -0.131672 -0.00106947)
(1.86257 -0.131292 -0.00133202)
(1.75938 -0.133647 -0.00110003)
(1.68538 -0.138116 -0.00125383)
(1.63904 -0.143125 -0.00111022)
(1.59784 -0.148516 -0.0011923)
(1.5748 -0.153136 -0.00111773)
(1.54706 -0.158002 -0.00115043)
(1.53282 -0.1608 -0.00112931)
(1.51442 -0.166031 -0.00112519)
(1.49773 -0.164539 -0.00115004)
(1.50152 -0.174632 -0.00111122)
(1.45421 -0.160237 -0.0011629)
(1.53322 -0.167366 -0.00118133)
(4.32523 0.565816 -0.00694823)
(3.07995 0.847601 -0.00448118)
(2.31613 0.869359 -0.00575209)
(1.74897 0.852501 -0.00427565)
(1.61068 0.855059 -0.00542019)
(1.40659 0.866901 -0.00425284)
(1.39972 0.876874 -0.00520862)
(1.27763 0.885041 -0.00422868)
(1.28447 0.889325 -0.00501048)
(1.19815 0.893034 -0.00418326)
(1.20597 0.894763 -0.0048244)
(1.14291 0.896839 -0.00413005)
(1.14914 0.897617 -0.00465691)
(1.10105 0.899111 -0.00407555)