/*--------------------------------*- C++ -*----------------------------------*\
  =========                 |
  \\      /  F ield         | OpenFOAM: The Open Source CFD Toolbox
   \\    /   O peration     | Website:  https://openfoam.org
    \\  /    A nd           | Version:  7
     \\/     M anipulation  |
\*---------------------------------------------------------------------------*/
FoamFile
{
    version     2.0;
    format      ascii;
    class       volScalarField;
    location    "0.1";
    object      rho_0;
}
// * * * * * * * * * * * * * * * * * * * * * * * * * * * * * * * * * * * * * //

dimensions      [1 -3 0 0 0 0 0];

internalField   nonuniform List<scalar> 
1440
(
1.19966
1.19937
1.19907
1.19875
1.19842
1.19808
1.19772
1.19735
1.19697
1.19658
1.19617
1.19576
1.19533
1.1949
1.19446
1.19401
1.19356
1.1931
1.19264
1.19218
1.19172
1.19126
1.1908
1.19035
1.1899
1.18946
1.18902
1.1886
1.18818
1.18777
1.18736
1.18697
1.18658
1.18619
1.18581
1.18544
1.18507
1.1847
1.18433
1.18397
1.18361
1.18326
1.18291
1.18258
1.18226
1.18196
1.18168
1.18142
1.18118
1.18097
1.18078
1.18061
1.18046
1.18033
1.18022
1.18012
1.18003
1.17995
1.17988
1.17981
1.17975
1.17968
1.17962
1.17956
1.17949
1.17943
1.17936
1.17928
1.1792
1.17912
1.17902
1.17891
1.1788
1.17867
1.17853
1.17838
1.17823
1.17807
1.17791
1.17775
1.17759
1.17743
1.17727
1.17712
1.17697
1.17683
1.17669
1.17655
1.17643
1.17631
1.17619
1.17609
1.17599
1.1759
1.17581
1.17574
1.17567
1.17561
1.17556
1.17551
1.17548
1.17545
1.17543
1.17541
1.1754
1.17538
1.17537
1.17536
1.17536
1.17534
1.17534
1.17532
1.17532
1.17529
1.17531
1.17524
1.17529
1.17515
1.17523
1.17517
1.1998
1.19981
1.19982
1.19981
1.19979
1.19976
1.1997
1.19963
1.19955
1.19945
1.19934
1.19922
1.19909
1.19895
1.19881
1.19866
1.1985
1.19835
1.19819
1.19803
1.19786
1.1977
1.19754
1.19737
1.19721
1.19705
1.19688
1.19672
1.19655
1.19639
1.19623
1.19606
1.1959
1.19573
1.19556
1.19539
1.19522
1.19505
1.19488
1.19471
1.19453
1.19436
1.19419
1.19402
1.19386
1.19371
1.19356
1.19343
1.1933
1.19318
1.19307
1.19297
1.19288
1.1928
1.19272
1.19264
1.19257
1.1925
1.19244
1.19237
1.1923
1.19224
1.19217
1.19211
1.19205
1.19198
1.19192
1.19186
1.19179
1.19172
1.19165
1.19157
1.19149
1.19141
1.19131
1.19122
1.19112
1.19102
1.19091
1.1908
1.19068
1.19056
1.19044
1.19032
1.19019
1.19007
1.18995
1.18983
1.18971
1.18959
1.18948
1.18937
1.18927
1.18917
1.18909
1.18901
1.18894
1.18887
1.18882
1.18877
1.18873
1.1887
1.18867
1.18865
1.18863
1.18862
1.18861
1.18859
1.18859
1.18857
1.18858
1.18855
1.18857
1.18851
1.18856
1.18846
1.18856
1.18836
1.18854
1.18838
1.19977
1.19977
1.19977
1.19976
1.19976
1.19975
1.19974
1.19973
1.19972
1.1997
1.19969
1.19967
1.19965
1.19962
1.1996
1.19957
1.19954
1.19951
1.19948
1.19945
1.19942
1.19938
1.19934
1.19931
1.19927
1.19924
1.1992
1.19916
1.19912
1.19908
1.19904
1.199
1.19896
1.19892
1.19888
1.19884
1.1988
1.19876
1.19871
1.19867
1.19863
1.19859
1.19855
1.19851
1.19848
1.19844
1.19842
1.19839
1.19838
1.19836
1.19834
1.19833
1.19832
1.19832
1.19831
1.1983
1.19829
1.19827
1.19826
1.19824
1.19822
1.1982
1.19817
1.19815
1.19812
1.19809
1.19805
1.19802
1.19798
1.19794
1.1979
1.19786
1.19782
1.19777
1.19772
1.19767
1.19762
1.19756
1.19751
1.19745
1.19739
1.19733
1.19727
1.19721
1.19715
1.19709
1.19703
1.19697
1.19692
1.19687
1.19683
1.19679
1.19675
1.19672
1.1967
1.19668
1.19667
1.19666
1.19666
1.19666
1.19667
1.19669
1.1967
1.19672
1.19674
1.19675
1.19677
1.19679
1.19681
1.19682
1.19683
1.19683
1.19685
1.19683
1.19685
1.19681
1.19686
1.19676
1.19684
1.19674
1.19977
1.19976
1.19976
1.19975
1.19974
1.19974
1.19973
1.19971
1.1997
1.19969
1.19968
1.19967
1.19965
1.19964
1.19963
1.19962
1.19961
1.1996
1.19959
1.19958
1.19957
1.19956
1.19955
1.19954
1.19953
1.19952
1.19952
1.19951
1.1995
1.1995
1.19949
1.19949
1.19948
1.19948
1.19947
1.19947
1.19947
1.19946
1.19946
1.19945
1.19945
1.19945
1.19944
1.19944
1.19943
1.19943
1.19942
1.19942
1.19941
1.1994
1.1994
1.19939
1.19938
1.19937
1.19936
1.19935
1.19934
1.19933
1.19932
1.1993
1.19929
1.19927
1.19925
1.19923
1.19921
1.19919
1.19916
1.19914
1.19911
1.19909
1.19906
1.19903
1.19899
1.19896
1.19892
1.19888
1.19884
1.1988
1.19875
1.19871
1.19866
1.19861
1.19857
1.19852
1.19848
1.19844
1.1984
1.19836
1.19833
1.19831
1.19829
1.19827
1.19826
1.19826
1.19826
1.19827
1.19828
1.1983
1.19832
1.19834
1.19837
1.1984
1.19843
1.19846
1.19849
1.19852
1.19855
1.19858
1.19861
1.19863
1.19865
1.19867
1.19868
1.19869
1.1987
1.1987
1.1987
1.1987
1.1987
1.19868
1.19976
1.19976
1.19975
1.19975
1.19974
1.19973
1.19972
1.19971
1.1997
1.19969
1.19967
1.19966
1.19965
1.19964
1.19962
1.19961
1.1996
1.19959
1.19958
1.19957
1.19956
1.19955
1.19955
1.19954
1.19953
1.19953
1.19952
1.19952
1.19951
1.19951
1.19951
1.19951
1.19951
1.1995
1.1995
1.1995
1.1995
1.1995
1.1995
1.1995
1.1995
1.1995
1.1995
1.1995
1.19949
1.19949
1.19948
1.19948
1.19947
1.19947
1.19946
1.19945
1.19944
1.19943
1.19942
1.1994
1.19939
1.19938
1.19936
1.19935
1.19933
1.19931
1.1993
1.19928
1.19926
1.19923
1.19921
1.19919
1.19916
1.19914
1.19911
1.19908
1.19904
1.19901
1.19897
1.19893
1.19889
1.19885
1.1988
1.19876
1.19871
1.19867
1.19862
1.19858
1.19853
1.19849
1.19845
1.19842
1.19839
1.19837
1.19835
1.19833
1.19833
1.19832
1.19833
1.19834
1.19835
1.19837
1.19839
1.19842
1.19844
1.19847
1.19851
1.19854
1.19857
1.1986
1.19863
1.19866
1.19868
1.19871
1.19873
1.19875
1.19876
1.19877
1.19878
1.19879
1.19879
1.19879
1.19878
1.19878
1.19976
1.19975
1.19975
1.19975
1.19974
1.19973
1.19972
1.19971
1.1997
1.19969
1.19967
1.19966
1.19965
1.19964
1.19962
1.19961
1.1996
1.19959
1.19958
1.19957
1.19956
1.19955
1.19955
1.19954
1.19953
1.19953
1.19952
1.19952
1.19951
1.19951
1.19951
1.1995
1.1995
1.1995
1.1995
1.1995
1.1995
1.1995
1.1995
1.1995
1.1995
1.1995
1.1995
1.19949
1.19949
1.19949
1.19948
1.19948
1.19947
1.19946
1.19946
1.19945
1.19944
1.19943
1.19942
1.1994
1.19939
1.19938
1.19936
1.19935
1.19933
1.19932
1.1993
1.19928
1.19926
1.19924
1.19921
1.19919
1.19917
1.19914
1.19911
1.19908
1.19905
1.19901
1.19897
1.19894
1.19889
1.19885
1.19881
1.19876
1.19872
1.19867
1.19862
1.19858
1.19853
1.19849
1.19846
1.19842
1.19839
1.19837
1.19835
1.19833
1.19833
1.19832
1.19833
1.19834
1.19835
1.19837
1.19839
1.19842
1.19844
1.19847
1.19851
1.19854
1.19857
1.1986
1.19863
1.19866
1.19869
1.19871
1.19873
1.19875
1.19876
1.19878
1.19878
1.19879
1.19879
1.19879
1.19878
1.19878
1.19976
1.19975
1.19975
1.19975
1.19974
1.19973
1.19972
1.19971
1.1997
1.19969
1.19967
1.19966
1.19965
1.19964
1.19962
1.19961
1.1996
1.19959
1.19958
1.19957
1.19956
1.19955
1.19955
1.19954
1.19953
1.19953
1.19952
1.19952
1.19951
1.19951
1.19951
1.1995
1.1995
1.1995
1.1995
1.1995
1.1995
1.1995
1.1995
1.1995
1.1995
1.1995
1.1995
1.19949
1.19949
1.19949
1.19948
1.19948
1.19947
1.19946
1.19946
1.19945
1.19944
1.19943
1.19942
1.1994
1.19939
1.19938
1.19936
1.19935
1.19933
1.19932
1.1993
1.19928
1.19926
1.19924
1.19921
1.19919
1.19917
1.19914
1.19911
1.19908
1.19905
1.19901
1.19898
1.19894
1.19889
1.19885
1.19881
1.19876
1.19872
1.19867
1.19862
1.19858
1.19853
1.19849
1.19846
1.19842
1.19839
1.19837
1.19835
1.19834
1.19833
1.19832
1.19833
1.19834
1.19835
1.19837
1.19839
1.19842
1.19844
1.19847
1.19851
1.19854
1.19857
1.1986
1.19863
1.19866
1.19869
1.19871
1.19873
1.19875
1.19876
1.19878
1.19878
1.19879
1.19879
1.19879
1.19878
1.19878
1.19976
1.19976
1.19975
1.19975
1.19974
1.19973
1.19972
1.19971
1.1997
1.19969
1.19967
1.19966
1.19965
1.19964
1.19962
1.19961
1.1996
1.19959
1.19958
1.19957
1.19956
1.19955
1.19955
1.19954
1.19953
1.19953
1.19952
1.19952
1.19951
1.19951
1.19951
1.19951
1.1995
1.1995
1.1995
1.1995
1.1995
1.1995
1.1995
1.1995
1.1995
1.1995
1.1995
1.19949
1.19949
1.19949
1.19948
1.19948
1.19947
1.19946
1.19946
1.19945
1.19944
1.19943
1.19942
1.1994
1.19939
1.19938
1.19936
1.19935
1.19933
1.19931
1.1993
1.19928
1.19926
1.19924
1.19921
1.19919
1.19916
1.19914
1.19911
1.19908
1.19905
1.19901
1.19897
1.19894
1.19889
1.19885
1.19881
1.19876
1.19872
1.19867
1.19862
1.19858
1.19853
1.19849
1.19846
1.19842
1.19839
1.19837
1.19835
1.19833
1.19833
1.19832
1.19833
1.19834
1.19835
1.19837
1.19839
1.19842
1.19844
1.19847
1.19851
1.19854
1.19857
1.1986
1.19863
1.19866
1.19869
1.19871
1.19873
1.19875
1.19876
1.19878
1.19878
1.19879
1.19879
1.19879
1.19878
1.19878
1.19977
1.19976
1.19976
1.19975
1.19974
1.19974
1.19973
1.19971
1.1997
1.19969
1.19968
1.19966
1.19965
1.19964
1.19963
1.19961
1.1996
1.19959
1.19958
1.19957
1.19956
1.19956
1.19955
1.19954
1.19953
1.19953
1.19952
1.19952
1.19951
1.19951
1.19951
1.19951
1.1995
1.1995
1.1995
1.1995
1.1995
1.1995
1.1995
1.1995
1.1995
1.1995
1.19949
1.19949
1.19949
1.19948
1.19948
1.19947
1.19947
1.19946
1.19945
1.19944
1.19943
1.19942
1.19941
1.1994
1.19939
1.19937
1.19936
1.19934
1.19933
1.19931
1.19929
1.19927
1.19925
1.19923
1.19921
1.19919
1.19916
1.19914
1.19911
1.19908
1.19904
1.19901
1.19897
1.19893
1.19889
1.19885
1.19881
1.19876
1.19872
1.19867
1.19862
1.19858
1.19854
1.1985
1.19846
1.19842
1.1984
1.19837
1.19835
1.19834
1.19833
1.19833
1.19833
1.19834
1.19835
1.19837
1.19839
1.19842
1.19844
1.19847
1.19851
1.19854
1.19857
1.1986
1.19863
1.19866
1.19868
1.19871
1.19873
1.19875
1.19876
1.19877
1.19878
1.19879
1.19879
1.19879
1.19878
1.19878
1.19977
1.19977
1.19977
1.19976
1.19975
1.19974
1.19973
1.19972
1.19971
1.19969
1.19968
1.19967
1.19965
1.19964
1.19963
1.19961
1.1996
1.19959
1.19958
1.19956
1.19955
1.19954
1.19953
1.19952
1.19951
1.1995
1.1995
1.19949
1.19948
1.19948
1.19947
1.19947
1.19946
1.19946
1.19945
1.19945
1.19945
1.19945
1.19944
1.19944
1.19944
1.19944
1.19944
1.19943
1.19943
1.19943
1.19943
1.19942
1.19942
1.19941
1.19941
1.1994
1.19939
1.19939
1.19938
1.19937
1.19936
1.19935
1.19934
1.19932
1.19931
1.1993
1.19928
1.19927
1.19925
1.19923
1.19921
1.19919
1.19917
1.19914
1.19912
1.19909
1.19906
1.19903
1.19899
1.19896
1.19892
1.19888
1.19884
1.19879
1.19875
1.19871
1.19866
1.19862
1.19858
1.19854
1.1985
1.19847
1.19844
1.19842
1.1984
1.19838
1.19838
1.19837
1.19837
1.19838
1.19839
1.19841
1.19843
1.19845
1.19847
1.1985
1.19853
1.19856
1.19859
1.19862
1.19864
1.19867
1.19869
1.19871
1.19873
1.19875
1.19876
1.19878
1.19878
1.19879
1.19879
1.1988
1.19879
1.19878
1.19979
1.19978
1.19978
1.19977
1.19976
1.19975
1.19974
1.19972
1.1997
1.19968
1.19966
1.19964
1.19961
1.19959
1.19957
1.19955
1.19953
1.19951
1.19949
1.19947
1.19946
1.19944
1.19943
1.19941
1.1994
1.19939
1.19938
1.19937
1.19936
1.19935
1.19935
1.19934
1.19933
1.19933
1.19932
1.19932
1.19932
1.19931
1.19931
1.19931
1.19931
1.1993
1.1993
1.1993
1.1993
1.1993
1.1993
1.1993
1.1993
1.1993
1.1993
1.1993
1.19929
1.19929
1.19929
1.19928
1.19928
1.19927
1.19927
1.19926
1.19926
1.19925
1.19924
1.19923
1.19922
1.19921
1.1992
1.19919
1.19918
1.19916
1.19914
1.19913
1.1991
1.19908
1.19906
1.19903
1.199
1.19897
1.19894
1.19891
1.19888
1.19885
1.19881
1.19878
1.19875
1.19872
1.19869
1.19867
1.19864
1.19863
1.19861
1.1986
1.19859
1.19859
1.19859
1.19859
1.1986
1.19861
1.19862
1.19864
1.19865
1.19867
1.19869
1.19871
1.19872
1.19874
1.19876
1.19877
1.19879
1.1988
1.19881
1.19882
1.19883
1.19884
1.19884
1.19884
1.19884
1.19884
1.19884
1.19883
1.1998
1.19979
1.19977
1.19975
1.19972
1.19969
1.19965
1.19962
1.19959
1.19956
1.19954
1.19951
1.19949
1.19948
1.19946
1.19945
1.19943
1.19942
1.19941
1.19941
1.1994
1.19939
1.19938
1.19938
1.19937
1.19937
1.19936
1.19936
1.19935
1.19934
1.19934
1.19933
1.19933
1.19932
1.19932
1.19931
1.19931
1.19931
1.1993
1.1993
1.19929
1.19929
1.19928
1.19928
1.19928
1.19927
1.19927
1.19927
1.19926
1.19926
1.19926
1.19925
1.19925
1.19924
1.19924
1.19924
1.19923
1.19923
1.19922
1.19922
1.19921
1.19921
1.19921
1.1992
1.1992
1.19919
1.19918
1.19918
1.19917
1.19916
1.19915
1.19914
1.19913
1.19912
1.19911
1.19909
1.19908
1.19907
1.19905
1.19904
1.19902
1.19901
1.199
1.19898
1.19897
1.19896
1.19895
1.19894
1.19893
1.19892
1.19892
1.19891
1.19891
1.1989
1.1989
1.1989
1.1989
1.1989
1.19891
1.19891
1.19891
1.19891
1.19892
1.19892
1.19892
1.19892
1.19893
1.19893
1.19893
1.19893
1.19893
1.19893
1.19893
1.19892
1.19892
1.19892
1.19892
1.19891
1.19891
1.1989
)
;

boundaryField
{
    upperWall
    {
        type            calculated;
        value           nonuniform List<scalar> 
120
(
1.1998
1.1998
1.19979
1.19977
1.19976
1.19974
1.19972
1.1997
1.19968
1.19966
1.19963
1.19961
1.19959
1.19957
1.19955
1.19953
1.19952
1.1995
1.19948
1.19947
1.19945
1.19944
1.19943
1.19942
1.1994
1.19939
1.19938
1.19937
1.19937
1.19936
1.19935
1.19934
1.19933
1.19933
1.19932
1.19931
1.19931
1.1993
1.19929
1.19929
1.19928
1.19927
1.19927
1.19926
1.19926
1.19925
1.19925
1.19924
1.19924
1.19923
1.19923
1.19923
1.19922
1.19922
1.19921
1.19921
1.1992
1.1992
1.1992
1.19919
1.19919
1.19918
1.19918
1.19918
1.19917
1.19917
1.19916
1.19916
1.19916
1.19915
1.19915
1.19914
1.19914
1.19913
1.19913
1.19913
1.19912
1.19912
1.19911
1.19911
1.1991
1.1991
1.1991
1.19909
1.19909
1.19908
1.19908
1.19907
1.19907
1.19907
1.19906
1.19906
1.19905
1.19905
1.19904
1.19904
1.19904
1.19903
1.19903
1.19902
1.19902
1.19901
1.19901
1.19901
1.199
1.199
1.19899
1.19899
1.19898
1.19898
1.19897
1.19897
1.19897
1.19896
1.19896
1.19895
1.19895
1.19894
1.19894
1.19893
)
;
    }
    lowerWall
    {
        type            calculated;
        value           nonuniform List<scalar> 
120
(
1.16606
1.18227
1.18817
1.19036
1.19131
1.19169
1.19175
1.19163
1.19138
1.19104
1.19063
1.19018
1.1897
1.18919
1.18866
1.18811
1.18755
1.18699
1.18642
1.18586
1.18529
1.18473
1.18418
1.18364
1.1831
1.18258
1.18207
1.18156
1.18107
1.1806
1.18013
1.17967
1.17922
1.17878
1.17835
1.17793
1.17751
1.17709
1.17668
1.17628
1.17589
1.1755
1.17513
1.17478
1.17443
1.17412
1.17384
1.17357
1.17334
1.17313
1.17295
1.17279
1.17266
1.17254
1.17244
1.17236
1.17228
1.17221
1.17215
1.1721
1.17204
1.17198
1.17192
1.17186
1.17179
1.17173
1.17166
1.17158
1.1715
1.17141
1.17131
1.1712
1.17108
1.17095
1.17081
1.17066
1.17051
1.17035
1.17019
1.17003
1.16987
1.16972
1.16957
1.16942
1.16927
1.16913
1.16899
1.16886
1.16874
1.16862
1.16851
1.16841
1.16831
1.16822
1.16814
1.16806
1.168
1.16794
1.16789
1.16785
1.16782
1.16779
1.16777
1.16776
1.16775
1.16773
1.16772
1.16771
1.16771
1.1677
1.16769
1.16767
1.16768
1.16764
1.16766
1.16758
1.16763
1.16748
1.16755
1.16748
)
;
    }
    inlet
    {
        type            calculated;
        value           nonuniform List<scalar> 
12
(
1.1998
1.19978
1.19977
1.19976
1.19976
1.19975
1.19975
1.19976
1.19976
1.19977
1.19979
1.1998
)
;
    }
    outlet
    {
        type            calculated;
        value           nonuniform List<scalar> 
12
(
1.17505
1.18834
1.19674
1.19869
1.19879
1.19879
1.19879
1.19879
1.19879
1.19879
1.19884
1.19891
)
;
    }
    frontAndBack
    {
        type            empty;
    }
}


// ************************************************************************* //
