/*--------------------------------*- C++ -*----------------------------------*\
  =========                 |
  \\      /  F ield         | OpenFOAM: The Open Source CFD Toolbox
   \\    /   O peration     | Website:  https://openfoam.org
    \\  /    A nd           | Version:  7
     \\/     M anipulation  |
\*---------------------------------------------------------------------------*/
FoamFile
{
    version     2.0;
    format      ascii;
    class       volScalarField;
    location    "1.15";
    object      alphat;
}
// * * * * * * * * * * * * * * * * * * * * * * * * * * * * * * * * * * * * * //

dimensions      [1 -1 -1 0 0 0 0];

internalField   nonuniform List<scalar> 
4950
(
0.010852
0.011557
0.0115825
0.0115902
0.0115856
0.0115873
0.0115819
0.0115816
0.0115765
0.011576
0.0115718
0.0115715
0.0115681
0.0115681
0.0115656
0.0115657
0.0115648
0.0115632
0.0115693
0.0116023
0.00570735
0.00607926
0.00603803
0.00592389
0.00583915
0.00579564
0.00576558
0.00575134
0.00573709
0.00573045
0.00572141
0.00571742
0.00571091
0.00570836
0.00570362
0.00570169
0.00570154
0.00569602
0.00574983
0.00576815
0.00453799
0.00502733
0.00513619
0.00516184
0.00516614
0.00517196
0.00517336
0.00517668
0.00517755
0.00517952
0.00517983
0.00518111
0.00518101
0.00518201
0.00518156
0.00518253
0.00518164
0.00518245
0.00518315
0.00519438
0.00443634
0.00492344
0.00505087
0.0051003
0.00512314
0.00514266
0.00515367
0.00516647
0.00517347
0.00518299
0.00518775
0.00519512
0.00519857
0.00520444
0.00520714
0.00521177
0.00521392
0.00521708
0.00521901
0.00522881
0.00442253
0.00491443
0.00504328
0.00509474
0.00511911
0.00514012
0.00515257
0.00516693
0.00517551
0.00518673
0.00519317
0.00520223
0.00520723
0.00521473
0.00521883
0.00522501
0.00522855
0.00523313
0.00523587
0.00524654
0.00443634
0.00492344
0.00505087
0.0051003
0.00512314
0.00514266
0.00515367
0.00516647
0.00517346
0.00518299
0.00518775
0.00519512
0.00519858
0.00520443
0.00520716
0.00521176
0.00521393
0.00521705
0.00521912
0.00522877
0.00453799
0.00502733
0.00513619
0.00516184
0.00516614
0.00517196
0.00517336
0.00517668
0.00517755
0.00517951
0.00517984
0.0051811
0.00518103
0.00518199
0.00518161
0.00518247
0.00518176
0.00518222
0.00518361
0.00519387
0.00570735
0.00607926
0.00603803
0.00592389
0.00583915
0.00579564
0.00576558
0.00575134
0.00573709
0.00573045
0.0057214
0.00571742
0.00571089
0.00570834
0.0057036
0.00570156
0.00570162
0.00569575
0.00574988
0.00576607
0.010852
0.011557
0.0115825
0.0115902
0.0115856
0.0115873
0.0115819
0.0115816
0.0115765
0.011576
0.0115718
0.0115715
0.0115681
0.0115681
0.0115656
0.0115658
0.0115646
0.0115636
0.0115688
0.0116025
0.00426048
0.00512302
0.00523191
0.00521326
0.0051977
0.00517409
0.00516782
0.00515403
0.00515119
0.00514206
0.00514042
0.00513375
0.00513272
0.00512754
0.00512699
0.00512245
0.00512277
0.00511735
0.00511475
0.0051412
0.00367466
0.00465542
0.00484641
0.00488602
0.00489466
0.00489881
0.00490069
0.00490299
0.00490396
0.00490546
0.00490599
0.00490707
0.00490736
0.00490825
0.00490808
0.00490913
0.004908
0.00490936
0.00490883
0.00491851
0.00358263
0.00455499
0.00475068
0.00479769
0.00480616
0.00481134
0.00481173
0.00481491
0.0048156
0.00481849
0.00481942
0.00482206
0.00482313
0.00482549
0.00482658
0.00482859
0.00482946
0.00483109
0.00483043
0.00484235
0.0035873
0.00455833
0.00475252
0.00479893
0.0048077
0.0048117
0.00481135
0.00481237
0.00481208
0.00481288
0.00481282
0.00481363
0.00481379
0.00481467
0.00481492
0.00481575
0.00481613
0.00481681
0.0048174
0.00482582
0.00357819
0.00454771
0.00474259
0.00479019
0.00479862
0.00480307
0.00480218
0.0048033
0.00480246
0.0048033
0.00480271
0.00480346
0.00480301
0.0048038
0.00480345
0.00480421
0.00480394
0.00480455
0.00480417
0.00481152
0.0035873
0.00455833
0.00475252
0.00479893
0.0048077
0.0048117
0.00481135
0.00481237
0.00481208
0.00481288
0.00481282
0.00481363
0.00481379
0.00481466
0.00481493
0.00481574
0.00481614
0.00481676
0.00481741
0.00482575
0.00358263
0.00455499
0.00475068
0.00479769
0.00480616
0.00481134
0.00481173
0.0048149
0.0048156
0.00481848
0.00481943
0.00482205
0.00482316
0.00482548
0.00482658
0.00482859
0.00482942
0.00483107
0.0048307
0.0048418
0.00367466
0.00465542
0.00484641
0.00488602
0.00489466
0.00489881
0.00490069
0.00490299
0.00490397
0.00490545
0.00490601
0.00490704
0.00490739
0.0049082
0.00490817
0.00490897
0.00490822
0.0049089
0.00490966
0.00491689
0.00426048
0.00512302
0.00523191
0.00521326
0.0051977
0.00517409
0.00516782
0.00515403
0.00515119
0.00514206
0.00514043
0.00513375
0.00513274
0.00512753
0.00512704
0.0051224
0.00512294
0.00511713
0.00511581
0.00513804
0.00101921
0.00186146
0.00208912
0.00212335
0.00210548
0.00206674
0.00202828
0.0019964
0.0019711
0.00194994
0.0019342
0.00191967
0.00190965
0.00189898
0.00189223
0.00188426
0.00187847
0.00187464
0.0018633
0.00188058
0.000477406
0.00114016
0.00144451
0.00156975
0.00161962
0.0016442
0.0016562
0.00166676
0.00167419
0.00168208
0.00168778
0.0016937
0.00169766
0.00170189
0.00170443
0.00170729
0.00170917
0.00171051
0.00171137
0.00171762
0.000441371
0.00104867
0.00132297
0.00144964
0.00149673
0.00152292
0.00153033
0.00153837
0.00154043
0.00154508
0.00154708
0.00155138
0.00155379
0.00155808
0.00156089
0.00156475
0.00156752
0.00157118
0.00157278
0.00157948
0.000447676
0.00106222
0.00133563
0.00145787
0.00150413
0.00152775
0.0015348
0.00154017
0.00154089
0.00154241
0.00154256
0.00154316
0.00154351
0.00154409
0.0015448
0.00154537
0.00154637
0.00154692
0.00154795
0.00155258
0.000440549
0.00104689
0.00131726
0.00144227
0.00148799
0.00151335
0.00151961
0.00152579
0.00152611
0.00152744
0.00152711
0.00152763
0.00152739
0.00152781
0.00152774
0.00152806
0.00152802
0.00152834
0.00152795
0.00153155
0.000447676
0.00106222
0.00133563
0.00145787
0.00150413
0.00152775
0.0015348
0.00154017
0.00154089
0.00154241
0.00154256
0.00154316
0.00154351
0.00154409
0.00154479
0.00154537
0.00154636
0.00154691
0.00154792
0.00155256
0.000441371
0.00104867
0.00132297
0.00144964
0.00149673
0.00152292
0.00153033
0.00153837
0.00154043
0.00154508
0.00154708
0.00155138
0.00155378
0.00155808
0.00156087
0.00156475
0.0015675
0.00157112
0.0015728
0.00157932
0.000477406
0.00114016
0.00144451
0.00156975
0.00161962
0.0016442
0.0016562
0.00166676
0.00167419
0.00168208
0.00168778
0.00169369
0.00169766
0.00170186
0.00170446
0.0017072
0.00170927
0.0017102
0.00171178
0.00171678
0.00101921
0.00186146
0.00208912
0.00212335
0.00210548
0.00206674
0.00202828
0.0019964
0.0019711
0.00194994
0.00193421
0.00191968
0.00190967
0.00189899
0.0018923
0.00188424
0.00187875
0.00187432
0.0018646
0.00187865
0.00426048
0.00512302
0.00523191
0.00521326
0.0051977
0.00517409
0.00516782
0.00515403
0.00515119
0.00514206
0.00514042
0.00513375
0.00513272
0.00512754
0.00512699
0.00512245
0.00512277
0.00511735
0.00511475
0.0051412
0.00367466
0.00465542
0.00484641
0.00488602
0.00489466
0.00489881
0.00490069
0.00490299
0.00490396
0.00490546
0.00490599
0.00490707
0.00490736
0.00490825
0.00490808
0.00490913
0.004908
0.00490936
0.00490883
0.00491851
0.00358263
0.00455499
0.00475068
0.00479769
0.00480616
0.00481134
0.00481173
0.00481491
0.0048156
0.00481849
0.00481942
0.00482206
0.00482313
0.00482549
0.00482658
0.00482859
0.00482946
0.00483109
0.00483043
0.00484235
0.0035873
0.00455833
0.00475252
0.00479893
0.0048077
0.0048117
0.00481135
0.00481237
0.00481208
0.00481288
0.00481282
0.00481363
0.00481379
0.00481467
0.00481492
0.00481575
0.00481613
0.00481681
0.0048174
0.00482582
0.00357819
0.00454771
0.00474259
0.00479019
0.00479862
0.00480307
0.00480218
0.0048033
0.00480246
0.0048033
0.00480271
0.00480346
0.00480301
0.0048038
0.00480345
0.00480421
0.00480394
0.00480455
0.00480417
0.00481152
0.0035873
0.00455833
0.00475252
0.00479893
0.0048077
0.0048117
0.00481135
0.00481237
0.00481208
0.00481288
0.00481282
0.00481363
0.00481379
0.00481466
0.00481493
0.00481574
0.00481614
0.00481676
0.00481741
0.00482575
0.00358263
0.00455499
0.00475068
0.00479769
0.00480616
0.00481134
0.00481173
0.0048149
0.0048156
0.00481848
0.00481943
0.00482205
0.00482316
0.00482548
0.00482658
0.00482859
0.00482942
0.00483107
0.0048307
0.0048418
0.00367466
0.00465542
0.00484641
0.00488602
0.00489466
0.00489881
0.00490069
0.00490299
0.00490397
0.00490545
0.00490601
0.00490704
0.00490739
0.0049082
0.00490817
0.00490897
0.00490822
0.0049089
0.00490966
0.00491689
0.00426048
0.00512302
0.00523191
0.00521326
0.0051977
0.00517409
0.00516782
0.00515403
0.00515119
0.00514206
0.00514043
0.00513375
0.00513274
0.00512753
0.00512704
0.0051224
0.00512294
0.00511713
0.00511581
0.00513804
0.010852
0.011557
0.0115825
0.0115902
0.0115856
0.0115873
0.0115819
0.0115816
0.0115765
0.011576
0.0115718
0.0115715
0.0115681
0.0115681
0.0115656
0.0115657
0.0115648
0.0115632
0.0115693
0.0116023
0.00570735
0.00607926
0.00603803
0.00592389
0.00583915
0.00579564
0.00576558
0.00575134
0.00573709
0.00573045
0.00572141
0.00571742
0.00571091
0.00570836
0.00570362
0.00570169
0.00570154
0.00569602
0.00574983
0.00576815
0.00453799
0.00502733
0.00513619
0.00516184
0.00516614
0.00517196
0.00517336
0.00517668
0.00517755
0.00517952
0.00517983
0.00518111
0.00518101
0.00518201
0.00518156
0.00518253
0.00518164
0.00518245
0.00518315
0.00519438
0.00443634
0.00492344
0.00505087
0.0051003
0.00512314
0.00514266
0.00515367
0.00516647
0.00517347
0.00518299
0.00518775
0.00519512
0.00519857
0.00520444
0.00520714
0.00521177
0.00521392
0.00521708
0.00521901
0.00522881
0.00442253
0.00491443
0.00504328
0.00509474
0.00511911
0.00514012
0.00515257
0.00516693
0.00517551
0.00518673
0.00519317
0.00520223
0.00520723
0.00521473
0.00521883
0.00522501
0.00522855
0.00523313
0.00523587
0.00524654
0.00443634
0.00492344
0.00505087
0.0051003
0.00512314
0.00514266
0.00515367
0.00516647
0.00517346
0.00518299
0.00518775
0.00519512
0.00519858
0.00520443
0.00520716
0.00521176
0.00521393
0.00521705
0.00521912
0.00522877
0.00453799
0.00502733
0.00513619
0.00516184
0.00516614
0.00517196
0.00517336
0.00517668
0.00517755
0.00517951
0.00517984
0.0051811
0.00518103
0.00518199
0.00518161
0.00518247
0.00518176
0.00518222
0.00518361
0.00519387
0.00570735
0.00607926
0.00603803
0.00592389
0.00583915
0.00579564
0.00576558
0.00575134
0.00573709
0.00573045
0.0057214
0.00571742
0.00571089
0.00570834
0.0057036
0.00570157
0.00570162
0.00569575
0.00574988
0.00576607
0.010852
0.011557
0.0115825
0.0115902
0.0115856
0.0115873
0.0115819
0.0115816
0.0115765
0.011576
0.0115718
0.0115715
0.0115681
0.0115681
0.0115656
0.0115658
0.0115646
0.0115636
0.0115688
0.0116025
0.0337991
0.0339224
0.0339228
0.0339205
0.0339137
0.0339117
0.033907
0.0339055
0.0339015
0.0338996
0.0338959
0.033894
0.0338909
0.0338893
0.0338867
0.0338851
0.0338826
0.033881
0.0338785
0.0338767
0.0338742
0.0338723
0.0338698
0.0338679
0.0338654
0.0338634
0.0338609
0.0338588
0.0338563
0.0338542
0.0338517
0.0338494
0.0338469
0.0338446
0.033842
0.0338397
0.0338371
0.0338347
0.033832
0.0338296
0.0338269
0.0338244
0.0338216
0.0338191
0.0338163
0.0338137
0.033811
0.0338083
0.0338055
0.0338029
0.0338001
0.0337974
0.0337946
0.0337919
0.0337891
0.0337864
0.0337835
0.0337808
0.033778
0.0337752
0.0337724
0.0337696
0.0337667
0.033764
0.033761
0.0337583
0.0337553
0.0337525
0.0337496
0.0337468
0.0337438
0.033741
0.033738
0.0337351
0.0337321
0.0337293
0.0337262
0.0337234
0.0337203
0.0337175
0.0337144
0.0337115
0.0337084
0.0337055
0.0337024
0.0336994
0.0336963
0.0336934
0.0336852
0.0336787
0.0197687
0.0202939
0.0203014
0.0203055
0.0202945
0.0202968
0.0202865
0.0202873
0.0202782
0.0202791
0.0202717
0.0202722
0.0202651
0.020265
0.0202583
0.0202578
0.0202519
0.0202513
0.0202462
0.0202457
0.0202411
0.0202406
0.0202362
0.0202356
0.0202314
0.0202307
0.0202267
0.0202259
0.020222
0.0202211
0.0202173
0.0202163
0.0202127
0.0202115
0.020208
0.0202068
0.0202034
0.0202021
0.0201987
0.0201974
0.0201941
0.0201928
0.0201896
0.0201882
0.0201851
0.0201836
0.0201806
0.0201791
0.0201762
0.0201747
0.0201719
0.0201704
0.0201676
0.0201661
0.0201635
0.020162
0.0201594
0.0201579
0.0201554
0.0201539
0.0201514
0.0201499
0.0201475
0.0201461
0.0201437
0.0201423
0.02014
0.0201385
0.0201363
0.0201348
0.0201326
0.0201312
0.0201291
0.0201276
0.0201255
0.0201241
0.0201221
0.0201207
0.0201186
0.0201172
0.0201152
0.0201139
0.0201119
0.0201105
0.0201086
0.0201072
0.0201052
0.0201041
0.0200989
0.0200966
0.0166371
0.017465
0.0174967
0.0175051
0.0174893
0.0174923
0.0174773
0.017479
0.0174649
0.017466
0.0174545
0.0174554
0.0174448
0.0174451
0.017435
0.0174347
0.0174258
0.0174255
0.0174176
0.0174174
0.0174102
0.0174099
0.0174032
0.0174028
0.0173965
0.0173959
0.0173899
0.0173892
0.0173834
0.0173826
0.017377
0.0173761
0.0173708
0.0173697
0.0173646
0.0173634
0.0173585
0.0173573
0.0173525
0.0173512
0.0173466
0.0173453
0.0173409
0.0173395
0.0173353
0.0173339
0.0173298
0.0173284
0.0173245
0.0173231
0.0173194
0.017318
0.0173144
0.0173131
0.0173096
0.0173083
0.017305
0.0173037
0.0173005
0.0172992
0.0172962
0.017295
0.0172921
0.0172909
0.0172881
0.0172869
0.0172843
0.0172832
0.0172807
0.0172796
0.0172772
0.0172761
0.0172738
0.0172728
0.0172706
0.0172697
0.0172676
0.0172667
0.0172647
0.0172638
0.017262
0.0172611
0.0172594
0.0172586
0.0172569
0.0172561
0.0172545
0.0172537
0.0172525
0.0172453
0.0162534
0.0172882
0.0173573
0.0173736
0.017358
0.0173608
0.0173452
0.0173467
0.0173309
0.0173316
0.0173186
0.017319
0.0173073
0.0173075
0.0172962
0.0172958
0.0172856
0.0172852
0.0172761
0.0172758
0.0172675
0.0172672
0.0172595
0.017259
0.0172517
0.0172511
0.0172442
0.0172434
0.0172368
0.0172359
0.0172296
0.0172286
0.0172225
0.0172213
0.0172155
0.0172143
0.0172087
0.0172074
0.017202
0.0172007
0.0171955
0.0171941
0.0171891
0.0171877
0.017183
0.0171816
0.017177
0.0171756
0.0171712
0.0171698
0.0171657
0.0171643
0.0171604
0.017159
0.0171552
0.0171539
0.0171504
0.0171491
0.0171457
0.0171444
0.0171412
0.01714
0.0171369
0.0171358
0.0171329
0.0171318
0.017129
0.017128
0.0171254
0.0171244
0.0171219
0.017121
0.0171187
0.0171178
0.0171156
0.0171148
0.0171127
0.017112
0.01711
0.0171094
0.0171075
0.0171069
0.0171052
0.0171047
0.0171031
0.0171026
0.0171011
0.0171005
0.0170997
0.0170927
0.016258
0.0173185
0.0173974
0.017417
0.0174028
0.0174067
0.0173912
0.0173923
0.0173764
0.0173768
0.0173638
0.0173644
0.0173525
0.0173525
0.017341
0.0173405
0.01733
0.0173295
0.01732
0.0173197
0.017311
0.0173107
0.0173026
0.0173022
0.0172946
0.017294
0.0172867
0.017286
0.0172791
0.0172781
0.0172715
0.0172705
0.0172642
0.017263
0.017257
0.0172557
0.0172499
0.0172486
0.017243
0.0172417
0.0172363
0.0172349
0.0172298
0.0172283
0.0172234
0.017222
0.0172173
0.0172159
0.0172114
0.01721
0.0172058
0.0172044
0.0172003
0.017199
0.0171951
0.0171938
0.0171902
0.0171889
0.0171854
0.0171842
0.0171809
0.0171797
0.0171766
0.0171755
0.0171725
0.0171715
0.0171687
0.0171677
0.0171651
0.0171641
0.0171616
0.0171608
0.0171584
0.0171576
0.0171554
0.0171547
0.0171526
0.017152
0.0171501
0.0171494
0.0171477
0.0171471
0.0171454
0.017145
0.0171434
0.017143
0.0171417
0.0171411
0.0171413
0.0171332
0.0162542
0.0172917
0.0173632
0.0173802
0.0173667
0.0173712
0.0173566
0.0173576
0.0173431
0.0173439
0.0173318
0.0173328
0.0173217
0.0173219
0.0173112
0.0173109
0.0173009
0.0173006
0.0172916
0.0172913
0.017283
0.0172827
0.0172749
0.0172745
0.0172671
0.0172665
0.0172595
0.0172588
0.0172521
0.0172512
0.0172448
0.0172438
0.0172377
0.0172366
0.0172307
0.0172295
0.0172238
0.0172226
0.0172171
0.0172158
0.0172106
0.0172092
0.0172042
0.0172028
0.017198
0.0171966
0.017192
0.0171906
0.0171862
0.0171848
0.0171807
0.0171793
0.0171753
0.017174
0.0171702
0.0171689
0.0171653
0.017164
0.0171606
0.0171593
0.0171561
0.0171549
0.0171518
0.0171507
0.0171478
0.0171467
0.0171439
0.0171428
0.0171402
0.0171392
0.0171368
0.0171358
0.0171335
0.0171327
0.0171305
0.0171297
0.0171276
0.0171269
0.0171249
0.0171243
0.0171224
0.0171218
0.0171201
0.0171196
0.017118
0.0171175
0.0171161
0.0171155
0.0171147
0.0171077
0.0166376
0.0174695
0.0175039
0.017513
0.0175
0.0175036
0.0174906
0.0174917
0.0174793
0.0174803
0.0174699
0.017471
0.0174614
0.0174618
0.0174525
0.0174524
0.0174438
0.0174436
0.0174358
0.0174356
0.0174283
0.0174281
0.0174213
0.0174209
0.0174144
0.0174139
0.0174077
0.0174071
0.0174012
0.0174004
0.0173947
0.0173938
0.0173883
0.0173873
0.0173821
0.0173809
0.0173759
0.0173747
0.0173699
0.0173686
0.0173639
0.0173626
0.0173581
0.0173567
0.0173524
0.017351
0.0173469
0.0173455
0.0173415
0.0173401
0.0173363
0.0173349
0.0173313
0.0173299
0.0173264
0.0173251
0.0173218
0.0173204
0.0173173
0.017316
0.0173129
0.0173116
0.0173087
0.0173075
0.0173047
0.0173035
0.0173009
0.0172997
0.0172972
0.0172961
0.0172937
0.0172926
0.0172903
0.0172893
0.0172871
0.0172862
0.0172841
0.0172832
0.0172812
0.0172803
0.0172784
0.0172776
0.0172758
0.017275
0.0172734
0.0172726
0.017271
0.0172702
0.0172691
0.017262
0.0197663
0.0202966
0.0203049
0.0203093
0.0202997
0.0203021
0.0202931
0.0202939
0.0202856
0.0202864
0.0202795
0.0202802
0.0202738
0.0202739
0.0202678
0.0202675
0.0202619
0.0202615
0.0202564
0.020256
0.0202512
0.0202507
0.0202462
0.0202457
0.0202414
0.0202407
0.0202366
0.0202358
0.0202318
0.0202309
0.020227
0.020226
0.0202223
0.0202212
0.0202175
0.0202163
0.0202128
0.0202115
0.0202081
0.0202068
0.0202034
0.020202
0.0201988
0.0201974
0.0201942
0.0201927
0.0201897
0.0201882
0.0201852
0.0201837
0.0201808
0.0201793
0.0201765
0.020175
0.0201723
0.0201708
0.0201681
0.0201666
0.0201641
0.0201626
0.0201601
0.0201586
0.0201561
0.0201547
0.0201523
0.0201508
0.0201485
0.020147
0.0201447
0.0201433
0.0201411
0.0201396
0.0201374
0.020136
0.0201339
0.0201325
0.0201304
0.020129
0.0201269
0.0201255
0.0201235
0.0201221
0.0201201
0.0201187
0.0201168
0.0201154
0.0201134
0.0201123
0.020107
0.0201049
0.0338496
0.0339862
0.0339898
0.0339891
0.0339841
0.0339852
0.0339839
0.0339856
0.0339838
0.0339838
0.0339818
0.0339819
0.0339809
0.0339814
0.0339804
0.0339803
0.0339787
0.0339777
0.0339756
0.033974
0.0339716
0.0339698
0.0339673
0.0339653
0.0339628
0.0339608
0.0339582
0.0339561
0.0339536
0.0339514
0.0339488
0.0339466
0.033944
0.0339417
0.033939
0.0339366
0.033934
0.0339315
0.0339288
0.0339263
0.0339235
0.033921
0.0339182
0.0339156
0.0339127
0.0339101
0.0339072
0.0339046
0.0339017
0.033899
0.0338961
0.0338934
0.0338905
0.0338877
0.0338848
0.0338821
0.0338791
0.0338764
0.0338734
0.0338706
0.0338677
0.0338649
0.0338619
0.0338591
0.0338561
0.0338532
0.0338502
0.0338473
0.0338443
0.0338414
0.0338384
0.0338355
0.0338324
0.0338295
0.0338264
0.0338235
0.0338204
0.0338174
0.0338143
0.0338114
0.0338082
0.0338053
0.0338021
0.0337991
0.0337959
0.0337929
0.0337896
0.0337867
0.0337783
0.0337719
0.0164923
0.0166998
0.0167018
0.0166993
0.016696
0.0166948
0.0166913
0.0166905
0.0166869
0.0166865
0.0166829
0.0166827
0.016679
0.0166788
0.0166752
0.016675
0.0166717
0.0166715
0.0166683
0.0166681
0.0166651
0.0166648
0.0166619
0.0166616
0.0166587
0.0166583
0.0166555
0.016655
0.0166522
0.0166517
0.016649
0.0166483
0.0166457
0.016645
0.0166424
0.0166416
0.0166391
0.0166382
0.0166358
0.0166349
0.0166325
0.0166316
0.0166292
0.0166283
0.016626
0.016625
0.0166228
0.0166218
0.0166197
0.0166186
0.0166165
0.0166155
0.0166135
0.0166124
0.0166105
0.0166094
0.0166075
0.0166064
0.0166046
0.0166035
0.0166017
0.0166006
0.0165988
0.0165978
0.016596
0.0165949
0.0165932
0.0165921
0.0165904
0.0165893
0.0165877
0.0165866
0.0165849
0.0165839
0.0165822
0.0165812
0.0165795
0.0165785
0.0165769
0.0165759
0.0165743
0.0165733
0.0165717
0.0165708
0.0165692
0.0165684
0.0165668
0.0165665
0.016563
0.0165625
0.0158224
0.0163539
0.0163763
0.0163778
0.0163759
0.0163761
0.0163732
0.0163722
0.0163691
0.0163685
0.016366
0.0163655
0.0163627
0.0163616
0.0163586
0.0163574
0.0163545
0.0163535
0.0163511
0.0163501
0.0163479
0.016347
0.0163449
0.0163439
0.0163418
0.0163408
0.0163388
0.0163377
0.0163356
0.0163345
0.0163324
0.0163312
0.0163292
0.0163279
0.0163258
0.0163245
0.0163224
0.0163211
0.016319
0.0163176
0.0163155
0.0163141
0.016312
0.0163105
0.0163084
0.0163069
0.0163049
0.0163034
0.0163013
0.0162998
0.0162978
0.0162963
0.0162943
0.0162927
0.0162908
0.0162893
0.0162873
0.0162858
0.0162839
0.0162824
0.0162805
0.016279
0.0162772
0.0162757
0.0162739
0.0162724
0.0162706
0.0162691
0.0162674
0.0162659
0.0162642
0.0162628
0.0162611
0.0162597
0.016258
0.0162566
0.016255
0.0162536
0.016252
0.0162507
0.0162491
0.0162478
0.0162462
0.016245
0.0162434
0.0162423
0.0162406
0.0162395
0.0162381
0.0162364
0.0150982
0.0159162
0.0159788
0.0159868
0.0159874
0.0159891
0.0159877
0.0159868
0.0159843
0.0159833
0.0159818
0.0159812
0.0159797
0.0159785
0.0159765
0.0159749
0.0159729
0.0159714
0.0159697
0.0159685
0.0159671
0.0159659
0.0159647
0.0159636
0.0159623
0.0159612
0.0159599
0.0159587
0.0159575
0.0159562
0.0159549
0.0159537
0.0159523
0.015951
0.0159496
0.0159483
0.0159468
0.0159455
0.015944
0.0159426
0.0159411
0.0159397
0.0159382
0.0159367
0.0159352
0.0159337
0.0159322
0.0159307
0.0159292
0.0159277
0.0159261
0.0159246
0.0159231
0.0159216
0.01592
0.0159186
0.015917
0.0159155
0.015914
0.0159125
0.015911
0.0159095
0.0159079
0.0159065
0.015905
0.0159035
0.015902
0.0159005
0.015899
0.0158976
0.0158961
0.0158946
0.0158931
0.0158917
0.0158902
0.0158888
0.0158874
0.015886
0.0158845
0.0158832
0.0158817
0.0158803
0.0158788
0.0158776
0.015876
0.0158748
0.0158731
0.015872
0.0158706
0.0158643
0.0149038
0.015816
0.0158983
0.0159083
0.01591
0.0159123
0.0159122
0.0159114
0.0159092
0.0159078
0.0159066
0.0159062
0.0159054
0.0159044
0.0159028
0.0159012
0.0158994
0.0158978
0.0158963
0.015895
0.0158938
0.0158927
0.0158916
0.0158905
0.0158895
0.0158883
0.0158873
0.0158862
0.0158851
0.0158839
0.0158828
0.0158816
0.0158804
0.0158792
0.015878
0.0158767
0.0158754
0.0158741
0.0158728
0.0158715
0.0158702
0.0158688
0.0158675
0.0158661
0.0158647
0.0158633
0.0158619
0.0158605
0.0158591
0.0158576
0.0158562
0.0158548
0.0158534
0.0158519
0.0158505
0.0158491
0.0158476
0.0158462
0.0158447
0.0158433
0.0158419
0.0158404
0.015839
0.0158376
0.0158361
0.0158347
0.0158333
0.0158319
0.0158304
0.015829
0.0158276
0.0158261
0.0158247
0.0158233
0.0158219
0.0158205
0.015819
0.0158177
0.0158162
0.0158149
0.0158134
0.0158121
0.0158106
0.0158093
0.0158078
0.0158065
0.0158049
0.0158036
0.0158018
0.0157969
0.0147612
0.0157356
0.0158268
0.0158378
0.0158395
0.0158424
0.0158428
0.0158424
0.0158401
0.0158387
0.0158376
0.0158373
0.0158367
0.015836
0.0158346
0.015833
0.0158313
0.0158297
0.0158282
0.0158269
0.0158256
0.0158245
0.0158234
0.0158223
0.0158213
0.0158201
0.0158191
0.015818
0.0158169
0.0158157
0.0158146
0.0158134
0.0158122
0.015811
0.0158098
0.0158085
0.0158073
0.015806
0.0158047
0.0158033
0.015802
0.0158007
0.0157993
0.0157979
0.0157966
0.0157951
0.0157938
0.0157923
0.0157909
0.0157895
0.0157881
0.0157867
0.0157852
0.0157838
0.0157824
0.0157809
0.0157795
0.0157781
0.0157766
0.0157752
0.0157738
0.0157723
0.0157709
0.0157695
0.015768
0.0157666
0.0157652
0.0157637
0.0157623
0.0157609
0.0157594
0.015758
0.0157566
0.0157552
0.0157537
0.0157523
0.0157509
0.0157495
0.0157481
0.0157467
0.0157452
0.0157439
0.0157424
0.0157411
0.0157395
0.0157382
0.0157367
0.0157353
0.0157341
0.0157274
0.0149035
0.0158151
0.015897
0.0159069
0.0159093
0.0159114
0.0159121
0.0159115
0.0159095
0.0159081
0.0159072
0.0159069
0.0159064
0.0159056
0.0159042
0.0159027
0.015901
0.0158995
0.015898
0.0158968
0.0158955
0.0158944
0.0158933
0.0158922
0.0158912
0.01589
0.015889
0.0158878
0.0158867
0.0158855
0.0158844
0.0158832
0.015882
0.0158808
0.0158796
0.0158783
0.015877
0.0158757
0.0158744
0.0158731
0.0158718
0.0158704
0.015869
0.0158676
0.0158663
0.0158649
0.0158635
0.015862
0.0158606
0.0158592
0.0158578
0.0158563
0.0158549
0.0158535
0.015852
0.0158506
0.0158492
0.0158477
0.0158463
0.0158448
0.0158434
0.015842
0.0158405
0.0158391
0.0158377
0.0158362
0.0158348
0.0158334
0.0158319
0.0158305
0.0158291
0.0158277
0.0158262
0.0158248
0.0158234
0.015822
0.0158206
0.0158192
0.0158177
0.0158164
0.0158149
0.0158136
0.0158121
0.0158108
0.0158093
0.015808
0.0158065
0.0158051
0.0158035
0.0157987
0.0150969
0.0159152
0.0159783
0.0159863
0.015988
0.0159898
0.0159895
0.0159888
0.0159867
0.0159858
0.0159846
0.0159843
0.0159832
0.0159823
0.0159806
0.0159792
0.0159773
0.0159759
0.0159743
0.0159731
0.0159717
0.0159705
0.0159692
0.0159681
0.0159668
0.0159657
0.0159644
0.0159632
0.0159619
0.0159607
0.0159593
0.0159581
0.0159567
0.0159554
0.015954
0.0159527
0.0159512
0.0159498
0.0159484
0.015947
0.0159455
0.015944
0.0159425
0.0159411
0.0159395
0.0159381
0.0159365
0.015935
0.0159335
0.015932
0.0159304
0.0159289
0.0159274
0.0159259
0.0159243
0.0159228
0.0159213
0.0159198
0.0159182
0.0159168
0.0159152
0.0159137
0.0159122
0.0159107
0.0159092
0.0159077
0.0159062
0.0159048
0.0159032
0.0159018
0.0159003
0.0158989
0.0158974
0.015896
0.0158945
0.0158931
0.0158916
0.0158902
0.0158887
0.0158874
0.0158859
0.0158846
0.0158831
0.0158818
0.0158803
0.015879
0.0158775
0.0158762
0.0158752
0.0158691
0.0158233
0.0163604
0.0163847
0.0163868
0.0163865
0.0163871
0.0163852
0.0163846
0.0163819
0.0163814
0.0163794
0.016379
0.0163767
0.0163759
0.0163731
0.0163721
0.0163694
0.0163683
0.0163659
0.016365
0.0163627
0.0163618
0.0163596
0.0163587
0.0163565
0.0163555
0.0163534
0.0163523
0.0163502
0.0163491
0.0163469
0.0163457
0.0163436
0.0163423
0.0163402
0.0163389
0.0163368
0.0163354
0.0163333
0.0163319
0.0163298
0.0163283
0.0163262
0.0163247
0.0163226
0.0163211
0.016319
0.0163175
0.0163154
0.0163139
0.0163119
0.0163103
0.0163083
0.0163068
0.0163048
0.0163033
0.0163013
0.0162998
0.0162979
0.0162963
0.0162944
0.0162929
0.0162911
0.0162896
0.0162877
0.0162863
0.0162844
0.016283
0.0162812
0.0162798
0.016278
0.0162766
0.0162749
0.0162735
0.0162718
0.0162704
0.0162687
0.0162674
0.0162658
0.0162645
0.0162629
0.0162616
0.01626
0.0162588
0.0162572
0.0162561
0.0162545
0.0162533
0.0162523
0.0162507
0.0165238
0.016746
0.0167519
0.0167507
0.0167492
0.0167491
0.0167472
0.0167474
0.0167448
0.016745
0.0167423
0.0167427
0.0167398
0.0167402
0.0167372
0.0167373
0.0167342
0.0167342
0.016731
0.0167309
0.0167277
0.0167275
0.0167244
0.0167241
0.0167211
0.0167207
0.0167178
0.0167173
0.0167144
0.0167138
0.016711
0.0167104
0.0167077
0.0167069
0.0167043
0.0167034
0.0167009
0.0167
0.0166975
0.0166965
0.0166941
0.0166931
0.0166907
0.0166897
0.0166874
0.0166864
0.0166841
0.0166831
0.0166809
0.0166798
0.0166777
0.0166766
0.0166745
0.0166735
0.0166714
0.0166704
0.0166684
0.0166673
0.0166654
0.0166643
0.0166624
0.0166613
0.0166595
0.0166584
0.0166566
0.0166555
0.0166537
0.0166526
0.0166509
0.0166498
0.016648
0.016647
0.0166453
0.0166442
0.0166425
0.0166414
0.0166398
0.0166387
0.0166371
0.0166361
0.0166345
0.0166335
0.0166319
0.016631
0.0166294
0.0166286
0.016627
0.0166267
0.0166235
0.0166233
0.0073783
0.00762026
0.00762531
0.00761891
0.00761819
0.00761705
0.00761566
0.00761677
0.00761405
0.00761625
0.0076123
0.00761476
0.00760992
0.00761231
0.00760711
0.00760954
0.0076042
0.00760655
0.00760113
0.0076033
0.00759782
0.00759974
0.00759425
0.00759589
0.00759044
0.0075918
0.00758644
0.00758754
0.0075823
0.00758317
0.00757808
0.00757874
0.00757381
0.00757429
0.00756954
0.00756985
0.00756529
0.00756547
0.00756111
0.00756117
0.007557
0.00755697
0.007553
0.0075529
0.00754912
0.00754897
0.00754539
0.0075452
0.00754181
0.0075416
0.00753839
0.00753816
0.00753513
0.0075349
0.00753205
0.00753182
0.00752913
0.00752892
0.00752639
0.00752618
0.00752381
0.00752363
0.0075214
0.00752124
0.00751915
0.00751902
0.00751707
0.00751698
0.00751515
0.00751512
0.00751341
0.00751343
0.00751184
0.00751193
0.00751044
0.00751061
0.00750923
0.00750949
0.0075082
0.00750856
0.00750736
0.00750782
0.00750671
0.00750725
0.00750621
0.00750683
0.00750576
0.00750674
0.00750441
0.00750496
0.00714385
0.00784796
0.00791056
0.0079154
0.00791536
0.00791546
0.00791357
0.00791312
0.00791085
0.00791105
0.00790889
0.00790914
0.00790648
0.00790635
0.00790343
0.00790325
0.00790063
0.00790036
0.00789814
0.00789797
0.00789589
0.00789572
0.00789369
0.00789347
0.00789145
0.00789114
0.00788914
0.00788875
0.00788676
0.0078863
0.00788433
0.0078838
0.00788186
0.00788127
0.00787936
0.00787872
0.00787684
0.00787615
0.00787431
0.00787358
0.00787178
0.00787102
0.00786925
0.00786847
0.00786675
0.00786595
0.00786426
0.00786346
0.00786182
0.00786101
0.00785942
0.00785861
0.00785707
0.00785626
0.00785478
0.00785398
0.00785255
0.00785177
0.00785039
0.00784962
0.00784829
0.00784755
0.00784628
0.00784555
0.00784434
0.00784364
0.00784247
0.00784181
0.0078407
0.00784007
0.00783901
0.00783841
0.00783741
0.00783686
0.00783591
0.00783541
0.00783452
0.00783407
0.00783323
0.00783284
0.00783205
0.00783173
0.00783097
0.00783072
0.00783
0.0078298
0.00782913
0.00782875
0.00782845
0.00782872
0.0064573
0.00747085
0.00761125
0.00763461
0.00763963
0.00764241
0.00764208
0.0076416
0.00764005
0.00763973
0.00763914
0.00763926
0.00763853
0.00763802
0.00763678
0.00763594
0.00763479
0.00763412
0.0076333
0.00763288
0.00763231
0.00763197
0.00763154
0.0076312
0.0076308
0.00763045
0.00763003
0.00762965
0.00762922
0.00762881
0.00762835
0.00762792
0.00762744
0.00762699
0.00762649
0.00762602
0.0076255
0.00762501
0.00762447
0.00762397
0.00762342
0.0076229
0.00762234
0.00762181
0.00762124
0.0076207
0.00762012
0.00761958
0.007619
0.00761845
0.00761786
0.00761732
0.00761673
0.00761619
0.0076156
0.00761506
0.00761447
0.00761393
0.00761335
0.00761281
0.00761223
0.0076117
0.00761112
0.00761059
0.00761002
0.0076095
0.00760893
0.00760841
0.00760784
0.00760733
0.00760677
0.00760626
0.0076057
0.00760521
0.00760466
0.00760418
0.00760363
0.00760316
0.00760261
0.00760216
0.00760161
0.00760118
0.00760063
0.00760021
0.00759966
0.00759926
0.00759869
0.00759834
0.00759796
0.00759567
0.00619552
0.00729424
0.00746946
0.0074976
0.00750548
0.00750776
0.00750922
0.00750735
0.00750608
0.00750411
0.007504
0.00750339
0.00750346
0.00750242
0.00750161
0.00750006
0.00749902
0.00749769
0.00749692
0.00749599
0.0074955
0.00749483
0.00749451
0.00749394
0.00749366
0.00749315
0.00749287
0.00749238
0.00749208
0.00749159
0.00749128
0.00749079
0.00749045
0.00748996
0.0074896
0.0074891
0.00748872
0.00748822
0.00748782
0.00748731
0.00748689
0.00748637
0.00748594
0.00748541
0.00748497
0.00748443
0.00748397
0.00748344
0.00748296
0.00748242
0.00748194
0.0074814
0.00748091
0.00748037
0.00747988
0.00747933