/*--------------------------------*- C++ -*----------------------------------*\
  =========                 |
  \\      /  F ield         | OpenFOAM: The Open Source CFD Toolbox
   \\    /   O peration     | Website:  https://openfoam.org
    \\  /    A nd           | Version:  7
     \\/     M anipulation  |
\*---------------------------------------------------------------------------*/
FoamFile
{
    version     2.0;
    format      ascii;
    class       volScalarField;
    location    "4.3";
    object      k_0;
}
// * * * * * * * * * * * * * * * * * * * * * * * * * * * * * * * * * * * * * //

dimensions      [0 2 -2 0 0 0 0];

internalField   nonuniform List<scalar> 
2640
(
0.116639
0.670732
1.27398
1.60456
1.65704
1.61296
1.50374
1.37412
1.26054
1.16661
1.09108
1.03069
0.981996
0.942088
0.908755
0.880271
0.855454
0.833477
0.813721
0.795771
0.779298
0.764116
0.750044
0.736965
0.724754
0.713343
0.702639
0.692599
0.683153
0.674246
0.665868
0.657867
0.650436
0.643066
0.636604
0.629405
0.624204
0.616541
0.611237
0.616182
0.00154722
0.0335285
0.121436
0.287336
0.422245
0.515095
0.570269
0.596405
0.607625
0.608771
0.607592
0.604742
0.60087
0.596918
0.593001
0.589186
0.585461
0.581806
0.578203
0.574638
0.571094
0.567586
0.56407
0.560613
0.557112
0.553643
0.550136
0.546744
0.54327
0.540035
0.536569
0.533586
0.530031
0.527449
0.523646
0.52161
0.517496
0.515681
0.510171
0.510527
2.57666e-05
0.000558976
0.00366049
0.0131713
0.0332174
0.0587683
0.0840596
0.1055
0.122656
0.135733
0.145751
0.153652
0.160073
0.165591
0.170518
0.175162
0.179611
0.184034
0.188381
0.192792
0.197126
0.201553
0.20584
0.21024
0.21441
0.21879
0.222792
0.227077
0.230797
0.234948
0.2383
0.24231
0.245243
0.249109
0.251629
0.255292
0.257529
0.260753
0.263076
0.265464
2.01014e-05
2.58698e-05
8.20404e-05
0.000336702
0.00106956
0.00263323
0.00518992
0.00824901
0.011486
0.0146248
0.0175653
0.0202443
0.0227055
0.0249368
0.0270254
0.0289495
0.0308091
0.032553
0.0342924
0.0359425
0.037634
0.0392456
0.0409382
0.0425459
0.044274
0.0458988
0.0476905
0.0493432
0.0512196
0.0528994
0.0548797
0.0565758
0.0586816
0.0603721
0.0626317
0.0642811
0.0667305
0.0682969
0.0709966
0.0725713
2.00441e-05
2.04974e-05
2.21292e-05
2.75888e-05
4.35149e-05
8.13463e-05
0.000175874
0.000278011
0.000498622
0.000641192
0.00093322
0.00109304
0.00141374
0.00158368
0.00191787
0.00209581
0.00244262
0.00262865
0.00298928
0.00318315
0.003558
0.003759
0.00414822
0.0043557
0.00475961
0.00497341
0.00539289
0.00561354
0.00604999
0.00627872
0.00673413
0.00697284
0.00744992
0.00770102
0.00820334
0.00846919
0.00900144
0.00928671
0.00986555
0.0101917
2.0023e-05
2.03745e-05
2.14978e-05
2.31186e-05
2.66822e-05
2.89125e-05
3.36889e-05
3.64653e-05
4.26787e-05
4.62115e-05
5.39511e-05
5.82178e-05
6.73674e-05
7.24012e-05
8.30667e-05
8.90006e-05
0.000101499
0.000108491
0.000123146
0.000131319
0.000148372
0.00015781
0.000177424
0.000188188
0.000210485
0.000222633
0.000247725
0.000261325
0.000289349
0.000304497
0.000335644
0.000352484
0.000387041
0.000405782
0.000444182
0.000465111
0.00050804
0.000531732
0.000581248
0.000609456
2.0023e-05
2.03745e-05
2.14978e-05
2.31186e-05
2.66827e-05
2.89121e-05
3.36885e-05
3.64644e-05
4.26778e-05
4.621e-05
5.39493e-05
5.82152e-05
6.73704e-05
7.23995e-05
8.30689e-05
8.89948e-05
0.000101494
0.000108473
0.000123122
0.000131274
0.000148304
0.000157707
0.000177266
0.000187968
0.000210146
0.000222179
0.000247037
0.000260421
0.000287994
0.000302734
0.00033303
0.000349104
0.000382081
0.000399391
0.00043489
0.000453172
0.000490839
0.000509797
0.000550095
0.000570451
2.00441e-05
2.04974e-05
2.21292e-05
2.75888e-05
4.35147e-05
8.12196e-05
0.000175941
0.000277924
0.00049867
0.000641097
0.000933252
0.00109293
0.00141469
0.00158258
0.00191932
0.00209406
0.00244435
0.00262634
0.00299103
0.00318029
0.00355932
0.00375557
0.00414841
0.00435143
0.00475774
0.00496753
0.00538748
0.00560432
0.00603857
0.00626284
0.00671227
0.00694429
0.00740961
0.00764915
0.00813008
0.00837546
0.00886942
0.00911892
0.00963138
0.00989866
2.01014e-05
2.58698e-05
8.20404e-05
0.000336702
0.00106954
0.00262182
0.00520141
0.00823709
0.0114983
0.0146117
0.0175789
0.0202295
0.0227208
0.0249197
0.0270427
0.0289293
0.0308287
0.0325288
0.0343145
0.035913
0.0376582
0.0392089
0.0409636
0.042499
0.0442981
0.0458371
0.0477083
0.0492588
0.0512216
0.0527797
0.0548483
0.0563999
0.0585849
0.0601055
0.0624131
0.0638669
0.0662897
0.0676393
0.0701592
0.0715115
2.57666e-05
0.000558976
0.00366049
0.0131713
0.0332167
0.0587691
0.0840595
0.1055
0.122656
0.135732
0.145751
0.15365
0.160074
0.165587
0.170519
0.175156
0.179612
0.184023
0.188383
0.192775
0.197127
0.201524
0.205839
0.210192
0.214404
0.218708
0.222773
0.226941
0.230754
0.234722
0.238214
0.241941
0.245074
0.24852
0.251296
0.254381
0.256855
0.2594
0.261665
0.263535
0.00154722
0.0335285
0.121436
0.287336
0.422245
0.515095
0.570268
0.596404
0.607625
0.608771
0.607591
0.604741
0.600869
0.596917
0.592999
0.589184
0.585458
0.581803
0.578198
0.574632
0.571085
0.567578
0.564056
0.560602
0.55709
0.553631
0.550101
0.546732
0.543214
0.540026
0.536481
0.533579
0.529906
0.52743
0.523509
0.521507
0.517319
0.51552
0.509864
0.510091
0.116639
0.670732
1.27398
1.60456
1.65704
1.61296
1.50374
1.37412
1.26054
1.16661
1.09108
1.03069
0.982
0.942094
0.908763
0.880282
0.855468
0.833495
0.813745
0.795803
0.779341
0.764173
0.750118
0.737065
0.72488
0.713517
0.702852
0.6929
0.683509
0.674768
0.666454
0.658771
0.65139
0.644635
0.638125
0.632144
0.62656
0.621172
0.615278
0.622201
1.06586
1.20843
1.23692
1.23098
1.21687
1.20569
1.19764
1.19154
1.18672
1.18309
1.18068
1.17927
1.17885
1.17923
1.18036
1.18219
1.1846
1.18753
1.19093
1.19474
1.1989
1.20337
1.20808
1.21301
1.21811
1.22336
1.22871
1.23415
1.23966
1.24521
1.2508
1.25641
1.26203
1.26766
1.27329
1.27891
1.28453
1.29013
1.29571
1.30128
1.30682
1.31234
1.31784
1.3233
1.32874
1.33414
1.33951
1.34484
1.35014
1.3554
1.36063
1.36582
1.37099
1.37613
1.38124
1.38633
1.39141
1.39647
1.40152
1.40657
1.41162
1.41667
1.42172
1.42678
1.43184
1.43691
1.44198
1.44705
1.45211
1.45716
1.4622
1.46721
1.47219
1.47714
1.48205
1.48691
1.49173
1.49649
1.50119
1.50584
1.51043
1.51497
1.51946
1.5239
1.5283
1.53267
1.53702
1.54135
1.54567
1.54999
1.55432
1.55866
1.56302
1.56741
1.57182
1.57627
1.58074
1.58525
1.58978
1.59434
1.59891
1.6035
1.6081
1.61269
1.61728
1.62184
1.62639
1.6309
1.63538
1.63982
1.64421
1.64854
1.65283
1.65706
1.66124
1.66537
1.66944
1.67347
1.67746
1.6814
1.68532
1.6892
1.69306
1.6969
1.70072
1.70454
1.70835
1.71215
1.71596
1.71977
1.72358
1.7274
1.73122
1.73505
1.73888
1.74272
1.74656
1.7504
1.75424
1.75808
1.76192
1.76575
1.76957
1.77338
1.77718
1.78097
1.78473
1.78848
1.79221
1.79592
1.7996
1.80325
1.80688
1.81048
1.81405
1.81758
1.82109
1.82456
1.828
1.83141
1.83478
1.83812
1.84143
1.84471
1.84796
1.85119
1.85437
1.85756
1.86068
1.86385
1.86689
1.87009
1.873
1.8763
1.87898
1.88257
1.88478
1.88897
1.89048
1.89575
0.881547
1.13706
1.21408
1.23283
1.23176
1.22702
1.22095
1.21665
1.21398
1.21259
1.21259
1.2132
1.21475
1.21717
1.22018
1.22374
1.22776
1.23217
1.23692
1.24196
1.24722
1.25268
1.25829
1.26402
1.26984
1.27574
1.28168
1.28766
1.29366
1.29967
1.30569
1.3117
1.31771
1.3237
1.32968
1.33564
1.34158
1.34749
1.35339
1.35926
1.36511
1.37093
1.37674
1.38252
1.38827
1.394
1.39971
1.4054
1.41107
1.41672
1.42234
1.42795
1.43353
1.4391
1.44465
1.45018
1.45569
1.46118
1.46665
1.4721
1.47754
1.48296
1.48835
1.49373
1.49909
1.50444
1.50976
1.51506
1.52035
1.52561
1.53086
1.53609
1.5413
1.54649
1.55166
1.55682
1.56196
1.56708
1.57219
1.57728
1.58235
1.58741
1.59245
1.59747
1.60248
1.60748
1.61246
1.61742
1.62236
1.62729
1.63221
1.6371
1.64198
1.64684
1.65169
1.65652
1.66132
1.66612
1.67089
1.67565
1.68039
1.68511
1.68981
1.6945
1.69917
1.70383
1.70846
1.71309
1.7177
1.72229
1.72687
1.73143
1.73598
1.74051
1.74503
1.74954
1.75403
1.75851
1.76297
1.76742
1.77185
1.77628
1.78068
1.78507
1.78945
1.79381
1.79815
1.80248
1.80679
1.81109
1.81536
1.81962
1.82387
1.82809
1.8323
1.83649
1.84066
1.84481
1.84895
1.85306
1.85716
1.86124
1.8653
1.86934
1.87336
1.87737
1.88135
1.88532
1.88927
1.89321
1.89712
1.90102
1.9049
1.90876
1.9126
1.91643
1.92024
1.92404
1.92781
1.93157
1.93531
1.93903
1.94274
1.94643
1.95009
1.95375
1.95737
1.96101
1.96456
1.96821
1.97166
1.97535
1.97863
1.98248
1.98544
1.98964
1.99202
1.99682
1.99869
2.00422
0.405292
0.640602
0.772862
0.836829
0.8642
0.875618
0.880424
0.883157
0.885574
0.888191
0.891296
0.894745
0.898543
0.90268
0.907061
0.911635
0.916339
0.921125
0.925956
0.930799
0.93563
0.940433
0.945196
0.949912
0.954578
0.959194
0.963762
0.968285
0.972767
0.977211
0.981622
0.986002
0.990356
0.994687
0.998997
1.00329
1.00756
1.01182
1.01607
1.0203
1.02452
1.02873
1.03293
1.03712
1.0413
1.04546
1.04962
1.05377
1.05791
1.06204
1.06616
1.07026
1.07436
1.07845
1.08253
1.08659
1.09065
1.09469
1.09872
1.10275
1.10676
1.11076
1.11474
1.11872
1.12269
1.12664
1.13059
1.13452
1.13845
1.14236
1.14626
1.15016
1.15404
1.15792
1.16178
1.16564
1.16949
1.17332
1.17715
1.18097
1.18478
1.18857
1.19236
1.19613
1.1999
1.20365
1.20739
1.21112
1.21483
1.21853
1.22222
1.2259
1.22957
1.23322
1.23686
1.24049
1.24411
1.24771
1.2513
1.25488
1.25845
1.26201
1.26556
1.2691
1.27263
1.27614
1.27965
1.28315
1.28664
1.29012
1.29359
1.29704
1.30049
1.30393
1.30736
1.31077
1.31418
1.31757
1.32096
1.32433
1.32769
1.33104
1.33437
1.3377
1.34101
1.34431
1.3476
1.35088
1.35414
1.35739
1.36064
1.36387
1.36708
1.37029
1.37349
1.37667
1.37985
1.38301
1.38616
1.3893
1.39242
1.39554
1.39865
1.40174
1.40482
1.40789
1.41095
1.41399
1.41703
1.42005
1.42306
1.42606
1.42904
1.43202
1.43498
1.43793
1.44087
1.4438
1.44671
1.44962
1.45251
1.45539
1.45825
1.46111
1.46394
1.46679
1.46958
1.47243
1.47516
1.47802
1.48066
1.4836
1.48607
1.48917
1.49137
1.49476
1.49658
1.5003
1.50188
1.50614
0.0965693
0.175975
0.277598
0.368007
0.434992
0.480912
0.511893
0.533277
0.548794
0.560766
0.570653
0.579242
0.586974
0.594107
0.60076
0.607001
0.612852
0.618327
0.623441
0.628209
0.63265
0.636789
0.640653
0.644269
0.647669
0.65088
0.65393
0.656844
0.659646
0.662355
0.66499
0.667565
0.670093
0.672586
0.675053
0.677499
0.679932
0.682356
0.684774
0.68719
0.689606
0.692022
0.69444
0.696861
0.699286
0.701713
0.704144
0.706577
0.709014
0.711453
0.713894
0.716337
0.718781
0.721226
0.723671
0.726116
0.728561
0.731005
0.733447
0.735889
0.738329
0.740767
0.743203
0.745637
0.748068
0.750498
0.752925
0.75535
0.757772
0.760193
0.76261
0.765026
0.767438
0.769849
0.772256
0.774661
0.777063
0.779461
0.781856
0.784247
0.786635
0.789018
0.791397
0.793771
0.79614
0.798503
0.800861
0.803213
0.80556
0.8079
0.810234
0.812561
0.814883
0.817198
0.819506
0.821808
0.824104
0.826394
0.828678
0.830957
0.833229
0.835496
0.837758
0.840014
0.842266
0.844512
0.846752
0.848988
0.851219
0.853444
0.855664
0.857878
0.860087
0.86229
0.864487
0.866678
0.868863
0.871041
0.873213
0.875378
0.877537
0.879689
0.881834
0.883972
0.886103
0.888227
0.890344
0.892454
0.894558
0.896655
0.898745
0.900829
0.902906
0.904976
0.907041
0.909099
0.911151
0.913197
0.915236
0.91727
0.919297
0.921319
0.923334
0.925343
0.927345
0.929342
0.931332
0.933317
0.935295
0.937267
0.939233
0.941193
0.943146
0.945094
0.947035
0.948972
0.950901
0.952827
0.954743
0.956659
0.958561
0.96047
0.962356
0.96426
0.966125
0.968032
0.969867
0.971788
0.973576
0.975533
0.977244
0.979278
0.980861
0.983029
0.984425
0.986772
0.987983
0.990474
0.991588
0.994487
0.0126951
0.021216
0.0387648
0.068285
0.104544
0.142256
0.177957
0.209843
0.237348
0.260656
0.280311
0.296911
0.310988
0.322985
0.333244
0.342045
0.349596
0.35607
0.361616
0.366357
0.370405
0.373858
0.376803
0.379318
0.381471
0.383324
0.384929
0.386332
0.387572
0.388683
0.389692
0.390623
0.391496
0.392326
0.393126
0.393908
0.394679
0.395446
0.396214
0.396987
0.397767
0.398557
0.399359
0.400172
0.400999
0.401838
0.40269
0.403555
0.404432
0.405321
0.406221
0.407132
0.408054
0.408985
0.409925
0.410873
0.41183
0.412793
0.413764
0.414742
0.415725
0.416715
0.417709
0.418709
0.419714
0.420724
0.421738
0.422756
0.423779
0.424805
0.425835
0.426869
0.427906
0.428946
0.42999
0.431036
0.432084
0.433135
0.434188
0.435243
0.436299
0.437356
0.438415
0.439474
0.440533
0.441593
0.442652
0.443712
0.444771
0.445829
0.446887
0.447944
0.449
0.450055
0.451109
0.452162
0.453214
0.454266
0.455316
0.456365
0.457413
0.45846
0.459507
0.460552
0.461597
0.462641
0.463683
0.464725
0.465766
0.466805
0.467843
0.468879
0.469915
0.470948
0.47198
0.47301
0.474038
0.475064
0.476087
0.477109
0.478128
0.479145
0.480159
0.481171
0.482181
0.483188
0.484192
0.485194
0.486194
0.487191
0.488185
0.489178
0.490168
0.491156
0.492142
0.493125
0.494107
0.495086
0.496064
0.49704
0.498013
0.498985
0.499955
0.500924
0.50189
0.502855
0.503818
0.50478
0.50574
0.506698
0.507655
0.508611
0.509564
0.510518
0.511468
0.51242
0.513366
0.514318
0.515259
0.516212
0.517148
0.518104
0.519031
0.519994
0.520909
0.521886
0.522779
0.523781
0.52464
0.525681
0.526489
0.527589
0.528326
0.5295
0.53016
0.5314
0.532018
0.533292
0.533884
0.535401
0.000771475
0.00121309
0.00214442
0.0041027
0.00803987
0.0143943
0.0232249
0.0342284
0.0468119
0.0602953
0.0740314
0.0874918
0.10027
0.112102
0.122829
0.132398
0.140814
0.148128
0.15442
0.159786
0.164329
0.168148
0.171342
0.173998
0.176199
0.178015
0.179511
0.18074
0.18175
0.182581
0.183268
0.183839
0.184318
0.184726
0.185079
0.18539
0.185671
0.185932
0.186179
0.186419
0.186656
0.186893
0.187134
0.187381
0.187636
0.187899
0.188171
0.188454
0.188747
0.189049
0.189363
0.189686
0.190019
0.190361
0.190713
0.191074
0.191444
0.191822
0.192207
0.1926
0.193001
0.193408
0.193822
0.194242
0.194668
0.1951
0.195538
0.19598
0.196428
0.196881
0.197339
0.197801
0.198267
0.198737
0.199212
0.19969
0.200171
0.200655
0.201143
0.201633
0.202127
0.202622
0.20312
0.20362
0.204121
0.204625
0.20513
0.205636
0.206144
0.206654
0.207164
0.207676
0.208188
0.208702
0.209216
0.209732
0.210248
0.210765
0.211283
0.211801
0.21232
0.21284
0.213361
0.213882
0.214403
0.214925
0.215447
0.21597
0.216493
0.217016
0.217539
0.218062
0.218584
0.219107
0.21963
0.220152
0.220674
0.221195
0.221716
0.222236
0.222756
0.223275
0.223794
0.224312
0.224829
0.225346
0.225862
0.226377
0.226892
0.227405
0.227919
0.228431
0.228943
0.229454
0.229965
0.230475
0.230984
0.231492
0.232
0.232507
0.233014
0.23352
0.234025
0.23453
0.235033
0.235537
0.236039
0.236541
0.237042
0.237543
0.238042
0.238543
0.239039
0.23954
0.240033
0.240535
0.241024
0.241528
0.242012
0.242519
0.242996
0.24351
0.243976
0.2445
0.244951
0.245491
0.245921
0.246484
0.246885
0.247476
0.247846
0.248467
0.248806
0.24945
0.249773
0.250425
0.250743
0.251398
0.251712
0.252507
0.000720673
0.00106485
0.00176801
0.00329729
0.00643351
0.0119453
0.0199861
0.0304224
0.0427837
0.0564417
0.0707177
0.0850272
0.0988736
0.11194
0.123975
0.134934
0.144765
0.153485
0.161153
0.167856
0.173692
0.178764
0.18317
0.187004
0.190351
0.193285
0.195873
0.198172
0.200233
0.202097
0.2038
0.205372
0.206839
0.208221
0.209535
0.210797
0.212016
0.213205
0.214369
0.215515
0.216648
0.217772
0.218889
0.220004
0.221116
0.222227
0.22334
0.224453
0.225567
0.226684
0.227802
0.228923
0.230045
0.231169
0.232295
0.233422
0.234551
0.235681
0.236812
0.237944
0.239076
0.240209
0.241342
0.242476
0.243609
0.244743
0.245877
0.24701
0.248143
0.249276
0.250409
0.251541
0.252672
0.253802
0.254932
0.25606
0.257188
0.258314
0.259439
0.260562
0.261684
0.262804
0.263923
0.26504
0.266155
0.267268
0.268379
0.269489
0.270596
0.271702
0.272805
0.273907
0.275007
0.276105
0.277201
0.278295
0.279387
0.280477
0.281566
0.282652
0.283737
0.284819
0.2859
0.286978
0.288055
0.289129
0.290201
0.29127
0.292338
0.293402
0.294465
0.295524
0.296582
0.297636
0.298688
0.299737
0.300783
0.301826
0.302867
0.303905
0.30494
0.305973
0.307002
0.308029
0.309053
0.310074
0.311093
0.312109
0.313121
0.314131
0.315139
0.316143
0.317145
0.318143
0.319139
0.320132
0.321122
0.322109
0.323094
0.324075
0.325053
0.326028
0.326999
0.327968
0.328933
0.329895
0.330853
0.331808
0.332759
0.333708
0.334651
0.335593
0.336529
0.337464
0.338391
0.339321
0.340238
0.341162
0.342069
0.342989
0.343883
0.344802
0.345679
0.346602
0.347456
0.348389
0.349214
0.350165
0.350949
0.351931
0.352661
0.353687
0.354351
0.355429
0.356025
0.357146
0.357701
0.358842
0.359371
0.360734
0.0122048
0.0198966
0.0355158
0.0626116
0.0977844
0.135932
0.17328
0.207661
0.238181
0.26476
0.287737
0.30757
0.324738
0.339612
0.352574
0.363801
0.373561
0.382055
0.389455
0.39591
0.401552
0.406495
0.410843
0.414686
0.418105
0.42117
0.423939
0.426467
0.428797
0.430967
0.433009
0.434949
0.436809
0.438606
0.440357
0.442072
0.443761
0.445432
0.447091
0.448743
0.450391
0.452038
0.453687
0.455338
0.456993
0.458653
0.460318
0.461988
0.463663
0.465343
0.467029
0.468719
0.470414
0.472112
0.473815
0.475522
0.477232
0.478945
0.480662
0.48238
0.484102
0.485825
0.487551
0.489278
0.491008
0.492738
0.494471
0.496204
0.497938
0.499674
0.50141
0.503146
0.504883
0.50662
0.508357
0.510094
0.51183
0.513565
0.5153
0.517033
0.518765
0.520496
0.522225
0.523952
0.525678
0.527401
0.529123
0.530843
0.53256
0.534276
0.535989
0.5377
0.539409
0.541115
0.54282
0.544522
0.546222
0.547919
0.549614
0.551306
0.552996
0.554683
0.556367
0.558049
0.559728
0.561403
0.563075
0.564744
0.56641
0.568071
0.56973
0.571384
0.573035
0.574681
0.576324
0.577962
0.579597
0.581227
0.582853
0.584475
0.586093
0.587706
0.589315
0.59092
0.59252
0.594116
0.595708
0.597295
0.598878
0.600457
0.602032
0.603602
0.605168
0.606729
0.608287
0.60984
0.611388
0.612932
0.614472
0.616007
0.617538
0.619064
0.620585
0.622102
0.623614
0.625122
0.626624
0.628121
0.629614
0.631101
0.632583
0.634061
0.635533
0.637001
0.638462
0.63992
0.64137
0.642819
0.644257
0.645698
0.647122
0.648558
0.649965
0.651399
0.652786
0.654223
0.655582
0.657034
0.658349
0.659835
0.661083
0.662631
0.66378
0.665424
0.666442
0.668201
0.669102
0.670944
0.671786
0.673968
0.0946892
0.171295
0.271028
0.364411
0.437307
0.489582
0.526339
0.552705
0.572424
0.587943
0.600775
0.611816
0.621595
0.630404
0.638431
0.645737
0.652413
0.658491
0.66401
0.669014
0.67355
0.677657
0.681382
0.684772
0.68787
0.690717
0.693352
0.69581
0.698123
0.700317
0.702416
0.704441
0.706408
0.708332
0.710225
0.712096
0.713953
0.715803
0.717651
0.7195
0.721353
0.723214
0.725083
0.726962
0.728852
0.730753
0.732665
0.734589
0.736524
0.738471
0.740428
0.742396
0.744374
0.746362
0.74836
0.750367
0.752382
0.754405
0.756437
0.758476
0.760522
0.762575
0.764635
0.766701
0.768773
0.770851
0.772934
0.775022
0.777115
0.779212
0.781313
0.783418
0.785526
0.787638
0.789751
0.791867
0.793985
0.796105
0.798225
0.800346
0.802468
0.80459
0.806712
0.808834
0.810955
0.813075
0.815195
0.817313
0.81943
0.821546
0.823661
0.825774
0.827885
0.829995
0.832103
0.834209
0.836313
0.838416
0.840516
0.842614
0.844709
0.846802
0.848893
0.850981
0.853065
0.855147
0.857226
0.859301
0.861372
0.86344
0.865504
0.867564
0.869619
0.87167
0.873717
0.875758
0.877795
0.879827
0.881855
0.883877
0.885894
0.887905
0.889912
0.891913
0.893909
0.8959
0.897886
0.899866
0.901842
0.903812
0.905777
0.907737
0.909692
0.911642
0.913587
0.915527
0.917461
0.919391
0.921316
0.923236
0.92515
0.927059
0.928963
0.930862
0.932755
0.934643
0.936526
0.938403
0.940274
0.94214
0.944
0.945855
0.947703
0.949547
0.951384
0.953217
0.955043
0.956866
0.958679
0.960493
0.962294
0.9641
0.965887
0.967688
0.969457
0.971258
0.973003
0.974814
0.976521
0.97836
0.980004
0.981906
0.983442
0.985461
0.986828
0.989025
0.990189
0.992554
0.99362
0.996402
0.402845
0.642542
0.78334
0.856097
0.890016
0.905345
0.912398
0.916311
0.919143
0.921689
0.924243
0.926905
0.929698
0.932602
0.935591
0.9386
0.941651
0.944646
0.947581
0.95045
0.953234
0.955917
0.958506
0.961003
0.963411
0.965739
0.967996
0.970192
0.972339
0.974445
0.976521
0.978574
0.980612
0.98264
0.984664
0.986689
0.988717
0.990752
0.992796
0.994851
0.996919
0.999
1.00109
1.0032
1.00533
1.00747
1.00962
1.01179
1.01397
1.01616
1.01837
1.02059
1.02283
1.02507
1.02733
1.0296
1.03188
1.03417
1.03647
1.03878
1.04109
1.04342
1.04575
1.04809
1.05044
1.0528
1.05516
1.05753
1.05991
1.06229
1.06467
1.06706
1.06945
1.07185
1.07425
1.07665
1.07906
1.08147
1.08388
1.08629
1.0887
1.09111
1.09352
1.09593
1.09834
1.10075
1.10315
1.10556
1.10796
1.11037
1.11277
1.11517
1.11757
1.11996
1.12235
1.12474
1.12713
1.12952
1.1319
1.13428
1.13666
1.13903
1.1414
1.14377
1.14614
1.1485
1.15085
1.15321
1.15556
1.1579
1.16024
1.16257
1.1649
1.16723
1.16955
1.17186
1.17417
1.17647
1.17876
1.18105
1.18334
1.18561
1.18788
1.19015
1.19241
1.19466
1.19691
1.19915
1.20138
1.20361
1.20583
1.20805
1.21026
1.21246
1.21466
1.21686
1.21904
1.22123
1.2234
1.22557
1.22774
1.2299
1.23205
1.2342
1.23634
1.23848
1.24061
1.24273
1.24485
1.24696
1.24907
1.25117
1.25326
1.25535
1.25743
1.25951
1.26158
1.26365
1.26571
1.26777
1.26982
1.27186
1.2739
1.27594
1.27796
1.28
1.282
1.28405
1.28602
1.28808
1.29
1.29212
1.29394
1.29617
1.29781
1.30027
1.30162
1.30435
1.30554
1.30871
0.890135
1.1566
1.2383
1.25615
1.253
1.24418
1.23386
1.22514
1.21798
1.2122
1.20761
1.20408
1.20145
1.19962
1.19845
1.19785
1.19784
1.19809
1.19873
1.1997
1.20089
1.20226
1.20377
1.2054
1.20713
1.20894
1.21082
1.21275
1.21473
1.21674
1.21878
1.22085
1.22295
1.22507
1.22721
1.22937
1.23155
1.23375
1.23597
1.2382
1.24046
1.24272
1.24501
1.2473
1.24962
1.25194
1.25428
1.25664
1.25901
1.26139
1.26378
1.26618
1.2686
1.27103
1.27347
1.27592
1.27838
1.28085
1.28333
1.28582
1.28832
1.29083
1.29334
1.29586
1.29838
1.30091
1.30345
1.30599
1.30854
1.31108
1.31363
1.31618
1.31874
1.32129
1.32385
1.32641
1.32896
1.33152
1.33407
1.33663
1.33919
1.34174
1.34429
1.34684
1.34939
1.35194
1.35449
1.35703
1.35958
1.36212
1.36466
1.36719
1.36972
1.37225
1.37478
1.3773
1.37982
1.38234
1.38485
1.38736
1.38986
1.39236
1.39485
1.39734
1.39982
1.4023
1.40478
1.40724
1.4097
1.41216
1.41461
1.41705
1.41949
1.42192
1.42435
1.42677
1.42918
1.43158
1.43398
1.43638
1.43876
1.44114
1.44352
1.44589
1.44825
1.4506
1.45295
1.45529
1.45762
1.45995
1.46227
1.46459
1.46689
1.46919
1.47149
1.47378
1.47606
1.47833
1.4806
1.48286
1.48511
1.48735
1.48959
1.49183
1.49405
1.49627
1.49849
1.50069
1.50289
1.50509
1.50728
1.50946
1.51164
1.51381
1.51598
1.51814
1.5203
1.52245
1.5246
1.52675
1.52889
1.53102
1.53315
1.53529
1.5374
1.53953
1.54164
1.54377
1.54585
1.54799
1.55003
1.55222
1.55418
1.55647
1.55825
1.56078
1.56223
1.56513
1.5663
1.56968
1.05843
1.18698
1.20339
1.19014
1.16903
1.15128
1.13644
1.12397
1.11331
1.10424
1.09661
1.09025
1.08501
1.08074
1.07732
1.07465
1.07268
1.07126
1.07034
1.06986
1.06978
1.06997
1.07045
1.07117
1.07206
1.07312
1.07431
1.0756
1.07699
1.07845
1.07998
1.08155
1.08318
1.08484
1.08653
1.08825
1.09
1.09176
1.09355
1.09535
1.09716
1.09898
1.10081
1.10265
1.10449
1.10634
1.10818
1.11002
1.11187
1.11371
1.11555
1.11739
1.11923
1.12107
1.12291
1.12476
1.12662
1.12849
1.13036
1.13225
1.13415
1.13607
1.138
1.13995
1.14192
1.14389
1.14588
1.14788
1.14989
1.1519
1.15391
1.15591
1.15791
1.1599
1.16187
1.16382
1.16575
1.16766
1.16955
1.17141
1.17325
1.17507
1.17687
1.17864
1.18041
1.18216
1.18391
1.18565
1.1874
1.18915
1.19091
1.19268
1.19447
1.19628
1.19811
1.19995
1.20182
1.20371
1.20561
1.20753
1.20947
1.21141
1.21336
1.21531
1.21726
1.2192
1.22113
1.22305
1.22495
1.22683
1.22869
1.23052
1.23233
1.23412
1.23588
1.23762
1.23933
1.24102
1.2427
1.24435
1.246
1.24763
1.24925
1.25086
1.25247
1.25407
1.25568
1.25729
1.25889
1.26051
1.26212
1.26374
1.26537
1.267
1.26864
1.27028
1.27192
1.27357
1.27522
1.27687
1.27852
1.28017
1.28183
1.28347
1.28512
1.28676
1.2884
1.29003
1.29166
1.29328
1.29489
1.29649
1.29809
1.29967
1.30125
1.30282
1.30438
1.30593
1.30747
1.309
1.31052
1.31203
1.31354
1.31503
1.31652
1.31801
1.31949
1.32097
1.32243
1.32392
1.32536
1.32687
1.32827
1.32985
1.33114
1.33289
1.33395
1.33602
1.33675
1.33933
)
;

boundaryField
{
    upperWall
    {
        type            fixedValue;
        value           uniform 0;
    }
    lowerWall
    {
        type            fixedValue;
        value           uniform 0;
    }
    heatedWall
    {
        type            fixedValue;
        value           uniform 0;
    }
    inlet
    {
        type            fixedValue;
        value           uniform 2e-05;
    }
    outlet
    {
        type            inletOutlet;
        inletValue      uniform 0;
        value           nonuniform List<scalar> 
12
(
1.89575
2.00422
1.50614
0.994487
0.535401
0.252507
0.360734
0.673968
0.996402
1.30871
1.56968
1.33933
)
;
    }
    frontAndBack
    {
        type            empty;
    }
}


// ************************************************************************* //
