/*--------------------------------*- C++ -*----------------------------------*\
  =========                 |
  \\      /  F ield         | OpenFOAM: The Open Source CFD Toolbox
   \\    /   O peration     | Website:  https://openfoam.org
    \\  /    A nd           | Version:  7
     \\/     M anipulation  |
\*---------------------------------------------------------------------------*/
FoamFile
{
    version     2.0;
    format      ascii;
    class       volScalarField;
    location    "4.3";
    object      nut;
}
// * * * * * * * * * * * * * * * * * * * * * * * * * * * * * * * * * * * * * //

dimensions      [0 2 -1 0 0 0 0];

internalField   nonuniform List<scalar> 
2640
(
0.000717852
0.00172142
0.00237243
0.0026625
0.00270569
0.00266946
0.00257749
0.0024639
0.00235987
0.00227024
0.00219552
0.00213389
0.00208287
0.00204011
0.00200369
0.00197204
0.00194404
0.00191891
0.00189603
0.001875
0.00185549
0.00183733
0.00182033
0.00180439
0.00178938
0.00177524
0.00176187
0.00174924
0.00173727
0.00172591
0.00171516
0.00170482
0.00169517
0.00168554
0.00167705
0.00166754
0.00166064
0.00165042
0.0016433
0.00164994
8.26779e-05
0.000384877
0.000732468
0.0011267
0.00136583
0.00150854
0.00158728
0.00162324
0.00163844
0.00163999
0.0016384
0.00163455
0.00162931
0.00162394
0.0016186
0.00161339
0.00160828
0.00160325
0.00159828
0.00159335
0.00158842
0.00158354
0.00157863
0.00157378
0.00156886
0.00156397
0.00155901
0.00155419
0.00154925
0.00154463
0.00153966
0.00153538
0.00153025
0.00152652
0.00152101
0.00151805
0.00151205
0.0015094
0.00150131
0.00150184
1.06694e-05
4.96948e-05
0.00012717
0.000241229
0.000383086
0.000509548
0.000609407
0.000682715
0.000736134
0.000774382
0.000802451
0.000823916
0.000840955
0.000855324
0.000867956
0.000879698
0.000890797
0.0009017
0.000912287
0.000922907
0.000933221
0.000943643
0.000953626
0.000963763
0.000973275
0.000983164
0.000992116
0.00100161
0.00100978
0.00101882
0.00102607
0.00103466
0.0010409
0.00104908
0.00105437
0.00106202
0.00106666
0.00107331
0.00107809
0.00108297
9.42379e-06
1.06908e-05
1.90382e-05
3.85689e-05
6.87413e-05
0.00010786
0.000151424
0.000190904
0.000225268
0.00025419
0.000278575
0.000299064
0.000316723
0.00033192
0.000345541
0.00035763
0.000368937
0.000379235
0.000389235
0.00039849
0.000407759
0.000416398
0.000425283
0.000433552
0.00044227
0.000450312
0.000459017
0.000466903
0.000475697
0.000483435
0.0004924
0.000499952
0.000509171
0.000516453
0.000526029
0.00053291
0.000542969
0.000549305
0.000560056
0.000566233
9.41035e-06
9.51615e-06
9.88769e-06
1.10402e-05
1.38654e-05
1.89576e-05
2.7875e-05
3.50465e-05
4.69353e-05
5.3224e-05
6.42104e-05
6.94914e-05
7.90312e-05
8.36463e-05
9.20498e-05
9.62254e-05
0.000103882
0.000107765
0.00011492
0.000118588
0.000125376
0.000128869
0.000135377
0.000138721
0.00014501
0.000148231
0.000154356
0.000157482
0.00016349
0.000166551
0.000172486
0.000175516
0.000181421
0.000184454
0.000190374
0.000193434
0.00019942
0.000202555
0.000208772
0.000212196
9.40541e-06
9.48759e-06
9.7456e-06
1.01063e-05
1.08573e-05
1.1302e-05
1.21999e-05
1.26927e-05
1.37315e-05
1.42885e-05
1.54388e-05
1.60377e-05
1.72519e-05
1.78849e-05
1.9157e-05
1.98294e-05
2.1176e-05
2.18932e-05
2.33251e-05
2.40867e-05
2.56029e-05
2.64046e-05
2.79975e-05
2.88343e-05
3.04946e-05
3.13623e-05
3.30824e-05
3.39784e-05
3.57539e-05
3.66779e-05
3.85081e-05
3.94623e-05
4.13515e-05
4.23408e-05
4.42989e-05
4.53305e-05
4.73763e-05
4.84685e-05
5.06749e-05
5.189e-05
9.40541e-06
9.48759e-06
9.7456e-06
1.01063e-05
1.08574e-05
1.13019e-05
1.21998e-05
1.26925e-05
1.37314e-05
1.42883e-05
1.54385e-05
1.60373e-05
1.72523e-05
1.78847e-05
1.91572e-05
1.98288e-05
2.11754e-05
2.18914e-05
2.33228e-05
2.40825e-05
2.5597e-05
2.6396e-05
2.7985e-05
2.88174e-05
3.04701e-05
3.13303e-05
3.30365e-05
3.39196e-05
3.56701e-05
3.65716e-05
3.83579e-05
3.92726e-05
4.10857e-05
4.2006e-05
4.38331e-05
4.4745e-05
4.65674e-05
4.74582e-05
4.92983e-05
5.02021e-05
9.41035e-06
9.51615e-06
9.88769e-06
1.10402e-05
1.38653e-05
1.89428e-05
2.78803e-05
3.50411e-05
4.69375e-05
5.32201e-05
6.42115e-05
6.94878e-05
7.90576e-05
8.36173e-05
9.20847e-05
9.61852e-05
0.000103919
0.000107718
0.000114954
0.000118535
0.0001254
0.00012881
0.00013538
0.000138653
0.000144982
0.000148144
0.000154279
0.000157353
0.000163335
0.000166341
0.000172206
0.000175157
0.00018093
0.000183831
0.000189522
0.000192361
0.000197952
0.000200717
0.00020628
0.000209123
9.42379e-06
1.06908e-05
1.90382e-05
3.85689e-05
6.87406e-05
0.000107626
0.000151591
0.000190766
0.000225388
0.000254076
0.000278682
0.000298955
0.000316829
0.000331806
0.000345652
0.000357505
0.000369055
0.000379094
0.00038936
0.000398326
0.00040789
0.000416203
0.000425414
0.000433314
0.00044239
0.000450009
0.000459103
0.000466503
0.000475707
0.000482888
0.00049226
0.000499174
0.000508751
0.000515311
0.00052511
0.000531191
0.000541172
0.000546654
0.000556743
0.000562083
1.06694e-05
4.96948e-05
0.00012717
0.000241228
0.000383082
0.000509552
0.000609406
0.000682715
0.000736135
0.000774379
0.000802453
0.00082391
0.000840958
0.000855314
0.00086796
0.000879681
0.000890802
0.000901674
0.000912291
0.000922865
0.000933224
0.000943575
0.000953623
0.000963653
0.00097326
0.000982981
0.000992074
0.00100131
0.00100969
0.00101833
0.00102588
0.00103387
0.00104055
0.00104784
0.00105367
0.00106012
0.00106526
0.00107053
0.00107519
0.00107903
8.26779e-05
0.000384877
0.000732468
0.0011267
0.00136583
0.00150854
0.00158728
0.00162324
0.00163844
0.00163999
0.0016384
0.00163455
0.00162931
0.00162394
0.0016186
0.00161339
0.00160828
0.00160325
0.00159827
0.00159334
0.00158841
0.00158353
0.00157861
0.00157377
0.00156883
0.00156395
0.00155896
0.00155418
0.00154917
0.00154461
0.00153954
0.00153537
0.00153007
0.00152649
0.00152081
0.0015179
0.00151179
0.00150916
0.00150086
0.00150119
0.000717852
0.00172142
0.00237243
0.0026625
0.00270569
0.00266946
0.00257749
0.0024639
0.00235987
0.00227024
0.00219552
0.00213389
0.00208288
0.00204012
0.0020037
0.00197205
0.00194406
0.00191893
0.00189606
0.00187504
0.00185554
0.0018374
0.00182042
0.00180452
0.00178954
0.00177546
0.00176214
0.00174962
0.00173772
0.00172658
0.00171591
0.00170599
0.00169641
0.00168759
0.00167905
0.00167117
0.00166377
0.0016566
0.00164873
0.00165798
0.0039619
0.00421858
0.00426805
0.0042578
0.00423335
0.00421387
0.00419978
0.00418907
0.00418059
0.00417418
0.00416993
0.00416742
0.00416665
0.00416731
0.0041693
0.00417253
0.00417676
0.00418191
0.00418789
0.00419457
0.00420187
0.00420969
0.00421794
0.00422653
0.00423542
0.00424452
0.0042538
0.0042632
0.00427269
0.00428223
0.00429181
0.00430141
0.004311
0.00432058
0.00433013
0.00433965
0.00434914
0.00435859
0.004368
0.00437737
0.00438668
0.00439595
0.00440516
0.00441431
0.00442341
0.00443244
0.00444141
0.0044503
0.00445913
0.00446788
0.00447655
0.00448516
0.00449369
0.00450214
0.00451053
0.00451886
0.00452713
0.00453535
0.00454352
0.00455166
0.00455976
0.00456784
0.0045759
0.00458395
0.00459198
0.00460001
0.00460802
0.00461603
0.00462402
0.00463199
0.00463994
0.00464785
0.00465572
0.00466355
0.00467131
0.00467901
0.00468663
0.00469417
0.00470162
0.00470899
0.00471625
0.00472343
0.00473051
0.0047375
0.00474442
0.00475126
0.00475804
0.00476476
0.00477145
0.00477811
0.00478475
0.00479139
0.00479803
0.00480469
0.00481138
0.00481809
0.00482485
0.00483163
0.00483846
0.00484532
0.00485221
0.00485912
0.00486604
0.00487297
0.00487989
0.0048868
0.00489367
0.00490051
0.00490729
0.00491401
0.00492065
0.00492722
0.0049337
0.00494009
0.00494638
0.00495259
0.0049587
0.00496472
0.00497066
0.00497652
0.00498231
0.00498803
0.0049937
0.00499931
0.00500489
0.00501044
0.00501597
0.00502148
0.00502698
0.00503247
0.00503797
0.00504347
0.00504898
0.0050545
0.00506004
0.00506558
0.00507113
0.00507669
0.00508225
0.00508782
0.00509338
0.00509894
0.00510449
0.00511003
0.00511556
0.00512106
0.00512654
0.00513199
0.0051374
0.00514278
0.00514811
0.0051534
0.00515865
0.00516384
0.00516898
0.00517406
0.00517909
0.00518406
0.00518897
0.00519382
0.0051986
0.00520334
0.00520801
0.00521262
0.00521718
0.0052217
0.00522614
0.00523058
0.00523491
0.0052393
0.00524351
0.00524791
0.00525193
0.00525649
0.00526016
0.00526512
0.00526813
0.00527394
0.00527598
0.00528328
0.00360309
0.00409208
0.00422839
0.00426093
0.00425908
0.00425088
0.00424034
0.00423287
0.00422823
0.00422581
0.0042258
0.00422686
0.00422956
0.00423378
0.00423901
0.00424518
0.00425215
0.00425978
0.00426799
0.00427667
0.00428573
0.00429509
0.0043047
0.00431449
0.00432441
0.00433443
0.00434452
0.00435464
0.00436478
0.00437491
0.00438503
0.00439511
0.00440517
0.00441517
0.00442513
0.00443503
0.00444488
0.00445468
0.00446441
0.00447409
0.0044837
0.00449326
0.00450275
0.00451219
0.00452157
0.0045309
0.00454017
0.00454938
0.00455854
0.00456765
0.00457671
0.00458572
0.00459468
0.00460359
0.00461245
0.00462127
0.00463004
0.00463876
0.00464744
0.00465608
0.00466467
0.00467321
0.00468171
0.00469017
0.00469858
0.00470695
0.00471528
0.00472355
0.00473179
0.00473998
0.00474813
0.00475623
0.00476429
0.00477231
0.00478029
0.00478822
0.00479612
0.00480397
0.00481179
0.00481956
0.0048273
0.00483501
0.00484267
0.0048503
0.0048579
0.00486546
0.00487298
0.00488047
0.00488792
0.00489534
0.00490272
0.00491007
0.00491738
0.00492465
0.00493189
0.00493909
0.00494626
0.00495339
0.00496049
0.00496755
0.00497457
0.00498156
0.00498851
0.00499543
0.00500232
0.00500917
0.00501598
0.00502277
0.00502952
0.00503624
0.00504293
0.00504959
0.00505622
0.00506282
0.00506939
0.00507593
0.00508244
0.00508892
0.00509537
0.0051018
0.00510819
0.00511456
0.0051209
0.0051272
0.00513348
0.00513973
0.00514595
0.00515214
0.00515829
0.00516442
0.00517052
0.00517658
0.00518261
0.00518861
0.00519457
0.00520051
0.00520641
0.00521228
0.00521812
0.00522392
0.00522969
0.00523543
0.00524114
0.00524682
0.00525246
0.00525807
0.00526365
0.0052692
0.00527472
0.00528021
0.00528566
0.00529109
0.00529649
0.00530186
0.00530719
0.0053125
0.00531778
0.00532303
0.00532825
0.00533344
0.00533861
0.00534374
0.00534884
0.00535392
0.00535896
0.00536399
0.00536895
0.00537394
0.00537881
0.00538379
0.00538851
0.00539356
0.00539803
0.00540328
0.0054073
0.00541303
0.00541627
0.00542279
0.00542533
0.00543282
0.00244307
0.00307146
0.00337367
0.00351051
0.00356746
0.00359095
0.00360079
0.00360638
0.00361131
0.00361664
0.00362296
0.00362996
0.00363766
0.00364602
0.00365486
0.00366406
0.0036735
0.00368308
0.00369273
0.00370237
0.00371197
0.00372148
0.0037309
0.00374019
0.00374937
0.00375842
0.00376736
0.00377619
0.00378492
0.00379356
0.00380211
0.00381059
0.00381899
0.00382733
0.00383562
0.00384385
0.00385203
0.00386016
0.00386825
0.0038763
0.0038843
0.00389227
0.00390021
0.0039081
0.00391597
0.00392379
0.00393159
0.00393935
0.00394707
0.00395477
0.00396242
0.00397005
0.00397764
0.0039852
0.00399273
0.00400022
0.00400768
0.00401511
0.0040225
0.00402985
0.00403718
0.00404447
0.00405173
0.00405895
0.00406614
0.0040733
0.00408043
0.00408752
0.00409459
0.00410162
0.00410862
0.0041156
0.00412254
0.00412945
0.00413634
0.00414319
0.00415002
0.00415682
0.00416359
0.00417033
0.00417704
0.00418373
0.00419039
0.00419701
0.00420361
0.00421018
0.00421671
0.00422322
0.0042297
0.00423614
0.00424255
0.00424893
0.00425529
0.0042616
0.00426789
0.00427415
0.00428038
0.00428657
0.00429274
0.00429888
0.00430499
0.00431107
0.00431713
0.00432316
0.00432916
0.00433513
0.00434109
0.00434701
0.00435291
0.00435879
0.00436464
0.00437047
0.00437627
0.00438205
0.00438781
0.00439354
0.00439924
0.00440492
0.00441057
0.0044162
0.0044218
0.00442737
0.00443292
0.00443844
0.00444394
0.00444941
0.00445485
0.00446027
0.00446566
0.00447102
0.00447636
0.00448167
0.00448696
0.00449222
0.00449745
0.00450266
0.00450785
0.00451301
0.00451814
0.00452325
0.00452834
0.0045334
0.00453844
0.00454345
0.00454844
0.00455341
0.00455835
0.00456326
0.00456815
0.00457302
0.00457786
0.00458268
0.00458747
0.00459225
0.00459699
0.00460172
0.00460642
0.00461109
0.00461574
0.00462038
0.00462498
0.00462957
0.00463412
0.00463867
0.00464316
0.00464768
0.00465209
0.0046566
0.00466092
0.00466545
0.00466961
0.00467424
0.00467815
0.00468302
0.00468648
0.0046918
0.00469465
0.00470049
0.00470297
0.00470964
0.00119254
0.00160982
0.0020219
0.00232798
0.002531
0.00266124
0.00274563
0.00280239
0.00284287
0.00287371
0.00289893
0.00292067
0.0029401
0.00295791
0.00297442
0.00298983
0.00300421
0.0030176
0.00303005
0.00304162
0.00305235
0.00306232
0.00307159
0.00308025
0.00308837
0.00309601
0.00310326
0.00311017
0.00311679
0.00312319
0.00312939
0.00313545
0.00314138
0.00314722
0.00315298
0.00315869
0.00316436
0.00317
0.00317561
0.0031812
0.00318679
0.00319236
0.00319794
0.0032035
0.00320907
0.00321463
0.00322019
0.00322575
0.00323131
0.00323686
0.00324241
0.00324795
0.00325348
0.00325901
0.00326453
0.00327005
0.00327555
0.00328104
0.00328652
0.00329199
0.00329744
0.00330288
0.00330831
0.00331373
0.00331913
0.00332452
0.00332989
0.00333525
0.00334059
0.00334592
0.00335124
0.00335654
0.00336183
0.0033671
0.00337236
0.0033776
0.00338283
0.00338804
0.00339324
0.00339843
0.00340359
0.00340874
0.00341388
0.00341899
0.00342409
0.00342917
0.00343423
0.00343927
0.00344429
0.0034493
0.00345428
0.00345924
0.00346418
0.0034691
0.003474
0.00347887
0.00348373
0.00348857
0.00349339
0.00349819
0.00350297
0.00350773
0.00351247
0.0035172
0.0035219
0.00352659
0.00353127
0.00353592
0.00354056
0.00354518
0.00354979
0.00355438
0.00355895
0.0035635
0.00356804
0.00357256
0.00357706
0.00358154
0.003586
0.00359045
0.00359488
0.00359928
0.00360367
0.00360804
0.00361239
0.00361672
0.00362103
0.00362532
0.00362959
0.00363384
0.00363808
0.00364229
0.00364649
0.00365067
0.00365483
0.00365898
0.0036631
0.00366721
0.0036713
0.00367538
0.00367943
0.00368348
0.0036875
0.00369151
0.0036955
0.00369947
0.00370343
0.00370737
0.00371129
0.0037152
0.0037191
0.00372297
0.00372683
0.00373068
0.00373451
0.00373833
0.00374212
0.00374591
0.00374967
0.00375344
0.00375717
0.00376091
0.0037646
0.00376832
0.00377197
0.00377569
0.00377927
0.00378301
0.00378649
0.0037903
0.00379362
0.00379757
0.00380064
0.00380484
0.00380754
0.00381208
0.00381442
0.00381923
0.00382137
0.00382696
0.000432384
0.000558963
0.000755561
0.0010028
0.0012408
0.0014474
0.00161886
0.00175792
0.00186958
0.00195923
0.00203176
0.00209105
0.00214005
0.00218094
0.00221531
0.00224437
0.002269
0.00228992
0.00230768
0.00232276
0.00233556
0.00234642
0.00235564
0.00236349
0.00237019
0.00237594
0.00238091
0.00238524
0.00238907
0.00239249
0.00239559
0.00239846
0.00240113
0.00240368
0.00240613
0.00240852
0.00241088
0.00241322
0.00241556
0.00241791
0.00242029
0.00242269
0.00242512
0.00242759
0.0024301
0.00243264
0.00243521
0.00243782
0.00244047
0.00244315
0.00244586
0.0024486
0.00245137
0.00245417
0.00245699
0.00245983
0.00246269
0.00246557
0.00246847
0.00247139
0.00247432
0.00247726
0.00248022
0.00248319
0.00248617
0.00248916
0.00249216
0.00249516
0.00249818
0.0025012
0.00250423
0.00250727
0.00251031
0.00251336
0.00251641
0.00251947
0.00252253
0.00252559
0.00252866
0.00253173
0.0025348
0.00253786
0.00254093
0.002544
0.00254706
0.00255013
0.00255319
0.00255624
0.00255929
0.00256234
0.00256538
0.00256841
0.00257144
0.00257446
0.00257747
0.00258048
0.00258348
0.00258648
0.00258947
0.00259245
0.00259542
0.00259839
0.00260135
0.00260431
0.00260726
0.0026102
0.00261314
0.00261607
0.002619
0.00262192
0.00262483
0.00262773
0.00263063
0.00263352
0.0026364
0.00263928
0.00264215
0.002645
0.00264785
0.00265069
0.00265353
0.00265635
0.00265916
0.00266196
0.00266476
0.00266754
0.00267031
0.00267308
0.00267583
0.00267857
0.00268131
0.00268403
0.00268675
0.00268945
0.00269215
0.00269484
0.00269752
0.00270019
0.00270285
0.00270551
0.00270815
0.00271079
0.00271343
0.00271605
0.00271867
0.00272128
0.00272388
0.00272648
0.00272907
0.00273165
0.00273423
0.0027368
0.00273936
0.00274192
0.00274447
0.00274703
0.00274956
0.00275211
0.00275463
0.00275717
0.00275967
0.00276222
0.0027647
0.00276726
0.00276969
0.00277229
0.00277466
0.00277732
0.0027796
0.00278236
0.0027845
0.00278741
0.00278935
0.00279245
0.00279419
0.00279746
0.00279909
0.00280244
0.00280399
0.00280797
0.000106589
0.000133659
0.000177708
0.000245802
0.000344092
0.000460411
0.000584828
0.000709978
0.00083029
0.000942309
0.00104414
0.0011351
0.00121517
0.00128487
0.00134494
0.00139635
0.00144004
0.00147697
0.00150801
0.00153399
0.00155564
0.00157361
0.00158849
0.00160075
0.00161084
0.00161913
0.00162591
0.00163147
0.00163602
0.00163976
0.00164284
0.0016454
0.00164754
0.00164936
0.00165094
0.00165233
0.00165358
0.00165474
0.00165584
0.0016569
0.00165796
0.00165901
0.00166008
0.00166117
0.0016623
0.00166346
0.00166467
0.00166592
0.00166721
0.00166855
0.00166993
0.00167135
0.00167282
0.00167433
0.00167588
0.00167746
0.00167908
0.00168074
0.00168243
0.00168415
0.0016859
0.00168768
0.00168949
0.00169132
0.00169317
0.00169505
0.00169695
0.00169887
0.00170081
0.00170277
0.00170474
0.00170674
0.00170875
0.00171077
0.00171281
0.00171486
0.00171693
0.001719
0.00172109
0.00172319
0.00172529
0.0017274
0.00172953
0.00173165
0.00173379
0.00173592
0.00173806
0.00174021
0.00174236
0.00174451
0.00174667
0.00174882
0.00175098
0.00175314
0.0017553
0.00175746
0.00175962
0.00176178
0.00176395
0.00176611
0.00176827
0.00177043
0.0017726
0.00177476
0.00177692
0.00177908
0.00178124
0.0017834
0.00178555
0.00178771
0.00178986
0.00179201
0.00179416
0.0017963
0.00179844
0.00180058
0.00180271
0.00180484
0.00180697
0.00180909
0.0018112
0.00181331
0.00181542
0.00181752
0.00181961
0.0018217
0.00182379
0.00182587
0.00182794
0.00183001
0.00183208
0.00183413
0.00183619
0.00183824
0.00184028
0.00184232
0.00184435
0.00184638
0.0018484
0.00185042
0.00185243
0.00185444
0.00185645
0.00185845
0.00186044
0.00186243
0.00186442
0.0018664
0.00186837
0.00187035
0.00187231
0.00187428
0.00187623
0.00187819
0.00188012
0.00188209
0.001884
0.00188597
0.00188786
0.00188984
0.0018917
0.00189369
0.00189551
0.00189754
0.00189929
0.00190139
0.00190305
0.00190523
0.00190678
0.00190906
0.00191048
0.00191288
0.00191418
0.00191666
0.0019179
0.0019204
0.00192162
0.00192413
0.00192532
0.00192836
0.00010302
0.000125227
0.000161359
0.000220358
0.000307805
0.000419421
0.000542519
0.000669343
0.000793763
0.0009117
0.00102051
0.001119
0.00120668
0.00128394
0.0013512
0.00140966
0.00146011
0.00150344
0.00154054
0.00157225
0.00159935
0.00162253
0.0016424
0.0016595
0.00167428
0.00168714
0.0016984
0.00170834
0.0017172
0.00172517
0.00173243
0.0017391
0.00174529
0.00175111
0.00175663
0.00176191
0.001767
0.00177195
0.00177678
0.00178152
0.0017862
0.00179082
0.00179541
0.00179998
0.00180452
0.00180905
0.00181357
0.00181809
0.00182259
0.0018271
0.0018316
0.0018361
0.0018406
0.00184509
0.00184958
0.00185406
0.00185854
0.00186301
0.00186747
0.00187193
0.00187638
0.00188082
0.00188525
0.00188967
0.00189409
0.00189849
0.00190288
0.00190726
0.00191163
0.00191599
0.00192033
0.00192467
0.00192899
0.0019333
0.0019376
0.00194188
0.00194615
0.00195041
0.00195465
0.00195888
0.00196309
0.00196729
0.00197147
0.00197564
0.00197979
0.00198393
0.00198805
0.00199215
0.00199624
0.00200032
0.00200438
0.00200842
0.00201245
0.00201646
0.00202046
0.00202444
0.00202841
0.00203236
0.0020363
0.00204023
0.00204414
0.00204803
0.00205191
0.00205578
0.00205963
0.00206347
0.00206729
0.00207109
0.00207489
0.00207866
0.00208242
0.00208617
0.00208989
0.00209361
0.0020973
0.00210098
0.00210465
0.0021083
0.00211193
0.00211554
0.00211914
0.00212273
0.0021263
0.00212985
0.00213339
0.00213691
0.00214041
0.0021439
0.00214738
0.00215084
0.00215428
0.00215771
0.00216113
0.00216453
0.00216791
0.00217128
0.00217464
0.00217798
0.0021813
0.00218461
0.0021879
0.00219118
0.00219445
0.00219769
0.00220092
0.00220414
0.00220734
0.00221053
0.00221369
0.00221685
0.00221998
0.0022231
0.0022262
0.00222929
0.00223235
0.00223542
0.00223844
0.00224147
0.00224445
0.00224747
0.00225039
0.0022534
0.00225626
0.00225927
0.00226206
0.00226509
0.00226777
0.00227086
0.0022734
0.00227657
0.00227893
0.00228225
0.00228439
0.00228786
0.00228978
0.00229338
0.00229516
0.00229882
0.00230051
0.00230486
0.000423953
0.000541303
0.000723206
0.000960237
0.00120001
0.00141486
0.00159744
0.00174876
0.00187286
0.0019746
0.0020585
0.00212826
0.00218685
0.00223637
0.00227865
0.00231464
0.00234549
0.002372
0.00239486
0.00241463
0.00243177
0.00244669
0.00245975
0.00247122
0.00248139
0.00249047
0.00249864
0.00250608
0.00251292
0.00251927
0.00252523
0.00253088
0.00253628
0.0025415
0.00254656
0.00255152
0.00255639
0.0025612
0.00256596
0.0025707
0.00257541
0.00258012
0.00258482
0.00258952
0.00259422
0.00259893
0.00260364
0.00260836
0.00261308
0.00261781
0.00262255
0.00262729
0.00263204
0.00263679
0.00264154
0.00264629
0.00265105
0.0026558
0.00266056
0.00266531
0.00267006
0.00267481
0.00267956
0.0026843
0.00268904
0.00269377
0.0026985
0.00270323
0.00270795
0.00271266
0.00271737
0.00272207
0.00272676
0.00273145
0.00273613
0.0027408
0.00274546
0.00275011
0.00275475
0.00275938
0.002764
0.0027686
0.0027732
0.00277778
0.00278235
0.00278691
0.00279146
0.00279599
0.00280051
0.00280502
0.00280951
0.00281399
0.00281846
0.00282291
0.00282736
0.00283178
0.0028362
0.0028406
0.00284499
0.00284937
0.00285373
0.00285808
0.00286241
0.00286674
0.00287104
0.00287534
0.00287962
0.00288388
0.00288813
0.00289237
0.00289658
0.00290079
0.00290498
0.00290915
0.0029133
0.00291744
0.00292157
0.00292567
0.00292976
0.00293384
0.00293789
0.00294193
0.00294596
0.00294997
0.00295396
0.00295793
0.00296189
0.00296584
0.00296976
0.00297367
0.00297757
0.00298145
0.00298531
0.00298916
0.00299299
0.00299681
0.00300061
0.0030044
0.00300817
0.00301193
0.00301567
0.00301939
0.0030231
0.00302679
0.00303047
0.00303413
0.00303777
0.0030414
0.00304501
0.00304861
0.00305219
0.00305575
0.0030593
0.00306283
0.00306634
0.00306984
0.00307331
0.00307679
0.00308022
0.00308367
0.00308707
0.00309049
0.00309384
0.00309725
0.00310055
0.00310396
0.00310718
0.00311062
0.00311373
0.00311724
0.00312019
0.00312384
0.00312654
0.00313041
0.00313281
0.00313694
0.00313905
0.00314337
0.00314534
0.00315044
0.00118087
0.00158827
0.00199783
0.00231658
0.00253773
0.00268513
0.0027841
0.00285298
0.00290343
0.00294252
0.00297446
0.00300167
0.00302556
0.00304693
0.00306626
0.00308376
0.00309966
0.00311406
0.00312708
0.00313885
0.00314947
0.00315905
0.00316773
0.0031756
0.00318277
0.00318935
0.00319543
0.00320109
0.0032064
0.00321144
0.00321625
0.00322088
0.00322538
0.00322977
0.00323408
0.00323833
0.00324255
0.00324675
0.00325094
0.00325512
0.00325931
0.00326351
0.00326773
0.00327196
0.00327621
0.00328048
0.00328477
0.00328908
0.00329341
0.00329775
0.00330212
0.00330651
0.00331091
0.00331533
0.00331977
0.00332421
0.00332868
0.00333315
0.00333764
0.00334213
0.00334664
0.00335115
0.00335568
0.00336021
0.00336474
0.00336929
0.00337384
0.00337839
0.00338295
0.00338751
0.00339207
0.00339664
0.0034012
0.00340577
0.00341033
0.0034149
0.00341946
0.00342402
0.00342858
0.00343313
0.00343768
0.00344222
0.00344676
0.00345129
0.00345581
0.00346033
0.00346484
0.00346934
0.00347383
0.00347831
0.00348279
0.00348725
0.00349171
0.00349615
0.00350059
0.00350502
0.00350944
0.00351384
0.00351824
0.00352263
0.003527
0.00353137
0.00353572
0.00354007
0.0035444
0.00354872
0.00355303
0.00355733
0.00356162
0.00356589
0.00357015
0.00357439
0.00357863
0.00358284
0.00358705
0.00359124
0.00359541
0.00359957
0.00360372
0.00360785
0.00361197
0.00361606
0.00362015
0.00362422
0.00362827
0.00363231
0.00363633
0.00364034
0.00364433
0.00364831
0.00365227
0.00365622
0.00366016
0.00366408
0.00366798
0.00367187
0.00367575
0.00367961
0.00368346
0.00368729
0.00369112
0.00369492
0.00369871
0.00370249
0.00370626
0.00371
0.00371374
0.00371746
0.00372116
0.00372486
0.00372853
0.00373219
0.00373584
0.00373947
0.00374309
0.00374669
0.00375028
0.00375386
0.00375742
0.00376097
0.00376449
0.00376803
0.00377152
0.00377503
0.00377848
0.00378199
0.00378538
0.0037889
0.00379222
0.00379579
0.00379898
0.00380266
0.00380563
0.00380954
0.00381218
0.00381642
0.00381866
0.00382322
0.00382527
0.00383062
0.00243568
0.00307611
0.00339646
0.0035507
0.00362035
0.0036514
0.00366559
0.00367345
0.00367912
0.00368421
0.00368931
0.00369462
0.00370018
0.00370596
0.00371189
0.00371786
0.00372389
0.00372981
0.0037356
0.00374125
0.00374673
0.003752
0.00375707
0.00376196
0.00376667
0.00377122
0.00377563
0.00377991
0.00378409
0.00378818
0.00379222
0.0037962
0.00380015
0.00380408
0.003808
0.00381191
0.00381582
0.00381975
0.00382369
0.00382764
0.00383162
0.00383561
0.00383963
0.00384367
0.00384774
0.00385183
0.00385594
0.00386008
0.00386424
0.00386842
0.00387262
0.00387684
0.00388109
0.00388535
0.00388962
0.00389391
0.00389822
0.00390255
0.00390688
0.00391123
0.00391559
0.00391996
0.00392435
0.00392874
0.00393314
0.00393755
0.00394196
0.00394638
0.00395081
0.00395524
0.00395968
0.00396412
0.00396856
0.00397301
0.00397745
0.0039819
0.00398634
0.00399078
0.00399522
0.00399966
0.0040041
0.00400853
0.00401296
0.00401738
0.00402179
0.0040262
0.0040306
0.004035
0.00403939
0.00404377
0.00404814
0.0040525
0.00405685
0.0040612
0.00406554
0.00406986
0.00407418
0.00407849
0.00408279
0.00408708
0.00409136
0.00409563
0.00409989
0.00410413
0.00410837
0.0041126
0.00411682
0.00412102
0.00412522
0.0041294
0.00413357
0.00413773
0.00414187
0.004146
0.00415012
0.00415422
0.00415831
0.00416239
0.00416645
0.00417049
0.00417452
0.00417854
0.00418254
0.00418653
0.0041905
0.00419445
0.00419839
0.00420232
0.00420623
0.00421013
0.00421401
0.00421788
0.00422174
0.00422558
0.00422941
0.00423323
0.00423703
0.00424082
0.0042446
0.00424836
0.00425211
0.00425585
0.00425957
0.00426328
0.00426698
0.00427066
0.00427433
0.00427799
0.00428164
0.00428527
0.00428889
0.00429249
0.00429608
0.00429966
0.00430323
0.00430678
0.00431032
0.00431385
0.00431737
0.00432088
0.00432437
0.00432786
0.00433132
0.00433479
0.00433822
0.00434168
0.00434508
0.00434854
0.00435187
0.00435537
0.00435861
0.00436218
0.00436525
0.00436902
0.00437177
0.00437591
0.00437818
0.00438277
0.00438476
0.0043901
0.0036206
0.00412709
0.00427038
0.00430104
0.00429564
0.0042805
0.00426271
0.00424762
0.00423519
0.00422512
0.00421712
0.00421095
0.00420635
0.00420313
0.0042011
0.00420003
0.00420002
0.00420046
0.00420158
0.00420328
0.00420537
0.00420776
0.0042104
0.00421325
0.00421628
0.00421944
0.00422272
0.00422608
0.00422952
0.00423302
0.00423658
0.00424017
0.00424382
0.00424749
0.0042512
0.00425495
0.00425872
0.00426252
0.00426635
0.0042702
0.00427408
0.00427798
0.00428191
0.00428586
0.00428983
0.00429382
0.00429783
0.00430187
0.00430592
0.00430999
0.00431407
0.00431818
0.0043223
0.00432643
0.00433058
0.00433475
0.00433893
0.00434312
0.00434732
0.00435154
0.00435576
0.00436
0.00436424
0.00436849
0.00437275
0.00437701
0.00438127
0.00438554
0.00438981
0.00439408
0.00439835
0.00440262
0.00440689
0.00441116
0.00441542
0.00441968
0.00442394
0.00442819
0.00443244
0.00443668
0.00444092
0.00444515
0.00444938
0.0044536
0.00445781
0.00446202
0.00446622
0.00447041
0.0044746
0.00447877
0.00448294
0.0044871
0.00449126
0.0044954
0.00449954
0.00450366
0.00450778
0.00451189
0.00451598
0.00452007
0.00452415
0.00452821
0.00453226
0.00453631
0.00454034
0.00454436
0.00454836
0.00455236
0.00455634
0.00456031
0.00456427
0.00456821
0.00457214
0.00457606
0.00457996
0.00458385
0.00458772
0.00459158
0.00459543
0.00459926
0.00460308
0.00460689
0.00461068
0.00461446
0.00461822
0.00462197
0.00462571
0.00462943
0.00463314
0.00463683
0.00464051
0.00464418
0.00464784
0.00465148
0.00465511
0.00465872
0.00466232
0.00466591
0.00466948
0.00467305
0.00467659
0.00468013
0.00468365
0.00468716
0.00469066
0.00469414
0.00469762
0.00470108
0.00470452
0.00470796
0.00471138
0.0047148
0.0047182
0.00472159
0.00472497
0.00472834
0.0047317
0.00473506
0.0047384
0.00474173
0.00474505
0.00474837
0.00475167
0.00475497
0.00475825
0.00476154
0.00476479
0.00476808
0.0047713
0.0047746
0.00477775
0.00478111
0.00478412
0.00478765
0.00479039
0.00479426
0.00479649
0.00480094
0.00480273
0.00480791
0.00394808
0.00418098
0.0042098
0.00418657
0.00414929
0.00411768
0.00409106
0.00406855
0.00404921
0.00403268
0.00401871
0.00400704
0.00399738
0.00398949
0.00398315
0.00397821
0.00397456
0.00397191
0.0039702
0.00396932
0.00396915
0.00396951
0.00397041
0.00397173
0.0039734
0.00397536
0.00397756
0.00397995
0.00398251
0.0039852
0.003988
0.0039909
0.00399387
0.00399691
0.00400001
0.00400316
0.00400635
0.00400958
0.00401285
0.00401614
0.00401946
0.00402281
0.00402617
0.00402955
0.00403294
0.00403634
0.00403975
0.00404315
0.00404655
0.00404995
0.00405334
0.00405672
0.0040601
0.00406347
0.00406684
0.0040702
0.00407356
0.00407692
0.00408029
0.00408367
0.00408706
0.00409047
0.0040939
0.00409734
0.00410081
0.0041043
0.00410781
0.00411134
0.00411488
0.00411843
0.00412199
0.00412555
0.00412911
0.00413265
0.00413617
0.00413967
0.00414315
0.00414658
0.00414998
0.00415334
0.00415666
0.00415994
0.00416317
0.00416637
0.00416953
0.00417266
0.00417577
0.00417886
0.00418194
0.00418502
0.0041881
0.00419119
0.0041943
0.00419743
0.00420059
0.00420377
0.00420699
0.00421025
0.00421353
0.00421684
0.00422018
0.00422354
0.00422692
0.00423031
0.0042337
0.00423708
0.00424046
0.00424382
0.00424715
0.00425045
0.00425371
0.00425694
0.00426011
0.00426325
0.00426633
0.00426937
0.00427235
0.0042753
0.00427819
0.00428105
0.00428388
0.00428667
0.00428943
0.00429218
0.0042949
0.00429762
0.00430033
0.00430303
0.00430574
0.00430845
0.00431117
0.00431389
0.00431663
0.00431938
0.00432213
0.00432491
0.00432769
0.00433048
0.00433328
0.00433609
0.0043389
0.00434172
0.00434454
0.00434736
0.00435018
0.00435299
0.00435579
0.00435859
0.00436137
0.00436414
0.0043669
0.00436964
0.00437236
0.00437507
0.00437775
0.00438041
0.00438305
0.00438567
0.00438827
0.00439085
0.0043934
0.00439594
0.00439845
0.00440095
0.00440343
0.00440589
0.00440833
0.00441078
0.00441318
0.00441563
0.00441799
0.00442047
0.00442275
0.00442535
0.00442746
0.00443033
0.00443205
0.00443546
0.00443664
0.00444088
)
;

boundaryField
{
    upperWall
    {
        type            zeroGradient;
    }
    lowerWall
    {
        type            zeroGradient;
    }
    heatedWall
    {
        type            zeroGradient;
    }
    inlet
    {