/*--------------------------------*- C++ -*----------------------------------*\
  =========                 |
  \\      /  F ield         | OpenFOAM: The Open Source CFD Toolbox
   \\    /   O peration     | Website:  https://openfoam.org
    \\  /    A nd           | Version:  7
     \\/     M anipulation  |
\*---------------------------------------------------------------------------*/
FoamFile
{
    version     2.0;
    format      ascii;
    class       volVectorField;
    location    "0.04";
    object      U_0;
}
// * * * * * * * * * * * * * * * * * * * * * * * * * * * * * * * * * * * * * //

dimensions      [0 1 -1 0 0 0 0];

internalField   nonuniform List<vector> 
1440
(
(11.9935 0.0450316 0)
(11.9514 0.153775 0)
(11.8162 0.2464 0)
(11.5873 0.317539 0)
(11.2882 0.369119 0)
(10.942 0.401736 0)
(10.5673 0.41692 0)
(10.1756 0.417451 0)
(9.7784 0.407496 0)
(9.38392 0.391048 0)
(9.00173 0.369527 0)
(8.63475 0.344833 0)
(8.28481 0.317499 0)
(7.95483 0.288698 0)
(7.64612 0.260054 0)
(7.35923 0.232432 0)
(7.09427 0.206314 0)
(6.85075 0.181942 0)
(6.62804 0.159446 0)
(6.4251 0.138871 0)
(6.2409 0.120197 0)
(6.07423 0.103366 0)
(5.92386 0.0882895 0)
(5.78853 0.0748602 0)
(5.66703 0.0629541 0)
(5.55816 0.0524401 0)
(5.46079 0.0431863 0)
(5.37384 0.0350636 0)
(5.29631 0.0279516 0)
(5.22726 0.0217463 0)
(5.16581 0.016362 0)
(5.11116 0.0117269 0)
(5.06257 0.00777347 0)
(5.01936 0.00442044 0)
(4.98093 0.00158724 0)
(4.94673 -0.000811165 0)
(4.91628 -0.00286973 0)
(4.88916 -0.0046873 0)
(4.86499 -0.00635081 0)
(4.84346 -0.00792145 0)
(4.82428 -0.00939642 0)
(4.80715 -0.0107001 0)
(4.79178 -0.0117191 0)
(4.77787 -0.0123522 0)
(4.7652 -0.0125806 0)
(4.75356 -0.0125047 0)
(4.74282 -0.0123095 0)
(4.73285 -0.0121778 0)
(4.72356 -0.012209 0)
(4.71485 -0.0123851 0)
(4.70665 -0.0125941 0)
(4.69884 -0.012688 0)
(4.69132 -0.0125412 0)
(4.68396 -0.0120833 0)
(4.67659 -0.0113003 0)
(4.66908 -0.0102173 0)
(4.66129 -0.00887866 0)
(4.65312 -0.00733711 0)
(4.6445 -0.00565103 0)
(4.63539 -0.00388432 0)
(4.6258 -0.00210402 0)
(4.61574 -0.000374307 0)
(4.60527 0.00125105 0)
(4.59448 0.0027342 0)
(4.58345 0.00405581 0)
(4.57227 0.00521507 0)
(4.56105 0.00622746 0)
(4.54986 0.00712006 0)
(4.53879 0.00792558 0)
(4.52787 0.00867685 0)
(4.51716 0.00940316 0)
(4.50666 0.010128 0)
(4.49638 0.0108681 0)
(4.48631 0.0116332 0)
(4.47643 0.0124262 0)
(4.4667 0.0132438 0)
(4.4571 0.0140778 0)
(4.44762 0.0149168 0)
(4.43823 0.0157489 0)
(4.42892 0.0165631 0)
(4.41968 0.0173506 0)
(4.4105 0.018105 0)
(4.4014 0.0188223 0)
(4.39237 0.0195006 0)
(4.38343 0.0201402 0)
(4.37459 0.0207431 0)
(4.36586 0.0213124 0)
(4.35724 0.0218509 0)
(4.34875 0.02236 0)
(4.34041 0.0228386 0)
(4.33224 0.0232838 0)
(4.32425 0.0236914 0)
(4.31647 0.024057 0)
(4.30892 0.0243748 0)
(4.30161 0.0246389 0)
(4.29458 0.0248409 0)
(4.28787 0.0249732 0)
(4.28153 0.0250277 0)
(4.27562 0.0250012 0)
(4.27017 0.0248924 0)
(4.26524 0.0247077 0)
(4.26083 0.0244541 0)
(4.25697 0.024146 0)
(4.25367 0.023793 0)
(4.25092 0.0234145 0)
(4.24875 0.0230182 0)
(4.24712 0.0226316 0)
(4.24607 0.0222528 0)
(4.24545 0.0219261 0)
(4.24532 0.0216213 0)
(4.24538 0.0214138 0)
(4.24579 0.0212204 0)
(4.24599 0.0211605 0)
(4.24648 0.0210686 0)
(4.24626 0.021139 0)
(4.24661 0.021076 0)
(4.24562 0.0212389 0)
(4.24584 0.0210372 0)
(4.24443 0.0212122 0)
(4.2444 0.020574 0)
(12.0029 0.0591349 0)
(12.0466 0.157203 0)
(12.1203 0.234027 0)
(12.2112 0.297594 0)
(12.3086 0.353062 0)
(12.4045 0.400632 0)
(12.4929 0.439081 0)
(12.569 0.468327 0)
(12.6297 0.489192 0)
(12.6731 0.502964 0)
(12.6986 0.509928 0)
(12.7073 0.510402 0)
(12.7012 0.505118 0)
(12.6827 0.495112 0)
(12.6534 0.481442 0)
(12.6151 0.465042 0)
(12.5694 0.446651 0)
(12.5178 0.426903 0)
(12.4615 0.406333 0)
(12.4019 0.385388 0)
(12.3398 0.364479 0)
(12.276 0.343894 0)
(12.2113 0.323872 0)
(12.1462 0.304598 0)
(12.0812 0.286203 0)
(12.0166 0.268766 0)
(11.9527 0.252335 0)
(11.8898 0.236926 0)
(11.8279 0.222535 0)
(11.7673 0.209142 0)
(11.708 0.19672 0)
(11.6501 0.185237 0)
(11.5936 0.174662 0)
(11.5385 0.164972 0)
(11.4849 0.156138 0)
(11.4327 0.148116 0)
(11.3821 0.140847 0)
(11.3329 0.134267 0)
(11.2852 0.128306 0)
(11.2389 0.122904 0)
(11.1939 0.117999 0)
(11.1504 0.113532 0)
(11.1082 0.109456 0)
(11.0672 0.105753 0)
(11.0274 0.102412 0)
(10.9888 0.0994099 0)
(10.9514 0.0967021 0)
(10.915 0.0942312 0)
(10.8796 0.0919406 0)
(10.8451 0.089793 0)
(10.8114 0.0877781 0)
(10.7785 0.0859093 0)
(10.7463 0.0842145 0)
(10.7148 0.0827232 0)
(10.684 0.0814557 0)
(10.6537 0.0804176 0)
(10.624 0.0796012 0)
(10.5948 0.0789881 0)
(10.566 0.0785517 0)
(10.5375 0.0782569 0)
(10.5092 0.0780616 0)
(10.4811 0.0779205 0)
(10.4532 0.0777909 0)
(10.4255 0.0776362 0)
(10.3978 0.0774284 0)
(10.3702 0.0771496 0)
(10.3427 0.0767923 0)
(10.3153 0.0763575 0)
(10.288 0.0758509 0)
(10.2608 0.0752808 0)
(10.2337 0.0746593 0)
(10.2069 0.0740044 0)
(10.1802 0.0733383 0)
(10.1538 0.0726808 0)
(10.1277 0.0720423 0)
(10.1019 0.0714217 0)
(10.0765 0.0708126 0)
(10.0514 0.0702103 0)
(10.0269 0.0696165 0)
(10.0028 0.0690348 0)
(9.97923 0.0684654 0)
(9.95623 0.0679019 0)
(9.9338 0.0673354 0)
(9.91197 0.0667621 0)
(9.89075 0.0661858 0)
(9.87015 0.0656128 0)
(9.85018 0.0650443 0)
(9.83084 0.0644736 0)
(9.81212 0.063892 0)
(9.79403 0.0632943 0)
(9.77657 0.0626816 0)
(9.75975 0.0620574 0)
(9.74358 0.0614212 0)
(9.7281 0.0607616 0)
(9.71332 0.0600568 0)
(9.69931 0.0592779 0)
(9.6861 0.0584037 0)
(9.67379 0.0574251 0)
(9.66242 0.0563537 0)
(9.65208 0.0552092 0)
(9.64282 0.0540187 0)
(9.6347 0.0527957 0)
(9.62773 0.051554 0)
(9.62196 0.0502855 0)
(9.61733 0.0490119 0)
(9.61387 0.0477287 0)
(9.61145 0.0465184 0)
(9.6101 0.0453851 0)
(9.6095 0.0444922 0)
(9.60975 0.0437866 0)
(9.61025 0.0434863 0)
(9.61133 0.0433848 0)
(9.61204 0.0437284 0)
(9.61319 0.0441132 0)
(9.61344 0.044842 0)
(9.61417 0.0453445 0)
(9.6138 0.0460751 0)
(9.61398 0.0462808 0)
(9.61338 0.0467325 0)
(9.6131 0.0464182 0)
(12.001 0.0314466 0)
(12.0218 0.091368 0)
(12.0629 0.145524 0)
(12.1223 0.193431 0)
(12.1968 0.235854 0)
(12.2838 0.272875 0)
(12.3811 0.303828 0)
(12.4866 0.327972 0)
(12.5972 0.345134 0)
(12.7097 0.35535 0)
(12.8214 0.359507 0)
(12.9304 0.358822 0)
(13.0358 0.35429 0)
(13.1366 0.346633 0)
(13.2319 0.3365 0)
(13.3211 0.324527 0)
(13.4039 0.31131 0)
(13.4802 0.297358 0)
(13.55 0.283096 0)
(13.6135 0.268858 0)
(13.671 0.254909 0)
(13.7228 0.241452 0)
(13.7693 0.228635 0)
(13.8108 0.216558 0)
(13.8478 0.20528 0)
(13.8806 0.194823 0)
(13.9096 0.185188 0)
(13.9352 0.176352 0)
(13.9575 0.168287 0)
(13.9771 0.160955 0)
(13.994 0.154318 0)
(14.0086 0.148343 0)
(14.0212 0.143 0)
(14.0319 0.138262 0)
(14.041 0.134094 0)
(14.0485 0.130448 0)
(14.0547 0.127262 0)
(14.0598 0.124477 0)
(14.0637 0.122036 0)
(14.0666 0.119901 0)
(14.0686 0.118038 0)
(14.0697 0.116419 0)
(14.0701 0.115028 0)
(14.0697 0.113844 0)
(14.0688 0.112842 0)
(14.0674 0.111983 0)
(14.0654 0.111217 0)
(14.063 0.110493 0)
(14.0601 0.109777 0)
(14.0567 0.109076 0)
(14.0529 0.108423 0)
(14.0485 0.107868 0)
(14.0438 0.107456 0)
(14.0387 0.107216 0)
(14.0331 0.10716 0)
(14.0273 0.10728 0)
(14.0211 0.107558 0)
(14.0146 0.107965 0)
(14.0078 0.108465 0)
(14.0007 0.109015 0)
(13.9933 0.109573 0)
(13.9857 0.110098 0)
(13.9778 0.110552 0)
(13.9696 0.110906 0)
(13.9611 0.111139 0)
(13.9523 0.111242 0)
(13.9433 0.111217 0)
(13.9339 0.111075 0)
(13.9243 0.11083 0)
(13.9145 0.110497 0)
(13.9043 0.110088 0)
(13.894 0.109616 0)
(13.8834 0.109097 0)
(13.8727 0.108548 0)
(13.8618 0.107981 0)
(13.8507 0.107396 0)
(13.8395 0.106787 0)
(13.8282 0.106144 0)
(13.8167 0.105461 0)
(13.8051 0.104738 0)
(13.7935 0.103976 0)
(13.7817 0.103175 0)
(13.7699 0.102331 0)
(13.7581 0.101443 0)
(13.7462 0.100513 0)
(13.7343 0.0995503 0)
(13.7224 0.0985626 0)
(13.7106 0.097553 0)
(13.6988 0.0965145 0)
(13.6871 0.0954319 0)
(13.6756 0.0942919 0)
(13.6642 0.0930879 0)
(13.653 0.0918218 0)
(13.6421 0.0904897 0)
(13.6315 0.0890821 0)
(13.6211 0.0875717 0)
(13.6111 0.0859328 0)
(13.6014 0.0841342 0)
(13.5922 0.0821738 0)
(13.5833 0.080056 0)
(13.5749 0.0778198 0)
(13.567 0.0754977 0)
(13.5597 0.0731354 0)
(13.5529 0.0707671 0)
(13.5466 0.0684221 0)
(13.541 0.0661435 0)
(13.5358 0.063958 0)
(13.5312 0.0619416 0)
(13.527 0.0601327 0)
(13.5234 0.0586313 0)
(13.5201 0.0574655 0)
(13.5175 0.0567057 0)
(13.5152 0.0563108 0)
(13.5135 0.0562371 0)
(13.5119 0.0564232 0)
(13.5109 0.056628 0)
(13.5099 0.057065 0)
(13.5093 0.0571643 0)
(13.5087 0.0575915 0)
(13.5086 0.0574624 0)
(12.0009 0.0223219 0)
(12.0192 0.0659276 0)
(12.0553 0.106461 0)
(12.1077 0.142346 0)
(12.1738 0.173182 0)
(12.2509 0.199158 0)
(12.337 0.220356 0)
(12.4304 0.236669 0)
(12.5292 0.248176 0)
(12.6315 0.255341 0)
(12.7358 0.259056 0)
(12.8406 0.26023 0)
(12.9451 0.25948 0)
(13.0481 0.257163 0)
(13.1489 0.253552 0)
(13.2469 0.248913 0)
(13.3414 0.243502 0)
(13.4321 0.237546 0)
(13.5188 0.231236 0)
(13.6012 0.22472 0)
(13.6794 0.218118 0)
(13.7534 0.211519 0)
(13.8233 0.204999 0)
(13.8893 0.198621 0)
(13.9516 0.192438 0)
(14.0104 0.18648 0)
(14.0659 0.180766 0)
(14.1183 0.17531 0)
(14.1679 0.170122 0)
(14.215 0.16521 0)
(14.2596 0.160576 0)
(14.302 0.15622 0)
(14.3424 0.152137 0)
(14.381 0.148308 0)
(14.418 0.144716 0)
(14.4534 0.14134 0)
(14.4875 0.138162 0)
(14.5203 0.135166 0)
(14.552 0.132336 0)
(14.5825 0.129659 0)
(14.6121 0.127135 0)
(14.6408 0.124776 0)
(14.6686 0.122596 0)
(14.6956 0.120592 0)
(14.7218 0.118749 0)
(14.7474 0.117043 0)
(14.7724 0.115455 0)
(14.7968 0.113975 0)
(14.8207 0.112601 0)
(14.8441 0.111343 0)
(14.8669 0.110214 0)
(14.8892 0.109233 0)
(14.911 0.108422 0)
(14.9323 0.107792 0)
(14.9532 0.107346 0)
(14.9737 0.107078 0)
(14.9938 0.106977 0)
(15.0135 0.107023 0)
(15.033 0.107194 0)
(15.0521 0.107462 0)
(15.071 0.107795 0)
(15.0897 0.108161 0)
(15.108 0.108529 0)
(15.1261 0.108872 0)
(15.144 0.10917 0)
(15.1615 0.109413 0)
(15.1787 0.109593 0)
(15.1956 0.10971 0)
(15.2122 0.109764 0)
(15.2285 0.109753 0)
(15.2444 0.109681 0)
(15.26 0.109555 0)
(15.2753 0.109385 0)
(15.2902 0.10918 0)
(15.3049 0.108948 0)
(15.3192 0.10869 0)
(15.3333 0.1084 0)
(15.347 0.108077 0)
(15.3605 0.107721 0)
(15.3737 0.107334 0)
(15.3867 0.106917 0)
(15.3993 0.106464 0)
(15.4117 0.105968 0)
(15.4239 0.105426 0)
(15.4357 0.104837 0)
(15.4473 0.104209 0)
(15.4587 0.103542 0)
(15.4698 0.102836 0)
(15.4806 0.102087 0)
(15.4912 0.101287 0)
(15.5016 0.100428 0)
(15.5117 0.0995004 0)
(15.5215 0.0984997 0)
(15.5311 0.0974132 0)
(15.5404 0.0962282 0)
(15.5495 0.0949231 0)
(15.5584 0.0934861 0)
(15.5669 0.0919029 0)
(15.5752 0.0901778 0)
(15.5831 0.0883177 0)
(15.5908 0.0863354 0)
(15.5981 0.0842531 0)
(15.6051 0.0820737 0)
(15.6118 0.0798474 0)
(15.6181 0.0775757 0)
(15.6243 0.0753605 0)
(15.6301 0.0731942 0)
(15.6357 0.0712156 0)
(15.641 0.0693791 0)
(15.6463 0.0678508 0)
(15.6514 0.0665453 0)
(15.6567 0.0656441 0)
(15.6616 0.0650252 0)
(15.6672 0.0647422 0)
(15.6721 0.0647333 0)
(15.6785 0.0646931 0)
(15.6827 0.0649451 0)
(15.6906 0.064746 0)
(15.693 0.0649585 0)
(15.704 0.064644 0)
(12.0008 0.0133648 0)
(12.0174 0.0394132 0)
(12.0503 0.0635683 0)
(12.0986 0.0848795 0)
(12.1604 0.103041 0)
(12.2335 0.118219 0)
(12.3156 0.130644 0)
(12.4049 0.140428 0)
(12.4997 0.147692 0)
(12.5983 0.152708 0)
(12.6992 0.155859 0)
(12.8009 0.157491 0)
(12.9023 0.157837 0)
(13.0024 0.157046 0)
(13.1003 0.155246 0)
(13.1955 0.152569 0)
(13.2876 0.149161 0)
(13.3761 0.145172 0)
(13.4608 0.140746 0)
(13.5417 0.136023 0)
(13.6187 0.131128 0)
(13.6919 0.126174 0)
(13.7614 0.12125 0)
(13.8273 0.116436 0)
(13.8899 0.111793 0)
(13.9492 0.107358 0)
(14.0056 0.103152 0)
(14.0593 0.0991875 0)
(14.1103 0.0954663 0)
(14.1591 0.0919868 0)
(14.2056 0.0887443 0)
(14.2502 0.0857328 0)
(14.2931 0.0829452 0)
(14.3343 0.0803716 0)
(14.374 0.0780023 0)
(14.4125 0.0758282 0)
(14.4497 0.0738398 0)
(14.4858 0.0720259 0)
(14.521 0.0703737 0)
(14.5552 0.0688727 0)
(14.5887 0.0675183 0)
(14.6213 0.0663119 0)
(14.6533 0.0652548 0)
(14.6846 0.0643534 0)
(14.7153 0.0636101 0)
(14.7455 0.0630218 0)
(14.7753 0.0625774 0)
(14.8047 0.0622627 0)
(14.8336 0.0620711 0)
(14.8622 0.0619908 0)
(14.8904 0.0620082 0)
(14.9183 0.0621266 0)
(14.9458 0.0623629 0)
(14.973 0.0627321 0)
(15 0.0632421 0)
(15.0267 0.0638937 0)
(15.0533 0.06468 0)
(15.0796 0.0655853 0)
(15.1059 0.0665872 0)
(15.132 0.067659 0)
(15.1581 0.0687718 0)
(15.1841 0.0698963 0)
(15.21 0.0710028 0)
(15.2358 0.0720636 0)
(15.2615 0.0730547 0)
(15.2871 0.0739595 0)
(15.3127 0.074769 0)
(15.3381 0.075481 0)
(15.3634 0.0760968 0)
(15.3885 0.0766198 0)
(15.4135 0.0770547 0)
(15.4384 0.0774097 0)
(15.4631 0.0776962 0)
(15.4876 0.0779269 0)
(15.512 0.0781115 0)
(15.5363 0.0782545 0)
(15.5604 0.0783551 0)
(15.5844 0.0784103 0)
(15.6082 0.078419 0)
(15.6318 0.0783831 0)
(15.6553 0.0783049 0)
(15.6786 0.0781842 0)
(15.7017 0.0780168 0)
(15.7247 0.0777972 0)
(15.7474 0.0775218 0)
(15.77 0.077192 0)
(15.7923 0.0768139 0)
(15.8145 0.0763911 0)
(15.8365 0.0759246 0)
(15.8582 0.0754126 0)
(15.8797 0.0748515 0)
(15.901 0.0742317 0)
(15.922 0.0735448 0)
(15.9427 0.0727833 0)
(15.9631 0.071946 0)
(15.9832 0.0710247 0)
(16.0029 0.0700076 0)
(16.0222 0.0688764 0)
(16.0409 0.0676195 0)
(16.0592 0.0662415 0)
(16.0768 0.0647523 0)
(16.0939 0.0631899 0)
(16.1103 0.0615671 0)
(16.126 0.0599326 0)
(16.1411 0.0582802 0)
(16.1554 0.056665 0)
(16.1691 0.0550849 0)
(16.1822 0.0536217 0)
(16.1946 0.0522878 0)
(16.2067 0.0511702 0)
(16.2181 0.0502496 0)
(16.2295 0.0495835 0)
(16.2401 0.0491162 0)
(16.2515 0.0488229 0)
(16.2612 0.0487415 0)
(16.2737 0.0486242 0)
(16.2819 0.0488233 0)
(16.2966 0.0487783 0)
(16.3016 0.0490656 0)
(16.3213 0.0492069 0)
(12.0008 0.00479759 0)
(12.0165 0.0141012 0)
(12.0477 0.0226705 0)
(12.0939 0.0301782 0)
(12.1536 0.0365329 0)
(12.2247 0.0418421 0)
(12.305 0.046267 0)
(12.3926 0.0499225 0)
(12.4859 0.0528774 0)
(12.5831 0.0551989 0)
(12.6826 0.0569452 0)
(12.7832 0.0581813 0)
(12.8835 0.0589845 0)
(12.9826 0.0594249 0)
(13.0796 0.0595588 0)
(13.1741 0.0594452 0)
(13.2655 0.0591558 0)
(13.3534 0.0587583 0)
(13.4377 0.0583031 0)
(13.5182 0.0578277 0)
(13.595 0.0573614 0)
(13.668 0.0569263 0)
(13.7373 0.0565347 0)
(13.8031 0.056185 0)
(13.8656 0.0558705 0)
(13.9248 0.0555862 0)
(13.9811 0.055328 0)
(14.0345 0.0550897 0)
(14.0854 0.0548626 0)
(14.1339 0.0546384 0)
(14.1803 0.0544116 0)
(14.2246 0.0541787 0)
(14.2672 0.0539378 0)
(14.3081 0.0536878 0)
(14.3476 0.0534289 0)
(14.3858 0.0531621 0)
(14.4227 0.052888 0)
(14.4586 0.052607 0)
(14.4935 0.0523206 0)
(14.5275 0.0520347 0)
(14.5607 0.0517597 0)
(14.5931 0.0515104 0)
(14.6249 0.0512971 0)
(14.6561 0.0511331 0)
(14.6867 0.0510255 0)
(14.7168 0.0509752 0)
(14.7465 0.0509849 0)
(14.7758 0.0510338 0)
(14.8047 0.0511401 0)
(14.8332 0.0513159 0)
(14.8614 0.0515524 0)
(14.8892 0.051856 0)
(14.9168 0.0522389 0)
(14.9441 0.0527092 0)
(14.9712 0.0532694 0)
(14.998 0.0539168 0)
(15.0247 0.0546427 0)
(15.0512 0.0554335 0)
(15.0776 0.0562718 0)
(15.1039 0.0571378 0)
(15.1301 0.0580101 0)
(15.1562 0.0588668 0)
(15.1823 0.0596871 0)
(15.2083 0.0604532 0)
(15.2342 0.0611513 0)
(15.2601 0.0617724 0)
(15.2859 0.0623122 0)
(15.3116 0.0627712 0)
(15.3373 0.0631533 0)
(15.3629 0.0634642 0)
(15.3884 0.0637109 0)
(15.4138 0.0639016 0)
(15.4392 0.0640455 0)
(15.4644 0.0641511 0)
(15.4896 0.0642245 0)
(15.5146 0.0642681 0)
(15.5396 0.0642816 0)
(15.5645 0.064264 0)
(15.5892 0.0642161 0)
(15.6139 0.06414 0)
(15.6384 0.0640372 0)
(15.6628 0.0639065 0)
(15.6871 0.0637437 0)
(15.7113 0.0635431 0)
(15.7353 0.063303 0)
(15.7591 0.0630268 0)
(15.7828 0.0627208 0)
(15.8063 0.0623917 0)
(15.8297 0.0620382 0)
(15.8529 0.0616472 0)
(15.8758 0.0612127 0)
(15.8986 0.0607365 0)
(15.9211 0.0602193 0)
(15.9434 0.0596624 0)
(15.9654 0.0590723 0)
(15.987 0.0584487 0)
(16.0083 0.057781 0)
(16.0291 0.0570495 0)
(16.0495 0.0562412 0)
(16.0693 0.0553606 0)
(16.0886 0.054428 0)
(16.1072 0.0534775 0)
(16.1252 0.0525281 0)
(16.1425 0.051595 0)
(16.1592 0.0506634 0)
(16.1751 0.0497303 0)
(16.1903 0.0487968 0)
(16.205 0.0479023 0)
(16.2189 0.0471133 0)
(16.2325 0.0464867 0)
(16.2453 0.046062 0)
(16.2582 0.045811 0)
(16.27 0.0457077 0)
(16.2829 0.0456508 0)
(16.2937 0.0457056 0)
(16.3074 0.045658 0)
(16.3165 0.0458846 0)
(16.3325 0.045847 0)
(16.338 0.0462249 0)
(16.3592 0.0461608 0)
(12.0008 -0.00348714 0)
(12.0163 -0.0103659 0)
(12.0473 -0.0169475 0)
(12.0933 -0.023015 0)
(12.1529 -0.0283981 0)
(12.2239 -0.0329747 0)
(12.3042 -0.0366423 0)
(12.392 -0.0393354 0)
(12.4853 -0.0410595 0)
(12.5826 -0.0418911 0)
(12.6822 -0.0419434 0)
(12.7828 -0.0413183 0)
(12.8832 -0.0400899 0)
(12.9824 -0.0383192 0)
(13.0795 -0.0360703 0)
(13.1741 -0.0334148 0)
(13.2655 -0.0304277 0)
(13.3535 -0.0271853 0)
(13.4379 -0.0237694 0)
(13.5184 -0.0202682 0)
(13.5951 -0.0167747 0)
(13.668 -0.013374 0)
(13.7371 -0.0101391 0)
(13.8027 -0.00714035 0)
(13.8649 -0.00443191 0)
(13.9239 -0.00204113 0)
(13.98 2.80948e-05 0)
(14.0332 0.00178675 0)
(14.0838 0.00325479 0)
(14.1322 0.00445847 0)
(14.1783 0.00542777 0)
(14.2225 0.00619285 0)
(14.2649 0.00678201 0)
(14.3057 0.00722155 0)
(14.3451 0.0075367 0)
(14.3831 0.00775086 0)
(14.42 0.00788432 0)
(14.4557 0.00795393 0)
(14.4906 0.00797485 0)
(14.5245 0.00796354 0)
(14.5577 0.00793906 0)
(14.5901 0.00792082 0)
(14.6219 0.00793177 0)
(14.653 0.00798668 0)
(14.6836 0.00809671 0)
(14.7138 0.0082677 0)
(14.7434 0.00849112 0)
(14.7727 0.00877971 0)
(14.8016 0.00910812 0)
(14.8302 0.00946695 0)
(14.8584 0.00988967 0)
(14.8862 0.0103946 0)
(14.9138 0.0109823 0)
(14.9411 0.0116519 0)
(14.9682 0.0124045 0)
(14.995 0.0132379 0)
(15.0217 0.0141446 0)
(15.0481 0.0151131 0)
(15.0745 0.0161286 0)
(15.1007 0.0171738 0)
(15.1267 0.0182293 0)
(15.1527 0.0192762 0)
(15.1786 0.0202975 0)
(15.2045 0.0212789 0)
(15.2302 0.0222083 0)
(15.2559 0.0230758 0)
(15.2815 0.0238754 0)
(15.307 0.0246053 0)
(15.3325 0.0252673 0)
(15.3579 0.0258659 0)
(15.3832 0.0264062 0)
(15.4084 0.0268939 0)
(15.4336 0.0273344 0)
(15.4587 0.0277334 0)
(15.4836 0.0280955 0)
(15.5085 0.0284243 0)
(15.5333 0.0287222 0)
(15.558 0.0289907 0)
(15.5826 0.0292309 0)
(15.6071 0.0294434 0)
(15.6314 0.0296279 0)
(15.6557 0.0297826 0)
(15.6798 0.0299047 0)
(15.7038 0.0299927 0)
(15.7276 0.0300465 0)
(15.7513 0.0300708 0)
(15.7748 0.0300696 0)
(15.7981 0.0300434 0)
(15.8213 0.0299961 0)
(15.8443 0.0299153 0)
(15.8671 0.0297945 0)
(15.8897 0.0296427 0)
(15.9121 0.0294746 0)
(15.9342 0.0293039 0)
(15.956 0.0291389 0)
(15.9775 0.0289778 0)
(15.9986 0.0288082 0)
(16.0194 0.0286151 0)
(16.0396 0.0283928 0)
(16.0594 0.0281514 0)
(16.0785 0.0279125 0)
(16.0971 0.0276963 0)
(16.115 0.0275084 0)
(16.1323 0.0273348 0)
(16.1489 0.0271484 0)
(16.1648 0.0269262 0)
(16.1801 0.0266747 0)
(16.1948 0.0264293 0)
(16.2089 0.026245 0)
(16.2225 0.0261558 0)
(16.2355 0.0261553 0)
(16.2485 0.0262159 0)
(16.2605 0.0262621 0)
(16.2735 0.0262885 0)
(16.2845 0.026269 0)
(16.2983 0.0262446 0)
(16.3074 0.0263359 0)
(16.3233 0.0264211 0)
(16.3286 0.0266891 0)
(16.3498 0.0269369 0)
(12.0008 -0.0118176 0)
(12.0169 -0.0350638 0)
(12.0489 -0.0570691 0)
(12.0964 -0.0770476 0)
(12.1577 -0.0945287 0)
(12.2306 -0.109303 0)
(12.3129 -0.121262 0)
(12.4025 -0.130355 0)
(12.4977 -0.136655 0)
(12.5967 -0.140384 0)
(12.6979 -0.141853 0)
(12.7998 -0.141393 0)
(12.9014 -0.139307 0)
(13.0017 -0.135862 0)
(13.0998 -0.131299 0)
(13.1952 -0.125842 0)
(13.2874 -0.119702 0)
(13.3759 -0.113076 0)
(13.4607 -0.106135 0)
(13.5415 -0.0990393 0)
(13.6184 -0.0919177 0)
(13.6914 -0.0848795 0)
(13.7605 -0.0780227 0)
(13.826 -0.0714322 0)
(13.8881 -0.0651783 0)
(13.9469 -0.0593129 0)
(14.0027 -0.0538682 0)
(14.0557 -0.0488602 0)
(14.1062 -0.0442915 0)
(14.1543 -0.0401548 0)
(14.2003 -0.0364334 0)
(14.2444 -0.0331036 0)
(14.2867 -0.0301367 0)
(14.3275 -0.0275022 0)
(14.3668 -0.0251688 0)
(14.4048 -0.0231059 0)
(14.4417 -0.0212835 0)
(14.4775 -0.0196725 0)
(14.5124 -0.0182447 0)
(14.5464 -0.0169713 0)
(14.5796 -0.0158233 0)
(14.6121 -0.0147728 0)
(14.6439 -0.0137887 0)
(14.6752 -0.0128474 0)
(14.7059 -0.011929 0)
(14.7361 -0.0110192 0)
(14.7658 -0.0101168 0)
(14.7952 -0.00920157 0)
(14.8241 -0.00830326 0)
(14.8526 -0.00742688 0)
(14.8808 -0.00653555 0)
(14.9087 -0.00561337 0)
(14.9363 -0.00466194 0)
(14.9637 -0.00368116 0)
(14.9907 -0.00266837 0)
(15.0175 -0.00162391 0)
(15.0441 -0.000551987 0)
(15.0706 0.000540898 0)
(15.0968 0.0016456 0)
(15.1229 0.00274925 0)
(15.1488 0.00383589 0)
(15.1746 0.00488915 0)
(15.2003 0.00589514 0)
(15.2259 0.00684353 0)
(15.2514 0.00772665 0)
(15.2768 0.00853817 0)
(15.3021 0.0092731 0)
(15.3274 0.00992923 0)
(15.3525 0.010509 0)
(15.3776 0.0110195 0)
(15.4026 0.0114707 0)
(15.4275 0.011872 0)
(15.4524 0.01223 0)
(15.4771 0.0125488 0)
(15.5018 0.0128321 0)
(15.5264 0.0130853 0)
(15.5509 0.013315 0)
(15.5752 0.0135274 0)
(15.5995 0.0137256 0)
(15.6236 0.0139091 0)
(15.6476 0.0140738 0)
(15.6715 0.0142152 0)
(15.6952 0.0143316 0)
(15.7188 0.0144238 0)
(15.7422 0.0144962 0)
(15.7655 0.0145533 0)
(15.7886 0.0145977 0)
(15.8115 0.0146291 0)
(15.8342 0.0146407 0)
(15.8568 0.0146459 0)
(15.8791 0.0146506 0)
(15.9013 0.014655 0)
(15.9231 0.0146675 0)
(15.9448 0.0147046 0)
(15.9661 0.0147717 0)
(15.9871 0.0148665 0)
(16.0078 0.0149795 0)
(16.0281 0.0151059 0)
(16.0479 0.0152516 0)
(16.0672 0.0154335 0)
(16.0859 0.0156756 0)
(16.1041 0.015978 0)
(16.1216 0.0163345 0)
(16.1385 0.0167021 0)
(16.1548 0.0170606 0)
(16.1705 0.0173687 0)
(16.1855 0.0176475 0)
(16.1999 0.0179205 0)
(16.2136 0.0182673 0)
(16.227 0.0187023 0)
(16.2397 0.0191967 0)
(16.2525 0.0196481 0)
(16.2644 0.0200235 0)
(16.2772 0.0202975 0)
(16.2881 0.0204762 0)
(16.3015 0.0206771 0)
(16.3104 0.0208492 0)
(16.3259 0.021134 0)
(16.3311 0.0213589 0)
(16.3521 0.0217422 0)
(12.0009 -0.0204781 0)
(12.0181 -0.0606466 0)
(12.0524 -0.0985499 0)
(12.1031 -0.132913 0)
(12.1681 -0.163031 0)
(12.2449 -0.188545 0)
(12.3313 -0.209211 0)
(12.4253 -0.224926 0)
(12.5248 -0.235833 0)
(12.6279 -0.242318 0)
(12.733 -0.244909 0)
(12.8386 -0.244183 0)
(12.9436 -0.240693 0)
(13.047 -0.234955 0)
(13.1479 -0.227462 0)
(13.2457 -0.218678 0)
(13.3399 -0.209014 0)
(13.4302 -0.198824 0)
(13.5162 -0.188391 0)
(13.598 -0.177942 0)
(13.6754 -0.167646 0)
(13.7486 -0.157635 0)
(13.8176 -0.14801 0)
(13.8827 -0.138843 0)
(13.944 -0.130187 0)
(14.0018 -0.122079 0)
(14.0563 -0.114541 0)
(14.1078 -0.107584 0)
(14.1566 -0.101204 0)
(14.2029 -0.0953874 0)
(14.2468 -0.0901128 0)
(14.2887 -0.0853502 0)
(14.3288 -0.0810645 0)
(14.3671 -0.0772172 0)
(14.4039 -0.0737696 0)
(14.4392 -0.0706834 0)
(14.4734 -0.0679231 0)
(14.5063 -0.065456 0)
(14.5383 -0.0632462 0)
(14.5693 -0.061255 0)
(14.5994 -0.0594448 0)
(14.6287 -0.0577815 0)
(14.6573 -0.0562392 0)
(14.6852 -0.0547906 0)
(14.7124 -0.0534128 0)
(14.7391 -0.0520859 0)
(14.7652 -0.050787 0)
(14.7908 -0.0495198 0)
(14.8159 -0.0482549 0)
(14.8405 -0.0469666 0)
(14.8647 -0.0456589 0)
(14.8885 -0.0443338 0)
(14.9119 -0.0429886 0)
(14.9349 -0.0416219 0)
(14.9576 -0.0402342 0)
(14.98 -0.0388277 0)
(15.0021 -0.0374072 0)
(15.024 -0.0359806 0)
(15.0456 -0.0345594 0)
(15.0669 -0.0331576 0)
(15.0881 -0.0317905 0)
(15.1091 -0.0304717 0)
(15.1299 -0.0292127 0)
(15.1505 -0.0280222 0)
(15.171 -0.0269075 0)
(15.1914 -0.025875 0)
(15.2116 -0.0249287 0)
(15.2317 -0.0240676 0)
(15.2517 -0.0232855 0)
(15.2715 -0.0225722 0)
(15.2912 -0.0219167 0)
(15.3108 -0.0213099 0)
(15.3303 -0.0207449 0)
(15.3496 -0.0202168 0)
(15.3688 -0.0197199 0)
(15.3878 -0.0192467 0)
(15.4067 -0.0187902 0)
(15.4254 -0.0183461 0)
(15.4439 -0.0179137 0)
(15.4623 -0.017496 0)
(15.4805 -0.0170967 0)
(15.4985 -0.016717 0)
(15.5163 -0.0163559 0)
(15.5339 -0.0160117 0)
(15.5513 -0.015682 0)
(15.5684 -0.0153668 0)
(15.5854 -0.0150664 0)
(15.6022 -0.0147811 0)
(15.6187 -0.0145149 0)
(15.6351 -0.0142492 0)
(15.6512 -0.0139682 0)
(15.667 -0.0136605 0)
(15.6826 -0.0133142 0)
(15.6979 -0.0129126 0)
(15.713 -0.0124514 0)
(15.7278 -0.0119235 0)
(15.7422 -0.0113295 0)
(15.7564 -0.0106591 0)
(15.7701 -0.00990481 0)
(15.7834 -0.00905594 0)
(15.7962 -0.00810933 0)
(15.8086 -0.00709747 0)
(15.8205 -0.00603223 0)
(15.832 -0.00497228 0)
(15.8431 -0.00390194 0)
(15.8537 -0.0029014 0)
(15.8638 -0.00193078 0)
(15.8735 -0.00105482 0)
(15.8828 -0.000193009 0)
(15.892 0.000559755 0)
(15.9008 0.00129333 0)
(15.9097 0.00186445 0)
(15.9181 0.00241889 0)
(15.9272 0.00286063 0)
(15.9349 0.00328898 0)
(15.9447 0.00382169 0)
(15.9512 0.00403953 0)
(15.9629 0.00467545 0)
(15.9669 0.00456341 0)
(15.9829 0.00527061 0)
(12.001 -0.029757 0)
(12.0202 -0.0871611 0)
(12.0586 -0.140353 0)
(12.1153 -0.188405 0)
(12.1881 -0.23098 0)
(12.2745 -0.267574 0)
(12.3718 -0.297617 0)
(12.4771 -0.320853 0)
(12.5873 -0.337459 0)
(12.6994 -0.347877 0)
(12.811 -0.352649 0)
(12.9199 -0.352428 0)
(13.0246 -0.347839 0)
(13.1241 -0.33952 0)
(13.2174 -0.328164 0)
(13.304 -0.314477 0)
(13.3839 -0.299127 0)
(13.457 -0.282711 0)
(13.5234 -0.265744 0)
(13.5835 -0.248661 0)
(13.6376 -0.23183 0)
(13.6861 -0.215548 0)
(13.7295 -0.200042 0)
(13.7681 -0.18547 0)
(13.8024 -0.17193 0)
(13.8327 -0.159476 0)
(13.8596 -0.148122 0)
(13.8832 -0.137849 0)
(13.904 -0.128617 0)
(13.9223 -0.120366 0)
(13.9383 -0.113024 0)
(13.9522 -0.106513 0)
(13.9643 -0.100753 0)
(13.9747 -0.0956616 0)
(13.9837 -0.0911609 0)
(13.9913 -0.0871727 0)
(13.9976 -0.0836291 0)
(14.0029 -0.0804808 0)
(14.0071 -0.0776779 0)
(14.0105 -0.0751676 0)
(14.013 -0.0728989 0)
(14.0147 -0.0708274 0)
(14.0158 -0.0689145 0)
(14.0162 -0.0671275 0)
(14.0161 -0.0654387 0)
(14.0154 -0.0638233 0)
(14.0142 -0.062263 0)
(14.0127 -0.0607417 0)
(14.0107 -0.0592328 0)
(14.0084 -0.0577295 0)
(14.0057 -0.0562386 0)
(14.0028 -0.0547534 0)
(13.9997 -0.0532586 0)
(13.9964 -0.0517451 0)
(13.9929 -0.0502121 0)
(13.9893 -0.0486643 0)
(13.9856 -0.0471083 0)
(13.9818 -0.0455522 0)
(13.9781 -0.0440052 0)
(13.9743 -0.0424788 0)
(13.9706 -0.0409875 0)
(13.9669 -0.0395469 0)
(13.9633 -0.0381706 0)
(13.9598 -0.0368678 0)
(13.9563 -0.0356434 0)
(13.953 -0.0344998 0)
(13.9498 -0.0334379 0)
(13.9466 -0.0324566 0)
(13.9435 -0.0315517 0)
(13.9406 -0.0307141 0)
(13.9377 -0.0299332 0)
(13.9349 -0.0291977 0)
(13.9321 -0.0284991 0)
(13.9294 -0.0278309 0)
(13.9268 -0.0271867 0)
(13.9242 -0.0265583 0)
(13.9216 -0.0259373 0)
(13.919 -0.0253176 0)
(13.9165 -0.0246969 0)
(13.9139 -0.0240772 0)
(13.9113 -0.0234639 0)
(13.9087 -0.0228607 0)
(13.9061 -0.0222685 0)
(13.9035 -0.02169 0)
(13.9009 -0.0211287 0)
(13.8982 -0.0205836 0)
(13.8956 -0.0200576 0)
(13.8929 -0.0195524 0)
(13.8902 -0.0190602 0)
(13.8875 -0.0185839 0)
(13.8849 -0.0181166 0)
(13.8822 -0.0176407 0)
(13.8797 -0.0171458 0)
(13.8772 -0.0166198 0)
(13.8747 -0.0160484 0)
(13.8724 -0.0154062 0)
(13.8702 -0.0146804 0)
(13.8681 -0.0138552 0)
(13.8661 -0.0129284 0)
(13.8642 -0.0118868 0)
(13.8625 -0.0107407 0)
(13.8609 -0.00950931 0)
(13.8595 -0.00821524 0)
(13.8583 -0.00687772 0)
(13.8572 -0.00550431 0)
(13.8564 -0.00416481 0)
(13.8557 -0.00289109 0)
(13.8553 -0.00173 0)
(13.8551 -0.000629019 0)
(13.8552 0.000336731 0)
(13.8556 0.00121441 0)
(13.8563 0.00190093 0)
(13.8571 0.00248836 0)
(13.8584 0.00282132 0)
(13.8596 0.00312092 0)
(13.8617 0.00319778 0)
(13.8631 0.0032498 0)
(13.8662 0.00322856 0)
(13.8673 0.00311964 0)
(13.8719 0.00307718 0)
(12.0022 -0.0492935 0)
(12.0395 -0.137137 0)
(12.1047 -0.213227 0)
(12.1876 -0.279968 0)
(12.2777 -0.338034 0)
(12.3657 -0.386284 0)
(12.4442 -0.423872 0)
(12.5079 -0.45095 0)
(12.5539 -0.468501 0)
(12.5811 -0.477635 0)
(12.5904 -0.479471 0)
(12.5829 -0.475151 0)
(12.5606 -0.46566 0)
(12.5256 -0.451922 0)
(12.48 -0.434852 0)
(12.4258 -0.415296 0)
(12.3646 -0.394005 0)
(12.2983 -0.371619 0)
(12.2284 -0.348694 0)
(12.1559 -0.325701 0)
(12.0819 -0.303027 0)
(12.0074 -0.281007 0)
(11.9329 -0.259881 0)
(11.859 -0.239822 0)
(11.786 -0.220956 0)
(11.7143 -0.203354 0)
(11.6441 -0.187046 0)
(11.5756 -0.172028 0)
(11.5087 -0.158269 0)
(11.4436 -0.145715 0)
(11.3802 -0.134301 0)
(11.3185 -0.123953 0)
(11.2586 -0.11459 0)
(11.2002 -0.106134 0)
(11.1435 -0.0985061 0)
(11.0883 -0.0916268 0)
(11.0345 -0.0854192 0)
(10.9822 -0.0798011 0)
(10.9312 -0.0746995 0)
(10.8816 -0.0700565 0)
(10.8333 -0.0658223 0)
(10.7863 -0.0619501 0)
(10.7404 -0.0583953 0)
(10.6958 -0.0551172 0)
(10.6523 -0.0520805 0)
(10.61 -0.049258 0)
(10.5688 -0.0466243 0)
(10.5287 -0.0441557 0)
(10.4898 -0.0418335 0)
(10.4519 -0.0396445 0)
(10.4152 -0.0375794 0)
(10.3796 -0.0356221 0)
(10.345 -0.0337564 0)
(10.3116 -0.0319742 0)
(10.2793 -0.0302693 0)
(10.2482 -0.0286381 0)
(10.2181 -0.0270798 0)
(10.1891 -0.0255957 0)
(10.1613 -0.0241898 0)
(10.1346 -0.0228674 0)
(10.1089 -0.0216342 0)
(10.0842 -0.020495 0)
(10.0606 -0.0194526 0)
(10.038 -0.0185076 0)
(10.0162 -0.0176579 0)
(9.99533 -0.0168995 0)
(9.97526 -0.0162265 0)
(9.95595 -0.0156306 0)
(9.93734 -0.0151012 0)
(9.91937 -0.0146276 0)
(9.90201 -0.0141986 0)
(9.88521 -0.0138044 0)
(9.86894 -0.013437 0)
(9.85317 -0.0130885 0)
(9.83788 -0.0127506 0)
(9.82305 -0.0124171 0)
(9.80867 -0.0120847 0)
(9.79474 -0.0117528 0)
(9.78125 -0.0114212 0)
(9.7682 -0.0110902 0)
(9.75559 -0.0107611 0)
(9.7434 -0.0104355 0)
(9.73163 -0.0101167 0)
(9.72027 -0.00980975 0)
(9.70931 -0.00951929 0)
(9.69874 -0.00924381 0)
(9.68854 -0.00897738 0)
(9.67869 -0.00872244 0)
(9.66917 -0.00849376 0)
(9.65997 -0.008294 0)
(9.65106 -0.00809678 0)
(9.64245 -0.00787596 0)
(9.63414 -0.00762474 0)
(9.62614 -0.00734139 0)
(9.61846 -0.00702069 0)
(9.61115 -0.00665501 0)
(9.60423 -0.00624194 0)
(9.59776 -0.00578019 0)
(9.59178 -0.0052713 0)
(9.58634 -0.00470782 0)
(9.58148 -0.00409223 0)
(9.57727 -0.00343057 0)
(9.57372 -0.00275994 0)
(9.57088 -0.00210075 0)
(9.5687 -0.00150828 0)
(9.56722 -0.000983067 0)
(9.5663 -0.000584543 0)
(9.56598 -0.000255708 0)
(9.56599 -4.94466e-05 0)
(9.56657 0.000140733 0)
(9.56731 0.000235115 0)
(9.56862 0.00033853 0)
(9.56983 0.000319934 0)
(9.57155 0.000271345 0)
(9.57283 0.000118824 0)
(9.57471 6.72114e-06 0)
(9.57584 -0.000157663 0)
(9.57791 -0.000222561 0)
(9.57866 -0.000320067 0)
(9.58132 -0.000482448 0)
(11.9797 -0.0359578 0)
(11.8807 -0.134867 0)
(11.6841 -0.225593 0)
(11.4011 -0.297717 0)
(11.0537 -0.349514 0)
(10.6623 -0.380706 0)
(10.2436 -0.392958 0)
(9.81038 -0.389183 0)
(9.37422 -0.373389 0)
(8.94301 -0.348621 0)
(8.52578 -0.318338 0)
(8.12534 -0.285536 0)