/*--------------------------------*- C++ -*----------------------------------*\
  =========                 |
  \\      /  F ield         | OpenFOAM: The Open Source CFD Toolbox
   \\    /   O peration     | Website:  https://openfoam.org
    \\  /    A nd           | Version:  7
     \\/     M anipulation  |
\*---------------------------------------------------------------------------*/
FoamFile
{
    version     2.0;
    format      ascii;
    class       volScalarField;
    location    "0.11";
    object      alphat;
}
// * * * * * * * * * * * * * * * * * * * * * * * * * * * * * * * * * * * * * //

dimensions      [1 -1 -1 0 0 0 0];

internalField   nonuniform List<scalar> 
4950
(
0.0110865
0.0118084
0.0118408
0.0118577
0.01186
0.011867
0.0118655
0.0118697
0.0118671
0.0118698
0.0118672
0.0118693
0.0118669
0.0118687
0.0118667
0.0118683
0.0118675
0.0118686
0.0118711
0.011905
0.00583727
0.00614681
0.00605906
0.00588677
0.00580699
0.0057929
0.0057874
0.0057879
0.00578566
0.0057864
0.00578428
0.0057849
0.00578288
0.00578343
0.00578151
0.00578208
0.00578018
0.0057814
0.00581015
0.00588437
0.00461209
0.00504083
0.00509917
0.00509537
0.00508372
0.00507964
0.00507518
0.00507432
0.00507181
0.00507185
0.00506977
0.00506989
0.00506791
0.00506803
0.00506611
0.00506633
0.00506437
0.00506516
0.00506583
0.00508077
0.00449877
0.00493527
0.00502182
0.00504407
0.00504477
0.00504548
0.00504184
0.00504157
0.00503928
0.00503952
0.00503743
0.00503766
0.00503558
0.00503581
0.0050338
0.0050339
0.00503264
0.00503152
0.0050332
0.00503864
0.00448463
0.00492708
0.00501618
0.00504037
0.00504174
0.00504232
0.00503827
0.0050375
0.00503499
0.00503499
0.0050329
0.00503298
0.005031
0.00503106
0.00502918
0.00502916
0.00502778
0.00502693
0.00502825
0.00503422
0.00449877
0.00493527
0.00502182
0.00504407
0.00504477
0.00504548
0.00504184
0.00504157
0.00503928
0.00503952
0.00503743
0.00503766
0.00503558
0.00503581
0.0050338
0.00503389
0.00503266
0.00503148
0.0050333
0.00503846
0.00461209
0.00504083
0.00509917
0.00509537
0.00508372
0.00507964
0.00507518
0.00507432
0.00507181
0.00507185
0.00506977
0.00506989
0.00506791
0.00506802
0.00506612
0.0050663
0.00506444
0.00506501
0.00506617
0.00507991
0.00583727
0.00614681
0.00605906
0.00588677
0.00580699
0.0057929
0.0057874
0.0057879
0.00578566
0.00578639
0.00578428
0.0057849
0.00578288
0.00578342
0.00578153
0.00578202
0.00578032
0.00578094
0.00581109
0.00588144
0.0110865
0.0118084
0.0118408
0.0118577
0.01186
0.011867
0.0118655
0.0118697
0.0118671
0.0118698
0.0118672
0.0118693
0.0118669
0.0118687
0.0118667
0.0118683
0.0118674
0.0118688
0.0118709
0.011904
0.00432528
0.00518233
0.00529394
0.00528689
0.00528721
0.00528065
0.00528399
0.00528042
0.00528311
0.00528027
0.00528211
0.00527983
0.00528109
0.00527913
0.00528017
0.00527799
0.00527843
0.00527719
0.00526509
0.00530079
0.0037049
0.00464431
0.00480346
0.00482081
0.0048153
0.00481214
0.00480912
0.00480902
0.00480813
0.00480859
0.00480816
0.00480856
0.0048083
0.0048086
0.00480833
0.00480897
0.00480824
0.00481085
0.0048104
0.00482197
0.00361148
0.00453376
0.00470026
0.00473297
0.00473451
0.00473593
0.00473346
0.00473427
0.00473308
0.00473405
0.00473338
0.00473419
0.00473372
0.00473436
0.00473402
0.00473471
0.00473445
0.00473491
0.00473393
0.00474345
0.0036153
0.0045375
0.00470366
0.00473754
0.00474001
0.00474152
0.00473909
0.00473981
0.00473875
0.00473961
0.00473906
0.00473972
0.0047394
0.00473984
0.00473968
0.00474021
0.0047403
0.00474051
0.00474063
0.00474951
0.00360693
0.00452665
0.00469367
0.00472814
0.00473081
0.0047325
0.00472996
0.00473079
0.00472959
0.00473058
0.0047299
0.00473072
0.00473022
0.00473088
0.00473052
0.00473126
0.00473124
0.00473169
0.00473085
0.00473895
0.0036153
0.0045375
0.00470366
0.00473754
0.00474001
0.00474152
0.00473909
0.00473981
0.00473875
0.00473961
0.00473906
0.00473971
0.00473939
0.00473983
0.00473966
0.0047402
0.00474031
0.00474054
0.00474069
0.00474941
0.00361148
0.00453376
0.00470026
0.00473297
0.00473451
0.00473592
0.00473346
0.00473427
0.00473308
0.00473405
0.00473338
0.00473419
0.00473372
0.00473437
0.00473403
0.00473475
0.00473467
0.00473495
0.00473408
0.00474302
0.0037049
0.00464431
0.00480346
0.00482081
0.0048153
0.00481214
0.00480912
0.00480902
0.00480813
0.00480859
0.00480816
0.00480856
0.00480831
0.0048086
0.00480835
0.00480891
0.00480838
0.0048105
0.00481087
0.00482026
0.00432528
0.00518233
0.00529394
0.00528689
0.00528721
0.00528065
0.00528399
0.00528042
0.00528311
0.00528027
0.00528211
0.00527983
0.00528109
0.00527913
0.00528019
0.00527793
0.00527867
0.00527656
0.00526674
0.00529692
0.00109458
0.00166954
0.00177744
0.0018002
0.0017977
0.00180061
0.00180028
0.00180403
0.00180482
0.00180835
0.00180935
0.00181257
0.00181364
0.00181666
0.00181766
0.00182075
0.00182028
0.00182555
0.00181467
0.00183971
0.000538376
0.000973078
0.00107341
0.00108942
0.00108521
0.00108309
0.00108032
0.00108028
0.0010793
0.00107938
0.00107883
0.00107883
0.00107845
0.00107844
0.00107833
0.00107835
0.00107787
0.00108043
0.00107909
0.00109118
0.000496304
0.000910885
0.00101105
0.00104047
0.00104014
0.00104179
0.00103913
0.00103986
0.00103809
0.00103859
0.00103734
0.00103758
0.00103669
0.00103676
0.00103619
0.00103618
0.00103576
0.00103574
0.00103438
0.00103796
0.000501973
0.000925171
0.00102935
0.00105901
0.00105984
0.00106126
0.00105898
0.00105925
0.00105788
0.00105801
0.00105719
0.00105715
0.00105649
0.00105641
0.00105618
0.00105598
0.00105583
0.00105518
0.00105553
0.00105892
0.000495064
0.000910237
0.00101023
0.00104004
0.00103978
0.00104146
0.00103874
0.00103947
0.00103767
0.00103818
0.0010369
0.00103715
0.00103624
0.0010363
0.00103571
0.0010357
0.0010352
0.00103519
0.00103368
0.00103694
0.000501973
0.000925171
0.00102935
0.00105901
0.00105984
0.00106126
0.00105898
0.00105925
0.00105788
0.00105801
0.00105719
0.00105715
0.00105648
0.0010564
0.00105617
0.00105598
0.00105583
0.00105518
0.00105553
0.00105891
0.000496304
0.000910885
0.00101105
0.00104047
0.00104014
0.00104179
0.00103913
0.00103986
0.00103809
0.00103859
0.00103734
0.00103758
0.00103669
0.00103676
0.0010362
0.00103619
0.00103577
0.00103575
0.00103439
0.00103791
0.000538376
0.000973078
0.00107341
0.00108941
0.00108521
0.00108309
0.00108032
0.00108028
0.0010793
0.00107938
0.00107883
0.00107883
0.00107845
0.00107844
0.00107833
0.00107833
0.0010779
0.00108029
0.00107916
0.00109066
0.00109458
0.00166954
0.00177744
0.0018002
0.0017977
0.00180061
0.00180028
0.00180403
0.00180482
0.00180835
0.00180935
0.00181257
0.00181364
0.00181665
0.0018177
0.00182064
0.00182058
0.00182497
0.00181588
0.00183768
0.00432528
0.00518233
0.00529394
0.00528689
0.00528721
0.00528065
0.00528399
0.00528042
0.00528311
0.00528027
0.00528211
0.00527983
0.00528109
0.00527913
0.00528017
0.00527799
0.00527843
0.00527719
0.00526509
0.00530079
0.0037049
0.00464431
0.00480346
0.00482081
0.0048153
0.00481214
0.00480912
0.00480902
0.00480813
0.00480859
0.00480816
0.00480856
0.0048083
0.0048086
0.00480833
0.00480897
0.00480824
0.00481085
0.0048104
0.00482197
0.00361148
0.00453376
0.00470026
0.00473297
0.00473451
0.00473592
0.00473346
0.00473427
0.00473308
0.00473405
0.00473338
0.00473419
0.00473372
0.00473436
0.00473402
0.00473471
0.00473445
0.00473491
0.00473393
0.00474345
0.0036153
0.0045375
0.00470366
0.00473754
0.00474001
0.00474152
0.00473909
0.00473981
0.00473875
0.00473961
0.00473906
0.00473972
0.0047394
0.00473983
0.00473967
0.0047402
0.0047403
0.0047405
0.00474062
0.0047495
0.00360693
0.00452665
0.00469367
0.00472814
0.00473081
0.0047325
0.00472996
0.00473079
0.00472959
0.00473058
0.0047299
0.00473072
0.00473022
0.00473088
0.00473052
0.00473125
0.00473125
0.00473169
0.00473085
0.00473895
0.0036153
0.0045375
0.00470366
0.00473754
0.00474001
0.00474152
0.00473909
0.00473981
0.00473875
0.00473961
0.00473906
0.00473971
0.00473939
0.00473983
0.00473966
0.0047402
0.00474031
0.00474054
0.00474069
0.00474941
0.00361148
0.00453376
0.00470026
0.00473297
0.00473451
0.00473593
0.00473346
0.00473427
0.00473308
0.00473405
0.00473338
0.00473419
0.00473371
0.00473436
0.00473403
0.00473474
0.00473468
0.00473496
0.00473408
0.00474302
0.0037049
0.00464431
0.00480346
0.00482081
0.0048153
0.00481214
0.00480912
0.00480902
0.00480813
0.00480859
0.00480816
0.00480856
0.0048083
0.00480859
0.00480835
0.00480891
0.00480838
0.0048105
0.00481087
0.00482026
0.00432528
0.00518233
0.00529394
0.00528689
0.00528721
0.00528065
0.00528399
0.00528042
0.00528311
0.00528027
0.00528211
0.00527983
0.00528109
0.00527913
0.00528019
0.00527793
0.00527867
0.00527656
0.00526674
0.00529692
0.0110865
0.0118084
0.0118408
0.0118577
0.01186
0.011867
0.0118655
0.0118697
0.0118671
0.0118698
0.0118672
0.0118693
0.0118669
0.0118687
0.0118667
0.0118683
0.0118675
0.0118686
0.0118711
0.011905
0.00583727
0.00614681
0.00605906
0.00588677
0.00580699
0.0057929
0.0057874
0.0057879
0.00578566
0.00578639
0.00578428
0.0057849
0.00578288
0.00578343
0.00578151
0.00578208
0.00578018
0.0057814
0.00581015
0.00588437
0.00461209
0.00504083
0.00509917
0.00509537
0.00508372
0.00507964
0.00507518
0.00507432
0.00507181
0.00507185
0.00506977
0.00506989
0.00506791
0.00506802
0.00506611
0.00506633
0.00506437
0.00506516
0.00506583
0.00508077
0.00449877
0.00493527
0.00502182
0.00504407
0.00504477
0.00504548
0.00504184
0.00504157
0.00503928
0.00503952
0.00503743
0.00503766
0.00503558
0.00503581
0.0050338
0.0050339
0.00503264
0.00503152
0.0050332
0.00503864
0.00448463
0.00492708
0.00501618
0.00504037
0.00504174
0.00504232
0.00503827
0.0050375
0.00503499
0.00503499
0.0050329
0.00503298
0.005031
0.00503106
0.00502918
0.00502916
0.00502778
0.00502693
0.00502825
0.00503422
0.00449877
0.00493527
0.00502182
0.00504407
0.00504477
0.00504548
0.00504184
0.00504157
0.00503928
0.00503952
0.00503743
0.00503766
0.00503558
0.00503581
0.0050338
0.00503389
0.00503266
0.00503148
0.0050333
0.00503846
0.00461209
0.00504083
0.00509917
0.00509537
0.00508372
0.00507964
0.00507518
0.00507432
0.00507181
0.00507185
0.00506977
0.00506989
0.00506791
0.00506802
0.00506612
0.0050663
0.00506444
0.00506501
0.00506617
0.00507991
0.00583727
0.00614681
0.00605906
0.00588677
0.00580699
0.0057929
0.0057874
0.0057879
0.00578566
0.00578639
0.00578428
0.0057849
0.00578288
0.00578342
0.00578153
0.00578202
0.00578032
0.00578094
0.00581109
0.00588144
0.0110865
0.0118084
0.0118408
0.0118577
0.01186
0.011867
0.0118655
0.0118697
0.0118671
0.0118698
0.0118672
0.0118693
0.0118669
0.0118687
0.0118667
0.0118683
0.0118674
0.0118688
0.0118709
0.011904
0.0345267
0.0346997
0.0346964
0.0346971
0.0346911
0.0346904
0.0346848
0.0346846
0.0346804
0.0346795
0.0346751
0.034675
0.0346718
0.0346702
0.0346647
0.0346632
0.0346602
0.0346585
0.0346523
0.0346492
0.0346465
0.0346458
0.0346403
0.0346363
0.0346331
0.034634
0.034631
0.0346267
0.0346215
0.034622
0.034622
0.0346201
0.0346132
0.0346102
0.0346106
0.0346127
0.0346084
0.0346022
0.0345978
0.0346004
0.0346019
0.034599
0.0345904
0.0345861
0.0345877
0.0345919
0.0345889
0.0345805
0.0345724
0.0345725
0.0345765
0.0345764
0.0345664
0.034552
0.034543
0.0345396
0.0345372
0.0345202
0.0344949
0.0344595
0.0344364
0.0344109
0.0343909
0.0343519
0.0343097
0.0342704
0.0342448
0.0342525
0.0342526
0.0342824
0.0342768
0.0343087
0.0343219
0.0343659
0.0344023
0.0344197
0.0344251
0.034396
0.0343691
0.0343615
0.0343561
0.0344023
0.0344104
0.0344365
0.034427
0.0343954
0.0343832
0.0343579
0.0343624
0.0343876
0.0201295
0.0206673
0.020663
0.020671
0.0206568
0.0206627
0.0206495
0.020655
0.0206435
0.0206482
0.0206373
0.0206421
0.0206325
0.0206361
0.0206257
0.0206291
0.0206206
0.0206236
0.0206137
0.0206158
0.0206082
0.0206114
0.0206026
0.0206036
0.0205965
0.0206001
0.0205932
0.0205936
0.0205858
0.0205887
0.0205841
0.0205853
0.0205769
0.0205772
0.0205731
0.0205763
0.0205696
0.0205676
0.0205611
0.0205639
0.0205609
0.0205603
0.0205516
0.02055
0.0205472
0.0205503
0.0205449
0.0205405
0.0205322
0.0205324
0.0205312
0.020531
0.0205217
0.0205132
0.0205046
0.0205022
0.0204977
0.0204876
0.0204703
0.0204498
0.0204346
0.0204204
0.0204084
0.0203876
0.0203651
0.0203459
0.020336
0.0203463
0.0203553
0.0203826
0.0203931
0.0204251
0.0204484
0.0204899
0.0205268
0.0205544
0.0205724
0.0205731
0.0205716
0.0205845
0.0205942
0.0206382
0.0206558
0.0206889
0.020694
0.0206925
0.0206931
0.020694
0.020701
0.0207382
0.0165971
0.0173809
0.0173891
0.0174016
0.0173779
0.0173864
0.0173648
0.0173727
0.017353
0.0173597
0.017341
0.0173475
0.0173302
0.0173352
0.0173177
0.0173222
0.0173066
0.0173103
0.0172938
0.0172965
0.0172823
0.0172855
0.0172704
0.0172714
0.0172581
0.017261
0.017248
0.0172478
0.0172343
0.0172361
0.0172252
0.0172252
0.0172113
0.0172104
0.0172004
0.0172013
0.0171891
0.0171856
0.0171738
0.0171742
0.0171652
0.0171622
0.0171485
0.0171448
0.0171364
0.0171362
0.0171253
0.0171187
0.0171057
0.0171031
0.017096
0.0170925
0.0170786
0.0170682
0.0170556
0.0170505
0.0170413
0.0170296
0.0170105
0.016991
0.0169753
0.016962
0.0169502
0.0169322
0.0169135
0.016899
0.0168929
0.0169046
0.0169146
0.0169405
0.0169507
0.0169812
0.0170016
0.0170395
0.0170703
0.0170949
0.0171097
0.0171115
0.0171119
0.0171256
0.0171365
0.0171769
0.0171924
0.0172228
0.0172268
0.0172285
0.0172307
0.0172347
0.0172467
0.0172867
0.0160233
0.0169307
0.0169599
0.0169761
0.0169486
0.0169573
0.0169325
0.0169406
0.0169177
0.0169245
0.0169027
0.016909
0.0168887
0.0168934
0.0168729
0.0168769
0.0168585
0.0168615
0.0168422
0.0168441
0.0168272
0.0168294
0.0168117
0.0168118
0.0167958
0.0167976
0.016782
0.0167807
0.0167646
0.0167652
0.0167518
0.0167504
0.0167341
0.0167319
0.0167194
0.0167189
0.0167041
0.0166993
0.0166851
0.016684
0.0166726
0.0166682
0.0166522
0.0166471
0.0166363
0.0166346
0.0166215
0.0166134
0.0165984
0.0165943
0.0165851
0.01658
0.0165642
0.0165526
0.0165383
0.0165319
0.016521
0.0165082
0.0164879
0.0164678
0.0164514
0.0164375
0.0164251
0.016407
0.0163885
0.0163742
0.0163685
0.0163801
0.01639
0.0164155
0.0164254
0.0164554
0.0164749
0.0165121
0.0165415
0.0165652
0.0165788
0.0165804
0.0165804
0.0165938
0.0166042
0.0166436
0.0166582
0.0166878
0.0166911
0.0166928
0.0166948
0.0166989
0.0167115
0.0167634
0.0159819
0.0168712
0.0169021
0.0169189
0.0168906
0.0168993
0.0168737
0.0168817
0.016858
0.0168646
0.0168421
0.0168482
0.0168272
0.0168316
0.0168104
0.0168142
0.016795
0.0167978
0.0167777
0.0167794
0.0167617
0.0167637
0.0167452
0.016745
0.0167284
0.0167299
0.0167135
0.0167119
0.0166952
0.0166953
0.0166813
0.0166795
0.0166626
0.01666
0.0166468
0.016646
0.0166306
0.0166254
0.0166106
0.0166091
0.016597
0.0165923
0.0165757
0.0165703
0.0165589
0.0165568
0.0165431
0.0165347
0.0165192
0.0165148
0.016505
0.0164996
0.0164834
0.0164714
0.0164567
0.01645
0.0164387
0.0164256
0.0164051
0.0163848
0.0163681
0.0163541
0.0163416
0.0163234
0.0163049
0.0162907
0.0162849
0.0162965
0.0163064
0.0163318
0.0163417
0.0163716
0.016391
0.0164281
0.0164571
0.0164808
0.0164942
0.0164957
0.0164957
0.0165091
0.0165194
0.0165587
0.0165731
0.0166025
0.0166058
0.0166076
0.0166096
0.0166138
0.0166273
0.0166735
0.0160232
0.0169325
0.0169628
0.0169792
0.0169516
0.0169604
0.0169355
0.0169436
0.0169207
0.0169275
0.0169057
0.0169119
0.0168916
0.0168963
0.0168758
0.0168798
0.0168613
0.0168644
0.016845
0.0168469
0.01683
0.0168322
0.0168144
0.0168145
0.0167985
0.0168003
0.0167846
0.0167834
0.0167673
0.0167678
0.0167544
0.016753
0.0167366
0.0167344
0.0167219
0.0167214
0.0167066
0.0167017
0.0166875
0.0166864
0.0166749
0.0166705
0.0166545
0.0166494
0.0166386
0.0166369
0.0166237
0.0166156
0.0166006
0.0165965
0.0165872
0.0165822
0.0165663
0.0165547
0.0165403
0.0165339
0.016523
0.0165101
0.0164899
0.0164697
0.0164532
0.0164393
0.016427
0.0164088
0.0163902
0.016376
0.0163702
0.0163818
0.0163916
0.0164172
0.016427
0.016457
0.0164765
0.0165137
0.016543
0.0165668
0.0165804
0.0165819
0.0165819
0.0165953
0.0166057
0.0166451
0.0166596
0.0166891
0.0166924
0.0166942
0.0166961
0.0167002
0.0167128
0.0167644
0.0165948
0.0173846
0.0173941
0.017407
0.0173833
0.0173918
0.0173701
0.017378
0.0173582
0.017365
0.0173462
0.0173527
0.0173354
0.0173404
0.0173228
0.0173273
0.0173116
0.0173154
0.0172988
0.0173015
0.0172872
0.0172904
0.0172753
0.0172763
0.0172629
0.0172659
0.0172528
0.0172526
0.017239
0.0172408
0.01723
0.0172298
0.017216
0.017215
0.017205
0.0172059
0.0171936
0.0171901
0.0171783
0.0171786
0.0171696
0.0171666
0.0171529
0.0171492
0.0171406
0.0171404
0.0171295
0.0171228
0.0171098
0.0171071
0.0171
0.0170964
0.0170825
0.0170721
0.0170594
0.0170543
0.0170451
0.0170333
0.0170142
0.0169946
0.0169789
0.0169655
0.0169537
0.0169356
0.0169169
0.0169023
0.0168962
0.0169079
0.0169178
0.0169437
0.0169538
0.0169842
0.0170046
0.0170425
0.0170732
0.0170977
0.0171124
0.0171142
0.0171144
0.017128
0.0171388
0.0171791
0.0171945
0.0172248
0.0172288
0.0172303
0.0172324
0.0172364
0.0172482
0.0172885
0.0201253
0.0206746
0.0206717
0.0206796
0.0206652
0.0206712
0.0206578
0.0206635
0.0206518
0.0206566
0.0206455
0.0206504
0.0206407
0.0206444
0.0206339
0.0206374
0.0206288
0.0206319
0.0206219
0.0206241
0.0206164
0.0206197
0.0206108
0.0206119
0.0206047
0.0206084
0.0206015
0.0206019
0.020594
0.020597
0.0205923
0.0205936
0.0205851
0.0205856
0.0205814
0.0205846
0.0205779
0.020576
0.0205694
0.0205723
0.0205693
0.0205687
0.0205599
0.0205584
0.0205556
0.0205587
0.0205533
0.0205489
0.0205406
0.0205409
0.0205397
0.0205395
0.0205302
0.0205217
0.0205132
0.0205108
0.0205063
0.0204962
0.0204789
0.0204584
0.0204433
0.0204291
0.0204171
0.0203963
0.0203738
0.0203547
0.0203448
0.0203551
0.0203642
0.0203914
0.0204019
0.0204337
0.0204569
0.0204981
0.0205348
0.0205621
0.02058
0.0205804
0.0205787
0.0205914
0.020601
0.0206447
0.0206622
0.0206951
0.0207
0.0206984
0.0206988
0.0206998
0.0207063
0.0207441
0.0345867
0.034771
0.0347683
0.0347692
0.0347631
0.0347626
0.0347569
0.0347569
0.0347526
0.0347519
0.0347473
0.0347474
0.0347441
0.0347426
0.034737
0.0347356
0.0347326
0.0347308
0.0347246
0.0347216
0.0347188
0.0347181
0.0347126
0.0347086
0.0347055
0.0347064
0.0347033
0.0346991
0.0346939
0.0346945
0.0346945
0.0346926
0.0346857
0.0346828
0.0346831
0.0346854
0.034681
0.0346748
0.0346705
0.0346732
0.0346747
0.0346718
0.0346632
0.0346591
0.0346607
0.034665
0.034662
0.0346536
0.0346455
0.0346458
0.0346499
0.0346497
0.0346396
0.0346252
0.0346163
0.0346129
0.0346103
0.0345931
0.0345674
0.0345315
0.034508
0.0344817
0.0344608
0.0344203
0.0343767
0.0343356
0.0343083
0.0343143
0.0343124
0.0343404
0.0343329
0.0343638
0.0343758
0.0344197
0.0344556
0.0344729
0.0344779
0.0344485
0.0344214
0.0344136
0.034408
0.0344543
0.034462
0.0344883
0.0344785
0.0344471
0.0344351
0.03441
0.034415
0.0344406
0.0167718
0.0170768
0.0170788
0.0170853
0.0170804
0.0170846
0.0170785
0.0170831
0.017077
0.0170812
0.0170747
0.0170792
0.0170732
0.0170768
0.0170696
0.0170732
0.0170674
0.0170706
0.0170633
0.0170658
0.0170605
0.0170641
0.0170575
0.0170593
0.0170542
0.0170584
0.0170535
0.0170548
0.0170491
0.0170529
0.01705
0.0170522
0.0170459
0.0170476
0.0170453
0.0170494
0.0170446
0.0170443
0.0170399
0.017044
0.0170426
0.0170435
0.0170371
0.0170374
0.0170365
0.0170409
0.0170375
0.0170352
0.0170295
0.0170318
0.0170325
0.0170341
0.0170275
0.0170221
0.0170169
0.0170175
0.0170161
0.0170099
0.0169981
0.016984
0.0169765
0.01697
0.0169676
0.0169571
0.0169483
0.0169435
0.0169503
0.0169762
0.0170003
0.0170418
0.0170638
0.0171097
0.0171403
0.0171922
0.0172309
0.0172648
0.0172843
0.0172916
0.0172958
0.0173165
0.0173325
0.0173822
0.0174
0.0174368
0.0174403
0.0174447
0.0174467
0.0174539
0.0174682
0.0175057
0.0156968
0.0163258
0.0163442
0.0163466
0.016342
0.0163433
0.0163384
0.0163398
0.0163351
0.0163359
0.0163308
0.0163318
0.0163272
0.0163273
0.0163215
0.0163213
0.0163167
0.0163163
0.0163102
0.0163088
0.0163042
0.0163039
0.0162981
0.0162958
0.016291
0.0162909
0.0162864
0.0162837
0.0162779
0.0162771
0.0162741
0.0162723
0.0162659
0.016263
0.01626
0.0162598
0.0162549
0.0162504
0.016245
0.0162445
0.0162423
0.0162394
0.0162322
0.0162281
0.0162256
0.0162258
0.0162216
0.0162156
0.0162083
0.0162058
0.0162046
0.0162024
0.0161946
0.0161847
0.0161764
0.0161711
0.0161658
0.0161541
0.0161367
0.0161139
0.0160946
0.0160743
0.0160543
0.0160256
0.0159914
0.0159575
0.0159262
0.0159102
0.0158923
0.0158876
0.0158728
0.0158701
0.0158685
0.0158755
0.0158909
0.0158934
0.0158965
0.0158798
0.0158637
0.0158542
0.0158463
0.0158618
0.0158679
0.0158789
0.0158806
0.0158655
0.015861
0.0158488
0.0158498
0.0158648
0.0149402
0.015681
0.0157251
0.0157282
0.0157254
0.0157251
0.0157223
0.015722
0.0157195
0.0157186
0.0157158
0.0157151
0.0157129
0.0157114
0.0157079
0.0157063
0.0157038
0.0157021
0.015698
0.0156954
0.0156928
0.0156913
0.0156875
0.0156842
0.0156812
0.0156803
0.0156775
0.015674
0.01567
0.0156686
0.0156671
0.0156648
0.0156601
0.0156568
0.0156553
0.0156547
0.0156514
0.0156467
0.015643
0.0156422
0.0156416
0.0156386
0.0156331
0.015629
0.0156281
0.0156283
0.0156257
0.01562
0.0156145
0.0156123
0.0156126
0.0156108
0.0156047
0.0155956
0.015589
0.0155845
0.0155808
0.0155701
0.0155546
0.0155333
0.0155159
0.0154968
0.0154784
0.0154511
0.0154186
0.0153859
0.0153556
0.0153396
0.0153217
0.015316
0.0153001
0.0152956
0.015292
0.0152963
0.0153089
0.0153084
0.0153089
0.0152897
0.0152716
0.0152591
0.0152488
0.0152602
0.0152635
0.0152703
0.0152695
0.0152511
0.0152446
0.0152292
0.0152273
0.0152371
0.0148847
0.0155952
0.01564
0.0156429
0.0156404
0.0156396
0.0156373
0.0156366
0.0156347
0.0156335
0.0156314
0.0156305
0.0156289
0.0156273
0.0156244
0.0156227
0.015621
0.0156192
0.0156159
0.0156133
0.0156115
0.0156101
0.015607
0.0156038
0.0156015
0.0156007
0.0155986
0.0155953
0.015592
0.0155908
0.0155901
0.0155879
0.0155839
0.0155809
0.0155801
0.0155798
0.0155771
0.0155727
0.0155696
0.0155692
0.0155692
0.0155665
0.0155617
0.0155579
0.0155575
0.0155581
0.0155561
0.0155508
0.0155458
0.015544
0.0155448
0.0155434
0.0155379
0.0155292
0.0155232
0.015519
0.0155159
0.0155056
0.0154907
0.0154698
0.0154529
0.0154344
0.0154165
0.0153896
0.0153577
0.0153254
0.0152956
0.01528
0.0152624
0.0152571
0.0152415
0.0152373
0.0152339
0.0152384
0.015251
0.0152506
0.0152512
0.0152321
0.015214
0.0152016
0.0151913
0.0152026
0.0152057
0.0152123
0.0152114
0.0151929
0.0151863
0.0151707
0.0151682
0.015181
0.0147787
0.0155302
0.0155797
0.0155833
0.0155808
0.0155802
0.0155779
0.0155773
0.0155755
0.0155743
0.0155723
0.0155714
0.0155698
0.0155682
0.0155655
0.0155638
0.0155621
0.0155604
0.0155572
0.0155546
0.0155528
0.0155514
0.0155484
0.0155453
0.0155431
0.0155423
0.0155403
0.0155371
0.0155339
0.0155327
0.015532
0.0155299
0.015526
0.015523
0.0155223
0.015522
0.0155194
0.0155151
0.015512
0.0155116
0.0155117
0.0155091
0.0155043
0.0155006
0.0155003
0.0155009
0.015499
0.0154937
0.0154888
0.015487
0.0154879
0.0154865
0.015481
0.0154724
0.0154664
0.0154623
0.0154592
0.015449
0.0154342
0.0154134
0.0153966
0.0153781
0.0153603
0.0153336
0.0153017
0.0152696
0.0152399
0.0152244
0.0152069
0.0152016
0.0151861
0.0151819
0.0151785
0.0151829
0.0151955
0.0151952
0.0151958
0.0151767
0.0151587
0.0151463
0.0151361
0.0151473
0.0151505
0.0151571
0.0151561
0.0151376
0.0151311
0.0151155
0.0151136
0.0151241
0.014884
0.015595
0.0156402
0.0156432
0.0156406
0.0156399
0.0156375
0.0156368
0.0156349
0.0156337
0.0156316
0.0156307
0.0156291
0.0156275
0.0156247
0.015623
0.0156213
0.0156195
0.0156162
0.0156136
0.0156118
0.0156104
0.0156073
0.0156041
0.0156019
0.015601
0.015599
0.0155957
0.0155924
0.0155912
0.0155905
0.0155883
0.0155843
0.0155813
0.0155805
0.0155802
0.0155775
0.0155731
0.0155701
0.0155696
0.0155696
0.015567
0.0155621
0.0155584
0.0155581
0.0155586
0.0155566
0.0155513
0.0155463
0.0155445
0.0155454
0.0155439
0.0155384
0.0155298
0.0155237
0.0155196
0.0155164
0.0155061
0.0154913
0.0154704
0.0154535
0.0154349
0.015417
0.0153902
0.0153582
0.0153259
0.0152961
0.0152806
0.015263
0.0152576
0.0152421
0.0152378
0.0152344
0.0152389
0.0152515
0.0152512
0.0152517
0.0152326
0.0152146
0.0152021
0.0151918
0.0152031
0.0152063
0.0152129
0.0152119
0.0151934
0.0151868
0.0151712
0.0151686
0.0151813
0.0149372
0.0156804
0.0157251
0.0157282
0.0157254
0.0157251
0.0157222
0.0157219
0.0157194
0.0157186
0.0157158
0.0157151
0.0157128
0.0157114
0.0157079
0.0157063
0.0157039
0.0157022
0.0156981
0.0156956
0.015693
0.0156916
0.0156878
0.0156845
0.0156816
0.0156806
0.0156779
0.0156744
0.0156705
0.015669
0.0156677
0.0156653
0.0156606
0.0156574
0.015656
0.0156554
0.0156521
0.0156474
0.0156437
0.015643
0.0156424
0.0156395
0.015634
0.0156299
0.015629
0.0156293
0.0156267
0.015621
0.0156155
0.0156133
0.0156137
0.0156119
0.0156058
0.0155968
0.0155902
0.0155857
0.015582
0.0155713
0.0155559
0.0155346
0.0155171
0.0154981
0.0154797
0.0154524
0.0154199
0.0153872
0.0153569
0.015341
0.0153231
0.0153174
0.0153015
0.0152971
0.0152935
0.0152978
0.0153103
0.0153099
0.0153104
0.0152911
0.015273
0.0152605
0.0152502
0.0152616
0.0152649
0.0152716
0.0152708
0.0152524
0.0152459
0.0152304
0.0152287
0.0152385
0.015693
0.0163298
0.0163494
0.0163517
0.0163469
0.0163482
0.0163432
0.0163445
0.0163398
0.0163406
0.0163355
0.0163364
0.0163318
0.016332
0.0163261
0.016326
0.0163214
0.0163211
0.0163149
0.0163136
0.016309
0.0163088
0.016303
0.0163007
0.0162959
0.0162959
0.0162914
0.0162887
0.016283
0.0162823
0.0162793
0.0162776
0.0162712
0.0162684
0.0162654
0.0162653
0.0162604
0.0162559
0.0162506
0.0162501
0.0162481
0.0162452
0.0162381
0.0162339
0.0162315
0.0162317
0.0162277
0.0162216
0.0162145
0.016212
0.0162109
0.0162087
0.0162009
0.0161911
0.0161828
0.0161776
0.0161724
0.0161607
0.0161433
0.0161206
0.0161014
0.0160811
0.0160611
0.0160325
0.0159983
0.0159645
0.0159332
0.0159173
0.0158995
0.0158949
0.01588
0.0158774
0.0158758
0.0158828
0.0158982
0.0159007
0.0159038
0.0158871
0.015871
0.0158614
0.0158535
0.015869
0.0158751
0.015886
0.0158877
0.0158726
0.015868
0.0158559
0.0158568
0.0158719
0.0168
0.017124
0.017128
0.0171339
0.0171288
0.0171327
0.0171264
0.0171309
0.0171246
0.0171288
0.0171221
0.0171266
0.0171204
0.017124
0.0171166
0.0171202
0.0171143
0.0171176
0.0171101
0.0171127
0.0171074
0.017111
0.0171043
0.0171062
0.0171011
0.0171054
0.0171004
0.0171018
0.017096
0.0170999
0.0170969
0.0170992
0.0170929
0.0170946
0.0170923
0.0170965
0.0170917
0.0170914
0.017087
0.0170912
0.0170899
0.0170908
0.0170843
0.0170848
0.0170839
0.0170884
0.0170849
0.0170827
0.017077
0.0170794
0.0170801
0.0170818
0.0170751
0.0170697
0.0170645
0.0170651
0.0170638
0.0170575
0.0170456
0.0170314
0.0170237
0.017017
0.0170143
0.0170034
0.0169942
0.0169889
0.0169951
0.0170206
0.017044
0.0170851
0.0171065
0.0171521
0.0171823
0.0172342
0.0172727
0.0173066
0.017326
0.0173333
0.0173374
0.0173581
0.0173741
0.0174239
0.0174416
0.0174786
0.0174821
0.0174867
0.0174888
0.0174962
0.0175108
0.0175495
0.00721616
0.00760511
0.00761183
0.00763162
0.00762312
0.00764049
0.00762791
0.00764551
0.00763035
0.00764724
0.00763011
0.0076463
0.00762814
0.00764275
0.00762348
0.00763714
0.00761824
0.00763054
0.00761099
0.00762219
0.00760392
0.00761446
0.00759584
0.00760484
0.00758763
0.00759676
0.00757972
0.0075867
0.00757011
0.00757758
0.00756244
0.00756804
0.00755189
0.00755695
0.00754316
0.00754813
0.00753318
0.00753565
0.00752178
0.0075257
0.00751296
0.00751424
0.00749971
0.00750086
0.00748944
0.00749132
0.00747831
0.00747662
0.00746357
0.00746391
0.00745352
0.00745215
0.00743843
0.00743425
0.00742282
0.00742163
0.00741236
0.00740785
0.00739632
0.00739135
0.00738728
0.00738943
0.00739307
0.0073978
0.00740743
0.00742449
0.00745271
0.00749352
0.00753468
0.00758792
0.00762829
0.00768887
0.00773206
0.00779529
0.00783666
0.00788494
0.00791487
0.00794912
0.00797757
0.00802378
0.00806021
0.00812217
0.00815037
0.00820287
0.00821731
0.00825334
0.00827022
0.00830661
0.00833586
0.00838492
0.00584521
0.00645926
0.00648776
0.00649001
0.00648409
0.00648529
0.00647877
0.00647992
0.00647302
0.00647386
0.00646654
0.00646728
0.00646008
0.0064603
0.00645264
0.00645254
0.00644542
0.00644503
0.00643739
0.0064364
0.00642938
0.0064286
0.00642123
0.00641949
0.00641261
0.00641156
0.00640489
0.00640266
0.00639564
0.00639399
0.00638814
0.00638594
0.00637892
0.00637619
0.00637059
0.00636875
0.00636253
0.00635893
0.00635268
0.00635048
0.00634559
0.00634238
0.00633573
0.00633198
0.00632728
0.00632514
0.00631996
0.0063154
0.00630918
0.0063059
0.00630207
0.00629886
0.00629265
0.00628656
0.00628024
0.00627587
0.00627081
0.00626403
0.00625454
0.00624366
0.00623357
0.00622366
0.00621342
0.00620046
0.00618509
0.00617026
0.00615615
0.00614811
0.00613927
0.00613561
0.00612817
0.00612541
0.00612322
0.00612433
0.00612878
0.00612852
0.00612872
0.00612164
0.00611496
0.00611095
0.00610776
0.00611332
0.00611569
0.00612007
0.00612109
0.00611613
0.00611509
0.00611166
0.00611247
0.0061211
0.00522495
0.00587116
0.00592562
0.00592858
0.00592706
0.00592662
0.00592491
0.00592441
0.00592266
0.00592193
0.00592001
0.00591934
0.00591759
0.00591662
0.00591443
0.0059134
0.00591162
0.00591053
0.00590819
0.00590677
0.00590499
0.00590397
0.00590175
0.00590006
0.0058982
0.00589733
0.00589556
0.00589378
0.0058916
0.00589054
0.00588934
0.00588793
0.00588557
0.00588384
0.0058827
0.00588195
0.00588014
0.00587791
0.005876
0.0058752
0.00587445
0.00587287
0.00587038
0.00586841
0.0058676
0.00586722
0.00586586
0.00586334
0.00586093
0.0058597
0.00585944
0.00585838
0.00585582
0.00585215
0.00584941
0.00584742
0.00584578
0.00584156
0.00583567
0.00582761
0.005821
0.00581381
0.00580684
0.00579665
0.00578456
0.00577238
0.00576105
0.00575491
0.005748
0.00574552
0.00573934
0.0057372
0.00573543
0.00573645
0.00574052
0.00573981
0.00573953
0.00573205
0.005725
0.00571993
0.00571579
0.00571935
0.00572011
0.00572202
0.00572138
0.0057141
0.00571147
0.00570537
0.00570439
0.00570771
0.00522188
0.00584721
0.00590556
0.00590533
0.00590521
0.00590219
0.00590154
0.00589875
0.00589798
0.00589546
0.00589439
0.00589238
0.00589129
0.0058894
0.00588783
0.00588618
0.00588503
0.00588357
0.00588186
0.00588025
0.00587911
0.00587804
0.00587649
0.00587485
0.00587365
0.00587291
0.00587181
0.00587023
0.00586871
0.00586789
0.00586734
0.00586623
0.0058645
0.00586308
0.00586255
0.00586213
0.00586092
0.00585905
0.00585771
0.00585727
0.00585707
0.00585586
0.00585391
0.00585231
0.00585199
0.00585197
0.00585109
0.00584895
0.00584699
0.00584613
0.00584629
0.0058456
0.00584346
0.00584016
0.00583782
0.00583617
0.00583492