/*--------------------------------*- C++ -*----------------------------------*\
  =========                 |
  \\      /  F ield         | OpenFOAM: The Open Source CFD Toolbox
   \\    /   O peration     | Website:  https://openfoam.org
    \\  /    A nd           | Version:  7
     \\/     M anipulation  |
\*---------------------------------------------------------------------------*/
FoamFile
{
    version     2.0;
    format      ascii;
    class       volScalarField;
    location    "0.4975";
    object      nut;
}
// * * * * * * * * * * * * * * * * * * * * * * * * * * * * * * * * * * * * * //

dimensions      [0 2 -1 0 0 0 0];

internalField   nonuniform List<scalar> 
4950
(
0.00877057
0.00934497
0.00936638
0.00937655
0.00937441
0.00938057
0.00937821
0.00938125
0.00937746
0.00937841
0.00937403
0.00937368
0.00936897
0.00936793
0.0093637
0.00936278
0.00936077
0.00935826
0.00936415
0.00938787
0.0046129
0.00491516
0.00488249
0.0047923
0.00472542
0.00469334
0.00467105
0.00466156
0.00465057
0.00464559
0.00463748
0.00463347
0.00462662
0.00462311
0.00461734
0.00461435
0.00461308
0.00460874
0.00465142
0.00466476
0.00366708
0.00406331
0.00415082
0.00417301
0.00417724
0.00418525
0.00418847
0.00419505
0.0041967
0.00420007
0.00420011
0.00420132
0.00420036
0.00419984
0.00419674
0.00419478
0.00419088
0.00418816
0.00418799
0.00419393
0.00358583
0.00398031
0.00408322
0.00412426
0.00414358
0.00416218
0.00417392
0.00418764
0.00419528
0.00420447
0.00420883
0.00421526
0.00421801
0.00422183
0.00422232
0.00422251
0.00422119
0.00421818
0.00421694
0.00422075
0.00357387
0.00397204
0.00407559
0.00411837
0.00413852
0.00415843
0.00417103
0.00418621
0.00419496
0.00420572
0.00421129
0.0042193
0.00422342
0.004229
0.0042309
0.00423238
0.00423195
0.00423024
0.00422847
0.00423263
0.00358583
0.00398031
0.00408322
0.00412426
0.00414357
0.00416218
0.00417391
0.00418764
0.00419528
0.00420447
0.00420883
0.00421527
0.004218
0.00422184
0.0042223
0.00422253
0.00422116
0.00421825
0.00421691
0.00422082
0.00366708
0.00406331
0.00415082
0.00417301
0.00417724
0.00418526
0.00418847
0.00419505
0.00419669
0.00420008
0.00420011
0.00420133
0.00420034
0.00419986
0.00419669
0.00419487
0.00419069
0.00418855
0.00418767
0.00419422
0.0046129
0.00491516
0.00488249
0.0047923
0.00472541
0.00469334
0.00467105
0.00466156
0.00465057
0.0046456
0.00463746
0.00463348
0.00462658
0.00462314
0.00461724
0.00461447
0.00461281
0.00460918
0.00465001
0.00466564
0.00877057
0.00934497
0.00936638
0.00937655
0.00937441
0.00938057
0.0093782
0.00938125
0.00937746
0.00937842
0.00937402
0.0093737
0.00936895
0.00936798
0.00936362
0.00936296
0.00936041
0.00935902
0.00936264
0.00939125
0.00344771
0.00414626
0.0042365
0.00422214
0.00421171
0.00419321
0.00418934
0.00417816
0.00417629
0.00416842
0.00416719
0.00416116
0.00416032
0.00415562
0.00415539
0.00415159
0.00415257
0.00414821
0.00414831
0.00416594
0.00297306
0.00376678
0.00392265
0.00395572
0.00396536
0.00397116
0.00397521
0.00397839
0.00397997
0.0039809
0.00398081
0.00398025
0.00397884
0.0039775
0.00397569
0.00397463
0.00397311
0.00397232
0.00397354
0.00397803
0.00289929
0.00368658
0.00384651
0.003885
0.00389429
0.00390094
0.0039048
0.00390982
0.00391238
0.00391546
0.00391685
0.00391851
0.00391879
0.00391863
0.0039173
0.00391534
0.00391375
0.00391146
0.0039097
0.00391654
0.00290245
0.00368836
0.00384662
0.00388461
0.00389359
0.00389932
0.00390227
0.00390616
0.00390781
0.00390972
0.00391025
0.00391131
0.00391148
0.00391135
0.00390992
0.00390735
0.00390463
0.00390114
0.00389927
0.00390379
0.00289569
0.00368074
0.00384002
0.00387883
0.00388777
0.00389367
0.00389635
0.0039003
0.0039017
0.0039035
0.00390378
0.00390466
0.00390479
0.00390477
0.00390342
0.00390096
0.0038978
0.00389426
0.00389105
0.00389484
0.00290245
0.00368836
0.00384662
0.00388461
0.00389359
0.00389932
0.00390227
0.00390616
0.00390781
0.00390972
0.00391025
0.00391131
0.00391148
0.00391136
0.0039099
0.00390739
0.00390456
0.00390121
0.00389918
0.00390378
0.00289929
0.00368658
0.00384651
0.003885
0.00389429
0.00390094
0.00390479
0.00390982
0.00391238
0.00391546
0.00391684
0.00391852
0.00391877
0.00391865
0.00391723
0.00391549
0.00391351
0.00391181
0.00390934
0.00391668
0.00297306
0.00376678
0.00392265
0.00395573
0.00396536
0.00397116
0.00397521
0.00397839
0.00397997
0.0039809
0.00398081
0.00398026
0.00397881
0.00397754
0.00397561
0.00397475
0.00397284
0.00397273
0.00397294
0.00397887
0.00344771
0.00414626
0.0042365
0.00422214
0.00421171
0.00419321
0.00418934
0.00417816
0.00417629
0.00416842
0.00416719
0.00416117
0.00416032
0.00415564
0.00415537
0.00415164
0.00415251
0.00414848
0.00414787
0.00416714
0.000825413
0.00150693
0.00169154
0.00171906
0.00170483
0.0016732
0.00164155
0.00161529
0.00159455
0.00157781
0.00156605
0.00155616
0.00154999
0.00154418
0.00154087
0.00153804
0.0015357
0.00153591
0.00153115
0.00154513
0.000386297
0.000922659
0.0011698
0.00127173
0.00131297
0.00133347
0.0013436
0.00135221
0.00135796
0.00136334
0.00136637
0.00136876
0.00136955
0.00137013
0.00137007
0.00137002
0.00137005
0.00136951
0.00137017
0.00137338
0.0003571
0.00084841
0.00107116
0.00117445
0.00121362
0.00123562
0.00124229
0.00124908
0.0012508
0.00125438
0.00125556
0.00125802
0.00125889
0.00126043
0.00126104
0.00126174
0.0012624
0.00126253
0.00126265
0.00126613
0.000362209
0.000859412
0.00108131
0.00118103
0.00121948
0.00123945
0.00124585
0.00125052
0.00125126
0.00125235
0.00125231
0.00125247
0.00125223
0.00125178
0.00125113
0.0012503
0.00125
0.00124925
0.00124942
0.00125236
0.000356437
0.000846979
0.00106647
0.00116842
0.00120648
0.00122781
0.00123361
0.00123891
0.00123924
0.00124024
0.00123984
0.00124
0.00123936
0.00123896
0.0012377
0.00123702
0.00123581
0.00123528
0.00123411
0.00123676
0.000362209
0.000859413
0.00108131
0.00118103
0.00121948
0.00123945
0.00124585
0.00125052
0.00125126
0.00125235
0.00125231
0.00125247
0.00125223
0.00125178
0.00125113
0.0012503
0.00124999
0.00124924
0.00124941
0.00125234
0.0003571
0.00084841
0.00107116
0.00117445
0.00121362
0.00123562
0.00124229
0.00124908
0.0012508
0.00125438
0.00125556
0.00125802
0.00125889
0.00126044
0.00126103
0.00126175
0.00126236
0.00126254
0.00126262
0.00126606
0.000386297
0.000922659
0.0011698
0.00127174
0.00131297
0.00133347
0.00134359
0.00135221
0.00135796
0.00136334
0.00136637
0.00136877
0.00136954
0.00137013
0.00137005
0.00137003
0.00136999
0.00136952
0.00137009
0.0013733
0.000825413
0.00150693
0.00169154
0.00171906
0.00170483
0.0016732
0.00164155
0.00161529
0.00159455
0.00157781
0.00156605
0.00155617
0.00154998
0.00154421
0.00154087
0.00153811
0.00153572
0.00153612
0.00153111
0.00154568
0.00344771
0.00414626
0.0042365
0.00422214
0.00421171
0.00419321
0.00418934
0.00417816
0.0041763
0.00416842
0.00416719
0.00416116
0.00416032
0.00415562
0.00415539
0.00415159
0.00415257
0.00414821
0.00414831
0.00416594
0.00297306
0.00376678
0.00392265
0.00395572
0.00396536
0.00397116
0.00397521
0.00397839
0.00397997
0.0039809
0.00398081
0.00398025
0.00397884
0.0039775
0.00397569
0.00397463
0.00397311
0.00397232
0.00397354
0.00397803
0.00289929
0.00368658
0.00384651
0.003885
0.00389429
0.00390094
0.0039048
0.00390982
0.00391238
0.00391546
0.00391685
0.00391851
0.00391879
0.00391863
0.0039173
0.00391534
0.00391375
0.00391146
0.0039097
0.00391654
0.00290245
0.00368836
0.00384662
0.00388461
0.00389359
0.00389932
0.00390227
0.00390616
0.00390781
0.00390972
0.00391025
0.00391131
0.00391148
0.00391135
0.00390992
0.00390735
0.00390463
0.00390114
0.00389927
0.00390379
0.00289569
0.00368074
0.00384002
0.00387883
0.00388777
0.00389367
0.00389635
0.0039003
0.0039017
0.0039035
0.00390378
0.00390466
0.00390479
0.00390478
0.00390342
0.00390096
0.00389779
0.00389426
0.00389105
0.00389484
0.00290245
0.00368836
0.00384662
0.00388461
0.00389359
0.00389932
0.00390227
0.00390616
0.00390781
0.00390972
0.00391025
0.00391131
0.00391148
0.00391136
0.0039099
0.00390739
0.00390456
0.00390121
0.00389918
0.00390378
0.00289929
0.00368658
0.00384651
0.003885
0.00389429
0.00390094
0.00390479
0.00390982
0.00391238
0.00391547
0.00391684
0.00391852
0.00391877
0.00391865
0.00391723
0.00391548
0.00391351
0.00391181
0.00390934
0.00391668
0.00297306
0.00376678
0.00392265
0.00395573
0.00396536
0.00397116
0.00397521
0.00397839
0.00397997
0.0039809
0.00398081
0.00398026
0.00397881
0.00397754
0.00397561
0.00397475
0.00397284
0.00397273
0.00397294
0.00397887
0.00344771
0.00414626
0.0042365
0.00422214
0.00421171
0.00419321
0.00418934
0.00417816
0.00417629
0.00416842
0.00416719
0.00416117
0.00416032
0.00415564
0.00415537
0.00415164
0.00415251
0.00414848
0.00414787
0.00416714
0.00877057
0.00934497
0.00936638
0.00937655
0.00937441
0.00938057
0.00937821
0.00938125
0.00937746
0.00937841
0.00937403
0.00937369
0.00936897
0.00936793
0.0093637
0.00936278
0.00936077
0.00935826
0.00936415
0.00938787
0.0046129
0.00491516
0.00488249
0.0047923
0.00472542
0.00469334
0.00467105
0.00466156
0.00465057
0.00464559
0.00463748
0.00463347
0.00462662
0.00462311
0.00461734
0.00461435
0.00461308
0.00460874
0.00465142
0.00466476
0.00366708
0.00406331
0.00415082
0.00417301
0.00417724
0.00418525
0.00418847
0.00419505
0.0041967
0.00420007
0.00420011
0.00420132
0.00420036
0.00419984
0.00419674
0.00419478
0.00419088
0.00418816
0.00418799
0.00419393
0.00358583
0.00398031
0.00408322
0.00412426
0.00414358
0.00416218
0.00417392
0.00418764
0.00419528
0.00420447
0.00420883
0.00421526
0.00421801
0.00422183
0.00422232
0.00422251
0.0042212
0.00421818
0.00421694
0.00422075
0.00357387
0.00397204
0.00407559
0.00411837
0.00413852
0.00415843
0.00417103
0.00418621
0.00419496
0.00420572
0.00421129
0.0042193
0.00422342
0.004229
0.0042309
0.00423238
0.00423195
0.00423024
0.00422847
0.00423263
0.00358583
0.00398031
0.00408322
0.00412426
0.00414357
0.00416218
0.00417391
0.00418764
0.00419528
0.00420447
0.00420883
0.00421527
0.004218
0.00422184
0.0042223
0.00422253
0.00422116
0.00421825
0.00421691
0.00422082
0.00366708
0.00406331
0.00415082
0.00417301
0.00417724
0.00418526
0.00418847
0.00419505
0.00419669
0.00420008
0.00420011
0.00420133
0.00420034
0.00419986
0.00419669
0.00419487
0.00419069
0.00418855
0.00418767
0.00419422
0.0046129
0.00491516
0.00488249
0.0047923
0.00472541
0.00469334
0.00467105
0.00466156
0.00465057
0.0046456
0.00463746
0.00463348
0.00462658
0.00462314
0.00461724
0.00461447
0.0046128
0.00460918
0.00465001
0.00466563
0.00877057
0.00934497
0.00936638
0.00937655
0.00937441
0.00938057
0.0093782
0.00938125
0.00937746
0.00937842
0.00937402
0.0093737
0.00936895
0.00936798
0.00936362
0.00936296
0.00936041
0.00935902
0.00936264
0.00939125
0.0275184
0.0277681
0.0278598
0.0279256
0.0279572
0.0279804
0.0279867
0.0279944
0.0279944
0.0279986
0.027998
0.0280016
0.0280015
0.0280051
0.0280055
0.0280092
0.02801
0.0280137
0.0280148
0.0280185
0.0280198
0.0280233
0.0280246
0.0280279
0.0280291
0.0280321
0.0280332
0.0280359
0.0280368
0.0280393
0.0280401
0.0280424
0.0280431
0.0280453
0.028046
0.0280481
0.0280488
0.0280508
0.0280515
0.0280534
0.028054
0.0280558
0.0280563
0.0280579
0.0280583
0.0280597
0.02806
0.0280613
0.0280616
0.0280628
0.0280631
0.0280643
0.0280645
0.0280656
0.0280657
0.0280667
0.0280668
0.0280677
0.0280677
0.0280685
0.0280685
0.0280692
0.0280691
0.0280697
0.0280696
0.0280702
0.02807
0.0280705
0.0280703
0.0280708
0.0280705
0.0280709
0.0280705
0.0280708
0.0280704
0.0280706
0.0280702
0.0280705
0.0280701
0.0280703
0.0280698
0.0280699
0.0280693
0.0280693
0.0280687
0.0280685
0.028068
0.0280672
0.0280656
0.0280516
0.0160432
0.0165541
0.0166134
0.0166557
0.0166682
0.0166852
0.0166846
0.0166921
0.0166887
0.016694
0.016691
0.016696
0.0166939
0.016699
0.0166979
0.0167032
0.016703
0.0167086
0.016709
0.0167148
0.0167158
0.0167218
0.0167232
0.0167292
0.0167309
0.0167369
0.0167388
0.0167447
0.0167468
0.0167526
0.0167547
0.0167604
0.0167627
0.0167683
0.0167707
0.0167763
0.0167787
0.0167842
0.0167867
0.0167922
0.0167947
0.0168
0.0168025
0.0168076
0.01681
0.0168149
0.0168172
0.016822
0.0168242
0.0168288
0.016831
0.0168355
0.0168377
0.0168419
0.016844
0.0168481
0.0168501
0.016854
0.0168559
0.0168596
0.0168613
0.0168648
0.0168664
0.0168698
0.0168713
0.0168745
0.0168759
0.0168789
0.0168802
0.0168831
0.0168842
0.0168869
0.0168878
0.0168903
0.0168911
0.0168935
0.0168942
0.0168964
0.016897
0.0168991
0.0168995
0.0169013
0.0169015
0.0169032
0.0169033
0.0169047
0.0169046
0.0169058
0.0169044
0.0168995
0.0134467
0.014167
0.014234
0.014275
0.0142818
0.0142997
0.0142963
0.0143047
0.0142984
0.0143041
0.0142981
0.0143035
0.0142988
0.0143044
0.014301
0.014307
0.0143046
0.014311
0.0143097
0.0143163
0.0143157
0.0143225
0.0143226
0.0143295
0.01433
0.0143368
0.0143377
0.0143445
0.0143456
0.0143523
0.0143537
0.0143603
0.014362
0.0143686
0.0143705
0.0143771
0.0143792
0.0143859
0.0143882
0.0143948
0.0143972
0.0144037
0.0144061
0.0144125
0.0144149
0.0144211
0.0144236
0.0144296
0.0144321
0.014438
0.0144405
0.0144463
0.0144489
0.0144545
0.014457
0.0144625
0.0144649
0.0144703
0.0144726
0.0144777
0.0144799
0.0144849
0.014487
0.0144918
0.0144938
0.0144984
0.0145004
0.0145048
0.0145066
0.0145109
0.0145125
0.0145165
0.014518
0.0145218
0.0145232
0.0145269
0.0145281
0.0145316
0.0145327
0.014536
0.0145369
0.0145399
0.0145406
0.0145433
0.0145439
0.0145464
0.0145468
0.0145487
0.0145503
0.0145434
0.0131153
0.0139786
0.0140692
0.0141144
0.0141205
0.0141391
0.0141351
0.0141438
0.0141362
0.0141418
0.0141344
0.0141395
0.0141335
0.014139
0.0141344
0.0141404
0.014137
0.0141435
0.0141413
0.0141481
0.0141468
0.0141538
0.0141531
0.0141602
0.0141601
0.0141671
0.0141674
0.0141743
0.0141749
0.0141817
0.0141825
0.0141893
0.0141904
0.0141972
0.0141986
0.0142053
0.014207
0.0142138
0.0142157
0.0142223
0.0142244
0.014231
0.0142331
0.0142394
0.0142416
0.0142478
0.0142499
0.014256
0.0142582
0.0142641
0.0142664
0.0142722
0.0142745
0.0142802
0.0142824
0.014288
0.0142902
0.0142956
0.0142977
0.0143029
0.014305
0.01431
0.0143119
0.0143168
0.0143187
0.0143234
0.0143253
0.0143298
0.0143316
0.014336
0.0143376
0.0143417
0.0143432
0.0143472
0.0143486
0.0143524
0.0143537
0.0143574
0.0143585
0.014362
0.014363
0.0143663
0.0143671
0.0143702
0.0143708
0.0143737
0.0143742
0.0143765
0.0143782
0.0143726
0.0131043
0.0139767
0.0140683
0.0141121
0.0141155
0.0141325
0.0141275
0.014136
0.0141278
0.0141333
0.0141254
0.0141305
0.0141239
0.0141294
0.0141244
0.0141304
0.0141268
0.0141332
0.0141308
0.0141376
0.014136
0.0141431
0.0141422
0.0141494
0.0141491
0.0141561
0.0141562
0.0141632
0.0141636
0.0141704
0.0141711
0.0141779
0.0141789
0.0141857
0.014187
0.0141937
0.0141953
0.0142021
0.0142039
0.0142105
0.0142125
0.0142191
0.0142211
0.0142275
0.0142295
0.0142357
0.0142377
0.0142438
0.0142459
0.0142518
0.014254
0.0142598
0.014262
0.0142677
0.0142699
0.0142755
0.0142776
0.014283
0.014285
0.0142902
0.0142922
0.0142972
0.0142991
0.014304
0.0143058
0.0143105
0.0143123
0.0143169
0.0143186
0.014323
0.0143246
0.0143288
0.0143303
0.0143343
0.0143356
0.0143395
0.0143408
0.0143445
0.0143457
0.0143493
0.0143503
0.0143536
0.0143544
0.0143576
0.0143582
0.0143612
0.0143618
0.0143642
0.0143665
0.0143606
0.0131146
0.0139687
0.0140483
0.0140825
0.0140812
0.0140942
0.0140878
0.0140953
0.0140873
0.0140927
0.0140852
0.0140903
0.0140841
0.0140896
0.014085
0.0140909
0.0140876
0.014094
0.0140918
0.0140985
0.0140972
0.0141041
0.0141035
0.0141105
0.0141104
0.0141174
0.0141176
0.0141245
0.0141251
0.0141318
0.0141327
0.0141394
0.0141405
0.0141472
0.0141486
0.0141553
0.014157
0.0141637
0.0141656
0.0141723
0.0141743
0.0141808
0.0141829
0.0141893
0.0141914
0.0141976
0.0141997
0.0142057
0.0142079
0.0142138
0.0142161
0.0142219
0.0142241
0.0142298
0.0142321
0.0142376
0.0142398
0.0142452
0.0142473
0.0142525
0.0142545
0.0142595
0.0142615
0.0142663
0.0142682
0.0142729
0.0142747
0.0142793
0.014281
0.0142854
0.014287
0.0142912
0.0142927
0.0142966
0.014298
0.0143018
0.0143031
0.0143068
0.014308
0.0143115
0.0143125
0.0143158
0.0143166
0.0143196
0.0143203
0.0143232
0.0143237
0.0143262
0.0143273
0.0143231
0.0134362
0.0141279
0.0141695
0.0141891
0.0141828
0.0141919
0.0141848
0.0141914
0.0141844
0.0141899
0.0141838
0.0141891
0.0141843
0.0141898
0.0141863
0.0141922
0.0141899
0.0141961
0.0141947
0.0142013
0.0142007
0.0142075
0.0142075
0.0142143
0.0142148
0.0142216
0.0142224
0.0142291
0.0142302
0.0142369
0.0142382
0.0142448
0.0142464
0.014253
0.0142549
0.0142615
0.0142636
0.0142702
0.0142725
0.0142791
0.0142815
0.014288
0.0142904
0.0142967
0.0142992
0.0143054
0.0143078
0.0143139
0.0143164
0.0143223
0.0143248
0.0143306
0.0143331
0.0143388
0.0143413
0.0143468
0.0143493
0.0143546
0.014357
0.0143621
0.0143644
0.0143693
0.0143715
0.0143763
0.0143784
0.014383
0.014385
0.0143895
0.0143913
0.0143956
0.0143973
0.0144014
0.0144029
0.0144068
0.0144082
0.0144119
0.0144132
0.0144167
0.0144179
0.0144212
0.0144222
0.0144253
0.014426
0.0144289
0.0144294
0.0144321
0.0144324
0.0144348
0.0144354
0.0144315
0.0159922
0.0164385
0.0164526
0.0164627
0.0164566
0.0164629
0.0164582
0.0164637
0.0164597
0.0164647
0.0164616
0.0164665
0.0164644
0.0164695
0.0164683
0.0164737
0.0164734
0.016479
0.0164794
0.0164852
0.0164863
0.0164922
0.0164937
0.0164997
0.0165015
0.0165075
0.0165095
0.0165155
0.0165176
0.0165235
0.0165257
0.0165315
0.0165338
0.0165396
0.0165421
0.0165478
0.0165503
0.016556
0.0165586
0.0165642
0.0165668
0.0165723
0.0165749
0.0165802
0.0165827
0.0165878
0.0165903
0.0165953
0.0165977
0.0166025
0.0166049
0.0166095
0.0166119
0.0166164
0.0166186
0.016623
0.0166251
0.0166293
0.0166313
0.0166353
0.0166372
0.016641
0.0166428
0.0166464
0.0166481
0.0166515
0.0166532
0.0166565
0.0166579
0.0166611
0.0166624
0.0166653
0.0166665
0.0166693
0.0166703
0.0166729
0.0166739
0.0166764
0.0166772
0.0166795
0.0166801
0.0166822
0.0166827
0.0166846
0.0166849
0.0166867
0.0166868
0.0166886
0.0166856
0.0166862
0.0273787
0.0275036
0.0275131
0.027522
0.0275207
0.0275262
0.0275251
0.0275295
0.0275286
0.0275323
0.0275318
0.0275353
0.0275354
0.0275391
0.0275397
0.0275435
0.0275446
0.0275485
0.0275499
0.0275538
0.0275554
0.0275593
0.0275609
0.0275646
0.0275661
0.0275696
0.027571
0.0275742
0.0275755
0.0275785
0.0275797
0.0275825
0.0275836
0.0275863
0.0275875
0.0275901
0.0275912
0.0275937
0.0275949
0.0275973
0.0275984
0.0276007
0.0276017
0.0276038
0.0276046
0.0276066
0.0276074
0.0276092
0.02761
0.0276117
0.0276125
0.0276142
0.0276149
0.0276165
0.0276172
0.0276187
0.0276193
0.0276207
0.0276212
0.0276226
0.027623
0.0276242
0.0276246
0.0276258
0.0276262
0.0276273
0.0276276
0.0276287
0.027629
0.0276299
0.0276302
0.027631
0.0276312
0.027632
0.0276321
0.0276329
0.027633
0.0276338
0.0276338
0.0276346
0.0276346
0.0276352
0.0276351
0.0276356
0.0276355
0.0276359
0.0276357
0.0276363
0.027632
0.0276277
0.0134631
0.0137162
0.0137643
0.0137927
0.0138082
0.0138182
0.0138216
0.0138261
0.0138267
0.0138306
0.013831
0.0138353
0.0138361
0.0138409
0.0138423
0.0138476
0.0138494
0.0138552
0.0138575
0.0138635
0.0138661
0.0138723
0.0138751
0.0138813
0.0138841
0.0138902
0.013893
0.0138989
0.0139016
0.0139073
0.01391
0.0139155
0.0139181
0.0139236
0.0139262
0.0139315
0.0139342
0.0139394
0.013942
0.0139471
0.0139497
0.0139546
0.013957
0.0139617
0.013964
0.0139684
0.0139706
0.0139748
0.0139769
0.0139809
0.0139829
0.0139868
0.0139887
0.0139924
0.0139943
0.0139978
0.0139995
0.0140028
0.0140044
0.0140075
0.0140089
0.0140118
0.0140131
0.0140159
0.0140171
0.0140197
0.0140208
0.0140234
0.0140243
0.0140267
0.0140275
0.0140297
0.0140304
0.0140324
0.014033
0.0140349
0.0140354
0.0140373
0.0140377
0.0140395
0.0140398
0.0140414
0.0140416
0.0140431
0.0140432
0.0140447
0.0140447
0.0140465
0.0140462
0.0140428
0.0128321
0.0133325
0.0133948
0.0134256
0.0134413
0.0134515
0.0134541
0.0134566
0.0134555
0.0134561
0.0134544
0.0134547
0.0134528
0.0134531
0.0134514
0.0134517
0.0134501
0.0134504
0.013449
0.0134494
0.0134482
0.0134488
0.0134477
0.0134484
0.0134475
0.0134483
0.0134476
0.0134484
0.0134478
0.0134487
0.0134483
0.0134492
0.0134488
0.0134498
0.0134495
0.0134505
0.0134504
0.0134514
0.0134514
0.0134525
0.0134525
0.0134537
0.0134538
0.013455
0.0134552
0.0134564
0.0134566
0.0134578
0.0134581
0.0134592
0.0134596
0.0134607
0.0134611
0.0134623
0.0134627
0.0134638
0.0134643
0.0134654
0.0134658
0.0134669
0.0134674
0.0134685
0.0134689
0.0134699
0.0134703
0.0134714
0.0134717
0.0134727
0.0134731
0.0134741
0.0134744
0.0134754
0.0134757
0.0134766
0.0134768
0.0134777
0.0134779
0.0134787
0.0134789
0.0134797
0.0134798
0.0134805
0.0134806
0.0134813
0.0134813
0.0134819
0.0134819
0.0134821
0.0134838
0.0134797
0.0122194
0.01292
0.0130085
0.0130433
0.0130615
0.0130733
0.0130778
0.0130806
0.0130802
0.0130802
0.0130788
0.0130782
0.0130765
0.0130758
0.0130742
0.0130735
0.0130719
0.0130712
0.0130697
0.013069
0.0130676
0.013067
0.0130656
0.0130651
0.0130638
0.0130633
0.0130621
0.0130616
0.0130605
0.01306
0.0130589
0.0130585
0.0130575
0.0130571
0.0130561
0.0130557
0.0130548
0.0130544
0.0130536
0.0130533
0.0130525
0.0130522
0.0130515
0.0130513
0.0130506
0.0130505
0.0130498
0.0130497
0.0130491
0.0130489
0.0130484
0.0130483
0.0130478
0.0130477
0.0130472
0.0130472
0.0130468
0.0130467
0.0130464
0.0130463
0.013046
0.013046
0.0130457
0.0130457
0.0130454
0.0130454
0.0130451
0.0130451
0.0130449
0.0130449
0.0130447
0.0130448
0.0130446
0.0130446
0.0130444
0.0130445
0.0130443
0.0130443
0.0130441
0.0130442
0.013044
0.0130441
0.0130439
0.013044
0.0130438
0.0130438
0.0130436
0.0130435
0.0130444
0.0130377
0.0120539
0.0128062
0.012901
0.0129333
0.0129501
0.0129618
0.0129673
0.0129708
0.0129711
0.0129715
0.0129705
0.0129701
0.0129688
0.0129683
0.0129671
0.0129665
0.0129653
0.0129648
0.0129636
0.0129632
0.0129621
0.0129616
0.0129606
0.0129602
0.0129593
0.0129589
0.012958
0.0129577
0.0129569
0.0129565
0.0129557
0.0129554
0.0129546
0.0129543
0.0129535
0.0129533
0.0129525
0.0129523
0.0129516
0.0129514
0.0129508
0.0129506
0.01295
0.0129498
0.0129493
0.0129491
0.0129486
0.0129484
0.012948
0.0129478
0.0129473
0.0129472
0.0129468
0.0129467
0.0129463
0.0129462
0.0129458
0.0129457
0.0129454
0.0129453
0.012945
0.0129449
0.0129446
0.0129445
0.0129442
0.0129442
0.0129439
0.0129438
0.0129436
0.0129435
0.0129433
0.0129433
0.012943
0.012943
0.0129428
0.0129427
0.0129425
0.0129424
0.0129422
0.0129422
0.012942
0.012942
0.0129417
0.0129417
0.0129415
0.0129414
0.0129412
0.0129409
0.0129411
0.0129361
0.0119455
0.012739
0.0128344
0.0128618
0.0128746
0.012884
0.0128887
0.0128919
0.0128924
0.0128929
0.0128921
0.0128917
0.0128906
0.0128902
0.012889
0.0128886
0.0128875
0.0128871
0.0128861
0.0128857
0.0128848
0.0128844
0.0128836
0.0128833
0.0128825
0.0128822
0.0128815
0.0128813
0.0128806
0.0128803
0.0128797
0.0128795
0.0128788
0.0128786
0.012878
0.0128778
0.0128772
0.012877
0.0128765
0.0128764
0.0128759
0.0128758
0.0128753
0.0128752
0.0128748
0.0128747
0.0128743
0.0128742
0.0128739
0.0128738
0.0128734
0.0128734
0.012873
0.012873
0.0128727
0.0128726
0.0128724
0.0128723
0.0128721
0.0128721
0.0128718
0.0128718
0.0128716
0.0128715
0.0128713
0.0128713
0.012871
0.012871
0.0128708
0.0128708
0.0128706
0.0128706
0.0128704
0.0128704
0.0128702
0.0128702
0.01287
0.01287
0.0128698
0.0128698
0.0128696
0.0128696
0.0128694
0.0128693
0.0128691
0.012869
0.0128688
0.0128686
0.0128689
0.0128632
0.0120527
0.0127955
0.0128789
0.0129007
0.0129095
0.0129163
0.0129192
0.0129215
0.0129215
0.0129217
0.0129207
0.0129203
0.012919
0.0129185
0.0129173
0.0129168
0.0129155
0.012915
0.0129139
0.0129134
0.0129123
0.0129119
0.0129109
0.0129105
0.0129096
0.0129093
0.0129084
0.0129081
0.0129072
0.0129069
0.0129061
0.0129058
0.012905
0.0129047
0.012904
0.0129037
0.012903
0.0129028
0.0129021
0.0129019
0.0129013
0.0129011
0.0129006
0.0129004
0.0128999
0.0128997
0.0128992
0.0128991
0.0128986
0.0128984
0.012898
0.0128979
0.0128975
0.0128973
0.012897
0.0128969
0.0128965
0.0128964
0.0128961
0.012896
0.0128957
0.0128957
0.0128954
0.0128953
0.012895
0.012895
0.0128947
0.0128946
0.0128944
0.0128944
0.0128941
0.0128941
0.0128939
0.0128939
0.0128936
0.0128936
0.0128934
0.0128933
0.0128931
0.0128931
0.0128929
0.0128929
0.0128927
0.0128927
0.0128924
0.0128924
0.0128921
0.0128921
0.0128918
0.0128875
0.0122107
0.0128849
0.0129491
0.0129638
0.0129686
0.0129725
0.0129734
0.0129745
0.0129737
0.0129734
0.012972
0.0129713
0.0129697
0.012969
0.0129674
0.0129667
0.0129651
0.0129645
0.0129629
0.0129623
0.0129609
0.0129603
0.012959
0.0129585
0.0129572
0.0129568
0.0129556
0.0129552
0.012954
0.0129536
0.0129526
0.0129522
0.0129512
0.0129508
0.0129498
0.0129495
0.0129486
0.0129483
0.0129475
0.0129472
0.0129464
0.0129462
0.0129455
0.0129454
0.0129447
0.0129446
0.012944
0.0129439
0.0129433
0.0129432
0.0129427
0.0129426
0.0129422
0.0129421
0.0129417
0.0129417
0.0129413
0.0129413
0.012941
0.012941
0.0129407
0.0129407
0.0129405
0.0129405
0.0129403
0.0129403
0.0129401
0.0129402
0.01294
0.0129401
0.0129399
0.01294
0.0129398
0.0129399
0.0129398
0.0129399
0.0129397
0.0129398
0.0129397
0.0129398
0.0129397
0.0129399
0.0129397
0.0129398
0.0129397
0.0129398
0.0129396
0.0129398
0.0129399
0.0129352
0.0127969
0.0132475
0.0132739
0.013279
0.0132793
0.0132811
0.0132804
0.0132813
0.0132798
0.0132802
0.0132784
0.0132787
0.0132769
0.0132772
0.0132754
0.0132757
0.0132742
0.0132745
0.0132731
0.0132736
0.0132724
0.013273
0.013272
0.0132727
0.0132719
0.0132727
0.013272
0.0132729
0.0132724
0.0132733
0.013273
0.0132739
0.0132737
0.0132747
0.0132745
0.0132756
0.0132755
0.0132766
0.0132767
0.0132778
0.013278
0.0132792
0.0132795
0.0132807
0.013281
0.0132823
0.0132827
0.0132839
0.0132843
0.0132856
0.013286
0.0132873
0.0132878
0.0132891
0.0132896
0.0132909
0.0132914
0.0132927
0.0132932
0.0132945
0.013295
0.0132963
0.0132968
0.013298
0.0132986
0.0132997
0.0133003
0.0133014
0.0133019
0.0133031
0.0133036
0.0133047
0.0133051
0.0133062
0.0133066
0.0133076
0.013308
0.013309
0.0133093
0.0133102
0.0133105
0.0133115
0.0133117
0.0133126
0.0133127
0.0133136
0.0133137
0.0133144
0.0133149
0.0133146
0.0133853
0.0135745
0.013582
0.0135831
0.0135832
0.0135852
0.0135854
0.0135885
0.0135887
0.0135923
0.0135928
0.013597
0.0135978
0.0136027
0.013604
0.0136094
0.0136112
0.013617
0.0136194
0.0136255
0.0136281
0.0136344
0.0136373
0.0136436
0.0136465
0.0136527
0.0136556
0.0136617
0.0136645
0.0136704
0.0136732
0.013679
0.0136818
0.0136874
0.0136902
0.0136957
0.0136986
0.013704
0.0137068
0.0137121
0.0137149
0.01372
0.0137227
0.0137276
0.0137302
0.0137348
0.0137372
0.0137417
0.013744
0.0137483
0.0137506
0.0137547
0.0137569
0.0137608
0.0137629
0.0137667
0.0137687
0.0137723
0.0137741
0.0137775
0.0137792
0.0137824
0.013784
0.013787
0.0137885
0.0137914
0.0137928
0.0137956
0.0137968
0.0137995
0.0138006
0.0138031
0.013804
0.0138063
0.0138072
0.0138094
0.0138102
0.0138124
0.013813
0.0138151
0.0138157
0.0138176
0.013818
0.0138199
0.0138202
0.0138221
0.0138222
0.0138247
0.0138231
0.0138252
0.00605064
0.00629427
0.0063158
0.00632166
0.00632801
0.00633319
0.00633695
0.00634327
0.00634586
0.00635317
0.00635521
0.00636345
0.0063654
0.0063745
0.00637667
0.00638653
0.00638908
0.00639956
0.00640257
0.0064135
0.00641692
0.00642813
0.00643189
0.00644322
0.00644721
0.00645852
0.00646267
0.00647388
0.00647817
0.00648925
0.0064937
0.0065047
0.00650935
0.00652029
0.00652515
0.00653605
0.00654111
0.00655195
0.00655716
0.00656789
0.00657317
0.00658371
0.00658897
0.00659925
0.00660445
0.00661445
0.0066196
0.00662934
0.00663445
0.00664397
0.00664906
0.00665836
0.00666337
0.00667243
0.00667732
0.00668609
0.00669082
0.00669929
0.00670382
0.00671196
0.00671629
0.0067241
0.00672823
0.00673576
0.00673969
0.00674696
0.00675067
0.00675768
0.00676113
0.00676784
0.00677098
0.00677737
0.0067802
0.0067863
0.00678887
0.00679473
0.00679703
0.00680267
0.00680467
0.00681004
0.00681167
0.00681672
0.00681798
0.00682268
0.00682361
0.00682794
0.0068285
0.00683255
0.00683264
0.00683205
0.00576536
0.00638152
0.00645614
0.00647393
0.00648104
0.00648481
0.00648487
0.00648511
0.00648316
0.00648268
0.00648007
0.00647951
0.00647666
0.00647608
0.00647312
0.00647254
0.00646955
0.00646897
0.00646602
0.00646545
0.00646258
0.00646205
0.00645928
0.00645879
0.00645615
0.0064557
0.0064532
0.0064528
0.00645043
0.00645008
0.00644786
0.00644755
0.00644548
0.00644522
0.0064433
0.0064431
0.00644133
0.0064412
0.00643959
0.00643952
0.00643806
0.00643806
0.00643676
0.00643682
0.00643566
0.00643577
0.00643475
0.00643492
0.00643402
0.00643425
0.00643347
0.00643375
0.00643309
0.00643343
0.00643289
0.00643328
0.00643284
0.00643329
0.00643294
0.00643344
0.00643318
0.00643371
0.00643353
0.0064341
0.00643399
0.0064346
0.00643456
0.00643521
0.00643523
0.00643591
0.00643598
0.0064367
0.0064368
0.00643755
0.00643768
0.00643845
0.00643861
0.00643941
0.00643958
0.0064404
0.00644059
0.00644143
0.0064416
0.00644245
0.0064426
0.00644344
0.00644359
0.00644417
0.00644497
0.00644385
0.00520844
0.00604254
0.00617414
0.00620753
0.00622025
0.00622705
0.00622897
0.00622972
0.00622888
0.00622819
0.00622666
0.00622577
0.00622411
0.00622315
0.00622147
0.00622046
0.00621878
0.00621775
0.00621607
0.00621503
0.00621338
0.00621234
0.00621073
0.00620969
0.00620812
0.00620709
0.00620555
0.00620454
0.00620304
0.00620203
0.00620057
0.00619958
0.00619816
0.00619719
0.00619581
0.00619486
0.00619354
0.00619262
0.00619135
0.00619046
0.00618925
0.00618839
0.00618724
0.00618642
0.00618532
0.00618454
0.00618349
0.00618274
0.00618175
0.00618104
0.0061801
0.00617942
0.00617854
0.00617791
0.00617709
0.0061765
0.00617573
0.00617518
0.00617447
0.00617397
0.00617331
0.00617284
0.00617223
0.00617181
0.00617125
0.00617087
0.00617036
0.00617002
0.00616957
0.00616927
0.00616887
0.00616862
0.00616826
0.00616805
0.00616773
0.00616756
0.00616728
0.00616716
0.00616693
0.00616684
0.00616666
0.00616661
0.00616646
0.00616644
0.00616632
0.00616634
0.00616624
0.00616629
0.0061665
0.00616454
0.00502713
0.00590622
0.00605473
0.00608712
0.0060998
0.00610512
0.00610836
0.00610879
0.00610903
0.00610827
0.00610779
0.00610678
0.00610616
0.00610523
0.00610456
0.00610374
0.00610304
0.0061023
0.0061016
0.00610093
0.00610023
0.00609963
0.00609895
0.00609838
0.00609772
0.0060972
0.00609656
0.00609606
0.00609543
0.00609495
0.00609434
0.00609388
0.00609328
0.00609283
0.00609225
0.00609181
0.00609126
0.00609084
0.0060903
0.0060899
0.00608939
0.00608901
0.00608852
0.00608816
0.00608769
0.00608734
0.00608689
0.00608655