/*--------------------------------*- C++ -*----------------------------------*\
  =========                 |
  \\      /  F ield         | OpenFOAM: The Open Source CFD Toolbox
   \\    /   O peration     | Website:  https://openfoam.org
    \\  /    A nd           | Version:  7
     \\/     M anipulation  |
\*---------------------------------------------------------------------------*/
FoamFile
{
    version     2.0;
    format      ascii;
    class       volScalarField;
    location    "2.0425";
    object      k_0;
}
// * * * * * * * * * * * * * * * * * * * * * * * * * * * * * * * * * * * * * //

dimensions      [0 2 -2 0 0 0 0];

internalField   nonuniform List<scalar> 
7920
(
52.0567
56.5343
56.575
56.6281
56.5546
56.5651
56.5095
56.5236
56.4879
56.5037
56.4778
56.4915
56.4703
56.4796
56.4632
56.4675
56.4644
56.4437
56.5252
56.6517
13.8485
14.0192
13.4457
12.8959
12.6345
12.5337
12.4471
12.4218
12.377
12.3679
12.3395
12.3348
12.3168
12.3151
12.3037
12.3017
12.2951
12.2886
12.4576
12.4687
8.08908
9.2276
9.34712
9.3328
9.29389
9.28477
9.26139
9.25808
9.24253
9.24037
9.22816
9.22644
9.21647
9.21482
9.20647
9.20455
9.1976
9.19447
9.19773
9.22229
7.48602
8.75829
9.01125
9.10353
9.128
9.16236
9.16868
9.18795
9.19022
9.20276
9.20328
9.21186
9.21143
9.21734
9.21613
9.22005
9.21812
9.22042
9.22031
9.2427
7.42099
8.70458
8.97028
9.07868
9.11631
9.1644
9.18075
9.21429
9.22513
9.25032
9.25841
9.27831
9.28441
9.30019
9.30465
9.31694
9.31992
9.32848
9.33173
9.35674
7.42788
8.70112
8.96516
9.07511
9.11644
9.16928
9.19059
9.23004
9.24554
9.27745
9.28993
9.31623
9.32639
9.34816
9.35625
9.37399
9.38021
9.39328
9.40036
9.42633
7.42788
8.70112
8.96516
9.07511
9.11644
9.16929
9.19058
9.23004
9.24554
9.27746
9.28992
9.31624
9.32639
9.34818
9.35625
9.37403
9.38021
9.39334
9.40042
9.4264
7.42099
8.70459
8.97028
9.07868
9.11631
9.1644
9.18075
9.2143
9.22512
9.25034
9.25839
9.27835
9.28437
9.30027
9.30459
9.31708
9.31986
9.3287
9.33177
9.35702
7.48602
8.7583
9.01125
9.10353
9.12799
9.16237
9.16868
9.18797
9.1902
9.2028
9.20324
9.21192
9.21132
9.21753
9.21589
9.22047
9.21765
9.22128
9.21963
9.24359
8.08907
9.22761
9.34712
9.33281
9.29389
9.28478
9.26138
9.2581
9.24251
9.2404
9.22809
9.22652
9.2163
9.21505
9.20603
9.20516
9.19638
9.19675
9.19555
9.22551
13.8485
14.0192
13.4457
12.896
12.6345
12.5337
12.4471
12.4218
12.377
12.3679
12.3394
12.3349
12.3166
12.3153
12.3033
12.3024
12.2936
12.2915
12.4498
12.4772
52.0567
56.5343
56.5749
56.6281
56.5546
56.5651
56.5095
56.5237
56.4878
56.5038
56.4776
56.4918
56.4698
56.4804
56.4618
56.47
56.4597
56.4525
56.5059
56.6925
7.67925
9.68096
9.76753
9.64016
9.60509
9.53324
9.53029
9.48925
9.49092
9.46304
9.46584
9.44553
9.44806
9.43241
9.43464
9.42141
9.42531
9.40908
9.41254
9.45894
6.02256
8.25476
8.59785
8.64367
8.6492
8.64913
8.64762
8.64613
8.64407
8.64204
8.63996
8.63749
8.63571
8.63295
8.63163
8.62865
8.62741
8.62456
8.62857
8.63552
5.70432
7.90839
8.26126
8.33324
8.34533
8.36264
8.36799
8.38047
8.38485
8.39437
8.3977
8.40453
8.40713
8.41153
8.41384
8.41588
8.41855
8.41807
8.41975
8.45017
5.69582
7.8989
8.24769
8.31589
8.32053
8.33035
8.33021
8.33629
8.33806
8.34454
8.34685
8.35263
8.35516
8.35962
8.36239
8.36476
8.3681
8.36807
8.37083
8.39015
5.684
7.88334
8.23178
8.30162
8.30533
8.3138
8.3114
8.31566
8.31482
8.31886
8.31914
8.32295
8.3238
8.32718
8.32814
8.33067
8.33145
8.33306
8.33381
8.35415
5.69033
7.89144
8.23893
8.30829
8.31181
8.32014
8.31751
8.32156
8.32023
8.32389
8.3235
8.32671
8.32687
8.32958
8.32987
8.33187
8.33197
8.33315
8.33283
8.35169
5.69033
7.89144
8.23893
8.30829
8.31181
8.32014
8.3175
8.32156
8.32023
8.32389
8.32349
8.32672
8.32686
8.32959
8.32985
8.33188
8.33195
8.33316
8.33286
8.35165
5.684
7.88334
8.23178
8.30162
8.30533
8.31381
8.31139
8.31567
8.31481
8.31889
8.31912
8.32298
8.32376
8.32724
8.32807
8.33078
8.33134
8.33319
8.33368
8.35416
5.69582
7.89891
8.24769
8.31589
8.32053
8.33036
8.3302
8.33631
8.33804
8.34457
8.34681
8.35271
8.35501
8.35987
8.36196
8.36534
8.36737
8.36856
8.37033
8.39064
5.70432
7.90839
8.26126
8.33324
8.34533
8.36265
8.36798
8.38049
8.38483
8.39441
8.39765
8.40463
8.40695
8.41186
8.4133
8.4168
8.41724
8.41976
8.41742
8.45242
6.02256
8.25476
8.59785
8.64367
8.6492
8.64914
8.64761
8.64614
8.64405
8.64207
8.63991
8.63757
8.63556
8.6332
8.63121
8.6294
8.62607
8.62662
8.625
8.64192
7.67925
9.68096
9.76753
9.64016
9.60509
9.53324
9.53029
9.48926
9.49091
9.46306
9.46582
9.44557
9.44802
9.43252
9.43452
9.42175
9.4249
9.41027
9.41076
9.46403
0.477443
1.03666
1.13493
1.10574
1.0322
0.965543
0.914011
0.877456
0.850695
0.829968
0.815004
0.801382
0.791979
0.781926
0.775484
0.767893
0.762647
0.758468
0.75013
0.75846
0.0860582
0.382759
0.527116
0.589312
0.611437
0.625318
0.632288
0.639899
0.643703
0.647772
0.649132
0.65075
0.650824
0.651022
0.650661
0.650442
0.649778
0.649356
0.648533
0.651331
0.0642941
0.300092
0.416636
0.475059
0.493563
0.507228
0.510441
0.516984
0.519298
0.524303
0.526753
0.531178
0.533811
0.537443
0.54014
0.54304
0.545714
0.548101
0.549878
0.554361
0.0681617
0.30373
0.417821
0.473728
0.491783
0.503169
0.504899
0.507975
0.508162
0.509245
0.509551
0.510557
0.511122
0.512148
0.513207
0.513968
0.515486
0.516169
0.517474
0.520799
0.0663156
0.299725
0.412666
0.46855
0.48615
0.497493
0.498933
0.501724
0.501534
0.502063
0.5018
0.50204
0.501899
0.502029
0.50205
0.502113
0.50233
0.502384
0.502621
0.504734
0.0673486
0.301964
0.415311
0.470972
0.488727
0.499941
0.501534
0.504247
0.5041
0.50457
0.504303
0.504449
0.50425
0.504248
0.504164
0.503998
0.503998
0.503861
0.503958
0.505785
0.0673485
0.301964
0.415311
0.470972
0.488727
0.499941
0.501534
0.504247
0.5041
0.504571
0.504303
0.504449
0.50425
0.504248
0.504163
0.504
0.503998
0.503861
0.503956
0.505783
0.0663155
0.299725
0.412666
0.46855
0.48615
0.497493
0.498932
0.501724
0.501534
0.502063
0.501799
0.502041
0.501898
0.50203
0.502049
0.502112
0.502327
0.502381
0.502618
0.504723
0.0681615
0.303731
0.41782
0.473728
0.491782
0.503169
0.504899
0.507975
0.508162
0.509246
0.50955
0.510561
0.511112
0.512162
0.513185
0.513982
0.51546
0.516158
0.517448
0.52075
0.0642938
0.300092
0.416636
0.47506
0.493563
0.507229
0.510441
0.516985
0.519297
0.524306
0.526745
0.531187
0.533793
0.537464
0.540097
0.543073
0.545644
0.548097
0.549819
0.554256
0.0860581
0.382759
0.527116
0.589312
0.611436
0.625319
0.632285
0.639902
0.643697
0.647779
0.64912
0.65076
0.650815
0.651027
0.650611
0.650453
0.649682
0.649385
0.648401
0.65134
0.477442
1.03666
1.13493
1.10574
1.0322
0.965544
0.91401
0.87746
0.850694
0.829978
0.815002
0.801408
0.791977
0.781991
0.775485
0.768052
0.762663
0.758813
0.750234
0.759437
0.477443
1.03666
1.13493
1.10574
1.0322
0.965543
0.914011
0.877456
0.850695
0.829968
0.815004
0.801382
0.791979
0.781926
0.775484
0.767893
0.762647
0.758468
0.750129
0.75846
0.0860582
0.382759
0.527116
0.589312
0.611437
0.625318
0.632288
0.639899
0.643703
0.647772
0.649132
0.65075
0.650824
0.651022
0.650661
0.650442
0.649778
0.649356
0.648533
0.651331
0.0642941
0.300092
0.416636
0.475059
0.493563
0.507228
0.510441
0.516984
0.519298
0.524303
0.526753
0.531178
0.533811
0.537443
0.54014
0.543041
0.545714
0.548101
0.549878
0.554361
0.0681617
0.30373
0.417821
0.473728
0.491783
0.503169
0.504899
0.507975
0.508162
0.509245
0.509551
0.510557
0.511122
0.512148
0.513207
0.513968
0.515486
0.516169
0.517474
0.520799
0.0663156
0.299725
0.412666
0.46855
0.48615
0.497493
0.498933
0.501724
0.501534
0.502063
0.5018
0.50204
0.501899
0.502029
0.50205
0.502113
0.50233
0.502384
0.502621
0.504734
0.0673486
0.301964
0.415311
0.470972
0.488727
0.499941
0.501534
0.504247
0.5041
0.50457
0.504303
0.504449
0.50425
0.504248
0.504164
0.503998
0.503998
0.503861
0.503958
0.505785
0.0673485
0.301964
0.415311
0.470972
0.488727
0.499941
0.501534
0.504247
0.5041
0.504571
0.504303
0.504449
0.50425
0.504248
0.504163
0.504
0.503998
0.503861
0.503956
0.505783
0.0663155
0.299725
0.412666
0.46855
0.48615
0.497493
0.498933
0.501724
0.501534
0.502063
0.5018
0.502041
0.501898
0.50203
0.502049
0.502112
0.502327
0.502381
0.502618
0.504723
0.0681615
0.303731
0.41782
0.473728
0.491782
0.503169
0.504899
0.507975
0.508162
0.509246
0.509551
0.510561
0.511112
0.512162
0.513185
0.513982
0.51546
0.516158
0.517448
0.52075
0.0642938
0.300092
0.416636
0.47506
0.493563
0.507229
0.510441
0.516985
0.519297
0.524306
0.526745
0.531187
0.533793
0.537464
0.540097
0.543073
0.545644
0.548097
0.549819
0.554256
0.0860581
0.382759
0.527116
0.589312
0.611436
0.625319
0.632285
0.639902
0.643697
0.647779
0.64912
0.65076
0.650815
0.651027
0.650611
0.650453
0.649682
0.649385
0.648401
0.65134
0.477442
1.03666
1.13493
1.10574
1.0322
0.965544
0.91401
0.87746
0.850694
0.829978
0.815002
0.801408
0.791977
0.781991
0.775485
0.768052
0.762663
0.758813
0.750234
0.759437
7.67925
9.68096
9.76753
9.64016
9.60509
9.53324
9.53029
9.48925
9.49092
9.46304
9.46583
9.44553
9.44806
9.43241
9.43464
9.42141
9.42531
9.40908
9.41254
9.45894
6.02256
8.25476
8.59785
8.64367
8.6492
8.64913
8.64762
8.64613
8.64407
8.64204
8.63996
8.63749
8.63571
8.63295
8.63163
8.62865
8.62741
8.62456
8.62857
8.63552
5.70432
7.90839
8.26126
8.33324
8.34533
8.36264
8.36799
8.38047
8.38485
8.39437
8.3977
8.40453
8.40713
8.41153
8.41385
8.41588
8.41855
8.41807
8.41976
8.45017
5.69582
7.8989
8.24769
8.31589
8.32053
8.33035
8.33021
8.33629
8.33806
8.34454
8.34685
8.35263
8.35516
8.35962
8.36239
8.36476
8.3681
8.36807
8.37083
8.39015
5.684
7.88334
8.23178
8.30162
8.30533
8.3138
8.3114
8.31566
8.31482
8.31886
8.31914
8.32295
8.3238
8.32718
8.32814
8.33067
8.33145
8.33306
8.33381
8.35415
5.69033
7.89144
8.23893
8.30829
8.31181
8.32014
8.31751
8.32156
8.32023
8.32389
8.3235
8.32671
8.32687
8.32958
8.32987
8.33187
8.33197
8.33315
8.33283
8.35169
5.69033
7.89144
8.23893
8.30829
8.31181
8.32014
8.3175
8.32156
8.32023
8.32389
8.32349
8.32672
8.32686
8.32959
8.32985
8.33188
8.33195
8.33316
8.33286
8.35165
5.684
7.88334
8.23178
8.30162
8.30533
8.31381
8.31139
8.31567
8.31481
8.31889
8.31912
8.32298
8.32376
8.32724
8.32807
8.33078
8.33134
8.33319
8.33368
8.35416
5.69582
7.89891
8.24769
8.31589
8.32053
8.33036
8.3302
8.33631
8.33804
8.34457
8.34681
8.35271
8.35501
8.35987
8.36196
8.36534
8.36737
8.36856
8.37033
8.39064
5.70432
7.90839
8.26126
8.33324
8.34533
8.36265
8.36798
8.38049
8.38483
8.39441
8.39765
8.40463
8.40695
8.41186
8.4133
8.4168
8.41724
8.41976
8.41742
8.45242
6.02256
8.25476
8.59785
8.64367
8.6492
8.64914
8.64761
8.64614
8.64405
8.64207
8.63991
8.63757
8.63556
8.6332
8.6312
8.6294
8.62607
8.62662
8.625
8.64192
7.67925
9.68096
9.76753
9.64016
9.60509
9.53324
9.53029
9.48926
9.49091
9.46306
9.46582
9.44557
9.44802
9.43252
9.43452
9.42175
9.4249
9.41027
9.41076
9.46403
52.0567
56.5343
56.575
56.6281
56.5546
56.5651
56.5095
56.5236
56.4879
56.5037
56.4778
56.4915
56.4703
56.4796
56.4632
56.4675
56.4644
56.4437
56.5252
56.6517
13.8485
14.0192
13.4457
12.8959
12.6345
12.5337
12.4471
12.4218
12.377
12.3679
12.3395
12.3348
12.3168
12.3151
12.3037
12.3017
12.2951
12.2886
12.4576
12.4687
8.08908
9.2276
9.34712
9.3328
9.29389
9.28477
9.26139
9.25808
9.24253
9.24037
9.22816
9.22644
9.21647
9.21482
9.20647
9.20455
9.1976
9.19447
9.19773
9.22229
7.48602
8.75829
9.01125
9.10353
9.128
9.16236
9.16868
9.18795
9.19022
9.20276
9.20328
9.21186
9.21143
9.21734
9.21613
9.22005
9.21812
9.22042
9.22031
9.2427
7.42099
8.70458
8.97028
9.07868
9.11631
9.1644
9.18075
9.21429
9.22513
9.25032
9.25841
9.27831
9.28441
9.30019
9.30465
9.31694
9.31992
9.32848
9.33173
9.35674
7.42788
8.70112
8.96516
9.07511
9.11644
9.16928
9.19059
9.23004
9.24554
9.27745
9.28993
9.31623
9.32639
9.34816
9.35625
9.37399
9.38021
9.39328
9.40036
9.42633
7.42788
8.70112
8.96516
9.07511
9.11644
9.16929
9.19058
9.23004
9.24554
9.27746
9.28992
9.31624
9.32639
9.34818
9.35625
9.37403
9.38021
9.39334
9.40042
9.4264
7.42099
8.70459
8.97028
9.07868
9.11631
9.1644
9.18075
9.2143
9.22512
9.25034
9.25839
9.27835
9.28437
9.30027
9.30459
9.31708
9.31986
9.3287
9.33177
9.35702
7.48602
8.7583
9.01125
9.10353
9.12799
9.16237
9.16868
9.18797
9.1902
9.2028
9.20324
9.21192
9.21132
9.21753
9.21589
9.22047
9.21765
9.22128
9.21963
9.24359
8.08907
9.22761
9.34712
9.33281
9.29389
9.28478
9.26138
9.2581
9.24251
9.2404
9.22809
9.22652
9.2163
9.21505
9.20603
9.20516
9.19638
9.19675
9.19555
9.22551
13.8485
14.0192
13.4457
12.896
12.6345
12.5337
12.4471
12.4218
12.377
12.3679
12.3394
12.3349
12.3166
12.3153
12.3033
12.3024
12.2936
12.2915
12.4498
12.4772
52.0567
56.5343
56.5749
56.6281
56.5546
56.5651
56.5095
56.5237
56.4878
56.5038
56.4776
56.4918
56.4698
56.4804
56.4618
56.47
56.4597
56.4525
56.5059
56.6925
144.238
146.355
147.403
148.266
148.927
149.552
150.078
150.605
151.065
151.521
151.919
152.313
152.671
153.032
153.363
153.691
153.985
154.272
154.529
154.778
155.001
155.213
155.395
155.564
155.705
155.835
155.941
156.038
156.114
156.182
156.231
156.272
156.299
156.321
156.333
156.344
156.348
156.353
156.354
156.357
156.356
156.359
156.357
156.36
156.358
156.36
156.359
156.361
156.36
156.362
156.361
156.363
156.362
156.364
156.363
156.365
156.364
156.366
156.365
156.367
156.366
156.368
156.368
156.369
156.369
156.37
156.37
156.371
156.371
156.372
156.371
156.373
156.372
156.373
156.373
156.374
156.374
156.375
156.375
156.375
156.375
156.376
156.375
156.376
156.374
156.375
156.372
156.374
156.341
156.321
47.3393
49.1096
49.44
49.7361
49.9308
50.1506
50.3084
50.4958
50.6354
50.7974
50.9182
51.0593
51.1689
51.2984
51.4006
51.5177
51.6084
51.7111
51.7903
51.8803
51.9488
52.0256
52.0811
52.1431
52.1855
52.2343
52.2656
52.3032
52.3249
52.3523
52.3652
52.3838
52.3898
52.4019
52.4034
52.4115
52.4109
52.4169
52.4154
52.4204
52.4188
52.4234
52.4218
52.4261
52.4247
52.4288
52.4275
52.4314
52.4303
52.4341
52.4331
52.4366
52.4358
52.4392
52.4384
52.4417
52.441
52.4441
52.4435
52.4465
52.446
52.4488
52.4484
52.451
52.4507
52.4532
52.4529
52.4553
52.455
52.4573
52.457
52.4592
52.4589
52.461
52.4607
52.4626
52.4624
52.4641
52.4639
52.4655
52.4651
52.4666
52.4661
52.4675
52.4667
52.468
52.4664
52.4685
52.451
52.4416
30.5358
32.5676
32.7726
32.9686
33.0664
33.2157
33.2952
33.4246
33.4988
33.6141
33.6796
33.78
33.8393
33.9315
33.9886
34.0736
34.1254
34.2008
34.246
34.3129
34.3526
34.4114
34.4442
34.4935
34.5184
34.5585
34.5766
34.6091
34.6216
34.6473
34.6547
34.6739
34.6771
34.6912
34.6915
34.7022
34.701
34.71
34.7082
34.7162
34.7144
34.7219
34.7203
34.7274
34.726
34.7328
34.7316
34.7381
34.7372
34.7434
34.7427
34.7486
34.748
34.7537
34.7533
34.7587
34.7585
34.7636
34.7635
34.7684
34.7684
34.7731
34.7731
34.7777
34.7777
34.7821
34.7822
34.7863
34.7865
34.7904
34.7906
34.7943
34.7945
34.7981
34.7982
34.8016
34.8017
34.8049
34.805
34.8079
34.808
34.8106
34.8106
34.813
34.8128
34.8151
34.8143
34.8168
34.8123
34.7918
28.3022
30.734
30.936
31.1106
31.1789
31.3116
31.3656
31.4812
31.5365
31.6447
31.6958
31.7902
31.8355
31.922
31.9676
32.0498
32.093
32.1667
32.2044
32.2703
32.3041
32.3637
32.3929
32.4444
32.467
32.5096
32.5263
32.5616
32.5737
32.6028
32.6106
32.6335
32.6373
32.6547
32.6555
32.669
32.6682
32.6795
32.6779
32.6881
32.6864
32.6959
32.6945
32.7034
32.7023
32.7109
32.71
32.7183
32.7177
32.7256
32.7252
32.7328
32.7326
32.7399
32.7399
32.7469
32.747
32.7537
32.754
32.7604
32.7608
32.767
32.7674
32.7733
32.7739
32.7795
32.7801
32.7855
32.7861
32.7913
32.792
32.7969
32.7975
32.8022
32.8029
32.8073
32.8079
32.8121
32.8127
32.8166
32.8171
32.8207
32.8211
32.8245
32.8247
32.8279
32.8278
32.8306
32.8314
32.807
28.1367
30.81
31.0193
31.1839
31.2321
31.3508
31.3874
31.49
31.5322
31.6337
31.6756
31.7652
31.8016
31.8831
31.9213
32.0013
32.0392
32.112
32.145
32.2102
32.2405
32.3008
32.3282
32.3815
32.4032
32.4477
32.464
32.5014
32.5138
32.5453
32.5539
32.5795
32.5842
32.6041
32.6056
32.6211
32.6207
32.6336
32.6323
32.6439
32.6425
32.6532
32.652
32.6622
32.6613
32.6711
32.6705
32.6799
32.6796
32.6886
32.6886
32.6972
32.6974
32.7057
32.7061
32.7141
32.7146
32.7223
32.7229
32.7304
32.7311
32.7383
32.7391
32.7459
32.7468
32.7534
32.7544
32.7607
32.7617
32.7677
32.7687
32.7745
32.7755
32.781
32.782
32.7872
32.7881
32.7931
32.794
32.7986
32.7994
32.8037
32.8045
32.8085
32.809
32.8127
32.8131
32.8161
32.8187
32.7918
28.2215
31.0436
31.2551
31.4069
31.4372
31.5384
31.5593
31.6461
31.676
31.7669
31.8
31.8814
31.9097
31.9835
32.0151
32.0897
32.1224
32.1914
32.2199
32.2817
32.3085
32.3667
32.3918
32.4443
32.4646
32.5088
32.5242
32.5616
32.5737
32.6059
32.6148
32.6415
32.6466
32.6676
32.6695
32.686
32.6859
32.6996
32.6985
32.7107
32.7095
32.7208
32.7198
32.7306
32.7298
32.7402
32.7398
32.7497
32.7496
32.7592
32.7593
32.7685
32.7689
32.7778
32.7783
32.7869
32.7876
32.7958
32.7966
32.8046
32.8055
32.8132
32.8142
32.8215
32.8226
32.8297
32.8309
32.8376
32.8388
32.8453
32.8465
32.8527
32.854
32.8599
32.8611
32.8667
32.8679
32.8732
32.8743
32.8793
32.8804
32.885
32.886
32.8903
32.8911
32.8951
32.8959
32.8987
32.9029
32.8746
28.2232
31.0338
31.2265
31.3578
31.37
31.4518
31.4585
31.5295
31.5482
31.6264
31.6504
31.7212
31.7417
31.8064
31.8312
31.898
31.9249
31.9871
32.0106
32.0665
32.0892
32.1426
32.1644
32.2132
32.2309
32.2723
32.2858
32.3213
32.3321
32.3631
32.3712
32.3972
32.4019
32.4226
32.4244
32.4407
32.4405
32.4542
32.4531
32.4653
32.4641
32.4754
32.4743
32.4851
32.4844
32.4947
32.4943
32.5043
32.5042
32.5137
32.5139
32.5231
32.5234
32.5323
32.5329
32.5414
32.5421
32.5503
32.5512
32.5591
32.5601
32.5677
32.5687
32.5761
32.5772
32.5842
32.5854
32.5922
32.5934
32.5999
32.6011
32.6073
32.6085
32.6144
32.6157
32.6213
32.6225
32.6278
32.6289
32.6339
32.635
32.6396
32.6406
32.6449
32.6458
32.6497
32.6506
32.6534
32.6577
32.6299
28.1394
30.7697
30.9165
31.0177
31.0117
31.0739
31.0682
31.1258
31.1345
31.1995
31.2145
31.2735
31.2865
31.3413
31.3594
31.4166
31.4368
31.4901
31.5078
31.556
31.5737
31.6202
31.6376
31.6802
31.6942
31.7306
31.7413
31.7728
31.7815
31.8093
31.8158
31.8393
31.843
31.8619
31.863
31.8781
31.8775
31.8903
31.889
31.9004
31.8991
31.9097
31.9086
31.9187
31.9179
31.9276
31.9271
31.9364
31.9362
31.9451
31.9451
31.9537
31.9539
31.9623
31.9626
31.9706
31.9711
31.9788
31.9795
31.9869
31.9877
31.9948
31.9956
32.0025
32.0034
32.01
32.0109
32.0173
32.0183
32.0243
32.0253
32.0311
32.0321
32.0376
32.0387
32.0439
32.0449
32.0498
32.0507
32.0554
32.0562
32.0606
32.0613
32.0653
32.066
32.0696
32.0702
32.0728
32.0764
32.0512
28.2852
30.6088
30.6957
30.7635
30.7438
30.7884
30.7744
30.8197
30.8209
30.872
30.8789
30.9251
30.9317
30.9758
30.9875
31.0335
31.0469
31.0894
31.1013
31.1401
31.1526
31.1903
31.2026
31.237
31.2468
31.2764
31.2838
31.3097
31.3157
31.3387
31.3431
31.3627
31.3649
31.3807
31.3809
31.3938
31.3927
31.4038
31.4022
31.4122
31.4106
31.42
31.4187
31.4276
31.4265
31.4351
31.4343
31.4425
31.4419
31.4498
31.4495
31.457
31.4569
31.4642
31.4642
31.4712
31.4714
31.4781
31.4784
31.4848
31.4852
31.4914
31.4919
31.4978
31.4984
31.5041
31.5047
31.5101
31.5108
31.516
31.5167
31.5216
31.5223
31.527
31.5277
31.5322
31.5329
31.5371
31.5377
31.5416
31.5422
31.5459
31.5464
31.5498
31.5501
31.5532
31.5535
31.5559
31.5577
31.5354
30.432
32.2403
32.2626
32.3049
32.2781
32.3101
32.2927
32.3277
32.3236
32.3616
32.362
32.3958
32.3972
32.4301
32.4359
32.4697
32.4767
32.5075
32.5138
32.5423
32.5495
32.5771
32.5842
32.6092
32.6146
32.6362
32.6402
32.6593
32.6625
32.6796
32.6817
32.6963
32.6968
32.7087
32.708
32.7179
32.7164
32.7251
32.7233
32.7312
32.7295
32.7369
32.7354
32.7425
32.7412
32.748
32.747
32.7534
32.7526
32.7588
32.7582
32.7641
32.7636
32.7693
32.769
32.7744
32.7743
32.7795
32.7794
32.7844
32.7844
32.7892
32.7893
32.7938
32.794
32.7984
32.7986
32.8027
32.803
32.8069
32.8072
32.811
32.8113
32.8149
32.8151
32.8185
32.8188
32.822
32.8222
32.8252
32.8254
32.8281
32.8282
32.8307
32.8307
32.8329
32.8326
32.8346
32.8325
32.8147
46.9357
48.2264
48.2234
48.2514
48.2287
48.2521
48.2382
48.2646
48.2616
48.2897
48.2898
48.3143
48.3155
48.3396
48.3443
48.3686
48.374
48.3958
48.4007
48.4209
48.4266
48.446
48.4515
48.4688
48.4729
48.4878
48.4908
48.5039
48.5063
48.5179
48.5194
48.5291
48.5293
48.5371
48.5363
48.5427
48.5413
48.5468
48.5452
48.5501
48.5486
48.5532
48.5518
48.5561
48.5549
48.5591
48.558
48.5619
48.561
48.5648
48.564
48.5676
48.5669
48.5703
48.5697
48.573
48.5725
48.5757
48.5752
48.5782
48.5779
48.5807
48.5805
48.5832
48.5829
48.5855
48.5854
48.5878
48.5877
48.59
48.5899
48.5921
48.592
48.5941
48.594
48.596
48.5959
48.5977
48.5976
48.5993
48.5991
48.6007
48.6005
48.6018
48.6015
48.6026
48.6019
48.6034
48.5884
48.581
142.634
143.254
143.278
143.318
143.31
143.338
143.335
143.366
143.379
143.417
143.433
143.466
143.481
143.513
143.532
143.565
143.586
143.615
143.633
143.66
143.678
143.704
143.721
143.744
143.758
143.776
143.787
143.803
143.812
143.826
143.833
143.843
143.847
143.855
143.856
143.861
143.861
143.865
143.864
143.867
143.866
143.868
143.867
143.87
143.869
143.871
143.87
143.872
143.871
143.873
143.873
143.874
143.874
143.876
143.875
143.877
143.876
143.878
143.878
143.879
143.879
143.88
143.88
143.881
143.881
143.883
143.882
143.884
143.884
143.885
143.885
143.886
143.886
143.887
143.887
143.888
143.887
143.888
143.888
143.889
143.889
143.89
143.889
143.89
143.889
143.89
143.889
143.89
143.861
143.847
30.2165
30.9831
31.2091
31.377
31.5163
31.6424
31.7532
31.8627
31.9575
32.0528
32.1333
32.2176
32.29
32.3684
32.4346
32.5056
32.5637
32.6262
32.6766
32.7317
32.7748
32.8214
32.8559
32.8934
32.9195
32.949
32.9681
32.9906
33.0035
33.0198
33.0272
33.038
33.0411
33.0481
33.0486
33.0533
33.0525
33.0561
33.0548
33.0579
33.0566
33.0594
33.0581
33.0607
33.0596
33.0621
33.0611
33.0635
33.0626
33.0648
33.064
33.0661
33.0654
33.0675
33.0668
33.0687
33.0682
33.07
33.0695
33.0713
33.0708
33.0725
33.0721
33.0737
33.0733
33.0748
33.0745
33.076
33.0757
33.0771
33.0768
33.0782
33.078
33.0792
33.0791
33.0803
33.0801
33.0813
33.0812
33.0823
33.0823
33.0835
33.0835
33.0847
33.0848
33.0863
33.0863
33.0889
33.0852
33.0855
28.0837
29.4142
29.6396
29.8066
29.9383
30.0621
30.1675
30.274
30.3656
30.4582
30.5364
30.6176
30.6878
30.763
30.8277
30.896
30.9531
31.0131
31.0628
31.1156
31.1585
31.2035
31.2382
31.2745
31.3012
31.3296
31.3495
31.3713
31.3852
31.401
31.4096
31.4202
31.4244
31.4312
31.4327
31.4371
31.4373
31.4405
31.4402
31.4429
31.4424
31.4448
31.4444
31.4467
31.4463
31.4485
31.4482
31.4502
31.45
31.452
31.4518
31.4537
31.4536
31.4554
31.4553
31.4571
31.4571
31.4587
31.4587
31.4603
31.4604
31.4619
31.462
31.4634
31.4635
31.4649
31.465
31.4664
31.4665
31.4678
31.4679
31.4691
31.4692
31.4704
31.4706
31.4717
31.4718
31.473
31.473
31.4742
31.4742
31.4753
31.4753
31.4765
31.4763
31.4777
31.4772
31.479
31.4782
31.48
25.8804
27.7169
27.9592
28.1119
28.2327
28.3429
28.4384
28.5331
28.6189
28.7033
28.7776
28.8506
28.9164
28.9839
29.0457
29.1083
29.1637
29.2187
29.267
29.3155
29.3578
29.3999
29.4353
29.4697
29.4973
29.5242
29.5452
29.5659
29.5813
29.5966
29.6069
29.6171
29.6229
29.6291
29.6319
29.6356
29.6366
29.6389
29.6392
29.6409
29.6409
29.6423
29.6424
29.6437
29.6437
29.645
29.645
29.6462
29.6463
29.6475
29.6476
29.6488
29.6489
29.65
29.6502
29.6513
29.6514
29.6525
29.6527
29.6537
29.6539
29.6548
29.6551
29.656
29.6562
29.6571
29.6574
29.6582
29.6585
29.6593
29.6596
29.6604
29.6606
29.6614
29.6617
29.6625
29.6627
29.6634
29.6636
29.6644
29.6645
29.6653
29.6654
29.6661
29.666
29.6669
29.6664
29.6674
29.6663
29.6468
25.1427
27.2279
27.4658
27.5978
27.7023
27.7982
27.8812
27.9649
28.0436
28.1223
28.1927
28.2605
28.3218
28.3841
28.4429
28.5023
28.5565
28.6091
28.6562
28.7025
28.7445
28.7858
28.8221
28.8566
28.8855
28.9126
28.9348
28.9559
28.9729
28.9888
29.0009
29.0119
29.0193
29.0259
29.0297
29.0334
29.035
29.037
29.0376
29.0388
29.0391
29.04
29.0401
29.0409
29.041
29.0417
29.0419
29.0426
29.0427
29.0434
29.0436
29.0443
29.0445
29.0451
29.0453
29.046
29.0462
29.0468
29.047
29.0476
29.0478
29.0485
29.0487
29.0493
29.0495
29.0501
29.0503
29.0508
29.0511
29.0516
29.0518
29.0524
29.0526
29.0531
29.0533
29.0538
29.054
29.0545
29.0547
29.0552
29.0553
29.0559
29.0559
29.0564
29.0564
29.057
29.0566
29.0574
29.0568
29.0425
24.6933
26.938
27.1604
27.2674
27.3501
27.4281
27.4948
27.5647
27.6325
27.7032
27.7669
27.8281
27.8828
27.9385
27.9921
28.0469
28.0976
28.1468
28.1908
28.2341
28.2738
28.3135
28.3489
28.3828
28.4115
28.4383
28.4606
28.4817
28.4992
28.5157
28.5287
28.5404
28.5488
28.556
28.5605
28.5644
28.5664
28.5685
28.5692
28.5704
28.5706
28.5714
28.5715
28.5721
28.5722
28.5728
28.5729
28.5734
28.5735
28.5741
28.5742
28.5748
28.5749
28.5754
28.5756
28.5761
28.5763
28.5768
28.5769
28.5774
28.5776
28.5781
28.5783
28.5787
28.5789
28.5794
28.5796
28.58
28.5802
28.5806
28.5808
28.5813
28.5814
28.5819
28.582
28.5825
28.5826
28.5831
28.5832
28.5836
28.5837
28.5841
28.5842
28.5846
28.5845
28.585
28.5845
28.585
28.5845
28.5624
24.6013
26.8872
27.086
27.1659
27.2263
27.285
27.3352
27.3901
27.446
27.5067
27.5621
27.6154
27.6626
27.7113
27.7585
27.8083
27.8544
27.8995
27.9394
27.9791
28.0156
28.0527
28.0862
28.1186
28.146
28.1718
28.1932
28.2138
28.231
28.2475
28.2606
28.2727
28.2814
28.289
28.2938
28.298
28.3002
28.3024
28.3032
28.3044
28.3047
28.3055
28.3055
28.3062
28.3062
28.3068
28.3069
28.3075
28.3076
28.3081
28.3082
28.3088
28.3089
28.3094
28.3095
28.31
28.3102
28.3107
28.3108
28.3113
28.3114
28.3119
28.312
28.3125
28.3127
28.3131
28.3133
28.3137
28.3139
28.3143
28.3144
28.3149
28.315
28.3154
28.3156
28.316
28.3161
28.3165
28.3166
28.317
28.3171
28.3175
28.3175
28.3179
28.3179
28.3183
28.318
28.3185
28.3179
28.2983
24.6016
26.8758
27.056
27.116
27.1581
27.2
27.2352
27.2764
27.3205
27.3703
27.4161
27.4602
27.4991
27.5398
27.5799
27.623
27.6628
27.702
27.7366
27.7712
27.8032
27.8362
27.866
27.8952
27.9199
27.9432
27.9626
27.9815
27.9973
28.0127
28.025
28.0365
28.0448
28.0522
28.0567
28.0609
28.063
28.0652
28.0659
28.0672
28.0674
28.0682
28.0683
28.069
28.069
28.0696
28.0697
28.0703
28.0704
28.071
28.0711
28.0716
28.0717
28.0723
28.0724
28.0729
28.073
28.0736
28.0737
28.0742
28.0743
28.0748
28.075
28.0755
28.0756
28.0761
28.0762
28.0767
28.0768
28.0773
28.0774
28.0779
28.078
28.0785
28.0786
28.079
28.0792
28.0796
28.0797
28.0801
28.0802
28.0806
28.0807
28.0811
28.081
28.0815
28.0812
28.0816
28.0812
28.062
24.6932
26.8947
27.0588
27.1061
27.1354
27.1645
27.1882
27.219
27.2527
27.2922
27.328
27.3629
27.3934
27.4264
27.4591
27.4944
27.5271
27.5592
27.5874
27.6161
27.6427
27.6704
27.6955
27.7201
27.7408
27.7605
27.7769
27.7931
27.8066
27.8199
27.8306
27.8406
27.8478
27.8542
27.8582
27.8619
27.8637
27.8657
27.8664
27.8675
27.8678
27.8686
27.8687
27.8694
27.8695
27.8701
27.8702
27.8708
27.8709
27.8715
27.8717
27.8723
27.8724
27.873
27.8731
27.8737
27.8739
27.8744
27.8746
27.8751
27.8753
27.8758
27.876
27.8765
27.8767
27.8772
27.8774
27.8779
27.8781
27.8786
27.8788
27.8793
27.8795
27.8799
27.8801
27.8806
27.8808
27.8812
27.8814
27.8818
27.882
27.8824
27.8825
27.883
27.8829
27.8834
27.8831
27.8833
27.8834
27.8628
25.1237
27.1067
27.2356
27.2692
27.2879
27.3066
27.3218
27.3439
27.3685
27.3977
27.4234
27.449
27.4713
27.4964
27.5212
27.5486
27.5732
27.598
27.6193
27.6418
27.6622
27.6842
27.7035
27.7229
27.7387
27.7544
27.767
27.78
27.7906
27.8014
27.8097
27.8179
27.8235
27.8288
27.8319
27.8351
27.8365
27.8383
27.8389
27.8401
27.8404
27.8413
27.8415
27.8423
27.8424
27.8432
27.8434
27.8442
27.8444
27.8451
27.8453
27.8461
27.8463
27.847
27.8472
27.8479
27.8482
27.8488
27.8491
27.8498
27.85
27.8507
27.8509
27.8516
27.8518
27.8524
27.8527
27.8533
27.8536
27.8542
27.8544
27.855
27.8553
27.8559
27.8561
27.8567
27.8569
27.8575
27.8577
27.8583
27.8585
27.859
27.8592
27.8597
27.8598
27.8603
27.8602
27.8606
27.8606
27.8482
25.8029
27.4504
27.5348
27.5557
27.5656
27.5768
27.5854
27.6009
27.6166
27.6366
27.6524
27.6699
27.6839
27.7021
27.7182
27.7378
27.7535
27.7711
27.7848
27.8012
27.8145
27.8306
27.8431
27.8572
27.8673
27.8788
27.8869
27.8968
27.9036
27.912
27.9173
27.9237
27.9271
27.9316
27.9334
27.9364
27.9371
27.9392
27.9395
27.9411
27.9412
27.9427
27.9427
27.9441
27.9442
27.9455
27.9456
27.9469
27.9471
27.9483
27.9485
27.9496
27.9499
27.951
27.9512
27.9523
27.9526
27.9537
27.9539
27.955
27.9553
27.9563
27.9566
27.9575
27.9578
27.9588
27.9591
27.96
27.9603
27.9612
27.9615
27.9624
27.9627
27.9636
27.9639
27.9647
27.965
27.9658
27.9661
27.9669
27.9671
27.9679
27.9681
27.9689
27.969
27.9698
27.9697
27.9704
27.9709
27.9537
27.8677
28.9169
28.9424
28.9501
28.9508
28.9579
28.9601
28.9715
28.978
28.992
28.9982
29.0108
29.0165
29.0298
29.0369
29.0508
29.0576
29.0702
29.076
29.088
29.094
29.1056
29.1111
29.1214
29.1257
29.1345
29.1379
29.1457
29.1484
29.1553
29.1572
29.1629
29.1639
29.1683
29.1685
29.172
29.1718
29.1747
29.1743
29.1769
29.1765
29.1789
29.1786
29.1809
29.1806
29.1828
29.1826
29.1848
29.1846
29.1866
29.1865
29.1885
29.1884
29.1903
29.1903
29.1921
29.1921
29.1939
29.1939
29.1956
29.1957
29.1973
29.1974
29.1989
29.1991
29.2005
29.2007
29.2021
29.2023
29.2036
29.2038
29.2051
29.2053
29.2066
29.2067
29.208
29.2082
29.2093
29.2095
29.2107
29.2108
29.212
29.2121
29.2133
29.2134
29.2147
29.2146
29.2162
29.2166
29.2195
29.837
30.2748
30.2825
30.2778
30.2752
30.2754
30.2735
30.2784
30.2783
30.2855
30.2851
30.2924
30.2919
30.3
30.3003
30.3089
30.3091
30.3172
30.3172
30.3251
30.3254
30.3331
30.3334
30.3404
30.3403
30.3466
30.3462
30.352
30.3515
30.3568
30.3561
30.3607
30.3597
30.3637
30.3624
30.3659
30.3645
30.3677
30.3664
30.3693
30.3681
30.3708
30.3697
30.3723
30.3713
30.3738
30.3729
30.3753
30.3745
30.3768
30.376
30.3782
30.3776
30.3796
30.379
30.381
30.3805
30.3824
30.3819
30.3837
30.3833
30.385
30.3847
30.3863
30.386
30.3875
30.3873
30.3888
30.3885
30.3899
30.3898
30.3911
30.391
30.3922
30.3921
30.3934
30.3933
30.3945
30.3944
30.3956
30.3956
30.3968
30.3969
30.3982
30.3984
30.3999
30.4002
30.4026
30.3993
30.4
3.63295
3.83432
3.85657
3.86743
3.88524
3.90192
3.91842
3.93717
3.95068
3.96927
3.97985
3.998
4.00657
4.02413
4.03096
4.04735
4.05263
4.06774
4.07179
4.08564
4.08854
4.10092
4.10268
4.11358
4.11439
4.12398
4.12404
4.13244
4.13186
4.13919
4.13808
4.1445
4.14305
4.14878
4.14721
4.15244
4.15088
4.15576
4.15429
4.15887
4.15752
4.16186
4.16063
4.16474
4.16363
4.16753
4.16654
4.17024
4.16936
4.17288
4.17209
4.17543
4.17474