/*--------------------------------*- C++ -*----------------------------------*\
  =========                 |
  \\      /  F ield         | OpenFOAM: The Open Source CFD Toolbox
   \\    /   O peration     | Website:  https://openfoam.org
    \\  /    A nd           | Version:  7
     \\/     M anipulation  |
\*---------------------------------------------------------------------------*/
FoamFile
{
    version     2.0;
    format      ascii;
    class       volVectorField;
    location    "0.0675";
    object      UMean;
}
// * * * * * * * * * * * * * * * * * * * * * * * * * * * * * * * * * * * * * //

dimensions      [0 1 -1 0 0 0 0];

internalField   nonuniform List<vector> 
7920
(
(3.22911 0.0474734 -32.4188)
(2.99156 -0.375951 -32.4858)
(2.62365 -0.451521 -32.4957)
(2.73635 -0.471551 -32.5032)
(2.57612 -0.475604 -32.5014)
(2.67425 -0.475746 -32.5039)
(2.54233 -0.476832 -32.5021)
(2.61959 -0.47591 -32.5038)
(2.50778 -0.476768 -32.5025)
(2.56894 -0.475879 -32.5037)
(2.47367 -0.476609 -32.5028)
(2.52179 -0.47583 -32.5036)
(2.44031 -0.476441 -32.5031)
(2.47775 -0.475783 -32.5036)
(2.40786 -0.476089 -32.5033)
(2.43617 -0.475845 -32.5036)
(2.37561 -0.473743 -32.5034)
(2.39198 -0.477132 -32.5035)
(2.33436 -0.448095 -32.5042)
(2.24059 -0.403621 -32.4913)
(4.4017 0.681915 -32.4672)
(4.59325 0.516761 -32.5429)
(4.29785 0.484558 -32.5666)
(4.46669 0.458743 -32.5835)
(4.26077 0.457983 -32.5844)
(4.39457 0.458637 -32.588)
(4.21772 0.458377 -32.586)
(4.32364 0.458973 -32.588)
(4.17186 0.458367 -32.5866)
(4.2565 0.45885 -32.588)
(4.12603 0.458263 -32.5871)
(4.19313 0.458703 -32.5879)
(4.08064 0.458155 -32.5874)
(4.13318 0.458588 -32.5877)
(4.03577 0.457981 -32.5875)
(4.07691 0.458891 -32.5874)
(3.98886 0.457387 -32.5873)
(4.03267 0.463222 -32.5868)
(3.90687 0.460432 -32.5881)
(4.11277 0.489472 -32.5656)
(4.64404 0.0529247 -32.4733)
(4.99366 -0.334216 -32.544)
(4.74348 -0.415989 -32.5693)
(4.8948 -0.454866 -32.59)
(4.6698 -0.457456 -32.5929)
(4.80205 -0.457562 -32.5975)
(4.61678 -0.457784 -32.5957)
(4.72557 -0.457187 -32.598)
(4.56731 -0.457675 -32.5965)
(4.65443 -0.457113 -32.5982)
(4.51814 -0.457566 -32.5972)
(4.58712 -0.457054 -32.5984)
(4.4694 -0.457444 -32.5978)
(4.52307 -0.456958 -32.5985)
(4.42147 -0.457297 -32.5982)
(4.46113 -0.456254 -32.5986)
(4.37615 -0.457632 -32.5985)
(4.39345 -0.447202 -32.5986)
(4.34058 -0.463597 -32.599)
(4.27553 -0.369683 -32.5809)
(4.63364 0.458225 -32.4809)
(4.9369 0.458757 -32.5516)
(4.74468 0.472197 -32.5775)
(4.91748 0.452628 -32.5983)
(4.70398 0.448439 -32.6014)
(4.8401 0.446188 -32.606)
(4.65578 0.445305 -32.6041)
(4.76503 0.445533 -32.6063)
(4.60635 0.445016 -32.6049)
(4.69364 0.445355 -32.6065)
(4.55683 0.444905 -32.6055)
(4.62594 0.445204 -32.6066)
(4.50768 0.44482 -32.6059)
(4.56167 0.445051 -32.6067)
(4.45903 0.444926 -32.6063)
(4.50131 0.444981 -32.6068)
(4.41025 0.446777 -32.6067)
(4.45078 0.446401 -32.6066)
(4.36632 0.463208 -32.6066)
(4.44719 0.483714 -32.5886)
(4.62483 -0.113533 -32.48)
(4.92304 -0.362563 -32.5483)
(4.7482 -0.418696 -32.5734)
(4.92177 -0.444229 -32.594)
(4.70866 -0.44604 -32.597)
(4.84345 -0.445698 -32.6018)
(4.65837 -0.445328 -32.5999)
(4.76738 -0.445063 -32.6023)
(4.6086 -0.445061 -32.6008)
(4.69586 -0.444915 -32.6025)
(4.55905 -0.444949 -32.6015)
(4.62811 -0.444814 -32.6027)
(4.50989 -0.444867 -32.6021)
(4.56368 -0.444657 -32.6028)
(4.46152 -0.444988 -32.6025)
(4.5019 -0.443746 -32.603)
(4.41609 -0.447349 -32.6028)
(4.43881 -0.435242 -32.6031)
(4.38947 -0.464772 -32.6031)
(4.3586 -0.408467 -32.5867)
(4.61136 0.273583 -32.4828)
(4.89215 0.405323 -32.5508)
(4.73487 0.443651 -32.576)
(4.91575 0.445608 -32.5964)
(4.70687 0.443959 -32.5993)
(4.84297 0.442088 -32.604)
(4.65852 0.441217 -32.6022)
(4.76768 0.441173 -32.6045)
(4.60894 0.440834 -32.6031)
(4.69623 0.440984 -32.6047)
(4.5594 0.440719 -32.6037)
(4.6285 0.440853 -32.6048)
(4.51023 0.440653 -32.6042)
(4.56415 0.44069 -32.605)
(4.46174 0.440885 -32.6046)
(4.50318 0.440118 -32.6051)
(4.41512 0.443859 -32.605)
(4.44685 0.436061 -32.6052)
(4.38551 0.465153 -32.6054)
(4.40713 0.448546 -32.5889)
(4.61136 -0.273584 -32.4828)
(4.89215 -0.405323 -32.5508)
(4.73487 -0.443651 -32.576)
(4.91575 -0.445608 -32.5964)
(4.70687 -0.443958 -32.5993)
(4.84297 -0.442087 -32.604)
(4.65852 -0.441216 -32.6022)
(4.76768 -0.441172 -32.6045)
(4.60894 -0.440832 -32.6031)
(4.69623 -0.440982 -32.6047)
(4.5594 -0.440717 -32.6037)
(4.62849 -0.440851 -32.6048)
(4.51023 -0.440649 -32.6042)
(4.56414 -0.44068 -32.605)
(4.46174 -0.440873 -32.6046)
(4.50316 -0.440074 -32.6051)
(4.41517 -0.443792 -32.605)
(4.44684 -0.435852 -32.6052)
(4.38554 -0.464813 -32.6053)
(4.40708 -0.447702 -32.5889)
(4.62483 0.113532 -32.48)
(4.92305 0.362563 -32.5483)
(4.7482 0.418696 -32.5734)
(4.92177 0.444229 -32.594)
(4.70866 0.446041 -32.597)
(4.84345 0.4457 -32.6018)
(4.65837 0.445329 -32.5999)
(4.76738 0.445064 -32.6023)
(4.6086 0.445062 -32.6008)
(4.69586 0.444917 -32.6025)
(4.55905 0.444952 -32.6015)
(4.62812 0.444818 -32.6027)
(4.5099 0.444873 -32.6021)
(4.56369 0.444668 -32.6028)
(4.46153 0.445008 -32.6025)
(4.50193 0.44379 -32.603)
(4.41609 0.44742 -32.6028)
(4.4389 0.435435 -32.6031)
(4.38963 0.465073 -32.6031)
(4.35913 0.409382 -32.5868)
(4.63364 -0.458226 -32.4809)
(4.9369 -0.458757 -32.5516)
(4.74468 -0.472197 -32.5775)
(4.91748 -0.452628 -32.5983)
(4.70398 -0.448438 -32.6014)
(4.8401 -0.446187 -32.606)
(4.65578 -0.445304 -32.6041)
(4.76503 -0.445533 -32.6063)
(4.60635 -0.445015 -32.6049)
(4.69364 -0.445354 -32.6065)
(4.55683 -0.444904 -32.6055)
(4.62594 -0.445203 -32.6066)
(4.50768 -0.444821 -32.6059)
(4.56167 -0.445046 -32.6067)
(4.45904 -0.444925 -32.6063)
(4.5013 -0.444946 -32.6068)
(4.41034 -0.44675 -32.6067)
(4.45084 -0.446198 -32.6066)
(4.36657 -0.462963 -32.6065)
(4.44751 -0.483003 -32.589)
(4.64404 -0.0529253 -32.4733)
(4.99366 0.334216 -32.544)
(4.74348 0.415989 -32.5693)
(4.89481 0.454867 -32.59)
(4.6698 0.457456 -32.5929)
(4.80206 0.457564 -32.5975)
(4.61678 0.457785 -32.5957)
(4.72557 0.457189 -32.598)
(4.56731 0.457678 -32.5965)
(4.65444 0.457116 -32.5982)
(4.51814 0.457569 -32.5972)
(4.58712 0.457058 -32.5984)
(4.4694 0.457453 -32.5978)
(4.52308 0.456969 -32.5985)
(4.42149 0.457322 -32.5982)
(4.46118 0.456285 -32.5986)
(4.3762 0.457715 -32.5985)
(4.39361 0.447318 -32.5988)
(4.3409 0.46381 -32.5984)
(4.27664 0.370573 -32.583)
(4.4017 -0.681916 -32.4672)
(4.59325 -0.516762 -32.5429)
(4.29785 -0.484558 -32.5666)
(4.46669 -0.458743 -32.5835)
(4.26077 -0.457982 -32.5844)
(4.39457 -0.458637 -32.588)
(4.21772 -0.458376 -32.586)
(4.32364 -0.458972 -32.588)
(4.17186 -0.458367 -32.5866)
(4.25651 -0.45885 -32.588)
(4.12603 -0.458263 -32.5871)
(4.19313 -0.458703 -32.5879)
(4.08065 -0.458159 -32.5874)
(4.13319 -0.458589 -32.5877)
(4.03579 -0.45799 -32.5875)
(4.07693 -0.458876 -32.5874)
(3.98898 -0.457411 -32.5872)
(4.03281 -0.463072 -32.5872)
(3.90736 -0.460392 -32.5864)
(4.11363 -0.48909 -32.5721)
(3.22911 -0.0474741 -32.4188)
(2.99156 0.375951 -32.4858)
(2.62365 0.45152 -32.4957)
(2.73636 0.471551 -32.5032)
(2.57612 0.475603 -32.5014)
(2.67425 0.475747 -32.5039)
(2.54233 0.476833 -32.5021)
(2.61959 0.475911 -32.5038)
(2.50778 0.476769 -32.5025)
(2.56894 0.475882 -32.5037)
(2.47367 0.476611 -32.5028)
(2.52179 0.475834 -32.5037)
(2.44031 0.476449 -32.5031)
(2.47776 0.47579 -32.5036)
(2.40787 0.476108 -32.5033)
(2.4362 0.475852 -32.5036)
(2.37568 0.473807 -32.5034)
(2.39215 0.477092 -32.5037)
(2.33478 0.448246 -32.5033)
(2.24178 0.404014 -32.4975)
(4.42236 0.375177 0.00697182)
(3.92101 0.574053 0.00502543)
(3.64695 0.57279 0.00592573)
(3.61935 0.56006 0.00476552)
(3.54295 0.554131 0.00542596)
(3.57579 0.553557 0.0045053)
(3.50436 0.553053 0.00499587)
(3.53808 0.553361 0.00425858)
(3.467 0.552937 0.0046185)
(3.49842 0.553194 0.00403158)
(3.42995 0.552813 0.00428829)
(3.4573 0.553038 0.00382563)
(3.39277 0.552678 0.00400062)
(3.41484 0.552927 0.00364124)
(3.35503 0.552318 0.00375158)
(3.37128 0.553437 0.0034785)
(3.31443 0.548416 0.00353896)
(3.33901 0.562535 0.00333832)
(3.22351 0.498929 0.0033815)
(3.54386 0.496846 0.00320955)
(4.54881 -0.181383 0.00465964)
(4.59857 -0.353708 0.0031045)
(4.53665 -0.481237 0.00400219)
(4.55592 -0.527243 0.00286198)
(4.47589 -0.537695 0.00352797)
(4.5118 -0.539923 0.0026068)
(4.4322 -0.539454 0.00309976)
(4.47046 -0.539849 0.00236053)
(4.39089 -0.539478 0.00272244)
(4.42685 -0.539765 0.00213381)
(4.34967 -0.539547 0.00239214)
(4.38101 -0.539736 0.00192809)
(4.30787 -0.539602 0.00210439)
(4.33299 -0.539778 0.0017439)
(4.26514 -0.539505 0.00185507)
(4.28194 -0.539928 0.00158134)
(4.2228 -0.539351 0.00163979)
(4.21695 -0.53421 0.00144139)
(4.19658 -0.553716 0.00144178)
(3.98518 -0.458074 0.00131137)
(4.49054 0.302473 0.00578022)
(4.64597 0.537833 0.00425296)
(4.62319 0.5497 0.00507051)
(4.65954 0.540739 0.0039192)
(4.5815 0.533943 0.00457447)
(4.61738 0.532514 0.00365278)
(4.53679 0.531587 0.00414441)
(4.5753 0.531899 0.00340574)
(4.49493 0.531437 0.00376663)
(4.53115 0.531743 0.00317852)
(4.45317 0.531355 0.003436)
(4.48469 0.531605 0.00297237)
(4.41072 0.531279 0.00314796)
(4.43609 0.531472 0.00278776)
(4.36677 0.531205 0.00289855)
(4.38641 0.531465 0.00262475)
(4.31817 0.530538 0.00268527)
(4.34551 0.533931 0.00248295)
(4.25907 0.522335 0.00252132)
(4.36162 0.547253 0.00236642)
(4.46684 -0.204597 0.00474628)
(4.60616 -0.379706 0.00342268)
(4.6044 -0.472196 0.00423266)
(4.65619 -0.507536 0.00309962)
(4.58537 -0.51828 0.00375728)
(4.6239 -0.521682 0.00283723)
(4.54414 -0.521621 0.00332985)
(4.58268 -0.522198 0.00259055)
(4.5024 -0.52179 0.00295249)
(4.53854 -0.522132 0.00236366)
(4.4606 -0.521847 0.00262203)
(4.49204 -0.522083 0.00215779)
(4.41813 -0.521907 0.0023341)
(4.44325 -0.522034 0.00197344)
(4.37457 -0.522109 0.00208447)
(4.39134 -0.521353 0.00181051)
(4.33135 -0.524994 0.00186785)
(4.32639 -0.512055 0.00166785)
(4.30182 -0.552109 0.0016594)
(4.1544 -0.483943 0.00151924)
(4.47417 0.25942 0.00531279)
(4.61688 0.470354 0.00401065)
(4.60611 0.510346 0.00478622)
(4.65849 0.518334 0.00364927)
(4.58717 0.517989 0.00429981)
(4.6253 0.51859 0.00337863)
(4.54521 0.517896 0.00387033)
(4.58377 0.518344 0.00313137)
(4.5034 0.517877 0.00349268)
(4.53958 0.518223 0.00290425)
(4.46158 0.517859 0.0031621)
(4.49306 0.518117 0.0026982)
(4.41906 0.51786 0.00287408)
(4.44439 0.517982 0.00251368)
(4.37515 0.518074 0.00262454)
(4.39402 0.517444 0.00235064)
(4.3289 0.520377 0.00240961)
(4.34418 0.514172 0.00220697)
(4.28916 0.538384 0.00222819)
(4.29975 0.535153 0.00206649)
(4.46971 -0.228147 0.00498353)
(4.60494 -0.419018 0.00373744)
(4.59765 -0.483915 0.00450901)
(4.65399 -0.506034 0.00337793)
(4.58522 -0.512108 0.00402908)
(4.62451 -0.514718 0.0031088)
(4.54487 -0.514503 0.00360084)
(4.58347 -0.515097 0.00286167)
(4.50316 -0.514654 0.00322336)
(4.53932 -0.515019 0.00263465)
(4.46135 -0.514686 0.00289284)
(4.49281 -0.514943 0.00242869)
(4.41885 -0.514732 0.00260484)
(4.44407 -0.514825 0.00224424)
(4.37515 -0.515055 0.00235516)
(4.3928 -0.513944 0.00208116)
(4.33097 -0.518686 0.00213876)
(4.33425 -0.506309 0.00193734)
(4.2986 -0.546463 0.00193933)
(4.23457 -0.512394 0.00178605)
(4.46971 0.228147 0.00498353)
(4.60494 0.419019 0.00373744)
(4.59765 0.483916 0.00450901)
(4.65399 0.506034 0.00337792)
(4.58522 0.512108 0.00402908)
(4.62451 0.514719 0.0031088)
(4.54487 0.514503 0.00360085)
(4.58347 0.515097 0.00286167)
(4.50316 0.514654 0.00322337)
(4.53932 0.515019 0.00263466)
(4.46135 0.514686 0.00289284)
(4.49281 0.514943 0.0024287)
(4.41885 0.514735 0.00260485)
(4.44407 0.514831 0.00224426)
(4.37514 0.515069 0.00235519)
(4.39282 0.513977 0.00208117)
(4.33093 0.518756 0.00213887)
(4.33435 0.506481 0.00193717)
(4.29859 0.546826 0.00193976)
(4.23464 0.513101 0.00178587)
(4.47417 -0.25942 0.00531279)
(4.61688 -0.470354 0.00401065)
(4.60611 -0.510345 0.00478622)
(4.65849 -0.518333 0.00364927)
(4.58717 -0.517989 0.00429981)
(4.6253 -0.51859 0.00337863)
(4.54521 -0.517896 0.00387033)
(4.58377 -0.518344 0.00313136)
(4.5034 -0.517878 0.00349268)
(4.53958 -0.518222 0.00290425)
(4.46158 -0.517859 0.00316209)
(4.49306 -0.518116 0.00269819)
(4.41906 -0.517858 0.00287406)
(4.44439 -0.517974 0.00251367)
(4.37517 -0.518065 0.0026245)
(4.39402 -0.517403 0.00235062)
(4.32897 -0.520322 0.00240948)
(4.34417 -0.513999 0.00220708)
(4.28933 -0.53802 0.00222767)
(4.30001 -0.534457 0.00206634)
(4.46684 0.204597 0.00474629)
(4.60616 0.379707 0.00342268)
(4.6044 0.472196 0.00423266)
(4.65619 0.507537 0.00309962)
(4.58537 0.51828 0.00375728)
(4.6239 0.521682 0.00283723)
(4.54414 0.521621 0.00332986)
(4.58268 0.522197 0.00259055)
(4.50239 0.52179 0.00295249)
(4.53854 0.522132 0.00236366)
(4.4606 0.521847 0.00262204)
(4.49204 0.522083 0.0021578)
(4.41813 0.52191 0.00233411)
(4.44325 0.522036 0.00197345)
(4.37457 0.522123 0.0020845)
(4.39137 0.521369 0.00181051)
(4.33136 0.525062 0.00186792)
(4.32655 0.512164 0.00166766)
(4.30195 0.552428 0.00165964)
(4.155 0.4846 0.00151889)
(4.49054 -0.302472 0.00578022)
(4.64597 -0.537832 0.00425296)
(4.62319 -0.549699 0.00507051)
(4.65954 -0.540739 0.0039192)
(4.5815 -0.533943 0.00457447)
(4.61738 -0.532514 0.00365277)
(4.53679 -0.531586 0.00414441)
(4.5753 -0.531899 0.00340573)
(4.49493 -0.531437 0.00376662)
(4.53115 -0.531742 0.00317852)
(4.45317 -0.531355 0.003436)
(4.48469 -0.531604 0.00297236)
(4.41072 -0.531278 0.00314794)
(4.4361 -0.531464 0.00278775)
(4.36678 -0.531202 0.00289851)
(4.38642 -0.531427 0.00262473)
(4.31827 -0.530517 0.00268513)
(4.34558 -0.533758 0.00248301)
(4.25941 -0.522117 0.00252064)
(4.36219 -0.546656 0.00236641)
(4.54881 0.181383 0.00465964)
(4.59857 0.353708 0.0031045)
(4.53665 0.481237 0.00400219)
(4.55592 0.527243 0.00286198)
(4.47589 0.537695 0.00352797)
(4.5118 0.539924 0.0026068)
(4.4322 0.539454 0.00309976)
(4.47046 0.539849 0.00236053)
(4.39089 0.539478 0.00272244)
(4.42685 0.539765 0.00213381)
(4.34967 0.539547 0.00239214)
(4.38101 0.539736 0.00192809)
(4.30787 0.539604 0.00210439)
(4.333 0.539777 0.0017439)
(4.26515 0.539516 0.00185507)
(4.28198 0.539922 0.00158132)
(4.22284 0.539403 0.00163979)
(4.21719 0.534214 0.00144125)
(4.19674 0.55394 0.00144163)
(3.98694 0.458578 0.00131116)
(4.42236 -0.375177 0.00697182)
(3.92101 -0.574053 0.00502544)
(3.64695 -0.572789 0.00592574)
(3.61935 -0.56006 0.00476552)
(3.54295 -0.55413 0.00542596)
(3.57579 -0.553557 0.00450529)
(3.50436 -0.553052 0.00499585)
(3.53808 -0.553361 0.00425857)
(3.467 -0.552937 0.00461849)
(3.49842 -0.553195 0.00403157)
(3.42995 -0.552813 0.00428828)
(3.4573 -0.553036 0.00382563)
(3.39277 -0.552679 0.00400061)
(3.41485 -0.552922 0.00364123)
(3.35504 -0.552323 0.00375156)
(3.37131 -0.553409 0.00347845)
(3.31452 -0.548442 0.00353896)
(3.33917 -0.562393 0.00333798)
(3.22391 -0.499057 0.00338166)
(3.54537 -0.496625 0.00320887)
(4.37496 0.026334 0.00123826)
(4.42086 0.0221572 0.00165267)
(4.26123 0.0161037 0.000996496)
(4.35227 0.0130493 0.00132424)
(4.24096 0.0118065 0.000930811)
(4.32506 0.0118447 0.00111923)
(4.22902 0.0115747 0.000862361)
(4.29972 0.0117603 0.00096103)
(4.21533 0.0115723 0.000798673)
(4.27413 0.0117219 0.000844342)
(4.20005 0.011576 0.000747416)
(4.24835 0.0116998 0.000764846)
(4.1836 0.0115845 0.000713779)
(4.22251 0.0116984 0.000719755)
(4.16632 0.0115806 0.000702095)
(4.19689 0.0118104 0.00070745)
(4.14778 0.0112727 0.000716227)
(4.17396 0.0133011 0.000727115)
(4.11558 0.00777307 0.000738327)
(4.17954 0.0257896 0.000799115)
(4.44444 0.0230248 0.00281139)
(4.58703 0.00577343 0.00333204)
(4.45823 -0.00679132 0.00268731)
(4.56312 -0.0129765 0.00301096)
(4.44668 -0.0145504 0.00261373)
(4.53501 -0.0149981 0.00280283)
(4.43324 -0.0149517 0.00254394)
(4.5074 -0.0149856 0.00264367)
(4.41805 -0.0149299 0.00247977)
(4.4797 -0.0149267 0.00252629)
(4.40133 -0.0149063 0.00242808)
(4.45192 -0.0148839 0.00244617)
(4.3835 -0.0148912 0.00239404)
(4.42418 -0.0148524 0.00240051)
(4.36491 -0.0148967 0.00238207)
(4.39664 -0.0147101 0.00238773)
(4.34583 -0.0152417 0.0023974)
(4.36925 -0.012305 0.00240812)
(4.32601 -0.0198655 0.00245912)
(4.33459 0.013425 0.00253141)
(4.4394 0.0154213 0.00156787)
(4.58481 0.0198716 0.00201261)
(4.45967 0.0184731 0.00139464)
(4.56709 0.0160794 0.00171598)
(4.45122 0.0147166 0.00132016)
(4.53983 0.0144373 0.00150831)
(4.43796 0.0141839 0.00125064)
(4.51221 0.0142562 0.0013496)
(4.42275 0.0141299 0.00118654)
(4.48448 0.0142034 0.00123246)
(4.40602 0.0141073 0.00113492)
(4.45666 0.0141706 0.00115255)
(4.38817 0.0140937 0.00110092)
(4.4289 0.014162 0.00110711)
(4.36956 0.014074 0.00108875)
(4.40139 0.0143012 0.00109476)
(4.35048 0.0138334 0.00110073)
(4.3743 0.0159816 0.00111661)
(4.33302 0.0125842 0.00111336)
(4.34058 0.0269546 0.00117005)
(4.43691 0.00997478 0.00245864)
(4.57892 -0.00213263 0.00296738)
(4.45698 -0.010144 0.00236148)
(4.56606 -0.0145725 0.00268523)
(4.4511 -0.0158279 0.00228817)
(4.53994 -0.0162242 0.00247664)
(4.43815 -0.016247 0.00221756)
(4.5124 -0.0162496 0.00231717)
(4.42295 -0.0162258 0.00215335)
(4.48466 -0.0161935 0.00219979)
(4.4062 -0.0161877 0.00210169)
(4.45683 -0.0161472 0.0021197)
(4.38834 -0.0161571 0.00206767)
(4.42904 -0.0161033 0.00207409)
(4.36975 -0.0161575 0.00205562)
(4.40139 -0.0159195 0.00206168)
(4.35111 -0.0164807 0.00207013)
(4.37323 -0.0139438 0.00208387)
(4.33624 -0.0191487 0.00213125)
(4.33777 0.000979714 0.00217455)
(4.43685 0.00770512 0.00184952)
(4.57865 0.014807 0.00232161)
(4.45655 0.0168122 0.00172425)
(4.56583 0.0166201 0.00204312)
(4.45098 0.0161374 0.00164607)
(4.53989 0.0159861 0.00183362)
(4.43811 0.0158449 0.00157536)
(4.51238 0.0158469 0.00167452)
(4.42293 0.0157786 0.00151117)
(4.48465 0.0157879 0.00155728)
(4.4062 0.0157375 0.00145954)
(4.45683 0.0157464 0.00147731)
(4.38834 0.0157081 0.00142554)
(4.42906 0.0157236 0.00143183)
(4.36976 0.0156927 0.0014133)
(4.40147 0.01577 0.00141967)
(4.35115 0.0157054 0.00142522)
(4.37381 0.0163958 0.00144246)
(4.33686 0.0167107 0.0014495)
(4.34338 0.0197432 0.00149368)
(4.4362 0.000326486 0.00214179)
(4.57701 -0.00894849 0.00263405)
(4.45572 -0.0138179 0.00204214)
(4.56542 -0.0159656 0.00236349)
(4.45086 -0.0164409 0.00196665)
(4.53987 -0.0165612 0.00215451)
(4.43812 -0.0165418 0.00189574)
(4.51239 -0.0165197 0.00199514)
(4.42294 -0.016493 0.00183151)
(4.48466 -0.0164615 0.00187781)
(4.4062 -0.016445 0.00177987)
(4.45684 -0.0164156 0.00179778)
(4.38834 -0.0164075 0.00174587)
(4.42905 -0.0163756 0.00175225)
(4.36978 -0.0163957 0.00173372)
(4.40141 -0.0162772 0.00174006)
(4.35133 -0.0165783 0.00174686)
(4.37342 -0.0154918 0.00176256)
(4.33776 -0.0183362 0.00179125)
(4.34256 -0.0102132 0.00182619)
(4.4362 -0.000326426 0.00214179)
(4.57701 0.00894869 0.00263405)
(4.45572 0.013818 0.00204214)
(4.56542 0.0159656 0.00236349)
(4.45086 0.0164407 0.00196665)
(4.53987 0.0165612 0.00215451)
(4.43812 0.0165416 0.00189574)
(4.51239 0.0165192 0.00199514)
(4.42294 0.0164928 0.00183151)
(4.48466 0.0164616 0.00187781)
(4.4062 0.016445 0.00177987)
(4.45684 0.0164155 0.00179778)
(4.38834 0.016409 0.00174586)
(4.42905 0.0163785 0.00175226)
(4.36978 0.0164049 0.0017337)
(4.40141 0.0162908 0.00174008)
(4.35133 0.0166285 0.00174677)
(4.37343 0.01556 0.00176268)
(4.33777 0.01861 0.00179078)
(4.34262 0.0105062 0.00182649)
(4.43685 -0.00770506 0.00184952)
(4.57865 -0.0148068 0.00232161)
(4.45655 -0.016812 0.00172425)
(4.56583 -0.0166202 0.00204312)
(4.45098 -0.0161376 0.00164607)
(4.53989 -0.0159861 0.00183362)
(4.43811 -0.015845 0.00157536)
(4.51238 -0.0158473 0.00167452)
(4.42293 -0.0157789 0.00151117)
(4.48465 -0.0157878 0.00155728)
(4.4062 -0.0157376 0.00145954)
(4.45683 -0.0157466 0.00147731)
(4.38834 -0.0157069 0.00142554)
(4.42906 -0.0157207 0.00143183)
(4.36977 -0.0156843 0.00141331)
(4.40148 -0.0157566 0.00141964)
(4.35116 -0.0156589 0.00142527)
(4.37385 -0.0163305 0.00144229)
(4.33692 -0.0164482 0.00144986)
(4.34357 -0.0194647 0.00149319)
(4.43691 -0.00997474 0.00245864)
(4.57892 0.00213282 0.00296738)
(4.45698 0.0101441 0.00236148)
(4.56606 0.0145725 0.00268523)
(4.4511 0.0158278 0.00228818)
(4.53994 0.0162242 0.00247664)
(4.43815 0.0162469 0.00221756)
(4.5124 0.0162492 0.00231717)
(4.42295 0.0162255 0.00215335)
(4.48466 0.0161935 0.00219979)
(4.4062 0.0161877 0.00210169)
(4.45683 0.016147 0.0021197)
(4.38834 0.0161582 0.00206767)
(4.42904 0.0161056 0.00207409)
(4.36976 0.0161651 0.0020556)
(4.40141 0.01593 0.0020617)
(4.35113 0.0165212 0.00207003)
(4.3733 0.0139983 0.00208393)
(4.33632 0.0193815 0.00213072)
(4.33807 -0.000728983 0.00217461)
(4.4394 -0.0154212 0.00156787)
(4.58481 -0.0198715 0.00201261)
(4.45967 -0.018473 0.00139464)
(4.56709 -0.0160794 0.00171598)
(4.45122 -0.0147168 0.00132016)
(4.53983 -0.0144374 0.00150831)
(4.43796 -0.0141841 0.00125064)
(4.51221 -0.0142567 0.0013496)
(4.42275 -0.0141302 0.00118654)
(4.48448 -0.0142034 0.00123246)
(4.40602 -0.0141075 0.00113491)
(4.45667 -0.0141709 0.00115255)
(4.38817 -0.0140931 0.00110093)
(4.4289 -0.01416 0.0011071)
(4.36957 -0.0140689 0.00108875)
(4.40141 -0.0142914 0.00109473)
(4.35051 -0.0138031 0.00110073)
(4.37439 -0.0159349 0.00111647)
(4.33315 -0.0123878 0.00111344)
(4.34103 -0.0267522 0.00116969)
(4.44444 -0.0230249 0.00281139)
(4.58703 -0.0057733 0.00333204)
(4.45823 0.00679146 0.00268731)
(4.56312 0.0129765 0.00301096)
(4.44668 0.0145505 0.00261373)
(4.53501 0.0149982 0.00280283)
(4.43324 0.0149516 0.00254394)
(4.5074 0.0149854 0.00264367)
(4.41805 0.0149297 0.00247977)
(4.4797 0.0149267 0.00252629)
(4.40133 0.0149063 0.00242808)
(4.45192 0.0148838 0.00244617)
(4.3835 0.0148917 0.00239403)
(4.42419 0.0148533 0.00240051)
(4.36492 0.0149004 0.00238206)
(4.39666 0.0147149 0.00238773)
(4.34585 0.0152615 0.00239731)
(4.36937 0.0123304 0.00240814)
(4.32611 0.0200015 0.00245846)
(4.33528 -0.0132773 0.00253169)
(4.37496 -0.0263342 0.00123826)
(4.42086 -0.0221572 0.00165267)
(4.26123 -0.0161036 0.000996497)
(4.35227 -0.0130491 0.00132424)
(4.24096 -0.0118063 0.000930812)
(4.32506 -0.0118445 0.00111923)
(4.22902 -0.0115744 0.000862361)
(4.29972 -0.0117602 0.00096103)
(4.21533 -0.0115721 0.000798673)
(4.27413 -0.0117216 0.000844342)
(4.20005 -0.0115759 0.000747416)
(4.24835 -0.0116996 0.000764845)
(4.1836 -0.0115843 0.000713777)
(4.22251 -0.0116974 0.000719751)
(4.16633 -0.01158 0.000702088)
(4.19692 -0.0118058 0.000707412)
(4.14779 -0.0112692 0.000716251)
(4.17418 -0.0132783 0.000726788)
(4.11532 -0.00772588 0.000738606)
(4.18184 -0.0256897 0.000798227)
(4.37496 0.0263341 -0.0012385)
(4.42086 0.0221573 -0.00165291)
(4.26123 0.0161037 -0.000996742)
(4.35227 0.0130492 -0.00132449)
(4.24096 0.0118064 -0.000931058)
(4.32506 0.0118446 -0.00111948)
(4.22902 0.0115745 -0.00086261)
(4.29972 0.0117602 -0.000961279)
(4.21533 0.0115721 -0.000798924)
(4.27413 0.0117217 -0.000844593)
(4.20005 0.0115759 -0.00074767)
(4.24835 0.0116996 -0.000765099)
(4.1836 0.0115843 -0.000714036)
(4.2225 0.0116982 -0.000720012)
(4.16632 0.0115804 -0.000702354)
(4.19689 0.0118102 -0.00070771)
(4.14778 0.0112725 -0.00071649)
(4.17396 0.0133009 -0.000727379)
(4.11558 0.00777284 -0.000738594)
(4.17954 0.0257895 -0.000799382)
(4.44444 0.0230249 -0.00281163)
(4.58703 0.0057734 -0.00333229)
(4.45823 -0.00679131 -0.00268755)
(4.56312 -0.0129765 -0.00301121)
(4.44668 -0.0145504 -0.00261398)
(4.53501 -0.0149981 -0.00280308)
(4.43324 -0.0149516 -0.00254419)
(4.5074 -0.0149855 -0.00264392)
(4.41805 -0.0149298 -0.00248003)
(4.4797 -0.0149267 -0.00252654)
(4.40133 -0.0149062 -0.00242834)
(4.45192 -0.0148839 -0.00244643)
(4.3835 -0.0148911 -0.00239429)
(4.42418 -0.0148524 -0.00240077)
(4.36491 -0.0148966 -0.00238233)
(4.39664 -0.0147101 -0.00238799)
(4.34583 -0.0152416 -0.00239766)
(4.36925 -0.012305 -0.00240838)
(4.326 -0.0198654 -0.00245938)
(4.33458 0.013425 -0.00253168)
(4.4394 0.0154213 -0.00156811)
(4.58481 0.0198717 -0.00201285)
(4.45967 0.0184732 -0.00139489)
(4.56708 0.0160796 -0.00171623)
(4.45121 0.0147169 -0.0013204)
(4.53983 0.0144376 -0.00150855)
(4.43795 0.0141843 -0.00125089)
(4.51221 0.0142566 -0.00134985)
(4.42275 0.0141302 -0.00118679)
(4.48448 0.0142037 -0.00123271)
(4.40602 0.0141077 -0.00113517)
(4.45666 0.0141709 -0.00115281)
(4.38817 0.014094 -0.00110118)
(4.4289 0.0141623 -0.00110736)
(4.36956 0.0140743 -0.00108901)
(4.40139 0.0143015 -0.00109502)
(4.35048 0.0138337 -0.001101)
(4.3743 0.0159819 -0.00111687)
(4.33302 0.0125845 -0.00111362)
(4.34058 0.0269548 -0.00117032)
(4.43691 0.00997479 -0.00245888)
(4.57892 -0.00213268 -0.00296762)
(4.45698 -0.0101439 -0.00236172)
(4.56606 -0.0145725 -0.00268548)
(4.4511 -0.0158278 -0.00228842)
(4.53994 -0.016224 -0.00247689)
(4.43815 -0.0162468 -0.00221781)
(4.5124 -0.0162494 -0.00231742)
(4.42295 -0.0162256 -0.0021536)
(4.48466 -0.0161933 -0.00220004)
(4.4062 -0.0161875 -0.00210194)
(4.45683 -0.016147 -0.00211995)
(4.38833 -0.0161569 -0.00206793)
(4.42904 -0.0161032 -0.00207435)
(4.36975 -0.0161574 -0.00205588)
(4.40139 -0.0159194 -0.00206194)
(4.35111 -0.0164805 -0.00207039)
(4.37323 -0.0139437 -0.00208414)
(4.33624 -0.0191485 -0.00213152)
(4.33777 0.000979829 -0.00217482)
(4.43685 0.00770515 -0.00184977)
(4.57865 0.0148071 -0.00232185)
(4.45655 0.0168123 -0.00172449)
(4.56583 0.0166203 -0.00204336)
(4.45097 0.0161377 -0.00164632)
(4.53989 0.0159864 -0.00183386)
(4.43811 0.0158452 -0.00157561)
(4.51238 0.0158472 -0.00167477)
(4.42293 0.015779 -0.00151142)
(4.48465 0.0157882 -0.00155753)
(4.40619 0.0157378 -0.00145979)
(4.45683 0.0157467 -0.00147757)
(4.38834 0.0157085 -0.00142579)
(4.42905 0.0157239 -0.00143209)
(4.36976 0.015693 -0.00141356)
(4.40147 0.0157703 -0.00141993)
(4.35115 0.0157057 -0.00142548)
(4.37381 0.016396 -0.00144272)
(4.33686 0.016711 -0.00144977)
(4.34338 0.0197434 -0.00149394)
(4.4362 0.000326489 -0.00214204)
(4.57701 -0.00894853 -0.0026343)
(4.45572 -0.0138178 -0.00204239)
(4.56542 -0.0159655 -0.00236374)
(4.45086 -0.0164407 -0.0019669)
(4.53987 -0.016561 -0.00215476)
(4.43812 -0.0165415 -0.00189599)
(4.51239 -0.0165195 -0.00199539)
(4.42294 -0.0164928 -0.00183176)
(4.48466 -0.0164613 -0.00187807)
(4.4062 -0.0164448 -0.00178012)
(4.45684 -0.0164154 -0.00179804)
(4.38834 -0.0164073 -0.00174612)
(4.42905 -0.0163754 -0.00175251)
(4.36978 -0.0163955 -0.00173398)
(4.40141 -0.0162771 -0.00174032)
(4.35132 -0.0165782 -0.00174712)
(4.37341 -0.0154916 -0.00176282)
(4.33775 -0.0183361 -0.00179152)
(4.34256 -0.0102131 -0.00182646)
(4.4362 -0.00032639 -0.00214204)
(4.57701 0.00894873 -0.0026343)
(4.45572 0.0138182 -0.00204239)
(4.56542 0.0159658 -0.00236374)
(4.45086 0.016441 -0.0019669)
(4.53987 0.0165615 -0.00215476)
(4.43812 0.016542 -0.00189599)
(4.51239 0.0165196 -0.00199539)
(4.42294 0.0164932 -0.00183176)
(4.48466 0.016462 -0.00187807)
(4.4062 0.0164453 -0.00178012)
(4.45684 0.0164158 -0.00179804)
(4.38834 0.0164093 -0.00174612)
(4.42905 0.0163788 -0.00175251)
(4.36978 0.0164052 -0.00173396)
(4.40141 0.0162911 -0.00174034)
(4.35133 0.0166288 -0.00174704)
(4.37343 0.0155603 -0.00176295)
(4.33777 0.0186103 -0.00179104)
(4.34262 0.0105064 -0.00182675)
(4.43685 -0.00770505 -0.00184977)
(4.57865 -0.0148069 -0.00232185)
(4.45655 -0.0168119 -0.00172449)
(4.56583 -0.01662 -0.00204337)
(4.45097 -0.0161373 -0.00164632)
(4.53989 -0.0159859 -0.00183386)
(4.43811 -0.0158448 -0.00157561)
(4.51238 -0.0158471 -0.00167477)
(4.42293 -0.0157786 -0.00151142)
(4.48465 -0.0157876 -0.00155753)
(4.40619 -0.0157373 -0.00145979)
(4.45683 -0.0157464 -0.00147756)
(4.38834 -0.0157066 -0.00142579)
(4.42906 -0.0157205 -0.00143209)
(4.36977 -0.0156841 -0.00141357)
(4.40147 -0.0157564 -0.0014199)
(4.35116 -0.0156587 -0.00142553)
(4.37385 -0.0163303 -0.00144255)
(4.33692 -0.016448 -0.00145013)
(4.34357 -0.0194646 -0.00149346)
(4.43691 -0.00997471 -0.00245888)
(4.57892 0.00213285 -0.00296763)
(4.45698 0.0101443 -0.00236172)
(4.56606 0.0145727 -0.00268548)
(4.4511 0.0158281 -0.00228842)
(4.53994 0.0162245 -0.00247689)
(4.43815 0.0162472 -0.00221781)
(4.5124 0.0162495 -0.00231742)
(4.42295 0.0162258 -0.0021536)
(4.48466 0.0161938 -0.00220004)
(4.4062 0.016188 -0.00210194)
(4.45683 0.0161472 -0.00211995)
(4.38833 0.0161585 -0.00206792)
(4.42904 0.0161058 -0.00207435)
(4.36976 0.0161654 -0.00205586)
(4.40141 0.0159303 -0.00206195)
(4.35113 0.0165215 -0.0020703)
(4.3733 0.0139985 -0.00208419)
(4.33632 0.0193818 -0.00213098)
(4.33807 -0.000728753 -0.00217488)
(4.4394 -0.0154212 -0.00156812)
(4.58481 -0.0198715 -0.00201285)
(4.45967 -0.0184729 -0.00139489)
(4.56708 -0.0160793 -0.00171623)
(4.45121 -0.0147165 -0.0013204)
(4.53983 -0.0144372 -0.00150855)
(4.43795 -0.0141838 -0.00125089)
(4.51221 -0.0142564 -0.00134985)
(4.42275 -0.01413 -0.00118679)
(4.48448 -0.0142032 -0.00123271)
(4.40602 -0.0141073 -0.00113517)
(4.45666 -0.0141706 -0.00115281)
(4.38817 -0.0140929 -0.00110118)
(4.4289 -0.0141598 -0.00110736)
(4.36957 -0.0140687 -0.00108901)
(4.40141 -0.0142912 -0.00109499)
(4.35051 -0.0138029 -0.001101)
(4.37439 -0.0159347 -0.00111673)
(4.33315 -0.0123876 -0.0011137)
(4.34103 -0.026752 -0.00116995)
(4.44444 -0.0230248 -0.00281163)
(4.58703 -0.00577326 -0.00333229)
(4.45823 0.00679158 -0.00268755)
(4.56312 0.0129766 -0.00301121)
(4.44668 0.0145506 -0.00261398)
(4.53501 0.0149983 -0.00280308)
(4.43324 0.0149518 -0.00254419)
(4.5074 0.0149855 -0.00264392)
(4.41805 0.0149299 -0.00248003)
(4.4797 0.0149268 -0.00252654)
(4.40133 0.0149064 -0.00242833)
(4.45192 0.0148839 -0.00244643)
(4.3835 0.0148918 -0.00239429)
(4.42418 0.0148535 -0.00240077)
(4.36492 0.0149006 -0.00238232)
(4.39666 0.014715 -0.00238799)
(4.34585 0.0152616 -0.00239757)
(4.36937 0.0123305 -0.0024084)
(4.32611 0.0200016 -0.00245873)
(4.33528 -0.0132771 -0.00253195)
(4.37496 -0.0263341 -0.0012385)
(4.42086 -0.0221571 -0.00165291)
(4.26123 -0.0161036 -0.000996741)
(4.35227 -0.0130492 -0.00132449)
(4.24096 -0.0118064 -0.000931058)
(4.32506 -0.0118446 -0.00111948)
(4.22902 -0.0115746 -0.000862609)
(4.29972 -0.0117603 -0.000961279)
(4.21533 -0.0115723 -0.000798924)
(4.27413 -0.0117218 -0.000844593)
(4.20005 -0.0115761 -0.000747669)
(4.24835 -0.0116997 -0.000765098)
(4.1836 -0.0115845 -0.000714033)
(4.22251 -0.0116976 -0.000720007)
(4.16633 -0.0115802 -0.000702347)
(4.19692 -0.011806 -0.000707671)
(4.14779 -0.0112694 -0.000716514)
(4.17418 -0.0132785 -0.000727051)
(4.11532 -0.0077261 -0.000738872)