/*--------------------------------*- C++ -*----------------------------------*\
  =========                 |
  \\      /  F ield         | OpenFOAM: The Open Source CFD Toolbox
   \\    /   O peration     | Website:  https://openfoam.org
    \\  /    A nd           | Version:  7
     \\/     M anipulation  |
\*---------------------------------------------------------------------------*/
FoamFile
{
    version     2.0;
    format      ascii;
    class       volScalarField;
    location    "0.145";
    object      k_0;
}
// * * * * * * * * * * * * * * * * * * * * * * * * * * * * * * * * * * * * * //

dimensions      [0 2 -2 0 0 0 0];

internalField   nonuniform List<scalar> 
400
(
1.36631e-05
7.75903e-06
5.03031e-06
3.62754e-06
2.84256e-06
2.36547e-06
2.05235e-06
1.83354e-06
1.67305e-06
1.55078e-06
1.45471e-06
1.37724e-06
1.31341e-06
1.25993e-06
1.2147e-06
1.1765e-06
1.14481e-06
1.11974e-06
1.10192e-06
1.09242e-06
1.77661e-05
1.32464e-05
1.02836e-05
8.3493e-06
7.03658e-06
6.11586e-06
5.44804e-06
4.94774e-06
4.56206e-06
4.25714e-06
4.01051e-06
3.80688e-06
3.63572e-06
3.48988e-06
3.36472e-06
3.25762e-06
3.16771e-06
3.09572e-06
3.04388e-06
3.01576e-06
1.88995e-05
1.57961e-05
1.32496e-05
1.13455e-05
9.92677e-06
8.85503e-06
8.03085e-06
7.38475e-06
6.86833e-06
6.44764e-06
6.09856e-06
5.80381e-06
5.55111e-06
5.33197e-06
5.14093e-06
4.9751e-06
4.83397e-06
4.71936e-06
4.63551e-06
4.58913e-06
1.93039e-05
1.71752e-05
1.51194e-05
1.339e-05
1.19961e-05
1.0883e-05
9.99031e-06
9.26687e-06
8.67252e-06
8.17668e-06
7.7564e-06
7.39465e-06
7.0791e-06
6.80116e-06
6.55541e-06
6.33927e-06
6.15291e-06
5.99946e-06
5.88539e-06
5.82105e-06
1.94713e-05
1.79498e-05
1.63369e-05
1.48431e-05
1.35432e-05
1.24435e-05
1.15228e-05
1.07517e-05
1.01015e-05
9.54738e-06
9.06915e-06
8.65112e-06
8.28156e-06
7.95224e-06
7.65802e-06
7.39667e-06
7.16903e-06
6.9794e-06
6.83643e-06
6.75432e-06
1.95516e-05
1.83926e-05
1.71281e-05
1.58778e-05
1.47128e-05
1.36668e-05
1.27477e-05
1.19482e-05
1.12537e-05
1.06481e-05
1.01162e-05
9.64499e-06
9.2241e-06
8.84605e-06
8.50608e-06
8.20227e-06
7.93587e-06
7.71208e-06
7.54141e-06
7.44184e-06
1.95932e-05
1.86467e-05
1.76342e-05
1.65978e-05
1.55782e-05
1.46104e-05
1.37168e-05
1.29066e-05
1.21795e-05
1.15293e-05
1.09477e-05
1.04258e-05
9.95557e-06
9.5309e-06
9.14758e-06
8.80396e-06
8.50156e-06
8.24615e-06
8.04972e-06
7.93363e-06
1.96062e-05
1.87926e-05
1.7951e-05
1.70784e-05
1.61869e-05
1.53007e-05
1.44449e-05
1.36381e-05
1.28906e-05
1.22057e-05
1.15822e-05
1.10159e-05
1.0502e-05
1.00358e-05
9.61419e-06
9.2357e-06
8.90204e-06
8.61936e-06
8.40071e-06
8.27022e-06
1.96149e-05
1.88725e-05
1.81336e-05
1.73699e-05
1.65721e-05
1.57522e-05
1.49327e-05
1.41356e-05
1.3378e-05
1.26702e-05
1.20166e-05
1.14173e-05
1.08704e-05
1.03728e-05
9.92203e-06
9.51719e-06
9.16008e-06
8.85704e-06
8.62182e-06
8.48052e-06
1.96216e-05
1.89101e-05
1.82176e-05
1.75066e-05
1.67576e-05
1.59749e-05
1.51775e-05
1.43884e-05
1.36275e-05
1.29086e-05
1.22394e-05
1.16227e-05
1.10579e-05
1.05432e-05
1.00766e-05
9.6575e-06
9.28769e-06
8.97366e-06
8.7295e-06
8.58234e-06
1.96206e-05
1.89083e-05
1.82151e-05
1.7504e-05
1.67558e-05
1.59744e-05
1.51782e-05
1.43899e-05
1.36294e-05
1.29108e-05
1.22418e-05
1.1625e-05
1.10602e-05
1.05455e-05
1.00788e-05
9.65958e-06
9.28964e-06
8.97549e-06
8.7312e-06
8.58396e-06
1.96163e-05
1.88708e-05
1.8129e-05
1.73647e-05
1.65689e-05
1.5752e-05
1.49352e-05
1.414e-05
1.33836e-05
1.26764e-05
1.20231e-05
1.1424e-05
1.08771e-05
1.03793e-05
9.92837e-06
9.52324e-06
9.16579e-06
8.86239e-06
8.62683e-06
8.48529e-06
1.96038e-05
1.87901e-05
1.79483e-05
1.70759e-05
1.61863e-05
1.53031e-05
1.445e-05
1.36452e-05
1.28989e-05
1.22149e-05
1.15919e-05
1.1026e-05
1.05122e-05
1.0046e-05
9.6241e-06
9.24522e-06
8.91109e-06
8.62789e-06
8.40875e-06
8.27789e-06
1.95753e-05
1.86394e-05
1.76341e-05
1.66002e-05
1.55822e-05
1.46163e-05
1.37244e-05
1.29155e-05
1.21894e-05
1.15402e-05
1.09594e-05
1.04381e-05
9.96828e-06
9.54372e-06
9.16025e-06
8.81627e-06
8.51335e-06
8.25735e-06
8.06034e-06
7.94382e-06
1.95509e-05
1.83909e-05
1.7132e-05
1.5885e-05
1.47215e-05
1.36762e-05
1.27575e-05
1.19582e-05
1.12644e-05
1.06597e-05
1.01289e-05
9.65856e-06
9.23835e-06
8.86065e-06
8.52068e-06
8.21658e-06
7.9497e-06
7.72532e-06
7.55406e-06
7.45405e-06
1.94693e-05
1.79487e-05
1.63448e-05
1.48567e-05
1.35583e-05
1.24578e-05
1.15356e-05
1.07634e-05
1.0113e-05
9.55952e-06
9.08232e-06
8.66536e-06
8.29665e-06
7.96782e-06
7.67372e-06
7.41218e-06
7.18411e-06
6.99394e-06
6.85041e-06
6.7679e-06
1.92832e-05
1.71753e-05
1.51366e-05
1.34146e-05
1.20208e-05
1.09042e-05
1.00075e-05
9.28112e-06
8.68542e-06
8.18953e-06
7.76994e-06
7.40911e-06
7.09433e-06
6.81687e-06
6.57125e-06
6.35495e-06
6.16822e-06
6.01429e-06
5.89974e-06
5.83506e-06
1.88901e-05
1.58082e-05
1.32779e-05
1.13798e-05
9.95882e-06
8.88117e-06
8.05101e-06
7.40061e-06
6.88189e-06
6.46048e-06
6.11159e-06
5.81738e-06
5.56521e-06
5.34639e-06
5.15542e-06
4.98944e-06
4.848e-06
4.733e-06
4.64877e-06
4.60213e-06
1.77499e-05
1.32452e-05
1.03002e-05
8.3752e-06
7.06274e-06
6.1377e-06
5.46491e-06
4.96089e-06
4.57309e-06
4.26732e-06
4.0206e-06
3.81721e-06
3.64634e-06
3.50067e-06
3.37554e-06
3.26833e-06
3.17822e-06
3.10598e-06
3.05391e-06
3.02564e-06
1.35433e-05
7.6876e-06
5.00509e-06
3.62554e-06
2.84838e-06
2.37236e-06
2.05827e-06
1.83837e-06
1.6772e-06
1.55466e-06
1.45859e-06
1.38124e-06
1.31754e-06
1.26416e-06
1.21897e-06
1.18075e-06
1.14902e-06
1.12388e-06
1.10601e-06
1.09649e-06
)
;

boundaryField
{
    upperWall
    {
        type            fixedValue;
        value           uniform 0;
    }
    lowerWall
    {
        type            fixedValue;
        value           uniform 0;
    }
    inlet
    {
        type            fixedValue;
        value           uniform 2e-05;
    }
    outlet
    {
        type            inletOutlet;
        inletValue      uniform 0;
        value           nonuniform List<scalar> 
20
(
1.09242e-06
3.01576e-06
4.58913e-06
5.82105e-06
6.75432e-06
7.44184e-06
7.93363e-06
8.27022e-06
8.48052e-06
8.58234e-06
8.58396e-06
8.48529e-06
8.27789e-06
7.94382e-06
7.45405e-06
6.7679e-06
5.83506e-06
4.60213e-06
3.02564e-06
1.09649e-06
)
;
    }
    frontAndBack
    {
        type            empty;
    }
}


// ************************************************************************* //
