/*--------------------------------*- C++ -*----------------------------------*\
  =========                 |
  \\      /  F ield         | OpenFOAM: The Open Source CFD Toolbox
   \\    /   O peration     | Website:  https://openfoam.org
    \\  /    A nd           | Version:  7
     \\/     M anipulation  |
\*---------------------------------------------------------------------------*/
FoamFile
{
    version     2.0;
    format      ascii;
    class       volScalarField;
    location    "0.59";
    object      k;
}
// * * * * * * * * * * * * * * * * * * * * * * * * * * * * * * * * * * * * * //

dimensions      [0 2 -2 0 0 0 0];

internalField   nonuniform List<scalar> 
7920
(
52.0381
56.4747
56.4678
56.4912
56.4071
56.4196
56.3698
56.3981
56.3785
56.4139
56.4046
56.4304
56.4169
56.4284
56.411
56.4081
56.3952
56.3629
56.4279
56.5469
13.8414
14.0076
13.4262
12.8712
12.6079
12.5094
12.4258
12.4065
12.3683
12.3663
12.3456
12.3456
12.3293
12.3279
12.3136
12.3108
12.3029
12.2896
12.4598
12.4693
8.08303
9.21865
9.32751
9.30691
9.26234
9.25434
9.23353
9.23371
9.22481
9.23104
9.22968
9.23803
9.23685
9.24122
9.23746
9.23742
9.23173
9.22546
9.22658
9.24633
7.48007
8.7497
8.99195
9.07523
9.09495
9.12994
9.13772
9.15959
9.16494
9.18501
9.19511
9.21951
9.22993
9.24865
9.25397
9.26491
9.26654
9.27059
9.2695
9.2883
7.41517
8.69579
8.9509
9.0498
9.08283
9.13136
9.14951
9.18514
9.19806
9.22843
9.2455
9.28041
9.29985
9.32971
9.34318
9.36435
9.37283
9.38716
9.39159
9.41624
7.4221
8.69218
8.94557
9.04589
9.08271
9.136
9.15934
9.20057
9.2179
9.25399
9.27525
9.31525
9.34007
9.37592
9.39442
9.42119
9.43386
9.45405
9.46345
9.49174
7.4221
8.69218
8.94557
9.04589
9.08271
9.136
9.15934
9.20058
9.2179
9.254
9.27523
9.31528
9.34004
9.37597
9.39437
9.42125
9.43382
9.45412
9.46351
9.49177
7.41517
8.6958
8.9509
9.0498
9.08282
9.13137
9.14951
9.18515
9.19805
9.22846
9.24545
9.28049
9.29973
9.32989
9.34299
9.36462
9.3726
9.38743
9.39167
9.41644
7.48007
8.7497
8.99195
9.07524
9.09495
9.12994
9.13772
9.1596
9.16492
9.18505
9.19506
9.21962
9.22972
9.24898
9.25376
9.26536
9.26604
9.27128
9.26888
9.28895
8.08303
9.21865
9.32751
9.30691
9.26234
9.25435
9.23352
9.23372
9.22479
9.23106
9.22962
9.23813
9.23668
9.24153
9.23689
9.23815
9.23011
9.22851
9.22364
9.24886
13.8414
14.0076
13.4262
12.8712
12.6078
12.5094
12.4258
12.4065
12.3682
12.3663
12.3455
12.3456
12.3291
12.3281
12.313
12.3115
12.301
12.2929
12.452
12.4768
52.0381
56.4747
56.4678
56.4912
56.4071
56.4196
56.3697
56.3981
56.3784
56.4139
56.4044
56.4306
56.4164
56.4293
56.4094
56.411
56.3897
56.3734
56.4079
56.5838
7.67702
9.67292
9.75504
9.62641
9.5912
9.52069
9.5193
9.48114
9.48515
9.45996
9.46474
9.44613
9.44963
9.43468
9.43701
9.42369
9.42719
9.41111
9.41335
9.4628
6.01923
8.24173
8.57459
8.61411
8.61739
8.61832
8.61881
8.62158
8.62489
8.62874
8.63183
8.63319
8.63365
8.63208
8.63044
8.62612
8.62307
8.61677
8.61945
8.62253
5.70111
7.89527
8.23617
8.29874
8.30623
8.32238
8.32821
8.34238
8.35126
8.36837
8.38053
8.39575
8.40493
8.41339
8.41818
8.42015
8.42128
8.41681
8.41303
8.43614
5.69247
7.88605
8.22249
8.28084
8.28094
8.28855
8.28876
8.29508
8.29858
8.31055
8.32185
8.33922
8.35187
8.36423
8.37268
8.37848
8.3836
8.38332
8.38272
8.3967
5.68078
7.87031
8.20651
8.26617
8.26549
8.2719
8.27006
8.27411
8.2739
8.28096
8.28904
8.30529
8.31741
8.33097
8.33906
8.34697
8.35163
8.35648
8.35588
8.37531
5.68717
7.87824
8.21343
8.27254
8.27177
8.27818
8.27623
8.28002
8.27898
8.2847
8.29144
8.30691
8.31868
8.33255
8.34021
8.34853
8.35267
8.35918
8.35897
8.37923
5.68716
7.87824
8.21343
8.27254
8.27177
8.27818
8.27623
8.28002
8.27897
8.2847
8.29143
8.30693
8.31865
8.33259
8.34016
8.34857
8.35263
8.35919
8.35898
8.37915
5.68078
7.87031
8.20651
8.26617
8.26549
8.2719
8.27006
8.27411
8.27389
8.28098
8.28899
8.30537
8.3173
8.33112
8.33886
8.34719
8.3514
8.35665
8.35574
8.37533
5.69246
7.88605
8.22248
8.28084
8.28094
8.28856
8.28876
8.29509
8.29857
8.31058
8.32176
8.33935
8.35164
8.36456
8.37219
8.37909
8.38293
8.38389
8.38204
8.39708
5.70111
7.89528
8.23617
8.29874
8.30622
8.32239
8.32821
8.34239
8.35122
8.36841
8.38044
8.3959
8.40467
8.41381
8.4175
8.42102
8.42021
8.41866
8.41035
8.43794
6.01923
8.24174
8.57459
8.61411
8.61739
8.61832
8.6188
8.62158
8.62487
8.62875
8.63178
8.63325
8.63355
8.63231
8.62997
8.627
8.62136
8.61957
8.61519
8.62811
7.67702
9.67292
9.75504
9.62641
9.59119
9.52069
9.5193
9.48114
9.48514
9.45997
9.46472
9.44616
9.44959
9.43479
9.43687
9.42406
9.42667
9.41252
9.41123
9.46769
0.477092
1.03848
1.13985
1.11287
1.04272
0.978294
0.92805
0.893387
0.867927
0.849328
0.83628
0.825581
0.818631
0.812121
0.808163
0.804934
0.802507
0.803401
0.798392
0.812485
0.0861008
0.382228
0.526292
0.588556
0.610901
0.625064
0.632341
0.640414
0.64479
0.649153
0.650649
0.651784
0.651664
0.651424
0.650476
0.649785
0.648759
0.647864
0.647457
0.649861
0.0644983
0.299755
0.415824
0.474057
0.492648
0.506397
0.509763
0.516616
0.519231
0.524758
0.527591
0.532039
0.534692
0.53784
0.540174
0.541907
0.543752
0.544157
0.544875
0.547442
0.0684286
0.303485
0.417032
0.472742
0.490836
0.50233
0.504187
0.507564
0.508027
0.509741
0.510467
0.512079
0.512936
0.5141
0.515135
0.515745
0.516733
0.516838
0.517329
0.519595
0.0666023
0.299481
0.411914
0.46758
0.485239
0.496681
0.498236
0.501338
0.501417
0.50246
0.502691
0.50354
0.50377
0.504247
0.504472
0.504598
0.50474
0.504644
0.504278
0.505937
0.0676307
0.301716
0.414532
0.469988
0.487791
0.499114
0.500815
0.503822
0.503927
0.504917
0.505138
0.505914
0.506107
0.506482
0.506602
0.506631
0.50665
0.506472
0.505994
0.507522
0.0676306
0.301716
0.414532
0.469988
0.487791
0.499114
0.500815
0.503822
0.503927
0.504917
0.505137
0.505914
0.506106
0.506483
0.506601
0.506632
0.50665
0.506474
0.505991
0.507519
0.0666021
0.299481
0.411914
0.46758
0.485239
0.496681
0.498236
0.501339
0.501417
0.50246
0.502691
0.503542
0.503769
0.504249
0.504468
0.504601
0.504737
0.504642
0.504276
0.505927
0.0684283
0.303485
0.417031
0.472742
0.490835
0.50233
0.504186
0.507564
0.508027
0.509742
0.510466
0.512083
0.512925
0.514111
0.515118
0.515757
0.516715
0.516835
0.517313
0.519554
0.0644981
0.299756
0.415824
0.474058
0.492648
0.506398
0.509763
0.516617
0.51923
0.52476
0.527583
0.532047
0.534674
0.53786
0.540134
0.541941
0.543692
0.544158
0.544832
0.547361
0.0861007
0.382228
0.526292
0.588556
0.6109
0.625065
0.632339
0.640416
0.644787
0.649157
0.650641
0.651788
0.651645
0.651434
0.650422
0.649872
0.648587
0.648044
0.647242
0.64979
0.477092
1.03848
1.13985
1.11287
1.04271
0.978295
0.928049
0.893389
0.867925
0.849336
0.836276
0.825602
0.818624
0.812174
0.808154
0.805073
0.802518
0.80377
0.798354
0.813407
0.477093
1.03848
1.13985
1.11287
1.04272
0.978294
0.92805
0.893386
0.867926
0.849328
0.83628
0.825581
0.818631
0.812121
0.808163
0.804934
0.802507
0.803401
0.798392
0.812485
0.0861008
0.382228
0.526292
0.588556
0.610901
0.625064
0.632341
0.640414
0.64479
0.649153
0.650649
0.651784
0.651664
0.651424
0.650476
0.649785
0.64876
0.647864
0.647458
0.649862
0.0644983
0.299755
0.415824
0.474057
0.492648
0.506397
0.509763
0.516616
0.519231
0.524758
0.527591
0.532039
0.534692
0.53784
0.540174
0.541907
0.543752
0.544158
0.544875
0.547442
0.0684285
0.303485
0.417032
0.472742
0.490836
0.50233
0.504187
0.507564
0.508027
0.509741
0.510467
0.512079
0.512936
0.5141
0.515135
0.515745
0.516733
0.516838
0.517329
0.519595
0.0666022
0.299481
0.411914
0.46758
0.485239
0.496681
0.498236
0.501338
0.501417
0.50246
0.502691
0.50354
0.50377
0.504247
0.504472
0.504598
0.50474
0.504644
0.504278
0.505937
0.0676307
0.301716
0.414532
0.469988
0.487791
0.499114
0.500815
0.503822
0.503927
0.504917
0.505138
0.505914
0.506107
0.506482
0.506602
0.506631
0.50665
0.506472
0.505994
0.507522
0.0676306
0.301716
0.414532
0.469988
0.487791
0.499114
0.500815
0.503822
0.503927
0.504917
0.505137
0.505915
0.506107
0.506483
0.506601
0.506632
0.50665
0.506474
0.505991
0.507519
0.0666021
0.299481
0.411914
0.46758
0.485239
0.496681
0.498236
0.501339
0.501417
0.50246
0.502691
0.503542
0.503769
0.504249
0.504468
0.504601
0.504737
0.504642
0.504276
0.505927
0.0684283
0.303485
0.417031
0.472742
0.490835
0.50233
0.504186
0.507564
0.508027
0.509742
0.510466
0.512083
0.512925
0.514112
0.515118
0.515757
0.516715
0.516835
0.517313
0.519554
0.0644981
0.299756
0.415824
0.474058
0.492648
0.506398
0.509763
0.516617
0.51923
0.52476
0.527584
0.532048
0.534674
0.537861
0.540134
0.541941
0.543692
0.544158
0.544831
0.54736
0.0861007
0.382228
0.526292
0.588556
0.6109
0.625065
0.632339
0.640416
0.644787
0.649157
0.650642
0.651789
0.651645
0.651434
0.650422
0.649871
0.648586
0.648044
0.647241
0.64979
0.477092
1.03848
1.13985
1.11287
1.04271
0.978295
0.928049
0.893389
0.867925
0.849336
0.836276
0.825602
0.818624
0.812174
0.808154
0.805073
0.802517
0.80377
0.798354
0.813407
7.67702
9.67292
9.75504
9.62641
9.59119
9.52068
9.5193
9.48113
9.48514
9.45996
9.46473
9.44613
9.44962
9.43468
9.43701
9.42369
9.42719
9.41111
9.41335
9.4628
6.01923
8.24174
8.57459
8.61411
8.61739
8.61832
8.6188
8.62158
8.62488
8.62873
8.63183
8.63319
8.63364
8.63208
8.63044
8.62613
8.62308
8.61678
8.61945
8.62253
5.70111
7.89527
8.23617
8.29874
8.30623
8.32238
8.32822
8.34238
8.35125
8.36836
8.38053
8.39575
8.40493
8.41339
8.41817
8.42015
8.42128
8.41682
8.41303
8.43614
5.69247
7.88605
8.22249
8.28084
8.28094
8.28856
8.28876
8.29508
8.29858
8.31055
8.32185
8.33922
8.35187
8.36423
8.37268
8.37847
8.3836
8.38332
8.38273
8.39671
5.68078
7.87031
8.20651
8.26617
8.26549
8.2719
8.27006
8.27411
8.2739
8.28096
8.28904
8.30529
8.31742
8.33098
8.33906
8.34697
8.35163
8.35648
8.35588
8.37531
5.68717
7.87824
8.21343
8.27254
8.27177
8.27818
8.27623
8.28002
8.27897
8.2847
8.29144
8.30691
8.31868
8.33256
8.34021
8.34853
8.35267
8.35918
8.35897
8.37923
5.68716
7.87824
8.21343
8.27254
8.27177
8.27818
8.27623
8.28002
8.27897
8.2847
8.29143
8.30693
8.31865
8.33259
8.34016
8.34858
8.35263
8.3592
8.35898
8.37916
5.68078
7.87031
8.20651
8.26617
8.26549
8.2719
8.27006
8.27411
8.27389
8.28098
8.28899
8.30537
8.31731
8.33113
8.33886
8.34719
8.35141
8.35665
8.35575
8.37533
5.69246
7.88605
8.22248
8.28084
8.28094
8.28856
8.28876
8.29509
8.29857
8.31058
8.32177
8.33936
8.35165
8.36456
8.3722
8.37909
8.38294
8.38389
8.38204
8.39707
5.70111
7.89528
8.23617
8.29875
8.30622
8.32239
8.32821
8.34239
8.35123
8.36841
8.38044
8.3959
8.40467
8.41382
8.4175
8.42103
8.42021
8.41866
8.41035
8.43793
6.01923
8.24174
8.57459
8.61411
8.61739
8.61832
8.6188
8.62158
8.62487
8.62876
8.63179
8.63326
8.63355
8.63231
8.62997
8.627
8.62135
8.61956
8.61518
8.62811
7.67702
9.67292
9.75503
9.62641
9.59119
9.52069
9.5193
9.48114
9.48515
9.45998
9.46473
9.44617
9.44959
9.43479
9.43687
9.42406
9.42666
9.41252
9.41123
9.46769
52.0381
56.4747
56.4678
56.4912
56.4071
56.4196
56.3697
56.3981
56.3785
56.4139
56.4045
56.4304
56.4168
56.4284
56.411
56.4081
56.3952
56.3629
56.428
56.547
13.8414
14.0076
13.4262
12.8712
12.6079
12.5094
12.4258
12.4065
12.3683
12.3662
12.3456
12.3456
12.3293
12.3279
12.3136
12.3108
12.303
12.2896
12.4598
12.4693
8.08303
9.21865
9.32751
9.30691
9.26234
9.25434
9.23353
9.23371
9.22481
9.23103
9.22968
9.23803
9.23685
9.24122
9.23746
9.23741
9.23173
9.22546
9.22658
9.24634
7.48007
8.7497
8.99195
9.07523
9.09495
9.12994
9.13772
9.15959
9.16494
9.18501
9.19511
9.21951
9.22992
9.24865
9.25397
9.26491
9.26653
9.27059
9.26951
9.2883
7.41517
8.69579
8.9509
9.0498
9.08283
9.13136
9.14951
9.18514
9.19806
9.22843
9.2455
9.28041
9.29985
9.32971
9.34318
9.36435
9.37282
9.38715
9.39159
9.41625
7.4221
8.69218
8.94557
9.04589
9.08271
9.136
9.15934
9.20057
9.2179
9.25399
9.27525
9.31525
9.34007
9.37593
9.39442
9.42119
9.43386
9.45406
9.46345
9.49174
7.4221
8.69218
8.94557
9.04589
9.08271
9.136
9.15934
9.20058
9.2179
9.254
9.27523
9.31528
9.34004
9.37597
9.39437
9.42125
9.43382
9.45412
9.46351
9.49177
7.41517
8.6958
8.9509
9.0498
9.08282
9.13137
9.14951
9.18515
9.19805
9.22846
9.24545
9.28049
9.29973
9.32989
9.34299
9.36462
9.3726
9.38744
9.39168
9.41644
7.48007
8.7497
8.99195
9.07524
9.09495
9.12994
9.13772
9.1596
9.16492
9.18505
9.19506
9.21962
9.22972
9.24898
9.25376
9.26537
9.26604
9.27129
9.26888
9.28895
8.08303
9.21865
9.32751
9.30691
9.26234
9.25435
9.23352
9.23372
9.22479
9.23107
9.22963
9.23813
9.23668
9.24153
9.2369
9.23815
9.23011
9.22851
9.22363
9.24885
13.8414
14.0076
13.4262
12.8712
12.6079
12.5094
12.4258
12.4065
12.3682
12.3663
12.3455
12.3456
12.3291
12.3281
12.313
12.3114
12.301
12.2929
12.452
12.4768
52.0381
56.4747
56.4678
56.4913
56.4071
56.4196
56.3697
56.3981
56.3785
56.414
56.4044
56.4307
56.4164
56.4293
56.4094
56.411
56.3897
56.3734
56.4078
56.5838
143.624
145.74
146.906
147.815
148.368
148.733
148.896
149.007
149.038
149.074
149.074
149.091
149.087
149.1
149.096
149.106
149.103
149.113
149.11
149.119
149.117
149.126
149.125
149.132
149.132
149.14
149.14
149.147
149.147
149.154
149.155
149.162
149.163
149.171
149.172
149.18
149.182
149.19
149.193
149.2
149.204
149.212
149.216
149.224
149.228
149.236
149.241
149.25
149.255
149.264
149.271
149.281
149.288
149.299
149.307
149.319
149.328
149.34
149.35
149.362
149.372
149.386
149.397
149.41
149.422
149.437
149.451
149.467
149.482
149.501
149.517
149.538
149.556
149.578
149.598
149.621
149.641
149.665
149.685
149.709
149.728
149.75
149.767
149.787
149.802
149.814
149.84
149.805
149.89
149.743
47.1711
48.973
49.3507
49.6732
49.8414
49.9855
50.0306
50.0892
50.094
50.1256
50.1228
50.1469
50.1445
50.1664
50.1656
50.1866
50.1874
50.2077
50.2099
50.2299
50.2333
50.2531
50.2577
50.2773
50.2829
50.3025
50.3089
50.3286
50.3359
50.3556
50.3638
50.3836
50.3927
50.4128
50.4227
50.4431
50.4539
50.4746
50.4863
50.5073
50.5198
50.5411
50.5544
50.576
50.5902
50.6122
50.6272
50.6498
50.6657
50.6889
50.7057
50.7295
50.7472
50.7715
50.79
50.8148
50.834
50.8593
50.8791
50.9048
50.9252
50.9512
50.9722
50.9987
51.0202
51.0472
51.0693
51.0966
51.1191
51.1467
51.1694
51.197
51.2195
51.2466
51.2684
51.2946
51.3152
51.34
51.3588
51.3817
51.3981
51.4187
51.4323
51.45
51.4607
51.4739
51.486
51.4823
51.5046
51.4584
30.4868
32.5643
32.8058
33.044
33.1548
33.2889
33.3238
33.3956
33.4027
33.4503
33.4527
33.4931
33.4967
33.5351
33.5411
33.5787
33.5869
33.6241
33.6343
33.6713
33.6832
33.7202
33.7337
33.7707
33.7856
33.8227
33.8389
33.876
33.8934
33.9305
33.9492
33.9864
34.0064
34.0437
34.0648
34.1023
34.1246
34.1623
34.1856
34.2234
34.2477
34.2857
34.3109
34.349
34.375
34.4133
34.4402
34.4787
34.5065
34.5453
34.5739
34.613
34.6423
34.6816
34.7114
34.7508
34.781
34.8204
34.8508
34.89
34.9205
34.9595
34.9901
35.0289
35.0596
35.0982
35.1289
35.1672
35.1977
35.2356
35.2657
35.303
35.3322
35.3684
35.3963
35.4309
35.457
35.4895
35.5131
35.543
35.5636
35.5905
35.6076
35.6311
35.6447
35.6632
35.6767
35.6823
35.7038
35.6711
28.3184
30.7651
30.9993
31.233
31.3441
31.4986
31.5428
31.6332
31.6466
31.7072
31.7141
31.7654
31.7732
31.8221
31.8326
31.8808
31.8939
31.9419
31.9573
32.0054
32.0229
32.071
32.0903
32.1386
32.1595
32.2079
32.2303
32.2787
32.3026
32.3509
32.3763
32.4246
32.4514
32.4998
32.528
32.5764
32.6059
32.6545
32.6852
32.7338
32.7655
32.8141
32.8468
32.8955
32.9291
32.9778
33.0123
33.0612
33.0967
33.1458
33.1822
33.2315
33.2686
33.318
33.3557
33.4051
33.4431
33.4923
33.5305
33.5794
33.6176
33.6662
33.7045
33.7528
33.7911
33.8391
33.8773
33.925
33.9631
34.0103
34.0479
34.0943
34.1309
34.176
34.211
34.2542
34.2869
34.3276
34.3574
34.3948
34.421
34.4547
34.4767
34.5062
34.5238
34.5474
34.5641
34.5756
34.5965
34.571
28.1953
30.8521
31.0833
31.3159
31.4262
31.5955
31.6457
31.7487
31.7661
31.8354
31.8447
31.9027
31.9126
31.9677
31.9806
32.0351
32.0508
32.1053
32.1236
32.1781
32.1987
32.2535
32.2761
32.3311
32.3555
32.4106
32.4367
32.4918
32.5195
32.5746
32.6039
32.6589
32.6899
32.745
32.7775
32.8327
32.8667
32.9219
32.9572
33.0124
33.0489
33.1041
33.1416
33.1968
33.2353
33.2907
33.3302
33.3857
33.4263
33.482
33.5236
33.5795
33.6219
33.678
33.721
33.777
33.8204
33.8762
33.9198
33.9753
34.019
34.0741
34.1178
34.1726
34.2163
34.2708
34.3145
34.3687
34.4122
34.4659
34.5088
34.5616
34.6035
34.6547
34.6949
34.744
34.7816
34.8278
34.8621
34.9047
34.9349
34.9734
34.9987
35.0325
35.0529
35.0803
35.0986
35.1147
35.1355
35.1128
28.3039
31.0901
31.3133
31.5362
31.6384
31.8088
31.8585
31.9643
31.9828
32.055
32.0652
32.1257
32.1365
32.1941
32.2079
32.265
32.2818
32.339
32.3585
32.4159
32.4379
32.4956
32.5197
32.5776
32.6037
32.6618
32.6896
32.7477
32.7773
32.8354
32.8667
32.9247
32.9577
33.0159
33.0505
33.1087
33.1448
33.2032
33.2407
33.299
33.3377
33.3961
33.4359
33.4942
33.5351
33.5936
33.6355
33.6942
33.7372
33.7961
33.8402
33.8993
33.9442
34.0035
34.0491
34.1083
34.1543
34.2133
34.2595
34.3181
34.3644
34.4227
34.469
34.5269
34.5733
34.6309
34.6773
34.7346
34.7807
34.8374
34.883
34.9388
34.9833
35.0375
35.0802
35.1321
35.1721
35.221
35.2574
35.3026
35.3347
35.3755
35.4026
35.4384
35.4603
35.4897
35.5083
35.5278
35.5473
35.5265
28.3061
31.0803
31.284
31.4862
31.5707
31.7275
31.7691
31.8688
31.8854
31.9562
31.9661
32.0263
32.0371
32.0945
32.1083
32.1653
32.1821
32.2392
32.2588
32.3161
32.3381
32.3957
32.4198
32.4777
32.5037
32.5618
32.5896
32.6477
32.6772
32.7353
32.7666
32.8246
32.8576
32.9157
32.9503
33.0085
33.0446
33.1029
33.1404
33.1987
33.2375
33.2958
33.3356
33.3939
33.4347
33.4931
33.5351
33.5937
33.6367
33.6956
33.7396
33.7987
33.8436
33.9028
33.9484
34.0076
34.0536
34.1125
34.1587
34.2173
34.2635
34.3217
34.3681
34.4259
34.4723
34.5298
34.5762
34.6334
34.6795
34.7362
34.7817
34.8375
34.8819
34.9361
34.9787
35.0306
35.0705
35.1194
35.1559
35.201
35.2331
35.2739
35.301
35.3368
35.3586
35.3884
35.406
35.4273
35.445
35.4259
28.1993
30.8124
30.9784
31.1473
31.2061
31.3363
31.3648
31.4513
31.4638
31.5293
31.5379
31.5951
31.605
31.6598
31.6726
31.7269
31.7426
31.7969
31.8152
31.8697
31.8902
31.9449
31.9675
32.0224
32.0468
32.1018
32.1279
32.1829
32.2106
32.2656
32.295
32.3499
32.3809
32.4359
32.4685
32.5235
32.5575
32.6127
32.6479
32.7031
32.7396
32.7947
32.8322
32.8874
32.9259
32.9811
33.0206
33.076
33.1166
33.1722
33.2137
33.2696
33.312
33.3679
33.4109
33.4668
33.5102
33.5659
33.6094
33.6648
33.7084
33.7634
33.807
33.8617
33.9054
33.9598
34.0034
34.0575
34.1009
34.1544
34.1973
34.2499
34.2917
34.3429
34.3829
34.4319
34.4694
34.5156
34.5498
34.5924
34.6225
34.661
34.6863
34.7202
34.7403
34.7689
34.7843
34.8059
34.8206
34.8028
28.3081
30.6453
30.7579
30.8848
30.9167
31.0128
31.0275
31.0964
31.1037
31.1597
31.1657
31.216
31.2238
31.2724
31.2829
31.3309
31.3441
31.392
31.4074
31.4554
31.4729
31.521
31.5403
31.5885
31.6095
31.6578
31.6803
31.7287
31.7526
31.801
31.8264
31.8747
31.9016
31.9499
31.9782
32.0267
32.0562
32.1048
32.1355
32.1841
32.2159
32.2645
32.2972
32.3458
32.3795
32.4282
32.4628
32.5116
32.5471
32.5962
32.6326
32.6819
32.719
32.7683
32.806
32.8553
32.8933
32.9425
32.9806
33.0295
33.0677
33.1162
33.1544
33.2026
33.2409
33.2888
33.327
33.3746
33.4126
33.4597
33.4972
33.5435
33.58
33.625
33.66
33.7031
33.7358
33.7764
33.8062
33.8436
33.8698
33.9036
33.9256
33.9554
33.9726
33.998
34.0106
34.0306
34.0408
34.0254
30.4088
32.2593
32.3049
32.3903
32.3975
32.4613
32.463
32.5129
32.5137
32.5567
32.5583
32.5978
32.6015
32.6395
32.6456
32.683
32.6913
32.7284
32.7387
32.7757
32.7878
32.8248
32.8384
32.8755
32.8906
32.9276
32.944
32.9811
32.9988
33.036
33.0548
33.0921
33.1122
33.1496
33.1709
33.2085
33.2309
33.2687
33.2922
33.3301
33.3545
33.3926
33.4179
33.456
33.4822
33.5206
33.5476
33.5862
33.614
33.653
33.6816
33.7208
33.7501
33.7895
33.8194
33.8588
33.8891
33.9284
33.9589
33.9981
34.0287
34.0677
34.0984
34.1372
34.1679
34.2065
34.2372
34.2755
34.306
34.3439
34.374
34.4113
34.4405
34.4767
34.5047
34.5393
34.5654
34.598
34.6217
34.6517
34.6725
34.6996
34.717
34.7408
34.7543
34.7746
34.784
34.8006
34.8051
34.7914
46.8662
48.1802
48.194
48.2484
48.2451
48.2842
48.2781
48.3084
48.3032
48.3288
48.3247
48.3475
48.345
48.3663
48.3657
48.3862
48.3871
48.4072
48.4095
48.4293
48.4328
48.4525
48.4572
48.4768
48.4825
48.5021
48.5086
48.5283
48.5357
48.5554
48.5637
48.5836
48.5928
48.6129
48.623
48.6434
48.6543
48.675
48.6868
48.7078
48.7204
48.7417
48.7551
48.7768
48.791
48.8131
48.8281
48.8507
48.8667
48.8898
48.9067
48.9304
48.9482
48.9725
48.991
49.0158
49.035
49.0602
49.08
49.1057
49.1261
49.1521
49.1731
49.1996
49.2212
49.2481
49.2702
49.2976
49.3201
49.3477
49.3704
49.398
49.4205
49.4477
49.4696
49.4959
49.5166
49.5416
49.5606
49.5837
49.6004
49.6212
49.6352
49.6534
49.6642
49.6797
49.6868
49.7001
49.6899
49.6849
142.436
143.031
143.071
143.147
143.166
143.211
143.213
143.24
143.237
143.254
143.249
143.262
143.257
143.267
143.263
143.272
143.269
143.277
143.275
143.283
143.281
143.289
143.288
143.295
143.295
143.302
143.302
143.309
143.309
143.316
143.316
143.323
143.324
143.331
143.332
143.339
143.341
143.348
143.351
143.358
143.361
143.369
143.372
143.38
143.383
143.391
143.395
143.403
143.408
143.417
143.422
143.432
143.438
143.448
143.455
143.466
143.474
143.486
143.494
143.506
143.515
143.527
143.537
143.55
143.561
143.575
143.588
143.603
143.617
143.635
143.65
143.67
143.687
143.708
143.727
143.75
143.77
143.793
143.813
143.836
143.855
143.877
143.894
143.915
143.929
143.947
143.958
143.974
143.955
143.939
30.1044
30.8895
31.1423
31.3197
31.4319
31.5009
31.5327
31.5556
31.5614
31.5725
31.5723
31.5813
31.5802
31.5891
31.5882
31.5973
31.5968
31.6061
31.606
31.6154
31.6158
31.6253
31.6263
31.636
31.6374
31.6471
31.6491
31.6589
31.6612
31.6711
31.674
31.684
31.6874
31.6976
31.7016
31.7121
31.7167
31.7274
31.7325
31.7435
31.7492
31.7604
31.7666
31.7781
31.7848
31.7966
31.804
31.8162
31.8243
31.837
31.8459
31.8592
31.8688
31.8828
31.8931
31.9076
31.9185
31.9335
31.9451
31.9605
31.9727
31.9886
32.0014
32.0179
32.0314
32.0486
32.0629
32.0809
32.0961
32.1148
32.1307
32.1501
32.1665
32.1864
32.2029
32.2228
32.239
32.2584
32.2738
32.2923
32.3062
32.3234
32.3354
32.3508
32.3606
32.3735
32.3832
32.386
32.4085
32.3835
27.9486
29.3362
29.5937
29.7794
29.898
29.9789
30.0191
30.0505
30.0631
30.0801
30.0859
30.0996
30.1043
30.1174
30.1223
30.1353
30.1405
30.1536
30.1591
30.1722
30.1781
30.1912
30.1975
30.2106
30.2173
30.2305
30.2374
30.2507
30.258
30.2713
30.2789
30.2922
30.3002
30.3135
30.3219
30.3352
30.3439
30.3572
30.3662
30.3796
30.3888
30.4023
30.4117
30.4252
30.4348
30.4483
30.4581
30.4715
30.4814
30.4948
30.5049
30.5182
30.5283
30.5415
30.5517
30.5648
30.575
30.5879
30.598
30.6107
30.6207
30.6331
30.6428
30.6549
30.6643
30.676
30.685
30.6963
30.7049
30.7157
30.7238
30.7341
30.7417
30.7513
30.7583
30.7674
30.7737
30.782
30.7876
30.7953
30.8001
30.8071
30.8111
30.8174
30.8207
30.8257
30.8312
30.8274
30.8489
30.8321
25.7441
27.6134
27.8849
28.0662
28.1931
28.2812
28.3311
28.3649
28.3819
28.3969
28.4044
28.4145
28.4199
28.4292
28.4343
28.4435
28.4487
28.4579
28.4632
28.4723
28.4778
28.4869
28.4925
28.5016
28.5073
28.5164
28.5222
28.5313
28.5372
28.5461
28.5522
28.561
28.5671
28.5759
28.582
28.5907
28.5969
28.6055
28.6118
28.6203
28.6265
28.6349
28.6412
28.6494
28.6556
28.6636
28.6697
28.6776
28.6836
28.6913
28.6972
28.7047
28.7105
28.7179
28.7235
28.7307
28.7362
28.7431
28.7484
28.755
28.7601
28.7664
28.7713
28.7773
28.7818
28.7875
28.7918
28.7972
28.8012
28.8063
28.81
28.8149
28.8184
28.823
28.8263
28.8307
28.8337
28.8379
28.8407
28.8446
28.8472
28.8509
28.8531
28.8565
28.8587
28.8608
28.8658
28.8606
28.8759
28.8408
25.0362
27.1047
27.3569
27.5233
27.6499
27.7437
27.7996
27.837
27.8564
27.8709
27.8779
27.8856
27.8895
27.8957
27.8992
27.9052
27.9087
27.9146
27.9181
27.924
27.9275
27.9334
27.937
27.9429
27.9465
27.9524
27.9561
27.9619
27.9657
27.9714
27.9752
27.9809
27.9847
27.9903
27.9942
27.9997
28.0037
28.0091
28.0131
28.0185
28.0225
28.0279
28.0319
28.0371
28.0411
28.0462
28.0501
28.0552
28.059
28.064
28.0678
28.0726
28.0764
28.0812
28.0849
28.0896
28.0932
28.0978
28.1014
28.1058
28.1092
28.1135
28.1168
28.1209
28.124
28.1279
28.1309
28.1347
28.1375
28.1412
28.1439
28.1474
28.15
28.1534
28.1559
28.1592
28.1616
28.1648
28.1671
28.1701
28.1722
28.175
28.1769
28.1795
28.1816
28.1828
28.1874
28.1832
28.1934
28.1704
24.6261
26.8148
27.0343
27.1756
27.2917
27.3842
27.4411
27.4806
27.5015
27.5168
27.5239
27.5311
27.5343
27.5396
27.5422
27.5472
27.5498
27.5546
27.5572
27.5619
27.5645
27.5692
27.5719
27.5767
27.5795
27.5842
27.5871
27.5919
27.5948
27.5996
27.6026
27.6073
27.6104
27.615
27.6182
27.6229
27.6261
27.6307
27.634
27.6386
27.642
27.6466
27.6499
27.6545
27.6579
27.6624
27.6657
27.6702
27.6735
27.6779
27.6813
27.6856
27.689
27.6933
27.6966
27.7008
27.7041
27.7083
27.7116
27.7156
27.7188
27.7227
27.7258
27.7296
27.7325
27.7361
27.7389
27.7425
27.7451
27.7485
27.7511
27.7544
27.7569
27.7601
27.7625
27.7656
27.7679
27.7709
27.773
27.7758
27.7778
27.7805
27.7823
27.7847
27.7866
27.7877
27.7916
27.7889
27.7952
27.7668
24.5583
26.7696
26.9555
27.0696
27.1686
27.2521
27.3045
27.3422
27.3628
27.378
27.3852
27.3923
27.3953
27.4004
27.4028
27.4075
27.4099
27.4146
27.417
27.4217
27.4242
27.4289
27.4315
27.4362
27.4389
27.4437
27.4464
27.4512
27.454
27.4587
27.4616
27.4663
27.4693
27.474
27.4771
27.4817
27.4849
27.4895
27.4927
27.4974
27.5007
27.5053
27.5086
27.5132
27.5165
27.521
27.5244
27.5288
27.5322
27.5366
27.5399
27.5443
27.5477
27.552
27.5553
27.5596
27.5629
27.5672
27.5704
27.5745
27.5777
27.5817
27.5848
27.5886
27.5915
27.5953
27.5981
27.6016
27.6044
27.6078
27.6104
27.6137
27.6162
27.6195
27.6219
27.625
27.6273
27.6303
27.6324
27.6353
27.6373
27.6399
27.6417
27.6442
27.646
27.6474
27.6506
27.6496
27.6534
27.6282
24.5592
26.7586
26.9253
27.0195
27.1015
27.1723
27.2165
27.2495
27.2679
27.2821
27.2889
27.2958
27.2988
27.3039
27.3063
27.311
27.3134
27.3181
27.3206
27.3253
27.3278
27.3326
27.3352
27.34
27.3426
27.3474
27.3502
27.355
27.3579
27.3627
27.3656
27.3703
27.3734
27.3781
27.3812
27.3859
27.3891
27.3938
27.3971
27.4018
27.4051
27.4098
27.4131
27.4178
27.4211
27.4257
27.4291
27.4336
27.437
27.4415
27.4449
27.4493
27.4527
27.4571
27.4605
27.4648
27.4682
27.4725
27.4758
27.4799
27.4832
27.4872
27.4903
27.4942
27.4972
27.501
27.5039
27.5075
27.5103
27.5138
27.5164
27.5198
27.5224
27.5257
27.5282
27.5313
27.5337
27.5367
27.539
27.5419
27.5439
27.5467
27.5485
27.551
27.5528
27.5546
27.5572
27.5573
27.56
27.5355
24.628
26.7726
26.9312
27.0133
27.0806
27.1377
27.1728
27.1998
27.2148
27.2273
27.2334
27.2402
27.2433
27.2486
27.2512
27.2562
27.2588
27.2638
27.2665
27.2713
27.2741
27.2788
27.2816
27.2865
27.2894
27.2942
27.2972
27.3021
27.3052
27.31
27.3131
27.318
27.3212
27.326
27.3293
27.3341
27.3374
27.3422
27.3456
27.3504
27.3539
27.3587
27.3622
27.3669
27.3704
27.3751
27.3786
27.3832
27.3867
27.3912
27.3947
27.3992
27.4027
27.4072
27.4107
27.4151
27.4186
27.4229
27.4263
27.4306
27.4339
27.438
27.4412
27.4452
27.4483
27.4521
27.4551
27.4588
27.4617
27.4652
27.468
27.4715
27.4742
27.4775
27.4801
27.4834
27.4858
27.489
27.4913
27.4943
27.4965
27.4994
27.5013
27.504
27.5057
27.5079
27.5101
27.511
27.5135
27.4877
25.024
26.9891
27.1268
27.1935
27.2451
27.2874
27.313
27.3336
27.3455
27.3565
27.3624
27.3695
27.3734
27.3795
27.383
27.389
27.3926
27.3985
27.4022
27.4081
27.4118
27.4178
27.4215
27.4275
27.4314
27.4373
27.4412
27.4472
27.4511
27.457
27.4611
27.4669
27.471
27.4767
27.4809
27.4866
27.4908
27.4965
27.5007
27.5063
27.5105
27.5161
27.5204
27.5259
27.5301
27.5355
27.5396
27.5449
27.5491
27.5543
27.5584
27.5635
27.5676
27.5727
27.5767
27.5817
27.5856
27.5905
27.5944
27.5991
27.6028
27.6074
27.611
27.6154
27.6189
27.6232
27.6265
27.6306
27.6338
27.6377
27.6408
27.6446
27.6476
27.6514
27.6542
27.6579
27.6606
27.6641
27.6667
27.6701
27.6725
27.6758
27.6779
27.6811
27.683
27.6858
27.6878
27.6898
27.6919
27.675
25.6852
27.3631
27.4656
27.5149
27.5499
27.5794
27.5972
27.6142
27.6242
27.6359
27.6423
27.6518
27.6572
27.6663
27.6715
27.6806
27.6859
27.695
27.7005
27.7096
27.7152
27.7244
27.7301
27.7393
27.7452
27.7544
27.7604
27.7695
27.7756
27.7847
27.7909
27.7999
27.8062
27.8152
27.8215
27.8304
27.8368
27.8456
27.8521
27.8608
27.8673
27.8759
27.8824
27.8908
27.8973
27.9056
27.9119
27.9201
27.9264
27.9343
27.9405
27.9483
27.9544
27.962
27.968
27.9754
27.9813
27.9885
27.9941
28.0011
28.0065
28.0132
28.0184
28.0248
28.0297
28.0358
28.0404
28.0462
28.0506
28.0562
28.0603
28.0656
28.0695
28.0746
28.0783
28.0832
28.0866
28.0913
28.0945
28.0989
28.1019
28.1061
28.1087
28.1128
28.115
28.1189
28.1208
28.1241
28.1271
28.1053
27.7823
28.8809
28.9223
28.9495
28.9656
28.9851
28.994
29.0095
29.0158
29.0295
29.0345
29.0474
29.0522
29.065
29.0699
29.0828
29.088
29.1009
29.1065
29.1195
29.1255
29.1385
29.1449
29.158
29.1647
29.1779
29.185
29.1982
29.2056
29.2188
29.2266
29.2399
29.248
29.2613
29.2697
29.283
29.2917
29.3051
29.3141
29.3276
29.3369
29.3503
29.3598
29.3733
29.383
29.3964
29.4063
29.4197
29.4298
29.4431
29.4533
29.4666
29.4768
29.4901
29.5003
29.5135
29.5237
29.5367
29.5469
29.5597
29.5697
29.5823
29.5921
29.6043
29.6138
29.6256
29.6348
29.6463
29.6551
29.6661
29.6744
29.6849
29.6928
29.7027
29.71
29.7194
29.726
29.7347
29.7406
29.7487
29.7539
29.7614
29.7658
29.7727
29.7762
29.7827
29.7853
29.7916
29.7942
29.8011
29.8153
30.2629
30.2753
30.2792
30.2818
30.2872
30.2873
30.2942
30.2937
30.3015
30.3004
30.3086
30.3075
30.3161
30.3153
30.3242
30.3237
30.3328
30.3327
30.342
30.3425
30.3519
30.3529
30.3624
30.3639
30.3735
30.3755
30.3852
30.3876
30.3973
30.4002
30.4101
30.4135
30.4236
30.4275
30.4379
30.4424
30.4529
30.458
30.4688
30.4744
30.4854
30.4915
30.5028
30.5094
30.521
30.5282
30.5403
30.5482
30.5607
30.5693
30.5824
30.5918
30.6054
30.6155
30.6297
30.6404
30.655
30.6663
30.6814
30.6933
30.7089
30.7214
30.7375
30.7507
30.7675
30.7815
30.7991
30.8139
30.8323
30.8478
30.8668
30.8828
30.9023
30.9185
30.9379
30.9539
30.9729
30.988
31.0063
31.02
31.037
31.0489
31.0644
31.0739
31.0877
31.0945
31.1076
31.1068
31.113
3.69375
3.91246
3.94101
3.95622
3.97331
3.9887
4.00193
4.01994
4.03177
4.05166
4.06206
4.08273
4.09198
4.11302
4.12156
4.14272
4.15087
4.17204
4.18006
4.20116
4.20924
4.23024
4.23849
4.25938
4.26789
4.28864
4.29747
4.31809
4.32729
4.34781
4.35744
4.37789
4.38798
4.4084
4.41898
4.4394
4.45048
4.47091
4.48247
4.50291
4.51493
4.53538
4.54784
4.56832
4.58123
4.60177
4.61513
4.63578