/*--------------------------------*- C++ -*----------------------------------*\
  =========                 |
  \\      /  F ield         | OpenFOAM: The Open Source CFD Toolbox
   \\    /   O peration     | Website:  https://openfoam.org
    \\  /    A nd           | Version:  7
     \\/     M anipulation  |
\*---------------------------------------------------------------------------*/
FoamFile
{
    version     2.0;
    format      ascii;
    class       volScalarField;
    location    "0.035";
    object      k_0;
}
// * * * * * * * * * * * * * * * * * * * * * * * * * * * * * * * * * * * * * //

dimensions      [0 2 -2 0 0 0 0];

internalField   nonuniform List<scalar> 
7920
(
51.3685
56.1012
56.3158
56.4112
56.358
56.402
56.3537
56.3904
56.3494
56.3804
56.3455
56.3719
56.342
56.3645
56.3386
56.3582
56.3395
56.3526
56.3785
56.4719
10.5872
9.40697
8.83417
8.72864
8.68683
8.70127
8.6781
8.69256
8.67187
8.68435
8.66584
8.67636
8.65983
8.66849
8.65364
8.66076
8.64787
8.65584
8.72345
9.17751
5.10924
5.05546
4.90487
4.89882
4.87342
4.88552
4.86661
4.87772
4.86066
4.87017
4.85479
4.8627
4.84892
4.85528
4.84294
4.84784
4.83686
4.8415
4.83368
4.87355
4.8534
4.9154
4.8095
4.80922
4.78673
4.79896
4.78046
4.79133
4.77456
4.78384
4.7687
4.77643
4.76286
4.76908
4.75692
4.76168
4.75084
4.75408
4.74734
4.75217
4.83975
4.90527
4.80058
4.80141
4.77916
4.7914
4.77284
4.78378
4.76699
4.77634
4.76119
4.76896
4.75539
4.76163
4.74947
4.75425
4.7435
4.74683
4.74013
4.7461
4.84581
4.9074
4.80342
4.80432
4.78222
4.79454
4.77603
4.78696
4.77018
4.7795
4.76436
4.77211
4.75854
4.76477
4.75262
4.75738
4.74666
4.74991
4.74368
4.74892
4.84581
4.9074
4.80342
4.80432
4.78222
4.79454
4.77603
4.78696
4.77018
4.7795
4.76436
4.77211
4.75854
4.76477
4.75262
4.75738
4.74666
4.74991
4.74367
4.74892
4.83975
4.90527
4.80058
4.80141
4.77916
4.7914
4.77284
4.78378
4.76699
4.77634
4.76119
4.76896
4.75539
4.76163
4.74947
4.75425
4.7435
4.74684
4.74015
4.74615
4.8534
4.91539
4.8095
4.80922
4.78673
4.79896
4.78046
4.79133
4.77456
4.78384
4.7687
4.77643
4.76287
4.76908
4.75693
4.76168
4.75085
4.7541
4.74733
4.75221
5.10924
5.05546
4.90487
4.89882
4.87342
4.88552
4.8666
4.87772
4.86066
4.87017
4.85479
4.8627
4.84892
4.85528
4.84294
4.84784
4.83686
4.84149
4.83366
4.87354
10.5872
9.40699
8.83417
8.72864
8.68683
8.70127
8.6781
8.69255
8.67187
8.68435
8.66584
8.67636
8.65983
8.66849
8.65364
8.66076
8.64785
8.65587
8.72246
9.17621
51.3685
56.1012
56.3158
56.4113
56.358
56.4021
56.3537
56.3904
56.3494
56.3804
56.3456
56.3719
56.342
56.3645
56.3386
56.3582
56.3395
56.3528
56.376
56.4903
5.48354
6.70145
6.76856
6.76744
6.75364
6.7564
6.73986
6.74573
6.72735
6.73473
6.7158
6.72347
6.70473
6.71173
6.6936
6.69914
6.68247
6.68433
6.65818
6.70082
3.53129
4.43382
4.48476
4.48245
4.48027
4.47982
4.47798
4.47782
4.47649
4.47641
4.47537
4.47531
4.47451
4.47441
4.47372
4.47316
4.47191
4.4739
4.47215
4.48838
3.3939
4.27854
4.3563
4.36198
4.36017
4.36086
4.36017
4.36052
4.36039
4.36048
4.36032
4.35998
4.35994
4.35975
4.36023
4.35998
4.36052
4.36008
4.36079
4.3642
3.40181
4.28886
4.36693
4.372
4.36998
4.37051
4.36988
4.37013
4.36999
4.37
4.36969
4.36917
4.36914
4.36896
4.36944
4.36919
4.36976
4.36955
4.37147
4.37504
3.39524
4.28022
4.35866
4.36423
4.36237
4.36306
4.36238
4.36273
4.36261
4.3627
4.36254
4.36218
4.36214
4.36196
4.36246
4.36221
4.36278
4.36233
4.3637
4.36675
3.39905
4.28474
4.36291
4.36817
4.36622
4.36683
4.36618
4.36648
4.36635
4.3664
4.36618
4.36576
4.36572
4.36553
4.36602
4.36578
4.36636
4.36606
4.36778
4.37124
3.39905
4.28474
4.36291
4.36817
4.36622
4.36683
4.36618
4.36648
4.36635
4.3664
4.36618
4.36576
4.36572
4.36553
4.36602
4.36578
4.36636
4.36605
4.36778
4.37125
3.39524
4.28022
4.35866
4.36423
4.36236
4.36306
4.36238
4.36273
4.36261
4.3627
4.36254
4.36218
4.36215
4.36196
4.36246
4.36221
4.36278
4.36234
4.36369
4.36676
3.40181
4.28886
4.36693
4.372
4.36998
4.37051
4.36988
4.37013
4.36998
4.36999
4.36969
4.36917
4.36914
4.36896
4.36944
4.36919
4.36976
4.36955
4.37148
4.37505
3.3939
4.27854
4.3563
4.36198
4.36017
4.36086
4.36017
4.36051
4.36039
4.36048
4.36032
4.35998
4.35994
4.35975
4.36023
4.35998
4.36052
4.36009
4.36075
4.36429
3.53129
4.43382
4.48476
4.48245
4.48028
4.47982
4.47798
4.47782
4.47649
4.47641
4.47537
4.47531
4.47451
4.47441
4.47372
4.47316
4.47191
4.47388
4.47194
4.48901
5.48354
6.70145
6.76856
6.76744
6.75364
6.75641
6.73987
6.74574
6.72735
6.73473
6.7158
6.72348
6.70473
6.71174
6.69361
6.69916
6.68247
6.68441
6.65784
6.7034
0.11391
0.170388
0.163486
0.170038
0.161663
0.167294
0.159849
0.164728
0.158133
0.162325
0.156531
0.16007
0.155021
0.157932
0.153587
0.15591
0.152264
0.154057
0.150985
0.152718
0.0163353
0.0248227
0.0250708
0.0252304
0.0249879
0.0250578
0.0249029
0.0249361
0.0248357
0.0248511
0.0247859
0.0247933
0.0247527
0.0247607
0.0247388
0.0247752
0.0247927
0.0248436
0.02486
0.0251426
0.0147063
0.0233447
0.0236452
0.0239927
0.0236048
0.0237529
0.0235169
0.0235976
0.0234549
0.0234978
0.0234176
0.0234441
0.023405
0.0234486
0.0234686
0.0235183
0.0235387
0.0236127
0.0236285
0.0237205
0.0152647
0.0244832
0.0249695
0.0252867
0.0249411
0.0250452
0.0248448
0.0248867
0.0247732
0.0247844
0.0247282
0.0247298
0.024695
0.0246982
0.0247214
0.0247726
0.0248062
0.0248633
0.0249577
0.0250412
0.0149054
0.0237477
0.0240767
0.0244497
0.0240566
0.0242125
0.023975
0.0240531
0.0239126
0.0239468
0.0238719
0.0238887
0.0238587
0.0238964
0.0239256
0.0239681
0.0239908
0.0240566
0.024105
0.0241887
0.0150869
0.0241116
0.0245353
0.0248755
0.0245141
0.0246375
0.0244243
0.024479
0.0243558
0.024375
0.0243103
0.0243172
0.0242845
0.0243067
0.0243357
0.0243769
0.0244037
0.0244629
0.0245405
0.0246141
0.0150869
0.0241116
0.0245353
0.0248755
0.0245141
0.0246375
0.0244243
0.024479
0.0243558
0.024375
0.0243103
0.0243172
0.0242845
0.0243067
0.0243357
0.0243769
0.0244037
0.0244629
0.0245401
0.0246142
0.0149054
0.0237477
0.0240767
0.0244497
0.0240566
0.0242125
0.023975
0.0240531
0.0239126
0.0239468
0.0238719
0.0238887
0.0238587
0.0238964
0.0239256
0.0239681
0.0239909
0.0240566
0.0241053
0.0241883
0.0152647
0.0244832
0.0249695
0.0252867
0.0249411
0.0250452
0.0248448
0.0248868
0.0247732
0.0247844
0.0247284
0.0247299
0.0246924
0.0246955
0.024722
0.0247738
0.0248062
0.0248632
0.0249572
0.0250409
0.0147063
0.0233447
0.0236452
0.0239927
0.0236048
0.0237529
0.0235169
0.0235976
0.0234549
0.0234978
0.0234176
0.0234441
0.023405
0.0234486
0.0234686
0.0235183
0.0235387
0.0236125
0.0236286
0.0237203
0.0163353
0.0248227
0.0250708
0.0252305
0.024988
0.0250578
0.0249029
0.0249361
0.0248357
0.0248511
0.0247859
0.0247933
0.0247527
0.0247607
0.0247387
0.0247752
0.0247926
0.0248434
0.0248587
0.0251439
0.11391
0.170388
0.163486
0.170038
0.161663
0.167294
0.159849
0.164728
0.158134
0.162325
0.156531
0.16007
0.155021
0.157933
0.153588
0.155911
0.152264
0.154065
0.150977
0.152791
0.11391
0.170388
0.163485
0.170037
0.161663
0.167294
0.159849
0.164728
0.158133
0.162325
0.156531
0.16007
0.155021
0.157932
0.153587
0.15591
0.152263
0.154057
0.150985
0.152718
0.0163353
0.0248227
0.0250708
0.0252304
0.0249879
0.0250578
0.0249029
0.0249361
0.0248357
0.0248511
0.0247859
0.0247933
0.0247527
0.0247607
0.0247388
0.0247752
0.0247927
0.0248437
0.02486
0.0251426
0.0147063
0.0233448
0.0236453
0.0239927
0.0236048
0.023753
0.0235169
0.0235977
0.0234549
0.0234978
0.0234176
0.0234441
0.0234051
0.0234486
0.0234687
0.0235184
0.0235388
0.0236128
0.0236286
0.0237207
0.0152648
0.0244833
0.0249695
0.0252868
0.0249412
0.0250452
0.0248449
0.0248868
0.0247733
0.0247844
0.024728
0.0247297
0.0246969
0.0247004
0.0247211
0.0247714
0.0248064
0.0248635
0.0249578
0.0250413
0.0149055
0.0237478
0.0240768
0.0244498
0.0240567
0.0242126
0.0239751
0.0240531
0.0239127
0.0239468
0.0238719
0.0238887
0.0238587
0.0238965
0.0239257
0.0239682
0.0239909
0.0240567
0.0241051
0.0241888
0.0150869
0.0241116
0.0245354
0.0248756
0.0245142
0.0246375
0.0244243
0.0244791
0.0243559
0.024375
0.0243104
0.0243173
0.0242845
0.0243068
0.0243358
0.024377
0.0244039
0.024463
0.0245406
0.0246142
0.0150869
0.0241116
0.0245354
0.0248756
0.0245141
0.0246375
0.0244243
0.0244791
0.0243559
0.024375
0.0243104
0.0243173
0.0242845
0.0243068
0.0243358
0.024377
0.0244038
0.024463
0.0245402
0.0246143
0.0149055
0.0237478
0.0240768
0.0244498
0.0240567
0.0242126
0.0239751
0.0240531
0.0239127
0.0239468
0.023872
0.0238888
0.0238587
0.0238965
0.0239257
0.0239682
0.023991
0.0240567
0.0241054
0.0241885
0.0152648
0.0244833
0.0249695
0.0252868
0.0249412
0.0250452
0.0248449
0.0248868
0.0247733
0.0247844
0.0247284
0.02473
0.0246925
0.0246957
0.0247222
0.0247739
0.0248063
0.0248634
0.0249574
0.025041
0.0147063
0.0233448
0.0236453
0.0239927
0.0236048
0.023753
0.0235169
0.0235977
0.0234549
0.0234978
0.0234176
0.0234441
0.023405
0.0234486
0.0234687
0.0235184
0.0235388
0.0236126
0.0236287
0.0237204
0.0163354
0.0248227
0.0250708
0.0252304
0.0249879
0.0250578
0.0249029
0.0249361
0.0248357
0.0248511
0.0247859
0.0247933
0.0247527
0.0247607
0.0247387
0.0247752
0.0247927
0.0248435
0.0248587
0.025144
0.11391
0.170388
0.163486
0.170037
0.161663
0.167294
0.159849
0.164728
0.158133
0.162325
0.156531
0.16007
0.155021
0.157932
0.153587
0.155911
0.152264
0.154065
0.150976
0.15279
5.48354
6.70145
6.76856
6.76744
6.75364
6.7564
6.73987
6.74574
6.72735
6.73473
6.7158
6.72347
6.70473
6.71173
6.69361
6.69915
6.68247
6.68433
6.65818
6.70083
3.53129
4.43383
4.48476
4.48245
4.48027
4.47982
4.47798
4.47782
4.47649
4.47641
4.47537
4.47531
4.47451
4.47441
4.47372
4.47316
4.47191
4.4739
4.47215
4.48838
3.3939
4.27854
4.3563
4.36198
4.36017
4.36086
4.36017
4.36052
4.36039
4.36048
4.36032
4.35998
4.35994
4.35975
4.36023
4.35998
4.36052
4.36008
4.36079
4.3642
3.40181
4.28886
4.36693
4.372
4.36998
4.37051
4.36988
4.37013
4.36999
4.37
4.36969
4.36917
4.36914
4.36896
4.36944
4.36919
4.36976
4.36955
4.37147
4.37504
3.39524
4.28022
4.35866
4.36423
4.36237
4.36306
4.36238
4.36273
4.36261
4.3627
4.36254
4.36218
4.36214
4.36196
4.36246
4.36221
4.36278
4.36233
4.3637
4.36675
3.39905
4.28474
4.36291
4.36817
4.36622
4.36683
4.36618
4.36648
4.36635
4.3664
4.36618
4.36576
4.36572
4.36553
4.36602
4.36578
4.36636
4.36606
4.36778
4.37124
3.39905
4.28474
4.36291
4.36817
4.36622
4.36683
4.36618
4.36648
4.36635
4.3664
4.36618
4.36576
4.36572
4.36553
4.36602
4.36578
4.36636
4.36605
4.36778
4.37125
3.39524
4.28022
4.35866
4.36423
4.36236
4.36306
4.36238
4.36273
4.36261
4.3627
4.36254
4.36218
4.36214
4.36196
4.36246
4.36221
4.36278
4.36234
4.36369
4.36676
3.40181
4.28886
4.36693
4.372
4.36998
4.37051
4.36988
4.37013
4.36998
4.36999
4.36969
4.36917
4.36914
4.36896
4.36944
4.36919
4.36976
4.36955
4.37148
4.37505
3.3939
4.27854
4.3563
4.36198
4.36017
4.36086
4.36017
4.36051
4.36039
4.36048
4.36032
4.35998
4.35994
4.35975
4.36023
4.35998
4.36052
4.36009
4.36075
4.36429
3.53129
4.43382
4.48476
4.48245
4.48027
4.47982
4.47798
4.47782
4.47649
4.47641
4.47537
4.47531
4.4745
4.47441
4.47372
4.47316
4.47191
4.47388
4.47194
4.48901
5.48354
6.70145
6.76855
6.76744
6.75364
6.7564
6.73986
6.74573
6.72735
6.73473
6.7158
6.72347
6.70473
6.71173
6.69361
6.69915
6.68247
6.68441
6.65783
6.70339
51.3685
56.1012
56.3158
56.4113
56.358
56.4021
56.3537
56.3904
56.3494
56.3804
56.3456
56.3719
56.342
56.3645
56.3386
56.3582
56.3395
56.3526
56.3785
56.4719
10.5872
9.40698
8.83417
8.72864
8.68683
8.70127
8.6781
8.69256
8.67188
8.68435
8.66584
8.67637
8.65984
8.66849
8.65364
8.66076
8.64787
8.65584
8.72345
9.17751
5.10924
5.05546
4.90487
4.89882
4.87342
4.88552
4.86661
4.87772
4.86066
4.87017
4.85479
4.8627
4.84892
4.85528
4.84293
4.84783
4.83686
4.8415
4.83367
4.87355
4.8534
4.9154
4.8095
4.80922
4.78673
4.79896
4.78046
4.79133
4.77456
4.78384
4.7687
4.77643
4.76286
4.76908
4.75692
4.76168
4.75084
4.75408
4.74734
4.75217
4.83975
4.90527
4.80058
4.80141
4.77916
4.7914
4.77284
4.78378
4.76699
4.77634
4.76119
4.76896
4.75539
4.76163
4.74947
4.75425
4.7435
4.74682
4.74012
4.7461
4.84581
4.9074
4.80342
4.80432
4.78222
4.79454
4.77603
4.78696
4.77018
4.7795
4.76436
4.77211
4.75854
4.76477
4.75262
4.75738
4.74666
4.74991
4.74368
4.74892
4.84581
4.9074
4.80342
4.80432
4.78222
4.79454
4.77603
4.78696
4.77018
4.7795
4.76436
4.77211
4.75854
4.76477
4.75262
4.75738
4.74666
4.74991
4.74367
4.74891
4.83975
4.90527
4.80058
4.80141
4.77916
4.7914
4.77284
4.78378
4.76699
4.77634
4.76119
4.76896
4.75539
4.76163
4.74947
4.75425
4.7435
4.74684
4.74015
4.74615
4.8534
4.91539
4.8095
4.80922
4.78673
4.79896
4.78046
4.79133
4.77456
4.78384
4.7687
4.77643
4.76286
4.76908
4.75692
4.76168
4.75085
4.7541
4.74733
4.75221
5.10924
5.05546
4.90487
4.89882
4.87341
4.88552
4.8666
4.87772
4.86066
4.87017
4.85479
4.8627
4.84892
4.85528
4.84293
4.84784
4.83686
4.84149
4.83366
4.87354
10.5872
9.40698
8.83417
8.72864
8.68683
8.70127
8.6781
8.69255
8.67187
8.68434
8.66583
8.67636
8.65983
8.66848
8.65363
8.66075
8.64784
8.65587
8.72247
9.17622
51.3685
56.1012
56.3158
56.4112
56.358
56.4021
56.3537
56.3904
56.3494
56.3804
56.3455
56.3718
56.342
56.3645
56.3386
56.3582
56.3394
56.3528
56.376
56.4903
141.824
143.303
143.296
143.374
143.327
143.368
143.32
143.4
143.385
143.431
143.37
143.422
143.429
143.523
143.487
143.49
143.44
143.521
143.56
143.645
143.583
143.526
143.426
143.449
143.487
143.602
143.612
143.538
143.258
142.884
142.452
142.079
141.789
141.593
141.468
141.393
141.349
141.324
141.31
141.301
141.297
141.295
141.294
141.293
141.293
141.293
141.293
141.293
141.293
141.294
141.294
141.295
141.296
141.297
141.299
141.3
141.301
141.302
141.302
141.302
141.302
141.302
141.302
141.302
141.303
141.303
141.302
141.302
141.302
141.301
141.301
141.301
141.3
141.3
141.299
141.299
141.298
141.298
141.297
141.297
141.297
141.296
141.296
141.296
141.297
141.296
141.299
141.299
141.273
141.282
39.0963
39.8754
39.778
39.8263
39.7301
39.7621
39.674
39.7077
39.6279
39.6438
39.5591
39.5718
39.5032
39.5123
39.4316
39.4139
39.3363
39.3291
39.2661
39.2441
39.1564
39.1011
39.0148
38.9746
38.9146
38.879
38.8043
38.7238
38.6055
38.4894
38.377
38.2919
38.2314
38.194
38.1719
38.1594
38.1524
38.1486
38.1464
38.1452
38.1446
38.1442
38.1441
38.144
38.144
38.1439
38.144
38.144
38.144
38.1441
38.1442
38.1443
38.1444
38.1445
38.1447
38.1449
38.145
38.1451
38.1452
38.1453
38.1453
38.1454
38.1455
38.1457
38.1458
38.1459
38.1459
38.146
38.146
38.1461
38.1462
38.1462
38.1462
38.1462
38.1462
38.1462
38.1462
38.1462
38.1462
38.1461
38.1462
38.1461
38.1463
38.1462
38.1468
38.1467
38.1481
38.1479
38.1358
38.3001
17.4164
18.0968
17.9979
18.0261
17.9256
17.9386
17.8481
17.8609
17.7778
17.7751
17.6913
17.6874
17.6188
17.611
17.5349
17.5094
17.4415
17.4263
17.3715
17.346
17.2761
17.2312
17.1686
17.1392
17.0987
17.0744
17.0251
16.9722
16.8956
16.8215
16.7506
16.6982
16.6618
16.6404
16.6283
16.622
16.6187
16.617
16.6162
16.6157
16.6155
16.6154
16.6153
16.6153
16.6153
16.6153
16.6153
16.6153
16.6153
16.6153
16.6154
16.6154
16.6155
16.6155
16.6156
16.6157
16.6158
16.6159
16.6159
16.616
16.616
16.6161
16.6161
16.6162
16.6162
16.6163
16.6163
16.6163
16.6164
16.6164
16.6164
16.6164
16.6164
16.6164
16.6164
16.6164
16.6164
16.6164
16.6164
16.6164
16.6164
16.6164
16.6164
16.6164
16.6167
16.6167
16.6175
16.6175
16.6175
16.9344
15.178
15.9615
15.8756
15.9012
15.805
15.8158
15.7298
15.7408
15.6618
15.6582
15.5789
15.5746
15.5101
15.5022
15.4305
15.4061
15.3426
15.3285
15.2774
15.2532
15.1877
15.1454
15.0872
15.0601
15.0228
15.0001
14.9538
14.9036
14.8311
14.7609
14.6941
14.6447
14.6106
14.5905
14.5793
14.5735
14.5706
14.5691
14.5684
14.568
14.5678
14.5677
14.5676
14.5676
14.5676
14.5676
14.5676
14.5676
14.5676
14.5676
14.5676
14.5677
14.5677
14.5678
14.5679
14.568
14.5681
14.5681
14.5682
14.5683
14.5683
14.5684
14.5684
14.5685
14.5685
14.5685
14.5686
14.5686
14.5686
14.5686
14.5686
14.5686
14.5686
14.5686
14.5686
14.5686
14.5686
14.5686
14.5685
14.5685
14.5685
14.5685
14.5685
14.5685
14.5687
14.5687
14.5692
14.5692
14.5705
15.0846
15.0364
15.8157
15.7306
15.7564
15.6608
15.6717
15.5861
15.5972
15.5185
15.515
15.436
15.4318
15.3675
15.3597
15.2882
15.264
15.2009
15.1868
15.136
15.112
15.0468
15.0049
14.947
14.9201
14.883
14.8604
14.8144
14.7645
14.6925
14.6229
14.5565
14.5076
14.4737
14.4538
14.4427
14.437
14.4341
14.4327
14.4319
14.4315
14.4313
14.4312
14.4312
14.4312
14.4312
14.4312
14.4312
14.4312
14.4312
14.4312
14.4312
14.4313
14.4313
14.4314
14.4315
14.4316
14.4316
14.4317
14.4318
14.4319
14.4319
14.4319
14.432
14.432
14.4321
14.4321
14.4322
14.4322
14.4322
14.4322
14.4322
14.4322
14.4322
14.4322
14.4322
14.4322
14.4322
14.4321
14.4321
14.4321
14.4321
14.4321
14.4321
14.4321
14.4323
14.4323
14.433
14.433
14.4347
14.8156
15.045
15.8315
15.7468
15.7722
15.6764
15.6871
15.6014
15.6123
15.5337
15.5301
15.4512
15.447
15.3828
15.375
15.3036
15.2794
15.2163
15.2023
15.1515
15.1275
15.0624
15.0205
14.9626
14.9357
14.8987
14.8761
14.8301
14.7802
14.7081
14.6384
14.5719
14.5229
14.489
14.4691
14.458
14.4522
14.4493
14.4478
14.4471
14.4467
14.4465
14.4464
14.4464
14.4463
14.4463
14.4463
14.4463
14.4463
14.4463
14.4464
14.4464
14.4464
14.4465
14.4466
14.4466
14.4467
14.4468
14.4469
14.447
14.447
14.4471
14.4471
14.4472
14.4472
14.4472
14.4473
14.4473
14.4473
14.4473
14.4474
14.4474
14.4474
14.4474
14.4474
14.4473
14.4473
14.4473
14.4473
14.4473
14.4473
14.4472
14.4472
14.4473
14.4473
14.4474
14.4474
14.4479
14.4479
14.4492
14.8748
15.0449
15.8315
15.747
15.7724
15.6765
15.6872
15.6016
15.6125
15.5339
15.5303
15.4513
15.4472
15.3829
15.3751
15.3038
15.2795
15.2165
15.2025
15.1517
15.1277
15.0625
15.0206
14.9627
14.9358
14.8987
14.8762
14.8301
14.7803
14.7082
14.6385
14.572
14.5229
14.489
14.4691
14.458
14.4523
14.4494
14.4479
14.4471
14.4468
14.4466
14.4465
14.4464
14.4464
14.4464
14.4464
14.4464
14.4464
14.4464
14.4464
14.4464
14.4465
14.4465
14.4466
14.4467
14.4468
14.4469
14.4469
14.447
14.4471
14.4471
14.4472
14.4472
14.4473
14.4473
14.4473
14.4474
14.4474
14.4474
14.4474
14.4474
14.4474
14.4474
14.4474
14.4474
14.4474
14.4474
14.4474
14.4473
14.4473
14.4473
14.4473
14.4473
14.4473
14.4475
14.4475
14.4479
14.4479
14.4494
14.8761
15.0369
15.8153
15.7296
15.7553
15.6597
15.6707
15.585
15.5961
15.5174
15.5139
15.4349
15.4307
15.3664
15.3586
15.2872
15.263
15.1999
15.1859
15.135
15.111
15.0459
15.004
14.9462
14.9193
14.8823
14.8598
14.8137
14.7639
14.692
14.6224
14.5561
14.5072
14.4734
14.4536
14.4425
14.4368
14.4339
14.4325
14.4317
14.4313
14.4311
14.431
14.431
14.431
14.431
14.431
14.431
14.431
14.431
14.431
14.431
14.4311
14.4311
14.4312
14.4313
14.4313
14.4314
14.4315
14.4316
14.4316
14.4317
14.4317
14.4318
14.4318
14.4319
14.4319
14.4319
14.432
14.432
14.432
14.432
14.432
14.432
14.432
14.432
14.432
14.432
14.4319
14.4319
14.4319
14.4319
14.4319
14.4319
14.4319
14.4321
14.4321
14.4328
14.4328
14.4343
14.8148
15.1758
15.9606
15.8752
15.9009
15.8047
15.8156
15.7295
15.7406
15.6616
15.658
15.5787
15.5744
15.5099
15.502
15.4302
15.4059
15.3424
15.3282
15.2771
15.2529
15.1874
15.1451
15.0869
15.0598
15.0224
14.9997
14.9533
14.9031
14.8306
14.7604
14.6935
14.6441
14.61
14.5899
14.5786
14.5728
14.5699
14.5684
14.5676
14.5672
14.567
14.5669
14.5669
14.5668
14.5668
14.5668
14.5668
14.5668
14.5668
14.5669
14.5669
14.5669
14.567
14.567
14.5671
14.5672
14.5673
14.5674
14.5675
14.5675
14.5676
14.5676
14.5676
14.5677
14.5677
14.5678
14.5678
14.5678
14.5678
14.5679
14.5679
14.5679
14.5679
14.5679
14.5678
14.5678
14.5678
14.5678
14.5678
14.5678
14.5677
14.5677
14.5678
14.5678
14.568
14.5679
14.5684
14.5684
14.5701
15.0751
17.3899
18.0755
17.9778
18.0065
17.9063
17.9197
17.8296
17.8428
17.7601
17.7579
17.6745
17.6709
17.6027
17.5953
17.5195
17.4944
17.4268
17.4119
17.3573
17.332
17.2624
17.2178
17.1554
17.1262
17.0859
17.0617
17.0127
16.96
16.8836
16.8098
16.7392
16.6871
16.651
16.6297
16.6178
16.6116
16.6084
16.6068
16.6059
16.6055
16.6053
16.6051
16.6051
16.6051
16.605
16.605
16.605
16.6051
16.6051
16.6051
16.6051
16.6052
16.6052
16.6053
16.6054
16.6055
16.6056
16.6056
16.6057
16.6058
16.6058
16.6058
16.6059
16.6059
16.606
16.606
16.6061
16.6061
16.6061
16.6061
16.6061
16.6062
16.6061
16.6062
16.6061
16.6061
16.6061
16.6061
16.6061
16.6061
16.6061
16.6061
16.6061
16.6061
16.6064
16.6064
16.6072
16.6072
16.6069
16.9225
38.9243
39.7059
39.6087
39.6599
39.5652
39.6005
39.5144
39.5516
39.4739
39.4934
39.4115
39.4278
39.3619
39.3744
39.2966
39.2826
39.2079
39.204
39.1435
39.1245
39.0396
38.9874
38.9038
38.8661
38.8079
38.774
38.701
38.6224
38.5061
38.3924
38.2822
38.1991
38.1402
38.1039
38.0826
38.0707
38.0641
38.0605
38.0584
38.0573
38.0567
38.0564
38.0562
38.0562
38.0561
38.0561
38.0561
38.0562
38.0562
38.0562
38.0563
38.0564
38.0565
38.0567
38.0568
38.057
38.0571
38.0572
38.0572
38.0573
38.0573
38.0574
38.0574
38.0575
38.0576
38.0577
38.0577
38.0577
38.0577
38.0577
38.0578
38.0578
38.0577
38.0577
38.0577
38.0577
38.0577
38.0576
38.0576
38.0575
38.0576
38.0575
38.0577
38.0576
38.0581
38.0581
38.0594
38.0593
38.0472
38.2118
140.952
142.326
142.32
142.407
142.361
142.412
142.366
142.458
142.446
142.506
142.453
142.518
142.532
142.641
142.615
142.635
142.596
142.693
142.744
142.847
142.801
142.766
142.682
142.724
142.777
142.912
142.942
142.894
142.64
142.293
141.885
141.532
141.258
141.072
140.955
140.885
140.844
140.82
140.806
140.799
140.794
140.792
140.791
140.791
140.79
140.79
140.79
140.791
140.791
140.791
140.792
140.792
140.793
140.794
140.796
140.796
140.797
140.798
140.798
140.798
140.797
140.797
140.797
140.797
140.797
140.796
140.796
140.795
140.795
140.794
140.794
140.794
140.793
140.793
140.792
140.792
140.791
140.791
140.791
140.79
140.79
140.79
140.79
140.79
140.791
140.791
140.793
140.792
140.769
140.779
24.2207
25.0952
25.0125
25.0624
24.9718
25.0031
24.9177
24.9599
24.8867
24.9103
24.8254
24.8477
24.7881
24.8158
24.7401
24.7297
24.6546
24.6652
24.6179
24.6174
24.5336
24.4814
24.3922
24.3638
24.3185
24.3086
24.2477
24.171
24.0296
23.8776
23.7204
23.5961
23.5051
23.4474
23.4125
23.3924
23.381
23.3744
23.3708
23.3687
23.3676
23.367
23.3667
23.3666
23.3665
23.3665
23.3665
23.3666
23.3666
23.3667
23.3669
23.367
23.3672
23.3674
23.3677
23.3679
23.3681
23.3681
23.3681
23.3681
23.368
23.3679
23.3679
23.368
23.368
23.368
23.368
23.3679
23.3679
23.3679
23.3679
23.3679
23.3678
23.3678
23.3677
23.3677
23.3677
23.3677
23.3675
23.3675
23.3672
23.3672
23.3666
23.3665
23.3653
23.3652
23.3631
23.363
23.3572
23.3286
15.8385
16.4721
16.4405
16.4399
16.4141
16.4093
16.3807
16.375
16.3528
16.3467
16.3214
16.3093
16.2875
16.2809
16.264
16.2507
16.2272
16.2126
16.1983
16.1916
16.1803
16.1658
16.1457
16.1278
16.1141
16.1081
16.1068
16.1058
16.1029
16.0936
16.0806
16.0638
16.0475
16.0323
16.0203
16.0112
16.0049
16.0008
15.9982
15.9967
15.9959
15.9954
15.9952
15.9951
15.995
15.995
15.995
15.9951
15.9951
15.9952
15.9953
15.9954
15.9956
15.9958
15.996
15.9961
15.9962
15.9962
15.9962
15.9962
15.9961
15.9961
15.9961
15.9961
15.9961
15.9961
15.9961
15.996
15.996
15.996
15.996
15.996
15.9959
15.9959
15.9959
15.9959
15.9959
15.9959
15.9958
15.9958
15.9958
15.9958
15.9957
15.9957
15.9956
15.9956
15.9957
15.9957
15.9994
16.0133
13.7917
14.4616
14.4709
14.4673
14.4653
14.4596
14.4526
14.4476
14.4452
14.4413
14.4347
14.4265
14.4222
14.4208
14.4199
14.413
14.4045
14.3973
14.3965
14.3976
14.3982
14.3917
14.3824
14.3722
14.3679
14.3689
14.3751
14.3796
14.3815
14.376
14.3659
14.3511
14.3362
14.3221
14.3108
14.3021
14.2962
14.2923
14.2899
14.2885
14.2877
14.2873
14.2871
14.287
14.2869
14.2869
14.2869
14.2869
14.287
14.2871
14.2872
14.2873
14.2875
14.2876
14.2878
14.2879
14.2881
14.2881
14.2881
14.2881
14.288
14.288
14.288
14.288
14.288
14.288
14.288
14.288
14.2879
14.2879
14.2879
14.2879
14.2878
14.2878
14.2877
14.2877
14.2877
14.2877
14.2876
14.2876
14.2875
14.2875
14.2876
14.2875
14.2879
14.2879
14.2888
14.2888
14.2907
14.2785
13.7564
14.4027
14.4121
14.4089
14.4086
14.4038
14.3987
14.3945
14.394
14.3908
14.386
14.3787
14.3758
14.3753
14.3758
14.3695
14.3621
14.3556
14.3558
14.3574
14.3587
14.3525
14.3437
14.3338
14.33
14.3312
14.3376
14.3422
14.344
14.3383
14.3279
14.3129
14.2978
14.2834
14.272
14.2633
14.2574
14.2534
14.251
14.2496
14.2488
14.2484
14.2482
14.2481
14.248
14.248
14.248
14.248
14.2481
14.2482
14.2483
14.2484
14.2486
14.2487
14.2489
14.249
14.2492
14.2492
14.2492
14.2492
14.2491
14.2491
14.2491
14.2491
14.2492
14.2492
14.2491
14.2491
14.249
14.249
14.249
14.249
14.2489
14.2489
14.2488
14.2488
14.2488
14.2488
14.2487
14.2487
14.2486
14.2486
14.2486
14.2486
14.2488
14.2488
14.2495
14.2495
14.251
14.2595
13.6793
14.3468
14.3584
14.3555
14.3553
14.3503
14.3452
14.3407
14.3399
14.3366
14.3317
14.3242
14.3212
14.3207
14.321
14.3148
14.3074
14.3009
14.3009
14.3026
14.3038
14.2977
14.289
14.2792
14.2754
14.2767
14.2831
14.2877
14.2898
14.2843
14.2742
14.2595
14.2446
14.2304
14.2192
14.2105
14.2046
14.2007
14.1984
14.1969
14.1962
14.1957
14.1955
14.1954
14.1954
14.1954
14.1954
14.1954
14.1954
14.1955
14.1956
14.1957
14.1959
14.1961
14.1963
14.1964
14.1965
14.1966
14.1966
14.1965
14.1965
14.1964
14.1965
14.1965
14.1965
14.1965
14.1965
14.1964
14.1964
14.1963
14.1963
14.1963
14.1963
14.1962
14.1962
14.1962
14.1961
14.1961
14.196
14.196
14.196
14.196
14.196
14.196
14.1964
14.1964
14.1974
14.1974
14.1992
14.1919
13.7158
14.3732
14.3839
14.3806
14.3803
14.3756
14.3705
14.3664
14.3658
14.3627
14.3578
14.3505
14.3476
14.3472
14.3476
14.3413
14.3339
14.3274
14.3275
14.3291
14.3304
14.3243
14.3155
14.3057
14.3018
14.3031
14.3094
14.3141
14.316
14.3104
14.3003
14.2854
14.2704
14.2561
14.2448
14.236
14.2301
14.2261
14.2237
14.2223
14.2215
14.2211
14.2208
14.2207
14.2207
14.2207
14.2207
14.2207
14.2208
14.2208
14.221
14.2211
14.2212
14.2214
14.2216
14.2217
14.2219
14.2219
14.2219
14.2219
14.2218
14.2218
14.2218
14.2218
14.2219
14.2219
14.2218
14.2218
14.2217
14.2217
14.2217
14.2217
14.2216
14.2216
14.2215
14.2215
14.2215
14.2214
14.2214
14.2213
14.2213
14.2213
14.2213
14.2213
14.2215
14.2215
14.2221
14.2221
14.2233
14.224
13.7157
14.3727
14.3836
14.3803
14.38
14.3753
14.3702
14.3661
14.3655
14.3624
14.3576
14.3502
14.3474
14.3469
14.3473
14.341
14.3336
14.3271
14.3272
14.3289
14.3301
14.324
14.3153
14.3054
14.3016
14.3028
14.3092
14.3138
14.3157
14.3102
14.3
14.2851
14.2701
14.2559
14.2445
14.2358
14.2298
14.2259
14.2235
14.222
14.2213
14.2208
14.2206
14.2205
14.2205
14.2204
14.2205
14.2205
14.2205
14.2206
14.2207
14.2208
14.221
14.2212
14.2214
14.2215
14.2216
14.2217
14.2217
14.2216
14.2216
14.2216
14.2216
14.2216
14.2216
14.2216
14.2216
14.2215
14.2215
14.2214
14.2214
14.2214
14.2214
14.2213
14.2213
14.2213
14.2212
14.2212
14.2211
14.2211
14.2211
14.221
14.221
14.221
14.2212
14.2212
14.2219
14.2219
14.223
14.2237
13.6796
14.3473
14.3588
14.3558
14.3556
14.3505
14.3454
14.3409
14.3402
14.3368
14.3319
14.3244
14.3214
14.3209
14.3212
14.315
14.3076
14.3011
14.3011
14.3028
14.304
14.298
14.2892
14.2794
14.2756
14.2769
14.2833
14.288
14.29
14.2845
14.2745
14.2597
14.2449
14.2307
14.2194
14.2108
14.2049
14.201
14.1986
14.1972
14.1964
14.196
14.1958
14.1957
14.1956
14.1956
14.1956
14.1956
14.1957
14.1958
14.1959
14.196
14.1962
14.1963
14.1965
14.1966
14.1968
14.1968
14.1968
14.1968
14.1967
14.1967
14.1967
14.1967
14.1968
14.1968
14.1967
14.1967
14.1966
14.1966
14.1966
14.1966
14.1965
14.1965
14.1964
14.1964
14.1964
14.1964
14.1963
14.1963
14.1962
14.1962
14.1963
14.1963
14.1966
14.1966
14.1977
14.1977
14.1995
14.1921
13.7555
14.4014
14.4113
14.4082
14.4078
14.4031
14.398
14.3939
14.3933
14.3902
14.3854
14.3781
14.3752
14.3748
14.3752
14.3689
14.3616
14.3551
14.3552
14.3568
14.3581
14.3519
14.3431
14.3333
14.3294
14.3307
14.337
14.3416
14.3434
14.3377
14.3273
14.3123
14.2972
14.2829
14.2715
14.2627
14.2568
14.2528
14.2504
14.249
14.2482
14.2478
14.2476
14.2475
14.2474
14.2474
14.2474
14.2474
14.2475
14.2476
14.2477
14.2478
14.248
14.2481
14.2483
14.2485
14.2486
14.2486
14.2486
14.2486
14.2486
14.2485
14.2485
14.2485
14.2486
14.2486
14.2485
14.2485
14.2484
14.2484
14.2484
14.2484
14.2483
14.2483
14.2482
14.2482
14.2482
14.2482
14.2481
14.2481
14.248
14.248
14.248
14.248
14.2482
14.2482
14.2489
14.2489
14.25
14.2584
13.7844
14.4541
14.4632
14.4598
14.458
14.4525
14.4457
14.441
14.4388
14.4352
14.4287
14.4208
14.4167
14.4156
14.4148
14.408
14.3997
14.3927
14.392
14.3932
14.394
14.3875
14.3782
14.3681
14.3639
14.3649
14.3711
14.3757
14.3776
14.3721
14.362
14.3472
14.3323
14.3181
14.3069
14.2982
14.2923
14.2884
14.2861
14.2846
14.2839
14.2834
14.2832
14.2831
14.2831
14.2831
14.2831
14.2831
14.2831
14.2832
14.2833
14.2834
14.2836
14.2838
14.284
14.2841
14.2842
14.2843
14.2843
14.2842
14.2842
14.2841
14.2841
14.2841
14.2842
14.2842
14.2841
14.2841
14.284
14.284
14.284
14.284
14.284
14.2839
14.2839
14.2838
14.2838
14.2838
14.2837
14.2837
14.2837
14.2836
14.2837
14.2837
14.284
14.284
14.2849
14.2849
14.2872
14.2749
15.7846
16.4119
16.3805
16.3812
16.3565
16.3532
16.3256
16.3213
16.3002
16.2955
16.2714
16.2607
16.24
16.2347
16.2189
16.2068
16.1844
16.1711
16.1577
16.152
16.1416
16.1281
16.1088
16.0917
16.0787
16.0732
16.0724
16.0722
16.0697
16.0608
16.0481
16.0317
16.0156
16.0006
15.9887
15.9796
15.9735
15.9694
15.9669
15.9654
15.9645
15.9641
15.9639
15.9637
15.9637
15.9637
15.9637
15.9637
15.9638
15.9638
15.964
15.9641
15.9643
15.9644
15.9646
15.9647
15.9648
15.9649
15.9648
15.9648
15.9647
15.9647
15.9646
15.9647
15.9647
15.9647
15.9646
15.9646
15.9645
15.9645
15.9645
15.9645
15.9644
15.9644
15.9643
15.9643
15.9643
15.9643
15.9642
15.9642
15.9641
15.9641
15.9641
15.964
15.964
15.964
15.964
15.964
15.9677
15.9818
24.0417
24.8915
24.8096
24.8619
24.7724
24.8065
24.7226
24.7676
24.6962
24.7231
24.6405
24.6661
24.6088
24.6398
24.567
24.5603
24.4883
24.5024
24.4581
24.4612
24.3811
24.3328
24.2472
24.2222
24.1802
24.1736
24.1161
24.0432
23.9057
23.7575
23.6036
23.4819
23.3928
23.3363
23.3023
23.2827
23.2715
23.2652
23.2616
23.2596
23.2585
23.2579
23.2576
23.2575
23.2574
23.2574
23.2574
23.2575
23.2575
23.2576
23.2578
23.2579
23.2581
23.2583
23.2585
23.2587
23.2588
23.2589
23.2588
23.2587
23.2586
23.2585
23.2585
23.2585
23.2585
23.2584
23.2583
23.2582
23.2581
23.2581
23.2581
23.258
23.258
23.2579
23.2578
23.2578
23.2578
23.2577
23.2576
23.2575
23.2573
23.2573
23.2567
23.2566
23.2555
23.2554
23.2532
23.2531
23.2472
23.2198
1.02899