/*--------------------------------*- C++ -*----------------------------------*\
  =========                 |
  \\      /  F ield         | OpenFOAM: The Open Source CFD Toolbox
   \\    /   O peration     | Website:  https://openfoam.org
    \\  /    A nd           | Version:  7
     \\/     M anipulation  |
\*---------------------------------------------------------------------------*/
FoamFile
{
    version     2.0;
    format      ascii;
    class       volScalarField;
    location    "2.2";
    object      k_0;
}
// * * * * * * * * * * * * * * * * * * * * * * * * * * * * * * * * * * * * * //

dimensions      [0 2 -2 0 0 0 0];

internalField   nonuniform List<scalar> 
4950
(
32.6418
37.0497
37.21
37.275
37.2348
37.2561
37.2133
37.2221
37.1848
37.1916
37.1619
37.169
37.1458
37.1528
37.1357
37.14
37.1345
37.1236
37.1686
37.3552
9.02824
10.2489
10.1121
9.73998
9.46416
9.32789
9.23136
9.18847
9.14289
9.12361
9.09476
9.08346
9.06286
9.05552
9.0411
9.03512
9.03697
9.01463
9.19378
9.24198
5.70465
7.00401
7.30831
7.38534
7.39639
7.41678
7.42018
7.43264
7.43444
7.44315
7.44345
7.44922
7.44869
7.45288
7.45177
7.45526
7.45405
7.45575
7.46141
7.49063
5.45444
6.72081
7.07207
7.21391
7.27825
7.33662
7.36833
7.40722
7.42752
7.45663
7.47068
7.49357
7.5037
7.52219
7.52975
7.54447
7.55116
7.56062
7.56801
7.59582
5.41813
6.69283
7.04565
7.19328
7.26065
7.32366
7.35845
7.40234
7.4263
7.46081
7.47902
7.50732
7.52167
7.54517
7.55675
7.57599
7.5862
7.60061
7.60941
7.64055
5.45444
6.72081
7.07207
7.21391
7.27825
7.33662
7.36832
7.40723
7.4275
7.45666
7.47064
7.49363
7.50363
7.52229
7.52966
7.54461
7.551
7.5608
7.56804
7.59602
5.70465
7.00401
7.30831
7.38535
7.39638
7.41678
7.42018
7.43265
7.43443
7.44317
7.44343
7.44927
7.4486
7.45301
7.45159
7.45557
7.45365
7.45625
7.46103
7.49145
9.02824
10.2489
10.1121
9.73998
9.46416
9.3279
9.23135
9.18848
9.14286
9.12365
9.09468
9.08355
9.06266
9.05562
9.04068
9.0355
9.03583
9.01635
9.18896
9.24477
32.6418
37.0497
37.21
37.275
37.2347
37.2561
37.2133
37.2221
37.1847
37.1917
37.1618
37.1692
37.1455
37.1534
37.1347
37.1418
37.1313
37.1294
37.1581
37.3777
5.04427
7.29391
7.61272
7.55873
7.51748
7.44824
7.43249
7.39163
7.38523
7.35816
7.35506
7.33536
7.33388
7.31847
7.31846
7.30458
7.30775
7.28983
7.28905
7.34746
3.75036
6.01832
6.5248
6.63188
6.65772
6.6693
6.67601
6.68232
6.68584
6.6896
6.69142
6.69373
6.69466
6.69631
6.69663
6.69811
6.69758
6.69804
6.70338
6.71953
3.56642
5.76425
6.27371
6.39764
6.42305
6.43639
6.43968
6.44734
6.45065
6.45783
6.46122
6.46763
6.47107
6.47633
6.47997
6.48388
6.48765
6.49003
6.49106
6.5197
3.57407
5.76969
6.27391
6.39666
6.42171
6.4324
6.43265
6.43511
6.43495
6.43683
6.43704
6.43894
6.43948
6.44146
6.44227
6.4442
6.4455
6.44701
6.44908
6.47071
3.55755
5.74583
6.2524
6.37767
6.40275
6.41399
6.41364
6.4158
6.41478
6.41623
6.41544
6.41665
6.41618
6.41729
6.41709
6.41821
6.41815
6.41914
6.41892
6.43776
3.57407
5.76969
6.27391
6.39666
6.4217
6.4324
6.43265
6.43511
6.43494
6.43684
6.43703
6.43896
6.43945
6.44149
6.44222
6.44428
6.44529
6.44711
6.44897
6.47065
3.56642
5.76425
6.27371
6.39764
6.42305
6.43639
6.43967
6.44734
6.45064
6.45786
6.46115
6.46773
6.47091
6.47656
6.4796
6.48438
6.48692
6.4908
6.49051
6.51992
3.75036
6.01832
6.5248
6.63188
6.65771
6.66931
6.676
6.68234
6.68581
6.68964
6.69137
6.69381
6.69456
6.69647
6.69644
6.69842
6.69681
6.69905
6.70176
6.72196
5.04427
7.29391
7.61272
7.55873
7.51748
7.44824
7.43249
7.39164
7.38523
7.35818
7.35505
7.33539
7.33385
7.31857
7.31839
7.30484
7.30746
7.29089
7.28756
7.35115
0.288486
0.963358
1.21446
1.25615
1.23606
1.19219
1.14894
1.11366
1.08608
1.06341
1.0469
1.0318
1.0217
1.01077
1.00431
0.996095
0.991027
0.986535
0.977089
0.991465
0.063309
0.361048
0.579662
0.684896
0.729456
0.752087
0.763352
0.773244
0.780249
0.787583
0.792877
0.798247
0.801887
0.80563
0.808094
0.810513
0.812658
0.813504
0.8153
0.820218
0.0541182
0.305463
0.486193
0.583991
0.622816
0.645089
0.651553
0.658587
0.660429
0.664531
0.666246
0.669944
0.67195
0.675454
0.677789
0.680924
0.683301
0.686263
0.68776
0.693442
0.0556724
0.313414
0.495535
0.590619
0.628944
0.649112
0.655285
0.660021
0.660702
0.662121
0.662263
0.662812
0.663006
0.663453
0.663918
0.664265
0.665039
0.665374
0.666206
0.669971
0.0539167
0.304439
0.482015
0.578085
0.615565
0.637003
0.64247
0.647853
0.648198
0.649474
0.649236
0.649642
0.649399
0.649629
0.649484
0.649631
0.649527
0.649657
0.649268
0.652158
0.0556724
0.313415
0.495535
0.590619
0.628943
0.649112
0.655285
0.660021
0.660702
0.662121
0.662263
0.662813
0.663006
0.663455
0.663915
0.664263
0.665028
0.665364
0.666193
0.669945
0.0541181
0.305464
0.486192
0.583992
0.622816
0.64509
0.651552
0.658588
0.660429
0.664533
0.666244
0.669955
0.671923
0.675481
0.677743
0.680957
0.683244
0.686253
0.687724
0.693356
0.063309
0.361048
0.579662
0.684896
0.729455
0.752089
0.763349
0.773248
0.780242
0.787592
0.79286
0.798265
0.801854
0.805666
0.808026
0.810571
0.812537
0.813505
0.815218
0.820133
0.288486
0.963358
1.21446
1.25615
1.23606
1.19219
1.14894
1.11367
1.08608
1.06342
1.0469
1.03183
1.02169
1.01083
1.00431
0.996243
0.991011
0.986828
0.977137
0.992231
5.04427
7.29391
7.61272
7.55873
7.51748
7.44824
7.43249
7.39163
7.38523
7.35816
7.35506
7.33536
7.33388
7.31847
7.31846
7.30458
7.30775
7.28983
7.28905
7.34746
3.75036
6.01832
6.5248
6.63188
6.65772
6.6693
6.67601
6.68232
6.68584
6.6896
6.69142
6.69373
6.69466
6.69631
6.69663
6.69811
6.69758
6.69804
6.70338
6.71953
3.56642
5.76425
6.27371
6.39764
6.42305
6.43639
6.43968
6.44734
6.45065
6.45783
6.46122
6.46763
6.47107
6.47633
6.47997
6.48388
6.48765
6.49003
6.49106
6.5197
3.57407
5.76969
6.27391
6.39666
6.42171
6.4324
6.43265
6.43511
6.43495
6.43683
6.43704
6.43894
6.43948
6.44146
6.44227
6.4442
6.4455
6.44701
6.44908
6.47071
3.55755
5.74583
6.2524
6.37767
6.40275
6.41399
6.41364
6.4158
6.41478
6.41623
6.41544
6.41665
6.41618
6.41729
6.41709
6.41821
6.41815
6.41914
6.41892
6.43776
3.57407
5.76969
6.27391
6.39666
6.4217
6.4324
6.43265
6.43511
6.43494
6.43684
6.43703
6.43896
6.43945
6.44149
6.44222
6.44428
6.44529
6.44711
6.44897
6.47065
3.56642
5.76425
6.27371
6.39764
6.42305
6.43639
6.43967
6.44734
6.45064
6.45786
6.46115
6.46773
6.47091
6.47656
6.4796
6.48438
6.48692
6.4908
6.49051
6.51992
3.75036
6.01832
6.5248
6.63188
6.65771
6.66931
6.676
6.68234
6.68581
6.68964
6.69137
6.69381
6.69456
6.69647
6.69644
6.69842
6.69681
6.69905
6.70176
6.72196
5.04427
7.29391
7.61272
7.55873
7.51748
7.44824
7.43249
7.39164
7.38523
7.35818
7.35505
7.33539
7.33385
7.31857
7.31839
7.30484
7.30746
7.29089
7.28756
7.35115
32.6418
37.0497
37.21
37.275
37.2348
37.2561
37.2133
37.2221
37.1848
37.1916
37.1619
37.169
37.1458
37.1528
37.1357
37.14
37.1345
37.1236
37.1686
37.3552
9.02824
10.2489
10.1121
9.73998
9.46416
9.32789
9.23136
9.18847
9.14289
9.12361
9.09476
9.08346
9.06286
9.05552
9.0411
9.03512
9.03697
9.01463
9.19378
9.24198
5.70465
7.00401
7.30831
7.38534
7.39639
7.41678
7.42018
7.43264
7.43444
7.44315
7.44345
7.44922
7.44869
7.45288
7.45177
7.45526
7.45405
7.45575
7.46141
7.49063
5.45444
6.72081
7.07207
7.21391
7.27825
7.33662
7.36833
7.40722
7.42752
7.45663
7.47068
7.49357
7.5037
7.52219
7.52975
7.54447
7.55116
7.56062
7.56801
7.59582
5.41813
6.69283
7.04565
7.19328
7.26065
7.32366
7.35845
7.40234
7.4263
7.46081
7.47902
7.50732
7.52167
7.54517
7.55675
7.57599
7.5862
7.60061
7.60941
7.64055
5.45444
6.72081
7.07207
7.21391
7.27825
7.33662
7.36832
7.40723
7.4275
7.45666
7.47064
7.49363
7.50363
7.52228
7.52966
7.54461
7.551
7.5608
7.56804
7.59602
5.70465
7.00401
7.30831
7.38535
7.39638
7.41678
7.42018
7.43265
7.43443
7.44317
7.44343
7.44927
7.4486
7.45301
7.45159
7.45557
7.45365
7.45625
7.46103
7.49145
9.02824
10.2489
10.1121
9.73998
9.46416
9.3279
9.23135
9.18848
9.14286
9.12365
9.09468
9.08355
9.06266
9.05562
9.04068
9.0355
9.03583
9.01635
9.18896
9.24477
32.6418
37.0497
37.21
37.275
37.2347
37.2561
37.2133
37.2221
37.1847
37.1917
37.1618
37.1692
37.1455
37.1534
37.1347
37.1418
37.1313
37.1294
37.1581
37.3777
96.2357
97.8593
98.4509
98.9521
99.3189
99.6962
99.9878
100.296
100.546
100.816
101.043
101.286
101.491
101.708
101.895
102.094
102.267
102.449
102.606
102.77
102.911
103.057
103.181
103.308
103.412
103.517
103.601
103.683
103.746
103.808
103.851
103.894
103.92
103.947
103.961
103.976
103.981
103.989
103.99
103.995
103.993
103.996
103.994
103.996
103.994
103.996
103.994
103.996
103.993
103.995
103.993
103.995
103.993
103.995
103.993
103.995
103.993
103.995
103.993
103.995
103.993
103.995
103.993
103.995
103.993
103.995
103.994
103.995
103.994
103.995
103.994
103.995
103.994
103.995
103.994
103.995
103.994
103.995
103.994
103.995
103.994
103.994
103.993
103.994
103.992
103.993
103.99
103.991
103.957
103.935
32.7339
34.8037
35.0354
35.2275
35.3305
35.4766
35.5581
35.6791
35.7493
35.8559
35.9203
36.0162
36.0747
36.1607
36.2143
36.293
36.343
36.4152
36.4607
36.5258
36.5665
36.6247
36.6602
36.7112
36.7405
36.7834
36.806
36.8406
36.8565
36.8835
36.8932
36.9132
36.9176
36.9315
36.932
36.9414
36.9394
36.9461
36.9428
36.9481
36.9444
36.9489
36.9452
36.9493
36.9458
36.9496
36.9464
36.9499
36.947
36.9503
36.9477
36.9508
36.9484
36.9514
36.9491
36.9519
36.9499
36.9526
36.9508
36.9533
36.9516
36.9541
36.9526
36.9549
36.9535
36.9557
36.9545
36.9566
36.9555
36.9575
36.9565
36.9584
36.9576
36.9594
36.9586
36.9603
36.9597
36.9613
36.9607
36.9622
36.9616
36.963
36.9624
36.9637
36.963
36.9642
36.9632
36.9654
36.952
36.9485
23.0717
25.5861
25.8006
25.9421
25.9884
26.0973
26.1365
26.229
26.2627
26.3446
26.3767
26.4521
26.4821
26.5504
26.5779
26.6405
26.6665
26.7245
26.7486
26.8015
26.823
26.8707
26.8896
26.9322
26.9479
26.9848
26.9967
27.0275
27.0356
27.0605
27.065
27.0846
27.0858
27.1005
27.0991
27.1102
27.107
27.1156
27.1115
27.1187
27.1142
27.1206
27.1162
27.1221
27.1181
27.1235
27.1198
27.125
27.1217
27.1266
27.1236
27.1282
27.1255
27.1299
27.1275
27.1317
27.1295
27.1335
27.1316
27.1354
27.1337
27.1374
27.1359
27.1394
27.1381
27.1415
27.1403
27.1436
27.1426
27.1457
27.1449
27.1479
27.1473
27.1501
27.1496
27.1523
27.1519
27.1545
27.1542
27.1567
27.1564
27.1588
27.1585
27.1608
27.1605
27.1626
27.1624
27.1639
27.1651
27.1449
22.0168
25.0042
25.2849
25.4182
25.4427
25.5352
25.5601
25.6419
25.6637
25.737
25.7594
25.8289
25.8511
25.915
25.9353
25.9938
26.0135
26.0684
26.0871
26.1377
26.1545
26.2003
26.2153
26.2569
26.2698
26.3065
26.3165
26.3478
26.3547
26.3808
26.3847
26.4059
26.4071
26.4236
26.4224
26.4351
26.432
26.4422
26.4379
26.4464
26.4419
26.4494
26.4449
26.4518
26.4477
26.4542
26.4504
26.4565
26.4532
26.459
26.456
26.4615
26.4588
26.4641
26.4618
26.4668
26.4647
26.4696
26.4678
26.4724
26.4709
26.4753
26.474
26.4783
26.4772
26.4813
26.4804
26.4843
26.4836
26.4874
26.4869
26.4906
26.4902
26.4937
26.4935
26.4969
26.4967
26.5
26.5
26.5031
26.5032
26.5062
26.5063
26.5092
26.5094
26.5121
26.5124
26.5143
26.5164
26.4973
22.0027
25.0366
25.3145
25.433
25.4385
25.5133
25.5253
25.5947
25.6062
25.6696
25.6837
25.7454
25.7609
25.8184
25.8328
25.8855
25.8999
25.9497
25.9639
26.0102
26.023
26.065
26.0765
26.1151
26.1252
26.1598
26.1677
26.1975
26.203
26.2282
26.2313
26.2523
26.2531
26.2698
26.2685
26.2817
26.2786
26.2892
26.285
26.2939
26.2894
26.2973
26.2929
26.3001
26.296
26.3028
26.2991
26.3055
26.3022
26.3083
26.3054
26.3112
26.3086
26.3142
26.3119
26.3173
26.3153
26.3204
26.3187
26.3236
26.3221
26.3269
26.3256
26.3302
26.3292
26.3336
26.3328
26.337
26.3364
26.3404
26.34
26.3439
26.3437
26.3475
26.3473
26.351
26.351
26.3545
26.3546
26.3579
26.3581
26.3614
26.3616
26.3647
26.365
26.3679
26.3684
26.3702
26.376
26.3534
22.0164
24.9731
25.2121
25.3027
25.2929
25.3499
25.3502
25.4044
25.4073
25.4584
25.4651
25.516
25.5249
25.5727
25.5812
25.6253
25.6343
25.6763
25.6855
25.7245
25.7329
25.7685
25.7761
25.8089
25.8156
25.8453
25.8504
25.8762
25.8795
25.9016
25.9032
25.9218
25.9216
25.9366
25.9347
25.9469
25.9435
25.9533
25.9491
25.9574
25.9529
25.9604
25.956
25.9629
25.9588
25.9653
25.9616
25.9677
25.9644
25.9702
25.9673
25.9728
25.9702
25.9755
25.9732
25.9782
25.9762
25.981
25.9793
25.9839
25.9824
25.9868
25.9856
25.9898
25.9888
25.9929
25.992
25.996
25.9953
25.9991
25.9986
26.0023
26.002
26.0055
26.0053
26.0087
26.0086
26.0119
26.0119
26.015
26.0151
26.0181
26.0183
26.0212
26.0214
26.0241
26.0245
26.0262
26.0289
26.0106
23.0441
25.4592
25.5779
25.6333
25.6123
25.6544
25.6449
25.6857
25.6805
25.7195
25.719
25.7576
25.7596
25.7956
25.798
25.8313
25.8346
25.8664
25.8702
25.8996
25.903
25.9299
25.9331
25.958
25.9608
25.9833
25.985
26.0047
26.0053
26.0223
26.0218
26.0363
26.0346
26.0466
26.0438
26.0536
26.0497
26.0578
26.0535
26.0605
26.0561
26.0624
26.0581
26.0639
26.06
26.0655
26.0619
26.0671
26.0639
26.0687
26.0658
26.0705
26.0678
26.0723
26.0699
26.0741
26.072
26.076
26.0742
26.078
26.0764
26.0801
26.0786
26.0822
26.0809
26.0843
26.0832
26.0865
26.0856
26.0887
26.0879
26.0909
26.0903
26.0932
26.0927
26.0954
26.0951
26.0977
26.0974
26.0999
26.0997
26.1021
26.1019
26.1041
26.104
26.1061
26.1061
26.1072
26.1097
26.0905
32.5594
34.3676
34.4062
34.4414
34.419
34.4509
34.4389
34.4693
34.4618
34.491
34.488
34.5165
34.5157
34.5418
34.5416
34.5657
34.5667
34.5895
34.5909
34.6118
34.613
34.6321
34.6334
34.651
34.652
34.6678
34.6682
34.682
34.6816
34.6935
34.6924
34.7025
34.7005
34.709
34.7061
34.713
34.7095
34.7152
34.7114
34.7163
34.7125
34.7169
34.7133
34.7173
34.714
34.7177
34.7147
34.7182
34.7154
34.7187
34.7161
34.7193
34.7169
34.7199
34.7177
34.7206
34.7186
34.7213
34.7195
34.7221
34.7205
34.7229
34.7214
34.7237
34.7224
34.7246
34.7235
34.7256
34.7245
34.7265
34.7256
34.7275
34.7267
34.7285
34.7278
34.7295
34.7289
34.7305
34.7299
34.7314
34.7309
34.7323
34.7319
34.7331
34.7326
34.7337
34.733
34.7349
34.7233
34.7206
95.3966
96.1997
96.2203
96.2583
96.2449
96.2857
96.2863
96.325
96.3305
96.3675
96.3784
96.4152
96.4286
96.4621
96.4751
96.5057
96.5191
96.5482
96.5616
96.5881
96.6002
96.6241
96.6353
96.6572
96.6674
96.6869
96.6953
96.7119
96.7182
96.7321
96.7366
96.7479
96.7505
96.7592
96.7598
96.7661
96.7651
96.7696
96.7677
96.7711
96.7687
96.7715
96.769
96.7715
96.7691
96.7714
96.7692
96.7712
96.7692
96.7711
96.7693
96.7711
96.7693
96.771
96.7694
96.7711
96.7696
96.7711
96.7697
96.7711
96.7699
96.7712
96.7701
96.7713
96.7703
96.7715
96.7705
96.7716
96.7707
96.7718
96.7709
96.7719
96.7711
96.7721
96.7713
96.7722
96.7715
96.7722
96.7716
96.7722
96.7715
96.7721
96.7713
96.7717
96.7708
96.771
96.7697
96.7703
96.7404
96.7196
23.0226
23.8613
24.0237
24.1392
24.2332
24.3219
24.3935
24.4686
24.5282
24.596
24.6483
24.71
24.7559
24.812
24.8533
24.9052
24.9429
24.9907
25.0244
25.0676
25.0974
25.1361
25.1617
25.1954
25.2163
25.2445
25.2603
25.2829
25.2939
25.3112
25.3178
25.3304
25.3333
25.3419
25.342
25.3478
25.3463
25.3504
25.3481
25.3513
25.3488
25.3515
25.349
25.3515
25.3491
25.3515
25.3493
25.3514
25.3494
25.3514
25.3496
25.3515
25.3497
25.3516
25.35
25.3517
25.3502
25.3519
25.3505
25.3521
25.3508
25.3523
25.3512
25.3526
25.3516
25.3529
25.352
25.3533
25.3525
25.3537
25.353
25.3542
25.3536
25.3548
25.3542
25.3554
25.3549
25.3561
25.3557
25.3569
25.3566
25.3579
25.3577
25.3591
25.359
25.3607
25.3605
25.3638
25.3586
25.3618
20.9653
22.5976
22.797
22.9116
22.9996
23.0861
23.1552
23.2271
23.2855
23.3494
23.4016
23.4594
23.506
23.5582
23.6003
23.6483
23.687
23.7311
23.7661
23.806
23.837
23.8727
23.8998
23.9309
23.9536
23.9795
23.9974
24.0182
24.0313
24.0472
24.056
24.0675
24.0725
24.0802
24.0824
24.0872
24.0876
24.0907
24.0903
24.0924
24.0916
24.0934
24.0924
24.094
24.093
24.0945
24.0936
24.095
24.0942
24.0955
24.0948
24.096
24.0954
24.0966
24.096
24.0971
24.0966
24.0977
24.0973
24.0983
24.0979
24.0989
24.0986
24.0995
24.0993
24.1002
24.1
24.1009
24.1007
24.1015
24.1014
24.1022
24.1021
24.103
24.1029
24.1037
24.1037
24.1045
24.1045
24.1053
24.1053
24.1062
24.1062
24.1071
24.107
24.1082
24.108
24.1089
24.1102
24.11
19.0253
21.2528
21.517
21.6226
21.6985
21.7729
21.8351
21.8972
21.9503
22.0055
22.0542
22.105
22.1494
22.1954
22.2355
22.2776
22.3147
22.3538
22.3879
22.4233
22.4538
22.4856
22.5127
22.5408
22.5641
22.5879
22.6069
22.6261
22.6408
22.6556
22.6663
22.6771
22.6842
22.6914
22.6954
22.6999
22.7017
22.7044
22.705
22.7066
22.7067
22.7078
22.7077
22.7085
22.7084
22.7092
22.7091
22.7098
22.7097
22.7104
22.7103
22.711
22.7109
22.7116
22.7116
22.7122
22.7122
22.7128
22.7128
22.7134
22.7135
22.7141
22.7141
22.7147
22.7148
22.7153
22.7154
22.7159
22.716
22.7166
22.7167
22.7172
22.7173
22.7179
22.718
22.7185
22.7186
22.7192
22.7193
22.7198
22.7199
22.7205
22.7205
22.7211
22.721
22.7217
22.7215
22.7222
22.7231
22.7082
18.4976
20.8871
21.1606
21.2436
21.3001
21.3596
21.411
21.4633
21.5086
21.5558
21.5987
21.6438
21.684
21.7252
21.7615
21.7991
21.833
21.8684
21.8999
21.9322
21.9606
21.9896
22.0151
22.0411
22.0635
22.086
22.1047
22.1231
22.138
22.1525
22.1637
22.1746
22.1824
22.1899
22.1947
22.1993
22.2018
22.2044
22.2054
22.207
22.2073
22.2082
22.2082
22.2088
22.2088
22.2093
22.2093
22.2098
22.2098
22.2103
22.2102
22.2107
22.2107
22.2112
22.2112
22.2116
22.2116
22.2121
22.2121
22.2125
22.2126
22.213
22.2131
22.2135
22.2135
22.2139
22.214
22.2144
22.2145
22.2149
22.2149
22.2153
22.2154
22.2158
22.2159
22.2163
22.2163
22.2167
22.2168
22.2172
22.2172
22.2176
22.2177
22.218
22.218
22.2184
22.2182
22.2187
22.218
22.2069
18.1623
20.6692
20.9406
21.0019
21.0384
21.0811
21.1192
21.1597
21.1948
21.2326
21.2673
21.3049
21.3385
21.3733
21.4037
21.4356
21.4642
21.4946
21.5215
21.5494
21.5737
21.5988
21.6207
21.6436
21.6632
21.6832
21.6998
21.7164
21.7297
21.743
21.7534
21.7636
21.771
21.7782
21.7828
21.7874
21.7899
21.7925
21.7935
21.795
21.7953
21.7962
21.7962
21.7968
21.7968
21.7973
21.7972
21.7977
21.7976
21.798
21.798
21.7984
21.7984
21.7988
21.7988
21.7992
21.7992
21.7996
21.7996
21.8
21.8
21.8004
21.8004
21.8008
21.8008
21.8012
21.8012
21.8016
21.8016
21.802
21.802
21.8024
21.8024
21.8028
21.8029
21.8032
21.8033
21.8036
21.8037
21.804
21.804
21.8044
21.8044
21.8047
21.8047
21.805
21.8049
21.805
21.806
21.7901
18.4961
20.8553
21.0893
21.1342
21.1569
21.1867
21.213
21.2427
21.2681
21.297
21.3234
21.3531
21.3793
21.407
21.4309
21.4565
21.4791
21.5037
21.5252
21.5479
21.5672
21.5877
21.6053
21.624
21.6399
21.6564
21.6699
21.6838
21.6947
21.706
21.7145
21.7233
21.7295
21.7358
21.7398
21.7439
21.746
21.7484
21.7493
21.7507
21.751
21.7519
21.7519
21.7526
21.7525
21.7531
21.7531
21.7536
21.7536
21.7541
21.7541
21.7545
21.7545
21.755
21.755
21.7555
21.7555
21.756
21.756
21.7565
21.7565
21.7569
21.757
21.7574
21.7575
21.7579
21.758
21.7584
21.7585
21.7589
21.759
21.7594
21.7595
21.7599
21.76
21.7604
21.7605
21.7609
21.7609
21.7613
21.7614
21.7618
21.7619
21.7623
21.7623
21.7626
21.7626
21.7628
21.7626
21.7522
19.005
21.1474
21.3278
21.3584
21.3719
21.3921
21.4082
21.4284
21.4445
21.465
21.4825
21.5039
21.5214
21.5414
21.5573
21.576
21.5913
21.6093
21.6238
21.6404
21.6534
21.6685
21.6803
21.6942
21.7049
21.7172
21.7262
21.7366
21.7439
21.7525
21.7582
21.765
21.7691
21.7741
21.7766
21.78
21.7812
21.7834
21.7838
21.7852
21.7853
21.7863
21.7863
21.7871
21.787
21.7878
21.7877
21.7885
21.7884
21.7891
21.7891
21.7898
21.7898
21.7904
21.7904
21.7911
21.7911
21.7918
21.7918
21.7924
21.7925
21.7931
21.7932
21.7937
21.7938
21.7944
21.7945
21.7951
21.7952
21.7957
21.7959
21.7964
21.7966
21.7971
21.7972
21.7978
21.7979
21.7985
21.7986
21.7992
21.7993
21.7998
21.7999
21.8005
21.8005
21.8011
21.8011
21.8016
21.8032
21.7895
20.8694
22.3367
22.4109
22.4238
22.4287
22.4426
22.4495
22.464
22.4709
22.4861
22.4939
22.5096
22.5171
22.5318
22.5385
22.5523
22.5588
22.5721
22.5781
22.5903
22.5956
22.6068
22.6116
22.6219
22.6261
22.6352
22.6386
22.6465
22.649
22.6557
22.6574
22.6629
22.6638
22.6681
22.6683
22.6715
22.671
22.6735
22.6727
22.6747
22.6738
22.6755
22.6745
22.6761
22.6752
22.6767
22.6759
22.6773
22.6765
22.6779
22.6772
22.6784
22.6779
22.679
22.6785
22.6797
22.6792
22.6803
22.6799
22.6809
22.6806
22.6816
22.6813
22.6822
22.682
22.6829
22.6827
22.6836
22.6835
22.6843
22.6842
22.6851
22.685
22.6858
22.6858
22.6866
22.6866
22.6874
22.6874
22.6883
22.6883
22.6892
22.6892
22.6902
22.6902
22.6912
22.6913
22.692
22.6937
22.6936
22.7935
23.4201
23.4414
23.4442
23.4452
23.4521
23.4524
23.4614
23.4608
23.4711
23.4704
23.4812
23.4802
23.4907
23.4892
23.4994
23.4979
23.5078
23.5062
23.5154
23.5137
23.5223
23.5206
23.5286
23.5268
23.5341
23.5321
23.5387
23.5365
23.5423
23.54
23.5451
23.5426
23.547
23.5443
23.548
23.5453
23.5485
23.5458
23.5487
23.5461
23.5487
23.5462
23.5487
23.5464
23.5487
23.5466
23.5488
23.5468
23.5488
23.547
23.5489
23.5473
23.5491
23.5475
23.5492
23.5478
23.5494
23.5481
23.5497
23.5485
23.5499
23.5489
23.5502
23.5493
23.5506
23.5497
23.551
23.5502
23.5514
23.5507
23.5519
23.5513
23.5525
23.552
23.5531
23.5527
23.5538
23.5535
23.5546
23.5544
23.5556
23.5555
23.5569
23.5568
23.5585
23.5584
23.5616
23.5568
23.5597
4.63042
5.0088
5.0546
5.0761
5.10033
5.12167
5.14022
5.16134
5.1754
5.19602
5.20656
5.22625
5.23408
5.25263
5.25865
5.27607
5.28069
5.29684
5.30025
5.31505
5.31746
5.33087
5.33231
5.34422
5.34468
5.35501
5.35454
5.36336
5.36204
5.36947
5.36742
5.37361
5.371
5.37617
5.37324
5.37766
5.37462
5.37852
5.37552
5.37906
5.3762
5.37946
5.37678
5.37981
5.37731
5.38013
5.37781
5.38046
5.37831
5.38079
5.3788
5.38114
5.3793
5.3815
5.37981
5.38189
5.38034
5.3823
5.38088
5.38275
5.38145
5.38323
5.38205
5.38375
5.38268
5.38431
5.38334
5.38493
5.38406
5.38561
5.38483
5.38635
5.38565
5.38717
5.38656
5.38808
5.38754
5.38909
5.38862
5.39021
5.38981
5.39144
5.3911
5.39277
5.39248
5.39416
5.39376
5.39593
5.39375
5.39535
4.26906
5.21001
5.33129
5.36621
5.38991
5.41203
5.42978
5.44878
5.46335
5.48061
5.49303
5.50879
5.51942
5.53386
5.5432
5.5566
5.5649
5.57722
5.5845
5.59568
5.60199
5.61205
5.61738
5.6262
5.63044
5.63792
5.64107
5.64723
5.64937
5.65423
5.6555
5.65919
5.65974
5.66246
5.66251
5.66454
5.6643
5.66592
5.66556
5.66696
5.66655
5.66783
5.66744
5.66863
5.66828
5.66941
5.66911
5.67018
5.66992
5.67094
5.67072
5.6717
5.67152
5.67245
5.67231
5.67321
5.6731
5.67397
5.67389
5.67473
5.67468
5.67549
5.67547
5.67626
5.67626
5.67703
5.67706
5.67782
5.67787
5.67861
5.67869
5.67942
5.67952
5.68025
5.68037
5.6811
5.68124
5.68199
5.68214
5.6829
5.68307
5.68386
5.68403
5.68484
5.68501
5.68582
5.68604
5.68643
5.68737
5.68895
3.46785
4.67373
4.87561
4.92524
4.94828
4.9676
4.98272
4.99797
5.01072
5.02425
5.0358
5.04808
5.05847
5.06953
5.07895
5.08913
5.09783
5.1072
5.1151
5.12357
5.13064
5.13822
5.14447
5.15113
5.15645
5.16206
5.16636
5.17089
5.17421
5.17772
5.18013
5.18269
5.18429
5.18605
5.187
5.18816
5.18868
5.18946
5.18974
5.19031
5.19051
5.19097
5.19113
5.19155
5.19171
5.1921
5.19226
5.19265
5.19281
5.19318
5.19335
5.19372
5.19388
5.19424
5.19441
5.19477
5.19494
5.19529
5.19546
5.19581
5.19598
5.19632
5.1965
5.19683
5.19701
5.19734
5.19752
5.19784
5.19803
5.19835
5.19854
5.19885
5.19904
5.19936
5.19955
5.19986
5.20005
5.20037
5.20056
5.20088
5.20107
5.20139
5.20157
5.2019
5.20207
5.20241
5.20255
5.2029
5.20345
5.201
3.18819
4.43821
4.66924
4.71688
4.73677
4.74945
4.76201
4.77218
4.78304
4.79257
4.80273
4.81188
4.82114
4.82957
4.83794
4.84587
4.85368
4.86118
4.86834
4.87521
4.88163
4.88788
4.89364
4.89924
4.90426
4.90904
4.91318
4.91708
4.92035
4.9234
4.92585
4.92809
4.92977
4.93126
4.93228
4.93319
4.93373
4.93424
4.93451
4.93481
4.93495
4.93514
4.93523
4.93539
4.93547
4.93561
4.93569
4.93582
4.93591
4.93604
4.93613
4.93626
4.93635
4.93648
4.93657
4.93671
4.93679
4.93693
4.93702
4.93715
4.93725
4.93738
4.93747
4.9376
4.9377
4.93783
4.93793
4.93806
4.93816
4.93829
4.9384
4.93853
4.93864
4.93876
4.93888
4.93901
4.93913
4.93925
4.93937
4.9395
4.93962
4.93975
4.93984
4.93998
4.94003
4.94015
4.94012
4.94017
4.93984
4.93772
3.04773
4.31161
4.54567
4.59083
4.60449
4.61422
4.62255
4.63096
4.63878
4.64705
4.6549
4.66305
4.67045
4.67794
4.68472
4.69176
4.6982
4.70487
4.71083
4.71693
4.72231
4.72784
4.73272
4.73773
4.74204
4.74636
4.74996
4.75352
4.7564
4.75924
4.76144
4.76358
4.76511
4.76657
4.76749
4.7684
4.76887
4.76938
4.76958
4.76987
4.76995
4.77012
4.77015
4.77028
4.7703
4.77041
4.77043
4.77053
4.77055
4.77065
4.77067
4.77077
4.7708
4.77089
4.77092
4.77102
4.77105
4.77114
4.77117
4.77126
4.77129
4.77138
4.77142
4.77151
4.77154
4.77163
4.77167
4.77175
4.77179
4.77188
4.77192
4.772
4.77204
4.77213
4.77217
4.77225
4.77229
4.77238
4.77241
4.7725
4.77253
4.77262
4.77264
4.77273
4.77274
4.77281
4.7728
4.77282
4.77292
4.77035
3.18797
4.4325
4.65563
4.69512
4.70754
4.71356
4.72037
4.72539
4.73172
4.73714
4.7436
4.74933
4.75544
4.76089
4.76648
4.77176
4.77709
4.78223
4.78717
4.79193
4.79638
4.80077
4.80483
4.80887
4.81249
4.81602
4.81907
4.82202
4.82449
4.82688
4.82881
4.83065
4.83203
4.83331
4.83417
4.83498
4.83546
4.83594
4.83618
4.83647
4.8366
4.8368
4.83689
4.83705
4.83713
4.83728
4.83735
4.8375
4.83758
4.83772
4.8378
4.83795
4.83803
4.83818
4.83826
4.8384
4.83849
4.83863
4.83872
4.83886
4.83895
4.83909
4.83918
4.83932
4.83942
4.83955
4.83965
4.83979
4.83989
4.84002
4.84013
4.84026
4.84037
4.8405
4.84062
4.84075
4.84087
4.841
4.84112
4.84126
4.84137
4.84151
4.84161
4.84175
4.8418
4.84193
4.84192
4.84195
4.84168
4.83971
3.46519
4.65486
4.83943
4.87273
4.88183
4.88891
4.89355
4.8993
4.90367
4.90947
4.9141
4.91985
4.92426
4.92958
4.93367
4.93871
4.94265
4.94742
4.95106
4.9554
4.95869
4.96266
4.96568
4.96931
4.97199
4.97518
4.97744
4.98014
4.98199
4.98424
4.9857
4.9875
4.98856
4.98992
4.9906
4.99158
4.99199
4.99271
4.99296
4.99351
4.9937
4.99416
4.99432
4.99475
4.99491
4.99531
4.99547
4.99587
4.99603
4.99642
4.99658
4.99696
4.99713
4.9975
4.99767
4.99803
4.9982
4.99856
4.99874
4.99909
4.99927
4.99961
4.99979
5.00013
5.00032
5.00065
5.00084
5.00117
5.00136
5.00168
5.00187
5.0022
5.00239
5.00271
5.00291
5.00323
5.00342
5.00374
5.00394
5.00427
5.00446
5.00479
5.00498
5.00532
5.0055
5.00585
5.00601
5.00634
5.00698
5.00485
4.25491
5.16222
5.2556
5.26767
5.27266
5.27855
5.28231
5.28852
5.29165
5.29821
5.30101
5.30748
5.30979
5.31585
5.31778
5.32354
5.32524
5.33065
5.33206
5.33703
5.33818
5.34276
5.34373
5.34793
5.3487
5.35245
5.35298
5.35628
5.35661
5.35949
5.35962
5.36209
5.36203
5.3641
5.36388
5.36563
5.36528
5.36681
5.36641
5.36778
5.36739
5.36866
5.3683
5.36949
5.36916
5.3703
5.37001
5.37109
5.37085
5.37188
5.37168
5.37266
5.3725
5.37345
5.37332
5.37423
5.37413
5.37501
5.37494
5.37579
5.37575
5.37657
5.37656
5.37736
5.37738
5.37815
5.37819
5.37895
5.37902
5.37977
5.37985
5.38059
5.3807
5.38144
5.38157
5.38231
5.38246
5.38321
5.38337
5.38414
5.38432
5.38511
5.3853
5.38611
5.3863
5.38711
5.38737
5.38775
5.38879
5.39024
4.58847
4.92262
4.94061
4.94057
4.9467
4.95255
4.95744
4.96586
4.96855
4.97803
4.97893
4.98863
4.98809
4.99758
4.99601
5.00522
5.00294
5.0117
5.0089
5.01712
5.01401
5.02167
5.01839
5.0255
5.02211
5.02863
5.0252
5.03116
5.02773
5.03317
5.02978
5.03472
5.0314
5.03587
5.03263
5.03671
5.03359
5.03733
5.03437
5.03782
5.03504
5.03825
5.03565
5.03864
5.03622
5.03901
5.03676
5.03938
5.0373
5.03976
5.03784
5.04014
5.03837
5.04054
5.03892
5.04097
5.03947
5.04141
5.04005
5.04189
5.04064
5.0424
5.04126
5.04294
5.04191
5.04353
5.0426
5.04417
5.04333
5.04486
5.04411
5.04562
5.04496
5.04645
5.04587
5.04737
5.04686
5.04839
5.04795
5.04951
5.04914
5.05075
5.05043
5.05207
5.05181
5.05346
5.05309
5.05522
5.0531
5.05458
23.0226
23.8613
24.0237
24.1392
24.2332
24.3219
24.3935
24.4686
24.5282
24.596
24.6483
24.71
24.7559
24.812
24.8533
24.9052
24.9429
24.9907
25.0244
25.0676
25.0974
25.1361
25.1617
25.1954
25.2163
25.2445
25.2603
25.2829
25.2939
25.3112
25.3178
25.3304
25.3333
25.3419
25.342
25.3478
25.3463
25.3504
25.3481
25.3513
25.3488
25.3515
25.349
25.3515
25.3491
25.3515
25.3493
25.3514
25.3494
25.3514
25.3496
25.3515
25.3497
25.3516
25.35
25.3517
25.3502
25.3519
25.3505
25.3521
25.3508
25.3523
25.3512
25.3526
25.3516
25.3529
25.352
25.3533
25.3525
25.3537
25.353
25.3542
25.3536
25.3548
25.3542
25.3554
25.3549
25.3561
25.3557
25.3569
25.3566
25.3579
25.3577
25.3591
25.359
25.3607
25.3605
25.3638
25.3586
25.3618
20.9653
22.5976
22.797
22.9116
22.9996
23.0861
23.1552
23.2271
23.2855
23.3494
23.4016
23.4594
23.506
23.5582
23.6003
23.6483
23.687
23.7311
23.7661
23.806
23.837
23.8727
23.8998
23.9309
23.9536
23.9795
23.9974
24.0182
24.0313
24.0472
24.056
24.0675
24.0725
24.0802
24.0824
24.0872
24.0876
24.0907
24.0903
24.0924
24.0916
24.0934
24.0924
24.094
24.093
24.0945
24.0936
24.095
24.0942
24.0955
24.0948
24.096
24.0954
24.0966
24.096
24.0971
24.0966
24.0977
24.0973
24.0983
24.0979
24.0989
24.0986
24.0995
24.0993
24.1002
24.1
24.1009
24.1007
24.1015
24.1014
24.1022
24.1021
24.103
24.1029
24.1037
24.1037
24.1045
24.1045
24.1053
24.1053
24.1062
24.1062
24.1071
24.107
24.1082
24.108
24.1089
24.1102
24.11
19.0253
21.2528
21.517
21.6226
21.6985
21.7729
21.8351
21.8972
21.9503
22.0055
22.0542
22.105
22.1494
22.1954
22.2355
22.2776
22.3147
22.3538
22.3879
22.4233
22.4538
22.4856
22.5127
22.5408
22.5641
22.5879
22.6069
22.6261
22.6408
22.6556
22.6663
22.6771
22.6842
22.6914
22.6954
22.6999
22.7017
22.7044
22.705
22.7066
22.7067
22.7078
22.7077
22.7085
22.7084
22.7092
22.7091
22.7098
22.7097
22.7104
22.7103
22.711
22.7109
22.7116
22.7116
22.7122
22.7122
22.7128
22.7128
22.7134
22.7135
22.7141
22.7141
22.7147
22.7148
22.7153
22.7154
22.7159
22.716
22.7166
22.7167
22.7172
22.7173
22.7179
22.718
22.7185
22.7186
22.7192
22.7193
22.7198
22.7199
22.7205
22.7205
22.7211
22.721
22.7217
22.7215
22.7222
22.7231
22.7082
18.4976
20.8871
21.1606
21.2436
21.3001
21.3596
21.411
21.4633
21.5086
21.5558
21.5987
21.6438
21.684
21.7251
21.7615
21.7991
21.833
21.8684
21.8999
21.9322
21.9606
21.9896
22.0151
22.0411
22.0635
22.086
22.1047
22.1231
22.138
22.1525
22.1637
22.1746
22.1824
22.1899
22.1947
22.1993
22.2018
22.2044
22.2054
22.207
22.2073
22.2082
22.2082
22.2088
22.2088
22.2093
22.2093
22.2098
22.2098
22.2103
22.2102
22.2107
22.2107
22.2112
22.2112
22.2116
22.2116
22.2121
22.2121
22.2125
22.2126
22.213
22.2131
22.2135
22.2135
22.2139
22.214
22.2144
22.2145
22.2149
22.2149
22.2153
22.2154
22.2158
22.2159
22.2163
22.2163
22.2167
22.2168
22.2172
22.2172
22.2176
22.2177
22.218
22.218
22.2184
22.2182
22.2187
22.218
22.2069
18.1623
20.6692
20.9406
21.0019