/*--------------------------------*- C++ -*----------------------------------*\
  =========                 |
  \\      /  F ield         | OpenFOAM: The Open Source CFD Toolbox
   \\    /   O peration     | Website:  https://openfoam.org
    \\  /    A nd           | Version:  7
     \\/     M anipulation  |
\*---------------------------------------------------------------------------*/
FoamFile
{
    version     2.0;
    format      ascii;
    class       volScalarField;
    location    "1.68";
    object      k_0;
}
// * * * * * * * * * * * * * * * * * * * * * * * * * * * * * * * * * * * * * //

dimensions      [0 2 -2 0 0 0 0];

internalField   nonuniform List<scalar> 
7920
(
52.054
56.5285
56.566
56.6165
56.5411
56.5512
56.4959
56.5112
56.4768
56.4942
56.4698
56.4847
56.4649
56.4747
56.4583
56.4622
56.4585
56.4368
56.517
56.6423
13.8477
14.0182
13.4444
12.8941
12.6321
12.5312
12.4448
12.42
12.3757
12.3672
12.3396
12.3354
12.317
12.3155
12.3043
12.3022
12.2956
12.2888
12.4583
12.4698
8.08834
9.2268
9.34573
9.33097
9.29128
9.28186
9.25834
9.25533
9.24035
9.23884
9.22762
9.22671
9.21779
9.21678
9.20919
9.20754
9.20084
9.1976
9.20079
9.22503
7.48529
8.75749
9.00994
9.10163
9.12541
9.15929
9.16543
9.18476
9.18742
9.20067
9.20189
9.21171
9.21226
9.21947
9.21924
9.22402
9.22272
9.2254
9.22538
9.24773
7.42027
8.70376
8.96897
9.07677
9.11374
9.1613
9.17746
9.21098
9.22217
9.24797
9.2567
9.27767
9.28471
9.30199
9.30748
9.32123
9.32489
9.33438
9.33783
9.3631
7.42716
8.70029
8.96385
9.07317
9.11385
9.16616
9.18721
9.22673
9.24253
9.27501
9.28808
9.31539
9.32646
9.34972
9.35888
9.37822
9.38521
9.39943
9.4068
9.43321
7.42716
8.70029
8.96384
9.07317
9.11385
9.16617
9.1872
9.22673
9.24252
9.27502
9.28808
9.3154
9.32645
9.34974
9.35887
9.37825
9.38521
9.39949
9.40686
9.43328
7.42027
8.70376
8.96897
9.07677
9.11373
9.16131
9.17745
9.21099
9.22216
9.24799
9.25668
9.27771
9.28467
9.30207
9.30742
9.32137
9.32483
9.3346
9.33787
9.36337
7.48529
8.7575
9.00993
9.10164
9.1254
9.1593
9.16542
9.18477
9.1874
9.2007
9.20185
9.21179
9.21217
9.21963
9.21898
9.22445
9.22224
9.22627
9.2247
9.2486
8.08834
9.2268
9.34573
9.33097
9.29128
9.28187
9.25833
9.25534
9.24033
9.23887
9.22755
9.2268
9.21762
9.21701
9.20873
9.20817
9.19958
9.19993
9.1986
9.2282
13.8477
14.0182
13.4444
12.8941
12.6321
12.5312
12.4448
12.42
12.3757
12.3673
12.3395
12.3355
12.3169
12.3158
12.3038
12.303
12.294
12.2918
12.4505
12.4782
52.054
56.5285
56.566
56.6165
56.5411
56.5512
56.4959
56.5112
56.4767
56.4943
56.4696
56.485
56.4644
56.4755
56.4569
56.4647
56.4536
56.4458
56.4975
56.683
7.67895
9.68025
9.76654
9.639
9.60382
9.53203
9.52922
9.48843
9.49034
9.46273
9.46575
9.44565
9.44835
9.43279
9.43507
9.42182
9.42572
9.40943
9.41281
9.45932
6.0221
8.25353
8.5959
8.64105
8.64609
8.64591
8.64444
8.64329
8.64168
8.64014
8.63856
8.6365
8.63503
8.63245
8.63121
8.62817
8.62682
8.62369
8.6276
8.63416
5.70384
7.90712
8.25925
8.33041
8.34172
8.35849
8.36367
8.37619
8.38093
8.39104
8.395
8.40262
8.40593
8.41091
8.41366
8.41585
8.4185
8.41777
8.41923
8.44909
5.69532
7.89765
8.24572
8.31313
8.31706
8.32603
8.32563
8.33164
8.3336
8.34052
8.34335
8.35001
8.35341
8.35879
8.36236
8.36533
8.36901
8.36907
8.37169
8.39072
5.68351
7.88207
8.22981
8.29886
8.30188
8.30947
8.30678
8.31095
8.31025
8.31455
8.3153
8.31991
8.32151
8.32604
8.32779
8.33138
8.33259
8.33474
8.33542
8.35576
5.68984
7.89016
8.23696
8.3055
8.30834
8.31578
8.31287
8.31682
8.31564
8.31954
8.31959
8.32344
8.32434
8.32824
8.32935
8.33251
8.33312
8.33499
8.33466
8.35371
5.68984
7.89016
8.23695
8.3055
8.30834
8.31578
8.31287
8.31683
8.31563
8.31954
8.31958
8.32345
8.32433
8.32826
8.32933
8.33253
8.3331
8.335
8.33469
8.35366
5.68351
7.88207
8.22981
8.29886
8.30188
8.30947
8.30677
8.31096
8.31024
8.31457
8.31528
8.31995
8.32146
8.32611
8.32772
8.33149
8.33247
8.33487
8.33527
8.35575
5.69532
7.89765
8.24572
8.31313
8.31705
8.32603
8.32562
8.33165
8.33358
8.34055
8.34332
8.35011
8.3532
8.35908
8.36192
8.36592
8.36827
8.36961
8.37119
8.39118
5.70384
7.90712
8.25925
8.33041
8.34171
8.3585
8.36366
8.3762
8.38091
8.39108
8.39491
8.40276
8.40568
8.4113
8.41306
8.41682
8.41719
8.41947
8.41683
8.45132
6.0221
8.25353
8.5959
8.64105
8.64608
8.64591
8.64444
8.6433
8.64166
8.64018
8.6385
8.63659
8.63488
8.63271
8.63078
8.62894
8.62542
8.62581
8.62398
8.64052
7.67895
9.68025
9.76654
9.639
9.60382
9.53203
9.52922
9.48844
9.49033
9.46274
9.46574
9.44569
9.44831
9.4329
9.43495
9.42217
9.42529
9.41065
9.41101
9.46441
0.477419
1.03686
1.13544
1.10646
1.03324
0.966795
0.915393
0.879006
0.852371
0.831805
0.816971
0.803494
0.794213
0.784286
0.777964
0.770483
0.765375
0.761307
0.75307
0.761586
0.0860635
0.382711
0.52704
0.589228
0.611359
0.625263
0.632257
0.639911
0.643764
0.64788
0.649286
0.650933
0.65103
0.651239
0.65088
0.650655
0.649967
0.649527
0.648706
0.651459
0.0643129
0.300066
0.416562
0.474956
0.49345
0.507117
0.510341
0.51691
0.51925
0.524303
0.526796
0.531256
0.533923
0.53757
0.540272
0.543164
0.545809
0.548159
0.549916
0.554349
0.0681866
0.303714
0.417751
0.473628
0.491669
0.503053
0.504793
0.507899
0.50811
0.509246
0.509587
0.510658
0.511267
0.512329
0.513407
0.514177
0.515686
0.516344
0.517622
0.520906
0.0663424
0.299709
0.4126
0.468452
0.48604
0.497379
0.498829
0.501658
0.501495
0.502056
0.501835
0.502127
0.502031
0.502203
0.502253
0.502343
0.502573
0.502618
0.502832
0.504905
0.0673746
0.301947
0.415242
0.470873
0.488614
0.499824
0.501427
0.50418
0.504058
0.50456
0.504333
0.504528
0.504373
0.504418
0.50437
0.504244
0.504243
0.504093
0.504176
0.505975
0.0673745
0.301947
0.415242
0.470873
0.488614
0.499824
0.501427
0.50418
0.504058
0.50456
0.504333
0.504528
0.504373
0.504418
0.50437
0.504244
0.504243
0.504093
0.504174
0.505973
0.0663422
0.299709
0.412599
0.468452
0.48604
0.497379
0.498828
0.501658
0.501495
0.502056
0.501834
0.502127
0.502031
0.502204
0.502251
0.502342
0.502569
0.502614
0.502828
0.504893
0.0681864
0.303714
0.417751
0.473628
0.491668
0.503054
0.504792
0.5079
0.50811
0.509247
0.509587
0.510662
0.511255
0.512342
0.513388
0.514191
0.515659
0.516335
0.517598
0.520857
0.0643127
0.300067
0.416561
0.474957
0.493449
0.507118
0.510341
0.516911
0.519249
0.524306
0.526786
0.531266
0.533904
0.537591
0.54023
0.543196
0.54574
0.548157
0.549856
0.554243
0.0860634
0.382712
0.527039
0.589228
0.611358
0.625264
0.632255
0.639914
0.643758
0.647887
0.649274
0.650942
0.651019
0.651245
0.65083
0.650667
0.649868
0.649561
0.64857
0.651466
0.477419
1.03686
1.13544
1.10646
1.03324
0.966796
0.915393
0.879009
0.85237
0.831814
0.816969
0.803521
0.79421
0.784352
0.777966
0.770643
0.76539
0.761655
0.753173
0.762569
0.477419
1.03686
1.13544
1.10646
1.03324
0.966794
0.915393
0.879006
0.852371
0.831804
0.816971
0.803494
0.794213
0.784286
0.777964
0.770483
0.765375
0.761307
0.75307
0.761586
0.0860635
0.382711
0.52704
0.589228
0.611359
0.625263
0.632257
0.639911
0.643764
0.64788
0.649286
0.650933
0.65103
0.651239
0.650881
0.650655
0.649967
0.649527
0.648707
0.651459
0.0643129
0.300066
0.416562
0.474956
0.49345
0.507117
0.510341
0.51691
0.51925
0.524303
0.526796
0.531256
0.533923
0.53757
0.540272
0.543164
0.545809
0.548159
0.549916
0.55435
0.0681866
0.303714
0.417751
0.473628
0.491669
0.503053
0.504793
0.507899
0.50811
0.509246
0.509587
0.510658
0.511268
0.512329
0.513407
0.514177
0.515686
0.516344
0.517622
0.520906
0.0663424
0.299709
0.4126
0.468452
0.48604
0.497379
0.498829
0.501658
0.501495
0.502056
0.501835
0.502127
0.502031
0.502203
0.502253
0.502343
0.502573
0.502618
0.502832
0.504905
0.0673746
0.301947
0.415242
0.470873
0.488614
0.499824
0.501427
0.50418
0.504058
0.50456
0.504333
0.504528
0.504373
0.504418
0.50437
0.504244
0.504243
0.504093
0.504176
0.505976
0.0673745
0.301947
0.415242
0.470873
0.488614
0.499824
0.501427
0.50418
0.504058
0.50456
0.504333
0.504528
0.504373
0.504418
0.50437
0.504244
0.504243
0.504093
0.504174
0.505973
0.0663422
0.299709
0.412599
0.468452
0.48604
0.497379
0.498828
0.501658
0.501495
0.502056
0.501835
0.502127
0.502031
0.502204
0.502252
0.502342
0.502569
0.502614
0.502828
0.504893
0.0681864
0.303714
0.417751
0.473628
0.491668
0.503054
0.504792
0.5079
0.50811
0.509247
0.509587
0.510662
0.511255
0.512342
0.513388
0.514191
0.515659
0.516335
0.517598
0.520857
0.0643127
0.300067
0.416561
0.474957
0.493449
0.507118
0.510341
0.516911
0.519249
0.524306
0.526786
0.531266
0.533904
0.537591
0.54023
0.543196
0.54574
0.548157
0.549856
0.554243
0.0860634
0.382712
0.527039
0.589228
0.611358
0.625264
0.632255
0.639914
0.643758
0.647887
0.649274
0.650942
0.651019
0.651245
0.65083
0.650667
0.649868
0.649561
0.64857
0.651466
0.477419
1.03686
1.13544
1.10646
1.03324
0.966796
0.915393
0.879009
0.85237
0.831815
0.816969
0.803521
0.79421
0.784352
0.777965
0.770643
0.76539
0.761655
0.753173
0.762569
7.67895
9.68025
9.76654
9.639
9.60382
9.53203
9.52922
9.48843
9.49034
9.46273
9.46575
9.44565
9.44835
9.43279
9.43507
9.42182
9.42572
9.40943
9.41281
9.45932
6.0221
8.25353
8.5959
8.64105
8.64609
8.64591
8.64444
8.64329
8.64168
8.64014
8.63855
8.6365
8.63503
8.63245
8.63121
8.62817
8.62682
8.62369
8.6276
8.63416
5.70384
7.90712
8.25925
8.33041
8.34172
8.35849
8.36367
8.37619
8.38093
8.39104
8.395
8.40262
8.40593
8.41091
8.41366
8.41585
8.4185
8.41777
8.41923
8.44909
5.69532
7.89765
8.24572
8.31313
8.31706
8.32603
8.32563
8.33164
8.3336
8.34052
8.34335
8.35001
8.35341
8.35879
8.36236
8.36533
8.36901
8.36907
8.37169
8.39072
5.68351
7.88207
8.22981
8.29886
8.30188
8.30947
8.30678
8.31095
8.31025
8.31455
8.3153
8.31991
8.3215
8.32604
8.32779
8.33138
8.33259
8.33474
8.33542
8.35576
5.68984
7.89016
8.23696
8.3055
8.30834
8.31578
8.31287
8.31682
8.31564
8.31954
8.31959
8.32344
8.32434
8.32824
8.32935
8.33251
8.33312
8.33499
8.33466
8.35371
5.68984
7.89016
8.23695
8.3055
8.30834
8.31578
8.31287
8.31683
8.31563
8.31954
8.31958
8.32345
8.32433
8.32826
8.32934
8.33253
8.3331
8.335
8.33469
8.35366
5.68351
7.88207
8.22981
8.29886
8.30188
8.30947
8.30677
8.31096
8.31024
8.31457
8.31528
8.31995
8.32146
8.32611
8.32772
8.33149
8.33247
8.33487
8.33527
8.35575
5.69532
7.89765
8.24572
8.31313
8.31705
8.32603
8.32562
8.33165
8.33358
8.34055
8.34332
8.35011
8.3532
8.35908
8.36192
8.36593
8.36827
8.36961
8.37119
8.39117
5.70384
7.90712
8.25925
8.33041
8.34171
8.3585
8.36366
8.3762
8.38091
8.39108
8.39492
8.40276
8.40568
8.4113
8.41306
8.41682
8.41719
8.41947
8.41683
8.45131
6.0221
8.25353
8.5959
8.64105
8.64608
8.64591
8.64444
8.6433
8.64166
8.64018
8.6385
8.63659
8.63488
8.63271
8.63078
8.62894
8.62542
8.62581
8.62397
8.64052
7.67895
9.68025
9.76654
9.639
9.60382
9.53203
9.52922
9.48844
9.49033
9.46274
9.46574
9.44569
9.44831
9.43291
9.43495
9.42217
9.42529
9.41065
9.41101
9.46441
52.054
56.5285
56.566
56.6165
56.5411
56.5512
56.4959
56.5112
56.4768
56.4942
56.4698
56.4847
56.4649
56.4747
56.4583
56.4622
56.4585
56.4368
56.517
56.6423
13.8477
14.0182
13.4444
12.8941
12.6321
12.5312
12.4448
12.42
12.3757
12.3672
12.3396
12.3354
12.317
12.3155
12.3043
12.3022
12.2956
12.2888
12.4583
12.4698
8.08834
9.2268
9.34573
9.33097
9.29128
9.28186
9.25834
9.25533
9.24035
9.23884
9.22762
9.22671
9.21779
9.21678
9.20919
9.20754
9.20084
9.1976
9.20079
9.22503
7.48529
8.75749
9.00994
9.10163
9.12541
9.15929
9.16543
9.18476
9.18742
9.20067
9.20189
9.21171
9.21226
9.21947
9.21924
9.22402
9.22272
9.2254
9.22538
9.24773
7.42027
8.70376
8.96897
9.07677
9.11374
9.1613
9.17746
9.21098
9.22217
9.24797
9.2567
9.27767
9.28471
9.30199
9.30748
9.32123
9.32489
9.33438
9.33783
9.3631
7.42716
8.70029
8.96385
9.07317
9.11385
9.16616
9.18721
9.22673
9.24253
9.27501
9.28808
9.31539
9.32646
9.34972
9.35888
9.37822
9.38521
9.39943
9.4068
9.43321
7.42716
8.70029
8.96384
9.07317
9.11385
9.16617
9.1872
9.22673
9.24252
9.27502
9.28808
9.3154
9.32645
9.34974
9.35887
9.37825
9.38521
9.39949
9.40686
9.43328
7.42027
8.70376
8.96897
9.07677
9.11373
9.16131
9.17745
9.21099
9.22216
9.24799
9.25668
9.27771
9.28467
9.30207
9.30742
9.32137
9.32483
9.3346
9.33787
9.36337
7.48529
8.7575
9.00993
9.10164
9.1254
9.1593
9.16542
9.18477
9.1874
9.2007
9.20185
9.21179
9.21217
9.21963
9.21898
9.22445
9.22224
9.22627
9.2247
9.2486
8.08834
9.2268
9.34573
9.33097
9.29128
9.28187
9.25833
9.25534
9.24033
9.23887
9.22755
9.2268
9.21762
9.21701
9.20873
9.20817
9.19958
9.19993
9.19859
9.2282
13.8477
14.0182
13.4444
12.8941
12.6321
12.5312
12.4448
12.42
12.3757
12.3673
12.3395
12.3355
12.3169
12.3158
12.3038
12.303
12.294
12.2918
12.4505
12.4782
52.054
56.5285
56.566
56.6165
56.5411
56.5512
56.4959
56.5112
56.4767
56.4943
56.4696
56.485
56.4644
56.4755
56.4569
56.4647
56.4536
56.4458
56.4975
56.683
144.19
146.317
147.381
148.253
148.912
149.526
150.044
150.568
151.03
151.482
151.87
152.247
152.582
152.917
153.216
153.502
153.744
153.966
154.149
154.319
154.46
154.589
154.691
154.78
154.842
154.894
154.925
154.951
154.963
154.975
154.978
154.983
154.983
154.987
154.985
154.988
154.987
154.99
154.989
154.991
154.99
154.992
154.991
154.994
154.993
154.995
154.994
154.996
154.996
154.998
154.997
154.999
154.999
155.001
155
155.002
155.002
155.004
155.004
155.005
155.005
155.007
155.007
155.008
155.008
155.01
155.01
155.011
155.012
155.013
155.013
155.015
155.015
155.016
155.016
155.018
155.018
155.019
155.019
155.02
155.02
155.021
155.021
155.022
155.021
155.022
155.019
155.022
154.989
154.97
47.3252
49.1015
49.4384
49.7397
49.935
50.1523
50.3073
50.4944
50.635
50.7976
50.9162
51.0525
51.1553
51.2768
51.3692
51.474
51.5486
51.6315
51.6874
51.7524
51.7949
51.846
51.8762
51.9135
51.9311
51.9555
51.9631
51.9784
51.98
51.9901
51.9892
51.9969
51.9952
52.0018
52
52.0062
52.0046
52.0104
52.009
52.0145
52.0133
52.0186
52.0176
52.0226
52.0218
52.0266
52.0258
52.0304
52.0298
52.0342
52.0337
52.0379
52.0375
52.0415
52.0411
52.0449
52.0447
52.0483
52.0482
52.0516
52.0515
52.0548
52.0547
52.0579
52.0578
52.0608
52.0608
52.0637
52.0637
52.0664
52.0664
52.069
52.069
52.0715
52.0715
52.0738
52.0738
52.0759
52.0759
52.0778
52.0777
52.0795
52.0792
52.0809
52.0803
52.082
52.0806
52.0829
52.0659
52.0565
30.533
32.5702
32.7797
32.982
33.0834
33.2332
33.3112
33.4405
33.5163
33.6342
33.7009
33.8005
33.8569
33.9455
33.9981
34.0779
34.1224
34.1883
34.2213
34.2744
34.2992
34.3432
34.3613
34.3965
34.4076
34.4336
34.4383
34.457
34.4578
34.4719
34.4709
34.4829
34.4814
34.4923
34.4909
34.5011
34.5
34.5098
34.509
34.5184
34.5179
34.5269
34.5266
34.5353
34.5352
34.5435
34.5437
34.5516
34.5519
34.5596
34.56
34.5673
34.5678
34.5749
34.5755
34.5822
34.5829
34.5894
34.5901
34.5963
34.5971
34.603
34.6038
34.6095
34.6103
34.6157
34.6165
34.6217
34.6225
34.6274
34.6282
34.6329
34.6336
34.6381
34.6388
34.6429
34.6436
34.6475
34.648
34.6517
34.6521
34.6555
34.6558
34.6589
34.6589
34.6618
34.6613
34.6642
34.6603
34.6399
28.3068
30.7408
30.9459
31.1288
31.204
31.3397
31.3924
31.5068
31.5637
31.6762
31.7308
31.827
31.871
31.9554
31.9983
32.0782
32.1179
32.1865
32.2162
32.272
32.2943
32.3416
32.3593
32.3993
32.4115
32.4428
32.449
32.4724
32.4742
32.4922
32.492
32.5072
32.5062
32.5201
32.5192
32.5323
32.5318
32.5443
32.5441
32.5562
32.5563
32.5679
32.5684
32.5796
32.5802
32.591
32.5919
32.6023
32.6033
32.6133
32.6145
32.6241
32.6254
32.6347
32.6361
32.645
32.6465
32.655
32.6566
32.6648
32.6663
32.6742
32.6758
32.6833
32.6849
32.6922
32.6937
32.7006
32.7022
32.7088
32.7103
32.7166
32.718
32.724
32.7253
32.731
32.7323
32.7375
32.7387
32.7437
32.7447
32.7493
32.7502
32.7545
32.7551
32.7591
32.7594
32.7629
32.7642
32.74
28.1468
30.8196
31.0302
31.2041
31.2614
31.3864
31.4214
31.5218
31.5653
31.6717
31.7188
31.8125
31.8486
31.9287
31.9654
32.0446
32.0816
32.1525
32.1807
32.2383
32.2595
32.3089
32.3269
32.3704
32.384
32.4193
32.427
32.4539
32.4568
32.4776
32.478
32.4954
32.495
32.5108
32.5104
32.5253
32.5252
32.5395
32.5398
32.5536
32.5542
32.5675
32.5685
32.5813
32.5826
32.5949
32.5964
32.6083
32.61
32.6215
32.6233
32.6343
32.6363
32.6469
32.6489
32.6592
32.6613
32.6712
32.6733
32.6829
32.685
32.6942
32.6964
32.7052
32.7073
32.7158
32.7179
32.726
32.7281
32.7358
32.7378
32.7452
32.7471
32.7541
32.756
32.7626
32.7644
32.7707
32.7723
32.7782
32.7796
32.7851
32.7864
32.7915
32.7925
32.7972
32.798
32.8018
32.8051
32.7786
28.2347
31.0549
31.2662
31.4275
31.4683
31.5777
31.5971
31.6811
31.7118
31.8079
31.8472
31.9341
31.9628
32.0358
32.0664
32.1413
32.1748
32.2443
32.2702
32.3267
32.3462
32.3952
32.4127
32.457
32.471
32.5081
32.5165
32.5451
32.5486
32.5708
32.5716
32.5901
32.59
32.6066
32.6065
32.6222
32.6224
32.6375
32.6381
32.6527
32.6537
32.6678
32.669
32.6826
32.6842
32.6973
32.6991
32.7118
32.7138
32.726
32.7281
32.74
32.7422
32.7536
32.7559
32.7669
32.7693
32.7799
32.7824
32.7926
32.795
32.8048
32.8073
32.8168
32.8192
32.8283
32.8307
32.8394
32.8418
32.8501
32.8524
32.8604
32.8626
32.8702
32.8723
32.8795
32.8815
32.8883
32.8902
32.8965
32.8983
32.9042
32.9058
32.9113
32.9126
32.9177
32.9189
32.9227
32.9274
32.8997
28.2365
31.0451
31.2373
31.3782
31.4011
31.491
31.4963
31.5644
31.5838
31.6674
31.6978
31.7746
31.7957
31.86
31.8843
31.9522
31.9809
32.0451
32.0673
32.1197
32.1365
32.1826
32.1983
32.2409
32.254
32.2901
32.2981
32.3263
32.3297
32.3517
32.3525
32.3709
32.3708
32.3874
32.3873
32.4029
32.4032
32.4182
32.4189
32.4334
32.4344
32.4485
32.4498
32.4634
32.4649
32.4781
32.4798
32.4925
32.4945
32.5067
32.5088
32.5207
32.5229
32.5343
32.5366
32.5476
32.55
32.5606
32.5631
32.5733
32.5758
32.5856
32.5881
32.5975
32.6
32.609
32.6115
32.6202
32.6226
32.6309
32.6332
32.6412
32.6434
32.651
32.6532
32.6603
32.6624
32.6691
32.6711
32.6774
32.6792
32.6851
32.6867
32.6922
32.6936
32.6986
32.7
32.7036
32.7086
32.6813
28.1497
30.779
30.9263
31.0372
31.041
31.1088
31.102
31.1573
31.1672
31.2376
31.2585
31.3228
31.3364
31.391
31.4091
31.468
31.4906
31.5463
31.5635
31.6092
31.6224
31.6634
31.6763
31.7145
31.7254
31.7581
31.7646
31.7903
31.7928
31.8132
31.8135
31.8307
31.8304
31.846
31.8457
31.8604
31.8604
31.8746
31.875
31.8887
31.8894
31.9026
31.9037
31.9164
31.9177
31.9301
31.9316
31.9435
31.9451
31.9566
31.9584
31.9695
31.9715
31.9821
31.9842
31.9944
31.9966
32.0065
32.0086
32.0181
32.0203
32.0295
32.0317
32.0405
32.0427
32.0511
32.0533
32.0614
32.0635
32.0713
32.0734
32.0807
32.0827
32.0898
32.0917
32.0983
32.1001
32.1064
32.1081
32.114
32.1155
32.121
32.1224
32.1275
32.1286
32.1333
32.1343
32.1378
32.1419
32.1171
28.2907
30.615
30.7038
30.7805
30.7684
30.8163
30.8011
30.8451
30.8478
30.904
30.9158
30.9659
30.9728
31.0168
31.029
31.0771
31.0929
31.1376
31.1491
31.1862
31.1952
31.2291
31.2384
31.2702
31.2779
31.3051
31.3093
31.3309
31.3321
31.3494
31.349
31.364
31.3631
31.3768
31.376
31.389
31.3886
31.401
31.4009
31.4129
31.4132
31.4247
31.4253
31.4364
31.4372
31.4479
31.4489
31.4592
31.4604
31.4703
31.4716
31.4812
31.4826
31.4919
31.4934
31.5022
31.5038
31.5124
31.514
31.5222
31.5239
31.5317
31.5334
31.541
31.5427
31.5499
31.5516
31.5585
31.5601
31.5668
31.5684
31.5747
31.5762
31.5822
31.5837
31.5894
31.5907
31.5961
31.5974
31.6024
31.6035
31.6082
31.6092
31.6135
31.6143
31.6183
31.6189
31.6221
31.6242
31.6022
30.4314
32.2429
32.2678
32.3169
32.2949
32.3284
32.3097
32.3443
32.342
32.384
32.3877
32.4237
32.4252
32.4583
32.4648
32.5004
32.5092
32.5415
32.5474
32.5746
32.5794
32.6047
32.61
32.6336
32.6378
32.6578
32.6596
32.6757
32.6754
32.6887
32.6875
32.6992
32.6977
32.7085
32.7072
32.7174
32.7165
32.7263
32.7256
32.735
32.7346
32.7436
32.7435
32.7522
32.7522
32.7606
32.7608
32.7688
32.7692
32.7769
32.7774
32.7848
32.7855
32.7925
32.7933
32.8001
32.8009
32.8074
32.8083
32.8145
32.8154
32.8214
32.8223
32.8281
32.829
32.8345
32.8355
32.8407
32.8416
32.8466
32.8475
32.8523
32.8532
32.8577
32.8585
32.8628
32.8635
32.8675
32.8682
32.872
32.8725
32.876
32.8765
32.8796
32.8799
32.8828
32.8828
32.8854
32.8835
32.8657
46.9299
48.2231
48.2222
48.2548
48.235
48.2585
48.243
48.2689
48.2673
48.298
48.3001
48.3254
48.3262
48.35
48.355
48.3803
48.3867
48.409
48.4131
48.4317
48.4351
48.4525
48.4563
48.4723
48.475
48.4882
48.489
48.4994
48.4986
48.5069
48.5053
48.5126
48.5108
48.5174
48.5158
48.522
48.5206
48.5264
48.5252
48.5308
48.5298
48.5352
48.5343
48.5395
48.5388
48.5437
48.5431
48.5478
48.5473
48.5518
48.5514
48.5557
48.5554
48.5595
48.5593
48.5632
48.5631
48.5668
48.5668
48.5703
48.5704
48.5737
48.5738
48.577
48.5771
48.5802
48.5803
48.5832
48.5834
48.5862
48.5863
48.589
48.5891
48.5916
48.5917
48.5941
48.5942
48.5964
48.5965
48.5986
48.5986
48.6005
48.6005
48.6022
48.6019
48.6035
48.6028
48.6047
48.5898
48.5824
142.616
143.234
143.261
143.308
143.304
143.33
143.323
143.353
143.367
143.408
143.426
143.459
143.472
143.502
143.521
143.554
143.575
143.604
143.619
143.642
143.654
143.675
143.687
143.706
143.716
143.73
143.736
143.745
143.747
143.753
143.753
143.757
143.756
143.759
143.758
143.761
143.76
143.763
143.762
143.765
143.764
143.766
143.766
143.768
143.767
143.77
143.769
143.771
143.771
143.773
143.773
143.775
143.774
143.776
143.776
143.778
143.777
143.779
143.779
143.781
143.781
143.782
143.782
143.784
143.784
143.785
143.785
143.787
143.787
143.788
143.788
143.79
143.79
143.791
143.791
143.792
143.793
143.794
143.794
143.795
143.795
143.796
143.796
143.797
143.796
143.797
143.796
143.797
143.77
143.755
30.207
30.9779
31.2078
31.3782
31.517
31.6413
31.7507
31.8604
31.9557
32.0508
32.1293
32.2102
32.278
32.3511
32.4107
32.4733
32.5203
32.5695
32.6045
32.6432
32.6695
32.6998
32.7179
32.7394
32.7495
32.7633
32.7672
32.7756
32.776
32.7816
32.7805
32.7849
32.7833
32.7871
32.7856
32.7891
32.7877
32.791
32.7897
32.7929
32.7918
32.7948
32.7937
32.7966
32.7957
32.7984
32.7976
32.8002
32.7994
32.8019
32.8012
32.8036
32.803
32.8052
32.8047
32.8068
32.8064
32.8084
32.808
32.8099
32.8095
32.8114
32.8111
32.8128
32.8126
32.8142
32.814
32.8156
32.8154
32.8169
32.8168
32.8182
32.8181
32.8195
32.8194
32.8208
32.8207
32.822
32.822
32.8233
32.8233
32.8246
32.8246
32.8261
32.8261
32.8279
32.8279
32.8307
32.8271
32.8274
28.0715
29.4086
29.6382
29.8083
29.9404
30.0627
30.1665
30.2729
30.3652
30.4582
30.5352
30.6136
30.6798
30.7502
30.8092
30.8703
30.9178
30.966
31.0018
31.0396
31.067
31.0968
31.1165
31.1381
31.1501
31.1641
31.1698
31.1784
31.1805
31.1861
31.1866
31.1908
31.1908
31.1944
31.1943
31.1977
31.1976
31.2009
31.2008
31.204
31.204
31.2071
31.2072
31.2101
31.2103
31.2131
31.2133
31.216
31.2163
31.2189
31.2192
31.2217
31.2221
31.2245
31.2249
31.2272
31.2276
31.2298
31.2302
31.2324
31.2328
31.2349
31.2353
31.2373
31.2377
31.2396
31.24
31.2418
31.2423
31.244
31.2444
31.2461
31.2465
31.2481
31.2485
31.25
31.2504
31.2518
31.2522
31.2536
31.2539
31.2553
31.2555
31.2569
31.2569
31.2586
31.2582
31.2603
31.2597
31.2619
25.8683
27.7086
27.9542
28.1113
28.2344
28.3435
28.4367
28.5299
28.6161
28.7016
28.7759
28.8471
28.9094
28.9725
29.0294
29.0864
29.1346
29.1803
29.2169
29.2522
29.2805
29.3086
29.3302
29.3513
29.3658
29.3795
29.3874
29.3954
29.399
29.4036
29.4051
29.4081
29.4087
29.4111
29.4115
29.4136
29.414
29.416
29.4164
29.4184
29.4189
29.4208
29.4213
29.4231
29.4236
29.4254
29.426
29.4278
29.4283
29.43
29.4306
29.4323
29.4329
29.4345
29.4351
29.4367
29.4373
29.4388
29.4394
29.4409
29.4415
29.4429
29.4435
29.4449
29.4455
29.4468
29.4474
29.4487
29.4493
29.4505
29.4511
29.4523
29.4529
29.454
29.4545
29.4557
29.4562
29.4572
29.4577
29.4588
29.4592
29.4602
29.4605
29.4615
29.4616
29.4627
29.4624
29.4637
29.4629
29.4432
25.1332
27.2174
27.4567
27.5942
27.7034
27.7995
27.8791
27.9597
28.0379
28.1184
28.1902
28.2573
28.3155
28.3735
28.428
28.4832
28.5323
28.578
28.6158
28.6506
28.6797
28.7078
28.7313
28.7534
28.7704
28.7854
28.7955
28.8041
28.809
28.8135
28.8155
28.818
28.8189
28.8205
28.821
28.8224
28.8228
28.824
28.8244
28.8257
28.8261
28.8273
28.8277
28.8289
28.8293
28.8305
28.8309
28.8321
28.8325
28.8336
28.8341
28.8352
28.8357
28.8367
28.8372
28.8382
28.8387
28.8397
28.8402
28.8412
28.8417
28.8427
28.8431
28.8441
28.8445
28.8455
28.8459
28.8468
28.8473
28.8481
28.8486
28.8494
28.8499
28.8507
28.8511
28.8519
28.8523
28.8531
28.8534
28.8542
28.8545
28.8553
28.8555
28.8563
28.8563
28.8571
28.8569
28.8578
28.8576
28.8432
24.6871
26.9271
27.1485
27.2614
27.3509
27.4305
27.4935
27.5589
27.6254
27.6982
27.7645
27.8262
27.8784
27.9301
27.9797
28.0315
28.079
28.1237
28.1607
28.1945
28.2229
28.2505
28.2744
28.2973
28.3156
28.3319
28.3433
28.3529
28.3586
28.3635
28.3658
28.3683
28.3692
28.3707
28.3711
28.3722
28.3725
28.3735
28.3738
28.3748
28.3751
28.3761
28.3764
28.3773
28.3777
28.3786
28.3789
28.3799
28.3802
28.3811
28.3815
28.3824
28.3827
28.3836
28.384
28.3848
28.3852
28.386
28.3864
28.3872
28.3876
28.3884
28.3888
28.3896
28.3899
28.3907
28.3911
28.3918
28.3922
28.3929
28.3933
28.394
28.3943
28.395
28.3953
28.396
28.3963
28.397
28.3973
28.3979
28.3982
28.3988
28.399
28.3997
28.3997
28.4003
28.4001
28.4007
28.4004
28.3782
24.5972
26.8764
27.0726
27.1587
27.227
27.2885
27.3349
27.3844
27.4385
27.5014
27.5602
27.6148
27.6601
27.7049
27.7487
27.7962
27.8405
27.883
27.9179
27.9499
27.9766
28.0031
28.0263
28.0492
28.0679
28.0848
28.0968
28.107
28.1131
28.1184
28.121
28.1237
28.1246
28.1262
28.1266
28.1277
28.128
28.129
28.1292
28.1302
28.1305
28.1314
28.1317
28.1327
28.133
28.1339
28.1342
28.1351
28.1354
28.1363
28.1366
28.1375
28.1378
28.1387
28.139
28.1398
28.1402
28.141
28.1413
28.1421
28.1425
28.1433
28.1436
28.1444
28.1447
28.1454
28.1458
28.1465
28.1468
28.1475
28.1478
28.1485
28.1488
28.1495
28.1498
28.1505
28.1507
28.1514
28.1516
28.1523
28.1525
28.1531
28.1533
28.1539
28.1539
28.1545
28.1544
28.155
28.1547
28.1348
24.5975
26.8649
27.0424
27.1085
27.1587
27.2035
27.2349
27.2707
27.3128
27.3651
27.4145
27.4604
27.4975
27.5349
27.572
27.6135
27.6526
27.6905
27.7215
27.75
27.7738
27.7978
27.8191
27.8405
27.858
27.8742
27.8857
27.8956
27.9016
27.9067
27.9093
27.9119
27.9128
27.9144
27.9148
27.916
27.9163
27.9173
27.9176
27.9186
27.9188
27.9198
27.9201
27.9211
27.9214
27.9223
27.9226
27.9235
27.9239
27.9248
27.9251
27.926
27.9263
27.9272
27.9275
27.9284
27.9287
27.9296
27.9299
27.9307
27.9311
27.9319
27.9322
27.933
27.9334
27.9341
27.9345
27.9352
27.9355
27.9363
27.9366
27.9373
27.9376
27.9383
27.9386
27.9393
27.9396
27.9402
27.9405
27.9412
27.9414
27.942
27.9422
27.9428
27.9429
27.9435
27.9435
27.9439
27.9438
27.9243
24.6873
26.8834
27.0459
27.0994
27.136
27.167
27.1869
27.2129
27.2454
27.2875
27.3267
27.3631
27.3921
27.4221
27.4525
27.4871
27.5198
27.5512
27.5769
27.6005
27.6205
27.641
27.6593
27.6779
27.6932
27.7073
27.7173
27.726
27.7312
27.7358
27.738
27.7405
27.7413
27.7429
27.7433
27.7444
27.7448
27.7458
27.7461
27.7472
27.7475
27.7485
27.7489
27.7499
27.7502
27.7512
27.7516
27.7525
27.7529
27.7539
27.7543
27.7552
27.7556
27.7565
27.7569
27.7578
27.7582
27.7591
27.7595
27.7604
27.7608
27.7616
27.7621
27.7629
27.7633
27.7641
27.7645
27.7653
27.7657
27.7665
27.7669
27.7676
27.768
27.7687
27.7691
27.7698
27.7702
27.7709
27.7713
27.772
27.7723
27.7729
27.7732
27.7739
27.774
27.7746
27.7746
27.7749
27.7751
27.7543
25.1149
27.0958
27.2248
27.2643
27.2885
27.308
27.3197
27.3384
27.3627
27.3946
27.4232
27.4496
27.4705
27.4935
27.5169
27.5443
27.5693
27.5938
27.6131
27.6317
27.6472
27.6639
27.6784
27.6936
27.7057
27.7173
27.7251
27.7323
27.7364
27.7404
27.7422
27.7446
27.7455
27.7471
27.7477
27.7491
27.7495
27.7508
27.7513
27.7526
27.7531
27.7543
27.7548
27.7561
27.7566
27.7578
27.7583
27.7595
27.76
27.7612
27.7617
27.7629
27.7634
27.7645
27.7651
27.7662
27.7667
27.7678
27.7684
27.7694
27.77
27.771
27.7716
27.7726
27.7731
27.7741
27.7746
27.7756
27.7761
27.777
27.7776
27.7785
27.779
27.7799
27.7804
27.7812
27.7817
27.7826
27.783
27.7838
27.7843
27.7851
27.7854
27.7862
27.7864
27.7873
27.7874
27.7879
27.7881
27.7755
25.7924
27.4419
27.5279
27.5536
27.567
27.5781
27.5843
27.598
27.6144
27.6369
27.6546
27.6727
27.6857
27.7028
27.7185
27.7386
27.7549
27.7725
27.7848
27.7987
27.8089
27.8218
27.8315
27.8434
27.8513
27.8604
27.8654
27.8715
27.874
27.878
27.8791
27.882
27.8826
27.8849
27.8854
27.8876
27.8881
27.8901
27.8907
27.8927
27.8932
27.8952
27.8958
27.8977
27.8983
27.9002
27.9008
27.9026
27.9033
27.905
27.9057
27.9074
27.9081
27.9098
27.9105
27.9121
27.9128
27.9144
27.9151
27.9166
27.9173
27.9188
27.9195
27.921
27.9216
27.9231
27.9237
27.9251
27.9257
27.9271
27.9277
27.929
27.9296
27.9309
27.9315
27.9327
27.9333
27.9345
27.935
27.9362
27.9367
27.9378
27.9382
27.9393
27.9396
27.9408
27.9408
27.9418
27.9425
27.925
27.8597
28.9128
28.9402
28.9511
28.9536
28.9606
28.9618
28.9727
28.9804
28.9962
29.0037
29.0168
29.0222
29.0353
29.0427
29.0574
29.0648
29.0777
29.083
29.0939
29.0984
29.1088
29.1132
29.1227
29.1261
29.1339
29.1358
29.1417
29.1424
29.1471
29.1472
29.1512
29.1511
29.1547
29.1547
29.1581
29.1581
29.1614
29.1615
29.1647
29.1649
29.1679
29.1682
29.1711
29.1714
29.1743
29.1746
29.1774
29.1777
29.1804
29.1808
29.1834
29.1838
29.1863
29.1867
29.1891
29.1896
29.1919
29.1924
29.1946
29.1951
29.1972
29.1977
29.1997
29.2003
29.2022
29.2027
29.2046
29.2051
29.2069
29.2074
29.2091
29.2096
29.2113
29.2117
29.2134
29.2138
29.2153
29.2158
29.2173
29.2176
29.2191
29.2194
29.221
29.2212
29.2228
29.2228
29.2247
29.2252
29.2284
29.835
30.2743
30.283
30.28
30.2784
30.2788
30.2765
30.2816
30.2821
30.2905
30.2908
30.2985
30.298
30.3063
30.3068
30.316
30.3166
30.325
30.3249
30.3324
30.3321
30.3394
30.3392
30.3461
30.3456
30.3516
30.3505
30.3556
30.3541
30.3585
30.3569
30.3609
30.3593
30.3631
30.3616
30.3652
30.3638
30.3672
30.366
30.3693
30.3682
30.3712
30.3703
30.3732
30.3723
30.3751
30.3744
30.377
30.3763
30.3788
30.3782
30.3806
30.38
30.3823
30.3818
30.384
30.3836
30.3856
30.3852
30.3872
30.3868
30.3887
30.3884
30.3902
30.3899
30.3916
30.3914
30.393
30.3928
30.3944
30.3942
30.3957
30.3956
30.397
30.3969
30.3983
30.3982
30.3995
30.3995
30.4008
30.4009
30.4022
30.4023
30.4037
30.4039
30.4055
30.4058
30.4084
30.4051
30.4059
3.63676
3.84034
3.86388
3.87569
3.89413
3.91147
3.9287
3.94842
3.96277
3.9822
3.99326
4.01194
4.02073
4.03863
4.04538
4.06163
4.06626
4.08064
4.08362
4.09646
4.09823
4.10963
4.1103
4.12023
4.11997
4.12863
4.12776
4.13551
4.13435
4.14147
4.14025
4.14691
4.14574
4.15203
4.15095
4.15691
4.15594
4.1616
4.16074
4.16611
4.16537
4.17047
4.16983
4.17468
4.17413
4.17874
4.17829
4.18268
4.1823
4.18648
4.18618
4.19016
4.18992
4.19372
4.19353
4.19715