/*--------------------------------*- C++ -*----------------------------------*\
  =========                 |
  \\      /  F ield         | OpenFOAM: The Open Source CFD Toolbox
   \\    /   O peration     | Website:  https://openfoam.org
    \\  /    A nd           | Version:  7
     \\/     M anipulation  |
\*---------------------------------------------------------------------------*/
FoamFile
{
    version     2.0;
    format      ascii;
    class       volScalarField;
    location    "1.145";
    object      k;
}
// * * * * * * * * * * * * * * * * * * * * * * * * * * * * * * * * * * * * * //

dimensions      [0 2 -2 0 0 0 0];

internalField   nonuniform List<scalar> 
13200
(
75.6153
79.8551
79.8365
79.8851
79.8446
79.8673
79.829
79.8415
79.8045
79.8124
79.7834
79.792
79.7732
79.7838
79.7751
79.7844
79.7889
79.7811
79.8613
79.9046
17.7267
16.11
15.0478
14.6507
14.5027
14.4692
14.4195
14.417
14.3922
14.3921
14.3735
14.375
14.3614
14.3642
14.3548
14.3575
14.3527
14.3497
14.3962
14.4028
6.92677
6.88463
6.62499
6.43881
6.34976
6.31832
6.28072
6.2682
6.24244
6.23381
6.21388
6.20785
6.19287
6.18926
6.17842
6.17609
6.16898
6.16682
6.16605
6.18282
4.93378
5.52364
5.58374
5.58312
5.5728
5.56971
5.55679
5.55046
5.53592
5.52831
5.51392
5.50608
5.49377
5.48745
5.47881
5.47426
5.4697
5.46513
5.46516
5.47498
4.52222
5.27851
5.41762
5.4656
5.47471
5.48966
5.4876
5.49086
5.48505
5.48392
5.47528
5.47139
5.46118
5.4572
5.44909
5.44645
5.44176
5.43998
5.43856
5.44676
4.46849
5.24808
5.40502
5.46507
5.48128
5.50402
5.50718
5.51719
5.51588
5.52002
5.5159
5.5159
5.50912
5.50687
5.49997
5.49859
5.49443
5.49405
5.49311
5.50044
4.45076
5.23029
5.38882
5.45189
5.47085
5.49731
5.50346
5.51821
5.51998
5.52858
5.52781
5.53156
5.52775
5.52816
5.52369
5.52393
5.52134
5.52235
5.52196
5.53036
4.45955
5.23287
5.3909
5.45457
5.47512
5.50357
5.51161
5.52916
5.53304
5.54499
5.54663
5.5535
5.5521
5.55482
5.5524
5.55437
5.5536
5.55547
5.55753
5.56523
4.4574
5.22733
5.38398
5.44693
5.46747
5.49629
5.50489
5.52343
5.52827
5.54175
5.54471
5.55367
5.55376
5.55802
5.55721
5.56042
5.56123
5.56448
5.56772
5.57658
4.46146
5.22884
5.38492
5.44772
5.46834
5.49729
5.50608
5.52494
5.53014
5.54419
5.5477
5.55753
5.55832
5.56338
5.56332
5.56715
5.56887
5.57269
5.57711
5.58587
4.46146
5.22884
5.38492
5.44772
5.46834
5.49729
5.50608
5.52494
5.53014
5.5442
5.5477
5.55753
5.55832
5.56338
5.56333
5.56715
5.56889
5.5727
5.57714
5.58591
4.4574
5.22733
5.38398
5.44693
5.46747
5.49629
5.50489
5.52343
5.52827
5.54175
5.54471
5.55367
5.55377
5.55801
5.55723
5.56041
5.56126
5.56447
5.56783
5.57664
4.45955
5.23287
5.39089
5.45458
5.47511
5.50358
5.5116
5.52916
5.53304
5.545
5.54662
5.55351
5.5521
5.55483
5.5524
5.55439
5.55364
5.55548
5.55764
5.56533
4.45076
5.23029
5.38882
5.4519
5.47084
5.49731
5.50346
5.51822
5.51997
5.52859
5.5278
5.53158
5.52773
5.5282
5.52366
5.52401
5.52133
5.5225
5.52207
5.53061
4.46849
5.24809
5.40502
5.46508
5.48127
5.50403
5.50718
5.5172
5.51586
5.52004
5.51585
5.51594
5.50906
5.50696
5.49986
5.49876
5.49428
5.49446
5.49287
5.50089
4.52222
5.27852
5.41761
5.46561
5.4747
5.48967
5.48759
5.49087
5.48502
5.48395
5.47523
5.47146
5.46107
5.45735
5.44885
5.44682
5.4412
5.44107
5.43754
5.44838
4.93378
5.52364
5.58374
5.58312
5.57279
5.56971
5.55677
5.55048
5.53589
5.52838
5.51383
5.50622
5.49357
5.48777
5.47835
5.47501
5.46849
5.46713
5.46246
5.47853
6.92677
6.88463
6.62499
6.43881
6.34976
6.31833
6.28071
6.26821
6.24242
6.23385
6.21383
6.20793
6.19274
6.18944
6.1781
6.17653
6.16813
6.16854
6.1627
6.18974
17.7267
16.11
15.0478
14.6507
14.5027
14.4692
14.4195
14.4171
14.3922
14.3921
14.3734
14.3751
14.3613
14.3644
14.3544
14.3581
14.3516
14.3515
14.3902
14.4157
75.6153
79.8551
79.8365
79.8852
79.8445
79.8673
79.829
79.8415
79.8045
79.8126
79.7832
79.7924
79.7727
79.7847
79.7736
79.7868
79.7847
79.7891
79.8417
79.9606
5.96853
6.78927
6.66027
6.50696
6.48383
6.42272
6.42399
6.3874
6.3918
6.36602
6.37061
6.3517
6.35574
6.34152
6.34483
6.3337
6.33679
6.32592
6.32843
6.34096
4.06791
5.40779
5.56637
5.54413
5.51808
5.48984
5.4749
5.45681
5.44733
5.43461
5.42814
5.41893
5.41475
5.40815
5.40565
5.40063
5.39892
5.39549
5.39256
5.39241
3.50857
4.84556
5.08008
5.13934
5.16023
5.17148
5.17334
5.17391
5.17139
5.16874
5.16485
5.16201
5.15933
5.15718
5.15629
5.15469
5.15567
5.15299
5.15568
5.16861
3.44296
4.77494
4.99644
5.04891
5.06753
5.08352
5.09098
5.09868
5.10103
5.10349
5.10301
5.10272
5.10184
5.10152
5.10218
5.10249
5.10542
5.105
5.11061
5.11393
3.41177
4.73939
4.95777
5.0044
5.01401
5.02422
5.02719
5.03303
5.03435
5.03729
5.03687
5.03698
5.03561
5.03516
5.03522
5.03581
5.03851
5.03953
5.04434
5.05518
3.42579
4.75683
4.97402
5.01937
5.0267
5.03407
5.03439
5.03692
5.03634
5.03735
5.03579
5.0346
5.03111
5.02901
5.02687
5.02608
5.02665
5.02686
5.0293
5.03715
3.41564
4.74399
4.96067
5.00596
5.01272
5.01964
5.01912
5.02086
5.01928
5.01964
5.01729
5.01556
5.01081
5.00773
5.00375
5.00189
5.00067
5.00031
5.00133
5.00822
3.42488
4.75539
4.97141
5.0165
5.0232
5.03015
5.02953
5.03117
5.02937
5.02961
5.0271
5.02529
5.02015
5.01661
5.01167
5.00913
5.00687
5.00563
5.00576
5.01105
3.42022
4.74912
4.96494
5.00985
5.01642
5.02333
5.02266
5.02431
5.02248
5.02278
5.02032
5.01861
5.01351
5.00989
5.00469
5.00192
4.9993
4.99777
4.99748
5.00211
3.42375
4.75322
4.9688
5.01354
5.02005
5.02691
5.02621
5.02784
5.026
5.02631
5.02387
5.02219
5.01713
5.01348
5.00823
5.00536
5.00268
5.00096
5.0006
5.00495
3.42375
4.75322
4.9688
5.01354
5.02005
5.02691
5.02621
5.02784
5.026
5.02631
5.02387
5.02219
5.01713
5.01348
5.00824
5.00536
5.0027
5.00096
5.0006
5.00493
3.42022
4.74912
4.96494
5.00985
5.01642
5.02333
5.02266
5.02431
5.02248
5.02278
5.02032
5.01861
5.01351
5.00988
5.0047
5.0019
4.99933
4.99773
4.99757
5.00211
3.42488
4.75539
4.97141
5.0165
5.02319
5.03016
5.02953
5.03117
5.02936
5.02962
5.0271
5.02529
5.02015
5.01662
5.01167
5.00913
5.00688
5.00561
5.00574
5.01096
3.41563
4.74399
4.96067
5.00596
5.01271
5.01964
5.01912
5.02087
5.01927
5.01965
5.01727
5.01558
5.01078
5.00779
5.00369
5.00196
5.0006
5.00036
5.00135
5.00825
3.42579
4.75684
4.97401
5.01938
5.02669
5.03408
5.03438
5.03693
5.03633
5.03737
5.03575
5.03464
5.03105
5.02914
5.02671
5.02622
5.02636
5.02708
5.02905
5.03722
3.41177
4.73939
4.95776
5.00441
5.014
5.02424
5.02718
5.03304
5.03433
5.03731
5.03682
5.03703
5.03551
5.03533
5.03503
5.0361
5.0378
5.04034
5.04354
5.05609
3.44296
4.77494
4.99644
5.04891
5.06752
5.08353
5.09097
5.0987
5.10099
5.10354
5.10294
5.1028
5.10172
5.1017
5.10183
5.10292
5.10443
5.10622
5.10824
5.11682
3.50857
4.84556
5.08008
5.13934
5.16023
5.17149
5.17333
5.17393
5.17136
5.16879
5.16479
5.16211
5.15918
5.15741
5.15593
5.15517
5.1549
5.15448
5.15299
5.17335
4.06791
5.40779
5.56637
5.54413
5.51808
5.48985
5.47489
5.45682
5.44732
5.43463
5.42811
5.41898
5.41467
5.40829
5.40546
5.40097
5.3984
5.39653
5.39061
5.39796
5.96853
6.78927
6.66027
6.50696
6.48383
6.42272
6.42399
6.38741
6.3918
6.36603
6.37061
6.35174
6.35572
6.34161
6.34477
6.33391
6.33664
6.32659
6.32762
6.34473
0.876719
1.11925
0.960581
0.767487
0.657753
0.599504
0.559625
0.531764
0.508873
0.4902
0.474888
0.461247
0.450529
0.440152
0.432192
0.424427
0.417358
0.412921
0.404256
0.40551
0.146691
0.374293
0.451095
0.465342
0.464326
0.460115
0.451664
0.443235
0.434718
0.42688
0.419499
0.412853
0.406732
0.401259
0.396083
0.391775
0.386997
0.38424
0.378622
0.378798
0.0277027
0.143088
0.209892
0.242595
0.257223
0.269595
0.277309
0.285668
0.291114
0.296917
0.300505
0.30419
0.306276
0.308537
0.309583
0.310986
0.311361
0.312186
0.311816
0.313315
0.0233796
0.119054
0.175105
0.205047
0.216934
0.224866
0.228249
0.232345
0.23489
0.238319
0.240992
0.244147
0.246888
0.249798
0.252462
0.255042
0.257643
0.259711
0.262196
0.264482
0.0223465
0.113387
0.1649
0.194045
0.204988
0.21218
0.213825
0.215989
0.216326
0.217251
0.217598
0.21845
0.219067
0.220087
0.221127
0.222172
0.223647
0.224615
0.226286
0.227766
0.0232961
0.117123
0.169159
0.197779
0.209003
0.215791
0.217574
0.219235
0.219345
0.21964
0.219548
0.219592
0.219567
0.219626
0.21984
0.220033
0.220528
0.220773
0.221405
0.222364
0.0226402
0.114588
0.16607
0.194716
0.20565
0.212498
0.214109
0.215798
0.215817
0.216002
0.215797
0.215735
0.215488
0.215387
0.215258
0.215206
0.215244
0.215282
0.215428
0.216056
0.0231803
0.116782
0.168794
0.197275
0.208332
0.215023
0.21675
0.218365
0.218435
0.218626
0.218455
0.218367
0.218119
0.217966
0.21784
0.217721
0.217739
0.217694
0.217803
0.218313
0.0228518
0.115455
0.167173
0.195687
0.206616
0.213355
0.215
0.216653
0.216702
0.2169
0.216719
0.21665
0.216404
0.216272
0.21612
0.216009
0.215997
0.215956
0.215998
0.216483
0.0230352
0.116215
0.168127
0.196588
0.207546
0.214225
0.215896
0.217518
0.217579
0.217776
0.217607
0.217534
0.217299
0.217159
0.217025
0.216907
0.216906
0.216855
0.216918
0.217386
0.0230352
0.116215
0.168127
0.196588
0.207546
0.214225
0.215896
0.217518
0.217579
0.217776
0.217607
0.217534
0.2173
0.21716
0.217026
0.216908
0.216907
0.216857
0.21692
0.21739
0.0228518
0.115455
0.167173
0.195687
0.206616
0.213355
0.215
0.216653
0.216702
0.2169
0.216719
0.21665
0.216405
0.216271
0.21612
0.216008
0.215997
0.215953
0.215996
0.216477
0.0231803
0.116782
0.168794
0.197275
0.208332
0.215024
0.21675
0.218365
0.218435
0.218626
0.218455
0.218367
0.218119
0.217967
0.217841
0.217722
0.21774
0.217696
0.217804
0.218316
0.0226402
0.114588
0.16607
0.194717
0.20565
0.212499
0.214109
0.215798
0.215817
0.216001
0.215796
0.215735
0.215488
0.215387
0.215258
0.215204
0.215243
0.215278
0.215422
0.216046
0.0232961
0.117123
0.169159
0.19778
0.209003
0.215791
0.217574
0.219235
0.219345
0.21964
0.219548
0.219593
0.219567
0.219627
0.219838
0.220031
0.220521
0.220767
0.221395
0.222344
0.0223465
0.113387
0.164899
0.194046
0.204988
0.212181
0.213824
0.215989
0.216326
0.217251
0.217597
0.218453
0.21906
0.220093
0.221114
0.222174
0.223624
0.224598
0.226248
0.227701
0.0233796
0.119054
0.175104
0.205048
0.216933
0.224867
0.228248
0.232347
0.234887
0.238322
0.240986
0.244152
0.246878
0.2498
0.252444
0.255029
0.25761
0.25966
0.262102
0.264344
0.0277027
0.143088
0.209891
0.242595
0.257222
0.269596
0.277306
0.285671
0.291109
0.296924
0.300493
0.304201
0.306253
0.308549
0.309547
0.310978
0.311322
0.312122
0.311711
0.313157
0.146691
0.374294
0.451095
0.465342
0.464326
0.460116
0.451662
0.443238
0.434711
0.42689
0.419485
0.412875
0.4067
0.40131
0.396019
0.39188
0.386894
0.384331
0.378572
0.378987
0.876719
1.11925
0.960581
0.767487
0.657753
0.599505
0.559625
0.531768
0.508873
0.490211
0.474888
0.461276
0.450532
0.440229
0.432211
0.424606
0.417466
0.413291
0.404621
0.406656
0.876719
1.11925
0.960581
0.767487
0.657753
0.599504
0.559625
0.531765
0.508874
0.4902
0.474888
0.461247
0.450529
0.440152
0.432192
0.424427
0.417358
0.412921
0.404256
0.40551
0.146691
0.374294
0.451095
0.465342
0.464326
0.460116
0.451664
0.443235
0.434718
0.426881
0.419499
0.412853
0.406732
0.401259
0.396083
0.391775
0.386997
0.384239
0.378622
0.378798
0.0277027
0.143088
0.209892
0.242595
0.257223
0.269595
0.277309
0.285668
0.291115
0.296918
0.300506
0.30419
0.306276
0.308538
0.309583
0.310986
0.311361
0.312186
0.311816
0.313315
0.0233796
0.119054
0.175105
0.205048
0.216934
0.224866
0.22825
0.232346
0.23489
0.238319
0.240993
0.244148
0.246889
0.249798
0.252462
0.255043
0.257643
0.259711
0.262196
0.264482
0.0223465
0.113387
0.1649
0.194045
0.204988
0.212181
0.213825
0.215989
0.216326
0.217251
0.217598
0.21845
0.219068
0.220087
0.221128
0.222173
0.223647
0.224616
0.226286
0.227766
0.0232961
0.117123
0.16916
0.19778
0.209003
0.215791
0.217575
0.219235
0.219345
0.21964
0.219548
0.219592
0.219567
0.219626
0.219841
0.220033
0.220528
0.220773
0.221405
0.222364
0.0226403
0.114588
0.16607
0.194717
0.20565
0.212499
0.21411
0.215798
0.215817
0.216002
0.215797
0.215735
0.215489
0.215387
0.215259
0.215206
0.215244
0.215282
0.215428
0.216056
0.0231804
0.116782
0.168794
0.197275
0.208333
0.215024
0.21675
0.218365
0.218435
0.218627
0.218455
0.218367
0.218119
0.217967
0.217841
0.217721
0.217739
0.217694
0.217803
0.218313
0.0228519
0.115455
0.167173
0.195687
0.206616
0.213355
0.215001
0.216653
0.216702
0.2169
0.216719
0.21665
0.216405
0.216272
0.21612
0.21601
0.215997
0.215956
0.215998
0.216483
0.0230353
0.116215
0.168127
0.196588
0.207546
0.214225
0.215896
0.217518
0.217579
0.217776
0.217607
0.217534
0.2173
0.21716
0.217025
0.216907
0.216906
0.216855
0.216918
0.217386
0.0230353
0.116216
0.168127
0.196588
0.207546
0.214225
0.215896
0.217518
0.217579
0.217776
0.217607
0.217534
0.2173
0.21716
0.217026
0.216908
0.216907
0.216857
0.21692
0.21739
0.0228519
0.115455
0.167173
0.195687
0.206616
0.213355
0.215001
0.216653
0.216702
0.2169
0.216719
0.21665
0.216405
0.216272
0.21612
0.216008
0.215997
0.215953
0.215996
0.216478
0.0231804
0.116782
0.168794
0.197276
0.208332
0.215024
0.21675
0.218365
0.218435
0.218627
0.218455
0.218367
0.21812
0.217967
0.217841
0.217722
0.21774
0.217696
0.217804
0.218316
0.0226402
0.114588
0.16607
0.194717
0.20565
0.212499
0.214109
0.215798
0.215817
0.216002
0.215797
0.215735
0.215488
0.215387
0.215258
0.215204
0.215244
0.215278
0.215422
0.216046
0.0232961
0.117123
0.169159
0.19778
0.209003
0.215791
0.217574
0.219235
0.219345
0.21964
0.219548
0.219593
0.219567
0.219627
0.219838
0.220031
0.220521
0.220767
0.221395
0.222344
0.0223465
0.113388
0.1649
0.194046
0.204988
0.212181
0.213824
0.215989
0.216326
0.217251
0.217597
0.218454
0.21906
0.220093
0.221114
0.222175
0.223624
0.224598
0.226248
0.227701
0.0233796
0.119054
0.175105
0.205048
0.216933
0.224867
0.228248
0.232348
0.234887
0.238322
0.240986
0.244153
0.246878
0.2498
0.252444
0.255029
0.25761
0.25966
0.262102
0.264344
0.0277027
0.143089
0.209891
0.242596
0.257222
0.269597
0.277306
0.285671
0.291109
0.296924
0.300493
0.304201
0.306253
0.308549
0.309547
0.310978
0.311322
0.312123
0.311711
0.313157
0.146691
0.374294
0.451095
0.465342
0.464326
0.460116
0.451662
0.443239
0.434712
0.42689
0.419485
0.412875
0.4067
0.40131
0.396019
0.39188
0.386895
0.384332
0.378572
0.378987
0.876719
1.11925
0.960581
0.767487
0.657753
0.599505
0.559625
0.531768
0.508873
0.490211
0.474888
0.461277
0.450532
0.440229
0.432212
0.424606
0.417466
0.413291
0.404621
0.406656
5.96853
6.78927
6.66027
6.50696
6.48383
6.42272
6.42399
6.38741
6.39181
6.36602
6.37062
6.3517
6.35575
6.34153
6.34483
6.3337
6.3368
6.32592
6.32843
6.34096
4.06791
5.40779
5.56637
5.54413
5.51808
5.48984
5.4749
5.45681
5.44733
5.43461
5.42814
5.41893
5.41475
5.40816
5.40565
5.40063
5.39892
5.39549
5.39256
5.3924
3.50857
4.84556
5.08008
5.13934
5.16023
5.17148
5.17334
5.17392
5.17139
5.16875
5.16486
5.16201
5.15933
5.15718
5.15629
5.15468
5.15567
5.15299
5.15568
5.1686
3.44296
4.77494
4.99644
5.04891
5.06753
5.08352
5.09098
5.09868
5.10103
5.1035
5.10301
5.10273
5.10184
5.10152
5.10218
5.10249
5.10542
5.105
5.1106
5.11392
3.41177
4.73939
4.95777
5.0044
5.01401
5.02422
5.02719
5.03303
5.03435
5.03729
5.03688
5.03698
5.03561
5.03516
5.03522
5.03581
5.03851
5.03953
5.04434
5.05518
3.42579
4.75683
4.97402
5.01937
5.0267
5.03407
5.03439
5.03692
5.03634
5.03735
5.03579
5.0346
5.03111
5.02901
5.02687
5.02608
5.02665
5.02686
5.0293
5.03715
3.41564
4.74399
4.96067
5.00596
5.01272
5.01964
5.01912
5.02086
5.01928
5.01964
5.01729
5.01556
5.01081
5.00773
5.00375
5.00189
5.00067
5.00031
5.00133
5.00822
3.42488
4.75539
4.97141
5.0165
5.0232
5.03015
5.02953
5.03117
5.02937
5.02961
5.0271
5.02529
5.02015
5.01661
5.01167
5.00913
5.00687
5.00563
5.00576
5.01105
3.42022
4.74912
4.96494
5.00985
5.01642
5.02333
5.02266
5.0243
5.02248
5.02278
5.02032
5.01861
5.01351
5.00988
5.00469
5.00192
4.9993
4.99777
4.99748
5.00211
3.42375
4.75322
4.9688
5.01354
5.02005
5.02691
5.02621
5.02784
5.026
5.02631
5.02387
5.02219
5.01713
5.01348
5.00823
5.00536
5.00268
5.00096
5.0006
5.00495
3.42375
4.75322
4.9688
5.01354
5.02005
5.02691
5.02621
5.02784
5.026
5.02631
5.02387
5.02219
5.01713
5.01348
5.00824
5.00536
5.0027
5.00096
5.0006
5.00493
3.42022
4.74912
4.96494
5.00985
5.01642
5.02333
5.02266
5.02431
5.02248
5.02278
5.02032
5.01861
5.01351
5.00988
5.0047
5.0019
4.99933
4.99773
4.99756
5.00211
3.42488
4.75539
4.97141
5.0165
5.02319
5.03016
5.02953
5.03117
5.02936
5.02962
5.0271
5.02529
5.02015
5.01662
5.01167
5.00913
5.00688
5.00561
5.00574
5.01096
3.41563
4.74399
4.96067
5.00596
5.01271
5.01964
5.01912
5.02087
5.01927
5.01965
5.01727
5.01558
5.01078
5.00779
5.00369
5.00196
5.0006
5.00036
5.00135
5.00825
3.42579
4.75684
4.97401
5.01938
5.02669
5.03408
5.03438
5.03693
5.03633
5.03737
5.03574
5.03464
5.03104
5.02914
5.02671
5.02622
5.02636
5.02708
5.02904
5.03723
3.41177
4.73939
4.95776
5.00441
5.014
5.02424
5.02718
5.03304
5.03433
5.03731
5.03682
5.03703
5.0355
5.03532
5.03502
5.03609
5.0378
5.04034
5.04355
5.05609
3.44296
4.77494
4.99644
5.04891
5.06752
5.08353
5.09097
5.0987
5.10099
5.10354
5.10294
5.10279
5.10172
5.10169
5.10183
5.10292
5.10443
5.10623
5.10825
5.11683
3.50857
4.84556
5.08008
5.13934
5.16023
5.17149
5.17333
5.17393
5.17136
5.16879
5.16479
5.16211
5.15918
5.15741
5.15593
5.15517
5.1549
5.15448
5.153
5.17336
4.06791
5.40779
5.56637
5.54413
5.51808
5.48985
5.47489
5.45681
5.44732
5.43463
5.42811
5.41898
5.41467
5.40829
5.40546
5.40097
5.3984
5.39653
5.39061
5.39796
5.96853
6.78927
6.66027
6.50696
6.48383
6.42272
6.42399
6.38741
6.3918
6.36603
6.3706
6.35173
6.35572
6.34161
6.34477
6.33392
6.33664
6.3266
6.32762
6.34473
75.6153
79.8551
79.8365
79.8851
79.8446
79.8673
79.829
79.8415
79.8046
79.8124
79.7834
79.792
79.7732
79.7838
79.7751
79.7844
79.7889
79.7811
79.8613
79.9046
17.7267
16.11
15.0478
14.6507
14.5027
14.4692
14.4195
14.417
14.3922
14.3921
14.3735
14.375
14.3614
14.3642
14.3548
14.3575
14.3527
14.3496
14.3962
14.4028
6.92677
6.88463
6.62499
6.43881
6.34976
6.31832
6.28072
6.2682
6.24244
6.23382
6.21389
6.20785
6.19287
6.18926
6.17842
6.17609
6.16898
6.16681
6.16605
6.18281
4.93378
5.52364
5.58374
5.58312
5.5728
5.56971
5.55679
5.55046
5.53592
5.52831
5.51392
5.50608
5.49377
5.48745
5.47882
5.47426
5.4697
5.46513
5.46515
5.47497
4.52222
5.27851
5.41762
5.4656
5.47471
5.48966
5.4876
5.49085
5.48505
5.48392
5.47528
5.47139
5.46118
5.4572
5.44909
5.44645
5.44177
5.43998
5.43856
5.44676
4.46849
5.24808
5.40502
5.46507
5.48128
5.50402
5.50718
5.51719
5.51588
5.52002
5.5159
5.5159
5.50912
5.50688
5.49997
5.49859
5.49443
5.49405
5.49311
5.50044
4.45076
5.23028
5.38882
5.45189
5.47085
5.49731
5.50346
5.51821
5.51998
5.52858
5.52781
5.53156
5.52775
5.52816
5.52369
5.52393
5.52134
5.52235
5.52196
5.53036
4.45955
5.23287
5.3909
5.45457
5.47512
5.50357
5.51161
5.52916
5.53304
5.54499
5.54663
5.5535
5.5521
5.55482
5.5524
5.55437
5.5536
5.55547
5.55753
5.56523
4.4574
5.22733
5.38398
5.44693
5.46747
5.49629
5.50489
5.52343
5.52827
5.54175
5.54471
5.55367
5.55376
5.55802
5.55721
5.56042
5.56123
5.56448
5.56772
5.57658
4.46146
5.22884
5.38492
5.44772
5.46834
5.49729
5.50608
5.52494
5.53014
5.54419
5.5477
5.55753
5.55832
5.56338
5.56332
5.56715
5.56887
5.57269
5.57711
5.58587
4.46146
5.22884
5.38492
5.44772
5.46834
5.49729
5.50608
5.52494
5.53014
5.54419
5.5477
5.55753
5.55832
5.56338
5.56333
5.56715
5.56889
5.5727
5.57714
5.58591
4.4574
5.22733
5.38398
5.44693
5.46747
5.49629
5.50488
5.52343
5.52827
5.54175
5.54471
5.55367
5.55377
5.55801
5.55723
5.56041
5.56126
5.56447
5.56783
5.57664
4.45955
5.23287
5.39089
5.45458
5.47511
5.50358
5.5116
5.52916
5.53304
5.545
5.54662
5.55351
5.5521
5.55483
5.5524
5.55438
5.55364
5.55548
5.55763
5.56533
4.45076
5.23029
5.38882
5.4519
5.47084
5.49731
5.50345
5.51822
5.51997
5.52859
5.5278
5.53158
5.52772
5.5282
5.52366
5.52401
5.52133
5.5225
5.52207
5.53061
4.46849
5.24809
5.40502
5.46508
5.48127
5.50403
5.50718
5.5172
5.51586
5.52004
5.51585
5.51594
5.50906
5.50695
5.49986
5.49876
5.49428
5.49445
5.49287
5.50089
4.52222
5.27852
5.41761
5.46561
5.4747
5.48967
5.48759
5.49087
5.48502
5.48395
5.47523
5.47146
5.46107
5.45734
5.44885
5.44682
5.4412
5.44107
5.43754
5.44839
4.93378
5.52364
5.58374
5.58312
5.57279
5.56971
5.55677
5.55048
5.53589
5.52837
5.51383
5.50622
5.49357
5.48776
5.47834
5.47501
5.46849
5.46713
5.46246
5.47853
6.92677
6.88463
6.62499
6.43881
6.34976
6.31833
6.28071
6.26821
6.24242
6.23384
6.21383
6.20792
6.19273
6.18943
6.1781
6.17653
6.16813
6.16854
6.1627
6.18974
17.7267
16.11
15.0478
14.6507
14.5027
14.4692
14.4195
14.417
14.3922
14.3921
14.3734
14.3751
14.3613
14.3644
14.3544
14.3581
14.3516
14.3515
14.3902
14.4157
75.6153
79.8551
79.8365
79.8852
79.8445
79.8673
79.829
79.8415
79.8044
79.8126
79.7832
79.7924
79.7726
79.7847
79.7736
79.7868
79.7847
79.7891
79.8417
79.9606
184.234
187.001
188.639
190.039
191.222
192.321
193.181
193.883
194.385
194.806
195.126
195.412
195.623
195.797
195.906
195.99
196.032
196.066
196.078
196.091
196.092
196.098
196.096
196.1
196.098
196.1
196.097
196.099
196.097
196.097
196.095
196.095
196.093
196.093
196.09
196.09
196.087
196.086
196.083
196.082
196.079
196.078
196.074
196.073
196.069
196.067
196.063
196.061
196.057
196.054
196.05
196.047
196.043
196.04
196.035
196.032
196.027
196.023
196.018
196.014
196.009
196.004
195.999
195.994
195.989
195.984
195.978
195.973
195.967
195.962
195.955
195.95
195.943
195.938
195.931
195.925
195.918
195.912
195.905
195.897
195.893
195.88
195.883
195.857
195.878
195.825
195.883
195.785
195.857
195.762
58.8233
60.1217
60.6232
61.0743
61.4356
61.7928
62.0561
62.2861
62.4372
62.5765
62.6713
62.7668
62.8276
62.8865
62.9156
62.9449
62.9532
62.9662
62.9652
62.9712
62.9674
62.9708
62.9663
62.9687
62.9643
62.9661
62.962
62.9634
62.9595
62.9606
62.9569
62.9577
62.9541
62.9548
62.9513
62.9517
62.9484
62.9487
62.9455
62.9456
62.9426
62.9426
62.9396
62.9395
62.9367
62.9365
62.9339
62.9336
62.931
62.9308
62.9283
62.928
62.9257
62.9253
62.9231
62.9227
62.9206
62.9203
62.9182
62.9178
62.9159
62.9155
62.9136
62.9132
62.9114
62.9109
62.9091
62.9086
62.9068
62.9063
62.9045
62.9038
62.902
62.9013
62.8994
62.8986
62.8967
62.8956
62.8938
62.8921
62.891
62.8878
62.8888
62.8816
62.8883
62.872
62.8902
62.8603
62.8754
62.8467
26.2871
27.3269
27.5167
27.7124
27.8461
28.0094
28.1116
28.2212
28.2758
28.3424
28.373
28.4196
28.4375
28.4679
28.473
28.4891
28.4853
28.4929
28.4852
28.489
28.4803
28.4825
28.4739
28.4754
28.4672
28.4682
28.4605
28.4611
28.4538
28.4542
28.4473
28.4474
28.4408
28.4407
28.4344
28.4342
28.4281
28.4277
28.4219
28.4214
28.4159
28.4153
28.41
28.4093
28.4043
28.4035
28.3987
28.398
28.3934
28.3926
28.3884
28.3876
28.3836
28.3828
28.3791
28.3784
28.3749
28.3742
28.371
28.3704
28.3674
28.3669
28.3641
28.3637
28.3611
28.3608
28.3584
28.3582
28.356
28.3558
28.3538
28.3537
28.3518
28.3517
28.35
28.3499
28.3483
28.3482
28.3468
28.3465
28.3455
28.3445
28.3445
28.3419
28.3444
28.3379
28.3453
28.3334
28.3365
28.319
18.7184
19.8649
19.9823
20.1059
20.1744
20.2884
20.351
20.4343
20.4641
20.5128
20.5246
20.559
20.5654
20.59
20.5888
20.6023
20.5943
20.6003
20.5887
20.5911
20.5786
20.5794
20.5672
20.5673
20.5557
20.5554
20.5444
20.5438
20.5333
20.5325
20.5225
20.5215
20.5119
20.5107
20.5016
20.5002
20.4915
20.49
20.4817
20.4801
20.4721
20.4704
20.4627
20.461
20.4537
20.452
20.445
20.4432
20.4366
20.4349
20.4286
20.4269
20.421
20.4194
20.4139
20.4123
20.4071
20.4057
20.4008
20.3995
20.395
20.3938
20.3896
20.3885
20.3847
20.3838
20.3802
20.3794
20.3762
20.3755
20.3726
20.3721
20.3694
20.369
20.3666
20.3663
20.3641
20.3639
20.362
20.3617
20.3603
20.3597
20.3592
20.3574
20.3587
20.3547
20.359
20.3523
20.3543
20.3407
17.0945
18.3679
18.4691
18.565
18.6062
18.7027
18.7551
18.8352
18.8587
18.9027
18.9077
18.9381
18.9417
18.9665
18.965
18.9796
18.9707
18.9769
18.9636
18.9655
18.9509
18.9509
18.9365
18.9358
18.9219
18.9208
18.9076
18.9063
18.8938
18.8922
18.8802
18.8785
18.8671
18.8651
18.8543
18.8522
18.8418
18.8396
18.8296
18.8274
18.8179
18.8156
18.8065
18.8042
18.7955
18.7932
18.7849
18.7827
18.7748
18.7726
18.7652
18.7631
18.7561
18.7541
18.7476
18.7457
18.7396
18.7378
18.7321
18.7305
18.7253
18.7238
18.719
18.7177
18.7133
18.7122
18.7081
18.7072
18.7035
18.7028
18.6995
18.6989
18.6959
18.6955
18.6928
18.6925
18.6902
18.69
18.688
18.6878
18.6863
18.6859
18.6852
18.684
18.6847
18.682
18.6848
18.6806
18.6828
18.6703
16.8256
18.2542
18.3585
18.4387
18.4602
18.5432
18.591
18.673
18.6948
18.737
18.7373
18.7653
18.7676
18.7939
18.7935
18.8104
18.802
18.8094
18.7953
18.7972
18.7813
18.7809
18.7648
18.7635
18.7481
18.7464
18.7317
18.7298
18.7158
18.7137
18.7004
18.6981
18.6854
18.683
18.6708
18.6683
18.6567
18.6541
18.6429
18.6403
18.6297
18.627
18.6168
18.6142
18.6045
18.6019
18.5927
18.5901
18.5814
18.5789
18.5707
18.5684
18.5606
18.5584
18.5512
18.5492
18.5424
18.5406
18.5343
18.5326
18.5269
18.5254
18.5201
18.5189
18.5141
18.513
18.5086
18.5078
18.5039
18.5032
18.4997
18.4992
18.4961
18.4958
18.493
18.4929
18.4905
18.4905
18.4885
18.4886
18.487
18.487
18.4862
18.4854
18.4859
18.4841
18.486
18.4837
18.4849
18.4728
16.7612
18.3008
18.4176
18.4889
18.4928
18.562
18.6039
18.6869
18.707
18.7473
18.7428
18.7679
18.7679
18.7951
18.7956
18.8148
18.8071
18.8156
18.8012
18.8033
18.7863
18.7856
18.7683
18.7666
18.7498
18.7478
18.7318
18.7296
18.7144
18.7119
18.6974
18.6948
18.681
18.6783
18.665
18.6622
18.6496
18.6467
18.6346
18.6316
18.6201
18.6171
18.6061
18.6032
18.5927
18.5898
18.5798
18.577
18.5676
18.5649
18.556
18.5535
18.5451
18.5428
18.5349
18.5328
18.5255
18.5236
18.5168
18.5151
18.5089
18.5074
18.5018
18.5005
18.4954
18.4944
18.4898
18.489
18.4848
18.4842
18.4805
18.4802
18.4769
18.4768
18.4739
18.474
18.4715
18.4717
18.4697
18.4699
18.4684
18.4686
18.4678
18.4674
18.4677
18.4667
18.4678
18.467
18.4677
18.4555
16.8097
18.4482
18.5774
18.6423
18.6317
18.6884
18.7234
18.8055
18.824
18.8617
18.8523
18.8738
18.8711
18.8983
18.8993
18.9204
18.9134
18.923
18.9084
18.9107
18.893
18.8922
18.8738
18.8719
18.8541
18.8517
18.8348
18.8322
18.816
18.8133
18.7979
18.795
18.7804
18.7774
18.7633
18.7602
18.7468
18.7437
18.7308
18.7277
18.7154
18.7122
18.7005
18.6974
18.6862
18.6832
18.6726
18.6696
18.6596
18.6567
18.6473
18.6446
18.6358
18.6333
18.625
18.6228
18.6151
18.613
18.606
18.6042
18.5977
18.5961
18.5902
18.5889
18.5836
18.5825
18.5777
18.577
18.5726
18.5721
18.5683
18.568
18.5647
18.5646
18.5617
18.5619
18.5594
18.5597
18.5577
18.5581
18.5566
18.557
18.5561
18.5562
18.5562
18.556
18.5564
18.5567
18.5569
18.5446
16.8219
18.5151
18.6585
18.722
18.7006
18.747
18.7744
18.8531
18.8691
18.9034
18.8892
18.9069
18.901
18.9274
18.9283
18.9503
18.9438
18.9542
18.9396
18.942
18.9239
18.9229
18.904
18.9018
18.8834
18.8808
18.8632
18.8604
18.8437
18.8408
18.8248
18.8217
18.8065
18.8033
18.7888
18.7855
18.7716
18.7683
18.755
18.7517
18.739
18.7356
18.7235
18.7202
18.7087
18.7054
18.6945
18.6914
18.681
18.6781
18.6683
18.6655
18.6563
18.6538
18.6452
18.6429
18.6349
18.6328
18.6255
18.6237
18.617
18.6154
18.6093
18.608
18.6025
18.6015
18.5965
18.5958
18.5914
18.5909
18.587
18.5868
18.5834
18.5834
18.5805
18.5807
18.5782
18.5786
18.5766
18.5772
18.5756
18.5762
18.5753
18.5757
18.5755
18.5759
18.5758
18.5768
18.577
18.5642
16.8464
18.5728
18.723
18.7819
18.7509
18.7884
18.8083
18.8817
18.894
18.9236
18.905
18.9186
18.9098
18.9347
18.935
18.957
18.9506
18.9612
18.9465
18.949
18.9307
18.9296
18.9103
18.908
18.8893
18.8866
18.8687
18.8657
18.8487
18.8456
18.8294
18.8262
18.8108
18.8075
18.7927
18.7893
18.7752
18.7718
18.7583
18.7548
18.7419
18.7385
18.7262
18.7228
18.7111
18.7078
18.6966
18.6935
18.6829
18.6799
18.67
18.6672
18.6578
18.6552
18.6465
18.6442
18.6361
18.634
18.6266
18.6247
18.6179
18.6164
18.6102
18.6089
18.6033
18.6023
18.5973
18.5966
18.5921
18.5917
18.5878
18.5876
18.5841
18.5842
18.5813
18.5816
18.5791
18.5796
18.5775
18.5782
18.5766
18.5774
18.5764
18.577
18.5766
18.5774
18.5771
18.5785
18.5787
18.566
16.8471
18.5724
18.7181
18.7694
18.731
18.7612
18.7741
18.8402
18.8473
18.8713
18.8487
18.8589
18.8476
18.8707
18.8699
18.8912
18.8844
18.8947
18.88
18.8824
18.864
18.8629
18.8436
18.8413
18.8226
18.8199
18.802
18.799
18.782
18.779
18.7628
18.7596
18.7441
18.7408
18.7261
18.7227
18.7086
18.7052
18.6917
18.6883
18.6754
18.672
18.6596
18.6563
18.6446
18.6413
18.6301
18.627
18.6165
18.6134
18.6035
18.6007
18.5914
18.5888
18.5801
18.5777
18.5697
18.5676
18.5602
18.5583
18.5515
18.55
18.5438
18.5425
18.5369
18.5359
18.5309
18.5302
18.5258
18.5253
18.5214
18.5212
18.5178
18.5179
18.5149
18.5152
18.5128
18.5132
18.5112
18.5119
18.5103
18.5111
18.51
18.5108
18.5102
18.5112
18.5107
18.5123
18.5125
18.5001
16.8245
18.5145
18.644
18.6836
18.6389
18.663
18.6693
18.7262
18.727
18.7446
18.7188
18.7264
18.7132
18.7345
18.7322
18.7521
18.7445
18.7541
18.7393
18.7415
18.7233
18.7222
18.7033
18.7011
18.6827
18.6802
18.6626
18.6598
18.6431
18.6402
18.6243
18.6212
18.6061
18.6029
18.5884
18.5851
18.5713
18.568
18.5547
18.5514
18.5387
18.5354
18.5233
18.5201
18.5086
18.5054
18.4944
18.4913
18.481
18.478
18.4683
18.4655
18.4564
18.4538
18.4453
18.443
18.4351
18.433
18.4257
18.4239
18.4172
18.4156
18.4095
18.4083
18.4028
18.4018
18.3968
18.3961
18.3917
18.3912
18.3874
18.3871
18.3837
18.3838
18.3808
18.3811
18.3786
18.379
18.377
18.3776
18.376
18.3767
18.3755
18.3764
18.3756
18.3767
18.3759
18.3775
18.3775
18.3655
16.8129
18.4392
18.5389
18.563
18.5134
18.5328
18.5334
18.5802
18.5741
18.5858
18.5577
18.5634
18.5494
18.5687
18.5648
18.5826
18.574
18.5825
18.5676
18.5695
18.5517
18.5507
18.5324
18.5304
18.5127
18.5103
18.4934
18.4908
18.4747
18.472
18.4567
18.4538
18.4392
18.4362
18.4222
18.4191
18.4058
18.4026
18.3899
18.3867
18.3745
18.3714
18.3597
18.3566
18.3455
18.3425
18.3319
18.329
18.319
18.3162
18.3068
18.3041
18.2953
18.2929
18.2846
18.2824
18.2747
18.2727
18.2657
18.2639
18.2574
18.2559
18.25
18.2487
18.2433
18.2423
18.2375
18.2368
18.2325
18.232
18.2281
18.2279
18.2245
18.2245
18.2216
18.2217
18.2193
18.2196
18.2175
18.2181
18.2163
18.2171
18.2157
18.2165
18.2156
18.2166
18.2157
18.2172
18.217
18.206
16.7639
18.2754
18.3417
18.3509
18.2987
18.3153
18.3107
18.3475
18.3345
18.3413
18.3123
18.3174
18.3033
18.3205
18.315
18.3303
18.3206
18.3277
18.3128
18.3144
18.2973
18.2965
18.2792
18.2775
18.2607
18.2587
18.2427
18.2404
18.2253
18.2228
18.2084
18.2058
18.1921
18.1893
18.1762
18.1734
18.1608
18.1579
18.1459
18.143
18.1315
18.1286