/*--------------------------------*- C++ -*----------------------------------*\
  =========                 |
  \\      /  F ield         | OpenFOAM: The Open Source CFD Toolbox
   \\    /   O peration     | Website:  https://openfoam.org
    \\  /    A nd           | Version:  7
     \\/     M anipulation  |
\*---------------------------------------------------------------------------*/
FoamFile
{
    version     2.0;
    format      ascii;
    class       surfaceScalarField;
    location    "0.95";
    object      phi;
}
// * * * * * * * * * * * * * * * * * * * * * * * * * * * * * * * * * * * * * //

dimensions      [1 0 -1 0 0 0 0];

internalField   nonuniform List<scalar> 
9188
(
0.0137051
4.45433e-05
0.0135777
0.000129537
0.0133758
0.000204041
0.0131105
0.000267627
0.0127923
0.000320527
0.0124331
0.000361718
0.0120449
0.000390676
0.0116389
0.000408632
0.0112241
0.00041741
0.0108078
0.000418971
0.0103957
0.000414759
0.00999268
0.000405758
0.00960202
0.000393372
0.00922634
0.00037829
0.00886765
0.000361241
0.00852711
0.000343112
0.00820527
0.000324332
0.00790236
0.000305128
0.00761849
0.000285817
0.0073536
0.000266816
0.00710726
0.000248445
0.00687869
0.000230827
0.00666697
0.000213962
0.00647118
0.000197844
0.00629052
0.000182511
0.00612419
0.000168023
0.00597144
0.000154401
0.00583145
0.000141653
0.00570332
0.000129815
0.00558618
0.000118861
0.00547942
0.000108516
0.00538235
9.88762e-05
0.00529375
9.04331e-05
0.00521266
8.28988e-05
0.00513833
7.61008e-05
0.00507011
6.99116e-05
0.00500748
6.42707e-05
0.00494991
5.914e-05
0.00489694
5.44801e-05
0.00484812
5.02543e-05
0.00480303
4.64372e-05
0.00476126
4.30141e-05
0.00472241
3.99691e-05
0.00468614
3.72735e-05
0.00465216
3.48841e-05
0.00462023
3.2754e-05
0.00459015
3.08473e-05
0.00456175
2.91458e-05
0.00453484
2.7638e-05
0.00450928
2.63067e-05
0.00448493
2.5124e-05
0.0044617
2.40585e-05
0.00443953
2.30888e-05
0.00441832
2.22104e-05
0.00439798
2.1431e-05
0.0043784
2.07564e-05
0.00435947
2.01817e-05
0.0043411
1.9691e-05
0.0043232
1.92639e-05
0.0043057
1.88832e-05
0.00428856
1.85363e-05
0.00427174
1.82171e-05
0.00425518
1.79222e-05
0.00423885
1.76528e-05
0.0042227
1.74068e-05
0.00420669
1.71977e-05
0.00419078
1.70098e-05
0.0041749
1.68867e-05
0.00415906
1.67519e-05
0.00414314
1.6747e-05
0.00412728
1.66082e-05
0.00411113
1.68458e-05
0.00409528
1.6508e-05
0.00407851
1.73988e-05
0.00406321
1.59254e-05
0.00404516
1.86836e-05
0.00403399
1.18289e-05
0.00401325
2.14479e-05
0.00402472
-1.07471e-05
2.96199e-05
0.00399591
0.0137604
3.35816e-05
0.0137996
9.22809e-05
0.0138601
0.000145609
0.0139349
0.000194929
0.0140176
0.000239993
0.0141016
0.000279997
0.0141806
0.000313997
0.01425
0.000341602
0.014307
0.00036293
0.0143501
0.000378399
0.0143788
0.000388576
0.0143931
0.000393978
0.0143939
0.00039515
0.014382
0.00039263
0.0143587
0.000386981
0.0143254
0.000378799
0.0142835
0.000368595
0.014234
0.000356783
0.0141781
0.000343752
0.0141169
0.000329884
0.0140516
0.00031552
0.0139834
0.000300938
0.0139131
0.000286357
0.0138409
0.000271944
0.0137673
0.000257817
0.0136926
0.000244041
0.0136175
0.000230639
0.0135429
0.000217689
0.0134694
0.000205279
0.0133976
0.000193426
0.0133271
0.000182251
0.0132575
0.00017195
0.0131888
0.000162614
0.0131209
0.000154088
0.0130535
0.000146201
0.0129869
0.000138862
0.0129211
0.000132025
0.0128562
0.000125668
0.0127922
0.000119767
0.0127293
0.0001143
0.0126674
0.000109251
0.0126066
0.00010462
0.0125467
0.000100405
0.0124879
9.6592e-05
0.01243
9.31463e-05
0.0123729
9.00012e-05
0.0123166
8.70937e-05
0.0122613
8.44073e-05
0.012207
8.19504e-05
0.0121536
7.97041e-05
0.0121011
7.76248e-05
0.0120494
7.56656e-05
0.0119985
7.37995e-05
0.0119485
7.20326e-05
0.0118995
7.03913e-05
0.0118515
6.89009e-05
0.0118046
6.75641e-05
0.0117585
6.63587e-05
0.0117129
6.52473e-05
0.0116679
6.41936e-05
0.0116233
6.31706e-05
0.0115791
6.2164e-05
0.0115354
6.11722e-05
0.0114923
6.01993e-05
0.0114499
5.92591e-05
0.0114082
5.83679e-05
0.0113673
5.75356e-05
0.0113271
5.67854e-05
0.0112875
5.60967e-05
0.0112484
5.5528e-05
0.0112098
5.4975e-05
0.0111718
5.46585e-05
0.011134
5.41833e-05
0.011097
5.42923e-05
0.0110592
5.36747e-05
0.0110232
5.47544e-05
0.0109815
5.3578e-05
0.0109457
5.74355e-05
0.0108801
5.51167e-05
6.62805e-05
0.010844
0.0137556
2.70445e-05
0.0137802
6.92918e-05
0.0138198
0.000107689
0.013873
0.000143518
0.0139387
0.00017602
0.0140159
0.000204767
0.0141025
0.000229414
0.0141963
0.000249804
0.0142954
0.000266002
0.0143977
0.000278257
0.0145015
0.000286951
0.0146053
0.000292468
0.0147075
0.000295114
0.014807
0.000295198
0.014903
0.000293055
0.0149948
0.000289044
0.015082
0.000283481
0.0151642
0.000276631
0.0152409
0.000268744
0.0153122
0.000260093
0.015378
0.00025093
0.0154389
0.000241467
0.0154951
0.000231862
0.0155468
0.000222233
0.0155939
0.00021266
0.0156361
0.000203207
0.0156737
0.000193914
0.0157069
0.000184845
0.0157366
0.000176087
0.0157633
0.000167713
0.0157878
0.000159763
0.0158104
0.00015235
0.0158314
0.000145561
0.0158504
0.000139338
0.0158673
0.000133578
0.0158819
0.000128222
0.015894
0.000123234
0.0159037
0.000118595
0.0159112
0.000114289
0.0159166
0.000110301
0.0159201
0.000106614
0.0159221
0.000103231
0.0159226
0.000100152
0.015922
9.73648e-05
0.0159202
9.48439e-05
0.0159173
9.25521e-05
0.0159136
9.04573e-05
0.0159089
8.85521e-05
0.0159035
8.68226e-05
0.0158975
8.52455e-05
0.015891
8.37888e-05
0.0158838
8.24257e-05
0.0158759
8.11392e-05
0.0158674
7.99317e-05
0.0158583
7.88139e-05
0.015849
7.7801e-05
0.0158394
7.68964e-05
0.0158296
7.60912e-05
0.0158195
7.53609e-05
0.0158088
7.468e-05
0.0157975
7.40232e-05
0.0157855
7.33742e-05
0.0157729
7.27281e-05
0.01576
7.20884e-05
0.0157469
7.14769e-05
0.0157338
7.0903e-05
0.0157206
7.03982e-05
0.015707
6.99513e-05
0.0156929
6.96126e-05
0.0156781
6.93037e-05
0.0156623
6.91615e-05
0.0156457
6.89869e-05
0.0156279
6.91388e-05
0.01561
6.90968e-05
0.0155905
6.98611e-05
0.0155721
7.00236e-05
0.0155504
7.24879e-05
0.0155324
7.30651e-05
0.0155048
8.07397e-05
8.23457e-05
0.0154872
0.0137546
2.10643e-05
0.0137756
4.9342e-05
0.0138102
7.43234e-05
0.0138571
9.78404e-05
0.0139153
0.000119158
0.0139834
0.000138006
0.0140601
0.000154217
0.0141438
0.000167705
0.014233
0.000178487
0.0143262
0.000186678
0.0144224
0.000192494
0.0145205
0.000196188
0.0146194
0.000197986
0.0147181
0.000198092
0.014816
0.000196728
0.0149125
0.000194134
0.0150071
0.000190531
0.0150993
0.000186105
0.0151883
0.000181028
0.0152739
0.000175469
0.015356
0.000169584
0.0154349
0.0001635
0.0155108
0.00015732
0.0155836
0.00015112
0.0156529
0.000144952
0.0157183
0.000138849
0.0157797
0.000132839
0.0158374
0.000126962
0.015892
0.000121277
0.0159442
0.000115837
0.0159946
0.000110692
0.0160436
0.000105909
0.0160912
0.000101522
0.0161372
9.74947e-05
0.0161812
9.3767e-05
0.016223
9.03019e-05
0.0162624
8.70804e-05
0.0162994
8.40916e-05
0.0163342
8.13254e-05
0.0163668
7.87699e-05
0.0163975
7.64165e-05
0.0164266
7.4263e-05
0.0164543
7.23089e-05
0.0164808
7.05502e-05
0.0165061
6.89679e-05
0.0165304
6.75371e-05
0.0165536
6.6239e-05
0.016576
6.50761e-05
0.0165977
6.40352e-05
0.0166188
6.31043e-05
0.0166395
6.22557e-05
0.0166596
6.14691e-05
0.0166791
6.07332e-05
0.0166979
6.00504e-05
0.0167161
5.94287e-05
0.0167337
5.88763e-05
0.0167512
5.84006e-05
0.0167685
5.79937e-05
0.0167858
5.76434e-05
0.0168028
5.73409e-05
0.0168192
5.70654e-05
0.0168348
5.67952e-05
0.0168494
5.65251e-05
0.0168632
5.62522e-05
0.0168764
5.60017e-05
0.0168895
5.57672e-05
0.0169028
5.55959e-05
0.0169163
5.54567e-05
0.0169298
5.54406e-05
0.0169431
5.54045e-05
0.0169559
5.55829e-05
0.0169678
5.56258e-05
0.0169785
5.61331e-05
0.0169881
5.62119e-05
0.0169964
5.74436e-05
0.0170041
5.75433e-05
0.0170109
6.06929e-05
0.0170181
6.09362e-05
0.0170251
6.90879e-05
6.92943e-05
0.0170341
0.0137539
1.52257e-05
0.0137736
3.00906e-05
0.0138062
4.23159e-05
0.0138508
5.385e-05
0.0139063
6.43351e-05
0.0139715
7.36255e-05
0.014045
8.16415e-05
0.0141253
8.83416e-05
0.0142112
9.37226e-05
0.0143011
9.78202e-05
0.0143941
0.000100726
0.0144889
0.000102567
0.0145846
0.00010347
0.0146802
0.000103547
0.0147751
0.000102907
0.0148686
0.000101662
0.0149604
9.99109e-05
0.0150498
9.77366e-05
0.0151364
9.52152e-05
0.0152199
9.24281e-05
0.0153002
8.94679e-05
0.0153778
8.64079e-05
0.0154526
8.33051e-05
0.0155248
8.01933e-05
0.0155937
7.70953e-05
0.015659
7.40278e-05
0.0157206
7.10114e-05
0.0157788
6.80701e-05
0.015834
6.52377e-05
0.0158872
6.25445e-05
0.0159388
6.00091e-05
0.0159892
5.7648e-05
0.0160384
5.54726e-05
0.0160861
5.34689e-05
0.0161319
5.16149e-05
0.0161756
4.98975e-05
0.0162171
4.83123e-05
0.0162562
4.68548e-05
0.0162932
4.55199e-05
0.0163282
4.42996e-05
0.0163614
4.31856e-05
0.016393
4.21682e-05
0.0164233
4.12483e-05
0.0164526
4.04313e-05
0.0164807
3.97475e-05
0.0165078
3.90848e-05
0.016534
3.84636e-05
0.0165594
3.79525e-05
0.0165842
3.75108e-05
0.0166085
3.71308e-05
0.0166326
3.67732e-05
0.0166562
3.6439e-05
0.0166792
3.61459e-05
0.0167016
3.58872e-05
0.0167234
3.56658e-05
0.0167449
3.54753e-05
0.0167662
3.53371e-05
0.0167876
3.52418e-05
0.016809
3.51385e-05
0.0168304
3.50801e-05
0.0168512
3.50468e-05
0.0168712
3.50233e-05
0.0168903
3.50064e-05
0.0169086
3.49898e-05
0.0169265
3.50027e-05
0.0169444
3.50187e-05
0.0169626
3.5058e-05
0.0169812
3.51539e-05
0.0170001
3.5304e-05
0.0170189
3.54137e-05
0.0170374
3.56704e-05
0.0170551
3.58554e-05
0.0170719
3.63344e-05
0.0170875
3.65442e-05
0.0171025
3.746e-05
0.0171166
3.76873e-05
0.0171316
3.96624e-05
0.0171466
3.99105e-05
0.0171657
4.43087e-05
4.42806e-05
0.0171855
0.0137539
8.78495e-06
0.0137728
1.0909e-05
0.0138044
1.05805e-05
0.0138477
1.04881e-05
0.0139017
1.04044e-05
0.0139651
1.03094e-05
0.0140368
1.02137e-05
0.0141154
1.01223e-05
0.0141995
1.00248e-05
0.0142878
9.91029e-06
0.0143793
9.78369e-06
0.0144728
9.66197e-06
0.0145673
9.55938e-06
0.0146618
9.47687e-06
0.0147557
9.40428e-06
0.0148485
9.32993e-06
0.0149398
9.24714e-06
0.0150288
9.15769e-06
0.0151152
9.06966e-06
0.0151984
8.99016e-06
0.0152786
8.9256e-06
0.015356
8.87988e-06
0.0154308
8.85051e-06
0.0155028
8.83308e-06
0.0155715
8.82218e-06
0.0156367
8.81128e-06
0.0156981
8.80059e-06
0.015756
8.79421e-06
0.0158111
8.79727e-06
0.0158642
8.81325e-06
0.0159158
8.84546e-06
0.0159661
8.88759e-06
0.0160153
8.93144e-06
0.0160628
8.97583e-06
0.0161085
9.02262e-06
0.016152
9.07385e-06
0.0161933
9.13409e-06
0.0162322
9.20608e-06
0.016269
9.28897e-06
0.0163038
9.38289e-06
0.0163368
9.49593e-06
0.0163682
9.61387e-06
0.0163985
9.70011e-06
0.0164275
9.80853e-06
0.0164556
9.91264e-06
0.0164826
1.0039e-05
0.0165087
1.01358e-05
0.016534
1.02718e-05
0.0165587
1.04098e-05
0.016583
1.05532e-05
0.0166069
1.06824e-05
0.0166304
1.08129e-05
0.0166533
1.09383e-05
0.0166756
1.10759e-05
0.0166974
1.12336e-05
0.0167188
1.13466e-05
0.0167401
1.15388e-05
0.0167615
1.17461e-05
0.016783
1.19138e-05
0.0168042
1.2092e-05
0.016825
1.22792e-05
0.0168449
1.24699e-05
0.016864
1.2669e-05
0.0168823
1.28972e-05
0.0169002
1.31213e-05
0.0169182
1.33824e-05
0.0169365
1.35889e-05
0.0169553
1.38534e-05
0.0169744
1.41249e-05
0.0169934
1.4417e-05
0.0170121
1.46902e-05
0.0170298
1.50323e-05
0.0170468
1.53276e-05
0.0170626
1.57264e-05
0.017078
1.6009e-05
0.0170925
1.64826e-05
0.0171085
1.66629e-05
0.0171242
1.71875e-05
0.0171449
1.71341e-05
1.77491e-05
0.0171654
0.0137538
1.7908e-06
0.0137728
-9.0678e-06
0.0138044
-2.18619e-05
0.0138477
-3.35654e-05
0.0139017
-4.4225e-05
0.0139651
-5.37101e-05
0.0140368
-6.19124e-05
0.0141154
-6.87849e-05
0.0141995
-7.43507e-05
0.0142878
-7.86679e-05
0.0143793
-8.18184e-05
0.0144728
-8.38945e-05
0.0145673
-8.49967e-05
0.0146619
-8.52345e-05
0.0147558
-8.47386e-05
0.0148486
-8.36391e-05
0.0149398
-8.2048e-05
0.0150289
-8.00465e-05
0.0151152
-7.76968e-05
0.0151985
-7.50599e-05
0.0152787
-7.22198e-05
0.0153562
-6.92476e-05
0.0154309
-6.62007e-05
0.0155029
-6.31221e-05
0.0155717
-6.00476e-05
0.0156368
-5.70018e-05
0.0156982
-5.40066e-05
0.0157562
-5.10788e-05
0.0158113
-4.82411e-05
0.0158643
-4.55155e-05
0.0159159
-4.29215e-05
0.0159664
-4.04813e-05
0.0160155
-3.82176e-05
0.0160631
-3.61247e-05
0.0161087
-3.41793e-05
0.0161523
-3.23618e-05
0.0161935
-3.06598e-05
0.0162325
-2.9063e-05
0.0162693
-2.75646e-05
0.016304
-2.61598e-05
0.0163371
-2.48474e-05
0.0163686
-2.36307e-05
0.0163988
-2.25072e-05
0.0164278
-2.14833e-05
0.0164559
-2.06297e-05
0.0164829
-1.96684e-05
0.016509
-1.89463e-05
0.0165343
-1.81419e-05
0.016559
-1.74149e-05
0.0165833
-1.67517e-05
0.0166072
-1.61329e-05
0.0166307
-1.5544e-05
0.0166537
-1.50104e-05
0.016676
-1.45028e-05
0.0166978
-1.39441e-05
0.0167191
-1.3449e-05
0.0167404
-1.29892e-05
0.0167618
-1.25523e-05
0.0167833
-1.21355e-05
0.0168046
-1.17268e-05
0.0168254
-1.13189e-05
0.0168453
-1.09019e-05
0.0168643
-1.04789e-05
0.0168826
-1.00406e-05
0.0169005
-9.60994e-06
0.0169185
-9.17378e-06
0.0169369
-8.79626e-06
0.0169556
-8.34564e-06
0.0169747
-7.9729e-06
0.0169938
-7.52774e-06
0.0170125
-7.24145e-06
0.0170302
-6.70338e-06
0.0170472
-6.627e-06
0.0170629
-5.97991e-06
0.0170784
-6.4122e-06
0.0170928
-5.5923e-06
0.0171088
-7.27842e-06
0.0171245
-6.35679e-06
0.017145
-1.08198e-05
-9.53596e-06
0.0171653
0.0137539
-5.94815e-06
0.0137736
-3.04662e-05
0.0138062
-5.59795e-05
0.0138508
-7.96252e-05
0.0139063
-0.000101102
0.0139715
-0.000120129
0.014045
-0.000136505
0.0141253
-0.000150147
0.0142111
-0.000161098
0.0143011
-0.000169489
0.0143941
-0.000175525
0.0144889
-0.000179432
0.0145847
-0.00018141
0.0146803
-0.000181664
0.0147752
-0.000180431
0.0148688
-0.000177972
0.0149606
-0.000174514
0.0150501
-0.000170239
0.0151367
-0.00016531
0.0152202
-0.000159884
0.0153006
-0.000154106
0.0153781
-0.000148101
0.015453
-0.000141973
0.0155252
-0.000135806
0.0155941
-0.00012966
0.0156595
-0.000123576
0.0157211
-0.000117582
0.0157793
-0.000111713
0.0158345
-0.00010602
0.0158877
-0.000100549
0.0159394
-9.53535e-05
0.0159898
-9.05037e-05
0.016039
-8.60401e-05
0.0160867
-8.19317e-05
0.0161325
-7.81193e-05
0.0161763
-7.4561e-05
0.0162178
-7.12322e-05
0.016257
-6.81169e-05
0.016294
-6.5204e-05
0.016329
-6.24867e-05
0.0163622
-5.99621e-05
0.0163938
-5.76322e-05
0.0164242
-5.54979e-05
0.0164534
-5.35543e-05
0.0164815
-5.17889e-05
0.0165087
-5.01517e-05
0.0165348
-4.86761e-05
0.0165602
-4.72925e-05
0.0165851
-4.60207e-05
0.0166095
-4.48514e-05
0.0166335
-4.37645e-05
0.0166571
-4.27445e-05
0.0166802
-4.17796e-05
0.0167026
-4.08517e-05
0.0167244
-3.99485e-05
0.0167458
-3.9106e-05
0.0167671
-3.83315e-05
0.0167885
-3.76199e-05
0.01681
-3.69617e-05
0.0168314
-3.63341e-05
0.0168522
-3.57196e-05
0.0168723
-3.50952e-05
0.0168914
-3.44599e-05
0.0169098
-3.37997e-05
0.0169277
-3.31453e-05
0.0169457
-3.24849e-05
0.0169639
-3.18849e-05
0.0169825
-3.12622e-05
0.0170015
-3.07563e-05
0.0170204
-3.01732e-05
0.0170389
-2.98309e-05
0.0170566
-2.9211e-05
0.0170734
-2.91632e-05
0.0170891
-2.84164e-05
0.0171041
-2.91222e-05
0.0171181
-2.81499e-05
0.017133
-3.09869e-05
0.0171475
-2.97582e-05
0.0171665
-3.82514e-05
-3.64301e-05
0.0171854
0.0137543
-1.44466e-05
0.0137755
-5.3942e-05
0.0138101
-9.27353e-05
0.013857
-0.000128648
0.0139152
-0.000161259
0.0139834
-0.000190136
0.0140601
-0.000214915
0.0141438
-0.000235431
0.0142329
-0.000251769
0.0143262
-0.00026419
0.0144224
-0.000273069
0.0145205
-0.000278763
0.0146195
-0.000281561
0.0147182
-0.000281769
0.0148162
-0.000279736
0.0149127
-0.000275837
0.0150074
-0.000270392
0.0150996
-0.000263665
0.0151887
-0.000255897
0.0152743
-0.00024735
0.0153565
-0.00023827
0.0154354
-0.00022887
0.0155114
-0.000219308
0.0155842
-0.00020971
0.0156535
-0.00020016
0.015719
-0.000190726
0.0157805
-0.000181448
0.0158382
-0.000172383
0.0158928
-0.000163615
0.015945
-0.000155213
0.0159955
-0.000147218
0.0160445
-0.00013975
0.0160922
-0.0001329
0.0161382
-0.00012661
0.0161822
-0.000120779
0.0162241
-0.000115343
0.0162635
-0.000110262
0.0163006
-0.000105518
0.0163354
-0.000101094
0.0163681
-9.69782e-05
0.0163988
-9.31559e-05
0.016428
-8.96352e-05
0.0164557
-8.64158e-05
0.0164822
-8.34842e-05
0.0165076
-8.08119e-05
0.0165319
-7.83597e-05
0.0165551
-7.61026e-05
0.0165775
-7.4019e-05
0.0165992
-7.20996e-05
0.0166204
-7.03274e-05
0.016641
-6.86735e-05
0.0166612
-6.71119e-05
0.0166807
-6.56221e-05
0.0166995
-6.42005e-05
0.0167177
-6.28532e-05
0.0167354
-6.16021e-05
0.0167529
-6.04517e-05
0.0167703
-5.93911e-05
0.0167876
-5.83967e-05
0.0168047
-5.74421e-05
0.0168212
-5.6502e-05
0.0168368
-5.55563e-05
0.0168515
-5.46012e-05
0.0168654
-5.3634e-05
0.0168787
-5.26792e-05
0.0168919
-5.17364e-05
0.0169053
-5.0856e-05
0.0169188
-4.99895e-05
0.0169325
-4.92329e-05
0.0169461
-4.84374e-05
0.016959
-4.78404e-05
0.0169712
-4.70577e-05
0.0169821
-4.67269e-05
0.016992
-4.58728e-05
0.0170005
-4.61847e-05
0.0170084
-4.51333e-05
0.0170153
-4.73438e-05
0.0170221
-4.59468e-05
0.017029
-5.42395e-05
-5.28412e-05
0.0170369
0.0137559
-2.50412e-05
0.0137803
-8.11546e-05
0.0138198
-0.000134906
0.0138728
-0.000184349
0.0139386
-0.000229514
0.0140157
-0.00026962
0.0141023
-0.000303717
0.0141962
-0.000331414
0.0142953
-0.000352845
0.0143976
-0.000368436
0.0145015
-0.000378745
0.0146054
-0.000384272
0.0147077
-0.000385551
0.0148072
-0.000383123
0.0149033
-0.000377558
0.0149952
-0.000369461
0.0150824
-0.000359346
0.0151647
-0.000347623
0.0152416
-0.000334671
0.0153129
-0.000320871
0.0153788
-0.00030656
0.0154397
-0.000292019
0.015496
-0.00027747
0.0155478
-0.000263084
0.0155949
-0.000248978
0.0156372
-0.000235217
0.0156749
-0.000221824
0.0157081
-0.000208872
0.0157378
-0.00019645
0.0157646
-0.000184574
0.0157892
-0.000173366
0.0158119
-0.000163026
0.0158328
-0.000153649
0.015852
-0.000145074
0.0158689
-0.000137134
0.0158835
-0.000129734
0.0158957
-0.00012283
0.0159055
-0.000116398
0.015913
-0.000110418
0.0159185
-0.000104865
0.0159221
-9.97272e-05
0.0159241
-9.50035e-05
0.0159247
-9.0692e-05
0.0159241
-8.67767e-05
0.0159224
-8.32215e-05
0.0159196
-7.99638e-05
0.0159158
-7.69393e-05
0.0159112
-7.41259e-05
0.0159059
-7.15339e-05
0.0158999
-6.91465e-05
0.0158934
-6.69212e-05
0.0158862
-6.48131e-05
0.0158784
-6.27948e-05
0.01587
-6.08707e-05
0.015861
-5.90657e-05
0.0158517
-5.74049e-05
0.0158423
-5.5891e-05
0.0158326
-5.45017e-05
0.0158226
-5.32012e-05
0.0158121
-5.19529e-05
0.0158009
-5.07299e-05
0.0157891
-4.9514e-05
0.0157768
-4.8304e-05
0.0157641
-4.7096e-05
0.0157513
-4.59111e-05
0.0157385
-4.47502e-05
0.0157256
-4.3647e-05
0.0157125
-4.25839e-05
0.0156988
-4.15984e-05
0.0156845
-4.06502e-05
0.0156693
-3.97833e-05
0.0156534
-3.89645e-05
0.0156364
-3.81849e-05
0.0156193
-3.75394e-05
0.0156009
-3.67108e-05
0.0155834
-3.64652e-05
0.0155629
-3.54221e-05
0.0155454
-3.65506e-05
0.0155186
-3.52656e-05
-4.05015e-05
0.0154989
0.0137596
-3.97739e-05
0.0137992
-0.000123954
0.0138598
-0.000198587
0.0139346
-0.000262179
0.0140174
-0.000315117
0.0141014
-0.000356361
0.0141805
-0.000385369
0.01425
-0.000403373
0.014307
-0.000412206
0.0143502
-0.000413834
0.014379
-0.00040969
0.0143934
-0.000400749
0.0143942
-0.000388414
0.0143824
-0.00037338
0.0143592
-0.000356378
0.014326
-0.000338298
0.0142842
-0.000319564
0.0142349
-0.000300401
0.014179
-0.000281127
0.0141179
-0.000262155
0.0140527
-0.000243808
0.0139846
-0.000226211
0.0139143
-0.000209364
0.0138422
-0.000193261
0.0137687
-0.000177938
0.013694
-0.000163456
0.013619
-0.000149835
0.0135445
-0.000137083
0.0134711
-0.000125238
0.0133993
-0.000114274
0.0133288
-0.000103908
0.0132593
-9.42433e-05
0.0131907
-8.57843e-05
0.0131228
-7.82247e-05
0.0130555
-7.13969e-05
0.0129889
-6.51751e-05
0.0129232
-5.9499e-05
0.0128583
-5.43305e-05
0.0127945
-4.96298e-05
0.0127316
-4.53604e-05
0.0126698
-4.14971e-05
0.012609
-3.80256e-05
0.0125492
-3.49302e-05
0.0124905
-3.21817e-05
0.0124326
-2.97367e-05
0.0123755
-2.75485e-05
0.0123194
-2.55807e-05
0.0122641
-2.38135e-05
0.0122099
-2.22355e-05
0.0121566
-2.08308e-05
0.0121041
-1.95717e-05
0.0120525
-1.84277e-05
0.0120016
-1.73772e-05
0.0119517
-1.6416e-05
0.0119029
-1.55517e-05
0.0118551
-1.47898e-05
0.0118083
-1.4126e-05
0.0117623
-1.35435e-05
0.011717
-1.30229e-05
0.0116723
-1.25447e-05
0.0116279
-1.20974e-05
0.011584
-1.16716e-05
0.0115407
-1.12675e-05
0.011498
-1.08788e-05
0.0114561
-1.05132e-05
0.0114149
-1.01667e-05
0.0113746
-9.84913e-06
0.011335
-9.56039e-06
0.0112962
-9.28878e-06
0.011258
-9.07144e-06
0.0112203
-8.80617e-06
0.0111834
-8.73817e-06
0.0111469
-8.32358e-06
0.0111114
-8.68412e-06
0.0110753
-7.2679e-06
0.0110411
-8.88514e-06
0.0110016
-2.55162e-06
0.0109677
-9.18018e-06
0.0109037
2.22759e-05
-1.02729e-05
0.0108672
0.0137051
0.0135777
0.0133758
0.0131105
0.0127923
0.012433
0.0120448
0.0116388
0.0112241
0.0108078
0.0103957
0.00999272
0.00960209
0.00922645
0.0088678
0.00852731
0.00820553
0.00790267
0.00761886
0.00735403
0.00710774
0.00687923
0.00666756
0.00647183
0.00629123
0.00612497
0.00597227
0.00583234
0.00570427
0.00558718
0.00548048
0.00538347
0.00529493
0.0052139
0.00513962
0.00507146
0.00500889
0.00495139
0.00489848
0.00484973
0.0048047
0.004763
0.00472422
0.00468803
0.00465412
0.00462226
0.00459225
0.00456392
0.00453709
0.00451161
0.00448734
0.00446421
0.00444214
0.00442104
0.00440084
0.00438143
0.00436268
0.00434452
0.00432685
0.00430961
0.00429277
0.00427628
0.00426009
0.00424418
0.0042285
0.00421301
0.00419768
0.00418248
0.00416738
0.00415235
0.00413743
0.00412246
0.00410779
0.00409267
0.00407891
0.00406348
0.00405438
0.00403863
0.00405435
0.0040375
0.00382286
0.000178908
0.00373275
9.56211e-05
0.00364894
8.67072e-05
0.00356609
8.25663e-05
0.00348893
7.48113e-05
0.00341911
6.68006e-05
0.00335484
6.13197e-05
0.00329404
5.78771e-05
0.00323585
5.49147e-05
0.00317969
5.23939e-05
0.0031251
5.06141e-05
0.00307199
4.93409e-05
0.00302047
4.83025e-05
0.00297048
4.74442e-05
0.00292178
4.67874e-05
0.00287404
4.62635e-05
0.00282692
4.57683e-05
0.00278013
4.5239e-05
0.00273354
4.45915e-05
0.00268724
4.38148e-05
0.00264155
4.29387e-05
0.00259678
4.19992e-05
0.00255297
4.10135e-05
0.00250984
3.99996e-05
0.00246704
3.89932e-05
0.00242457
3.79961e-05
0.00238281
3.6995e-05
0.00234227
3.60083e-05
0.00230317
3.50665e-05
0.00226531
3.42131e-05
0.0022283
3.34968e-05
0.00219199
3.29043e-05
0.00215658
3.23683e-05
0.0021223
3.18642e-05
0.00208914
3.13683e-05
0.00205684
3.086e-05
0.00202517
3.03255e-05
0.00199417
2.9743e-05
0.00196414
2.9099e-05
0.00193528
2.84448e-05
0.00190738
2.7817e-05
0.00187995
2.72905e-05
0.00185276
2.68598e-05
0.00182608
2.64911e-05
0.00180059
2.61529e-05
0.00177672
2.57994e-05
0.00175425
2.54737e-05
0.00173246
2.51832e-05
0.00171075
2.48915e-05
0.00168915
2.45583e-05
0.00166838
2.41415e-05
0.00164924
2.36292e-05
0.00163201
2.30367e-05
0.00161617
2.24029e-05
0.00160074
2.17594e-05
0.00158502
2.11075e-05
0.00156903
2.04452e-05
0.0015535
1.97892e-05
0.00153938
1.91645e-05
0.00152721
1.86045e-05
0.00151663
1.81532e-05
0.00150659
1.78395e-05
0.00149601
1.76555e-05
0.00148451
1.75568e-05
0.00147276
1.74765e-05
0.00146203
1.73666e-05
0.00145327
1.72322e-05
0.00144636
1.7116e-05
0.00144014
1.70452e-05
0.00143325
1.70146e-05
0.00142519
1.69755e-05
0.00141673
1.68548e-05
0.00140925
1.65996e-05
0.00140367
1.62298e-05
0.0013997
1.57948e-05
0.00139609
1.53425e-05
0.00139164
1.48948e-05
0.00138617
1.44312e-05
0.00138054
1.39101e-05
0.00137588
1.33459e-05
0.00137272
1.27921e-05
0.00137056
1.23107e-05
0.00136839
1.19383e-05
0.00136548
1.16733e-05
0.0013619
1.14923e-05
0.00135838
1.13711e-05
0.00135566
1.13079e-05
0.00135395
1.1307e-05
0.00135287
1.13644e-05
0.00135177
1.14643e-05
0.00135023
1.15763e-05
0.0013483
1.16629e-05
0.00134638
1.16879e-05
0.0013449
1.1632e-05
0.00134404
1.14968e-05
0.00134359
1.1299e-05
0.00134308
1.10614e-05
0.00134214
1.08064e-05
0.00134073
1.05415e-05
0.00133916
1.02651e-05
0.00133792
9.98393e-06
0.0013373
9.72353e-06
0.00133712
9.51289e-06
0.00133684
9.3792e-06
0.00133596
9.32899e-06
0.00133439
9.35123e-06
0.00133257
9.42543e-06
0.00133116
9.5412e-06
0.00133056
9.7038e-06
0.00133061
9.93809e-06
0.00133064
1.02514e-05
0.00133004
1.06221e-05
0.00132863
1.10085e-05
0.00132683
1.13641e-05
0.00132532
1.16589e-05
0.00132452
1.18912e-05
0.00132427
1.20798e-05
0.00132406
1.22407e-05
0.00132341
1.2378e-05
0.00132225
1.24843e-05
0.00132087
1.25682e-05
0.00131958
1.264e-05
0.00131841
1.27228e-05
0.00131717
1.28274e-05
0.00131572
1.29416e-05
0.00131428
1.30336e-05
0.00131321
1.30762e-05
0.00131271
1.30713e-05
0.00131241
1.30442e-05
0.00131159
1.30136e-05
0.00130972
1.29688e-05
0.00130699
1.28807e-05
0.00130429
1.27276e-05
0.00130259
1.25263e-05
0.00130218
1.23278e-05
0.00130241
1.21991e-05
0.0013021
1.217e-05
0.00130038
1.22124e-05
0.00129732
1.22687e-05
0.00129388
1.22827e-05
0.00129123
1.22366e-05
0.00129
1.21563e-05
0.00128987
1.20855e-05
0.00128982
1.20654e-05
0.00128879
1.21084e-05
0.0012864
1.21951e-05
0.00128313
1.2297e-05
0.00127994
1.23937e-05
0.00127764
1.2484e-05
0.0012764
1.25846e-05
0.00127572
1.27003e-05
0.00127485
1.28133e-05
0.00127333
1.28866e-05
0.00127115
1.28885e-05
0.00126865
1.28065e-05
0.00126618
1.26539e-05
0.00126392
1.24523e-05
0.00126193
1.22226e-05
0.00126023
1.19761e-05
0.00125878
1.1725e-05
0.00125739
1.14847e-05
0.00125566
1.129e-05
0.00125328
1.11643e-05
0.00125034
1.11054e-05
0.00124738
1.10925e-05
0.00124505
1.11217e-05
0.00124356
1.12141e-05
0.00124243
1.1409e-05
0.00124084
1.1741e-05
0.00123828
1.22036e-05
0.00123504
1.27464e-05
0.00123201
1.33066e-05
0.00123003
1.38392e-05
0.00122918
1.4326e-05
0.00122863
1.47562e-05
0.00122727
1.5103e-05
0.00122457
1.53176e-05
0.001221
1.53464e-05
0.00121778
1.51737e-05
0.00121596
1.48382e-05
0.00121559
1.44254e-05
0.00121559
1.40389e-05
0.00121446
1.37559e-05
0.00121135
1.3598e-05
0.0012068
1.35285e-05
0.00120243
1.3493e-05
0.00119985
1.34586e-05
0.00119946
1.34332e-05
0.0012002
1.34432e-05
0.00120021
1.34885e-05
0.00119819
1.35326e-05
0.00119423
1.35244e-05
0.00118968
1.34284e-05
0.0011862
1.32584e-05
0.00118463
1.30766e-05
0.00118456
1.29546e-05
0.00118469
1.2946e-05
0.00118374
1.30512e-05
0.00118116
1.32257e-05
0.00117744
1.33999e-05
0.00117375
1.35171e-05
0.00117121
1.35499e-05
0.0011702
1.35042e-05
0.00117014
1.34113e-05
0.00116985
1.32926e-05
0.00116834
1.314e-05
0.00116549
1.29245e-05
0.00116211
1.2611e-05
0.00115937
1.22013e-05
0.00115792
1.17359e-05
0.00115746
1.12816e-05
0.00115697
1.08936e-05
0.0011555
1.05899e-05
0.00115282
1.03524e-05
0.00114956
1.01563e-05
0.00114671
9.99755e-06
0.00114495
9.89524e-06
0.00114419
9.88715e-06
0.00114373
1.00048e-05
0.0011427
1.02514e-05
0.00114065
1.05971e-05
0.00113778
1.10022e-05
0.00113482
1.14359e-05
0.00113257
1.18797e-05
0.0011314
1.23362e-05
0.00113105
1.28158e-05
0.00113076
1.33012e-05
0.00112982
1.37638e-05
0.00112795
1.41507e-05
0.00112549
1.44098e-05
0.00112316
1.45114e-05
0.00112156
1.44491e-05
0.00112084
1.42506e-05
0.00112059
1.39544e-05
0.00112011
1.35748e-05
0.00111887
1.31348e-05
0.00111685
1.26463e-05
0.00111454
1.21328e-05
0.00111259
1.16203e-05
0.00111139
1.11512e-05
0.00111077
1.07735e-05
0.00111011
1.05214e-05
0.00110882
1.04092e-05
0.00110674
1.04273e-05
0.00110435
1.05489e-05
0.00110245
1.07483e-05
0.00110157
1.10129e-05
0.00110151
1.13364e-05
0.00110144
1.16973e-05
0.00110052
1.20527e-05
0.00109859
1.23403e-05
0.00109629
1.2503e-05
0.00109462
1.25243e-05
0.00109412
1.24349e-05
0.00109442
1.22893e-05
0.0010945
1.21255e-05
0.00109355
1.19528e-05
0.00109158
1.17585e-05
0.00108944
1.1532e-05
0.00108809
1.12971e-05
0.00108783
1.11063e-05
0.00108805
1.10036e-05
0.00108774
1.09918e-05
0.00108635
1.10359e-05
0.00108421
1.1093e-05
0.00108231
1.11421e-05
0.00108152
1.11985e-05
0.00108194
1.12957e-05
0.00108277
1.14515e-05
0.00108295
1.16419e-05
0.00108182
1.18131e-05
0.00107968
1.19086e-05
0.00107749
1.18992e-05
0.00107634
1.17983e-05
0.00107663
1.16453e-05
0.00107788
1.14804e-05
0.00107901
1.13187e-05
0.00107904
1.11625e-05
0.00107765
1.10152e-05
0.00107539
1.08901e-05
0.00107329
1.08177e-05
0.00107228
1.08288e-05
0.00107261
1.09407e-05
0.00107377
1.1153e-05
0.00107482
1.14384e-05
0.00107498
1.1763e-05
0.00107408
1.20922e-05
0.0010726
1.23961e-05
0.00107134
1.26554e-05
0.00107095
1.28542e-05
0.00107151
1.29864e-05
0.00107255
1.30566e-05
0.00107334
1.30779e-05
0.00107341
1.30612e-05
0.00107282
1.30096e-05
0.0010721
1.2925e-05
0.0010718
1.28097e-05
0.00107207
1.26705e-05
0.00107263
1.25243e-05
0.00107302
1.23857e-05
0.00107302
1.22683e-05
0.00107285
1.21759e-05
0.00107287
1.21152e-05
0.00107328
1.20834e-05
0.00107384
1.20633e-05
0.00107413
1.20493e-05
0.00107401
1.19734e-05
0.00107379
1.18676e-05
0.00107406
1.16644e-05
0.00107509
1.1447e-05
0.00107658
1.11884e-05
0.00107768
1.09828e-05
0.00107775
1.07294e-05
0.00107678
1.06592e-05
0.00107558
1.03217e-05
0.00107548
1.0488e-05
0.00107627
1.01388e-05
0.0010787
1.05913e-05
0.00108043
1.09141e-05
1.08414e-05
0.0105458
0.000479748
0.010254
0.000390603
0.0100272
0.000315825
0.00982649
0.000283237
0.00965565
0.000243549
0.00951198
0.000207557
0.00938762
0.000182775
0.00927633
0.000166144
0.00917399
0.000153516
0.0090778
0.000143904
0.00898602
0.000136999
0.008898
0.000131722
0.00881355
0.000127253
0.00873241
0.000123435
0.00865407
0.000120331
0.00857802
0.00011776
0.00850382
0.000115404
0.00843119
0.000113027
0.00836002
0.000110468
0.00829041
0.00010774
0.00822269
0.000104931
0.00815713
0.000102097
0.00809374
9.92198e-05
0.00803222
9.62738e-05
0.0079722
9.32813e-05
0.00791364
9.02729e-05
0.00785687
8.72609e-05
0.0078023
8.43123e-05
0.00775004
8.1514e-05
0.0076998
7.89521e-05
0.00765107
7.66875e-05
0.00760359
7.47504e-05
0.00755741
7.30307e-05
0.00751268
7.14286e-05
0.00746932
6.99081e-05
0.00742702
6.84154e-05
0.00738556
6.69053e-05
0.00734497
6.53244e-05
0.00730559
6.36658e-05
0.00726764
6.20066e-05
0.0072309
6.04334e-05
0.0071949
5.90663e-05
0.00715942
5.78734e-05
0.0071248
5.68051e-05
0.00709174
5.58031e-05
0.00706071
5.47852e-05
0.0070315
5.38162e-05
0.0070034
5.28982e-05
0.00697581
5.19688e-05
0.00694878
5.09555e-05
0.006923
4.97808e-05
0.00689928
4.84316e-05
0.00687786
4.69409e-05
0.00685818
4.53773e-05
0.00683924
4.37973e-05
0.00682027
4.2224e-05
0.00680125
4.06582e-05
0.0067829
3.91349e-05
0.00676612
3.77073e-05
0.00675142
3.64401e-05
0.00673839
3.54036e-05
0.00672594
3.46515e-05
0.00671295
3.4164e-05
0.00669904
3.38521e-05
0.00668488
3.35919e-05
0.00667176
3.32886e-05
0.00666063
3.295e-05
0.00665139
3.26509e-05