/*--------------------------------*- C++ -*----------------------------------*\
  =========                 |
  \\      /  F ield         | OpenFOAM: The Open Source CFD Toolbox
   \\    /   O peration     | Website:  https://openfoam.org
    \\  /    A nd           | Version:  7
     \\/     M anipulation  |
\*---------------------------------------------------------------------------*/
FoamFile
{
    version     2.0;
    format      ascii;
    class       volScalarField;
    location    "1.32";
    object      nut;
}
// * * * * * * * * * * * * * * * * * * * * * * * * * * * * * * * * * * * * * //

dimensions      [0 2 -1 0 0 0 0];

internalField   nonuniform List<scalar> 
13200
(
0.00817215
0.00839579
0.00839241
0.00839321
0.00839001
0.00839114
0.0083895
0.0083909
0.00838988
0.00839123
0.00839042
0.0083914
0.00839067
0.00839123
0.00839057
0.00839066
0.00839049
0.0083895
0.00839313
0.00839474
0.00395706
0.00377206
0.0036446
0.00359545
0.00357672
0.00357272
0.00356621
0.00356646
0.00356305
0.00356362
0.00356181
0.00356237
0.00356089
0.00356128
0.00356003
0.00356017
0.00355938
0.00355885
0.00356565
0.00356593
0.00247321
0.00246558
0.00241785
0.0023826
0.00236532
0.00235944
0.00235262
0.00235093
0.00234695
0.00234624
0.00234358
0.00234317
0.00234107
0.00234068
0.00233889
0.0023384
0.00233691
0.00233616
0.00233566
0.00233859
0.00208695
0.00220822
0.00221908
0.00221804
0.00221458
0.0022136
0.00221101
0.00221035
0.00220844
0.00220804
0.0022067
0.00220647
0.00220543
0.00220506
0.00220403
0.00220329
0.00220246
0.00220117
0.00220079
0.00220219
0.00199787
0.00215858
0.00218597
0.00219445
0.00219512
0.00219723
0.00219676
0.00219779
0.00219729
0.0021981
0.00219775
0.00219854
0.00219835
0.00219892
0.00219862
0.00219871
0.00219829
0.00219781
0.00219726
0.00219839
0.00198593
0.00215234
0.00218348
0.00219445
0.00219643
0.00220018
0.00220058
0.00220282
0.0022031
0.00220488
0.00220514
0.00220678
0.00220718
0.00220869
0.00220896
0.00220992
0.00220989
0.00221024
0.00221008
0.00221137
0.00198198
0.00214865
0.0021802
0.0021918
0.00219435
0.00219883
0.00219981
0.00220291
0.00220376
0.00220634
0.0022071
0.00220947
0.00221035
0.00221264
0.00221341
0.00221519
0.0022156
0.00221672
0.00221686
0.00221871
0.00198395
0.00214916
0.00218059
0.00219229
0.00219517
0.00220003
0.0022014
0.00220505
0.0022063
0.00220947
0.00221061
0.00221353
0.00221478
0.00221767
0.00221884
0.00222126
0.00222207
0.00222374
0.00222442
0.00222642
0.00198347
0.00214802
0.00217918
0.00219072
0.00219361
0.00219855
0.00220004
0.0022039
0.00220534
0.00220879
0.00221016
0.00221341
0.00221492
0.00221817
0.00221965
0.00222244
0.00222359
0.00222562
0.00222659
0.00222897
0.00198438
0.00214832
0.00217936
0.00219085
0.00219376
0.00219873
0.00220027
0.00220419
0.00220571
0.00220927
0.00221074
0.00221413
0.00221575
0.00221918
0.00222081
0.00222375
0.00222512
0.00222725
0.00222849
0.00223092
0.00198438
0.00214832
0.00217936
0.00219085
0.00219376
0.00219873
0.00220027
0.00220419
0.00220571
0.00220927
0.00221074
0.00221413
0.00221575
0.00221918
0.00222081
0.00222375
0.00222512
0.00222725
0.0022285
0.00223092
0.00198347
0.00214802
0.00217918
0.00219072
0.00219361
0.00219855
0.00220004
0.0022039
0.00220534
0.00220879
0.00221016
0.00221342
0.00221492
0.00221817
0.00221965
0.00222244
0.0022236
0.00222561
0.00222661
0.00222898
0.00198395
0.00214916
0.00218059
0.00219229
0.00219517
0.00220003
0.0022014
0.00220505
0.0022063
0.00220947
0.00221061
0.00221353
0.00221478
0.00221767
0.00221884
0.00222126
0.00222208
0.00222374
0.00222444
0.00222644
0.00198198
0.00214865
0.0021802
0.0021918
0.00219435
0.00219883
0.00219981
0.00220291
0.00220375
0.00220634
0.00220709
0.00220948
0.00221034
0.00221266
0.0022134
0.00221522
0.00221559
0.00221675
0.00221688
0.00221874
0.00198593
0.00215234
0.00218348
0.00219445
0.00219643
0.00220019
0.00220058
0.00220282
0.0022031
0.00220488
0.00220514
0.0022068
0.00220717
0.00220872
0.00220893
0.00220996
0.00220983
0.00221033
0.00221002
0.00221146
0.00199787
0.00215858
0.00218597
0.00219445
0.00219512
0.00219723
0.00219676
0.00219779
0.00219728
0.00219811
0.00219774
0.00219856
0.00219832
0.00219896
0.00219855
0.00219881
0.00219811
0.00219805
0.00219707
0.00219867
0.00208695
0.00220822
0.00221908
0.00221804
0.00221458
0.0022136
0.002211
0.00221036
0.00220843
0.00220805
0.00220669
0.00220649
0.00220539
0.00220511
0.00220393
0.00220348
0.00220214
0.00220168
0.0022002
0.0022028
0.00247321
0.00246558
0.00241785
0.0023826
0.00236532
0.00235944
0.00235262
0.00235093
0.00234694
0.00234624
0.00234357
0.00234318
0.00234105
0.00234072
0.00233882
0.00233851
0.00233667
0.00233657
0.00233493
0.00233984
0.00395706
0.00377206
0.0036446
0.00359545
0.00357672
0.00357272
0.00356621
0.00356646
0.00356305
0.00356363
0.0035618
0.00356238
0.00356087
0.00356131
0.00355998
0.00356027
0.00355919
0.00355918
0.0035648
0.00356741
0.00817215
0.00839579
0.00839241
0.00839321
0.00839001
0.00839114
0.00838949
0.0083909
0.00838988
0.00839123
0.0083904
0.00839142
0.00839064
0.00839129
0.00839048
0.00839082
0.00839019
0.00839007
0.00839189
0.00839776
0.00229659
0.00244922
0.00242552
0.00239721
0.00239287
0.00238169
0.00238212
0.00237559
0.00237669
0.00237218
0.00237323
0.00236987
0.0023707
0.0023681
0.00236872
0.00236661
0.00236721
0.00236511
0.00236557
0.00236826
0.00189543
0.00218451
0.0022155
0.00221054
0.00220516
0.00219968
0.00219709
0.00219398
0.00219262
0.00219058
0.00218976
0.00218826
0.00218764
0.00218638
0.00218589
0.0021848
0.00218441
0.0021836
0.00218296
0.00218258
0.00176
0.0020673
0.00211543
0.00212642
0.00212986
0.00213196
0.00213257
0.00213333
0.00213346
0.00213384
0.00213391
0.00213404
0.002134
0.00213382
0.00213366
0.00213311
0.00213307
0.00213202
0.00213237
0.00213437
0.00174339
0.00205217
0.00209792
0.00210738
0.00210988
0.00211251
0.0021139
0.00211588
0.00211701
0.00211857
0.00211959
0.00212078
0.00212161
0.00212224
0.00212279
0.0021228
0.00212316
0.00212251
0.00212319
0.0021229
0.00173545
0.00204454
0.00208993
0.00209824
0.00209877
0.00209993
0.00210024
0.00210148
0.00210222
0.00210371
0.0021047
0.00210618
0.0021073
0.00210843
0.00210936
0.00210985
0.00211054
0.00211041
0.00211094
0.00211224
0.00173898
0.00204831
0.00209341
0.00210149
0.00210155
0.00210198
0.00210166
0.00210218
0.00210234
0.00210317
0.0021037
0.00210488
0.00210575
0.0021069
0.00210775
0.00210841
0.00210902
0.00210914
0.00210934
0.00211048
0.00173641
0.00204552
0.0020906
0.00209867
0.00209866
0.00209894
0.00209845
0.00209879
0.0020987
0.00209919
0.00209943
0.00210029
0.00210093
0.00210201
0.0021027
0.00210346
0.00210388
0.00210426
0.00210437
0.00210567
0.00173877
0.00204796
0.00209284
0.00210083
0.00210082
0.00210111
0.00210061
0.00210092
0.00210077
0.00210119
0.00210132
0.00210203
0.00210253
0.00210356
0.00210413
0.00210492
0.00210522
0.00210565
0.00210562
0.00210693
0.0017376
0.0020466
0.00209146
0.00209941
0.00209938
0.00209966
0.00209917
0.00209949
0.00209934
0.00209975
0.00209985
0.00210053
0.00210099
0.00210201
0.00210253
0.00210335
0.00210359
0.00210408
0.00210401
0.00210532
0.00173849
0.00204748
0.00209226
0.00210016
0.00210012
0.00210039
0.0020999
0.00210022
0.00210007
0.00210049
0.00210058
0.00210126
0.0021017
0.00210271
0.00210323
0.00210405
0.00210428
0.00210476
0.0021047
0.00210601
0.00173849
0.00204748
0.00209226
0.00210016
0.00210012
0.00210039
0.0020999
0.00210022
0.00210007
0.00210049
0.00210058
0.00210126
0.0021017
0.00210271
0.00210323
0.00210405
0.00210429
0.00210476
0.0021047
0.002106
0.0017376
0.0020466
0.00209146
0.00209941
0.00209938
0.00209966
0.00209917
0.00209949
0.00209934
0.00209975
0.00209985
0.00210053
0.00210099
0.00210201
0.00210253
0.00210335
0.0021036
0.00210407
0.00210403
0.00210532
0.00173877
0.00204796
0.00209284
0.00210083
0.00210082
0.00210111
0.00210061
0.00210092
0.00210077
0.00210119
0.00210132
0.00210203
0.00210253
0.00210357
0.00210412
0.00210493
0.00210521
0.00210565
0.00210562
0.00210691
0.00173641
0.00204552
0.0020906
0.00209867
0.00209865
0.00209894
0.00209845
0.00209879
0.00209869
0.00209919
0.00209943
0.0021003
0.00210091
0.00210203
0.00210267
0.00210349
0.00210385
0.00210428
0.00210437
0.00210567
0.00173898
0.00204831
0.00209341
0.00210149
0.00210155
0.00210198
0.00210166
0.00210219
0.00210234
0.00210318
0.00210369
0.0021049
0.00210572
0.00210695
0.00210768
0.0021085
0.00210892
0.00210923
0.00210927
0.00211048
0.00173545
0.00204454
0.00208993
0.00209824
0.00209877
0.00209993
0.00210024
0.00210149
0.00210221
0.00210372
0.00210468
0.00210621
0.00210725
0.00210851
0.00210924
0.00211
0.00211035
0.00211061
0.00211077
0.00211238
0.00174339
0.00205217
0.00209792
0.00210738
0.00210988
0.00211251
0.0021139
0.00211588
0.002117
0.00211858
0.00211957
0.0021208
0.00212156
0.00212231
0.00212266
0.00212295
0.00212294
0.00212287
0.00212262
0.00212345
0.00176
0.0020673
0.00211543
0.00212642
0.00212986
0.00213196
0.00213257
0.00213333
0.00213346
0.00213385
0.0021339
0.00213405
0.00213398
0.00213387
0.00213358
0.00213327
0.00213285
0.00213246
0.00213165
0.00213531
0.00189543
0.00218451
0.0022155
0.00221054
0.00220516
0.00219969
0.00219709
0.00219398
0.00219261
0.00219059
0.00218975
0.00218827
0.00218762
0.00218641
0.00218585
0.00218489
0.00218426
0.00218389
0.00218245
0.00218375
0.00229659
0.00244922
0.00242552
0.00239721
0.00239287
0.00238169
0.00238212
0.00237559
0.00237669
0.00237218
0.00237323
0.00236987
0.00237069
0.00236811
0.00236871
0.00236666
0.00236716
0.00236527
0.00236536
0.00236901
0.00088046
0.000997236
0.000925974
0.00083081
0.000771212
0.000738391
0.000715145
0.000699074
0.000685443
0.000674486
0.000665275
0.000657254
0.000650884
0.000644966
0.000640422
0.000636118
0.00063255
0.000629986
0.000625207
0.000627965
0.000359858
0.000575581
0.000631969
0.000642063
0.000641487
0.000638931
0.00063365
0.000628267
0.000622752
0.000617654
0.000612728
0.000608188
0.00060388
0.000599987
0.00059623
0.000593152
0.000589655
0.000587741
0.000583918
0.000583597
0.000156548
0.000355546
0.000430288
0.000462473
0.000476068
0.000487324
0.000494264
0.000501755
0.000506675
0.000511844
0.000515098
0.000518363
0.000520237
0.000522084
0.000522935
0.00052391
0.00052406
0.000524526
0.000524154
0.000525079
0.000143924
0.000324581
0.000393148
0.000425245
0.000437312
0.000445255
0.000448643
0.000452767
0.000455372
0.000458882
0.000461633
0.000464833
0.000467569
0.000470334
0.000472863
0.000475134
0.000477352
0.000479201
0.000481045
0.000483044
0.000140821
0.000316932
0.000381671
0.00041375
0.0004252
0.000432611
0.000434389
0.000436734
0.000437214
0.000438426
0.000438967
0.000440132
0.000440947
0.000442048
0.000443182
0.000444144
0.000445528
0.000446391
0.000447704
0.000449077
0.000143762
0.000322113
0.000386539
0.000417717
0.000429299
0.000436251
0.000438134
0.00043996
0.000440193
0.000440779
0.000440895
0.000441233
0.000441435
0.000441696
0.000442042
0.000442238
0.00044268
0.000442842
0.000443238
0.000444029
0.000141743
0.000318622
0.000383016
0.000414475
0.000425865
0.000432921
0.000434651
0.000436504
0.000436645
0.000437121
0.000437116
0.00043729
0.000437314
0.000437412
0.000437451
0.000437452
0.000437484
0.00043745
0.000437471
0.000437909
0.00014341
0.000321642
0.000386116
0.000417179
0.000428613
0.000435472
0.000437303
0.000439069
0.000439251
0.000439723
0.000439742
0.000439896
0.000439927
0.000440001
0.000440029
0.000439998
0.000440008
0.000439903
0.000439933
0.000440278
0.000142397
0.000319815
0.000384264
0.000415498
0.000426854
0.000433788
0.00043555
0.000437357
0.000437519
0.000437997
0.000438006
0.00043817
0.000438192
0.000438276
0.000438299
0.000438284
0.000438275
0.000438208
0.000438102
0.000438466
0.000142963
0.00032086
0.00038535
0.000416449
0.000427807
0.000434668
0.000436451
0.000438226
0.000438398
0.000438873
0.000438892
0.000439056
0.000439087
0.000439173
0.000439203
0.000439186
0.000439187
0.000439105
0.000439061
0.000439398
0.000142963
0.00032086
0.00038535
0.000416449
0.000427807
0.000434668
0.000436451
0.000438226
0.000438398
0.000438873
0.000438892
0.000439057
0.000439087
0.000439173
0.000439204
0.000439187
0.000439188
0.000439108
0.000439063
0.000439402
0.000142397
0.000319815
0.000384264
0.000415498
0.000426854
0.000433788
0.00043555
0.000437357
0.000437519
0.000437997
0.000438006
0.00043817
0.000438192
0.000438276
0.000438299
0.000438283
0.000438274
0.000438204
0.000438102
0.000438462
0.00014341
0.000321642
0.000386116
0.000417179
0.000428613
0.000435472
0.000437303
0.000439069
0.000439251
0.000439723
0.000439742
0.000439896
0.000439926
0.000440001
0.000440029
0.00044
0.000440009
0.000439906
0.000439934
0.00044028
0.000141743
0.000318623
0.000383015
0.000414475
0.000425864
0.000432921
0.000434651
0.000436504
0.000436645
0.000437121
0.000437116
0.00043729
0.000437313
0.000437413
0.000437449
0.000437451
0.000437481
0.000437447
0.000437467
0.0004379
0.000143762
0.000322113
0.000386539
0.000417717
0.000429299
0.000436252
0.000438133
0.00043996
0.000440193
0.000440779
0.000440894
0.000441236
0.00044143
0.000441702
0.000442036
0.000442237
0.000442675
0.00044284
0.000443228
0.000444007
0.00014082
0.000316932
0.00038167
0.000413751
0.000425199
0.000432612
0.000434389
0.000436734
0.000437214
0.000438427
0.000438966
0.000440135
0.000440938
0.000442054
0.000443167
0.000444149
0.000445507
0.000446379
0.000447669
0.000449011
0.000143924
0.000324582
0.000393148
0.000425246
0.000437311
0.000445256
0.000448642
0.000452769
0.000455369
0.000458885
0.000461628
0.000464836
0.000467559
0.000470336
0.000472848
0.000475126
0.000477322
0.000479172
0.00048096
0.000482916
0.000156548
0.000355546
0.000430288
0.000462473
0.000476067
0.000487325
0.000494262
0.000501758
0.000506671
0.000511849
0.000515089
0.00051837
0.000520219
0.000522096
0.000522901
0.000523915
0.000524031
0.000524481
0.000524069
0.000524954
0.000359858
0.000575581
0.000631968
0.000642064
0.000641487
0.000638931
0.000633648
0.00062827
0.000622748
0.00061766
0.000612718
0.000608203
0.000603858
0.000600023
0.00059618
0.000593236
0.000589566
0.000587814
0.000583817
0.000583832
0.00088046
0.000997236
0.000925974
0.000830811
0.000771212
0.000738392
0.000715145
0.000699077
0.000685443
0.000674494
0.000665275
0.000657275
0.000650885
0.00064502
0.00064044
0.000636247
0.000632624
0.000630308
0.000625424
0.000628881
0.00088046
0.000997236
0.000925974
0.00083081
0.000771212
0.000738391
0.000715145
0.000699074
0.000685443
0.000674486
0.000665275
0.000657254
0.000650884
0.000644966
0.000640422
0.000636118
0.00063255
0.000629986
0.000625207
0.000627965
0.000359858
0.000575581
0.000631969
0.000642063
0.000641487
0.000638931
0.00063365
0.000628267
0.000622752
0.000617654
0.000612728
0.000608188
0.00060388
0.000599987
0.00059623
0.000593153
0.000589655
0.000587741
0.000583918
0.000583597
0.000156548
0.000355546
0.000430288
0.000462473
0.000476068
0.000487324
0.000494264
0.000501755
0.000506675
0.000511844
0.000515098
0.000518363
0.000520237
0.000522084
0.000522935
0.00052391
0.00052406
0.000524526
0.000524154
0.000525079
0.000143924
0.000324581
0.000393148
0.000425245
0.000437312
0.000445255
0.000448643
0.000452767
0.000455372
0.000458882
0.000461633
0.000464833
0.000467568
0.000470334
0.000472863
0.000475134
0.000477352
0.000479201
0.000481045
0.000483044
0.000140821
0.000316932
0.000381671
0.00041375
0.0004252
0.000432611
0.000434389
0.000436734
0.000437214
0.000438426
0.000438967
0.000440132
0.000440947
0.000442048
0.000443182
0.000444144
0.000445528
0.000446391
0.000447704
0.000449077
0.000143762
0.000322113
0.00038654
0.000417717
0.000429299
0.000436251
0.000438134
0.00043996
0.000440193
0.000440779
0.000440895
0.000441233
0.000441435
0.000441696
0.000442042
0.000442238
0.00044268
0.000442842
0.000443238
0.000444029
0.000141743
0.000318622
0.000383016
0.000414475
0.000425865
0.000432921
0.000434651
0.000436504
0.000436645
0.000437121
0.000437116
0.00043729
0.000437314
0.000437412
0.000437451
0.000437452
0.000437484
0.00043745
0.000437471
0.000437909
0.00014341
0.000321642
0.000386116
0.000417179
0.000428613
0.000435472
0.000437303
0.000439069
0.000439251
0.000439723
0.000439742
0.000439896
0.000439927
0.000440001
0.000440029
0.000439998
0.000440008
0.000439903
0.000439933
0.000440278
0.000142397
0.000319815
0.000384264
0.000415498
0.000426854
0.000433788
0.00043555
0.000437357
0.000437519
0.000437997
0.000438006
0.00043817
0.000438192
0.000438276
0.000438299
0.000438284
0.000438275
0.000438208
0.000438102
0.000438466
0.000142963
0.00032086
0.00038535
0.000416449
0.000427807
0.000434668
0.000436451
0.000438226
0.000438398
0.000438873
0.000438892
0.000439056
0.000439087
0.000439173
0.000439203
0.000439186
0.000439187
0.000439105
0.000439061
0.000439398
0.000142963
0.00032086
0.00038535
0.000416449
0.000427807
0.000434668
0.000436451
0.000438226
0.000438398
0.000438873
0.000438892
0.000439057
0.000439087
0.000439173
0.000439204
0.000439187
0.000439188
0.000439108
0.000439063
0.000439402
0.000142397
0.000319815
0.000384264
0.000415498
0.000426854
0.000433788
0.00043555
0.000437357
0.000437519
0.000437997
0.000438006
0.00043817
0.000438192
0.000438276
0.000438299
0.000438283
0.000438274
0.000438204
0.000438102
0.000438462
0.00014341
0.000321642
0.000386116
0.000417179
0.000428613
0.000435472
0.000437303
0.000439069
0.000439251
0.000439723
0.000439742
0.000439896
0.000439926
0.000440001
0.000440029
0.00044
0.000440009
0.000439906
0.000439934
0.00044028
0.000141743
0.000318623
0.000383015
0.000414475
0.000425864
0.000432921
0.000434651
0.000436504
0.000436645
0.000437121
0.000437116
0.000437291
0.000437313
0.000437413
0.000437449
0.000437451
0.000437481
0.000437447
0.000437467
0.0004379
0.000143762
0.000322113
0.000386539
0.000417717
0.000429299
0.000436252
0.000438133
0.00043996
0.000440193
0.000440779
0.000440894
0.000441236
0.00044143
0.000441702
0.000442036
0.000442238
0.000442675
0.00044284
0.000443228
0.000444007
0.00014082
0.000316932
0.00038167
0.000413751
0.000425199
0.000432612
0.000434389
0.000436734
0.000437214
0.000438427
0.000438966
0.000440135
0.000440938
0.000442054
0.000443168
0.000444149
0.000445507
0.000446379
0.000447668
0.00044901
0.000143924
0.000324582
0.000393148
0.000425246
0.000437311
0.000445256
0.000448642
0.000452769
0.000455369
0.000458885
0.000461628
0.000464837
0.000467559
0.000470336
0.000472848
0.000475126
0.000477322
0.000479171
0.00048096
0.000482916
0.000156548
0.000355546
0.000430288
0.000462473
0.000476067
0.000487325
0.000494262
0.000501758
0.000506671
0.000511849
0.000515089
0.00051837
0.000520219
0.000522096
0.000522901
0.000523915
0.00052403
0.000524481
0.000524069
0.000524954
0.000359858
0.000575581
0.000631968
0.000642064
0.000641487
0.000638931
0.000633648
0.00062827
0.000622748
0.00061766
0.000612718
0.000608203
0.000603858
0.000600023
0.00059618
0.000593236
0.000589565
0.000587814
0.000583817
0.000583832
0.00088046
0.000997236
0.000925974
0.000830811
0.000771212
0.000738392
0.000715145
0.000699077
0.000685443
0.000674494
0.000665275
0.000657275
0.000650885
0.00064502
0.000640439
0.000636247
0.000632624
0.000630308
0.000625424
0.000628881
0.00229659
0.00244922
0.00242552
0.00239721
0.00239287
0.00238169
0.00238212
0.00237559
0.00237669
0.00237218
0.00237323
0.00236987
0.0023707
0.0023681
0.00236872
0.00236661
0.00236721
0.00236511
0.00236557
0.00236826
0.00189543
0.00218451
0.0022155
0.00221054
0.00220516
0.00219968
0.00219709
0.00219398
0.00219262
0.00219058
0.00218976
0.00218826
0.00218764
0.00218638
0.00218589
0.0021848
0.00218441
0.0021836
0.00218296
0.00218258
0.00176
0.0020673
0.00211543
0.00212642
0.00212986
0.00213196
0.00213257
0.00213333
0.00213346
0.00213384
0.00213391
0.00213404
0.002134
0.00213382
0.00213366
0.00213311
0.00213307
0.00213202
0.00213237
0.00213437
0.00174339
0.00205217
0.00209792
0.00210738
0.00210988
0.00211251
0.0021139
0.00211588
0.00211701
0.00211857
0.00211959
0.00212078
0.00212161
0.00212224
0.00212279
0.0021228
0.00212316
0.00212251
0.00212319
0.0021229
0.00173545
0.00204454
0.00208993
0.00209824
0.00209877
0.00209993
0.00210024
0.00210148
0.00210222
0.00210371
0.0021047
0.00210618
0.0021073
0.00210843
0.00210936
0.00210985
0.00211054
0.00211041
0.00211094
0.00211224
0.00173898
0.00204831
0.00209341
0.00210149
0.00210155
0.00210198
0.00210166
0.00210218
0.00210234
0.00210317
0.0021037
0.00210488
0.00210575
0.0021069
0.00210774
0.00210841
0.00210902
0.00210914
0.00210934
0.00211048
0.00173641
0.00204552
0.0020906
0.00209867
0.00209866
0.00209894
0.00209845
0.00209879
0.0020987
0.00209919
0.00209943
0.00210029
0.00210093
0.00210201
0.0021027
0.00210346
0.00210388
0.00210426
0.00210437
0.00210567
0.00173877
0.00204796
0.00209284
0.00210083
0.00210082
0.00210111
0.00210061
0.00210092
0.00210077
0.00210119
0.00210132
0.00210203
0.00210253
0.00210356
0.00210413
0.00210492
0.00210522
0.00210565
0.00210562
0.00210693
0.0017376
0.0020466
0.00209146
0.00209941
0.00209938
0.00209966
0.00209917
0.00209949
0.00209934
0.00209975
0.00209985
0.00210053
0.00210099
0.00210201
0.00210253
0.00210335
0.00210359
0.00210408
0.00210401
0.00210532
0.00173849
0.00204748
0.00209226
0.00210016
0.00210012
0.00210039
0.0020999
0.00210022
0.00210007
0.00210049
0.00210058
0.00210126
0.0021017
0.00210271
0.00210323
0.00210405
0.00210428
0.00210476
0.0021047
0.00210601
0.00173849
0.00204748
0.00209226
0.00210016
0.00210012
0.00210039
0.0020999
0.00210022
0.00210007
0.00210049
0.00210058
0.00210126
0.0021017
0.00210271
0.00210323
0.00210405
0.00210429
0.00210476
0.0021047
0.002106
0.0017376
0.0020466
0.00209146
0.00209941
0.00209938
0.00209966
0.00209917
0.00209949
0.00209934
0.00209975
0.00209985
0.00210053
0.00210099
0.00210201
0.00210253
0.00210335
0.0021036
0.00210407
0.00210403
0.00210532
0.00173877
0.00204796
0.00209284
0.00210083
0.00210082
0.00210111
0.00210061
0.00210092
0.00210077
0.00210119
0.00210132
0.00210203
0.00210253
0.00210357
0.00210412
0.00210493
0.00210521
0.00210565
0.00210562
0.00210691
0.00173641
0.00204552
0.0020906
0.00209867
0.00209865
0.00209894
0.00209845
0.00209879
0.00209869
0.00209919
0.00209943
0.0021003
0.00210091
0.00210203
0.00210267
0.0021035
0.00210385
0.00210428
0.00210437
0.00210567
0.00173898
0.00204831
0.00209341
0.00210149
0.00210155
0.00210198
0.00210166
0.00210219
0.00210234
0.00210318
0.00210369
0.0021049
0.00210572
0.00210695
0.00210768
0.0021085
0.00210892
0.00210923
0.00210927
0.00211048
0.00173545
0.00204454
0.00208993
0.00209824
0.00209877
0.00209993
0.00210024
0.00210149
0.00210221
0.00210372
0.00210468
0.00210621
0.00210725
0.00210851
0.00210924
0.00211
0.00211035
0.00211061
0.00211077
0.00211238
0.00174339
0.00205217
0.00209792
0.00210738
0.00210988
0.00211251
0.0021139
0.00211589
0.002117
0.00211858
0.00211957
0.00212081
0.00212156
0.00212231
0.00212266
0.00212295
0.00212294
0.00212287
0.00212262
0.00212345
0.00176
0.0020673
0.00211543
0.00212642
0.00212986
0.00213196
0.00213257
0.00213333
0.00213346
0.00213385
0.0021339
0.00213405
0.00213398
0.00213387
0.00213358
0.00213327
0.00213285
0.00213246
0.00213164
0.00213531
0.00189543
0.00218451
0.0022155
0.00221054
0.00220516
0.00219969
0.00219709
0.00219398
0.00219261
0.00219059
0.00218976
0.00218827
0.00218762
0.00218641
0.00218585
0.00218489
0.00218426
0.00218389
0.00218245
0.00218375
0.00229659
0.00244922
0.00242552
0.00239721
0.00239287
0.00238169
0.00238212
0.00237559
0.00237669
0.00237218
0.00237323
0.00236987
0.0023707
0.00236811
0.00236871
0.00236666
0.00236716
0.00236527
0.00236536
0.00236901
0.00817215
0.00839579
0.00839241
0.00839321
0.00839001
0.00839114
0.0083895
0.00839089
0.00838988
0.00839122
0.00839041
0.0083914
0.00839067
0.00839123
0.00839057
0.00839066
0.00839049
0.0083895
0.00839313
0.00839474
0.00395706
0.00377206
0.0036446
0.00359545
0.00357672
0.00357272
0.00356621
0.00356646
0.00356305
0.00356362
0.00356181
0.00356237
0.00356089
0.00356128
0.00356003
0.00356018
0.00355938
0.00355885
0.00356565
0.00356593
0.00247321
0.00246558
0.00241785
0.0023826
0.00236532
0.00235944
0.00235262
0.00235093
0.00234695
0.00234624
0.00234358
0.00234317
0.00234107
0.00234068
0.00233889
0.0023384
0.00233691
0.00233616
0.00233566
0.00233859
0.00208695
0.00220822
0.00221908
0.00221804
0.00221458
0.0022136
0.00221101
0.00221035
0.00220844
0.00220804
0.0022067
0.00220647
0.00220543
0.00220506
0.00220403
0.00220329
0.00220246
0.00220117
0.0022008
0.00220219
0.00199787
0.00215858
0.00218597
0.00219445
0.00219512
0.00219723
0.00219676
0.00219779
0.00219729
0.0021981
0.00219775
0.00219854
0.00219835
0.00219892
0.00219862
0.00219871
0.00219829
0.00219781
0.00219726
0.00219839
0.00198593
0.00215234
0.00218348
0.00219445
0.00219643
0.00220018
0.00220058
0.00220282
0.0022031
0.00220488
0.00220514
0.00220678
0.00220718
0.00220869
0.00220896
0.00220992
0.00220989
0.00221024
0.00221008
0.00221137
0.00198198
0.00214865
0.0021802
0.0021918
0.00219435
0.00219883
0.00219981
0.00220291
0.00220376
0.00220634
0.0022071
0.00220947
0.00221035
0.00221264
0.00221341
0.00221519
0.0022156
0.00221672
0.00221686
0.00221871
0.00198395
0.00214916
0.00218059
0.00219229
0.00219517
0.00220003
0.0022014
0.00220505
0.0022063
0.00220947
0.00221061
0.00221353
0.00221478
0.00221767
0.00221884
0.00222126
0.00222207
0.00222374
0.00222442
0.00222642
0.00198347
0.00214802
0.00217918
0.00219072
0.00219361
0.00219855
0.00220004
0.0022039
0.00220534
0.00220879
0.00221016
0.00221341
0.00221492
0.00221817
0.00221965
0.00222244
0.00222359
0.00222562
0.00222659
0.00222897
0.00198438
0.00214832
0.00217936
0.00219085
0.00219376
0.00219873
0.00220027
0.00220419
0.00220571
0.00220927
0.00221074
0.00221413
0.00221575
0.00221918
0.00222081
0.00222375
0.00222512
0.00222725
0.00222849
0.00223092
0.00198438
0.00214832
0.00217936
0.00219085
0.00219376
0.00219873
0.00220027
0.00220419
0.00220571
0.00220927
0.00221074
0.00221413
0.00221575
0.00221918
0.00222081
0.00222375
0.00222512
0.00222725
0.0022285
0.00223092
0.00198347
0.00214802
0.00217918
0.00219072
0.00219361
0.00219855
0.00220004
0.0022039
0.00220534
0.00220879
0.00221016
0.00221342
0.00221492
0.00221817
0.00221965
0.00222244
0.0022236
0.00222561
0.00222662
0.00222898
0.00198395
0.00214916
0.00218059
0.00219229
0.00219517
0.00220003
0.0022014
0.00220505
0.0022063
0.00220947
0.00221061
0.00221353
0.00221478
0.00221767
0.00221884
0.00222126
0.00222208
0.00222374
0.00222444
0.00222644
0.00198198
0.00214865
0.0021802
0.0021918
0.00219435
0.00219883
0.00219981
0.00220291
0.00220375
0.00220634
0.00220709
0.00220948
0.00221034
0.00221266
0.0022134
0.00221522
0.00221559
0.00221675
0.00221688
0.00221874
0.00198593
0.00215234
0.00218348
0.00219445
0.00219643
0.00220019
0.00220058
0.00220282
0.0022031
0.00220488
0.00220514
0.0022068
0.00220717
0.00220872
0.00220893
0.00220996
0.00220983
0.00221033
0.00221002
0.00221146
0.00199787
0.00215858
0.00218597
0.00219445
0.00219512
0.00219723
0.00219676
0.00219779
0.00219728
0.00219811
0.00219774
0.00219856
0.00219832
0.00219896
0.00219855
0.00219881
0.00219811
0.00219805
0.00219707
0.00219867
0.00208695
0.00220822
0.00221908
0.00221804
0.00221458
0.0022136
0.002211
0.00221036
0.00220843
0.00220805
0.00220669
0.00220649
0.00220539
0.00220511
0.00220393
0.00220348
0.00220214
0.00220168
0.0022002
0.0022028
0.00247321
0.00246558
0.00241785
0.0023826
0.00236532
0.00235944
0.00235262
0.00235093
0.00234694
0.00234624
0.00234357
0.00234319
0.00234105
0.00234072
0.00233882
0.00233851
0.00233667
0.00233657
0.00233493
0.00233984
0.00395706
0.00377206
0.0036446
0.00359545
0.00357672
0.00357272
0.00356621
0.00356646
0.00356305
0.00356363
0.0035618
0.00356238
0.00356087
0.00356131
0.00355998
0.00356027
0.00355919
0.00355918
0.0035648
0.00356741
0.00817215
0.00839579
0.00839241
0.00839321
0.00839001
0.00839114
0.00838949
0.0083909
0.00838988
0.00839123
0.00839041
0.00839142
0.00839064
0.00839129
0.00839048
0.00839082
0.00839019
0.00839007
0.00839189
0.00839776
0.0232392
0.0234261
0.0235428
0.0236359
0.0237061
0.0237689
0.0238228
0.0238747
0.0239184
0.0239559
0.0239837
0.0240063
0.0240232
0.0240383
0.0240504
0.0240614
0.0240696
0.0240763
0.0240807
0.024084
0.0240857
0.0240872
0.0240877
0.0240884
0.0240885
0.0240889
0.0240889
0.0240891
0.0240892
0.0240894
0.0240894
0.0240896
0.0240896
0.0240898
0.0240898
0.02409
0.02409
0.0240902
0.0240902
0.0240904
0.0240905
0.0240906
0.0240907
0.0240908
0.0240909
0.0240911
0.0240911
0.0240913
0.0240914
0.0240916
0.0240917
0.0240918
0.0240919
0.0240921
0.0240922
0.0240924
0.0240925
0.0240927
0.0240929
0.0240931
0.0240932
0.0240934
0.0240936
0.0240938
0.024094
0.0240942
0.0240944
0.0240946
0.0240948
0.024095
0.0240952
0.0240954
0.0240956
0.0240959
0.0240961
0.0240963
0.0240966
0.0240968
0.0240971
0.0240972
0.0240976
0.0240975
0.0240984
0.0240976
0.0240992
0.0240975
0.0240999
0.0240979
0.0240989
0.0240973
0.0131344
0.0132878
0.0133513
0.0134045
0.0134425
0.0134788
0.0135082
0.0135384
0.0135623
0.0135844
0.0135994
0.0136129
0.013622
0.0136312
0.0136377
0.0136445
0.0136488
0.0136532
0.0136554
0.0136578
0.0136586
0.0136599
0.01366
0.0136609
0.0136608
0.0136614
0.0136613
0.0136619
0.0136618
0.0136623
0.0136623
0.0136628
0.0136627
0.0136632
0.0136632
0.0136636
0.0136636
0.013664
0.013664
0.0136644
0.0136644
0.0136648
0.0136648
0.0136652
0.0136652
0.0136656
0.0136656
0.0136659
0.0136659
0.0136663
0.0136663
0.0136666
0.0136666
0.0136669
0.0136669
0.0136672
0.0136672
0.0136675
0.0136675
0.0136678
0.0136678
0.013668
0.013668
0.0136683
0.0136683
0.0136685
0.0136686
0.0136688
0.0136688
0.013669
0.0136691
0.0136693
0.0136693
0.0136695
0.0136696
0.0136698
0.0136698
0.01367
0.0136701
0.0136702
0.0136704
0.0136704
0.0136708
0.0136704
0.0136713
0.0136703
0.0136716
0.0136706
0.0136703
0.0136693
0.00878548
0.00896713
0.00900465
0.00904104
0.00906314
0.00908872
0.00910585
0.00912756
0.00914212
0.00915885
0.00916817
0.00917902
0.00918433
0.00919206
0.0091958
0.00920192
0.00920445
0.00920891
0.00921013
0.00921314
0.00921348
0.00921561
0.00921558
0.0092173
0.00921717
0.00921872
0.00921862
0.00922009
0.00922004
0.00922146
0.00922147
0.00922284
0.0092229
0.00922423
0.00922433
0.00922563
0.00922577
0.00922702
0.0092272
0.00922841
0.00922861
0.0092298
0.00923001
0.00923116
0.00923139
0.0092325
0.00923274
0.00923381
0.00923406
0.00923509
0.00923534
0.00923633
0.00923658
0.00923753
0.00923778