/*--------------------------------*- C++ -*----------------------------------*\
  =========                 |
  \\      /  F ield         | OpenFOAM: The Open Source CFD Toolbox
   \\    /   O peration     | Website:  https://openfoam.org
    \\  /    A nd           | Version:  7
     \\/     M anipulation  |
\*---------------------------------------------------------------------------*/
FoamFile
{
    version     2.0;
    format      ascii;
    class       volSymmTensorField;
    location    "0.105";
    object      UPrime2Mean;
}
// * * * * * * * * * * * * * * * * * * * * * * * * * * * * * * * * * * * * * //

dimensions      [0 2 -2 0 0 0 0];

internalField   nonuniform List<symmTensor> 
1440
(
(0.0797192 0.000712484 0 1.12446e-05 0 0)
(0.0257098 0.00113945 0 0.000233387 0 0)
(0.0553338 -0.000165539 0 0.00086218 0 0)
(0.0905346 -0.00124649 0 0.00191099 0 0)
(0.122705 -0.00260273 0 0.00327633 0 0)
(0.16061 -0.00576202 0 0.0047394 0 0)
(0.211455 -0.0111241 0 0.00603575 0 0)
(0.277136 -0.0179032 0 0.00693852 0 0)
(0.357098 -0.0252127 0 0.00735549 0 0)
(0.453156 -0.0324885 0 0.00728269 0 0)
(0.567826 -0.0392382 0 0.00682585 0 0)
(0.70303 -0.044999 0 0.00613501 0 0)
(0.857575 -0.0491392 0 0.00528765 0 0)
(1.02953 -0.0514113 0 0.00438096 0 0)
(1.21658 -0.0517237 0 0.0034978 0 0)
(1.41558 -0.0501391 0 0.00269423 0 0)
(1.62287 -0.0469191 0 0.00200171 0 0)
(1.83489 -0.0424192 0 0.00143205 0 0)
(2.04836 -0.0369831 0 0.000983527 0 0)
(2.26023 -0.0309289 0 0.000646467 0 0)
(2.46776 -0.0245707 0 0.000406515 0 0)
(2.66868 -0.0182062 0 0.000247103 0 0)
(2.86122 -0.0120941 0 0.000151416 0 0)
(3.04418 -0.00644496 0 0.000103778 0 0)
(3.21687 -0.00141728 0 9.03809e-05 0 0)
(3.37904 0.00289259 0 9.96256e-05 0 0)
(3.5309 0.00645438 0 0.000122213 0 0)
(3.67292 0.0092881 0 0.000150992 0 0)
(3.80586 0.011448 0 0.00018068 0 0)
(3.93051 0.0130024 0 0.000207527 0 0)
(4.0477 0.014062 0 0.000229392 0 0)
(4.1584 0.0147802 0 0.000245729 0 0)
(4.26345 0.0152777 0 0.000256906 0 0)
(4.36358 0.0156201 0 0.00026337 0 0)
(4.45941 0.0158541 0 0.000265912 0 0)
(4.55147 0.0160057 0 0.000265356 0 0)
(4.64022 0.0160877 0 0.00026246 0 0)
(4.72603 0.0161024 0 0.000257855 0 0)
(4.80923 0.0160454 0 0.000252031 0 0)
(4.89011 0.015911 0 0.00024535 0 0)
(4.96894 0.0156976 0 0.000238085 0 0)
(5.04596 0.0154071 0 0.000230425 0 0)
(5.12141 0.0150468 0 0.000222509 0 0)
(5.19547 0.0146246 0 0.00021443 0 0)
(5.26838 0.014157 0 0.000206394 0 0)
(5.3403 0.0136607 0 0.000198516 0 0)
(5.4114 0.0131459 0 0.000190783 0 0)
(5.48183 0.0126225 0 0.000183155 0 0)
(5.55171 0.0120983 0 0.000175626 0 0)
(5.62114 0.0115791 0 0.000168217 0 0)
(5.69021 0.0110712 0 0.000160962 0 0)
(5.75901 0.0105791 0 0.0001539 0 0)
(5.82758 0.0101036 0 0.00014707 0 0)
(5.89599 0.00964618 0 0.000140501 0 0)
(5.96426 0.00920813 0 0.000134222 0 0)
(6.03244 0.00879078 0 0.000128244 0 0)
(6.10055 0.00839468 0 0.000122567 0 0)
(6.16861 0.00801666 0 0.000117191 0 0)
(6.23666 0.00765762 0 0.000112111 0 0)
(6.3047 0.00732012 0 0.000107323 0 0)
(6.37276 0.00700288 0 0.000102809 0 0)
(6.44084 0.00670405 0 9.85598e-05 0 0)
(6.50895 0.00642221 0 9.45668e-05 0 0)
(6.57712 0.00615841 0 9.08258e-05 0 0)
(6.64533 0.00591312 0 8.73305e-05 0 0)
(6.71361 0.00568593 0 8.40723e-05 0 0)
(6.78194 0.00547399 0 8.10428e-05 0 0)
(6.85036 0.00527631 0 7.82356e-05 0 0)
(6.91883 0.00509124 0 7.56406e-05 0 0)
(6.98738 0.00491991 0 7.32398e-05 0 0)
(7.05598 0.00475911 0 7.10213e-05 0 0)
(7.12467 0.0046072 0 6.89674e-05 0 0)
(7.19341 0.00446498 0 6.70673e-05 0 0)
(7.2622 0.00433019 0 6.5306e-05 0 0)
(7.33106 0.00420528 0 6.36612e-05 0 0)
(7.39997 0.00408735 0 6.21219e-05 0 0)
(7.46892 0.00397517 0 6.06749e-05 0 0)
(7.5379 0.00386943 0 5.93087e-05 0 0)
(7.60692 0.00377169 0 5.80104e-05 0 0)
(7.67595 0.00368048 0 5.67694e-05 0 0)
(7.745 0.00359519 0 5.55782e-05 0 0)
(7.81405 0.00351622 0 5.44344e-05 0 0)
(7.88311 0.00344576 0 5.33322e-05 0 0)
(7.95216 0.00338359 0 5.22644e-05 0 0)
(8.02119 0.0033274 0 5.12296e-05 0 0)
(8.09021 0.00327678 0 5.02268e-05 0 0)
(8.15921 0.0032316 0 4.92553e-05 0 0)
(8.22818 0.00319401 0 4.8311e-05 0 0)
(8.29712 0.0031634 0 4.73916e-05 0 0)
(8.36603 0.00313851 0 4.64987e-05 0 0)
(8.43491 0.00311823 0 4.56348e-05 0 0)
(8.50375 0.00310355 0 4.47977e-05 0 0)
(8.57255 0.0030938 0 4.39833e-05 0 0)
(8.64131 0.00308668 0 4.31926e-05 0 0)
(8.71004 0.00308148 0 4.24262e-05 0 0)
(8.77871 0.00307922 0 4.16849e-05 0 0)
(8.84736 0.00308136 0 4.09653e-05 0 0)
(8.91598 0.00308741 0 4.0263e-05 0 0)
(8.98459 0.00309417 0 3.95823e-05 0 0)
(9.05318 0.00310065 0 3.89181e-05 0 0)
(9.12177 0.00310747 0 3.82784e-05 0 0)
(9.19037 0.00311611 0 3.76418e-05 0 0)
(9.25899 0.00312547 0 3.70371e-05 0 0)
(9.32764 0.00313499 0 3.64188e-05 0 0)
(9.3963 0.00314598 0 3.58641e-05 0 0)
(9.46501 0.00315566 0 3.52598e-05 0 0)
(9.53369 0.00317372 0 3.47763e-05 0 0)
(9.6024 0.00317851 0 3.41691e-05 0 0)
(9.67099 0.00320557 0 3.38143e-05 0 0)
(9.73953 0.00319349 0 3.31888e-05 0 0)
(9.80778 0.00324827 0 3.30709e-05 0 0)
(9.87589 0.00321089 0 3.24058e-05 0 0)
(9.94329 0.00332608 0 3.27294e-05 0 0)
(10.0108 0.00323191 0 3.21042e-05 0 0)
(10.0762 0.00349562 0 3.31458e-05 0 0)
(10.1432 0.00332842 0 3.31343e-05 0 0)
(10.2036 0.00392057 0 3.4954e-05 0 0)
(10.2715 0.00390773 0 3.87776e-05 0 0)
(10.3181 0.0051169 0 4.07117e-05 0 0)
(10.3945 0.00763794 0 7.87684e-05 0 0)
(0.0805593 0.00101127 0 2.20388e-05 0 0)
(0.0284156 0.00142549 0 0.000247381 0 0)
(0.0572803 0.00115525 0 0.000789894 0 0)
(0.0968789 0.00269528 0 0.00169761 0 0)
(0.140661 0.00615395 0 0.00298587 0 0)
(0.188124 0.0103126 0 0.0046441 0 0)
(0.237528 0.014266 0 0.00659601 0 0)
(0.288289 0.0177936 0 0.00867038 0 0)
(0.339972 0.0207536 0 0.0106669 0 0)
(0.39204 0.022701 0 0.0124342 0 0)
(0.444179 0.0232487 0 0.0138972 0 0)
(0.495824 0.0223007 0 0.0150312 0 0)
(0.546408 0.0199271 0 0.0158112 0 0)
(0.596336 0.0162834 0 0.0162142 0 0)
(0.646751 0.0117197 0 0.0162487 0 0)
(0.698523 0.00669882 0 0.0159608 0 0)
(0.752071 0.00159635 0 0.0154134 0 0)
(0.807789 -0.00334212 0 0.0146682 0 0)
(0.866162 -0.00792031 0 0.013781 0 0)
(0.927536 -0.0119639 0 0.0128024 0 0)
(0.992055 -0.0153514 0 0.0117758 0 0)
(1.05973 -0.0180243 0 0.0107393 0 0)
(1.13048 -0.0199802 0 0.00972319 0 0)
(1.20416 -0.0212633 0 0.00875083 0 0)
(1.28054 -0.0219584 0 0.00783919 0 0)
(1.35937 -0.0221805 0 0.00699821 0 0)
(1.4404 -0.0220591 0 0.00623216 0 0)
(1.5234 -0.0217222 0 0.00554104 0 0)
(1.60818 -0.0212823 0 0.00492175 0 0)
(1.69459 -0.020828 0 0.00436929 0 0)
(1.78254 -0.0204181 0 0.00387751 0 0)
(1.872 -0.0200818 0 0.00343942 0 0)
(1.96297 -0.0198217 0 0.00304903 0 0)
(2.05544 -0.0196269 0 0.00270136 0 0)
(2.14946 -0.0194735 0 0.00239256 0 0)
(2.24506 -0.0193335 0 0.00211938 0 0)
(2.34225 -0.0191816 0 0.0018786 0 0)
(2.44103 -0.0189985 0 0.00166689 0 0)
(2.54138 -0.0187711 0 0.00148103 0 0)
(2.64327 -0.0184934 0 0.001318 0 0)
(2.74665 -0.0181652 0 0.00117505 0 0)
(2.85144 -0.0177914 0 0.00104968 0 0)
(2.95756 -0.0173801 0 0.000939635 0 0)
(3.06494 -0.0169419 0 0.000842961 0 0)
(3.17348 -0.0164865 0 0.000757899 0 0)
(3.2831 -0.0160212 0 0.000682912 0 0)
(3.39371 -0.0155529 0 0.000616704 0 0)
(3.50522 -0.0150866 0 0.000558171 0 0)
(3.61754 -0.0146246 0 0.000506327 0 0)
(3.73062 -0.0141671 0 0.000460329 0 0)
(3.84436 -0.0137132 0 0.000419453 0 0)
(3.95869 -0.0132625 0 0.000383086 0 0)
(4.07356 -0.0128145 0 0.000350694 0 0)
(4.18889 -0.0123681 0 0.000321805 0 0)
(4.30462 -0.0119227 0 0.000295997 0 0)
(4.42069 -0.0114792 0 0.000272918 0 0)
(4.53704 -0.0110388 0 0.000252266 0 0)
(4.65364 -0.0106024 0 0.000233767 0 0)
(4.77042 -0.0101715 0 0.000217176 0 0)
(4.88737 -0.00974755 0 0.000202273 0 0)
(5.00443 -0.0093327 0 0.000188878 0 0)
(5.12158 -0.00892821 0 0.000176829 0 0)
(5.23881 -0.00853502 0 0.000165976 0 0)
(5.35609 -0.00815341 0 0.000156183 0 0)
(5.47342 -0.00778376 0 0.000147324 0 0)
(5.59078 -0.00742604 0 0.000139303 0 0)
(5.70816 -0.00707961 0 0.000132031 0 0)
(5.82557 -0.00674362 0 0.000125426 0 0)
(5.94299 -0.00641693 0 0.000119411 0 0)
(6.06043 -0.00609866 0 0.000113923 0 0)
(6.17788 -0.00578768 0 0.000108915 0 0)
(6.29534 -0.00548252 0 0.000104341 0 0)
(6.4128 -0.00518095 0 0.000100153 0 0)
(6.53026 -0.0048813 0 9.63063e-05 0 0)
(6.6477 -0.00458254 0 9.27722e-05 0 0)
(6.7651 -0.00428399 0 8.95271e-05 0 0)
(6.88246 -0.00398514 0 8.65488e-05 0 0)
(6.99975 -0.00368488 0 8.38063e-05 0 0)
(7.11697 -0.00338274 0 8.12749e-05 0 0)
(7.23407 -0.00307936 0 7.89439e-05 0 0)
(7.35106 -0.00277481 0 7.67977e-05 0 0)
(7.4679 -0.00246938 0 7.48162e-05 0 0)
(7.58457 -0.00216398 0 7.29775e-05 0 0)
(7.70107 -0.00186036 0 7.12727e-05 0 0)
(7.81737 -0.00156002 0 6.96905e-05 0 0)
(7.93345 -0.00126362 0 6.8213e-05 0 0)
(8.0493 -0.000971805 0 6.68206e-05 0 0)
(8.16492 -0.000685231 0 6.54967e-05 0 0)
(8.28029 -0.000405358 0 6.42379e-05 0 0)
(8.3954 -0.000132734 0 6.30351e-05 0 0)
(8.51025 0.00013261 0 6.18774e-05 0 0)
(8.62482 0.000390747 0 6.07509e-05 0 0)
(8.73912 0.000641577 0 5.9654e-05 0 0)
(8.85314 0.000884546 0 5.85849e-05 0 0)
(8.96688 0.00111995 0 5.75444e-05 0 0)
(9.08035 0.00134863 0 5.65202e-05 0 0)
(9.19355 0.00157204 0 5.55141e-05 0 0)
(9.30647 0.00178944 0 5.4523e-05 0 0)
(9.41914 0.00200177 0 5.35628e-05 0 0)
(9.53156 0.00220744 0 5.26174e-05 0 0)
(9.64374 0.00240908 0 5.17078e-05 0 0)
(9.75569 0.00260317 0 5.08061e-05 0 0)
(9.86743 0.0027953 0 4.99558e-05 0 0)
(9.97896 0.00297773 0 4.91106e-05 0 0)
(10.0903 0.00316355 0 4.83307e-05 0 0)
(10.2014 0.00333501 0 4.75422e-05 0 0)
(10.3122 0.00351856 0 4.68443e-05 0 0)
(10.423 0.00367502 0 4.61451e-05 0 0)
(10.533 0.00386299 0 4.55567e-05 0 0)
(10.6434 0.00400603 0 4.50004e-05 0 0)
(10.7522 0.00421912 0 4.45217e-05 0 0)
(10.8624 0.0043633 0 4.42692e-05 0 0)
(10.9688 0.00463104 0 4.38956e-05 0 0)
(11.0794 0.00483704 0 4.44405e-05 0 0)
(11.1809 0.00520084 0 4.40468e-05 0 0)
(11.2943 0.00572182 0 4.6986e-05 0 0)
(11.3851 0.00619296 0 4.6201e-05 0 0)
(11.5078 0.00799729 0 5.84239e-05 0 0)
(11.5737 0.00839803 0 5.60364e-05 0 0)
(11.7352 0.0149268 0 0.000117647 0 0)
(0.0805136 0.000645108 0 1.00898e-05 0 0)
(0.0280766 0.000948784 0 0.000115164 0 0)
(0.056872 0.000717208 0 0.00037299 0 0)
(0.0955327 0.0016385 0 0.000812972 0 0)
(0.137383 0.00383854 0 0.00144838 0 0)
(0.183061 0.00658177 0 0.00228114 0 0)
(0.23205 0.00940009 0 0.00328682 0 0)
(0.284469 0.0123106 0 0.00440242 0 0)
(0.340362 0.0153381 0 0.00554252 0 0)
(0.399869 0.0182645 0 0.00662511 0 0)
(0.463184 0.0208524 0 0.00758743 0 0)
(0.529399 0.0229885 0 0.00839026 0 0)
(0.596877 0.024584 0 0.00900339 0 0)
(0.664852 0.0255664 0 0.00940322 0 0)
(0.733505 0.0259871 0 0.00958446 0 0)
(0.802785 0.0260058 0 0.00956331 0 0)
(0.872189 0.0257705 0 0.00936946 0 0)
(0.941384 0.0253793 0 0.00903648 0 0)
(1.01042 0.0249239 0 0.00859869 0 0)
(1.0794 0.0245012 0 0.00808967 0 0)
(1.14837 0.0241845 0 0.00753957 0 0)
(1.21737 0.0240053 0 0.00697395 0 0)
(1.28647 0.0239608 0 0.00641353 0 0)
(1.35575 0.0240221 0 0.00587386 0 0)
(1.42526 0.0241369 0 0.00536544 0 0)
(1.495 0.0242373 0 0.00489411 0 0)
(1.56497 0.0242534 0 0.00446223 0 0)
(1.63513 0.0241278 0 0.00406966 0 0)
(1.70544 0.0238248 0 0.00371471 0 0)
(1.77584 0.0233335 0 0.00339475 0 0)
(1.8463 0.022668 0 0.00310747 0 0)
(1.91676 0.0218634 0 0.00285136 0 0)
(1.98724 0.0209641 0 0.00262437 0 0)
(2.05774 0.020017 0 0.00242427 0 0)
(2.12829 0.0190622 0 0.00224825 0 0)
(2.19894 0.0181308 0 0.00209337 0 0)
(2.26972 0.0172462 0 0.00195705 0 0)
(2.34068 0.0164232 0 0.00183703 0 0)
(2.41187 0.0156683 0 0.00173132 0 0)
(2.48333 0.0149809 0 0.00163808 0 0)
(2.55511 0.0143561 0 0.00155568 0 0)
(2.62722 0.0137865 0 0.00148268 0 0)
(2.6997 0.0132634 0 0.00141777 0 0)
(2.77256 0.0127783 0 0.00135979 0 0)
(2.8458 0.0123234 0 0.00130772 0 0)
(2.91943 0.0118927 0 0.00126067 0 0)
(2.99346 0.0114825 0 0.00121785 0 0)
(3.0679 0.0110904 0 0.00117856 0 0)
(3.14274 0.010715 0 0.0011422 0 0)
(3.218 0.0103563 0 0.00110828 0 0)
(3.29367 0.0100144 0 0.00107637 0 0)
(3.36976 0.00968933 0 0.00104617 0 0)
(3.44628 0.00938065 0 0.00101738 0 0)
(3.52324 0.00908798 0 0.000989825 0 0)
(3.60063 0.00881056 0 0.000963337 0 0)
(3.67846 0.00854725 0 0.000937801 0 0)
(3.75673 0.00829587 0 0.000913103 0 0)
(3.83545 0.00805397 0 0.000889141 0 0)
(3.91461 0.00781935 0 0.000865852 0 0)
(3.99421 0.00759015 0 0.000843193 0 0)
(4.07425 0.00736424 0 0.00082112 0 0)
(4.15474 0.00713915 0 0.000799583 0 0)
(4.23565 0.00691275 0 0.00077854 0 0)
(4.31701 0.0066835 0 0.000757972 0 0)
(4.39879 0.00645037 0 0.000737881 0 0)
(4.48101 0.00621251 0 0.000718254 0 0)
(4.56365 0.00596876 0 0.000699067 0 0)
(4.64671 0.00571891 0 0.000680292 0 0)
(4.7302 0.00546345 0 0.000661923 0 0)
(4.81411 0.0052034 0 0.000643972 0 0)
(4.89844 0.00493982 0 0.000626442 0 0)
(4.9832 0.00467408 0 0.000609311 0 0)
(5.06837 0.00440776 0 0.000592564 0 0)
(5.15397 0.00414319 0 0.000576214 0 0)
(5.23999 0.00388266 0 0.000560275 0 0)
(5.32644 0.00362814 0 0.000544733 0 0)
(5.41331 0.00338129 0 0.000529568 0 0)
(5.5006 0.00314437 0 0.000514777 0 0)
(5.58833 0.0029194 0 0.000500374 0 0)
(5.67647 0.00270789 0 0.00048635 0 0)
(5.76504 0.0025099 0 0.000472684 0 0)
(5.85403 0.00232571 0 0.000459357 0 0)
(5.94344 0.00215543 0 0.000446374 0 0)
(6.03325 0.00199919 0 0.000433725 0 0)
(6.12347 0.00185591 0 0.000421385 0 0)
(6.21408 0.00172459 0 0.000409323 0 0)
(6.30507 0.00160429 0 0.00039753 0 0)
(6.39644 0.00149451 0 0.000386007 0 0)
(6.48817 0.00139342 0 0.000374742 0 0)
(6.58025 0.0012998 0 0.000363704 0 0)
(6.67266 0.00121235 0 0.000352881 0 0)
(6.76539 0.00113133 0 0.00034227 0 0)
(6.85844 0.00105575 0 0.000331887 0 0)
(6.95177 0.000985492 0 0.000321702 0 0)
(7.0454 0.000919251 0 0.000311717 0 0)
(7.1393 0.000857854 0 0.000301913 0 0)
(7.23346 0.000800684 0 0.000292331 0 0)
(7.32789 0.000748489 0 0.000282957 0 0)
(7.42258 0.000699964 0 0.000273815 0 0)
(7.51752 0.00065628 0 0.000264858 0 0)
(7.61273 0.000616881 0 0.000256153 0 0)
(7.70819 0.000582919 0 0.000247648 0 0)
(7.80391 0.000553593 0 0.000239439 0 0)
(7.8999 0.000528662 0 0.000231407 0 0)
(7.99612 0.000509178 0 0.000223701 0 0)
(8.09262 0.000493102 0 0.000216139 0 0)
(8.18924 0.000485381 0 0.000208995 0 0)
(8.28621 0.000478894 0 0.000201907 0 0)
(8.383 0.00048678 0 0.000195365 0 0)
(8.4804 0.000494742 0 0.0001887 0 0)
(8.57685 0.00052825 0 0.000182887 0 0)
(8.67474 0.000568594 0 0.000176642 0 0)
(8.76987 0.000647676 0 0.000171763 0 0)
(8.86883 0.000784163 0 0.00016596 0 0)
(8.96053 0.000947738 0 0.000162391 0 0)
(9.06265 0.00138681 0 0.000157762 0 0)
(9.14646 0.00169826 0 0.000156336 0 0)
(9.25767 0.00306608 0 0.000157909 0 0)
(9.32303 0.00351612 0 0.000159685 0 0)
(9.47347 0.00723099 0 0.000192228 0 0)
(0.080513 0.00043744 0 4.98167e-06 0 0)
(0.0280653 0.000656194 0 5.5761e-05 0 0)
(0.0568419 0.000497116 0 0.000179632 0 0)
(0.095292 0.00112126 0 0.000392175 0 0)
(0.136669 0.00260253 0 0.000697636 0 0)
(0.18159 0.00442306 0 0.00109003 0 0)
(0.229492 0.0062391 0 0.0015535 0 0)
(0.28037 0.00803701 0 0.00206024 0 0)
(0.334168 0.0098775 0 0.00257355 0 0)
(0.391204 0.0117019 0 0.00305693 0 0)
(0.452082 0.0133856 0 0.00348235 0 0)
(0.516227 0.0148355 0 0.00383299 0 0)
(0.58218 0.0159971 0 0.0040999 0 0)
(0.64935 0.0168502 0 0.00427848 0 0)
(0.718107 0.0174364 0 0.00436995 0 0)
(0.788498 0.0178472 0 0.00438215 0 0)
(0.859989 0.0181706 0 0.00432776 0 0)
(0.932197 0.0184632 0 0.00422059 0 0)
(1.00514 0.0187645 0 0.00407419 0 0)
(1.07889 0.019107 0 0.00390066 0 0)
(1.15345 0.0195103 0 0.00371022 0 0)
(1.22882 0.0199734 0 0.00351118 0 0)
(1.30506 0.0204819 0 0.00331024 0 0)
(1.38226 0.0210129 0 0.00311243 0 0)
(1.46045 0.0215369 0 0.00292159 0 0)
(1.53966 0.0220189 0 0.00274029 0 0)
(1.61985 0.0224252 0 0.00257013 0 0)
(1.70098 0.0227298 0 0.00241168 0 0)
(1.78296 0.0229179 0 0.00226504 0 0)
(1.86567 0.0229857 0 0.00212991 0 0)
(1.94901 0.0229405 0 0.00200599 0 0)
(2.03284 0.0227982 0 0.00189288 0 0)
(2.11708 0.0225807 0 0.00179003 0 0)
(2.20164 0.0223112 0 0.00169661 0 0)
(2.28648 0.0220101 0 0.00161161 0 0)
(2.37156 0.0216952 0 0.00153407 0 0)
(2.45685 0.0213822 0 0.00146326 0 0)
(2.54235 0.0210835 0 0.00139864 0 0)
(2.62806 0.0208084 0 0.00133975 0 0)
(2.71399 0.0205628 0 0.00128617 0 0)
(2.80017 0.0203496 0 0.00123748 0 0)
(2.88658 0.0201696 0 0.00119324 0 0)
(2.97325 0.020022 0 0.00115304 0 0)
(3.06017 0.0199044 0 0.00111644 0 0)
(3.14736 0.0198145 0 0.00108304 0 0)
(3.23481 0.0197494 0 0.00105243 0 0)
(3.32252 0.0197067 0 0.00102427 0 0)
(3.41049 0.0196831 0 0.0009982 0 0)
(3.49872 0.0196758 0 0.000973967 0 0)
(3.5872 0.0196822 0 0.000951313 0 0)
(3.67594 0.0197002 0 0.000930041 0 0)
(3.76493 0.0197274 0 0.000909944 0 0)
(3.85417 0.0197622 0 0.000890891 0 0)
(3.94366 0.0198025 0 0.000872766 0 0)
(4.03341 0.0198469 0 0.000855508 0 0)
(4.1234 0.0198929 0 0.000839011 0 0)
(4.21365 0.0199389 0 0.000823215 0 0)
(4.30413 0.0199825 0 0.000808055 0 0)
(4.39486 0.0200223 0 0.00079351 0 0)
(4.48583 0.0200563 0 0.000779529 0 0)
(4.57702 0.0200824 0 0.000766076 0 0)
(4.66842 0.0200989 0 0.000753099 0 0)
(4.76003 0.0201045 0 0.000740587 0 0)
(4.85183 0.0200981 0 0.000728508 0 0)
(4.94381 0.0200792 0 0.00071686 0 0)
(5.03595 0.0200466 0 0.000705592 0 0)
(5.12824 0.0200003 0 0.000694701 0 0)
(5.22065 0.0199404 0 0.000684152 0 0)
(5.31318 0.0198677 0 0.000673955 0 0)
(5.40581 0.0197827 0 0.000664069 0 0)
(5.49852 0.0196866 0 0.000654484 0 0)
(5.59129 0.0195805 0 0.000645167 0 0)
(5.68412 0.0194661 0 0.000636132 0 0)
(5.77698 0.0193449 0 0.000627349 0 0)
(5.86988 0.0192185 0 0.000618823 0 0)
(5.96279 0.0190883 0 0.000610513 0 0)
(6.0557 0.0189564 0 0.000602428 0 0)
(6.14862 0.0188239 0 0.000594541 0 0)
(6.24154 0.0186926 0 0.000586862 0 0)
(6.33444 0.0185624 0 0.000579341 0 0)
(6.42734 0.0184343 0 0.000571993 0 0)
(6.52021 0.0183086 0 0.00056478 0 0)
(6.61306 0.0181863 0 0.000557718 0 0)
(6.70589 0.0180662 0 0.000550744 0 0)
(6.79868 0.0179488 0 0.00054387 0 0)
(6.89144 0.0178332 0 0.00053705 0 0)
(6.98416 0.0177198 0 0.000530319 0 0)
(7.07683 0.0176076 0 0.000523623 0 0)
(7.16945 0.0174964 0 0.000516973 0 0)
(7.26201 0.0173853 0 0.000510314 0 0)
(7.3545 0.0172749 0 0.000503686 0 0)
(7.44691 0.0171644 0 0.000497046 0 0)
(7.53923 0.0170542 0 0.000490433 0 0)
(7.63147 0.0169434 0 0.000483789 0 0)
(7.72361 0.0168332 0 0.000477163 0 0)
(7.81565 0.0167228 0 0.000470505 0 0)
(7.90759 0.0166132 0 0.000463888 0 0)
(7.99943 0.016503 0 0.000457239 0 0)
(8.09119 0.0163938 0 0.000450653 0 0)
(8.18284 0.016284 0 0.000444032 0 0)
(8.27443 0.0161763 0 0.000437519 0 0)
(8.36594 0.0160675 0 0.00043095 0 0)
(8.4574 0.0159617 0 0.000424557 0 0)
(8.54879 0.0158525 0 0.000418045 0 0)
(8.64013 0.015749 0 0.000411849 0 0)
(8.73141 0.0156384 0 0.000405383 0 0)
(8.82261 0.0155401 0 0.000399487 0 0)
(8.91375 0.0154265 0 0.000392964 0 0)
(9.00463 0.0153397 0 0.000387552 0 0)
(9.09557 0.0152223 0 0.000380794 0 0)
(9.18576 0.0151619 0 0.000376243 0 0)
(9.27648 0.0150453 0 0.000368865 0 0)
(9.36522 0.0150436 0 0.000365809 0 0)
(9.45611 0.0149566 0 0.000357116 0 0)
(9.54181 0.0150809 0 0.000356739 0 0)
(9.63447 0.0151217 0 0.000345851 0 0)
(9.71386 0.0154772 0 0.000350101 0 0)
(9.81283 0.0158877 0 0.000337172 0 0)
(9.87785 0.0164594 0 0.000347398 0 0)
(10.0116 0.0175788 0 0.000337772 0 0)
(0.0805123 0.000252186 0 1.751e-06 0 0)
(0.0280567 0.000384573 0 1.93979e-05 0 0)
(0.0568239 0.000291666 0 6.22706e-05 0 0)
(0.0951628 0.000649853 0 0.000135818 0 0)
(0.136311 0.00150302 0 0.00024115 0 0)
(0.180893 0.00254496 0 0.000375521 0 0)
(0.228338 0.00356947 0 0.000533445 0 0)
(0.278616 0.00457365 0 0.000706383 0 0)
(0.331598 0.0056109 0 0.000883059 0 0)
(0.387575 0.00665185 0 0.0010518 0 0)
(0.447267 0.00761016 0 0.00120315 0 0)
(0.51025 0.00842677 0 0.00133127 0 0)
(0.575117 0.00908183 0 0.00143334 0 0)
(0.641279 0.00957081 0 0.00150804 0 0)
(0.709135 0.00990952 0 0.00155505 0 0)
(0.778757 0.0101408 0 0.00157559 0 0)
(0.849593 0.0103137 0 0.0015722 0 0)
(0.921221 0.0104628 0 0.00154815 0 0)
(0.99364 0.010612 0 0.00150688 0 0)
(1.06694 0.0107838 0 0.00145187 0 0)
(1.14111 0.0109959 0 0.00138663 0 0)
(1.21614 0.0112545 0 0.00131441 0 0)
(1.2921 0.0115536 0 0.00123803 0 0)
(1.36905 0.0118785 0 0.00115981 0 0)
(1.44703 0.0122077 0 0.00108179 0 0)
(1.52603 0.0125148 0 0.0010056 0 0)
(1.60603 0.0127731 0 0.000932495 0 0)
(1.68698 0.0129599 0 0.000863398 0 0)
(1.76881 0.0130602 0 0.000798886 0 0)
(1.85143 0.0130672 0 0.000739212 0 0)
(1.93473 0.0129836 0 0.00068442 0 0)
(2.01863 0.0128199 0 0.000634418 0 0)
(2.10305 0.0125925 0 0.000589026 0 0)
(2.18793 0.0123201 0 0.000547965 0 0)
(2.27322 0.0120213 0 0.000510888 0 0)
(2.35888 0.011713 0 0.000477446 0 0)
(2.44491 0.0114102 0 0.000447332 0 0)
(2.5313 0.0111253 0 0.000420279 0 0)
(2.61804 0.0108674 0 0.000396048 0 0)
(2.70514 0.0106422 0 0.000374389 0 0)
(2.79263 0.0104523 0 0.000355049 0 0)
(2.8805 0.0102974 0 0.000337777 0 0)
(2.96877 0.0101761 0 0.000322343 0 0)
(3.05747 0.010086 0 0.000308539 0 0)
(3.14659 0.0100238 0 0.000296174 0 0)
(3.23615 0.00998601 0 0.000285072 0 0)
(3.32615 0.00996943 0 0.00027507 0 0)
(3.41661 0.00997105 0 0.000266038 0 0)
(3.50753 0.00998803 0 0.000257861 0 0)
(3.59891 0.010018 0 0.000250439 0 0)
(3.69075 0.0100592 0 0.000243681 0 0)
(3.78307 0.0101104 0 0.000237513 0 0)
(3.87586 0.0101702 0 0.00023187 0 0)
(3.96912 0.0102369 0 0.000226692 0 0)
(4.06286 0.0103089 0 0.000221925 0 0)
(4.15708 0.0103849 0 0.000217525 0 0)
(4.25178 0.0104638 0 0.000213456 0 0)
(4.34695 0.0105445 0 0.000209685 0 0)
(4.44258 0.0106252 0 0.000206182 0 0)
(4.53868 0.0107042 0 0.000202916 0 0)
(4.63524 0.0107804 0 0.000199867 0 0)
(4.73223 0.010853 0 0.000197014 0 0)
(4.82965 0.0109212 0 0.000194341 0 0)
(4.92749 0.010984 0 0.000191832 0 0)
(5.02572 0.0110408 0 0.00018947 0 0)
(5.12433 0.0110913 0 0.000187241 0 0)
(5.2233 0.0111357 0 0.000185135 0 0)
(5.32261 0.0111741 0 0.000183142 0 0)
(5.42224 0.0112067 0 0.000181255 0 0)
(5.52216 0.0112337 0 0.00017946 0 0)
(5.62236 0.0112556 0 0.000177745 0 0)
(5.72282 0.0112734 0 0.000176107 0 0)
(5.82352 0.0112877 0 0.000174541 0 0)
(5.92444 0.011299 0 0.000173039 0 0)
(6.02556 0.0113077 0 0.000171593 0 0)
(6.12688 0.011315 0 0.000170197 0 0)
(6.22837 0.0113219 0 0.000168852 0 0)
(6.33003 0.0113286 0 0.000167554 0 0)
(6.43185 0.0113351 0 0.000166293 0 0)
(6.53381 0.011342 0 0.000165067 0 0)
(6.63592 0.0113501 0 0.000163874 0 0)
(6.73817 0.0113595 0 0.000162711 0 0)
(6.84055 0.0113699 0 0.000161569 0 0)
(6.94305 0.0113812 0 0.000160444 0 0)
(7.04567 0.0113934 0 0.00015933 0 0)
(7.1484 0.0114066 0 0.000158227 0 0)
(7.25124 0.0114205 0 0.000157127 0 0)
(7.35418 0.0114344 0 0.000156025 0 0)
(7.45722 0.0114487 0 0.000154919 0 0)
(7.56034 0.0114634 0 0.000153807 0 0)
(7.66353 0.0114783 0 0.000152687 0 0)
(7.76679 0.0114929 0 0.000151556 0 0)
(7.87011 0.0115074 0 0.000150411 0 0)
(7.97348 0.011522 0 0.000149252 0 0)
(8.0769 0.0115373 0 0.000148086 0 0)
(8.18034 0.0115527 0 0.00014691 0 0)
(8.28383 0.0115684 0 0.000145729 0 0)
(8.38735 0.0115842 0 0.000144533 0 0)
(8.49091 0.0116012 0 0.000143344 0 0)
(8.5945 0.0116184 0 0.000142144 0 0)
(8.69814 0.0116371 0 0.000140969 0 0)
(8.80182 0.0116551 0 0.000139769 0 0)
(8.90557 0.0116758 0 0.000138622 0 0)
(9.00937 0.0116942 0 0.000137426 0 0)
(9.11321 0.0117177 0 0.000136338 0 0)
(9.21713 0.0117352 0 0.000135134 0 0)
(9.32101 0.0117632 0 0.000134142 0 0)
(9.42501 0.0117784 0 0.000132891 0 0)
(9.52872 0.011816 0 0.000132077 0 0)
(9.63277 0.0118277 0 0.000130705 0 0)
(9.73586 0.0118854 0 0.000130207 0 0)
(9.84005 0.0118957 0 0.000128542 0 0)
(9.94161 0.0119984 0 0.000128625 0 0)
(10.0466 0.0120231 0 0.000126381 0 0)
(10.1446 0.0122187 0 0.000127514 0 0)
(10.2526 0.0123056 0 0.000124295 0 0)
(10.343 0.0126548 0 0.000127187 0 0)
(10.4597 0.0128869 0 0.000122788 0 0)
(10.5322 0.0133364 0 0.00012753 0 0)
(10.6895 0.0137712 0 0.000122303 0 0)
(0.0805118 7.54936e-05 0 1.74187e-07 0 0)
(0.0280509 0.000120677 0 1.94132e-06 0 0)
(0.0568141 9.09419e-05 0 6.28839e-06 0 0)
(0.0951002 0.000200487 0 1.38015e-05 0 0)
(0.136129 0.00046226 0 2.46005e-05 0 0)
(0.180538 0.000777365 0 3.84047e-05 0 0)
(0.227771 0.00108259 0 5.47033e-05 0 0)
(0.277784 0.00137954 0 7.26967e-05 0 0)
(0.330402 0.00168358 0 9.13051e-05 0 0)
(0.385907 0.00198219 0 0.00010941 0 0)
(0.445089 0.00224906 0 0.000126088 0 0)
(0.507597 0.00247134 0 0.000140757 0 0)
(0.572039 0.00264796 0 0.000153066 0 0)
(0.637815 0.00277931 0 0.000162798 0 0)
(0.705338 0.00287046 0 0.000169768 0 0)
(0.774701 0.00293625 0 0.000173946 0 0)
(0.845346 0.00299445 0 0.000175406 0 0)
(0.91683 0.00305908 0 0.000174326 0 0)
(0.989142 0.00314043 0 0.000170915 0 0)
(1.06236 0.00324767 0 0.000165477 0 0)
(1.13645 0.00338508 0 0.000158354 0 0)
(1.21137 0.00354879 0 0.000149942 0 0)
(1.28716 0.00372677 0 0.000140639 0 0)
(1.36388 0.00390285 0 0.000130844 0 0)
(1.44156 0.00405931 0 0.000120909 0 0)
(1.52021 0.00418004 0 0.000111143 0 0)
(1.5998 0.00425209 0 0.000101792 0 0)
(1.68031 0.00426856 0 9.30825e-05 0 0)
(1.76169 0.00422892 0 8.51659e-05 0 0)
(1.84386 0.00413914 0 7.81241e-05 0 0)
(1.92674 0.00401 0 7.19693e-05 0 0)
(2.01023 0.00385544 0 6.66768e-05 0 0)
(2.09426 0.00369025 0 6.21858e-05 0 0)
(2.17877 0.00352831 0 5.84175e-05 0 0)
(2.26369 0.00338121 0 5.52764e-05 0 0)
(2.34898 0.00325773 0 5.26651e-05 0 0)
(2.43464 0.00316349 0 5.04887e-05 0 0)
(2.52063 0.00310182 0 4.86703e-05 0 0)
(2.60697 0.00307402 0 4.71511e-05 0 0)
(2.69365 0.00307846 0 4.5877e-05 0 0)
(2.78069 0.00311136 0 4.47961e-05 0 0)
(2.8681 0.00316806 0 4.38683e-05 0 0)
(2.95591 0.0032436 0 4.30622e-05 0 0)
(3.04412 0.00333344 0 4.23583e-05 0 0)
(3.13276 0.00343332 0 4.17411e-05 0 0)
(3.22184 0.00353951 0 4.12018e-05 0 0)
(3.31138 0.00364864 0 4.07307e-05 0 0)
(3.40138 0.00375823 0 4.03193e-05 0 0)
(3.49186 0.00386638 0 3.9958e-05 0 0)
(3.58283 0.00397182 0 3.9639e-05 0 0)
(3.67428 0.00407359 0 3.93543e-05 0 0)
(3.76624 0.00417099 0 3.9098e-05 0 0)
(3.85869 0.00426352 0 3.88624e-05 0 0)
(3.95165 0.00435088 0 3.86413e-05 0 0)
(4.04511 0.00443277 0 3.84282e-05 0 0)
(4.13907 0.00450899 0 3.82205e-05 0 0)
(4.23354 0.0045793 0 3.8014e-05 0 0)
(4.32852 0.00464356 0 3.78058e-05 0 0)
(4.42398 0.00470155 0 3.75926e-05 0 0)
(4.51993 0.00475348 0 3.73724e-05 0 0)
(4.61637 0.0047995 0 3.71441e-05 0 0)
(4.71326 0.00483988 0 3.69099e-05 0 0)
(4.81062 0.00487488 0 3.66694e-05 0 0)
(4.9084 0.00490493 0 3.64234e-05 0 0)
(5.00661 0.00493054 0 3.61712e-05 0 0)
(5.10523 0.00495239 0 3.59145e-05 0 0)
(5.20422 0.00497108 0 3.56536e-05 0 0)
(5.30357 0.00498723 0 3.53898e-05 0 0)
(5.40327 0.00500132 0 3.51217e-05 0 0)
(5.50328 0.0050139 0 3.48504e-05 0 0)
(5.6036 0.00502548 0 3.45758e-05 0 0)
(5.70419 0.00503646 0 3.42989e-05 0 0)
(5.80504 0.00504716 0 3.40189e-05 0 0)
(5.90614 0.00505793 0 3.37362e-05 0 0)
(6.00746 0.00506896 0 3.3451e-05 0 0)
(6.109 0.00508041 0 3.31648e-05 0 0)
(6.21074 0.0050922 0 3.28767e-05 0 0)
(6.31266 0.00510442 0 3.25875e-05 0 0)
(6.41477 0.0051171 0 3.22974e-05 0 0)
(6.51705 0.00513024 0 3.20079e-05 0 0)
(6.61949 0.00514364 0 3.17187e-05 0 0)
(6.7221 0.00515711 0 3.14304e-05 0 0)
(6.82486 0.00517054 0 3.11417e-05 0 0)
(6.92778 0.00518399 0 3.0853e-05 0 0)
(7.03084 0.00519743 0 3.05645e-05 0 0)
(7.13405 0.00521075 0 3.02764e-05 0 0)
(7.2374 0.00522387 0 2.99879e-05 0 0)
(7.34089 0.0052368 0 2.96993e-05 0 0)
(7.4445 0.00524953 0 2.94107e-05 0 0)
(7.54823 0.00526209 0 2.91227e-05 0 0)
(7.65209 0.00527451 0 2.88349e-05 0 0)
(7.75605 0.00528697 0 2.85469e-05 0 0)
(7.86011 0.00529953 0 2.82588e-05 0 0)
(7.96428 0.00531227 0 2.79715e-05 0 0)
(8.06854 0.00532522 0 2.76857e-05 0 0)
(8.17289 0.00533851 0 2.74014e-05 0 0)
(8.27732 0.00535235 0 2.71187e-05 0 0)
(8.38185 0.00536676 0 2.68367e-05 0 0)
(8.48647 0.00538191 0 2.65578e-05 0 0)
(8.59118 0.00539762 0 2.62802e-05 0 0)
(8.696 0.00541421 0 2.60086e-05 0 0)
(8.80094 0.005431 0 2.57373e-05 0 0)
(8.90598 0.00544882 0 2.54756e-05 0 0)
(9.01116 0.00546632 0 2.52106e-05 0 0)
(9.11643 0.0054855 0 2.49623e-05 0 0)
(9.22185 0.00550313 0 2.47028e-05 0 0)
(9.32729 0.00552343 0 2.44736e-05 0 0)
(9.43294 0.00554001 0 2.42157e-05 0 0)
(9.53833 0.0055624 0 2.40161e-05 0 0)
(9.64419 0.00557763 0 2.375e-05 0 0)
(9.74907 0.00560505 0 2.35978e-05 0 0)
(9.85526 0.00561986 0 2.33017e-05 0 0)
(9.95869 0.0056595 0 2.3232e-05 0 0)
(10.0659 0.00567945 0 2.28627e-05 0 0)
(10.1659 0.00574566 0 2.29381e-05 0 0)
(10.2765 0.00578485 0 2.24108e-05 0 0)
(10.3686 0.00589453 0 2.27339e-05 0 0)
(10.4886 0.00596996 0 2.19013e-05 0 0)
(10.5621 0.00610385 0 2.24847e-05 0 0)
(10.7237 0.00620829 0 2.0945e-05 0 0)
(0.0805118 -9.87586e-05 0 2.56372e-07 0 0)
(0.0280505 -0.000140462 0 2.65727e-06 0 0)
(0.0568127 -0.000107709 0 8.22551e-06 0 0)
(0.0950976 -0.000242133 0 1.75208e-05 0 0)
(0.136123 -0.000558056 0 3.06267e-05 0 0)
(0.180527 -0.000944011 0 4.71489e-05 0 0)
(0.227753 -0.00132754 0 6.6385e-05 0 0)
(0.27776 -0.0017141 0 8.73618e-05 0 0)
(0.330372 -0.00212658 0 0.000108832 0 0)
(0.385871 -0.00255391 0 0.000129481 0 0)
(0.445052 -0.00296298 0 0.000148071 0 0)
(0.507566 -0.00332793 0 0.000163776 0 0)
(0.572022 -0.00363203 0 0.000176136 0 0)
(0.637818 -0.00386197 0 0.000184888 0 0)
(0.705367 -0.00401423 0 0.000189857 0 0)
(0.774759 -0.00409852 0 0.000191126 0 0)
(0.845433 -0.00412944 0 0.00018899 0 0)
(0.916946 -0.00411924 0 0.000183941 0 0)
(0.989279 -0.00408002 0 0.000176468 0 0)
(1.06251 -0.0040266 0 0.000167147 0 0)
(1.1366 -0.00397338 0 0.000156548 0 0)
(1.21151 -0.00393021 0 0.000145225 0 0)
(1.28727 -0.00390086 0 0.00013368 0 0)
(1.36396 -0.00388595 0 0.000122336 0 0)
(1.4416 -0.00388355 0 0.000111517 0 0)
(1.52018 -0.00389076 0 0.000101456 0 0)
(1.59972 -0.00390407 0 9.22884e-05 0 0)
(1.68017 -0.00392127 0 8.41115e-05 0 0)
(1.7615 -0.00394104 0 7.69676e-05 0 0)
(1.84363 -0.00396332 0 7.08473e-05 0 0)
(1.92648 -0.00398825 0 6.56887e-05 0 0)
(2.00995 -0.00401603 0 6.14053e-05 0 0)
(2.09398 -0.00404612 0 5.7888e-05 0 0)
(2.1785 -0.00407766 0 5.50323e-05 0 0)
(2.26345 -0.00410924 0 5.27336e-05 0 0)
(2.34878 -0.00414003 0 5.0909e-05 0 0)
(2.43447 -0.00416974 0 4.94889e-05 0 0)
(2.52051 -0.0041985 0 4.84163e-05 0 0)
(2.60689 -0.00422694 0 4.76431e-05 0 0)
(2.69361 -0.00425494 0 4.71139e-05 0 0)
(2.78068 -0.00428196 0 4.67624e-05 0 0)