/*--------------------------------*- C++ -*----------------------------------*\
  =========                 |
  \\      /  F ield         | OpenFOAM: The Open Source CFD Toolbox
   \\    /   O peration     | Website:  https://openfoam.org
    \\  /    A nd           | Version:  7
     \\/     M anipulation  |
\*---------------------------------------------------------------------------*/
FoamFile
{
    version     2.0;
    format      ascii;
    class       volScalarField;
    location    "1.0225";
    object      nut;
}
// * * * * * * * * * * * * * * * * * * * * * * * * * * * * * * * * * * * * * //

dimensions      [0 2 -1 0 0 0 0];

internalField   nonuniform List<scalar> 
13200
(
0.00817309
0.00839716
0.00839406
0.0083947
0.00839093
0.00839126
0.00838895
0.00838984
0.00838841
0.00838959
0.00838885
0.00839002
0.00838962
0.00839052
0.00839022
0.00839056
0.0083906
0.00838969
0.00839341
0.00839523
0.0039573
0.00377205
0.00364459
0.00359525
0.00357613
0.00357161
0.00356467
0.00356459
0.00356143
0.0035619
0.0035601
0.00356075
0.00355944
0.00356001
0.00355895
0.00355921
0.00355848
0.00355796
0.00356436
0.00356383
0.00247349
0.00246572
0.00241801
0.00238269
0.00236501
0.00235844
0.00235093
0.00234872
0.00234429
0.00234336
0.00234056
0.00234019
0.00233828
0.00233812
0.00233665
0.00233638
0.00233508
0.00233444
0.00233394
0.0023368
0.00208727
0.00220841
0.00221936
0.00221837
0.00221473
0.00221306
0.00220937
0.00220794
0.00220518
0.00220434
0.00220255
0.00220215
0.00220112
0.002201
0.00220047
0.00220022
0.00219983
0.00219899
0.00219884
0.0022005
0.0019982
0.00215876
0.00218623
0.00219484
0.00219541
0.00219685
0.00219546
0.00219546
0.00219406
0.00219416
0.00219323
0.00219353
0.00219307
0.00219363
0.00219367
0.00219433
0.00219447
0.00219471
0.00219464
0.00219623
0.00198626
0.00215251
0.00218371
0.00219483
0.00219684
0.00220001
0.0021996
0.0022006
0.0022
0.00220092
0.0022006
0.00220153
0.00220146
0.00220255
0.00220293
0.00220442
0.00220494
0.0022062
0.00220654
0.00220847
0.00198232
0.00214882
0.00218042
0.00219217
0.00219477
0.00219877
0.00219898
0.00220075
0.00220075
0.00220237
0.00220262
0.00220423
0.00220454
0.00220618
0.00220686
0.00220896
0.00220987
0.00221193
0.00221262
0.00221516
0.00198428
0.00214933
0.00218082
0.00219267
0.0021956
0.0022
0.0022006
0.0022029
0.0022033
0.00220551
0.00220616
0.00220835
0.00220899
0.00221109
0.00221203
0.00221458
0.00221589
0.00221839
0.00221971
0.00222235
0.00198381
0.00214819
0.00217941
0.0021911
0.00219404
0.00219851
0.00219922
0.00220174
0.00220233
0.00220483
0.00220572
0.00220826
0.00220914
0.00221157
0.00221273
0.00221558
0.0022172
0.00221998
0.00222169
0.00222459
0.00198471
0.00214849
0.00217959
0.00219125
0.00219419
0.00219869
0.00219944
0.00220202
0.00220269
0.00220531
0.0022063
0.00220899
0.00220998
0.00221256
0.00221383
0.00221683
0.00221865
0.00222147
0.00222358
0.00222637
0.00198471
0.00214849
0.00217959
0.00219125
0.00219419
0.00219869
0.00219944
0.00220202
0.00220269
0.00220531
0.0022063
0.00220899
0.00220998
0.00221256
0.00221383
0.00221683
0.00221865
0.00222147
0.00222359
0.00222638
0.00198381
0.00214819
0.00217941
0.0021911
0.00219404
0.00219851
0.00219922
0.00220174
0.00220233
0.00220483
0.00220572
0.00220826
0.00220914
0.00221157
0.00221273
0.00221558
0.00221722
0.00221997
0.00222172
0.00222459
0.00198428
0.00214933
0.00218082
0.00219267
0.0021956
0.0022
0.00220059
0.0022029
0.0022033
0.00220551
0.00220616
0.00220835
0.00220899
0.00221109
0.00221203
0.00221458
0.0022159
0.00221838
0.00221974
0.00222236
0.00198232
0.00214882
0.00218042
0.00219217
0.00219477
0.00219878
0.00219898
0.00220075
0.00220075
0.00220238
0.00220261
0.00220424
0.00220454
0.00220619
0.00220685
0.00220897
0.00220987
0.00221194
0.00221265
0.00221519
0.00198626
0.00215251
0.00218371
0.00219483
0.00219683
0.00220002
0.0021996
0.00220061
0.00219999
0.00220093
0.00220059
0.00220155
0.00220145
0.00220258
0.00220291
0.00220446
0.00220491
0.00220626
0.00220651
0.00220851
0.0019982
0.00215876
0.00218623
0.00219484
0.00219541
0.00219685
0.00219546
0.00219546
0.00219406
0.00219416
0.00219322
0.00219355
0.00219304
0.00219369
0.00219361
0.00219443
0.00219435
0.00219489
0.00219446
0.00219646
0.00208727
0.00220841
0.00221936
0.00221837
0.00221473
0.00221306
0.00220937
0.00220794
0.00220518
0.00220435
0.00220253
0.00220217
0.00220108
0.00220105
0.00220037
0.00220035
0.00219959
0.0021994
0.00219836
0.00220105
0.00247349
0.00246572
0.00241801
0.00238269
0.00236501
0.00235844
0.00235093
0.00234872
0.00234429
0.00234336
0.00234054
0.0023402
0.00233825
0.00233816
0.00233656
0.00233649
0.00233485
0.00233479
0.00233332
0.00233788
0.0039573
0.00377205
0.00364459
0.00359525
0.00357613
0.00357161
0.00356467
0.0035646
0.00356143
0.0035619
0.00356009
0.00356076
0.00355942
0.00356004
0.00355889
0.00355931
0.0035583
0.00355827
0.00356362
0.0035652
0.00817309
0.00839716
0.00839406
0.0083947
0.00839093
0.00839126
0.00838895
0.00838984
0.0083884
0.0083896
0.00838884
0.00839003
0.00838959
0.00839058
0.00839012
0.00839073
0.0083903
0.00839022
0.00839234
0.00839777
0.00229665
0.00244912
0.00242529
0.0023968
0.00239218
0.00238073
0.00238091
0.0023742
0.00237513
0.00237051
0.00237149
0.00236808
0.00236888
0.00236624
0.00236683
0.00236465
0.00236514
0.00236301
0.00236328
0.00236578
0.00189575
0.002185
0.002216
0.00221093
0.00220518
0.00219931
0.00219638
0.00219304
0.00219154
0.00218946
0.00218867
0.00218728
0.00218679
0.00218569
0.00218532
0.00218434
0.00218398
0.0021832
0.00218244
0.00218218
0.00176035
0.00206787
0.00211618
0.00212717
0.00213023
0.00213169
0.00213167
0.0021319
0.00213173
0.00213188
0.00213193
0.00213218
0.00213242
0.00213258
0.00213282
0.00213263
0.00213286
0.002132
0.0021324
0.0021346
0.00174373
0.00205272
0.00209867
0.00210829
0.00211057
0.00211252
0.00211305
0.0021142
0.00211472
0.00211582
0.00211654
0.00211761
0.00211859
0.0021196
0.00212071
0.00212127
0.00212228
0.00212205
0.00212301
0.00212306
0.00173579
0.00204506
0.00209064
0.00209918
0.00209968
0.0021002
0.00209969
0.00209994
0.00209996
0.00210071
0.00210126
0.00210235
0.0021033
0.00210459
0.00210599
0.00210717
0.00210861
0.00210915
0.00211023
0.00211217
0.00173933
0.00204882
0.0020941
0.00210242
0.00210252
0.00210247
0.00210129
0.00210088
0.00210013
0.00210032
0.00210035
0.00210089
0.00210136
0.00210238
0.00210347
0.00210481
0.00210615
0.0021072
0.00210799
0.00210992
0.00173677
0.00204603
0.00209128
0.00209959
0.00209964
0.00209953
0.00209819
0.00209758
0.00209649
0.00209645
0.00209619
0.00209643
0.00209654
0.0020972
0.00209793
0.00209928
0.00210036
0.00210176
0.00210252
0.00210464
0.00173913
0.00204847
0.00209352
0.00210176
0.00210181
0.00210171
0.00210036
0.00209973
0.00209856
0.00209847
0.00209811
0.00209827
0.00209822
0.00209865
0.00209915
0.0021004
0.00210131
0.00210279
0.00210347
0.00210553
0.00173795
0.00204711
0.00209215
0.00210033
0.00210036
0.00210026
0.0020989
0.00209827
0.00209711
0.00209703
0.00209666
0.00209682
0.00209671
0.00209708
0.00209747
0.00209866
0.0020995
0.00210101
0.0021017
0.00210369
0.00173885
0.00204799
0.00209296
0.00210109
0.0021011
0.00210098
0.00209962
0.002099
0.00209784
0.00209776
0.0020974
0.00209755
0.00209743
0.00209779
0.00209814
0.00209929
0.00210011
0.00210161
0.00210232
0.00210428
0.00173885
0.00204799
0.00209296
0.00210109
0.0021011
0.00210098
0.00209962
0.002099
0.00209784
0.00209776
0.0020974
0.00209755
0.00209743
0.00209779
0.00209814
0.00209929
0.00210012
0.00210161
0.00210233
0.00210428
0.00173795
0.00204711
0.00209215
0.00210033
0.00210036
0.00210026
0.0020989
0.00209828
0.00209711
0.00209703
0.00209666
0.00209682
0.00209671
0.00209708
0.00209748
0.00209865
0.00209951
0.002101
0.00210172
0.00210369
0.00173913
0.00204847
0.00209352
0.00210176
0.00210181
0.00210171
0.00210036
0.00209973
0.00209856
0.00209848
0.00209811
0.00209828
0.00209821
0.00209866
0.00209914
0.00210039
0.00210131
0.00210278
0.00210348
0.0021055
0.00173677
0.00204603
0.00209128
0.00209959
0.00209964
0.00209953
0.00209819
0.00209758
0.00209648
0.00209646
0.00209618
0.00209644
0.00209654
0.00209721
0.00209791
0.0020993
0.00210034
0.00210177
0.00210253
0.00210463
0.00173933
0.00204882
0.0020941
0.00210242
0.00210252
0.00210247
0.00210129
0.00210088
0.00210012
0.00210033
0.00210034
0.00210091
0.00210134
0.00210242
0.0021034
0.00210489
0.00210605
0.00210728
0.00210795
0.0021099
0.00173579
0.00204506
0.00209064
0.00209918
0.00209968
0.0021002
0.00209969
0.00209995
0.00209996
0.00210072
0.00210124
0.00210238
0.00210324
0.00210467
0.00210587
0.00210732
0.00210841
0.00210936
0.00211007
0.00211229
0.00174373
0.00205272
0.00209867
0.00210829
0.00211057
0.00211253
0.00211305
0.0021142
0.00211472
0.00211583
0.00211652
0.00211765
0.00211853
0.00211969
0.00212057
0.00212146
0.00212202
0.00212235
0.00212254
0.00212352
0.00176035
0.00206787
0.00211618
0.00212717
0.00213023
0.00213169
0.00213167
0.0021319
0.00213173
0.00213189
0.00213192
0.0021322
0.00213238
0.00213265
0.00213273
0.00213276
0.00213266
0.00213238
0.00213179
0.0021354
0.00189575
0.002185
0.002216
0.00221093
0.00220518
0.00219931
0.00219638
0.00219304
0.00219154
0.00218947
0.00218866
0.00218729
0.00218678
0.00218572
0.00218528
0.00218442
0.00218383
0.00218346
0.002182
0.0021832
0.00229665
0.00244912
0.00242529
0.0023968
0.00239218
0.00238073
0.00238091
0.0023742
0.00237513
0.00237051
0.00237148
0.00236808
0.00236887
0.00236626
0.00236681
0.0023647
0.00236509
0.00236316
0.00236309
0.00236642
0.000880302
0.000996439
0.000924667
0.000829109
0.000769235
0.000736033
0.000712472
0.00069608
0.000682194
0.000670962
0.000661477
0.000653153
0.000646464
0.000640172
0.000635359
0.000630569
0.000626729
0.00062402
0.000618316
0.000621388
0.00035988
0.000575683
0.000632091
0.000642241
0.000641657
0.00063909
0.000633857
0.000628617
0.000623279
0.000618412
0.000613741
0.000609471
0.000605425
0.000601752
0.000598201
0.000595255
0.000591921
0.000590048
0.000586374
0.000586238
0.000156603
0.000355749
0.000430515
0.00046267
0.000476179
0.00048732
0.000494157
0.000501571
0.000506454
0.000511622
0.000514947
0.00051832
0.000520385
0.000522416
0.000523457
0.000524624
0.000524879
0.00052541
0.000525186
0.000526027
0.000143972
0.000324786
0.000393384
0.000425402
0.000437325
0.0004451
0.000448331
0.000452323
0.000454825
0.000458254
0.000460971
0.000464166
0.000466987
0.000469847
0.000472507
0.000474943
0.000477232
0.000479182
0.00048118
0.000483073
0.000140862
0.000317137
0.000381944
0.000413933
0.000425254
0.000432472
0.000434104
0.0004363
0.000436704
0.000437804
0.000438309
0.00043944
0.000440325
0.000441515
0.000442771
0.000443888
0.000445351
0.000446365
0.000447757
0.00044913
0.000143804
0.000322319
0.000386812
0.000417901
0.00042936
0.000436126
0.00043784
0.000439533
0.000439686
0.000440155
0.000440227
0.000440506
0.000440752
0.000441098
0.000441583
0.000441896
0.000442526
0.000442795
0.00044333
0.000444196
0.000141785
0.000318829
0.000383294
0.00041466
0.000425932
0.000432809
0.00043437
0.000436094
0.000436151
0.000436516
0.000436468
0.000436597
0.000436621
0.00043678
0.000436944
0.000437089
0.000437297
0.000437409
0.000437531
0.000438089
0.000143453
0.00032185
0.00038639
0.00041736
0.000428674
0.000435354
0.000437013
0.00043865
0.000438748
0.000439113
0.000439086
0.000439182
0.000439209
0.000439327
0.000439485
0.000439588
0.00043978
0.000439826
0.000439958
0.000440432
0.00014244
0.000320024
0.000384541
0.000415677
0.000426914
0.00043367
0.00043526
0.000436941
0.00043702
0.000437391
0.000437356
0.000437469
0.000437483
0.000437604
0.000437736
0.000437868
0.000438014
0.000438099
0.000438163
0.000438617
0.000143007
0.00032107
0.000385626
0.000416626
0.000427864
0.000434546
0.000436157
0.000437805
0.000437895
0.000438265
0.000438239
0.000438347
0.000438371
0.000438492
0.000438637
0.000438757
0.000438924
0.000438987
0.000439093
0.000439543
0.000143007
0.00032107
0.000385626
0.000416626
0.000427864
0.000434546
0.000436157
0.000437805
0.000437895
0.000438265
0.000438239
0.000438347
0.000438371
0.000438493
0.000438637
0.000438758
0.000438925
0.000438989
0.000439095
0.000439546
0.00014244
0.000320024
0.000384541
0.000415677
0.000426914
0.00043367
0.00043526
0.000436941
0.00043702
0.000437391
0.000437356
0.000437469
0.000437483
0.000437603
0.000437736
0.000437866
0.000438015
0.000438095
0.000438161
0.000438614
0.000143453
0.00032185
0.00038639
0.00041736
0.000428674
0.000435354
0.000437013
0.00043865
0.000438748
0.000439113
0.000439086
0.000439183
0.000439209
0.000439327
0.000439484
0.000439589
0.000439781
0.000439828
0.00043996
0.000440434
0.000141785
0.00031883
0.000383294
0.00041466
0.000425932
0.000432809
0.000434369
0.000436094
0.000436151
0.000436516
0.000436468
0.000436597
0.000436621
0.000436781
0.00043694
0.00043709
0.000437295
0.000437404
0.000437528
0.000438081
0.000143804
0.000322319
0.000386811
0.000417901
0.000429359
0.000436126
0.00043784
0.000439534
0.000439686
0.000440155
0.000440227
0.00044051
0.000440744
0.000441105
0.000441574
0.0004419
0.000442517
0.000442793
0.000443324
0.000444177
0.000140862
0.000317137
0.000381944
0.000413933
0.000425253
0.000432472
0.000434103
0.0004363
0.000436704
0.000437805
0.000438308
0.000439444
0.000440313
0.000441526
0.000442751
0.000443899
0.000445325
0.000446352
0.000447729
0.00044907
0.000143972
0.000324786
0.000393384
0.000425402
0.000437325
0.000445101
0.00044833
0.000452325
0.000454822
0.000458258
0.000460965
0.000464172
0.000466974
0.000469855
0.000472485
0.000474942
0.0004772
0.00047915
0.000481107
0.000482952
0.000156603
0.000355749
0.000430514
0.00046267
0.000476179
0.000487321
0.000494155
0.000501574
0.00050645
0.000511627
0.000514938
0.000518329
0.000520365
0.00052243
0.000523422
0.000524629
0.000524852
0.000525365
0.000525104
0.000525904
0.00035988
0.000575683
0.000632091
0.000642241
0.000641657
0.00063909
0.000633856
0.000628619
0.000623275
0.000618418
0.000613731
0.000609486
0.000605402
0.000601789
0.000598147
0.000595344
0.000591823
0.00059013
0.000586275
0.00058643
0.000880302
0.000996439
0.000924667
0.000829109
0.000769234
0.000736034
0.000712472
0.000696082
0.000682194
0.000670969
0.000661476
0.000653173
0.000646466
0.000640222
0.000635373
0.000630695
0.000626787
0.00062431
0.00061854
0.000622234
0.000880302
0.000996439
0.000924667
0.000829109
0.000769235
0.000736033
0.000712472
0.00069608
0.000682194
0.000670962
0.000661476
0.000653153
0.000646464
0.000640172
0.000635359
0.000630569
0.000626729
0.00062402
0.000618316
0.000621388
0.00035988
0.000575683
0.000632091
0.000642241
0.000641657
0.00063909
0.000633857
0.000628617
0.000623279
0.000618412
0.00061374
0.000609471
0.000605425
0.000601752
0.000598201
0.000595255
0.000591922
0.000590048
0.000586374
0.000586239
0.000156603
0.000355749
0.000430515
0.00046267
0.000476179
0.00048732
0.000494157
0.000501572
0.000506455
0.000511623
0.000514947
0.00051832
0.000520385
0.000522416
0.000523457
0.000524623
0.000524879
0.00052541
0.000525186
0.000526027
0.000143972
0.000324786
0.000393384
0.000425402
0.000437325
0.0004451
0.000448331
0.000452324
0.000454825
0.000458254
0.000460971
0.000464166
0.000466987
0.000469847
0.000472507
0.000474943
0.000477232
0.000479182
0.00048118
0.000483073
0.000140862
0.000317137
0.000381944
0.000413933
0.000425254
0.000432472
0.000434104
0.0004363
0.000436704
0.000437804
0.000438309
0.00043944
0.000440325
0.000441515
0.000442771
0.000443888
0.000445351
0.000446365
0.000447757
0.00044913
0.000143804
0.000322319
0.000386812
0.000417901
0.00042936
0.000436126
0.00043784
0.000439533
0.000439686
0.000440155
0.000440227
0.000440506
0.000440752
0.000441098
0.000441583
0.000441896
0.000442526
0.000442795
0.00044333
0.000444196
0.000141785
0.000318829
0.000383294
0.00041466
0.000425932
0.000432809
0.00043437
0.000436094
0.000436151
0.000436516
0.000436468
0.000436597
0.000436621
0.00043678
0.000436944
0.000437089
0.000437297
0.000437409
0.000437531
0.000438089
0.000143453
0.00032185
0.00038639
0.00041736
0.000428675
0.000435354
0.000437013
0.00043865
0.000438748
0.000439113
0.000439086
0.000439182
0.000439209
0.000439327
0.000439485
0.000439588
0.00043978
0.000439826
0.000439959
0.000440432
0.000142441
0.000320024
0.000384541
0.000415677
0.000426914
0.00043367
0.00043526
0.000436941
0.00043702
0.000437391
0.000437356
0.000437469
0.000437483
0.000437604
0.000437736
0.000437868
0.000438015
0.000438099
0.000438163
0.000438617
0.000143007
0.00032107
0.000385626
0.000416626
0.000427864
0.000434546
0.000436157
0.000437805
0.000437895
0.000438265
0.000438239
0.000438347
0.000438371
0.000438492
0.000438637
0.000438757
0.000438924
0.000438987
0.000439093
0.000439543
0.000143007
0.00032107
0.000385626
0.000416626
0.000427864
0.000434546
0.000436157
0.000437805
0.000437895
0.000438265
0.000438239
0.000438347
0.000438371
0.000438493
0.000438637
0.000438758
0.000438925
0.000438989
0.000439095
0.000439546
0.00014244
0.000320024
0.000384541
0.000415677
0.000426914
0.00043367
0.00043526
0.000436941
0.00043702
0.000437391
0.000437356
0.000437469
0.000437483
0.000437603
0.000437736
0.000437866
0.000438015
0.000438095
0.000438162
0.000438614
0.000143453
0.00032185
0.00038639
0.00041736
0.000428674
0.000435354
0.000437013
0.000438651
0.000438748
0.000439113
0.000439086
0.000439183
0.000439209
0.000439328
0.000439485
0.000439589
0.000439781
0.000439828
0.00043996
0.000440434
0.000141785
0.00031883
0.000383294
0.00041466
0.000425932
0.000432809
0.000434369
0.000436094
0.000436151
0.000436516
0.000436468
0.000436598
0.000436621
0.000436781
0.00043694
0.00043709
0.000437295
0.000437404
0.000437528
0.000438081
0.000143804
0.000322319
0.000386811
0.000417901
0.000429359
0.000436126
0.00043784
0.000439534
0.000439686
0.000440155
0.000440227
0.00044051
0.000440744
0.000441105
0.000441574
0.0004419
0.000442517
0.000442793
0.000443324
0.000444177
0.000140862
0.000317137
0.000381944
0.000413933
0.000425253
0.000432472
0.000434103
0.0004363
0.000436704
0.000437805
0.000438308
0.000439444
0.000440313
0.000441526
0.000442751
0.000443899
0.000445325
0.000446353
0.000447729
0.00044907
0.000143972
0.000324786
0.000393384
0.000425402
0.000437325
0.000445101
0.00044833
0.000452325
0.000454822
0.000458258
0.000460965
0.000464172
0.000466974
0.000469855
0.000472485
0.000474942
0.0004772
0.00047915
0.000481107
0.000482952
0.000156603
0.000355749
0.000430514
0.00046267
0.000476179
0.000487321
0.000494155
0.000501574
0.00050645
0.000511627
0.000514938
0.000518329
0.000520365
0.00052243
0.000523423
0.000524629
0.000524852
0.000525365
0.000525104
0.000525904
0.00035988
0.000575683
0.000632091
0.000642241
0.000641657
0.00063909
0.000633856
0.000628619
0.000623275
0.000618418
0.000613731
0.000609486
0.000605402
0.000601789
0.000598147
0.000595344
0.000591823
0.00059013
0.000586275
0.00058643
0.000880302
0.000996439
0.000924667
0.000829109
0.000769234
0.000736034
0.000712472
0.000696083
0.000682194
0.000670969
0.000661477
0.000653173
0.000646466
0.000640222
0.000635373
0.000630695
0.000626787
0.00062431
0.00061854
0.000622234
0.00229665
0.00244912
0.00242529
0.0023968
0.00239218
0.00238073
0.00238091
0.0023742
0.00237513
0.00237051
0.00237149
0.00236808
0.00236888
0.00236624
0.00236683
0.00236465
0.00236514
0.00236301
0.00236328
0.00236578
0.00189575
0.002185
0.002216
0.00221093
0.00220518
0.00219931
0.00219638
0.00219304
0.00219154
0.00218946
0.00218867
0.00218728
0.00218679
0.00218569
0.00218532
0.00218434
0.00218397
0.0021832
0.00218244
0.00218218
0.00176035
0.00206787
0.00211618
0.00212717
0.00213023
0.00213169
0.00213167
0.0021319
0.00213173
0.00213188
0.00213193
0.00213218
0.00213242
0.00213258
0.00213282
0.00213263
0.00213285
0.002132
0.0021324
0.0021346
0.00174373
0.00205272
0.00209867
0.00210829
0.00211057
0.00211252
0.00211305
0.0021142
0.00211472
0.00211582
0.00211654
0.00211761
0.00211859
0.0021196
0.00212071
0.00212127
0.00212228
0.00212205
0.00212301
0.00212306
0.00173579
0.00204506
0.00209064
0.00209918
0.00209968
0.0021002
0.00209969
0.00209994
0.00209996
0.00210071
0.00210126
0.00210235
0.0021033
0.00210459
0.00210599
0.00210717
0.00210861
0.00210915
0.00211023
0.00211217
0.00173933
0.00204882
0.0020941
0.00210242
0.00210252
0.00210247
0.00210129
0.00210088
0.00210013
0.00210032
0.00210035
0.00210089
0.00210136
0.00210238
0.00210347
0.00210481
0.00210615
0.0021072
0.00210799
0.00210992
0.00173677
0.00204603
0.00209128
0.00209959
0.00209964
0.00209953
0.00209819
0.00209758
0.00209649
0.00209645
0.00209619
0.00209643
0.00209654
0.0020972
0.00209793
0.00209928
0.00210036
0.00210176
0.00210252
0.00210464
0.00173913
0.00204847
0.00209352
0.00210176
0.00210181
0.00210171
0.00210036
0.00209973
0.00209856
0.00209847
0.00209811
0.00209827
0.00209822
0.00209865
0.00209915
0.0021004
0.00210131
0.00210279
0.00210347
0.00210553
0.00173795
0.00204711
0.00209215
0.00210033
0.00210036
0.00210026
0.0020989
0.00209827
0.00209711
0.00209703
0.00209666
0.00209682
0.00209671
0.00209708
0.00209747
0.00209866
0.0020995
0.00210101
0.0021017
0.00210369
0.00173885
0.00204799
0.00209296
0.00210109
0.0021011
0.00210098
0.00209962
0.002099
0.00209784
0.00209776
0.0020974
0.00209755
0.00209743
0.00209779
0.00209814
0.00209929
0.00210011
0.00210161
0.00210232
0.00210428
0.00173885
0.00204799
0.00209296
0.00210109
0.0021011
0.00210098
0.00209962
0.002099
0.00209784
0.00209776
0.0020974
0.00209755
0.00209743
0.00209779
0.00209814
0.00209929
0.00210012
0.00210161
0.00210233
0.00210428
0.00173795
0.00204711
0.00209215
0.00210033
0.00210036
0.00210026
0.0020989
0.00209828
0.00209711
0.00209703
0.00209666
0.00209682
0.00209671
0.00209708
0.00209748
0.00209866
0.00209951
0.002101
0.00210172
0.00210369
0.00173913
0.00204847
0.00209352
0.00210176
0.00210181
0.00210171
0.00210036
0.00209973
0.00209856
0.00209848
0.00209811
0.00209828
0.00209821
0.00209866
0.00209914
0.0021004
0.00210131
0.00210278
0.00210348
0.0021055
0.00173677
0.00204603
0.00209128
0.00209959
0.00209964
0.00209953
0.00209819
0.00209758
0.00209648
0.00209646
0.00209618
0.00209644
0.00209654
0.00209721
0.00209791
0.0020993
0.00210034
0.00210177
0.00210253
0.00210463
0.00173933
0.00204882
0.0020941
0.00210242
0.00210252
0.00210247
0.00210129
0.00210088
0.00210012
0.00210033
0.00210034
0.00210091
0.00210134
0.00210242
0.0021034
0.00210489
0.00210605
0.00210728
0.00210795
0.0021099
0.00173579
0.00204506
0.00209064
0.00209918
0.00209968
0.0021002
0.00209969
0.00209995
0.00209996
0.00210072
0.00210124
0.00210238
0.00210324
0.00210467
0.00210588
0.00210732
0.00210841
0.00210936
0.00211007
0.00211229
0.00174373
0.00205272
0.00209867
0.00210829
0.00211057
0.00211253
0.00211305
0.0021142
0.00211472
0.00211583
0.00211652
0.00211765
0.00211853
0.00211969
0.00212057
0.00212147
0.00212202
0.00212235
0.00212254
0.00212352
0.00176035
0.00206787
0.00211618
0.00212717
0.00213023
0.00213169
0.00213167
0.0021319
0.00213173
0.00213189
0.00213192
0.0021322
0.00213238
0.00213265
0.00213273
0.00213276
0.00213266
0.00213238
0.00213179
0.0021354
0.00189575
0.002185
0.002216
0.00221093
0.00220518
0.00219931
0.00219638
0.00219304
0.00219154
0.00218947
0.00218866
0.00218729
0.00218678
0.00218572
0.00218528
0.00218442
0.00218383
0.00218346
0.002182
0.0021832
0.00229665
0.00244912
0.00242529
0.0023968
0.00239218
0.00238073
0.00238091
0.0023742
0.00237513
0.00237051
0.00237148
0.00236808
0.00236887
0.00236626
0.00236681
0.0023647
0.00236509
0.00236316
0.00236309
0.00236642
0.00817309
0.00839716
0.00839406
0.0083947
0.00839093
0.00839126
0.00838895
0.00838984
0.00838841
0.00838959
0.00838885
0.00839001
0.00838962
0.00839052
0.00839022
0.00839056
0.0083906
0.00838969
0.00839341
0.00839523
0.0039573
0.00377205
0.00364459
0.00359525
0.00357613
0.00357161
0.00356467
0.00356459
0.00356143
0.0035619
0.0035601
0.00356075
0.00355944
0.00356001
0.00355895
0.00355921
0.00355848
0.00355796
0.00356436
0.00356383
0.00247349
0.00246572
0.00241801
0.00238269
0.00236501
0.00235844
0.00235093
0.00234872
0.00234429
0.00234336
0.00234056
0.00234019
0.00233828
0.00233812
0.00233665
0.00233638
0.00233508
0.00233444
0.00233394
0.0023368
0.00208727
0.00220841
0.00221936
0.00221837
0.00221473
0.00221306
0.00220937
0.00220794
0.00220518
0.00220434
0.00220255
0.00220215
0.00220112
0.002201
0.00220047
0.00220022
0.00219982
0.00219899
0.00219884
0.0022005
0.0019982
0.00215876
0.00218623
0.00219484
0.00219541
0.00219685
0.00219546
0.00219546
0.00219406
0.00219416
0.00219323
0.00219353
0.00219307
0.00219363
0.00219367
0.00219433
0.00219447
0.0021947
0.00219464
0.00219623
0.00198626
0.00215251
0.00218371
0.00219483
0.00219684
0.00220001
0.0021996
0.0022006
0.0022
0.00220092
0.0022006
0.00220153
0.00220146
0.00220255
0.00220293
0.00220442
0.00220494
0.0022062
0.00220654
0.00220847
0.00198232
0.00214882
0.00218042
0.00219217
0.00219477
0.00219877
0.00219898
0.00220075
0.00220075
0.00220237
0.00220262
0.00220423
0.00220454
0.00220618
0.00220686
0.00220896
0.00220987
0.00221193
0.00221262
0.00221516
0.00198428
0.00214933
0.00218082
0.00219267
0.0021956
0.0022
0.0022006
0.0022029
0.0022033
0.00220551
0.00220616
0.00220835
0.00220899
0.00221109
0.00221203
0.00221458
0.00221589
0.00221839
0.00221971
0.00222235
0.00198381
0.00214819
0.00217941
0.0021911
0.00219404
0.00219851
0.00219922
0.00220174
0.00220233
0.00220483
0.00220572
0.00220826
0.00220914
0.00221157
0.00221273
0.00221558
0.0022172
0.00221998
0.00222169
0.00222459
0.00198471
0.00214849
0.00217959
0.00219125
0.00219419
0.00219869
0.00219944
0.00220202
0.00220269
0.00220531
0.0022063
0.00220899
0.00220998
0.00221256
0.00221383
0.00221683
0.00221865
0.00222147
0.00222358
0.00222637
0.00198471
0.00214849
0.00217959
0.00219125
0.00219419
0.00219869
0.00219944
0.00220202
0.00220269
0.00220531
0.0022063
0.00220899
0.00220998
0.00221256
0.00221383
0.00221683
0.00221865
0.00222147
0.00222359
0.00222638
0.00198381
0.00214819
0.00217941
0.0021911
0.00219404
0.00219851
0.00219922
0.00220174
0.00220233
0.00220483
0.00220572
0.00220826
0.00220914
0.00221157
0.00221273
0.00221558
0.00221722
0.00221997
0.00222172
0.00222459
0.00198428
0.00214933
0.00218082
0.00219267
0.0021956
0.0022
0.00220059
0.0022029
0.0022033
0.00220551
0.00220616
0.00220835
0.00220899
0.00221109
0.00221203
0.00221458
0.0022159
0.00221838
0.00221974
0.00222236
0.00198232
0.00214882
0.00218042
0.00219217
0.00219477
0.00219878
0.00219898
0.00220075
0.00220075
0.00220238
0.00220261
0.00220424
0.00220454
0.00220619
0.00220685
0.00220897
0.00220987
0.00221194
0.00221265
0.00221519
0.00198626
0.00215251
0.00218371
0.00219483
0.00219683
0.00220002
0.00219959
0.00220061
0.00219999
0.00220093
0.00220059
0.00220155
0.00220145
0.00220258
0.00220291
0.00220446
0.00220491
0.00220626
0.00220651
0.00220851
0.0019982
0.00215876
0.00218623
0.00219484
0.00219541
0.00219685
0.00219546
0.00219546
0.00219406
0.00219417
0.00219322
0.00219355
0.00219304
0.00219369
0.00219362
0.00219443
0.00219435
0.00219489
0.00219446
0.00219646
0.00208727
0.00220841
0.00221936
0.00221837
0.00221473
0.00221306
0.00220937
0.00220794
0.00220518
0.00220435
0.00220253
0.00220217
0.00220109
0.00220106
0.00220037
0.00220035
0.00219959
0.0021994
0.00219836
0.00220105
0.00247349
0.00246572
0.00241801
0.00238269
0.00236501
0.00235844
0.00235093
0.00234872
0.00234429
0.00234336
0.00234055
0.00234021
0.00233825
0.00233816
0.00233656
0.00233649
0.00233485
0.00233479
0.00233332
0.00233788
0.0039573
0.00377205
0.00364459
0.00359525
0.00357613
0.00357161
0.00356467
0.0035646
0.00356143
0.0035619
0.00356009
0.00356076
0.00355942
0.00356004
0.00355889
0.00355931
0.0035583
0.00355827
0.00356362
0.0035652
0.00817309
0.00839716
0.00839406
0.0083947
0.00839093
0.00839126
0.00838895
0.00838984
0.0083884
0.0083896
0.00838884
0.00839004
0.00838959
0.00839058
0.00839012
0.00839073
0.0083903
0.00839022
0.00839234
0.00839777
0.0232275
0.0234015
0.0235141
0.0236083
0.0236804
0.0237396
0.0237829
0.0238193
0.0238467
0.0238701
0.0238866
0.0238994
0.0239071
0.0239128
0.0239157
0.023918
0.023919
0.0239201
0.0239205
0.0239212
0.0239215
0.023922
0.0239223
0.0239228
0.023923
0.0239235
0.0239238
0.0239242
0.0239245
0.0239249
0.0239251
0.0239255
0.0239258
0.0239262
0.0239264
0.0239268
0.0239271
0.0239274
0.0239277
0.023928
0.0239283
0.0239286
0.0239289
0.0239292
0.0239295
0.0239298
0.0239301
0.0239304
0.0239307
0.023931
0.0239312
0.0239315
0.0239318
0.0239321
0.0239324
0.0239327
0.0239329
0.0239332
0.0239335
0.0239338
0.0239341
0.0239343
0.0239346
0.0239349
0.0239352
0.0239354
0.0239357
0.023936
0.0239362
0.0239365
0.0239368
0.0239371
0.0239373
0.0239376
0.0239379
0.0239381
0.0239384
0.0239387
0.0239389
0.0239391
0.0239395
0.0239395
0.0239403
0.0239394
0.0239416
0.0239386
0.0239439
0.0239365
0.0239457
0.0239374
0.0131265
0.0132703
0.0133311
0.0133845
0.0134232
0.0134571
0.0134801
0.0135011
0.0135155
0.0135291
0.0135374
0.013545
0.0135485
0.0135519
0.0135528
0.0135542
0.0135541
0.0135548
0.0135544
0.0135549
0.0135545
0.0135548
0.0135544
0.0135547
0.0135544
0.0135546
0.0135543
0.0135546
0.0135543
0.0135545
0.0135543
0.0135545
0.0135543
0.0135545
0.0135543
0.0135545
0.0135543
0.0135545
0.0135543
0.0135545
0.0135544
0.0135545
0.0135544
0.0135546
0.0135545
0.0135547
0.0135546
0.0135548
0.0135547
0.0135549
0.0135549
0.013555
0.013555
0.0135551
0.0135551
0.0135553
0.0135553
0.0135555
0.0135555
0.0135556
0.0135557
0.0135558
0.0135559
0.013556
0.0135561
0.0135562
0.0135563
0.0135565
0.0135565
0.0135567
0.0135568
0.013557
0.013557
0.0135572
0.0135573
0.0135575
0.0135576
0.0135577
0.0135579
0.013558
0.0135582
0.0135582
0.0135586
0.0135581
0.0135593
0.0135577
0.0135606
0.0135565
0.0135609
0.0135561
0.00877951
0.00895216
0.00898663
0.00902227
0.00904468
0.00906856
0.00908141
0.00909645
0.00910404
0.00911423
0.00911837
0.00912455
0.00912573
0.00912892
0.00912839
0.00913002
0.00912886
0.00912982
0.00912852
0.00912921
0.00912794
0.00912848
0.0091273
0.00912774
0.00912663
0.009127
0.00912596
0.00912627
0.00912529
0.00912555
0.00912463
0.00912484
0.00912398
0.00912416
0.00912335
0.00912349
0.00912273
0.00912285
0.00912214
0.00912224
0.00912157
0.00912166
0.00912103
0.00912111
0.00912052
0.00912059
0.00912005
0.00912011
0.0091196
0.00911966
0.00911919
0.00911924
0.00911881
0.00911887
0.00911847
0.00911853
0.00911816
0.00911822
0.00911789
0.00911796