/*--------------------------------*- C++ -*----------------------------------*\
  =========                 |
  \\      /  F ield         | OpenFOAM: The Open Source CFD Toolbox
   \\    /   O peration     | Website:  https://openfoam.org
    \\  /    A nd           | Version:  7
     \\/     M anipulation  |
\*---------------------------------------------------------------------------*/
FoamFile
{
    version     2.0;
    format      ascii;
    class       volScalarField;
    location    "1.0225";
    object      pPrime2Mean;
}
// * * * * * * * * * * * * * * * * * * * * * * * * * * * * * * * * * * * * * //

dimensions      [2 -2 -4 0 0 0 0];

internalField   nonuniform List<scalar> 
7920
(
1.61787e+06
1.61606e+06
1.61612e+06
1.61416e+06
1.61408e+06
1.61176e+06
1.6114e+06
1.60872e+06
1.60803e+06
1.60508e+06
1.60411e+06
1.60097e+06
1.59977e+06
1.59651e+06
1.59512e+06
1.59176e+06
1.5902e+06
1.58674e+06
1.58507e+06
1.58176e+06
1.61775e+06
1.6159e+06
1.6159e+06
1.61391e+06
1.61381e+06
1.61147e+06
1.6111e+06
1.6084e+06
1.6077e+06
1.60473e+06
1.60375e+06
1.6006e+06
1.5994e+06
1.59613e+06
1.59474e+06
1.59136e+06
1.5898e+06
1.58631e+06
1.58466e+06
1.58133e+06
1.61776e+06
1.61587e+06
1.61587e+06
1.61389e+06
1.61379e+06
1.61147e+06
1.61112e+06
1.60845e+06
1.60777e+06
1.60483e+06
1.60387e+06
1.60073e+06
1.59954e+06
1.59628e+06
1.59489e+06
1.59152e+06
1.58995e+06
1.58648e+06
1.58478e+06
1.58142e+06
1.61776e+06
1.61587e+06
1.61587e+06
1.61387e+06
1.61378e+06
1.61143e+06
1.61106e+06
1.60837e+06
1.60769e+06
1.60473e+06
1.60377e+06
1.60062e+06
1.59943e+06
1.59617e+06
1.59478e+06
1.59141e+06
1.58984e+06
1.58635e+06
1.58467e+06
1.58121e+06
1.61777e+06
1.61587e+06
1.61586e+06
1.61387e+06
1.61376e+06
1.61143e+06
1.61106e+06
1.60838e+06
1.60771e+06
1.60477e+06
1.60381e+06
1.60068e+06
1.59949e+06
1.59623e+06
1.59485e+06
1.59148e+06
1.58991e+06
1.58644e+06
1.58472e+06
1.58126e+06
1.61776e+06
1.61585e+06
1.61584e+06
1.61385e+06
1.61374e+06
1.61141e+06
1.61104e+06
1.60836e+06
1.60769e+06
1.60474e+06
1.60378e+06
1.60064e+06
1.59945e+06
1.5962e+06
1.59481e+06
1.59145e+06
1.58988e+06
1.5864e+06
1.58469e+06
1.5812e+06
1.61776e+06
1.61585e+06
1.61584e+06
1.61385e+06
1.61374e+06
1.61141e+06
1.61104e+06
1.60836e+06
1.60769e+06
1.60474e+06
1.60378e+06
1.60064e+06
1.59945e+06
1.5962e+06
1.59481e+06
1.59145e+06
1.58988e+06
1.5864e+06
1.58469e+06
1.5812e+06
1.61777e+06
1.61587e+06
1.61586e+06
1.61387e+06
1.61376e+06
1.61143e+06
1.61106e+06
1.60838e+06
1.60771e+06
1.60477e+06
1.60381e+06
1.60068e+06
1.59949e+06
1.59623e+06
1.59485e+06
1.59148e+06
1.58991e+06
1.58644e+06
1.58472e+06
1.58126e+06
1.61776e+06
1.61587e+06
1.61587e+06
1.61387e+06
1.61378e+06
1.61143e+06
1.61106e+06
1.60837e+06
1.60769e+06
1.60473e+06
1.60377e+06
1.60062e+06
1.59943e+06
1.59617e+06
1.59478e+06
1.59141e+06
1.58984e+06
1.58635e+06
1.58467e+06
1.58121e+06
1.61776e+06
1.61587e+06
1.61587e+06
1.61389e+06
1.61379e+06
1.61147e+06
1.61112e+06
1.60845e+06
1.60777e+06
1.60483e+06
1.60387e+06
1.60073e+06
1.59954e+06
1.59628e+06
1.59489e+06
1.59152e+06
1.58994e+06
1.58648e+06
1.58478e+06
1.58143e+06
1.61775e+06
1.6159e+06
1.6159e+06
1.61391e+06
1.61381e+06
1.61147e+06
1.6111e+06
1.6084e+06
1.6077e+06
1.60473e+06
1.60375e+06
1.6006e+06
1.5994e+06
1.59613e+06
1.59474e+06
1.59136e+06
1.5898e+06
1.58632e+06
1.58466e+06
1.58134e+06
1.61787e+06
1.61606e+06
1.61612e+06
1.61416e+06
1.61408e+06
1.61176e+06
1.6114e+06
1.60872e+06
1.60803e+06
1.60508e+06
1.60411e+06
1.60097e+06
1.59977e+06
1.59651e+06
1.59512e+06
1.59176e+06
1.5902e+06
1.58674e+06
1.58507e+06
1.58176e+06
1.61639e+06
1.61408e+06
1.61463e+06
1.61224e+06
1.61265e+06
1.60991e+06
1.61002e+06
1.60699e+06
1.60678e+06
1.60353e+06
1.60302e+06
1.59963e+06
1.59885e+06
1.59538e+06
1.59437e+06
1.59083e+06
1.58961e+06
1.586e+06
1.58463e+06
1.58105e+06
1.61649e+06
1.61409e+06
1.61465e+06
1.61229e+06
1.61272e+06
1.61003e+06
1.61017e+06
1.60719e+06
1.607e+06
1.60379e+06
1.60328e+06
1.59991e+06
1.59914e+06
1.59568e+06
1.59468e+06
1.59115e+06
1.58992e+06
1.58634e+06
1.58497e+06
1.58144e+06
1.61648e+06
1.61411e+06
1.61469e+06
1.6123e+06
1.61273e+06
1.60999e+06
1.61011e+06
1.6071e+06
1.6069e+06
1.60366e+06
1.60316e+06
1.59978e+06
1.599e+06
1.59554e+06
1.59452e+06
1.59099e+06
1.58976e+06
1.58614e+06
1.58477e+06
1.58108e+06
1.61653e+06
1.61411e+06
1.61465e+06
1.61224e+06
1.61266e+06
1.60996e+06
1.6101e+06
1.60712e+06
1.60695e+06
1.60374e+06
1.60325e+06
1.59989e+06
1.59912e+06
1.59567e+06
1.59466e+06
1.59114e+06
1.5899e+06
1.5863e+06
1.58491e+06
1.58126e+06
1.61652e+06
1.6141e+06
1.61464e+06
1.61223e+06
1.61266e+06
1.60994e+06
1.61008e+06
1.60708e+06
1.6069e+06
1.60368e+06
1.60318e+06
1.59981e+06
1.59904e+06
1.59559e+06
1.59458e+06
1.59105e+06
1.58982e+06
1.5862e+06
1.58482e+06
1.5811e+06
1.61654e+06
1.61411e+06
1.61465e+06
1.61223e+06
1.61266e+06
1.60994e+06
1.61009e+06
1.6071e+06
1.60692e+06
1.60371e+06
1.60321e+06
1.59985e+06
1.59908e+06
1.59563e+06
1.59463e+06
1.5911e+06
1.58987e+06
1.58625e+06
1.58486e+06
1.58116e+06
1.61654e+06
1.61411e+06
1.61465e+06
1.61223e+06
1.61266e+06
1.60994e+06
1.61009e+06
1.6071e+06
1.60692e+06
1.60371e+06
1.60321e+06
1.59985e+06
1.59908e+06
1.59563e+06
1.59463e+06
1.5911e+06
1.58987e+06
1.58625e+06
1.58486e+06
1.58116e+06
1.61652e+06
1.6141e+06
1.61464e+06
1.61223e+06
1.61266e+06
1.60994e+06
1.61008e+06
1.60708e+06
1.6069e+06
1.60368e+06
1.60318e+06
1.59981e+06
1.59904e+06
1.59559e+06
1.59458e+06
1.59105e+06
1.58982e+06
1.5862e+06
1.58482e+06
1.5811e+06
1.61653e+06
1.61411e+06
1.61465e+06
1.61224e+06
1.61266e+06
1.60996e+06
1.6101e+06
1.60712e+06
1.60695e+06
1.60374e+06
1.60325e+06
1.59989e+06
1.59912e+06
1.59567e+06
1.59466e+06
1.59114e+06
1.5899e+06
1.5863e+06
1.58491e+06
1.58126e+06
1.61648e+06
1.61411e+06
1.61469e+06
1.6123e+06
1.61273e+06
1.60999e+06
1.61011e+06
1.6071e+06
1.6069e+06
1.60366e+06
1.60316e+06
1.59978e+06
1.599e+06
1.59554e+06
1.59452e+06
1.59099e+06
1.58976e+06
1.58614e+06
1.58477e+06
1.58108e+06
1.61649e+06
1.61409e+06
1.61465e+06
1.61229e+06
1.61272e+06
1.61003e+06
1.61017e+06
1.60719e+06
1.607e+06
1.60379e+06
1.60328e+06
1.59991e+06
1.59914e+06
1.59568e+06
1.59468e+06
1.59115e+06
1.58992e+06
1.58634e+06
1.58497e+06
1.58144e+06
1.61639e+06
1.61408e+06
1.61463e+06
1.61224e+06
1.61265e+06
1.60991e+06
1.61002e+06
1.60699e+06
1.60678e+06
1.60353e+06
1.60302e+06
1.59963e+06
1.59885e+06
1.59538e+06
1.59437e+06
1.59083e+06
1.58961e+06
1.586e+06
1.58462e+06
1.58106e+06
1.61628e+06
1.61398e+06
1.61428e+06
1.61203e+06
1.61239e+06
1.6099e+06
1.60999e+06
1.60713e+06
1.60687e+06
1.60374e+06
1.60321e+06
1.5999e+06
1.59913e+06
1.5957e+06
1.59471e+06
1.59116e+06
1.58997e+06
1.58629e+06
1.585e+06
1.58136e+06
1.61633e+06
1.61399e+06
1.61429e+06
1.61202e+06
1.61237e+06
1.60987e+06
1.60996e+06
1.60711e+06
1.60687e+06
1.60375e+06
1.60323e+06
1.59994e+06
1.59917e+06
1.59574e+06
1.59474e+06
1.59119e+06
1.59e+06
1.58631e+06
1.58502e+06
1.58133e+06
1.61634e+06
1.61401e+06
1.6143e+06
1.61203e+06
1.61236e+06
1.60985e+06
1.60995e+06
1.6071e+06
1.60687e+06
1.60376e+06
1.60324e+06
1.59995e+06
1.59918e+06
1.59575e+06
1.59476e+06
1.59121e+06
1.59001e+06
1.58632e+06
1.58501e+06
1.58129e+06
1.61637e+06
1.61402e+06
1.61431e+06
1.61202e+06
1.61234e+06
1.60983e+06
1.60992e+06
1.60708e+06
1.60685e+06
1.60375e+06
1.60323e+06
1.59994e+06
1.59918e+06
1.59576e+06
1.59477e+06
1.59122e+06
1.59003e+06
1.58633e+06
1.58502e+06
1.58129e+06
1.61637e+06
1.61403e+06
1.61431e+06
1.61202e+06
1.61234e+06
1.60982e+06
1.60992e+06
1.60708e+06
1.60685e+06
1.60375e+06
1.60323e+06
1.59994e+06
1.59918e+06
1.59576e+06
1.59477e+06
1.59122e+06
1.59003e+06
1.58633e+06
1.58502e+06
1.58129e+06
1.61638e+06
1.61403e+06
1.61431e+06
1.61202e+06
1.61233e+06
1.60982e+06
1.60991e+06
1.60707e+06
1.60685e+06
1.60374e+06
1.60323e+06
1.59994e+06
1.59918e+06
1.59576e+06
1.59477e+06
1.59122e+06
1.59003e+06
1.58634e+06
1.58502e+06
1.58129e+06
1.61638e+06
1.61403e+06
1.61431e+06
1.61202e+06
1.61233e+06
1.60982e+06
1.60991e+06
1.60707e+06
1.60685e+06
1.60374e+06
1.60323e+06
1.59994e+06
1.59918e+06
1.59576e+06
1.59477e+06
1.59122e+06
1.59003e+06
1.58634e+06
1.58502e+06
1.58129e+06
1.61637e+06
1.61403e+06
1.61431e+06
1.61202e+06
1.61234e+06
1.60982e+06
1.60992e+06
1.60708e+06
1.60685e+06
1.60375e+06
1.60323e+06
1.59994e+06
1.59918e+06
1.59576e+06
1.59477e+06
1.59122e+06
1.59003e+06
1.58633e+06
1.58502e+06
1.58129e+06
1.61637e+06
1.61402e+06
1.61431e+06
1.61202e+06
1.61234e+06
1.60983e+06
1.60992e+06
1.60708e+06
1.60685e+06
1.60375e+06
1.60323e+06
1.59994e+06
1.59918e+06
1.59576e+06
1.59477e+06
1.59122e+06
1.59003e+06
1.58633e+06
1.58502e+06
1.58129e+06
1.61634e+06
1.61401e+06
1.6143e+06
1.61203e+06
1.61236e+06
1.60985e+06
1.60995e+06
1.6071e+06
1.60687e+06
1.60376e+06
1.60324e+06
1.59995e+06
1.59918e+06
1.59575e+06
1.59476e+06
1.59121e+06
1.59001e+06
1.58632e+06
1.58501e+06
1.58129e+06
1.61633e+06
1.61399e+06
1.61429e+06
1.61202e+06
1.61237e+06
1.60987e+06
1.60996e+06
1.60711e+06
1.60687e+06
1.60375e+06
1.60323e+06
1.59994e+06
1.59917e+06
1.59574e+06
1.59474e+06
1.59119e+06
1.59e+06
1.58631e+06
1.58501e+06
1.58133e+06
1.61628e+06
1.61398e+06
1.61428e+06
1.61203e+06
1.61239e+06
1.6099e+06
1.60999e+06
1.60713e+06
1.60687e+06
1.60374e+06
1.60321e+06
1.5999e+06
1.59913e+06
1.5957e+06
1.59471e+06
1.59116e+06
1.58997e+06
1.58629e+06
1.585e+06
1.58137e+06
1.61628e+06
1.61398e+06
1.61428e+06
1.61203e+06
1.61239e+06
1.6099e+06
1.60999e+06
1.60713e+06
1.60687e+06
1.60374e+06
1.60321e+06
1.5999e+06
1.59913e+06
1.5957e+06
1.59471e+06
1.59116e+06
1.58997e+06
1.58629e+06
1.585e+06
1.58136e+06
1.61633e+06
1.61399e+06
1.61429e+06
1.61202e+06
1.61237e+06
1.60987e+06
1.60996e+06
1.60711e+06
1.60687e+06
1.60375e+06
1.60323e+06
1.59994e+06
1.59917e+06
1.59574e+06
1.59474e+06
1.59119e+06
1.59e+06
1.58631e+06
1.58502e+06
1.58133e+06
1.61634e+06
1.61401e+06
1.6143e+06
1.61203e+06
1.61236e+06
1.60985e+06
1.60995e+06
1.6071e+06
1.60687e+06
1.60376e+06
1.60324e+06
1.59995e+06
1.59918e+06
1.59575e+06
1.59476e+06
1.59121e+06
1.59001e+06
1.58632e+06
1.58501e+06
1.58129e+06
1.61637e+06
1.61402e+06
1.61431e+06
1.61202e+06
1.61234e+06
1.60983e+06
1.60992e+06
1.60708e+06
1.60685e+06
1.60375e+06
1.60323e+06
1.59994e+06
1.59918e+06
1.59576e+06
1.59477e+06
1.59122e+06
1.59003e+06
1.58633e+06
1.58502e+06
1.58129e+06
1.61637e+06
1.61403e+06
1.61431e+06
1.61202e+06
1.61234e+06
1.60982e+06
1.60992e+06
1.60708e+06
1.60685e+06
1.60375e+06
1.60323e+06
1.59994e+06
1.59918e+06
1.59576e+06
1.59477e+06
1.59122e+06
1.59003e+06
1.58633e+06
1.58502e+06
1.58129e+06
1.61638e+06
1.61403e+06
1.61431e+06
1.61202e+06
1.61233e+06
1.60982e+06
1.60991e+06
1.60707e+06
1.60685e+06
1.60374e+06
1.60323e+06
1.59994e+06
1.59918e+06
1.59576e+06
1.59477e+06
1.59122e+06
1.59003e+06
1.58634e+06
1.58502e+06
1.58129e+06
1.61638e+06
1.61403e+06
1.61431e+06
1.61202e+06
1.61233e+06
1.60982e+06
1.60991e+06
1.60707e+06
1.60685e+06
1.60374e+06
1.60323e+06
1.59994e+06
1.59918e+06
1.59576e+06
1.59477e+06
1.59122e+06
1.59003e+06
1.58634e+06
1.58502e+06
1.58129e+06
1.61637e+06
1.61403e+06
1.61431e+06
1.61202e+06
1.61234e+06
1.60982e+06
1.60992e+06
1.60708e+06
1.60685e+06
1.60375e+06
1.60323e+06
1.59994e+06
1.59918e+06
1.59576e+06
1.59477e+06
1.59122e+06
1.59003e+06
1.58633e+06
1.58502e+06
1.58129e+06
1.61637e+06
1.61402e+06
1.61431e+06
1.61202e+06
1.61234e+06
1.60983e+06
1.60992e+06
1.60708e+06
1.60685e+06
1.60375e+06
1.60323e+06
1.59994e+06
1.59918e+06
1.59576e+06
1.59477e+06
1.59122e+06
1.59003e+06
1.58634e+06
1.58502e+06
1.58129e+06
1.61634e+06
1.61401e+06
1.6143e+06
1.61203e+06
1.61236e+06
1.60985e+06
1.60995e+06
1.6071e+06
1.60687e+06
1.60376e+06
1.60324e+06
1.59995e+06
1.59918e+06
1.59575e+06
1.59476e+06
1.59121e+06
1.59001e+06
1.58632e+06
1.58501e+06
1.58129e+06
1.61633e+06
1.61399e+06
1.61429e+06
1.61202e+06
1.61237e+06
1.60987e+06
1.60996e+06
1.60711e+06
1.60687e+06
1.60375e+06
1.60323e+06
1.59994e+06
1.59917e+06
1.59574e+06
1.59474e+06
1.5912e+06
1.59e+06
1.58631e+06
1.58501e+06
1.58133e+06
1.61628e+06
1.61398e+06
1.61428e+06
1.61203e+06
1.61239e+06
1.6099e+06
1.60999e+06
1.60713e+06
1.60687e+06
1.60374e+06
1.60321e+06
1.5999e+06
1.59913e+06
1.5957e+06
1.59471e+06
1.59116e+06
1.58997e+06
1.58629e+06
1.585e+06
1.58137e+06
1.61639e+06
1.61408e+06
1.61463e+06
1.61224e+06
1.61265e+06
1.60991e+06
1.61002e+06
1.60699e+06
1.60678e+06
1.60353e+06
1.60302e+06
1.59963e+06
1.59885e+06
1.59538e+06
1.59437e+06
1.59083e+06
1.58961e+06
1.586e+06
1.58463e+06
1.58105e+06
1.61649e+06
1.61409e+06
1.61465e+06
1.61229e+06
1.61272e+06
1.61003e+06
1.61017e+06
1.60719e+06
1.607e+06
1.60379e+06
1.60328e+06
1.59991e+06
1.59914e+06
1.59568e+06
1.59468e+06
1.59115e+06
1.58992e+06
1.58634e+06
1.58497e+06
1.58144e+06
1.61648e+06
1.61411e+06
1.61469e+06
1.6123e+06
1.61273e+06
1.60999e+06
1.61011e+06
1.6071e+06
1.6069e+06
1.60367e+06
1.60316e+06
1.59978e+06
1.599e+06
1.59554e+06
1.59453e+06
1.59099e+06
1.58976e+06
1.58614e+06
1.58477e+06
1.58108e+06
1.61653e+06
1.61411e+06
1.61465e+06
1.61224e+06
1.61266e+06
1.60996e+06
1.6101e+06
1.60712e+06
1.60695e+06
1.60374e+06
1.60325e+06
1.59989e+06
1.59912e+06
1.59567e+06
1.59466e+06
1.59114e+06
1.5899e+06
1.5863e+06
1.58491e+06
1.58126e+06
1.61652e+06
1.6141e+06
1.61464e+06
1.61223e+06
1.61266e+06
1.60994e+06
1.61008e+06
1.60708e+06
1.6069e+06
1.60368e+06
1.60318e+06
1.59981e+06
1.59904e+06
1.59559e+06
1.59458e+06
1.59105e+06
1.58982e+06
1.5862e+06
1.58482e+06
1.5811e+06
1.61654e+06
1.61411e+06
1.61465e+06
1.61224e+06
1.61266e+06
1.60995e+06
1.61009e+06
1.6071e+06
1.60692e+06
1.60371e+06
1.60321e+06
1.59985e+06
1.59908e+06
1.59563e+06
1.59463e+06
1.5911e+06
1.58987e+06
1.58625e+06
1.58486e+06
1.58116e+06
1.61654e+06
1.61411e+06
1.61465e+06
1.61224e+06
1.61266e+06
1.60995e+06
1.61009e+06
1.6071e+06
1.60692e+06
1.60371e+06
1.60321e+06
1.59985e+06
1.59908e+06
1.59563e+06
1.59463e+06
1.5911e+06
1.58987e+06
1.58625e+06
1.58486e+06
1.58116e+06
1.61652e+06
1.6141e+06
1.61464e+06
1.61223e+06
1.61266e+06
1.60994e+06
1.61008e+06
1.60708e+06
1.6069e+06
1.60368e+06
1.60318e+06
1.59981e+06
1.59904e+06
1.59559e+06
1.59458e+06
1.59105e+06
1.58982e+06
1.5862e+06
1.58482e+06
1.5811e+06
1.61653e+06
1.61411e+06
1.61465e+06
1.61224e+06
1.61266e+06
1.60996e+06
1.6101e+06
1.60712e+06
1.60695e+06
1.60374e+06
1.60325e+06
1.59989e+06
1.59912e+06
1.59567e+06
1.59466e+06
1.59114e+06
1.5899e+06
1.5863e+06
1.58491e+06
1.58126e+06
1.61648e+06
1.61411e+06
1.61469e+06
1.6123e+06
1.61273e+06
1.60999e+06
1.61011e+06
1.6071e+06
1.6069e+06
1.60367e+06
1.60316e+06
1.59978e+06
1.599e+06
1.59554e+06
1.59453e+06
1.59099e+06
1.58976e+06
1.58614e+06
1.58477e+06
1.58108e+06
1.61649e+06
1.61409e+06
1.61465e+06
1.61229e+06
1.61272e+06
1.61003e+06
1.61017e+06
1.60719e+06
1.607e+06
1.60379e+06
1.60328e+06
1.59991e+06
1.59914e+06
1.59568e+06
1.59468e+06
1.59115e+06
1.58992e+06
1.58634e+06
1.58497e+06
1.58144e+06
1.61639e+06
1.61408e+06
1.61463e+06
1.61224e+06
1.61265e+06
1.60991e+06
1.61002e+06
1.60699e+06
1.60678e+06
1.60353e+06
1.60302e+06
1.59963e+06
1.59885e+06
1.59538e+06
1.59437e+06
1.59083e+06
1.58961e+06
1.586e+06
1.58462e+06
1.58106e+06
1.61787e+06
1.61606e+06
1.61612e+06
1.61416e+06
1.61408e+06
1.61176e+06
1.6114e+06
1.60872e+06
1.60803e+06
1.60508e+06
1.60411e+06
1.60097e+06
1.59977e+06
1.59651e+06
1.59512e+06
1.59176e+06
1.5902e+06
1.58674e+06
1.58507e+06
1.58176e+06
1.61776e+06
1.6159e+06
1.6159e+06
1.61391e+06
1.61382e+06
1.61147e+06
1.6111e+06
1.6084e+06
1.6077e+06
1.60473e+06
1.60376e+06
1.6006e+06
1.5994e+06
1.59613e+06
1.59474e+06
1.59136e+06
1.5898e+06
1.58632e+06
1.58466e+06
1.58133e+06
1.61776e+06
1.61587e+06
1.61587e+06
1.61389e+06
1.61379e+06
1.61147e+06
1.61112e+06
1.60845e+06
1.60778e+06
1.60483e+06
1.60387e+06
1.60073e+06
1.59954e+06
1.59628e+06
1.59489e+06
1.59152e+06
1.58995e+06
1.58648e+06
1.58478e+06
1.58143e+06
1.61776e+06
1.61587e+06
1.61587e+06
1.61387e+06
1.61378e+06
1.61144e+06
1.61107e+06
1.60837e+06
1.60769e+06
1.60473e+06
1.60377e+06
1.60063e+06
1.59943e+06
1.59617e+06
1.59478e+06
1.59141e+06
1.58984e+06
1.58635e+06
1.58467e+06
1.58121e+06
1.61777e+06
1.61587e+06
1.61586e+06
1.61387e+06
1.61376e+06
1.61143e+06
1.61106e+06
1.60838e+06
1.60771e+06
1.60477e+06
1.60381e+06
1.60068e+06
1.59949e+06
1.59623e+06
1.59485e+06
1.59148e+06
1.58991e+06
1.58644e+06
1.58472e+06
1.58126e+06
1.61776e+06
1.61585e+06
1.61584e+06
1.61385e+06
1.61375e+06
1.61141e+06
1.61104e+06
1.60836e+06
1.60769e+06
1.60474e+06
1.60378e+06
1.60065e+06
1.59946e+06
1.5962e+06
1.59481e+06
1.59145e+06
1.58988e+06
1.5864e+06
1.58469e+06
1.5812e+06
1.61776e+06
1.61585e+06
1.61584e+06
1.61385e+06
1.61375e+06
1.61141e+06
1.61104e+06
1.60836e+06
1.60769e+06
1.60474e+06
1.60378e+06
1.60065e+06
1.59946e+06
1.5962e+06
1.59481e+06
1.59145e+06
1.58988e+06
1.5864e+06
1.58469e+06
1.5812e+06
1.61777e+06
1.61587e+06
1.61586e+06
1.61387e+06
1.61376e+06
1.61143e+06
1.61106e+06
1.60838e+06
1.60771e+06
1.60477e+06
1.60381e+06
1.60068e+06
1.59949e+06
1.59623e+06
1.59485e+06
1.59148e+06
1.58991e+06
1.58644e+06
1.58472e+06
1.58126e+06
1.61776e+06
1.61587e+06
1.61587e+06
1.61387e+06
1.61378e+06
1.61144e+06
1.61107e+06
1.60837e+06
1.60769e+06
1.60473e+06
1.60377e+06
1.60063e+06
1.59943e+06
1.59617e+06
1.59478e+06
1.59141e+06
1.58984e+06
1.58635e+06
1.58467e+06
1.58121e+06
1.61776e+06
1.61587e+06
1.61587e+06
1.61389e+06
1.61379e+06
1.61147e+06
1.61112e+06
1.60845e+06
1.60778e+06
1.60483e+06
1.60387e+06
1.60073e+06
1.59954e+06
1.59628e+06
1.59489e+06
1.59152e+06
1.58994e+06
1.58648e+06
1.58478e+06
1.58143e+06
1.61776e+06
1.6159e+06
1.6159e+06
1.61391e+06
1.61382e+06
1.61147e+06
1.6111e+06
1.6084e+06
1.6077e+06
1.60473e+06
1.60376e+06
1.6006e+06
1.5994e+06
1.59613e+06
1.59474e+06
1.59136e+06
1.5898e+06
1.58632e+06
1.58466e+06
1.58134e+06
1.61787e+06
1.61606e+06
1.61612e+06
1.61416e+06
1.61408e+06
1.61176e+06
1.6114e+06
1.60872e+06
1.60803e+06
1.60508e+06
1.60411e+06
1.60097e+06
1.59977e+06
1.59651e+06
1.59512e+06
1.59176e+06
1.5902e+06
1.58674e+06
1.58507e+06
1.58176e+06
1.57739e+06
1.5623e+06
1.55492e+06
1.53922e+06
1.53035e+06
1.51384e+06
1.50372e+06
1.48654e+06
1.47531e+06
1.45751e+06
1.44526e+06
1.42691e+06
1.41373e+06
1.39488e+06
1.38085e+06
1.36154e+06
1.34671e+06
1.32699e+06
1.31143e+06
1.29133e+06
1.2751e+06
1.25465e+06
1.2378e+06
1.21703e+06
1.19962e+06
1.17857e+06
1.16064e+06
1.13933e+06
1.12092e+06
1.09939e+06
1.08056e+06
1.05883e+06
1.03961e+06
1.01772e+06
998168
976145
956296
934176
914081
891904
871618
849426
828979
806742
786081
763814
743076
720913
700182
678165
657504
635679
615139
593543
573169
551835
531673
510633
490728
470014
450411
430058
410804
390847
371992
352468
334064
315012
297116
278581
261252
243282
226590
209236
193253
176582
161390
145469
131174
116095
102799
88668.5
76527.9
63475.5
52634.4
40941.3
31715.6
21341.9
13807
6133.94
1.57643e+06
1.56139e+06
1.55403e+06
1.53834e+06
1.52947e+06
1.51297e+06
1.50285e+06
1.48567e+06
1.47444e+06
1.45665e+06
1.44441e+06
1.42607e+06
1.4129e+06
1.39405e+06
1.38003e+06
1.36072e+06
1.34591e+06
1.32619e+06
1.31065e+06
1.29055e+06
1.27433e+06
1.25389e+06
1.23705e+06
1.21629e+06
1.19889e+06
1.17784e+06
1.15992e+06
1.13862e+06
1.12023e+06
1.0987e+06
1.07988e+06
1.05816e+06
1.03896e+06
1.01708e+06
997534
975523
955684
933576
913492
891327
871053
848874
828438
806215
785566
763312
742586
720437
699719
677715
657067
635257
614729
593147
572787
551467
531318
510292
490399
469700
450109
429770
410529
390585
371743
352232
333840
314801
296917
278395
261077
243119
226438
209095
193123
176463
161281
145370
131085
116016
102728
88606.8
76474.2
63430.1
52596.2
40910.2
31691
21323
13792
6122.54
1.57643e+06
1.56137e+06
1.55397e+06
1.53827e+06
1.52939e+06
1.5129e+06
1.50277e+06
1.48559e+06
1.47436e+06
1.45657e+06
1.44433e+06
1.42599e+06
1.41282e+06
1.39398e+06
1.37996e+06
1.36066e+06
1.34585e+06
1.32614e+06
1.3106e+06
1.29051e+06
1.2743e+06
1.25386e+06
1.23703e+06
1.21627e+06
1.19888e+06
1.17784e+06
1.15992e+06
1.13863e+06
1.12024e+06
1.09872e+06
1.0799e+06
1.05819e+06
1.03899e+06
1.01712e+06
997574
975567
955730
933625
913543
891380
871106
848928
828493
806269
785620
763366
742639
720488
699769
677763
657113
635301
614771
593186
572823
551500
531348
510318
490423
469720
450127
429784
410540
390592
371747
352232
333838
314796
296909
278384
261064
243103
226420
209075
193101
176440
161257
145345
131059
115989
102702
88580.6
76449
63405.7
52573.6
40889.4
31672.8
21307.8
13780.9
6115.76
1.5762e+06
1.56123e+06
1.55384e+06
1.53817e+06
1.5293e+06
1.5128e+06
1.50268e+06
1.48549e+06
1.47426e+06
1.45647e+06
1.44423e+06
1.42589e+06
1.41272e+06
1.39387e+06
1.37985e+06
1.36055e+06
1.34574e+06
1.32602e+06
1.31048e+06
1.29038e+06
1.27417e+06
1.25373e+06
1.2369e+06
1.21614e+06
1.19874e+06
1.1777e+06
1.15978e+06
1.13849e+06
1.1201e+06
1.09858e+06
1.07976e+06
1.05804e+06
1.03884e+06
1.01697e+06
997424
975416
955580
933476
913394
891232
870960
848784
828350
806129
785482
763231
742507
720359
699642
677641
656994
635185
614659
593078
572719
551400
531253
510227
490336
469638
450049
429710
410470
390527
371686
352176
333785
314748
296865
278344
261028
243071
226391
209050
193079
176421
161241
145332
131048
115981
102696
88576.6
76446.6
63404.9
52573.8
40890.4
31674.3
21309.4
13781.1
6115.29
1.57627e+06
1.56125e+06
1.55383e+06
1.53813e+06
1.52925e+06
1.51275e+06
1.50263e+06
1.48544e+06
1.47421e+06
1.45642e+06
1.44417e+06
1.42583e+06
1.41266e+06
1.39382e+06
1.37979e+06
1.36049e+06
1.34568e+06
1.32597e+06
1.31042e+06
1.29033e+06
1.27412e+06
1.25368e+06
1.23685e+06
1.21609e+06
1.19869e+06
1.17765e+06
1.15974e+06
1.13844e+06
1.12005e+06
1.09854e+06
1.07972e+06
1.05801e+06
1.0388e+06
1.01693e+06
997387
975381
955545
933441
913360
891198
870926
848750
828316
806095
785448
763196
742472
720323
699607
677604
656957
635147
614621
593039
572680
551360
531212
510185
490294
469595
450005
429666
410426
390482
371641
352130
333740
314702
296819
278298
260982
243026
226346
209006
193036
176379
161200
145292
131010
115944
102661
88543.7
76416
63376.6
52548.4
40867.9
31655.2
21293.7
13769.7
6107.99
1.57621e+06
1.56122e+06
1.5538e+06
1.53812e+06
1.52926e+06
1.51276e+06
1.50264e+06
1.48545e+06
1.47422e+06
1.45643e+06
1.44419e+06
1.42584e+06
1.41267e+06
1.39383e+06
1.3798e+06
1.36051e+06
1.34569e+06
1.32598e+06
1.31044e+06
1.29034e+06
1.27413e+06
1.25368e+06
1.23685e+06
1.2161e+06
1.1987e+06
1.17766e+06
1.15974e+06
1.13845e+06
1.12005e+06
1.09854e+06
1.07972e+06
1.058e+06
1.0388e+06
1.01693e+06
997384
975377
955541
933437
913355
891193
870921
848745
828312
806090
785443
763192
742468
720320
699603
677602
656955
635146
614620
593039
572680
551361
531213
510188
490297
469598
450009
429671
410431
390489
371647
352138
333748
314710
296828
278307
260992
243036
226357
209017
193047
176390
161211
145303
131021
115955
102671
88553.8
76425.5
63385.6
52556.5
40875.2
31661.3
21298.8
13773
6110.08
1.57622e+06
1.56121e+06
1.55379e+06
1.5381e+06
1.52922e+06
1.51272e+06
1.50259e+06
1.4854e+06
1.47417e+06
1.45638e+06
1.44414e+06
1.4258e+06
1.41262e+06
1.39378e+06
1.37976e+06
1.36046e+06
1.34565e+06
1.32593e+06
1.31039e+06
1.2903e+06
1.27408e+06
1.25364e+06
1.23681e+06
1.21605e+06
1.19866e+06
1.17762e+06
1.1597e+06
1.13841e+06
1.12002e+06
1.0985e+06
1.07968e+06
1.05797e+06
1.03876e+06
1.01689e+06
997348
975342
955506
933403
913322
891160
870889
848713
828280
806059
785413
763162
742439
720291
699575
677574
656928
635119
614594
593013
572655
551336
531189
510164
490274
469576
449987
429650
410411
390468
371628
352119
333729
314693
296811
278291
260976
243021
226342
209002
193034
176377
161199
145291
131010
115945
102662
88545
76417.6
63378.4
52550.3
40869.8
31657
21295.2
13770.6
6108.21
1.57625e+06
1.56125e+06
1.55383e+06
1.53815e+06
1.52928e+06
1.51278e+06
1.50266e+06
1.48548e+06
1.47424e+06
1.45645e+06
1.44421e+06
1.42587e+06
1.4127e+06
1.39385e+06
1.37983e+06
1.36053e+06
1.34572e+06
1.326e+06
1.31046e+06
1.29037e+06
1.27415e+06
1.25371e+06
1.23688e+06
1.21612e+06
1.19873e+06
1.17769e+06
1.15977e+06
1.13847e+06
1.12008e+06
1.09857e+06
1.07975e+06
1.05803e+06
1.03883e+06
1.01696e+06
997415
975408
955572
933467
913386
891224
870951
848775
828341
806119
785472
763220
742495
720346
699629
677626
656979
635169
614642
593060
572700
551379
531231
510205
490313
469613
450023
429684
410443
390499
371657
352147
333755
314717
296834
278312
260996
243040
226359
209019
193048
176391
161211
145303
131020
115954
102670
88552.1
76423.7
63383.6
52554.5
40873.2
31659.6
21297.3
13772.2
6109.76
1.57622e+06
1.56122e+06
1.55382e+06
1.53812e+06
1.52924e+06
1.51274e+06
1.50261e+06
1.48543e+06
1.4742e+06
1.4564e+06
1.44416e+06
1.42582e+06
1.41265e+06
1.39381e+06
1.37978e+06
1.36048e+06
1.34567e+06
1.32596e+06
1.31042e+06
1.29032e+06
1.27411e+06
1.25367e+06
1.23684e+06
1.21608e+06
1.19868e+06
1.17764e+06
1.15973e+06
1.13843e+06
1.12004e+06
1.09852e+06
1.0797e+06
1.05799e+06
1.03879e+06
1.01691e+06
997373
975366
955531
933427
913347
891185
870914
848739
828306
806085
785439
763189
742466
720319
699603
677602
656956
635148
614623
593043
572685
551367
531220
510195
490305
469608
450019
429682
410443
390501
371660
352151
333761
314724
296843
278322
261007
243051
226372
209032
193062
176405
161226
145317
131035
115969
102684
88566.2
76437.2
63396.4
52566.6
40884.2
31669.3
21305.3
13778.3
6113.03
1.5764e+06
1.56135e+06
1.55395e+06
1.53827e+06
1.5294e+06
1.51291e+06
1.50279e+06
1.48561e+06
1.47438e+06
1.4566e+06
1.44435e+06
1.42602e+06
1.41284e+06
1.39401e+06
1.37998e+06
1.36069e+06
1.34587e+06
1.32616e+06
1.31062e+06
1.29053e+06
1.27432e+06
1.25388e+06
1.23705e+06
1.21629e+06
1.1989e+06
1.17786e+06
1.15994e+06
1.13865e+06
1.12026e+06
1.09874e+06
1.07992e+06
1.05821e+06
1.03901e+06
1.01713e+06
997591
975583
955747
933641
913559
891395
871122
848943
828508
806284
785635
763380
742653
720502
699783
677777
657127
635314
614784
593199
572836
551512
531361
510331
490436
469732
450139
429796
410552
390604
371758
352244
333849
314807
296920
278394
261074
243114
226430
209085
193111
176449
161266
145354
131067
115997
102710
88587.9
76456
63412.1
52579.4
40894.4
31677.3
21311.4
13783.5
6117.4
1.57644e+06
1.56135e+06
1.55397e+06
1.53827e+06
1.52939e+06
1.51288e+06
1.50277e+06
1.48558e+06
1.47435e+06
1.45656e+06
1.44432e+06
1.42597e+06
1.4128e+06
1.39396e+06
1.37994e+06
1.36064e+06
1.34582e+06
1.3261e+06
1.31056e+06
1.29046e+06
1.27425e+06
1.2538e+06
1.23697e+06
1.21621e+06
1.19881e+06
1.17777e+06
1.15985e+06
1.13855e+06
1.12015e+06
1.09863e+06
1.07981e+06
1.05809e+06
1.03889e+06
1.01701e+06
997466
975456
955618
933512
913429
891265
870991
848813
828379
806156
785508
763256
742531
720383
699665
677663
657016
635207
614680
593099
572740
551421
531273
510248
490357
469658
450069
429731
410491
390548
371707
352197
333806
314769
296886
278365
261048
243092
226411
209070
193099
176441
161260
145350
131066
115999
102712
88592.4
76461.4
63418.6
52586.4
40901.8
31684.4
21317.7
13788.2
6119.6
1.57735e+06
1.56228e+06
1.55493e+06
1.53925e+06
1.53039e+06
1.5139e+06
1.50379e+06
1.4866e+06
1.47537e+06
1.45758e+06
1.44533e+06
1.42698e+06
1.4138e+06
1.39495e+06
1.38092e+06
1.36161e+06
1.34678e+06
1.32705e+06
1.3115e+06
1.29139e+06
1.27517e+06
1.25471e+06
1.23787e+06
1.21709e+06
1.19968e+06
1.17863e+06
1.1607e+06
1.13939e+06
1.12098e+06
1.09945e+06
1.08061e+06
1.05889e+06
1.03967e+06
1.01778e+06
998222
976199
956348
934228
914132
891954
871667
849475
829027
806789
786128
763860
743121
720957
700225
678207
657545
635720
615179
593582
573208
551872
531710
510669
490763
470048
450444
430090
410836
390877
372021
352497
334091
315039
297142
278606
261276
243306
226612
209257
193273
176601
161408
145486
131190
116110
102812
88681
76539.3
63485.7
52643.4
40949.1
31722.2
21347.4
13811.1
6136.58
1.57706e+06
1.56164e+06
1.55486e+06
1.53894e+06
1.53041e+06
1.51374e+06
1.50384e+06
1.48653e+06
1.47544e+06
1.45754e+06
1.44539e+06
1.42696e+06
1.41385e+06
1.39492e+06
1.38093e+06
1.36156e+06
1.34677e+06
1.32698e+06
1.31145e+06
1.29129e+06
1.27509e+06
1.25458e+06
1.23775e+06
1.21694e+06
1.19954e+06
1.17845e+06
1.16053e+06
1.13919e+06
1.1208e+06
1.09924e+06
1.08042e+06
1.05867e+06
1.03946e+06
1.01756e+06
998011
975978
956138
934011
913926
891744
871469
849276
828840
806603
785953
763686
742959
720798
700079
678065
657416
635595
615067
593476
573115
551786
531636
510601
490708
470001
450409
430062
410820
390868
372024
352505
334112
315064
297179
278647
261328
243360
226677
209323
193348
176676
161491
145565
131275
116189
102895
88753.4
76610.2
63542.6
52692.1
40979.6
31737
21337.5
13773.3
6092.97
1.57803e+06
1.56255e+06
1.55577e+06
1.53986e+06
1.53133e+06
1.51469e+06
1.5048e+06
1.4875e+06
1.47642e+06
1.45852e+06
1.44638e+06
1.42794e+06
1.41484e+06
1.3959e+06
1.38192e+06
1.36253e+06
1.34774e+06
1.32794e+06
1.31241e+06
1.29224e+06
1.27603e+06
1.25551e+06
1.23867e+06
1.21785e+06
1.20044e+06
1.17934e+06
1.1614e+06
1.14005e+06
1.12165e+06
1.10008e+06
1.08124e+06
1.05948e+06
1.04026e+06
1.01834e+06
998779
976732
956878
934736
914638
892441
872152
849943
829494
807241
786577
764294
743553
721376
700642
678612
657948
636112
615569
593962
573586
552241
532077
511026
491119
470395
450789
430427
411170
391203
372345
352811
334403
315341
297442
278895
261563
243580
226883
209516
193528
176842
161645
145706
131404
116305
102998
88845.1
76690.6
63611.4
52750.1
41027.2
31774.5
21365.7
13793.3
6106.94
1.57729e+06
1.56206e+06
1.55528e+06
1.53938e+06
1.53085e+06
1.51419e+06
1.50429e+06
1.48699e+06
1.4759e+06
1.45801e+06
1.44586e+06
1.42742e+06
1.41431e+06
1.39538e+06
1.38139e+06
1.36201e+06
1.34722e+06
1.32743e+06
1.3119e+06
1.29173e+06
1.27552e+06
1.25502e+06
1.23818e+06
1.21736e+06
1.19996e+06
1.17886e+06
1.16093e+06
1.13959e+06
1.12119e+06
1.09962e+06
1.08079e+06
1.05904e+06
1.03982e+06
1.01791e+06
998358
976318
956470
934336
914244
892056
871774
849573
829130
806886
786229
763955
743221
721053
700327
678306
657651
635824
615289
593691
573323
551987
531832
510790
490891
470177
450579
430226
410977
391019
372169
352644
334245
315191
297300
278762
261437
243463
226773
209414
193433
176755
161564
145633
131337
116246
102945
88798.8
76650.2
63577.3
52721.7
41004.3
31756.9
21352.7
13784.5
6100.35
1.57775e+06
1.56244e+06
1.55566e+06
1.53975e+06
1.53123e+06
1.51458e+06
1.50468e+06
1.48738e+06
1.4763e+06
1.45841e+06