/*--------------------------------*- C++ -*----------------------------------*\
  =========                 |
  \\      /  F ield         | OpenFOAM: The Open Source CFD Toolbox
   \\    /   O peration     | Website:  https://openfoam.org
    \\  /    A nd           | Version:  7
     \\/     M anipulation  |
\*---------------------------------------------------------------------------*/
FoamFile
{
    version     2.0;
    format      ascii;
    class       volSymmTensorField;
    location    "0.0675";
    object      UPrime2Mean;
}
// * * * * * * * * * * * * * * * * * * * * * * * * * * * * * * * * * * * * * //

dimensions      [0 2 -2 0 0 0 0];

internalField   nonuniform List<symmTensor> 
1440
(
(0.0885889 0.000340253 0 5.61781e-06 0 0)
(0.0231032 0.00086717 0 0.000173836 0 0)
(0.0518214 -0.00033583 0 0.000723485 0 0)
(0.0820551 -0.00101358 0 0.00170545 0 0)
(0.110738 -0.00206022 0 0.00305465 0 0)
(0.146636 -0.00513568 0 0.00455189 0 0)
(0.195209 -0.0107656 0 0.00591172 0 0)
(0.258215 -0.0184759 0 0.00688441 0 0)
(0.337899 -0.0273138 0 0.00738714 0 0)
(0.438253 -0.0362647 0 0.0074525 0 0)
(0.559739 -0.0444877 0 0.00719474 0 0)
(0.702325 -0.0516228 0 0.00673512 0 0)
(0.865282 -0.0570454 0 0.00608795 0 0)
(1.04617 -0.0602528 0 0.00530663 0 0)
(1.2414 -0.0611707 0 0.00448091 0 0)
(1.44687 -0.0599398 0 0.0036748 0 0)
(1.65854 -0.0568309 0 0.00293286 0 0)
(1.87268 -0.0521961 0 0.00228126 0 0)
(2.08581 -0.0464551 0 0.00173185 0 0)
(2.295 -0.0400439 0 0.00128543 0 0)
(2.49791 -0.0333598 0 0.000935546 0 0)
(2.69292 -0.0267407 0 0.000671313 0 0)
(2.8791 -0.0204521 0 0.000479752 0 0)
(3.0561 -0.0146663 0 0.000347593 0 0)
(3.22402 -0.00945526 0 0.000262485 0 0)
(3.38321 -0.00481032 0 0.000213659 0 0)
(3.5342 -0.000673982 0 0.000192096 0 0)
(3.67758 0.00303071 0 0.000190398 0 0)
(3.81393 0.00637981 0 0.000202569 0 0)
(3.94379 0.00943475 0 0.000223931 0 0)
(4.06766 0.0122373 0 0.000250993 0 0)
(4.18596 0.0148084 0 0.000281288 0 0)
(4.2991 0.0171489 0 0.000313126 0 0)
(4.40744 0.0192512 0 0.000345341 0 0)
(4.51133 0.0211044 0 0.000377218 0 0)
(4.61111 0.0226988 0 0.000408271 0 0)
(4.70715 0.0240304 0 0.000438107 0 0)
(4.7998 0.025103 0 0.000466428 0 0)
(4.88944 0.0259271 0 0.000492965 0 0)
(4.97645 0.0265218 0 0.000517472 0 0)
(5.06119 0.0269097 0 0.000539698 0 0)
(5.14401 0.0271164 0 0.000559371 0 0)
(5.22525 0.0271686 0 0.000576232 0 0)
(5.3052 0.0270882 0 0.000590006 0 0)
(5.38414 0.0268992 0 0.000600489 0 0)
(5.46231 0.0266229 0 0.000607581 0 0)
(5.53992 0.0262798 0 0.000611356 0 0)
(5.61713 0.025888 0 0.000612086 0 0)
(5.69408 0.0254635 0 0.000610154 0 0)
(5.77089 0.0250168 0 0.000605971 0 0)
(5.84766 0.0245569 0 0.000599947 0 0)
(5.92444 0.0240864 0 0.000592461 0 0)
(6.00131 0.0236074 0 0.00058385 0 0)
(6.0783 0.0231214 0 0.000574421 0 0)
(6.15546 0.0226255 0 0.00056444 0 0)
(6.23282 0.0221217 0 0.000554135 0 0)
(6.31041 0.0216097 0 0.000543666 0 0)
(6.38826 0.0210899 0 0.000533155 0 0)
(6.46637 0.0205636 0 0.0005227 0 0)
(6.54476 0.0200341 0 0.000512381 0 0)
(6.62344 0.0195038 0 0.000502243 0 0)
(6.70241 0.0189764 0 0.000492317 0 0)
(6.78166 0.0184539 0 0.000482616 0 0)
(6.86121 0.0179405 0 0.000473158 0 0)
(6.94101 0.0174381 0 0.000463945 0 0)
(7.02109 0.0169484 0 0.000454974 0 0)
(7.10142 0.0164738 0 0.000446242 0 0)
(7.18198 0.0160127 0 0.000437747 0 0)
(7.26277 0.0155668 0 0.000429497 0 0)
(7.34377 0.0151367 0 0.000421491 0 0)
(7.42498 0.0147216 0 0.000413725 0 0)
(7.50638 0.0143204 0 0.000406193 0 0)
(7.58796 0.0139327 0 0.000398898 0 0)
(7.66972 0.0135578 0 0.000391842 0 0)
(7.75164 0.0131948 0 0.000385022 0 0)
(7.83372 0.0128425 0 0.000378433 0 0)
(7.91595 0.0124999 0 0.000372071 0 0)
(7.99833 0.0121664 0 0.000365938 0 0)
(8.08084 0.0118414 0 0.000360033 0 0)
(8.16349 0.011524 0 0.000354358 0 0)
(8.24627 0.0112136 0 0.000348896 0 0)
(8.32916 0.0109098 0 0.000343647 0 0)
(8.41217 0.010612 0 0.000338602 0 0)
(8.49528 0.0103208 0 0.000333758 0 0)
(8.57849 0.0100352 0 0.000329097 0 0)
(8.66179 0.00975585 0 0.000324605 0 0)
(8.74515 0.0094816 0 0.00032027 0 0)
(8.8286 0.00921413 0 0.000316092 0 0)
(8.91208 0.00895239 0 0.000312061 0 0)
(8.99563 0.00869673 0 0.000308169 0 0)
(9.0792 0.00844836 0 0.000304409 0 0)
(9.16279 0.00820445 0 0.000300782 0 0)
(9.24639 0.00796675 0 0.00029728 0 0)
(9.33 0.00773524 0 0.000293896 0 0)
(9.4136 0.00750903 0 0.000290613 0 0)
(9.49718 0.00728769 0 0.00028742 0 0)
(9.58075 0.00707102 0 0.000284317 0 0)
(9.6643 0.00685873 0 0.000281278 0 0)
(9.74784 0.00665031 0 0.000278318 0 0)
(9.83136 0.00644533 0 0.000275383 0 0)
(9.91487 0.0062436 0 0.000272548 0 0)
(9.99838 0.00604568 0 0.0002697 0 0)
(10.0819 0.00585193 0 0.000267005 0 0)
(10.1654 0.00566158 0 0.000264211 0 0)
(10.2488 0.00547748 0 0.000261686 0 0)
(10.3323 0.00529476 0 0.000258896 0 0)
(10.4157 0.00512531 0 0.000256628 0 0)
(10.499 0.00495064 0 0.000253746 0 0)
(10.5822 0.00480313 0 0.000251886 0 0)
(10.6651 0.0046352 0 0.000248697 0 0)
(10.748 0.00451779 0 0.000247562 0 0)
(10.8301 0.00436045 0 0.0002437 0 0)
(10.9124 0.00427571 0 0.000243902 0 0)
(10.9933 0.00415067 0 0.000238767 0 0)
(11.0742 0.00406368 0 0.000241473 0 0)
(11.1543 0.00407595 0 0.000234297 0 0)
(11.231 0.00385482 0 0.00024194 0 0)
(11.3146 0.00427349 0 0.000234264 0 0)
(11.3755 0.00366319 0 0.000251319 0 0)
(11.4903 0.0034718 0 0.00030613 0 0)
(0.0892201 0.000420009 0 1.2993e-05 0 0)
(0.0247605 0.00100921 0 0.000167041 0 0)
(0.052198 0.000634789 0 0.000584963 0 0)
(0.0870395 0.00203113 0 0.0013228 0 0)
(0.12675 0.00510811 0 0.00244673 0 0)
(0.170449 0.00869076 0 0.00398462 0 0)
(0.215795 0.011991 0 0.00585566 0 0)
(0.26158 0.0145553 0 0.00787424 0 0)
(0.308226 0.0161366 0 0.00984569 0 0)
(0.356065 0.0167292 0 0.0116377 0 0)
(0.40371 0.0163786 0 0.0131917 0 0)
(0.449769 0.0149685 0 0.0144492 0 0)
(0.494741 0.0125086 0 0.0153438 0 0)
(0.539928 0.00929291 0 0.0158411 0 0)
(0.58593 0.00570108 0 0.0159552 0 0)
(0.63292 0.00204357 0 0.0157325 0 0)
(0.681255 -0.00143169 0 0.0152321 0 0)
(0.73138 -0.00451983 0 0.0145193 0 0)
(0.78358 -0.00710013 0 0.013657 0 0)
(0.837963 -0.00913476 0 0.0127003 0 0)
(0.894513 -0.0106556 0 0.0116981 0 0)
(0.953124 -0.011749 0 0.0106862 0 0)
(1.01364 -0.0125392 0 0.00969143 0 0)
(1.07594 -0.0131615 0 0.0087336 0 0)
(1.1399 -0.013731 0 0.00782541 0 0)
(1.20548 -0.014325 0 0.00697473 0 0)
(1.27268 -0.0149826 0 0.00618573 0 0)
(1.34154 -0.0157107 0 0.00545999 0 0)
(1.41214 -0.0164887 0 0.00479739 0 0)
(1.48456 -0.0172743 0 0.00419675 0 0)
(1.55889 -0.0180144 0 0.00365616 0 0)
(1.63518 -0.018656 0 0.00317299 0 0)
(1.71346 -0.0191557 0 0.00274412 0 0)
(1.79369 -0.0194852 0 0.00236596 0 0)
(1.87583 -0.0196323 0 0.0020347 0 0)
(1.95977 -0.0196011 0 0.0017463 0 0)
(2.04538 -0.0194084 0 0.00149671 0 0)
(2.13252 -0.0190797 0 0.00128188 0 0)
(2.22102 -0.018645 0 0.00109788 0 0)
(2.31073 -0.0181353 0 0.000940965 0 0)
(2.40148 -0.0175792 0 0.000807621 0 0)
(2.49314 -0.0170016 0 0.000694622 0 0)
(2.58557 -0.0164224 0 0.000599051 0 0)
(2.67867 -0.015856 0 0.000518333 0 0)
(2.77233 -0.0153124 0 0.000450241 0 0)
(2.8665 -0.0147979 0 0.00039293 0 0)
(2.96111 -0.014316 0 0.000344817 0 0)
(3.05613 -0.0138674 0 0.000304525 0 0)
(3.15154 -0.0134512 0 0.000270866 0 0)
(3.24733 -0.0130649 0 0.000242829 0 0)
(3.3435 -0.0127056 0 0.000219547 0 0)
(3.44005 -0.0123702 0 0.000200282 0 0)
(3.53698 -0.0120553 0 0.000184402 0 0)
(3.63431 -0.0117575 0 0.00017136 0 0)
(3.73203 -0.0114735 0 0.00016069 0 0)
(3.83013 -0.0111999 0 0.000151996 0 0)
(3.92862 -0.0109337 0 0.000144946 0 0)
(4.02746 -0.0106723 0 0.000139268 0 0)
(4.12664 -0.0104133 0 0.000134736 0 0)
(4.22613 -0.0101549 0 0.000131155 0 0)
(4.32589 -0.00989574 0 0.00012836 0 0)
(4.42588 -0.00963465 0 0.000126215 0 0)
(4.52607 -0.00937105 0 0.000124611 0 0)
(4.62642 -0.00910476 0 0.000123459 0 0)
(4.72688 -0.00883609 0 0.000122685 0 0)
(4.82741 -0.00856571 0 0.000122235 0 0)
(4.92799 -0.00829441 0 0.000122065 0 0)
(5.02857 -0.00802321 0 0.000122145 0 0)
(5.12913 -0.00775337 0 0.000122449 0 0)
(5.22965 -0.00748599 0 0.00012296 0 0)
(5.3301 -0.00722215 0 0.000123661 0 0)
(5.43046 -0.00696296 0 0.000124543 0 0)
(5.53073 -0.0067094 0 0.000125597 0 0)
(5.63088 -0.00646241 0 0.000126814 0 0)
(5.73092 -0.00622283 0 0.000128183 0 0)
(5.83083 -0.00599136 0 0.000129696 0 0)
(5.93061 -0.00576853 0 0.00013134 0 0)
(6.03027 -0.00555462 0 0.000133104 0 0)
(6.12979 -0.00534974 0 0.000134974 0 0)
(6.22918 -0.00515385 0 0.000136936 0 0)
(6.32844 -0.0049668 0 0.000138974 0 0)
(6.42757 -0.00478816 0 0.000141073 0 0)
(6.52657 -0.00461747 0 0.000143218 0 0)
(6.62543 -0.00445413 0 0.000145394 0 0)
(6.72415 -0.00429762 0 0.000147584 0 0)
(6.82273 -0.0041473 0 0.000149775 0 0)
(6.92116 -0.00400262 0 0.000151954 0 0)
(7.01943 -0.00386306 0 0.00015411 0 0)
(7.11755 -0.00372824 0 0.000156233 0 0)
(7.2155 -0.00359794 0 0.000158315 0 0)
(7.31327 -0.00347193 0 0.000160348 0 0)
(7.41086 -0.00335025 0 0.000162329 0 0)
(7.50825 -0.00323312 0 0.000164255 0 0)
(7.60545 -0.00312078 0 0.000166115 0 0)
(7.70245 -0.00301338 0 0.000167909 0 0)
(7.79923 -0.0029115 0 0.000169625 0 0)
(7.89582 -0.0028151 0 0.000171269 0 0)
(7.99219 -0.0027253 0 0.000172814 0 0)
(8.08836 -0.00264132 0 0.000174281 0 0)
(8.18433 -0.00256493 0 0.00017562 0 0)
(8.28011 -0.00249416 0 0.000176889 0 0)
(8.3757 -0.00243189 0 0.000177984 0 0)
(8.47112 -0.00237425 0 0.000179037 0 0)
(8.56636 -0.00232639 0 0.000179841 0 0)
(8.66142 -0.00228055 0 0.000180677 0 0)
(8.75633 -0.00224729 0 0.000181133 0 0)
(8.85097 -0.00221091 0 0.000181789 0 0)
(8.94553 -0.00219316 0 0.00018181 0 0)
(9.03959 -0.00216402 0 0.00018239 0 0)
(9.13379 -0.00216373 0 0.000181831 0 0)
(9.22689 -0.00214138 0 0.000182582 0 0)
(9.32087 -0.0021604 0 0.000181189 0 0)
(9.41213 -0.00215022 0 0.000182679 0 0)
(9.5066 -0.00218877 0 0.000180018 0 0)
(9.59405 -0.00220817 0 0.000183541 0 0)
(9.69135 -0.00227661 0 0.000179185 0 0)
(9.77022 -0.00235934 0 0.000187442 0 0)
(9.87661 -0.00261871 0 0.000183884 0 0)
(9.93437 -0.00290685 0 0.000201661 0 0)
(10.0712 -0.00489013 0 0.000243215 0 0)
(0.0892173 0.000240155 0 6.43635e-06 0 0)
(0.024506 0.000664264 0 7.13525e-05 0 0)
(0.0518388 0.000382198 0 0.000262011 0 0)
(0.0854818 0.00120811 0 0.000617858 0 0)
(0.123015 0.00314121 0 0.00116586 0 0)
(0.16474 0.00544677 0 0.00192204 0 0)
(0.209011 0.00770814 0 0.00286267 0 0)
(0.255037 0.00979104 0 0.00391232 0 0)
(0.30409 0.0116982 0 0.00496404 0 0)
(0.357252 0.0135043 0 0.00592078 0 0)
(0.413026 0.0151882 0 0.00671216 0 0)
(0.469386 0.0166159 0 0.00731655 0 0)
(0.526231 0.01772 0 0.00772964 0 0)
(0.584289 0.0185761 0 0.00795068 0 0)
(0.643515 0.01931 0 0.0079882 0 0)
(0.703454 0.0200199 0 0.00786217 0 0)
(0.763977 0.0207755 0 0.00760229 0 0)
(0.825191 0.0216149 0 0.00724319 0 0)
(0.88716 0.0225233 0 0.00681903 0 0)
(0.949906 0.023439 0 0.00635918 0 0)
(1.01342 0.02428 0 0.00588716 0 0)
(1.07764 0.02496 0 0.00542013 0 0)
(1.14243 0.0253971 0 0.00496932 0 0)
(1.20763 0.0255288 0 0.00454156 0 0)
(1.27309 0.0253283 0 0.00414071 0 0)
(1.33863 0.0248073 0 0.0037688 0 0)
(1.40412 0.0240072 0 0.00342644 0 0)
(1.46945 0.0229869 0 0.00311317 0 0)
(1.53454 0.0218144 0 0.00282797 0 0)
(1.59938 0.0205613 0 0.00256954 0 0)
(1.66399 0.0192953 0 0.00233654 0 0)
(1.72842 0.0180743 0 0.00212762 0 0)
(1.79272 0.0169413 0 0.0019414 0 0)
(1.85695 0.0159234 0 0.00177642 0 0)
(1.92121 0.0150329 0 0.0016311 0 0)
(1.98554 0.0142709 0 0.00150382 0 0)
(2.05002 0.0136301 0 0.00139293 0 0)
(2.11468 0.013098 0 0.0012968 0 0)
(2.17958 0.0126598 0 0.00121387 0 0)
(2.24475 0.0123 0 0.00114264 0 0)
(2.3102 0.012004 0 0.0010817 0 0)
(2.37597 0.011759 0 0.0010297 0 0)
(2.44206 0.0115538 0 0.000985385 0 0)
(2.50849 0.0113786 0 0.000947565 0 0)
(2.57526 0.0112247 0 0.000915147 0 0)
(2.64239 0.011084 0 0.000887085 0 0)
(2.70989 0.0109499 0 0.000862522 0 0)
(2.77777 0.0108169 0 0.000840824 0 0)
(2.84602 0.0106807 0 0.000821525 0 0)
(2.91468 0.0105372 0 0.000804265 0 0)
(2.98374 0.0103833 0 0.000788744 0 0)
(3.05322 0.0102161 0 0.000774701 0 0)
(3.12314 0.0100333 0 0.000761894 0 0)
(3.1935 0.00983385 0 0.000750103 0 0)
(3.26432 0.00961755 0 0.000739095 0 0)
(3.33561 0.00938545 0 0.000728637 0 0)
(3.40738 0.00913998 0 0.000718524 0 0)
(3.47964 0.00888472 0 0.000708581 0 0)
(3.5524 0.00862395 0 0.000698663 0 0)
(3.62566 0.00836239 0 0.000688658 0 0)
(3.69942 0.00810469 0 0.000678474 0 0)
(3.77369 0.00785519 0 0.000668037 0 0)
(3.84845 0.00761754 0 0.000657301 0 0)
(3.92369 0.00739463 0 0.000646243 0 0)
(3.99942 0.00718847 0 0.000634856 0 0)
(4.07562 0.00700018 0 0.00062315 0 0)
(4.15227 0.00683005 0 0.000611143 0 0)
(4.22937 0.00667766 0 0.000598869 0 0)
(4.3069 0.00654204 0 0.000586372 0 0)
(4.38483 0.00642189 0 0.000573698 0 0)
(4.46317 0.00631567 0 0.000560895 0 0)
(4.54189 0.00622169 0 0.000548011 0 0)
(4.62099 0.00613809 0 0.000535097 0 0)
(4.70044 0.00606319 0 0.000522201 0 0)
(4.78024 0.00599536 0 0.000509367 0 0)
(4.86038 0.00593315 0 0.000496634 0 0)
(4.94085 0.00587527 0 0.000484037 0 0)
(5.02163 0.00582073 0 0.000471608 0 0)
(5.10271 0.00576879 0 0.000459377 0 0)
(5.1841 0.00571899 0 0.000447364 0 0)
(5.26578 0.00567103 0 0.000435589 0 0)
(5.34774 0.00562494 0 0.000424063 0 0)
(5.42998 0.00558092 0 0.000412803 0 0)
(5.51249 0.00553945 0 0.000401815 0 0)
(5.59527 0.00550101 0 0.000391104 0 0)
(5.67831 0.00546628 0 0.000380672 0 0)
(5.76161 0.00543582 0 0.000370521 0 0)
(5.84515 0.00541038 0 0.000360652 0 0)
(5.92893 0.00539049 0 0.000351064 0 0)
(6.01295 0.00537668 0 0.000341751 0 0)
(6.09719 0.00536923 0 0.000332709 0 0)
(6.18165 0.00536851 0 0.000323931 0 0)
(6.26633 0.0053746 0 0.000315417 0 0)
(6.35121 0.00538753 0 0.000307152 0 0)
(6.43629 0.00540722 0 0.000299133 0 0)
(6.52156 0.00543346 0 0.000291341 0 0)
(6.60701 0.00546611 0 0.00028378 0 0)
(6.69265 0.00550481 0 0.000276424 0 0)
(6.77848 0.00554924 0 0.000269278 0 0)
(6.86448 0.00559912 0 0.000262307 0 0)
(6.95066 0.00565388 0 0.000255527 0 0)
(7.03702 0.0057137 0 0.000248892 0 0)
(7.12356 0.00577748 0 0.00024243 0 0)
(7.21026 0.005846 0 0.000236074 0 0)
(7.29713 0.00591727 0 0.000229875 0 0)
(7.38415 0.00599318 0 0.000223734 0 0)
(7.47128 0.00606971 0 0.000217765 0 0)
(7.55853 0.00615164 0 0.000211757 0 0)
(7.64573 0.00622885 0 0.000206011 0 0)
(7.73314 0.00631577 0 0.000199998 0 0)
(7.82002 0.00638355 0 0.00019453 0 0)
(7.90761 0.00647604 0 0.000188293 0 0)
(7.99338 0.0065122 0 0.000183285 0 0)
(8.08157 0.0066129 0 0.000176459 0 0)
(8.16453 0.00657054 0 0.000172354 0 0)
(8.25505 0.00667905 0 0.000164475 0 0)
(8.33119 0.00645882 0 0.000162197 0 0)
(8.42885 0.00656861 0 0.000153972 0 0)
(8.48811 0.00605791 0 0.00015517 0 0)
(8.61685 0.00639176 0 0.000154225 0 0)
(0.0892203 8.44083e-05 0 4.16952e-06 0 0)
(0.024504 0.000469038 0 3.12546e-05 0 0)
(0.0518139 0.00034562 0 0.000111366 0 0)
(0.0852138 0.000886529 0 0.000267105 0 0)
(0.122236 0.00214634 0 0.000507022 0 0)
(0.163196 0.00360221 0 0.000830395 0 0)
(0.206327 0.00495383 0 0.00122511 0 0)
(0.250739 0.0061692 0 0.00166248 0 0)
(0.297873 0.00729499 0 0.00210108 0 0)
(0.349107 0.00836905 0 0.00250237 0 0)
(0.403129 0.00938909 0 0.00284442 0 0)
(0.458041 0.0103188 0 0.00312406 0 0)
(0.513882 0.0111452 0 0.00334426 0 0)
(0.571502 0.011911 0 0.00350564 0 0)
(0.630908 0.0126828 0 0.00360795 0 0)
(0.691666 0.0135126 0 0.00365378 0 0)
(0.753681 0.0144298 0 0.00364951 0 0)
(0.817099 0.0154423 0 0.0036035 0 0)
(0.882043 0.0165339 0 0.00352473 0 0)
(0.948598 0.0176686 0 0.00342154 0 0)
(1.01683 0.0188021 0 0.00330146 0 0)
(1.08671 0.0198865 0 0.00317063 0 0)
(1.15812 0.0208696 0 0.00303366 0 0)
(1.23088 0.0217017 0 0.00289379 0 0)
(1.3048 0.0223457 0 0.00275339 0 0)
(1.37967 0.0227839 0 0.00261416 0 0)
(1.45523 0.023017 0 0.00247741 0 0)
(1.53128 0.0230607 0 0.00234412 0 0)
(1.60763 0.0229407 0 0.00221506 0 0)
(1.68415 0.0226885 0 0.00209077 0 0)
(1.76076 0.0223394 0 0.00197173 0 0)
(1.83739 0.0219281 0 0.00185833 0 0)
(1.91404 0.0214862 0 0.00175093 0 0)
(1.99071 0.0210393 0 0.00164977 0 0)
(2.06745 0.020607 0 0.00155499 0 0)
(2.14429 0.0202025 0 0.00146653 0 0)
(2.22128 0.019834 0 0.00138427 0 0)
(2.29847 0.0195048 0 0.00130798 0 0)
(2.37591 0.0192149 0 0.00123739 0 0)
(2.45361 0.0189614 0 0.00117223 0 0)
(2.53161 0.0187401 0 0.0011122 0 0)
(2.60993 0.0185457 0 0.00105704 0 0)
(2.68858 0.0183729 0 0.00100645 0 0)
(2.76757 0.0182156 0 0.000960145 0 0)
(2.84688 0.018068 0 0.000917801 0 0)
(2.92654 0.0179231 0 0.000878997 0 0)
(3.00653 0.0177754 0 0.000843367 0 0)
(3.08686 0.0176203 0 0.000810625 0 0)
(3.16752 0.017455 0 0.000780565 0 0)
(3.24851 0.0172773 0 0.000752996 0 0)
(3.32981 0.0170863 0 0.000727741 0 0)
(3.41143 0.0168814 0 0.000704613 0 0)
(3.49333 0.0166633 0 0.000683444 0 0)
(3.57552 0.0164334 0 0.000664068 0 0)
(3.65797 0.0161943 0 0.000646369 0 0)
(3.74067 0.0159491 0 0.000630231 0 0)
(3.82361 0.0157012 0 0.000615521 0 0)
(3.90677 0.015454 0 0.000602074 0 0)
(3.99014 0.0152104 0 0.000589726 0 0)
(4.07371 0.0149731 0 0.000578312 0 0)
(4.15746 0.0147448 0 0.00056769 0 0)
(4.24138 0.0145272 0 0.000557725 0 0)
(4.32547 0.0143219 0 0.000548308 0 0)
(4.40971 0.0141299 0 0.000539339 0 0)
(4.49409 0.0139515 0 0.000530739 0 0)
(4.5786 0.0137865 0 0.000522438 0 0)
(4.66323 0.0136343 0 0.000514387 0 0)
(4.74798 0.013494 0 0.000506541 0 0)
(4.83284 0.0133644 0 0.000498874 0 0)
(4.91778 0.013244 0 0.000491362 0 0)
(5.00281 0.0131314 0 0.000483995 0 0)
(5.08791 0.0130248 0 0.00047676 0 0)
(5.17308 0.012923 0 0.000469657 0 0)
(5.2583 0.0128241 0 0.000462679 0 0)
(5.34357 0.0127268 0 0.00045583 0 0)
(5.42887 0.0126297 0 0.000449103 0 0)
(5.51419 0.0125317 0 0.000442505 0 0)
(5.59954 0.0124316 0 0.00043603 0 0)
(5.68489 0.012329 0 0.000429685 0 0)
(5.77024 0.0122229 0 0.000423461 0 0)
(5.85558 0.0121132 0 0.000417365 0 0)
(5.94091 0.0119995 0 0.00041139 0 0)
(6.02621 0.0118821 0 0.000405539 0 0)
(6.11148 0.0117609 0 0.000399804 0 0)
(6.19672 0.0116365 0 0.000394189 0 0)
(6.28191 0.0115091 0 0.000388684 0 0)
(6.36706 0.0113795 0 0.000383294 0 0)
(6.45214 0.0112478 0 0.000378006 0 0)
(6.53717 0.0111151 0 0.000372826 0 0)
(6.62214 0.0109816 0 0.000367739 0 0)
(6.70703 0.0108481 0 0.000362753 0 0)
(6.79185 0.0107148 0 0.000357848 0 0)
(6.87659 0.0105826 0 0.000353038 0 0)
(6.96125 0.0104515 0 0.000348296 0 0)
(7.04583 0.0103225 0 0.000343643 0 0)
(7.13032 0.0101952 0 0.000339043 0 0)
(7.21474 0.0100708 0 0.000334527 0 0)
(7.29907 0.00994843 0 0.000330044 0 0)
(7.38334 0.00982958 0 0.000325647 0 0)
(7.46753 0.00971297 0 0.000321256 0 0)
(7.55168 0.00960057 0 0.000316964 0 0)
(7.63576 0.00949015 0 0.000312634 0 0)
(7.71981 0.00938479 0 0.000308443 0 0)
(7.80379 0.00928031 0 0.000304131 0 0)
(7.88776 0.00918208 0 0.00030006 0 0)
(7.97163 0.00908227 0 0.000295697 0 0)
(8.05548 0.00899056 0 0.000291825 0 0)
(8.1392 0.00889252 0 0.000287294 0 0)
(8.22279 0.00880565 0 0.000283815 0 0)
(8.30628 0.00870367 0 0.000278915 0 0)
(8.38929 0.00861814 0 0.000276224 0 0)
(8.47252 0.00850086 0 0.000270619 0 0)
(8.55428 0.00841025 0 0.00026949 0 0)
(8.63759 0.00825514 0 0.000262673 0 0)
(8.71662 0.00815278 0 0.000264601 0 0)
(8.80142 0.00791666 0 0.000256054 0 0)
(8.87433 0.00781906 0 0.000263502 0 0)
(8.96468 0.00742476 0 0.000253446 0 0)
(9.02288 0.00744934 0 0.000267621 0 0)
(9.14246 0.00670264 0 0.000258503 0 0)
(0.0892231 -6.21332e-05 0 2.78324e-06 0 0)
(0.0245004 0.000268822 0 9.85708e-06 0 0)
(0.0517906 0.00025699 0 3.06123e-05 0 0)
(0.085044 0.000529227 0 7.42768e-05 0 0)
(0.121793 0.0011867 0 0.00014427 0 0)
(0.162425 0.00195126 0 0.000240323 0 0)
(0.205131 0.00265479 0 0.000359437 0 0)
(0.248904 0.00328364 0 0.000494782 0 0)
(0.295212 0.0038641 0 0.000635702 0 0)
(0.345592 0.00442019 0 0.000771287 0 0)
(0.398836 0.00496228 0 0.000894607 0 0)
(0.453037 0.00547429 0 0.00100271 0 0)
(0.508219 0.0059359 0 0.00109385 0 0)
(0.565236 0.00635363 0 0.00116563 0 0)
(0.624094 0.00675699 0 0.0012156 0 0)
(0.684338 0.00717854 0 0.0012426 0 0)
(0.745841 0.00764454 0 0.00124723 0 0)
(0.80872 0.00817026 0 0.00123154 0 0)
(0.873057 0.00875282 0 0.0011986 0 0)
(0.938909 0.00936936 0 0.001152 0 0)
(1.00632 0.00998441 0 0.00109546 0 0)
(1.07527 0.0105581 0 0.00103263 0 0)
(1.14562 0.0110511 0 0.000966843 0 0)
(1.21723 0.0114283 0 0.00090061 0 0)
(1.28995 0.0116641 0 0.000835677 0 0)
(1.36363 0.0117479 0 0.000773293 0 0)
(1.43809 0.0116838 0 0.000714292 0 0)
(1.51315 0.0114869 0 0.000659108 0 0)
(1.58869 0.011179 0 0.00060786 0 0)
(1.66459 0.010785 0 0.000560445 0 0)
(1.74079 0.0103319 0 0.000516646 0 0)
(1.81725 0.00984749 0 0.000476202 0 0)
(1.89395 0.00935786 0 0.000438888 0 0)
(1.9709 0.00888546 0 0.000404553 0 0)
(2.04813 0.00844741 0 0.000373092 0 0)
(2.12567 0.00805523 0 0.000344406 0 0)
(2.20358 0.00771523 0 0.000318385 0 0)
(2.28187 0.00742919 0 0.000294905 0 0)
(2.3606 0.0071953 0 0.000273834 0 0)
(2.43978 0.00700938 0 0.000255037 0 0)
(2.51944 0.0068658 0 0.000238377 0 0)
(2.59961 0.00675834 0 0.000223716 0 0)
(2.68028 0.00668059 0 0.000210919 0 0)
(2.76147 0.00662661 0 0.000199859 0 0)
(2.84318 0.00659115 0 0.000190416 0 0)
(2.9254 0.00657049 0 0.000182496 0 0)
(3.00814 0.00656138 0 0.000175986 0 0)
(3.0914 0.00656057 0 0.000170756 0 0)
(3.17516 0.0065649 0 0.000166666 0 0)
(3.25943 0.00657165 0 0.000163581 0 0)
(3.34418 0.00657866 0 0.00016138 0 0)
(3.42939 0.00658436 0 0.000159952 0 0)
(3.51507 0.00658777 0 0.0001592 0 0)
(3.60117 0.0065885 0 0.00015904 0 0)
(3.6877 0.00658699 0 0.000159409 0 0)
(3.77462 0.00658421 0 0.00016025 0 0)
(3.86192 0.00658115 0 0.000161499 0 0)
(3.94958 0.00657874 0 0.000163085 0 0)
(4.03758 0.00657786 0 0.000164936 0 0)
(4.12591 0.00657956 0 0.000166985 0 0)
(4.21455 0.00658493 0 0.00016917 0 0)
(4.30349 0.00659508 0 0.000171436 0 0)
(4.39272 0.00661105 0 0.000173731 0 0)
(4.48223 0.00663372 0 0.000176014 0 0)
(4.57202 0.00666377 0 0.000178248 0 0)
(4.66207 0.00670162 0 0.000180401 0 0)
(4.75238 0.00674741 0 0.000182452 0 0)
(4.84294 0.00680097 0 0.000184382 0 0)
(4.93375 0.00686182 0 0.000186179 0 0)
(5.02479 0.00692922 0 0.000187832 0 0)
(5.11607 0.00700221 0 0.000189338 0 0)
(5.20757 0.00707975 0 0.000190695 0 0)
(5.29928 0.00716066 0 0.000191905 0 0)
(5.39119 0.00724374 0 0.000192971 0 0)
(5.48329 0.00732776 0 0.000193898 0 0)
(5.57558 0.00741154 0 0.000194693 0 0)
(5.66803 0.00749394 0 0.000195361 0 0)
(5.76063 0.00757393 0 0.000195908 0 0)
(5.85338 0.00765063 0 0.00019634 0 0)
(5.94626 0.00772329 0 0.000196662 0 0)
(6.03925 0.00779135 0 0.000196881 0 0)
(6.13234 0.0078544 0 0.000197 0 0)
(6.22553 0.0079122 0 0.000197024 0 0)
(6.31878 0.00796469 0 0.000196959 0 0)
(6.41211 0.00801193 0 0.000196807 0 0)
(6.50548 0.00805412 0 0.000196573 0 0)
(6.59889 0.00809156 0 0.000196261 0 0)
(6.69233 0.00812463 0 0.000195874 0 0)
(6.78578 0.00815381 0 0.000195416 0 0)
(6.87924 0.0081795 0 0.000194891 0 0)
(6.97269 0.00820226 0 0.000194302 0 0)
(7.06612 0.00822246 0 0.00019365 0 0)
(7.15953 0.00824072 0 0.000192942 0 0)
(7.25291 0.00825733 0 0.000192176 0 0)
(7.34625 0.00827295 0 0.000191361 0 0)
(7.43955 0.00828766 0 0.000190491 0 0)
(7.5328 0.00830229 0 0.000189579 0 0)
(7.62601 0.00831652 0 0.000188612 0 0)
(7.71918 0.00833142 0 0.000187613 0 0)
(7.8123 0.00834611 0 0.000186553 0 0)
(7.90539 0.00836232 0 0.000185479 0 0)
(7.99844 0.00837816 0 0.000184325 0 0)
(8.09149 0.00839657 0 0.00018319 0 0)
(8.18448 0.0084136 0 0.000181933 0 0)
(8.27746 0.00843444 0 0.000180768 0 0)
(8.37038 0.00845147 0 0.000179386 0 0)
(8.46325 0.00847375 0 0.000178259 0 0)
(8.55605 0.00848769 0 0.000176716 0 0)
(8.64865 0.00850834 0 0.000175773 0 0)
(8.74126 0.00851308 0 0.000174013 0 0)
(8.83319 0.00852538 0 0.000173544 0 0)
(8.92566 0.00851003 0 0.000171502 0 0)
(9.01614 0.00850174 0 0.000172072 0 0)
(9.10893 0.0084489 0 0.000169752 0 0)
(9.1962 0.00840381 0 0.000172378 0 0)
(9.29112 0.00829227 0 0.000170114 0 0)
(9.37119 0.00820724 0 0.000176144 0 0)
(9.47325 0.00802622 0 0.000175243 0 0)
(9.53622 0.00798372 0 0.000184402 0 0)
(9.67187 0.00778188 0 0.00018827 0 0)
(0.089225 -0.000207617 0 2.42638e-06 0 0)
(0.0244973 6.25812e-05 0 3.6956e-06 0 0)
(0.0517751 0.000159054 0 3.71212e-06 0 0)
(0.0849571 0.000182465 0 4.21551e-06 0 0)
(0.121576 0.000278177 0 5.95862e-06 0 0)
(0.162052 0.000414437 0 9.42994e-06 0 0)
(0.204558 0.000539018 0 1.4878e-05 0 0)
(0.248042 0.000634114 0 2.22492e-05 0 0)
(0.293989 0.000709437 0 3.10624e-05 0 0)
(0.344003 0.000788611 0 4.05728e-05 0 0)
(0.396908 0.000889067 0 5.01286e-05 0 0)
(0.450799 0.00100713 0 5.93001e-05 0 0)
(0.505708 0.00112697 0 6.77953e-05 0 0)
(0.562506 0.00124058 0 7.52908e-05 0 0)
(0.621199 0.0013527 0 8.14047e-05 0 0)
(0.681315 0.00147424 0 8.57968e-05 0 0)
(0.742704 0.001618 0 8.82704e-05 0 0)
(0.805452 0.00179414 0 8.8898e-05 0 0)
(0.869606 0.00200378 0 8.79787e-05 0 0)
(0.935202 0.00223616 0 8.59664e-05 0 0)
(1.00228 0.00247353 0 8.33311e-05 0 0)
(1.07082 0.00269545 0 8.05002e-05 0 0)
(1.14072 0.00288871 0 7.79207e-05 0 0)
(1.21184 0.00304646 0 7.58528e-05 0 0)
(1.28405 0.00316678 0 7.43902e-05 0 0)
(1.3572 0.00325207 0 7.3516e-05 0 0)
(1.43113 0.00330762 0 7.31517e-05 0 0)
(1.50566 0.00334081 0 7.32005e-05 0 0)
(1.58066 0.00335882 0 7.3567e-05 0 0)
(1.65602 0.0033665 0 7.41383e-05 0 0)
(1.73168 0.00336648 0 7.47975e-05 0 0)
(1.80759 0.00336128 0 7.54178e-05 0 0)
(1.88375 0.00335443 0 7.58956e-05 0 0)
(1.96017 0.00334963 0 7.61818e-05 0 0)
(2.03688 0.00334969 0 7.62709e-05 0 0)
(2.1139 0.00335631 0 7.61834e-05 0 0)
(2.1913 0.00336993 0 7.59547e-05 0 0)
(2.2691 0.00339004 0 7.56266e-05 0 0)
(2.34736 0.00341549 0 7.5241e-05 0 0)
(2.42609 0.00344505 0 7.48367e-05 0 0)
(2.50533 0.00347761 0 7.44503e-05 0 0)
(2.58509 0.0035124 0 7.41153e-05 0 0)
(2.66539 0.00354897 0 7.38614e-05 0 0)
(2.74623 0.00358725 0 7.37128e-05 0 0)
(2.82762 0.00362749 0 7.3689e-05 0 0)
(2.90955 0.00367006 0 7.38001e-05 0 0)
(2.99202 0.00371489 0 7.4047e-05 0 0)
(3.07502 0.00376117 0 7.44237e-05 0 0)
(3.15854 0.00380756 0 7.492e-05 0 0)
(3.24258 0.00385282 0 7.55247e-05 0 0)
(3.32711 0.00389595 0 7.62281e-05 0 0)
(3.41212 0.00393639 0 7.70208e-05 0 0)
(3.4976 0.00397377 0 7.78929e-05 0 0)
(3.58352 0.00400806 0 7.88314e-05 0 0)
(3.66987 0.00403916 0 7.98195e-05 0 0)
(3.75662 0.00406707 0 8.08386e-05 0 0)
(3.84376 0.00409205 0 8.18708e-05 0 0)
(3.93126 0.00411466 0 8.28985e-05 0 0)
(4.01911 0.00413566 0 8.39055e-05 0 0)
(4.1073 0.00415596 0 8.48766e-05 0 0)
(4.1958 0.00417651 0 8.57992e-05 0 0)
(4.28462 0.00419824 0 8.66616e-05 0 0)
(4.37374 0.00422198 0 8.74543e-05 0 0)
(4.46315 0.00424841 0 8.81693e-05 0 0)
(4.55285 0.00427804 0 8.88015e-05 0 0)
(4.64284 0.00431123 0 8.93474e-05 0 0)
(4.7331 0.0043481 0 8.98061e-05 0 0)
(4.82363 0.00438863 0 9.0178e-05 0 0)
(4.91444 0.00443258 0 9.04657e-05 0 0)
(5.00551 0.00447955 0 9.06723e-05 0 0)
(5.09684 0.00452903 0 9.08024e-05 0 0)
(5.18842 0.00458049 0 9.08602e-05 0 0)
(5.28026 0.00463336 0 9.08508e-05 0 0)
(5.37233 0.00468712 0 9.07788e-05 0 0)
(5.46463 0.00474122 0 9.06494e-05 0 0)
(5.55716 0.0047952 0 9.04669e-05 0 0)
(5.6499 0.00484858 0 9.02357e-05 0 0)
(5.74284 0.004901 0 8.99595e-05 0 0)
(5.83597 0.00495214 0 8.96417e-05 0 0)
(5.92928 0.00500181 0 8.92849e-05 0 0)
(6.02275 0.00504985 0 8.88918e-05 0 0)
(6.11637 0.00509625 0 8.84644e-05 0 0)
(6.21014 0.00514103 0 8.80048e-05 0 0)
(6.30402 0.00518431 0 8.75145e-05 0 0)
(6.39802 0.00522624 0 8.69953e-05 0 0)
(6.49212 0.00526707 0 8.64488e-05 0 0)
(6.5863 0.00530702 0 8.58768e-05 0 0)
(6.68056 0.00534638 0 8.5281e-05 0 0)
(6.77488 0.00538541 0 8.46633e-05 0 0)
(6.86925 0.00542439 0 8.40257e-05 0 0)
(6.96366 0.00546359 0 8.33702e-05 0 0)
(7.0581 0.00550326 0 8.2699e-05 0 0)
(7.15256 0.00554367 0 8.20144e-05 0 0)
(7.24703 0.00558501 0 8.13185e-05 0 0)
(7.3415 0.00562757 0 8.06134e-05 0 0)
(7.43598 0.00567149 0 7.99004e-05 0 0)
(7.53046 0.00571711 0 7.91819e-05 0 0)
(7.62494 0.00576449 0 7.8457e-05 0 0)
(7.71942 0.00581394 0 7.77323e-05 0 0)
(7.8139 0.00586523 0 7.70057e-05 0 0)
(7.9084 0.00591876 0 7.6288e-05 0 0)
(8.00291 0.00597409 0 7.55694e-05 0 0)
(8.09745 0.00603162 0 7.48722e-05 0 0)
(8.19199 0.00609066 0 7.41713e-05 0 0)
(8.28657 0.00615123 0 7.35163e-05 0 0)
(8.38114 0.00621282 0 7.28478e-05 0 0)
(8.4757 0.00627378 0 7.2277e-05 0 0)
(8.57026 0.00633532 0 7.16714e-05 0 0)
(8.66462 0.0063908 0 7.12718e-05 0 0)
(8.75911 0.00644745 0 7.08006e-05 0 0)
(8.85288 0.00648592 0 7.0755e-05 0 0)
(8.94736 0.00652956 0 7.06006e-05 0 0)
(9.0397 0.00653112 0 7.12836e-05 0 0)
(9.13471 0.00655081 0 7.19062e-05 0 0)
(9.22378 0.00649086 0 7.39823e-05 0 0)
(9.32125 0.00647824 0 7.64783e-05 0 0)
(9.40289 0.0063525 0 8.07111e-05 0 0)
(9.50824 0.00631536 0 8.74711e-05 0 0)
(9.57217 0.00622644 0 9.29757e-05 0 0)
(9.71269 0.00615397 0 0.000108557 0 0)
(0.0892265 -0.000354833 0 3.25485e-06 0 0)
(0.0244978 -0.000147562 0 1.31453e-05 0 0)
(0.0517707 5.385e-05 0 2.97615e-05 0 0)
(0.0849495 -0.00016292 0 5.31815e-05 0 0)
(0.121566 -0.000612149 0 8.26322e-05 0 0)
(0.16204 -0.00108446 0 0.000116989 0 0)
(0.20455 -0.00151704 0 0.00015461 0 0)
(0.248039 -0.00193371 0 0.000193273 0 0)
(0.293986 -0.00234809 0 0.000230372 0 0)
(0.343994 -0.0027413 0 0.000263502 0 0)
(0.396886 -0.00308292 0 0.000291144 0 0)
(0.450759 -0.00335479 0 0.00031271 0 0)
(0.505648 -0.00356404 0 0.00032814 0 0)
(0.562426 -0.00373721 0 0.000337533 0 0)
(0.6211 -0.00390164 0 0.000341096 0 0)
(0.681203 -0.00407255 0 0.00033929 0 0)
(0.742589 -0.0042534 0 0.000332713 0 0)
(0.805345 -0.00443729 0 0.000322012 0 0)
(0.869523 -0.00460952 0 0.000307812 0 0)
(0.935152 -0.00475066 0 0.000290701 0 0)
(1.00227 -0.0048437 0 0.000271348 0 0)
(1.07085 -0.00487816 0 0.000250562 0 0)
(1.14078 -0.0048568 0 0.000229525 0 0)
(1.21194 -0.00478882 0 0.000209113 0 0)
(1.28417 -0.004685 0 0.000189949 0 0)
(1.35734 -0.0045591 0 0.000172589 0 0)
(1.43126 -0.00442989 0 0.000157511 0 0)
(1.50578 -0.00431233 0 0.000144799 0 0)
(1.58076 -0.00421571 0 0.000134284 0 0)
(1.65608 -0.00414695 0 0.000125761 0 0)
(1.73168 -0.00411156 0 0.00011903 0 0)
(1.80752 -0.00411314 0 0.000113916 0 0)
(1.8836 -0.00415241 0 0.000110222 0 0)
(1.95992 -0.00422571 0 0.000107715 0 0)
(2.03653 -0.00432575 0 0.000106161 0 0)
(2.11345 -0.00444381 0 0.000105363 0 0)
(2.19074 -0.00457159 0 0.000105166 0 0)
(2.26844 -0.00470205 0 0.000105457 0 0)
(2.34659 -0.00482973 0 0.000106142 0 0)