/*--------------------------------*- C++ -*----------------------------------*\
  =========                 |
  \\      /  F ield         | OpenFOAM: The Open Source CFD Toolbox
   \\    /   O peration     | Website:  https://openfoam.org
    \\  /    A nd           | Version:  7
     \\/     M anipulation  |
\*---------------------------------------------------------------------------*/
FoamFile
{
    version     2.0;
    format      ascii;
    class       volScalarField;
    location    "1.8525";
    object      alphat;
}
// * * * * * * * * * * * * * * * * * * * * * * * * * * * * * * * * * * * * * //

dimensions      [1 -1 -1 0 0 0 0];

internalField   nonuniform List<scalar> 
13200
(
0.0100884
0.0103608
0.0103591
0.0103595
0.0103575
0.0103575
0.0103562
0.0103563
0.0103551
0.0103552
0.0103543
0.0103544
0.0103539
0.010354
0.0103537
0.0103537
0.0103539
0.0103531
0.0103574
0.0103618
0.00488586
0.00465467
0.00449775
0.00443623
0.00441393
0.00440806
0.00440066
0.00440002
0.00439694
0.0043969
0.00439467
0.00439482
0.00439307
0.00439329
0.00439184
0.00439205
0.00439094
0.00439077
0.00439673
0.00440087
0.0030553
0.0030446
0.00298626
0.00294208
0.00292156
0.00291338
0.0029052
0.00290206
0.00289702
0.00289515
0.00289147
0.00289022
0.00288734
0.00288647
0.00288408
0.00288346
0.00288125
0.00288109
0.00287902
0.0028862
0.00257825
0.00272729
0.0027417
0.00273991
0.00273671
0.00273489
0.00273188
0.00273013
0.0027273
0.00272579
0.00272327
0.00272202
0.00271987
0.00271883
0.00271697
0.00271612
0.00271445
0.00271385
0.00271193
0.00271645
0.00246868
0.00266662
0.00270163
0.00271187
0.00271368
0.00271605
0.00271572
0.00271609
0.00271527
0.00271514
0.00271412
0.00271382
0.00271264
0.00271237
0.0027112
0.00271099
0.00270977
0.00270969
0.00270822
0.00271099
0.0024537
0.00265863
0.00269823
0.00271161
0.00271517
0.00271948
0.00272034
0.00272232
0.00272256
0.00272363
0.0027235
0.00272416
0.0027238
0.00272425
0.00272377
0.0027241
0.00272349
0.00272377
0.0027231
0.00272514
0.00244903
0.00265434
0.00269454
0.00270867
0.00271303
0.00271824
0.0027199
0.002723
0.00272401
0.00272612
0.00272676
0.00272823
0.00272863
0.00272977
0.00273001
0.00273093
0.002731
0.0027317
0.00273164
0.00273388
0.00245132
0.00265475
0.0026948
0.00270904
0.00271381
0.0027195
0.00272164
0.00272543
0.00272697
0.00272984
0.00273102
0.00273325
0.00273417
0.00273594
0.00273672
0.00273816
0.0027388
0.0027399
0.00274056
0.00274274
0.00245083
0.00265349
0.00269323
0.00270729
0.00271207
0.00271786
0.00272017
0.00272421
0.002726
0.00272924
0.00273072
0.00273339
0.00273465
0.00273689
0.00273802
0.00273991
0.00274092
0.00274243
0.00274343
0.002746
0.00245189
0.0026538
0.00269338
0.00270738
0.00271218
0.00271801
0.00272037
0.00272449
0.00272637
0.00272975
0.00273137
0.00273422
0.00273564
0.00273809
0.0027394
0.0027415
0.00274273
0.00274438
0.00274569
0.00274828
0.00245189
0.0026538
0.00269338
0.00270738
0.00271218
0.00271801
0.00272037
0.00272449
0.00272637
0.00272975
0.00273137
0.00273422
0.00273564
0.00273809
0.0027394
0.0027415
0.00274273
0.00274439
0.00274569
0.0027483
0.00245083
0.00265349
0.00269323
0.00270729
0.00271207
0.00271786
0.00272017
0.00272421
0.002726
0.00272924
0.00273072
0.00273339
0.00273465
0.00273689
0.00273802
0.00273991
0.00274092
0.00274244
0.00274344
0.00274604
0.00245132
0.00265475
0.0026948
0.00270904
0.00271381
0.0027195
0.00272165
0.00272543
0.00272697
0.00272984
0.00273102
0.00273325
0.00273417
0.00273594
0.00273673
0.00273817
0.00273881
0.00273991
0.00274057
0.0027428
0.00244903
0.00265434
0.00269454
0.00270867
0.00271303
0.00271824
0.0027199
0.00272299
0.00272401
0.00272612
0.00272676
0.00272822
0.00272863
0.00272977
0.00273002
0.00273092
0.00273102
0.0027317
0.00273169
0.00273392
0.0024537
0.00265863
0.00269823
0.00271161
0.00271517
0.00271948
0.00272034
0.00272232
0.00272256
0.00272362
0.00272351
0.00272415
0.00272381
0.00272423
0.0027238
0.00272407
0.00272354
0.00272374
0.00272322
0.00272505
0.00246868
0.00266663
0.00270163
0.00271187
0.00271368
0.00271605
0.00271572
0.00271608
0.00271527
0.00271514
0.00271413
0.0027138
0.00271266
0.00271234
0.00271124
0.00271093
0.00270985
0.00270961
0.00270848
0.00271069
0.00257825
0.0027273
0.0027417
0.00273991
0.00273671
0.00273488
0.00273189
0.00273013
0.0027273
0.00272578
0.00272327
0.00272202
0.00271986
0.00271883
0.00271696
0.00271611
0.00271447
0.00271382
0.00271222
0.0027157
0.0030553
0.0030446
0.00298626
0.00294208
0.00292156
0.00291338
0.0029052
0.00290206
0.00289703
0.00289515
0.00289147
0.00289021
0.00288735
0.00288645
0.0028841
0.00288341
0.00288131
0.00288098
0.00287936
0.00288524
0.00488586
0.00465467
0.00449775
0.00443622
0.00441393
0.00440806
0.00440066
0.00440002
0.00439695
0.0043969
0.00439467
0.00439482
0.00439308
0.00439328
0.00439185
0.00439203
0.00439097
0.00439067
0.00439673
0.0043999
0.0100884
0.0103608
0.0103591
0.0103595
0.0103575
0.0103575
0.0103562
0.0103563
0.0103551
0.0103552
0.0103543
0.0103545
0.0103538
0.010354
0.0103536
0.0103538
0.0103537
0.0103534
0.0103566
0.0103638
0.0028311
0.0030191
0.00298919
0.00295467
0.0029488
0.00293522
0.00293524
0.00292729
0.00292819
0.00292264
0.00292358
0.00291949
0.00292024
0.00291712
0.00291764
0.00291522
0.00291559
0.00291346
0.00291305
0.00291887
0.00233765
0.00269471
0.0027325
0.00272657
0.00271929
0.00271247
0.00270863
0.00270465
0.0027025
0.00269989
0.00269847
0.00269657
0.00269546
0.00269401
0.00269306
0.00269203
0.00269086
0.00269088
0.00268796
0.00269226
0.00217041
0.0025502
0.00260939
0.0026238
0.00262766
0.00263044
0.00263044
0.00263119
0.00263066
0.0026309
0.00263029
0.00263038
0.00262983
0.00262978
0.00262918
0.00262913
0.00262834
0.00262857
0.00262674
0.00263345
0.00215036
0.00253211
0.0025886
0.00260128
0.0026045
0.00260816
0.00260947
0.00261174
0.00261245
0.00261393
0.00261438
0.00261538
0.00261574
0.00261641
0.00261664
0.00261712
0.00261709
0.00261752
0.00261715
0.00261936
0.00214024
0.00252231
0.00257815
0.00258952
0.00259031
0.00259248
0.00259246
0.00259416
0.0025944
0.00259588
0.00259623
0.00259748
0.00259788
0.00259892
0.00259935
0.00260013
0.00260055
0.00260115
0.00260135
0.00260435
0.00214487
0.00252734
0.00258285
0.00259393
0.00259418
0.00259558
0.00259489
0.00259573
0.0025954
0.00259621
0.00259614
0.00259692
0.00259703
0.00259774
0.00259795
0.00259851
0.00259887
0.00259921
0.00259946
0.00260137
0.00214147
0.00252365
0.00257903
0.00259017
0.00259023
0.00259157
0.00259063
0.00259129
0.00259066
0.00259123
0.00259084
0.00259137
0.00259117
0.00259168
0.00259161
0.00259203
0.0025921
0.0025924
0.0025926
0.00259437
0.00214451
0.00252694
0.00258207
0.00259318
0.00259322
0.00259459
0.00259364
0.00259429
0.0025936
0.00259412
0.00259364
0.00259409
0.00259375
0.00259416
0.00259392
0.00259424
0.00259414
0.00259433
0.00259438
0.00259593
0.00214296
0.00252511
0.00258021
0.00259125
0.00259127
0.00259263
0.00259168
0.00259235
0.00259166
0.00259218
0.0025917
0.00259214
0.00259179
0.00259217
0.00259188
0.00259218
0.00259201
0.0025922
0.00259215
0.00259364
0.00214412
0.00252628
0.00258129
0.00259229
0.00259229
0.00259365
0.00259269
0.00259336
0.00259267
0.0025932
0.00259272
0.00259316
0.00259281
0.00259319
0.00259289
0.00259318
0.00259298
0.00259316
0.0025931
0.00259457
0.00214412
0.00252628
0.00258129
0.00259229
0.00259229
0.00259365
0.00259269
0.00259336
0.00259267
0.0025932
0.00259272
0.00259316
0.00259281
0.00259319
0.00259289
0.00259318
0.00259298
0.00259317
0.0025931
0.00259457
0.00214296
0.00252511
0.00258021
0.00259125
0.00259127
0.00259263
0.00259168
0.00259235
0.00259166
0.00259218
0.0025917
0.00259214
0.00259179
0.00259217
0.00259188
0.00259218
0.00259201
0.0025922
0.00259215
0.00259366
0.00214451
0.00252694
0.00258207
0.00259318
0.00259322
0.00259459
0.00259364
0.00259429
0.0025936
0.00259412
0.00259364
0.00259409
0.00259376
0.00259416
0.00259392
0.00259424
0.00259414
0.00259434
0.00259435
0.00259594
0.00214147
0.00252365
0.00257903
0.00259017
0.00259023
0.00259156
0.00259063
0.00259129
0.00259066
0.00259123
0.00259084
0.00259137
0.00259118
0.00259168
0.00259161
0.00259203
0.0025921
0.0025924
0.00259262
0.00259439
0.00214487
0.00252734
0.00258285
0.00259393
0.00259418
0.00259558
0.00259489
0.00259572
0.0025954
0.00259621
0.00259614
0.00259692
0.00259704
0.00259774
0.00259797
0.0025985
0.00259885
0.0025992
0.0025995
0.00260127
0.00214024
0.00252231
0.00257815
0.00258952
0.00259031
0.00259248
0.00259246
0.00259415
0.0025944
0.00259588
0.00259624
0.00259747
0.0025979
0.00259891
0.00259933
0.00260013
0.00260054
0.00260108
0.00260152
0.00260409
0.00215036
0.00253211
0.0025886
0.00260128
0.00260451
0.00260816
0.00260947
0.00261174
0.00261246
0.00261392
0.00261439
0.00261537
0.00261575
0.00261639
0.00261665
0.00261704
0.00261718
0.00261731
0.00261738
0.0026188
0.00217041
0.0025502
0.00260939
0.00262379
0.00262766
0.00263044
0.00263044
0.00263119
0.00263066
0.00263089
0.0026303
0.00263037
0.00262985
0.00262975
0.00262924
0.00262902
0.00262856
0.00262823
0.00262739
0.00263215
0.00233765
0.00269471
0.0027325
0.00272657
0.00271929
0.00271246
0.00270863
0.00270465
0.0027025
0.00269989
0.00269848
0.00269655
0.00269549
0.00269398
0.00269313
0.00269193
0.00269106
0.00269052
0.00268877
0.00269044
0.0028311
0.0030191
0.00298919
0.00295467
0.0029488
0.00293522
0.00293524
0.00292729
0.00292819
0.00292264
0.00292359
0.00291948
0.00292025
0.00291711
0.00291767
0.0029152
0.00291567
0.00291339
0.00291344
0.00291755
0.00108529
0.00122684
0.00113707
0.00101738
0.000942529
0.000900578
0.000870727
0.000849499
0.000831576
0.000816802
0.000804405
0.000793315
0.000784426
0.000775897
0.000769197
0.000762819
0.000756836
0.00075342
0.000745199
0.000749358
0.000443838
0.000709179
0.000778422
0.000790546
0.000789601
0.000786103
0.000779108
0.000772117
0.000764993
0.000758469
0.000752161
0.000746414
0.000740891
0.000736041
0.000731106
0.000727411
0.000722494
0.000720708
0.000714337
0.000716349
0.000192955
0.00043839
0.000530705
0.000570385
0.000587141
0.000600991
0.000609479
0.000618652
0.000624624
0.000630944
0.000634862
0.000638948
0.00064121
0.000643684
0.000644643
0.000646161
0.000646156
0.000647186
0.000646194
0.000648174
0.000177304
0.000399991
0.000484798
0.000524422
0.000539253
0.000548947
0.000553021
0.000557998
0.000561102
0.000565327
0.000568629
0.000572543
0.00057589
0.000579402
0.000582518
0.000585511
0.000588321
0.000590673
0.000593127
0.00059566
0.000173384
0.000390426
0.000470524
0.000510189
0.000524241
0.000533277
0.000535334
0.000538078
0.000538562
0.000539861
0.000540435
0.000541718
0.000542669
0.000544069
0.000545474
0.000546783
0.000548583
0.000549724
0.000551569
0.000553242
0.000177022
0.000396807
0.000476552
0.000515078
0.000529332
0.00053779
0.000539993
0.000542097
0.000542292
0.000542814
0.00054286
0.000543091
0.00054327
0.000543533
0.000543974
0.000544259
0.000544901
0.000545173
0.000545841
0.000546897
0.00017452
0.000392496
0.000472189
0.000511073
0.000525077
0.000533675
0.00053568
0.000537833
0.000537918
0.00053829
0.000538176
0.000538282
0.000538228
0.000538278
0.000538276
0.000538296
0.00053839
0.000538431
0.000538544
0.00053922
0.000176583
0.000396229
0.000476034
0.000514416
0.000528483
0.000536833
0.00053897
0.000541014
0.000541156
0.000541539
0.000541464
0.000541535
0.000541497
0.000541485
0.000541486
0.000541435
0.000541498
0.000541456
0.000541542
0.000542092
0.000175331
0.000393974
0.000473745
0.00051234
0.000526304
0.000534748
0.000536794
0.000538893
0.00053901
0.0005394
0.000539313
0.000539406
0.00053936
0.000539377
0.000539344
0.000539307
0.000539334
0.000539305
0.000539308
0.000539837
0.000176031
0.000395266
0.000475091
0.000513515
0.000527483
0.000535835
0.00053791
0.000539966
0.000540097
0.000540488
0.000540415
0.000540504
0.000540474
0.000540481
0.00054047
0.000540427
0.000540465
0.000540425
0.000540458
0.000540971
0.000176031
0.000395266
0.000475091
0.000513516
0.000527483
0.000535835
0.00053791
0.000539966
0.000540097
0.000540488
0.000540415
0.000540504
0.000540474
0.000540482
0.00054047
0.000540428
0.000540466
0.000540428
0.00054046
0.000540976
0.000175331
0.000393974
0.000473745
0.00051234
0.000526304
0.000534748
0.000536794
0.000538893
0.00053901
0.0005394
0.000539312
0.000539406
0.00053936
0.000539376
0.000539344
0.000539306
0.000539333
0.000539302
0.000539304
0.000539833
0.000176583
0.000396229
0.000476034
0.000514417
0.000528483
0.000536833
0.000538969
0.000541014
0.000541156
0.000541539
0.000541464
0.000541535
0.000541496
0.000541487
0.000541486
0.000541437
0.000541497
0.000541461
0.000541541
0.000542099
0.00017452
0.000392496
0.000472189
0.000511074
0.000525077
0.000533675
0.00053568
0.000537833
0.000537918
0.00053829
0.000538175
0.000538282
0.000538227
0.000538279
0.000538274
0.000538298
0.000538385
0.00053843
0.000538531
0.000539218
0.000177022
0.000396807
0.000476552
0.000515078
0.000529332
0.00053779
0.000539993
0.000542097
0.000542292
0.000542814
0.00054286
0.000543093
0.00054327
0.000543536
0.000543968
0.000544259
0.000544886
0.000545174
0.000545819
0.000546889
0.000173384
0.000390426
0.000470524
0.000510189
0.000524241
0.000533277
0.000535334
0.000538078
0.000538564
0.000539859
0.000540436
0.00054172
0.000542661
0.000544075
0.000545457
0.000546786
0.000548557
0.000549699
0.000551521
0.000553177
0.000177304
0.000399991
0.000484798
0.000524422
0.000539253
0.000548947
0.000553021
0.000557998
0.000561103
0.000565326
0.00056863
0.000572538
0.00057589
0.000579388
0.00058252
0.000585464
0.000588324
0.000590571
0.000593081
0.000595442
0.000192955
0.00043839
0.000530705
0.000570385
0.000587141
0.00060099
0.000609479
0.000618651
0.000624625
0.000630939
0.000634866
0.000638936
0.00064122
0.000643648
0.000644676
0.000646054
0.000646265
0.000646914
0.000646375
0.000647637
0.000443838
0.000709179
0.000778422
0.000790545
0.000789602
0.000786102
0.000779109
0.000772117
0.000764994
0.000758466
0.000752164
0.000746407
0.000740904
0.000736021
0.000731152
0.00072734
0.000722673
0.000720334
0.000715035
0.000715304
0.00108529
0.00122684
0.00113707
0.00101738
0.00094253
0.000900579
0.000870728
0.000849501
0.000831579
0.000816807
0.00080441
0.000793331
0.000784443
0.00077594
0.000769255
0.00076291
0.000757057
0.000753516
0.000746123
0.000748709
0.00108529
0.00122684
0.00113707
0.00101738
0.000942529
0.000900578
0.000870727
0.000849499
0.000831576
0.000816802
0.000804405
0.000793315
0.000784426
0.000775896
0.000769197
0.000762819
0.000756836
0.00075342
0.000745199
0.000749358
0.000443838
0.000709179
0.000778422
0.000790546
0.000789601
0.000786103
0.000779108
0.000772117
0.000764993
0.000758469
0.000752161
0.000746414
0.000740891
0.000736041
0.000731106
0.000727411
0.000722494
0.000720708
0.000714337
0.000716349
0.000192955
0.000438391
0.000530706
0.000570385
0.000587141
0.000600991
0.000609479
0.000618652
0.000624624
0.000630944
0.000634862
0.000638948
0.000641211
0.000643684
0.000644643
0.000646161
0.000646156
0.000647186
0.000646194
0.000648174
0.000177304
0.000399991
0.000484798
0.000524422
0.000539254
0.000548947
0.000553022
0.000557998
0.000561103
0.000565327
0.000568629
0.000572543
0.000575891
0.000579402
0.000582518
0.000585511
0.000588321
0.000590673
0.000593127
0.00059566
0.000173384
0.000390426
0.000470524
0.000510189
0.000524241
0.000533277
0.000535334
0.000538079
0.000538562
0.000539861
0.000540435
0.000541718
0.000542669
0.000544069
0.000545474
0.000546783
0.000548583
0.000549724
0.000551569
0.000553242
0.000177022
0.000396807
0.000476552
0.000515078
0.000529332
0.00053779
0.000539993
0.000542097
0.000542292
0.000542814
0.00054286
0.000543091
0.00054327
0.000543533
0.000543974
0.000544259
0.000544901
0.000545173
0.000545842
0.000546897
0.00017452
0.000392496
0.000472189
0.000511073
0.000525077
0.000533675
0.00053568
0.000537833
0.000537918
0.00053829
0.000538176
0.000538282
0.000538228
0.000538278
0.000538276
0.000538297
0.00053839
0.000538431
0.000538545
0.00053922
0.000176583
0.000396229
0.000476034
0.000514417
0.000528483
0.000536833
0.00053897
0.000541014
0.000541156
0.000541539
0.000541464
0.000541535
0.000541497
0.000541485
0.000541486
0.000541435
0.000541498
0.000541456
0.000541542
0.000542092
0.000175331
0.000393974
0.000473745
0.00051234
0.000526304
0.000534748
0.000536794
0.000538893
0.00053901
0.0005394
0.000539313
0.000539406
0.00053936
0.000539377
0.000539344
0.000539307
0.000539334
0.000539305
0.000539308
0.000539837
0.000176032
0.000395267
0.000475091
0.000513516
0.000527484
0.000535835
0.00053791
0.000539966
0.000540098
0.000540488
0.000540415
0.000540504
0.000540475
0.000540481
0.00054047
0.000540427
0.000540465
0.000540425
0.000540458
0.000540971
0.000176032
0.000395267
0.000475091
0.000513516
0.000527483
0.000535835
0.00053791
0.000539966
0.000540098
0.000540488
0.000540415
0.000540505
0.000540475
0.000540482
0.00054047
0.000540428
0.000540466
0.000540428
0.00054046
0.000540976
0.000175331
0.000393974
0.000473745
0.00051234
0.000526304
0.000534748
0.000536794
0.000538893
0.00053901
0.0005394
0.000539313
0.000539407
0.00053936
0.000539376
0.000539344
0.000539306
0.000539333
0.000539302
0.000539305
0.000539833
0.000176583
0.000396229
0.000476034
0.000514417
0.000528483
0.000536833
0.00053897
0.000541014
0.000541156
0.000541539
0.000541464
0.000541535
0.000541497
0.000541487
0.000541486
0.000541438
0.000541497
0.000541462
0.000541541
0.000542099
0.00017452
0.000392496
0.000472189
0.000511074
0.000525077
0.000533676
0.00053568
0.000537834
0.000537918
0.00053829
0.000538176
0.000538282
0.000538227
0.000538279
0.000538274
0.000538298
0.000538385
0.000538431
0.000538532
0.000539218
0.000177022
0.000396807
0.000476552
0.000515078
0.000529332
0.00053779
0.000539993
0.000542097
0.000542293
0.000542814
0.00054286
0.000543093
0.00054327
0.000543536
0.000543968
0.000544259
0.000544886
0.000545174
0.00054582
0.00054689
0.000173384
0.000390426
0.000470524
0.00051019
0.000524241
0.000533277
0.000535334
0.000538078
0.000538564
0.00053986
0.000540437
0.00054172
0.000542661
0.000544075
0.000545457
0.000546786
0.000548557
0.000549699
0.000551522
0.000553177
0.000177304
0.000399991
0.000484798
0.000524422
0.000539253
0.000548947
0.000553022
0.000557998
0.000561103
0.000565326
0.00056863
0.000572539
0.000575891
0.000579388
0.000582521
0.000585464
0.000588324
0.000590571
0.000593081
0.000595442
0.000192955
0.000438391
0.000530706
0.000570385
0.000587142
0.00060099
0.000609479
0.000618651
0.000624625
0.000630939
0.000634866
0.000638936
0.00064122
0.000643648
0.000644677
0.000646054
0.000646265
0.000646914
0.000646375
0.000647637
0.000443838
0.000709179
0.000778422
0.000790545
0.000789602
0.000786102
0.000779109
0.000772117
0.000764994
0.000758466
0.000752164
0.000746407
0.000740904
0.000736021
0.000731152
0.00072734
0.000722673
0.000720334
0.000715035
0.000715304
0.00108529
0.00122684
0.00113707
0.00101738
0.00094253
0.000900579
0.000870728
0.000849501
0.000831579
0.000816808
0.000804411
0.000793331
0.000784444
0.00077594
0.000769255
0.00076291
0.000757057
0.000753516
0.000746123
0.000748709
0.0028311
0.0030191
0.00298919
0.00295467
0.0029488
0.00293522
0.00293524
0.00292729
0.00292819
0.00292264
0.00292358
0.00291949
0.00292024
0.00291712
0.00291764
0.00291522
0.00291559
0.00291346
0.00291305
0.00291887
0.00233765
0.00269471
0.0027325
0.00272657
0.00271929
0.00271247
0.00270863
0.00270465
0.0027025
0.00269989
0.00269847
0.00269657
0.00269546
0.00269401
0.00269306
0.00269203
0.00269086
0.00269088
0.00268796
0.00269226
0.00217041
0.0025502
0.00260939
0.0026238
0.00262766
0.00263044
0.00263044
0.00263119
0.00263066
0.0026309
0.00263029
0.00263038
0.00262983
0.00262978
0.00262918
0.00262913
0.00262834
0.00262857
0.00262674
0.00263345
0.00215036
0.00253211
0.0025886
0.00260128
0.0026045
0.00260816
0.00260947
0.00261174
0.00261245
0.00261393
0.00261438
0.00261538
0.00261574
0.00261641
0.00261664
0.00261712
0.00261709
0.00261752
0.00261715
0.00261936
0.00214024
0.00252231
0.00257815
0.00258952
0.00259031
0.00259248
0.00259246
0.00259416
0.0025944
0.00259588
0.00259623
0.00259748
0.00259788
0.00259892
0.00259935
0.00260013
0.00260055
0.00260115
0.00260135
0.00260435
0.00214487
0.00252734
0.00258285
0.00259393
0.00259418
0.00259558
0.00259489
0.00259573
0.0025954
0.00259621
0.00259614
0.00259692
0.00259703
0.00259774
0.00259795
0.00259851
0.00259887
0.00259921
0.00259946
0.00260137
0.00214147
0.00252365
0.00257903
0.00259017
0.00259023
0.00259156
0.00259063
0.00259129
0.00259066
0.00259123
0.00259084
0.00259137
0.00259117
0.00259168
0.00259161
0.00259203
0.0025921
0.0025924
0.0025926
0.00259437
0.00214451
0.00252694
0.00258207
0.00259318
0.00259322
0.00259459
0.00259364
0.00259429
0.0025936
0.00259412
0.00259364
0.00259409
0.00259375
0.00259416
0.00259392
0.00259424
0.00259414
0.00259433
0.00259438
0.00259593
0.00214296
0.00252511
0.00258021
0.00259125
0.00259127
0.00259263
0.00259168
0.00259235
0.00259166
0.00259218
0.0025917
0.00259214
0.00259179
0.00259217
0.00259188
0.00259218
0.00259201
0.0025922
0.00259215
0.00259364
0.00214412
0.00252628
0.00258129
0.00259229
0.00259229
0.00259365
0.00259269
0.00259336
0.00259267
0.0025932
0.00259272
0.00259316
0.00259281
0.00259319
0.00259289
0.00259318
0.00259298
0.00259316
0.0025931
0.00259457
0.00214412
0.00252628
0.00258129
0.00259229
0.00259229
0.00259365
0.00259269
0.00259336
0.00259267
0.0025932
0.00259272
0.00259316
0.00259281
0.00259319
0.00259289
0.00259318
0.00259298
0.00259317
0.0025931
0.00259457
0.00214296
0.00252511
0.00258021
0.00259125
0.00259127
0.00259263
0.00259168
0.00259235
0.00259166
0.00259218
0.0025917
0.00259214
0.00259179
0.00259217
0.00259188
0.00259218
0.002592
0.0025922
0.00259215
0.00259366
0.00214451
0.00252694
0.00258207
0.00259318
0.00259322
0.00259459
0.00259364
0.00259429
0.0025936
0.00259412
0.00259364
0.00259409
0.00259376
0.00259416
0.00259392
0.00259424
0.00259414
0.00259434
0.00259435
0.00259594
0.00214147
0.00252365
0.00257903
0.00259017
0.00259023
0.00259156
0.00259063
0.00259129
0.00259066
0.00259123
0.00259084
0.00259137
0.00259118
0.00259167
0.00259161
0.00259203
0.0025921
0.0025924
0.00259262
0.00259439
0.00214487
0.00252734
0.00258285
0.00259393
0.00259418
0.00259558
0.00259489
0.00259572
0.0025954
0.00259621
0.00259614
0.00259692
0.00259704
0.00259773
0.00259797
0.0025985
0.00259885
0.0025992
0.0025995
0.00260127
0.00214024
0.00252231
0.00257815
0.00258952
0.00259031
0.00259248
0.00259246
0.00259415
0.0025944
0.00259588
0.00259624
0.00259747
0.0025979
0.00259891
0.00259933
0.00260013
0.00260054
0.00260108
0.00260152
0.00260409
0.00215036
0.00253211
0.0025886
0.00260128
0.00260451
0.00260816
0.00260947
0.00261174
0.00261245
0.00261392
0.00261439
0.00261537
0.00261575
0.00261639
0.00261665
0.00261704
0.00261718
0.00261731
0.00261738
0.0026188
0.00217041
0.0025502
0.00260939
0.0026238
0.00262766
0.00263044
0.00263044
0.00263119
0.00263066
0.00263089
0.0026303
0.00263037
0.00262985
0.00262975
0.00262924
0.00262902
0.00262856
0.00262823
0.00262739
0.00263215
0.00233765
0.00269471
0.0027325
0.00272657
0.00271929
0.00271246
0.00270863
0.00270465
0.0027025
0.00269989
0.00269848
0.00269655
0.00269549
0.00269398
0.00269313
0.00269193
0.00269106
0.00269052
0.00268877
0.00269044
0.0028311
0.0030191
0.00298919
0.00295467
0.0029488
0.00293522
0.00293524
0.00292729
0.00292819
0.00292264
0.00292359
0.00291948
0.00292025
0.00291711
0.00291767
0.0029152
0.00291567
0.00291339
0.00291344
0.00291755
0.0100884
0.0103608
0.0103591
0.0103595
0.0103575
0.0103575
0.0103562
0.0103563
0.0103551
0.0103552
0.0103543
0.0103544
0.0103539
0.010354
0.0103537
0.0103537
0.0103539
0.0103531
0.0103574
0.0103618
0.00488586
0.00465467
0.00449775
0.00443623
0.00441393
0.00440806
0.00440066
0.00440002
0.00439694
0.0043969
0.00439467
0.00439482
0.00439307
0.00439329
0.00439184
0.00439205
0.00439094
0.00439077
0.00439673
0.00440087
0.0030553
0.0030446
0.00298626
0.00294208
0.00292156
0.00291338
0.0029052
0.00290206
0.00289702
0.00289515
0.00289147
0.00289022
0.00288734
0.00288647
0.00288408
0.00288346
0.00288125
0.00288109
0.00287902
0.0028862
0.00257825
0.00272729
0.0027417
0.00273991
0.00273671
0.00273488
0.00273188
0.00273013
0.0027273
0.00272579
0.00272327
0.00272202
0.00271987
0.00271883
0.00271697
0.00271612
0.00271445
0.00271385
0.00271193
0.00271645
0.00246868
0.00266662
0.00270163
0.00271187
0.00271368
0.00271605
0.00271572
0.00271609
0.00271527
0.00271514
0.00271412
0.00271382
0.00271264
0.00271237
0.0027112
0.00271099
0.00270977
0.00270969
0.00270822
0.00271099
0.0024537
0.00265863
0.00269823
0.00271161
0.00271517
0.00271948
0.00272034
0.00272232
0.00272256
0.00272363
0.0027235
0.00272416
0.0027238
0.00272425
0.00272377
0.0027241
0.00272349
0.00272377
0.0027231
0.00272514
0.00244903
0.00265434
0.00269454
0.00270867
0.00271303
0.00271824
0.0027199
0.002723
0.00272401
0.00272612
0.00272676
0.00272823
0.00272863
0.00272977
0.00273001
0.00273093
0.002731
0.0027317
0.00273164
0.00273388
0.00245132
0.00265475
0.0026948
0.00270904
0.00271381
0.0027195
0.00272164
0.00272543
0.00272697
0.00272984
0.00273102
0.00273325
0.00273417
0.00273594
0.00273672
0.00273816
0.0027388
0.0027399
0.00274056
0.00274274
0.00245083
0.00265349
0.00269323
0.00270729
0.00271207
0.00271786
0.00272017
0.00272421
0.002726
0.00272924
0.00273072
0.00273339
0.00273465
0.00273689
0.00273802
0.00273991
0.00274092
0.00274243
0.00274343
0.002746
0.00245189
0.0026538
0.00269338
0.00270738
0.00271218
0.00271801
0.00272037
0.00272449
0.00272637
0.00272975
0.00273137
0.00273422
0.00273564
0.00273809
0.0027394
0.0027415
0.00274273
0.00274438
0.00274569
0.00274828
0.00245189
0.0026538
0.00269338
0.00270738
0.00271218
0.00271801
0.00272037
0.00272449
0.00272637
0.00272975
0.00273137
0.00273422
0.00273564
0.00273809
0.0027394
0.0027415
0.00274273
0.00274439
0.00274569
0.0027483
0.00245083
0.00265349
0.00269323
0.00270729
0.00271207
0.00271786
0.00272017
0.00272421
0.002726
0.00272924
0.00273072
0.00273339
0.00273465
0.00273689
0.00273802
0.00273991
0.00274092
0.00274244
0.00274344
0.00274604
0.00245132
0.00265475
0.0026948
0.00270904
0.00271381
0.0027195
0.00272165
0.00272543
0.00272697
0.00272984
0.00273102
0.00273325
0.00273417
0.00273594
0.00273673
0.00273817
0.00273881
0.00273991
0.00274057
0.0027428
0.00244903
0.00265434
0.00269454
0.00270867
0.00271303
0.00271824
0.0027199
0.00272299
0.00272401
0.00272612
0.00272676
0.00272822
0.00272863
0.00272977
0.00273002
0.00273092
0.00273102
0.0027317
0.00273169
0.00273392
0.0024537
0.00265863
0.00269823
0.00271161
0.00271517
0.00271948
0.00272034
0.00272232
0.00272256
0.00272362
0.00272351
0.00272415
0.00272381
0.00272423
0.0027238
0.00272407
0.00272354
0.00272374
0.00272322
0.00272505
0.00246868
0.00266663
0.00270163
0.00271187
0.00271368
0.00271605
0.00271572
0.00271608
0.00271527
0.00271514
0.00271413
0.0027138
0.00271266
0.00271234
0.00271124
0.00271093
0.00270985
0.00270961
0.00270848
0.00271069
0.00257825
0.0027273
0.0027417
0.00273991
0.00273671
0.00273488
0.00273189
0.00273013
0.0027273
0.00272578
0.00272327
0.00272202
0.00271986
0.00271883
0.00271696
0.00271611
0.00271447
0.00271382
0.00271222
0.0027157
0.0030553
0.0030446
0.00298626
0.00294208
0.00292156
0.00291338
0.0029052
0.00290206
0.00289703
0.00289515
0.00289147
0.00289021
0.00288735
0.00288645
0.0028841
0.00288341
0.00288131
0.00288098
0.00287936
0.00288524
0.00488586
0.00465467
0.00449775
0.00443622
0.00441393
0.00440806
0.00440066
0.00440002
0.00439695
0.0043969
0.00439467
0.00439482
0.00439308
0.00439328
0.00439185
0.00439203
0.00439097
0.00439067
0.00439673
0.0043999
0.0100884
0.0103608
0.0103591
0.0103595
0.0103575
0.0103575
0.0103562
0.0103563
0.0103551
0.0103552
0.0103543
0.0103545
0.0103538
0.010354
0.0103536
0.0103538
0.0103537
0.0103534
0.0103566
0.0103638
0.0284116
0.0284227
0.0284205
0.0284163
0.0284143
0.0284111
0.0284097
0.0284068
0.0284057
0.0284031
0.028402
0.0283996
0.0283987
0.0283965
0.0283958
0.0283937
0.028393
0.028391
0.0283904
0.0283886
0.0283879
0.0283862
0.0283855
0.0283839
0.0283832
0.0283815
0.0283808
0.0283792
0.0283785
0.0283769
0.0283761
0.0283745
0.0283737
0.0283721
0.0283712
0.0283696
0.0283686
0.028367
0.028366
0.0283643
0.0283633
0.0283616
0.0283605
0.0283589
0.0283577
0.028356
0.0283548
0.0283531
0.0283518
0.0283501
0.0283488
0.0283471
0.0283457
0.028344
0.0283426
0.0283409
0.0283394
0.0283377
0.0283362
0.0283344
0.0283329
0.0283312
0.0283296
0.0283278
0.0283263
0.0283245
0.0283229
0.0283211
0.0283195
0.0283176
0.028316
0.0283142
0.0283125
0.0283107
0.028309
0.0283072
0.0283055
0.0283036
0.0283019
0.0283001
0.0282983
0.0282965
0.0282947
0.0282929
0.0282911
0.0282893
0.0282875
0.0282856
0.0282829
0.0282806
0.0160865
0.0161512
0.0161474
0.016146
0.0161428
0.0161416
0.016139
0.016138
0.0161361
0.0161353
0.0161338
0.0161329
0.0161313
0.0161303
0.016129
0.0161281
0.016127
0.0161261
0.016125
0.016124
0.016123
0.0161221
0.0161212
0.0161204
0.0161195
0.0161188
0.0161179
0.0161171
0.0161163
0.0161155
0.0161147
0.0161139
0.0161131
0.0161124
0.0161116
0.0161108
0.01611
0.0161093
0.0161085
0.0161077
0.0161069
0.0161061
0.0161053
0.0161045
0.0161037
0.0161028
0.016102
0.0161012
0.0161003
0.0160994
0.0160986
0.0160977
0.0160968
0.016096
0.0160951
0.0160942
0.0160933
0.0160924
0.0160915
0.0160906
0.0160896
0.0160887
0.0160878
0.0160869
0.0160859
0.016085
0.016084
0.0160831
0.0160821
0.0160812
0.0160802
0.0160793
0.0160783
0.0160773
0.0160763
0.0160754
0.0160744
0.0160734
0.0160724
0.0160714
0.0160704
0.0160694
0.0160684
0.0160674
0.0160664
0.0160654
0.0160643
0.0160633
0.0160609
0.0160597
0.0107923
0.0109349
0.0109274
0.0109268
0.0109202
0.0109202
0.010915
0.0109151
0.0109111
0.0109115
0.0109083
0.0109083
0.0109052
0.010905
0.0109023
0.0109022
0.0108999
0.0108997
0.0108974
0.0108971
0.010895
0.0108947
0.0108929
0.0108927
0.010891
0.0108907
0.0108892
0.0108888
0.0108874
0.010887
0.0108856
0.0108853
0.0108841
0.0108837
0.0108825
0.0108822
0.0108811
0.0108808
0.0108797
0.0108793
0.0108782
0.0108779
0.0108768
0.0108764
0.0108754
0.010875
0.010874
0.0108736
0.0108726
0.0108722
0.0108712
0.0108708
0.0108698
0.0108694
0.0108685
0.010868
0.0108671
0.0108666
0.0108657
0.0108652
0.0108644
0.0108639
0.010863
0.0108625
0.0108617
0.0108612
0.0108603
0.0108598
0.010859
0.0108585
0.0108577
0.0108571