/*--------------------------------*- C++ -*----------------------------------*\
  =========                 |
  \\      /  F ield         | OpenFOAM: The Open Source CFD Toolbox
   \\    /   O peration     | Website:  https://openfoam.org
    \\  /    A nd           | Version:  7
     \\/     M anipulation  |
\*---------------------------------------------------------------------------*/
FoamFile
{
    version     2.0;
    format      ascii;
    class       volScalarField;
    location    "0.0125";
    object      k_0;
}
// * * * * * * * * * * * * * * * * * * * * * * * * * * * * * * * * * * * * * //

dimensions      [0 2 -2 0 0 0 0];

internalField   nonuniform List<scalar> 
1440
(
0.0968715
0.522217
1.32848
2.32684
3.31913
4.15888
4.80085
5.25193
5.52408
5.66354
5.6588
5.61634
5.51955
5.38059
5.22164
5.05542
4.8916
4.73533
4.59224
4.46931
4.37179
4.30098
4.25476
4.22875
4.21786
4.21696
4.21895
4.22647
4.23885
4.25162
4.26277
4.27097
4.27742
4.28309
4.28856
4.29411
4.29993
4.30605
4.31245
4.31904
4.32577
4.33257
4.33938
4.34619
4.35298
4.35973
4.36644
4.3731
4.37972
4.38628
4.3928
4.39926
4.40569
4.41205
4.41836
4.42461
4.43082
4.43697
4.44307
4.44911
4.4551
4.46104
4.46691
4.47272
4.47848
4.48418
4.48983
4.49541
4.50093
4.5064
4.5118
4.51714
4.52241
4.52763
4.53279
4.53788
4.5429
4.54787
4.55276
4.55759
4.56235
4.56706
4.57169
4.57626
4.58076
4.58518
4.58955
4.59384
4.59807
4.60223
4.60632
4.61033
4.61428
4.61815
4.62196
4.6257
4.62935
4.63295
4.63646
4.63992
4.64327
4.64658
4.64979
4.65297
4.65602
4.65903
4.66196
4.6648
4.66763
4.67026
4.67298
4.67543
4.67798
4.6804
4.68258
4.68528
4.68685
4.68998
4.69128
4.69442
0.000238958
0.00491434
0.0246219
0.0733837
0.174221
0.322584
0.493638
0.675796
0.854464
1.0213
1.16517
1.28291
1.36606
1.42952
1.47656
1.51188
1.54272
1.55286
1.55088
1.54255
1.52321
1.49046
1.45226
1.41086
1.36673
1.32359
1.28496
1.25119
1.22215
1.19756
1.17849
1.1662
1.1592
1.15543
1.15337
1.1521
1.15137
1.15118
1.1512
1.15139
1.15202
1.15299
1.15397
1.15499
1.15605
1.15714
1.15827
1.15942
1.16059
1.16179
1.16301
1.16424
1.16549
1.16675
1.16802
1.16931
1.17061
1.17192
1.17325
1.17458
1.17592
1.17728
1.17864
1.18002
1.1814
1.18279
1.18419
1.18561
1.18702
1.18845
1.18989
1.19133
1.19278
1.19424
1.19571
1.19718
1.19866
1.20014
1.20163
1.20313
1.20463
1.20613
1.20764
1.20916
1.21068
1.2122
1.21373
1.21526
1.2168
1.21834
1.21987
1.22142
1.22295
1.22452
1.22605
1.22763
1.22914
1.23074
1.23224
1.23387
1.23531
1.23702
1.2384
1.24013
1.24152
1.2432
1.24466
1.24625
1.24784
1.24921
1.25106
1.25217
1.25412
1.25525
1.25714
1.25828
1.25991
1.26171
1.26273
1.26554
2.01799e-05
3.31468e-05
0.000142057
0.000611275
0.00206967
0.00577468
0.0117231
0.0224847
0.0392762
0.0559571
0.0760089
0.102404
0.129414
0.152226
0.16829
0.184894
0.209149
0.231214
0.244468
0.254924
0.259129
0.258716
0.25669
0.252041
0.24519
0.236606
0.2261
0.214253
0.200689
0.184933
0.168044
0.152087
0.138345
0.127315
0.119013
0.113135
0.109219
0.106772
0.105355
0.104634
0.10434
0.104267
0.104284
0.104512
0.104981
0.105426
0.105869
0.106322
0.106787
0.107264
0.107752
0.10825
0.108756
0.10927
0.109789
0.110314
0.110844
0.11138
0.11192
0.112465
0.113013
0.113566
0.114123
0.114683
0.115247
0.115815
0.116386
0.116961
0.117539
0.11812
0.118705
0.119293
0.119883
0.120477
0.121074
0.121672
0.122273
0.122878
0.123485
0.124093
0.124704
0.125317
0.125933
0.126548
0.12717
0.127787
0.128413
0.129034
0.129658
0.130292
0.130904
0.131558
0.132155
0.132822
0.133418
0.134087
0.134677
0.135372
0.135914
0.136679
0.137155
0.137957
0.13844
0.139203
0.139732
0.140453
0.141037
0.141654
0.142397
0.142841
0.143689
0.144131
0.14489
0.145442
0.146074
0.146774
0.147224
0.148048
0.148463
0.149486
2.00146e-05
2.01299e-05
2.06899e-05
2.34066e-05
3.42927e-05
6.94701e-05
0.000152554
0.000332169
0.000755203
0.00134374
0.00198471
0.00323526
0.00522012
0.00731577
0.00875898
0.00983641
0.0119924
0.0159966
0.0188051
0.0202529
0.021572
0.0226577
0.0228413
0.0227236
0.0223514
0.0216329
0.0206015
0.0190311
0.0168854
0.0143637
0.0117768
0.00939033
0.00736303
0.00575487
0.00455229
0.00369787
0.00311707
0.00273748
0.00249876
0.00235527
0.00227418
0.00223373
0.00221804
0.00221488
0.00221597
0.00222636
0.0022476
0.00226838
0.00228954
0.00231138
0.00233399
0.00235728
0.00238113
0.0024055
0.00243026
0.00245539
0.00248084
0.00250665
0.00253279
0.00255923
0.00258589
0.00261281
0.00264007
0.00266754
0.00269525
0.00272325
0.00275151
0.00278001
0.00280868
0.00283761
0.00286685
0.00289629
0.0029259
0.00295578
0.00298591
0.00301617
0.00304661
0.00307734
0.0031083
0.00313933
0.00317061
0.00320197
0.00323371
0.0032653
0.00329759
0.00332931
0.0033619
0.00339408
0.00342651
0.00345991
0.00349128
0.00352639
0.00355659
0.00359269
0.00362316
0.00365926
0.00368947
0.00372765
0.0037542
0.00379758
0.00382012
0.00386487
0.00388938
0.00393089
0.00395856
0.00399688
0.00403039
0.00405913
0.00410358
0.00412552
0.00417035
0.00419364
0.00423882
0.00426104
0.00430424
0.00433051
0.00436583
0.00440521
0.0044251
0.00447831
2.00033e-05
2.00656e-05
2.02398e-05
2.05968e-05
2.11703e-05
2.20636e-05
2.33543e-05
2.56922e-05
3.1275e-05
4.05916e-05
5.19493e-05
7.24726e-05
0.00012033
0.000188847
0.000237764
0.000272281
0.000328737
0.000491163
0.000664424
0.000736427
0.000800287
0.000860544
0.000871844
0.000865916
0.000846392
0.000813006
0.000756308
0.000667296
0.000560159
0.000457541
0.00037452
0.000312527
0.000264375
0.00022221
0.000181955
0.000143484
0.000108685
7.94837e-05
5.6795e-05
4.03931e-05
2.92908e-05
2.22079e-05
1.79235e-05
1.54693e-05
1.41701e-05
1.35794e-05
1.33788e-05
1.33462e-05
1.33575e-05
1.34376e-05
1.36298e-05
1.38236e-05
1.40179e-05
1.42151e-05
1.44154e-05
1.4619e-05
1.48255e-05
1.50355e-05
1.52488e-05
1.54649e-05
1.56832e-05
1.59039e-05
1.6128e-05
1.63542e-05
1.65827e-05
1.68141e-05
1.70481e-05
1.72844e-05
1.75226e-05
1.77634e-05
1.80074e-05
1.82535e-05
1.85014e-05
1.87522e-05
1.90054e-05
1.92602e-05
1.95169e-05
1.97767e-05
2.0039e-05
2.03021e-05
2.05678e-05
2.08345e-05
2.11054e-05
2.13744e-05
2.16513e-05
2.19218e-05
2.2202e-05
2.24776e-05
2.27559e-05
2.30449e-05
2.33116e-05
2.36188e-05
2.38735e-05
2.41903e-05
2.44489e-05
2.47648e-05
2.50216e-05
2.53578e-05
2.55796e-05
2.59632e-05
2.61556e-05
2.65396e-05
2.67583e-05
2.71128e-05
2.73617e-05
2.76748e-05
2.79973e-05
2.82133e-05
2.86175e-05
2.88106e-05
2.9196e-05
2.93882e-05
2.97873e-05
2.99787e-05
3.03641e-05
3.05527e-05
3.09245e-05
3.11666e-05
3.14245e-05
3.18526e-05
1.99943e-05
2.00442e-05
2.02138e-05
2.05272e-05
2.09778e-05
2.17629e-05
2.25772e-05
2.33788e-05
2.4574e-05
2.61284e-05
2.72689e-05
2.82474e-05
2.99956e-05
3.21267e-05
3.35594e-05
3.42687e-05
3.52414e-05
3.83856e-05
4.09586e-05
4.22242e-05
4.38765e-05
4.46819e-05
4.46289e-05
4.42675e-05
4.34068e-05
4.1348e-05
3.9584e-05
3.88407e-05
3.88932e-05
4.06185e-05
5.21931e-05
7.48498e-05
8.99432e-05
9.70591e-05
9.87772e-05
9.80573e-05
9.0433e-05
6.5308e-05
4.30207e-05
2.70184e-05
1.62859e-05
9.49605e-06
5.41619e-06
3.07733e-06
1.7943e-06
1.11977e-06
7.79884e-07
6.16106e-07
5.41182e-07
5.09215e-07
4.96965e-07
4.93112e-07
4.92419e-07
4.9265e-07
4.93739e-07
4.94665e-07
4.95357e-07
4.95811e-07
4.96029e-07
4.96043e-07
4.95796e-07
4.9522e-07
4.94591e-07
4.93915e-07
4.93134e-07
4.92308e-07
4.91406e-07
4.90433e-07
4.89442e-07
4.88357e-07
4.87279e-07
4.86172e-07
4.8501e-07
4.83873e-07
4.82692e-07
4.81499e-07
4.8032e-07
4.79137e-07
4.77927e-07
4.76772e-07
4.75574e-07
4.74397e-07
4.73244e-07
4.72076e-07
4.70965e-07
4.69769e-07
4.68733e-07
4.67519e-07
4.6649e-07
4.65351e-07
4.64261e-07
4.63243e-07
4.62066e-07
4.6114e-07
4.5997e-07
4.5911e-07
4.57853e-07
4.57175e-07
4.55826e-07
4.55222e-07
4.53975e-07
4.53163e-07
4.5235e-07
4.51124e-07
4.50564e-07
4.49416e-07
4.48845e-07
4.47602e-07
4.47092e-07
4.45992e-07
4.45495e-07
4.44341e-07
4.43842e-07
4.42686e-07
4.42231e-07
4.41085e-07
4.4065e-07
4.39358e-07
4.38854e-07
4.37073e-07
1.99943e-05
2.00442e-05
2.0214e-05
2.05279e-05
2.09745e-05
2.17689e-05
2.25655e-05
2.33914e-05
2.45799e-05
2.61156e-05
2.7297e-05
2.82849e-05
2.99977e-05
3.20778e-05
3.34543e-05
3.40898e-05
3.48788e-05
3.73766e-05
3.98494e-05
4.06121e-05
4.15058e-05
4.2629e-05
4.28262e-05
4.26761e-05
4.21997e-05
4.07536e-05
3.92957e-05
3.87171e-05
3.88078e-05
4.06085e-05
5.24106e-05
7.49385e-05
8.99151e-05
9.69878e-05
9.87034e-05
9.79901e-05
9.03918e-05
6.52813e-05
4.2993e-05
2.6992e-05
1.62612e-05
9.47289e-06
5.39419e-06
3.05607e-06
1.77346e-06
1.09909e-06
7.59248e-07
5.95457e-07
5.20467e-07
4.88305e-07
4.75777e-07
4.71654e-07
4.70758e-07
4.70814e-07
4.71435e-07
4.71979e-07
4.72282e-07
4.72396e-07
4.72384e-07
4.72089e-07
4.71197e-07
4.70232e-07
4.69195e-07
4.68099e-07
4.6689e-07
4.65634e-07
4.64299e-07
4.62893e-07
4.6147e-07
4.5995e-07
4.58434e-07
4.56888e-07
4.55287e-07
4.53708e-07
4.52082e-07
4.50445e-07
4.48819e-07
4.47182e-07
4.45513e-07
4.43898e-07
4.42236e-07
4.40591e-07
4.38963e-07
4.37321e-07
4.35718e-07
4.34044e-07
4.32511e-07
4.30811e-07
4.29289e-07
4.2764e-07
4.26081e-07
4.24517e-07
4.22888e-07
4.21401e-07
4.19759e-07
4.18348e-07
4.1662e-07
4.15354e-07
4.13605e-07
4.1232e-07
4.10729e-07
4.09244e-07
4.08027e-07
4.06182e-07
4.05233e-07
4.03429e-07
4.02383e-07
4.00584e-07
3.99629e-07
3.97913e-07
3.96961e-07
3.95103e-07
3.94232e-07
3.92299e-07
3.91481e-07
3.89705e-07
3.88874e-07
3.86689e-07
3.8578e-07
3.83154e-07
2.00033e-05
2.00656e-05
2.02395e-05
2.05984e-05
2.11649e-05
2.20591e-05
2.33714e-05
2.57223e-05
3.11655e-05
4.10714e-05
5.25138e-05
7.26688e-05
0.000119755
0.000185983
0.000232072
0.000262631
0.000309752
0.000441027
0.000608158
0.000682563
0.000711948
0.000770768
0.000811279
0.000813251
0.000805691
0.000783578
0.000749805
0.000678737
0.000574974
0.000468932
0.000379647
0.000311504
0.000258914
0.000214377
0.000173418
0.000135263
0.000101221
7.28477e-05
5.08761e-05
3.50226e-05
2.43058e-05
1.74803e-05
1.33644e-05
1.10182e-05
9.77955e-06
9.20863e-06
9.00447e-06
8.96562e-06
8.9713e-06
9.02377e-06
9.16974e-06
9.32004e-06
9.46759e-06
9.61517e-06
9.76328e-06
9.91195e-06
1.0062e-05
1.02137e-05
1.03675e-05
1.05231e-05
1.06801e-05
1.08393e-05
1.10007e-05
1.1164e-05
1.13289e-05
1.14962e-05
1.16654e-05
1.18363e-05
1.20091e-05
1.21838e-05
1.23609e-05
1.25394e-05
1.27197e-05
1.29019e-05
1.30856e-05
1.32709e-05
1.34576e-05
1.36462e-05
1.38365e-05
1.40274e-05
1.42207e-05
1.44144e-05
1.46116e-05
1.48068e-05
1.50078e-05
1.52046e-05
1.54078e-05
1.56086e-05
1.58096e-05
1.60203e-05
1.62131e-05
1.64378e-05
1.66212e-05
1.68547e-05
1.70386e-05
1.7274e-05
1.74553e-05
1.77052e-05
1.78631e-05
1.81427e-05
1.82825e-05
1.85624e-05
1.87162e-05
1.89809e-05
1.9148e-05
1.93883e-05
1.96014e-05
1.97717e-05
2.00501e-05
2.01823e-05
2.04545e-05
2.05888e-05
2.08623e-05
2.09842e-05
2.12395e-05
2.13591e-05
2.16025e-05
2.17368e-05
2.18995e-05
2.20273e-05
2.00146e-05
2.01298e-05
2.06892e-05
2.34075e-05
3.43244e-05
6.96152e-05
0.000153334
0.000333075
0.000749394
0.00137089
0.00201063
0.00324045
0.00521182
0.00725878
0.00863838
0.00961643
0.011465
0.0151295
0.0179608
0.0191732
0.0201088
0.0213581
0.0220226
0.0220255
0.0218462
0.0213524
0.0206079
0.0192749
0.0172268
0.014656
0.0119357
0.0093918
0.00722547
0.00551535
0.00425026
0.00336559
0.00277643
0.00240068
0.00217123
0.0020381
0.00196664
0.00193352
0.00192225
0.00192082
0.00192363
0.00193906
0.00196009
0.00198033
0.00200081
0.0020217
0.00204312
0.00206498
0.00208723
0.00210986
0.00213277
0.00215589
0.00217927
0.00220292
0.00222688
0.00225108
0.00227548
0.00230014
0.00232509
0.00235027
0.00237564
0.0024013
0.00242719
0.00245329
0.00247959
0.00250612
0.00253293
0.00255989
0.00258706
0.00261446
0.00264204
0.00266979
0.0026977
0.00272584
0.00275416
0.00278255
0.0028112
0.00283991
0.002869
0.00289787
0.00292738
0.00295643
0.00298623
0.00301575
0.00304529
0.00307593
0.00310451
0.00313676
0.00316416
0.00319746
0.00322484
0.00325838
0.00328539
0.00332082
0.00334469
0.00338438
0.00340497
0.00344587
0.00346788
0.00350636
0.00353057
0.00356657
0.00359574
0.00362315
0.0036623
0.00368218
0.00372333
0.00374392
0.00378422
0.00380381
0.00384302
0.00386385
0.00389948
0.00392793
0.00394626
0.00399505
2.01787e-05
3.30799e-05
0.000141729
0.000610714
0.0020715
0.00577095
0.0118004
0.0223954
0.0392112
0.0566085
0.0763633
0.102646
0.129553
0.151811
0.167594
0.182787
0.204462
0.226091
0.23838
0.246335
0.252401
0.25289
0.251893
0.249224
0.243806
0.236423
0.226883
0.215507
0.202144
0.186725
0.169746
0.1528
0.137821
0.125705
0.116617
0.110256
0.106097
0.103563
0.102141
0.101451
0.101191
0.101138
0.101174
0.101473
0.101965
0.102426
0.102882
0.103346
0.103819
0.1043
0.104792
0.105292
0.105798
0.106311
0.10683
0.107352
0.107879
0.10841
0.108947
0.109487
0.11003
0.110578
0.111131
0.111686
0.112245
0.112808
0.113375
0.113944
0.114516
0.115092
0.115672
0.116253
0.116838
0.117426
0.118016
0.118608
0.119203
0.119801
0.120401
0.121002
0.121606
0.122211
0.12282
0.123427
0.124041
0.12465
0.125268
0.125881
0.126496
0.127122
0.127724
0.128371
0.128956
0.129617
0.130199
0.130865
0.131439
0.13213
0.132659
0.133414
0.133882
0.134672
0.135143
0.135902
0.136408
0.137135
0.137682
0.138323
0.139005
0.139491
0.140281
0.140728
0.141465
0.142016
0.142624
0.143272
0.143758
0.144547
0.14494
0.14592
0.000237611
0.00489482
0.0245704
0.0733106
0.174285
0.322362
0.493759
0.676094
0.855495
1.02355
1.16671
1.28507
1.36804
1.429
1.47429
1.50572
1.53072
1.53716
1.53488
1.52719
1.51003
1.48239
1.44989
1.41256
1.37038
1.32806
1.2898
1.25539
1.22544
1.20066
1.18087
1.16685
1.1583
1.15339
1.15066
1.14907
1.14828
1.14812
1.14816
1.1484
1.14917
1.15022
1.15127
1.15236
1.15347
1.15461
1.15578
1.15697
1.15818
1.15941
1.16065
1.16191
1.16319
1.16447
1.16577
1.16708
1.1684
1.16974
1.17108
1.17244
1.1738
1.17518
1.17657
1.17796
1.17937
1.18079
1.18221
1.18364
1.18509
1.18654
1.188
1.18946
1.19093
1.19241
1.1939
1.19539
1.19689
1.1984
1.19991
1.20142
1.20295
1.20447
1.20601
1.20754
1.20908
1.21063
1.21218
1.21373
1.21528
1.21684
1.2184
1.21997
1.22152
1.22311
1.22465
1.22625
1.22778
1.2294
1.23091
1.23257
1.23402
1.23575
1.23714
1.2389
1.2403
1.242
1.24348
1.24508
1.24668
1.24805
1.24994
1.25104
1.25301
1.25412
1.25606
1.25714
1.25888
1.26061
1.26164
1.2647
0.0968599
0.521947
1.32826
2.32633
3.31733
4.15472
4.79483
5.24213
5.51229
5.64451
5.6373
5.591
5.48837
5.3463
5.18728
5.02512
4.86815
4.71866
4.58021
4.45936
4.36193
4.29017
4.2425
4.21482
4.20092
4.1981
4.19906
4.20435
4.21588
4.22838
4.24022
4.24976
4.25714
4.26354
4.26958
4.27562
4.28181
4.2882
4.29478
4.3015
4.30831
4.31515
4.32199
4.32881
4.33558
4.34232
4.34901
4.35566
4.36225
4.36879
4.37528
4.38172
4.38812
4.39446
4.40074
4.40698
4.41316
4.41929
4.42537
4.43139
4.43736
4.44326
4.44913
4.45492
4.46066
4.46634
4.47197
4.47753
4.48304
4.48848
4.49387
4.49919
4.50445
4.50965
4.51479
4.51986
4.52487
4.52982
4.5347
4.53951
4.54427
4.54895
4.55357
4.55812
4.56262
4.56703
4.57138
4.57567
4.57988
4.58403
4.58811
4.59211
4.59604
4.59991
4.6037
4.60744
4.61108
4.61467
4.61817
4.62162
4.62497
4.62827
4.63148
4.63464
4.63771
4.64071
4.64365
4.64648
4.64932
4.65196
4.6547
4.65718
4.65974
4.66225
4.66435
4.66732
4.66886
4.67201
4.67346
4.67683
)
;

boundaryField
{
    upperWall
    {
        type            fixedValue;
        value           uniform 0;
    }
    lowerWall
    {
        type            fixedValue;
        value           uniform 0;
    }
    inlet
    {
        type            fixedValue;
        value           uniform 2e-05;
    }
    outlet
    {
        type            inletOutlet;
        inletValue      uniform 0;
        value           nonuniform List<scalar> 
12
(
4.69442
1.26554
0.149486
0.00447831
3.18526e-05
4.37073e-07
3.83154e-07
2.20273e-05
0.00399505
0.14592
1.2647
4.67683
)
;
    }
    frontAndBack
    {
        type            empty;
    }
}


// ************************************************************************* //
