/*--------------------------------*- C++ -*----------------------------------*\
  =========                 |
  \\      /  F ield         | OpenFOAM: The Open Source CFD Toolbox
   \\    /   O peration     | Website:  https://openfoam.org
    \\  /    A nd           | Version:  7
     \\/     M anipulation  |
\*---------------------------------------------------------------------------*/
FoamFile
{
    version     2.0;
    format      ascii;
    class       volScalarField;
    location    "3";
    object      k;
}
// * * * * * * * * * * * * * * * * * * * * * * * * * * * * * * * * * * * * * //

dimensions      [0 2 -2 0 0 0 0];

internalField   nonuniform List<scalar> 
1800
(
0.272321
1.43151
1.91371
1.87999
1.7251
1.51262
1.35104
1.2339
1.14897
1.08503
1.03482
0.993818
0.959233
0.929361
0.903127
0.879838
0.859006
0.840241
0.823283
0.807835
0.793773
0.78081
0.768927
0.757859
0.747566
0.738033
0.728701
0.720638
0.710053
0.716787
0.00870606
0.142023
0.43589
0.639211
0.745629
0.784849
0.793815
0.792008
0.786773
0.778047
0.768702
0.758985
0.749107
0.739431
0.730091
0.721163
0.712618
0.704497
0.696686
0.689324
0.682114
0.675532
0.668708
0.663082
0.65626
0.651952
0.644693
0.641427
0.632145
0.631934
0.00010597
0.0053935
0.0277026
0.0757793
0.127876
0.168007
0.196614
0.217361
0.233372
0.246622
0.258073
0.268705
0.278768
0.288474
0.297504
0.306244
0.314144
0.321915
0.328607
0.335475
0.340901
0.347018
0.35115
0.356704
0.359602
0.364655
0.366679
0.371073
0.372375
0.375505
2.08586e-05
0.000143408
0.000987489
0.00358395
0.00912473
0.0164586
0.0235813
0.030303
0.0362222
0.0417938
0.0467641
0.0516677
0.0561442
0.0607825
0.0650526
0.0696267
0.0738194
0.0784272
0.0826092
0.0872913
0.0914982
0.0962435
0.100509
0.10525
0.109644
0.114229
0.118896
0.123056
0.128248
0.131661
2.0238e-05
2.39756e-05
4.57765e-05
0.000121457
0.000302713
0.000695991
0.00115488
0.00177064
0.00236063
0.00306488
0.00373481
0.00450867
0.0052525
0.00609159
0.0069059
0.00780306
0.00868345
0.00963206
0.0105797
0.011577
0.0125991
0.0136434
0.0147536
0.0158403
0.0170626
0.0181773
0.0195546
0.0206566
0.0222687
0.0233148
2.01523e-05
2.18339e-05
2.70263e-05
3.21495e-05
4.26267e-05
5.0475e-05
6.67028e-05
7.80207e-05
0.00010133
0.000117125
0.000149744
0.000171334
0.000215874
0.0002443
0.000302754
0.000338761
0.000412514
0.00045668
0.00054685
0.000599768
0.000707018
0.000770378
0.000894221
0.000971442
0.00111244
0.00120394
0.00136576
0.00147068
0.00166037
0.00177887
2.01534e-05
2.18318e-05
2.70273e-05
3.21661e-05
4.35396e-05
5.094e-05
6.79868e-05
7.88765e-05
0.000102781
0.000118176
0.000151408
0.000172586
0.000217737
0.000245718
0.000304794
0.000340299
0.000414698
0.000458264
0.000549018
0.000601102
0.000709077
0.000770115
0.000896146
0.000966583
0.00111142
0.00119141
0.0013551
0.00144396
0.00162534
0.00172466
2.02394e-05
2.39926e-05
4.59626e-05
0.000122178
0.00034162
0.000635825
0.00124683
0.00169099
0.00245474
0.00298601
0.00383262
0.00442906
0.00535419
0.0060093
0.00701139
0.00771698
0.00879301
0.00954165
0.0106911
0.0114789
0.0127051
0.0135306
0.0148403
0.0157022
0.0171031
0.0179916
0.0194885
0.0203749
0.0219658
0.0228504
2.08771e-05
0.000144285
0.000992064
0.00359671
0.00916948
0.016458
0.0236417
0.0302997
0.0362967
0.041783
0.0468547
0.0516444
0.0562504
0.0607395
0.0651786
0.0695582
0.0739697
0.0783213
0.0827817
0.0871272
0.0916818
0.0959931
0.100677
0.104875
0.109725
0.11367
0.118722
0.122209
0.127429
0.130356
0.000107047
0.00540993
0.0277535
0.0758561
0.127958
0.168093
0.196694
0.21744
0.233448
0.246694
0.258145
0.26877
0.278839
0.288533
0.297575
0.306288
0.314209
0.321926
0.328654
0.335427
0.340918
0.346868
0.351104
0.356392
0.359403
0.36411
0.366055
0.369965
0.371086
0.373532
0.00874116
0.142189
0.436084
0.639394
0.74577
0.784951
0.793894
0.792069
0.786824
0.778091
0.768738
0.759017
0.749124
0.739451
0.730089
0.72118
0.712591
0.704523
0.696623
0.689385
0.682
0.675661
0.668524
0.663315
0.656028
0.652242
0.644564
0.641589
0.632195
0.632529
0.27232
1.4314
1.91356
1.87985
1.72497
1.51251
1.35095
1.23382
1.1489
1.08497
1.03476
0.99377
0.959186
0.929331
0.903095
0.879844
0.859003
0.840319
0.823331
0.808056
0.793913
0.781312
0.76924
0.758909
0.74823
0.740123
0.730127
0.724487
0.713789
0.721868
1.27106
1.41458
1.40366
1.37955
1.36431
1.35325
1.3455
1.341
1.33907
1.33924
1.34064
1.343
1.34581
1.34887
1.35202
1.35516
1.35824
1.36124
1.36414
1.36697
1.36971
1.37238
1.37498
1.37754
1.38004
1.3825
1.38493
1.38732
1.38967
1.392
1.3943
1.39658
1.39883
1.40106
1.40326
1.40545
1.40761
1.40974
1.41186
1.41396
1.41604
1.41809
1.42013
1.42215
1.42415
1.42612
1.42808
1.43003
1.43195
1.43385
1.43573
1.4376
1.43944
1.44127
1.44307
1.44486
1.44662
1.44837
1.45009
1.4518
1.45348
1.45514
1.45678
1.45839
1.45999
1.46156
1.46311
1.46464
1.46615
1.46764
1.46911
1.47055
1.47197
1.47338
1.47476
1.47613
1.47747
1.4788
1.48011
1.48141
1.48268
1.48394
1.48519
1.48642
1.48764
1.48884
1.49003
1.49121
1.49238
1.49354
1.49469
1.49583
1.49697
1.49809
1.49921
1.50032
1.50143
1.50253
1.50362
1.50472
1.5058
1.50689
1.50797
1.50905
1.51013
1.5112
1.51227
1.51335
1.51442
1.51551
1.51655
1.51766
1.51867
1.51983
1.52077
1.52204
1.52281
1.52432
1.52483
1.52671
1.24667
1.54915
1.60833
1.60709
1.60033
1.5944
1.59164
1.59162
1.59288
1.59575
1.59929
1.60315
1.6071
1.61101
1.61484
1.61856
1.62215
1.62562
1.62899
1.63226
1.63546
1.63859
1.64165
1.64466
1.64763
1.65055
1.65343
1.65628
1.6591
1.66188
1.66463
1.66735
1.67004
1.67271
1.67535
1.67796
1.68055
1.68312
1.68566
1.68817
1.69066
1.69313
1.69558
1.698
1.7004
1.70278
1.70514
1.70747
1.70979
1.71208
1.71435
1.71659
1.71882
1.72102
1.7232
1.72536
1.7275
1.72961
1.7317
1.73376
1.73581
1.73782
1.73982
1.74179
1.74374
1.74566
1.74756
1.74943
1.75128
1.75311
1.75491
1.75669
1.75844
1.76017
1.76188
1.76357
1.76524
1.76688
1.76851
1.77011
1.7717
1.77326
1.77481
1.77634
1.77786
1.77936
1.78084
1.78231
1.78377
1.78521
1.78664
1.78806
1.78947
1.79087
1.79225
1.79363
1.79501
1.79637
1.79773
1.79908
1.80043
1.80177
1.80311
1.80445
1.80577
1.8071
1.80842
1.80975
1.81106
1.8124
1.81368
1.81505
1.81628
1.81772
1.81885
1.82043
1.82135
1.8232
1.8239
1.82608
0.724212
1.06999
1.20269
1.24751
1.26499
1.27492
1.28307
1.29074
1.29761
1.30383
1.30925
1.3139
1.31788
1.32135
1.32445
1.32727
1.32992
1.33244
1.33488
1.33727
1.33963
1.34196
1.34427
1.34656
1.34884
1.3511
1.35335
1.35558
1.35779
1.35999
1.36217
1.36433
1.36647
1.3686
1.37071
1.3728
1.37487
1.37693
1.37896
1.38099
1.38299
1.38498
1.38695
1.3889
1.39084
1.39276
1.39466
1.39655
1.39842
1.40027
1.40211
1.40394
1.40575
1.40754
1.40931
1.41107
1.41282
1.41454
1.41625
1.41795
1.41963
1.42129
1.42294
1.42457
1.42619
1.42778
1.42936
1.43093
1.43248
1.43401
1.43552
1.43702
1.4385
1.43997
1.44142
1.44285
1.44427
1.44567
1.44706
1.44843
1.44979
1.45113
1.45246
1.45378
1.45508
1.45637
1.45765
1.45891
1.46017
1.46141
1.46264
1.46387
1.46508
1.46628
1.46748
1.46867
1.46984
1.47101
1.47218
1.47334
1.47449
1.47563
1.47677
1.47791
1.47904
1.48017
1.48129
1.48242
1.48352
1.48465
1.48574
1.48689
1.48793
1.48914
1.49008
1.49141
1.49219
1.49371
1.49436
1.49614
0.223521
0.492774
0.679803
0.782855
0.839587
0.874689
0.899188
0.917557
0.931421
0.94181
0.949446
0.95497
0.958949
0.96186
0.964069
0.965846
0.967374
0.968773
0.970118
0.971451
0.972794
0.974156
0.97554
0.976943
0.978362
0.979792
0.981231
0.982675
0.984121
0.985565
0.987006
0.988443
0.989873
0.991295
0.99271
0.994117
0.995515
0.996904
0.998285
0.999657
1.00102
1.00237
1.00372
1.00505
1.00638
1.00769
1.009
1.0103
1.01159
1.01287
1.01414
1.0154
1.01665
1.01789
1.01913
1.02035
1.02157
1.02278
1.02398
1.02517
1.02636
1.02753
1.0287
1.02986
1.03101
1.03216
1.03329
1.03442
1.03554
1.03665
1.03775
1.03885
1.03994
1.04101
1.04208
1.04314
1.0442
1.04524
1.04628
1.0473
1.04832
1.04933
1.05033
1.05133
1.05231
1.05329
1.05426
1.05522
1.05618
1.05712
1.05806
1.05899
1.05991
1.06083
1.06174
1.06265
1.06354
1.06443
1.06532
1.0662
1.06707
1.06794
1.0688
1.06966
1.07051
1.07137
1.07221
1.07306
1.07388
1.07474
1.07554
1.07641
1.07718
1.07809
1.07878
1.07978
1.08036
1.08147
1.08199
1.0833
0.036471
0.0936274
0.210596
0.324481
0.41147
0.473584
0.517205
0.547817
0.569144
0.583804
0.593688
0.600194
0.60437
0.606995
0.608627
0.609657
0.610347
0.610863
0.611312
0.611753
0.612218
0.612721
0.613265
0.613848
0.614465
0.615109
0.615777
0.616464
0.617165
0.617876
0.618594
0.619318
0.620044
0.620771
0.621499
0.622227
0.622956
0.623684
0.624411
0.625138
0.625863
0.626586
0.627308
0.628026
0.628741
0.629454
0.630163
0.63087
0.631574
0.632275
0.632973
0.633669
0.634362
0.635053
0.63574
0.636424
0.637106
0.637786
0.638464
0.63914
0.639814
0.640487
0.641159
0.641829
0.642498
0.643165
0.64383
0.644494
0.645156
0.645818
0.646478
0.647137
0.647795
0.648451
0.649105
0.649757
0.650407
0.651054
0.651699
0.652342
0.652982
0.65362
0.654255
0.654887
0.655516
0.656142
0.656764
0.657383
0.657997
0.658608
0.659215
0.659819
0.660419
0.661015
0.661608
0.662197
0.662781
0.663362
0.663938
0.664511
0.665079
0.665645
0.666206
0.666766
0.667319
0.667875
0.668419
0.668972
0.669504
0.67006
0.670573
0.671142
0.671625
0.672225
0.672659
0.67331
0.673681
0.674381
0.674723
0.675569
0.00270201
0.00748425
0.0220663
0.0539922
0.102667
0.154739
0.202037
0.240797
0.270464
0.292115
0.307368
0.317806
0.324761
0.329278
0.332132
0.333884
0.334928
0.335534
0.335884
0.336094
0.336241
0.336368
0.336503
0.336659
0.336841
0.337051
0.337288
0.337549
0.337832
0.338132
0.338448
0.338777
0.339118
0.339467
0.339822
0.340182
0.340545
0.34091
0.341277
0.341646
0.342016
0.342387
0.342758
0.34313
0.343501
0.343871
0.344241
0.34461
0.344979
0.345347
0.345715
0.346082
0.346449
0.346814
0.347179
0.347543
0.347907
0.348269
0.348632
0.348994
0.349356
0.349718
0.35008
0.350441
0.350803
0.351165
0.351526
0.351888
0.352249
0.35261
0.352972
0.353333
0.353695
0.354057
0.354418
0.354779
0.355139
0.355498
0.355857
0.356215
0.356572
0.356928
0.357283
0.357637
0.35799
0.358341
0.358691
0.359038
0.359384
0.359728
0.36007
0.36041
0.360748
0.361084
0.361418
0.36175
0.362079
0.362407
0.362731
0.363054
0.363373
0.363692
0.364007
0.364323
0.364632
0.364946
0.365248
0.365563
0.365854
0.366175
0.36645
0.366783
0.367035
0.367388
0.367613
0.367989
0.36819
0.368577
0.368771
0.369247
0.00264722
0.00718095
0.0212502
0.0524214
0.101487
0.154403
0.202668
0.242328
0.27278
0.295107
0.310939
0.321889
0.329319
0.334285
0.337573
0.339748
0.341205
0.342214
0.342957
0.343551
0.344071
0.344562
0.34505
0.345549
0.346064
0.346599
0.34715
0.347717
0.348297
0.348888
0.349487
0.350092
0.350701
0.351313
0.351926
0.352537
0.353146
0.353753
0.354357
0.354959
0.355558
0.356153
0.356745
0.357334
0.357919
0.358499
0.359076
0.359648
0.360217
0.360782
0.361344
0.361901
0.362454
0.363004
0.363549
0.364089
0.364625
0.365156
0.365683
0.366206
0.366724
0.367238
0.367748
0.368253
0.368754
0.36925
0.36974
0.370226
0.370707
0.371184
0.371655
0.372122
0.372585
0.373042
0.373495
0.373943
0.374385
0.374822
0.375255
0.375682
0.376105
0.376522
0.376935
0.377344
0.377748
0.378146
0.37854
0.37893
0.379314
0.379694
0.380069
0.380441
0.380808
0.381171
0.38153
0.381886
0.382237
0.382585
0.382929
0.38327
0.383606
0.383941
0.38427
0.384601
0.384923
0.385251
0.385565
0.385892
0.386195
0.386527
0.386813
0.387156
0.387419
0.387784
0.388015
0.388406
0.388611
0.389016
0.389215
0.389709
0.0361519
0.0920961
0.207511
0.323339
0.412908
0.477209
0.522568
0.554489
0.576851
0.592327
0.602859
0.609918
0.614598
0.617696
0.619781
0.621246
0.622355
0.623276
0.624115
0.624932
0.625761
0.626616
0.627502
0.628418
0.629359
0.63032
0.631298
0.632287
0.633285
0.634288
0.635293
0.636299
0.637303
0.638304
0.639302
0.640297
0.641288
0.642276
0.643259
0.644239
0.645214
0.646185
0.64715
0.64811
0.649063
0.650011
0.650953
0.651888
0.652818
0.653742
0.65466
0.655572
0.656478
0.657377
0.658269
0.659154
0.660032
0.660903
0.661768
0.662626
0.663477
0.664322
0.66516
0.665991
0.666815
0.667632
0.668441
0.669243
0.670039
0.670827
0.671609
0.672383
0.673151
0.673912
0.674666
0.675413
0.676152
0.676884
0.677608
0.678326
0.679037
0.679741
0.680438
0.681129
0.681812
0.682489
0.683159
0.683821
0.684477
0.685127
0.68577
0.686407
0.687039
0.687664
0.688284
0.688898
0.689507
0.69011
0.690707
0.6913
0.691888
0.692471
0.693049
0.693626
0.694195
0.694765
0.695324
0.695891
0.696437
0.697007
0.697533
0.698116
0.698611
0.699226
0.699669
0.700339
0.700714
0.701438
0.701785
0.702656
0.224643
0.489963
0.681324
0.788378
0.84761
0.884133
0.909461
0.928157
0.942155
0.952456
0.959859
0.965082
0.968731
0.971296
0.973154
0.974577
0.975753
0.976804
0.977808
0.97881
0.979831
0.980884
0.981971
0.98309
0.984238
0.985411
0.986604
0.987814
0.989037
0.99027
0.991511
0.992756
0.994004
0.995254
0.996504
0.997754
0.999003
1.00025
1.00149
1.00274
1.00397
1.00521
1.00644
1.00766
1.00888
1.01009
1.0113
1.0125
1.01369
1.01488
1.01606
1.01724
1.01841
1.01957
1.02073
1.02188
1.02302
1.02415
1.02528
1.0264
1.02752
1.02862
1.02973
1.03082
1.03191
1.03299
1.03407
1.03514
1.0362
1.03726
1.03831
1.03935
1.04039
1.04142
1.04245
1.04347
1.04448
1.04549
1.04649
1.04748
1.04847
1.04945
1.05043
1.0514
1.05236
1.05332
1.05427
1.05521
1.05614
1.05708
1.058
1.05892
1.05983
1.06074
1.06164
1.06253
1.06342
1.0643
1.06518
1.06606
1.06692
1.06779
1.06865
1.06951
1.07035
1.07121
1.07204
1.07289
1.07372
1.07457
1.07537
1.07624
1.07701
1.07792
1.07861
1.07961
1.08019
1.0813
1.08181
1.08313
0.726723
1.07344
1.211
1.25736
1.27462
1.28378
1.29095
1.29732
1.30308
1.30801
1.31212
1.31549
1.31821
1.32042
1.32226
1.32386
1.32529
1.32664
1.32793
1.32921
1.33049
1.33178
1.33309
1.33441
1.33575
1.33711
1.33849
1.33987
1.34127
1.34268
1.3441
1.34552
1.34694
1.34837
1.3498
1.35123
1.35266
1.35409
1.35552
1.35694
1.35836
1.35978
1.36119
1.3626
1.364
1.3654
1.36679
1.36817
1.36955
1.37092
1.37228
1.37364
1.37499
1.37633
1.37767
1.379
1.38032
1.38164
1.38295
1.38426
1.38556
1.38685
1.38814
1.38942
1.3907
1.39197
1.39324
1.3945
1.39576
1.39701
1.39826
1.3995
1.40074
1.40198
1.40321
1.40443
1.40565
1.40687
1.40808
1.40929
1.41049
1.41169
1.41289
1.41408
1.41526
1.41644
1.41762
1.41879
1.41996
1.42112
1.42228
1.42343
1.42458
1.42572
1.42686
1.428
1.42913
1.43026
1.43138
1.4325
1.43362
1.43473
1.43584
1.43695
1.43805
1.43916
1.44025
1.44136
1.44244
1.44355
1.44461
1.44574
1.44676
1.44795
1.44888
1.45019
1.45095
1.45245
1.45308
1.45483
1.25013
1.55668
1.61438
1.61106
1.60099
1.59226
1.58686
1.58408
1.58341
1.5839
1.58523
1.58703
1.58895
1.59088
1.59274
1.59452
1.59621
1.59784
1.59941
1.60095
1.60245
1.60395
1.60543
1.6069
1.60838
1.60986
1.61134
1.61283
1.61432
1.61582
1.61731
1.61881
1.62031
1.62181
1.62331
1.62481
1.62631
1.62781
1.6293
1.63079
1.63227
1.63375
1.63522
1.63669
1.63816
1.63961
1.64106
1.64251
1.64395
1.64538
1.6468
1.64822
1.64963
1.65103
1.65243
1.65382
1.6552
1.65658
1.65796
1.65933
1.66069
1.66205
1.66341
1.66476
1.66611
1.66745
1.6688
1.67014
1.67147
1.67281
1.67414
1.67547
1.67679
1.67812
1.67944
1.68076
1.68208
1.6834
1.68471
1.68603
1.68734
1.68865
1.68996
1.69126
1.69257
1.69387
1.69517
1.69647
1.69777
1.69907
1.70036
1.70166
1.70295
1.70424
1.70553
1.70682
1.7081
1.70939
1.71067
1.71195
1.71323
1.71452
1.71579
1.71707
1.71835
1.71963
1.7209
1.72218
1.72344
1.72474
1.72598
1.7273
1.7285
1.72989
1.73099
1.73251
1.73342
1.7352
1.73588
1.73799
1.26459
1.40839
1.39174
1.3647
1.34615
1.33208
1.32169
1.31478
1.31077
1.3088
1.30829
1.30869
1.30963
1.31085
1.31217
1.31352
1.31484
1.31613
1.31736
1.31856
1.31972
1.32085
1.32196
1.32305
1.32414
1.32521
1.32628
1.32735
1.32842
1.32948
1.33054
1.33161
1.33267
1.33373
1.33479
1.33584
1.33689
1.33794
1.33899
1.34003
1.34107
1.3421
1.34313
1.34415
1.34517
1.34618
1.34719
1.3482
1.3492
1.35019
1.35118
1.35216
1.35314
1.35411
1.35508
1.35605
1.35702
1.35798
1.35893
1.35989
1.36084
1.36179
1.36273
1.36368
1.36463
1.36557
1.36652
1.36746
1.36841
1.36935
1.37029
1.37124
1.37218
1.37313
1.37408
1.37503
1.37598
1.37693
1.37788
1.37884
1.3798
1.38076
1.38172
1.38268
1.38364
1.38461
1.38558
1.38655
1.38753
1.3885
1.38948
1.39046
1.39144
1.39243
1.39341
1.3944
1.39539
1.39638
1.39738
1.39837
1.39937
1.40037
1.40137
1.40238
1.40338
1.40439
1.40539
1.40641
1.40741
1.40844
1.40943
1.41048
1.41144
1.41254
1.41343
1.41464
1.41538
1.4168
1.4173
1.41907
)
;

boundaryField
{
    upperWall
    {
        type            fixedValue;
        value           uniform 0;
    }
    lowerWall
    {
        type            fixedValue;
        value           uniform 0;
    }
    heatedWall
    {
        type            fixedValue;
        value           uniform 0;
    }
    inlet
    {
        type            fixedValue;
        value           uniform 2e-05;
    }
    outlet
    {
        type            inletOutlet;
        inletValue      uniform 0;
        value           nonuniform List<scalar> 
12
(
1.52671
1.82608
1.49614
1.0833
0.675569
0.369247
0.389709
0.702656
1.08313
1.45483
1.73799
1.41907
)
;
    }
    frontAndBack
    {
        type            empty;
    }
}


// ************************************************************************* //
