/*--------------------------------*- C++ -*----------------------------------*\
  =========                 |
  \\      /  F ield         | OpenFOAM: The Open Source CFD Toolbox
   \\    /   O peration     | Website:  https://openfoam.org
    \\  /    A nd           | Version:  7
     \\/     M anipulation  |
\*---------------------------------------------------------------------------*/
FoamFile
{
    version     2.0;
    format      ascii;
    class       volVectorField;
    location    "0.6775";
    object      U_0;
}
// * * * * * * * * * * * * * * * * * * * * * * * * * * * * * * * * * * * * * //

dimensions      [0 1 -1 0 0 0 0];

internalField   nonuniform List<vector> 
4950
(
(3.50773 0.420194 -27.0306)
(2.78904 0.150273 -27.0655)
(2.02729 0.0447819 -27.0646)
(1.8086 -0.0235096 -27.0688)
(1.5214 -0.044484 -27.0633)
(1.49386 -0.0512007 -27.064)
(1.3281 -0.0521697 -27.0591)
(1.34188 -0.0510153 -27.0608)
(1.21861 -0.0497259 -27.0585)
(1.2405 -0.0484468 -27.0615)
(1.14092 -0.0468114 -27.0611)
(1.16329 -0.0467004 -27.0647)
(1.08032 -0.043572 -27.0654)
(1.10112 -0.0462551 -27.0689)
(1.03009 -0.037446 -27.0699)
(1.04924 -0.0475747 -27.0721)
(0.985013 -0.0164633 -27.0731)
(0.991571 -0.0454334 -27.0728)
(0.959277 0.0944706 -27.0755)
(0.721438 0.119861 -27.0662)
(4.59744 0.549363 -27.056)
(4.77961 0.379378 -27.0821)
(4.47808 0.290954 -27.0778)
(4.41052 0.191611 -27.0803)
(4.10669 0.135055 -27.073)
(4.0627 0.103396 -27.0674)
(3.82607 0.0836764 -27.0561)
(3.81304 0.0722594 -27.0507)
(3.62748 0.0635996 -27.0454)
(3.63151 0.0581152 -27.0456)
(3.4821 0.0528045 -27.0463)
(3.49468 0.0503996 -27.0506)
(3.37075 0.0451044 -27.0555)
(3.38883 0.0466512 -27.0622)
(3.28074 0.0360562 -27.0695)
(3.30972 0.0462464 -27.0751)
(3.20229 0.0173994 -27.0831)
(3.27407 0.0371294 -27.0821)
(3.12723 -0.0174899 -27.0932)
(3.45979 -0.0765495 -27.0653)
(4.71714 0.288967 -27.0577)
(5.19186 0.212046 -27.0783)
(5.29939 0.191163 -27.0665)
(5.53458 0.13115 -27.0669)
(5.47558 0.0942338 -27.0577)
(5.5895 0.0688174 -27.0525)
(5.49499 0.0505927 -27.0364)
(5.56442 0.0380189 -27.0254)
(5.4699 0.0282022 -27.0117)
(5.51838 0.0202785 -27.0072)
(5.4325 0.0146755 -27.0024)
(5.46755 0.00866548 -27.0039)
(5.39315 0.00623604 -27.0043)
(5.41592 0.000322804 -27.0099)
(5.35761 0.00227367 -27.0168)
(5.36014 -0.0056297 -27.0284)
(5.33042 0.00734972 -27.0409)
(5.28102 -0.00482289 -27.0527)
(5.29573 0.03972 -27.0647)
(5.13257 0.0528066 -27.0537)
(4.69515 0.169411 -27.0666)
(5.10884 0.131701 -27.0873)
(5.31608 0.124733 -27.0769)
(5.65335 0.0951929 -27.0754)
(5.71815 0.0767052 -27.068)
(5.93631 0.064568 -27.0621)
(5.94856 0.0557322 -27.0476)
(6.10123 0.049881 -27.0337)
(6.09339 0.0447831 -27.0187)
(6.20724 0.0409338 -27.0101)
(6.19018 0.0371917 -27.0042)
(6.27899 0.0345707 -27.0028)
(6.25534 0.031038 -27.001)
(6.32925 0.030112 -27.0025)
(6.29747 0.0247724 -27.0048)
(6.37038 0.0272676 -27.0144)
(6.32386 0.0156754 -27.0254)
(6.42628 0.0213244 -27.0421)
(6.35164 0.00415602 -27.0565)
(6.57802 -0.0113134 -27.0497)
(4.69649 1.03847e-07 -27.0618)
(5.1054 2.21734e-07 -27.0809)
(5.32285 1.22293e-07 -27.0675)
(5.67542 4.38921e-07 -27.0663)
(5.75553 2.23488e-07 -27.0568)
(5.99029 9.05847e-07 -27.052)
(6.02221 4.32951e-07 -27.0359)
(6.19402 1.77003e-06 -27.0229)
(6.20908 1.40745e-06 -27.0057)
(6.34199 4.40974e-06 -26.9976)
(6.34947 4.68729e-06 -26.9898)
(6.45329 1.42006e-05 -26.9892)
(6.45734 1.20548e-05 -26.9856)
(6.53472 4.97803e-05 -26.9871)
(6.54257 2.46145e-05 -26.9866)
(6.5866 0.000162012 -26.9957)
(6.61481 6.78135e-05 -27.0047)
(6.59682 0.000447955 -27.0228)
(6.65811 0.000234351 -27.0378)
(6.53831 0.000730556 -27.0336)
(4.69515 -0.16941 -27.0666)
(5.10884 -0.1317 -27.0873)
(5.31608 -0.124732 -27.0769)
(5.65335 -0.095192 -27.0754)
(5.71815 -0.0767045 -27.0679)
(5.93631 -0.0645665 -27.0621)
(5.94856 -0.0557307 -27.0476)
(6.10123 -0.0498785 -27.0338)
(6.09339 -0.0447788 -27.0187)
(6.20725 -0.040929 -27.0102)
(6.19018 -0.0371782 -27.0041)
(6.27902 -0.0345567 -27.0029)
(6.25534 -0.0310018 -27.0009)
(6.3293 -0.0300628 -27.0026)
(6.29751 -0.0246906 -27.0046)
(6.37051 -0.0270944 -27.0145)
(6.32404 -0.015481 -27.0252)
(6.42653 -0.0208441 -27.0423)
(6.35214 -0.00348218 -27.0564)
(6.57874 0.0125396 -27.0498)
(4.71714 -0.288966 -27.0577)
(5.19186 -0.212046 -27.0783)
(5.29939 -0.191163 -27.0665)
(5.53458 -0.131149 -27.0669)
(5.47558 -0.0942332 -27.0576)
(5.5895 -0.0688161 -27.0525)
(5.49499 -0.0505918 -27.0364)
(5.56443 -0.0380165 -27.0255)
(5.46989 -0.0281998 -27.0117)
(5.5184 -0.0202722 -27.0073)
(5.43249 -0.0146691 -27.0023)
(5.4676 -0.0086447 -27.004)
(5.39314 -0.00622305 -27.004)
(5.41606 -0.000251044 -27.0102)
(5.35765 -0.00225737 -27.0163)
(5.36046 0.00585359 -27.0291)
(5.33066 -0.00732584 -27.04)
(5.28176 0.00541328 -27.054)
(5.29671 -0.0394469 -27.0629)
(5.13466 -0.0515524 -27.0562)
(4.59744 -0.549363 -27.056)
(4.77961 -0.379377 -27.0821)
(4.47808 -0.290954 -27.0778)
(4.41052 -0.19161 -27.0803)
(4.10669 -0.135054 -27.073)
(4.06271 -0.103396 -27.0674)
(3.82607 -0.0836751 -27.0561)
(3.81305 -0.0722587 -27.0507)
(3.62748 -0.0635964 -27.0454)
(3.63152 -0.0581144 -27.0457)
(3.48211 -0.0527956 -27.0462)
(3.49473 -0.0503966 -27.0508)
(3.37078 -0.0450822 -27.0552)
(3.38897 -0.046635 -27.0626)
(3.28087 -0.036007 -27.0689)
(3.31003 -0.0461685 -27.0762)
(3.2028 -0.017287 -27.0813)
(3.27475 -0.0369018 -27.085)
(3.12865 0.0178392 -27.0879)
(3.46171 0.0767915 -27.075)
(3.50773 -0.420193 -27.0306)
(2.78904 -0.150272 -27.0655)
(2.02729 -0.0447815 -27.0646)
(1.8086 0.0235101 -27.0688)
(1.5214 0.0444845 -27.0633)
(1.49386 0.0512013 -27.064)
(1.32811 0.05217 -27.0591)
(1.34188 0.0510161 -27.0608)
(1.21861 0.0497255 -27.0585)
(1.24051 0.0484483 -27.0615)
(1.14093 0.0468091 -27.0611)
(1.16331 0.0467035 -27.0647)
(1.08035 0.0435642 -27.0654)
(1.1012 0.0462606 -27.069)
(1.03018 0.0374293 -27.0697)
(1.04942 0.0475944 -27.0725)
(0.985341 0.0164153 -27.0725)
(0.992003 0.0454824 -27.0739)
(0.960272 -0.094428 -27.0734)
(0.723101 -0.119406 -27.0719)
(4.4936 0.193014 0.00520365)
(3.71772 0.281891 0.0035741)
(3.10551 0.243808 0.00436703)
(2.50985 0.167111 0.00331517)
(2.22765 0.116909 0.00407449)
(1.93513 0.0832592 0.00323933)
(1.84478 0.0672735 0.00391391)
(1.68635 0.0582931 0.00320094)
(1.65625 0.0543667 0.00377625)
(1.55074 0.0522984 0.00315538)
(1.53672 0.0507709 0.00364077)
(1.45777 0.0510538 0.00309927)
(1.44814 0.0484396 0.00350908)
(1.38594 0.0518587 0.00303755)
(1.37771 0.0424959 0.0033843)
(1.32992 0.0557681 0.00297246)
(1.31717 0.0155693 0.00327019)
(1.31703 0.0611029 0.00290298)
(1.23992 -0.127617 0.00319667)
(1.66118 -0.172664 0.0027714)
(4.63037 0.109915 0.00331914)
(4.65401 0.23471 0.00200275)
(4.78722 0.214715 0.0027554)
(4.64409 0.161892 0.00171794)
(4.61073 0.106697 0.00247199)
(4.43036 0.0634764 0.00163447)
(4.37542 0.0348898 0.00230473)
(4.22351 0.0167708 0.00159004)
(4.17804 0.00494636 0.00216212)
(4.05757 -0.00273955 0.00154091)
(4.02172 -0.00807485 0.00202375)
(3.92537 -0.0129503 0.00148354)
(3.89745 -0.0142514 0.00189057)
(3.81703 -0.020461 0.00142226)
(3.79901 -0.0147156 0.00176219)
(3.72062 -0.0279564 0.0013585)
(3.72708 -0.00537485 0.00163205)
(3.60596 -0.0266983 0.00128482)
(3.69356 0.00838079 0.00147293)
(3.26993 0.0641389 0.00107689)
(4.56155 0.0617214 0.00462501)
(4.71097 0.187448 0.00339979)
(5.03847 0.219116 0.00411922)
(5.14409 0.196864 0.00306959)
(5.33009 0.166722 0.00381134)
(5.33899 0.135548 0.00296734)
(5.42501 0.114044 0.00363762)
(5.395 0.0975532 0.00292276)
(5.43746 0.0860118 0.0034973)
(5.39974 0.0773278 0.00287695)
(5.42167 0.0699649 0.00336242)
(5.38599 0.0649718 0.00282216)
(5.39461 0.0587454 0.0032336)
(5.36649 0.056753 0.00276324)
(5.36083 0.0481554 0.00311478)
(5.35204 0.0512832 0.00270128)
(5.31821 0.0287172 0.00301364)
(5.36224 0.0424345 0.00263856)
(5.27819 -0.0362667 0.00298375)
(5.42233 -0.0472686 0.00258419)
(4.51901 0.0291421 0.00315206)
(4.57335 0.0724477 0.00204417)
(4.92344 0.0768125 0.00275381)
(5.08385 0.069193 0.00172592)
(5.35393 0.056409 0.00246392)
(5.44975 0.0440436 0.0016205)
(5.62019 0.0348908 0.00228757)
(5.67101 0.028175 0.00157209)
(5.78579 0.0233113 0.00214394)
(5.81646 0.0196143 0.00152311)
(5.89974 0.016658 0.00200509)
(5.91901 0.0138569 0.00146547)
(5.98258 0.0122019 0.0018715)
(5.99158 0.00908629 0.00140521)
(6.04578 0.00959535 0.00174328)
(6.03658 0.00479459 0.00134148)
(6.09731 0.00924245 0.001607)
(6.02891 0.0045932 0.00125982)
(6.12467 0.0062252 0.00141098)
(5.83597 0.0300301 0.00107472)
(4.55126 -3.97202e-08 0.00453587)
(4.65692 1.29194e-08 0.00342946)
(4.97892 -7.4987e-08 0.0041269)
(5.12978 1.48462e-07 0.00308275)
(5.39132 5.85963e-09 0.00381576)
(5.49061 4.71173e-07 0.00296751)
(5.66827 2.57478e-07 0.00363573)
(5.73116 1.02745e-06 0.00291988)
(5.85926 1.5391e-06 0.00349447)
(5.90665 2.46402e-06 0.00287395)
(6.00471 6.10538e-06 0.00335932)
(6.04436 6.31939e-06 0.00281895)
(6.11886 1.78812e-05 0.00323043)
(6.15604 1.87203e-05 0.00276033)
(6.20673 4.49225e-05 0.00311272)
(6.25344 5.55199e-05 0.00269911)
(6.27062 0.000120805 0.00301591)
(6.35063 0.000155105 0.0026378)
(6.33314 0.000402388 0.00300072)
(6.43618 0.000592391 0.00260879)
(4.51901 -0.0291422 0.00315206)
(4.57335 -0.0724476 0.00204417)
(4.92344 -0.0768126 0.00275381)
(5.08385 -0.0691925 0.00172592)
(5.35393 -0.0564091 0.00246392)
(5.44975 -0.0440422 0.0016205)
(5.62019 -0.0348911 0.00228757)
(5.67102 -0.0281715 0.00157209)
(5.78579 -0.0233107 0.00214393)
(5.81646 -0.0196045 0.00152311)
(5.89974 -0.0166533 0.00200509)
(5.91903 -0.0138284 0.00146547)
(5.98257 -0.0121878 0.00187149)
(5.99163 -0.00899838 0.00140521)
(6.04579 -0.00956491 0.00174327)
(6.03668 -0.00452798 0.00134146)
(6.0974 -0.00914959 0.00160696)
(6.02917 -0.00390013 0.00125977)
(6.12512 -0.00582759 0.00141104)
(5.83672 -0.0285612 0.00107457)
(4.56155 -0.0617215 0.00462501)
(4.71097 -0.187448 0.00339979)
(5.03847 -0.219116 0.00411922)
(5.14409 -0.196864 0.00306959)
(5.33009 -0.166722 0.00381134)
(5.33899 -0.135547 0.00296734)
(5.42501 -0.114043 0.00363761)
(5.395 -0.0975517 0.00292276)
(5.43746 -0.0860085 0.00349729)
(5.39976 -0.0773236 0.00287696)
(5.42167 -0.0699534 0.00336241)
(5.38604 -0.0649601 0.00282218)
(5.39461 -0.0587128 0.00323357)
(5.3666 -0.056714 0.00276328)
(5.36087 -0.0480741 0.00311471)
(5.3523 -0.0511523 0.00270137)
(5.31846 -0.028497 0.00301352)
(5.36283 -0.0420899 0.0026387)
(5.27903 0.0369942 0.00298344)
(5.42387 0.0480828 0.00258419)
(4.63037 -0.109915 0.00331914)
(4.65401 -0.23471 0.00200275)
(4.78722 -0.214715 0.0027554)
(4.64409 -0.161892 0.00171794)
(4.61073 -0.106697 0.00247199)
(4.43037 -0.0634758 0.00163447)
(4.37542 -0.0348896 0.00230473)
(4.22352 -0.0167693 0.00159004)
(4.17804 -0.00494534 0.00216212)
(4.0576 0.00274411 0.00154091)
(4.02172 0.0080777 0.00202374)
(3.92543 0.0129645 0.00148356)
(3.89745 0.0142561 0.00189054)
(3.81721 0.0205079 0.0014223)
(3.79904 0.0147157 0.00176212)
(3.72108 0.0281 0.00135857)
(3.72727 0.00537131 0.00163189)
(3.60718 0.0270609 0.00128492)
(3.69424 -0.0081886 0.00147272)
(3.27363 -0.0631858 0.00107694)
(4.4936 -0.193014 0.00520368)
(3.71772 -0.281891 0.00357413)
(3.10551 -0.243808 0.00436706)
(2.50985 -0.167111 0.0033152)
(2.22765 -0.116908 0.00407452)
(1.93513 -0.0832593 0.00323936)
(1.84479 -0.0672731 0.00391394)
(1.68635 -0.0582934 0.00320097)
(1.65626 -0.0543652 0.00377628)
(1.55075 -0.0522994 0.00315542)
(1.53673 -0.050766 0.0036408)
(1.4578 -0.0510565 0.00309931)
(1.44818 -0.0484254 0.00350909)
(1.38603 -0.0518633 0.00303763)
(1.37785 -0.0424607 0.00338425)
(1.33014 -0.0557663 0.00297264)
(1.31762 -0.0154951 0.00326991)
(1.31756 -0.0610968 0.00290354)
(1.24104 0.127678 0.0031955)
(1.66328 0.172189 0.00277332)
(4.45208 0.0663057 -1.48594e-08)
(4.21024 0.122437 -1.47352e-08)
(3.82448 0.134128 -1.49547e-08)
(3.44857 0.119628 -1.47042e-08)
(3.07863 0.094891 -1.45149e-08)
(2.77139 0.0707098 -1.42447e-08)
(2.5122 0.047909 -1.44721e-08)
(2.31033 0.0308906 -1.47313e-08)
(2.15433 0.0167274 -1.51058e-08)
(2.03167 0.00768922 -1.52368e-08)
(1.94337 0.00015165 -1.55133e-08)
(1.86774 -0.00327037 -1.5968e-08)
(1.81684 -0.0074427 -1.64695e-08)
(1.76772 -0.00717946 -1.6833e-08)
(1.73446 -0.0114598 -1.6895e-08)
(1.70681 -0.00704445 -1.68507e-08)
(1.67104 -0.0159082 -1.66416e-08)
(1.6811 -0.00671521 -1.64272e-08)
(1.60893 -0.0275581 -1.61009e-08)
(1.71126 -0.0541233 -1.56644e-08)
(4.51029 0.0584475 -1.41474e-08)
(4.63263 0.113064 -1.41587e-08)
(4.71698 0.146072 -1.44076e-08)
(4.78733 0.157256 -1.44364e-08)
(4.7978 0.153588 -1.4454e-08)
(4.78676 0.138889 -1.43622e-08)
(4.74642 0.120956 -1.46044e-08)
(4.69604 0.101288 -1.46523e-08)
(4.63973 0.0848747 -1.45811e-08)
(4.57841 0.0697025 -1.43211e-08)
(4.52275 0.0589525 -1.43229e-08)
(4.46238 0.0489945 -1.45822e-08)
(4.41373 0.0428869 -1.51035e-08)
(4.35817 0.0363372 -1.56362e-08)
(4.3185 0.0324861 -1.59252e-08)
(4.26788 0.0291154 -1.59293e-08)
(4.23786 0.0239073 -1.56895e-08)
(4.19197 0.0284686 -1.55761e-08)
(4.16671 0.0143435 -1.52835e-08)
(4.12538 0.0359877 -1.54995e-08)
(4.49996 0.0220868 -1.39103e-08)
(4.60965 0.056956 -1.38777e-08)
(4.72008 0.0842354 -1.39209e-08)
(4.87464 0.0986332 -1.35762e-08)
(5.00632 0.101656 -1.35292e-08)
(5.13665 0.0973862 -1.38846e-08)
(5.23829 0.088025 -1.47374e-08)
(5.32384 0.0778865 -1.51852e-08)
(5.38943 0.0673639 -1.51718e-08)
(5.43917 0.0586327 -1.46201e-08)
(5.47841 0.0506279 -1.41047e-08)
(5.50585 0.0448558 -1.38342e-08)
(5.52828 0.0389495 -1.40409e-08)
(5.54449 0.0358255 -1.45026e-08)
(5.55587 0.0297241 -1.47364e-08)
(5.56769 0.0302942 -1.45498e-08)
(5.57063 0.0197122 -1.40422e-08)
(5.57991 0.0267932 -1.38137e-08)
(5.5816 0.00452386 -1.36762e-08)
(5.57929 0.00918173 -1.45563e-08)
(4.49835 0.0176798 -1.38271e-08)
(4.5837 0.0346877 -1.37809e-08)
(4.68131 0.0464716 -1.37776e-08)
(4.831 0.0522996 -1.35023e-08)
(4.97189 0.0541865 -1.35555e-08)
(5.1232 0.0524009 -1.38466e-08)
(5.25521 0.04899 -1.44686e-08)
(5.37777 0.0443311 -1.4732e-08)
(5.4848 0.0401 -1.47049e-08)
(5.57777 0.0358694 -1.43067e-08)
(5.66255 0.0326868 -1.40584e-08)
(5.73337 0.0296865 -1.4054e-08)
(5.80278 0.0275226 -1.43192e-08)
(5.85818 0.025601 -1.4667e-08)
(5.91923 0.0234584 -1.46983e-08)
(5.95988 0.0232629 -1.4452e-08)
(6.02149 0.0190449 -1.38834e-08)
(6.03563 0.0236483 -1.35854e-08)
(6.11358 0.0135845 -1.32702e-08)
(6.07039 0.0285465 -1.37796e-08)
(4.49901 -2.82476e-08 -1.37889e-08)
(4.59612 8.99116e-08 -1.37032e-08)
(4.6948 -1.04054e-07 -1.37103e-08)
(4.84346 2.9241e-07 -1.35501e-08)
(4.98042 -1.18327e-07 -1.37511e-08)
(5.13003 7.89953e-07 -1.39781e-08)
(5.26214 8.9554e-08 -1.42782e-08)
(5.38769 1.83187e-06 -1.4161e-08)
(5.49904 1.33945e-06 -1.39966e-08)
(5.59886 4.40346e-06 -1.38251e-08)
(5.69041 5.31028e-06 -1.39746e-08)
(5.77111 1.22771e-05 -1.42408e-08)
(5.84801 1.38561e-05 -1.44506e-08)
(5.91639 3.90919e-05 -1.44563e-08)
(5.98395 2.93961e-05 -1.41776e-08)
(6.0416 0.00011775 -1.40153e-08)
(6.10789 7.92067e-05 -1.38956e-08)
(6.14369 0.000287251 -1.41197e-08)
(6.23288 0.000307234 -1.43797e-08)
(6.2131 0.000586834 -1.45785e-08)
(4.49835 -0.0176798 -1.37162e-08)
(4.5837 -0.0346875 -1.35968e-08)
(4.68131 -0.0464718 -1.3615e-08)
(4.831 -0.052299 -1.35871e-08)
(4.97189 -0.0541868 -1.39101e-08)
(5.1232 -0.0523993 -1.40333e-08)
(5.25521 -0.0489901 -1.39611e-08)
(5.37777 -0.0443271 -1.3468e-08)
(5.4848 -0.0400985 -1.32167e-08)
(5.57778 -0.035859 -1.33222e-08)
(5.66254 -0.03268 -1.38804e-08)
(5.73338 -0.0296572 -1.43689e-08)
(5.80278 -0.0275051 -1.44506e-08)
(5.8582 -0.0255117 -1.40941e-08)
(5.91926 -0.0234221 -1.35809e-08)
(5.95992 -0.023008 -1.36368e-08)
(6.02161 -0.0189284 -1.40411e-08)
(6.03576 -0.0230506 -1.48255e-08)
(6.11393 -0.0130514 -1.55113e-08)
(6.07078 -0.0273622 -1.52381e-08)
(4.49996 -0.0220868 -1.36581e-08)
(4.60965 -0.0569559 -1.35185e-08)
(4.72008 -0.0842356 -1.35344e-08)
(4.87464 -0.0986328 -1.36025e-08)
(5.00631 -0.101656 -1.39969e-08)
(5.13665 -0.0973849 -1.39279e-08)
(5.23829 -0.0880247 -1.35396e-08)
(5.32384 -0.0778832 -1.29009e-08)
(5.38942 -0.0673616 -1.28171e-08)
(5.43919 -0.0586246 -1.32328e-08)
(5.4784 -0.0506191 -1.40432e-08)
(5.50589 -0.0448333 -1.46159e-08)
(5.52827 -0.0389269 -1.45532e-08)
(5.54459 -0.0357552 -1.4061e-08)
(5.5559 -0.0296785 -1.35401e-08)
(5.5679 -0.0300842 -1.38212e-08)
(5.57085 -0.0195932 -1.42589e-08)
(5.58036 -0.0262884 -1.49624e-08)
(5.58238 -0.00403469 -1.50964e-08)
(5.58044 -0.00820501 -1.41841e-08)
(4.51029 -0.0584475 -1.33956e-08)
(4.63263 -0.113064 -1.31957e-08)
(4.71698 -0.146072 -1.30364e-08)
(4.78733 -0.157256 -1.28012e-08)
(4.7978 -0.153588 -1.30516e-08)
(4.78677 -0.138888 -1.32354e-08)
(4.74641 -0.120955 -1.33471e-08)
(4.69605 -0.101286 -1.32263e-08)
(4.63973 -0.0848728 -1.34193e-08)
(4.57844 -0.0696965 -1.36589e-08)
(4.52274 -0.0589476 -1.389e-08)
(4.46247 -0.0489755 -1.37433e-08)
(4.4137 -0.0428788 -1.32644e-08)
(4.35839 -0.0362754 -1.27661e-08)
(4.31849 -0.0324782 -1.24455e-08)
(4.26838 -0.0289403 -1.26692e-08)
(4.23806 -0.0238735 -1.27822e-08)
(4.19308 -0.0280791 -1.32996e-08)
(4.16754 -0.0140784 -1.31256e-08)
(4.12811 -0.035291 -1.32069e-08)
(4.45208 -0.0663056 -1.33076e-08)
(4.21024 -0.122437 -1.31973e-08)
(3.82448 -0.134128 -1.30417e-08)
(3.44857 -0.119628 -1.31147e-08)
(3.07863 -0.0948908 -1.36585e-08)
(2.77139 -0.0707098 -1.40519e-08)
(2.51221 -0.0479083 -1.41874e-08)
(2.31034 -0.0308908 -1.38953e-08)
(2.15433 -0.0167251 -1.36611e-08)
(2.03169 -0.00768996 -1.34394e-08)
(1.94339 -0.000145649 -1.32653e-08)
(1.8678 0.0032697 -1.28708e-08)
(1.81689 0.00745517 -1.24888e-08)
(1.76786 0.00718518 -1.2275e-08)
(1.73463 0.0114789 -1.22762e-08)
(1.70715 0.00707815 -1.25044e-08)
(1.67153 0.0159403 -1.26661e-08)
(1.68207 0.00680088 -1.31095e-08)
(1.60986 0.0276817 -1.32832e-08)
(1.71481 0.0541222 -1.39106e-08)
(4.4936 0.193014 -0.00520371)
(3.71772 0.281891 -0.00357414)
(3.10551 0.243808 -0.00436708)
(2.50985 0.167111 -0.00331522)
(2.22765 0.116909 -0.00407454)
(1.93513 0.0832593 -0.00323938)
(1.84478 0.0672735 -0.00391396)
(1.68635 0.0582931 -0.00320099)
(1.65625 0.0543667 -0.0037763)
(1.55074 0.0522985 -0.00315543)
(1.53672 0.0507709 -0.00364083)
(1.45776 0.0510538 -0.00309932)
(1.44814 0.0484395 -0.00350914)
(1.38594 0.0518586 -0.00303761)
(1.37771 0.0424958 -0.00338436)
(1.32992 0.0557681 -0.00297251)
(1.31717 0.0155692 -0.00327024)
(1.31703 0.0611028 -0.00290304)
(1.23992 -0.127617 -0.00319672)
(1.66118 -0.172664 -0.00277145)
(4.63037 0.109915 -0.00331916)
(4.65401 0.23471 -0.00200277)
(4.78722 0.214715 -0.00275542)
(4.64409 0.161892 -0.00171796)
(4.61073 0.106697 -0.00247201)
(4.43036 0.0634764 -0.00163449)
(4.37542 0.0348898 -0.00230475)
(4.22351 0.0167709 -0.00159006)
(4.17804 0.00494643 -0.00216214)
(4.05757 -0.00273946 -0.00154093)
(4.02172 -0.00807471 -0.00202377)
(3.92537 -0.0129501 -0.00148356)
(3.89745 -0.0142511 -0.0018906)
(3.81703 -0.0204607 -0.00142229)
(3.79901 -0.0147153 -0.00176222)
(3.72062 -0.0279561 -0.00135852)
(3.72708 -0.0053746 -0.00163208)
(3.60596 -0.0266981 -0.00128485)
(3.69356 0.00838094 -0.00147296)
(3.26993 0.0641389 -0.00107691)
(4.56155 0.0617215 -0.00462503)
(4.71097 0.187448 -0.00339981)
(5.03847 0.219116 -0.00411924)
(5.14409 0.196864 -0.00306961)
(5.33009 0.166722 -0.00381136)
(5.33899 0.135548 -0.00296736)
(5.42501 0.114044 -0.00363764)
(5.395 0.0975534 -0.00292278)
(5.43746 0.086012 -0.00349732)
(5.39974 0.0773279 -0.00287698)
(5.42167 0.069965 -0.00336245)
(5.38599 0.0649719 -0.00282218)
(5.39461 0.0587454 -0.00323363)
(5.36649 0.056753 -0.00276326)
(5.36083 0.0481554 -0.0031148)
(5.35204 0.0512831 -0.00270131)
(5.31821 0.0287172 -0.00301367)
(5.36224 0.0424344 -0.00263858)
(5.27819 -0.0362667 -0.00298378)
(5.42233 -0.0472685 -0.00258422)
(4.51901 0.0291422 -0.00315208)
(4.57335 0.0724478 -0.00204419)
(4.92344 0.0768125 -0.00275383)
(5.08385 0.069193 -0.00172594)
(5.35393 0.056409 -0.00246394)
(5.44975 0.0440436 -0.00162052)
(5.62019 0.034891 -0.00228759)
(5.67101 0.0281752 -0.00157211)
(5.78579 0.0233116 -0.00214396)
(5.81646 0.0196146 -0.00152313)
(5.89974 0.0166583 -0.00200512)
(5.91901 0.0138571 -0.0014655)
(5.98257 0.0122021 -0.00187152)
(5.99158 0.00908653 -0.00140523)
(6.04578 0.00959561 -0.00174331)
(6.03658 0.00479478 -0.0013415)
(6.09731 0.00924252 -0.00160703)
(6.02891 0.00459315 -0.00125985)
(6.12467 0.00622502 -0.00141101)
(5.83597 0.03003 -0.00107475)
(4.55126 8.26373e-09 -0.0045359)
(4.65692 8.23391e-08 -0.00342948)
(4.97892 2.44573e-09 -0.00412692)
(5.12978 2.0835e-07 -0.00308277)
(5.39132 4.09001e-08 -0.00381578)
(5.49061 5.3367e-07 -0.00296753)
(5.66827 4.12985e-07 -0.00363575)
(5.73116 1.27731e-06 -0.0029199)
(5.85926 1.81611e-06 -0.00349449)
(5.90665 2.68424e-06 -0.00287397)
(6.00471 6.22671e-06 -0.00335935)
(6.04436 6.35272e-06 -0.00281898)
(6.11886 1.78704e-05 -0.00323046)
(6.15604 1.8711e-05 -0.00276036)
(6.20673 4.49293e-05 -0.00311274)
(6.25344 5.54869e-05 -0.00269913)
(6.27062 0.000120697 -0.00301594)
(6.35063 0.00015495 -0.00263783)
(6.33314 0.000402142 -0.00300075)
(6.43618 0.000592258 -0.00260882)
(4.51901 -0.0291422 -0.00315208)
(4.57335 -0.0724476 -0.00204419)
(4.92344 -0.0768126 -0.00275383)
(5.08385 -0.0691925 -0.00172594)
(5.35393 -0.0564091 -0.00246394)
(5.44975 -0.0440422 -0.00162052)
(5.62019 -0.0348909 -0.00228759)
(5.67102 -0.0281712 -0.00157211)
(5.78579 -0.0233104 -0.00214396)
(5.81646 -0.0196042 -0.00152314)
(5.89974 -0.0166531 -0.00200511)
(5.91903 -0.0138282 -0.0014655)
(5.98257 -0.0121876 -0.00187151)
(5.99163 -0.00899813 -0.00140523)
(6.04579 -0.00956465 -0.00174329)
(6.03668 -0.0045278 -0.00134148)
(6.0974 -0.00914952 -0.00160698)
(6.02917 -0.00390018 -0.00125979)
(6.12512 -0.00582776 -0.00141106)
(5.83672 -0.0285613 -0.00107459)
(4.56155 -0.0617214 -0.00462503)
(4.71097 -0.187448 -0.00339981)
(5.03847 -0.219116 -0.00411924)
(5.14409 -0.196864 -0.00306961)
(5.33009 -0.166722 -0.00381136)
(5.33899 -0.135547 -0.00296736)
(5.42501 -0.114043 -0.00363763)
(5.395 -0.0975516 -0.00292279)
(5.43746 -0.0860084 -0.00349732)
(5.39976 -0.0773235 -0.00287699)
(5.42167 -0.0699534 -0.00336243)
(5.38604 -0.0649601 -0.0028222)
(5.39461 -0.0587128 -0.00323359)
(5.3666 -0.056714 -0.00276331)
(5.36087 -0.0480741 -0.00311473)
(5.3523 -0.0511523 -0.00270139)
(5.31846 -0.028497 -0.00301354)
(5.36283 -0.04209 -0.00263872)
(5.27903 0.0369942 -0.00298347)
(5.42387 0.0480829 -0.00258421)
(4.63037 -0.109915 -0.00331916)
(4.65401 -0.23471 -0.00200277)
(4.78722 -0.214715 -0.00275542)
(4.64409 -0.161892 -0.00171796)
(4.61073 -0.106697 -0.00247201)
(4.43037 -0.0634758 -0.00163449)
(4.37542 -0.0348896 -0.00230475)
(4.22352 -0.0167692 -0.00159006)
(4.17804 -0.00494527 -0.00216214)
(4.0576 0.0027442 -0.00154094)
(4.02172 0.00807784 -0.00202376)
(3.92543 0.0129648 -0.00148358)
(3.89745 0.0142564 -0.00189056)
(3.81721 0.0205083 -0.00142232)
(3.79904 0.0147161 -0.00176214)
(3.72108 0.0281003 -0.00135859)
(3.72727 0.00537158 -0.00163191)
(3.60718 0.0270611 -0.00128494)
(3.69424 -0.00818842 -0.00147274)
(3.27363 -0.0631858 -0.00107696)
(4.4936 -0.193014 -0.00520368)
(3.71772 -0.281891 -0.00357412)
(3.10551 -0.243808 -0.00436705)
(2.50985 -0.167111 -0.00331519)
(2.22765 -0.116908 -0.00407451)
(1.93513 -0.0832593 -0.00323936)
(1.84479 -0.0672731 -0.00391393)
(1.68635 -0.0582934 -0.00320096)
(1.65626 -0.0543652 -0.00377627)
(1.55075 -0.0522993 -0.00315541)
(1.53673 -0.050766 -0.00364079)
(1.4578 -0.0510566 -0.0030993)
(1.44818 -0.0484254 -0.00350909)
(1.38603 -0.0518634 -0.00303762)
(1.37785 -0.0424608 -0.00338425)
(1.33014 -0.0557664 -0.00297264)
(1.31762 -0.0154952 -0.00326991)
(1.31756 -0.0610968 -0.00290354)
(1.24104 0.127678 -0.0031955)
(1.66328 0.172189 -0.00277332)
(3.50773 0.420193 27.0306)
(2.78904 0.150272 27.0655)
(2.02729 0.0447815 27.0646)
(1.8086 -0.0235101 27.0688)
(1.5214 -0.0444845 27.0633)
(1.49386 -0.0512012 27.064)
(1.3281 -0.0521702 27.0591)
(1.34188 -0.0510157 27.0608)
(1.2186 -0.0497262 27.0585)
(1.2405 -0.0484471 27.0615)
(1.14092 -0.0468116 27.0611)
(1.16328 -0.0467005 27.0647)
(1.08032 -0.0435721 27.0654)
(1.10112 -0.0462552 27.0689)
(1.03009 -0.0374461 27.0699)
(1.04924 -0.0475748 27.0721)
(0.985013 -0.0164634 27.0731)
(0.991571 -0.0454336 27.0728)
(0.959277 0.0944704 27.0755)
(0.721438 0.119861 27.0662)
(4.59744 0.549363 27.056)
(4.77961 0.379377 27.0821)
(4.47808 0.290954 27.0778)
(4.41052 0.19161 27.0803)
(4.10669 0.135055 27.073)
(4.0627 0.103396 27.0674)
(3.82607 0.083676 27.0561)
(3.81304 0.072259 27.0507)
(3.62748 0.0635993 27.0454)
(3.6315 0.0581149 27.0456)
(3.4821 0.0528042 27.0463)
(3.49468 0.0503994 27.0506)
(3.37075 0.0451041 27.0555)
(3.38883 0.0466509 27.0622)
(3.28073 0.0360559 27.0695)
(3.30971 0.0462461 27.0751)
(3.20229 0.0173991 27.0831)
(3.27407 0.0371291 27.0821)
(3.12723 -0.0174902 27.0932)
(3.45979 -0.0765498 27.0653)
(4.71714 0.288966 27.0577)
(5.19185 0.212046 27.0783)
(5.29939 0.191163 27.0665)
(5.53458 0.13115 27.0669)
(5.47558 0.0942334 27.0577)
(5.5895 0.0688169 27.0525)
(5.49499 0.0505923 27.0364)
(5.56442 0.0380187 27.0254)
(5.4699 0.0282021 27.0117)
(5.51838 0.0202785 27.0072)
(5.4325 0.0146755 27.0024)
(5.46755 0.00866554 27.0039)
(5.39314 0.00623615 27.0043)
(5.41591 0.000322947 27.0099)
(5.35761 0.00227389 27.0168)
(5.36014 -0.00562948 27.0284)
(5.33042 0.0073499 27.0409)
(5.28102 -0.00482272 27.0527)
(5.29573 0.0397201 27.0647)
(5.13257 0.0528067 27.0537)
(4.69515 0.16941 27.0666)
(5.10884 0.1317 27.0873)
(5.31608 0.124732 27.0769)
(5.65335 0.0951924 27.0754)
(5.71815 0.0767047 27.068)
(5.93631 0.0645674 27.0621)
(5.94856 0.0557316 27.0476)
(6.10123 0.0498805 27.0337)
(6.09339 0.0447828 27.0187)
(6.20724 0.0409336 27.0101)
(6.19018 0.0371916 27.0042)
(6.27899 0.0345705 27.0028)
(6.25534 0.0310378 27.001)
(6.32925 0.0301117 27.0025)
(6.29747 0.0247721 27.0048)
(6.37038 0.0272674 27.0144)
(6.32386 0.0156752 27.0254)
(6.42627 0.0213243 27.0421)
(6.35164 0.00415586 27.0565)
(6.57802 -0.0113135 27.0497)
(4.69649 -9.76562e-08 27.0618)
(5.1054 -5.78783e-08 27.0809)
(5.32285 -1.7996e-07 27.0675)
(5.67542 5.57931e-08 27.0663)
(5.75553 -2.52327e-07 27.0568)
(5.99029 4.07572e-07 27.052)
(6.02221 -6.96744e-10 27.0359)
(6.19401 1.46914e-06 27.0229)
(6.20908 1.26917e-06 27.0057)
(6.34199 4.42275e-06 26.9976)
(6.34947 4.79929e-06 26.9898)
(6.45329 1.43325e-05 26.9892)
(6.45734 1.21688e-05 26.9856)
(6.53472 4.98677e-05 26.9871)
(6.54257 2.47452e-05 26.9866)
(6.5866 0.000162221 26.9957)
(6.61481 6.80158e-05 27.0047)
(6.59682 0.000448285 27.0228)
(6.65811 0.000234516 27.0378)
(6.53831 0.00073073 27.0336)
(4.69515 -0.169411 27.0666)
(5.10884 -0.1317 27.0873)
(5.31608 -0.124733 27.0769)
(5.65335 -0.0951925 27.0754)
(5.71814 -0.0767051 27.0679)
(5.93631 -0.064567 27.0621)
(5.94856 -0.0557312 27.0476)
(6.10123 -0.0498789 27.0338)
(6.09339 -0.0447791 27.0187)
(6.20725 -0.0409291 27.0102)
(6.19018 -0.0371783 27.0041)
(6.27902 -0.0345569 27.0029)
(6.25534 -0.0310021 27.0009)
(6.3293 -0.0300631 27.0026)
(6.29751 -0.0246909 27.0046)
(6.37051 -0.0270946 27.0145)
(6.32404 -0.0154811 27.0252)
(6.42653 -0.0208442 27.0423)
(6.35214 -0.00348233 27.0564)
(6.57874 0.0125396 27.0498)
(4.71714 -0.288967 27.0577)
(5.19185 -0.212046 27.0783)
(5.29939 -0.191163 27.0665)
(5.53458 -0.13115 27.0669)
(5.47558 -0.0942337 27.0576)
(5.5895 -0.0688165 27.0525)
(5.49499 -0.0505922 27.0364)
(5.56443 -0.0380168 27.0255)
(5.46989 -0.0282 27.0117)
(5.5184 -0.0202722 27.0073)
(5.43249 -0.0146691 27.0023)
(5.46761 -0.00864466 27.004)
(5.39314 -0.00622297 27.004)
(5.41606 -0.000250898 27.0102)
(5.35765 -0.00225713 27.0163)
(5.36046 0.00585386 27.0291)
(5.33067 -0.00732562 27.04)
(5.28176 0.00541347 27.054)
(5.29671 -0.0394468 27.0629)
(5.13466 -0.0515523 27.0562)
(4.59744 -0.549363 27.056)
(4.77961 -0.379378 27.0821)
(4.47808 -0.290954 27.0778)
(4.41052 -0.191611 27.0803)
(4.10669 -0.135055 27.073)
(4.06271 -0.103396 27.0674)
(3.82607 -0.0836756 27.0561)
(3.81305 -0.0722591 27.0507)
(3.62748 -0.0635967 27.0454)
(3.63152 -0.0581147 27.0457)
(3.48211 -0.0527959 27.0462)
(3.49473 -0.0503968 27.0508)
(3.37079 -0.0450824 27.0552)
(3.38897 -0.0466352 27.0626)
(3.28087 -0.0360073 27.0689)
(3.31003 -0.0461688 27.0762)
(3.2028 -0.0172873 27.0813)
(3.27475 -0.0369021 27.085)
(3.12865 0.0178389 27.0879)
(3.46171 0.0767912 27.075)
(3.50773 -0.420194 27.0306)
(2.78904 -0.150273 27.0655)
(2.02729 -0.0447818 27.0646)
(1.8086 0.0235097 27.0688)
(1.5214 0.044484 27.0633)
(1.49386 0.0512009 27.064)
(1.32811 0.0521695 27.0591)
(1.34188 0.0510158 27.0608)
(1.21861 0.0497252 27.0585)
(1.24051 0.0484481 27.0615)
(1.14093 0.046809 27.0611)
(1.16331 0.0467034 27.0647)
(1.08035 0.0435641 27.0654)
(1.1012 0.0462606 27.069)
(1.03018 0.0374293 27.0697)
(1.04942 0.0475944 27.0725)
(0.985341 0.0164153 27.0725)
(0.992002 0.0454823 27.0739)
(0.960271 -0.0944282 27.0734)
(0.7231 -0.119406 27.0719)
(0.874928 -0.160291 -27.0982)
(0.957459 -0.144902 -27.1985)
(0.896445 -0.114473 -27.2748)
(0.894575 -0.111453 -27.3499)
(0.846616 -0.111488 -27.4125)
(0.844067 -0.111728 -27.462)
(0.805428 -0.112242 -27.494)
(0.803252 -0.112284 -27.5151)
(0.771935 -0.112494 -27.5266)
(0.770732 -0.112399 -27.5338)
(0.745326 -0.112476 -27.5372)
(0.745285 -0.112355 -27.5395)
(0.724539 -0.112385 -27.5404)
(0.725463 -0.112274 -27.5414)
(0.708211 -0.112288 -27.5418)
(0.70968 -0.112194 -27.5424)
(0.694861 -0.112201 -27.5427)
(0.696386 -0.112122 -27.5432)
(0.6831 -0.112128 -27.5435)
(0.684243 -0.112063 -27.5439)
(0.671835 -0.11207 -27.5442)
(0.672359 -0.112017 -27.5446)
(0.66054 -0.112025 -27.5449)
(0.660535 -0.111982 -27.5453)
(0.649388 -0.111991 -27.5456)
(0.649207 -0.111954 -27.546)
(0.638989 -0.111962 -27.5463)
(0.638989 -0.111929 -27.5466)
(0.629869 -0.111935 -27.5469)
(0.630233 -0.111903 -27.5472)
(0.622208 -0.111906 -27.5475)
(0.622946 -0.111874 -27.5478)
(0.615876 -0.111875 -27.5481)
(0.616872 -0.111844 -27.5484)
(0.610504 -0.111844 -27.5486)
(0.611525 -0.111815 -27.5489)
(0.60554 -0.111816 -27.5492)
(0.606312 -0.111791 -27.5494)
(0.600458 -0.111793 -27.5497)
(0.600845 -0.111772 -27.5499)
(0.595094 -0.111774 -27.5502)
(0.595217 -0.111755 -27.5505)
(0.589777 -0.111758 -27.5507)
(0.589917 -0.111741 -27.551)
(0.585031 -0.111743 -27.5513)
(0.585402 -0.111726 -27.5515)
(0.581135 -0.111728 -27.5518)
(0.581741 -0.11171 -27.552)
(0.577941 -0.11171 -27.5522)