/*--------------------------------*- C++ -*----------------------------------*\
  =========                 |
  \\      /  F ield         | OpenFOAM: The Open Source CFD Toolbox
   \\    /   O peration     | Website:  https://openfoam.org
    \\  /    A nd           | Version:  7
     \\/     M anipulation  |
\*---------------------------------------------------------------------------*/
FoamFile
{
    version     2.0;
    format      ascii;
    class       volScalarField;
    location    "0.0875";
    object      pPrime2Mean;
}
// * * * * * * * * * * * * * * * * * * * * * * * * * * * * * * * * * * * * * //

dimensions      [2 -2 -4 0 0 0 0];

internalField   nonuniform List<scalar> 
1440
(
5.89668e+06
5.86127e+06
5.83007e+06
5.80496e+06
5.78386e+06
5.76368e+06
5.74287e+06
5.72143e+06
5.69983e+06
5.67841e+06
5.65718e+06
5.63603e+06
5.61483e+06
5.59349e+06
5.57193e+06
5.55006e+06
5.5278e+06
5.50505e+06
5.48174e+06
5.4578e+06
5.43319e+06
5.40791e+06
5.38195e+06
5.35531e+06
5.32801e+06
5.30007e+06
5.27152e+06
5.24239e+06
5.21272e+06
5.18253e+06
5.15185e+06
5.12073e+06
5.08919e+06
5.05726e+06
5.02495e+06
4.99229e+06
4.9593e+06
4.926e+06
4.89239e+06
4.85848e+06
4.82429e+06
4.78982e+06
4.75507e+06
4.72006e+06
4.68478e+06
4.64924e+06
4.61345e+06
4.5774e+06
4.54111e+06
4.50459e+06
4.46783e+06
4.43084e+06
4.39364e+06
4.35622e+06
4.31859e+06
4.28076e+06
4.24273e+06
4.20451e+06
4.16611e+06
4.12752e+06
4.08874e+06
4.0498e+06
4.01068e+06
3.97139e+06
3.93194e+06
3.89232e+06
3.85255e+06
3.81263e+06
3.77255e+06
3.73233e+06
3.69196e+06
3.65146e+06
3.61082e+06
3.57004e+06
3.52914e+06
3.48812e+06
3.44697e+06
3.40571e+06
3.36433e+06
3.32284e+06
3.28125e+06
3.23956e+06
3.19777e+06
3.15588e+06
3.1139e+06
3.07184e+06
3.02969e+06
2.98746e+06
2.94516e+06
2.90279e+06
2.86035e+06
2.81785e+06
2.77529e+06
2.73268e+06
2.69001e+06
2.6473e+06
2.60453e+06
2.56171e+06
2.51883e+06
2.47589e+06
2.43289e+06
2.38981e+06
2.34666e+06
2.30341e+06
2.26007e+06
2.21665e+06
2.17313e+06
2.12955e+06
2.08591e+06
2.04225e+06
1.99861e+06
1.95503e+06
1.91158e+06
1.86831e+06
1.82531e+06
1.78265e+06
1.74041e+06
1.69869e+06
1.65752e+06
1.61725e+06
5.89656e+06
5.86154e+06
5.83075e+06
5.80591e+06
5.78496e+06
5.76489e+06
5.7442e+06
5.72281e+06
5.70118e+06
5.67965e+06
5.65829e+06
5.63701e+06
5.61567e+06
5.59419e+06
5.57249e+06
5.55047e+06
5.52806e+06
5.50518e+06
5.48175e+06
5.45771e+06
5.43304e+06
5.40771e+06
5.38171e+06
5.35506e+06
5.32775e+06
5.29981e+06
5.27127e+06
5.24215e+06
5.21249e+06
5.18231e+06
5.15165e+06
5.12055e+06
5.08902e+06
5.0571e+06
5.0248e+06
4.99215e+06
4.95917e+06
4.92588e+06
4.89228e+06
4.85838e+06
4.8242e+06
4.78974e+06
4.755e+06
4.71999e+06
4.68472e+06
4.64918e+06
4.61339e+06
4.57736e+06
4.54107e+06
4.50455e+06
4.46779e+06
4.43081e+06
4.39361e+06
4.35619e+06
4.31857e+06
4.28074e+06
4.24272e+06
4.2045e+06
4.1661e+06
4.12751e+06
4.08874e+06
4.04979e+06
4.01068e+06
3.97139e+06
3.93194e+06
3.89233e+06
3.85256e+06
3.81263e+06
3.77256e+06
3.73233e+06
3.69197e+06
3.65146e+06
3.61082e+06
3.57005e+06
3.52915e+06
3.48812e+06
3.44698e+06
3.40571e+06
3.36434e+06
3.32285e+06
3.28126e+06
3.23957e+06
3.19777e+06
3.15589e+06
3.11391e+06
3.07185e+06
3.0297e+06
2.98747e+06
2.94517e+06
2.9028e+06
2.86036e+06
2.81786e+06
2.7753e+06
2.73269e+06
2.69002e+06
2.6473e+06
2.60453e+06
2.56171e+06
2.51883e+06
2.4759e+06
2.43289e+06
2.38982e+06
2.34666e+06
2.30341e+06
2.26007e+06
2.21665e+06
2.17313e+06
2.12955e+06
2.08591e+06
2.04225e+06
1.9986e+06
1.95503e+06
1.91157e+06
1.86831e+06
1.8253e+06
1.78264e+06
1.74039e+06
1.69865e+06
1.65744e+06
1.61709e+06
5.89671e+06
5.86184e+06
5.83125e+06
5.80657e+06
5.78572e+06
5.76576e+06
5.74518e+06
5.72388e+06
5.70226e+06
5.68067e+06
5.65919e+06
5.63774e+06
5.61621e+06
5.59448e+06
5.57249e+06
5.55016e+06
5.52743e+06
5.50423e+06
5.48055e+06
5.45632e+06
5.43151e+06
5.40611e+06
5.38009e+06
5.35346e+06
5.32622e+06
5.29838e+06
5.26995e+06
5.24096e+06
5.21143e+06
5.18138e+06
5.15085e+06
5.11986e+06
5.08844e+06
5.05662e+06
5.02441e+06
4.99183e+06
4.95892e+06
4.92567e+06
4.89211e+06
4.85824e+06
4.82408e+06
4.78963e+06
4.7549e+06
4.7199e+06
4.68463e+06
4.6491e+06
4.61331e+06
4.57727e+06
4.54099e+06
4.50447e+06
4.46772e+06
4.43074e+06
4.39354e+06
4.35613e+06
4.31851e+06
4.28068e+06
4.24266e+06
4.20445e+06
4.16604e+06
4.12745e+06
4.08869e+06
4.04974e+06
4.01062e+06
3.97134e+06
3.93189e+06
3.89227e+06
3.8525e+06
3.81258e+06
3.7725e+06
3.73228e+06
3.69191e+06
3.65141e+06
3.61077e+06
3.56999e+06
3.52909e+06
3.48807e+06
3.44692e+06
3.40566e+06
3.36428e+06
3.3228e+06
3.28121e+06
3.23951e+06
3.19772e+06
3.15583e+06
3.11386e+06
3.07179e+06
3.02965e+06
2.98742e+06
2.94512e+06
2.90275e+06
2.86031e+06
2.81781e+06
2.77525e+06
2.73264e+06
2.68997e+06
2.64725e+06
2.60449e+06
2.56167e+06
2.51879e+06
2.47585e+06
2.43285e+06
2.38977e+06
2.34662e+06
2.30337e+06
2.26003e+06
2.21661e+06
2.17309e+06
2.12951e+06
2.08587e+06
2.04221e+06
1.99857e+06
1.95499e+06
1.91153e+06
1.86827e+06
1.82526e+06
1.78259e+06
1.74033e+06
1.69858e+06
1.65733e+06
1.61695e+06
5.89689e+06
5.86208e+06
5.83159e+06
5.80701e+06
5.78626e+06
5.76637e+06
5.74585e+06
5.72457e+06
5.70294e+06
5.68127e+06
5.65967e+06
5.63807e+06
5.61635e+06
5.59443e+06
5.57224e+06
5.54971e+06
5.52679e+06
5.50345e+06
5.47965e+06
5.45536e+06
5.43052e+06
5.40512e+06
5.37912e+06
5.35254e+06
5.32536e+06
5.29758e+06
5.26922e+06
5.24031e+06
5.21085e+06
5.18088e+06
5.15041e+06
5.11949e+06
5.08812e+06
5.05635e+06
5.02418e+06
4.99164e+06
4.95875e+06
4.92553e+06
4.89198e+06
4.85812e+06
4.82397e+06
4.78953e+06
4.7548e+06
4.7198e+06
4.68453e+06
4.649e+06
4.61321e+06
4.57717e+06
4.54089e+06
4.50437e+06
4.46762e+06
4.43065e+06
4.39345e+06
4.35604e+06
4.31842e+06
4.2806e+06
4.24259e+06
4.20437e+06
4.16597e+06
4.12739e+06
4.08862e+06
4.04968e+06
4.01056e+06
3.97128e+06
3.93183e+06
3.89221e+06
3.85244e+06
3.81252e+06
3.77244e+06
3.73222e+06
3.69186e+06
3.65135e+06
3.61071e+06
3.56994e+06
3.52904e+06
3.48802e+06
3.44687e+06
3.40561e+06
3.36423e+06
3.32275e+06
3.28115e+06
3.23946e+06
3.19767e+06
3.15578e+06
3.11381e+06
3.07174e+06
3.0296e+06
2.98737e+06
2.94507e+06
2.9027e+06
2.86026e+06
2.81776e+06
2.77521e+06
2.73259e+06
2.68993e+06
2.64721e+06
2.60445e+06
2.56163e+06
2.51875e+06
2.47581e+06
2.43281e+06
2.38974e+06
2.34658e+06
2.30333e+06
2.26e+06
2.21657e+06
2.17306e+06
2.12947e+06
2.08584e+06
2.04218e+06
1.99853e+06
1.95495e+06
1.9115e+06
1.86823e+06
1.82522e+06
1.78255e+06
1.74028e+06
1.69852e+06
1.65726e+06
1.61684e+06
5.89704e+06
5.86225e+06
5.83181e+06
5.80731e+06
5.78661e+06
5.76677e+06
5.74628e+06
5.72501e+06
5.70336e+06
5.68165e+06
5.65999e+06
5.63829e+06
5.61648e+06
5.59447e+06
5.57218e+06
5.54955e+06
5.52654e+06
5.50311e+06
5.47923e+06
5.45487e+06
5.42998e+06
5.40454e+06
5.37853e+06
5.35194e+06
5.32476e+06
5.297e+06
5.26867e+06
5.23978e+06
5.21036e+06
5.18043e+06
5.15001e+06
5.11912e+06
5.0878e+06
5.05606e+06
5.02392e+06
4.99142e+06
4.95855e+06
4.92535e+06
4.89183e+06
4.85799e+06
4.82384e+06
4.78941e+06
4.75469e+06
4.71969e+06
4.68443e+06
4.6489e+06
4.61312e+06
4.57708e+06
4.54081e+06
4.50429e+06
4.46754e+06
4.43057e+06
4.39338e+06
4.35598e+06
4.31836e+06
4.28055e+06
4.24253e+06
4.20432e+06
4.16592e+06
4.12734e+06
4.08857e+06
4.04963e+06
4.01052e+06
3.97123e+06
3.93178e+06
3.89217e+06
3.8524e+06
3.81248e+06
3.77241e+06
3.73218e+06
3.69182e+06
3.65132e+06
3.61068e+06
3.5699e+06
3.529e+06
3.48798e+06
3.44683e+06
3.40557e+06
3.3642e+06
3.32271e+06
3.28112e+06
3.23943e+06
3.19764e+06
3.15575e+06
3.11377e+06
3.07171e+06
3.02956e+06
2.98734e+06
2.94504e+06
2.90267e+06
2.86023e+06
2.81773e+06
2.77518e+06
2.73256e+06
2.6899e+06
2.64718e+06
2.60442e+06
2.5616e+06
2.51872e+06
2.47579e+06
2.43278e+06
2.38971e+06
2.34655e+06
2.30331e+06
2.25997e+06
2.21655e+06
2.17303e+06
2.12945e+06
2.08581e+06
2.04215e+06
1.99851e+06
1.95493e+06
1.91147e+06
1.86821e+06
1.8252e+06
1.78252e+06
1.74025e+06
1.69847e+06
1.65721e+06
1.61676e+06
5.89712e+06
5.86235e+06
5.83193e+06
5.80746e+06
5.7868e+06
5.76697e+06
5.7465e+06
5.72523e+06
5.70358e+06
5.68185e+06
5.66015e+06
5.63842e+06
5.61657e+06
5.59451e+06
5.57216e+06
5.54948e+06
5.5264e+06
5.50291e+06
5.47898e+06
5.45457e+06
5.42965e+06
5.40419e+06
5.37816e+06
5.35157e+06
5.32441e+06
5.29667e+06
5.26837e+06
5.23951e+06
5.21012e+06
5.18022e+06
5.14983e+06
5.11898e+06
5.08768e+06
5.05597e+06
5.02385e+06
4.99136e+06
4.95852e+06
4.92532e+06
4.8918e+06
4.85797e+06
4.82383e+06
4.78939e+06
4.75467e+06
4.71967e+06
4.68441e+06
4.64888e+06
4.61309e+06
4.57706e+06
4.54078e+06
4.50426e+06
4.46751e+06
4.43054e+06
4.39335e+06
4.35595e+06
4.31834e+06
4.28052e+06
4.2425e+06
4.2043e+06
4.1659e+06
4.12731e+06
4.08855e+06
4.04961e+06
4.01049e+06
3.97121e+06
3.93176e+06
3.89215e+06
3.85238e+06
3.81246e+06
3.77238e+06
3.73216e+06
3.6918e+06
3.6513e+06
3.61066e+06
3.56988e+06
3.52898e+06
3.48796e+06
3.44681e+06
3.40555e+06
3.36417e+06
3.32269e+06
3.2811e+06
3.23941e+06
3.19761e+06
3.15573e+06
3.11375e+06
3.07169e+06
3.02954e+06
2.98732e+06
2.94502e+06
2.90265e+06
2.86021e+06
2.81771e+06
2.77515e+06
2.73254e+06
2.68988e+06
2.64716e+06
2.60439e+06
2.56158e+06
2.5187e+06
2.47577e+06
2.43276e+06
2.38969e+06
2.34653e+06
2.30329e+06
2.25995e+06
2.21653e+06
2.17301e+06
2.12943e+06
2.08579e+06
2.04213e+06
1.99849e+06
1.95491e+06
1.91145e+06
1.86819e+06
1.82518e+06
1.7825e+06
1.74023e+06
1.69844e+06
1.65717e+06
1.61672e+06
5.89713e+06
5.86235e+06
5.83194e+06
5.80747e+06
5.78681e+06
5.76699e+06
5.74651e+06
5.72525e+06
5.70359e+06
5.68186e+06
5.66016e+06
5.63843e+06
5.61658e+06
5.59451e+06
5.57216e+06
5.54947e+06
5.52639e+06
5.50289e+06
5.47896e+06
5.45454e+06
5.42962e+06
5.40416e+06
5.37814e+06
5.35155e+06
5.32439e+06
5.29665e+06
5.26835e+06
5.2395e+06
5.21012e+06
5.18022e+06
5.14984e+06
5.11899e+06
5.0877e+06
5.05599e+06
5.02388e+06
4.99139e+06
4.95854e+06
4.92535e+06
4.89183e+06
4.85799e+06
4.82384e+06
4.78941e+06
4.75468e+06
4.71968e+06
4.68441e+06
4.64888e+06
4.61309e+06
4.57705e+06
4.54077e+06
4.50426e+06
4.46751e+06
4.43054e+06
4.39335e+06
4.35594e+06
4.31833e+06
4.28051e+06
4.2425e+06
4.20429e+06
4.16589e+06
4.12731e+06
4.08855e+06
4.0496e+06
4.01049e+06
3.97121e+06
3.93176e+06
3.89215e+06
3.85238e+06
3.81246e+06
3.77238e+06
3.73216e+06
3.6918e+06
3.65129e+06
3.61065e+06
3.56988e+06
3.52898e+06
3.48796e+06
3.44681e+06
3.40555e+06
3.36417e+06
3.32269e+06
3.2811e+06
3.2394e+06
3.19761e+06
3.15572e+06
3.11375e+06
3.07168e+06
3.02954e+06
2.98731e+06
2.94501e+06
2.90264e+06
2.8602e+06
2.81771e+06
2.77515e+06
2.73254e+06
2.68987e+06
2.64716e+06
2.60439e+06
2.56157e+06
2.51869e+06
2.47576e+06
2.43276e+06
2.38968e+06
2.34653e+06
2.30328e+06
2.25995e+06
2.21652e+06
2.17301e+06
2.12942e+06
2.08579e+06
2.04213e+06
1.99848e+06
1.9549e+06
1.91145e+06
1.86818e+06
1.82517e+06
1.78249e+06
1.74022e+06
1.69843e+06
1.65717e+06
1.61671e+06
5.89706e+06
5.86227e+06
5.83184e+06
5.80734e+06
5.78665e+06
5.76681e+06
5.74632e+06
5.72506e+06
5.70341e+06
5.6817e+06
5.66002e+06
5.63833e+06
5.6165e+06
5.59448e+06
5.57218e+06
5.54953e+06
5.5265e+06
5.50306e+06
5.47917e+06
5.45479e+06
5.4299e+06
5.40446e+06
5.37845e+06
5.35186e+06
5.32469e+06
5.29695e+06
5.26863e+06
5.23976e+06
5.21036e+06
5.18045e+06
5.15004e+06
5.11917e+06
5.08786e+06
5.05613e+06
5.024e+06
4.9915e+06
4.95863e+06
4.92543e+06
4.89189e+06
4.85805e+06
4.82389e+06
4.78945e+06
4.75472e+06
4.71971e+06
4.68444e+06
4.6489e+06
4.61311e+06
4.57707e+06
4.54079e+06
4.50427e+06
4.46752e+06
4.43055e+06
4.39336e+06
4.35596e+06
4.31834e+06
4.28053e+06
4.24251e+06
4.2043e+06
4.16591e+06
4.12732e+06
4.08856e+06
4.04962e+06
4.0105e+06
3.97122e+06
3.93177e+06
3.89216e+06
3.85239e+06
3.81247e+06
3.7724e+06
3.73218e+06
3.69181e+06
3.65131e+06
3.61067e+06
3.5699e+06
3.529e+06
3.48797e+06
3.44683e+06
3.40556e+06
3.36419e+06
3.3227e+06
3.28111e+06
3.23942e+06
3.19763e+06
3.15574e+06
3.11376e+06
3.0717e+06
3.02955e+06
2.98732e+06
2.94502e+06
2.90265e+06
2.86021e+06
2.81771e+06
2.77516e+06
2.73254e+06
2.68988e+06
2.64716e+06
2.6044e+06
2.56158e+06
2.5187e+06
2.47577e+06
2.43276e+06
2.38969e+06
2.34653e+06
2.30329e+06
2.25995e+06
2.21652e+06
2.17301e+06
2.12943e+06
2.08579e+06
2.04213e+06
1.99849e+06
1.95491e+06
1.91145e+06
1.86818e+06
1.82517e+06
1.7825e+06
1.74023e+06
1.69845e+06
1.65719e+06
1.61674e+06
5.89692e+06
5.86211e+06
5.83163e+06
5.80706e+06
5.78631e+06
5.76643e+06
5.74592e+06
5.72465e+06
5.70302e+06
5.68135e+06
5.65974e+06
5.63812e+06
5.61639e+06
5.59445e+06
5.57223e+06
5.54968e+06
5.52673e+06
5.50336e+06
5.47954e+06
5.45523e+06
5.43038e+06
5.40497e+06
5.37898e+06
5.35241e+06
5.32524e+06
5.29749e+06
5.26916e+06
5.24027e+06
5.21085e+06
5.1809e+06
5.15047e+06
5.11957e+06
5.08823e+06
5.05647e+06
5.02431e+06
4.99178e+06
4.95889e+06
4.92565e+06
4.8921e+06
4.85823e+06
4.82406e+06
4.7896e+06
4.75485e+06
4.71983e+06
4.68455e+06
4.649e+06
4.6132e+06
4.57715e+06
4.54087e+06
4.50434e+06
4.46759e+06
4.43061e+06
4.39342e+06
4.35601e+06
4.31839e+06
4.28057e+06
4.24256e+06
4.20435e+06
4.16595e+06
4.12736e+06
4.0886e+06
4.04966e+06
4.01054e+06
3.97126e+06
3.93181e+06
3.8922e+06
3.85243e+06
3.81251e+06
3.77243e+06
3.73221e+06
3.69185e+06
3.65135e+06
3.61071e+06
3.56993e+06
3.52903e+06
3.48801e+06
3.44686e+06
3.4056e+06
3.36422e+06
3.32274e+06
3.28114e+06
3.23945e+06
3.19766e+06
3.15577e+06
3.11379e+06
3.07173e+06
3.02958e+06
2.98735e+06
2.94505e+06
2.90268e+06
2.86024e+06
2.81774e+06
2.77518e+06
2.73256e+06
2.6899e+06
2.64718e+06
2.60441e+06
2.56159e+06
2.51872e+06
2.47578e+06
2.43278e+06
2.3897e+06
2.34655e+06
2.3033e+06
2.25996e+06
2.21654e+06
2.17303e+06
2.12944e+06
2.0858e+06
2.04214e+06
1.9985e+06
1.95492e+06
1.91146e+06
1.8682e+06
1.82519e+06
1.78252e+06
1.74025e+06
1.69848e+06
1.65723e+06
1.61681e+06
5.89675e+06
5.86189e+06
5.8313e+06
5.80664e+06
5.7858e+06
5.76585e+06
5.74528e+06
5.72399e+06
5.70237e+06
5.68078e+06
5.65929e+06
5.63782e+06
5.61626e+06
5.59451e+06
5.57248e+06
5.55011e+06
5.52733e+06
5.5041e+06
5.48037e+06
5.45612e+06
5.4313e+06
5.40589e+06
5.37988e+06
5.35327e+06
5.32606e+06
5.29825e+06
5.26986e+06
5.24091e+06
5.21143e+06
5.18143e+06
5.15094e+06
5.11998e+06
5.0886e+06
5.05679e+06
5.0246e+06
4.99203e+06
4.95911e+06
4.92586e+06
4.89228e+06
4.85839e+06
4.8242e+06
4.78973e+06
4.75497e+06
4.71995e+06
4.68465e+06
4.6491e+06
4.61329e+06
4.57724e+06
4.54095e+06
4.50442e+06
4.46766e+06
4.43068e+06
4.39348e+06
4.35607e+06
4.31845e+06
4.28063e+06
4.24261e+06
4.2044e+06
4.166e+06
4.12742e+06
4.08865e+06
4.04971e+06
4.01059e+06
3.97131e+06
3.93186e+06
3.89225e+06
3.85248e+06
3.81256e+06
3.77248e+06
3.73226e+06
3.6919e+06
3.65139e+06
3.61075e+06
3.56998e+06
3.52908e+06
3.48805e+06
3.44691e+06
3.40564e+06
3.36427e+06
3.32278e+06
3.28118e+06
3.23949e+06
3.1977e+06
3.15581e+06
3.11383e+06
3.07176e+06
3.02961e+06
2.98738e+06
2.94508e+06
2.90271e+06
2.86027e+06
2.81777e+06
2.77521e+06
2.73259e+06
2.68993e+06
2.64721e+06
2.60444e+06
2.56162e+06
2.51874e+06
2.4758e+06
2.4328e+06
2.38972e+06
2.34657e+06
2.30332e+06
2.25998e+06
2.21656e+06
2.17304e+06
2.12946e+06
2.08582e+06
2.04216e+06
1.99851e+06
1.95494e+06
1.91148e+06
1.86822e+06
1.82521e+06
1.78254e+06
1.74028e+06
1.69853e+06
1.65729e+06
1.6169e+06
5.89661e+06
5.8616e+06
5.83083e+06
5.806e+06
5.78506e+06
5.76501e+06
5.74434e+06
5.72297e+06
5.70134e+06
5.6798e+06
5.65843e+06
5.63712e+06
5.61576e+06
5.59424e+06
5.57248e+06
5.55041e+06
5.52794e+06
5.505e+06
5.48152e+06
5.45744e+06
5.43275e+06
5.40741e+06
5.38142e+06
5.35478e+06
5.32751e+06
5.29962e+06
5.27114e+06
5.24208e+06
5.21248e+06
5.18237e+06
5.15176e+06
5.1207e+06
5.08921e+06
5.05732e+06
5.02504e+06
4.9924e+06
4.95942e+06
4.92612e+06
4.89249e+06
4.85857e+06
4.82436e+06
4.78986e+06
4.75509e+06
4.72005e+06
4.68475e+06
4.64919e+06
4.61338e+06
4.57732e+06
4.54103e+06
4.5045e+06
4.46773e+06
4.43075e+06
4.39355e+06
4.35613e+06
4.31851e+06
4.28069e+06
4.24267e+06
4.20446e+06
4.16605e+06
4.12747e+06
4.0887e+06
4.04976e+06
4.01065e+06
3.97136e+06
3.93191e+06
3.8923e+06
3.85253e+06
3.81261e+06
3.77254e+06
3.73232e+06
3.69195e+06
3.65145e+06
3.61081e+06
3.57003e+06
3.52913e+06
3.48811e+06
3.44696e+06
3.4057e+06
3.36432e+06
3.32283e+06
3.28124e+06
3.23954e+06
3.19775e+06
3.15586e+06
3.11388e+06
3.07181e+06
3.02966e+06
2.98743e+06
2.94513e+06
2.90275e+06
2.86031e+06
2.81781e+06
2.77525e+06
2.73263e+06
2.68996e+06
2.64725e+06
2.60448e+06
2.56165e+06
2.51878e+06
2.47584e+06
2.43284e+06
2.38976e+06
2.3466e+06
2.30335e+06
2.26002e+06
2.21659e+06
2.17307e+06
2.12949e+06
2.08585e+06
2.04219e+06
1.99854e+06
1.95496e+06
1.91151e+06
1.86825e+06
1.82524e+06
1.78258e+06
1.74033e+06
1.6986e+06
1.65739e+06
1.61704e+06
5.89674e+06
5.86134e+06
5.83015e+06
5.80507e+06
5.784e+06
5.76384e+06
5.74306e+06
5.72163e+06
5.70003e+06
5.67861e+06
5.65737e+06
5.63619e+06
5.61495e+06
5.59357e+06
5.57195e+06
5.55001e+06
5.52768e+06
5.50486e+06
5.48149e+06
5.4575e+06
5.43287e+06
5.40758e+06
5.38162e+06
5.35501e+06
5.32775e+06
5.29987e+06
5.27138e+06
5.24232e+06
5.21271e+06
5.18259e+06
5.15198e+06
5.12091e+06
5.0894e+06
5.0575e+06
5.0252e+06
4.99255e+06
4.95956e+06
4.92623e+06
4.8926e+06
4.85866e+06
4.82444e+06
4.78993e+06
4.75515e+06
4.7201e+06
4.68479e+06
4.64923e+06
4.61341e+06
4.57735e+06
4.54105e+06
4.50452e+06
4.46776e+06
4.43077e+06
4.39357e+06
4.35615e+06
4.31852e+06
4.2807e+06
4.24268e+06
4.20446e+06
4.16606e+06
4.12747e+06
4.0887e+06
4.04976e+06
4.01064e+06
3.97135e+06
3.9319e+06
3.89229e+06
3.85252e+06
3.81259e+06
3.77252e+06
3.7323e+06
3.69193e+06
3.65142e+06
3.61078e+06
3.57001e+06
3.52911e+06
3.48808e+06
3.44693e+06
3.40567e+06
3.36429e+06
3.3228e+06
3.28121e+06
3.23951e+06
3.19772e+06
3.15583e+06
3.11385e+06
3.07178e+06
3.02963e+06
2.9874e+06
2.9451e+06
2.90272e+06
2.86028e+06
2.81778e+06
2.77522e+06
2.73261e+06
2.68994e+06
2.64722e+06
2.60445e+06
2.56163e+06
2.51875e+06
2.47582e+06
2.43281e+06
2.38973e+06
2.34658e+06
2.30333e+06
2.25999e+06
2.21657e+06
2.17305e+06
2.12947e+06
2.08583e+06
2.04217e+06
1.99853e+06
1.95495e+06
1.9115e+06
1.86823e+06
1.82523e+06
1.78257e+06
1.74034e+06
1.69861e+06
1.65745e+06
1.61719e+06
)
;

boundaryField
{
    upperWall
    {
        type            calculated;
        value           nonuniform List<scalar> 
120
(
5.89674e+06
5.86134e+06
5.83015e+06
5.80507e+06
5.784e+06
5.76384e+06
5.74306e+06
5.72163e+06
5.70003e+06
5.67861e+06
5.65737e+06
5.63619e+06
5.61495e+06
5.59357e+06
5.57195e+06
5.55001e+06
5.52768e+06
5.50486e+06
5.48149e+06
5.4575e+06
5.43287e+06
5.40758e+06
5.38162e+06
5.35501e+06
5.32775e+06
5.29987e+06
5.27138e+06
5.24232e+06
5.21271e+06
5.18259e+06
5.15198e+06
5.12091e+06
5.0894e+06
5.0575e+06
5.0252e+06
4.99255e+06
4.95956e+06
4.92623e+06
4.8926e+06
4.85866e+06
4.82444e+06
4.78993e+06
4.75515e+06
4.7201e+06
4.68479e+06
4.64923e+06
4.61341e+06
4.57735e+06
4.54105e+06
4.50452e+06
4.46776e+06
4.43077e+06
4.39357e+06
4.35615e+06
4.31852e+06
4.2807e+06
4.24268e+06
4.20446e+06
4.16606e+06
4.12747e+06
4.0887e+06
4.04976e+06
4.01064e+06
3.97135e+06
3.9319e+06
3.89229e+06
3.85252e+06
3.81259e+06
3.77252e+06
3.7323e+06
3.69193e+06
3.65142e+06
3.61078e+06
3.57001e+06
3.52911e+06
3.48808e+06
3.44693e+06
3.40567e+06
3.36429e+06
3.3228e+06
3.28121e+06
3.23951e+06
3.19772e+06
3.15583e+06
3.11385e+06
3.07178e+06
3.02963e+06
2.9874e+06
2.9451e+06
2.90272e+06
2.86028e+06
2.81778e+06
2.77522e+06
2.73261e+06
2.68994e+06
2.64722e+06
2.60445e+06
2.56163e+06
2.51875e+06
2.47582e+06
2.43281e+06
2.38973e+06
2.34658e+06
2.30333e+06
2.25999e+06
2.21657e+06
2.17305e+06
2.12947e+06
2.08583e+06
2.04217e+06
1.99853e+06
1.95495e+06
1.9115e+06
1.86823e+06
1.82523e+06
1.78257e+06
1.74034e+06
1.69861e+06
1.65745e+06
1.61719e+06
)
;
    }
    lowerWall
    {
        type            calculated;
        value           nonuniform List<scalar> 
120
(
5.89668e+06
5.86127e+06
5.83007e+06
5.80496e+06
5.78386e+06
5.76368e+06
5.74287e+06
5.72143e+06
5.69983e+06
5.67841e+06
5.65718e+06
5.63603e+06
5.61483e+06
5.59349e+06
5.57193e+06
5.55006e+06
5.5278e+06
5.50505e+06
5.48174e+06
5.4578e+06
5.43319e+06
5.40791e+06
5.38195e+06
5.35531e+06
5.32801e+06
5.30007e+06
5.27152e+06
5.24239e+06
5.21272e+06
5.18253e+06
5.15185e+06
5.12073e+06
5.08919e+06
5.05726e+06
5.02495e+06
4.99229e+06
4.9593e+06
4.926e+06
4.89239e+06
4.85848e+06
4.82429e+06
4.78982e+06
4.75507e+06
4.72006e+06
4.68478e+06
4.64924e+06
4.61345e+06
4.5774e+06
4.54111e+06
4.50459e+06
4.46783e+06
4.43084e+06
4.39364e+06
4.35622e+06
4.31859e+06
4.28076e+06
4.24273e+06
4.20451e+06
4.16611e+06
4.12752e+06
4.08874e+06
4.0498e+06
4.01068e+06
3.97139e+06
3.93194e+06
3.89232e+06
3.85255e+06
3.81263e+06
3.77255e+06
3.73233e+06
3.69196e+06
3.65146e+06
3.61082e+06
3.57004e+06
3.52914e+06
3.48812e+06
3.44697e+06
3.40571e+06
3.36433e+06
3.32284e+06
3.28125e+06
3.23956e+06
3.19777e+06
3.15588e+06
3.1139e+06
3.07184e+06
3.02969e+06
2.98746e+06
2.94516e+06
2.90279e+06
2.86035e+06
2.81785e+06
2.77529e+06
2.73268e+06
2.69001e+06
2.6473e+06
2.60453e+06
2.56171e+06
2.51883e+06
2.47589e+06
2.43289e+06
2.38981e+06
2.34666e+06
2.30341e+06
2.26007e+06
2.21665e+06
2.17313e+06
2.12955e+06
2.08591e+06
2.04225e+06
1.99861e+06
1.95503e+06
1.91158e+06
1.86831e+06
1.82531e+06
1.78265e+06
1.74041e+06
1.69869e+06
1.65752e+06
1.61725e+06
)
;
    }
    inlet
    {
        type            calculated;
        value           nonuniform List<scalar> 
12
(
5.89668e+06
5.89656e+06
5.89671e+06
5.89689e+06
5.89704e+06
5.89712e+06
5.89713e+06
5.89706e+06
5.89692e+06
5.89675e+06
5.89661e+06
5.89674e+06
)
;
    }
    outlet
    {
        type            calculated;
        value           nonuniform List<scalar> 
12
(
1.59667e+06
1.59638e+06
1.59623e+06
1.59612e+06
1.59604e+06
1.596e+06
1.59599e+06
1.59602e+06
1.59609e+06
1.59618e+06
1.59633e+06
1.59663e+06
)
;
    }
    frontAndBack
    {
        type            empty;
    }
}


// ************************************************************************* //
