/*--------------------------------*- C++ -*----------------------------------*\
  =========                 |
  \\      /  F ield         | OpenFOAM: The Open Source CFD Toolbox
   \\    /   O peration     | Website:  https://openfoam.org
    \\  /    A nd           | Version:  7
     \\/     M anipulation  |
\*---------------------------------------------------------------------------*/
FoamFile
{
    version     2.0;
    format      ascii;
    class       volScalarField;
    location    "1.525";
    object      k;
}
// * * * * * * * * * * * * * * * * * * * * * * * * * * * * * * * * * * * * * //

dimensions      [0 2 -2 0 0 0 0];

internalField   nonuniform List<scalar> 
7920
(
3592.92
3623.62
3640.08
3651.72
3651.41
3653.36
3652.64
3652.94
3652.25
3652.01
3651.18
3650.64
3649.45
3648.65
3646.68
3645.37
3641.76
3638.94
3631.26
3628.72
1038.47
864.2
867.931
874.39
873.651
874.974
874.381
874.697
874.272
874.239
873.816
873.61
873.05
872.717
871.83
871.274
869.707
868.476
864.941
862.681
842.758
645.539
644.326
653.805
652.091
654.097
653.111
653.617
653.029
653.051
652.547
652.359
651.749
651.448
650.559
650.075
648.695
647.538
644.722
638.04
847.874
641.047
644.47
649.234
650.533
651.272
651.259
651.291
650.983
650.77
650.223
649.886
649.007
648.597
647.133
646.569
644.075
642.612
638.781
628.156
835.733
627.586
631.179
635.531
637.24
637.879
637.977
637.943
637.628
637.359
636.744
636.361
635.364
634.922
633.284
632.677
630.057
628.208
625.215
612.277
839.39
628.504
632.502
635.467
637.332
637.823
637.977
637.889
637.56
637.253
636.595
636.184
635.12
634.656
632.933
632.291
629.638
627.534
625.025
611.101
839.39
628.504
632.502
635.467
637.332
637.823
637.977
637.889
637.56
637.253
636.596
636.183
635.12
634.656
632.934
632.289
629.645
627.519
625.057
611.039
835.733
627.586
631.179
635.531
637.24
637.879
637.977
637.943
637.628
637.359
636.744
636.361
635.364
634.921
633.288
632.672
630.076
628.164
625.313
612.076
847.874
641.047
644.47
649.234
650.533
651.272
651.259
651.291
650.983
650.77
650.223
649.886
649.008
648.596
647.137
646.561
644.101
642.557
638.927
627.792
842.759
645.539
644.326
653.805
652.091
654.097
653.11
653.617
653.029
653.051
652.547
652.359
651.75
651.447
650.563
650.068
648.72
647.483
644.886
637.528
1038.47
864.2
867.931
874.39
873.651
874.974
874.38
874.697
874.272
874.239
873.816
873.61
873.051
872.716
871.833
871.269
869.725
868.434
865.087
862.146
3592.92
3623.62
3640.08
3651.72
3651.41
3653.36
3652.64
3652.94
3652.25
3652.01
3651.18
3650.64
3649.46
3648.65
3646.68
3645.36
3641.79
3638.86
3631.56
3627.93
621.131
607.759
636.558
624.568
633.237
628.766
631.837
630.03
631.084
630.243
630.426
629.931
629.573
629.174
628.173
627.74
625.467
624.874
619.463
621.397
590.008
647.36
655.656
656.629
658.586
657.67
658.424
657.768
657.962
657.52
657.386
657.025
656.625
656.262
655.526
655.046
653.754
652.814
649.706
647.738
550.05
617.13
622.782
629.339
629.575
629.507
629.716
629.153
629.107
628.61
628.299
627.846
627.273
626.821
625.937
625.355
624.168
622.904
620.888
612.705
569.666
628.921
639.518
642.55
644.798
644.318
644.964
644.405
644.398
643.905
643.474
642.989
642.137
641.647
640.193
639.578
637.184
635.661
632.12
620.428
556.961
611.563
623.194
625.258
628.404
627.744
628.561
627.926
627.93
627.383
626.887
626.356
625.374
624.85
623.189
622.531
619.9
618.038
615.012
600.988
561.443
614.293
625.808
626.771
629.7
628.949
629.744
629.069
629.041
628.459
627.918
627.358
626.315
625.77
624.046
623.352
620.75
618.637
616.265
601.192
561.443
614.293
625.808
626.771
629.7
628.949
629.744
629.069
629.041
628.459
627.918
627.358
626.316
625.77
624.047
623.35
620.756
618.623
616.3
601.129
556.961
611.563
623.194
625.258
628.404
627.744
628.561
627.926
627.93
627.383
626.887
626.355
625.374
624.849
623.193
622.526
619.919
617.997
615.112
600.786
569.666
628.921
639.518
642.55
644.798
644.318
644.964
644.405
644.398
643.905
643.475
642.989
642.138
641.645
640.197
639.57
637.209
635.607
632.269
620.068
550.05
617.13
622.782
629.339
629.575
629.507
629.716
629.153
629.107
628.61
628.299
627.846
627.273
626.82
625.941
625.348
624.191
622.848
621.061
612.221
590.008
647.36
655.656
656.629
658.586
657.67
658.424
657.768
657.962
657.52
657.386
657.025
656.625
656.261
655.528
655.042
653.766
652.785
649.801
647.541
621.131
607.759
636.558
624.568
633.237
628.766
631.837
630.03
631.084
630.243
630.426
629.931
629.573
629.174
628.173
627.738
625.469
624.864
619.483
621.407
31.2601
35.0103
36.3602
35.7318
36.28
35.8717
36.1328
35.928
36.0375
35.9321
35.9634
35.9003
35.8885
35.8405
35.7976
35.7559
35.6844
35.6366
35.6072
35.9163
34.8737
54.2456
52.2254
51.5274
52.0688
50.9308
51.4396
50.7483
50.9879
50.6118
50.6682
50.4515
50.4165
50.2658
50.2423
50.1135
50.3305
50.1574
51.1964
50.7546
28.5045
39.9564
37.6722
37.7777
37.784
37.7105
37.735
37.6374
37.6351
37.5682
37.5466
37.4961
37.4611
37.4194
37.383
37.3389
37.3498
37.2667
37.5074
37.3313
28.7061
51.1441
47.083
46.6126
47.1283
45.5939
46.1349
45.192
45.4166
44.9226
44.9568
44.6682
44.6128
44.4053
44.4179
44.2521
44.7241
44.4815
46.6457
45.5594
28.2598
45.2115
40.6455
39.5832
40.083
38.4129
38.9618
37.9928
38.2395
37.7096
37.7413
37.4312
37.3639
37.1348
37.1367
36.9576
37.437
37.1768
39.4365
38.4401
28.426
47.2623
42.8886
42.0341
42.5383
40.935
41.4455
40.5045
40.7242
40.2097
40.2295
39.9269
39.8561
39.6294
39.6333
39.4532
39.9415
39.6707
41.9687
40.8836
28.426
47.2623
42.8886
42.0341
42.5383
40.935
41.4455
40.5045
40.7242
40.2097
40.2295
39.9268
39.8561
39.6292
39.6332
39.4528
39.9412
39.6695
41.9674
40.8791
28.2598
45.2115
40.6455
39.5832
40.083
38.4129
38.9618
37.9928
38.2395
37.7096
37.7413
37.4312
37.364
37.1348
37.1371
36.9574
37.4391
37.1755
39.4469
38.4301
28.7061
51.1441
47.083
46.6126
47.1283
45.5939
46.1349
45.192
45.4166
44.9225
44.9568
44.6681
44.6129
44.4052
44.4184
44.2515
44.7266
44.4783
46.6595
45.5406
28.5045
39.9564
37.6722
37.7777
37.784
37.7105
37.735
37.6374
37.6351
37.5682
37.5466
37.4961
37.4612
37.4192
37.3833
37.3383
37.351
37.2636
37.516
37.309
34.8737
54.2456
52.2254
51.5274
52.0688
50.9308
51.4396
50.7483
50.9879
50.6118
50.6682
50.4515
50.4166
50.2657
50.2427
50.1131
50.3327
50.1552
51.2089
50.7513
31.2601
35.0103
36.3602
35.7318
36.28
35.8717
36.1328
35.928
36.0375
35.9321
35.9634
35.9003
35.8885
35.8404
35.7976
35.7557
35.6845
35.6354
35.6099
35.9175
31.2601
35.0103
36.3602
35.7318
36.28
35.8717
36.1328
35.928
36.0375
35.9321
35.9634
35.9003
35.8885
35.8405
35.7976
35.7559
35.6844
35.6366
35.6072
35.9163
34.8737
54.2456
52.2254
51.5274
52.0688
50.9308
51.4396
50.7483
50.9879
50.6118
50.6682
50.4515
50.4165
50.2658
50.2423
50.1135
50.3305
50.1574
51.1964
50.7546
28.5046
39.9564
37.6722
37.7777
37.784
37.7105
37.735
37.6374
37.6351
37.5682
37.5466
37.4961
37.4611
37.4194
37.383
37.3389
37.3498
37.2667
37.5074
37.3313
28.7061
51.1441
47.083
46.6126
47.1283
45.5939
46.1349
45.192
45.4166
44.9226
44.9568
44.6682
44.6128
44.4053
44.4179
44.2521
44.7241
44.4815
46.6457
45.5594
28.2598
45.2115
40.6455
39.5832
40.083
38.4129
38.9618
37.9928
38.2395
37.7096
37.7413
37.4312
37.3639
37.1348
37.1367
36.9576
37.437
37.1768
39.4365
38.4401
28.426
47.2623
42.8886
42.0342
42.5383
40.935
41.4455
40.5045
40.7243
40.2097
40.2295
39.9269
39.8561
39.6294
39.6333
39.4532
39.9415
39.6707
41.9687
40.8837
28.426
47.2623
42.8886
42.0342
42.5383
40.935
41.4455
40.5045
40.7243
40.2097
40.2295
39.9268
39.8561
39.6293
39.6332
39.4528
39.9412
39.6695
41.9674
40.8791
28.2598
45.2115
40.6455
39.5832
40.083
38.4129
38.9618
37.9928
38.2395
37.7096
37.7413
37.4312
37.364
37.1348
37.1371
36.9574
37.4391
37.1755
39.4469
38.4301
28.7061
51.1441
47.083
46.6126
47.1283
45.5939
46.1349
45.192
45.4166
44.9226
44.9568
44.6681
44.6129
44.4052
44.4184
44.2515
44.7266
44.4783
46.6595
45.5406
28.5046
39.9564
37.6722
37.7777
37.784
37.7105
37.735
37.6374
37.6351
37.5682
37.5466
37.4961
37.4612
37.4192
37.3833
37.3383
37.351
37.2636
37.516
37.309
34.8737
54.2456
52.2254
51.5274
52.0688
50.9308
51.4396
50.7483
50.9879
50.6118
50.6682
50.4515
50.4166
50.2657
50.2427
50.1131
50.3327
50.1552
51.2089
50.7513
31.2601
35.0103
36.3602
35.7318
36.28
35.8717
36.1328
35.928
36.0375
35.9321
35.9634
35.9003
35.8885
35.8404
35.7976
35.7557
35.6845
35.6354
35.6099
35.9175
621.131
607.759
636.558
624.568
633.237
628.766
631.837
630.03
631.084
630.243
630.426
629.931
629.573
629.174
628.173
627.74
625.467
624.874
619.463
621.397
590.008
647.36
655.656
656.629
658.586
657.67
658.424
657.768
657.962
657.52
657.386
657.025
656.625
656.262
655.526
655.046
653.754
652.814
649.706
647.738
550.05
617.13
622.782
629.339
629.575
629.508
629.716
629.153
629.107
628.61
628.299
627.846
627.273
626.821
625.937
625.355
624.168
622.904
620.888
612.705
569.666
628.921
639.518
642.55
644.798
644.318
644.964
644.405
644.398
643.905
643.474
642.989
642.137
641.647
640.193
639.578
637.184
635.661
632.12
620.428
556.961
611.563
623.194
625.258
628.404
627.744
628.561
627.926
627.93
627.383
626.887
626.356
625.374
624.85
623.189
622.531
619.9
618.038
615.012
600.988
561.443
614.293
625.808
626.771
629.7
628.949
629.744
629.069
629.041
628.459
627.918
627.358
626.315
625.77
624.046
623.352
620.75
618.637
616.265
601.192
561.443
614.293
625.808
626.771
629.7
628.949
629.744
629.069
629.041
628.459
627.918
627.358
626.316
625.77
624.047
623.35
620.756
618.623
616.3
601.129
556.961
611.563
623.194
625.258
628.404
627.744
628.561
627.926
627.93
627.383
626.887
626.355
625.374
624.849
623.193
622.526
619.919
617.997
615.112
600.786
569.666
628.921
639.518
642.55
644.798
644.318
644.964
644.405
644.398
643.905
643.475
642.989
642.138
641.645
640.197
639.57
637.209
635.607
632.269
620.068
550.05
617.13
622.782
629.339
629.575
629.508
629.716
629.153
629.107
628.61
628.299
627.846
627.273
626.82
625.941
625.348
624.191
622.848
621.061
612.221
590.008
647.36
655.657
656.629
658.586
657.67
658.424
657.768
657.962
657.52
657.386
657.025
656.625
656.261
655.528
655.042
653.766
652.785
649.801
647.541
621.131
607.759
636.558
624.568
633.237
628.766
631.837
630.03
631.084
630.243
630.426
629.931
629.573
629.174
628.173
627.738
625.469
624.864
619.483
621.407
3592.92
3623.62
3640.08
3651.72
3651.41
3653.36
3652.64
3652.94
3652.25
3652.01
3651.18
3650.64
3649.45
3648.65
3646.68
3645.37
3641.76
3638.94
3631.26
3628.72
1038.47
864.2
867.931
874.39
873.651
874.974
874.381
874.697
874.272
874.239
873.816
873.61
873.05
872.717
871.83
871.274
869.707
868.476
864.941
862.681
842.759
645.539
644.326
653.805
652.091
654.097
653.111
653.617
653.029
653.051
652.547
652.359
651.749
651.448
650.559
650.075
648.695
647.538
644.722
638.04
847.875
641.047
644.47
649.234
650.533
651.272
651.259
651.291
650.983
650.77
650.223
649.886
649.007
648.597
647.133
646.569
644.075
642.612
638.781
628.156
835.733
627.586
631.179
635.531
637.24
637.879
637.977
637.943
637.628
637.359
636.744
636.361
635.364
634.922
633.284
632.677
630.057
628.208
625.215
612.277
839.39
628.504
632.502
635.467
637.332
637.823
637.977
637.889
637.56
637.253
636.595
636.183
635.12
634.656
632.933
632.291
629.638
627.534
625.025
611.101
839.39
628.504
632.502
635.467
637.332
637.823
637.977
637.889
637.56
637.253
636.596
636.183
635.12
634.656
632.934
632.289
629.645
627.519
625.057
611.038
835.733
627.586
631.179
635.531
637.24
637.879
637.977
637.943
637.628
637.359
636.744
636.361
635.364
634.921
633.288
632.672
630.076
628.164
625.313
612.076
847.875
641.047
644.47
649.234
650.533
651.272
651.259
651.291
650.983
650.77
650.223
649.886
649.008
648.596
647.137
646.561
644.101
642.557
638.927
627.792
842.759
645.539
644.326
653.805
652.091
654.097
653.111
653.617
653.029
653.051
652.547
652.359
651.75
651.447
650.563
650.068
648.72
647.483
644.886
637.528
1038.47
864.2
867.931
874.39
873.651
874.974
874.381
874.697
874.272
874.239
873.816
873.61
873.051
872.716
871.833
871.269
869.725
868.434
865.087
862.146
3592.92
3623.62
3640.08
3651.72
3651.41
3653.36
3652.64
3652.94
3652.25
3652.01
3651.18
3650.64
3649.46
3648.65
3646.68
3645.36
3641.79
3638.86
3631.56
3627.93
6012.56
6083.68
6113.99
6131.9
6140.93
6147.06
6151.08
6154.07
6156.29
6157.97
6159.25
6160.27
6161.13
6161.86
6162.42
6162.76
6162.83
6162.61
6162.18
6161.63
6161.07
6160.57
6160.17
6159.88
6159.68
6159.57
6159.5
6159.47
6159.46
6159.47
6159.47
6159.49
6159.5
6159.51
6159.53
6159.54
6159.56
6159.57
6159.59
6159.61
6159.62
6159.64
6159.65
6159.67
6159.69
6159.7
6159.72
6159.73
6159.75
6159.77
6159.78
6159.8
6159.82
6159.83
6159.85
6159.87
6159.88
6159.9
6159.92
6159.93
6159.95
6159.97
6159.99
6160
6160.02
6160.04
6160.05
6160.07
6160.09
6160.11
6160.12
6160.14
6160.16
6160.18
6160.2
6160.21
6160.23
6160.25
6160.27
6160.28
6160.32
6160.3
6160.4
6160.3
6160.6
6160.26
6161.28
6160.51
6163.87
6170.95
2341.6
2386.53
2400.72
2408.3
2412.18
2414.74
2416.43
2417.68
2418.6
2419.3
2419.83
2420.26
2420.61
2420.91
2421.15
2421.29
2421.32
2421.23
2421.05
2420.82
2420.59
2420.38
2420.21
2420.09
2420.01
2419.96
2419.94
2419.92
2419.92
2419.92
2419.92
2419.93
2419.93
2419.94
2419.94
2419.95
2419.95
2419.96
2419.97
2419.97
2419.98
2419.98
2419.99
2420
2420
2420.01
2420.01
2420.02
2420.03
2420.03
2420.04
2420.05
2420.05
2420.06
2420.06
2420.07
2420.08
2420.08
2420.09
2420.1
2420.1
2420.11
2420.12
2420.12
2420.13
2420.14
2420.14
2420.15
2420.16
2420.16
2420.17
2420.18
2420.18
2420.19
2420.2
2420.2
2420.21
2420.22
2420.22
2420.23
2420.24
2420.24
2420.27
2420.23
2420.36
2420.21
2420.63
2420.3
2421.31
2421.74
1691.52
1738.47
1750.84
1756.57
1759.5
1761.4
1762.66
1763.58
1764.26
1764.78
1765.18
1765.49
1765.75
1765.97
1766.15
1766.26
1766.28
1766.22
1766.1
1765.94
1765.77
1765.61
1765.49
1765.4
1765.34
1765.3
1765.28
1765.27
1765.26
1765.26
1765.26
1765.27
1765.27
1765.27
1765.28
1765.28
1765.29
1765.29
1765.29
1765.3
1765.3
1765.31
1765.31
1765.31
1765.32
1765.32
1765.33
1765.33
1765.34
1765.34
1765.34
1765.35
1765.35
1765.36
1765.36
1765.37
1765.37
1765.37
1765.38
1765.38
1765.39
1765.39
1765.4
1765.4
1765.41
1765.41
1765.41
1765.42
1765.42
1765.43
1765.43
1765.44
1765.44
1765.45
1765.45
1765.46
1765.46
1765.46
1765.47
1765.47
1765.48
1765.48
1765.51
1765.47
1765.57
1765.45
1765.77
1765.51
1766.36
1764.63
1640.94
1694.23
1705.61
1711.13
1713.93
1715.74
1716.93
1717.8
1718.45
1718.94
1719.31
1719.61
1719.85
1720.06
1720.23
1720.34
1720.37
1720.32
1720.21
1720.06
1719.9
1719.76
1719.64
1719.56
1719.5
1719.46
1719.44
1719.43
1719.42
1719.42
1719.42
1719.42
1719.43
1719.43
1719.43
1719.44
1719.44
1719.44
1719.45
1719.45
1719.45
1719.46
1719.46
1719.47
1719.47
1719.47
1719.48
1719.48
1719.48
1719.49
1719.49
1719.49
1719.5
1719.5
1719.51
1719.51
1719.51
1719.52
1719.52
1719.52
1719.53
1719.53
1719.54
1719.54
1719.54
1719.55
1719.55
1719.56
1719.56
1719.56
1719.57
1719.57
1719.58
1719.58
1719.58
1719.59
1719.59
1719.6
1719.6
1719.6
1719.61
1719.61
1719.63
1719.6
1719.69
1719.58
1719.88
1719.63
1720.41
1717.27
1613.24
1672.31
1683.76
1689.03
1691.67
1693.35
1694.45
1695.27
1695.87
1696.33
1696.68
1696.96
1697.19
1697.38
1697.54
1697.64
1697.68
1697.64
1697.55
1697.41
1697.27
1697.13
1697.02
1696.94
1696.88
1696.85
1696.82
1696.81
1696.81
1696.81
1696.81
1696.81
1696.81
1696.82
1696.82
1696.82
1696.82
1696.83
1696.83
1696.83
1696.84
1696.84
1696.84
1696.85
1696.85
1696.85
1696.85
1696.86
1696.86
1696.86
1696.87
1696.87
1696.87
1696.88
1696.88
1696.88
1696.89
1696.89
1696.89
1696.9
1696.9
1696.9
1696.91
1696.91
1696.91
1696.92
1696.92
1696.93
1696.93
1696.93
1696.94
1696.94
1696.94
1696.95
1696.95
1696.95
1696.96
1696.96
1696.97
1696.97
1696.98
1696.97
1696.99
1696.96
1697.05
1696.94
1697.23
1696.98
1697.76
1693.55
1611.68
1673.31
1684.45
1689.32
1691.69
1693.21
1694.21
1694.95
1695.5
1695.92
1696.24
1696.49
1696.7
1696.88
1697.02
1697.12
1697.16
1697.13
1697.05
1696.93
1696.8
1696.68
1696.57
1696.5
1696.44
1696.41
1696.39
1696.38
1696.37
1696.37
1696.37
1696.37
1696.38
1696.38
1696.38
1696.38
1696.39
1696.39
1696.39
1696.39
1696.4
1696.4
1696.4
1696.41
1696.41
1696.41
1696.41
1696.42
1696.42
1696.42
1696.42
1696.43
1696.43
1696.43
1696.44
1696.44
1696.44
1696.44
1696.45
1696.45
1696.45
1696.46
1696.46
1696.46
1696.46
1696.47
1696.47
1696.47
1696.48
1696.48
1696.48
1696.49
1696.49
1696.49
1696.49
1696.5
1696.5
1696.5
1696.51
1696.51
1696.52
1696.51
1696.54
1696.5
1696.59
1696.48
1696.76
1696.52
1697.3
1692.47
1612.68
1673.55
1683.87
1688.16
1690.21
1691.53
1692.39
1693.04
1693.52
1693.9
1694.18
1694.4
1694.58
1694.74
1694.86
1694.95
1694.99
1694.97
1694.9
1694.8
1694.68
1694.57
1694.48
1694.42
1694.37
1694.34
1694.32
1694.31
1694.31
1694.3
1694.3
1694.3
1694.31
1694.31
1694.31
1694.31
1694.31
1694.32
1694.32
1694.32
1694.32
1694.32
1694.33
1694.33
1694.33
1694.33
1694.34
1694.34
1694.34
1694.34
1694.34
1694.35
1694.35
1694.35
1694.35
1694.36
1694.36
1694.36
1694.36
1694.37
1694.37
1694.37
1694.37
1694.38
1694.38
1694.38
1694.38
1694.39
1694.39
1694.39
1694.39
1694.4
1694.4
1694.4
1694.4
1694.41
1694.41
1694.41
1694.41
1694.41
1694.42
1694.42
1694.44
1694.41
1694.48
1694.39
1694.64
1694.42
1695.15
1690.13
1616.41
1673.13
1682.12
1685.69
1687.38
1688.47
1689.19
1689.73
1690.13
1690.45
1690.68
1690.87
1691.02
1691.15
1691.26
1691.34
1691.37
1691.35
1691.29
1691.21
1691.11
1691.02
1690.95
1690.89
1690.85
1690.82
1690.81
1690.8
1690.79
1690.79
1690.79
1690.79
1690.79
1690.8
1690.8
1690.8
1690.8
1690.8
1690.8
1690.8
1690.81
1690.81
1690.81
1690.81
1690.81
1690.81
1690.82
1690.82
1690.82
1690.82
1690.82
1690.83
1690.83
1690.83
1690.83
1690.83
1690.83
1690.84
1690.84
1690.84
1690.84
1690.84
1690.84
1690.85
1690.85
1690.85
1690.85
1690.85
1690.86
1690.86
1690.86
1690.86
1690.86
1690.87
1690.87
1690.87
1690.87
1690.87
1690.88
1690.88
1690.88
1690.88
1690.9
1690.87
1690.93
1690.85
1691.07
1690.88
1691.48
1686.72
1647.17
1696.02
1703.4
1706.2
1707.52
1708.37
1708.94
1709.37
1709.69
1709.94
1710.13
1710.28
1710.4
1710.5
1710.59
1710.65
1710.68
1710.66
1710.62
1710.55
1710.47
1710.4
1710.34
1710.29
1710.26
1710.24
1710.23
1710.22
1710.22
1710.21
1710.21
1710.21
1710.21
1710.22
1710.22
1710.22
1710.22
1710.22
1710.22
1710.22
1710.22
1710.22
1710.23
1710.23
1710.23
1710.23
1710.23
1710.23
1710.23
1710.23
1710.23
1710.24
1710.24
1710.24
1710.24
1710.24
1710.24
1710.24
1710.24
1710.25
1710.25
1710.25
1710.25
1710.25
1710.25
1710.25
1710.25
1710.26
1710.26
1710.26
1710.26
1710.26
1710.26
1710.26
1710.27
1710.27
1710.27
1710.27
1710.27
1710.27
1710.28
1710.27
1710.29
1710.27
1710.32
1710.25
1710.43
1710.28
1710.72
1706.65
1702.8
1742.49
1749.34
1751.37
1752.33
1752.95
1753.37
1753.68
1753.92
1754.1
1754.24
1754.35
1754.44
1754.52
1754.58
1754.62
1754.64
1754.63
1754.6
1754.55
1754.49
1754.44
1754.39
1754.36
1754.33
1754.32
1754.31
1754.3
1754.3
1754.3
1754.3
1754.3
1754.3
1754.3
1754.3
1754.3
1754.3
1754.3
1754.3
1754.3
1754.3
1754.3
1754.3
1754.31
1754.31
1754.31
1754.31
1754.31
1754.31
1754.31
1754.31
1754.31
1754.31
1754.31
1754.31
1754.31
1754.31
1754.32
1754.32
1754.32
1754.32
1754.32
1754.32
1754.32
1754.32
1754.32
1754.32
1754.32
1754.32
1754.32
1754.33
1754.33
1754.33
1754.33
1754.33
1754.33
1754.33
1754.33
1754.33
1754.33
1754.34
1754.33
1754.34
1754.33
1754.37
1754.32
1754.45
1754.34
1754.62
1751.57
2368.1
2398.3
2403.57
2405.23
2406.03
2406.54
2406.88
2407.14
2407.33
2407.48
2407.59
2407.68
2407.75
2407.82
2407.87
2407.91
2407.92
2407.91
2407.88
2407.84
2407.79
2407.75
2407.71
2407.68
2407.66
2407.65
2407.64
2407.64
2407.64
2407.63
2407.63
2407.63
2407.63
2407.63
2407.63
2407.63
2407.63
2407.63
2407.63
2407.63
2407.64
2407.64
2407.64
2407.64
2407.64
2407.64
2407.64
2407.64
2407.64
2407.64
2407.64
2407.64
2407.64
2407.64
2407.64
2407.64
2407.64
2407.64
2407.64
2407.64
2407.64
2407.64
2407.64
2407.64
2407.64
2407.64
2407.64
2407.64
2407.64
2407.64
2407.64
2407.64
2407.65
2407.65
2407.65
2407.65
2407.65
2407.65
2407.65
2407.65
2407.65
2407.65
2407.66
2407.64
2407.67
2407.63
2407.74
2407.65
2407.55
2405.74
6123.24
6145.95
6151.89
6153.76
6154.68
6155.25
6155.63
6155.91
6156.13
6156.29
6156.41
6156.51
6156.59
6156.66
6156.71
6156.75
6156.77
6156.76
6156.73
6156.68
6156.63
6156.58
6156.54
6156.51
6156.49
6156.47
6156.46
6156.46
6156.45
6156.45
6156.45
6156.45
6156.45
6156.45
6156.45
6156.45
6156.45
6156.45
6156.45
6156.45
6156.44
6156.44
6156.44
6156.44
6156.44
6156.44
6156.44
6156.44
6156.44
6156.44
6156.44
6156.44
6156.44
6156.44
6156.44
6156.44
6156.44
6156.44
6156.44
6156.44
6156.44
6156.44
6156.44
6156.44
6156.44
6156.44
6156.44
6156.44
6156.44
6156.44
6156.44
6156.44
6156.44
6156.44
6156.44
6156.43
6156.43
6156.43
6156.43
6156.43
6156.44
6156.43
6156.44
6156.43
6156.46
6156.42
6156.53
6156.44
6156.29
6156.97
1299.66
1316.71
1317.89
1321.36
1322.55
1323.74
1324.46
1325.07
1325.52
1325.87
1326.14
1326.36
1326.55
1326.7
1326.82
1326.9
1326.91
1326.86
1326.76
1326.64
1326.52
1326.41
1326.33
1326.26
1326.22
1326.2
1326.19
1326.18
1326.18
1326.18
1326.18
1326.18
1326.19
1326.19
1326.19
1326.2
1326.2
1326.2
1326.21
1326.21
1326.22
1326.22
1326.22
1326.23
1326.23
1326.23
1326.24
1326.24
1326.25
1326.25
1326.25
1326.26
1326.26
1326.27
1326.27
1326.27
1326.28
1326.28
1326.29
1326.29
1326.29
1326.3
1326.3
1326.31
1326.31
1326.31
1326.32
1326.32
1326.33
1326.33
1326.33
1326.34
1326.34
1326.35
1326.35
1326.35
1326.36
1326.36
1326.37
1326.37
1326.38
1326.38
1326.4
1326.38
1326.46
1326.38
1326.69
1326.51
1327.67
1329.48
1544.96
1569.63
1576.99
1581.9
1584
1585.62
1586.65
1587.45
1588.04
1588.5
1588.85
1589.13
1589.36
1589.56
1589.72
1589.81
1589.83
1589.77
1589.65
1589.49
1589.34
1589.2
1589.09
1589.01
1588.96
1588.92
1588.91
1588.9
1588.89
1588.89
1588.9
1588.9
1588.9
1588.91
1588.91
1588.91
1588.92
1588.92
1588.93
1588.93
1588.93
1588.94
1588.94
1588.95
1588.95
1588.95
1588.96
1588.96
1588.97
1588.97
1588.98
1588.98
1588.98
1588.99
1588.99
1589
1589
1589.01
1589.01
1589.01
1589.02
1589.02
1589.03
1589.03
1589.04
1589.04
1589.05
1589.05
1589.06
1589.06
1589.06
1589.07
1589.07
1589.08
1589.08
1589.09
1589.09
1589.1
1589.1
1589.1
1589.11
1589.11
1589.14
1589.11
1589.2
1589.11
1589.44
1589.22
1590.3
1591.18
1535.63
1567.94
1577.65
1582.82
1585
1586.65
1587.69
1588.5
1589.1
1589.56
1589.92
1590.2
1590.43
1590.63
1590.79
1590.89
1590.91
1590.86
1590.74
1590.59
1590.44
1590.3
1590.18
1590.1
1590.04
1590.01
1589.99
1589.98
1589.98
1589.97
1589.98
1589.98
1589.98
1589.98
1589.99
1589.99
1589.99
1589.99
1590
1590
1590
1590.01
1590.01
1590.01
1590.02
1590.02
1590.02
1590.03
1590.03
1590.03
1590.04
1590.04
1590.04
1590.05
1590.05
1590.05
1590.06
1590.06
1590.06
1590.07
1590.07
1590.07
1590.08
1590.08
1590.08
1590.09
1590.09
1590.1
1590.1
1590.1
1590.11
1590.11
1590.11
1590.12
1590.12
1590.12
1590.13
1590.13
1590.14
1590.14
1590.15
1590.14
1590.17
1590.14
1590.23
1590.13
1590.47
1590.24
1591.31
1590.03
1582.16
1621.57
1631.49
1636.83
1639.24
1640.94
1642.02
1642.85
1643.45
1643.92
1644.28
1644.56
1644.79
1644.99
1645.15
1645.25
1645.28
1645.24
1645.13
1644.98
1644.83
1644.69
1644.58
1644.49
1644.43
1644.4
1644.37
1644.36
1644.36
1644.36
1644.36
1644.36
1644.36
1644.36
1644.36
1644.36
1644.37
1644.37
1644.37
1644.37
1644.37
1644.38
1644.38
1644.38
1644.38
1644.39
1644.39
1644.39
1644.39
1644.4
1644.4
1644.4
1644.4
1644.41
1644.41
1644.41
1644.41
1644.42
1644.42
1644.42
1644.42
1644.43
1644.43
1644.43
1644.43
1644.44
1644.44
1644.44
1644.44
1644.45
1644.45
1644.45
1644.45
1644.46
1644.46
1644.46
1644.47
1644.47
1644.47
1644.47
1644.48
1644.47
1644.5
1644.47
1644.56
1644.45
1644.77
1644.54
1645.41
1642.56
1559.97
1604.93
1614.83
1619.94
1622.21
1623.8
1624.81
1625.58
1626.15
1626.59
1626.93
1627.19
1627.41
1627.59
1627.74
1627.84
1627.87
1627.84
1627.74
1627.61
1627.47
1627.34
1627.23
1627.15
1627.09
1627.06
1627.04
1627.02
1627.02
1627.02
1627.01
1627.01
1627.02
1627.02
1627.02
1627.02
1627.02
1627.02
1627.02
1627.02
1627.03
1627.03
1627.03
1627.03
1627.03
1627.03
1627.03
1627.04
1627.04
1627.04
1627.04
1627.04
1627.04
1627.05
1627.05
1627.05
1627.05
1627.05
1627.05
1627.06
1627.06
1627.06
1627.06
1627.06
1627.06
1627.07
1627.07
1627.07
1627.07
1627.07
1627.08
1627.08
1627.08
1627.08
1627.08
1627.08
1627.09
1627.09
1627.09
1627.09
1627.1
1627.09
1627.11
1627.08
1627.17
1627.06
1627.37
1627.14
1628.01
1624.09
1559.46
1607.78
1617.48
1622.22
1624.26
1625.69
1626.6
1627.3
1627.82
1628.22
1628.53
1628.77
1628.96
1629.13
1629.27
1629.36
1629.4
1629.37
1629.29
1629.17
1629.04
1628.92
1628.82
1628.75
1628.7
1628.66
1628.64
1628.63
1628.62
1628.62
1628.62
1628.62
1628.62
1628.62
1628.62
1628.62
1628.62
1628.62
1628.62
1628.62
1628.62
1628.62
1628.62
1628.63
1628.63
1628.63
1628.63
1628.63
1628.63
1628.63
1628.63
1628.63
1628.63
1628.63
1628.64
1628.64
1628.64
1628.64
1628.64
1628.64
1628.64
1628.64
1628.64
1628.64
1628.65
1628.65
1628.65
1628.65
1628.65
1628.65
1628.65
1628.65
1628.65
1628.66
1628.66
1628.66
1628.66
1628.66
1628.66
1628.66
1628.67
1628.66
1628.68
1628.65
1628.73
1628.63
1628.93
1628.71
1629.56
1625.05
1560.46
1608
1616.89
1621.06
1622.78
1624.02
1624.8
1625.4
1625.85
1626.2
1626.47
1626.68
1626.85
1627
1627.12
1627.2
1627.24
1627.22
1627.15
1627.05
1626.94
1626.83
1626.74
1626.68
1626.63
1626.6
1626.58
1626.57
1626.56
1626.56
1626.56
1626.56
1626.56
1626.56
1626.56
1626.56
1626.56
1626.56
1626.56
1626.56
1626.56
1626.56
1626.56
1626.56
1626.56
1626.56
1626.56
1626.56
1626.56
1626.56
1626.56
1626.56
1626.56
1626.56
1626.56
1626.56
1626.56
1626.56
1626.56
1626.56
1626.57
1626.57
1626.57
1626.57
1626.57
1626.57
1626.57
1626.57
1626.57
1626.57
1626.57
1626.57
1626.57
1626.57
1626.57
1626.57
1626.57
1626.57
1626.58
1626.58
1626.58
1626.57
1626.59
1626.56
1626.64
1626.55
1626.82
1626.62
1627.42
1622.72
1563.2
1605.73
1613.22
1616.66
1618.02
1619.02
1619.66
1620.16
1620.53
1620.83
1621.05
1621.22
1621.37
1621.49
1621.59
1621.66
1621.69
1621.67
1621.62
1621.53
1621.44
1621.35
1621.28
1621.22
1621.18
1621.16
1621.14
1621.13
1621.13
1621.12
1621.12
1621.12
1621.12
1621.12
1621.12
1621.12
1621.12
1621.12
1621.12
1621.12
1621.12
1621.12
1621.12
1621.12
1621.12
1621.12
1621.12
1621.12
1621.12
1621.12
1621.12
1621.12
1621.12
1621.12
1621.12
1621.12
1621.12
1621.12
1621.12
1621.12
1621.12
1621.12
1621.12
1621.12
1621.12
1621.12
1621.12
1621.12
1621.12
1621.12
1621.12
1621.12
1621.12
1621.12
1621.12
1621.12
1621.12
1621.12
1621.13
1621.12
1621.13
1621.12
1621.14
1621.11
1621.18
1621.1
1621.34
1621.17
1621.86
1617.41
1588.49
1623.29
1629.24
1631.88
1632.83
1633.59
1634.06
1634.45
1634.74
1634.97
1635.14
1635.28
1635.39
1635.49
1635.57
1635.62
1635.65
1635.63
1635.59
1635.52
1635.45
1635.38
1635.32
1635.28
1635.25
1635.23
1635.21
1635.21
1635.2
1635.2
1635.2
1635.2
1635.2
1635.2
1635.2
1635.19
1635.19
1635.19
1635.19
1635.19
1635.19
1635.19
1635.19
1635.19
1635.19
1635.19
1635.19
1635.19
1635.19
1635.19
1635.19
1635.19
1635.19
1635.19
1635.19
1635.19
1635.19
1635.19
1635.19
1635.19
1635.19
1635.19
1635.19
1635.19
1635.19
1635.19
1635.19
1635.19
1635.19
1635.19
1635.19
1635.19
1635.19
1635.19
1635.19
1635.19
1635.19
1635.19
1635.2
1635.19
1635.2
1635.19
1635.21
1635.19
1635.24
1635.18
1635.38
1635.24
1635.78
1632.01
1546.63
1571.65
1576.22
1577.93
1578.28
1578.73
1578.97
1579.21
1579.39
1579.54
1579.65
1579.74
1579.81
1579.88
1579.93
1579.97
1579.98
1579.97
1579.94
1579.9
1579.85
1579.8
1579.77
1579.74
1579.72
1579.7
1579.69
1579.69
1579.68
1579.68
1579.68
1579.68
1579.68
1579.68
1579.68
1579.68
1579.68
1579.68
1579.68
1579.68
1579.68
1579.68
1579.68
1579.68
1579.68
1579.68
1579.68
1579.68
1579.68
1579.68
1579.68
1579.68
1579.68
1579.68
1579.68
1579.68
1579.68
1579.68
1579.68
1579.68
1579.68
1579.68
1579.68
1579.68
1579.68
1579.68
1579.68
1579.68
1579.68
1579.68
1579.68
1579.68
1579.68
1579.68
1579.68
1579.68
1579.68
1579.68
1579.68
1579.68
1579.68
1579.68
1579.69
1579.68
1579.72
1579.68
1579.85
1579.75
1580.27
1577.74
1562.56
1576.28
1577.58
1578.41
1578.41
1578.62
1578.71
1578.83
1578.92
1578.99
1579.05
1579.1
1579.13
1579.17
1579.2
1579.22
1579.22
1579.22
1579.2
1579.18
1579.15
1579.13
1579.11
1579.09
1579.08
1579.07
1579.07
1579.07
1579.07
1579.06
1579.06
1579.06
1579.06
1579.06
1579.06
1579.06
1579.06
1579.06
1579.06
1579.06
1579.06
1579.06
1579.06
1579.06
1579.06
1579.06
1579.06
1579.06
1579.06
1579.06
1579.06
1579.06
1579.06
1579.06
1579.07
1579.07
1579.07
1579.07
1579.07
1579.07
1579.07
1579.07
1579.07
1579.07
1579.07
1579.07
1579.07
1579.07
1579.07
1579.07
1579.07
1579.07
1579.07
1579.07
1579.07
1579.07
1579.07
1579.07
1579.07
1579.07
1579.07
1579.07
1579.07
1579.07
1579.09
1579.07
1579.18
1579.13
1579.41
1578.7
1317.83
1323.54
1319.65
1319.62
1319.05
1319.03
1318.96
1318.97
1318.98
1319
1319.02
1319.03
1319.04
1319.05
1319.06
1319.07
1319.07
1319.07
1319.07
1319.06
1319.05
1319.04
1319.03
1319.03
1319.03
1319.02
1319.02
1319.02
1319.02
1319.02
1319.02
1319.02
1319.02
1319.02
1319.02
1319.02
1319.02
1319.02
1319.02
1319.02
1319.02
1319.02
1319.02
1319.02
1319.02
1319.02
1319.02
1319.02
1319.02
1319.02
1319.02
1319.02
1319.02
1319.02
1319.02
1319.02
1319.02
1319.02
1319.02
1319.02
1319.02
1319.02
1319.02
1319.02
1319.02
1319.02
1319.02
1319.02
1319.02
1319.02
1319.02
1319.02
1319.02
1319.02
1319.03
1319.03
1319.03
1319.03
1319.03
1319.03
1319.03
1319.03
1319.03
1319.03
1319.05
1319.04
1319.14
1319.11
1319.47
1319.85
147.439
151.604
151.998
152.499
152.651
152.81
152.9
152.976
153.03
153.073
153.106
153.132
153.154
153.174
153.188
153.197
153.197
153.191
153.179
153.165
153.15
153.138
153.128
153.121
153.117
153.114
153.113
153.113
153.113
153.114
153.114
153.115
153.116
153.117
153.117
153.118
153.119
153.12
153.121
153.121
153.122
153.123
153.124
153.125
153.126
153.126
153.127
153.128
153.129
153.13
153.131
153.131
153.132
153.133
153.134
153.135
153.136
153.137
153.137
153.138
153.139
153.14
153.141
153.142
153.143
153.143
153.144
153.145
153.146
153.147
153.148
153.149
153.15
153.15
153.151
153.152
153.153
153.154
153.155
153.156
153.157
153.157
153.16
153.159
153.168
153.162
153.198
153.187
153.296
153.507
212.009
220.001
221.016
221.748
221.846
222.046
222.146
222.25
222.326
222.388
222.437
222.476
222.51
222.539
222.561
222.574
222.575
222.566
222.548
222.525
222.503
222.483