/*--------------------------------*- C++ -*----------------------------------*\
  =========                 |
  \\      /  F ield         | OpenFOAM: The Open Source CFD Toolbox
   \\    /   O peration     | Website:  https://openfoam.org
    \\  /    A nd           | Version:  7
     \\/     M anipulation  |
\*---------------------------------------------------------------------------*/
FoamFile
{
    version     2.0;
    format      ascii;
    class       volScalarField;
    location    "1.0175";
    object      k_0;
}
// * * * * * * * * * * * * * * * * * * * * * * * * * * * * * * * * * * * * * //

dimensions      [0 2 -2 0 0 0 0];

internalField   nonuniform List<scalar> 
7920
(
52.0186
56.437
56.3872
56.3706
56.236
56.2492
56.2092
56.2631
56.2431
56.2714
56.2414
56.2583
56.24
56.252
56.2402
56.2324
56.2381
56.1819
56.2971
56.3504
13.8395
14.0033
13.4183
12.8545
12.5788
12.4735
12.3874
12.3684
12.3286
12.3224
12.2953
12.2912
12.2728
12.2715
12.2619
12.2582
12.2535
12.2413
12.4169
12.4136
8.08694
9.2244
9.33907
9.32051
9.27296
9.25691
9.22599
9.22062
9.20454
9.2037
9.1938
9.19378
9.18677
9.18755
9.1831
9.18345
9.17988
9.17743
9.18164
9.20578
7.48509
8.7564
9.00714
9.09659
9.11621
9.14383
9.14381
9.15503
9.15427
9.16441
9.16511
9.17479
9.17622
9.18575
9.18851
9.19849
9.201
9.20859
9.21095
9.23628
7.42027
8.70263
8.9665
9.07251
9.10649
9.14861
9.15905
9.18418
9.19104
9.21224
9.2195
9.23902
9.24586
9.26407
9.27184
9.29096
9.29899
9.31586
9.32294
9.35275
7.42722
8.69912
8.96134
9.06893
9.10683
9.15408
9.16921
9.20099
9.21219
9.23967
9.25096
9.27633
9.28664
9.30994
9.32078
9.34498
9.3568
9.37852
9.39051
9.42222
7.42721
8.69912
8.96134
9.06894
9.10683
9.15408
9.1692
9.201
9.21219
9.23968
9.25096
9.27634
9.28663
9.30996
9.32077
9.34501
9.35678
9.37859
9.39058
9.42229
7.42027
8.70264
8.96649
9.07252
9.10648
9.14862
9.15905
9.18419
9.19102
9.21227
9.21948
9.23907
9.24582
9.26415
9.27178
9.2911
9.29894
9.31605
9.32299
9.35303
7.48509
8.75641
9.00713
9.0966
9.11619
9.14384
9.1438
9.15505
9.15424
9.16447
9.16506
9.1749
9.1761
9.18598
9.18829
9.19895
9.2006
9.20946
9.21044
9.23696
8.08694
9.22441
9.33907
9.32051
9.27295
9.25693
9.22596
9.22064
9.2045
9.20377
9.1937
9.19395
9.18651
9.18796
9.18247
9.18442
9.17819
9.18003
9.1793
9.20905
13.8395
14.0033
13.4183
12.8545
12.5787
12.4735
12.3874
12.3684
12.3285
12.3225
12.2951
12.2914
12.2724
12.2722
12.2608
12.2601
12.2503
12.2469
12.4055
12.4253
52.0186
56.4371
56.3872
56.3706
56.2359
56.2493
56.2091
56.2633
56.2427
56.2719
56.2405
56.2596
56.2378
56.2554
56.2345
56.2417
56.2224
56.2085
56.2491
56.43
7.67315
9.66333
9.73189
9.59346
9.54936
9.48094
9.48252
9.44897
9.45253
9.42567
9.42694
9.40667
9.40919
9.39343
9.39574
9.37972
9.38457
9.36171
9.37114
9.40478
6.02117
8.24808
8.58057
8.61559
8.61148
8.60776
8.60665
8.60935
8.61099
8.61147
8.61049
8.60879
8.60819
8.60641
8.6065
8.60304
8.60295
8.59698
8.60351
8.60515
5.70416
7.90641
8.25487
8.32103
8.32564
8.33496
8.33544
8.34381
8.3485
8.35928
8.36437
8.37313
8.37843
8.38548
8.39143
8.39571
8.40129
8.40132
8.40383
8.43386
5.6957
7.89742
8.24394
8.30889
8.3092
8.31096
8.30477
8.3054
8.30355
8.30771
8.31017
8.31687
8.32139
8.3291
8.33618
8.34369
8.35168
8.35578
8.36112
8.38298
5.68399
7.88173
8.22832
8.29557
8.29595
8.29747
8.28934
8.2876
8.28184
8.28334
8.28241
8.28578
8.28744
8.29326
8.29777
8.30673
8.3126
8.32152
8.32561
8.35042
5.69036
7.88976
8.23541
8.30224
8.30263
8.30434
8.29618
8.2943
8.28791
8.28883
8.28692
8.28944
8.28975
8.29413
8.29736
8.3059
8.31109
8.32088
8.32466
8.34867
5.69036
7.88976
8.23541
8.30224
8.30263
8.30434
8.29618
8.29431
8.2879
8.28884
8.28691
8.28945
8.28974
8.29414
8.29735
8.30592
8.31105
8.32089
8.32469
8.34863
5.68398
7.88173
8.22831
8.29557
8.29595
8.29747
8.28933
8.28761
8.28183
8.28337
8.28238
8.28584
8.2874
8.29334
8.29762
8.3069
8.31237
8.32173
8.32551
8.35042
5.6957
7.89743
8.24394
8.30889
8.30919
8.31097
8.30476
8.30542
8.30353
8.30777
8.31012
8.31699
8.32113
8.32945
8.33567
8.34436
8.35077
8.35677
8.36048
8.38332
5.70416
7.90642
8.25487
8.32103
8.32564
8.33497
8.33543
8.34385
8.34846
8.35936
8.36419
8.37339
8.37801
8.3861
8.39048
8.3971
8.39934
8.40356
8.40134
8.43614
6.02117
8.24809
8.58057
8.61559
8.61147
8.60777
8.60664
8.60938
8.61092
8.61154
8.61034
8.60904
8.60783
8.60698
8.60575
8.6044
8.60065
8.60047
8.59759
8.61306
7.67315
9.66333
9.73188
9.59347
9.54935
9.48095
9.4825
9.449
9.45248
9.42575
9.42681
9.40688
9.40887
9.39399
9.3949
9.38125
9.38219
9.36628
9.36411
9.41648
0.477026
1.03616
1.1345
1.10538
1.03227
0.966586
0.915798
0.880187
0.853741
0.833216
0.818245
0.80487
0.795777
0.785976
0.779874
0.772187
0.76731
0.763039
0.754822
0.763469
0.0860097
0.382248
0.525982
0.587677
0.609426
0.623318
0.630401
0.638337
0.642483
0.646913
0.6486
0.650491
0.650826
0.651328
0.651145
0.651061
0.650593
0.650047
0.649449
0.652054
0.0643352
0.299968
0.416127
0.474101
0.492214
0.505514
0.508593
0.514991
0.517348
0.522449
0.525042
0.529597
0.532448
0.536265
0.539179
0.542213
0.545021
0.547331
0.549153
0.553513
0.0682045
0.303661
0.417476
0.473037
0.490785
0.501777
0.503249
0.506179
0.506317
0.507392
0.507775
0.508952
0.509754
0.511049
0.512387
0.513416
0.515126
0.515951
0.517298
0.52063
0.0663746
0.299648
0.412353
0.467934
0.485285
0.496242
0.497458
0.500032
0.499799
0.500321
0.500112
0.500446
0.500483
0.500873
0.501239
0.501644
0.502192
0.502462
0.502833
0.50505
0.0674058
0.301883
0.414989
0.470344
0.487845
0.498698
0.500023
0.502585
0.50237
0.502821
0.502595
0.502832
0.502794
0.503026
0.503251
0.503535
0.50387
0.503998
0.504254
0.506216
0.0674057
0.301883
0.414989
0.470344
0.487845
0.498698
0.500023
0.502585
0.50237
0.502822
0.502595
0.502833
0.502794
0.503027
0.503248
0.503537
0.503868
0.503999
0.504252
0.506214
0.0663744
0.299648
0.412353
0.467934
0.485285
0.496242
0.497458
0.500032
0.499799
0.500321
0.500112
0.500448
0.500483
0.500875
0.501232
0.501647
0.502187
0.502459
0.502831
0.505039
0.0682041
0.303661
0.417475
0.473038
0.490785
0.501778
0.503248
0.50618
0.506317
0.507394
0.507775
0.50896
0.509735
0.511066
0.51236
0.513438
0.51509
0.515956
0.517277
0.52058
0.0643348
0.299968
0.416127
0.474102
0.492213
0.505515
0.508593
0.514993
0.517346
0.522455
0.525026
0.529615
0.532417
0.536298
0.539122
0.542256
0.54494
0.547344
0.549098
0.553407
0.0860094
0.382248
0.525982
0.587678
0.609424
0.623321
0.630397
0.638343
0.642473
0.646925
0.64858
0.650515
0.650791
0.651352
0.651086
0.65108
0.650471
0.650154
0.649257
0.652034
0.477026
1.03617
1.1345
1.10539
1.03227
0.96659
0.915794
0.880195
0.853732
0.833236
0.818226
0.80492
0.795738
0.786093
0.77979
0.772475
0.767128
0.763567
0.754717
0.764592
0.477026
1.03616
1.1345
1.10538
1.03227
0.966586
0.915798
0.880187
0.85374
0.833216
0.818245
0.80487
0.795777
0.785976
0.779874
0.772188
0.76731
0.763039
0.754823
0.763469
0.0860097
0.382248
0.525982
0.587677
0.609426
0.623318
0.630401
0.638337
0.642483
0.646913
0.6486
0.650491
0.650826
0.651328
0.651145
0.651061
0.650593
0.650047
0.649449
0.652055
0.0643352
0.299968
0.416128
0.474101
0.492214
0.505514
0.508593
0.514991
0.517348
0.522449
0.525042
0.529597
0.532448
0.536265
0.539179
0.542212
0.545021
0.547331
0.549153
0.553513
0.0682046
0.303661
0.417476
0.473037
0.490785
0.501777
0.503249
0.506179
0.506317
0.507392
0.507775
0.508952
0.509754
0.511049
0.512387
0.513416
0.515126
0.515951
0.517298
0.52063
0.0663746
0.299648
0.412354
0.467934
0.485285
0.496242
0.497458
0.500032
0.499799
0.500321
0.500112
0.500446
0.500483
0.500873
0.50124
0.501644
0.502192
0.502462
0.502833
0.50505
0.0674058
0.301883
0.414989
0.470344
0.487845
0.498698
0.500023
0.502585
0.50237
0.502821
0.502595
0.502832
0.502794
0.503026
0.503251
0.503535
0.50387
0.503998
0.504254
0.506216
0.0674057
0.301883
0.414989
0.470344
0.487845
0.498698
0.500023
0.502585
0.50237
0.502822
0.502595
0.502833
0.502794
0.503027
0.503249
0.503537
0.503868
0.503999
0.504253
0.506214
0.0663744
0.299648
0.412353
0.467934
0.485285
0.496242
0.497458
0.500032
0.499799
0.500321
0.500112
0.500448
0.500483
0.500875
0.501233
0.501647
0.502187
0.502459
0.502832
0.505039
0.0682042
0.303661
0.417475
0.473038
0.490785
0.501778
0.503248
0.50618
0.506317
0.507394
0.507775
0.50896
0.509735
0.511067
0.51236
0.513438
0.51509
0.515956
0.517277
0.520581
0.0643348
0.299968
0.416127
0.474102
0.492213
0.505515
0.508593
0.514993
0.517346
0.522455
0.525026
0.529615
0.532417
0.536298
0.539122
0.542256
0.54494
0.547344
0.549098
0.553407
0.0860094
0.382248
0.525982
0.587678
0.609424
0.623321
0.630397
0.638343
0.642473
0.646925
0.64858
0.650515
0.650791
0.651352
0.651086
0.65108
0.650471
0.650154
0.649257
0.652034
0.477026
1.03617
1.1345
1.10539
1.03227
0.966589
0.915794
0.880195
0.853733
0.833237
0.818227
0.80492
0.795738
0.786093
0.77979
0.772475
0.767128
0.763567
0.754717
0.764592
7.67315
9.66333
9.73189
9.59346
9.54936
9.48094
9.48252
9.44897
9.45253
9.42567
9.42694
9.40667
9.40918
9.39343
9.39574
9.37972
9.38457
9.36171
9.37114
9.40478
6.02117
8.24808
8.58057
8.61559
8.61148
8.60776
8.60665
8.60935
8.61099
8.61147
8.61048
8.60879
8.60818
8.6064
8.60649
8.60304
8.60295
8.59698
8.60351
8.60515
5.70416
7.90641
8.25487
8.32103
8.32564
8.33496
8.33544
8.34381
8.3485
8.35928
8.36437
8.37313
8.37842
8.38548
8.39143
8.39571
8.40129
8.40131
8.40383
8.43386
5.6957
7.89742
8.24394
8.30889
8.3092
8.31096
8.30477
8.3054
8.30356
8.30771
8.31017
8.31687
8.32139
8.3291
8.33618
8.34369
8.35168
8.35578
8.36112
8.38298
5.68399
7.88173
8.22832
8.29557
8.29595
8.29747
8.28934
8.2876
8.28184
8.28334
8.28241
8.28578
8.28744
8.29326
8.29777
8.30672
8.3126
8.32152
8.32561
8.35042
5.69036
7.88976
8.23541
8.30224
8.30263
8.30434
8.29618
8.2943
8.28791
8.28883
8.28692
8.28944
8.28975
8.29413
8.29736
8.3059
8.31109
8.32088
8.32467
8.34867
5.69036
7.88976
8.23541
8.30224
8.30263
8.30434
8.29618
8.29431
8.2879
8.28884
8.28691
8.28945
8.28974
8.29414
8.29735
8.30592
8.31105
8.32089
8.3247
8.34863
5.68398
7.88173
8.22831
8.29557
8.29595
8.29747
8.28933
8.28761
8.28183
8.28337
8.28238
8.28584
8.2874
8.29334
8.29762
8.3069
8.31238
8.32173
8.32551
8.35042
5.6957
7.89743
8.24394
8.30889
8.30919
8.31097
8.30476
8.30542
8.30353
8.30776
8.31011
8.31699
8.32113
8.32945
8.33567
8.34436
8.35077
8.35677
8.36049
8.38332
5.70416
7.90642
8.25487
8.32103
8.32564
8.33497
8.33543
8.34384
8.34846
8.35936
8.36419
8.3734
8.37801
8.3861
8.39049
8.3971
8.39934
8.40357
8.40134
8.43614
6.02117
8.24809
8.58057
8.61559
8.61147
8.60777
8.60663
8.60938
8.61093
8.61155
8.61034
8.60905
8.60783
8.60698
8.60575
8.6044
8.60065
8.60047
8.59759
8.61306
7.67315
9.66333
9.73188
9.59347
9.54935
9.48095
9.4825
9.44901
9.45248
9.42576
9.42682
9.40689
9.40887
9.39399
9.39491
9.38125
9.38219
9.36628
9.36411
9.41648
52.0186
56.437
56.3872
56.3706
56.236
56.2492
56.2092
56.2631
56.2431
56.2713
56.2413
56.2583
56.2399
56.252
56.2402
56.2324
56.2381
56.1819
56.2971
56.3504
13.8395
14.0033
13.4183
12.8545
12.5788
12.4735
12.3874
12.3684
12.3286
12.3224
12.2953
12.2912
12.2728
12.2715
12.2619
12.2582
12.2535
12.2413
12.4169
12.4136
8.08694
9.2244
9.33907
9.32051
9.27296
9.25691
9.22599
9.22062
9.20454
9.2037
9.1938
9.19378
9.18677
9.18755
9.1831
9.18344
9.17987
9.17743
9.18164
9.20578
7.48509
8.7564
9.00714
9.09659
9.11621
9.14383
9.14381
9.15503
9.15427
9.16442
9.16511
9.17479
9.17622
9.18574
9.18851
9.19848
9.201
9.20859
9.21095
9.23628
7.42027
8.70263
8.9665
9.07251
9.10649
9.14861
9.15905
9.18418
9.19104
9.21224
9.2195
9.23902
9.24586
9.26407
9.27184
9.29096
9.29899
9.31586
9.32294
9.35275
7.42722
8.69912
8.96134
9.06893
9.10683
9.15408
9.16921
9.20099
9.21219
9.23967
9.25096
9.27633
9.28664
9.30994
9.32078
9.34498
9.3568
9.37852
9.39051
9.42222
7.42721
8.69912
8.96134
9.06894
9.10683
9.15408
9.1692
9.201
9.21219
9.23968
9.25096
9.27634
9.28663
9.30996
9.32077
9.34501
9.35678
9.37859
9.39058
9.42229
7.42027
8.70264
8.96649
9.07252
9.10648
9.14862
9.15905
9.18419
9.19102
9.21227
9.21948
9.23907
9.24582
9.26415
9.27178
9.2911
9.29894
9.31606
9.32299
9.35303
7.48509
8.75641
9.00713
9.0966
9.11619
9.14384
9.1438
9.15505
9.15424
9.16447
9.16506
9.1749
9.1761
9.18598
9.18829
9.19895
9.20061
9.20946
9.21044
9.23696
8.08694
9.22441
9.33907
9.32051
9.27295
9.25693
9.22596
9.22064
9.2045
9.20377
9.1937
9.19395
9.18651
9.18797
9.18248
9.18443
9.17819
9.18003
9.1793
9.20905
13.8395
14.0033
13.4183
12.8545
12.5787
12.4735
12.3874
12.3684
12.3285
12.3225
12.2951
12.2914
12.2724
12.2722
12.2608
12.2601
12.2503
12.2469
12.4055
12.4253
52.0186
56.4371
56.3872
56.3706
56.2359
56.2493
56.2091
56.2633
56.2428
56.2719
56.2405
56.2596
56.2378
56.2555
56.2345
56.2417
56.2224
56.2085
56.2491
56.43
143.742
145.807
146.883
147.812
148.512
149.115
149.575
150.016
150.387
150.74
151.01
151.235
151.379
151.488
151.546
151.591
151.607
151.624
151.626
151.633
151.631
151.636
151.633
151.637
151.634
151.638
151.636
151.639
151.637
151.64
151.639
151.641
151.64
151.643
151.642
151.645
151.644
151.646
151.646
151.648
151.648
151.65
151.65
151.653
151.653
151.655
151.655
151.658
151.658
151.66
151.661
151.663
151.664
151.666
151.667
151.669
151.67
151.673
151.674
151.676
151.677
151.68
151.681
151.683
151.685
151.687
151.688
151.691
151.692
151.695
151.696
151.699
151.701
151.703
151.705
151.707
151.709
151.711
151.713
151.715
151.718
151.718
151.723
151.72
151.729
151.722
151.731
151.728
151.699
151.692
47.178
48.9154
49.2513
49.5684
49.7771
49.989
50.1225
50.2781
50.3857
50.5123
50.5902
50.6739
50.7116
50.7556
50.7653
50.786
50.7827
50.7929
50.7853
50.7915
50.7832
50.7879
50.7799
50.7839
50.7765
50.7799
50.773
50.7761
50.7696
50.7723
50.7663
50.7687
50.7631
50.7653
50.76
50.7619
50.757
50.7588
50.7542
50.7559
50.7516
50.7531
50.7491
50.7506
50.7469
50.7482
50.7448
50.7461
50.743
50.7442
50.7413
50.7426
50.7399
50.7411
50.7387
50.7399
50.7378
50.739
50.737
50.7382
50.7365
50.7377
50.7362
50.7375
50.7361
50.7374
50.7363
50.7376
50.7367
50.7381
50.7373
50.7387
50.738
50.7395
50.739
50.7405
50.7402
50.7417
50.7416
50.743
50.7432
50.7441
50.7451
50.745
50.7472
50.746
50.7481
50.7487
50.7333
50.7271
30.4623
32.46
32.6511
32.858
32.9733
33.1275
33.1954
33.3034
33.3553
33.4494
33.4934
33.5657
33.5879
33.6326
33.6358
33.6606
33.6544
33.6694
33.6599
33.6711
33.6611
33.6705
33.661
33.6694
33.6606
33.6683
33.6601
33.6671
33.6596
33.666
33.6589
33.6648
33.6582
33.6636
33.6574
33.6623
33.6565
33.6611
33.6557
33.6599
33.6548
33.6588
33.654
33.6577
33.6532
33.6567
33.6525
33.6558
33.6519
33.655
33.6514
33.6543
33.651
33.6537
33.6507
33.6534
33.6506
33.6532
33.6507
33.6532
33.651
33.6534
33.6514
33.6539
33.6521
33.6545
33.6529
33.6554
33.654
33.6565
33.6553
33.6578
33.6568
33.6593
33.6586
33.6611
33.6605
33.663
33.6627
33.6651
33.6651
33.6672
33.6676
33.6693
33.6703
33.6716
33.6725
33.6748
33.6715
33.6546
28.2747
30.6631
30.8305
31.0062
31.0986
31.2503
31.3014
31.3983
31.4314
31.5198
31.5589
31.6398
31.665
31.7205
31.7266
31.7592
31.7543
31.7747
31.7655
31.7807
31.7707
31.7837
31.7742
31.7861
31.7774
31.7884
31.7804
31.7908
31.7834
31.7931
31.7863
31.7953
31.7891
31.7976
31.7918
31.7997
31.7944
31.8018
31.7969
31.8039
31.7994
31.806
31.8018
31.808
31.8042
31.8101
31.8066
31.8122
31.809
31.8143
31.8114
31.8165
31.8139
31.8187
31.8164
31.8211
31.8191
31.8236
31.8218
31.8262
31.8247
31.829
31.8276
31.8319
31.8308
31.8349
31.834
31.8382
31.8375
31.8416
31.8411
31.8451
31.8448
31.8488
31.8487
31.8527
31.8528
31.8567
31.857
31.8608
31.8613
31.8649
31.8658
31.8691
31.8703
31.8735
31.8745
31.8781
31.8796
31.8586
28.1373
30.7662
30.925
31.0796
31.1534
31.3044
31.3446
31.432
31.4505
31.5316
31.5673
31.6538
31.6826
31.7469
31.7564
31.7956
31.7923
31.8167
31.8082
31.8264
31.8165
31.832
31.8226
31.8369
31.8283
31.8416
31.8339
31.8465
31.8395
31.8513
31.8449
31.856
31.8503
31.8607
31.8555
31.8654
31.8606
31.8699
31.8656
31.8744
31.8705
31.8789
31.8754
31.8833
31.8802
31.8877
31.8849
31.8921
31.8896
31.8966
31.8943
31.901
31.8991
31.9055
31.9039
31.91
31.9087
31.9147
31.9136
31.9194
31.9186
31.9243
31.9236
31.9292
31.9288
31.9343
31.9341
31.9395
31.9395
31.9448
31.945
31.9503
31.9506
31.9559
31.9564
31.9616
31.9623
31.9674
31.9682
31.9732
31.9743
31.979
31.9803
31.9849
31.9863
31.9909
31.9922
31.9965
32
31.9784
28.2363
31.0173
31.1686
31.3024
31.358
31.4985
31.5277
31.602
31.608
31.6789
31.7101
31.7964
31.8264
31.8947
31.906
31.9485
31.9462
31.9727
31.9647
31.9843
31.9746
31.9913
31.9821
31.9974
31.989
32.0035
31.996
32.0096
32.0029
32.0158
32.0097
32.0219
32.0165
32.028
32.0231
32.034
32.0296
32.0399
32.036
32.0458
32.0423
32.0516
32.0485
32.0574
32.0547
32.0632
32.0608
32.0689
32.0668
32.0746
32.0728
32.0803
32.0789
32.0861
32.0849
32.0919
32.091
32.0978
32.0971
32.1037
32.1033
32.1098
32.1096
32.1159
32.1159
32.1221
32.1224
32.1285
32.1289
32.135
32.1356
32.1416
32.1423
32.1482
32.1492
32.155
32.1561
32.1618
32.1631
32.1686
32.1701
32.1755
32.1771
32.1824
32.1841
32.1893
32.191
32.1956
32.2003
32.1774
28.2382
31.0079
31.1404
31.2534
31.2903
31.4114
31.427
31.4868
31.4836
31.5455
31.5718
31.6539
31.6821
31.7487
31.7595
31.8016
31.7992
31.8256
31.8175
31.8371
31.8274
31.8442
31.8349
31.8503
31.842
31.8564
31.8489
31.8626
31.8559
31.8688
31.8628
31.875
31.8696
31.8811
31.8762
31.8872
31.8828
31.8932
31.8893
31.8991
31.8956
31.905
31.9019
31.9108
31.9081
31.9166
31.9142
31.9224
31.9203
31.9281
31.9264
31.9339
31.9325
31.9397
31.9386
31.9456
31.9447
31.9515
31.9509
31.9575
31.9571
31.9636
31.9634
31.9697
31.9698
31.976
31.9763
31.9824
31.9829
31.9889
31.9895
31.9955
31.9963
32.0022
32.0032
32.009
32.0101
32.0159
32.0171
32.0227
32.0241
32.0296
32.0311
32.0366
32.0381
32.0434
32.0451
32.0496
32.0545
32.0319
28.1403
30.7275
30.823
30.9133
30.9313
31.0257
31.0261
31.072
31.0646
31.121
31.1434
31.2183
31.2421
31.3023
31.3103
31.3483
31.3447
31.3689
31.3603
31.3784
31.3687
31.3842
31.3749
31.3891
31.3807
31.394
31.3864
31.399
31.3921
31.4039
31.3977
31.4089
31.4032
31.4137
31.4086
31.4185
31.4139
31.4233
31.4191
31.428
31.4241
31.4326
31.4292
31.4372
31.4341
31.4418
31.439
31.4463
31.4439
31.4509
31.4488
31.4555
31.4536
31.4601
31.4586
31.4648
31.4635
31.4696
31.4685
31.4744
31.4736
31.4794
31.4788
31.4844
31.4841
31.4896
31.4895
31.4949
31.4949
31.5003
31.5005
31.5059
31.5063
31.5115
31.5121
31.5173
31.518
31.5232
31.524
31.529
31.5301
31.535
31.5361
31.541
31.5421
31.547
31.5482
31.5523
31.5563
31.5357
28.2577
30.538
30.5888
30.6568
30.6583
30.7233
30.7115
30.7477
30.7414
30.7944
30.8148
30.8802
30.8985
30.9485
30.9528
30.9839
30.9786
30.9986
30.9895
31.0046
30.9948
31.0078
30.9984
31.0104
31.0018
31.0129
31.0051
31.0155
31.0083
31.018
31.0115
31.0206
31.0145
31.0231
31.0175
31.0255
31.0204
31.0279
31.0232
31.0302
31.0259
31.0326
31.0286
31.0349
31.0312
31.0372
31.0339
31.0395
31.0365
31.0419
31.0392
31.0443
31.0419
31.0468
31.0446
31.0494
31.0475
31.0521
31.0504
31.0549
31.0535
31.0578
31.0566
31.0609
31.0599
31.0641
31.0633
31.0675
31.0669
31.071
31.0706
31.0747
31.0745
31.0785
31.0785
31.0825
31.0826
31.0866
31.0869
31.0908
31.0913
31.0951
31.0957
31.0996
31.1001
31.104
31.1047
31.1081
31.1102
31.0905
30.3543
32.1253
32.1318
32.1826
32.1721
32.2134
32.1954
32.2284
32.2299
32.2831
32.3043
32.3603
32.3745
32.4135
32.4147
32.4379
32.4313
32.446
32.4366
32.4476
32.4378
32.4472
32.4379
32.4464
32.4378
32.4455
32.4376
32.4447
32.4373
32.4438
32.4369
32.4429
32.4365
32.442
32.436
32.4411
32.4355
32.4403
32.435
32.4394
32.4345
32.4385
32.434
32.4378
32.4335
32.437
32.4331
32.4364
32.4327
32.4359
32.4324
32.4355
32.4323
32.4352
32.4323
32.4351
32.4324
32.4351
32.4327
32.4353
32.4331
32.4357
32.4338
32.4363
32.4346
32.4371
32.4356
32.4381
32.4368
32.4394
32.4383
32.4408
32.4399
32.4425
32.4417
32.4443
32.4438
32.4463
32.446
32.4485
32.4483
32.4508
32.4508
32.4533
32.4532
32.4559
32.4557
32.4582
32.4563
32.4406
46.7466
47.9974
47.995
48.0447
48.0364
48.0644
48.0519
48.091
48.1162
48.1846
48.2261
48.2871
48.3123
48.3491
48.3552
48.3738
48.3698
48.3794
48.3717
48.3777
48.3694
48.374
48.3661
48.3701
48.3627
48.3662
48.3593
48.3624
48.356
48.3588
48.3529
48.3553
48.3498
48.352
48.3468
48.3489
48.344
48.3459
48.3414
48.3431
48.3389
48.3405
48.3366
48.3381
48.3345
48.3359
48.3326
48.3339
48.3308
48.3321
48.3293
48.3306
48.328
48.3293
48.3269
48.3281
48.326
48.3273
48.3254
48.3266
48.3249
48.3262
48.3247
48.326
48.3247
48.326
48.3249
48.3262
48.3253
48.3267
48.3259
48.3273
48.3267
48.3281
48.3276
48.3292
48.3288
48.3303
48.3301
48.3316
48.3316
48.333
48.3331
48.3345
48.3344
48.336
48.3355
48.3375
48.3234
48.3173
141.988
142.534
142.581
142.698
142.735
142.783
142.797
142.89
143.011
143.191
143.35
143.507
143.613
143.701
143.747
143.785
143.799
143.814
143.814
143.821
143.818
143.822
143.819
143.823
143.82
143.823
143.821
143.824
143.822
143.825
143.823
143.826
143.825
143.827
143.826
143.829
143.828
143.831
143.83
143.833
143.832
143.835
143.834
143.837
143.837
143.839
143.839
143.842
143.842
143.845
143.845
143.847
143.848
143.85
143.851
143.854
143.854
143.857
143.858
143.86
143.861
143.864
143.865
143.867
143.869
143.871
143.872
143.875
143.876
143.879
143.88
143.883
143.884
143.887
143.888
143.891
143.892
143.895
143.897
143.899
143.901
143.903
143.904
143.906
143.908
143.91
143.91
143.912
143.887
143.878
30.1018
30.8513
31.0845
31.2653
31.4087
31.5254
31.6185
31.7072
31.781
31.8518
31.9015
31.945
31.9676
31.9881
31.9932
32.0014
31.9986
32.0017
31.9963
31.9978
31.9919
31.9929
31.9872
31.988
31.9826
31.9833
31.9782
31.9789
31.9741
31.9747
31.9702
31.9707
31.9665
31.967
31.9631
31.9635
31.9598
31.9602
31.9568
31.9572
31.954
31.9544
31.9514
31.9518
31.9491
31.9494
31.9469
31.9472
31.9449
31.9453
31.9432
31.9435
31.9416
31.942
31.9402
31.9406
31.939
31.9395
31.938
31.9385
31.9372
31.9377
31.9366
31.9371
31.9361
31.9367
31.9359
31.9365
31.9358
31.9364
31.9358
31.9365
31.9361
31.9368
31.9365
31.9373
31.9371
31.9379
31.9379
31.9387
31.9389
31.9395
31.9404
31.9405
31.9424
31.9418
31.9444
31.9452
31.9427
31.9448
27.996
29.3122
29.543
29.7259
29.8684
29.99
30.0826
30.1724
30.2469
30.3212
30.376
30.4256
30.4548
30.4812
30.4924
30.5054
30.5079
30.515
30.5144
30.5192
30.5177
30.5217
30.5202
30.5238
30.5223
30.5257
30.5242
30.5274
30.526
30.5289
30.5276
30.5303
30.529
30.5315
30.5303
30.5326
30.5315
30.5336
30.5325
30.5346
30.5335
30.5354
30.5345
30.5362
30.5353
30.537
30.5361
30.5377
30.5369
30.5384
30.5377
30.5391
30.5385
30.5398
30.5392
30.5405
30.54
30.5412
30.5408
30.542
30.5416
30.5428
30.5425
30.5437
30.5434
30.5446
30.5444
30.5456
30.5454
30.5466
30.5465
30.5477
30.5477
30.5489
30.5489
30.5501
30.5503
30.5515
30.5517
30.5529
30.5533
30.5542
30.5551
30.5555
30.5571
30.5571
30.5587
30.5597
30.5596
30.5639
25.8226
27.6338
27.867
28.0324
28.1718
28.2897
28.3779
28.4565
28.5256
28.5953
28.6546
28.7077
28.7453
28.7758
28.7938
28.8089
28.8162
28.8239
28.8269
28.832
28.8335
28.8377
28.839
28.8429
28.8441
28.8478
28.8491
28.8526
28.8539
28.8573
28.8586
28.8619
28.8631
28.8664
28.8676
28.8707
28.8719
28.8749
28.8761
28.8789
28.8801
28.8829
28.8841
28.8867
28.8879
28.8904
28.8916
28.894
28.8952
28.8975
28.8986
28.9009
28.902
28.9042
28.9053
28.9074
28.9084
28.9105
28.9115
28.9135
28.9145
28.9164
28.9174
28.9193
28.9203
28.922
28.923
28.9248
28.9257
28.9274
28.9283
28.93
28.9309
28.9325
28.9334
28.935
28.9359
28.9374
28.9383
28.9397
28.9407
28.9418
28.9431
28.9438
28.9455
28.9458
28.9471
28.9483
28.9478
28.9312
25.1169
27.1624
27.3699
27.5051
27.6337
27.7482
27.8297
27.8966
27.9555
28.0195
28.0804
28.1381
28.183
28.2192
28.2427
28.2605
28.2706
28.2789
28.2831
28.2877
28.2899
28.2933
28.2949
28.298
28.2995
28.3025
28.304
28.3069
28.3084
28.3113
28.3128
28.3155
28.317
28.3197
28.3212
28.3237
28.3252
28.3277
28.3292
28.3316
28.3331
28.3355
28.3369
28.3392
28.3407
28.3429
28.3443
28.3465
28.3479
28.35
28.3513
28.3534
28.3547
28.3567
28.3581
28.36
28.3613
28.3632
28.3645
28.3663
28.3675
28.3693
28.3705
28.3723
28.3735
28.3751
28.3763
28.3779
28.3791
28.3807
28.3818
28.3833
28.3844
28.3859
28.387
28.3884
28.3894
28.3908
28.3919
28.3931
28.3943
28.3952
28.3966
28.3973
28.3987
28.3993
28.4003
28.4016
28.4017
28.3912
24.6938
26.891
27.0644
27.1629
27.2719
27.3772
27.4484
27.5018
27.5472
27.6022
27.6601
27.7196
27.7685
27.809
27.8363
27.8564
27.8682
27.877
27.8816
27.8858
27.8877
27.8905
27.8917
27.894
27.8951
27.8974
27.8984
27.9006
27.9017
27.9038
27.9048
27.9069
27.908
27.91
27.911
27.913
27.914
27.916
27.917
27.9189
27.9199
27.9217
27.9227
27.9245
27.9255
27.9272
27.9282
27.9299
27.9309
27.9325
27.9335
27.9351
27.9361
27.9376
27.9386
27.9401
27.941
27.9425
27.9435
27.9449
27.9458
27.9472
27.9482
27.9495
27.9505
27.9518
27.9527
27.954
27.9549
27.9562
27.957
27.9583
27.9592
27.9604
27.9612
27.9624
27.9633
27.9644
27.9653
27.9663
27.9673
27.9681
27.9692
27.9699
27.9709
27.9716
27.9721
27.9732
27.9732
27.9536
24.6156
26.8528
26.9922
27.056
27.1422
27.2331
27.2917
27.331
27.3637
27.4088
27.4617
27.5199
27.5697
27.612
27.641
27.6627
27.6754
27.685
27.6897
27.6941
27.6958
27.6985
27.6994
27.7016
27.7024
27.7045
27.7052
27.7072
27.708
27.7099
27.7107
27.7126
27.7133
27.7151
27.7159
27.7176
27.7184
27.7201
27.7208
27.7224
27.7232
27.7248
27.7255
27.727
27.7278
27.7293
27.73
27.7314
27.7321
27.7336
27.7343
27.7356
27.7364
27.7377
27.7384
27.7397
27.7404
27.7417
27.7424
27.7436
27.7443
27.7455
27.7462
27.7474
27.7481
27.7492
27.7499
27.7511
27.7517
27.7529
27.7535
27.7546
27.7553
27.7564
27.757
27.7581
27.7588
27.7598
27.7605
27.7614
27.7622
27.763
27.7638
27.7646
27.7653
27.7662
27.7666
27.7676
27.7676
27.7501
24.616
26.8418
26.9624
27.0059
27.0732
27.1473
27.1915
27.2183
27.2412
27.2789
27.3266
27.3812
27.4289
27.4699
27.4981
27.5195
27.532
27.5414
27.5461
27.5505
27.5521
27.5548
27.5557
27.5579
27.5587
27.5608
27.5615
27.5635
27.5642
27.5662
27.5669
27.5688
27.5695
27.5713
27.5721
27.5738
27.5746
27.5763
27.577
27.5786
27.5794
27.581
27.5817
27.5832
27.5839
27.5854
27.5862
27.5876
27.5883
27.5897
27.5905
27.5918
27.5925
27.5939
27.5946
27.5959
27.5966
27.5978
27.5985
27.5998
27.6005
27.6017
27.6024
27.6036
27.6042
27.6054
27.6061
27.6072
27.6079
27.609
27.6097
27.6108
27.6115
27.6125
27.6132
27.6143
27.6149
27.6159
27.6167
27.6176
27.6184
27.6192
27.6199
27.6208
27.6214
27.6224
27.6228
27.6237
27.6238
27.6065
24.6939
26.8485
26.9628
27.0007
27.0548
27.1113
27.1412
27.1596
27.1779
27.2122
27.2559
27.306
27.3492
27.3862
27.4115
27.4308
27.442
27.4506
27.455
27.4591
27.4609
27.4637
27.4648
27.4671
27.4681
27.4704
27.4714
27.4736
27.4746
27.4767
27.4777
27.4798
27.4808
27.4829
27.4838
27.4858
27.4868
27.4887
27.4897
27.4916
27.4926
27.4944
27.4954
27.4972
27.4982
27.4999
27.5009
27.5026
27.5035
27.5052
27.5061
27.5077
27.5087
27.5102
27.5112
27.5127
27.5137
27.5151
27.5161
27.5175
27.5184
27.5198
27.5207
27.5221
27.523
27.5243
27.5252
27.5265
27.5274
27.5287
27.5295
27.5308
27.5316
27.5329
27.5337
27.5349
27.5357
27.5369
27.5377
27.5388
27.5397
27.5407
27.5415
27.5425
27.5431
27.5442
27.5446
27.5454
27.5459
27.5269
25.0976
27.0409
27.1377
27.1725
27.2137
27.2518
27.2697
27.2839
27.3028
27.337
27.3779
27.4225
27.4595
27.491
27.512
27.5284
27.5378
27.5457
27.5497
27.5542
27.5562
27.5595
27.5611
27.5641
27.5656
27.5685
27.57
27.5729
27.5743
27.5771
27.5786
27.5813
27.5828
27.5854
27.5869
27.5894
27.5909
27.5934
27.5949
27.5973
27.5987
27.6011
27.6025
27.6048
27.6062
27.6084
27.6099
27.612
27.6134
27.6155
27.6169
27.6189
27.6203
27.6222
27.6236
27.6255
27.6268
27.6287
27.63
27.6318
27.633
27.6348
27.636
27.6377
27.6389
27.6406
27.6418
27.6434
27.6445
27.6461
27.6472
27.6487
27.6498
27.6513
27.6524
27.6538
27.6548
27.6562
27.6572
27.6585
27.6596
27.6608
27.6617
27.663
27.6637
27.665
27.6656
27.6666
27.6671
27.6572
25.7419
27.3622
27.4347
27.4664
27.4938
27.5159
27.5257
27.5413
27.5636
27.5999
27.6372
27.6765
27.7059
27.7317
27.7472
27.7609
27.7675
27.7749
27.7776
27.7825
27.784
27.7881
27.7893
27.7932
27.7944
27.798
27.7992
27.8028
27.804
27.8074
27.8087
27.812
27.8132
27.8164
27.8176
27.8207
27.822
27.8249
27.8261
27.829
27.8302
27.833
27.8342
27.8368
27.838
27.8406
27.8417
27.8442
27.8453
27.8477
27.8488
27.8511
27.8522
27.8544
27.8555
27.8577
27.8587
27.8608
27.8618
27.8638
27.8649
27.8668
27.8678
27.8696
27.8706
27.8724
27.8734
27.8752
27.8761
27.8778
27.8788
27.8804
27.8813
27.8829
27.8838
27.8854
27.8863
27.8878
27.8887
27.8901
27.891
27.8924
27.8932
27.8947
27.8953
27.8968
27.8972
27.8985
27.8994
27.8836
27.7682
28.7985
28.8265
28.8498
28.8611
28.873
28.8771
28.8973
28.9219
28.9615
28.9942
29.0302
29.0517
29.0738
29.0828
29.0946
29.0966
29.1033
29.1026
29.1073
29.1059
29.1098
29.1083
29.1119
29.1104
29.1138
29.1124
29.1156
29.1143
29.1172
29.116
29.1187
29.1175
29.1201
29.1189
29.1213
29.1202
29.1224
29.1214
29.1235
29.1225
29.1245
29.1236
29.1254
29.1246
29.1263
29.1255
29.1271
29.1264
29.128
29.1273
29.1288
29.1282
29.1296
29.129
29.1304
29.1299
29.1312
29.1308
29.1321
29.1317
29.133
29.1327
29.1339
29.1337
29.1349
29.1347
29.1359
29.1358
29.137
29.1369
29.1381
29.1381
29.1393
29.1394
29.1406
29.1407
29.1419
29.1421
29.1434
29.1436
29.1449
29.1452
29.1465
29.1468
29.1484
29.1484
29.1503
29.1509
29.1551
29.6997
30.1159
30.1289
30.1387
30.1417
30.1421
30.1418
30.1585
30.1807
30.2164
30.2439
30.2741
30.2892
30.3056
30.3086
30.3158
30.3126
30.3154
30.31
30.3114
30.3056
30.3066
30.3009
30.3018
30.2965
30.2972
30.2922
30.2929
30.2882
30.2889
30.2845
30.285
30.2809
30.2814
30.2775
30.278
30.2744
30.2748
30.2715
30.2719
30.2688
30.2691
30.2663
30.2666
30.264
30.2643
30.2619
30.2622
30.26
30.2603
30.2583
30.2586
30.2568
30.2571
30.2554
30.2558
30.2543
30.2547
30.2533
30.2538
30.2525
30.2531
30.2519
30.2525
30.2515
30.2521
30.2512
30.2519
30.2511
30.2518
30.2512
30.2519
30.2514
30.2522
30.2518
30.2526
30.2524
30.2532
30.2532
30.254
30.2541
30.255
30.2553
30.2563
30.2567
30.2581
30.2586
30.2606
30.2582
30.2599
3.62028
3.81683
3.83907
3.85075
3.86717
3.88136
3.89424
3.90954
3.919
3.93307
3.9378
3.94894
3.94947
3.958
3.95593
3.96288
3.95943
3.96544
3.96129
3.96667
3.96217
3.96701
3.96234
3.96669
3.96195
3.96583
3.96109
3.96454
3.95984
3.96289
3.95828
3.96096
3.95646
3.95881
3.95444
3.95649
3.95228
3.95407
3.95001
3.95157
3.94768
3.94904
3.94531
3.9465
3.94294
3.94398
3.94059
3.94151
3.93829
3.93909