/*--------------------------------*- C++ -*----------------------------------*\
  =========                 |
  \\      /  F ield         | OpenFOAM: The Open Source CFD Toolbox
   \\    /   O peration     | Website:  https://openfoam.org
    \\  /    A nd           | Version:  7
     \\/     M anipulation  |
\*---------------------------------------------------------------------------*/
FoamFile
{
    version     2.0;
    format      ascii;
    class       volScalarField;
    location    "1.3025";
    object      rho_0;
}
// * * * * * * * * * * * * * * * * * * * * * * * * * * * * * * * * * * * * * //

dimensions      [1 -3 0 0 0 0 0];

internalField   nonuniform List<scalar> 
7920
(
1.23167
1.23199
1.23299
1.23259
1.23265
1.23184
1.23183
1.23143
1.23171
1.23158
1.23181
1.23165
1.23177
1.23171
1.23177
1.23184
1.23166
1.23203
1.23127
1.23264
1.23124
1.23143
1.23223
1.2322
1.23241
1.23186
1.2317
1.23127
1.23129
1.23115
1.23124
1.23114
1.23118
1.23117
1.23116
1.23131
1.2311
1.23159
1.23076
1.23231
1.23148
1.23154
1.23232
1.23229
1.23283
1.23255
1.23266
1.2322
1.23215
1.23175
1.2317
1.2314
1.23134
1.23119
1.23114
1.23121
1.23108
1.23144
1.23104
1.23188
1.23129
1.23131
1.23194
1.23191
1.23243
1.2323
1.2325
1.23219
1.23216
1.2318
1.23165
1.23128
1.23105
1.23077
1.23058
1.23051
1.2304
1.23052
1.23044
1.23075
1.23143
1.23143
1.23212
1.23202
1.23259
1.23245
1.23273
1.23244
1.23251
1.23217
1.23208
1.23167
1.23145
1.23103
1.23081
1.23055
1.23047
1.23036
1.23044
1.23039
1.23138
1.23133
1.23202
1.23191
1.23247
1.23232
1.2326
1.23232
1.23241
1.23208
1.23203
1.23163
1.23142
1.23096
1.23073
1.23039
1.23031
1.2301
1.23021
1.23003
1.23138
1.23133
1.23202
1.23191
1.23247
1.23232
1.23261
1.23232
1.23241
1.23208
1.23204
1.23163
1.23142
1.23096
1.23073
1.23039
1.23031
1.2301
1.23021
1.23004
1.23143
1.23143
1.23212
1.23202
1.23259
1.23245
1.23273
1.23244
1.23251
1.23216
1.23209
1.23167
1.23145
1.23102
1.23082
1.23053
1.23049
1.23034
1.23046
1.23038
1.23129
1.23131
1.23194
1.23191
1.23243
1.2323
1.2325
1.23219
1.23217
1.2318
1.23166
1.23127
1.23107
1.23074
1.23062
1.23046
1.23046
1.23044
1.23055
1.23062
1.23149
1.23154
1.23232
1.23229
1.23283
1.23255
1.23266
1.23219
1.23216
1.23175
1.23171
1.23138
1.23137
1.23115
1.2312
1.23112
1.23123
1.23122
1.23137
1.23141
1.23124
1.23143
1.23223
1.23219
1.23241
1.23185
1.2317
1.23127
1.2313
1.23114
1.23125
1.23113
1.2312
1.23113
1.23123
1.2312
1.23129
1.23126
1.23133
1.2313
1.23167
1.23199
1.23299
1.23259
1.23266
1.23184
1.23183
1.23143
1.23172
1.23158
1.23182
1.23164
1.23179
1.23167
1.23183
1.23174
1.23183
1.23173
1.2318
1.23169
1.22892
1.22947
1.2295
1.23003
1.22941
1.22928
1.22862
1.22876
1.22864
1.22903
1.22893
1.22913
1.22896
1.22922
1.22906
1.22945
1.22901
1.22978
1.2284
1.23106
1.22931
1.22979
1.22991
1.23043
1.23035
1.23034
1.22992
1.22974
1.22947
1.22948
1.22938
1.22946
1.22936
1.22953
1.22942
1.22978
1.22948
1.2302
1.22928
1.23097
1.22901
1.22951
1.2294
1.22999
1.22994
1.23022
1.22992
1.2299
1.22951
1.22943
1.22908
1.22903
1.22877
1.22886
1.22869
1.22897
1.22878
1.22932
1.22895
1.22986
1.22921
1.22976
1.22969
1.23024
1.23026
1.23058
1.23041
1.23048
1.2302
1.23012
1.22977
1.22959
1.22925
1.22913
1.22892
1.22898
1.2289
1.22912
1.22912
1.22949
1.22906
1.22963
1.2295
1.23009
1.23005
1.23042
1.23023
1.23036
1.2301
1.23009
1.22975
1.22958
1.22918
1.22899
1.2287
1.22865
1.22855
1.22862
1.22869
1.22884
1.22912
1.22974
1.22961
1.23023
1.23018
1.23055
1.23037
1.23051
1.23026
1.23027
1.22995
1.22979
1.22939
1.22918
1.22887
1.22876
1.22864
1.22865
1.22873
1.22879
1.22912
1.22974
1.22961
1.23023
1.23018
1.23055
1.23037
1.23051
1.23026
1.23027
1.22995
1.22979
1.22939
1.22917
1.22887
1.22876
1.22864
1.22865
1.22873
1.22879
1.22906
1.22963
1.2295
1.23009
1.23005
1.23042
1.23023
1.23036
1.23011
1.23009
1.22975
1.22958
1.22918
1.22899
1.22871
1.22864
1.22856
1.22861
1.2287
1.22883
1.22921
1.22976
1.22969
1.23024
1.23026
1.23058
1.23041
1.23047
1.23021
1.23011
1.22978
1.22958
1.22926
1.22911
1.22895
1.22894
1.22895
1.22906
1.2292
1.22939
1.22901
1.22951
1.2294
1.22999
1.22994
1.23022
1.22992
1.2299
1.22952
1.22942
1.22909
1.22902
1.2288
1.22881
1.22875
1.22887
1.22892
1.22912
1.22923
1.22946
1.22931
1.22979
1.22991
1.23043
1.23035
1.23034
1.22992
1.22973
1.22948
1.22947
1.22939
1.22943
1.2294
1.22947
1.22951
1.22964
1.22971
1.22982
1.22988
1.22998
1.22892
1.22947
1.2295
1.23003
1.22942
1.22928
1.22863
1.22875
1.22864
1.22902
1.22894
1.22911
1.22899
1.22917
1.22914
1.2293
1.22926
1.22933
1.22929
1.2294
1.2292
1.22947
1.22981
1.2302
1.23022
1.22981
1.22895
1.22849
1.22861
1.22916
1.22933
1.22935
1.22904
1.22925
1.22901
1.22966
1.22875
1.23025
1.22758
1.23184
1.22921
1.22945
1.22973
1.23007
1.23027
1.23031
1.23008
1.22976
1.22936
1.22912
1.22887
1.22886
1.22872
1.22895
1.22881
1.22936
1.229
1.22995
1.22898
1.23052
1.22921
1.22944
1.2297
1.23002
1.23022
1.23032
1.23027
1.23016
1.22991
1.22964
1.22926
1.22897
1.22864
1.22856
1.22839
1.22855
1.22849
1.22891
1.22889
1.22949
1.22921
1.22945
1.22972
1.23004
1.23024
1.23034
1.23032
1.23025
1.23009
1.22989
1.22956
1.22923
1.22886
1.22862
1.22841
1.22836
1.22831
1.22841
1.22856
1.2288
1.2292
1.22944
1.22971
1.23003
1.23023
1.23033
1.2303
1.23024
1.2301
1.22991
1.22961
1.22928
1.22892
1.22864
1.22842
1.2283
1.22824
1.22822
1.22836
1.22846
1.2292
1.22945
1.22971
1.23004
1.23024
1.23034
1.23031
1.23025
1.23012
1.22994
1.22964
1.22931
1.22896
1.22868
1.22846
1.22832
1.22826
1.22822
1.22833
1.22841
1.2292
1.22945
1.22971
1.23004
1.23024
1.23034
1.23031
1.23025
1.23012
1.22994
1.22964
1.22932
1.22896
1.22868
1.22846
1.22832
1.22826
1.22822
1.22832
1.22842
1.2292
1.22944
1.22971
1.23003
1.23023
1.23033
1.2303
1.23024
1.2301
1.22991
1.22961
1.22928
1.22892
1.22864
1.22842
1.2283
1.22823
1.22823
1.22835
1.22848
1.22921
1.22945
1.22972
1.23004
1.23024
1.23034
1.23032
1.23025
1.2301
1.22989
1.22957
1.22922
1.22887
1.22862
1.22842
1.22835
1.22831
1.22841
1.22856
1.22881
1.22921
1.22944
1.2297
1.23002
1.23022
1.23032
1.23027
1.23015
1.22992
1.22963
1.22928
1.22895
1.22867
1.22852
1.22844
1.22849
1.22857
1.2288
1.22901
1.22935
1.22921
1.22945
1.22973
1.23007
1.23027
1.2303
1.23009
1.22975
1.22938
1.2291
1.2289
1.22882
1.22879
1.22884
1.22897
1.22914
1.22933
1.22948
1.22961
1.22966
1.2292
1.22947
1.22981
1.2302
1.23022
1.2298
1.22895
1.22848
1.22862
1.22914
1.22936
1.2293
1.22912
1.22913
1.22921
1.22933
1.22932
1.22929
1.2292
1.22922
1.2292
1.22947
1.22981
1.2302
1.23022
1.22981
1.22895
1.22849
1.22861
1.22916
1.22933
1.22935
1.22904
1.22925
1.22901
1.22966
1.22875
1.23025
1.22758
1.23184
1.22921
1.22945
1.22973
1.23007
1.23027
1.23031
1.23008
1.22976
1.22936
1.22912
1.22887
1.22886
1.22872
1.22895
1.22881
1.22936
1.229
1.22995
1.22898
1.23052
1.22921
1.22944
1.2297
1.23002
1.23022
1.23032
1.23027
1.23016
1.22991
1.22964
1.22926
1.22897
1.22864
1.22856
1.22839
1.22855
1.22849
1.22891
1.22889
1.22949
1.22921
1.22945
1.22972
1.23004
1.23024
1.23034
1.23032
1.23025
1.23009
1.22989
1.22956
1.22923
1.22886
1.22862
1.22841
1.22836
1.22831
1.22841
1.22856
1.2288
1.2292
1.22944
1.22971
1.23003
1.23023
1.23033
1.2303
1.23024
1.2301
1.22991
1.22961
1.22928
1.22892
1.22864
1.22842
1.2283
1.22824
1.22822
1.22836
1.22846
1.2292
1.22945
1.22971
1.23004
1.23024
1.23034
1.23031
1.23025
1.23012
1.22994
1.22964
1.22931
1.22896
1.22868
1.22846
1.22832
1.22826
1.22822
1.22833
1.22841
1.2292
1.22945
1.22971
1.23004
1.23024
1.23034
1.23031
1.23025
1.23012
1.22994
1.22964
1.22932
1.22896
1.22868
1.22846
1.22832
1.22826
1.22822
1.22832
1.22842
1.2292
1.22944
1.22971
1.23003
1.23023
1.23033
1.2303
1.23024
1.2301
1.22991
1.22961
1.22928
1.22892
1.22864
1.22842
1.2283
1.22823
1.22823
1.22835
1.22848
1.22921
1.22945
1.22972
1.23004
1.23024
1.23034
1.23032
1.23025
1.2301
1.22989
1.22957
1.22922
1.22887
1.22862
1.22842
1.22835
1.22831
1.22841
1.22856
1.22881
1.22921
1.22944
1.2297
1.23002
1.23022
1.23032
1.23027
1.23015
1.22992
1.22963
1.22928
1.22895
1.22867
1.22852
1.22844
1.22849
1.22857
1.2288
1.22901
1.22935
1.22921
1.22945
1.22973
1.23007
1.23027
1.2303
1.23009
1.22975
1.22938
1.2291
1.2289
1.22882
1.22879
1.22884
1.22897
1.22914
1.22933
1.22948
1.22961
1.22966
1.2292
1.22947
1.22981
1.2302
1.23022
1.2298
1.22895
1.22848
1.22862
1.22914
1.22936
1.2293
1.22912
1.22913
1.22921
1.22933
1.22932
1.22929
1.2292
1.22922
1.22892
1.22947
1.2295
1.23003
1.22941
1.22928
1.22862
1.22876
1.22864
1.22903
1.22893
1.22913
1.22896
1.22922
1.22906
1.22945
1.22901
1.22978
1.2284
1.23106
1.22931
1.22979
1.22991
1.23043
1.23035
1.23034
1.22992
1.22974
1.22947
1.22948
1.22938
1.22946
1.22936
1.22953
1.22942
1.22978
1.22948
1.2302
1.22928
1.23097
1.22901
1.22951
1.2294
1.22999
1.22994
1.23022
1.22992
1.2299
1.22951
1.22943
1.22908
1.22903
1.22877
1.22885
1.22869
1.22897
1.22878
1.22932
1.22895
1.22986
1.22921
1.22976
1.22969
1.23024
1.23026
1.23058
1.23041
1.23048
1.2302
1.23012
1.22977
1.22959
1.22925
1.22913
1.22892
1.22898
1.2289
1.22912
1.22912
1.22949
1.22906
1.22963
1.2295
1.23009
1.23005
1.23042
1.23023
1.23036
1.2301
1.23009
1.22975
1.22958
1.22918
1.22899
1.2287
1.22865
1.22855
1.22862
1.22869
1.22884
1.22912
1.22974
1.22961
1.23023
1.23018
1.23055
1.23037
1.23051
1.23026
1.23027
1.22995
1.22979
1.22939
1.22918
1.22887
1.22876
1.22864
1.22865
1.22873
1.22879
1.22912
1.22974
1.22961
1.23023
1.23018
1.23055
1.23037
1.23051
1.23026
1.23027
1.22995
1.22979
1.22939
1.22917
1.22887
1.22876
1.22864
1.22865
1.22873
1.22879
1.22906
1.22963
1.2295
1.23009
1.23005
1.23042
1.23023
1.23036
1.23011
1.23009
1.22975
1.22958
1.22918
1.22899
1.22871
1.22864
1.22856
1.22861
1.2287
1.22883
1.22921
1.22976
1.22969
1.23024
1.23026
1.23058
1.23041
1.23047
1.23021
1.23011
1.22978
1.22958
1.22926
1.22911
1.22895
1.22894
1.22895
1.22906
1.2292
1.22939
1.22901
1.22951
1.2294
1.22999
1.22994
1.23022
1.22992
1.2299
1.22952
1.22942
1.22909
1.22902
1.2288
1.22881
1.22875
1.22887
1.22892
1.22912
1.22923
1.22946
1.22931
1.22979
1.22991
1.23043
1.23035
1.23034
1.22992
1.22973
1.22948
1.22947
1.22939
1.22943
1.2294
1.22947
1.22951
1.22964
1.22971
1.22982
1.22988
1.22998
1.22892
1.22947
1.2295
1.23003
1.22942
1.22928
1.22863
1.22875
1.22864
1.22902
1.22894
1.22911
1.22899
1.22917
1.22914
1.2293
1.22926
1.22933
1.22929
1.2294
1.23167
1.23199
1.23299
1.23259
1.23265
1.23184
1.23183
1.23143
1.23171
1.23158
1.23181
1.23165
1.23177
1.23171
1.23177
1.23184
1.23166
1.23203
1.23127
1.23264
1.23124
1.23143
1.23223
1.2322
1.23241
1.23186
1.2317
1.23127
1.23129
1.23115
1.23124
1.23114
1.23118
1.23117
1.23116
1.23131
1.2311
1.23159
1.23076
1.23231
1.23148
1.23154
1.23232
1.23229
1.23283
1.23255
1.23266
1.2322
1.23215
1.23175
1.2317
1.2314
1.23134
1.23119
1.23114
1.23121
1.23108
1.23144
1.23104
1.23188
1.23129
1.23131
1.23194
1.23191
1.23243
1.2323
1.2325
1.23219
1.23216
1.2318
1.23165
1.23128
1.23105
1.23077
1.23058
1.23051
1.2304
1.23052
1.23044
1.23075
1.23143
1.23143
1.23212
1.23202
1.23259
1.23245
1.23273
1.23244
1.23251
1.23217
1.23208
1.23167
1.23145
1.23103
1.23081
1.23055
1.23047
1.23036
1.23044
1.23039
1.23138
1.23133
1.23202
1.23191
1.23247
1.23232
1.2326
1.23232
1.23241
1.23208
1.23203
1.23163
1.23142
1.23096
1.23073
1.23039
1.23031
1.2301
1.23021
1.23003
1.23138
1.23133
1.23202
1.23191
1.23247
1.23232
1.23261
1.23232
1.23241
1.23208
1.23204
1.23163
1.23142
1.23096
1.23073
1.23039
1.23031
1.2301
1.23021
1.23004
1.23143
1.23143
1.23212
1.23202
1.23259
1.23245
1.23273
1.23244
1.23251
1.23216
1.23209
1.23167
1.23145
1.23102
1.23082
1.23053
1.23049
1.23034
1.23046
1.23038
1.23129
1.23131
1.23194
1.23191
1.23243
1.2323
1.2325
1.23219
1.23217
1.2318
1.23166
1.23127
1.23107
1.23074
1.23062
1.23046
1.23046
1.23044
1.23055
1.23062
1.23149
1.23154
1.23232
1.23229
1.23283
1.23255
1.23266
1.23219
1.23216
1.23175
1.23171
1.23138
1.23136
1.23115
1.2312
1.23112
1.23123
1.23122
1.23137
1.23141
1.23124
1.23143
1.23223
1.23219
1.23241
1.23185
1.2317
1.23127
1.2313
1.23114
1.23125
1.23113
1.2312
1.23113
1.23123
1.2312
1.23129
1.23126
1.23133
1.2313
1.23167
1.23199
1.23299
1.23259
1.23266
1.23184
1.23183
1.23143
1.23172
1.23158
1.23182
1.23164
1.23179
1.23167
1.23183
1.23174
1.23183
1.23173
1.2318
1.23169
1.22292
1.21578
1.21115
1.20745
1.20477
1.20229
1.20016
1.19797
1.19609
1.19431
1.1929
1.19158
1.1905
1.18943
1.18857
1.18776
1.18717
1.18666
1.18634
1.18607
1.18593
1.18579
1.18573
1.18564
1.18562
1.18555
1.18553
1.18548
1.18546
1.1854
1.18539
1.18534
1.18532
1.18527
1.18525
1.18521
1.18519
1.18514
1.18513
1.18508
1.18507
1.18503
1.18501
1.18497
1.18496
1.18492
1.18491
1.18488
1.18486
1.18484
1.18483
1.1848
1.18479
1.18477
1.18476
1.18475
1.18474
1.18473
1.18472
1.18471
1.18471
1.18471
1.18471
1.1847
1.18471
1.18471
1.18471
1.18471
1.18472
1.18472
1.18473
1.18474
1.18475
1.18476
1.18477
1.18478
1.18479
1.1848
1.18482
1.18483
1.18484
1.18486
1.18487
1.18489
1.18491
1.18492
1.18495
1.18496
1.18499
1.18502
1.22606
1.21954
1.21502
1.21132
1.20862
1.20619
1.20412
1.20197
1.20008
1.19827
1.19682
1.19548
1.19438
1.1933
1.1924
1.19155
1.19092
1.19037
1.19001
1.18971
1.18954
1.18939
1.18932
1.18923
1.1892
1.18913
1.18911
1.18905
1.18904
1.18898
1.18897
1.18892
1.1889
1.18885
1.18883
1.18879
1.18877
1.18872
1.18871
1.18866
1.18865
1.18861
1.18859
1.18855
1.18854
1.18851
1.18849
1.18846
1.18845
1.18842
1.18841
1.18838
1.18837
1.18835
1.18835
1.18833
1.18832
1.18831
1.18831
1.1883
1.1883
1.18829
1.18829
1.18829
1.18829
1.18829
1.1883
1.1883
1.18831
1.18831
1.18832
1.18833
1.18834
1.18835
1.18836
1.18837
1.18838
1.18839
1.1884
1.18842
1.18843
1.18845
1.18846
1.18848
1.18849
1.18851
1.18853
1.18854
1.18858
1.18861
1.22974
1.22515
1.22125
1.21767
1.21501
1.2127
1.21081
1.2088
1.20696
1.2051
1.20359
1.2022
1.20108
1.19998
1.19904
1.19812
1.19739
1.19673
1.19628
1.1959
1.19569
1.19549
1.1954
1.19529
1.19525
1.19518
1.19516
1.1951
1.19508
1.19503
1.19501
1.19496
1.19494
1.19489
1.19488
1.19483
1.19481
1.19477
1.19475
1.19471
1.19469
1.19465
1.19463
1.1946
1.19458
1.19455
1.19453
1.1945
1.19449
1.19446
1.19445
1.19443
1.19442
1.1944
1.19439
1.19437
1.19437
1.19435
1.19435
1.19434
1.19434
1.19433
1.19434
1.19433
1.19434
1.19434
1.19434
1.19434
1.19435
1.19436
1.19437
1.19437
1.19438
1.19439
1.1944
1.19441
1.19443
1.19444
1.19445
1.19447
1.19448
1.1945
1.19451
1.19453
1.19455
1.19456
1.19459
1.1946
1.19463
1.19467
1.23065
1.22841
1.22561
1.22248
1.22001
1.21795
1.21638
1.21466
1.21296
1.21114
1.2096
1.2082
1.20709
1.206
1.20503
1.20405
1.20322
1.20245
1.2019
1.20143
1.20114
1.2009
1.20078
1.20065
1.2006
1.20053
1.2005
1.20044
1.20042
1.20037
1.20035
1.2003
1.20028
1.20023
1.20022
1.20017
1.20015
1.20011
1.20009
1.20005
1.20003
1.19999
1.19998
1.19994
1.19992
1.19989
1.19987
1.19984
1.19983
1.1998
1.19979
1.19977
1.19976
1.19974
1.19973
1.19971
1.19971
1.19969
1.19969
1.19968
1.19968
1.19967
1.19968
1.19967
1.19968
1.19968
1.19968
1.19968
1.19969
1.1997
1.19971
1.19971
1.19973
1.19973
1.19975
1.19976
1.19977
1.19978
1.19979
1.19981
1.19982
1.19984
1.19985
1.19987
1.19989
1.1999
1.19993
1.19994
1.19997
1.20001
1.23112
1.23049
1.22886
1.2263
1.22417
1.22241
1.2212
1.21983
1.21838
1.21667
1.21517
1.21379
1.21272
1.21166
1.21071
1.20969
1.2088
1.20794
1.2073
1.20675
1.2064
1.20612
1.20596
1.20582
1.20576
1.20567
1.20565
1.20558
1.20557
1.20551
1.20549
1.20544
1.20542
1.20537
1.20536
1.20531
1.20529
1.20525
1.20523
1.20519
1.20517
1.20513
1.20511
1.20508
1.20506
1.20503
1.20501
1.20498
1.20497
1.20494
1.20493
1.2049
1.2049
1.20487
1.20487
1.20485
1.20484
1.20483
1.20483
1.20482
1.20482
1.20481
1.20481
1.20481
1.20481
1.20481
1.20482
1.20482
1.20483
1.20483
1.20484
1.20485
1.20486
1.20487
1.20488
1.20489
1.2049
1.20492
1.20493
1.20494
1.20496
1.20497
1.20499
1.205
1.20503
1.20504
1.20506
1.20508
1.2051
1.20514
1.23088
1.23109
1.2303
1.22832
1.2266
1.22521
1.22437
1.22337
1.22219
1.22067
1.21928
1.218
1.217
1.21601
1.2151
1.21409
1.21317
1.21228
1.21159
1.21101
1.21062
1.21031
1.21014
1.20999
1.20992
1.20983
1.20981
1.20974
1.20972
1.20967
1.20965
1.2096
1.20958
1.20954
1.20952
1.20947
1.20945
1.20941
1.20939
1.20935
1.20933
1.20929
1.20928
1.20924
1.20922
1.20919
1.20918
1.20914
1.20913
1.2091
1.20909
1.20907
1.20906
1.20904
1.20903
1.20901
1.20901
1.20899
1.20899
1.20898
1.20898
1.20897
1.20898
1.20897
1.20898
1.20898
1.20898
1.20898
1.20899
1.209
1.20901
1.20901
1.20902
1.20903
1.20904
1.20905
1.20907
1.20908
1.20909
1.20911
1.20912
1.20914
1.20915
1.20917
1.20919
1.2092
1.20922
1.20924
1.20926
1.20929
1.23086
1.23136
1.23101
1.22949
1.22819
1.22717
1.22666
1.22594
1.225
1.22369
1.22246
1.22131
1.22041
1.21949
1.21863
1.21765
1.21674
1.21586
1.21517
1.21459
1.21421
1.2139
1.21373
1.21357
1.21351
1.21342
1.21339
1.21333
1.21331
1.21326
1.21324
1.21319
1.21317
1.21312
1.2131
1.21306
1.21304
1.21299
1.21298
1.21294
1.21292
1.21288
1.21286
1.21282
1.21281
1.21277
1.21276
1.21273
1.21272
1.21269
1.21268
1.21265
1.21264
1.21262
1.21261
1.2126
1.21259
1.21258
1.21258
1.21256
1.21256
1.21256
1.21256
1.21256
1.21256
1.21256
1.21257
1.21257
1.21258
1.21258
1.21259
1.2126
1.21261
1.21262
1.21263
1.21264
1.21265
1.21266
1.21268
1.21269
1.21271
1.21272
1.21274
1.21275
1.21277
1.21278
1.2128
1.21283
1.21284
1.21287
1.23115
1.23156
1.23134
1.23018
1.22928
1.2286
1.22834
1.22778
1.22701
1.22588
1.22484
1.22382
1.22302
1.22216
1.22133
1.22039
1.21954
1.21871
1.21808
1.21753
1.21719
1.2169
1.21675
1.2166
1.21654
1.21646
1.21643
1.21637
1.21635
1.21629
1.21628
1.21622
1.21621
1.21616
1.21614
1.21609
1.21608
1.21603
1.21601
1.21597
1.21595
1.21591
1.2159
1.21586
1.21584
1.21581
1.21579
1.21576
1.21575
1.21572
1.21571
1.21568
1.21568
1.21565
1.21565
1.21563
1.21562
1.21561
1.21561
1.2156
1.2156
1.21559
1.21559
1.21559
1.21559
1.21559
1.2156
1.2156
1.21561
1.21561
1.21562
1.21563
1.21564
1.21565
1.21566
1.21567
1.21568
1.2157
1.21571
1.21572
1.21574
1.21575
1.21577
1.21578
1.21581
1.21582
1.21584
1.21586
1.21588
1.21591
1.23112
1.2313
1.23105
1.23019
1.22968
1.22929
1.22914
1.22866
1.228
1.22704
1.22618
1.2253
1.22458
1.22375
1.22296
1.22208
1.22131
1.22057
1.22003
1.21957
1.21928
1.21904
1.21892
1.21879
1.21874
1.21867
1.21864
1.21858
1.21856
1.21851
1.21849
1.21844
1.21842
1.21838
1.21836
1.21831
1.21829
1.21825
1.21823
1.21819
1.21817
1.21813
1.21811
1.21808
1.21806
1.21803
1.21801
1.21798
1.21797
1.21794
1.21793
1.2179
1.21789
1.21787
1.21787
1.21785
1.21784
1.21783
1.21783
1.21782
1.21782
1.21781
1.21781
1.21781
1.21781
1.21781
1.21782
1.21782
1.21783
1.21783
1.21784
1.21785
1.21786
1.21787
1.21788
1.21789
1.2179
1.21792
1.21793
1.21794
1.21796
1.21797
1.21799
1.218
1.21802
1.21804
1.21806
1.21808
1.21809
1.21812
1.23175
1.23157
1.23131
1.23069
1.23049
1.23024
1.23011
1.2296
1.229
1.22817
1.22745
1.22667
1.22597
1.22516
1.2244
1.22358
1.2229
1.22227
1.22184
1.22147
1.22125
1.22105
1.22096
1.22086
1.22082
1.22075
1.22073
1.22067
1.22065
1.22059
1.22058
1.22053
1.22051
1.22046
1.22044
1.22039
1.22038
1.22033
1.22031
1.22027
1.22025
1.22021
1.2202
1.22016
1.22014
1.22011
1.22009
1.22006
1.22005
1.22002
1.22001
1.21998
1.21998
1.21995
1.21995
1.21993
1.21992
1.21991
1.21991
1.2199
1.2199
1.21989
1.21989
1.21989
1.21989
1.21989
1.2199
1.2199
1.21991
1.21991
1.21992
1.21993
1.21994
1.21995
1.21996
1.21997
1.21999
1.22
1.22001
1.22002
1.22004
1.22005
1.22007
1.22009
1.22011
1.22012
1.22015
1.22017
1.22018
1.22021
1.23139
1.23105
1.23081
1.23042
1.2304
1.23022
1.23005
1.2295
1.22894
1.22821
1.22758
1.22684
1.22616
1.22534
1.22461
1.22386
1.22327
1.22274
1.2224
1.2221
1.22193
1.22178
1.22171
1.22162
1.22159
1.22152
1.22151
1.22145
1.22143
1.22138
1.22136
1.22131
1.22129
1.22124
1.22123
1.22118
1.22116
1.22112
1.2211
1.22106
1.22104
1.221
1.22098
1.22095
1.22093
1.2209
1.22088
1.22085
1.22084
1.22081
1.2208
1.22077
1.22076
1.22074
1.22074
1.22072
1.22071
1.2207
1.2207
1.22069
1.22069
1.22068
1.22068
1.22068
1.22068
1.22068
1.22069
1.22069
1.2207
1.2207
1.22071
1.22072
1.22073
1.22074
1.22075
1.22076
1.22078
1.22079
1.2208
1.22082
1.22083
1.22085
1.22086
1.22088
1.2209
1.22091
1.22093
1.22095
1.22097
1.221
1.23208
1.23165
1.23145
1.23113
1.23118
1.23099
1.23078
1.23021
1.22967
1.22896
1.22836
1.22763
1.22694
1.22613
1.22541
1.22468
1.22413
1.22364
1.22334
1.22307
1.22293
1.22279
1.22273
1.22264
1.22262
1.22255
1.22254
1.22248
1.22246
1.22241
1.22239
1.22234
1.22232
1.22227
1.22226
1.22221
1.22219
1.22215
1.22213
1.22209
1.22207
1.22203
1.22201
1.22197
1.22196
1.22192
1.22191
1.22188
1.22187
1.22184
1.22183
1.2218
1.22179
1.22177
1.22176
1.22175
1.22174
1.22173
1.22172
1.22171
1.22171
1.22171
1.22171
1.22171
1.22171
1.22171
1.22172
1.22172
1.22173
1.22173
1.22174
1.22175
1.22176
1.22177
1.22178
1.22179
1.22181
1.22182
1.22183
1.22184
1.22186
1.22188
1.22189
1.22191
1.22193
1.22194
1.22197
1.22198
1.22201
1.22203
1.21932
1.21163
1.20676
1.20318
1.20041
1.19801
1.19582
1.19368
1.19179
1.19007
1.18866
1.18738
1.18629
1.18526
1.18441
1.18364
1.18307
1.1826
1.1823
1.18205
1.18192
1.18179
1.18174
1.18166
1.18164
1.18158
1.18157
1.18151
1.1815
1.18145
1.18144
1.18139
1.18137
1.18132
1.18131
1.18126
1.18125
1.1812
1.18119
1.18115
1.18113
1.18109
1.18108
1.18104
1.18103
1.18099
1.18098
1.18095
1.18094
1.18091
1.1809
1.18087
1.18086
1.18084
1.18084
1.18082
1.18081
1.1808
1.1808
1.18079
1.18079
1.18078
1.18078
1.18078
1.18078
1.18078
1.18079
1.18079
1.1808
1.1808
1.18081
1.18082
1.18083
1.18083
1.18085
1.18085
1.18087
1.18088
1.18089
1.1809
1.18091
1.18093
1.18094
1.18096
1.18096
1.18098
1.18099
1.18101
1.181
1.18102
1.2255
1.21912
1.21446
1.21081
1.20803
1.20564
1.20353
1.20142
1.19951
1.19772
1.19625
1.19492
1.1938
1.19274
1.19184
1.191
1.19036
1.18982
1.18946
1.18916
1.189
1.18884
1.18878
1.18869
1.18866
1.1886
1.18858
1.18853
1.18851
1.18846
1.18845
1.1884
1.18838
1.18834
1.18832
1.18827
1.18826
1.18821
1.1882
1.18816
1.18814
1.1881
1.18808
1.18805
1.18803
1.188
1.18798
1.18795
1.18794
1.18791
1.1879
1.18788
1.18787
1.18785
1.18784
1.18782
1.18782
1.1878
1.1878
1.18779
1.18779
1.18778
1.18778
1.18778
1.18778
1.18778
1.18779
1.18779
1.1878
1.1878
1.18781
1.18782
1.18783
1.18784
1.18785
1.18786
1.18787
1.18788
1.18789
1.18791
1.18792
1.18793
1.18794
1.18796
1.18797
1.18799
1.188
1.18801
1.18801
1.18803
1.22815
1.22418
1.22027
1.21685
1.21414
1.21193
1.21003
1.2081
1.20623
1.20441
1.20287
1.20149
1.20036
1.19928
1.19833
1.19741
1.19667
1.19602
1.19556
1.19518
1.19495
1.19476
1.19467
1.19456
1.19453
1.19446
1.19444
1.19439
1.19437
1.19432
1.19431
1.19426
1.19424
1.1942
1.19418
1.19413
1.19412
1.19407
1.19406
1.19402
1.194
1.19396
1.19395
1.19391
1.19389
1.19386
1.19385
1.19382
1.1938
1.19378
1.19377
1.19374
1.19373
1.19371
1.1937
1.19369
1.19368
1.19367
1.19367
1.19365
1.19365
1.19365
1.19365
1.19365
1.19365
1.19365
1.19366
1.19366
1.19366
1.19367
1.19368
1.19368
1.1937
1.1937
1.19371
1.19372
1.19374
1.19375
1.19376
1.19377
1.19378
1.1938
1.19381
1.19383
1.19384
1.19385
1.19387
1.19388
1.19388
1.1939
1.22974
1.22808
1.22542
1.2225
1.22003
1.21807
1.21652
1.21489
1.21319
1.21139
1.20982
1.20842
1.20729
1.20621
1.20525
1.20426
1.20342
1.20264
1.20207
1.20159
1.20129
1.20104
1.20092
1.20079
1.20074
1.20067
1.20064
1.20059
1.20057
1.20052
1.2005
1.20046
1.20044
1.20039
1.20038
1.20033
1.20031
1.20027
1.20026
1.20021
1.2002
1.20016
1.20014
1.20011
1.20009
1.20006
1.20004
1.20001
1.2
1.19997
1.19996
1.19994
1.19993
1.19991
1.1999
1.19988
1.19988
1.19987
1.19986
1.19985
1.19985
1.19985
1.19985
1.19984
1.19985
1.19985
1.19985
1.19986
1.19986
1.19987
1.19988
1.19988
1.1999
1.1999
1.19992
1.19993
1.19994
1.19995
1.19996
1.19998
1.19999
1.2
1.20002
1.20003
1.20004
1.20006
1.20007
1.20009
1.20009
1.20011
1.22958
1.22954
1.22805
1.22582
1.22373
1.22214
1.22099
1.21976
1.21834
1.21669
1.21516
1.21379
1.21271
1.21168
1.21074
1.20973
1.20882
1.20796
1.20729
1.20673
1.20637
1.20607
1.20591
1.20576
1.2057
1.20562
1.2056
1.20554
1.20552
1.20547
1.20546
1.20541
1.20539
1.20534
1.20533
1.20528
1.20527
1.20522
1.20521
1.20517
1.20515
1.20511
1.2051
1.20506
1.20505
1.20501
1.205
1.20497
1.20496
1.20493
1.20492
1.20489
1.20488
1.20486
1.20486
1.20484
1.20484
1.20482
1.20482
1.20481
1.20481
1.2048
1.2048
1.2048
1.20481
1.2048
1.20481
1.20481
1.20482
1.20483
1.20484
1.20484
1.20485
1.20486
1.20487
1.20488
1.2049
1.20491
1.20492
1.20494
1.20495
1.20496
1.20497
1.20499
1.205
1.20502
1.20503
1.20505
1.20505
1.20507
1.22964
1.23039
1.22971
1.22809
1.22643
1.22522
1.22448
1.22362
1.2225
1.22104
1.21964
1.21836
1.21736
1.2164
1.2155
1.2145
1.21358
1.21267
1.21195
1.21134
1.21093
1.21061
1.21042
1.21026
1.21019
1.21011
1.21008
1.21002
1.21
1.20995
1.20994
1.20989
1.20987
1.20982
1.20981
1.20976
1.20975
1.2097
1.20969
1.20965
1.20963
1.20959
1.20957
1.20954
1.20952
1.20949
1.20948
1.20944
1.20943
1.2094
1.20939
1.20937
1.20936
1.20934
1.20933
1.20932
1.20931
1.2093
1.2093
1.20928
1.20929
1.20928
1.20928
1.20928
1.20928
1.20928
1.20929
1.20929
1.2093
1.2093
1.20931
1.20932
1.20933
1.20934
1.20935
1.20936
1.20937
1.20939
1.2094
1.20941
1.20943
1.20944
1.20945
1.20947
1.20948
1.2095
1.20951
1.20953
1.20953
1.20955
1.22962
1.23059
1.2303
1.22912
1.22787
1.22705
1.22665
1.22609
1.22523
1.22399
1.22277
1.22163
1.22074
1.21986
1.21902
1.21806
1.21715
1.21625
1.21554
1.21493
1.21452
1.2142
1.21402
1.21386
1.21379
1.2137
1.21367
1.21361
1.21359
1.21354
1.21353
1.21348
1.21346
1.21342
1.2134
1.21335
1.21334
1.2133
1.21328
1.21324
1.21322
1.21318
1.21317
1.21313
1.21312
1.21308
1.21307
1.21304
1.21302
1.213
1.21299
1.21296
1.21295
1.21293
1.21293
1.21291
1.2129
1.21289
1.21289
1.21288
1.21288
1.21287
1.21287
1.21287
1.21287
1.21287
1.21288
1.21288
1.21289
1.21289
1.21291
1.21291
1.21292
1.21293
1.21294
1.21295
1.21297
1.21298
1.21299
1.21301
1.21302
1.21303
1.21305
1.21306
1.21308
1.21309
1.2131
1.21313
1.21313
1.21315
1.22958
1.23042
1.23022
1.22933
1.22848
1.22801
1.22784
1.22746
1.22678
1.22574
1.22472
1.22376
1.22298
1.22217
1.22137
1.22046
1.21961
1.21877
1.21812
1.21756
1.2172
1.21691
1.21675
1.2166
1.21654
1.21646
1.21643
1.21637
1.21636
1.21631
1.21629
1.21624
1.21623
1.21618
1.21617
1.21612
1.21611
1.21606
1.21605
1.21601
1.21599
1.21595
1.21594
1.2159
1.21588
1.21585
1.21584
1.21581
1.21579
1.21577
1.21576
1.21573
1.21572
1.2157
1.21569
1.21568
1.21567
1.21566
1.21566
1.21565
1.21565
1.21564
1.21564
1.21564
1.21564
1.21564
1.21565
1.21565
1.21566
1.21567
1.21568
1.21568
1.21569
1.2157
1.21571
1.21573
1.21574
1.21575
1.21576
1.21578
1.21579
1.2158
1.21582
1.21583
1.21585
1.21586
1.21587
1.21589
1.21589
1.21591
1.23006
1.23054
1.2303
1.22962
1.22914
1.22891
1.22884
1.22851
1.22791
1.22703
1.22619
1.22537
1.22467
1.22389
1.22313
1.22227
1.22149
1.22075
1.2202
1.21973
1.21943
1.21918
1.21906
1.21893
1.21888
1.21881
1.21878
1.21873
1.21871
1.21866
1.21865
1.2186
1.21858
1.21854
1.21852
1.21847
1.21846
1.21842
1.2184
1.21836
1.21834
1.2183
1.21829
1.21825
1.21824
1.2182
1.21819
1.21816
1.21814
1.21812
1.21811
1.21808
1.21807
1.21805
1.21805
1.21803
1.21802
1.21801
1.21801
1.218
1.218
1.21799
1.21799
1.21799
1.21799
1.21799
1.218
1.218
1.21801
1.21802
1.21803
1.21803
1.21804
1.21805
1.21807
1.21808
1.21809
1.2181
1.21811
1.21813
1.21814
1.21816
1.21817
1.21818
1.2182
1.21821
1.21822
1.21825
1.21825
1.21827
1.2297
1.22987
1.22958
1.22917
1.22898
1.22891
1.22884
1.22848
1.22792
1.22718
1.22649
1.22577
1.22511
1.22434
1.2236
1.2228
1.22213
1.22151
1.22107
1.22069
1.22047
1.22028
1.22019
1.22009
1.22005
1.21999
1.21997
1.21991
1.2199
1.21985
1.21983
1.21979
1.21977
1.21972
1.21971
1.21966
1.21965
1.2196
1.21959
1.21955
1.21953
1.21949
1.21948
1.21944
1.21943
1.21939
1.21938
1.21935
1.21933
1.21931
1.2193
1.21927
1.21926
1.21924
1.21924
1.21922
1.21921
1.2192
1.2192
1.21919
1.21919
1.21918
1.21918
1.21918
1.21919
1.21919
1.21919
1.21919
1.2192
1.21921
1.21922
1.21922
1.21924
1.21924
1.21926
1.21927
1.21928
1.21929
1.21931
1.21932
1.21933
1.21935
1.21936
1.21938
1.21939
1.21941
1.21941
1.21944
1.21944
1.21945
1.23018
1.23009
1.22984
1.22962
1.22962
1.22957
1.22942
1.22899
1.22846
1.2278
1.22719
1.2265
1.22583
1.22506
1.22434
1.22361
1.22303
1.22251
1.22216
1.22187
1.22171
1.22156
1.22149
1.2214
1.22138
1.22132
1.2213
1.22125
1.22123
1.22118
1.22117
1.22112
1.2211
1.22106
1.22104
1.22099
1.22098
1.22093
1.22092
1.22088
1.22086
1.22082
1.22081
1.22077
1.22075
1.22072
1.22071
1.22068
1.22066
1.22064
1.22062
1.2206
1.22059
1.22057
1.22056
1.22055
1.22054
1.22053
1.22053
1.22052
1.22052
1.22051
1.22051
1.22051
1.22051
1.22051
1.22052
1.22052
1.22053
1.22054
1.22055
1.22055
1.22056
1.22057
1.22059
1.2206
1.22061
1.22062
1.22063
1.22065
1.22066
1.22068
1.22069
1.22071
1.22072
1.22074
1.22075
1.22077
1.22077
1.22079
1.2293
1.22916
1.22894
1.22886
1.22892
1.22887
1.22865
1.22819
1.22767
1.22706
1.22648
1.22581
1.22513
1.22435
1.22365
1.22296
1.22244
1.22199
1.2217
1.22145
1.22132
1.2212
1.22115
1.22107
1.22105
1.22099
1.22098
1.22092
1.22091
1.22086
1.22084
1.2208
1.22078
1.22073
1.22072
1.22067
1.22066
1.22061
1.2206
1.22056
1.22054
1.2205
1.22048
1.22045
1.22043
1.2204
1.22039
1.22036
1.22034
1.22032
1.2203
1.22028
1.22027
1.22025
1.22024
1.22023
1.22022
1.22021
1.22021
1.2202
1.2202
1.22019
1.22019
1.22019
1.2202
1.22019
1.2202
1.2202
1.22021
1.22022
1.22023
1.22023
1.22025
1.22025
1.22027
1.22028
1.22029
1.2203
1.22032
1.22033
1.22034
1.22036
1.22037
1.22039
1.2204
1.22042
1.22043
1.22045
1.22045
1.22046
1.21682
1.20697
1.20146
1.19765
1.19471
1.19214
1.18981
1.18762
1.18571
1.18402
1.18262
1.18135
1.18027
1.17926
1.17845
1.17774
1.17724
1.17683
1.17657
1.17636
1.17626
1.17615
1.17611
1.17605
1.17603
1.17598
1.17596
1.17592
1.1759
1.17586
1.17584
1.1758
1.17579
1.17574
1.17573
1.17569
1.17567
1.17563
1.17562
1.17558
1.17556
1.17553
1.17551
1.17548
1.17547
1.17544
1.17542
1.1754
1.17538
1.17536
1.17535
1.17533
1.17532
1.1753
1.1753
1.17528
1.17528
1.17527
1.17526
1.17526
1.17526
1.17525
1.17525
1.17525
1.17526
1.17526
1.17526
1.17527
1.17527
1.17528
1.17529
1.1753
1.17531
1.17532
1.17533
1.17534
1.17535
1.17536
1.17537
1.17539
1.1754
1.17542
1.17542
1.17545
1.17545
1.17547
1.17548
1.1755
1.17549
1.17551
1.22628
1.2192
1.21388
1.20991
1.2069
1.20436
1.20208
1.19988
1.19788
1.19606
1.19454
1.19318
1.19204
1.19096
1.19005
1.18923
1.18861
1.18808
1.18774
1.18745
1.1873
1.18716
1.1871
1.18701
1.18699