/*--------------------------------*- C++ -*----------------------------------*\
  =========                 |
  \\      /  F ield         | OpenFOAM: The Open Source CFD Toolbox
   \\    /   O peration     | Website:  https://openfoam.org
    \\  /    A nd           | Version:  7
     \\/     M anipulation  |
\*---------------------------------------------------------------------------*/
FoamFile
{
    version     2.0;
    format      ascii;
    class       volScalarField;
    location    "1.395";
    object      k;
}
// * * * * * * * * * * * * * * * * * * * * * * * * * * * * * * * * * * * * * //

dimensions      [0 2 -2 0 0 0 0];

internalField   nonuniform List<scalar> 
7920
(
52.0663
56.5478
56.5862
56.6338
56.5534
56.5559
56.493
56.5012
56.4622
56.4768
56.4518
56.4675
56.4489
56.4617
56.4493
56.4567
56.4559
56.4368
56.5187
56.6482
13.8511
14.0201
13.445
12.8928
12.6287
12.5248
12.4355
12.408
12.3618
12.3521
12.3237
12.3196
12.3038
12.3031
12.2931
12.292
12.2862
12.28
12.4487
12.4527
8.09095
9.22894
9.34716
9.33154
9.29011
9.27834
9.25103
9.24481
9.22586
9.22212
9.20867
9.20692
9.19766
9.19712
9.19082
9.19063
9.18594
9.18461
9.18842
9.21391
7.4878
8.75966
9.01166
9.10233
9.12472
9.15624
9.1596
9.17422
9.17341
9.18214
9.18091
9.18809
9.18738
9.19375
9.19377
9.19989
9.20031
9.20553
9.2075
9.23246
7.42278
8.70594
8.97071
9.07746
9.11312
9.15845
9.17201
9.20098
9.20858
9.22941
9.23541
9.253
9.25833
9.27371
9.27861
9.29264
9.29749
9.30972
9.31539
9.34358
7.42969
8.70247
8.96559
9.07386
9.11322
9.16342
9.18158
9.21702
9.22915
9.2565
9.26674
9.29052
9.29969
9.3207
9.32887
9.34782
9.35568
9.37214
9.38189
9.41111
7.42969
8.70247
8.96559
9.07387
9.11322
9.16342
9.18157
9.21703
9.22915
9.25651
9.26673
9.29053
9.29968
9.32071
9.32887
9.34785
9.35568
9.37218
9.38196
9.41118
7.42278
8.70594
8.97071
9.07747
9.11311
9.15846
9.172
9.20099
9.20857
9.22944
9.23539
9.25304
9.2583
9.27379
9.27857
9.29276
9.29746
9.30988
9.31546
9.34383
7.4878
8.75967
9.01166
9.10233
9.12471
9.15625
9.15959
9.17424
9.17339
9.18217
9.18086
9.18818
9.18728
9.19396
9.19358
9.20029
9.19997
9.20631
9.2071
9.23304
8.09095
9.22894
9.34715
9.33155
9.29011
9.27835
9.25102
9.24483
9.22583
9.22216
9.20859
9.20701
9.1975
9.19739
9.19044
9.19132
9.1848
9.18654
9.18663
9.21673
13.8511
14.0201
13.445
12.8928
12.6287
12.5248
12.4355
12.408
12.3618
12.3521
12.3237
12.3197
12.3036
12.3034
12.2927
12.2927
12.2847
12.2827
12.4416
12.4604
52.0663
56.5478
56.5862
56.6338
56.5534
56.5559
56.493
56.5013
56.4622
56.4769
56.4516
56.4678
56.4483
56.4626
56.4478
56.4592
56.4513
56.445
56.5009
56.6852
7.68057
9.6821
9.76734
9.63872
9.60218
9.5289
9.52483
9.48288
9.48402
9.45588
9.45856
9.4383
9.44094
9.4254
9.42768
9.41442
9.41804
9.40168
9.40458
9.45069
6.02426
8.25736
8.59966
8.64408
8.64737
8.64562
8.64171
8.63881
8.63599
8.63382
8.63219
8.63055
8.62988
8.62842
8.62823
8.62649
8.62589
8.62356
8.62738
8.63457
5.706
7.9111
8.26336
8.3341
8.34431
8.35907
8.36186
8.37083
8.37339
8.38105
8.3841
8.39116
8.39486
8.40094
8.40539
8.40978
8.41475
8.41605
8.41896
8.45072
5.69748
7.90162
8.24983
8.31686
8.32008
8.32706
8.32441
8.32755
8.32641
8.32988
8.33099
8.33585
8.33867
8.34422
8.34868
8.35378
8.35995
8.36292
8.36839
8.39057
5.68568
7.88604
8.23391
8.30259
8.30498
8.31075
8.30596
8.3072
8.30325
8.30464
8.303
8.30559
8.3061
8.30982
8.31179
8.31682
8.31997
8.32571
8.32916
8.35309
5.69203
7.89414
8.24105
8.30922
8.31143
8.31709
8.31213
8.3132
8.30877
8.3097
8.30728
8.3093
8.30887
8.31166
8.31263
8.31675
8.31896
8.3243
8.327
8.34948
5.69203
7.89414
8.24105
8.30922
8.31143
8.3171
8.31212
8.31321
8.30876
8.3097
8.30728
8.30931
8.30886
8.31168
8.31262
8.31676
8.31895
8.32429
8.32703
8.34943
5.68568
7.88604
8.2339
8.30259
8.30498
8.31076
8.30595
8.30721
8.30324
8.30466
8.30298
8.30564
8.30606
8.30988
8.31172
8.31692
8.31979
8.32586
8.32908
8.35307
5.69748
7.90162
8.24983
8.31687
8.32008
8.32706
8.3244
8.32757
8.32639
8.32992
8.33095
8.33594
8.33853
8.34444
8.34825
8.35434
8.35917
8.36375
8.36786
8.39082
5.70599
7.91111
8.26335
8.3341
8.34431
8.35908
8.36186
8.37085
8.37337
8.38109
8.38405
8.39128
8.39459
8.40135
8.40471
8.41081
8.41319
8.41803
8.41696
8.45256
6.02426
8.25736
8.59966
8.64408
8.64737
8.64562
8.6417
8.63883
8.63597
8.63386
8.63212
8.63064
8.62974
8.62867
8.62788
8.6271
8.62468
8.62546
8.62413
8.64038
7.68057
9.6821
9.76734
9.63872
9.60218
9.5289
9.52482
9.48289
9.48402
9.45589
9.45854
9.43835
9.44089
9.42552
9.42755
9.41477
9.41762
9.40283
9.40291
9.45532
0.477389
1.03628
1.13425
1.10475
1.03108
0.964463
0.912866
0.876246
0.84938
0.828602
0.813573
0.79992
0.79046
0.780334
0.773811
0.766092
0.760685
0.756463
0.747776
0.756208
0.0861391
0.382897
0.527207
0.589288
0.611274
0.625068
0.631943
0.63954
0.643405
0.647589
0.649111
0.650918
0.651161
0.65163
0.651388
0.651302
0.650809
0.650366
0.649646
0.652404
0.0643802
0.300258
0.416726
0.475006
0.493356
0.506836
0.509935
0.516291
0.518553
0.523501
0.525994
0.530488
0.53324
0.537016
0.539871
0.542921
0.545743
0.548168
0.550009
0.554508
0.068248
0.303914
0.417924
0.473683
0.4916
0.502778
0.504345
0.507278
0.507384
0.508363
0.508671
0.509713
0.510377
0.511543
0.512763
0.51371
0.5154
0.516236
0.517624
0.521038
0.066409
0.299908
0.412775
0.468508
0.485983
0.497117
0.498407
0.501028
0.500762
0.501234
0.50095
0.501211
0.501135
0.501332
0.50151
0.501751
0.502229
0.502434
0.50282
0.505073
0.0674412
0.302147
0.415417
0.470925
0.488553
0.499562
0.500984
0.503552
0.503322
0.503731
0.503438
0.503601
0.503451
0.503538
0.503555
0.503631
0.50385
0.5039
0.504118
0.506092
0.0674411
0.302147
0.415417
0.470925
0.488553
0.499562
0.500984
0.503552
0.503322
0.503731
0.503438
0.503601
0.503452
0.503539
0.503555
0.503631
0.50385
0.5039
0.504116
0.50609
0.0664089
0.299908
0.412775
0.468508
0.485983
0.497117
0.498407
0.501028
0.500762
0.501234
0.50095
0.501212
0.501134
0.501335
0.501506
0.501753
0.502224
0.50243
0.502818
0.505062
0.0682478
0.303915
0.417923
0.473684
0.491599
0.502779
0.504345
0.507279
0.507384
0.508365
0.508671
0.50972
0.510361
0.511559
0.512737
0.513731
0.515367
0.516235
0.517602
0.520988
0.06438
0.300258
0.416726
0.475007
0.493356
0.506837
0.509935
0.516292
0.518552
0.523506
0.525982
0.530502
0.533214
0.537043
0.539819
0.542958
0.545666
0.548171
0.549959
0.554404
0.086139
0.382897
0.527207
0.589288
0.611273
0.625069
0.63194
0.639544
0.643399
0.647596
0.649097
0.650931
0.651145
0.651639
0.65134
0.651312
0.650708
0.650415
0.649509
0.6524
0.477389
1.03628
1.13425
1.10475
1.03108
0.964464
0.912866
0.876249
0.849379
0.828611
0.813571
0.799946
0.790457
0.780399
0.773808
0.766254
0.760691
0.756797
0.747881
0.757146
0.477389
1.03628
1.13425
1.10475
1.03108
0.964463
0.912866
0.876246
0.84938
0.828602
0.813573
0.79992
0.79046
0.780334
0.773811
0.766092
0.760685
0.756463
0.747776
0.756208
0.0861391
0.382897
0.527207
0.589288
0.611274
0.625068
0.631943
0.63954
0.643405
0.647589
0.649111
0.650918
0.65116
0.65163
0.651388
0.651302
0.650809
0.650366
0.649646
0.652404
0.0643803
0.300258
0.416726
0.475006
0.493357
0.506836
0.509935
0.516291
0.518553
0.523501
0.525994
0.530488
0.533241
0.537016
0.539871
0.542921
0.545743
0.548168
0.550009
0.554508
0.068248
0.303914
0.417924
0.473683
0.4916
0.502779
0.504345
0.507278
0.507384
0.508364
0.508672
0.509713
0.510377
0.511543
0.512763
0.51371
0.5154
0.516236
0.517624
0.521038
0.0664091
0.299908
0.412776
0.468508
0.485983
0.497117
0.498407
0.501028
0.500762
0.501234
0.50095
0.501211
0.501135
0.501332
0.50151
0.501751
0.502229
0.502434
0.50282
0.505073
0.0674412
0.302147
0.415417
0.470925
0.488553
0.499562
0.500984
0.503552
0.503322
0.503731
0.503438
0.503601
0.503452
0.503538
0.503555
0.503631
0.50385
0.5039
0.504118
0.506092
0.0674411
0.302147
0.415417
0.470925
0.488553
0.499562
0.500984
0.503552
0.503322
0.503731
0.503438
0.503601
0.503452
0.503539
0.503555
0.503631
0.50385
0.503901
0.504116
0.50609
0.0664089
0.299908
0.412775
0.468508
0.485983
0.497117
0.498407
0.501028
0.500762
0.501234
0.50095
0.501212
0.501134
0.501335
0.501506
0.501753
0.502224
0.50243
0.502818
0.505062
0.0682478
0.303915
0.417923
0.473684
0.491599
0.502779
0.504345
0.507279
0.507384
0.508365
0.508671
0.50972
0.510361
0.511559
0.512737
0.513731
0.515368
0.516235
0.517603
0.520988
0.06438
0.300258
0.416726
0.475007
0.493356
0.506837
0.509935
0.516292
0.518552
0.523506
0.525982
0.530502
0.533214
0.537043
0.539819
0.542959
0.545666
0.548171
0.549959
0.554404
0.086139
0.382897
0.527207
0.589288
0.611273
0.625069
0.63194
0.639544
0.643399
0.647596
0.649097
0.650931
0.651145
0.651639
0.65134
0.651312
0.650708
0.650415
0.649509
0.6524
0.477389
1.03628
1.13425
1.10475
1.03108
0.964464
0.912866
0.876249
0.84938
0.828611
0.813571
0.799946
0.790457
0.780399
0.773809
0.766254
0.760691
0.756797
0.747881
0.757146
7.68057
9.6821
9.76734
9.63872
9.60218
9.5289
9.52483
9.48288
9.48402
9.45588
9.45856
9.4383
9.44094
9.4254
9.42768
9.41442
9.41804
9.40168
9.40458
9.45069
6.02426
8.25736
8.59966
8.64408
8.64737
8.64562
8.64171
8.63881
8.63599
8.63382
8.63218
8.63055
8.62988
8.62842
8.62823
8.62649
8.62589
8.62356
8.62738
8.63457
5.706
7.9111
8.26336
8.3341
8.34431
8.35907
8.36186
8.37083
8.37339
8.38105
8.3841
8.39116
8.39486
8.40094
8.40539
8.40978
8.41475
8.41605
8.41895
8.45072
5.69748
7.90162
8.24983
8.31686
8.32008
8.32706
8.32441
8.32755
8.32641
8.32988
8.33099
8.33585
8.33867
8.34422
8.34868
8.35378
8.35995
8.36292
8.36839
8.39057
5.68568
7.88604
8.23391
8.30259
8.30498
8.31075
8.30596
8.3072
8.30325
8.30464
8.303
8.30559
8.3061
8.30982
8.31179
8.31682
8.31997
8.32571
8.32915
8.35309
5.69203
7.89414
8.24105
8.30922
8.31143
8.31709
8.31213
8.3132
8.30877
8.3097
8.30728
8.3093
8.30887
8.31166
8.31263
8.31675
8.31896
8.32431
8.327
8.34948
5.69203
7.89414
8.24105
8.30922
8.31143
8.3171
8.31212
8.31321
8.30876
8.3097
8.30728
8.30931
8.30886
8.31168
8.31262
8.31676
8.31895
8.3243
8.32703
8.34943
5.68568
7.88604
8.2339
8.30259
8.30498
8.31076
8.30595
8.30721
8.30324
8.30466
8.30298
8.30564
8.30606
8.30988
8.31172
8.31692
8.31979
8.32586
8.32908
8.35308
5.69748
7.90162
8.24983
8.31687
8.32008
8.32706
8.3244
8.32757
8.32639
8.32992
8.33095
8.33594
8.33853
8.34444
8.34825
8.35434
8.35917
8.36375
8.36786
8.39082
5.70599
7.91111
8.26335
8.3341
8.34431
8.35908
8.36186
8.37085
8.37337
8.38109
8.38405
8.39128
8.39459
8.40136
8.40471
8.41081
8.41319
8.41803
8.41696
8.45256
6.02426
8.25736
8.59966
8.64408
8.64737
8.64562
8.6417
8.63882
8.63597
8.63386
8.63212
8.63065
8.62974
8.62867
8.62789
8.6271
8.62468
8.62547
8.62413
8.64038
7.68057
9.6821
9.76734
9.63872
9.60218
9.5289
9.52482
9.48289
9.48402
9.45589
9.45854
9.43835
9.44089
9.42552
9.42755
9.41477
9.41762
9.40283
9.40291
9.45532
52.0663
56.5478
56.5862
56.6338
56.5534
56.5559
56.493
56.5012
56.4622
56.4768
56.4518
56.4675
56.4488
56.4617
56.4493
56.4567
56.4559
56.4368
56.5187
56.6482
13.8511
14.0201
13.445
12.8928
12.6287
12.5248
12.4355
12.408
12.3618
12.3521
12.3237
12.3196
12.3038
12.3031
12.2931
12.292
12.2862
12.28
12.4487
12.4527
8.09095
9.22894
9.34716
9.33154
9.29011
9.27834
9.25103
9.24481
9.22586
9.22212
9.20867
9.20692
9.19766
9.19712
9.19082
9.19063
9.18594
9.18461
9.18842
9.21391
7.4878
8.75966
9.01166
9.10233
9.12472
9.15624
9.1596
9.17422
9.17341
9.18214
9.18091
9.18809
9.18738
9.19375
9.19376
9.19989
9.20031
9.20553
9.2075
9.23246
7.42278
8.70594
8.97071
9.07746
9.11312
9.15845
9.17201
9.20098
9.20858
9.22941
9.23541
9.253
9.25833
9.27371
9.27861
9.29264
9.29749
9.30971
9.31539
9.34358
7.42969
8.70247
8.96559
9.07386
9.11322
9.16342
9.18158
9.21702
9.22915
9.2565
9.26674
9.29052
9.29969
9.3207
9.32887
9.34782
9.35568
9.37214
9.38189
9.41111
7.42969
8.70247
8.96559
9.07387
9.11322
9.16342
9.18157
9.21703
9.22915
9.25651
9.26673
9.29053
9.29968
9.32071
9.32887
9.34785
9.35568
9.37218
9.38196
9.41118
7.42278
8.70594
8.97071
9.07747
9.11311
9.15846
9.172
9.20099
9.20857
9.22944
9.23539
9.25304
9.2583
9.27379
9.27857
9.29276
9.29746
9.30988
9.31546
9.34384
7.4878
8.75967
9.01166
9.10233
9.12471
9.15625
9.15959
9.17424
9.17338
9.18217
9.18085
9.18818
9.18728
9.19396
9.19359
9.20029
9.19997
9.20631
9.2071
9.23305
8.09095
9.22894
9.34715
9.33155
9.29011
9.27835
9.25102
9.24483
9.22583
9.22216
9.20859
9.20701
9.1975
9.19739
9.19045
9.19133
9.1848
9.18654
9.18663
9.21674
13.8511
14.0201
13.445
12.8928
12.6287
12.5248
12.4355
12.408
12.3618
12.3521
12.3237
12.3197
12.3036
12.3034
12.2927
12.2927
12.2847
12.2827
12.4416
12.4604
52.0663
56.5478
56.5862
56.6338
56.5534
56.5559
56.4929
56.5013
56.4622
56.4769
56.4516
56.4678
56.4483
56.4626
56.4478
56.4592
56.4513
56.445
56.5009
56.6852
144.166
146.192
147.23
148.125
148.818
149.438
149.926
150.406
150.837
151.275
151.652
152
152.279
152.533
152.743
152.943
153.106
153.253
153.36
153.449
153.504
153.547
153.567
153.585
153.59
153.597
153.596
153.599
153.597
153.599
153.596
153.598
153.596
153.598
153.596
153.598
153.596
153.598
153.596
153.598
153.597
153.599
153.598
153.6
153.599
153.601
153.6
153.602
153.602
153.604
153.604
153.606
153.606
153.608
153.608
153.61
153.61
153.612
153.612
153.614
153.615
153.617
153.617
153.619
153.62
153.621
153.622
153.624
153.625
153.627
153.627
153.629
153.63
153.632
153.633
153.635
153.636
153.637
153.638
153.64
153.641
153.642
153.643
153.644
153.644
153.646
153.644
153.647
153.616
153.602
47.3034
49.0227
49.3442
49.6476
49.8518
50.0673
50.2094
50.3767
50.5029
50.6561
50.7684
50.8915
50.973
51.0639
51.1236
51.1955
51.2411
51.2953
51.3237
51.3581
51.3697
51.3885
51.3893
51.3989
51.395
51.4007
51.3952
51.3994
51.3939
51.3976
51.3925
51.3959
51.3912
51.3945
51.3903
51.3934
51.3896
51.3925
51.3891
51.392
51.3889
51.3917
51.3889
51.3916
51.3891
51.3916
51.3894
51.3919
51.3899
51.3923
51.3905
51.3928
51.3912
51.3935
51.3921
51.3943
51.393
51.3951
51.394
51.3961
51.3951
51.3971
51.3963
51.3982
51.3975
51.3994
51.3988
51.4007
51.4002
51.402
51.4015
51.4033
51.403
51.4047
51.4044
51.4061
51.4059
51.4075
51.4074
51.4088
51.4088
51.4101
51.4101
51.4114
51.411
51.4125
51.4114
51.4135
51.3972
51.3895
30.5137
32.5006
32.6868
32.8798
32.9848
33.1358
33.207
33.3197
33.3795
33.4845
33.5444
33.6353
33.679
33.7469
33.7761
33.8303
33.8526
33.8969
33.9109
33.9426
33.9466
33.9663
33.9631
33.9751
33.9686
33.9771
33.9695
33.9765
33.9692
33.9756
33.9688
33.9748
33.9687
33.9745
33.969
33.9745
33.9696
33.9749
33.9705
33.9756
33.9716
33.9765
33.9729
33.9777
33.9745
33.979
33.9762
33.9805
33.978
33.9822
33.9799
33.984
33.982
33.9859
33.9841
33.9879
33.9864
33.99
33.9887
33.9922
33.991
33.9944
33.9934
33.9967
33.9958
33.999
33.9983
34.0014
34.0008
34.0038
34.0034
34.0063
34.0059
34.0087
34.0085
34.0112
34.011
34.0136
34.0135
34.016
34.016
34.0183
34.0183
34.0206
34.0204
34.0228
34.0222
34.0246
34.0207
34.0024
28.2877
30.6781
30.849
31.0105
31.086
31.2284
31.2808
31.3811
31.4182
31.5109
31.5578
31.6481
31.6849
31.7532
31.7751
31.8285
31.8464
31.8933
31.9068
31.9438
31.9487
31.9734
31.9707
31.9864
31.9797
31.9911
31.9829
31.9923
31.9844
31.993
31.9857
31.9938
31.9873
31.9952
31.9894
31.997
31.9919
31.9992
31.9947
32.0018
31.9978
32.0046
32.0011
32.0077
32.0047
32.0111
32.0084
32.0145
32.0123
32.0182
32.0162
32.022
32.0203
32.0258
32.0244
32.0297
32.0286
32.0337
32.0328
32.0378
32.037
32.0419
32.0413
32.046
32.0456
32.0501
32.0498
32.0542
32.0541
32.0583
32.0583
32.0624
32.0625
32.0665
32.0667
32.0706
32.0709
32.0746
32.0749
32.0785
32.0789
32.0823
32.0827
32.086
32.0863
32.0896
32.0897
32.0926
32.0937
32.0714
28.1256
30.7622
30.9324
31.0742
31.1276
31.2625
31.3031
31.3936
31.4145
31.4957
31.5334
31.6223
31.6553
31.724
31.7416
31.7938
31.809
31.8575
31.8714
31.9126
31.919
31.948
31.9464
31.965
31.9587
31.9721
31.964
31.9751
31.967
31.9771
31.9697
31.9793
31.9728
31.9821
31.9764
31.9854
31.9804
31.9892
31.9849
31.9934
31.9896
31.9979
31.9947
32.0026
31.9999
32.0076
32.0054
32.0128
32.0109
32.0181
32.0166
32.0236
32.0224
32.0291
32.0282
32.0347
32.034
32.0403
32.0399
32.046
32.0457
32.0516
32.0516
32.0573
32.0574
32.063
32.0632
32.0686
32.069
32.0742
32.0747
32.0798
32.0803
32.0853
32.0859
32.0907
32.0914
32.096
32.0968
32.1012
32.102
32.1062
32.107
32.1111
32.1118
32.1157
32.1164
32.1197
32.1225
32.0987
28.2116
31.0016
31.1695
31.2921
31.3258
31.4463
31.4755
31.5529
31.5598
31.6276
31.6562
31.7391
31.7676
31.8328
31.8459
31.8947
31.9069
31.9544
31.9677
32.0103
32.0174
32.0484
32.0474
32.0676
32.0616
32.0761
32.068
32.08
32.0719
32.0828
32.0754
32.0858
32.0794
32.0894
32.0838
32.0936
32.0888
32.0983
32.0942
32.1034
32.0999
32.1089
32.1059
32.1146
32.1122
32.1206
32.1186
32.1268
32.1252
32.1331
32.1319
32.1395
32.1386
32.146
32.1454
32.1526
32.1523
32.1592
32.1591
32.1658
32.1659
32.1725
32.1727
32.1791
32.1795
32.1857
32.1862
32.1922
32.1929
32.1987
32.1995
32.2051
32.206
32.2115
32.2124
32.2177
32.2187
32.2238
32.2249
32.2298
32.2309
32.2356
32.2366
32.2412
32.2422
32.2465
32.2476
32.251
32.2551
32.2299
28.2135
30.9927
31.1414
31.2427
31.2582
31.3599
31.3758
31.4379
31.4336
31.4892
31.509
31.5826
31.6046
31.6628
31.671
31.7145
31.7233
31.7673
31.7789
31.8197
31.826
31.8562
31.855
31.8749
31.8689
31.8833
31.8754
31.8873
31.8792
31.8901
31.8828
31.8932
31.8868
31.8969
31.8914
31.9012
31.8964
31.9059
31.9018
31.9111
31.9076
31.9166
31.9137
31.9224
31.92
31.9285
31.9265
31.9347
31.9332
31.9411
31.9399
31.9476
31.9467
31.9542
31.9536
31.9608
31.9605
31.9674
31.9673
31.9741
31.9742
31.9808
31.9811
31.9875
31.9879
31.9941
31.9947
32.0007
32.0014
32.0072
32.008
32.0137
32.0146
32.0201
32.0211
32.0264
32.0274
32.0326
32.0336
32.0386
32.0397
32.0444
32.0455
32.0501
32.0511
32.0554
32.0566
32.0599
32.0642
32.0395
28.1295
30.7255
30.8315
30.9077
30.9067
30.9862
30.9878
31.0341
31.022
31.0684
31.0801
31.1422
31.1565
31.2047
31.2078
31.2447
31.25
31.2888
31.2973
31.3335
31.3376
31.3645
31.3621
31.3802
31.3737
31.387
31.3789
31.39
31.382
31.3922
31.3849
31.3946
31.3882
31.3976
31.392
31.4011
31.3962
31.405
31.4009
31.4094
31.4058
31.4141
31.411
31.419
31.4164
31.4242
31.422
31.4295
31.4278
31.435
31.4336
31.4406
31.4395
31.4463
31.4455
31.4521
31.4515
31.4579
31.4575
31.4637
31.4635
31.4695
31.4695
31.4753
31.4754
31.4811
31.4814
31.4869
31.4873
31.4926
31.4931
31.4983
31.4989
31.5039
31.5046
31.5095
31.5102
31.5149
31.5157
31.5202
31.5211
31.5254
31.5262
31.5304
31.5312
31.5351
31.536
31.5391
31.5425
31.5202
28.2742
30.5609
30.6139
30.6648
30.6519
30.7092
30.6981
30.7307
30.7142
30.752
30.7572
30.8058
30.8121
30.8487
30.8474
30.8768
30.8788
30.9104
30.9152
30.9443
30.9455
30.967
30.9631
30.9779
30.9709
30.9819
30.974
30.9833
30.9756
30.9842
30.9771
30.9853
30.979
30.9869
30.9814
30.989
30.9841
30.9915
30.9872
30.9943
30.9905
30.9974
30.9941
31.0007
30.9979
31.0043
31.0018
31.008
31.0059
31.0119
31.01
31.0158
31.0143
31.0199
31.0186
31.024
31.023
31.0282
31.0274
31.0324
31.0318
31.0367
31.0362
31.041
31.0407
31.0452
31.0451
31.0495
31.0495
31.0538
31.0539
31.0581
31.0582
31.0623
31.0626
31.0665
31.0668
31.0706
31.071
31.0747
31.0751
31.0786
31.0791
31.0825
31.0829
31.0861
31.0865
31.0892
31.091
31.0705
30.4206
32.192
32.1911
32.2229
32.2033
32.2422
32.2232
32.2459
32.2287
32.2583
32.2579
32.2923
32.2916
32.3166
32.312
32.3337
32.3325
32.3555
32.3563
32.3769
32.3751
32.3901
32.385
32.3955
32.3884
32.3965
32.389
32.3959
32.3887
32.3951
32.3885
32.3946
32.3887
32.3945
32.3891
32.3947
32.3899
32.3953
32.391
32.3961
32.3923
32.3972
32.3938
32.3985
32.3955
32.4
32.3973
32.4017
32.3992
32.4035
32.4013
32.4054
32.4035
32.4074
32.4057
32.4095
32.408
32.4116
32.4103
32.4139
32.4127
32.4162
32.4152
32.4185
32.4177
32.4209
32.4202
32.4233
32.4227
32.4257
32.4253
32.4282
32.4278
32.4306
32.4304
32.4331
32.4329
32.4356
32.4355
32.438
32.4379
32.4403
32.4403
32.4426
32.4425
32.4447
32.4444
32.4465
32.4442
32.428
46.9296
48.1853
48.1657
48.1885
48.1719
48.1992
48.1821
48.1977
48.1851
48.2076
48.2078
48.2322
48.2311
48.248
48.2445
48.2597
48.2592
48.2753
48.2761
48.2899
48.2884
48.298
48.2939
48.3003
48.2947
48.2994
48.2936
48.2974
48.2919
48.2953
48.2902
48.2935
48.2889
48.292
48.2877
48.2907
48.2869
48.2897
48.2862
48.289
48.2858
48.2884
48.2855
48.2881
48.2855
48.2879
48.2855
48.2879
48.2857
48.288
48.286
48.2882
48.2864
48.2885
48.2869
48.2889
48.2875
48.2894
48.2881
48.29
48.2889
48.2907
48.2896
48.2914
48.2905
48.2921
48.2913
48.293
48.2922
48.2938
48.2932
48.2947
48.2942
48.2957
48.2952
48.2967
48.2962
48.2976
48.2973
48.2986
48.2982
48.2995
48.2991
48.3003
48.2999
48.301
48.3002
48.3017
48.2868
48.2805
142.647
143.23
143.23
143.264
143.27
143.311
143.307
143.325
143.324
143.355
143.376
143.412
143.428
143.451
143.46
143.48
143.493
143.516
143.53
143.549
143.557
143.569
143.571
143.577
143.576
143.579
143.576
143.578
143.575
143.576
143.573
143.574
143.571
143.573
143.57
143.571
143.569
143.57
143.568
143.569
143.567
143.569
143.567
143.568
143.567
143.568
143.567
143.568
143.567
143.568
143.567
143.568
143.567
143.568
143.567
143.568
143.568
143.569
143.568
143.569
143.569
143.57
143.569
143.57
143.57
143.571
143.571
143.572
143.571
143.572
143.572
143.573
143.573
143.574
143.574
143.574
143.574
143.575
143.575
143.576
143.576
143.576
143.576
143.577
143.576
143.577
143.576
143.577
143.549
143.538
30.1883
30.9246
31.1485
31.3222
31.4653
31.5858
31.6848
31.7818
31.8689
31.9585
32.0322
32.1029
32.1553
32.2077
32.2463
32.2879
32.3164
32.3469
32.3637
32.3821
32.3882
32.3975
32.3972
32.4016
32.3985
32.4009
32.397
32.3987
32.3948
32.3963
32.3926
32.3941
32.3908
32.3922
32.3891
32.3906
32.3878
32.3892
32.3866
32.388
32.3857
32.387
32.3849
32.3863
32.3844
32.3857
32.384
32.3852
32.3837
32.3849
32.3835
32.3847
32.3835
32.3846
32.3835
32.3846
32.3836
32.3848
32.3839
32.385
32.3842
32.3852
32.3845
32.3856
32.385
32.386
32.3855
32.3865
32.386
32.387
32.3867
32.3877
32.3874
32.3883
32.3881
32.3891
32.389
32.3899
32.39
32.3909
32.391
32.3919
32.3922
32.3933
32.3936
32.3951
32.3953
32.3976
32.3946
32.3956
28.0775
29.3738
29.5947
29.768
29.9066
30.0295
30.1261
30.2217
30.306
30.3949
30.4691
30.5409
30.5951
30.6483
30.6884
30.7308
30.7617
30.7939
30.8139
30.8344
30.8439
30.8552
30.8578
30.8637
30.8632
30.8667
30.8651
30.8678
30.866
30.8683
30.8666
30.8689
30.8673
30.8695
30.8681
30.8701
30.8689
30.8708
30.8697
30.8716
30.8706
30.8724
30.8716
30.8733
30.8726
30.8742
30.8736
30.8752
30.8746
30.8762
30.8757
30.8772
30.8768
30.8783
30.8779
30.8793
30.8791
30.8804
30.8802
30.8816
30.8814
30.8827
30.8826
30.8839
30.8838
30.885
30.885
30.8862
30.8862
30.8874
30.8875
30.8887
30.8888
30.8899
30.89
30.8912
30.8914
30.8924
30.8927
30.8937
30.894
30.8951
30.8954
30.8965
30.8966
30.8981
30.8978
30.8997
30.8993
30.902
25.8908
27.6947
27.9241
28.0793
28.211
28.3281
28.4207
28.5053
28.582
28.6623
28.7358
28.8059
28.8622
28.9133
28.9543
28.9945
29.0278
29.0604
29.0849
29.1072
29.1213
29.134
29.1402
29.1467
29.1488
29.1523
29.1528
29.1552
29.1552
29.1572
29.1572
29.1591
29.1591
29.1609
29.161
29.1628
29.1629
29.1646
29.1648
29.1665
29.1667
29.1684
29.1686
29.1702
29.1705
29.1721
29.1724
29.1739
29.1743
29.1758
29.1762
29.1776
29.178
29.1794
29.1799
29.1812
29.1817
29.183
29.1835
29.1848
29.1852
29.1865
29.187
29.1882
29.1887
29.1899
29.1904
29.1916
29.1921
29.1933
29.1938
29.1949
29.1954
29.1965
29.197
29.1981
29.1986
29.1997
29.2002
29.2012
29.2017
29.2027
29.2032
29.2042
29.2044
29.2057
29.2055
29.2068
29.206
29.1885
25.1643
27.2181
27.4322
27.5585
27.6753
27.7862
27.8727
27.9471
28.0129
28.0846
28.1554
28.2252
28.2833
28.3339
28.3746
28.4134
28.4477
28.4815
28.5096
28.5348
28.5529
28.5677
28.5767
28.5841
28.5878
28.5914
28.5927
28.5949
28.5954
28.597
28.5975
28.5989
28.5994
28.6008
28.6012
28.6026
28.6031
28.6044
28.6049
28.6063
28.6068
28.6081
28.6086
28.6099
28.6105
28.6118
28.6123
28.6136
28.6141
28.6154
28.616
28.6172
28.6178
28.6189
28.6195
28.6207
28.6213
28.6224
28.623
28.6241
28.6248
28.6258
28.6264
28.6275
28.6281
28.6291
28.6298
28.6308
28.6314
28.6324
28.633
28.6339
28.6345
28.6355
28.6361
28.637
28.6376
28.6385
28.6391
28.6399
28.6405
28.6413
28.6418
28.6427
28.643
28.644
28.644
28.645
28.6449
28.6331
24.7221
26.9381
27.128
27.2206
27.3145
27.4132
27.4894
27.5515
27.6037
27.6638
27.7276
27.7942
27.8506
27.8991
27.9372
27.973
28.0057
28.0391
28.0685
28.0954
28.1157
28.1323
28.1429
28.1511
28.1555
28.1593
28.1608
28.1627
28.1632
28.1645
28.1648
28.1659
28.1662
28.1673
28.1676
28.1687
28.169
28.1701
28.1704
28.1715
28.1719
28.1729
28.1733
28.1744
28.1748
28.1758
28.1763
28.1773
28.1777
28.1787
28.1792
28.1802
28.1807
28.1816
28.1821
28.1831
28.1836
28.1845
28.185
28.1859
28.1865
28.1874
28.1879
28.1888
28.1893
28.1902
28.1907
28.1915
28.1921
28.1929
28.1934
28.1943
28.1948
28.1956
28.1961
28.1969
28.1974
28.1982
28.1987
28.1995
28.2
28.2008
28.2011
28.202
28.2022
28.203
28.203
28.2037
28.2035
28.1835
24.6333
26.8934
27.0551
27.1149
27.1849
27.2675
27.3311
27.3796
27.4184
27.4663
27.5214
27.5821
27.6343
27.679
27.7131
27.7455
27.7754
27.8075
27.8365
27.864
27.8851
27.9027
27.914
27.9229
27.9275
27.9316
27.9331
27.9351
27.9355
27.9368
27.937
27.938
27.9382
27.9392
27.9394
27.9404
27.9406
27.9416
27.9418
27.9428
27.943
27.944
27.9443
27.9453
27.9456
27.9465
27.9468
27.9478
27.9481
27.949
27.9494
27.9503
27.9507
27.9516
27.952
27.9529
27.9532
27.9541
27.9545
27.9554
27.9558
27.9566
27.9571
27.9579
27.9583
27.9591
27.9596
27.9604
27.9608
27.9616
27.962
27.9628
27.9633
27.964
27.9645
27.9652
27.9657
27.9664
27.9668
27.9676
27.968
27.9687
27.9691
27.9699
27.9701
27.9709
27.971
27.9717
27.9714
27.9537
24.6339
26.8829
27.0256
27.0645
27.1161
27.1825
27.2319
27.2672
27.294
27.3311
27.3771
27.4298
27.4751
27.5136
27.5424
27.5702
27.5964
27.6255
27.6524
27.6784
27.6985
27.7155
27.7264
27.7351
27.7396
27.7436
27.7451
27.7471
27.7475
27.7488
27.749
27.7501
27.7502
27.7513
27.7514
27.7525
27.7527
27.7537
27.7539
27.7549
27.7552
27.7562
27.7565
27.7575
27.7578
27.7587
27.7591
27.76
27.7604
27.7613
27.7617
27.7626
27.763
27.7639
27.7643
27.7652
27.7656
27.7665
27.7669
27.7678
27.7682
27.7691
27.7695
27.7704
27.7708
27.7716
27.7721
27.7729
27.7734
27.7742
27.7746
27.7754
27.7759
27.7767
27.7771
27.7779
27.7783
27.7791
27.7796
27.7803
27.7807
27.7815
27.7818
27.7827
27.7829
27.7837
27.7838
27.7845
27.7844
27.767
24.7231
26.898
27.028
27.0585
27.0986
27.1503
27.1857
27.2098
27.2279
27.2572
27.2947
27.3382
27.3749
27.4058
27.4287
27.4514
27.4735
27.4986
27.5219
27.5446
27.5621
27.5769
27.5865
27.5941
27.5981
27.6018
27.6032
27.6051
27.6056
27.607
27.6073
27.6084
27.6087
27.6099
27.6102
27.6113
27.6117
27.6128
27.6132
27.6143
27.6147
27.6158
27.6162
27.6173
27.6177
27.6188
27.6193
27.6204
27.6208
27.6219
27.6224
27.6234
27.6239
27.6249
27.6255
27.6265
27.627
27.628
27.6285
27.6295
27.63
27.631
27.6315
27.6325
27.633
27.6339
27.6345
27.6354
27.6359
27.6368
27.6374
27.6383
27.6388
27.6397
27.6402
27.6411
27.6416
27.6424
27.643
27.6438
27.6443
27.6452
27.6456
27.6464
27.6467
27.6475
27.6477
27.6483
27.6485
27.6296
25.1489
27.1045
27.2063
27.2302
27.2609
27.2979
27.3203
27.335
27.347
27.3699
27.399
27.4323
27.4591
27.4818
27.4985
27.5165
27.534
27.5546
27.5731
27.5916
27.6053
27.6173
27.6246
27.6311
27.6343
27.6376
27.6389
27.6409
27.6415
27.6432
27.6436
27.6451
27.6456
27.647
27.6475
27.649
27.6495
27.6509
27.6514
27.6528
27.6534
27.6547
27.6553
27.6566
27.6572
27.6586
27.6592
27.6605
27.6611
27.6624
27.663
27.6642
27.6649
27.6661
27.6667
27.6679
27.6686
27.6697
27.6704
27.6715
27.6722
27.6733
27.674
27.6751
27.6757
27.6768
27.6775
27.6785
27.6792
27.6802
27.6808
27.6818
27.6825
27.6834
27.6841
27.685
27.6857
27.6866
27.6872
27.6881
27.6887
27.6896
27.6901
27.6911
27.6914
27.6924
27.6927
27.6934
27.6936
27.6832
25.8218
27.443
27.5098
27.5277
27.5482
27.5711
27.5819
27.5905
27.5979
27.6151
27.6345
27.6573
27.6734
27.6886
27.6986
27.712
27.7235
27.7389
27.7508
27.7643
27.7727
27.7816
27.7857
27.7909
27.7923
27.7955
27.7959
27.7982
27.7983
27.8003
27.8003
27.8022
27.8022
27.8041
27.8042
27.806
27.8062
27.8079
27.8081
27.8098
27.8101
27.8118
27.8121
27.8137
27.814
27.8156
27.8159
27.8175
27.8178
27.8193
27.8197
27.8212
27.8216
27.823
27.8235
27.8248
27.8253
27.8266
27.8271
27.8284
27.8289
27.8301
27.8306
27.8319
27.8324
27.8336
27.8341
27.8352
27.8357
27.8369
27.8374
27.8385
27.839
27.8401
27.8406
27.8417
27.8422
27.8433
27.8437
27.8448
27.8453
27.8463
27.8467
27.8478
27.8481
27.8492
27.8493
27.8503
27.8508
27.8349
27.8792
28.9026
28.918
28.9249
28.9313
28.943
28.9437
28.9491
28.9504
28.9622
28.97
28.9842
28.9892
28.999
29.0015
29.0108
29.0146
29.025
29.029
29.038
29.0399
29.0461
29.0459
29.05
29.0487
29.0517
29.0499
29.0524
29.0506
29.0529
29.0512
29.0534
29.0519
29.054
29.0526
29.0546
29.0533
29.0553
29.0541
29.056
29.055
29.0567
29.0558
29.0575
29.0567
29.0584
29.0576
29.0592
29.0586
29.0601
29.0595
29.061
29.0605
29.0619
29.0615
29.0628
29.0625
29.0637
29.0634
29.0647
29.0645
29.0657
29.0655
29.0666
29.0665
29.0676
29.0675
29.0686
29.0685
29.0696
29.0696
29.0706
29.0706
29.0717
29.0717
29.0727
29.0728
29.0738
29.0739
29.0749
29.075
29.0761
29.0762
29.0773
29.0773
29.0786
29.0785
29.0801
29.0804
29.0839
29.8324
30.2506
30.2515
30.2441
30.2422
30.2415
30.2366
30.2359
30.2313
30.2352
30.2335
30.2388
30.2359
30.2397
30.2359
30.24
30.2371
30.2418
30.2392
30.2433
30.24
30.243
30.239
30.2411
30.2368
30.2385
30.2343
30.2357
30.2318
30.2332
30.2295
30.2309
30.2275
30.2288
30.2257
30.227
30.2242
30.2254
30.2228
30.224
30.2216
30.2228
30.2206
30.2218
30.2198
30.2209
30.2191
30.2202
30.2185
30.2195
30.218
30.219
30.2176
30.2186
30.2173
30.2183
30.2171
30.218
30.2169
30.2178
30.2169
30.2177
30.2168
30.2177
30.2169
30.2177
30.217
30.2178
30.2171
30.2179
30.2173
30.2181
30.2176
30.2184
30.2179
30.2187
30.2184
30.2191
30.2189
30.2196
30.2195
30.2203
30.2203
30.2212
30.2213
30.2225
30.2228
30.2247
30.2217
30.2229
3.61652
3.80882
3.82849
3.8379
3.85307
3.86605
3.87827
3.89301
3.90314
3.91826
3.92517
3.93849
3.94199
3.95343
3.95473
3.96472
3.96432
3.97263
3.97057
3.97721
3.97388
3.97927
3.97527
3.97987
3.97566
3.97978
3.97559
3.97937
3.97532
3.97882
3.97495
3.9782
3.97454
3.97757
3.97411
3.97693
3.97368
3.97631
3.97326
3.97572
3.97287
3.97518
3.97251
3.97467
3.97219
3.97422
3.9719
3.97381
3.97165
3.97345
3.97145
3.97314
3.97128
3.97288
3.97115
3.97267