/*--------------------------------*- C++ -*----------------------------------*\
  =========                 |
  \\      /  F ield         | OpenFOAM: The Open Source CFD Toolbox
   \\    /   O peration     | Website:  https://openfoam.org
    \\  /    A nd           | Version:  7
     \\/     M anipulation  |
\*---------------------------------------------------------------------------*/
FoamFile
{
    version     2.0;
    format      ascii;
    class       volScalarField;
    location    "0.02";
    object      k_0;
}
// * * * * * * * * * * * * * * * * * * * * * * * * * * * * * * * * * * * * * //

dimensions      [0 2 -2 0 0 0 0];

internalField   nonuniform List<scalar> 
1440
(
0.143577
0.776161
1.986
3.43676
4.86595
6.09886
7.0459
7.70479
8.09269
8.28781
8.2783
8.21072
8.05692
7.84079
7.60043
7.34992
7.09926
6.85459
6.62044
6.40035
6.19529
6.00502
5.8302
5.67149
5.52746
5.39539
5.27335
5.1608
5.05765
4.96345
4.87742
4.79881
4.72707
4.66192
4.60327
4.55105
4.50504
4.46481
4.42973
4.39916
4.37251
4.3493
4.3291
4.31157
4.29641
4.28342
4.27245
4.26345
4.25637
4.2512
4.24784
4.24622
4.24607
4.24667
4.24831
4.25026
4.25224
4.25403
4.25545
4.25641
4.25689
4.25696
4.25672
4.25632
4.2559
4.25554
4.25525
4.25504
4.25484
4.25463
4.25434
4.25398
4.2535
4.25293
4.25226
4.25152
4.25071
4.24986
4.24896
4.24802
4.24706
4.24607
4.24504
4.244
4.24292
4.24182
4.24068
4.23953
4.23834
4.23713
4.23588
4.23462
4.23333
4.23201
4.23066
4.2293
4.2279
4.22648
4.22504
4.22358
4.22208
4.22057
4.21903
4.21748
4.21589
4.21429
4.21265
4.211
4.20934
4.20762
4.20595
4.20413
4.20251
4.2005
4.19905
4.19673
4.19552
4.19301
4.19179
4.18894
0.00034222
0.00735907
0.0369253
0.108582
0.253898
0.469601
0.726729
1.00388
1.26842
1.51216
1.71764
1.88776
2.02388
2.12668
2.20252
2.25526
2.29141
2.31401
2.32748
2.33437
2.33405
2.33187
2.32685
2.319
2.30985
2.30063
2.29248
2.286
2.28118
2.27754
2.27443
2.27149
2.26876
2.26627
2.26377
2.26074
2.25666
2.25135
2.24484
2.23737
2.22924
2.22064
2.21172
2.20279
2.19426
2.18649
2.17966
2.17368
2.1682
2.16285
2.15758
2.15273
2.14878
2.14609
2.14472
2.14434
2.1444
2.14509
2.14656
2.14771
2.1484
2.14862
2.14855
2.14785
2.14643
2.14503
2.14378
2.14283
2.14227
2.14208
2.1421
2.14249
2.14331
2.14419
2.14513
2.14611
2.14713
2.14815
2.14918
2.1502
2.15123
2.15226
2.15328
2.15431
2.15535
2.15638
2.15742
2.15846
2.15951
2.16055
2.1616
2.16265
2.1637
2.16476
2.16581
2.16688
2.16792
2.169
2.17004
2.17113
2.17217
2.17327
2.1743
2.17541
2.17644
2.17755
2.17858
2.1797
2.18073
2.18186
2.18287
2.18403
2.18499
2.18622
2.18709
2.18842
2.18917
2.19057
2.19124
2.19288
2.02517e-05
3.94989e-05
0.000201746
0.000889629
0.00300024
0.00788476
0.0178114
0.0341679
0.0566843
0.0849896
0.117607
0.152519
0.18921
0.225948
0.261032
0.293796
0.324401
0.351982
0.376605
0.398733
0.417908
0.434576
0.449417
0.462086
0.472341
0.480796
0.488035
0.494391
0.500247
0.505629
0.51024
0.51431
0.51834
0.52216
0.525279
0.527829
0.53031
0.532776
0.534806
0.536106
0.536751
0.536999
0.537049
0.537
0.536609
0.535267
0.533448
0.531342
0.529001
0.526441
0.523568
0.520223
0.516264
0.511629
0.506418
0.500942
0.495693
0.491179
0.487738
0.48546
0.484182
0.483523
0.483004
0.482188
0.480819
0.47886
0.476455
0.473869
0.471406
0.469348
0.467889
0.467067
0.466742
0.466681
0.466689
0.466826
0.467377
0.468465
0.469544
0.470639
0.471716
0.472806
0.47388
0.474988
0.476056
0.477191
0.47826
0.479417
0.480489
0.481666
0.482739
0.48394
0.485007
0.486234
0.487295
0.488541
0.4896
0.490866
0.491919
0.493204
0.494254
0.495553
0.496601
0.497916
0.498957
0.500292
0.501323
0.502682
0.503692
0.505087
0.506065
0.507504
0.50844
0.509932
0.510818
0.512362
0.513197
0.514782
0.515575
0.517525
2.00211e-05
2.01508e-05
2.08665e-05
2.46507e-05
4.01871e-05
8.894e-05
0.000215682
0.000492291
0.0010294
0.00200384
0.00336136
0.00503349
0.00738738
0.0103863
0.0135959
0.0169752
0.020627
0.0246288
0.0290726
0.0333615
0.0369312
0.0404616
0.0447313
0.04922
0.0528132
0.05566
0.058362
0.0610906
0.0641786
0.067305
0.069562
0.0711168
0.072894
0.0751065
0.0772956
0.0790694
0.0802357
0.0808851
0.0814659
0.0823236
0.0832684
0.083842
0.0839653
0.0839369
0.0838145
0.0835263
0.0828176
0.0818423
0.0807511
0.079612
0.0784399
0.0771759
0.0757082
0.0739243
0.0717721
0.0693046
0.0666828
0.0641297
0.0618536
0.0599775
0.058498
0.0572935
0.056166
0.0549099
0.0533724
0.0514977
0.0493339
0.0470102
0.0446934
0.0425417
0.040667
0.0391239
0.0379166
0.0370264
0.036421
0.0360604
0.0358855
0.0358242
0.0358126
0.0358146
0.0358551
0.0360178
0.0362313
0.036439
0.0366155
0.0368343
0.036995
0.0372258
0.0373821
0.0376217
0.0377782
0.0380229
0.0381828
0.0384295
0.038592
0.0388446
0.0390028
0.0392636
0.039423
0.0396813
0.0398484
0.0401072
0.0402726
0.0405354
0.0407052
0.0409657
0.0411364
0.0414036
0.0415714
0.041841
0.0420085
0.0422857
0.0424469
0.0427294
0.0428887
0.0431774
0.0433305
0.043624
0.0437723
0.0441371
2.00074e-05
2.00673e-05
2.02241e-05
2.05592e-05
2.11219e-05
2.20643e-05
2.37524e-05
2.70754e-05
3.37209e-05
4.66357e-05
7.39238e-05
0.00010637
0.000149603
0.000241427
0.000362318
0.000473392
0.000581332
0.000752941
0.00102351
0.00129304
0.00145912
0.00159863
0.00188244
0.0023093
0.00267354
0.00288949
0.00304497
0.00327661
0.00364983
0.00406683
0.0043667
0.00453054
0.00468146
0.00492987
0.00528428
0.00565874
0.00594226
0.00608974
0.00614892
0.00620561
0.0063576
0.00658951
0.00677265
0.00686301
0.00688126
0.00687665
0.00685617
0.00679224
0.00667179
0.00655943
0.00646211
0.00636214
0.00623041
0.00604173
0.00578479
0.00546585
0.00510694
0.00473951
0.00439492
0.00409546
0.00384801
0.00364342
0.00346074
0.00327574
0.00306914
0.00283273
0.00257008
0.00229404
0.002021
0.0017665
0.00154147
0.00135183
0.00119872
0.00108007
0.000991699
0.000928512
0.000885236
0.00085717
0.000840549
0.000832146
0.00082915
0.000828663
0.000828975
0.000831796
0.000838996
0.000848147
0.000854351
0.000864169
0.000869633
0.000880125
0.000885465
0.000896114
0.000901866
0.000912477
0.000918416
0.000929455
0.000935124
0.000946493
0.000952494
0.000963593
0.000970001
0.000981181
0.00098767
0.000998834
0.00100572
0.00101679
0.00102374
0.00103516
0.00104201
0.00105358
0.00106048
0.00107243
0.00107907
0.00109131
0.00109796
0.00111047
0.00111694
0.00112966
0.00113605
0.00115185
2.0001e-05
2.00434e-05
2.01762e-05
2.04852e-05
2.08941e-05
2.1726e-05
2.27769e-05
2.36613e-05
2.47569e-05
2.6629e-05
2.86735e-05
2.99641e-05
3.11485e-05
3.38127e-05
3.76747e-05
4.07071e-05
4.26105e-05
4.50933e-05
5.12138e-05
5.87945e-05
6.37814e-05
6.66855e-05
7.06103e-05
8.07426e-05
9.3539e-05
0.000102327
0.000106936
0.000110832
0.000119281
0.000135104
0.000149441
0.000158382
0.000162983
0.000167785
0.000179297
0.000197365
0.000213136
0.000222762
0.000226822
0.000228668
0.000231496
0.000240912
0.0002527
0.000259666
0.000261888
0.000261946
0.000261365
0.000259193
0.00025356
0.000247864
0.000242946
0.000238552
0.000233727
0.000227173
0.000217693
0.000204741
0.000188838
0.000171492
0.000154685
0.000140222
0.00012921
0.000121865
0.000117701
0.000115885
0.000115508
0.000116326
0.000123288
0.000131928
0.000136314
0.000137572
0.000137572
0.00013682
0.000133365
0.000116393
9.07031e-05
6.88372e-05
5.12841e-05
3.78694e-05
2.80513e-05
2.11188e-05
1.63967e-05
1.32766e-05
1.12962e-05
1.00937e-05
9.40531e-06
9.04668e-06
8.88255e-06
8.82957e-06
8.8196e-06
8.8266e-06
8.8619e-06
8.98579e-06
9.06517e-06
9.19638e-06
9.26658e-06
9.39872e-06
9.4649e-06
9.59652e-06
9.66703e-06
9.79497e-06
9.87053e-06
9.99757e-06
1.00752e-05
1.02021e-05
1.02832e-05
1.04107e-05
1.04915e-05
1.06245e-05
1.07027e-05
1.08399e-05
1.09179e-05
1.10608e-05
1.11356e-05
1.12836e-05
1.13596e-05
1.15109e-05
1.15876e-05
1.17413e-05
1.18196e-05
1.20153e-05
2.00009e-05
2.00432e-05
2.01758e-05
2.04797e-05
2.08948e-05
2.17453e-05
2.27656e-05
2.36164e-05
2.47694e-05
2.67173e-05
2.8654e-05
2.98003e-05
3.1083e-05
3.39746e-05
3.756e-05
4.01018e-05
4.1706e-05
4.42793e-05
5.02691e-05
5.61822e-05
5.9637e-05
6.17923e-05
6.5368e-05
7.44375e-05
8.3687e-05
8.91773e-05
9.17245e-05
9.43401e-05
0.00010103
0.00011081
0.000117983
0.0001215
0.000122879
0.000124231
0.000128156
0.000134888
0.000139578
0.000141581
0.000141902
0.000141652
0.000141251
0.000141259
0.00014214
0.000143329
0.000143696
0.000143683
0.000143422
0.000142091
0.000138479
0.000134968
0.00013189
0.000128977
0.000125819
0.000122182
0.000117985
0.000112907
0.000106785
9.99178e-05
9.29796e-05
8.68022e-05
8.20868e-05
7.91442e-05
7.77684e-05
7.74033e-05
7.75691e-05
7.99227e-05
9.25706e-05
0.000106931
0.000116195
0.000120853
0.000122326
0.000122336
0.000120731
0.000109503
8.47954e-05
6.32152e-05
4.58788e-05
3.26247e-05
2.29089e-05
1.60399e-05
1.13492e-05
8.24009e-06
6.24812e-06
5.0103e-06
4.27113e-06
3.84664e-06
3.61797e-06
3.50664e-06
3.46108e-06
3.44915e-06
3.44799e-06
3.45698e-06
3.48113e-06
3.53123e-06
3.55777e-06
3.60366e-06
3.62736e-06
3.67329e-06
3.69618e-06
3.74146e-06
3.7643e-06
3.80996e-06
3.83298e-06
3.87851e-06
3.90229e-06
3.94751e-06
3.97261e-06
4.01724e-06
4.04333e-06
4.08815e-06
4.11436e-06
4.16029e-06
4.18621e-06
4.23288e-06
4.25854e-06
4.3063e-06
4.33149e-06
4.37998e-06
4.40451e-06
4.46502e-06
2.00072e-05
2.00667e-05
2.02229e-05
2.05575e-05
2.112e-05
2.20547e-05
2.37146e-05
2.70613e-05
3.34079e-05
4.71604e-05
7.31541e-05
0.00010145
0.00014763
0.000239717
0.000348431
0.000445869
0.000546102
0.00072327
0.000976022
0.0011913
0.00131452
0.00144975
0.00173777
0.00211324
0.00240144
0.00255271
0.00268255
0.00291308
0.00323488
0.00353483
0.00372363
0.00382065
0.00391968
0.00408726
0.00430679
0.00451012
0.00464388
0.00470374
0.00471964
0.00472306
0.00473084
0.0047888
0.00486396
0.00489503
0.00489872
0.00489399
0.00487429
0.00480065
0.00470107
0.00461656
0.00454649
0.00447712
0.00438697
0.00425679
0.00408052
0.0038685
0.00363793
0.00340271
0.00317599
0.0029731
0.00280259
0.00265754
0.00252112
0.0023761
0.0022104
0.0020209
0.00181298
0.00159791
0.00138834
0.00119537
0.0010263
0.000884712
0.00077082
0.000682674
0.000616879
0.00056952
0.00053679
0.000515409
0.000502777
0.000496501
0.000494367
0.000494042
0.000494302
0.000495929
0.00050138
0.000506727
0.000512312
0.000518132
0.00052285
0.000529671
0.000533535
0.000541072
0.000544873
0.000552346
0.000556403
0.000564005
0.000567966
0.000575844
0.000579826
0.000587757
0.000591853
0.000599862
0.000604071
0.000611985
0.000616566
0.000624163
0.000629188
0.000636511
0.000641802
0.000649038
0.000654387
0.000661703
0.000666929
0.000674368
0.000679356
0.000687001
0.000691538
0.000699371
0.0007033
0.000712607
2.00208e-05
2.01491e-05
2.0855e-05
2.45825e-05
3.98974e-05
8.7968e-05
0.000212447
0.000493973
0.000985053
0.00202145
0.00331604
0.0048907
0.00730305
0.0102366
0.013266
0.0165203
0.0199983
0.0239429
0.0281825
0.0319684
0.0352033
0.0387089
0.0428017
0.0468874
0.050258
0.0528366
0.0552395
0.05797
0.0608337
0.0633099
0.0650956
0.0663701
0.0676381
0.0691886
0.0707655
0.0718911
0.0723962
0.0725195
0.0725846
0.0728598
0.0731548
0.0732207
0.073206
0.0731437
0.0729966
0.0726441
0.0719276
0.0711
0.070257
0.0694305
0.0685756
0.0675976
0.0663996
0.0649206
0.0631546
0.0611632
0.0590745
0.0570582
0.0552687
0.0537849
0.0525783
0.051526
0.0504508
0.0491779
0.0475915
0.0456689
0.0434827
0.0411748
0.0389119
0.0368435
0.0350693
0.0336317
0.0325267
0.0317302
0.0312062
0.0309088
0.0307753
0.0307352
0.0307295
0.0307365
0.0308076
0.0309783
0.0311953
0.0313712
0.0315586
0.0317431
0.031914
0.0321138
0.0322707
0.0324896
0.0326325
0.0328666
0.0330056
0.0332416
0.0333873
0.0336218
0.0337676
0.0340105
0.0341518
0.0343987
0.0345438
0.0347891
0.0349374
0.0351826
0.035336
0.035577
0.0357368
0.0359754
0.0361374
0.0363773
0.0365385
0.0367809
0.036939
0.0371862
0.0373376
0.0375905
0.0377331
0.0379919
0.0381224
0.0384392
2.02488e-05
3.92458e-05
0.000199639
0.000880352
0.00297297
0.00781241
0.0176299
0.0339173
0.0561286
0.0844043
0.1166
0.151251
0.187499
0.223878
0.258215
0.29061
0.32031
0.347216
0.371183
0.392335
0.410831
0.4273
0.441836
0.454382
0.464993
0.4736
0.480767
0.48733
0.493
0.497323
0.50089
0.504159
0.506791
0.508727
0.51033
0.511683
0.512644
0.513225
0.513583
0.513871
0.514158
0.514371
0.514434
0.514329
0.513983
0.513368
0.512456
0.511318
0.510016
0.508497
0.506591
0.504093
0.500865
0.496901
0.492367
0.487604
0.483077
0.479241
0.476389
0.474574
0.473589
0.473026
0.472413
0.471364
0.469686
0.467398
0.464695
0.461873
0.459254
0.457124
0.455668
0.454891
0.45461
0.45457
0.45459
0.454769
0.455448
0.456562
0.457669
0.458761
0.459867
0.46094
0.462042
0.463126
0.464217
0.465332
0.46641
0.467558
0.468628
0.469801
0.470867
0.472064
0.473124
0.474348
0.475395
0.476647
0.477685
0.478959
0.479991
0.481284
0.482309
0.483621
0.48464
0.485965
0.486985
0.488316
0.489339
0.490678
0.491693
0.49305
0.494046
0.495432
0.496391
0.497817
0.498724
0.500201
0.501038
0.502563
0.50333
0.5052
0.000339808
0.00730075
0.036686
0.107948
0.252841
0.466993
0.723855
0.999261
1.26343
1.50595
1.71031
1.88065
2.01588
2.11914
2.1942
2.2476
2.28275
2.30633
2.31906
2.32706
2.32812
2.32704
2.32427
2.31951
2.31398
2.30813
2.30228
2.29662
2.29118
2.2858
2.28045
2.27525
2.27025
2.26547
2.26078
2.25579
2.25026
2.24436
2.23815
2.23177
2.22529
2.21871
2.21215
2.2058
2.19995
2.19484
2.19052
2.18674
2.18304
2.17901
2.17467
2.17043
2.16683
2.16433
2.16301
2.16262
2.16266
2.1633
2.16448
2.16529
2.16567
2.1657
2.16534
2.16401
2.16242
2.16092
2.15967
2.15882
2.1584
2.15832
2.15846
2.15919
2.16016
2.16117
2.16222
2.16331
2.16441
2.1655
2.16659
2.16767
2.16875
2.16982
2.1709
2.17198
2.17306
2.17414
2.17522
2.17631
2.1774
2.17849
2.17959
2.18068
2.18178
2.18288
2.18398
2.1851
2.18619
2.18731
2.1884
2.18954
2.19062
2.19177
2.19284
2.194
2.19506
2.19623
2.19729
2.19846
2.19951
2.20069
2.20173
2.20292
2.20392
2.20514
2.20608
2.20736
2.20818
2.20953
2.21023
2.21189
0.143532
0.775081
1.98521
3.43338
4.8602
6.08547
7.02549
7.66935
8.0489
8.2201
8.20269
8.12268
7.94975
7.72145
7.47107
7.21301
6.95686
6.70931
6.47442
6.25448
6.05012
5.86147
5.68837
5.53022
5.38621
5.25556
5.13761
5.03166
4.9368
4.85198
4.77618
4.70853
4.64832
4.59498
4.54807
4.50713
4.47149
4.44031
4.41279
4.38835
4.36658
4.34704
4.32933
4.31315
4.29841
4.28512
4.27337
4.26327
4.25497
4.24854
4.244
4.24119
4.23985
4.23973
4.24012
4.24108
4.24211
4.24302
4.2437
4.24406
4.24412
4.24395
4.24364
4.24332
4.24308
4.24295
4.24293
4.24297
4.24302
4.24302
4.24292
4.2427
4.24236
4.24189
4.24132
4.24066
4.23994
4.23916
4.23834
4.2375
4.23662
4.23571
4.23478
4.23382
4.23283
4.23182
4.23078
4.22971
4.22862
4.2275
4.22636
4.22519
4.22399
4.22277
4.22152
4.22025
4.21895
4.21764
4.21629
4.21493
4.21354
4.21213
4.2107
4.20925
4.20777
4.20628
4.20477
4.20324
4.2017
4.20011
4.19858
4.19692
4.19544
4.19365
4.1923
4.19038
4.18913
4.18719
4.18611
4.1837
)
;

boundaryField
{
    upperWall
    {
        type            fixedValue;
        value           uniform 0;
    }
    lowerWall
    {
        type            fixedValue;
        value           uniform 0;
    }
    inlet
    {
        type            fixedValue;
        value           uniform 2e-05;
    }
    outlet
    {
        type            inletOutlet;
        inletValue      uniform 0;
        value           nonuniform List<scalar> 
12
(
4.18894
2.19288
0.517525
0.0441371
0.00115185
1.20153e-05
4.46502e-06
0.000712607
0.0384392
0.5052
2.21189
4.1837
)
;
    }
    frontAndBack
    {
        type            empty;
    }
}


// ************************************************************************* //
