/*--------------------------------*- C++ -*----------------------------------*\
  =========                 |
  \\      /  F ield         | OpenFOAM: The Open Source CFD Toolbox
   \\    /   O peration     | Website:  https://openfoam.org
    \\  /    A nd           | Version:  7
     \\/     M anipulation  |
\*---------------------------------------------------------------------------*/
FoamFile
{
    version     2.0;
    format      ascii;
    class       volVectorField;
    location    "3.9";
    object      U;
}
// * * * * * * * * * * * * * * * * * * * * * * * * * * * * * * * * * * * * * //

dimensions      [0 1 -1 0 0 0 0];

internalField   nonuniform List<vector> 
1800
(
(4.43653 0.128666 0)
(3.84753 0.247076 0)
(3.15944 0.20313 0)
(2.58156 0.119151 0)
(2.1592 0.0507382 0)
(1.88394 0.00902867 0)
(1.70965 -0.0103168 0)
(1.6015 -0.0171771 0)
(1.53384 -0.0174443 0)
(1.48885 -0.0151273 0)
(1.45624 -0.0121419 0)
(1.4304 -0.00941051 0)
(1.40833 -0.00716959 0)
(1.38854 -0.00543976 0)
(1.37034 -0.00415661 0)
(1.35344 -0.00322655 0)
(1.33772 -0.00255808 0)
(1.32307 -0.00209097 0)
(1.30943 -0.00176271 0)
(1.29674 -0.00154242 0)
(1.28492 -0.00139267 0)
(1.27389 -0.00129927 0)
(1.26358 -0.00124191 0)
(1.25386 -0.00122667 0)
(1.24487 -0.00120056 0)
(1.23592 -0.00125605 0)
(1.22871 -0.00129841 0)
(1.21975 -0.00134478 0)
(1.21734 -0.00827484 0)
(1.23975 0.00358493 0)
(4.52861 0.129154 0)
(4.67639 0.275629 0)
(4.73932 0.316214 0)
(4.68525 0.289965 0)
(4.55712 0.232223 0)
(4.40618 0.170302 0)
(4.25672 0.120139 0)
(4.12108 0.0838516 0)
(4.00288 0.0589351 0)
(3.90093 0.0423864 0)
(3.81281 0.0315778 0)
(3.73627 0.0245637 0)
(3.6693 0.0198724 0)
(3.61025 0.0165471 0)
(3.55779 0.0140389 0)
(3.51091 0.0120693 0)
(3.46877 0.0104622 0)
(3.43065 0.00914016 0)
(3.39604 0.0080167 0)
(3.36438 0.00708757 0)
(3.33543 0.00626932 0)
(3.30858 0.00563343 0)
(3.28389 0.00501227 0)
(3.26072 0.00461523 0)
(3.23912 0.00403193 0)
(3.21926 0.00401361 0)
(3.19863 0.00274016 0)
(3.18478 0.00390578 0)
(3.15526 -0.00328139 0)
(3.16743 0.00300342 0)
(4.50433 0.0568861 0)
(4.62759 0.166052 0)
(4.81917 0.213908 0)
(4.99446 0.210522 0)
(5.11748 0.179647 0)
(5.18952 0.140969 0)
(5.22213 0.108951 0)
(5.22842 0.0858883 0)
(5.21904 0.0698837 0)
(5.20075 0.0587207 0)
(5.17727 0.0507109 0)
(5.15073 0.0447543 0)
(5.12231 0.0400312 0)
(5.0928 0.0360494 0)
(5.0628 0.0325378 0)
(5.03264 0.0293999 0)
(5.0027 0.026533 0)
(4.97309 0.023976 0)
(4.94415 0.021618 0)
(4.91581 0.01959 0)
(4.88845 0.0176165 0)
(4.86186 0.0161146 0)
(4.83615 0.0143447 0)
(4.81184 0.013507 0)
(4.78715 0.0114652 0)
(4.76654 0.0118951 0)
(4.7399 0.00809108 0)
(4.72805 0.0117077 0)
(4.68914 0.00163764 0)
(4.70221 0.0166296 0)
(4.50427 0.0465256 0)
(4.59525 0.12555 0)
(4.75497 0.155588 0)
(4.93085 0.154281 0)
(5.08847 0.137477 0)
(5.21607 0.114432 0)
(5.31365 0.0932317 0)
(5.38734 0.0767383 0)
(5.44467 0.0647213 0)
(5.49112 0.0560417 0)
(5.53009 0.0497981 0)
(5.56347 0.0452272 0)
(5.5924 0.0417609 0)
(5.61749 0.0389792 0)
(5.63925 0.0365816 0)
(5.65795 0.0344488 0)
(5.67391 0.0324478 0)
(5.68731 0.0306306 0)
(5.69841 0.0288375 0)
(5.70743 0.0272991 0)
(5.71445 0.0256332 0)
(5.72002 0.0244371 0)
(5.72346 0.0227446 0)
(5.72662 0.0220842 0)
(5.72645 0.0199521 0)
(5.7288 0.0203332 0)
(5.72355 0.0167731 0)
(5.72833 0.0191913 0)
(5.71302 0.0128226 0)
(5.72724 0.0206447 0)
(4.50392 0.0156951 0)
(4.58647 0.05841 0)
(4.73226 0.0772104 0)
(4.89551 0.0774722 0)
(5.0448 0.0672954 0)
(5.17017 0.0527811 0)
(5.27115 0.0394857 0)
(5.35172 0.0297927 0)
(5.41791 0.0230692 0)
(5.47486 0.0186004 0)
(5.52582 0.0157061 0)
(5.57262 0.0138639 0)
(5.61627 0.0126758 0)
(5.65738 0.011865 0)
(5.69632 0.0112232 0)
(5.73335 0.0106874 0)
(5.7686 0.0101971 0)
(5.80218 0.00981081 0)
(5.83417 0.00939988 0)
(5.86468 0.00918405 0)
(5.89377 0.00876468 0)
(5.92151 0.00870628 0)
(5.94794 0.00815246 0)
(5.97313 0.0085305 0)
(5.99716 0.00756584 0)
(6.01989 0.00863554 0)
(6.0416 0.00671459 0)
(6.06169 0.00915404 0)
(6.08175 0.00632837 0)
(6.10006 0.0122881 0)
(4.50359 7.65184e-07 0)
(4.58042 0.0166207 0)
(4.71918 0.0239927 0)
(4.87778 0.0243805 0)
(5.02452 0.0213671 0)
(5.14879 0.0173636 0)
(5.24947 0.0139359 0)
(5.32987 0.0114033 0)
(5.39588 0.00952052 0)
(5.45267 0.00808835 0)
(5.50356 0.00694814 0)
(5.55041 0.0059635 0)
(5.59433 0.00505915 0)
(5.63595 0.00423656 0)
(5.6757 0.00347973 0)
(5.71382 0.00279085 0)
(5.75052 0.0021805 0)
(5.78585 0.00166033 0)
(5.82002 0.00115355 0)
(5.85294 0.000763874 0)
(5.88495 0.000350523 0)
(5.91577 0.000103627 0)
(5.94607 -0.000298976 0)
(5.97493 -0.000309111 0)
(6.00389 -0.000805503 0)
(6.03061 -0.000489786 0)
(6.05885 -0.00123375 0)
(6.08278 -0.00022414 0)
(6.11192 -0.0011747 0)
(6.13344 0.00120289 0)
(4.50361 -0.021065 0)
(4.58047 -0.0383228 0)
(4.71925 -0.0453337 0)
(4.87785 -0.0454167 0)
(5.0246 -0.0420989 0)
(5.14886 -0.0377882 0)
(5.24954 -0.0340814 0)
(5.32994 -0.0312705 0)
(5.39595 -0.0291029 0)
(5.45274 -0.0273888 0)
(5.50362 -0.0259873 0)
(5.55047 -0.024765 0)
(5.59438 -0.0236505 0)
(5.63599 -0.0226307 0)
(5.67574 -0.0216981 0)
(5.71387 -0.0208441 0)
(5.75057 -0.020087 0)
(5.78588 -0.0194116 0)
(5.82002 -0.0187897 0)
(5.85296 -0.01824 0)
(5.885 -0.0176847 0)
(5.91583 -0.0171613 0)
(5.94613 -0.0166447 0)
(5.97499 -0.0161511 0)
(6.00397 -0.0156107 0)
(6.03071 -0.0150535 0)
(6.05895 -0.0144648 0)
(6.0829 -0.0136747 0)
(6.11202 -0.0134382 0)
(6.1335 -0.0124187 0)
(4.50397 -0.0354974 0)
(4.58661 -0.0786192 0)
(4.73245 -0.0970779 0)
(4.89571 -0.0970632 0)
(5.045 -0.0866222 0)
(5.17036 -0.0718485 0)
(5.27134 -0.0582933 0)
(5.3519 -0.0483278 0)
(5.4181 -0.0413262 0)
(5.47504 -0.0365792 0)
(5.52598 -0.0334392 0)
(5.57277 -0.0313805 0)
(5.6164 -0.0300004 0)
(5.6575 -0.0290075 0)
(5.69643 -0.0282008 0)
(5.73346 -0.0275109 0)
(5.76867 -0.026898 0)
(5.80228 -0.0263768 0)
(5.83425 -0.0258031 0)
(5.86481 -0.0253661 0)
(5.89384 -0.0248207 0)
(5.92168 -0.0245395 0)
(5.94805 -0.023905 0)
(5.97346 -0.0238211 0)
(5.99734 -0.0228455 0)
(6.02048 -0.0230559 0)
(6.04204 -0.021317 0)
(6.06293 -0.0218353 0)
(6.08264 -0.0197762 0)
(6.10206 -0.0220304 0)
(4.50443 -0.0635801 0)
(4.59556 -0.142935 0)
(4.75527 -0.17266 0)
(4.93116 -0.171123 0)
(5.08876 -0.154084 0)
(5.21636 -0.130817 0)
(5.31393 -0.109382 0)
(5.38762 -0.0926523 0)
(5.44494 -0.0803927 0)
(5.49137 -0.0714858 0)
(5.5303 -0.0650262 0)
(5.56366 -0.0602659 0)
(5.59254 -0.0566253 0)
(5.61763 -0.0536815 0)
(5.63935 -0.0511319 0)
(5.65806 -0.0488524 0)
(5.67397 -0.0467305 0)
(5.68744 -0.0447729 0)
(5.69846 -0.0428859 0)
(5.70767 -0.0411763 0)
(5.71452 -0.0394227 0)
(5.72046 -0.0379872 0)
(5.72363 -0.0362019 0)
(5.72752 -0.0351516 0)
(5.72683 -0.0329885 0)
(5.73061 -0.0325593 0)
(5.72451 -0.0291623 0)
(5.73191 -0.0298907 0)
(5.71517 -0.0242364 0)
(5.73328 -0.028266 0)
(4.50452 -0.070017 0)
(4.62798 -0.179416 0)
(4.81956 -0.22704 0)
(4.99482 -0.223484 0)
(5.11781 -0.192435 0)
(5.18981 -0.153574 0)
(5.22239 -0.121363 0)
(5.22866 -0.0981054 0)
(5.21925 -0.0819107 0)
(5.20094 -0.0705683 0)
(5.17742 -0.0624008 0)
(5.15084 -0.0562968 0)
(5.1224 -0.0514444 0)
(5.09288 -0.0473349 0)
(5.06285 -0.043709 0)
(5.03271 -0.0404506 0)
(5.00273 -0.0374991 0)
(4.97322 -0.0348295 0)
(4.94422 -0.0323987 0)
(4.91613 -0.0302176 0)
(4.88857 -0.0282042 0)
(4.86255 -0.0264716 0)
(4.83644 -0.0247147 0)
(4.81335 -0.0234752 0)
(4.78776 -0.0215961 0)
(4.76966 -0.0211556 0)
(4.74134 -0.0178996 0)
(4.73422 -0.0195288 0)
(4.69254 -0.0108052 0)
(4.7128 -0.0200081 0)
(4.52892 -0.137457 0)
(4.67687 -0.284034 0)
(4.73968 -0.324461 0)
(4.68556 -0.298111 0)
(4.55739 -0.24027 0)
(4.40642 -0.178238 0)
(4.25693 -0.127953 0)
(4.12128 -0.0915418 0)
(4.00307 -0.0665043 0)
(3.9011 -0.0498397 0)
(3.81295 -0.0389312 0)
(3.73638 -0.0318233 0)
(3.66939 -0.027045 0)
(3.61034 -0.0236383 0)
(3.55787 -0.0210566 0)
(3.51101 -0.0190171 0)
(3.46883 -0.0173574 0)
(3.43082 -0.0159734 0)
(3.39618 -0.0147997 0)
(3.36476 -0.0137876 0)
(3.33568 -0.0129274 0)
(3.30936 -0.0121586 0)
(3.2844 -0.0115255 0)
(3.26236 -0.0109237 0)
(3.24012 -0.0104061 0)
(3.22266 -0.00993123 0)
(3.20066 -0.00896334 0)
(3.19156 -0.00904144 0)
(3.16001 -0.00277269 0)
(3.17918 -0.00573119 0)
(4.43674 -0.131421 0)
(3.84797 -0.24992 0)
(3.15985 -0.205931 0)
(2.58197 -0.121923 0)
(2.1596 -0.0534766 0)
(1.88431 -0.011726 0)
(1.71 0.00765924 0)
(1.60185 0.0145581 0)
(1.53418 0.014862 0)
(1.48917 0.0125764 0)
(1.45654 0.00962514 0)
(1.43067 0.00692605 0)
(1.40857 0.00471709 0)
(1.38877 0.00301646 0)
(1.37055 0.00175942 0)
(1.35365 0.000851124 0)
(1.33791 0.000201215 0)
(1.32331 -0.000247853 0)
(1.30969 -0.000557526 0)
(1.29711 -0.00075742 0)
(1.28529 -0.000891351 0)
(1.27452 -0.000954928 0)
(1.26422 -0.000998183 0)
(1.25504 -0.000981941 0)
(1.24604 -0.000993775 0)
(1.23818 -0.000910564 0)
(1.23091 -0.00082851 0)
(1.22406 -0.000844911 0)
(1.22164 0.00597527 0)
(1.24353 -0.00627114 0)
(1.16279 0.00454218 0)
(1.19177 -0.000547422 0)
(1.1642 -0.000800093 0)
(1.14882 -0.000980701 0)
(1.14025 -0.000870323 0)
(1.13306 -0.000958653 0)
(1.12727 -0.00103283 0)
(1.12331 -0.00104085 0)
(1.12091 -0.00104716 0)
(1.11966 -0.00100661 0)
(1.11928 -0.000977883 0)
(1.11947 -0.000948268 0)
(1.11999 -0.000904546 0)
(1.12073 -0.000857334 0)
(1.12156 -0.000807715 0)
(1.12242 -0.000756547 0)
(1.12328 -0.00070015 0)
(1.12413 -0.000645044 0)
(1.12494 -0.00059118 0)
(1.12572 -0.000536284 0)
(1.12647 -0.000486201 0)
(1.12718 -0.000436408 0)
(1.12788 -0.000387668 0)
(1.12856 -0.000344781 0)
(1.12921 -0.000301442 0)
(1.12985 -0.000263295 0)
(1.13048 -0.000229652 0)
(1.1311 -0.000196311 0)
(1.1317 -0.000166266 0)
(1.1323 -0.000140748 0)
(1.13289 -0.0001164 0)
(1.13347 -9.70818e-05 0)
(1.13405 -8.10176e-05 0)
(1.13461 -6.68073e-05 0)
(1.13517 -5.46081e-05 0)
(1.13572 -4.53906e-05 0)
(1.13626 -3.68135e-05 0)
(1.1368 -2.95321e-05 0)
(1.13733 -2.36975e-05 0)
(1.13785 -1.70712e-05 0)
(1.13837 -1.27027e-05 0)
(1.13889 -9.95669e-06 0)
(1.13939 -5.78672e-06 0)
(1.1399 -3.36864e-06 0)
(1.1404 -2.4132e-06 0)
(1.14089 -1.60114e-06 0)
(1.14137 -6.06609e-07 0)
(1.14185 4.17289e-07 0)
(1.14233 1.33351e-06 0)
(1.1428 1.71187e-06 0)
(1.14327 2.66861e-06 0)
(1.14373 4.04826e-06 0)
(1.14419 4.74139e-06 0)
(1.14465 5.06711e-06 0)
(1.1451 5.37238e-06 0)
(1.14555 5.27252e-06 0)
(1.14599 4.73988e-06 0)
(1.14643 4.14993e-06 0)
(1.14686 3.41535e-06 0)
(1.14729 2.59101e-06 0)
(1.14771 2.61423e-06 0)
(1.14814 3.1928e-06 0)
(1.14855 3.36447e-06 0)
(1.14897 3.82184e-06 0)
(1.14938 4.5445e-06 0)
(1.14979 4.63348e-06 0)
(1.15019 4.59271e-06 0)
(1.15059 4.5941e-06 0)
(1.15099 4.39669e-06 0)
(1.15138 4.4866e-06 0)
(1.15177 4.60184e-06 0)
(1.15216 4.34754e-06 0)
(1.15254 4.31651e-06 0)
(1.15291 4.69811e-06 0)
(1.15329 4.94863e-06 0)
(1.15366 5.02077e-06 0)
(1.15403 5.41614e-06 0)
(1.15439 6.18904e-06 0)
(1.15475 7.04355e-06 0)
(1.15511 7.82359e-06 0)
(1.15546 8.33553e-06 0)
(1.15581 8.7203e-06 0)
(1.15615 9.31121e-06 0)
(1.15649 9.9559e-06 0)
(1.15683 1.05952e-05 0)
(1.15716 1.13088e-05 0)
(1.15749 1.19037e-05 0)
(1.15782 1.26094e-05 0)
(1.15814 1.3765e-05 0)
(1.15845 1.50232e-05 0)
(1.15877 1.61255e-05 0)
(1.15908 1.72419e-05 0)
(1.15938 1.83748e-05 0)
(1.15968 1.95514e-05 0)
(1.15998 2.09519e-05 0)
(1.16028 2.2396e-05 0)
(1.16057 2.36323e-05 0)
(1.16085 2.48951e-05 0)
(1.16114 2.63014e-05 0)
(1.16142 2.75088e-05 0)
(1.16169 2.85171e-05 0)
(1.16196 2.96525e-05 0)
(1.16223 3.10105e-05 0)
(1.16249 3.2534e-05 0)
(1.16275 3.42425e-05 0)
(1.16301 3.59259e-05 0)
(1.16327 3.76369e-05 0)
(1.16352 3.91823e-05 0)
(1.16377 4.07919e-05 0)
(1.16402 4.21734e-05 0)
(1.16426 4.39981e-05 0)
(1.1645 4.50514e-05 0)
(1.16473 4.69e-05 0)
(1.16499 4.72745e-05 0)
(1.16519 4.97355e-05 0)
(1.16546 4.88677e-05 0)
(1.16563 5.32194e-05 0)
(1.16594 5.01865e-05 0)
(1.16604 5.83282e-05 0)
(1.16647 5.34031e-05 0)
(3.02834 -0.000450318 0)
(3.02747 0.000316981 0)
(2.97711 0.00133047 0)
(2.94074 -0.000502858 0)
(2.91967 -0.00121217 0)
(2.90476 -0.00152804 0)
(2.89368 -0.00183836 0)
(2.88637 -0.00215354 0)
(2.88226 -0.00241736 0)
(2.88054 -0.00254627 0)
(2.88049 -0.00260738 0)
(2.88151 -0.00261542 0)
(2.88317 -0.00256558 0)
(2.88519 -0.00246644 0)
(2.88737 -0.00234405 0)
(2.88958 -0.00220375 0)
(2.89174 -0.00204642 0)
(2.89385 -0.00188326 0)
(2.89588 -0.00172127 0)
(2.89783 -0.00155717 0)
(2.89971 -0.00140778 0)
(2.90151 -0.00126278 0)
(2.90326 -0.00111998 0)
(2.90497 -0.000992843 0)
(2.90662 -0.000870411 0)
(2.90825 -0.000753783 0)
(2.90985 -0.000652688 0)
(2.91141 -0.000555136 0)
(2.91296 -0.000469298 0)
(2.91448 -0.000396373 0)
(2.91598 -0.000326913 0)
(2.91747 -0.000270273 0)
(2.91893 -0.000224667 0)
(2.92038 -0.000183588 0)
(2.92181 -0.000148561 0)
(2.92322 -0.000122027 0)
(2.92461 -9.5985e-05 0)
(2.92599 -7.21821e-05 0)
(2.92736 -5.47998e-05 0)
(2.92871 -3.82116e-05 0)
(2.93005 -2.34565e-05 0)
(2.93138 -1.58182e-05 0)
(2.93269 -7.02201e-06 0)
(2.93399 1.51453e-06 0)
(2.93527 4.42427e-06 0)
(2.93654 6.79771e-06 0)
(2.9378 9.08127e-06 0)
(2.93905 1.15115e-05 0)
(2.94028 1.3831e-05 0)
(2.9415 1.46454e-05 0)
(2.94271 1.7115e-05 0)
(2.94391 2.08942e-05 0)
(2.9451 2.27458e-05 0)
(2.94628 2.35364e-05 0)
(2.94745 2.42876e-05 0)
(2.94861 2.38797e-05 0)
(2.94975 2.22005e-05 0)
(2.95089 2.03465e-05 0)
(2.95201 1.80785e-05 0)
(2.95313 1.54971e-05 0)
(2.95423 1.53102e-05 0)
(2.95532 1.67892e-05 0)
(2.95641 1.71027e-05 0)
(2.95748 1.82264e-05 0)
(2.95855 2.01649e-05 0)
(2.9596 2.02625e-05 0)
(2.96065 1.99555e-05 0)
(2.96169 1.97721e-05 0)
(2.96271 1.89859e-05 0)
(2.96373 1.90142e-05 0)
(2.96474 1.91284e-05 0)
(2.96574 1.81383e-05 0)
(2.96673 1.77445e-05 0)
(2.96771 1.85458e-05 0)
(2.96868 1.89637e-05 0)
(2.96964 1.88168e-05 0)
(2.97059 1.95662e-05 0)
(2.97153 2.14038e-05 0)
(2.97247 2.34745e-05 0)
(2.97339 2.53214e-05 0)
(2.97431 2.63655e-05 0)
(2.97521 2.69941e-05 0)
(2.9761 2.81842e-05 0)
(2.97699 2.94962e-05 0)
(2.97786 3.07509e-05 0)
(2.97873 3.21919e-05 0)
(2.97958 3.3254e-05 0)
(2.98043 3.45973e-05 0)
(2.98126 3.72299e-05 0)
(2.98209 4.0147e-05 0)
(2.9829 4.25794e-05 0)
(2.98371 4.50219e-05 0)
(2.9845 4.74777e-05 0)
(2.98529 5.00211e-05 0)
(2.98606 5.32042e-05 0)
(2.98683 5.65137e-05 0)
(2.98758 5.92029e-05 0)
(2.98833 6.19552e-05 0)
(2.98906 6.51147e-05 0)
(2.98979 6.76868e-05 0)
(2.99051 6.96589e-05 0)
(2.99122 7.20045e-05 0)
(2.99192 7.49838e-05 0)
(2.99261 7.84684e-05 0)
(2.99329 8.24633e-05 0)
(2.99396 8.64395e-05 0)
(2.99463 9.04202e-05 0)
(2.99529 9.40416e-05 0)
(2.99593 9.76751e-05 0)
(2.99658 0.000100917 0)
(2.99721 0.000105072 0)
(2.99785 0.000107578 0)
(2.99845 0.000111588 0)
(2.99911 0.000112521 0)
(2.99965 0.00011787 0)
(3.00035 0.000115874 0)
(3.0008 0.000125893 0)
(3.00162 0.000118686 0)
(3.00186 0.000137505 0)
(3.00297 0.000124582 0)
(4.53009 0.0210085 0)
(4.46528 0.00821257 0)
(4.39269 0.00578362 0)
(4.3431 0.00220852 0)
(4.31543 0.000117876 0)
(4.29839 -0.00115086 0)
(4.28726 -0.00213642 0)
(4.2808 -0.00293438 0)
(4.27793 -0.00351827 0)
(4.27762 -0.00387319 0)
(4.27896 -0.00404357 0)
(4.28129 -0.00409392 0)
(4.28417 -0.00403071 0)
(4.28732 -0.00388743 0)
(4.29055 -0.00369782 0)
(4.29374 -0.00347449 0)
(4.29684 -0.0032179 0)
(4.29984 -0.0029544 0)
(4.30273 -0.00269473 0)
(4.30551 -0.00243219 0)
(4.3082 -0.00219391 0)
(4.3108 -0.00196134 0)
(4.31334 -0.00173331 0)
(4.31581 -0.00153133 0)
(4.31823 -0.00133308 0)
(4.32061 -0.00114957 0)
(4.32295 -0.000991677 0)
(4.32525 -0.000837995 0)
(4.32752 -0.000701531 0)
(4.32976 -0.000586011 0)
(4.33197 -0.00047703 0)
(4.33416 -0.000391454 0)
(4.33632 -0.00032012 0)
(4.33845 -0.000251885 0)
(4.34056 -0.000195506 0)
(4.34265 -0.00015368 0)
(4.34471 -0.00011353 0)
(4.34675 -7.55677e-05 0)
(4.34878 -4.78021e-05 0)
(4.35078 -2.32515e-05 0)
(4.35276 -1.56919e-06 0)
(4.35472 1.11495e-05 0)
(4.35666 2.49276e-05 0)
(4.35859 3.7596e-05 0)
(4.36049 4.14513e-05 0)
(4.36238 4.46318e-05 0)
(4.36424 4.76348e-05 0)
(4.36609 5.08853e-05 0)
(4.36792 5.40232e-05 0)
(4.36974 5.48214e-05 0)
(4.37153 5.82263e-05 0)
(4.37331 6.37629e-05 0)
(4.37508 6.62937e-05 0)
(4.37683 6.71493e-05 0)
(4.37856 6.79631e-05 0)
(4.38028 6.69606e-05 0)
(4.38198 6.39368e-05 0)
(4.38366 6.06345e-05 0)
(4.38533 5.669e-05 0)
(4.38699 5.22145e-05 0)
(4.38863 5.14795e-05 0)
(4.39025 5.34271e-05 0)
(4.39186 5.35402e-05 0)
(4.39346 5.49201e-05 0)
(4.39504 5.7628e-05 0)
(4.39661 5.74176e-05 0)
(4.39816 5.65456e-05 0)
(4.3997 5.58732e-05 0)
(4.40123 5.42246e-05 0)
(4.40274 5.38498e-05 0)
(4.40424 5.36203e-05 0)
(4.40573 5.16159e-05 0)
(4.4072 5.05127e-05 0)
(4.40865 5.12962e-05 0)
(4.4101 5.14673e-05 0)
(4.41153 5.07048e-05 0)
(4.41295 5.13255e-05 0)
(4.41435 5.36592e-05 0)
(4.41574 5.63556e-05 0)
(4.41711 5.869e-05 0)
(4.41848 5.97316e-05 0)
(4.41982 6.00745e-05 0)
(4.42116 6.12754e-05 0)
(4.42248 6.2639e-05 0)
(4.42378 6.38737e-05 0)
(4.42507 6.53771e-05 0)
(4.42635 6.62493e-05 0)
(4.42761 6.75315e-05 0)
(4.42886 7.08433e-05 0)
(4.43009 7.45981e-05 0)
(4.43131 7.75634e-05 0)
(4.43252 8.05263e-05 0)
(4.43371 8.35002e-05 0)
(4.43488 8.66016e-05 0)
(4.43604 9.0692e-05 0)
(4.43719 9.49553e-05 0)
(4.43833 9.81976e-05 0)
(4.43945 0.000101511 0)
(4.44055 0.000105449 0)
(4.44165 0.000108438 0)
(4.44273 0.000110445 0)
(4.44379 0.000113042 0)
(4.44484 0.000116622 0)
(4.44588 0.000121025 0)
(4.44691 0.0001262 0)
(4.44793 0.000131401 0)
(4.44893 0.00013652 0)
(4.44992 0.000141199 0)
(4.4509 0.000145698 0)
(4.45188 0.000149864 0)
(4.45282 0.000155053 0)
(4.45379 0.000158279 0)
(4.45469 0.000162932 0)
(4.45568 0.000164116 0)
(4.45651 0.000170273 0)
(4.45756 0.000167724 0)
(4.45825 0.000180146 0)
(4.45947 0.000171413 0)
(4.45985 0.000195207 0)
(4.4615 0.000177774 0)
(5.65717 0.0337784 0)
(5.61162 0.019669 0)
(5.54004 0.0119182 0)
(5.49006 0.00508213 0)
(5.46497 0.00132272 0)
(5.45318 -0.000715983 0)
(5.4483 -0.00224904 0)
(5.44766 -0.00344156 0)
(5.44957 -0.00436372 0)
(5.45287 -0.00489783 0)
(5.45681 -0.00517827 0)
(5.46097 -0.00527356 0)
(5.46514 -0.00521051 0)
(5.46921 -0.00502863 0)
(5.47315 -0.00478009 0)
(5.47693 -0.00449216 0)
(5.48056 -0.00415665 0)
(5.48408 -0.00381304 0)
(5.48747 -0.0034746 0)
(5.49077 -0.00313165 0)
(5.49399 -0.00282046 0)
(5.49713 -0.00251836 0)
(5.50021 -0.00221928 0)
(5.50324 -0.00195439 0)
(5.50622 -0.00169891 0)
(5.50916 -0.0014611 0)
(5.51206 -0.00125554 0)
(5.51492 -0.00105598 0)
(5.51775 -0.000877957 0)
(5.52054 -0.000731529 0)
(5.52331 -0.000593341 0)
(5.52605 -0.000474837 0)
(5.52875 -0.000384526 0)
(5.53143 -0.000294494 0)
(5.53408 -0.000219765 0)
(5.5367 -0.00016567 0)
(5.5393 -0.000117459 0)
(5.54187 -6.77008e-05 0)
(5.54441 -3.20886e-05 0)
(5.54693 -9.44695e-07 0)
(5.54943 2.81336e-05 0)
(5.5519 4.41408e-05 0)
(5.55435 6.2146e-05 0)
(5.55677 7.7378e-05 0)
(5.55917 8.17839e-05 0)
(5.56155 8.53576e-05 0)
(5.56391 8.89211e-05 0)
(5.56624 9.27923e-05 0)
(5.56855 9.64979e-05 0)
(5.57084 9.71675e-05 0)
(5.57311 0.000101232 0)
(5.57536 0.000108086 0)
(5.57759 0.000111042 0)
(5.5798 0.00011182 0)
(5.58199 0.000112555 0)
(5.58415 0.000110938 0)
(5.5863 0.000106686 0)
(5.58843 0.000102072 0)
(5.59055 9.66318e-05 0)
(5.59264 9.04909e-05 0)
(5.59471 8.92128e-05 0)
(5.59676 9.14499e-05 0)
(5.5988 9.12929e-05 0)
(5.60082 9.27751e-05 0)
(5.60282 9.60033e-05 0)
(5.60481 9.54237e-05 0)
(5.60677 9.39688e-05 0)
(5.60872 9.27753e-05 0)
(5.61065 9.02981e-05 0)
(5.61257 8.94695e-05 0)
(5.61446 8.88285e-05 0)
(5.61634 8.58554e-05 0)
(5.61821 8.40298e-05 0)
(5.62005 8.46518e-05 0)
(5.62188 8.44632e-05 0)
(5.62369 8.3029e-05 0)
(5.62549 8.33703e-05 0)
(5.62727 8.59245e-05 0)
(5.62903 8.89315e-05 0)
(5.63077 9.14515e-05 0)
(5.6325 9.22651e-05 0)
(5.63421 9.21333e-05 0)
(5.6359 9.30879e-05 0)
(5.63758 9.42229e-05 0)
(5.63924 9.51515e-05 0)
(5.64088 9.6398e-05 0)
(5.6425 9.6787e-05 0)
(5.64411 9.76698e-05 0)
(5.6457 0.000101169 0)
(5.64727 0.00010522 0)
(5.64883 0.000108207 0)
(5.65037 0.000111154 0)
(5.65189 0.000114073 0)
(5.65339 0.000117106 0)
(5.65488 0.000121412 0)
(5.65635 0.000125945 0)
(5.6578 0.000129136 0)
(5.65924 0.00013241 0)
(5.66065 0.00013649 0)
(5.66206 0.000139329 0)
(5.66344 0.00014087 0)
(5.66482 0.000143189 0)
(5.66617 0.000146768 0)
(5.66751 0.00015145 0)
(5.66883 0.000157095 0)
(5.67014 0.000162852 0)
(5.67143 0.000168394 0)
(5.67272 0.000173543 0)
(5.67398 0.000178205 0)
(5.67525 0.000182844 0)
(5.67647 0.000188242 0)
(5.67773 0.000191992 0)
(5.67889 0.000196337 0)
(5.68017 0.000198098 0)
(5.68125 0.000203542 0)
(5.68261 0.000201935 0)
(5.6835 0.000213053 0)
(5.68508 0.000207121 0)
(5.68559 0.000228116 0)
(5.6877 0.000213191 0)
(6.1638 0.0289399 0)
(6.3041 0.0244542 0)
(6.34385 0.0173726 0)
(6.3471 0.008884 0)
(6.35013 0.00270946 0)
(6.35751 -0.00091498 0)
(6.36736 -0.00319734 0)
(6.37771 -0.0046907 0)
(6.38718 -0.0056537 0)
(6.39524 -0.00612993 0)
(6.40187 -0.00631909 0)
(6.40735 -0.00632378 0)
(6.412 -0.00615899 0)
(6.41612 -0.00589164 0)
(6.41989 -0.00557672 0)
(6.42346 -0.00520604 0)
(6.42691 -0.0048021 0)
(6.43031 -0.00439326 0)
(6.43367 -0.00399377 0)
(6.43701 -0.00359213 0)
(6.44034 -0.00323051 0)
(6.44364 -0.00287973 0)
(6.44694 -0.00253238 0)
(6.45022 -0.00222622 0)
(6.45347 -0.00193006 0)
(6.45671 -0.0016522 0)
(6.45992 -0.00141339 0)
(6.46311 -0.00118226 0)
(6.46627 -0.000978588 0)
(6.46941 -0.000808363 0)
(6.47251 -0.000644196 0)
(6.4756 -0.000507702 0)
(6.47865 -0.000399613 0)
(6.48167 -0.000299296 0)
(6.48467 -0.000213271 0)
(6.48764 -0.000151982 0)
(6.49058 -9.61893e-05 0)
(6.4935 -3.87533e-05 0)
(6.49638 1.43859e-06 0)
(6.49925 3.87673e-05 0)
(6.50209 7.38183e-05 0)
(6.5049 9.16557e-05 0)
(6.50769 0.000110654 0)
(6.51045 0.000127939 0)
(6.51319 0.000132581 0)
(6.5159 0.000136295 0)
(6.51859 0.000139909 0)
(6.52125 0.000143829 0)
(6.52389 0.000147594 0)
(6.52651 0.000147883 0)
(6.5291 0.000152145 0)
(6.53167 0.000159684 0)
(6.53422 0.000162717 0)
(6.53675 0.000163228 0)
(6.53925 0.000163704 0)
(6.54174 0.000161458 0)
(6.5442 0.000156137 0)
(6.54664 0.000150388 0)
(6.54905 0.000143683 0)
(6.55145 0.000136142 0)
(6.55382 0.000134259 0)
(6.55618 0.0001365 0)
(6.55851 0.000135949 0)
(6.56082 0.000137297 0)
(6.56312 0.0001407 0)
(6.56539 0.000139664 0)
(6.56764 0.000137594 0)
(6.56988 0.00013583 0)
(6.57209 0.000132555 0)
(6.57429 0.000131192 0)
(6.57646 0.000130052 0)
(6.57862 0.000126175 0)
(6.58075 0.000123606 0)
(6.58287 0.000123882 0)
(6.58497 0.000123202 0)
(6.58705 0.00012104 0)
(6.58911 0.000120918 0)
(6.59115 0.000123359 0)
(6.59317 0.000126311 0)
(6.59518 0.000128683 0)
(6.59716 0.000129049 0)
(6.59913 0.000128279 0)
(6.60108 0.000128745 0)
(6.60301 0.000129391 0)
(6.60492 0.000129759 0)
(6.60681 0.00013047 0)
(6.60868 0.000130153 0)
(6.61054 0.000130377 0)
(6.61237 0.000133631 0)
(6.61419 0.000137517 0)
(6.61599 0.000140143 0)
(6.61777 0.000142709 0)
(6.61953 0.000145244 0)
(6.62127 0.000147925 0)
(6.623 0.000152047 0)
(6.6247 0.000156376 0)
(6.62639 0.000159081 0)
(6.62807 0.000161837 0)
(6.62972 0.000165492 0)
(6.63136 0.00016767 0)
(6.63298 0.000168287 0)
(6.63458 0.000169795 0)
(6.63617 0.000172729 0)
(6.63774 0.000176953 0)
(6.63929 0.000182238 0)
(6.64083 0.000187693 0)
(6.64235 0.000192785 0)
(6.64386 0.000197531 0)
(6.64535 0.000201484 0)
(6.64684 0.000205685 0)
(6.64828 0.000210291 0)
(6.64977 0.000213667 0)
(6.65115 0.000216541 0)
(6.65266 0.000218223 0)
(6.65394 0.000221113 0)
(6.65554 0.000220647 0)
(6.65661 0.000227707 0)
(6.65847 0.000226043 0)
(6.65909 0.000240136 0)
(6.66158 0.000233739 0)
(6.22759 0.00253332 0)
(6.47191 0.00380282 0)
(6.65297 0.00364561 0)
(6.78438 0.00172513 0)
(6.87782 -0.00108774 0)
(6.9398 -0.00351496 0)
(6.97842 -0.00525578 0)
(7.00149 -0.00632489 0)
(7.01475 -0.00691069 0)
(7.02208 -0.00711123 0)
(7.02601 -0.00703876 0)
(7.02819 -0.00688108 0)
(7.02959 -0.00660291 0)
(7.0308 -0.00627017 0)
(7.03213 -0.00590497 0)
(7.03372 -0.00551073 0)
(7.0356 -0.0050811 0)
(7.03778 -0.00465037 0)
(7.04021 -0.00423234 0)
(7.04285 -0.00381181 0)
(7.04565 -0.00343196 0)
(7.04857 -0.00305865 0)
(7.05159 -0.00269049 0)
(7.05466 -0.00236505 0)
(7.05777 -0.00204624 0)
(7.0609 -0.00174998 0)
(7.06404 -0.00149712 0)
(7.06718 -0.0012511 0)
(7.0703 -0.00103678 0)
(7.07342 -0.000845149 0)
(7.07651 -0.000665274 0)
(7.07959 -0.000524252 0)
(7.08265 -0.000407165 0)
(7.08569 -0.000300962 0)
(7.0887 -0.000211023 0)
(7.09169 -0.000143216 0)
(7.09466 -8.16933e-05 0)
(7.0976 -2.13633e-05 0)
(7.10053 2.23195e-05 0)
(7.10343 6.41792e-05 0)
(7.1063 0.000100878 0)
(7.10916 0.000120191 0)
(7.11199 0.000141211 0)
(7.1148 0.000159714 0)
(7.11758 0.000164629 0)
(7.12035 0.000168589 0)
(7.12309 0.0001725 0)
(7.12581 0.000176692 0)
(7.1285 0.00018067 0)
(7.13118 0.000180912 0)
(7.13383 0.000185393 0)
(7.13646 0.000193375 0)
(7.13907 0.000196518 0)
(7.14166 0.000196947 0)
(7.14423 0.000197345 0)
(7.14677 0.000194823 0)
(7.14929 0.000188985 0)
(7.1518 0.000182672 0)
(7.15428 0.000175324 0)
(7.15674 0.000167053 0)
(7.15918 0.000164852 0)
(7.1616 0.000167104 0)
(7.16399 0.000166349 0)
(7.16637 0.00016762 0)
(7.16873 0.000171119 0)
(7.17107 0.000169846 0)
(7.17339 0.000167451 0)
(7.17568 0.000165385 0)
(7.17796 0.000161677 0)
(7.18022 0.000160015 0)
(7.18246 0.000158597 0)
(7.18468 0.000154215 0)
(7.18688 0.000151214 0)
(7.18906 0.000151264 0)
(7.19122 0.000150279 0)
(7.19337 0.00014767 0)
(7.19549 0.000147225 0)
(7.1976 0.000149518 0)
(7.19968 0.000152344 0)
(7.20175 0.000154532 0)
(7.20381 0.00015454 0)
(7.20584 0.000153285 0)
(7.20785 0.000153319 0)
(7.20985 0.000153504 0)
(7.21183 0.000153344 0)
(7.21379 0.000153511 0)
(7.21574 0.000152522 0)
(7.21766 0.000152057 0)
(7.21958 0.000154803 0)
(7.22147 0.000158179 0)
(7.22335 0.000160136 0)
(7.22521 0.000161957 0)
(7.22705 0.000163646 0)
(7.22888 0.000165356 0)
(7.23069 0.000168605 0)
(7.23248 0.000172099 0)
(7.23426 0.000173846 0)
(7.23603 0.000175634 0)
(7.23778 0.000178384 0)
(7.23951 0.000179525 0)
(7.24123 0.000178974 0)
(7.24293 0.000179364 0)
(7.24462 0.000181283 0)
(7.24629 0.00018457 0)
(7.24795 0.000189 0)
(7.2496 0.000193604 0)
(7.25123 0.000197806 0)
(7.25285 0.000201663 0)
(7.25445 0.000204602 0)
(7.25606 0.000207947 0)
(7.25762 0.000211478 0)
(7.25922 0.00021419 0)
(7.26072 0.00021552 0)
(7.26236 0.000217074 0)
(7.26375 0.000217464 0)
(7.26549 0.000218317 0)
(7.26667 0.000220634 0)
(7.26869 0.000223763 0)
(7.26938 0.000228991 0)
(7.27208 0.000233646 0)
(6.22732 -0.0212686 0)
(6.47217 -0.0170925 0)
(6.65389 -0.0186391 0)
(6.78609 -0.0176276 0)
(6.87967 -0.0148562 0)
(6.94125 -0.012267 0)
(6.97915 -0.010213 0)
(7.00132 -0.0087873 0)
(7.01362 -0.00792517 0)
(7.02 -0.00733706 0)
(7.02301 -0.00688929 0)
(7.02428 -0.00656602 0)
(7.02481 -0.00626022 0)
(7.02517 -0.00595152 0)
(7.02566 -0.00563132 0)
(7.02642 -0.00529422 0)
(7.0275 -0.00491343 0)
(7.02889 -0.00452623 0)
(7.03056 -0.00414378 0)
(7.03246 -0.00375037 0)
(7.03454 -0.00339031 0)
(7.03677 -0.00303616 0)
(7.0391 -0.00267888 0)
(7.04152 -0.00235705 0)
(7.044 -0.00204621 0)
(7.04652 -0.00175252 0)
(7.04906 -0.00149963 0)
(7.05163 -0.00125157 0)
(7.0542 -0.00103601 0)
(7.05677 -0.000842503 0)
(7.05935 -0.000665322 0)
(7.06192 -0.000520833 0)
(7.06448 -0.000405212 0)
(7.06704 -0.000297378 0)
(7.06958 -0.000206912 0)
(7.07212 -0.000137203 0)
(7.07465 -7.51714e-05 0)
(7.07716 -1.30142e-05 0)
(7.07966 3.20871e-05 0)
(7.08215 7.32424e-05 0)
(7.08462 0.000110483 0)
(7.08708 0.000129729 0)
(7.08953 0.000150176 0)
(7.09196 0.000168572 0)
(7.09437 0.000173625 0)
(7.09677 0.000177857 0)
(7.09915 0.000182016 0)
(7.10152 0.000186326 0)
(7.10387 0.000190396 0)
(7.10621 0.000190753 0)
(7.10853 0.000195339 0)
(7.11083 0.000203417 0)
(7.11311 0.000206651 0)
(7.11538 0.000207166 0)
(7.11763 0.000207652 0)
(7.11987 0.000205211 0)
(7.12209 0.000199426 0)
(7.12429 0.000193142 0)
(7.12647 0.000185804 0)
(7.12864 0.000177504 0)
(7.13079 0.000175272 0)
(7.13292 0.000177515 0)
(7.13503 0.000176731 0)
(7.13713 0.000177962 0)
(7.13922 0.000181437 0)
(7.14128 0.000180123 0)
(7.14333 0.000177669 0)
(7.14536 0.00017554 0)
(7.14738 0.000171743 0)
(7.14938 0.000169981 0)
(7.15136 0.000168461 0)
(7.15333 0.000163943 0)
(7.15528 0.000160777 0)
(7.15721 0.00016066 0)
(7.15913 0.00015949 0)
(7.16104 0.000156659 0)
(7.16293 0.000155964 0)
(7.1648 0.000157991 0)
(7.16666 0.00016053 0)
(7.16851 0.00016241 0)
(7.17034 0.000162078 0)
(7.17216 0.000160438 0)
(7.17396 0.000160049 0)
(7.17575 0.000159773 0)
(7.17753 0.000159105 0)
(7.17929 0.000158731 0)
(7.18104 0.000157161 0)
(7.18278 0.000156072 0)
(7.18451 0.000158172 0)
(7.18623 0.000160874 0)
(7.18793 0.000162119 0)
(7.18962 0.000163197 0)
(7.1913 0.00016412 0)
(7.19297 0.000165047 0)
(7.19463 0.000167491 0)
(7.19627 0.000170143 0)
(7.19791 0.000171008 0)
(7.19954 0.000171877 0)
(7.20116 0.000173691 0)
(7.20276 0.000173858 0)
(7.20436 0.000172315 0)
(7.20595 0.000171681 0)
(7.20752 0.00017259 0)
(7.20909 0.000174822 0)
(7.21065 0.000178235 0)
(7.2122 0.00018176 0)
(7.21374 0.000184949 0)
(7.21528 0.00018772 0)
(7.2168 0.000189648 0)
(7.21833 0.000191948 0)
(7.21982 0.000194437 0)
(7.22135 0.000196281 0)
(7.22279 0.000196388 0)
(7.22436 0.000197556 0)
(7.22571 0.000196124 0)
(7.22739 0.00019773 0)
(7.22852 0.000196113 0)
(7.23049 0.000202719 0)
(7.23115 0.00020008 0)
(7.23379 0.000214376 0)
(6.16299 -0.046554 0)
(6.3069 -0.0365446 0)
(6.34782 -0.0313686 0)
(6.35086 -0.023666 0)
(6.35238 -0.0175253 0)
(6.35789 -0.0138179 0)
(6.36586 -0.0113009 0)
(6.37428 -0.00950711 0)
(6.38186 -0.00827922 0)
(6.38804 -0.00737587 0)
(6.39281 -0.00676138 0)
(6.39647 -0.00630568 0)
(6.39934 -0.00590931 0)
(6.40169 -0.00556948 0)
(6.40372 -0.00525862 0)
(6.40559 -0.00492879 0)
(6.40738 -0.00457549 0)
(6.40915 -0.00421918 0)
(6.41094 -0.00386834 0)
(6.41274 -0.00350713 0)
(6.41458 -0.00317792 0)
(6.41646 -0.00284937 0)
(6.41836 -0.00251834 0)
(6.4203 -0.00222375 0)
(6.42226 -0.00193185 0)
(6.42423 -0.00165743 0)
(6.42623 -0.00142037 0)
(6.42823 -0.0011897 0)
(6.43025 -0.000982382 0)
(6.43228 -0.000807794 0)
(6.4343 -0.000639258 0)
(6.43633 -0.000505383 0)
(6.43837 -0.000395453 0)
(6.4404 -0.00029326 0)
(6.44243 -0.000205671 0)
(6.44446 -0.000141832 0)
(6.44649 -8.35875e-05 0)
(6.44851 -2.46495e-05 0)
(6.45052 1.7968e-05 0)
(6.45253 5.76389e-05 0)
(6.45452 9.26241e-05 0)
(6.45652 0.000110848 0)
(6.4585 0.000130331 0)
(6.46047 0.000147897 0)
(6.46243 0.000152861 0)
(6.46439 0.000157113 0)
(6.46633 0.000161364 0)