/*--------------------------------*- C++ -*----------------------------------*\
  =========                 |
  \\      /  F ield         | OpenFOAM: The Open Source CFD Toolbox
   \\    /   O peration     | Website:  https://openfoam.org
    \\  /    A nd           | Version:  7
     \\/     M anipulation  |
\*---------------------------------------------------------------------------*/
FoamFile
{
    version     2.0;
    format      ascii;
    class       volScalarField;
    location    "2.15";
    object      alphat;
}
// * * * * * * * * * * * * * * * * * * * * * * * * * * * * * * * * * * * * * //

dimensions      [1 -1 -1 0 0 0 0];

internalField   nonuniform List<scalar> 
7920
(
0.0939638
0.0930695
0.0933124
0.0933047
0.0933344
0.0933184
0.0933248
0.0933136
0.0933119
0.0933029
0.0932965
0.0932875
0.0932764
0.0932654
0.0932466
0.0932301
0.0931959
0.0931636
0.0931054
0.0930626
0.0511222
0.0461212
0.0457832
0.0459297
0.0458214
0.0458665
0.0458281
0.0458424
0.0458275
0.0458316
0.0458255
0.0458253
0.0458236
0.0458202
0.0458232
0.0458142
0.045828
0.0458038
0.0458556
0.0457888
0.046914
0.0405151
0.0400397
0.040157
0.0400511
0.0400913
0.0400544
0.0400677
0.0400536
0.0400577
0.0400525
0.0400525
0.0400515
0.0400483
0.0400516
0.0400427
0.0400548
0.0400328
0.0400626
0.0399051
0.0471029
0.0408475
0.040383
0.0404844
0.0403856
0.0404188
0.0403846
0.0403958
0.0403832
0.0403867
0.040382
0.0403819
0.0403813
0.0403777
0.0403815
0.0403719
0.0403838
0.0403634
0.0403867
0.0402061
0.0469324
0.0406108
0.0401411
0.0402414
0.0401371
0.0401692
0.0401339
0.0401451
0.0401323
0.0401359
0.0401311
0.040131
0.0401303
0.0401265
0.0401301
0.0401203
0.0401312
0.0401116
0.0401282
0.0399224
0.0470219
0.0407312
0.0402744
0.0403662
0.0402726
0.0403024
0.0402696
0.0402802
0.040268
0.0402714
0.0402668
0.0402666
0.0402658
0.040262
0.040265
0.0402554
0.0402647
0.0402465
0.0402593
0.0400499
0.0470219
0.0407312
0.0402744
0.0403662
0.0402726
0.0403024
0.0402696
0.0402802
0.040268
0.0402714
0.0402668
0.0402666
0.0402658
0.040262
0.040265
0.0402555
0.0402646
0.0402466
0.0402589
0.0400505
0.0469324
0.0406108
0.0401411
0.0402413
0.0401371
0.0401692
0.0401339
0.0401451
0.0401323
0.0401359
0.0401311
0.040131
0.0401303
0.0401266
0.0401301
0.0401204
0.0401311
0.0401119
0.0401272
0.0399241
0.0471029
0.0408475
0.040383
0.0404844
0.0403856
0.0404188
0.0403846
0.0403958
0.0403832
0.0403867
0.040382
0.0403819
0.0403813
0.0403777
0.0403815
0.040372
0.0403837
0.040364
0.0403851
0.0402089
0.046914
0.0405151
0.0400397
0.0401571
0.0400511
0.0400912
0.0400544
0.0400677
0.0400536
0.0400577
0.0400525
0.0400525
0.0400515
0.0400483
0.0400516
0.0400428
0.0400547
0.0400333
0.0400609
0.0399091
0.0511221
0.0461211
0.0457832
0.0459297
0.0458214
0.0458665
0.0458281
0.0458424
0.0458275
0.0458316
0.0458255
0.0458253
0.0458236
0.0458202
0.0458232
0.0458142
0.045828
0.045804
0.0458552
0.0457913
0.0939639
0.0930695
0.0933123
0.0933047
0.0933344
0.0933184
0.0933248
0.0933136
0.0933119
0.0933029
0.0932966
0.0932875
0.0932764
0.0932654
0.0932466
0.0932301
0.0931961
0.0931632
0.0931068
0.0930516
0.0370966
0.0370076
0.0375137
0.0373129
0.0374654
0.0373789
0.0374367
0.0373989
0.03742
0.0374017
0.0374064
0.0373956
0.0373908
0.0373821
0.0373684
0.0373588
0.0373314
0.0373182
0.0372777
0.0373441
0.0368292
0.0391999
0.0390299
0.0393172
0.0392288
0.0392755
0.0392487
0.0392555
0.0392483
0.0392479
0.0392468
0.0392449
0.0392484
0.0392454
0.0392601
0.0392541
0.0393036
0.0392909
0.0394698
0.0394586
0.035335
0.0383817
0.0381321
0.0387057
0.0385342
0.0386418
0.0385877
0.0386115
0.0385961
0.0386022
0.0386004
0.0386016
0.0386099
0.0386088
0.0386384
0.038633
0.0387257
0.038711
0.0389824
0.0388613
0.0361877
0.0391411
0.039263
0.0397099
0.0396994
0.0397858
0.0397776
0.039799
0.0397984
0.0398055
0.0398077
0.0398098
0.039815
0.0398143
0.0398299
0.0398252
0.0398774
0.0398639
0.0400546
0.0399059
0.035701
0.0386304
0.0389351
0.0393556
0.0394286
0.0395116
0.0395302
0.0395525
0.039562
0.0395704
0.0395758
0.0395788
0.0395827
0.0395827
0.0395905
0.0395869
0.0396167
0.0396014
0.0397384
0.0395663
0.0358848
0.0387977
0.0391898
0.0395851
0.0396734
0.0397605
0.0397886
0.0398135
0.039827
0.0398368
0.039844
0.039848
0.0398521
0.039853
0.039859
0.0398566
0.0398815
0.0398654
0.0399913
0.0398153
0.0358849
0.0387977
0.0391898
0.0395851
0.0396734
0.0397605
0.0397886
0.0398135
0.039827
0.0398368
0.039844
0.039848
0.0398521
0.039853
0.039859
0.0398567
0.0398815
0.0398653
0.0399914
0.0398144
0.0357011
0.0386303
0.0389351
0.0393556
0.0394286
0.0395116
0.0395302
0.0395525
0.039562
0.0395704
0.0395758
0.0395788
0.0395827
0.0395828
0.0395905
0.039587
0.0396167
0.039601
0.0397393
0.0395629
0.0361877
0.039141
0.039263
0.0397099
0.0396994
0.0397858
0.0397776
0.039799
0.0397984
0.0398055
0.0398077
0.0398098
0.039815
0.0398143
0.0398299
0.0398253
0.0398774
0.0398634
0.0400561
0.0398989
0.0353349
0.0383817
0.0381321
0.0387057
0.0385342
0.0386418
0.0385877
0.0386115
0.0385961
0.0386022
0.0386004
0.0386016
0.0386099
0.0386088
0.0386383
0.038633
0.0387258
0.0387104
0.0389849
0.0388508
0.0368291
0.0391999
0.03903
0.0393172
0.0392288
0.0392755
0.0392487
0.0392555
0.0392483
0.0392479
0.0392468
0.0392449
0.0392484
0.0392454
0.0392601
0.0392541
0.0393036
0.0392906
0.0394714
0.0394551
0.0370966
0.0370076
0.0375137
0.0373129
0.0374654
0.0373789
0.0374367
0.0373989
0.03742
0.0374017
0.0374064
0.0373956
0.0373908
0.0373821
0.0373684
0.0373588
0.0373314
0.0373182
0.0372779
0.0373454
0.00851847
0.00902027
0.00917205
0.00910797
0.00917207
0.00912951
0.00916165
0.0091405
0.00915494
0.00914425
0.00914954
0.00914319
0.00914381
0.00913889
0.009137
0.00913261
0.00913019
0.00912529
0.00913449
0.0091978
0.0089805
0.0112645
0.0110123
0.0109748
0.0110261
0.0109233
0.0109793
0.010915
0.0109441
0.0109093
0.0109196
0.0108999
0.0109019
0.0108883
0.0108952
0.0108835
0.0109252
0.0109104
0.0110605
0.011071
0.00811374
0.00967954
0.00938177
0.00943541
0.00944415
0.00945816
0.00947085
0.00947161
0.00947899
0.00947831
0.00948226
0.00948092
0.00948381
0.00948204
0.00948765
0.00948512
0.00950295
0.00950117
0.00955157
0.00960282
0.00814274
0.0109819
0.0105452
0.0105497
0.0106316
0.0104889
0.0105686
0.0104781
0.0105163
0.0104698
0.0104835
0.010457
0.0104601
0.0104408
0.0104542
0.0104399
0.0105115
0.0104984
0.0107637
0.0107295
0.00807659
0.0103238
0.00981779
0.00974753
0.00984094
0.0096677
0.00975826
0.00965623
0.00970218
0.00964718
0.00966225
0.00963072
0.00963194
0.00960852
0.0096191
0.00960315
0.00967524
0.00966168
0.00994834
0.00990733
0.00810096
0.0105612
0.0101023
0.0100677
0.0101659
0.0100103
0.0100972
0.0100044
0.0100481
0.00999847
0.0100133
0.00998499
0.0099869
0.0099657
0.00997669
0.00996294
0.0100327
0.0100224
0.0103006
0.0102554
0.00810096
0.0105612
0.0101023
0.0100677
0.0101659
0.0100103
0.0100972
0.0100044
0.0100481
0.00999847
0.0100133
0.00998499
0.00998689
0.00996569
0.00997665
0.00996294
0.0100326
0.0100224
0.0103002
0.0102552
0.0080766
0.0103238
0.00981778
0.00974751
0.00984094
0.0096677
0.00975826
0.00965623
0.00970218
0.00964718
0.00966225
0.00963072
0.00963193
0.00960854
0.00961909
0.00960324
0.00967525
0.00966188
0.00994887
0.00990716
0.00814274
0.0109819
0.0105452
0.0105497
0.0106316
0.0104889
0.0105686
0.0104781
0.0105163
0.0104698
0.0104835
0.010457
0.01046
0.0104409
0.0104541
0.01044
0.0105114
0.0104986
0.0107641
0.0107291
0.00811373
0.00967953
0.00938177
0.00943541
0.00944414
0.00945816
0.00947086
0.00947161
0.00947898
0.00947831
0.00948226
0.00948092
0.0094838
0.00948205
0.0094876
0.00948519
0.00950276
0.00950129
0.0095515
0.00960177
0.00898049
0.0112645
0.0110123
0.0109748
0.0110261
0.0109234
0.0109793
0.010915
0.0109441
0.0109093
0.0109196
0.0108999
0.0109019
0.0108883
0.0108952
0.0108835
0.0109251
0.0109105
0.011061
0.0110722
0.00851848
0.00902026
0.00917204
0.00910798
0.00917208
0.00912951
0.00916164
0.0091405
0.00915494
0.00914425
0.00914953
0.00914319
0.0091438
0.00913889
0.00913698
0.00913262
0.00913011
0.00912529
0.00913444
0.00919877
0.00851847
0.00902028
0.00917204
0.00910797
0.00917207
0.00912951
0.00916165
0.0091405
0.00915493
0.00914425
0.00914954
0.00914319
0.0091438
0.00913889
0.009137
0.00913261
0.00913019
0.00912529
0.00913449
0.0091978
0.00898049
0.0112645
0.0110123
0.0109748
0.0110261
0.0109233
0.0109793
0.010915
0.0109441
0.0109093
0.0109196
0.0108999
0.0109019
0.0108883
0.0108952
0.0108835
0.0109252
0.0109104
0.0110605
0.011071
0.00811374
0.00967953
0.00938177
0.00943541
0.00944415
0.00945815
0.00947085
0.00947161
0.00947899
0.00947831
0.00948226
0.00948092
0.00948381
0.00948204
0.00948765
0.00948511
0.00950295
0.00950117
0.00955157
0.00960282
0.00814274
0.0109818
0.0105452
0.0105497
0.0106316
0.0104889
0.0105686
0.0104781
0.0105163
0.0104698
0.0104835
0.010457
0.0104601
0.0104408
0.0104542
0.0104399
0.0105115
0.0104984
0.0107637
0.0107295
0.00807659
0.0103238
0.00981777
0.00974753
0.00984095
0.0096677
0.00975826
0.00965623
0.00970218
0.00964718
0.00966225
0.00963072
0.00963194
0.00960852
0.0096191
0.00960315
0.00967524
0.00966168
0.00994834
0.00990733
0.00810096
0.0105612
0.0101023
0.0100677
0.0101659
0.0100103
0.0100972
0.0100044
0.0100481
0.00999847
0.0100133
0.00998499
0.0099869
0.0099657
0.00997669
0.00996294
0.0100327
0.0100224
0.0103006
0.0102554
0.00810096
0.0105612
0.0101023
0.0100677
0.0101659
0.0100103
0.0100972
0.0100044
0.0100481
0.00999847
0.0100133
0.00998499
0.00998689
0.00996569
0.00997665
0.00996295
0.0100326
0.0100224
0.0103002
0.0102552
0.0080766
0.0103238
0.00981778
0.00974752
0.00984094
0.0096677
0.00975826
0.00965623
0.00970218
0.00964718
0.00966225
0.00963072
0.00963193
0.00960854
0.00961908
0.00960324
0.00967525
0.00966188
0.00994887
0.00990716
0.00814274
0.0109818
0.0105452
0.0105497
0.0106316
0.0104889
0.0105686
0.0104781
0.0105163
0.0104698
0.0104835
0.010457
0.0104601
0.0104409
0.0104541
0.01044
0.0105114
0.0104986
0.0107641
0.0107291
0.00811373
0.00967953
0.00938177
0.00943541
0.00944414
0.00945816
0.00947086
0.00947161
0.00947898
0.00947831
0.00948226
0.00948092
0.0094838
0.00948205
0.0094876
0.00948519
0.00950276
0.00950129
0.0095515
0.00960177
0.00898049
0.0112645
0.0110123
0.0109748
0.0110261
0.0109234
0.0109793
0.010915
0.0109441
0.0109093
0.0109196
0.0108999
0.0109019
0.0108883
0.0108952
0.0108835
0.0109251
0.0109105
0.011061
0.0110722
0.00851847
0.00902026
0.00917204
0.00910798
0.00917208
0.00912951
0.00916164
0.0091405
0.00915494
0.00914425
0.00914954
0.00914319
0.0091438
0.00913889
0.00913698
0.00913262
0.00913012
0.00912529
0.00913444
0.00919877
0.0370966
0.0370076
0.0375137
0.0373129
0.0374654
0.0373789
0.0374367
0.0373989
0.03742
0.0374017
0.0374064
0.0373956
0.0373908
0.0373821
0.0373684
0.0373588
0.0373314
0.0373182
0.0372777
0.0373441
0.0368292
0.0391999
0.0390299
0.0393172
0.0392288
0.0392755
0.0392487
0.0392555
0.0392483
0.0392479
0.0392468
0.0392449
0.0392484
0.0392454
0.0392601
0.0392541
0.0393036
0.0392909
0.0394698
0.0394586
0.0353349
0.0383817
0.0381321
0.0387057
0.0385342
0.0386418
0.0385877
0.0386115
0.0385961
0.0386022
0.0386004
0.0386016
0.0386099
0.0386088
0.0386384
0.038633
0.0387257
0.038711
0.0389824
0.0388613
0.0361877
0.039141
0.039263
0.0397099
0.0396994
0.0397858
0.0397775
0.039799
0.0397984
0.0398055
0.0398077
0.0398098
0.039815
0.0398143
0.0398299
0.0398252
0.0398774
0.0398639
0.0400546
0.0399059
0.0357011
0.0386304
0.0389351
0.0393556
0.0394286
0.0395116
0.0395302
0.0395525
0.039562
0.0395704
0.0395759
0.0395788
0.0395827
0.0395827
0.0395905
0.0395869
0.0396167
0.0396014
0.0397384
0.0395663
0.0358848
0.0387978
0.0391898
0.0395851
0.0396734
0.0397605
0.0397886
0.0398135
0.039827
0.0398368
0.0398441
0.039848
0.0398521
0.039853
0.039859
0.0398566
0.0398815
0.0398654
0.0399913
0.0398153
0.0358848
0.0387978
0.0391898
0.0395851
0.0396734
0.0397605
0.0397886
0.0398135
0.039827
0.0398368
0.039844
0.039848
0.0398521
0.039853
0.039859
0.0398567
0.0398815
0.0398653
0.0399914
0.0398144
0.0357011
0.0386303
0.0389351
0.0393556
0.0394286
0.0395116
0.0395302
0.0395525
0.039562
0.0395704
0.0395758
0.0395788
0.0395827
0.0395828
0.0395905
0.039587
0.0396167
0.039601
0.0397393
0.0395629
0.0361877
0.039141
0.039263
0.0397099
0.0396994
0.0397858
0.0397775
0.039799
0.0397984
0.0398055
0.0398077
0.0398098
0.039815
0.0398143
0.0398299
0.0398253
0.0398774
0.0398634
0.0400561
0.0398989
0.0353349
0.0383817
0.0381321
0.0387057
0.0385342
0.0386418
0.0385877
0.0386115
0.0385961
0.0386022
0.0386004
0.0386016
0.0386099
0.0386088
0.0386383
0.038633
0.0387258
0.0387104
0.0389849
0.0388508
0.0368292
0.0391999
0.0390299
0.0393172
0.0392288
0.0392755
0.0392487
0.0392555
0.0392483
0.0392479
0.0392468
0.0392449
0.0392484
0.0392454
0.0392601
0.0392541
0.0393036
0.0392906
0.0394714
0.0394551
0.0370966
0.0370076
0.0375137
0.0373129
0.0374654
0.0373789
0.0374367
0.0373989
0.03742
0.0374017
0.0374064
0.0373956
0.0373908
0.0373821
0.0373684
0.0373588
0.0373314
0.0373182
0.0372779
0.0373454
0.0939639
0.0930695
0.0933123
0.0933047
0.0933344
0.0933184
0.0933248
0.0933136
0.0933119
0.0933029
0.0932966
0.0932875
0.0932764
0.0932654
0.0932466
0.0932301
0.0931959
0.0931636
0.0931054
0.0930626
0.0511221
0.0461212
0.0457832
0.0459297
0.0458214
0.0458665
0.0458281
0.0458424
0.0458275
0.0458316
0.0458255
0.0458253
0.0458236
0.0458202
0.0458232
0.0458142
0.045828
0.0458038
0.0458556
0.0457888
0.046914
0.0405151
0.0400397
0.0401571
0.0400511
0.0400912
0.0400544
0.0400677
0.0400536
0.0400577
0.0400525
0.0400525
0.0400515
0.0400483
0.0400516
0.0400427
0.0400548
0.0400328
0.0400626
0.0399051
0.0471029
0.0408475
0.0403829
0.0404844
0.0403856
0.0404188
0.0403846
0.0403958
0.0403832
0.0403867
0.040382
0.0403819
0.0403813
0.0403777
0.0403815
0.0403719
0.0403838
0.0403634
0.0403867
0.0402061
0.0469324
0.0406108
0.040141
0.0402414
0.0401371
0.0401692
0.0401339
0.0401451
0.0401323
0.0401359
0.0401311
0.040131
0.0401303
0.0401265
0.0401301
0.0401203
0.0401312
0.0401116
0.0401282
0.0399224
0.0470219
0.0407312
0.0402744
0.0403662
0.0402726
0.0403024
0.0402696
0.0402802
0.040268
0.0402714
0.0402668
0.0402666
0.0402658
0.040262
0.040265
0.0402554
0.0402647
0.0402465
0.0402593
0.0400499
0.0470218
0.0407312
0.0402744
0.0403662
0.0402726
0.0403024
0.0402696
0.0402802
0.040268
0.0402714
0.0402668
0.0402666
0.0402658
0.040262
0.040265
0.0402555
0.0402646
0.0402466
0.0402589
0.0400505
0.0469324
0.0406108
0.0401411
0.0402414
0.0401371
0.0401692
0.0401339
0.0401451
0.0401323
0.0401359
0.0401311
0.040131
0.0401303
0.0401266
0.0401301
0.0401204
0.0401311
0.0401119
0.0401272
0.0399241
0.0471029
0.0408475
0.0403829
0.0404844
0.0403856
0.0404188
0.0403846
0.0403958
0.0403832
0.0403867
0.040382
0.0403819
0.0403813
0.0403777
0.0403815
0.040372
0.0403837
0.040364
0.0403851
0.0402089
0.0469141
0.0405151
0.0400397
0.0401571
0.0400511
0.0400912
0.0400544
0.0400677
0.0400536
0.0400577
0.0400525
0.0400525
0.0400515
0.0400483
0.0400516
0.0400428
0.0400547
0.0400333
0.0400609
0.0399091
0.0511221
0.0461212
0.0457832
0.0459297
0.0458214
0.0458665
0.0458281
0.0458424
0.0458275
0.0458316
0.0458255
0.0458253
0.0458236
0.0458202
0.0458232
0.0458142
0.045828
0.045804
0.0458552
0.0457913
0.0939638
0.0930695
0.0933124
0.0933047
0.0933344
0.0933184
0.0933248
0.0933136
0.0933119
0.0933029
0.0932966
0.0932875
0.0932764
0.0932654
0.0932466
0.0932301
0.0931961
0.0931632
0.0931068
0.0930516
0.221576
0.221335
0.221108
0.220945
0.220832
0.220737
0.220656
0.220581
0.220511
0.220444
0.220379
0.220315
0.220253
0.220192
0.220132
0.220073
0.220014
0.219955
0.219897
0.219839
0.219782
0.219724
0.219667
0.21961
0.219554
0.219497
0.219441
0.219385
0.219329
0.219273
0.219217
0.219161
0.219104
0.219048
0.218992
0.218935
0.218879
0.218822
0.218766
0.218709
0.218653
0.218596
0.21854
0.218483
0.218427
0.21837
0.218314
0.218257
0.218201
0.218144
0.218088
0.218031
0.217975
0.217918
0.217861
0.217805
0.217748
0.217692
0.217635
0.217579
0.217522
0.217466
0.217409
0.217353
0.217296
0.21724
0.217183
0.217127
0.21707
0.217014
0.216957
0.2169
0.216844
0.216787
0.216731
0.216674
0.216618
0.216561
0.216505
0.216448
0.216392
0.216335
0.216278
0.216222
0.216164
0.21611
0.216048
0.215996
0.215903
0.215802
0.13687
0.137151
0.137108
0.137026
0.13697
0.136917
0.136871
0.136827
0.136786
0.136745
0.136706
0.136667
0.136629
0.136592
0.136555
0.136519
0.136482
0.136446
0.13641
0.136375
0.136339
0.136303
0.136268
0.136233
0.136197
0.136162
0.136127
0.136092
0.136058
0.136023
0.135988
0.135953
0.135918
0.135883
0.135848
0.135813
0.135778
0.135743
0.135708
0.135673
0.135638
0.135603
0.135568
0.135533
0.135498
0.135463
0.135428
0.135393
0.135358
0.135323
0.135288
0.135253
0.135218
0.135183
0.135148
0.135113
0.135077
0.135042
0.135007
0.134972
0.134937
0.134902
0.134867
0.134832
0.134797
0.134762
0.134727
0.134692
0.134657
0.134622
0.134587
0.134552
0.134517
0.134482
0.134447
0.134412
0.134376
0.134341
0.134306
0.134271
0.134236
0.134201
0.134166
0.134131
0.134095
0.134061
0.134023
0.133991
0.133925
0.133798
0.11702
0.117576
0.117571
0.117509
0.117468
0.117425
0.117388
0.117351
0.117316
0.117282
0.117249
0.117217
0.117185
0.117153
0.117122
0.11709
0.117059
0.117029
0.116998
0.116967
0.116937
0.116907
0.116876
0.116846
0.116816
0.116786
0.116755
0.116725
0.116696
0.116666
0.116636
0.116606
0.116576
0.116546
0.116516
0.116486
0.116456
0.116426
0.116396
0.116366
0.116336
0.116306
0.116276
0.116246
0.116216
0.116186
0.116156
0.116126
0.116096
0.116066
0.116035
0.116005
0.115975
0.115945
0.115915
0.115885
0.115855
0.115825
0.115795
0.115765
0.115735
0.115705
0.115675
0.115645
0.115615
0.115585
0.115555
0.115525
0.115495
0.115465
0.115435
0.115405
0.115374
0.115344
0.115314
0.115284
0.115254
0.115224
0.115194
0.115164
0.115134
0.115104
0.115074
0.115044
0.115013
0.114984
0.114951
0.114924
0.114875
0.114704
0.115929
0.11653
0.116524
0.116465
0.116426
0.116385
0.116348
0.116313
0.116279
0.116245
0.116213
0.116181
0.116149
0.116118
0.116087
0.116056
0.116025
0.115995
0.115965
0.115934
0.115904
0.115874
0.115844
0.115814
0.115784
0.115754
0.115724
0.115695
0.115665
0.115635
0.115606
0.115576
0.115547
0.115517
0.115487
0.115457
0.115428
0.115398
0.115368
0.115338
0.115309
0.115279
0.115249
0.115219
0.11519
0.11516
0.11513
0.1151
0.11507
0.115041
0.115011
0.114981
0.114951
0.114922
0.114892
0.114862
0.114832
0.114803
0.114773
0.114743
0.114713
0.114683
0.114654
0.114624
0.114594
0.114564
0.114535
0.114505
0.114475
0.114445
0.114415
0.114386
0.114356
0.114326
0.114296
0.114267
0.114237
0.114207
0.114177
0.114148
0.114118
0.114088
0.114058
0.114029
0.113998
0.113969
0.113937
0.113909
0.113865
0.11365
0.1155
0.116175
0.11617
0.116113
0.116076
0.116036
0.116
0.115965
0.115932
0.115899
0.115867
0.115835
0.115803
0.115772
0.115742
0.115711
0.11568
0.11565
0.11562
0.11559
0.11556
0.11553
0.1155
0.11547
0.11544
0.11541
0.115381
0.115351
0.115321
0.115292
0.115262
0.115233
0.115203
0.115174
0.115144
0.115114
0.115085
0.115055
0.115025
0.114996
0.114966
0.114936
0.114907
0.114877
0.114847
0.114818
0.114788
0.114758
0.114729
0.114699
0.114669
0.11464
0.11461
0.11458
0.114551
0.114521
0.114491
0.114462
0.114432
0.114402
0.114373
0.114343
0.114313
0.114284
0.114254
0.114224
0.114195
0.114165
0.114135
0.114106
0.114076
0.114046
0.114017
0.113987
0.113957
0.113928
0.113898
0.113868
0.113838
0.113809
0.113779
0.113749
0.11372
0.11369
0.11366
0.113631
0.113599
0.113571
0.113531
0.113284
0.115723
0.116408
0.116399
0.116344
0.116307
0.116268
0.116233
0.116198
0.116165
0.116132
0.1161
0.116069
0.116037
0.116006
0.115976
0.115945
0.115914
0.115884
0.115854
0.115824
0.115794
0.115764
0.115734
0.115704
0.115674
0.115644
0.115614
0.115585
0.115555
0.115525
0.115496
0.115466
0.115437
0.115407
0.115377
0.115348
0.115318
0.115288
0.115258
0.115229
0.115199
0.115169
0.11514
0.11511
0.11508
0.11505
0.115021
0.114991
0.114961
0.114931
0.114902
0.114872
0.114842
0.114813
0.114783
0.114753
0.114723
0.114694
0.114664
0.114634
0.114604
0.114575
0.114545
0.114515
0.114485
0.114456
0.114426
0.114396
0.114367
0.114337
0.114307
0.114277
0.114248
0.114218
0.114188
0.114158
0.114129
0.114099
0.114069
0.11404
0.11401
0.11398
0.11395
0.113921
0.11389
0.113861
0.113829
0.113802
0.113764
0.113502
0.115718
0.116407
0.116403
0.116352
0.116317
0.116279
0.116245
0.116211
0.116178
0.116146
0.116114
0.116082
0.116051
0.11602
0.11599
0.115959
0.115929
0.115899
0.115868
0.115838
0.115808
0.115778
0.115748
0.115718
0.115689
0.115659
0.115629
0.115599
0.11557
0.11554
0.11551
0.115481
0.115451
0.115421
0.115392
0.115362
0.115332
0.115303
0.115273
0.115243
0.115214
0.115184
0.115154
0.115124
0.115095
0.115065
0.115035
0.115005
0.114976
0.114946
0.114916
0.114886
0.114857
0.114827
0.114797
0.114768
0.114738
0.114708
0.114678
0.114649
0.114619
0.114589
0.114559
0.11453
0.1145
0.11447
0.114441
0.114411
0.114381
0.114351
0.114322
0.114292
0.114262
0.114232
0.114203
0.114173
0.114143
0.114114
0.114084
0.114054
0.114024
0.113995
0.113965
0.113935
0.113905
0.113876
0.113844
0.113816
0.113779
0.113518
0.115484
0.116171
0.116182
0.116137
0.116106
0.11607
0.116037
0.116003
0.115971
0.115939
0.115908
0.115877
0.115846
0.115815
0.115785
0.115754
0.115724
0.115694
0.115664
0.115634
0.115604
0.115574
0.115544
0.115514
0.115485
0.115455
0.115425
0.115395
0.115366
0.115336
0.115307
0.115277
0.115247
0.115218
0.115188
0.115159
0.115129
0.115099
0.11507
0.11504
0.11501
0.114981
0.114951
0.114921
0.114892
0.114862
0.114832
0.114803
0.114773
0.114743
0.114714
0.114684
0.114654
0.114625
0.114595
0.114565
0.114536
0.114506
0.114476
0.114446
0.114417
0.114387
0.114357
0.114328
0.114298
0.114268
0.114239
0.114209
0.114179
0.11415
0.11412
0.11409
0.114061
0.114031
0.114001
0.113972
0.113942
0.113912
0.113883
0.113853
0.113823
0.113794
0.113764
0.113734
0.113704
0.113675
0.113643
0.113615
0.113576
0.113333
0.115891
0.116523
0.116547
0.116508
0.116479
0.116445
0.116413
0.116381
0.116349
0.116318
0.116287
0.116256
0.116225
0.116195
0.116164
0.116134
0.116104
0.116074
0.116044
0.116013
0.115984
0.115954
0.115924
0.115894
0.115864
0.115834
0.115804
0.115775
0.115745
0.115715
0.115685
0.115656
0.115626
0.115596
0.115567
0.115537
0.115507
0.115477
0.115448
0.115418
0.115388
0.115358
0.115328
0.115299
0.115269
0.115239
0.115209
0.11518
0.11515
0.11512
0.11509
0.115061
0.115031
0.115001
0.114971
0.114942
0.114912
0.114882
0.114852
0.114822
0.114793
0.114763
0.114733
0.114703
0.114674
0.114644
0.114614
0.114584
0.114554
0.114525
0.114495
0.114465
0.114435
0.114406
0.114376
0.114346
0.114316
0.114287
0.114257
0.114227
0.114197
0.114168
0.114138
0.114108
0.114078
0.114049
0.114017
0.113989
0.113947
0.113739
0.116926
0.117548
0.117589
0.117557
0.117531
0.117499
0.117469
0.117437
0.117406
0.117375
0.117344
0.117313
0.117282
0.117252
0.117222
0.117191
0.117161
0.117131
0.1171
0.11707
0.11704
0.11701
0.11698
0.11695
0.11692
0.116889
0.116859
0.116829
0.116799
0.116769
0.116739
0.116709
0.116679
0.116649
0.116619
0.116589
0.116559
0.116529
0.116499
0.116469
0.116439
0.116409
0.116379
0.116349
0.116319
0.116289
0.116259
0.116229
0.116199
0.116169
0.116139
0.116109
0.116079
0.116049
0.116019
0.115989
0.115959
0.115929
0.115899
0.115869
0.115839
0.115809
0.115778
0.115748
0.115718
0.115688
0.115658
0.115628
0.115598
0.115568
0.115538
0.115508
0.115478
0.115448
0.115418
0.115388
0.115358
0.115328
0.115298
0.115268
0.115238
0.115208
0.115178
0.115148
0.115117
0.115088
0.115056
0.115027
0.114984
0.114824
0.136592
0.137029
0.137065
0.137034
0.137005
0.136969
0.136935
0.136899
0.136864
0.136829
0.136794
0.136758
0.136723
0.136688
0.136653
0.136618
0.136583
0.136547
0.136512
0.136477
0.136442
0.136407
0.136372
0.136337
0.136302
0.136267
0.136232
0.136197
0.136162
0.136127
0.136092
0.136057
0.136022
0.135987
0.135952
0.135917
0.135882
0.135847
0.135812
0.135777
0.135742
0.135707
0.135672
0.135637
0.135602
0.135567
0.135532
0.135497
0.135462
0.135427
0.135392
0.135357
0.135322
0.135287
0.135252
0.135217
0.135182
0.135147
0.135112
0.135077
0.135042
0.135007
0.134972
0.134937
0.134902
0.134867
0.134832
0.134797
0.134762
0.134727
0.134692
0.134657
0.134622
0.134587
0.134552
0.134517
0.134482
0.134447
0.134412
0.134377
0.134342
0.134307
0.134272
0.134237
0.134201
0.134167
0.134131
0.134096
0.134042
0.133936
0.220552
0.220736
0.220683
0.220634
0.220578
0.220523
0.220468
0.220412
0.220357
0.220301
0.220245
0.220189
0.220133
0.220077
0.220021
0.219965
0.219909
0.219853
0.219796
0.21974
0.219684
0.219628
0.219571
0.219515
0.219459
0.219402
0.219346
0.219289
0.219233
0.219177
0.21912
0.219064
0.219008
0.218951
0.218895
0.218838
0.218782
0.218726
0.218669
0.218613
0.218557
0.2185
0.218444
0.218388
0.218331
0.218275
0.218219
0.218162
0.218106
0.21805
0.217993
0.217937
0.217881
0.217824
0.217768
0.217711
0.217655
0.217599
0.217542
0.217486
0.21743
0.217373
0.217317
0.217261
0.217204
0.217148
0.217092
0.217035
0.216979
0.216923
0.216866
0.21681
0.216753
0.216697
0.216641
0.216584
0.216528
0.216472
0.216415
0.216359
0.216303
0.216246
0.21619
0.216134
0.216077
0.216021
0.215966
0.215909
0.215845
0.21579
0.0987333
0.0986418
0.0984766
0.0983962
0.0983277
0.0982815
0.0982412
0.0982063
0.098174
0.0981434
0.0981142
0.0980856
0.0980578
0.0980305
0.0980036
0.0979769
0.0979506
0.0979245
0.0978986
0.0978728
0.0978471
0.0978215
0.097796
0.0977706
0.0977453
0.0977201
0.097695
0.09767
0.0976451
0.0976201
0.0975952
0.0975702
0.0975452
0.0975201
0.097495
0.0974699
0.0974447
0.0974196
0.0973944
0.0973693
0.0973441
0.0973189
0.0972938
0.0972686
0.0972434
0.0972183
0.0971931
0.0971679
0.0971428
0.0971176
0.0970924
0.0970673
0.0970421
0.0970169
0.0969918
0.0969666
0.0969414
0.0969163
0.0968911
0.0968659
0.0968407
0.0968156
0.0967904
0.0967652
0.0967401
0.0967149
0.0966897
0.0966645
0.0966394
0.0966142
0.096589
0.0965639
0.0965387
0.0965135
0.0964883
0.0964632
0.096438
0.0964128
0.0963876
0.0963625
0.0963373
0.0963122
0.0962869
0.096262
0.0962364
0.0962123
0.0961861
0.0961633
0.096133
0.0960953
0.110353
0.110356
0.110383
0.110321
0.110267
0.110223
0.110183
0.110147
0.110113
0.11008
0.110048
0.110017
0.109987
0.109956
0.109927
0.109897
0.109868
0.109839
0.10981
0.109781
0.109753
0.109724
0.109696
0.109667
0.109639
0.10961
0.109582
0.109554
0.109526
0.109498
0.10947
0.109442
0.109414
0.109386
0.109358
0.109329
0.109301
0.109273
0.109245
0.109217
0.109188
0.10916
0.109132
0.109104
0.109076
0.109047
0.109019
0.108991
0.108963
0.108935
0.108906
0.108878
0.10885
0.108822
0.108793
0.108765
0.108737
0.108709
0.108681
0.108652
0.108624
0.108596
0.108568
0.108539
0.108511
0.108483
0.108455
0.108427
0.108398
0.10837
0.108342
0.108314
0.108285
0.108257
0.108229
0.108201
0.108173
0.108144
0.108116
0.108088
0.10806
0.108032
0.108003
0.107975
0.107946
0.107919
0.107889
0.107864
0.107822
0.107737
0.110724
0.110871
0.110993
0.110939
0.110887
0.110844
0.110805
0.110769
0.110735
0.110703
0.110671
0.11064
0.11061
0.11058
0.11055
0.110521
0.110492
0.110462
0.110433
0.110405
0.110376
0.110347
0.110318
0.11029
0.110261
0.110233
0.110204
0.110176
0.110148
0.11012
0.110091
0.110063
0.110035
0.110007
0.109978
0.10995
0.109922
0.109893
0.109865
0.109836
0.109808
0.10978
0.109751
0.109723
0.109695
0.109666
0.109638
0.109609
0.109581
0.109553
0.109524
0.109496
0.109468
0.109439
0.109411
0.109382
0.109354
0.109326
0.109297
0.109269
0.10924
0.109212
0.109184
0.109155
0.109127
0.109099
0.10907
0.109042
0.109013
0.108985
0.108957
0.108928
0.1089
0.108872
0.108843
0.108815
0.108786
0.108758
0.10873
0.108701
0.108673
0.108645
0.108616
0.108588
0.108559
0.108532
0.108502
0.108476
0.108439
0.108284
0.113641
0.113799
0.113855
0.1138
0.113753
0.113711
0.113673
0.113637
0.113603
0.11357
0.113538
0.113506
0.113475
0.113444
0.113414
0.113384
0.113354
0.113324
0.113294
0.113265
0.113235
0.113206
0.113176
0.113147
0.113118
0.113088
0.113059
0.11303
0.113001
0.112972
0.112943
0.112914
0.112885
0.112856
0.112827
0.112798
0.112769
0.11274
0.112711
0.112682
0.112653
0.112623
0.112594
0.112565
0.112536
0.112507
0.112478
0.112449
0.11242
0.11239
0.112361
0.112332
0.112303
0.112274
0.112245
0.112216
0.112187
0.112157
0.112128
0.112099
0.11207
0.112041
0.112012
0.111983
0.111954
0.111924
0.111895
0.111866
0.111837
0.111808
0.111779
0.11175
0.111721
0.111691
0.111662
0.111633
0.111604
0.111575
0.111546
0.111517
0.111488
0.111458
0.111429
0.1114
0.111371
0.111343
0.111311
0.111285
0.111245
0.111038
0.113488
0.11369
0.113705
0.11365
0.113604
0.113563
0.113526
0.113491
0.113457
0.113424
0.113393
0.113361
0.11333
0.1133
0.11327
0.113239
0.11321
0.11318
0.11315
0.113121
0.113091
0.113062
0.113032
0.113003
0.112974
0.112945
0.112916
0.112887
0.112858
0.112829
0.1128
0.112771
0.112742
0.112713
0.112684
0.112655
0.112626
0.112597
0.112567
0.112538
0.112509
0.11248
0.112451
0.112422
0.112393
0.112364
0.112335
0.112306
0.112277
0.112248
0.112218
0.112189
0.11216
0.112131
0.112102
0.112073
0.112044
0.112015
0.111986
0.111957
0.111928
0.111898
0.111869
0.11184
0.111811
0.111782
0.111753
0.111724
0.111695
0.111666
0.111637
0.111608
0.111578
0.111549
0.11152
0.111491
0.111462
0.111433
0.111404
0.111375
0.111346
0.111317
0.111287
0.111259
0.111229
0.111201
0.11117
0.111143
0.111108
0.11087
0.113863
0.114099
0.114099
0.114044
0.114
0.113959
0.113923
0.113888
0.113855
0.113822
0.113791
0.113759
0.113729
0.113698
0.113668
0.113638
0.113608
0.113578
0.113548
0.113519
0.113489
0.11346
0.11343
0.113401
0.113372
0.113342
0.113313
0.113284
0.113255
0.113226
0.113197
0.113168
0.113138
0.113109
0.11308
0.113051
0.113022
0.112993
0.112964
0.112934
0.112905
0.112876
0.112847
0.112818
0.112788
0.112759
0.11273
0.112701
0.112672
0.112642
0.112613
0.112584
0.112555
0.112526
0.112497
0.112467
0.112438
0.112409
0.11238
0.112351
0.112321
0.112292
0.112263
0.112234
0.112205
0.112175
0.112146
0.112117
0.112088
0.112059
0.112029
0.112
0.111971
0.111942
0.111913
0.111884
0.111854
0.111825
0.111796
0.111767
0.111738
0.111708
0.111679
0.11165
0.11162
0.111592
0.111561
0.111534
0.111502
0.111249
0.113865
0.114113
0.114119
0.114069
0.114027
0.113989
0.113953
0.11392
0.113887
0.113855
0.113824
0.113793
0.113762
0.113732
0.113701
0.113671
0.113642
0.113612
0.113582
0.113553
0.113523
0.113494
0.113464
0.113435
0.113406
0.113376
0.113347
0.113318
0.113289
0.11326