/*--------------------------------*- C++ -*----------------------------------*\
  =========                 |
  \\      /  F ield         | OpenFOAM: The Open Source CFD Toolbox
   \\    /   O peration     | Website:  https://openfoam.org
    \\  /    A nd           | Version:  7
     \\/     M anipulation  |
\*---------------------------------------------------------------------------*/
FoamFile
{
    version     2.0;
    format      ascii;
    class       volVectorField;
    location    "0.4875";
    object      UMean;
}
// * * * * * * * * * * * * * * * * * * * * * * * * * * * * * * * * * * * * * //

dimensions      [0 1 -1 0 0 0 0];

internalField   nonuniform List<vector> 
1440
(
(11.9773 0.0363891 0)
(11.8841 0.135952 0)
(11.6959 0.227114 0)
(11.4225 0.299573 0)
(11.0866 0.351709 0)
(10.708 0.383283 0)
(10.3033 0.396162 0)
(9.88416 0.393257 0)
(9.46222 0.37877 0)
(9.04432 0.355833 0)
(8.63975 0.327744 0)
(8.25118 0.29777 0)
(7.88254 0.266968 0)
(7.53672 0.236631 0)
(7.21454 0.207567 0)
(6.91614 0.180148 0)
(6.64125 0.154655 0)
(6.38934 0.131286 0)
(6.15952 0.110123 0)
(5.95073 0.0911507 0)
(5.76167 0.0742814 0)
(5.591 0.0593897 0)
(5.43734 0.0463327 0)
(5.29927 0.0349626 0)
(5.17545 0.0251293 0)
(5.06456 0.0166845 0)
(4.96535 0.00948655 0)
(4.87663 0.00340225 0)
(4.7973 -0.00169231 0)
(4.72635 -0.00591217 0)
(4.66284 -0.00936295 0)
(4.60591 -0.0121413 0)
(4.55481 -0.0143352 0)
(4.50884 -0.0160246 0)
(4.46738 -0.0172811 0)
(4.42987 -0.0181689 0)
(4.39583 -0.0187451 0)
(4.36483 -0.0190601 0)
(4.33648 -0.0191583 0)
(4.31044 -0.0190787 0)
(4.28644 -0.0188546 0)
(4.2642 -0.018515 0)
(4.24351 -0.0180842 0)
(4.22417 -0.0175824 0)
(4.20601 -0.0170258 0)
(4.18888 -0.0164269 0)
(4.17266 -0.0157956 0)
(4.15723 -0.0151414 0)
(4.14249 -0.014474 0)
(4.12836 -0.0138019 0)
(4.11477 -0.0131317 0)
(4.10165 -0.0124681 0)
(4.08895 -0.0118149 0)
(4.07663 -0.0111746 0)
(4.06465 -0.0105493 0)
(4.05298 -0.00994043 0)
(4.04158 -0.00934917 0)
(4.03043 -0.00877618 0)
(4.01952 -0.00822189 0)
(4.00883 -0.00768658 0)
(3.99834 -0.00717045 0)
(3.98804 -0.00667368 0)
(3.97792 -0.00619637 0)
(3.96798 -0.00573853 0)
(3.9582 -0.00530003 0)
(3.94857 -0.00488063 0)
(3.9391 -0.00448 0)
(3.92977 -0.00409776 0)
(3.92059 -0.00373349 0)
(3.91155 -0.00338673 0)
(3.90264 -0.00305702 0)
(3.89386 -0.0027439 0)
(3.88522 -0.00244681 0)
(3.8767 -0.00216521 0)
(3.86831 -0.00189852 0)
(3.86004 -0.00164619 0)
(3.8519 -0.00140764 0)
(3.84388 -0.00118241 0)
(3.83597 -0.000969937 0)
(3.82819 -0.000769722 0)
(3.82052 -0.000581132 0)
(3.81297 -0.000403636 0)
(3.80553 -0.000236633 0)
(3.79821 -7.97445e-05 0)
(3.791 6.7484e-05 0)
(3.7839 0.00020534 0)
(3.7769 0.000334374 0)
(3.77002 0.000455014 0)
(3.76324 0.000567929 0)
(3.75656 0.000673415 0)
(3.74999 0.000771907 0)
(3.74352 0.000863421 0)
(3.73715 0.000948287 0)
(3.73088 0.00102665 0)
(3.7247 0.00109912 0)
(3.71862 0.00116611 0)
(3.71264 0.0012282 0)
(3.70674 0.00128561 0)
(3.70094 0.00133828 0)
(3.69524 0.00138634 0)
(3.68962 0.00142913 0)
(3.68409 0.00146775 0)
(3.67864 0.00150087 0)
(3.67328 0.00153188 0)
(3.668 0.00155707 0)
(3.66279 0.001584 0)
(3.65769 0.00160202 0)
(3.65264 0.00162777 0)
(3.64773 0.00163446 0)
(3.64284 0.00166093 0)
(3.63814 0.00164469 0)
(3.63338 0.00167723 0)
(3.62891 0.00161652 0)
(3.62419 0.00167281 0)
(3.62005 0.00152897 0)
(3.61521 0.001652 0)
(3.61168 0.00136051 0)
(3.60631 0.00165775 0)
(3.60419 0.00116566 0)
(3.5968 0.00193077 0)
(11.9994 0.0498508 0)
(12.0391 0.138582 0)
(12.1059 0.215222 0)
(12.1891 0.282197 0)
(12.2791 0.340296 0)
(12.3672 0.388486 0)
(12.4465 0.426087 0)
(12.5114 0.453373 0)
(12.5591 0.471455 0)
(12.5885 0.481509 0)
(12.6002 0.484655 0)
(12.5956 0.482002 0)
(12.5762 0.474473 0)
(12.5441 0.462833 0)
(12.501 0.44778 0)
(12.449 0.430029 0)
(12.3898 0.41031 0)
(12.3252 0.389295 0)
(12.2565 0.367578 0)
(12.185 0.345646 0)
(12.1116 0.323891 0)
(12.0371 0.302638 0)
(11.9623 0.282114 0)
(11.8876 0.262494 0)
(11.8134 0.243906 0)
(11.7402 0.226427 0)
(11.6682 0.210096 0)
(11.5974 0.194921 0)
(11.5281 0.180887 0)
(11.4603 0.167956 0)
(11.3941 0.156082 0)
(11.3295 0.145206 0)
(11.2665 0.135267 0)
(11.205 0.126197 0)
(11.1452 0.117933 0)
(11.0868 0.110408 0)
(11.03 0.103561 0)
(10.9746 0.0973326 0)
(10.9207 0.0916665 0)
(10.8681 0.0865109 0)
(10.8169 0.0818172 0)
(10.7669 0.0775409 0)
(10.7183 0.0736407 0)
(10.6709 0.0700785 0)
(10.6246 0.0668196 0)
(10.5796 0.0638322 0)
(10.5356 0.0610896 0)
(10.4928 0.0585675 0)
(10.451 0.0562436 0)
(10.4103 0.054097 0)
(10.3705 0.0521089 0)
(10.3317 0.0502624 0)
(10.2939 0.0485424 0)
(10.2569 0.0469352 0)
(10.2209 0.0454288 0)
(10.1857 0.0440123 0)
(10.1514 0.0426762 0)
(10.1179 0.0414119 0)
(10.0852 0.0402121 0)
(10.0532 0.0390709 0)
(10.0221 0.0379834 0)
(9.99163 0.0369454 0)
(9.96193 0.0359531 0)
(9.93292 0.0350031 0)
(9.9046 0.0340927 0)
(9.87694 0.0332191 0)
(9.84993 0.0323802 0)
(9.82356 0.0315737 0)
(9.79779 0.0307978 0)
(9.77263 0.0300505 0)
(9.74805 0.0293304 0)
(9.72403 0.0286359 0)
(9.70057 0.0279657 0)
(9.67765 0.0273185 0)
(9.65524 0.0266935 0)
(9.63335 0.0260896 0)
(9.61195 0.0255058 0)
(9.59103 0.0249413 0)
(9.57057 0.0243954 0)
(9.55058 0.0238672 0)
(9.53103 0.0233562 0)
(9.5119 0.0228617 0)
(9.4932 0.0223833 0)
(9.4749 0.0219204 0)
(9.457 0.0214723 0)
(9.43949 0.0210385 0)
(9.42234 0.0206186 0)
(9.40557 0.0202121 0)
(9.38914 0.0198187 0)
(9.37306 0.0194381 0)
(9.35732 0.0190699 0)
(9.3419 0.0187134 0)
(9.32679 0.0183682 0)
(9.31199 0.0180338 0)
(9.29749 0.0177099 0)
(9.28328 0.0173965 0)
(9.26935 0.0170932 0)
(9.25569 0.0168 0)
(9.2423 0.0165159 0)
(9.22917 0.0162409 0)
(9.21629 0.0159734 0)
(9.20366 0.0157143 0)
(9.19127 0.0154613 0)
(9.17911 0.0152176 0)
(9.16717 0.0149783 0)
(9.15545 0.0147507 0)
(9.14396 0.0145238 0)
(9.13266 0.0143121 0)
(9.12161 0.0140919 0)
(9.11068 0.0138938 0)
(9.10011 0.0136684 0)
(9.08948 0.0134809 0)
(9.07944 0.0132313 0)
(9.06895 0.0130533 0)
(9.05969 0.0127511 0)
(9.04895 0.0125783 0)
(9.0411 0.0121847 0)
(9.0292 0.0119922 0)
(9.02443 0.0115196 0)
(9.009 0.0112949 0)
(11.9981 0.0300801 0)
(12.0195 0.0880231 0)
(12.059 0.141596 0)
(12.1154 0.18988 0)
(12.1873 0.232592 0)
(12.2727 0.269278 0)
(12.369 0.299415 0)
(12.4733 0.322776 0)
(12.5823 0.339533 0)
(12.6931 0.350111 0)
(12.8031 0.354988 0)
(12.9103 0.354777 0)
(13.0132 0.350072 0)
(13.1105 0.341568 0)
(13.2015 0.33012 0)
(13.2859 0.316561 0)
(13.3634 0.301604 0)
(13.4341 0.285832 0)
(13.4981 0.269728 0)
(13.5558 0.253687 0)
(13.6073 0.23802 0)
(13.6531 0.222962 0)
(13.6935 0.208675 0)
(13.7291 0.195265 0)
(13.7601 0.182795 0)
(13.787 0.171294 0)
(13.8102 0.160762 0)
(13.83 0.151177 0)
(13.8468 0.142499 0)
(13.8609 0.134678 0)
(13.8726 0.127654 0)
(13.8821 0.121364 0)
(13.8896 0.115744 0)
(13.8953 0.110728 0)
(13.8995 0.106257 0)
(13.9023 0.102271 0)
(13.9038 0.098717 0)
(13.9042 0.095544 0)
(13.9035 0.092707 0)
(13.9019 0.0901653 0)
(13.8995 0.0878819 0)
(13.8963 0.0858243 0)
(13.8924 0.0839629 0)
(13.8879 0.0822714 0)
(13.8828 0.0807256 0)
(13.8771 0.0793029 0)
(13.871 0.077981 0)
(13.8644 0.0767407 0)
(13.8573 0.0755668 0)
(13.8499 0.0744476 0)
(13.8421 0.0733737 0)
(13.834 0.0723374 0)
(13.8255 0.0713324 0)
(13.8167 0.0703533 0)
(13.8077 0.0693958 0)
(13.7984 0.0684566 0)
(13.7888 0.0675325 0)
(13.779 0.0666205 0)
(13.769 0.0657184 0)
(13.7588 0.0648245 0)
(13.7484 0.0639379 0)
(13.7378 0.0630579 0)
(13.7271 0.0621844 0)
(13.7162 0.0613171 0)
(13.7052 0.0604563 0)
(13.6941 0.0596021 0)
(13.6828 0.058755 0)
(13.6714 0.0579153 0)
(13.66 0.0570833 0)
(13.6484 0.0562592 0)
(13.6368 0.0554432 0)
(13.6251 0.0546355 0)
(13.6133 0.0538365 0)
(13.6015 0.0530462 0)
(13.5896 0.0522649 0)
(13.5777 0.051493 0)
(13.5658 0.0507306 0)
(13.5538 0.0499778 0)
(13.5418 0.0492351 0)
(13.5298 0.0485024 0)
(13.5178 0.0477802 0)
(13.5057 0.0470683 0)
(13.4937 0.0463673 0)
(13.4817 0.0456769 0)
(13.4697 0.0449974 0)
(13.4577 0.0443287 0)
(13.4458 0.0436711 0)
(13.4339 0.0430242 0)
(13.422 0.0423887 0)
(13.4101 0.041764 0)
(13.3983 0.0411505 0)
(13.3865 0.0405476 0)
(13.3748 0.0399558 0)
(13.3631 0.0393741 0)
(13.3514 0.0388034 0)
(13.3399 0.0382426 0)
(13.3283 0.037693 0)
(13.3169 0.0371527 0)
(13.3055 0.0366233 0)
(13.2942 0.0361022 0)
(13.2829 0.0355918 0)
(13.2717 0.0350881 0)
(13.2606 0.0345961 0)
(13.2496 0.0341086 0)
(13.2386 0.0336353 0)
(13.2277 0.0331622 0)
(13.2169 0.0327081 0)
(13.2062 0.0322442 0)
(13.1956 0.0318096 0)
(13.185 0.0313439 0)
(13.1747 0.0309308 0)
(13.1641 0.0304419 0)
(13.1541 0.0300602 0)
(13.1435 0.0295072 0)
(13.1341 0.0291839 0)
(13.123 0.0284822 0)
(13.1149 0.0282769 0)
(13.1024 0.0272399 0)
(13.0973 0.0272533 0)
(13.0809 0.0254411 0)
(11.998 0.020881 0)
(12.0173 0.0618022 0)
(12.0528 0.10036 0)
(12.1031 0.135249 0)
(12.1671 0.165769 0)
(12.2428 0.191597 0)
(12.3282 0.212539 0)
(12.4212 0.22854 0)
(12.5195 0.239775 0)
(12.6212 0.246652 0)
(12.7246 0.249717 0)
(12.8284 0.249578 0)
(12.9314 0.246843 0)
(13.0326 0.242102 0)
(13.1313 0.235917 0)
(13.2268 0.22875 0)
(13.3185 0.220955 0)
(13.4062 0.21278 0)
(13.4896 0.204403 0)
(13.5686 0.195955 0)
(13.6431 0.187555 0)
(13.7133 0.179306 0)
(13.7792 0.171291 0)
(13.841 0.163569 0)
(13.899 0.156182 0)
(13.9533 0.149161 0)
(14.0044 0.142528 0)
(14.0523 0.136293 0)
(14.0973 0.13046 0)
(14.1398 0.125022 0)
(14.1799 0.119973 0)
(14.2178 0.115298 0)
(14.2538 0.110982 0)
(14.288 0.107004 0)
(14.3205 0.103343 0)
(14.3517 0.0999759 0)
(14.3815 0.0968812 0)
(14.4101 0.0940353 0)
(14.4377 0.091417 0)
(14.4642 0.0890048 0)
(14.4899 0.08678 0)
(14.5147 0.0847238 0)
(14.5388 0.0828203 0)
(14.5621 0.0810537 0)
(14.5848 0.0794102 0)
(14.6069 0.0778759 0)
(14.6283 0.0764371 0)
(14.6493 0.0750806 0)
(14.6697 0.0737973 0)
(14.6896 0.0725788 0)
(14.7091 0.0714195 0)
(14.7281 0.0703136 0)
(14.7467 0.0692569 0)
(14.7648 0.0682448 0)
(14.7826 0.0672745 0)
(14.7999 0.0663425 0)
(14.8169 0.065447 0)
(14.8335 0.0645863 0)
(14.8497 0.0637592 0)
(14.8656 0.0629632 0)
(14.8811 0.0621966 0)
(14.8963 0.0614564 0)
(14.9112 0.0607412 0)
(14.9257 0.0600484 0)
(14.9399 0.0593769 0)
(14.9537 0.0587245 0)
(14.9673 0.0580906 0)
(14.9805 0.0574735 0)
(14.9934 0.0568727 0)
(15.0061 0.0562867 0)
(15.0184 0.0557151 0)
(15.0305 0.0551564 0)
(15.0422 0.0546105 0)
(15.0537 0.054076 0)
(15.0649 0.0535529 0)
(15.0758 0.0530398 0)
(15.0865 0.0525371 0)
(15.0969 0.0520433 0)
(15.107 0.0515589 0)
(15.1169 0.0510825 0)
(15.1265 0.0506148 0)
(15.1359 0.0501544 0)
(15.145 0.0497021 0)
(15.1539 0.0492565 0)
(15.1626 0.0488184 0)
(15.171 0.0483864 0)
(15.1792 0.0479614 0)
(15.1872 0.0475422 0)
(15.195 0.0471296 0)
(15.2025 0.0467222 0)
(15.2099 0.0463212 0)
(15.217 0.0459249 0)
(15.224 0.0455346 0)
(15.2307 0.0451485 0)
(15.2372 0.0447682 0)
(15.2436 0.0443915 0)
(15.2497 0.0440206 0)
(15.2557 0.0436526 0)
(15.2615 0.0432905 0)
(15.2672 0.04293 0)
(15.2726 0.0425758 0)
(15.2779 0.0422209 0)
(15.283 0.0418744 0)
(15.288 0.0415234 0)
(15.2928 0.0411855 0)
(15.2974 0.0408353 0)
(15.3019 0.0405083 0)
(15.3062 0.0401516 0)
(15.3104 0.0398397 0)
(15.3145 0.0394617 0)
(15.3184 0.0391742 0)
(15.3222 0.0387464 0)
(15.3258 0.0385062 0)
(15.3295 0.0379753 0)
(15.3325 0.0378299 0)
(15.3362 0.0370948 0)
(15.3386 0.0371278 0)
(15.3426 0.0359903 0)
(15.3439 0.0362886 0)
(15.3488 0.0343094 0)
(11.9979 0.0123171 0)
(12.0161 0.0365139 0)
(12.0491 0.0593625 0)
(12.0961 0.0800313 0)
(12.1563 0.0980471 0)
(12.228 0.113246 0)
(12.3093 0.125592 0)
(12.398 0.135101 0)
(12.4921 0.141894 0)
(12.5898 0.146218 0)
(12.6895 0.148411 0)
(12.7899 0.148829 0)
(12.8897 0.147799 0)
(12.988 0.14559 0)
(13.084 0.142421 0)
(13.1772 0.138476 0)
(13.2669 0.133916 0)
(13.3528 0.12888 0)
(13.4348 0.123483 0)
(13.5126 0.117829 0)
(13.5864 0.112026 0)
(13.6562 0.106182 0)
(13.7221 0.100403 0)
(13.7842 0.0947848 0)
(13.8428 0.0894 0)
(13.8982 0.0843026 0)
(13.9504 0.0795258 0)
(13.9999 0.0750843 0)
(14.0467 0.0709803 0)
(14.0911 0.067207 0)
(14.1333 0.0637526 0)
(14.1736 0.0606013 0)
(14.2121 0.0577351 0)
(14.249 0.0551345 0)
(14.2844 0.0527794 0)
(14.3185 0.0506498 0)
(14.3514 0.0487257 0)
(14.3833 0.0469883 0)
(14.4142 0.0454195 0)
(14.4443 0.0440024 0)
(14.4735 0.0427217 0)
(14.5021 0.0415632 0)
(14.53 0.0405139 0)
(14.5574 0.0395623 0)
(14.5842 0.0386977 0)
(14.6105 0.0379112 0)
(14.6364 0.0371962 0)
(14.6618 0.0365471 0)
(14.6868 0.0359578 0)
(14.7115 0.035422 0)
(14.7358 0.0349336 0)
(14.7599 0.0344869 0)
(14.7836 0.0340765 0)
(14.807 0.0336977 0)
(14.8301 0.0333463 0)
(14.8529 0.033019 0)
(14.8755 0.032713 0)
(14.8979 0.032427 0)
(14.9199 0.0321591 0)
(14.9418 0.0319076 0)
(14.9634 0.0316702 0)
(14.9848 0.0314449 0)
(15.006 0.0312298 0)
(15.0269 0.0310233 0)
(15.0476 0.0308239 0)
(15.0681 0.0306305 0)
(15.0885 0.0304416 0)
(15.1086 0.0302561 0)
(15.1285 0.0300732 0)
(15.1482 0.0298923 0)
(15.1677 0.029713 0)
(15.187 0.0295349 0)
(15.2061 0.0293579 0)
(15.225 0.0291817 0)
(15.2438 0.0290062 0)
(15.2624 0.0288314 0)
(15.2808 0.0286573 0)
(15.299 0.0284838 0)
(15.317 0.028311 0)
(15.3349 0.0281389 0)
(15.3526 0.0279676 0)
(15.3701 0.0277972 0)
(15.3874 0.0276276 0)
(15.4046 0.027459 0)
(15.4217 0.0272914 0)
(15.4385 0.0271249 0)
(15.4552 0.0269595 0)
(15.4718 0.0267953 0)
(15.4882 0.0266324 0)
(15.5044 0.0264708 0)
(15.5205 0.0263106 0)
(15.5365 0.0261517 0)
(15.5523 0.0259942 0)
(15.5679 0.025838 0)
(15.5835 0.0256833 0)
(15.5988 0.0255297 0)
(15.6141 0.0253779 0)
(15.6292 0.025227 0)
(15.6441 0.0250781 0)
(15.659 0.0249293 0)
(15.6736 0.024783 0)
(15.6882 0.0246354 0)
(15.7026 0.0244918 0)
(15.717 0.0243444 0)
(15.7311 0.0242042 0)
(15.7452 0.0240549 0)
(15.7591 0.0239195 0)
(15.773 0.0237635 0)
(15.7866 0.0236352 0)
(15.8003 0.0234626 0)
(15.8135 0.0233467 0)
(15.8272 0.0231395 0)
(15.8399 0.0230492 0)
(15.8538 0.0227753 0)
(15.8655 0.0227375 0)
(15.8802 0.0223367 0)
(15.89 0.0223934 0)
(15.9068 0.0217436 0)
(15.9125 0.0219246 0)
(15.9344 0.020765 0)
(11.9979 0.00411485 0)
(12.0155 0.0121841 0)
(12.0473 0.0198017 0)
(12.0926 0.0266981 0)
(12.151 0.0327153 0)
(12.2208 0.0378061 0)
(12.3001 0.0419726 0)
(12.387 0.0452342 0)
(12.4793 0.0476378 0)
(12.5754 0.0492684 0)
(12.6737 0.0502292 0)
(12.7728 0.0506242 0)
(12.8716 0.0505358 0)
(12.969 0.0500335 0)
(13.0641 0.049174 0)
(13.1565 0.0480213 0)
(13.2455 0.0466334 0)
(13.3309 0.0450704 0)
(13.4124 0.043396 0)
(13.4899 0.0416737 0)
(13.5634 0.0399502 0)
(13.633 0.0382619 0)
(13.6988 0.0366415 0)
(13.7609 0.0351219 0)
(13.8196 0.0337282 0)
(13.875 0.0324697 0)
(13.9273 0.0313421 0)
(13.9767 0.0303375 0)
(14.0236 0.0294446 0)
(14.068 0.0286522 0)
(14.1102 0.0279469 0)
(14.1504 0.0273164 0)
(14.1888 0.0267484 0)
(14.2256 0.0262327 0)
(14.2609 0.0257604 0)
(14.2949 0.0253247 0)
(14.3277 0.0249193 0)
(14.3595 0.0245399 0)
(14.3903 0.0241823 0)
(14.4202 0.0238439 0)
(14.4494 0.0235225 0)
(14.4778 0.023217 0)
(14.5057 0.0229266 0)
(14.5329 0.0226508 0)
(14.5597 0.0223892 0)
(14.5859 0.022142 0)
(14.6117 0.0219095 0)
(14.6371 0.0216916 0)
(14.6621 0.0214875 0)
(14.6868 0.0212956 0)
(14.7111 0.0211144 0)
(14.7351 0.0209423 0)
(14.7588 0.0207782 0)
(14.7823 0.0206209 0)
(14.8055 0.0204691 0)
(14.8284 0.0203221 0)
(14.851 0.0201788 0)
(14.8735 0.0200382 0)
(14.8957 0.0198992 0)
(14.9177 0.0197612 0)
(14.9394 0.0196236 0)
(14.961 0.0194861 0)
(14.9823 0.0193485 0)
(15.0035 0.0192106 0)
(15.0244 0.0190724 0)
(15.0452 0.018934 0)
(15.0658 0.0187949 0)
(15.0862 0.0186552 0)
(15.1064 0.0185149 0)
(15.1264 0.018374 0)
(15.1463 0.0182327 0)
(15.1659 0.0180911 0)
(15.1855 0.0179495 0)
(15.2048 0.017808 0)
(15.224 0.0176668 0)
(15.243 0.0175262 0)
(15.2619 0.0173863 0)
(15.2806 0.0172473 0)
(15.2992 0.0171093 0)
(15.3176 0.0169725 0)
(15.3359 0.0168371 0)
(15.354 0.0167031 0)
(15.372 0.0165708 0)
(15.3898 0.0164401 0)
(15.4075 0.0163111 0)
(15.4251 0.0161839 0)
(15.4425 0.0160585 0)
(15.4599 0.0159351 0)
(15.477 0.0158135 0)
(15.4941 0.0156938 0)
(15.511 0.0155761 0)
(15.5278 0.0154602 0)
(15.5445 0.0153461 0)
(15.5611 0.0152337 0)
(15.5775 0.0151231 0)
(15.5938 0.0150141 0)
(15.6101 0.0149067 0)
(15.6262 0.0148007 0)
(15.6422 0.0146962 0)
(15.6581 0.0145926 0)
(15.6738 0.0144905 0)
(15.6895 0.0143886 0)
(15.7051 0.0142884 0)
(15.7206 0.0141873 0)
(15.736 0.0140888 0)
(15.7513 0.0139873 0)
(15.7664 0.0138901 0)
(15.7816 0.0137857 0)
(15.7965 0.0136896 0)
(15.8115 0.0135779 0)
(15.8261 0.0134835 0)
(15.8412 0.0133571 0)
(15.8552 0.0132687 0)
(15.8707 0.0131155 0)
(15.8837 0.0130439 0)
(15.9002 0.0128407 0)
(15.911 0.0128073 0)
(15.93 0.0124998 0)
(15.9363 0.0125288 0)
(15.961 0.0119642 0)
(11.9979 -0.00395659 0)
(12.0155 -0.0117151 0)
(12.0473 -0.0190373 0)
(12.0926 -0.0256598 0)
(12.1509 -0.0314242 0)
(12.2207 -0.0362747 0)
(12.3001 -0.0401996 0)
(12.387 -0.0432023 0)
(12.4793 -0.0453148 0)
(12.5754 -0.0466095 0)
(12.6738 -0.0471826 0)
(12.7729 -0.0471391 0)
(12.8717 -0.0465705 0)
(12.969 -0.0455591 0)
(13.0642 -0.0441701 0)
(13.1566 -0.0424696 0)
(13.2457 -0.0405144 0)
(13.3311 -0.0383613 0)
(13.4126 -0.0360564 0)
(13.4901 -0.033652 0)
(13.5636 -0.031208 0)
(13.6332 -0.0287875 0)
(13.699 -0.0264479 0)
(13.761 -0.0242423 0)
(13.8196 -0.022211 0)
(13.8749 -0.0203879 0)
(13.9271 -0.0187896 0)
(13.9765 -0.0174169 0)
(14.0233 -0.0162567 0)
(14.0676 -0.0152902 0)
(14.1097 -0.0144955 0)
(14.1499 -0.0138513 0)
(14.1882 -0.0133363 0)
(14.225 -0.0129313 0)
(14.2603 -0.0126183 0)
(14.2942 -0.0123817 0)
(14.327 -0.0122073 0)
(14.3588 -0.0120835 0)
(14.3895 -0.0119997 0)
(14.4195 -0.0119471 0)
(14.4486 -0.0119173 0)
(14.4771 -0.0119035 0)
(14.5049 -0.0118993 0)
(14.5322 -0.0118998 0)
(14.5589 -0.0119009 0)
(14.5852 -0.0118994 0)
(14.611 -0.0118928 0)
(14.6364 -0.0118796 0)
(14.6614 -0.0118586 0)
(14.6861 -0.0118294 0)
(14.7104 -0.0117919 0)
(14.7344 -0.0117461 0)
(14.7582 -0.011692 0)
(14.7816 -0.0116297 0)
(14.8048 -0.0115594 0)
(14.8277 -0.0114817 0)
(14.8504 -0.0113975 0)
(14.8728 -0.0113076 0)
(14.895 -0.0112127 0)
(14.917 -0.0111134 0)
(14.9388 -0.01101 0)
(14.9603 -0.0109029 0)
(14.9817 -0.0107924 0)
(15.0028 -0.0106791 0)
(15.0237 -0.0105634 0)
(15.0445 -0.0104455 0)
(15.0651 -0.0103258 0)
(15.0854 -0.0102044 0)
(15.1056 -0.0100816 0)
(15.1257 -0.00995802 0)
(15.1455 -0.00983389 0)
(15.1652 -0.00970967 0)
(15.1847 -0.00958568 0)
(15.204 -0.00946223 0)
(15.2232 -0.00933954 0)
(15.2422 -0.00921786 0)
(15.2611 -0.00909734 0)
(15.2798 -0.00897817 0)
(15.2983 -0.00886048 0)
(15.3168 -0.0087444 0)
(15.335 -0.00863001 0)
(15.3531 -0.00851742 0)
(15.3711 -0.00840666 0)
(15.3889 -0.00829781 0)
(15.4066 -0.0081909 0)
(15.4242 -0.00808599 0)
(15.4416 -0.00798307 0)
(15.4589 -0.0078822 0)
(15.4761 -0.00778336 0)
(15.4931 -0.00768657 0)
(15.51 -0.00759186 0)
(15.5268 -0.00749922 0)
(15.5435 -0.00740868 0)
(15.56 -0.00732025 0)
(15.5765 -0.00723396 0)
(15.5928 -0.00714977 0)
(15.609 -0.0070678 0)
(15.6251 -0.00698792 0)
(15.6411 -0.00691041 0)
(15.657 -0.00683498 0)
(15.6728 -0.00676222 0)
(15.6884 -0.00669142 0)
(15.704 -0.00662377 0)
(15.7195 -0.00655767 0)
(15.7348 -0.00649564 0)
(15.7501 -0.00643421 0)
(15.7653 -0.00637877 0)
(15.7804 -0.00632187 0)
(15.7953 -0.00627486 0)
(15.8104 -0.00622163 0)
(15.8249 -0.00618583 0)
(15.84 -0.00613308 0)
(15.854 -0.00611237 0)
(15.8695 -0.0060517 0)
(15.8825 -0.00605166 0)
(15.8989 -0.00596408 0)
(15.9098 -0.00599172 0)
(15.9288 -0.00583337 0)
(15.935 -0.00588771 0)
(15.9597 -0.00555149 0)
(11.9979 -0.0121541 0)
(12.0161 -0.0360289 0)
(12.0491 -0.0585725 0)
(12.096 -0.0789619 0)
(12.1562 -0.0967247 0)
(12.2279 -0.111689 0)
(12.3092 -0.123805 0)
(12.398 -0.133075 0)
(12.4921 -0.139607 0)
(12.5899 -0.143633 0)
(12.6897 -0.145474 0)
(12.79 -0.145468 0)
(12.8899 -0.143924 0)
(12.9883 -0.141113 0)
(13.0843 -0.137269 0)
(13.1775 -0.132604 0)
(13.2672 -0.127311 0)
(13.3532 -0.121561 0)
(13.4351 -0.115505 0)
(13.513 -0.10928 0)
(13.5868 -0.103 0)
(13.6566 -0.0967622 0)
(13.7224 -0.0906579 0)
(13.7845 -0.0847677 0)
(13.843 -0.0791635 0)
(13.8982 -0.0738944 0)
(13.9503 -0.0689896 0)
(13.9996 -0.064462 0)
(14.0462 -0.0603133 0)
(14.0905 -0.0565367 0)
(14.1326 -0.0531188 0)
(14.1727 -0.0500416 0)
(14.2111 -0.0472834 0)
(14.2478 -0.0448202 0)
(14.2831 -0.0426271 0)
(14.3171 -0.0406794 0)
(14.35 -0.0389533 0)
(14.3817 -0.0374258 0)
(14.4126 -0.036075 0)
(14.4426 -0.0348797 0)
(14.4718 -0.0338191 0)
(14.5003 -0.0328746 0)
(14.5282 -0.0320298 0)
(14.5556 -0.0312706 0)
(14.5823 -0.0305842 0)
(14.6086 -0.0299596 0)
(14.6345 -0.0293871 0)
(14.6599 -0.0288589 0)
(14.685 -0.0283686 0)
(14.7096 -0.0279114 0)
(14.734 -0.0274829 0)
(14.758 -0.0270795 0)
(14.7817 -0.0266981 0)
(14.8051 -0.0263356 0)
(14.8282 -0.0259894 0)
(14.8511 -0.0256575 0)
(14.8737 -0.0253385 0)
(14.896 -0.0250315 0)
(14.9181 -0.0247358 0)
(14.94 -0.0244508 0)
(14.9616 -0.0241754 0)
(14.983 -0.023909 0)
(15.0041 -0.0236507 0)
(15.0251 -0.0234 0)
(15.0458 -0.0231559 0)
(15.0664 -0.0229179 0)
(15.0867 -0.0226853 0)
(15.1068 -0.0224578 0)
(15.1267 -0.0222353 0)
(15.1464 -0.0220179 0)
(15.166 -0.0218056 0)
(15.1853 -0.0215984 0)
(15.2044 -0.0213963 0)
(15.2234 -0.021199 0)
(15.2422 -0.0210065 0)
(15.2608 -0.0208185 0)
(15.2792 -0.0206349 0)
(15.2974 -0.0204555 0)
(15.3155 -0.02028 0)
(15.3334 -0.0201084 0)
(15.3511 -0.0199405 0)
(15.3687 -0.0197762 0)
(15.3861 -0.0196153 0)
(15.4033 -0.0194577 0)
(15.4204 -0.0193033 0)
(15.4373 -0.019152 0)
(15.4541 -0.0190038 0)
(15.4707 -0.0188586 0)
(15.4872 -0.0187163 0)
(15.5035 -0.0185769 0)
(15.5196 -0.0184403 0)
(15.5356 -0.0183066 0)
(15.5515 -0.0181756 0)
(15.5672 -0.0180474 0)
(15.5828 -0.017922 0)
(15.5982 -0.0177992 0)
(15.6135 -0.0176793 0)
(15.6287 -0.0175619 0)
(15.6437 -0.0174477 0)
(15.6586 -0.0173356 0)
(15.6734 -0.0172275 0)
(15.688 -0.0171206 0)
(15.7025 -0.0170191 0)
(15.7169 -0.0169169 0)
(15.7312 -0.0168232 0)
(15.7453 -0.0167245 0)
(15.7593 -0.0166407 0)
(15.7733 -0.0165428 0)
(15.7869 -0.0164732 0)
(15.8007 -0.0163699 0)
(15.814 -0.016322 0)
(15.8278 -0.0161996 0)
(15.8405 -0.0161869 0)
(15.8545 -0.0160166 0)
(15.8663 -0.0160621 0)
(15.8811 -0.0157865 0)
(15.8909 -0.0159235 0)
(15.9079 -0.0154247 0)
(15.9136 -0.015661 0)
(15.9356 -0.0146672 0)
(11.998 -0.0207128 0)
(12.0173 -0.061304 0)
(12.0527 -0.0995495 0)
(12.103 -0.134155 0)
(12.1669 -0.164418 0)
(12.2426 -0.190004 0)
(12.328 -0.210711 0)
(12.421 -0.226476 0)
(12.5194 -0.237478 0)
(12.6212 -0.244125 0)
(12.7248 -0.246955 0)
(12.8288 -0.246549 0)
(12.9319 -0.243459 0)
(13.0333 -0.238196 0)
(13.1321 -0.231251 0)
(13.2276 -0.223074 0)
(13.3193 -0.214064 0)
(13.4069 -0.204555 0)
(13.4901 -0.194817 0)
(13.5689 -0.18506 0)
(13.6432 -0.175445 0)
(13.7132 -0.166087 0)
(13.7788 -0.157086 0)
(13.8405 -0.14851 0)
(13.8982 -0.140409 0)
(13.9523 -0.13281 0)
(14.0031 -0.125727 0)
(14.0508 -0.119165 0)
(14.0957 -0.11312 0)
(14.138 -0.10758 0)
(14.1779 -0.102527 0)
(14.2157 -0.0979359 0)
(14.2516 -0.0937799 0)
(14.2857 -0.0900266 0)
(14.3183 -0.0866435 0)
(14.3494 -0.0835972 0)
(14.3793 -0.0808575 0)
(14.4079 -0.0783967 0)
(14.4356 -0.076188 0)
(14.4622 -0.0742011 0)
(14.488 -0.0724075 0)
(14.5129 -0.0707802 0)
(14.5371 -0.0692972 0)
(14.5606 -0.0679385 0)
(14.5835 -0.0666875 0)
(14.6057 -0.0655278 0)
(14.6274 -0.0644447 0)
(14.6485 -0.0634246 0)
(14.6691 -0.0624581 0)
(14.6892 -0.0615367 0)
(14.7088 -0.0606549 0)
(14.728 -0.0598071 0)
(14.7467 -0.05899 0)
(14.765 -0.0581999 0)
(14.7829 -0.057435 0)
(14.8004 -0.0566927 0)
(14.8176 -0.0559722 0)
(14.8343 -0.0552718 0)
(14.8507 -0.0545913 0)
(14.8667 -0.0539292 0)
(14.8823 -0.0532852 0)
(14.8976 -0.0526577 0)
(14.9126 -0.0520466 0)
(14.9272 -0.0514504 0)
(14.9415 -0.0508684 0)
(14.9555 -0.0502985 0)
(14.9691 -0.0497401 0)
(14.9824 -0.0491917 0)
(14.9955 -0.0486539 0)
(15.0082 -0.0481258 0)
(15.0206 -0.0476077 0)
(15.0327 -0.0470989 0)
(15.0446 -0.0465998 0)
(15.0561 -0.0461094 0)
(15.0674 -0.0456282 0)
(15.0784 -0.0451551 0)
(15.0891 -0.0446907 0)
(15.0996 -0.0442338 0)
(15.1098 -0.0437851 0)
(15.1197 -0.0433433 0)
(15.1294 -0.0429091 0)
(15.1388 -0.0424814 0)
(15.148 -0.0420608 0)
(15.1569 -0.0416462 0)
(15.1656 -0.0412384 0)
(15.1741 -0.0408362 0)
(15.1823 -0.0404404 0)
(15.1903 -0.0400498 0)
(15.1981 -0.0396654 0)
(15.2056 -0.0392858 0)
(15.213 -0.0389123 0)
(15.2201 -0.0385433 0)
(15.227 -0.0381802 0)
(15.2337 -0.0378213 0)
(15.2402 -0.0374683 0)
(15.2466 -0.0371192 0)
(15.2527 -0.0367761 0)
(15.2586 -0.0364364 0)
(15.2643 -0.0361031 0)
(15.2699 -0.0357725 0)
(15.2753 -0.0354491 0)
(15.2805 -0.035127 0)
(15.2855 -0.0348141 0)
(15.2904 -0.0344995 0)
(15.2951 -0.0341984 0)
(15.2996 -0.0338892 0)
(15.304 -0.0336028 0)
(15.3082 -0.0332942 0)
(15.3122 -0.0330284 0)
(15.3161 -0.0327101 0)
(15.3198 -0.0324766 0)
(15.3235 -0.0321261 0)
(15.3268 -0.0319474 0)
(15.3303 -0.0315177 0)
(15.3332 -0.0314354 0)
(15.3366 -0.0308332 0)
(15.3389 -0.0309164 0)
(15.3425 -0.0299599 0)
(15.3437 -0.0302772 0)
(15.348 -0.0285741 0)
(11.9981 -0.0299114 0)
(12.0194 -0.0875613 0)
(12.0589 -0.140911 0)
(12.1152 -0.189035 0)
(12.187 -0.231607 0)
(12.2723 -0.268137 0)
(12.3687 -0.298081 0)
(12.4729 -0.32122 0)
(12.5819 -0.337767 0)
(12.6926 -0.348186 0)
(12.8024 -0.353033 0)
(12.9095 -0.352961 0)
(13.0123 -0.348594 0)
(13.1096 -0.340574 0)
(13.2005 -0.329592 0)
(13.2847 -0.31635 0)
(13.3619 -0.301508 0)
(13.4321 -0.285649 0)
(13.4956 -0.269273 0)
(13.5525 -0.252803 0)
(13.6032 -0.236587 0)
(13.6483 -0.220905 0)
(13.688 -0.205967 0)
(13.7228 -0.191919 0)
(13.7531 -0.17885 0)
(13.7794 -0.166805 0)
(13.8021 -0.155793 0)
(13.8214 -0.145799 0)
(13.8378 -0.136785 0)
(13.8516 -0.128698 0)
(13.8629 -0.121474 0)
(13.8722 -0.115044 0)
(13.8795 -0.109332 0)
(13.8852 -0.104265 0)
(13.8893 -0.0997705 0)
(13.892 -0.0957784 0)
(13.8935 -0.092224 0)
(13.8938 -0.0890601 0)
(13.8931 -0.0862429 0)
(13.8914 -0.0837263 0)
(13.8889 -0.0814657 0)
(13.8857 -0.0794216 0)
(13.8817 -0.0775602 0)
(13.877 -0.0758528 0)
(13.8717 -0.0742748 0)
(13.8659 -0.0728054 0)
(13.8595 -0.0714275 0)
(13.8526 -0.0701262 0)
(13.8453 -0.0688887 0)
(13.8375 -0.0677039 0)
(13.8293 -0.0665627 0)
(13.8208 -0.0654578 0)
(13.8119 -0.0643834 0)
(13.8027 -0.0633347 0)
(13.7931 -0.0623085 0)
(13.7833 -0.0613018 0)
(13.7732 -0.0603126 0)
(13.7628 -0.0593389 0)
(13.7523 -0.0583795 0)
(13.7415 -0.0574332 0)
(13.7305 -0.0564996 0)
(13.7193 -0.0555782 0)
(13.7079 -0.054669 0)
(13.6964 -0.0537723 0)
(13.6847 -0.0528882 0)
(13.6728 -0.0520157 0)
(13.6609 -0.051154 0)
(13.6488 -0.0503027 0)
(13.6366 -0.049462 0)
(13.6244 -0.048632 0)
(13.612 -0.0478129 0)
(13.5996 -0.0470045 0)
(13.587 -0.046207 0)
(13.5745 -0.0454203 0)
(13.5618 -0.0446446 0)
(13.5492 -0.0438799 0)
(13.5364 -0.0431265 0)
(13.5237 -0.0423843 0)
(13.5109 -0.0416536 0)
(13.4981 -0.0409343 0)
(13.4853 -0.0402268 0)
(13.4725 -0.0395309 0)
(13.4597 -0.0388468 0)
(13.4469 -0.0381744 0)
(13.4341 -0.0375141 0)
(13.4213 -0.0368654 0)
(13.4085 -0.0362288 0)
(13.3958 -0.0356039 0)
(13.3831 -0.034991 0)
(13.3704 -0.0343897 0)
(13.3577 -0.0338005 0)
(13.3451 -0.0332226 0)
(13.3326 -0.0326566 0)
(13.32 -0.0321018 0)
(13.3076 -0.0315589 0)
(13.2952 -0.0310268 0)
(13.2828 -0.0305066 0)
(13.2705 -0.0299968 0)
(13.2583 -0.0294989 0)
(13.2461 -0.0290107 0)
(13.234 -0.0285349 0)
(13.2219 -0.0280677 0)
(13.21 -0.0276139 0)
(13.1981 -0.0271665 0)
(13.1862 -0.0267348 0)
(13.1745 -0.0263056 0)
(13.1628 -0.025897 0)
(13.1512 -0.0254826 0)
(13.1397 -0.0250994 0)
(13.1282 -0.0246926 0)
(13.1169 -0.0243401 0)
(13.1055 -0.0239253 0)
(13.0945 -0.0236145 0)
(13.0829 -0.023157 0)
(13.0727 -0.022911 0)
(13.0605 -0.0223358 0)
(13.0516 -0.0222009 0)
(13.0377 -0.0213451 0)
(13.0321 -0.0213971 0)
(13.0138 -0.0198957 0)
(11.9993 -0.0494088 0)
(12.0388 -0.137346 0)
(12.1051 -0.213389 0)
(12.1876 -0.27999 0)
(12.2766 -0.337844 0)
(12.3634 -0.385824 0)
(12.4408 -0.423104 0)
(12.5034 -0.44988 0)
(12.5483 -0.467171 0)
(12.5742 -0.476108 0)
(12.5822 -0.477818 0)
(12.5733 -0.473442 0)
(12.5496 -0.463961 0)
(12.5132 -0.450303 0)
(12.4661 -0.433383 0)
(12.4101 -0.414039 0)
(12.3472 -0.393017 0)
(12.279 -0.370947 0)
(12.2069 -0.348372 0)
(12.1322 -0.325753 0)
(12.0559 -0.303466 0)
(11.9787 -0.281829 0)
(11.9015 -0.261075 0)
(11.8246 -0.241365 0)
(11.7486 -0.222817 0)
(11.6738 -0.205495 0)
(11.6003 -0.189424 0)
(11.5283 -0.1746 0)
(11.4579 -0.160992 0)
(11.3891 -0.148554 0)
(11.3221 -0.137225 0)
(11.2567 -0.126934 0)
(11.193 -0.117611 0)
(11.131 -0.109176 0)
(11.0705 -0.101556 0)
(11.0115 -0.0946752 0)
(10.954 -0.0884613 0)
(10.898 -0.0828378 0)
(10.8433 -0.0777353 0)
(10.79 -0.0730968 0)
(10.738 -0.0688756 0)
(10.6872 -0.06503 0)
(10.6376 -0.0615211 0)
(10.5892 -0.0583133 0)
(10.542 -0.0553737 0)
(10.4958 -0.0526752 0)
(10.4508 -0.0501952 0)
(10.4068 -0.047912 0)
(10.3638 -0.0458059 0)
(10.3218 -0.0438586 0)
(10.2808 -0.0420533 0)
(10.2408 -0.0403749 0)
(10.2016 -0.0388105 0)
(10.1634 -0.0373483 0)
(10.1261 -0.0359784 0)
(10.0897 -0.0346915 0)
(10.0541 -0.0334799 0)
(10.0194 -0.0323363 0)
(9.98543 -0.0312545 0)
(9.95228 -0.0302291 0)
(9.91992 -0.0292554 0)
(9.88831 -0.028329 0)
(9.85744 -0.0274461 0)
(9.82729 -0.0266037 0)
(9.79785 -0.0257994 0)
(9.76909 -0.0250323 0)
(9.741 -0.0243017 0)
(9.71357 -0.0236057 0)
(9.68677 -0.022942 0)
(9.66059 -0.0223081 0)
(9.63501 -0.021702 0)
(9.61002 -0.0211215 0)
(9.5856 -0.0205649 0)
(9.56174 -0.0200306 0)
(9.53841 -0.0195173 0)
(9.51561 -0.0190237 0)
(9.49332 -0.0185489 0)
(9.47153 -0.0180919 0)
(9.45022 -0.0176518 0)
(9.42938 -0.0172278 0)
(9.409 -0.0168193 0)
(9.38906 -0.0164255 0)
(9.36954 -0.0160459 0)
(9.35045 -0.0156799 0)
(9.33176 -0.015327 0)
(9.31347 -0.0149866 0)
(9.29555 -0.0146584 0)
(9.27802 -0.0143418 0)
(9.26084 -0.0140366 0)
(9.24401 -0.0137422 0)
(9.22752 -0.0134583 0)
(9.21136 -0.0131846 0)
(9.19553 -0.0129206 0)
(9.18 -0.0126661 0)
(9.16478 -0.0124208 0)
(9.14985 -0.0121843 0)
(9.1352 -0.0119563 0)
(9.12084 -0.0117367 0)
(9.10673 -0.011525 0)
(9.0929 -0.0113212 0)
(9.0793 -0.0111246 0)
(9.06596 -0.0109357 0)
(9.05286 -0.0107532 0)
(9.03998 -0.0105784 0)
(9.02733 -0.0104087 0)
(9.01489 -0.0102474 0)
(9.00268 -0.0100889 0)
(8.99064 -0.00994091 0)
(8.97885 -0.00979084 0)
(8.96716 -0.00965626 0)
(8.95581 -0.00950911 0)
(8.9444 -0.00938861 0)
(8.93357 -0.00923314 0)
(8.92225 -0.00912683 0)
(8.9122 -0.00894078 0)
(8.90054 -0.00884348 0)
(8.89196 -0.00858952 0)
(8.87895 -0.00847743 0)
(8.87367 -0.00814001 0)
(8.85667 -0.00798542 0)
(11.9767 -0.0360161 0)