/*--------------------------------*- C++ -*----------------------------------*\
  =========                 |
  \\      /  F ield         | OpenFOAM: The Open Source CFD Toolbox
   \\    /   O peration     | Website:  https://openfoam.org
    \\  /    A nd           | Version:  7
     \\/     M anipulation  |
\*---------------------------------------------------------------------------*/
FoamFile
{
    version     2.0;
    format      ascii;
    class       surfaceScalarField;
    location    "0.195";
    object      phi;
}
// * * * * * * * * * * * * * * * * * * * * * * * * * * * * * * * * * * * * * //

dimensions      [1 0 -1 0 0 0 0];

internalField   nonuniform List<scalar> 
2748
(
0.00198077
1.71824e-05
0.00194027
4.05039e-05
0.00188545
5.48215e-05
0.00182109
6.43538e-05
0.00174952
7.15704e-05
0.00167286
7.66618e-05
0.0015938
7.9061e-05
0.00151574
7.8065e-05
0.00143899
7.67476e-05
0.0013645
7.44865e-05
0.00129316
7.13435e-05
0.00122548
6.76788e-05
0.00116175
6.37293e-05
0.00110216
5.95874e-05
0.00104677
5.53918e-05
0.000995518
5.12554e-05
0.000948267
4.72508e-05
0.000904837
4.34299e-05
0.000865013
3.98238e-05
0.000828561
3.6453e-05
0.000795234
3.33263e-05
0.000764789
3.04455e-05
0.000736983
2.78065e-05
0.000711583
2.54001e-05
0.000688369
2.3214e-05
0.000667135
2.12341e-05
0.000647689
1.94457e-05
0.000629856
1.78333e-05
0.000613474
1.63814e-05
0.0005984
1.5075e-05
0.0005845
1.38993e-05
0.00057166
1.28403e-05
0.000559775
1.18851e-05
0.000548752
1.10235e-05
0.000538501
1.02509e-05
0.000528941
9.55982e-06
0.00052
8.94129e-06
0.000511616
8.38362e-06
0.000503736
7.88007e-06
0.000496314
7.42285e-06
0.000489295
7.01839e-06
0.000482633
6.66276e-06
0.000476288
6.3445e-06
0.000470234
6.0543e-06
0.000464446
5.78803e-06
0.000458902
5.54415e-06
0.000453581
5.32118e-06
0.000448464
5.11706e-06
0.000443534
4.92962e-06
0.000438777
4.75701e-06
0.000434179
4.59776e-06
0.000429729
4.45057e-06
0.000425415
4.31427e-06
0.000421227
4.18774e-06
0.000417157
4.06999e-06
0.000413197
3.96011e-06
0.00040934
3.85732e-06
0.000405579
3.76089e-06
0.000401909
3.67029e-06
0.000398324
3.58482e-06
0.00039482
3.50389e-06
0.000391393
3.42722e-06
0.000388039
3.35433e-06
0.000384754
3.28482e-06
0.000381536
3.21835e-06
0.000378381
3.15467e-06
0.000375287
3.09352e-06
0.000372253
3.0347e-06
0.000369275
2.97795e-06
0.000366352
2.92297e-06
0.000363482
2.86955e-06
0.000360665
2.81759e-06
0.000357898
2.76705e-06
0.00035518
2.71785e-06
0.00035251
2.66994e-06
0.000349887
2.62326e-06
0.000347309
2.57774e-06
0.000344776
2.53334e-06
0.000342286
2.49001e-06
0.000339838
2.44771e-06
0.000337432
2.40641e-06
0.000335066
2.36607e-06
0.000332739
2.32668e-06
0.000330451
2.28819e-06
0.0003282
2.25059e-06
0.000325987
2.21387e-06
0.000323809
2.17798e-06
0.000321666
2.14293e-06
0.000319557
2.10869e-06
0.000317482
2.07527e-06
0.000315439
2.04261e-06
0.000313429
2.01076e-06
0.000311449
1.97959e-06
0.0003095
1.94919e-06
0.00030758
1.91939e-06
0.00030569
1.89036e-06
0.000303828
1.86183e-06
0.000301994
1.83429e-06
0.000300187
1.8072e-06
0.000298405
1.78134e-06
0.00029665
1.75566e-06
0.000294918
1.73149e-06
0.000293211
1.70699e-06
0.000291527
1.68453e-06
0.000289866
1.66097e-06
0.000288226
1.64045e-06
0.000286608
1.6176e-06
0.000285008
1.59952e-06
0.000283431
1.57701e-06
0.000281869
1.56194e-06
0.000280331
1.53889e-06
0.000278803
1.52729e-06
0.000277301
1.50192e-06
0.000275807
1.49395e-06
0.000274345
1.46294e-06
0.000272888
1.4565e-06
0.000271475
1.41342e-06
0.000270078
1.39706e-06
0.000268743
1.33419e-06
1.30451e-06
0.00200642
8.71019e-06
0.00202218
2.474e-05
0.00203995
3.70538e-05
0.00205772
4.65773e-05
0.00207464
5.46525e-05
0.0020896
6.17033e-05
0.00210136
6.72983e-05
0.00210821
7.12186e-05
0.00211102
7.39406e-05
0.00210997
7.5537e-05
0.00210523
7.6083e-05
0.00209701
7.58968e-05
0.0020858
7.49411e-05
0.00207208
7.33048e-05
0.00205628
7.11923e-05
0.0020388
6.87408e-05
0.00201998
6.60662e-05
0.00200015
6.32632e-05
0.00197956
6.04071e-05
0.00195845
5.7563e-05
0.001937
5.47753e-05
0.00191537
5.20782e-05
0.00189368
4.9497e-05
0.00187203
4.70474e-05
0.00185051
4.4738e-05
0.00182917
4.25723e-05
0.00180807
4.05495e-05
0.00178724
3.86661e-05
0.0017667
3.69156e-05
0.00174649
3.52903e-05
0.00172661
3.37801e-05
0.00170707
3.23743e-05
0.0016879
3.10612e-05
0.00166908
2.98383e-05
0.00165062
2.87095e-05
0.00163251
2.76718e-05
0.00161474
2.67141e-05
0.00159729
2.58284e-05
0.0015802
2.49705e-05
0.00156357
2.40523e-05
0.00154726
2.33374e-05
0.00153123
2.26837e-05
0.00151552
2.20638e-05
0.0015001
2.14735e-05
0.00148497
2.09129e-05
0.00147013
2.03813e-05
0.00145558
1.98764e-05
0.0014413
1.93953e-05
0.0014273
1.89359e-05
0.00141356
1.84967e-05
0.00140008
1.80764e-05
0.00138685
1.76739e-05
0.00137388
1.72879e-05
0.00136115
1.69173e-05
0.00134866
1.65608e-05
0.0013364
1.62175e-05
0.00132437
1.58866e-05
0.00131257
1.55672e-05
0.00130098
1.52587e-05
0.0012896
1.49603e-05
0.00127844
1.46713e-05
0.00126747
1.43912e-05
0.00125671
1.41194e-05
0.00124614
1.38554e-05
0.00123576
1.35988e-05
0.00122556
1.33492e-05
0.00121555
1.31063e-05
0.00120571
1.28696e-05
0.00119605
1.26388e-05
0.00118656
1.24134e-05
0.00117724
1.21929e-05
0.00116808
1.19774e-05
0.00115908
1.17668e-05
0.00115024
1.15608e-05
0.00114155
1.13596e-05
0.00113301
1.11628e-05
0.00112462
1.09705e-05
0.00111637
1.07825e-05
0.00110826
1.05988e-05
0.00110029
1.04192e-05
0.00109245
1.02436e-05
0.00108474
1.00721e-05
0.00107717
9.90441e-06
0.00106971
9.74056e-06
0.00106238
9.58048e-06
0.00105517
9.42412e-06
0.00104808
9.27139e-06
0.0010411
9.12224e-06
0.00103423
8.97659e-06
0.00102747
8.83439e-06
0.00102082
8.69553e-06
0.00101427
8.56e-06
0.00100782
8.42762e-06
0.00100147
8.29842e-06
0.000995222
8.17214e-06
0.000989063
8.04895e-06
0.000982997
7.92854e-06
0.00097702
7.81145e-06
0.00097113
7.6971e-06
0.000965325
7.58626e-06
0.000959603
7.4778e-06
0.000953961
7.37307e-06
0.000948398
7.27007e-06
0.000942911
7.17131e-06
0.000937499
7.07333e-06
0.000932159
6.98059e-06
0.000926889
6.88725e-06
0.000921688
6.80083e-06
0.000916554
6.71165e-06
0.000911484
6.63172e-06
0.000906477
6.54587e-06
0.000901532
6.47187e-06
0.000896646
6.38802e-06
0.000891823
6.31743e-06
0.000887052
6.23377e-06
0.00088235
6.15822e-06
0.000877691
6.07227e-06
0.000873119
5.96911e-06
0.000868568
5.88567e-06
5.75717e-06
0.00200064
6.0123e-06
0.00200852
1.68594e-05
0.00201942
2.61505e-05
0.00203234
3.36554e-05
0.00204726
3.97331e-05
0.00206416
4.48062e-05
0.00208239
4.90672e-05
0.0021012
5.24098e-05
0.00212033
5.48107e-05
0.00213944
5.64313e-05
0.00215811
5.7408e-05
0.00217618
5.78249e-05
0.00219339
5.7734e-05
0.00220949
5.7206e-05
0.00222435
5.63292e-05
0.00223791
5.51877e-05
0.00225012
5.38545e-05
0.00226099
5.23902e-05
0.00227056
5.08442e-05
0.00227886
4.92579e-05
0.00228597
4.7665e-05
0.00229196
4.60914e-05
0.0022969
4.45577e-05
0.00230087
4.30784e-05
0.00230394
4.16637e-05
0.00230619
4.03197e-05
0.00230769
3.90494e-05
0.00230851
3.78537e-05
0.00230869
3.67313e-05
0.0023083
3.56796e-05
0.00230739
3.46946e-05
0.00230599
3.37684e-05
0.0023042
3.2854e-05
0.00230205
3.19843e-05
0.00229955
3.12113e-05
0.00229673
3.04947e-05
0.00229362
2.98239e-05
0.00229026
2.91929e-05
0.00228663
2.85955e-05
0.00228264
2.80402e-05
0.00227843
2.75471e-05
0.00227403
2.70906e-05
0.00226944
2.66544e-05
0.00226467
2.62355e-05
0.00225975
2.5835e-05
0.00225468
2.54532e-05
0.00224947
2.5089e-05
0.00224412
2.47409e-05
0.00223865
2.44075e-05
0.00223306
2.40876e-05
0.00222736
2.37803e-05
0.00222155
2.34846e-05
0.00221564
2.31995e-05
0.00220963
2.29243e-05
0.00220353
2.2658e-05
0.00219735
2.24001e-05
0.00219109
2.21499e-05
0.00218475
2.19069e-05
0.00217833
2.16705e-05
0.00217185
2.14403e-05
0.00216531
2.12157e-05
0.0021587
2.09962e-05
0.00215204
2.07813e-05
0.00214533
2.05708e-05
0.00213856
2.03641e-05
0.00213175
2.01611e-05
0.0021249
1.99616e-05
0.002118
1.97665e-05
0.00211106
1.9574e-05
0.00210409
1.93826e-05
0.00209709
1.91933e-05
0.00209007
1.90057e-05
0.00208301
1.882e-05
0.00207594
1.86363e-05
0.00206884
1.84544e-05
0.00206173
1.82745e-05
0.00205461
1.80966e-05
0.00204747
1.79206e-05
0.00204032
1.77466e-05
0.00203316
1.75745e-05
0.002026
1.74044e-05
0.00201884
1.72363e-05
0.00201167
1.70701e-05
0.00200451
1.69059e-05
0.00199735
1.67437e-05
0.00199019
1.65835e-05
0.00198303
1.64253e-05
0.00197589
1.62693e-05
0.00196875
1.61152e-05
0.00196162
1.59633e-05
0.0019545
1.58135e-05
0.00194739
1.56658e-05
0.0019403
1.55201e-05
0.00193322
1.53764e-05
0.00192616
1.52343e-05
0.00191912
1.50936e-05
0.00191209
1.49548e-05
0.00190508
1.48189e-05
0.0018981
1.46849e-05
0.00189113
1.4554e-05
0.00188418
1.44248e-05
0.00187726
1.42988e-05
0.00187035
1.41743e-05
0.00186347
1.40532e-05
0.00185661
1.39331e-05
0.00184977
1.38168e-05
0.00184296
1.37012e-05
0.00183617
1.35895e-05
0.0018294
1.34789e-05
0.00182266
1.33709e-05
0.00181594
1.3266e-05
0.00180926
1.31594e-05
0.00180258
1.30617e-05
0.00179595
1.29501e-05
0.00178932
1.28643e-05
0.00178275
1.2732e-05
0.00177615
1.26678e-05
0.00176965
1.24657e-05
0.00176311
1.24262e-05
1.2099e-05
0.00200027
3.68237e-06
0.00200624
1.08874e-05
0.00201508
1.73098e-05
0.0020261
2.26306e-05
0.00203892
2.69161e-05
0.00205332
3.04084e-05
0.0020691
3.3291e-05
0.00208592
3.55861e-05
0.00210346
3.72699e-05
0.00212148
3.84135e-05
0.00213976
3.91253e-05
0.0021581
3.94882e-05
0.00217627
3.95603e-05
0.0021941
3.93801e-05
0.00221144
3.89872e-05
0.0022282
3.84278e-05
0.00224431
3.77465e-05
0.00225972
3.69804e-05
0.0022744
3.61588e-05
0.00228836
3.53053e-05
0.00230158
3.44395e-05
0.0023141
3.3577e-05
0.00232593
3.27299e-05
0.0023371
3.19066e-05
0.00234765
3.11134e-05
0.00235761
3.0354e-05
0.00236703
2.96307e-05
0.00237594
2.89448e-05
0.00238438
2.82956e-05
0.00239238
2.76801e-05
0.00239998
2.70939e-05
0.00240721
2.65324e-05
0.00241407
2.59934e-05
0.00242058
2.54838e-05
0.00242678
2.5011e-05
0.0024327
2.45701e-05
0.00243837
2.41552e-05
0.0024438
2.37616e-05
0.00244901
2.33904e-05
0.002454
2.30511e-05
0.00245876
2.2781e-05
0.00246336
2.24878e-05
0.00246781
2.22084e-05
0.0024721
2.19472e-05
0.00247623
2.17003e-05
0.00248022
2.14657e-05
0.00248407
2.12431e-05
0.00248778
2.10323e-05
0.00249135
2.08327e-05
0.0024948
2.06434e-05
0.00249811
2.04634e-05
0.0025013
2.0292e-05
0.00250438
2.01284e-05
0.00250733
1.99721e-05
0.00251016
1.98223e-05
0.00251289
1.96786e-05
0.0025155
1.95406e-05
0.00251799
1.94081e-05
0.00252038
1.92807e-05
0.00252267
1.91578e-05
0.00252484
1.90388e-05
0.00252692
1.89235e-05
0.00252889
1.88113e-05
0.00253076
1.8702e-05
0.00253252
1.85953e-05
0.00253419
1.84909e-05
0.00253577
1.83886e-05
0.00253725
1.8288e-05
0.00253863
1.81888e-05
0.00253992
1.80905e-05
0.00254112
1.7993e-05
0.00254223
1.78965e-05
0.00254325
1.78007e-05
0.00254418
1.77058e-05
0.00254503
1.76116e-05
0.00254578
1.75181e-05
0.00254645
1.74253e-05
0.00254704
1.73331e-05
0.00254755
1.72416e-05
0.00254797
1.71509e-05
0.00254831
1.70609e-05
0.00254858
1.69716e-05
0.00254877
1.6883e-05
0.00254888
1.67953e-05
0.00254891
1.67083e-05
0.00254887
1.66222e-05
0.00254876
1.6537e-05
0.00254858
1.64526e-05
0.00254833
1.63693e-05
0.002548
1.62868e-05
0.00254761
1.62054e-05
0.00254715
1.6125e-05
0.00254663
1.60457e-05
0.00254603
1.59672e-05
0.00254538
1.58896e-05
0.00254466
1.58127e-05
0.00254388
1.57371e-05
0.00254304
1.56623e-05
0.00254213
1.55895e-05
0.00254117
1.55173e-05
0.00254014
1.54477e-05
0.00253907
1.5378e-05
0.00253793
1.53119e-05
0.00253674
1.52445e-05
0.00253549
1.51824e-05
0.00253419
1.51166e-05
0.00253283
1.50597e-05
0.00253142
1.49944e-05
0.00252996
1.49443e-05
0.00252845
1.4877e-05
0.00252688
1.48367e-05
0.00252528
1.47627e-05
0.0025236
1.47369e-05
0.00252191
1.46471e-05
0.00252013
1.46435e-05
0.00251834
1.45219e-05
0.00251645
1.45542e-05
0.00251454
1.43786e-05
0.00251249
1.44709e-05
1.40671e-05
0.00199964
1.97667e-06
0.00200462
5.91279e-06
0.00201245
9.47675e-06
0.00202266
1.24235e-05
0.00203479
1.47823e-05
0.00204853
1.66687e-05
0.00206362
1.82026e-05
0.00207976
1.94451e-05
0.00209662
2.04114e-05
0.00211391
2.11258e-05
0.00213139
2.16377e-05
0.00214889
2.19956e-05
0.00216622
2.22239e-05
0.00218327
2.23338e-05
0.00219992
2.23402e-05
0.00221608
2.22645e-05
0.0022317
2.21274e-05
0.00224673
2.1945e-05
0.00226116
2.17293e-05
0.00227498
2.14905e-05
0.00228818
2.12368e-05
0.00230078
2.09746e-05
0.00231281
2.07082e-05
0.00232427
2.04409e-05
0.00233521
2.01737e-05
0.00234566
1.99087e-05
0.00235564
1.96448e-05
0.0023652
1.93856e-05
0.00237437
1.91316e-05
0.00238317
1.88795e-05
0.00239164
1.86269e-05
0.00239979
1.83738e-05
0.00240767
1.81207e-05
0.00241528
1.78682e-05
0.00242267
1.76212e-05
0.00242986
1.73836e-05
0.00243686
1.71561e-05
0.00244368
1.69381e-05
0.00245034
1.6731e-05
0.00245686
1.65371e-05
0.00246328
1.63572e-05
0.00246958
1.61834e-05
0.00247578
1.60165e-05
0.00248187
1.58581e-05
0.00248786
1.57078e-05
0.00249376
1.55646e-05
0.00249957
1.54284e-05
0.00250531
1.52988e-05
0.00251096
1.5176e-05
0.00251655
1.50595e-05
0.00252206
1.4949e-05
0.00252751
1.48441e-05
0.00253289
1.47447e-05
0.00253822
1.46502e-05
0.00254348
1.45606e-05
0.00254868
1.44747e-05
0.00255383
1.43918e-05
0.00255893
1.43142e-05
0.00256397
1.42407e-05
0.00256895
1.41707e-05
0.00257389
1.4104e-05
0.00257877
1.40402e-05
0.0025836
1.39789e-05
0.00258839
1.392e-05
0.00259312
1.3863e-05
0.0025978
1.38078e-05
0.00260244
1.3754e-05
0.00260702
1.37015e-05
0.00261156
1.36502e-05
0.00261605
1.35997e-05
0.0026205
1.35499e-05
0.00262489
1.35007e-05
0.00262924
1.3452e-05
0.00263354
1.34036e-05
0.0026378
1.33556e-05
0.00264201
1.33077e-05
0.00264617
1.32601e-05
0.00265029
1.32129e-05
0.00265437
1.3166e-05
0.0026584
1.31195e-05
0.00266239
1.30735e-05
0.00266633
1.30278e-05
0.00267023
1.29827e-05
0.00267409
1.2938e-05
0.00267791
1.28939e-05
0.00268168
1.28503e-05
0.00268541
1.28074e-05
0.00268909
1.2765e-05
0.00269274
1.27233e-05
0.00269635
1.26823e-05
0.00269991
1.2642e-05
0.00270343
1.26024e-05
0.00270691
1.2564e-05
0.00271035
1.25265e-05
0.00271375
1.24896e-05
0.00271711
1.24531e-05
0.00272043
1.24174e-05
0.00272371
1.23822e-05
0.00272696
1.23483e-05
0.00273016
1.23151e-05
0.00273332
1.22836e-05
0.00273645
1.22525e-05
0.00273954
1.22238e-05
0.00274259
1.2195e-05
0.0027456
1.21694e-05
0.00274857
1.21427e-05
0.00275151
1.21209e-05
0.00275441
1.20957e-05
0.00275728
1.20787e-05
0.0027601
1.2054e-05
0.00276289
1.20432e-05
0.00276564
1.20169e-05
0.00276836
1.20147e-05
0.00277102
1.19828e-05
0.00277368
1.19927e-05
0.00277625
1.19485e-05
0.00277883
1.19751e-05
0.0027813
1.19054e-05
0.00278383
1.19452e-05
1.17555e-05
0.00199946
4.52123e-07
0.00200404
1.33559e-06
0.00201141
2.09866e-06
0.00202118
2.65904e-06
0.00203292
3.03682e-06
0.00204631
3.28657e-06
0.00206103
3.47884e-06
0.00207681
3.66669e-06
0.00209335
3.87343e-06
0.00211037
4.10578e-06
0.00212764
4.36918e-06
0.00214496
4.66825e-06
0.00216219
4.99809e-06
0.00217917
5.351e-06
0.00219579
5.7268e-06
0.00221193
6.12321e-06
0.00222752
6.53083e-06
0.00224253
6.94004e-06
0.00225691
7.34393e-06
0.00227067
7.7368e-06
0.00228379
8.11318e-06
0.0022963
8.46794e-06
0.00230821
8.7964e-06
0.00231956
9.09481e-06
0.00233037
9.36053e-06
0.00234069
9.59304e-06
0.00235054
9.79446e-06
0.00235995
9.96986e-06
0.00236897
1.01112e-05
0.00237764
1.02167e-05
0.00238597
1.02892e-05
0.00239401
1.03324e-05
0.00240179
1.03492e-05
0.00240931
1.03431e-05
0.00241661
1.03193e-05
0.00242371
1.02825e-05
0.00243064
1.02355e-05
0.00243739
1.01799e-05
0.00244401
1.01182e-05
0.00245049
1.00528e-05
0.00245686
9.98783e-06
0.00246312
9.92361e-06
0.00246928
9.8582e-06
0.00247535
9.79144e-06
0.00248133
9.72438e-06
0.00248724
9.65803e-06
0.00249307
9.59311e-06
0.00249884
9.53011e-06
0.00250455
9.46947e-06
0.0025102
9.41147e-06
0.00251579
9.35629e-06
0.00252133
9.304e-06
0.00252682
9.25461e-06
0.00253226
9.20804e-06
0.00253766
9.16418e-06
0.00254301
9.12285e-06
0.00254832
9.0841e-06
0.00255358
9.04825e-06
0.00255881
9.01512e-06
0.002564
8.98438e-06
0.00256914
8.95573e-06
0.00257425
8.92893e-06
0.00257933
8.90376e-06
0.00258437
8.87999e-06
0.00258938
8.85743e-06
0.00259435
8.83587e-06
0.00259929
8.81514e-06
0.00260419
8.79509e-06
0.00260907
8.7756e-06
0.00261391
8.75648e-06
0.00261872
8.73759e-06
0.00262351
8.7188e-06
0.00262826
8.70025e-06
0.00263298
8.68193e-06
0.00263767
8.66313e-06
0.00264234
8.64415e-06
0.00264697
8.62507e-06
0.00265158
8.60592e-06
0.00265616
8.58673e-06
0.00266071
8.56755e-06
0.00266523
8.54843e-06
0.00266973
8.5294e-06
0.00267421
8.51049e-06
0.00267865
8.49174e-06
0.00268307
8.4732e-06
0.00268747
8.45488e-06
0.00269184
8.43683e-06
0.00269618
8.41908e-06
0.00270051
8.40169e-06
0.0027048
8.3847e-06
0.00270908
8.36821e-06
0.00271333
8.35226e-06
0.00271756
8.33691e-06
0.00272176
8.32196e-06
0.00272594
8.30722e-06
0.0027301
8.29256e-06
0.00273424
8.27827e-06
0.00273836
8.26463e-06
0.00274246
8.25192e-06
0.00274653
8.23995e-06
0.00275059
8.22902e-06
0.00275462
8.21884e-06
0.00275863
8.20996e-06
0.00276263
8.20182e-06
0.0027666
8.19527e-06
0.00277055
8.18929e-06
0.00277449
8.18535e-06
0.0027784
8.18167e-06
0.0027823
8.18067e-06
0.00278618
8.17939e-06
0.00279004
8.18176e-06
0.00279387
8.18296e-06
0.0027977
8.18926e-06
0.00280149
8.19314e-06
0.00280528
8.20409e-06
0.00280901
8.21093e-06
0.00281276
8.2261e-06
0.00281644
8.23292e-06
0.00282014
8.24059e-06
8.22885e-06
0.00199942
-1.03592e-06
0.00200385
-3.09587e-06
0.00201103
-5.07955e-06
0.00202062
-6.9313e-06
0.00203225
-8.59139e-06
0.00204557
-1.0034e-05
0.00206027
-1.1219e-05
0.00207604
-1.21077e-05
0.0020926
-1.26818e-05
0.00210966
-1.29523e-05
0.00212698
-1.29488e-05
0.00214435
-1.27057e-05
0.0021616
-1.22543e-05
0.00217858
-1.16273e-05
0.00219516
-1.08547e-05
0.00221124
-9.95774e-06
0.00222676
-8.98663e-06
0.00224168
-7.98156e-06
0.00225599
-6.95937e-06
0.00226966
-5.93933e-06
0.00228271
-4.93871e-06
0.00229515
-3.97289e-06
0.00230701
-3.05363e-06
0.00231829
-2.19183e-06
0.00232905
-1.39505e-06
0.00233932
-6.75393e-07
0.00234916
-5.37509e-08
0.00235855
5.88328e-07
0.00236753
1.12364e-06
0.00237617
1.58345e-06
0.00238448
1.98111e-06
0.00239249
2.3214e-06
0.00240023
2.60801e-06
0.00240772
2.8467e-06
0.002415
3.04452e-06
0.00242208
3.20665e-06
0.00242897
3.33732e-06
0.00243571
3.44106e-06
0.00244231
3.52276e-06
0.00244877
3.58743e-06
0.00245512
3.63921e-06
0.00246137
3.68027e-06
0.00246751
3.71147e-06
0.00247357
3.73402e-06
0.00247955
3.74965e-06
0.00248544
3.76017e-06
0.00249127
3.76701e-06
0.00249703
3.77132e-06
0.00250272
3.77393e-06
0.00250836
3.77561e-06
0.00251394
3.77689e-06
0.00251947
3.77825e-06
0.00252494
3.77998e-06
0.00253037
3.78236e-06
0.00253574
3.78551e-06
0.00254108
3.78958e-06
0.00254637
3.7946e-06
0.00255162
3.80071e-06
0.00255682
3.80798e-06
0.00256199
3.81636e-06
0.00256712
3.8257e-06
0.00257221
3.83585e-06
0.00257727
3.84668e-06
0.00258229
3.85804e-06
0.00258728
3.86979e-06
0.00259224
3.8818e-06
0.00259716
3.89393e-06
0.00260205
3.90605e-06
0.0026069
3.91806e-06
0.00261173
3.92984e-06
0.00261653
3.9413e-06
0.00262129
3.95237e-06
0.00262603
3.96302e-06
0.00263074
3.97314e-06
0.00263542
3.98261e-06
0.00264007
3.99145e-06
0.0026447
3.99972e-06
0.0026493
4.00747e-06
0.00265387
4.01476e-06
0.00265841
4.02162e-06
0.00266294
4.0281e-06
0.00266743
4.03424e-06
0.0026719
4.04008e-06
0.00267635
4.04566e-06
0.00268077
4.05102e-06
0.00268517
4.05621e-06
0.00268954
4.06127e-06
0.0026939
4.06624e-06
0.00269823
4.07117e-06
0.00270254
4.07614e-06
0.00270682
4.08124e-06
0.00271109
4.0866e-06
0.00271533
4.09228e-06
0.00271956
4.09813e-06
0.00272376
4.10337e-06
0.00272795
4.10757e-06
0.00273211
4.11235e-06
0.00273626
4.11799e-06
0.00274039
4.12417e-06
0.0027445
4.13084e-06
0.00274859
4.13795e-06
0.00275266
4.14583e-06
0.00275672
4.15421e-06
0.00276075
4.16367e-06
0.00276478
4.17348e-06
0.00276878
4.18491e-06
0.00277277
4.19623e-06
0.00277674
4.21022e-06
0.0027807
4.22298e-06
0.00278464
4.24054e-06
0.00278857
4.2544e-06
0.00279247
4.27742e-06
0.00279637
4.29155e-06
0.00280024
4.32374e-06
0.00280411
4.33644e-06
0.00280793
4.38459e-06
0.00281177
4.39256e-06
0.00281553
4.47027e-06
0.0028193
4.47299e-06
4.59402e-06
0.00199948
-2.5774e-06
0.00200401
-7.62567e-06
0.00201131
-1.23859e-05
0.00202107
-1.66862e-05
0.00203292
-2.04448e-05
0.00204652
-2.36348e-05
0.00206153
-2.62308e-05
0.00207763
-2.82015e-05
0.00209449
-2.95415e-05
0.00211183
-3.02914e-05
0.0021294
-3.05222e-05
0.002147
-3.03087e-05
0.00216445
-2.97049e-05
0.0021816
-2.87759e-05
0.00219833
-2.75795e-05
0.00221454
-2.61655e-05
0.00223017
-2.46182e-05
0.00224518
-2.29919e-05
0.00225954
-2.13263e-05
0.00227326
-1.96563e-05
0.00228634
-1.80125e-05
0.00229878
-1.64203e-05
0.00231063
-1.49003e-05
0.00232191
-1.34681e-05
0.00233265
-1.21345e-05
0.00234288
-1.09056e-05
0.0023526
-9.77982e-06
0.00236194
-8.74706e-06
0.00237088
-7.82137e-06
0.00237947
-7.00162e-06
0.00238773
-6.27888e-06
0.00239569
-5.64466e-06
0.0024034
-5.09731e-06
0.00241087
-4.62204e-06
0.00241812
-4.20523e-06
0.00242517
-3.84899e-06
0.00243206
-3.54518e-06
0.00243878
-3.28505e-06
0.00244537
-3.06194e-06
0.00245183
-2.86907e-06
0.00245817
-2.70068e-06
0.0024644
-2.55285e-06
0.00247053
-2.42301e-06
0.00247658
-2.3089e-06
0.00248253
-2.20827e-06
0.00248841
-2.11882e-06
0.00249422
-2.03848e-06
0.00249996
-1.96548e-06
0.00250563
-1.89837e-06
0.00251124
-1.83591e-06
0.00251679
-1.7771e-06
0.00252229
-1.72107e-06
0.00252774
-1.66717e-06
0.00253314
-1.61483e-06
0.00253849
-1.56367e-06
0.00254379
-1.51333e-06
0.00254905
-1.46358e-06
0.00255426
-1.41416e-06
0.00255944
-1.36492e-06
0.00256457
-1.31576e-06
0.00256966
-1.26675e-06
0.00257472
-1.21789e-06
0.00257973
-1.16932e-06
0.00258471
-1.12107e-06
0.00258965
-1.07326e-06
0.00259456
-1.02593e-06
0.00259943
-9.79209e-07
0.00260427
-9.33139e-07
0.00260908
-8.87836e-07
0.00261385
-8.43326e-07
0.00261859
-7.99715e-07
0.0026233
-7.57008e-07
0.00262798
-7.1529e-07
0.00263263
-6.74529e-07
0.00263725
-6.3482e-07
0.00264184
-5.9613e-07
0.00264639
-5.58487e-07
0.00265092
-5.21782e-07
0.00265542
-4.86012e-07
0.0026599
-4.51063e-07
0.00266434
-4.16939e-07
0.00266876
-3.83527e-07
0.00267315
-3.50842e-07
0.00267752
-3.18765e-07
0.00268185
-2.87319e-07
0.00268617
-2.56385e-07
0.00269045
-2.25995e-07
0.00269472
-1.9602e-07
0.00269895
-1.66499e-07
0.00270317
-1.37271e-07
0.00270736
-1.08365e-07
0.00271152
-7.9514e-08
0.00271567
-5.05853e-08
0.00271978
-2.05302e-08
0.00272388
8.43434e-09
0.00272795
3.2893e-08
0.00273201
5.94582e-08
0.00273604
8.68047e-08
0.00274005
1.14047e-07
0.00274404
1.41582e-07
0.00274801
1.69015e-07
0.00275196
1.97246e-07
0.00275588
2.25252e-07
0.00275979
2.54654e-07
0.00276368
2.8326e-07
0.00276755
3.14442e-07
0.00277141
3.43505e-07
0.00277524
3.77544e-07
0.00277906
4.06464e-07
0.00278285
4.45349e-07
0.00278663
4.72679e-07
0.00279039
5.204e-07
0.00279414
5.43151e-07
0.00279786
6.07782e-07
0.00280157
6.2021e-07
0.00280524
7.17807e-07
0.00280892
7.10056e-07
0.00281252
8.72184e-07
0.00281616
8.31817e-07
1.13051e-06
0.00199966
-4.30222e-06
0.00200459
-1.25521e-05
0.00201238
-2.01825e-05
0.00202268
-2.69786e-05
0.00203511
-3.28822e-05
0.00204936
-3.78853e-05
0.00206508
-4.19418e-05
0.00208188
-4.50033e-05
0.00209942
-4.70887e-05
0.00211742
-4.82897e-05
0.00213562
-4.87209e-05
0.0021538
-4.84909e-05
0.00217179
-4.76924e-05
0.00218943
-4.64104e-05
0.00220658
-4.47346e-05
0.00222317
-4.27574e-05
0.00223913
-4.05696e-05
0.00225438
-3.82496e-05
0.00226892
-3.5863e-05
0.00228273
-3.34651e-05
0.00229582
-3.11024e-05
0.00230821
-2.88126e-05
0.00231994
-2.66258e-05
0.00233103
-2.45631e-05
0.00234154
-2.26397e-05
0.00235149
-2.08627e-05
0.00236095
-1.92367e-05
0.00236996
-1.77581e-05
0.00237856
-1.64228e-05
0.00238679
-1.52274e-05
0.00239468
-1.41651e-05
0.00240226
-1.32255e-05
0.00240956
-1.23985e-05
0.00241661
-1.16685e-05
0.00242342
-1.10147e-05
0.00243002
-1.04502e-05
0.00243643
-9.96137e-06
0.00244268
-9.53587e-06
0.00244878
-9.16187e-06
0.00245474
-8.82749e-06
0.00246057
-8.52793e-06
0.00246628
-8.25934e-06
0.00247187
-8.01782e-06
0.00247736
-7.79952e-06
0.00248276
-7.601e-06
0.00248806
-7.41908e-06
0.00249327
-7.251e-06
0.0024984
-7.09431e-06
0.00250345
-6.94703e-06
0.00250842
-6.80746e-06
0.00251331
-6.67426e-06
0.00251814
-6.54626e-06
0.0025229
-6.4226e-06
0.00252758
-6.30247e-06
0.00253221
-6.18535e-06
0.00253676
-6.07071e-06
0.00254126
-5.95821e-06
0.00254569
-5.84751e-06
0.00255006
-5.73842e-06
0.00255438
-5.63077e-06
0.00255864
-5.5245e-06
0.00256284
-5.41957e-06
0.00256699
-5.31602e-06
0.00257108
-5.21382e-06
0.00257512
-5.11306e-06
0.00257911
-5.01372e-06
0.00258304
-4.9159e-06
0.00258693
-4.81958e-06
0.00259077
-4.72487e-06
0.00259456
-4.63173e-06
0.0025983
-4.54027e-06
0.00260199
-4.45045e-06
0.00260564
-4.36235e-06
0.00260924
-4.2759e-06
0.0026128
-4.1912e-06
0.00261631
-4.10815e-06
0.00261978
-4.02681e-06
0.0026232
-3.94704e-06
0.00262658
-3.86885e-06
0.00262993
-3.79209e-06
0.00263323
-3.71679e-06
0.00263648
-3.6428e-06
0.0026397
-3.57016e-06
0.00264288
-3.49872e-06
0.00264603
-3.42852e-06
0.00264913
-3.35942e-06
0.00265219
-3.29149e-06
0.00265522
-3.22453e-06
0.00265821
-3.15865e-06
0.00266117
-3.0936e-06
0.00266409
-3.02946e-06
0.00266698
-2.96596e-06
0.00266983
-2.90328e-06
0.00267265
-2.84131e-06
0.00267544
-2.78076e-06
0.0026782
-2.72157e-06
0.00268092
-2.66304e-06
0.00268361
-2.60453e-06
0.00268627
-2.54664e-06
0.0026889
-2.48889e-06
0.0026915
-2.43199e-06
0.00269407
-2.37478e-06
0.00269662
-2.31859e-06
0.00269913
-2.26137e-06
0.00270162
-2.20583e-06
0.00270409
-2.1479e-06
0.00270652
-2.09323e-06
0.00270893
-2.03342e-06
0.00271132
-1.98044e-06
0.00271368
-1.91647e-06
0.00271602
-1.86696e-06
0.00271834
-1.79405e-06
0.00272063
-1.7518e-06
0.0027229
-1.65998e-06
0.00272515
-1.63251e-06
0.00272737
-1.50149e-06
0.00272958
-1.50214e-06
0.00273175
-1.28902e-06
0.00273391
-1.32944e-06
-9.46724e-07
0.00199973
-6.08962e-06
0.0020053
-1.81312e-05
0.00201405
-2.89236e-05
0.0020255
-3.84348e-05
0.00203942
-4.67981e-05
0.00205544
-5.39057e-05
0.00207305
-5.95534e-05
0.00209168
-6.36354e-05
0.00211082
-6.62263e-05
0.00213002
-6.74897e-05
0.00214891
-6.76149e-05
0.00216721
-6.679e-05
0.00218469
-6.51711e-05
0.00220119
-6.29111e-05
0.00221662
-6.01645e-05
0.00223094
-5.70733e-05
0.00224413
-5.37633e-05
0.00225622
-5.03409e-05
0.00226726
-4.68943e-05
0.00227729
-4.34945e-05
0.00228638
-4.01965e-05
0.00229461
-3.70442e-05
0.00230205
-3.40678e-05
0.00230878
-3.12875e-05
0.00231485
-2.87155e-05
0.00232035
-2.63559e-05
0.00232532
-2.42068e-05
0.00232982
-2.22612e-05
0.00233391
-2.05097e-05
0.00233762
-1.89417e-05
0.002341
-1.75448e-05
0.00234408
-1.63037e-05
0.00234688
-1.52016e-05
0.00234944
-1.42235e-05
0.00235178
-1.33597e-05
0.00235393
-1.25987e-05
0.0023559
-1.19269e-05
0.0023577
-1.13384e-05
0.00235936
-1.08249e-05
0.00236089
-1.0349e-05
0.00236228
-9.91775e-06
0.00236354
-9.52656e-06
0.0023647
-9.17016e-06
0.00236574
-8.8439e-06
0.00236668
-8.5438e-06
0.00236753
-8.26636e-06
0.00236829
-8.00846e-06
0.00236896
-7.76732e-06
0.00236956
-7.54053e-06
0.00237007
-7.32607e-06
0.00237052
-7.12225e-06
0.0023709
-6.92765e-06
0.00237122
-6.74112e-06
0.00237148
-6.56168e-06
0.00237168
-6.38854e-06
0.00237184
-6.22105e-06
0.00237194
-6.05868e-06
0.00237199
-5.90097e-06
0.002372
-5.74759e-06
0.00237197
-5.59824e-06
0.00237189
-5.45273e-06
0.00237179
-5.31089e-06
0.00237164
-5.17263e-06
0.00237147
-5.03784e-06
0.00237126
-4.90647e-06
0.00237103
-4.77845e-06
0.00237076
-4.65372e-06
0.00237048
-4.53224e-06
0.00237017
-4.41397e-06
0.00236983
-4.29884e-06
0.00236948
-4.18684e-06
0.00236911
-4.0779e-06
0.00236872
-3.97199e-06
0.00236831
-3.86902e-06
0.00236789
-3.76896e-06
0.00236745
-3.67171e-06
0.002367
-3.57723e-06
0.00236654
-3.48539e-06
0.00236607
-3.39613e-06
0.00236558
-3.30931e-06
0.00236509
-3.22488e-06
0.00236459
-3.14272e-06
0.00236409
-3.06277e-06
0.00236357
-2.98493e-06
0.00236305
-2.90916e-06
0.00236253
-2.83532e-06
0.002362
-2.7634e-06
0.00236147
-2.69326e-06
0.00236094
-2.62489e-06
0.0023604
-2.55812e-06
0.00235986
-2.49298e-06
0.00235933
-2.42932e-06
0.00235879
-2.36721e-06
0.00235826
-2.30654e-06
0.00235772
-2.24736e-06
0.00235719
-2.18969e-06
0.00235666
-2.13365e-06
0.00235614
-2.07865e-06
0.00235561
-2.02482e-06
0.0023551
-1.97175e-06
0.00235459
-1.91983e-06
0.00235408
-1.86841e-06
0.00235358
-1.8183e-06
0.00235309
-1.76823e-06
0.0023526
-1.71976e-06
0.00235212
-1.67047e-06
0.00235165
-1.62359e-06
0.00235119
-1.57431e-06
0.00235074
-1.52925e-06
0.0023503
-1.47856e-06
0.00234987
-1.43596e-06
0.00234946
-1.38095e-06
0.00234905
-1.34217e-06
0.00234867
-1.2767e-06
0.00234828
-1.2444e-06
0.00234793
-1.1553e-06
0.00234757
-1.13437e-06
0.00234727
-9.94502e-07
0.00234694
-9.97743e-07
-7.4838e-07
0.00200168
-9.82388e-06
0.00201087
-2.73263e-05
0.00202365
-4.17024e-05
0.00203841
-5.31941e-05
0.00205363
-6.20201e-05
0.00206785
-6.81275e-05
0.00207994
-7.16417e-05
0.00208923
-7.29198e-05
0.00209546
-7.24619e-05
0.00209863
-7.0657e-05
0.00209891
-6.78981e-05
0.00209663
-6.45062e-05
0.00209209
-6.06318e-05
0.00208565
-5.64695e-05
0.00207766
-5.21783e-05
0.00206846
-4.78752e-05
0.00205835
-4.36514e-05
0.00204759
-3.95752e-05
0.00203639
-3.56967e-05
0.00202495
-3.20506e-05
0.00201341
-2.86578e-05
0.00200189
-2.55311e-05
0.0019905
-2.26734e-05
0.00197929
-2.00817e-05
0.00196833
-1.77487e-05
0.00195763
-1.56623e-05
0.00194724
-1.38078e-05
0.00193714
-1.21686e-05
0.00192736
-1.07274e-05
0.00191789
-9.46694e-06
0.00190871
-8.37039e-06
0.00189983
-7.42044e-06
0.00189122
-6.59444e-06
0.00188286
-5.86581e-06
0.00187476
-5.2605e-06
0.00186691
-4.74183e-06
0.00185928
-4.29743e-06
0.00185186
-3.91846e-06
0.00184463
-3.59417e-06
0.00183759
-3.31266e-06
0.00183074
-3.06822e-06
0.00182407
-2.85676e-06
0.00181758
-2.67405e-06
0.00181125
-2.51584e-06
0.00180508
-2.37838e-06
0.00179908
-2.25841e-06
0.00179322
-2.15318e-06
0.00178751
-2.06034e-06
0.00178195
-1.97787e-06
0.00177653
-1.90405e-06
0.00177124
-1.83748e-06
0.00176609
-1.77698e-06
0.00176107
-1.72158e-06
0.00175618
-1.67047e-06
0.00175142
-1.62299e-06
0.00174678
-1.57857e-06
0.00174225
-1.53677e-06
0.00173785
-1.49721e-06
0.00173356
-1.45959e-06
0.00172939
-1.42366e-06
0.00172532
-1.38923e-06
0.00172137
-1.35615e-06
0.00171752
-1.32431e-06
0.00171378
-1.2936e-06
0.00171014
-1.26396e-06
0.00170659
-1.23531e-06
0.00170315
-1.20759e-06