/*--------------------------------*- C++ -*----------------------------------*\
  =========                 |
  \\      /  F ield         | OpenFOAM: The Open Source CFD Toolbox
   \\    /   O peration     | Website:  https://openfoam.org
    \\  /    A nd           | Version:  7
     \\/     M anipulation  |
\*---------------------------------------------------------------------------*/
FoamFile
{
    version     2.0;
    format      ascii;
    class       volScalarField;
    location    "0.95";
    object      alphat;
}
// * * * * * * * * * * * * * * * * * * * * * * * * * * * * * * * * * * * * * //

dimensions      [1 -1 -1 0 0 0 0];

internalField   nonuniform List<scalar> 
1800
(
0.00155406
0.00356368
0.00412282
0.0040874
0.00391718
0.00366965
0.00346941
0.00331643
0.00320107
0.00311187
0.0030402
0.00298043
0.0029291
0.00288407
0.00284398
0.00280793
0.00277534
0.00274573
0.00271877
0.00269404
0.00267141
0.00265038
0.00263105
0.00261283
0.00259594
0.00258012
0.00256454
0.00255169
0.00253233
0.00254895
0.000277698
0.00112193
0.00196644
0.00238167
0.00257356
0.00264131
0.00265753
0.00265492
0.00264673
0.00263252
0.00261715
0.00260134
0.00258508
0.00256901
0.00255337
0.00253832
0.00252381
0.00250994
0.00249651
0.0024838
0.0024713
0.00245989
0.00244794
0.00243822
0.00242601
0.00241883
0.00240536
0.00240058
0.00238258
0.00238505
3.06326e-05
0.000218465
0.000495385
0.000819346
0.00106476
0.00122099
0.00132178
0.00139038
0.0014414
0.00148199
0.00151639
0.0015472
0.00157576
0.00160281
0.00162761
0.00165129
0.00167245
0.00169297
0.0017104
0.00172809
0.00174191
0.00175747
0.00176787
0.00178197
0.00178916
0.00180194
0.00180684
0.00181796
0.00182105
0.00182907
1.36026e-05
3.56071e-05
9.34644e-05
0.000178061
0.000284264
0.000381526
0.000457168
0.000518725
0.000567808
0.000610235
0.000645759
0.000678763
0.000707425
0.000735762
0.000760809
0.000786738
0.000809785
0.000834461
0.000856136
0.000879827
0.000900308
0.000923086
0.000942888
0.000964705
0.000984407
0.00100473
0.001025
0.00104275
0.00106465
0.00107864
1.33994e-05
1.45856e-05
2.01491e-05
3.27965e-05
5.17673e-05
7.83279e-05
0.000101308
0.000125071
0.000145138
0.000165399
0.000182709
0.000200513
0.000216785
0.00023324
0.000248324
0.000263208
0.000277726
0.000292056
0.000306431
0.000320282
0.000334051
0.000347081
0.000360852
0.000373512
0.000387712
0.000399935
0.000414876
0.000426142
0.0004427
0.000452996
1.33699e-05
1.39178e-05
1.5093e-05
1.73677e-05
1.94127e-05
2.10515e-05
2.43426e-05
2.6411e-05
3.01018e-05
3.22838e-05
3.64263e-05
3.88915e-05
4.34886e-05
4.6142e-05
5.11745e-05
5.39616e-05
5.92294e-05
6.22344e-05
6.7679e-05
7.13606e-05
7.69807e-05
8.04502e-05
8.62063e-05
9.02213e-05
9.59343e-05
0.000100346
0.000106647
0.000110716
0.000117658
0.000122065
1.337e-05
1.39173e-05
1.54912e-05
1.6904e-05
1.96685e-05
2.12693e-05
2.45384e-05
2.64498e-05
3.0231e-05
3.24022e-05
3.66179e-05
3.90083e-05
4.36642e-05
4.62697e-05
5.1311e-05
5.40554e-05
5.93996e-05
6.2319e-05
6.80481e-05
7.11315e-05
7.71361e-05
8.02944e-05
8.64464e-05
8.97038e-05
9.6062e-05
9.94214e-05
0.000105957
0.00010934
0.000115958
0.000119478
1.33992e-05
1.45883e-05
2.01711e-05
3.28548e-05
5.49082e-05
7.49109e-05
0.000104563
0.000122447
0.000147548
0.000163348
0.000184888
0.000198829
0.000218739
0.000231645
0.000250085
0.000261668
0.000279444
0.000290546
0.000308028
0.000318734
0.000335476
0.000345522
0.000361939
0.000371855
0.000388177
0.000397921
0.000414183
0.000423331
0.000439749
0.000448612
1.36056e-05
3.56721e-05
9.3591e-05
0.000178243
0.000284786
0.000381407
0.000457596
0.000518595
0.000568253
0.000610059
0.000646236
0.000678491
0.000707951
0.000735382
0.000761424
0.000786217
0.000810508
0.000833735
0.00085697
0.000878816
0.000901208
0.000921705
0.0009437
0.000962834
0.000984793
0.00100216
0.00102426
0.00103909
0.00106124
0.00107334
3.07249e-05
0.000218658
0.00049563
0.000819544
0.0010649
0.0012211
0.00132187
0.00139045
0.00144147
0.00148204
0.00151643
0.00154722
0.00157579
0.00160281
0.00162763
0.00165125
0.00167246
0.00169285
0.00171039
0.00172782
0.00174185
0.00175696
0.0017677
0.00178105
0.00178863
0.00180045
0.00180528
0.00181509
0.00181793
0.00182413
0.000278014
0.00112226
0.00196657
0.0023817
0.00257352
0.00264123
0.00265742
0.00265481
0.0026466
0.00263239
0.00261701
0.0026012
0.00258493
0.00256887
0.00255321
0.0025382
0.00252362
0.00250985
0.00249627
0.00248378
0.00247098
0.00245999
0.00244752
0.00243846
0.00242561
0.00241898
0.00240536
0.00240026
0.00238351
0.00238469
0.00155395
0.00356334
0.00412243
0.00408701
0.00391681
0.0036693
0.00346908
0.00331612
0.00320078
0.00311159
0.00303994
0.00298019
0.00292887
0.00288387
0.00284378
0.0028078
0.0027752
0.00274571
0.00271871
0.00269426
0.0026715
0.00265109
0.00263144
0.0026145
0.00259696
0.0025836
0.00256703
0.00255799
0.00253996
0.00255487
0.00649129
0.00680007
0.00674092
0.00666017
0.00660458
0.00656153
0.00652948
0.0065071
0.00649268
0.00648344
0.00647821
0.00647537
0.006474
0.00647331
0.00647286
0.00647253
0.00647245
0.00647284
0.00647386
0.00647553
0.00647764
0.00647991
0.0064821
0.00648409
0.00648592
0.00648769
0.00648954
0.00649159
0.0064939
0.0064965
0.00649938
0.00650249
0.00650578
0.00650922
0.00651276
0.00651639
0.00652007
0.00652381
0.00652759
0.00653139
0.00653521
0.00653904
0.00654289
0.00654674
0.00655059
0.00655445
0.0065583
0.00656216
0.00656601
0.00656986
0.0065737
0.00657754
0.00658138
0.0065852
0.00658902
0.00659282
0.00659662
0.0066004
0.00660417
0.00660793
0.00661168
0.00661542
0.00661916
0.00662289
0.0066266
0.0066303
0.00663399
0.00663767
0.00664135
0.00664501
0.00664867
0.00665232
0.00665598
0.00665962
0.00666327
0.00666692
0.00667057
0.00667422
0.00667787
0.00668151
0.00668515
0.00668878
0.0066924
0.00669603
0.00669966
0.00670329
0.00670694
0.00671059
0.00671425
0.00671792
0.00672159
0.00672526
0.00672893
0.00673261
0.00673628
0.00673996
0.00674365
0.00674734
0.00675104
0.00675474
0.00675845
0.00676216
0.00676587
0.0067696
0.00677331
0.00677705
0.00678077
0.00678456
0.00678828
0.00679212
0.0067958
0.00679973
0.00680329
0.00680742
0.00681069
0.00681527
0.00681792
0.00682342
0.00682509
0.00683192
0.00647123
0.00718828
0.00730174
0.00727927
0.00724722
0.0072193
0.00720124
0.00718991
0.00718599
0.0071858
0.00718808
0.00719176
0.00719615
0.00720075
0.00720531
0.00720982
0.00721449
0.00721964
0.00722554
0.00723233
0.0072399
0.00724795
0.00725619
0.00726437
0.00727242
0.00728036
0.00728829
0.00729635
0.00730461
0.00731314
0.00732193
0.00733093
0.00734009
0.00734935
0.00735866
0.00736798
0.00737729
0.00738656
0.00739578
0.00740495
0.00741405
0.00742307
0.00743203
0.00744092
0.00744973
0.00745847
0.00746715
0.00747576
0.0074843
0.00749277
0.00750118
0.00750953
0.00751782
0.00752604
0.0075342
0.00754229
0.00755032
0.00755828
0.00756618
0.00757401
0.00758178
0.0075895
0.00759715
0.00760474
0.00761227
0.00761974
0.00762714
0.00763447
0.00764175
0.00764896
0.00765612
0.00766322
0.00767026
0.00767724
0.00768416
0.00769103
0.00769785
0.00770461
0.00771132
0.00771796
0.00772455
0.00773107
0.00773753
0.00774393
0.00775028
0.00775657
0.00776282
0.00776902
0.00777517
0.00778127
0.00778731
0.0077933
0.00779924
0.00780512
0.00781095
0.00781672
0.00782244
0.0078281
0.00783372
0.00783929
0.0078448
0.00785027
0.00785567
0.00786103
0.00786632
0.00787159
0.00787677
0.00788198
0.00788704
0.0078922
0.0078971
0.00790225
0.00790691
0.00791219
0.00791639
0.00792209
0.00792543
0.00793204
0.00793445
0.0079421
0.00492558
0.00599371
0.00634967
0.00645595
0.00648822
0.00650048
0.00650955
0.00651878
0.00652904
0.00653904
0.00654798
0.00655559
0.00656198
0.00656739
0.00657206
0.00657621
0.00658013
0.00658417
0.00658871
0.00659404
0.00660029
0.00660735
0.00661494
0.00662278
0.00663064
0.00663845
0.00664622
0.00665404
0.00666203
0.00667025
0.00667876
0.00668753
0.00669653
0.00670571
0.00671501
0.00672439
0.00673381
0.00674324
0.00675268
0.00676209
0.00677148
0.00678084
0.00679015
0.00679943
0.00680867
0.00681786
0.00682702
0.00683612
0.00684518
0.0068542
0.00686317
0.00687209
0.00688097
0.0068898
0.00689858
0.00690731
0.00691598
0.00692461
0.00693318
0.00694169
0.00695016
0.00695857
0.00696692
0.00697522
0.00698346
0.00699164
0.00699976
0.00700783
0.00701583
0.00702377
0.00703165
0.00703949
0.00704725
0.00705496
0.0070626
0.00707017
0.0070777
0.00708516
0.00709255
0.00709989
0.00710715
0.00711435
0.00712148
0.00712855
0.00713555
0.00714248
0.00714936
0.00715617
0.00716292
0.00716961
0.00717622
0.00718277
0.00718925
0.00719567
0.00720201
0.00720828
0.00721449
0.00722063
0.0072267
0.0072327
0.00723863
0.0072445
0.00725029
0.00725602
0.00726166
0.00726726
0.00727275
0.00727824
0.00728356
0.00728896
0.00729408
0.00729944
0.00730426
0.00730971
0.00731404
0.00731986
0.00732334
0.00732986
0.00733262
0.00734007
0.00271984
0.00405978
0.00477799
0.00512608
0.00530136
0.00540042
0.00546483
0.00551105
0.00554595
0.00557212
0.00559095
0.00560386
0.00561235
0.00561786
0.00562145
0.00562381
0.00562545
0.00562676
0.00562818
0.00563013
0.00563298
0.00563684
0.00564157
0.00564688
0.00565243
0.005658
0.00566352
0.00566899
0.00567452
0.00568021
0.00568613
0.00569232
0.00569876
0.00570542
0.00571224
0.00571919
0.00572623
0.00573332
0.00574045
0.0057476
0.00575476
0.00576192
0.00576908
0.00577624
0.00578338
0.00579052
0.00579766
0.00580478
0.00581188
0.00581898
0.00582606
0.00583313
0.00584018
0.00584722
0.00585424
0.00586124
0.00586822
0.00587518
0.00588213
0.00588905
0.00589595
0.00590282
0.00590967
0.00591649
0.00592329
0.00593006
0.0059368
0.00594351
0.00595019
0.00595684
0.00596346
0.00597005
0.00597661
0.00598313
0.00598961
0.00599606
0.00600247
0.00600885
0.00601519
0.00602149
0.00602775
0.00603397
0.00604015
0.00604628
0.00605238
0.00605843
0.00606444
0.00607041
0.00607633
0.00608221
0.00608804
0.00609383
0.00609956
0.00610525
0.00611089
0.00611648
0.00612202
0.00612751
0.00613295
0.00613833
0.00614367
0.00614895
0.00615417
0.00615936
0.00616446
0.00616955
0.00617453
0.00617953
0.00618437
0.00618931
0.00619396
0.0061989
0.00620328
0.00620833
0.00621225
0.00621766
0.00622086
0.00622678
0.0062295
0.00623635
0.00109677
0.00176242
0.00265108
0.00329425
0.00370744
0.0039707
0.00414196
0.00425606
0.00433362
0.0043864
0.00442142
0.00444355
0.00445664
0.00446377
0.00446716
0.00446826
0.00446796
0.00446685
0.0044654
0.00446411
0.00446353
0.00446395
0.00446541
0.00446769
0.00447041
0.00447328
0.00447613
0.0044789
0.00448163
0.00448442
0.00448736
0.00449052
0.00449391
0.00449751
0.00450129
0.0045052
0.00450921
0.0045133
0.00451743
0.00452161
0.0045258
0.00453002
0.00453425
0.00453849
0.00454274
0.00454701
0.00455128
0.00455555
0.00455983
0.00456411
0.00456841
0.00457271
0.00457701
0.00458131
0.00458561
0.00458993
0.00459424
0.00459856
0.00460288
0.0046072
0.00461151
0.00461583
0.00462015
0.00462447
0.00462878
0.00463309
0.0046374
0.00464171
0.00464601
0.00465031
0.00465458
0.00465885
0.00466314
0.00466744
0.00467172
0.00467598
0.00468023
0.00468447
0.0046887
0.00469292
0.00469714
0.00470134
0.00470554
0.00470972
0.0047139
0.00471806
0.0047222
0.00472633
0.00473045
0.00473455
0.00473863
0.0047427
0.00474675
0.00475079
0.00475481
0.00475881
0.0047628
0.00476677
0.00477071
0.00477464
0.00477854
0.00478243
0.00478629
0.00479014
0.00479395
0.00479777
0.0048015
0.0048053
0.00480897
0.00481278
0.00481631
0.00482019
0.00482351
0.00482757
0.00483053
0.0048349
0.0048374
0.00484209
0.00484436
0.00484992
0.000294038
0.000494232
0.00085257
0.00133847
0.00184169
0.00225158
0.00256596
0.00279852
0.00296653
0.00308546
0.00316758
0.00322256
0.00325808
0.00328017
0.00329327
0.00330048
0.00330384
0.00330473
0.00330407
0.00330264
0.00330117
0.00330014
0.00329979
0.00330018
0.00330105
0.00330205
0.00330308
0.00330402
0.00330486
0.00330566
0.00330655
0.00330758
0.0033088
0.00331019
0.00331174
0.00331341
0.00331518
0.00331703
0.00331894
0.00332087
0.00332282
0.0033248
0.0033268
0.00332881
0.00333084
0.00333287
0.00333492
0.00333697
0.00333904
0.00334113
0.00334321
0.0033453
0.00334741
0.00334953
0.00335166
0.00335379
0.00335592
0.00335806
0.00336022
0.00336239
0.00336458
0.00336677
0.00336896
0.00337115
0.00337335
0.00337558
0.0033778
0.00338002
0.00338225
0.0033845
0.0033868
0.00338909
0.00339134
0.00339356
0.00339581
0.00339809
0.00340038
0.00340267
0.00340496
0.00340726
0.00340956
0.00341188
0.0034142
0.00341652
0.00341885
0.00342119
0.00342353
0.00342587
0.00342821
0.00343054
0.00343289
0.00343524
0.0034376
0.00343996
0.00344232
0.00344468
0.00344704
0.00344942
0.00345179
0.00345416
0.00345652
0.00345891
0.00346128
0.00346368
0.00346603
0.00346846
0.0034708
0.00347327
0.00347553
0.00347805
0.00348021
0.00348285
0.00348486
0.00348768
0.00348948
0.00349253
0.00349415
0.00349731
0.0034989
0.00350275
0.000290099
0.000484352
0.00083887
0.00132351
0.00183278
0.0022493
0.00257113
0.00281069
0.00298444
0.00310793
0.00319388
0.00325226
0.00329099
0.0033161
0.00333203
0.00334187
0.00334763
0.0033507
0.00335204
0.00335241
0.00335253
0.00335286
0.00335364
0.00335492
0.00335644
0.00335796
0.00335937
0.00336057
0.0033616
0.00336256
0.00336357
0.00336471
0.00336602
0.00336749
0.00336912
0.00337087
0.00337273
0.00337467
0.00337665
0.00337867
0.00338071
0.00338277
0.00338486
0.00338696
0.00338906
0.00339117
0.00339328
0.00339543
0.00339761
0.00339979
0.00340195
0.0034041
0.00340627
0.00340847
0.00341068
0.00341288
0.00341506
0.00341725
0.00341949
0.00342174
0.00342399
0.00342623
0.00342848
0.00343073
0.00343301
0.00343531
0.0034376
0.00343988
0.00344217
0.00344451
0.00344689
0.00344924
0.00345155
0.0034538
0.00345606
0.00345838
0.00346074
0.0034631
0.00346543
0.00346777
0.00347013
0.00347248
0.00347485
0.00347722
0.0034796
0.003482
0.00348441
0.00348679
0.00348916
0.00349152
0.00349391
0.00349631
0.00349871
0.00350111
0.00350351
0.00350591
0.00350832
0.00351073
0.00351315
0.00351556
0.00351796
0.00352039
0.00352281
0.00352526
0.00352767
0.00353014
0.00353252
0.00353502
0.00353731
0.00353984
0.00354202
0.0035447
0.00354673
0.00354959
0.0035514
0.0035545
0.00355613
0.00355935
0.00356093
0.00356486
0.00109303
0.00174998
0.00263643
0.00329509
0.00372158
0.00399702
0.0041793
0.0043032
0.00438878
0.00444839
0.00448972
0.00451792
0.00453689
0.00454954
0.00455797
0.00456361
0.00456735
0.00456985
0.00457164
0.00457328
0.00457531
0.00457805
0.00458152
0.00458548
0.00458957
0.00459349
0.00459713
0.00460049
0.00460365
0.00460676
0.00460994
0.00461329
0.00461684
0.00462058
0.00462448
0.00462851
0.00463263
0.00463683
0.00464107
0.00464535
0.00464966
0.00465398
0.0046583
0.00466264
0.00466699
0.00467135
0.0046757
0.00468006
0.0046844
0.00468875
0.00469313
0.00469753
0.00470192
0.00470631
0.00471069
0.00471509
0.0047195
0.00472391
0.00472829
0.00473267
0.00473706
0.00474146
0.00474586
0.00475025
0.00475463
0.004759
0.00476337
0.00476775
0.00477212
0.00477644
0.00478075
0.00478507
0.00478942
0.0047938
0.00479817
0.0048025
0.0048068
0.0048111
0.0048154
0.00481969
0.00482396
0.00482821
0.00483245
0.00483667
0.00484088
0.00484506
0.00484924
0.00485341
0.00485759
0.00486175
0.00486589
0.00487
0.0048741
0.00487818
0.00488224
0.00488629
0.00489031
0.00489431
0.00489829
0.00490226
0.0049062
0.00491012
0.004914
0.00491788
0.00492171
0.00492555
0.00492931
0.00493315
0.00493687
0.00494073
0.00494431
0.00494822
0.00495157
0.00495567
0.00495866
0.00496307
0.00496558
0.00497032
0.00497262
0.00497831
0.00272815
0.00405086
0.00479298
0.00516132
0.00535297
0.005466
0.00554237
0.00559881
0.00564199
0.00567561
0.00570163
0.00572153
0.0057367
0.00574834
0.00575741
0.00576461
0.00577047
0.0057755
0.00578024
0.0057852
0.00579083
0.00579724
0.00580428
0.00581162
0.00581889
0.00582587
0.00583248
0.00583878
0.00584492
0.00585103
0.00585726
0.00586367
0.00587028
0.00587707
0.00588401
0.00589105
0.00589817
0.00590534
0.00591255
0.00591977
0.005927
0.00593424
0.00594147
0.00594869
0.00595591
0.00596312
0.00597032
0.0059775
0.00598468
0.00599183
0.00599898
0.00600611
0.00601322
0.00602032
0.0060274
0.00603446
0.0060415
0.00604851
0.00605551
0.00606248
0.00606943
0.00607636
0.00608326
0.00609013
0.00609698
0.0061038
0.00611059
0.00611735
0.00612408
0.00613079
0.00613745
0.00614409
0.00615069
0.00615726
0.00616379
0.00617028
0.00617674
0.00618316
0.00618954
0.00619588
0.00620218
0.00620845
0.00621467
0.00622085
0.00622699
0.00623309
0.00623914
0.00624515
0.00625111
0.00625702
0.00626289
0.00626871
0.00627448
0.00628021
0.00628588
0.00629152
0.0062971
0.00630263
0.0063081
0.00631353
0.00631891
0.00632423
0.0063295
0.00633472
0.00633988
0.006345
0.00635004
0.00635507
0.00635996
0.00636493
0.00636963
0.00637459
0.00637901
0.00638411
0.00638806
0.00639353
0.00639676
0.00640274
0.0064055
0.00641246
0.00493514
0.0060175
0.00640517
0.00653256
0.00658219
0.00660885
0.00662975
0.00664925
0.00666781
0.00668598
0.00670299
0.00671843
0.00673217
0.00674426
0.00675489
0.0067643
0.00677282
0.00678089
0.00678902
0.00679762
0.00680692
0.00681683
0.00682708
0.00683732
0.0068473
0.00685687
0.00686606
0.00687498
0.00688378
0.00689259
0.00690153
0.00691062
0.00691986
0.00692921
0.00693866
0.00694817
0.00695771
0.00696725
0.00697678
0.00698629
0.00699577
0.00700523
0.00701465
0.00702403
0.00703336
0.00704266
0.00705192
0.00706114
0.00707031
0.00707944
0.00708851
0.00709752
0.00710649
0.00711541
0.00712428
0.0071331
0.00714186
0.00715058
0.00715925
0.00716787
0.00717642
0.00718491
0.00719334
0.00720173
0.00721007
0.00721835
0.00722656
0.00723472
0.00724283
0.00725089
0.00725888
0.00726681
0.00727467
0.00728245
0.00729017
0.00729782
0.00730543
0.00731297
0.00732044
0.00732785
0.00733519
0.00734249
0.00734972
0.00735689
0.007364
0.00737104
0.00737801
0.0073849
0.00739172
0.00739846
0.00740514
0.00741176
0.00741831
0.0074248
0.00743122
0.00743758
0.00744388
0.0074501
0.00745625
0.00746233
0.00746834
0.00747429
0.00748016
0.00748598
0.00749171
0.00749741
0.00750299
0.00750854
0.00751394
0.00751939
0.00752458
0.00752999
0.00753489
0.00754041
0.00754481
0.00755073
0.00755427
0.00756088
0.0075637
0.00757123
0.00649469
0.00725987
0.00740265
0.00740072
0.00738607
0.00737201
0.00736508
0.00736461
0.00736832
0.00737705
0.00738794
0.00739988
0.00741197
0.00742363
0.0074346
0.00744485
0.00745459
0.00746419
0.00747404
0.00748439
0.00749525
0.00750642
0.00751759
0.00752851
0.00753902
0.00754909
0.0075588
0.00756827
0.00757763
0.00758699
0.00759639
0.00760586
0.00761539
0.00762496
0.00763454
0.00764409
0.00765361
0.00766307
0.00767248
0.00768182
0.00769109
0.0077003
0.00770943
0.00771851
0.00772752
0.00773646
0.00774533
0.00775411
0.00776282
0.00777148
0.00778007
0.0077886
0.00779707
0.00780546
0.00781379
0.00782205
0.00783025
0.00783838
0.00784644
0.00785445
0.00786239
0.00787028
0.00787811
0.00788585
0.00789352
0.00790114
0.00790871
0.00791622
0.00792365
0.00793101
0.00793831
0.00794557
0.00795278
0.00795994
0.00796705
0.00797408
0.00798103
0.00798791
0.00799475
0.00800153
0.00800826
0.00801493
0.00802155
0.00802812
0.00803462
0.00804106
0.00804744
0.00805377
0.00806005
0.00806628
0.00807245
0.00807856
0.00808461
0.00809061
0.00809656
0.00810245
0.00810828
0.00811406
0.00811979
0.00812546
0.00813109
0.00813667
0.00814219
0.00814767
0.00815309
0.00815848
0.00816378
0.00816909
0.00817426
0.00817951
0.00818452
0.00818977
0.00819453
0.0081999
0.00820421
0.00821002
0.00821346
0.00822015
0.0082227
0.0082304
0.00653636
0.00690132
0.0068607
0.00679799
0.00675679
0.00672514
0.00670257
0.00668861
0.0066816
0.00668021
0.0066822
0.00668654
0.00669184
0.00669737
0.0067027
0.00670765
0.00671227
0.00671679
0.00672142
0.00672627
0.00673128
0.00673626
0.00674104
0.00674549
0.00674959
0.0067534
0.00675699
0.00676047
0.00676392
0.00676741
0.00677096
0.00677461
0.00677833
0.00678212
0.00678596
0.00678984
0.00679376
0.0067977
0.00680167
0.00680565
0.00680965
0.00681367
0.0068177
0.00682174
0.00682579
0.00682983
0.00683388
0.00683792
0.00684196
0.00684599
0.00685
0.006854
0.00685798
0.00686196
0.00686593
0.00686989
0.00687385
0.00687779
0.00688172
0.00688564
0.00688954
0.00689343
0.00689729
0.00690115
0.00690501
0.00690886
0.0069127
0.00691653
0.00692037
0.0069242
0.00692802
0.00693183
0.00693563
0.00693941
0.00694319
0.00694695
0.00695071
0.00695447
0.00695823
0.00696199
0.00696576
0.00696953
0.00697331
0.00697709
0.00698087
0.00698465
0.00698842
0.00699219
0.00699594
0.0069997
0.00700346
0.00700722
0.007011
0.00701479
0.00701858
0.00702237
0.00702618
0.00702998
0.00703378
0.00703759
0.0070414
0.00704522
0.00704905
0.00705289
0.00705673
0.0070606
0.00706443
0.0070683
0.00707211
0.00707602
0.00707979
0.0070838
0.00708746
0.00709169
0.00709508
0.00709977
0.00710251
0.0071081
0.00710987
0.00711665
)
;

boundaryField
{
    upperWall
    {
        type            zeroGradient;
    }
    lowerWall
    {
        type            zeroGradient;
    }
    heatedWall
    {
        type            zeroGradient;
    }
    inlet
    {
        type            zeroGradient;
    }
    outlet
    {
        type            zeroGradient;
    }
    frontAndBack
    {
        type            empty;
    }
}


// ************************************************************************* //
