/*--------------------------------*- C++ -*----------------------------------*\
  =========                 |
  \\      /  F ield         | OpenFOAM: The Open Source CFD Toolbox
   \\    /   O peration     | Website:  https://openfoam.org
    \\  /    A nd           | Version:  7
     \\/     M anipulation  |
\*---------------------------------------------------------------------------*/
FoamFile
{
    version     2.0;
    format      ascii;
    class       volScalarField;
    location    "0.6";
    object      T;
}
// * * * * * * * * * * * * * * * * * * * * * * * * * * * * * * * * * * * * * //

dimensions      [0 0 0 1 0 0 0];

internalField   nonuniform List<scalar> 
1320
(
283.104
283.036
283.012
283.02
283.043
283.076
283.114
283.147
283.173
283.181
283.184
283.165
283.158
283.116
283.126
283.047
283.139
282.912
283.435
281.931
283.102
283.002
282.948
282.948
282.985
283.041
283.125
283.219
283.319
283.384
283.437
283.422
283.434
283.33
283.366
283.129
283.344
282.791
283.598
282.161
283.105
282.998
282.933
282.925
282.956
282.999
283.067
283.154
283.281
283.398
283.523
283.565
283.63
283.558
283.608
283.404
283.502
283.118
283.365
282.807
283.105
282.997
282.93
282.92
282.95
282.988
283.036
283.097
283.201
283.326
283.477
283.577
283.669
283.67
283.703
283.643
283.641
283.511
283.429
283.243
283.105
282.996
282.929
282.921
282.952
282.991
283.034
283.089
283.178
283.301
283.45
283.572
283.665
283.699
283.705
283.712
283.692
283.682
283.589
283.492
283.105
282.996
282.929
282.922
282.953
282.993
283.035
283.091
283.18
283.306
283.456
283.58
283.667
283.707
283.698
283.715
283.7
283.699
283.651
283.541
283.105
282.996
282.929
282.922
282.953
282.993
283.035
283.091
283.18
283.305
283.456
283.58
283.667
283.707
283.698
283.714
283.701
283.698
283.652
283.54
283.105
282.996
282.929
282.921
282.952
282.991
283.034
283.089
283.178
283.301
283.45
283.573
283.665
283.699
283.705
283.71
283.696
283.675
283.601
283.476
283.105
282.997
282.93
282.921
282.949
282.989
283.035
283.099
283.198
283.329
283.471
283.584
283.66
283.682
283.688
283.662
283.621
283.532
283.417
283.248
283.105
282.998
282.933
282.926
282.955
283.001
283.065
283.157
283.277
283.405
283.513
283.58
283.607
283.594
283.555
283.483
283.389
283.275
283.163
283.052
283.102
283.002
282.948
282.949
282.984
283.042
283.124
283.222
283.316
283.389
283.429
283.435
283.413
283.366
283.304
283.234
283.161
283.109
283.052
283.054
283.104
283.036
283.012
283.02
283.043
283.077
283.114
283.148
283.172
283.183
283.181
283.17
283.151
283.128
283.105
283.084
283.068
283.062
283.055
283.076
294.035
301.867
306.763
310.507
313.589
316.24
318.54
320.471
322.001
323.128
323.897
324.379
324.655
324.79
324.837
324.832
324.798
324.748
324.69
324.63
324.568
324.507
324.445
324.384
324.323
324.263
324.203
324.144
324.085
324.027
323.969
323.911
323.854
323.797
323.741
323.685
323.629
323.573
323.517
323.462
323.407
323.352
323.298
323.243
323.189
323.134
323.08
323.026
322.972
322.919
322.865
322.812
322.758
322.705
322.652
322.599
322.546
322.494
322.441
322.389
322.336
322.284
322.232
322.181
322.129
322.078
322.027
321.976
321.925
321.875
321.825
321.776
321.727
321.678
321.629
321.581
321.533
321.485
321.438
321.39
321.345
321.296
321.253
321.202
321.164
321.108
321.076
321.014
320.992
320.913
286.879
293.14
297.762
301.374
304.351
306.904
309.14
311.085
312.71
313.99
314.93
315.574
315.984
316.226
316.354
316.411
316.425
316.416
316.395
316.367
316.338
316.307
316.276
316.244
316.213
316.182
316.152
316.121
316.09
316.06
316.03
315.999
315.969
315.939
315.908
315.878
315.848
315.817
315.787
315.756
315.726
315.695
315.664
315.633
315.602
315.571
315.539
315.508
315.477
315.445
315.414
315.382
315.35
315.318
315.286
315.255
315.223
315.191
315.158
315.126
315.094
315.062
315.03
314.998
314.966
314.934
314.902
314.87
314.838
314.806
314.775
314.744
314.712
314.681
314.651
314.62
314.59
314.559
314.529
314.498
314.47
314.438
314.411
314.377
314.353
314.317
314.297
314.257
314.242
314.192
283.741
287.33
290.994
294.2
296.914
299.218
301.232
303.045
304.671
306.066
307.187
308.024
308.604
308.979
309.204
309.327
309.387
309.408
309.409
309.4
309.385
309.369
309.352
309.335
309.317
309.3
309.284
309.267
309.25
309.234
309.218
309.202
309.186
309.17
309.154
309.138
309.122
309.107
309.091
309.075
309.059
309.043
309.027
309.011
308.995
308.979
308.963
308.946
308.93
308.913
308.897
308.88
308.864
308.847
308.83
308.813
308.796
308.779
308.762
308.745
308.728
308.711
308.694
308.677
308.66
308.643
308.626
308.609
308.592
308.575
308.558
308.541
308.525
308.508
308.492
308.476
308.46
308.443
308.428
308.411
308.397
308.38
308.366
308.348
308.336
308.317
308.307
308.285
308.278
308.253
282.86
284.101
286.35
288.825
291.096
293.007
294.626
296.109
297.552
298.931
300.163
301.172
301.932
302.462
302.805
303.011
303.125
303.182
303.206
303.213
303.211
303.205
303.197
303.189
303.181
303.173
303.166
303.158
303.151
303.144
303.137
303.13
303.124
303.117
303.11
303.104
303.098
303.091
303.085
303.078
303.072
303.066
303.059
303.053
303.046
303.039
303.033
303.026
303.019
303.013
303.006
302.999
302.992
302.985
302.978
302.971
302.964
302.957
302.95
302.943
302.936
302.929
302.922
302.915
302.907
302.9
302.893
302.886
302.879
302.873
302.866
302.859
302.853
302.846
302.84
302.834
302.828
302.822
302.817
302.811
302.806
302.8
302.795
302.789
302.785
302.779
302.775
302.768
302.767
302.76
282.921
282.799
283.748
285.366
287.085
288.514
289.611
290.582
291.628
292.793
293.982
295.066
295.954
296.617
297.075
297.369
297.545
297.644
297.695
297.721
297.733
297.738
297.741
297.743
297.745
297.746
297.748
297.75
297.751
297.753
297.755
297.757
297.76
297.762
297.764
297.766
297.768
297.77
297.772
297.773
297.775
297.777
297.778
297.779
297.781
297.782
297.783
297.783
297.784
297.785
297.785
297.786
297.786
297.786
297.787
297.787
297.787
297.787
297.787
297.786
297.786
297.786
297.785
297.785
297.785
297.784
297.784
297.783
297.783
297.782
297.782
297.782
297.781
297.781
297.781
297.781
297.781
297.782
297.782
297.782
297.783
297.783
297.784
297.785
297.785
297.787
297.788
297.789
297.79
297.793
283.086
282.511
282.654
283.578
284.771
285.705
286.248
286.632
287.152
287.929
288.893
289.886
290.772
291.478
291.992
292.34
292.56
292.692
292.767
292.811
292.836
292.854
292.868
292.88
292.892
292.903
292.915
292.926
292.938
292.949
292.961
292.972
292.983
292.994
293.005
293.016
293.027
293.037
293.047
293.057
293.067
293.077
293.086
293.095
293.104
293.113
293.121
293.129
293.137
293.145
293.152
293.16
293.167
293.173
293.18
293.186
293.193
293.199
293.204
293.21
293.216
293.221
293.226
293.231
293.236
293.241
293.245
293.25
293.254
293.258
293.263
293.267
293.271
293.275
293.279
293.283
293.287
293.291
293.295
293.299
293.303
293.307
293.31
293.316
293.318
293.324
293.326
293.331
293.333
293.341
283.092
282.526
282.534
283.153
283.931
284.4
284.472
284.407
284.515
284.933
285.601
286.368
287.094
287.697
288.152
288.47
288.676
288.805
288.882
288.929
288.96
288.983
289.002
289.02
289.037
289.054
289.071
289.088
289.105
289.122
289.138
289.155
289.171
289.188
289.204
289.22
289.235
289.251
289.266
289.281
289.295
289.31
289.324
289.337
289.351
289.364
289.377
289.389
289.401
289.413
289.425
289.436
289.447
289.457
289.468
289.478
289.488
289.497
289.507
289.516
289.525
289.533
289.541
289.55
289.557
289.565
289.573
289.58
289.587
289.594
289.6
289.607
289.613
289.619
289.626
289.632
289.637
289.643
289.649
289.655
289.66
289.666
289.67
289.677
289.68
289.687
289.69
289.697
289.699
289.707
283.003
282.632
282.789
283.295
283.753
283.874
283.691
283.463
283.436
283.687
284.148
284.692
285.213
285.648
285.978
286.209
286.361
286.456
286.515
286.551
286.577
286.596
286.614
286.63
286.646
286.662
286.678
286.694
286.709
286.725
286.741
286.756
286.772
286.787
286.803
286.818
286.833
286.847
286.862
286.876
286.89
286.904
286.917
286.93
286.943
286.955
286.968
286.98
286.991
287.002
287.014
287.024
287.035
287.045
287.055
287.065
287.074
287.083
287.092
287.101
287.109
287.118
287.126
287.134
287.141
287.148
287.156
287.163
287.169
287.176
287.182
287.189
287.195
287.201
287.207
287.212
287.218
287.223
287.229
287.234
287.239
287.244
287.248
287.255
287.257
287.264
287.266
287.273
287.275
287.281
282.912
282.796
283.045
283.423
283.635
283.56
283.311
283.105
283.09
283.284
283.614
283.987
284.334
284.62
284.833
284.982
285.078
285.139
285.176
285.201
285.218
285.232
285.245
285.258
285.27
285.282
285.294
285.307
285.319
285.332
285.344
285.356
285.368
285.381
285.393
285.405
285.417
285.428
285.44
285.451
285.462
285.473
285.483
285.494
285.504
285.514
285.523
285.533
285.542
285.551
285.559
285.568
285.576
285.584
285.592
285.599
285.606
285.614
285.62
285.627
285.634
285.64
285.646
285.652
285.658
285.664
285.669
285.674
285.68
285.685
285.689
285.694
285.699
285.704
285.708
285.712
285.717
285.721
285.725
285.729
285.733
285.737
285.74
285.745
285.747
285.753
285.753
285.759
285.761
285.765
282.927
282.964
283.197
283.423
283.467
283.321
283.115
282.992
283.018
283.175
283.403
283.642
283.857
284.028
284.153
284.239
284.294
284.328
284.35
284.364
284.375
284.384
284.393
284.402
284.41
284.419
284.428
284.437
284.446
284.455
284.464
284.473
284.482
284.491
284.499
284.508
284.517
284.526
284.534
284.542
284.55
284.558
284.566
284.574
284.581
284.588
284.595
284.602
284.609
284.615
284.621
284.627
284.633
284.639
284.644
284.649
284.655
284.66
284.664
284.669
284.674
284.678
284.682
284.686
284.69
284.694
284.698
284.702
284.705
284.709
284.712
284.716
284.719
284.722
284.725
284.728
284.731
284.734
284.737
284.74
284.743
284.745
284.748
284.751
284.752
284.757
284.757
284.761
284.763
284.765
283
283.059
283.211
283.311
283.281
283.156
283.032
282.983
283.025
283.133
283.269
283.404
283.519
283.609
283.673
283.716
283.743
283.76
283.771
283.779
283.785
283.79
283.796
283.801
283.807
283.812
283.818
283.824
283.83
283.836
283.842
283.849
283.855
283.861
283.868
283.874
283.88
283.886
283.892
283.898
283.904
283.91
283.915
283.92
283.926
283.931
283.936
283.94
283.945
283.95
283.954
283.958
283.962
283.966
283.969
283.973
283.976
283.98
283.983
283.986
283.989
283.992
283.995
283.998
284
284.003
284.005
284.008
284.01
284.013
284.015
284.017
284.019
284.021
284.024
284.026
284.028
284.03
284.032
284.034
284.035
284.037
284.039
284.041
284.042
284.045
284.045
284.048
284.049
284.05
283.058
283.087
283.139
283.161
283.137
283.089
283.051
283.043
283.064
283.104
283.151
283.194
283.23
283.258
283.277
283.289
283.297
283.302
283.305
283.308
283.31
283.312
283.314
283.316
283.318
283.32
283.323
283.326
283.329
283.332
283.335
283.338
283.341
283.345
283.348
283.352
283.355
283.358
283.362
283.365
283.368
283.372
283.375
283.378
283.381
283.384
283.387
283.389
283.392
283.394
283.397
283.399
283.401
283.403
283.405
283.407
283.409
283.411
283.412
283.414
283.415
283.417
283.418
283.42
283.421
283.422
283.424
283.425
283.426
283.427
283.428
283.429
283.43
283.431
283.432
283.433
283.434
283.435
283.436
283.437
283.438
283.439
283.44
283.441
283.441
283.443
283.443
283.444
283.445
283.445
)
;

boundaryField
{
    upperWall
    {
        type            fixedValue;
        value           uniform 283.15;
    }
    lowerWall
    {
        type            fixedValue;
        value           uniform 283.15;
    }
    heatedWall
    {
        type            externalWallHeatFluxTemperature;
        mode            flux;
        kappaMethod     fluidThermo;
        kappa           none;
        alphaAni        Anialpha;
        q               uniform 5040;
        qr              none;
        refValue        nonuniform List<scalar> 
90
(
299.368
307.038
311.957
315.742
318.839
321.489
323.781
325.702
327.219
328.329
329.078
329.538
329.787
329.895
329.914
329.879
329.815
329.735
329.648
329.558
329.467
329.376
329.285
329.195
329.106
329.018
328.93
328.844
328.758
328.674
328.59
328.507
328.426
328.345
328.265
328.186
328.108
328.03
327.954
327.878
327.803
327.729
327.656
327.583
327.511
327.44
327.369
327.299
327.229
327.16
327.092
327.024
326.956
326.889
326.823
326.757
326.691
326.626
326.561
326.496
326.432
326.368
326.305
326.242
326.18
326.117
326.056
325.994
325.933
325.873
325.813
325.753
325.694
325.636
325.578
325.52
325.463
325.405
325.35
325.292
325.239
325.18
325.13
325.069
325.024
324.958
324.92
324.847
324.82
324.728
)
;
        refGradient     nonuniform List<scalar> 
90
(
639.953
620.545
623.348
628.171
629.986
629.886
629.015
627.729
626.104
624.121
621.746
618.995
615.93
612.638
609.197
605.669
602.097
598.51
594.925
591.355
587.806
584.284
580.794
577.341
573.929
570.562
567.245
563.981
560.775
557.628
554.544
551.527
548.577
545.696
542.887
540.149
537.483
534.89
532.369
529.919
527.54
525.229
522.986
520.809
518.694
516.641
514.646
512.707
510.822
508.987
507.201
505.461
503.764
502.108
500.491
498.911
497.365
495.853
494.371
492.919
491.494
490.097
488.724
487.375
486.049
484.745
483.461
482.197
480.952
479.725
478.516
477.324
476.148
474.986
473.841
472.708
471.594
470.486
469.404
468.315
467.269
466.188
465.193
464.098
463.185
462.025
461.269
459.936
459.447
457.76
)
;
        valueFraction   uniform 0;
        value           nonuniform List<scalar> 
90
(
299.368
307.038
311.957
315.742
318.839
321.489
323.781
325.702
327.219
328.329
329.078
329.538
329.787
329.895
329.914
329.879
329.815
329.735
329.648
329.558
329.467
329.376
329.285
329.195
329.106
329.018
328.93
328.844
328.758
328.674
328.59
328.507
328.426
328.345
328.265
328.186
328.108
328.03
327.954
327.878
327.803
327.729
327.656
327.583
327.511
327.44
327.369
327.299
327.229
327.16
327.092
327.024
326.956
326.889
326.823
326.757
326.691
326.626
326.561
326.496
326.432
326.368
326.305
326.242
326.18
326.117
326.056
325.994
325.933
325.873
325.813
325.753
325.694
325.636
325.578
325.52
325.463
325.405
325.35
325.292
325.239
325.18
325.13
325.069
325.024
324.958
324.92
324.847
324.82
324.728
)
;
    }
    inlet
    {
        type            fixedValue;
        value           uniform 283.15;
    }
    outlet
    {
        type            inletOutlet;
        inletValue      uniform 283.15;
        value           nonuniform List<scalar> 
12
(
320.913
314.192
308.253
302.76
297.793
293.341
289.707
287.281
285.765
284.765
284.05
283.445
)
;
    }
    frontAndBack
    {
        type            empty;
    }
}


// ************************************************************************* //
