/*--------------------------------*- C++ -*----------------------------------*\
  =========                 |
  \\      /  F ield         | OpenFOAM: The Open Source CFD Toolbox
   \\    /   O peration     | Website:  https://openfoam.org
    \\  /    A nd           | Version:  7
     \\/     M anipulation  |
\*---------------------------------------------------------------------------*/
FoamFile
{
    version     2.0;
    format      ascii;
    class       volScalarField;
    location    "0.1075";
    object      k_0;
}
// * * * * * * * * * * * * * * * * * * * * * * * * * * * * * * * * * * * * * //

dimensions      [0 2 -2 0 0 0 0];

internalField   nonuniform List<scalar> 
1440
(
0.144781
0.783936
1.99441
3.45129
4.8791
6.1088
7.05009
7.70814
8.09469
8.29072
8.28098
8.21273
8.05791
7.84012
7.59755
7.34502
7.09268
6.8473
6.61311
6.39261
6.18692
5.99642
5.82085
5.65955
5.51168
5.37626
5.25228
5.13872
5.03462
4.93903
4.8511
4.77
4.69502
4.62548
4.56081
4.50048
4.44405
4.39113
4.34133
4.29434
4.24985
4.20762
4.16742
4.12909
4.09246
4.05739
4.02374
3.99138
3.96021
3.93013
3.90108
3.87301
3.84585
3.81956
3.79406
3.76931
3.74526
3.72187
3.69912
3.67701
3.65552
3.63462
3.61426
3.59441
3.57503
3.5561
3.53764
3.51965
3.50213
3.48505
3.46838
3.45207
3.4361
3.42047
3.40518
3.39026
3.3757
3.3615
3.34761
3.33398
3.32057
3.30734
3.29426
3.28133
3.26858
3.25604
3.24371
3.23162
3.21978
3.20818
3.19679
3.18561
3.17458
3.16372
3.15296
3.14234
3.13177
3.12132
3.1109
3.1006
3.09029
3.0801
3.06987
3.05973
3.04956
3.03942
3.02932
3.01905
3.00912
2.9985
2.98892
2.97765
2.96886
2.95632
2.94877
2.93469
2.92799
2.91315
2.90713
2.89079
0.000354376
0.00711809
0.036371
0.107834
0.253016
0.469087
0.724486
1.00074
1.2651
1.51026
1.71708
1.88855
2.02513
2.12917
2.20525
2.25916
2.29502
2.31796
2.3303
2.33629
2.33587
2.33385
2.32951
2.32386
2.31785
2.31192
2.30634
2.30124
2.2967
2.29273
2.28932
2.28646
2.28407
2.28209
2.28042
2.27898
2.27771
2.27654
2.27546
2.27443
2.27342
2.27238
2.27129
2.2701
2.2688
2.26741
2.26593
2.26436
2.26269
2.26091
2.25899
2.25695
2.25479
2.25253
2.2502
2.24781
2.24535
2.2428
2.24015
2.2374
2.23456
2.23167
2.22876
2.22583
2.22287
2.21986
2.21678
2.21361
2.21039
2.20714
2.2039
2.20068
2.19746
2.19422
2.19091
2.18753
2.18407
2.18059
2.17714
2.17376
2.17051
2.16737
2.16433
2.16135
2.15837
2.15536
2.15226
2.14908
2.14581
2.14248
2.13911
2.13573
2.13237
2.12904
2.12575
2.1225
2.1193
2.11613
2.11301
2.1099
2.10684
2.10377
2.10076
2.09773
2.09477
2.09177
2.08886
2.08591
2.08306
2.08017
2.07737
2.07457
2.07182
2.06912
2.06642
2.0637
2.06129
2.05823
2.05649
2.05294
2.02762e-05
3.8562e-05
0.000197539
0.000877445
0.00297415
0.00782609
0.0175867
0.0339041
0.0561444
0.0843986
0.116998
0.15258
0.189389
0.226121
0.261429
0.294674
0.325188
0.352905
0.377626
0.399565
0.418749
0.435444
0.449884
0.462332
0.473076
0.482392
0.490527
0.497697
0.504086
0.509844
0.515101
0.519964
0.524537
0.52891
0.533167
0.537369
0.541575
0.545825
0.550144
0.554562
0.559077
0.563706
0.568458
0.573316
0.578316
0.583451
0.588733
0.594202
0.599794
0.605507
0.611309
0.61717
0.62312
0.629193
0.635392
0.641694
0.648094
0.654547
0.661003
0.667481
0.674007
0.680529
0.687134
0.693797
0.700479
0.707181
0.713869
0.720506
0.727065
0.733632
0.740148
0.746725
0.753279
0.759854
0.76634
0.772771
0.779176
0.785377
0.79149
0.797584
0.803654
0.809665
0.815637
0.821497
0.827284
0.832959
0.83857
0.844019
0.849344
0.854542
0.859626
0.864751
0.869821
0.874808
0.879928
0.88511
0.890292
0.89549
0.900792
0.906001
0.911283
0.916384
0.921571
0.926693
0.931858
0.936945
0.942033
0.947015
0.951886
0.956925
0.961803
0.966992
0.971329
0.976634
0.980721
0.986495
0.990024
0.995829
0.998779
1.00578
2.00255e-05
2.01461e-05
2.08167e-05
2.4454e-05
3.96493e-05
8.75774e-05
0.000212041
0.000486059
0.00102577
0.0019335
0.00328647
0.0051542
0.00749339
0.0102886
0.0135001
0.0170773
0.0208946
0.0248484
0.0288815
0.0329784
0.0370875
0.0411156
0.0449845
0.0486615
0.052178
0.0555404
0.0587544
0.0617971
0.064656
0.0673528
0.0699069
0.0723342
0.0746408
0.0767973
0.0787895
0.0806519
0.0824501
0.0842326
0.0859953
0.0876948
0.0892765
0.0907504
0.0921962
0.0936588
0.0951291
0.0965453
0.097878
0.0991859
0.100528
0.101937
0.103396
0.104837
0.106191
0.107448
0.108667
0.109948
0.111378
0.112957
0.114584
0.116136
0.117556
0.118858
0.120157
0.121571
0.12316
0.124901
0.126714
0.128493
0.130174
0.13175
0.133278
0.134833
0.136488
0.138273
0.140197
0.142204
0.144284
0.146345
0.14835
0.15032
0.152224
0.154055
0.155901
0.157657
0.159402
0.161009
0.162462
0.163985
0.165355
0.1665
0.167481
0.168344
0.169195
0.170095
0.171202
0.171987
0.172977
0.173992
0.174961
0.17614
0.177603
0.179263
0.181274
0.18341
0.185731
0.188003
0.190568
0.192603
0.195161
0.197158
0.19982
0.20169
0.204126
0.205786
0.208333
0.210582
0.212587
0.214703
0.215922
0.218805
2.00062e-05
2.0059e-05
2.02074e-05
2.05263e-05
2.1074e-05
2.2007e-05
2.36378e-05
2.68854e-05
3.36646e-05
4.62215e-05
6.70971e-05
0.000107565
0.000164868
0.000236841
0.000333288
0.000464155
0.000622776
0.000795998
0.000983215
0.00119628
0.00144113
0.00170707
0.00197703
0.00224152
0.00250977
0.00279224
0.00309509
0.0034053
0.00370277
0.00398351
0.00426343
0.0045651
0.00488997
0.00520651
0.00548395
0.00572951
0.00598444
0.00628297
0.0066159
0.00693726
0.00720794
0.00743899
0.00768193
0.00797337
0.00829748
0.00860263
0.00885233
0.00906397
0.00928905
0.00957165
0.00991029
0.0102561
0.01055
0.0107643
0.010933
0.011116
0.0113769
0.011719
0.0121
0.0124613
0.0127332
0.0129369
0.0130887
0.0132513
0.01347
0.0137716
0.0141704
0.0145894
0.0149646
0.0152497
0.0154269
0.0155641
0.0157194
0.0159532
0.0162861
0.0166891
0.0171288
0.0175624
0.017934
0.0182217
0.0184487
0.0185933
0.0186925
0.0187309
0.0187319
0.0187413
0.0187544
0.0187529
0.0187449
0.0186973
0.0185294
0.0181285
0.0176347
0.017116
0.0166028
0.0160961
0.0156319
0.0152243
0.0148653
0.0145561
0.0143189
0.0141796
0.0141314
0.0141256
0.014122
0.0141061
0.0141078
0.014152
0.0143316
0.0144776
0.0145669
0.0146472
0.0147517
0.0148058
0.0148945
0.0148944
0.0149227
0.0149268
0.0149502
0.0149439
2.0002e-05
2.004e-05
2.01599e-05
2.0406e-05
2.09247e-05
2.16475e-05
2.22644e-05
2.34375e-05
2.51427e-05
2.64179e-05
2.74289e-05
2.94376e-05
3.22924e-05
3.44678e-05
3.60897e-05
3.89505e-05
4.34343e-05
4.79512e-05
5.15882e-05
5.53812e-05
6.09961e-05
6.84995e-05
7.61945e-05
8.26577e-05
8.84499e-05
9.5401e-05
0.000105055
0.000116438
0.000126568
0.00013395
0.000140861
0.000151211
0.000165717
0.00018037
0.000190808
0.000197431
0.000205285
0.000218641
0.000236619
0.000253807
0.000265916
0.000274169
0.000283704
0.000298641
0.000318326
0.000337713
0.000351919
0.000361064
0.00037033
0.000385414
0.000407545
0.0004325
0.000454036
0.000468559
0.000477606
0.000486384
0.000500533
0.000522604
0.000551045
0.000581121
0.00060695
0.000624726
0.000634404
0.000640801
0.000651513
0.000673073
0.00070491
0.000741971
0.000777576
0.000805905
0.000824168
0.000834001
0.000840851
0.000852301
0.000878322
0.000919258
0.000965482
0.00100932
0.00104442
0.0010674
0.00107865
0.00108147
0.00108154
0.00108149
0.00108147
0.00108114
0.00108006
0.00107649
0.00106589
0.00103557
0.000981569
0.000918357
0.000852062
0.000783957
0.000719836
0.000658436
0.00060489
0.000556326
0.00051637
0.000481208
0.000454333
0.000432273
0.000417398
0.00040532
0.000397786
0.000390992
0.000387549
0.000384535
0.000383606
0.000381718
0.000380867
0.000378826
0.000377891
0.000375312
0.00037411
0.00037053
0.000368866
0.000364232
0.000361739
0.000351906
2.0002e-05
2.00401e-05
2.01604e-05
2.04079e-05
2.09422e-05
2.16245e-05
2.22567e-05
2.35037e-05
2.51747e-05
2.63518e-05
2.74114e-05
2.95311e-05
3.23242e-05
3.43417e-05
3.58399e-05
3.87041e-05
4.30519e-05
4.71295e-05
5.01257e-05
5.33951e-05
5.84407e-05
6.49766e-05
7.11672e-05
7.58389e-05
7.99055e-05
8.53992e-05
9.31425e-05
0.00010149
0.000108024
0.000112415
0.000117023
0.000124389
0.000134332
0.000143828
0.000150153
0.000153639
0.000157985
0.000166572
0.000178545
0.000189624
0.000196791
0.000201203
0.000206701
0.000215979
0.000228194
0.00024005
0.000248864
0.00025473
0.000260274
0.000268689
0.000281464
0.000297121
0.00031152
0.000321288
0.000326668
0.000331169
0.000338848
0.000351756
0.000369056
0.000387668
0.000403982
0.000415502
0.000421944
0.000425768
0.000431232
0.000443305
0.000462872
0.00048524
0.00050617
0.000522108
0.000531782
0.000536874
0.000541348
0.000550064
0.000568908
0.000593946
0.000619938
0.000642064
0.000657055
0.000664196
0.000665673
0.000665677
0.000665636
0.000665575
0.000665305
0.00066431
0.00066135
0.000653131
0.000630395
0.000590855
0.000545031
0.000497053
0.000448738
0.000403037
0.000360738
0.000323469
0.000290845
0.000263615
0.000240792
0.00022225
0.000207465
0.000195708
0.00018707
0.000179746
0.000174802
0.000169341
0.000166246
0.00016169
0.000159431
0.000155168
0.000152877
0.000148237
0.000145748
0.000140649
0.000137938
0.000132256
0.000129294
0.000122885
0.000119493
0.000109896
2.0006e-05
2.00583e-05
2.02056e-05
2.052e-05
2.1071e-05
2.19934e-05
2.36273e-05
2.68399e-05
3.35803e-05
4.59158e-05
6.63743e-05
0.000106328
0.000162039
0.000230737
0.000323288
0.00044919
0.0005993
0.000760172
0.000931757
0.0011282
0.00135243
0.00159231
0.00182932
0.00205804
0.002289
0.00253379
0.00279432
0.0030556
0.00329973
0.0035264
0.00375516
0.00400542
0.00427337
0.00452779
0.0047432
0.00493253
0.00513693
0.00538322
0.00565677
0.005912
0.00612077
0.00629963
0.00649388
0.0067331
0.00699866
0.00724417
0.00744315
0.00761477
0.00779837
0.00802615
0.00829785
0.00858382
0.00883332
0.0090171
0.00915098
0.00929278
0.0094987
0.00978125
0.0101076
0.0104098
0.0106441
0.0108153
0.0109422
0.011071
0.011251
0.0115172
0.011857
0.0121973
0.0124966
0.0127157
0.0128565
0.0129849
0.0131431
0.0133557
0.0136523
0.0139897
0.0143499
0.0146855
0.0149636
0.0151875
0.0153315
0.015416
0.0154503
0.0154516
0.0154592
0.0154709
0.0154697
0.0154637
0.0154257
0.0152877
0.0149206
0.0144549
0.0139529
0.0134474
0.0129682
0.0125204
0.0121195
0.0117767
0.0114857
0.0112508
0.0110742
0.0109621
0.0109131
0.0109029
0.0108995
0.0108921
0.0108763
0.0108766
0.010916
0.0109441
0.0109364
0.0109417
0.0109657
0.010965
0.0109707
0.010973
0.0109726
0.0109403
0.010909
0.0107191
2.0025e-05
2.0145e-05
2.08083e-05
2.44094e-05
3.9485e-05
8.70519e-05
0.000210712
0.000481902
0.00101904
0.00191644
0.00325723
0.00510037
0.0074005
0.0101359
0.0132725
0.0167515
0.0204458
0.0242516
0.0281155
0.0320268
0.0359259
0.0397241
0.0433422
0.046764
0.0500234
0.053133
0.0560929
0.0588787
0.0614835
0.0639293
0.066249
0.0684528
0.0705468
0.0725012
0.0743031
0.0759974
0.0776517
0.0793094
0.080955
0.0825349
0.0840086
0.0853837
0.0867542
0.0881731
0.0896049
0.0909934
0.092304
0.0935929
0.0949268
0.0963394
0.0977969
0.0992486
0.100627
0.101931
0.103196
0.104533
0.106016
0.107631
0.109298
0.110892
0.11236
0.113739
0.115137
0.116664
0.118362
0.120191
0.122062
0.123877
0.125607
0.127267
0.12891
0.13062
0.132389
0.134338
0.136345
0.138428
0.140576
0.142675
0.144767
0.146836
0.148845
0.150778
0.152661
0.154524
0.156191
0.157725
0.159273
0.160711
0.161866
0.16293
0.16386
0.164821
0.165746
0.166641
0.167633
0.168558
0.169438
0.170519
0.171647
0.172857
0.174354
0.176215
0.178376
0.180359
0.182645
0.1847
0.186828
0.189194
0.191418
0.193316
0.195376
0.197016
0.19909
0.200951
0.203085
0.204362
0.206215
0.207582
0.209508
0.210889
2.02632e-05
3.8181e-05
0.000195147
0.000869583
0.00295683
0.00778269
0.0175216
0.0337341
0.0558939
0.0840167
0.116402
0.151727
0.188201
0.224528
0.259398
0.292169
0.322229
0.349478
0.373778
0.39529
0.414121
0.430472
0.444636
0.456863
0.467464
0.476697
0.484826
0.492043
0.49855
0.504472
0.509958
0.515093
0.52
0.524762
0.529469
0.534184
0.53896
0.543828
0.548799
0.553879
0.559097
0.56444
0.569967
0.575645
0.581486
0.587511
0.593679
0.600029
0.606521
0.613142
0.619851
0.626683
0.633613
0.640694
0.647867
0.655162
0.662506
0.669871
0.6773
0.684755
0.692288
0.699875
0.7075
0.715145
0.722777
0.730394
0.737978
0.745544
0.75311
0.760687
0.768223
0.775712
0.783196
0.790623
0.798006
0.805276
0.812494
0.819631
0.826712
0.833708
0.840567
0.847312
0.853941
0.860475
0.866814
0.872997
0.879106
0.885148
0.891099
0.896846
0.902561
0.908235
0.913915
0.919651
0.92524
0.930853
0.936527
0.942171
0.947708
0.953181
0.95858
0.964035
0.969393
0.974533
0.979673
0.984718
0.98984
0.994836
0.999664
1.00431
1.00908
1.01368
1.01836
1.02243
1.02676
1.03132
1.03475
1.03962
1.04194
1.04704
0.000343683
0.00701627
0.0360712
0.107248
0.252427
0.467129
0.722969
0.997673
1.2622
1.50591
1.7116
1.88265
2.01823
2.1216
2.19726
2.25118
2.28731
2.31096
2.32416
2.33153
2.33281
2.33193
2.32965
2.32599
2.32212
2.31835
2.31505
2.3122
2.31001
2.30829
2.30725
2.30653
2.30647
2.30661
2.30698
2.30761
2.30838
2.3092
2.31006
2.31087
2.31164
2.31226
2.31283
2.31319
2.31349
2.31353
2.31345
2.31324
2.31282
2.31221
2.31144
2.3105
2.3094
2.30814
2.30673
2.30517
2.30348
2.30165
2.2997
2.29764
2.29546
2.29318
2.29081
2.28834
2.28579
2.28315
2.28045
2.27767
2.27483
2.27194
2.26898
2.26597
2.26291
2.25981
2.25666
2.25348
2.25025
2.24699
2.24369
2.24036
2.23699
2.23359
2.23016
2.22671
2.22323
2.21973
2.21621
2.21269
2.20915
2.2056
2.20206
2.19852
2.19498
2.19143
2.1879
2.18436
2.18085
2.17733
2.17384
2.17035
2.16691
2.16345
2.16005
2.15663
2.1533
2.1499
2.14666
2.14328
2.14014
2.13675
2.1338
2.13032
2.12761
2.12397
2.12156
2.11769
2.11555
2.11143
2.10934
2.10418
0.144663
0.781647
1.99307
3.44597
4.86842
6.08505
7.01416
7.65099
8.02518
8.19152
8.17261
8.09048
7.91484
7.68467
7.43166
7.17056
6.91139
6.66079
6.42279
6.19973
5.99256
5.80145
5.62602
5.46547
5.3188
5.18492
5.06272
4.95107
4.84893
4.75528
4.66921
4.58987
4.51651
4.44844
4.38506
4.32583
4.27028
4.218
4.16864
4.12188
4.07745
4.03511
3.99466
3.95592
3.91874
3.88297
3.84851
3.81525
3.78311
3.752
3.72188
3.69266
3.66432
3.63679
3.61004
3.58403
3.55874
3.53413
3.51017
3.48683
3.4641
3.44196
3.42037
3.39932
3.3788
3.35878
3.33926
3.3202
3.30161
3.28346
3.26575
3.24846
3.23158
3.2151
3.19901
3.1833
3.16795
3.15297
3.13834
3.12404
3.11008
3.09644
3.0831
3.07006
3.05731
3.04484
3.03263
3.02069
3.00899
2.99753
2.9863
2.9753
2.96451
2.95395
2.94359
2.93345
2.92348
2.91375
2.90415
2.89479
2.88552
2.87652
2.86755
2.85892
2.85021
2.84196
2.83349
2.82564
2.8174
2.80996
2.802
2.79495
2.7874
2.78061
2.77381
2.76699
2.76152
2.75438
2.75081
2.74329
)
;

boundaryField
{
    upperWall
    {
        type            fixedValue;
        value           uniform 0;
    }
    lowerWall
    {
        type            fixedValue;
        value           uniform 0;
    }
    inlet
    {
        type            fixedValue;
        value           uniform 2e-05;
    }
    outlet
    {
        type            inletOutlet;
        inletValue      uniform 0;
        value           nonuniform List<scalar> 
12
(
2.89079
2.05294
1.00578
0.218805
0.0149439
0.000351906
0.000109896
0.0107191
0.210889
1.04704
2.10418
2.74329
)
;
    }
    frontAndBack
    {
        type            empty;
    }
}


// ************************************************************************* //
