/*--------------------------------*- C++ -*----------------------------------*\
  =========                 |
  \\      /  F ield         | OpenFOAM: The Open Source CFD Toolbox
   \\    /   O peration     | Website:  https://openfoam.org
    \\  /    A nd           | Version:  7
     \\/     M anipulation  |
\*---------------------------------------------------------------------------*/
FoamFile
{
    version     2.0;
    format      ascii;
    class       volScalarField;
    location    "0.1025";
    object      rho_0;
}
// * * * * * * * * * * * * * * * * * * * * * * * * * * * * * * * * * * * * * //

dimensions      [1 -3 0 0 0 0 0];

internalField   nonuniform List<scalar> 
1440
(
1.15962
1.15919
1.1584
1.15728
1.15586
1.15418
1.1523
1.15025
1.14806
1.14575
1.14337
1.14092
1.13842
1.13589
1.13335
1.13081
1.12829
1.12579
1.12333
1.12091
1.11854
1.11623
1.11398
1.11181
1.1097
1.10767
1.10571
1.10382
1.102
1.10025
1.09857
1.09696
1.0954
1.09391
1.09247
1.09108
1.08974
1.08844
1.08719
1.08598
1.0848
1.08366
1.08256
1.08148
1.08043
1.07941
1.07841
1.07744
1.07648
1.07555
1.07464
1.07374
1.07286
1.072
1.07115
1.07032
1.0695
1.06869
1.0679
1.06712
1.06634
1.06558
1.06483
1.06409
1.06336
1.06264
1.06193
1.06122
1.06053
1.05984
1.05916
1.05849
1.05782
1.05716
1.05651
1.05587
1.05523
1.0546
1.05397
1.05335
1.05274
1.05213
1.05153
1.05093
1.05034
1.04976
1.04918
1.0486
1.04803
1.04747
1.0469
1.04635
1.0458
1.04525
1.04471
1.04417
1.04364
1.04311
1.04258
1.04206
1.04154
1.04103
1.04053
1.04002
1.03952
1.03901
1.0385
1.03799
1.03749
1.037
1.03652
1.03606
1.03563
1.03521
1.03484
1.03444
1.03415
1.03374
1.03356
1.03305
1.15968
1.1597
1.15974
1.15977
1.15978
1.15973
1.15962
1.15943
1.15916
1.15881
1.15839
1.1579
1.15734
1.15673
1.15606
1.15535
1.15461
1.15384
1.15305
1.15223
1.15141
1.15058
1.14974
1.1489
1.14805
1.14721
1.14637
1.14553
1.1447
1.14387
1.14305
1.14223
1.14142
1.14061
1.1398
1.139
1.1382
1.13741
1.13662
1.13583
1.13505
1.13427
1.1335
1.13273
1.13196
1.1312
1.13044
1.12968
1.12893
1.12818
1.12743
1.12669
1.12595
1.12522
1.12449
1.12376
1.12304
1.12233
1.12162
1.12091
1.12021
1.11951
1.11881
1.11813
1.11744
1.11676
1.11609
1.11542
1.11476
1.1141
1.11344
1.11279
1.11215
1.11151
1.11088
1.11025
1.10962
1.10901
1.10839
1.10778
1.10718
1.10658
1.10598
1.10539
1.10481
1.10423
1.10365
1.10308
1.10251
1.10195
1.10139
1.10083
1.10028
1.09974
1.09919
1.09866
1.09812
1.09759
1.09707
1.09654
1.09602
1.09551
1.095
1.09449
1.09399
1.09348
1.09299
1.09249
1.092
1.0915
1.09103
1.09053
1.09007
1.08956
1.08914
1.0886
1.08826
1.08764
1.08743
1.08665
1.15966
1.15966
1.15966
1.15965
1.15965
1.15965
1.15965
1.15964
1.15964
1.15963
1.15961
1.15959
1.15955
1.1595
1.15945
1.15937
1.15929
1.1592
1.15909
1.15898
1.15886
1.15872
1.15858
1.15844
1.15828
1.15812
1.15796
1.15779
1.15762
1.15744
1.15726
1.15707
1.15688
1.15668
1.15648
1.15628
1.15607
1.15586
1.15565
1.15543
1.15521
1.15498
1.15475
1.15452
1.15428
1.15404
1.15379
1.15354
1.15329
1.15303
1.15277
1.15251
1.15224
1.15197
1.1517
1.15142
1.15114
1.15085
1.15057
1.15028
1.14998
1.14969
1.14939
1.14909
1.14878
1.14847
1.14817
1.14785
1.14754
1.14722
1.14691
1.14659
1.14626
1.14594
1.14561
1.14529
1.14496
1.14463
1.1443
1.14396
1.14363
1.14329
1.14296
1.14262
1.14228
1.14194
1.1416
1.14126
1.14092
1.14057
1.14023
1.13988
1.13954
1.13919
1.13885
1.1385
1.13816
1.13781
1.13746
1.13711
1.13677
1.13642
1.13607
1.13572
1.13538
1.13503
1.13468
1.13433
1.13399
1.13363
1.13329
1.13293
1.13261
1.13222
1.13193
1.13151
1.13126
1.13077
1.13063
1.13
1.15966
1.15965
1.15965
1.15964
1.15964
1.15963
1.15962
1.15961
1.1596
1.15959
1.15958
1.15956
1.15955
1.15954
1.15953
1.15952
1.15951
1.1595
1.15949
1.15948
1.15947
1.15946
1.15945
1.15943
1.15942
1.15941
1.15939
1.15938
1.15936
1.15934
1.15932
1.1593
1.15929
1.15926
1.15924
1.15922
1.1592
1.15917
1.15915
1.15912
1.1591
1.15907
1.15904
1.15901
1.15898
1.15895
1.15891
1.15888
1.15884
1.15881
1.15877
1.15873
1.15869
1.15865
1.1586
1.15856
1.15851
1.15847
1.15842
1.15837
1.15832
1.15826
1.15821
1.15815
1.1581
1.15804
1.15798
1.15792
1.15786
1.15779
1.15773
1.15766
1.15759
1.15752
1.15745
1.15738
1.1573
1.15723
1.15715
1.15707
1.15699
1.15691
1.15683
1.15674
1.15666
1.15657
1.15648
1.15639
1.1563
1.15621
1.15611
1.15602
1.15592
1.15582
1.15572
1.15562
1.15552
1.15541
1.15531
1.1552
1.15509
1.15498
1.15487
1.15476
1.15465
1.15453
1.15442
1.1543
1.15419
1.15406
1.15395
1.15382
1.1537
1.15356
1.15346
1.1533
1.15322
1.15303
1.15298
1.15274
1.15965
1.15965
1.15965
1.15964
1.15963
1.15962
1.15961
1.1596
1.15959
1.15958
1.15957
1.15956
1.15954
1.15953
1.15952
1.15951
1.1595
1.15949
1.15948
1.15947
1.15946
1.15945
1.15944
1.15943
1.15943
1.15942
1.15941
1.15941
1.1594
1.15939
1.15939
1.15938
1.15938
1.15937
1.15937
1.15936
1.15936
1.15935
1.15935
1.15935
1.15934
1.15934
1.15933
1.15933
1.15932
1.15932
1.15932
1.15931
1.15931
1.1593
1.1593
1.15929
1.15929
1.15928
1.15928
1.15927
1.15927
1.15926
1.15926
1.15925
1.15925
1.15924
1.15924
1.15923
1.15923
1.15922
1.15921
1.15921
1.1592
1.15919
1.15919
1.15918
1.15917
1.15917
1.15916
1.15915
1.15914
1.15914
1.15913
1.15912
1.15911
1.1591
1.15909
1.15908
1.15908
1.15907
1.15906
1.15905
1.15904
1.15902
1.15901
1.159
1.15899
1.15898
1.15897
1.15896
1.15894
1.15893
1.15892
1.15891
1.15889
1.15888
1.15886
1.15885
1.15883
1.15882
1.1588
1.15879
1.15877
1.15876
1.15874
1.15872
1.15871
1.15868
1.15867
1.15865
1.15863
1.15861
1.1586
1.15856
1.15965
1.15965
1.15964
1.15964
1.15963
1.15962
1.15961
1.1596
1.15959
1.15958
1.15957
1.15956
1.15954
1.15953
1.15952
1.15951
1.1595
1.15949
1.15947
1.15946
1.15946
1.15945
1.15944
1.15943
1.15942
1.15941
1.15941
1.1594
1.15939
1.15939
1.15938
1.15938
1.15937
1.15937
1.15936
1.15936
1.15935
1.15935
1.15934
1.15934
1.15933
1.15933
1.15933
1.15932
1.15932
1.15931
1.15931
1.15931
1.1593
1.1593
1.1593
1.15929
1.15929
1.15929
1.15928
1.15928
1.15928
1.15927
1.15927
1.15927
1.15926
1.15926
1.15926
1.15925
1.15925
1.15925
1.15924
1.15924
1.15924
1.15924
1.15923
1.15923
1.15923
1.15922
1.15922
1.15922
1.15922
1.15921
1.15921
1.15921
1.1592
1.1592
1.1592
1.1592
1.15919
1.15919
1.15919
1.15918
1.15918
1.15918
1.15918
1.15917
1.15917
1.15917
1.15917
1.15916
1.15916
1.15916
1.15915
1.15915
1.15915
1.15915
1.15914
1.15914
1.15914
1.15914
1.15913
1.15913
1.15913
1.15912
1.15912
1.15912
1.15912
1.15911
1.15911
1.15911
1.15911
1.1591
1.1591
1.1591
1.15965
1.15965
1.15964
1.15964
1.15963
1.15962
1.15961
1.1596
1.15959
1.15958
1.15957
1.15956
1.15954
1.15953
1.15952
1.15951
1.1595
1.15949
1.15947
1.15946
1.15946
1.15945
1.15944
1.15943
1.15942
1.15941
1.15941
1.1594
1.15939
1.15939
1.15938
1.15938
1.15937
1.15937
1.15936
1.15936
1.15935
1.15935
1.15934
1.15934
1.15933
1.15933
1.15933
1.15932
1.15932
1.15931
1.15931
1.15931
1.1593
1.1593
1.1593
1.15929
1.15929
1.15929
1.15928
1.15928
1.15928
1.15927
1.15927
1.15927
1.15926
1.15926
1.15926
1.15925
1.15925
1.15925
1.15924
1.15924
1.15924
1.15923
1.15923
1.15923
1.15923
1.15922
1.15922
1.15922
1.15921
1.15921
1.15921
1.15921
1.1592
1.1592
1.1592
1.15919
1.15919
1.15919
1.15919
1.15918
1.15918
1.15918
1.15918
1.15917
1.15917
1.15917
1.15916
1.15916
1.15916
1.15916
1.15915
1.15915
1.15915
1.15915
1.15914
1.15914
1.15914
1.15914
1.15913
1.15913
1.15913
1.15913
1.15913
1.15912
1.15912
1.15912
1.15912
1.15911
1.15911
1.15911
1.15911
1.1591
1.15965
1.15965
1.15965
1.15964
1.15963
1.15962
1.15961
1.1596
1.15959
1.15958
1.15957
1.15956
1.15954
1.15953
1.15952
1.15951
1.1595
1.15949
1.15948
1.15947
1.15946
1.15945
1.15944
1.15943
1.15942
1.15941
1.15941
1.1594
1.15939
1.15939
1.15938
1.15938
1.15937
1.15937
1.15936
1.15936
1.15935
1.15935
1.15934
1.15934
1.15933
1.15933
1.15933
1.15932
1.15932
1.15932
1.15931
1.15931
1.1593
1.1593
1.1593
1.15929
1.15929
1.15929
1.15928
1.15928
1.15928
1.15927
1.15927
1.15927
1.15926
1.15926
1.15926
1.15925
1.15925
1.15925
1.15924
1.15924
1.15924
1.15923
1.15923
1.15923
1.15923
1.15922
1.15922
1.15922
1.15921
1.15921
1.15921
1.15921
1.1592
1.1592
1.1592
1.15919
1.15919
1.15919
1.15918
1.15918
1.15918
1.15918
1.15917
1.15917
1.15917
1.15917
1.15916
1.15916
1.15916
1.15915
1.15915
1.15915
1.15915
1.15914
1.15914
1.15914
1.15914
1.15913
1.15913
1.15913
1.15913
1.15912
1.15912
1.15912
1.15911
1.15911
1.15911
1.15911
1.1591
1.1591
1.1591
1.1591
1.15966
1.15965
1.15965
1.15964
1.15964
1.15963
1.15962
1.15961
1.1596
1.15958
1.15957
1.15956
1.15955
1.15953
1.15952
1.15951
1.1595
1.15949
1.15948
1.15947
1.15946
1.15945
1.15944
1.15943
1.15942
1.15942
1.15941
1.1594
1.1594
1.15939
1.15938
1.15938
1.15937
1.15937
1.15936
1.15936
1.15935
1.15935
1.15934
1.15934
1.15933
1.15933
1.15932
1.15932
1.15932
1.15931
1.15931
1.1593
1.1593
1.15929
1.15929
1.15929
1.15928
1.15928
1.15927
1.15927
1.15927
1.15926
1.15926
1.15925
1.15925
1.15925
1.15924
1.15924
1.15923
1.15923
1.15923
1.15922
1.15922
1.15921
1.15921
1.15921
1.1592
1.1592
1.15919
1.15919
1.15919
1.15918
1.15918
1.15918
1.15917
1.15917
1.15916
1.15916
1.15916
1.15915
1.15915
1.15914
1.15914
1.15914
1.15913
1.15913
1.15913
1.15912
1.15912
1.15911
1.15911
1.15911
1.1591
1.1591
1.1591
1.15909
1.15909
1.15909
1.15908
1.15908
1.15907
1.15907
1.15907
1.15906
1.15906
1.15906
1.15905
1.15905
1.15905
1.15904
1.15904
1.15904
1.15903
1.15903
1.15966
1.15966
1.15966
1.15965
1.15964
1.15963
1.15962
1.15961
1.1596
1.15959
1.15957
1.15956
1.15955
1.15953
1.15952
1.15951
1.1595
1.15948
1.15947
1.15946
1.15945
1.15944
1.15942
1.15941
1.1594
1.15939
1.15939
1.15938
1.15937
1.15936
1.15935
1.15934
1.15934
1.15933
1.15932
1.15931
1.15931
1.1593
1.15929
1.15929
1.15928
1.15927
1.15927
1.15926
1.15925
1.15925
1.15924
1.15924
1.15923
1.15922
1.15922
1.15921
1.15921
1.1592
1.1592
1.15919
1.15918
1.15918
1.15917
1.15917
1.15916
1.15916
1.15915
1.15915
1.15914
1.15914
1.15913
1.15913
1.15912
1.15912
1.15911
1.15911
1.1591
1.1591
1.15909
1.15909
1.15908
1.15908
1.15907
1.15907
1.15906
1.15906
1.15905
1.15905
1.15904
1.15904
1.15904
1.15903
1.15903
1.15902
1.15902
1.15902
1.15901
1.15901
1.159
1.159
1.15899
1.15899
1.15899
1.15898
1.15898
1.15898
1.15897
1.15897
1.15896
1.15896
1.15896
1.15895
1.15895
1.15895
1.15894
1.15894
1.15894
1.15893
1.15893
1.15893
1.15892
1.15892
1.15892
1.15891
1.15967
1.15967
1.15967
1.15966
1.15965
1.15964
1.15963
1.15961
1.15959
1.15957
1.15955
1.15953
1.15951
1.15949
1.15947
1.15945
1.15943
1.15941
1.15939
1.15938
1.15936
1.15934
1.15933
1.15932
1.1593
1.15929
1.15928
1.15927
1.15926
1.15925
1.15924
1.15923
1.15923
1.15922
1.15921
1.1592
1.1592
1.15919
1.15918
1.15918
1.15917
1.15917
1.15916
1.15916
1.15915
1.15914
1.15914
1.15913
1.15913
1.15912
1.15912
1.15911
1.15911
1.15911
1.1591
1.1591
1.15909
1.15909
1.15908
1.15908
1.15908
1.15907
1.15907
1.15906
1.15906
1.15906
1.15905
1.15905
1.15904
1.15904
1.15904
1.15903
1.15903
1.15903
1.15902
1.15902
1.15902
1.15901
1.15901
1.159
1.159
1.159
1.15899
1.15899
1.15899
1.15898
1.15898
1.15898
1.15897
1.15897
1.15897
1.15896
1.15896
1.15896
1.15896
1.15895
1.15895
1.15895
1.15894
1.15894
1.15894
1.15893
1.15893
1.15893
1.15892
1.15892
1.15892
1.15891
1.15891
1.15891
1.15891
1.1589
1.1589
1.1589
1.15889
1.15889
1.15889
1.15889
1.15888
1.15888
1.15969
1.15968
1.15966
1.15964
1.15961
1.15958
1.15955
1.15952
1.15949
1.15947
1.15944
1.15942
1.1594
1.15938
1.15937
1.15936
1.15934
1.15933
1.15933
1.15932
1.15931
1.1593
1.1593
1.15929
1.15928
1.15928
1.15927
1.15927
1.15926
1.15926
1.15925
1.15924
1.15924
1.15923
1.15923
1.15922
1.15922
1.15921
1.15921
1.1592
1.15919
1.15919
1.15918
1.15918
1.15917
1.15917
1.15916
1.15916
1.15915
1.15915
1.15914
1.15914
1.15913
1.15913
1.15912
1.15912
1.15911
1.15911
1.15911
1.1591
1.1591
1.15909
1.15909
1.15908
1.15908
1.15907
1.15907
1.15907
1.15906
1.15906
1.15905
1.15905
1.15905
1.15904
1.15904
1.15903
1.15903
1.15903
1.15902
1.15902
1.15901
1.15901
1.15901
1.159
1.159
1.159
1.15899
1.15899
1.15898
1.15898
1.15898
1.15897
1.15897
1.15897
1.15896
1.15896
1.15896
1.15895
1.15895
1.15895
1.15894
1.15894
1.15894
1.15893
1.15893
1.15893
1.15892
1.15892
1.15892
1.15891
1.15891
1.15891
1.1589
1.1589
1.1589
1.15889
1.15889
1.15889
1.15888
1.15888
)
;

boundaryField
{
    upperWall
    {
        type            calculated;
        value           nonuniform List<scalar> 
120
(
1.15969
1.15969
1.15968
1.15967
1.15965
1.15963
1.15962
1.1596
1.15958
1.15956
1.15954
1.15952
1.1595
1.15948
1.15946
1.15944
1.15943
1.15941
1.15939
1.15938
1.15937
1.15935
1.15934
1.15933
1.15932
1.15931
1.1593
1.15929
1.15928
1.15928
1.15927
1.15926
1.15925
1.15925
1.15924
1.15923
1.15923
1.15922
1.15922
1.15921
1.1592
1.1592
1.15919
1.15919
1.15918
1.15918
1.15917
1.15917
1.15916
1.15916
1.15915
1.15915
1.15914
1.15914
1.15913
1.15913
1.15912
1.15912
1.15911
1.15911
1.1591
1.1591
1.1591
1.15909
1.15909
1.15908
1.15908
1.15907
1.15907
1.15907
1.15906
1.15906
1.15905
1.15905
1.15904
1.15904
1.15904
1.15903
1.15903
1.15902
1.15902
1.15902
1.15901
1.15901
1.159
1.159
1.159
1.15899
1.15899
1.15899
1.15898
1.15898
1.15897
1.15897
1.15897
1.15896
1.15896
1.15896
1.15895
1.15895
1.15895
1.15894
1.15894
1.15893
1.15893
1.15893
1.15892
1.15892
1.15892
1.15891
1.15891
1.15891
1.1589
1.1589
1.1589
1.15889
1.15889
1.15889
1.15888
1.15888
)
;
    }
    lowerWall
    {
        type            calculated;
        value           nonuniform List<scalar> 
120
(
1.12448
1.12408
1.12334
1.12228
1.12094
1.11937
1.1176
1.11567
1.1136
1.11143
1.10919
1.10688
1.10453
1.10215
1.09976
1.09737
1.09499
1.09264
1.09031
1.08803
1.0858
1.08363
1.08151
1.07946
1.07747
1.07555
1.0737
1.07192
1.07021
1.06856
1.06698
1.06545
1.06398
1.06257
1.06121
1.0599
1.05864
1.05741
1.05623
1.05509
1.05398
1.0529
1.05186
1.05084
1.04985
1.04889
1.04794
1.04702
1.04612
1.04524
1.04438
1.04353
1.0427
1.04189
1.04109
1.0403
1.03953
1.03876
1.03801
1.03727
1.03654
1.03583
1.03512
1.03442
1.03373
1.03304
1.03237
1.0317
1.03105
1.0304
1.02975
1.02912
1.02849
1.02786
1.02725
1.02664
1.02604
1.02544
1.02485
1.02426
1.02368
1.02311
1.02254
1.02197
1.02142
1.02086
1.02031
1.01977
1.01923
1.01869
1.01816
1.01764
1.01712
1.0166
1.01609
1.01558
1.01507
1.01457
1.01407
1.01358
1.01309
1.01261
1.01213
1.01165
1.01117
1.01069
1.01021
1.00973
1.00926
1.00879
1.00834
1.0079
1.0075
1.0071
1.00675
1.00637
1.00609
1.00571
1.00554
1.00506
)
;
    }
    inlet
    {
        type            calculated;
        value           nonuniform List<scalar> 
12
(
1.15969
1.15968
1.15966
1.15966
1.15965
1.15965
1.15965
1.15965
1.15966
1.15966
1.15967
1.15969
)
;
    }
    outlet
    {
        type            calculated;
        value           nonuniform List<scalar> 
12
(
1.03305
1.08665
1.13
1.15273
1.15856
1.1591
1.1591
1.1591
1.15903
1.15891
1.15888
1.15888
)
;
    }
    frontAndBack
    {
        type            empty;
    }
}


// ************************************************************************* //
