/*--------------------------------*- C++ -*----------------------------------*\
  =========                 |
  \\      /  F ield         | OpenFOAM: The Open Source CFD Toolbox
   \\    /   O peration     | Website:  https://openfoam.org
    \\  /    A nd           | Version:  7
     \\/     M anipulation  |
\*---------------------------------------------------------------------------*/
FoamFile
{
    version     2.0;
    format      ascii;
    class       volSymmTensorField;
    location    "0.125";
    object      UPrime2Mean;
}
// * * * * * * * * * * * * * * * * * * * * * * * * * * * * * * * * * * * * * //

dimensions      [0 2 -2 0 0 0 0];

internalField   nonuniform List<symmTensor> 
2400
(
(8.36025e-06 2.79327e-07 0 5.31997e-08 0 0)
(2.02037e-05 1.0773e-07 0 1.36954e-08 0 0)
(1.59989e-05 -6.56733e-09 0 4.59375e-09 0 0)
(1.62362e-05 1.28314e-08 0 3.86317e-10 0 0)
(1.60903e-05 -5.84561e-09 0 7.551e-10 0 0)
(1.60414e-05 4.52727e-09 0 5.70496e-11 0 0)
(1.59606e-05 -1.31867e-09 0 4.7194e-11 0 0)
(1.59069e-05 1.32102e-10 0 1.04441e-11 0 0)
(1.58563e-05 -6.81242e-10 0 5.82068e-12 0 0)
(1.58141e-05 -9.4543e-10 0 3.53169e-12 0 0)
(1.5778e-05 -1.19331e-09 0 2.39735e-12 0 0)
(1.57475e-05 -1.38052e-09 0 1.77729e-12 0 0)
(1.57218e-05 -1.53027e-09 0 1.41287e-12 0 0)
(1.57002e-05 -1.65064e-09 0 1.18863e-12 0 0)
(1.56824e-05 -1.74622e-09 0 1.04627e-12 0 0)
(1.56678e-05 -1.8205e-09 0 9.50015e-13 0 0)
(1.56562e-05 -1.89333e-09 0 8.93143e-13 0 0)
(1.56471e-05 -1.94852e-09 0 8.46625e-13 0 0)
(1.56405e-05 -1.9953e-09 0 8.12537e-13 0 0)
(1.5636e-05 -2.03746e-09 0 7.87374e-13 0 0)
(1.56335e-05 -2.07476e-09 0 7.6961e-13 0 0)
(1.56328e-05 -2.1064e-09 0 7.57308e-13 0 0)
(1.56337e-05 -2.13535e-09 0 7.46681e-13 0 0)
(1.56361e-05 -2.16411e-09 0 7.36236e-13 0 0)
(1.564e-05 -2.19064e-09 0 7.27074e-13 0 0)
(1.56451e-05 -2.21512e-09 0 7.19524e-13 0 0)
(1.56514e-05 -2.23765e-09 0 7.13599e-13 0 0)
(1.56589e-05 -2.25798e-09 0 7.09191e-13 0 0)
(1.56674e-05 -2.27663e-09 0 7.05574e-13 0 0)
(1.56769e-05 -2.29394e-09 0 7.02425e-13 0 0)
(1.56874e-05 -2.30996e-09 0 6.9962e-13 0 0)
(1.56987e-05 -2.32468e-09 0 6.97045e-13 0 0)
(1.57108e-05 -2.33829e-09 0 6.9458e-13 0 0)
(1.57238e-05 -2.35142e-09 0 6.92034e-13 0 0)
(1.57374e-05 -2.36426e-09 0 6.89367e-13 0 0)
(1.57518e-05 -2.37662e-09 0 6.8664e-13 0 0)
(1.57669e-05 -2.38857e-09 0 6.83938e-13 0 0)
(1.57826e-05 -2.39987e-09 0 6.81437e-13 0 0)
(1.57989e-05 -2.41033e-09 0 6.79249e-13 0 0)
(1.58158e-05 -2.42001e-09 0 6.7725e-13 0 0)
(1.58333e-05 -2.42894e-09 0 6.75366e-13 0 0)
(1.58514e-05 -2.43722e-09 0 6.73579e-13 0 0)
(1.58699e-05 -2.44494e-09 0 6.71885e-13 0 0)
(1.5889e-05 -2.45214e-09 0 6.70276e-13 0 0)
(1.59086e-05 -2.45876e-09 0 6.68726e-13 0 0)
(1.59286e-05 -2.46482e-09 0 6.67238e-13 0 0)
(1.59491e-05 -2.47037e-09 0 6.65803e-13 0 0)
(1.59701e-05 -2.47547e-09 0 6.64418e-13 0 0)
(1.59915e-05 -2.48012e-09 0 6.63071e-13 0 0)
(1.60134e-05 -2.48431e-09 0 6.61749e-13 0 0)
(1.60356e-05 -2.48804e-09 0 6.60444e-13 0 0)
(1.60583e-05 -2.49139e-09 0 6.59161e-13 0 0)
(1.60814e-05 -2.4944e-09 0 6.57883e-13 0 0)
(1.61048e-05 -2.49722e-09 0 6.56554e-13 0 0)
(1.61287e-05 -2.5e-09 0 6.55089e-13 0 0)
(1.61529e-05 -2.50273e-09 0 6.53503e-13 0 0)
(1.61775e-05 -2.50517e-09 0 6.51806e-13 0 0)
(1.62025e-05 -2.50739e-09 0 6.50078e-13 0 0)
(1.62278e-05 -2.50946e-09 0 6.48342e-13 0 0)
(1.62535e-05 -2.51143e-09 0 6.46581e-13 0 0)
(1.62796e-05 -2.51334e-09 0 6.44785e-13 0 0)
(1.63059e-05 -2.51513e-09 0 6.42946e-13 0 0)
(1.63327e-05 -2.51672e-09 0 6.41079e-13 0 0)
(1.63597e-05 -2.51812e-09 0 6.39207e-13 0 0)
(1.63871e-05 -2.51934e-09 0 6.37338e-13 0 0)
(1.64149e-05 -2.5204e-09 0 6.35476e-13 0 0)
(1.64429e-05 -2.5213e-09 0 6.3362e-13 0 0)
(1.64713e-05 -2.52205e-09 0 6.31766e-13 0 0)
(1.64999e-05 -2.52262e-09 0 6.29906e-13 0 0)
(1.65289e-05 -2.52305e-09 0 6.28045e-13 0 0)
(1.65582e-05 -2.52335e-09 0 6.26181e-13 0 0)
(1.65878e-05 -2.52354e-09 0 6.24316e-13 0 0)
(1.66177e-05 -2.52362e-09 0 6.22454e-13 0 0)
(1.66478e-05 -2.52361e-09 0 6.20596e-13 0 0)
(1.66783e-05 -2.5235e-09 0 6.1874e-13 0 0)
(1.6709e-05 -2.52324e-09 0 6.16869e-13 0 0)
(1.67399e-05 -2.52293e-09 0 6.15009e-13 0 0)
(1.67712e-05 -2.52252e-09 0 6.13145e-13 0 0)
(1.68027e-05 -2.52202e-09 0 6.11286e-13 0 0)
(1.68344e-05 -2.52145e-09 0 6.09443e-13 0 0)
(1.68664e-05 -2.52081e-09 0 6.07617e-13 0 0)
(1.68986e-05 -2.52011e-09 0 6.05808e-13 0 0)
(1.69311e-05 -2.51927e-09 0 6.03983e-13 0 0)
(1.69637e-05 -2.51839e-09 0 6.02174e-13 0 0)
(1.69966e-05 -2.51742e-09 0 6.00367e-13 0 0)
(1.70297e-05 -2.51631e-09 0 5.98568e-13 0 0)
(1.70629e-05 -2.51512e-09 0 5.96778e-13 0 0)
(1.70963e-05 -2.51394e-09 0 5.94992e-13 0 0)
(1.713e-05 -2.51288e-09 0 5.93171e-13 0 0)
(1.71637e-05 -2.51192e-09 0 5.91296e-13 0 0)
(1.71977e-05 -2.511e-09 0 5.89315e-13 0 0)
(1.72317e-05 -2.51012e-09 0 5.87258e-13 0 0)
(1.72659e-05 -2.50918e-09 0 5.85173e-13 0 0)
(1.73003e-05 -2.50824e-09 0 5.83065e-13 0 0)
(1.73347e-05 -2.50726e-09 0 5.80952e-13 0 0)
(1.73693e-05 -2.50632e-09 0 5.78832e-13 0 0)
(1.74039e-05 -2.50544e-09 0 5.76706e-13 0 0)
(1.74386e-05 -2.50469e-09 0 5.74559e-13 0 0)
(1.74734e-05 -2.50403e-09 0 5.72392e-13 0 0)
(1.75082e-05 -2.5034e-09 0 5.7023e-13 0 0)
(1.75431e-05 -2.50248e-09 0 5.67951e-13 0 0)
(1.7578e-05 -2.5018e-09 0 5.65771e-13 0 0)
(1.7613e-05 -2.50108e-09 0 5.63588e-13 0 0)
(1.7648e-05 -2.50021e-09 0 5.61436e-13 0 0)
(1.76829e-05 -2.49936e-09 0 5.59302e-13 0 0)
(1.77179e-05 -2.49846e-09 0 5.57173e-13 0 0)
(1.77529e-05 -2.49749e-09 0 5.55043e-13 0 0)
(1.77878e-05 -2.4965e-09 0 5.52936e-13 0 0)
(1.78227e-05 -2.49552e-09 0 5.50872e-13 0 0)
(1.78576e-05 -2.49451e-09 0 5.48844e-13 0 0)
(1.78924e-05 -2.49337e-09 0 5.46819e-13 0 0)
(1.79272e-05 -2.4923e-09 0 5.44756e-13 0 0)
(1.79618e-05 -2.49102e-09 0 5.42664e-13 0 0)
(1.79965e-05 -2.48991e-09 0 5.40721e-13 0 0)
(1.8031e-05 -2.48827e-09 0 5.38859e-13 0 0)
(1.80654e-05 -2.48591e-09 0 5.37112e-13 0 0)
(1.80998e-05 -2.48353e-09 0 5.35212e-13 0 0)
(1.8134e-05 -2.48213e-09 0 5.37854e-13 0 0)
(1.81686e-05 -2.69345e-09 0 6.46763e-13 0 0)
(1.81885e-05 -2.1915e-09 0 4.35744e-13 0 0)
(9.25693e-06 4.16218e-07 0 1.08784e-07 0 0)
(2.15908e-05 1.58749e-07 0 4.78098e-08 0 0)
(1.72619e-05 7.72721e-08 0 2.27734e-08 0 0)
(1.74861e-05 3.50915e-08 0 3.84524e-09 0 0)
(1.73864e-05 1.92575e-08 0 2.92792e-09 0 0)
(1.73236e-05 1.34957e-08 0 3.99875e-10 0 0)
(1.72415e-05 6.75234e-09 0 3.30054e-10 0 0)
(1.71891e-05 5.33861e-09 0 8.55284e-11 0 0)
(1.71369e-05 2.87627e-09 0 5.08272e-11 0 0)
(1.70952e-05 1.72005e-09 0 2.50622e-11 0 0)
(1.70594e-05 7.16252e-10 0 1.43118e-11 0 0)
(1.70294e-05 -9.59621e-12 0 8.60459e-12 0 0)
(1.70042e-05 -5.59119e-10 0 5.5049e-12 0 0)
(1.69833e-05 -9.75044e-10 0 3.7523e-12 0 0)
(1.69662e-05 -1.2912e-09 0 2.72659e-12 0 0)
(1.69524e-05 -1.53873e-09 0 2.10441e-12 0 0)
(1.69416e-05 -1.72947e-09 0 1.73717e-12 0 0)
(1.69335e-05 -1.88039e-09 0 1.48522e-12 0 0)
(1.69278e-05 -2.00123e-09 0 1.31949e-12 0 0)
(1.69242e-05 -2.09745e-09 0 1.2089e-12 0 0)
(1.69226e-05 -2.17608e-09 0 1.13202e-12 0 0)
(1.69228e-05 -2.24313e-09 0 1.0756e-12 0 0)
(1.69246e-05 -2.29827e-09 0 1.03528e-12 0 0)
(1.69279e-05 -2.3443e-09 0 1.00666e-12 0 0)
(1.69326e-05 -2.38379e-09 0 9.85165e-13 0 0)
(1.69386e-05 -2.41898e-09 0 9.67579e-13 0 0)
(1.69459e-05 -2.45071e-09 0 9.52754e-13 0 0)
(1.69542e-05 -2.4794e-09 0 9.40276e-13 0 0)
(1.69635e-05 -2.50503e-09 0 9.29895e-13 0 0)
(1.69739e-05 -2.52794e-09 0 9.21264e-13 0 0)
(1.69852e-05 -2.54848e-09 0 9.14005e-13 0 0)
(1.69973e-05 -2.56692e-09 0 9.07852e-13 0 0)
(1.70103e-05 -2.5836e-09 0 9.02678e-13 0 0)
(1.7024e-05 -2.59899e-09 0 8.98278e-13 0 0)
(1.70384e-05 -2.61386e-09 0 8.93801e-13 0 0)
(1.70536e-05 -2.62782e-09 0 8.89536e-13 0 0)
(1.70694e-05 -2.64103e-09 0 8.85485e-13 0 0)
(1.70859e-05 -2.65368e-09 0 8.81476e-13 0 0)
(1.7103e-05 -2.66554e-09 0 8.77753e-13 0 0)
(1.71206e-05 -2.67651e-09 0 8.74301e-13 0 0)
(1.71389e-05 -2.68665e-09 0 8.71063e-13 0 0)
(1.71576e-05 -2.69607e-09 0 8.68014e-13 0 0)
(1.71769e-05 -2.70481e-09 0 8.65123e-13 0 0)
(1.71967e-05 -2.71289e-09 0 8.6235e-13 0 0)
(1.7217e-05 -2.72033e-09 0 8.5966e-13 0 0)
(1.72377e-05 -2.72719e-09 0 8.57037e-13 0 0)
(1.72589e-05 -2.73353e-09 0 8.54494e-13 0 0)
(1.72806e-05 -2.73936e-09 0 8.52033e-13 0 0)
(1.73027e-05 -2.74468e-09 0 8.49637e-13 0 0)
(1.73252e-05 -2.74948e-09 0 8.47304e-13 0 0)
(1.73481e-05 -2.75379e-09 0 8.45049e-13 0 0)
(1.73715e-05 -2.75765e-09 0 8.42895e-13 0 0)
(1.73952e-05 -2.76111e-09 0 8.40838e-13 0 0)
(1.74193e-05 -2.76442e-09 0 8.38676e-13 0 0)
(1.74439e-05 -2.76774e-09 0 8.36272e-13 0 0)
(1.74687e-05 -2.77071e-09 0 8.3392e-13 0 0)
(1.7494e-05 -2.77333e-09 0 8.31535e-13 0 0)
(1.75196e-05 -2.77569e-09 0 8.29162e-13 0 0)
(1.75456e-05 -2.77786e-09 0 8.26749e-13 0 0)
(1.75719e-05 -2.78001e-09 0 8.24144e-13 0 0)
(1.75986e-05 -2.78199e-09 0 8.21593e-13 0 0)
(1.76257e-05 -2.78374e-09 0 8.19135e-13 0 0)
(1.7653e-05 -2.78528e-09 0 8.16729e-13 0 0)
(1.76807e-05 -2.78662e-09 0 8.14353e-13 0 0)
(1.77088e-05 -2.78781e-09 0 8.11996e-13 0 0)
(1.77371e-05 -2.78884e-09 0 8.09649e-13 0 0)
(1.77658e-05 -2.78971e-09 0 8.07306e-13 0 0)
(1.77948e-05 -2.79042e-09 0 8.04957e-13 0 0)
(1.78241e-05 -2.79097e-09 0 8.02599e-13 0 0)
(1.78537e-05 -2.79136e-09 0 8.0023e-13 0 0)
(1.78836e-05 -2.79162e-09 0 7.97851e-13 0 0)
(1.79138e-05 -2.79176e-09 0 7.95468e-13 0 0)
(1.79443e-05 -2.79181e-09 0 7.93084e-13 0 0)
(1.79751e-05 -2.79176e-09 0 7.90701e-13 0 0)
(1.80062e-05 -2.79161e-09 0 7.88317e-13 0 0)
(1.80375e-05 -2.79136e-09 0 7.85926e-13 0 0)
(1.80691e-05 -2.79101e-09 0 7.83525e-13 0 0)
(1.8101e-05 -2.79056e-09 0 7.81113e-13 0 0)
(1.81331e-05 -2.79005e-09 0 7.78697e-13 0 0)
(1.81654e-05 -2.78948e-09 0 7.76273e-13 0 0)
(1.8198e-05 -2.78881e-09 0 7.73832e-13 0 0)
(1.82309e-05 -2.78814e-09 0 7.71422e-13 0 0)
(1.82639e-05 -2.78743e-09 0 7.69037e-13 0 0)
(1.82972e-05 -2.78645e-09 0 7.66539e-13 0 0)
(1.83307e-05 -2.78543e-09 0 7.64156e-13 0 0)
(1.83644e-05 -2.78435e-09 0 7.61775e-13 0 0)
(1.83983e-05 -2.78322e-09 0 7.59436e-13 0 0)
(1.84323e-05 -2.78211e-09 0 7.57019e-13 0 0)
(1.84665e-05 -2.78128e-09 0 7.54447e-13 0 0)
(1.85009e-05 -2.78059e-09 0 7.51791e-13 0 0)
(1.85355e-05 -2.77979e-09 0 7.49169e-13 0 0)
(1.85702e-05 -2.77892e-09 0 7.46584e-13 0 0)
(1.8605e-05 -2.7777e-09 0 7.4399e-13 0 0)
(1.86399e-05 -2.77671e-09 0 7.41381e-13 0 0)
(1.8675e-05 -2.77568e-09 0 7.38738e-13 0 0)
(1.87101e-05 -2.77477e-09 0 7.35934e-13 0 0)
(1.87454e-05 -2.77392e-09 0 7.33117e-13 0 0)
(1.87807e-05 -2.7731e-09 0 7.30412e-13 0 0)
(1.88161e-05 -2.77229e-09 0 7.27767e-13 0 0)
(1.88515e-05 -2.77159e-09 0 7.25157e-13 0 0)
(1.8887e-05 -2.77088e-09 0 7.22569e-13 0 0)
(1.89226e-05 -2.76969e-09 0 7.19982e-13 0 0)
(1.89581e-05 -2.76893e-09 0 7.17399e-13 0 0)
(1.89937e-05 -2.76811e-09 0 7.14832e-13 0 0)
(1.90293e-05 -2.76723e-09 0 7.12292e-13 0 0)
(1.90649e-05 -2.76623e-09 0 7.09757e-13 0 0)
(1.91005e-05 -2.76511e-09 0 7.07142e-13 0 0)
(1.9136e-05 -2.76403e-09 0 7.04626e-13 0 0)
(1.91715e-05 -2.76295e-09 0 7.02167e-13 0 0)
(1.9207e-05 -2.76182e-09 0 6.99757e-13 0 0)
(1.92424e-05 -2.76059e-09 0 6.97424e-13 0 0)
(1.92778e-05 -2.75926e-09 0 6.95383e-13 0 0)
(1.9313e-05 -2.75624e-09 0 6.91653e-13 0 0)
(1.93483e-05 -2.75434e-09 0 6.89754e-13 0 0)
(1.93834e-05 -2.75163e-09 0 6.87647e-13 0 0)
(1.94184e-05 -2.7478e-09 0 6.85684e-13 0 0)
(1.94534e-05 -2.74228e-09 0 6.84228e-13 0 0)
(1.94882e-05 -2.72977e-09 0 6.84498e-13 0 0)
(1.95235e-05 -2.70581e-09 0 6.90273e-13 0 0)
(1.95443e-05 -2.58479e-09 0 7.06392e-13 0 0)
(9.19823e-06 2.25861e-07 0 3.24619e-08 0 0)
(2.14226e-05 1.28205e-07 0 2.79593e-08 0 0)
(1.71768e-05 8.09663e-08 0 1.82629e-08 0 0)
(1.73949e-05 4.26704e-08 0 6.05606e-09 0 0)
(1.73324e-05 2.95155e-08 0 3.21357e-09 0 0)
(1.72603e-05 1.81566e-08 0 9.44714e-10 0 0)
(1.71935e-05 1.23046e-08 0 5.40933e-10 0 0)
(1.71404e-05 8.59357e-09 0 1.91874e-10 0 0)
(1.70919e-05 5.85347e-09 0 1.10791e-10 0 0)
(1.70516e-05 4.0248e-09 0 5.63239e-11 0 0)
(1.70167e-05 2.62251e-09 0 3.14534e-11 0 0)
(1.69872e-05 1.54687e-09 0 1.82862e-11 0 0)
(1.69624e-05 7.29945e-10 0 1.10315e-11 0 0)
(1.69417e-05 1.00121e-10 0 6.90709e-12 0 0)
(1.69246e-05 -3.87122e-10 0 4.51025e-12 0 0)
(1.69109e-05 -7.6536e-10 0 3.11767e-12 0 0)
(1.69e-05 -1.0562e-09 0 2.26993e-12 0 0)
(1.68918e-05 -1.28547e-09 0 1.74067e-12 0 0)
(1.6886e-05 -1.46612e-09 0 1.40834e-12 0 0)
(1.68823e-05 -1.60846e-09 0 1.19486e-12 0 0)
(1.68805e-05 -1.72361e-09 0 1.05218e-12 0 0)
(1.68806e-05 -1.81798e-09 0 9.55035e-13 0 0)
(1.68822e-05 -1.89447e-09 0 8.88598e-13 0 0)
(1.68854e-05 -1.95566e-09 0 8.42497e-13 0 0)
(1.689e-05 -2.00699e-09 0 8.08916e-13 0 0)
(1.68958e-05 -2.04985e-09 0 7.84429e-13 0 0)
(1.69029e-05 -2.0864e-09 0 7.6605e-13 0 0)
(1.6911e-05 -2.11959e-09 0 7.50927e-13 0 0)
(1.69202e-05 -2.14941e-09 0 7.38415e-13 0 0)
(1.69304e-05 -2.17609e-09 0 7.28011e-13 0 0)
(1.69415e-05 -2.20019e-09 0 7.19223e-13 0 0)
(1.69535e-05 -2.22224e-09 0 7.11663e-13 0 0)
(1.69662e-05 -2.24254e-09 0 7.05025e-13 0 0)
(1.69798e-05 -2.26101e-09 0 6.9919e-13 0 0)
(1.69941e-05 -2.277e-09 0 6.94703e-13 0 0)
(1.70091e-05 -2.29112e-09 0 6.91144e-13 0 0)
(1.70247e-05 -2.30367e-09 0 6.88314e-13 0 0)
(1.7041e-05 -2.31496e-09 0 6.85953e-13 0 0)
(1.70579e-05 -2.32584e-09 0 6.8348e-13 0 0)
(1.70754e-05 -2.33622e-09 0 6.80958e-13 0 0)
(1.70935e-05 -2.3461e-09 0 6.78466e-13 0 0)
(1.7112e-05 -2.35541e-09 0 6.7603e-13 0 0)
(1.71311e-05 -2.36412e-09 0 6.73639e-13 0 0)
(1.71508e-05 -2.37224e-09 0 6.71281e-13 0 0)
(1.71709e-05 -2.37985e-09 0 6.68962e-13 0 0)
(1.71914e-05 -2.38701e-09 0 6.66673e-13 0 0)
(1.72125e-05 -2.39375e-09 0 6.6441e-13 0 0)
(1.72339e-05 -2.40004e-09 0 6.6215e-13 0 0)
(1.72558e-05 -2.40592e-09 0 6.59872e-13 0 0)
(1.72782e-05 -2.41144e-09 0 6.57565e-13 0 0)
(1.73009e-05 -2.41666e-09 0 6.55221e-13 0 0)
(1.73241e-05 -2.42167e-09 0 6.52822e-13 0 0)
(1.73477e-05 -2.42643e-09 0 6.5037e-13 0 0)
(1.73716e-05 -2.4307e-09 0 6.48032e-13 0 0)
(1.73959e-05 -2.43423e-09 0 6.4597e-13 0 0)
(1.74206e-05 -2.43713e-09 0 6.44135e-13 0 0)
(1.74457e-05 -2.43962e-09 0 6.42411e-13 0 0)
(1.74712e-05 -2.44177e-09 0 6.40772e-13 0 0)
(1.7497e-05 -2.44352e-09 0 6.3924e-13 0 0)
(1.75231e-05 -2.44468e-09 0 6.37938e-13 0 0)
(1.75496e-05 -2.44556e-09 0 6.36622e-13 0 0)
(1.75765e-05 -2.44628e-09 0 6.35224e-13 0 0)
(1.76037e-05 -2.44692e-09 0 6.33754e-13 0 0)
(1.76312e-05 -2.4475e-09 0 6.32221e-13 0 0)
(1.7659e-05 -2.44803e-09 0 6.30634e-13 0 0)
(1.76872e-05 -2.44846e-09 0 6.28998e-13 0 0)
(1.77157e-05 -2.44879e-09 0 6.27314e-13 0 0)
(1.77445e-05 -2.44902e-09 0 6.25589e-13 0 0)
(1.77737e-05 -2.44914e-09 0 6.23831e-13 0 0)
(1.78031e-05 -2.44918e-09 0 6.22038e-13 0 0)
(1.78328e-05 -2.44914e-09 0 6.20218e-13 0 0)
(1.78628e-05 -2.44904e-09 0 6.18378e-13 0 0)
(1.78932e-05 -2.44887e-09 0 6.16516e-13 0 0)
(1.79238e-05 -2.44864e-09 0 6.14633e-13 0 0)
(1.79546e-05 -2.44834e-09 0 6.12725e-13 0 0)
(1.79858e-05 -2.448e-09 0 6.10805e-13 0 0)
(1.80172e-05 -2.44759e-09 0 6.08842e-13 0 0)
(1.80489e-05 -2.44716e-09 0 6.06853e-13 0 0)
(1.80808e-05 -2.44672e-09 0 6.04837e-13 0 0)
(1.8113e-05 -2.4463e-09 0 6.02785e-13 0 0)
(1.81454e-05 -2.44588e-09 0 6.00694e-13 0 0)
(1.81781e-05 -2.44546e-09 0 5.98562e-13 0 0)
(1.8211e-05 -2.44505e-09 0 5.96404e-13 0 0)
(1.82441e-05 -2.44466e-09 0 5.94163e-13 0 0)
(1.82774e-05 -2.44427e-09 0 5.91829e-13 0 0)
(1.83109e-05 -2.44395e-09 0 5.89425e-13 0 0)
(1.83446e-05 -2.44371e-09 0 5.86951e-13 0 0)
(1.83785e-05 -2.4435e-09 0 5.84548e-13 0 0)
(1.84125e-05 -2.44303e-09 0 5.823e-13 0 0)
(1.84467e-05 -2.44243e-09 0 5.80132e-13 0 0)
(1.84811e-05 -2.44161e-09 0 5.78079e-13 0 0)
(1.85156e-05 -2.44064e-09 0 5.76098e-13 0 0)
(1.85502e-05 -2.4395e-09 0 5.74128e-13 0 0)
(1.8585e-05 -2.43837e-09 0 5.7223e-13 0 0)
(1.86199e-05 -2.43709e-09 0 5.7041e-13 0 0)
(1.86548e-05 -2.43557e-09 0 5.68773e-13 0 0)
(1.86899e-05 -2.43404e-09 0 5.67144e-13 0 0)
(1.87251e-05 -2.4325e-09 0 5.65454e-13 0 0)
(1.87603e-05 -2.43098e-09 0 5.63678e-13 0 0)
(1.87956e-05 -2.42952e-09 0 5.61879e-13 0 0)
(1.88309e-05 -2.42815e-09 0 5.60154e-13 0 0)
(1.88662e-05 -2.42682e-09 0 5.58289e-13 0 0)
(1.89016e-05 -2.42552e-09 0 5.56395e-13 0 0)
(1.8937e-05 -2.42422e-09 0 5.5448e-13 0 0)
(1.89725e-05 -2.42296e-09 0 5.52546e-13 0 0)
(1.90079e-05 -2.4217e-09 0 5.50586e-13 0 0)
(1.90433e-05 -2.42045e-09 0 5.48617e-13 0 0)
(1.90786e-05 -2.41917e-09 0 5.46638e-13 0 0)
(1.9114e-05 -2.41782e-09 0 5.44648e-13 0 0)
(1.91493e-05 -2.4163e-09 0 5.42643e-13 0 0)
(1.91845e-05 -2.41459e-09 0 5.40628e-13 0 0)
(1.92197e-05 -2.41269e-09 0 5.38663e-13 0 0)
(1.92548e-05 -2.41042e-09 0 5.36627e-13 0 0)
(1.92898e-05 -2.40748e-09 0 5.34622e-13 0 0)
(1.93248e-05 -2.40356e-09 0 5.32653e-13 0 0)
(1.93597e-05 -2.3981e-09 0 5.30837e-13 0 0)
(1.93945e-05 -2.39019e-09 0 5.29383e-13 0 0)
(1.94291e-05 -2.37702e-09 0 5.28823e-13 0 0)
(1.94643e-05 -2.35796e-09 0 5.2883e-13 0 0)
(1.94848e-05 -2.26594e-09 0 5.08797e-13 0 0)
(9.14407e-06 1.56515e-07 0 1.74887e-08 0 0)
(2.13268e-05 9.08224e-08 0 1.83101e-08 0 0)
(1.70851e-05 6.86356e-08 0 1.59566e-08 0 0)
(1.7314e-05 3.83686e-08 0 5.80372e-09 0 0)
(1.72578e-05 2.87953e-08 0 3.66821e-09 0 0)
(1.71904e-05 1.78406e-08 0 1.14387e-09 0 0)
(1.7129e-05 1.29243e-08 0 6.76224e-10 0 0)
(1.70784e-05 9.08263e-09 0 2.68283e-10 0 0)
(1.70328e-05 6.55745e-09 0 1.47475e-10 0 0)
(1.69942e-05 4.66183e-09 0 7.86851e-11 0 0)
(1.69607e-05 3.23988e-09 0 4.35303e-11 0 0)
(1.69322e-05 2.13365e-09 0 2.51502e-11 0 0)
(1.69081e-05 1.26241e-09 0 1.48517e-11 0 0)
(1.68879e-05 5.7669e-10 0 8.97338e-12 0 0)
(1.68713e-05 3.70106e-11 0 5.57323e-12 0 0)
(1.68578e-05 -3.84011e-10 0 3.59627e-12 0 0)
(1.68472e-05 -7.14553e-10 0 2.42156e-12 0 0)
(1.68391e-05 -9.70628e-10 0 1.71792e-12 0 0)
(1.68334e-05 -1.16964e-09 0 1.29064e-12 0 0)
(1.68297e-05 -1.32736e-09 0 1.02474e-12 0 0)
(1.6828e-05 -1.45144e-09 0 8.57363e-13 0 0)
(1.68281e-05 -1.54762e-09 0 7.51158e-13 0 0)
(1.68298e-05 -1.62574e-09 0 6.80537e-13 0 0)
(1.6833e-05 -1.69061e-09 0 6.31385e-13 0 0)
(1.68376e-05 -1.7441e-09 0 5.96832e-13 0 0)
(1.68434e-05 -1.78755e-09 0 5.73075e-13 0 0)
(1.68505e-05 -1.82327e-09 0 5.56582e-13 0 0)
(1.68586e-05 -1.85325e-09 0 5.4467e-13 0 0)
(1.68678e-05 -1.87919e-09 0 5.35607e-13 0 0)
(1.6878e-05 -1.9022e-09 0 5.28429e-13 0 0)
(1.68891e-05 -1.92286e-09 0 5.22562e-13 0 0)
(1.6901e-05 -1.94157e-09 0 5.17563e-13 0 0)
(1.69138e-05 -1.95865e-09 0 5.13102e-13 0 0)
(1.69273e-05 -1.97444e-09 0 5.0904e-13 0 0)
(1.69416e-05 -1.98827e-09 0 5.05922e-13 0 0)
(1.69566e-05 -2.00071e-09 0 5.0337e-13 0 0)
(1.69722e-05 -2.01188e-09 0 5.01259e-13 0 0)
(1.69885e-05 -2.02178e-09 0 4.99601e-13 0 0)
(1.70054e-05 -2.03094e-09 0 4.98058e-13 0 0)
(1.70229e-05 -2.03959e-09 0 4.96548e-13 0 0)
(1.70409e-05 -2.04771e-09 0 4.95059e-13 0 0)
(1.70595e-05 -2.05531e-09 0 4.93583e-13 0 0)
(1.70786e-05 -2.0624e-09 0 4.92124e-13 0 0)
(1.70982e-05 -2.06902e-09 0 4.90695e-13 0 0)
(1.71183e-05 -2.07522e-09 0 4.89302e-13 0 0)
(1.71388e-05 -2.081e-09 0 4.87943e-13 0 0)
(1.71598e-05 -2.08638e-09 0 4.86588e-13 0 0)
(1.71813e-05 -2.09136e-09 0 4.85217e-13 0 0)
(1.72032e-05 -2.09598e-09 0 4.83822e-13 0 0)
(1.72255e-05 -2.10034e-09 0 4.82398e-13 0 0)
(1.72483e-05 -2.10447e-09 0 4.80935e-13 0 0)
(1.72714e-05 -2.10838e-09 0 4.79411e-13 0 0)
(1.72949e-05 -2.11207e-09 0 4.77833e-13 0 0)
(1.73189e-05 -2.11527e-09 0 4.76355e-13 0 0)
(1.73432e-05 -2.11788e-09 0 4.75079e-13 0 0)
(1.73679e-05 -2.12022e-09 0 4.73849e-13 0 0)
(1.7393e-05 -2.1223e-09 0 4.72652e-13 0 0)
(1.74184e-05 -2.12409e-09 0 4.71501e-13 0 0)
(1.74442e-05 -2.12554e-09 0 4.70434e-13 0 0)
(1.74703e-05 -2.12648e-09 0 4.69562e-13 0 0)
(1.74968e-05 -2.12725e-09 0 4.68646e-13 0 0)
(1.75237e-05 -2.12796e-09 0 4.67625e-13 0 0)
(1.75508e-05 -2.12863e-09 0 4.66525e-13 0 0)
(1.75783e-05 -2.12925e-09 0 4.6537e-13 0 0)
(1.76062e-05 -2.12979e-09 0 4.64172e-13 0 0)
(1.76343e-05 -2.13023e-09 0 4.62936e-13 0 0)
(1.76628e-05 -2.13058e-09 0 4.61667e-13 0 0)
(1.76916e-05 -2.13082e-09 0 4.60369e-13 0 0)
(1.77207e-05 -2.13097e-09 0 4.59047e-13 0 0)
(1.77501e-05 -2.13103e-09 0 4.57706e-13 0 0)
(1.77799e-05 -2.13103e-09 0 4.5635e-13 0 0)
(1.78099e-05 -2.13096e-09 0 4.54982e-13 0 0)
(1.78402e-05 -2.13083e-09 0 4.53604e-13 0 0)
(1.78708e-05 -2.13065e-09 0 4.52213e-13 0 0)
(1.79016e-05 -2.13041e-09 0 4.50804e-13 0 0)
(1.79328e-05 -2.13011e-09 0 4.49377e-13 0 0)
(1.79642e-05 -2.12975e-09 0 4.4793e-13 0 0)
(1.79958e-05 -2.12937e-09 0 4.46468e-13 0 0)
(1.80278e-05 -2.12896e-09 0 4.44995e-13 0 0)
(1.80599e-05 -2.12853e-09 0 4.4352e-13 0 0)
(1.80923e-05 -2.12809e-09 0 4.42044e-13 0 0)
(1.8125e-05 -2.12762e-09 0 4.40525e-13 0 0)
(1.81579e-05 -2.12713e-09 0 4.3896e-13 0 0)
(1.81909e-05 -2.12669e-09 0 4.37429e-13 0 0)
(1.82242e-05 -2.12621e-09 0 4.35756e-13 0 0)
(1.82577e-05 -2.12572e-09 0 4.33966e-13 0 0)
(1.82914e-05 -2.12535e-09 0 4.32226e-13 0 0)
(1.83253e-05 -2.12493e-09 0 4.30591e-13 0 0)
(1.83593e-05 -2.12423e-09 0 4.29088e-13 0 0)
(1.83935e-05 -2.1234e-09 0 4.27657e-13 0 0)
(1.84278e-05 -2.12256e-09 0 4.262e-13 0 0)
(1.84623e-05 -2.12172e-09 0 4.24751e-13 0 0)
(1.8497e-05 -2.12069e-09 0 4.23232e-13 0 0)
(1.85317e-05 -2.11977e-09 0 4.21832e-13 0 0)
(1.85666e-05 -2.11875e-09 0 4.20479e-13 0 0)
(1.86015e-05 -2.11746e-09 0 4.19278e-13 0 0)
(1.86366e-05 -2.11614e-09 0 4.18114e-13 0 0)
(1.86717e-05 -2.11487e-09 0 4.16846e-13 0 0)
(1.87069e-05 -2.11371e-09 0 4.15485e-13 0 0)
(1.87422e-05 -2.1126e-09 0 4.14095e-13 0 0)
(1.87775e-05 -2.1115e-09 0 4.12683e-13 0 0)
(1.88129e-05 -2.11052e-09 0 4.11241e-13 0 0)
(1.88482e-05 -2.10948e-09 0 4.09756e-13 0 0)
(1.88836e-05 -2.10841e-09 0 4.08255e-13 0 0)
(1.8919e-05 -2.10733e-09 0 4.06742e-13 0 0)
(1.89544e-05 -2.10627e-09 0 4.05224e-13 0 0)
(1.89898e-05 -2.10524e-09 0 4.03766e-13 0 0)
(1.90252e-05 -2.10409e-09 0 4.02243e-13 0 0)
(1.90605e-05 -2.10275e-09 0 4.00681e-13 0 0)
(1.90958e-05 -2.10121e-09 0 3.99096e-13 0 0)
(1.9131e-05 -2.09948e-09 0 3.97472e-13 0 0)
(1.91662e-05 -2.09741e-09 0 3.95708e-13 0 0)
(1.92013e-05 -2.09528e-09 0 3.95069e-13 0 0)
(1.92363e-05 -2.09192e-09 0 3.93236e-13 0 0)
(1.92713e-05 -2.08756e-09 0 3.91621e-13 0 0)
(1.93061e-05 -2.0814e-09 0 3.9021e-13 0 0)
(1.93409e-05 -2.0723e-09 0 3.89075e-13 0 0)
(1.93755e-05 -2.05822e-09 0 3.88499e-13 0 0)
(1.94108e-05 -2.03682e-09 0 3.8862e-13 0 0)
(1.94312e-05 -1.98933e-09 0 3.74798e-13 0 0)
(9.11633e-06 1.07733e-07 0 7.60751e-09 0 0)
(2.128e-05 6.54482e-08 0 9.54725e-09 0 0)
(1.70282e-05 5.14178e-08 0 9.85777e-09 0 0)
(1.72616e-05 3.02614e-08 0 4.06464e-09 0 0)
(1.72018e-05 2.3657e-08 0 2.89018e-09 0 0)
(1.71388e-05 1.51259e-08 0 9.80663e-10 0 0)
(1.7078e-05 1.12853e-08 0 6.37926e-10 0 0)
(1.70297e-05 8.16289e-09 0 2.58003e-10 0 0)
(1.69853e-05 6.0722e-09 0 1.53321e-10 0 0)
(1.69481e-05 4.48376e-09 0 8.20319e-11 0 0)
(1.69157e-05 3.24759e-09 0 4.68428e-11 0 0)
(1.6888e-05 2.25774e-09 0 2.738e-11 0 0)
(1.68645e-05 1.45598e-09 0 1.62232e-11 0 0)
(1.68449e-05 8.15265e-10 0 9.76385e-12 0 0)
(1.68286e-05 3.01022e-10 0 5.98778e-12 0 0)
(1.68155e-05 -1.09104e-10 0 3.76639e-12 0 0)
(1.68051e-05 -4.32973e-10 0 2.45069e-12 0 0)
(1.67972e-05 -6.87089e-10 0 1.6653e-12 0 0)
(1.67916e-05 -8.86799e-10 0 1.19083e-12 0 0)
(1.6788e-05 -1.04333e-09 0 9.00922e-13 0 0)
(1.67864e-05 -1.16635e-09 0 7.20638e-13 0 0)
(1.67866e-05 -1.26418e-09 0 6.05983e-13 0 0)
(1.67883e-05 -1.34202e-09 0 5.31953e-13 0 0)
(1.67915e-05 -1.40421e-09 0 4.83471e-13 0 0)
(1.67961e-05 -1.4542e-09 0 4.51047e-13 0 0)
(1.6802e-05 -1.49571e-09 0 4.28283e-13 0 0)
(1.6809e-05 -1.53065e-09 0 4.11719e-13 0 0)
(1.68172e-05 -1.55952e-09 0 3.99788e-13 0 0)
(1.68264e-05 -1.58398e-09 0 3.91033e-13 0 0)
(1.68366e-05 -1.60508e-09 0 3.84455e-13 0 0)
(1.68477e-05 -1.62342e-09 0 3.79382e-13 0 0)
(1.68596e-05 -1.63944e-09 0 3.75395e-13 0 0)
(1.68724e-05 -1.65359e-09 0 3.72273e-13 0 0)
(1.68859e-05 -1.66611e-09 0 3.69841e-13 0 0)
(1.69002e-05 -1.67783e-09 0 3.67513e-13 0 0)
(1.69152e-05 -1.68857e-09 0 3.65368e-13 0 0)
(1.69308e-05 -1.69847e-09 0 3.63363e-13 0 0)
(1.69471e-05 -1.70779e-09 0 3.61452e-13 0 0)
(1.6964e-05 -1.71624e-09 0 3.59823e-13 0 0)
(1.69815e-05 -1.72391e-09 0 3.58401e-13 0 0)
(1.69995e-05 -1.73091e-09 0 3.57103e-13 0 0)
(1.70181e-05 -1.73735e-09 0 3.55892e-13 0 0)
(1.70372e-05 -1.74333e-09 0 3.54754e-13 0 0)
(1.70568e-05 -1.74889e-09 0 3.53684e-13 0 0)
(1.70769e-05 -1.75406e-09 0 3.52663e-13 0 0)
(1.70974e-05 -1.75882e-09 0 3.51671e-13 0 0)
(1.71184e-05 -1.76319e-09 0 3.50693e-13 0 0)
(1.71399e-05 -1.76719e-09 0 3.49731e-13 0 0)
(1.71618e-05 -1.77087e-09 0 3.48795e-13 0 0)
(1.71841e-05 -1.77427e-09 0 3.47895e-13 0 0)
(1.72069e-05 -1.77737e-09 0 3.47038e-13 0 0)
(1.723e-05 -1.78012e-09 0 3.46231e-13 0 0)
(1.72535e-05 -1.78252e-09 0 3.45473e-13 0 0)
(1.72775e-05 -1.78471e-09 0 3.44678e-13 0 0)
(1.73018e-05 -1.78681e-09 0 3.43781e-13 0 0)
(1.73265e-05 -1.78875e-09 0 3.42862e-13 0 0)
(1.73516e-05 -1.79051e-09 0 3.41945e-13 0 0)
(1.7377e-05 -1.79207e-09 0 3.41026e-13 0 0)
(1.74028e-05 -1.79348e-09 0 3.40074e-13 0 0)
(1.74289e-05 -1.79489e-09 0 3.38996e-13 0 0)
(1.74554e-05 -1.79609e-09 0 3.37943e-13 0 0)
(1.74822e-05 -1.79707e-09 0 3.36944e-13 0 0)
(1.75094e-05 -1.7979e-09 0 3.35981e-13 0 0)
(1.75369e-05 -1.7986e-09 0 3.35037e-13 0 0)
(1.75648e-05 -1.79917e-09 0 3.34099e-13 0 0)
(1.75929e-05 -1.79961e-09 0 3.33159e-13 0 0)
(1.76214e-05 -1.79994e-09 0 3.32211e-13 0 0)
(1.76502e-05 -1.80015e-09 0 3.31254e-13 0 0)
(1.76793e-05 -1.80028e-09 0 3.3029e-13 0 0)
(1.77087e-05 -1.80033e-09 0 3.29321e-13 0 0)
(1.77384e-05 -1.80032e-09 0 3.2835e-13 0 0)
(1.77685e-05 -1.80026e-09 0 3.27377e-13 0 0)
(1.77988e-05 -1.80013e-09 0 3.26402e-13 0 0)
(1.78293e-05 -1.79995e-09 0 3.25421e-13 0 0)
(1.78602e-05 -1.7997e-09 0 3.2443e-13 0 0)
(1.78914e-05 -1.7994e-09 0 3.23428e-13 0 0)
(1.79228e-05 -1.79905e-09 0 3.22419e-13 0 0)
(1.79544e-05 -1.79867e-09 0 3.21408e-13 0 0)
(1.79863e-05 -1.79826e-09 0 3.204e-13 0 0)
(1.80185e-05 -1.79783e-09 0 3.19394e-13 0 0)
(1.80509e-05 -1.79736e-09 0 3.18388e-13 0 0)
(1.80836e-05 -1.79683e-09 0 3.17372e-13 0 0)
(1.81164e-05 -1.79625e-09 0 3.16351e-13 0 0)
(1.81495e-05 -1.79565e-09 0 3.15342e-13 0 0)
(1.81828e-05 -1.795e-09 0 3.14349e-13 0 0)
(1.82163e-05 -1.7942e-09 0 3.13262e-13 0 0)
(1.825e-05 -1.79349e-09 0 3.12342e-13 0 0)
(1.82838e-05 -1.79277e-09 0 3.11398e-13 0 0)
(1.83179e-05 -1.79212e-09 0 3.10365e-13 0 0)
(1.83521e-05 -1.79146e-09 0 3.09308e-13 0 0)
(1.83864e-05 -1.79076e-09 0 3.08223e-13 0 0)
(1.84209e-05 -1.79008e-09 0 3.07161e-13 0 0)
(1.84555e-05 -1.7892e-09 0 3.06043e-13 0 0)
(1.84903e-05 -1.78852e-09 0 3.04982e-13 0 0)
(1.85251e-05 -1.78787e-09 0 3.03891e-13 0 0)
(1.85601e-05 -1.7873e-09 0 3.02686e-13 0 0)
(1.85952e-05 -1.78671e-09 0 3.01499e-13 0 0)
(1.86303e-05 -1.78603e-09 0 3.00349e-13 0 0)
(1.86655e-05 -1.78533e-09 0 2.99237e-13 0 0)
(1.87008e-05 -1.78459e-09 0 2.98135e-13 0 0)
(1.87361e-05 -1.78379e-09 0 2.97045e-13 0 0)
(1.87714e-05 -1.78299e-09 0 2.95952e-13 0 0)
(1.88068e-05 -1.78215e-09 0 2.94856e-13 0 0)
(1.88422e-05 -1.78132e-09 0 2.93758e-13 0 0)
(1.88776e-05 -1.78041e-09 0 2.92663e-13 0 0)
(1.8913e-05 -1.7795e-09 0 2.9158e-13 0 0)
(1.89484e-05 -1.77858e-09 0 2.90517e-13 0 0)
(1.89837e-05 -1.77754e-09 0 2.8944e-13 0 0)
(1.9019e-05 -1.77631e-09 0 2.88332e-13 0 0)
(1.90543e-05 -1.77492e-09 0 2.87224e-13 0 0)
(1.90896e-05 -1.77338e-09 0 2.86133e-13 0 0)
(1.91247e-05 -1.77143e-09 0 2.85039e-13 0 0)
(1.91598e-05 -1.76898e-09 0 2.84079e-13 0 0)
(1.91949e-05 -1.76581e-09 0 2.82973e-13 0 0)
(1.92298e-05 -1.76165e-09 0 2.81859e-13 0 0)
(1.92647e-05 -1.75585e-09 0 2.80774e-13 0 0)
(1.92995e-05 -1.74739e-09 0 2.79634e-13 0 0)
(1.93341e-05 -1.73549e-09 0 2.78415e-13 0 0)
(1.93694e-05 -1.71906e-09 0 2.76598e-13 0 0)
(1.93898e-05 -1.69384e-09 0 2.71925e-13 0 0)
(9.10214e-06 7.65717e-08 0 3.7076e-09 0 0)
(2.12556e-05 4.71546e-08 0 4.96024e-09 0 0)
(1.6995e-05 3.73635e-08 0 5.68292e-09 0 0)
(1.72293e-05 2.23754e-08 0 2.4821e-09 0 0)
(1.71639e-05 1.79073e-08 0 1.96982e-09 0 0)
(1.71031e-05 1.16845e-08 0 6.96127e-10 0 0)
(1.70409e-05 8.88584e-09 0 4.95285e-10 0 0)
(1.69941e-05 6.57856e-09 0 2.03094e-10 0 0)
(1.69499e-05 5.02945e-09 0 1.28881e-10 0 0)
(1.69136e-05 3.82219e-09 0 6.9525e-11 0 0)
(1.68817e-05 2.85082e-09 0 4.08564e-11 0 0)
(1.68545e-05 2.04073e-09 0 2.42471e-11 0 0)
(1.68316e-05 1.38053e-09 0 1.45081e-11 0 0)
(1.68123e-05 8.35253e-10 0 8.75601e-12 0 0)
(1.67964e-05 3.91152e-10 0 5.34929e-12 0 0)
(1.67834e-05 3.37708e-11 0 3.32896e-12 0 0)
(1.67732e-05 -2.53073e-10 0 2.1254e-12 0 0)
(1.67655e-05 -4.81748e-10 0 1.40481e-12 0 0)
(1.676e-05 -6.63575e-10 0 9.70391e-13 0 0)
(1.67566e-05 -8.06014e-10 0 7.07601e-13 0 0)
(1.6755e-05 -9.18807e-10 0 5.45506e-13 0 0)
(1.67552e-05 -1.00791e-09 0 4.44278e-13 0 0)
(1.6757e-05 -1.0789e-09 0 3.79847e-13 0 0)
(1.67602e-05 -1.13546e-09 0 3.38267e-13 0 0)
(1.67648e-05 -1.181e-09 0 3.10722e-13 0 0)
(1.67707e-05 -1.21814e-09 0 2.91971e-13 0 0)
(1.67778e-05 -1.24872e-09 0 2.78946e-13 0 0)
(1.6786e-05 -1.27411e-09 0 2.69748e-13 0 0)
(1.67952e-05 -1.29547e-09 0 2.6308e-13 0 0)
(1.68053e-05 -1.31355e-09 0 2.58114e-13 0 0)
(1.68164e-05 -1.32907e-09 0 2.5432e-13 0 0)
(1.68284e-05 -1.34261e-09 0 2.51384e-13 0 0)
(1.68412e-05 -1.35459e-09 0 2.4908e-13 0 0)
(1.68547e-05 -1.36525e-09 0 2.47212e-13 0 0)
(1.6869e-05 -1.37485e-09 0 2.45584e-13 0 0)
(1.6884e-05 -1.38355e-09 0 2.44145e-13 0 0)
(1.68996e-05 -1.39159e-09 0 2.42866e-13 0 0)
(1.69159e-05 -1.39902e-09 0 2.41722e-13 0 0)
(1.69328e-05 -1.40582e-09 0 2.40702e-13 0 0)
(1.69503e-05 -1.41198e-09 0 2.3977e-13 0 0)
(1.69683e-05 -1.41759e-09 0 2.38907e-13 0 0)
(1.69869e-05 -1.42276e-09 0 2.38109e-13 0 0)
(1.7006e-05 -1.42757e-09 0 2.37371e-13 0 0)
(1.70256e-05 -1.43209e-09 0 2.36677e-13 0 0)
(1.70457e-05 -1.43624e-09 0 2.36005e-13 0 0)
(1.70662e-05 -1.44002e-09 0 2.3534e-13 0 0)
(1.70872e-05 -1.44348e-09 0 2.34682e-13 0 0)
(1.71087e-05 -1.44665e-09 0 2.34039e-13 0 0)
(1.71306e-05 -1.4496e-09 0 2.33418e-13 0 0)
(1.71529e-05 -1.45232e-09 0 2.32817e-13 0 0)
(1.71757e-05 -1.45478e-09 0 2.32231e-13 0 0)
(1.71988e-05 -1.457e-09 0 2.31654e-13 0 0)
(1.72224e-05 -1.45897e-09 0 2.31082e-13 0 0)
(1.72463e-05 -1.46076e-09 0 2.30502e-13 0 0)
(1.72706e-05 -1.46243e-09 0 2.29906e-13 0 0)
(1.72953e-05 -1.46397e-09 0 2.29305e-13 0 0)
(1.73204e-05 -1.46537e-09 0 2.28701e-13 0 0)