/*--------------------------------*- C++ -*----------------------------------*\
  =========                 |
  \\      /  F ield         | OpenFOAM: The Open Source CFD Toolbox
   \\    /   O peration     | Website:  https://openfoam.org
    \\  /    A nd           | Version:  7
     \\/     M anipulation  |
\*---------------------------------------------------------------------------*/
FoamFile
{
    version     2.0;
    format      ascii;
    class       volSymmTensorField;
    location    "2.925";
    object      UPrime2Mean;
}
// * * * * * * * * * * * * * * * * * * * * * * * * * * * * * * * * * * * * * //

dimensions      [0 2 -2 0 0 0 0];

internalField   nonuniform List<symmTensor> 
7920
(
(0.0441373 0.0555302 -0.199275 0.0740087 -0.284654 1.18988)
(0.00620534 0.0221218 -0.0443117 0.109651 -0.293303 0.967856)
(0.0288415 0.0516396 -0.0907171 0.131314 -0.339155 1.11866)
(0.01127 0.0274705 -0.0406406 0.126493 -0.332875 1.11615)
(0.0188549 0.035453 -0.0470979 0.130846 -0.340212 1.13631)
(0.0116267 0.0227572 -0.0198474 0.128521 -0.337465 1.1339)
(0.0140392 0.0239857 -0.0167767 0.13 -0.340161 1.14033)
(0.0108783 0.0165601 -0.000508086 0.129095 -0.339486 1.13991)
(0.0114865 0.0152451 0.00491212 0.129544 -0.340678 1.14188)
(0.010023 0.0103662 0.0152132 0.129149 -0.340564 1.14176)
(0.0101083 0.00833926 0.0201495 0.129224 -0.341179 1.14225)
(0.00935527 0.00469819 0.0269987 0.128986 -0.341317 1.14215)
(0.00935802 0.00264329 0.0308404 0.128786 -0.341503 1.14228)
(0.00892614 -0.000512266 0.0360873 0.128645 -0.341683 1.14232)
(0.00906402 -0.00234099 0.0387783 0.128076 -0.341611 1.14186)
(0.00884095 -0.00587447 0.0444314 0.127972 -0.341921 1.14237)
(0.00917276 -0.00737579 0.046084 0.126607 -0.341087 1.14078)
(0.00947141 -0.0126071 0.055532 0.12655 -0.341789 1.14263)
(0.00969979 -0.0138765 0.0556856 0.122717 -0.338569 1.13754)
(0.0108117 -0.0191848 0.065775 0.122042 -0.335511 1.12661)
(0.0592479 -0.0389657 -0.00504223 0.0336338 0.0466389 0.254012)
(0.00411722 0.00974907 -0.00477824 0.0385517 -0.025343 0.648015)
(0.0396016 -0.0249314 0.168529 0.0369089 -0.0266152 1.07372)
(0.0072069 -0.00146391 0.0688192 0.0386293 -0.0292363 1.07465)
(0.0262604 -0.0131928 0.157994 0.03719 -0.030304 1.20951)
(0.0130821 -0.00175024 0.101682 0.0379164 -0.0299826 1.17629)
(0.0208148 -0.00524385 0.137529 0.0374273 -0.0298284 1.20835)
(0.0163441 0.000903524 0.11024 0.0377212 -0.0294667 1.18659)
(0.0197891 0.000598997 0.123449 0.037549 -0.0288321 1.18737)
(0.0188461 0.00445696 0.10931 0.0376873 -0.0285557 1.17383)
(0.0209086 0.00537249 0.112669 0.0376461 -0.0279348 1.16379)
(0.0213967 0.00834139 0.102593 0.0376886 -0.0272519 1.14977)
(0.0231762 0.00965118 0.10145 0.0377099 -0.0263416 1.12913)
(0.0244917 0.0124859 0.0911934 0.0376953 -0.0256507 1.11696)
(0.0264444 0.0137958 0.0882868 0.037775 -0.0238536 1.078)
(0.0290023 0.0173616 0.0747359 0.0376486 -0.0226278 1.06451)
(0.0311226 0.0183907 0.0715162 0.0379022 -0.0190798 0.991138)
(0.0375005 0.0243083 0.0526162 0.0374235 -0.0163234 0.972173)
(0.0386321 0.0249492 0.0486409 0.0384168 -0.00599318 0.809899)
(0.0589549 0.038255 0.035148 0.0391877 0.00500283 0.745248)
(0.0925974 0.0203148 -0.00344738 0.00837156 -0.0318251 0.266316)
(0.0353651 -0.0126479 -0.101869 0.015402 -0.0280988 0.842317)
(0.0188196 0.0136399 0.140488 0.0256752 0.0321636 1.63742)
(0.0116515 -0.0117135 -0.0435881 0.0225682 0.0270716 1.86422)
(0.00983216 0.000510735 0.098564 0.0259208 0.0444976 2.08681)
(0.0120354 -0.0110313 -0.000975019 0.0247701 0.0411246 2.09117)
(0.0125367 -0.00706116 0.0547694 0.0257796 0.0457542 2.12246)
(0.0166981 -0.0129886 0.00636866 0.0253396 0.0435826 2.09521)
(0.0184572 -0.0123465 0.0265064 0.0256327 0.0440788 2.07571)
(0.0230509 -0.0159731 0.00182662 0.025432 0.0425729 2.05003)
(0.0258724 -0.0166339 0.0073854 0.0254734 0.0417668 2.0161)
(0.0309902 -0.0194461 -0.00963674 0.0253716 0.0403568 1.988)
(0.0346111 -0.0205312 -0.00976756 0.0252427 0.0381501 1.93455)
(0.0412193 -0.0233914 -0.0276226 0.0252038 0.0371225 1.90871)
(0.0453307 -0.0243744 -0.0282884 0.0248583 0.0333566 1.82265)
(0.0561025 -0.0282951 -0.0528012 0.0249226 0.0327129 1.79442)
(0.059733 -0.0284695 -0.0493692 0.0240764 0.0262886 1.64639)
(0.082863 -0.0356216 -0.0851153 0.024446 0.0266365 1.59736)
(0.0815662 -0.0333286 -0.0680398 0.0225702 0.0168539 1.30825)
(0.148262 -0.0479369 -0.0762384 0.0223598 0.00536451 1.04095)
(0.0888318 -0.0208037 -0.00160001 0.00602964 0.016009 0.242138)
(0.0586107 0.0208749 -0.0943146 0.00866616 -0.0198299 0.568021)
(0.004211 -0.00238518 0.0281373 0.00674442 -0.0189121 1.31977)
(0.0322859 0.011168 -0.116262 0.00638544 -0.0164338 1.42601)
(0.0104709 0.00457229 -0.0358933 0.00581572 -0.0134012 1.72067)
(0.0306155 0.00944044 -0.109397 0.00570438 -0.00820648 1.68899)
(0.023691 0.00767875 -0.077037 0.00562772 -0.00820397 1.75099)
(0.0368667 0.0100788 -0.111447 0.00562327 -0.00629755 1.69904)
(0.0368397 0.00983361 -0.0984207 0.00562007 -0.00650533 1.68407)
(0.0467193 0.0114026 -0.114659 0.00563483 -0.00595614 1.64149)
(0.050131 0.0117913 -0.109214 0.00564827 -0.0060647 1.60188)
(0.059463 0.0131065 -0.119677 0.00566088 -0.00562816 1.56472)
(0.0646534 0.0137499 -0.116209 0.00567804 -0.00520475 1.50038)
(0.07591 0.0151622 -0.127628 0.00567838 -0.00486913 1.47097)
(0.0817874 0.01586 -0.121505 0.00570475 -0.00382606 1.37103)
(0.0988997 0.0177506 -0.136329 0.00567709 -0.00312756 1.34337)
(0.103639 0.0182302 -0.121891 0.00571017 -0.000719937 1.18882)
(0.135643 0.0214358 -0.135041 0.00562604 0.00115587 1.12828)
(0.134424 0.0200567 -0.107484 0.00538756 0.00865994 0.933103)
(0.200231 0.0285749 -0.0300381 0.00630185 0.0201015 0.642565)
(0.0989986 0.00919468 -0.0108946 0.00151866 -0.0130553 0.262815)
(0.0702707 -0.00455683 -0.0866201 0.00310946 -0.0213987 0.465396)
(0.00490915 0.00129826 -0.0199447 0.00537218 0.000577748 1.15898)
(0.0551082 -0.00936569 -0.162446 0.00460127 -0.00495403 1.2411)
(0.025754 -0.00615546 -0.120017 0.00546698 0.00434151 1.53078)
(0.0581429 -0.0110409 -0.185562 0.00526717 0.00365112 1.50797)
(0.0483913 -0.0099402 -0.16738 0.00552063 0.00644448 1.57051)
(0.0676583 -0.0124466 -0.19578 0.00545236 0.00592874 1.51787)
(0.0672879 -0.0123293 -0.186499 0.00552161 0.00626403 1.49745)
(0.0807714 -0.0138887 -0.198239 0.00549013 0.00571858 1.44967)
(0.085005 -0.0142159 -0.191815 0.00549934 0.00530272 1.40324)
(0.0973726 -0.0154741 -0.198432 0.00548254 0.0046756 1.3623)
(0.10389 -0.0159247 -0.191209 0.00544935 0.00349095 1.29294)
(0.118713 -0.0173031 -0.199073 0.00544151 0.00301406 1.26175)
(0.125964 -0.0176362 -0.187061 0.00534977 0.000945807 1.1609)
(0.148399 -0.0196425 -0.197086 0.00536611 0.000621066 1.13164)
(0.153749 -0.0193856 -0.175329 0.00512345 -0.00277621 0.992509)
(0.195033 -0.0230989 -0.175514 0.00521583 -0.00335113 0.917083)
(0.192007 -0.0214112 -0.147251 0.00462578 -0.00650044 0.795008)
(0.272034 -0.0289619 -0.0125716 0.00479824 -0.0160473 0.508055)
(0.0989175 -0.0108299 -0.00786079 0.00149334 0.00845143 0.256518)
(0.072019 0.0105565 -0.0734704 0.00224318 0.000443502 0.409406)
(0.00667809 0.000104834 -0.037428 0.00301352 -0.00908262 1.01808)
(0.0671851 0.0092478 -0.166569 0.00257431 -0.00475472 1.0697)
(0.0386376 0.00557872 -0.148673 0.00259952 -0.00536259 1.33004)
(0.0771128 0.00841853 -0.206171 0.00247166 -0.00184097 1.31178)
(0.0678652 0.00747587 -0.198023 0.00251147 -0.00245762 1.36732)
(0.0898607 0.00885196 -0.220968 0.00248162 -0.0011365 1.31786)
(0.0900093 0.00876403 -0.214178 0.00250192 -0.00137681 1.29398)
(0.105043 0.00971933 -0.221968 0.00249904 -0.000957414 1.24617)
(0.109959 0.00998466 -0.214679 0.0025075 -0.000938867 1.19804)
(0.123631 0.0108181 -0.217736 0.00250919 -0.000583073 1.15702)
(0.130971 0.0112023 -0.208003 0.00250608 -9.19419e-05 1.08983)
(0.14729 0.0121595 -0.212239 0.00250572 0.000140739 1.05949)
(0.155428 0.0125173 -0.196749 0.00248967 0.00120241 0.965988)
(0.179722 0.0138939 -0.201392 0.00248806 0.0015075 0.937445)
(0.185974 0.0138892 -0.176949 0.00242656 0.00354906 0.818571)
(0.228936 0.0164077 -0.164749 0.00243892 0.00437918 0.742002)
(0.227478 0.0145355 -0.141039 0.00215587 0.00800091 0.663785)
(0.303082 0.0205666 0.0246039 0.00255048 0.0161024 0.422671)
(0.0989204 0.0108313 -0.0078588 0.00149365 -0.00845104 0.256517)
(0.0720176 -0.0105586 -0.073466 0.00224414 -0.00044216 0.409378)
(0.00667816 -0.000104876 -0.0374283 0.00301429 0.00908634 1.01805)
(0.0671786 -0.00924856 -0.166567 0.0025751 0.00476088 1.06971)
(0.0386386 -0.00558249 -0.148687 0.00260279 0.00539284 1.3301)
(0.0771255 -0.00842356 -0.206197 0.00247174 0.00185907 1.31182)
(0.0678638 -0.00746845 -0.197992 0.00250798 0.00241141 1.36715)
(0.0898555 -0.0088457 -0.220932 0.00248032 0.00110546 1.31768)
(0.0900129 -0.0087651 -0.214184 0.00250092 0.00138056 1.294)
(0.105043 -0.00971211 -0.221967 0.00249745 0.000925284 1.24618)
(0.109956 -0.00997744 -0.21464 0.00250532 0.000899337 1.19784)
(0.12363 -0.0107965 -0.217612 0.00250363 0.000483931 1.15615)
(0.130972 -0.0111988 -0.208012 0.00250499 8.17444e-05 1.08989)
(0.147284 -0.0121596 -0.212248 0.00250588 -0.00013424 1.05962)
(0.155426 -0.0125065 -0.196705 0.00248619 -0.00123618 0.965742)
(0.179725 -0.0138791 -0.201382 0.00248509 -0.00153339 0.937345)
(0.185961 -0.0138896 -0.176928 0.00241025 -0.0034724 0.818986)
(0.228922 -0.0162959 -0.164672 0.00242735 -0.00458213 0.74146)
(0.227521 -0.014417 -0.140753 0.002064 -0.00755921 0.663036)
(0.303183 -0.0200209 0.0244355 0.00244481 -0.0163288 0.425116)
(0.0989947 -0.00919368 -0.0108914 0.00151849 0.0130547 0.262806)
(0.0702716 0.00456351 -0.0865844 0.00311162 0.0213975 0.465317)
(0.00490916 -0.00129872 -0.0199461 0.00537411 -0.000578622 1.15887)
(0.0551117 0.0093684 -0.162456 0.00460242 0.00494057 1.24108)
(0.0257528 0.00615883 -0.120021 0.00547086 -0.00438919 1.53089)
(0.0581385 0.0110418 -0.185557 0.00526801 -0.00365484 1.50809)
(0.048395 0.00994439 -0.167354 0.00552149 -0.00645025 1.57015)
(0.0676586 0.0124522 -0.195735 0.00545386 -0.00594362 1.51751)
(0.0672857 0.0123286 -0.186485 0.00552113 -0.00625321 1.49747)
(0.0807727 0.0139027 -0.198245 0.00549678 -0.00579153 1.44968)
(0.0850082 0.0142192 -0.191793 0.00550065 -0.00530769 1.40296)
(0.0973696 0.0154664 -0.198275 0.00548306 -0.00459399 1.36093)
(0.103881 0.0159293 -0.191196 0.00545111 -0.00351513 1.29308)
(0.118719 0.0173109 -0.199108 0.00544405 -0.00305254 1.2619)
(0.125967 0.0176396 -0.186999 0.00535301 -0.000943913 1.16043)
(0.148389 0.0196564 -0.197016 0.00536721 -0.000637157 1.13121)
(0.153792 0.0193909 -0.175373 0.00514055 0.00282927 0.99355)
(0.19506 0.0232056 -0.175348 0.00522883 0.00317839 0.915454)
(0.192215 0.0215206 -0.146723 0.00472561 0.00692778 0.792345)
(0.272633 0.0294979 -0.0131816 0.00492754 0.0159612 0.516995)
(0.0888293 0.0208035 -0.00159825 0.00602961 -0.0160077 0.24213)
(0.0586109 -0.0208809 -0.094283 0.00867107 0.019825 0.567933)
(0.00421143 0.00238635 0.0281346 0.00674685 0.0189169 1.31966)
(0.0322833 -0.0111702 -0.116272 0.00638821 0.0164598 1.42607)
(0.0104711 -0.00457509 -0.0359076 0.00582379 0.0135045 1.7211)
(0.0306222 -0.00944536 -0.109427 0.0057054 0.00824598 1.6891)
(0.0236916 -0.00767688 -0.0770179 0.00562496 0.00815367 1.75069)
(0.0368617 -0.0100789 -0.111411 0.00562439 0.0062922 1.69889)
(0.036843 -0.00983677 -0.0984293 0.00561981 0.00653147 1.68407)
(0.0467193 -0.011404 -0.114654 0.00563647 0.00595408 1.64156)
(0.0501242 -0.0117888 -0.109166 0.00564859 0.00602651 1.60174)
(0.0594617 -0.0131006 -0.119611 0.00565973 0.00556023 1.56383)
(0.0646529 -0.0137491 -0.116213 0.00567742 0.00520111 1.5005)
(0.0759076 -0.015163 -0.127618 0.00567854 0.00487566 1.47107)
(0.0817863 -0.015857 -0.121478 0.00570225 0.00381534 1.37098)
(0.098901 -0.0177428 -0.136269 0.00567342 0.00308813 1.34258)
(0.103659 -0.0182237 -0.121846 0.00569301 0.000785022 1.19035)
(0.135676 -0.0214012 -0.134967 0.00561268 -0.00135875 1.12665)
(0.134636 -0.0199583 -0.107067 0.00527244 -0.00807183 0.929129)
(0.200943 -0.0283121 -0.0300084 0.0061802 -0.0210979 0.661807)
(0.092599 -0.0203153 -0.00344882 0.00837174 0.031825 0.266307)
(0.0353644 0.0126494 -0.101867 0.0154031 0.0280902 0.842279)
(0.0188188 -0.0136398 0.140487 0.0256762 -0.0321678 1.63738)
(0.0116513 0.0117144 -0.0435946 0.0225708 -0.0271108 1.86436)
(0.00983309 -0.000514116 0.0985997 0.0259305 -0.0446274 2.08757)
(0.0120361 0.0110331 -0.000985544 0.0247731 -0.0411618 2.09154)
(0.0125369 0.00706053 0.0547641 0.0257859 -0.0457791 2.12209)
(0.0166983 0.0129894 0.00639179 0.0253465 -0.0436486 2.09525)
(0.0184575 0.0123462 0.0265135 0.0256348 -0.0441116 2.07603)
(0.023051 0.0159759 0.001834 0.0254579 -0.0427103 2.04973)
(0.0258727 0.0166353 0.0073848 0.025484 -0.0418027 2.01552)
(0.0309902 0.0194491 -0.00959409 0.0253906 -0.0403466 1.98687)
(0.0346099 0.0205315 -0.00971716 0.0252488 -0.038188 1.9346)
(0.0412214 0.0233936 -0.027633 0.0252075 -0.0371554 1.9087)
(0.0453337 0.0243778 -0.0282746 0.0248647 -0.0333833 1.82243)
(0.0561115 0.0283051 -0.0527541 0.0249269 -0.0326999 1.7936)
(0.0597617 0.0284835 -0.0493594 0.0241 -0.0263402 1.64798)
(0.0829699 0.0357034 -0.0850987 0.0244712 -0.0267218 1.59557)
(0.0817756 0.0334696 -0.0682877 0.0227281 -0.0167529 1.30471)
(0.149392 0.0484761 -0.0747476 0.0225765 -0.00530767 1.07451)
(0.0592462 0.0389653 -0.00504607 0.0336338 -0.0466395 0.253995)
(0.00411732 -0.00974862 -0.00477592 0.0385474 0.0253273 0.647964)
(0.0396028 0.024931 0.168524 0.036907 0.0266088 1.07365)
(0.00720843 0.00146475 0.0688325 0.0386299 0.0292469 1.07463)
(0.0262587 0.0131966 0.158005 0.0371931 0.0303486 1.2097)
(0.0130775 0.00175397 0.101659 0.0379239 0.0300484 1.17656)
(0.0208215 0.00524452 0.137503 0.037433 0.0297606 1.20757)
(0.0163497 -0.000897359 0.110266 0.0377313 0.0294872 1.18651)
(0.0197842 -0.000587859 0.123466 0.0375692 0.0289948 1.18817)
(0.0188542 -0.00445353 0.109321 0.0377151 0.0284961 1.17294)
(0.020915 -0.00536987 0.112679 0.0376569 0.0278796 1.16323)
(0.0213993 -0.00833136 0.102614 0.0377159 0.0273027 1.14981)
(0.0231849 -0.00964604 0.101502 0.0377144 0.0263397 1.1291)
(0.0244954 -0.0124872 0.0912045 0.0376955 0.0256156 1.11663)
(0.0264462 -0.0137979 0.0882672 0.0377727 0.023797 1.07727)
(0.0290103 -0.0173654 0.0747464 0.0376466 0.0226145 1.06422)
(0.0311363 -0.0183936 0.0715539 0.0378937 0.0191217 0.991783)
(0.0375681 -0.0243526 0.0525444 0.0374054 0.0161866 0.970874)
(0.0387032 -0.0249473 0.0484653 0.0383113 0.00618639 0.809484)
(0.0600652 -0.0386435 0.0374782 0.0390192 -0.00638534 0.764991)
(0.0441376 -0.0555302 -0.199274 0.0740086 0.284653 1.18987)
(0.00620539 -0.0221205 -0.0443138 0.109642 0.293308 0.967896)
(0.0288412 -0.0516377 -0.0907186 0.131309 0.339158 1.11868)
(0.0112711 -0.0274715 -0.0406416 0.126493 0.332879 1.11616)
(0.0188561 -0.0354556 -0.047101 0.13085 0.340222 1.13636)
(0.0116317 -0.0227703 -0.0199047 0.128549 0.337565 1.13394)
(0.0140497 -0.0240092 -0.0169466 0.130052 0.340435 1.14037)
(0.0108815 -0.0165775 -0.000594545 0.129139 0.339633 1.14)
(0.0114977 -0.0152765 0.00483593 0.129607 0.340817 1.14212)
(0.0100393 -0.0104088 0.015035 0.1293 0.341128 1.14281)
(0.0101113 -0.00835406 0.0200686 0.129275 0.341419 1.14277)
(0.00935944 -0.00472327 0.0269532 0.129107 0.341682 1.14333)
(0.00936076 -0.00264732 0.0308199 0.128808 0.341604 1.14246)
(0.0089283 0.000511272 0.0360646 0.128654 0.341748 1.14233)
(0.00906416 0.00234139 0.0387274 0.128084 0.341697 1.14175)
(0.0088393 0.00588088 0.044425 0.127978 0.341951 1.14234)
(0.00917234 0.00738787 0.0461099 0.126618 0.341082 1.14082)
(0.00947898 0.0126803 0.0556272 0.126552 0.341817 1.14265)
(0.0097034 0.0139607 0.055752 0.122689 0.3383 1.13655)
(0.0110758 0.0197648 0.066777 0.122048 0.335667 1.12546)
(0.037266 0.0717233 0.00831474 0.160143 0.0155219 0.00455809)
(0.0441858 -0.0733719 0.000153617 0.239071 0.0111485 0.00385045)
(0.0150524 -0.0342976 -0.000121834 0.244915 0.0173218 0.00444284)
(0.0417777 -0.0620992 0.000467342 0.244815 0.0134171 0.0040537)
(0.0279929 -0.0447356 -0.000260545 0.24339 0.0160712 0.00429708)
(0.0347265 -0.0448185 0.000624794 0.243712 0.0143631 0.00413592)
(0.0299853 -0.0372901 0.000215178 0.243028 0.0154611 0.00423401)
(0.0313576 -0.0324817 0.000776693 0.243235 0.014707 0.00416621)
(0.0291959 -0.0269588 0.000643274 0.242815 0.0151229 0.00420143)
(0.0293015 -0.0218763 0.000961931 0.24291 0.0147651 0.00417061)
(0.0281112 -0.0171561 0.000958191 0.242684 0.0148677 0.00417799)
(0.0281021 -0.0128376 0.00112637 0.24271 0.0146701 0.00416178)
(0.0273555 -0.00874288 0.00117127 0.242493 0.0145958 0.00415474)
(0.0277909 -0.00553764 0.00123898 0.242475 0.0144623 0.00414407)
(0.0273285 -0.00210083 0.0012938 0.242178 0.0142351 0.00412494)
(0.0286543 -0.000757544 0.00126161 0.24219 0.0141298 0.00411621)
(0.0282095 0.00250746 0.00131187 0.241531 0.0136945 0.00407925)
(0.0307637 -8.41379e-05 0.00111409 0.241554 0.0136125 0.00407199)
(0.0276839 0.00493783 0.0011785 0.236417 0.0127776 0.00400291)
(0.0278318 0.0164549 0.00166754 0.236698 0.0125492 0.00399395)
(0.139936 -0.0417323 0.00667873 0.0305993 -0.00300159 0.00320705)
(0.0388305 0.0324377 0.00350703 0.0692614 0.000321048 0.00311427)
(0.00903818 -0.0118989 0.00245446 0.0690303 -0.00292329 0.00316254)
(0.0405498 0.0202279 0.00331311 0.0804965 -0.00067058 0.00310928)
(0.0250613 0.00758174 0.00201538 0.0771456 -0.0022586 0.00311349)
(0.0387851 0.0117315 0.00267058 0.0779123 -0.00123516 0.00310533)
(0.0341086 0.00752625 0.00190879 0.0768775 -0.00189519 0.00310212)
(0.039243 0.00550639 0.00221633 0.0767744 -0.00145571 0.00310567)
(0.038137 0.00271451 0.00180224 0.0764883 -0.00170877 0.00310197)
(0.0409035 -0.000236763 0.00191872 0.0763353 -0.00150762 0.00310679)
(0.0409496 -0.00285245 0.00169934 0.0762864 -0.00157355 0.00310451)
(0.0435266 -0.00550325 0.00172376 0.0761829 -0.00146705 0.00310799)
(0.0440588 -0.00797965 0.00160492 0.0763547 -0.00142892 0.00310709)
(0.0474692 -0.00980535 0.00159608 0.0762656 -0.001359 0.00310922)
(0.0482907 -0.0119089 0.00151311 0.0769207 -0.00122592 0.0031086)
(0.0537502 -0.0116501 0.00149982 0.0767768 -0.0011731 0.00310916)
(0.0542374 -0.013642 0.00139001 0.0788169 -0.000909642 0.00310712)
(0.0626649 -0.00760631 0.00140509 0.0785223 -0.000874559 0.0031067)
(0.0589236 -0.0109953 0.00114314 0.0916289 -0.000376028 0.00309656)
(0.0616942 0.00705676 0.00108201 0.0876633 -0.000339664 0.00310261)
(0.174244 0.0689962 0.00992095 0.0328921 0.0047083 0.00364296)
(0.00434379 -0.00839846 0.00206298 0.061007 0.00177819 0.00321942)
(0.0189518 0.0281882 0.00415637 0.0555768 0.00474604 0.00349482)
(0.012295 0.00261056 0.00290594 0.0527443 0.00260241 0.00328577)
(0.0121854 0.0102272 0.00281414 0.0494762 0.00385337 0.00339293)
(0.0177368 0.00801337 0.00281612 0.0497727 0.00304679 0.00331924)
(0.0181342 0.0104757 0.00257893 0.0490667 0.00355139 0.00335865)
(0.0223094 0.0122784 0.00268993 0.0493512 0.00321588 0.0033334)
(0.0237644 0.0140979 0.0025397 0.0491338 0.00340705 0.00334583)
(0.0275248 0.0164477 0.00261744 0.0492835 0.00325386 0.00333692)
(0.029688 0.0183708 0.00253667 0.0492134 0.0033015 0.00333856)
(0.0335623 0.020489 0.00256938 0.0493005 0.00321892 0.00333457)
(0.036268 0.0224803 0.00251221 0.0492661 0.00318778 0.00333074)
(0.0404975 0.0239144 0.00250108 0.0493393 0.00313183 0.00332776)
(0.0436526 0.0258574 0.00242651 0.0492651 0.00302789 0.00331898)
(0.0482047 0.0255498 0.00235514 0.0493573 0.00298295 0.00331563)
(0.0516735 0.0276591 0.00222091 0.0490332 0.0027823 0.00329789)
(0.0556568 0.0227654 0.00202543 0.0489729 0.00275168 0.00329494)
(0.0588461 0.0264625 0.00180822 0.0475617 0.00240766 0.00325716)
(0.0648132 0.00560161 0.00115875 0.0486415 0.00239726 0.00326055)
(0.164868 -0.00274691 0.00781397 0.00458322 -0.000734308 0.00335865)
(0.00403572 0.0034744 0.00208788 0.00749026 -7.39498e-05 0.00314073)
(0.0408995 -0.0105721 0.00395682 0.00797132 -0.00102398 0.00326297)
(0.0106434 -0.00648044 0.00238886 0.011738 -0.000402089 0.00315577)
(0.0200679 -0.0106653 0.00291634 0.0119509 -0.000991819 0.00319896)
(0.0175471 -0.00911085 0.00234575 0.0123189 -0.000569946 0.00316542)
(0.0213139 -0.0100271 0.00246046 0.0121984 -0.000833426 0.00317961)
(0.0238786 -0.0105167 0.00219341 0.0120807 -0.000647133 0.00317092)
(0.0274057 -0.0111895 0.00217881 0.0120221 -0.000749373 0.00317394)
(0.0313304 -0.0121783 0.00202198 0.0119279 -0.00066771 0.00317257)
(0.0355214 -0.0130225 0.00195301 0.0119209 -0.000693628 0.00317196)
(0.0398697 -0.0139929 0.00184034 0.0118647 -0.000652209 0.00317209)
(0.0448154 -0.015008 0.00173544 0.0119358 -0.000636939 0.00316993)
(0.0488667 -0.0156262 0.00164087 0.0118866 -0.000610756 0.00316988)
(0.0547388 -0.0168675 0.00149191 0.0121563 -0.000555694 0.00316612)
(0.0566552 -0.0163487 0.00140946 0.012079 -0.000536672 0.00316521)
(0.0640146 -0.0181631 0.00118782 0.0130174 -0.0004309 0.00315729)
(0.0597092 -0.0139824 0.00110823 0.0129712 -0.000417026 0.00315601)
(0.0687412 -0.0181245 0.000783924 0.0174439 -0.000241848 0.00313593)
(0.0593345 -0.00487137 0.000654238 0.0164965 -0.000212281 0.00313845)
(0.158594 0.0232922 0.0088937 0.00443776 0.00148348 0.00351017)
(0.00335716 -0.00289971 0.00187074 0.0123101 0.000312858 0.00317088)
(0.0578289 0.0214693 0.00487086 0.0113973 0.00173952 0.00338915)
(0.0278729 0.01213 0.00245496 0.0116184 0.000746987 0.00321588)
(0.0456513 0.0148327 0.0036382 0.010646 0.00136978 0.00330035)
(0.0406469 0.0135739 0.00259874 0.0107367 0.000965458 0.00324133)
(0.0473142 0.0139029 0.00306215 0.0104451 0.00121191 0.00327159)
(0.0492031 0.0145315 0.00257956 0.0104958 0.00104693 0.00325256)
(0.0546607 0.0149806 0.00275105 0.0104204 0.00113857 0.00326157)
(0.0586831 0.0159634 0.00250147 0.0104428 0.00106576 0.00325549)
(0.0648038 0.0166888 0.0025297 0.0104287 0.00108787 0.00325638)
(0.069448 0.0176555 0.00238319 0.0104464 0.00104969 0.00325396)
(0.0766024 0.01856 0.00232777 0.010463 0.00103444 0.00325082)
(0.0804922 0.0192191 0.00221968 0.0104799 0.00100938 0.00324895)
(0.0892312 0.0202798 0.0020914 0.0105299 0.000959551 0.00324196)
(0.089016 0.0200161 0.00198324 0.0105516 0.000939825 0.00323956)
(0.100765 0.021397 0.00176965 0.0106789 0.000846218 0.00322516)
(0.0893845 0.0181166 0.0015872 0.0106436 0.000834771 0.00322287)
(0.106463 0.0205385 0.00129015 0.0109231 0.000686411 0.00319097)
(0.0792601 0.00790083 0.000787854 0.0112278 0.000686449 0.00319367)
(0.151131 -0.00614018 0.00830582 0.00130026 -0.000525546 0.00344197)
(0.00428878 0.00264797 0.00197043 0.00353986 -6.3987e-05 0.00315547)
(0.0637036 -0.00818578 0.00461539 0.00344516 -0.00074742 0.00332984)
(0.039555 -0.00649404 0.0021677 0.00497841 -0.000319719 0.00318584)
(0.0656251 -0.0103731 0.00354261 0.0050653 -0.000722958 0.00325271)
(0.0622293 -0.0100735 0.00232118 0.00530329 -0.000437087 0.00320442)
(0.0717281 -0.01083 0.00293035 0.00524344 -0.000618307 0.00322832)
(0.0737336 -0.0111422 0.00231419 0.00523115 -0.000489037 0.00321329)
(0.0805499 -0.011508 0.00255367 0.00519812 -0.000559006 0.00322007)
(0.0846592 -0.0120676 0.0022201 0.00517686 -0.000501924 0.00321565)
(0.0919423 -0.0125604 0.00226664 0.00517074 -0.000519375 0.00321605)
(0.0966793 -0.0131374 0.00206793 0.00515926 -0.000490441 0.00321449)
(0.105189 -0.0138079 0.00200536 0.00518566 -0.00048011 0.00321181)
(0.10889 -0.0141307 0.00186581 0.00517144 -0.000462198 0.00321061)
(0.119469 -0.0151137 0.00171847 0.00527683 -0.000426184 0.00320501)
(0.117897 -0.0146464 0.00160185 0.00525493 -0.000413437 0.00320323)
(0.132608 -0.0162569 0.00136598 0.00560861 -0.000348403 0.00319165)
(0.117117 -0.0133882 0.00121661 0.00559194 -0.000340379 0.00318978)
(0.137519 -0.0165925 0.000900927 0.00687867 -0.000243133 0.00316328)
(0.103769 -0.00929417 0.000590153 0.00676085 -0.000228131 0.00316535)
(0.151131 0.00614203 0.00830583 0.00130037 0.000525556 0.00344197)
(0.00428875 -0.00264807 0.0019705 0.00354012 6.38844e-05 0.00315551)
(0.063706 0.00818577 0.00461527 0.00344533 0.000747385 0.00332985)
(0.0395552 0.00649448 0.00216752 0.00497844 0.000319603 0.00318586)
(0.0656256 0.0103754 0.0035417 0.00506658 0.000722593 0.00325272)
(0.0622288 0.010069 0.00232097 0.00530116 0.000437217 0.00320444)
(0.0717235 0.0108212 0.00293096 0.00523851 0.000618712 0.0032283)
(0.0737375 0.0111374 0.00231442 0.00522899 0.0004893 0.00321328)
(0.0805529 0.0114993 0.00255363 0.0051943 0.000559238 0.00322007)
(0.084652 0.0120609 0.00221994 0.0051716 0.000501974 0.00321567)
(0.0919374 0.012558 0.0022672 0.00516746 0.000519619 0.00321602)
(0.0966811 0.0131268 0.00206998 0.00515395 0.000491233 0.00321437)
(0.10519 0.0138066 0.00200528 0.00518358 0.000480146 0.00321182)
(0.108889 0.0141329 0.00186535 0.00517092 0.000461895 0.00321064)
(0.119468 0.0151126 0.00171907 0.00527615 0.000426263 0.00320498)
(0.117901 0.0146502 0.00160188 0.00525456 0.000413456 0.00320322)
(0.1326 0.0162841 0.00136597 0.00561032 0.000347415 0.00319164)
(0.117124 0.0134391 0.00121698 0.0055999 0.000339428 0.00318975)
(0.137552 0.0168147 0.000901749 0.00686335 0.000238905 0.00316321)
(0.104092 0.00928819 0.000589478 0.00684549 0.000222389 0.00316529)
(0.158596 -0.0232878 0.00889372 0.0044364 -0.00148343 0.00351017)
(0.00335743 0.00289975 0.00187064 0.0123096 -0.000313151 0.00317082)
(0.0578268 -0.0214689 0.00487117 0.0113971 -0.00173966 0.00338917)
(0.0278735 -0.0121293 0.00245497 0.0116181 -0.000747004 0.00321589)
(0.0456493 -0.0148335 0.00363828 0.0106459 -0.00136967 0.00330035)
(0.0406439 -0.0135756 0.00259885 0.0107391 -0.000965435 0.00324133)
(0.0473178 -0.0139111 0.00306261 0.0104505 -0.00121214 0.00327159)
(0.0491995 -0.0145412 0.00258018 0.0104995 -0.00104686 0.00325252)
(0.0546552 -0.0149849 0.00275133 0.0104244 -0.00113861 0.00326157)
(0.0586888 -0.0159735 0.00250134 0.0104539 -0.00106534 0.0032555)
(0.0648052 -0.0166962 0.00252998 0.010434 -0.00108784 0.00325637)
(0.0694435 -0.0176644 0.00238461 0.0104546 -0.00104989 0.00325385)
(0.0766026 -0.0185614 0.00232767 0.0104661 -0.00103439 0.00325083)
(0.0804928 -0.0192218 0.0022193 0.0104816 -0.00100911 0.00324899)
(0.0892254 -0.0202818 0.00209207 0.0105306 -0.000959432 0.00324191)
(0.0890216 -0.0200125 0.00198281 0.0105517 -0.000939845 0.00323958)
(0.100769 -0.0213838 0.0017691 0.0106779 -0.000846289 0.00322519)
(0.0894418 -0.0180738 0.00158488 0.0106329 -0.000834983 0.00322286)
(0.106507 -0.020375 0.00128742 0.010942 -0.000687896 0.0031911)
(0.0799454 -0.00789194 0.000779105 0.0111498 -0.000688494 0.00319418)
(0.164866 0.00274252 0.00781397 0.00458311 0.000734279 0.00335865)
(0.00403604 -0.00347433 0.00208777 0.00748954 7.42177e-05 0.00314066)
(0.0409009 0.0105715 0.00395712 0.00797095 0.00102407 0.00326298)
(0.0106433 0.0064804 0.00238878 0.0117376 0.000401912 0.00315582)
(0.0200669 0.010667 0.00291578 0.0119531 0.000991182 0.00319899)
(0.0175453 0.00910818 0.00234582 0.0123159 0.000570185 0.00316544)
(0.0213114 0.010026 0.00246066 0.0121956 0.00083378 0.00317959)
(0.0238798 0.0105194 0.00219338 0.0120836 0.000646917 0.00317093)
(0.0274051 0.0111872 0.00217887 0.01202 0.000749599 0.00317395)
(0.0313289 0.0121785 0.00202198 0.0119291 0.000667291 0.00317261)
(0.035521 0.0130245 0.00195306 0.011921 0.000693348 0.00317198)
(0.0398711 0.0139946 0.00184026 0.0118677 0.000651976 0.0031721)
(0.0448176 0.015009 0.0017353 0.0119351 0.000636896 0.00316995)
(0.0488677 0.0156283 0.00164082 0.011887 0.000610315 0.0031699)
(0.0547405 0.0168689 0.00149186 0.0121569 0.000555414 0.00316612)
(0.0566635 0.0163539 0.00140911 0.0120808 0.000536552 0.00316521)
(0.0640351 0.0181699 0.00118735 0.0130213 0.000429529 0.00315733)
(0.0597691 0.0140011 0.00110568 0.0129865 0.000415498 0.00315605)
(0.068893 0.0181826 0.000780089 0.0174478 0.000235448 0.00313615)
(0.0601349 0.00478218 0.000643735 0.016619 0.000203368 0.00313906)
(0.174245 -0.0689972 0.00992097 0.032893 -0.00470833 0.00364296)
(0.00434373 0.00839804 0.00206309 0.0610049 -0.00177782 0.00321947)
(0.0189512 -0.0281874 0.00415624 0.0555754 -0.00474581 0.00349482)
(0.0122944 -0.00261267 0.00290599 0.0527444 -0.00260207 0.00328581)
(0.0121854 -0.0102259 0.00281423 0.0494808 -0.00385223 0.00339293)
(0.0177395 -0.00801125 0.00281629 0.049779 -0.00304671 0.00331925)
(0.0181299 -0.0104708 0.00257872 0.0490827 -0.0035517 0.00335865)
(0.0223143 -0.0122667 0.00269009 0.0493649 -0.00321502 0.00333342)
(0.0237729 -0.014098 0.00253969 0.0491464 -0.00340731 0.00334581)
(0.0275196 -0.0164404 0.0026172 0.0493338 -0.00325324 0.00333692)
(0.0296882 -0.0183613 0.00253655 0.0492331 -0.0033011 0.00333854)
(0.0335714 -0.0204841 0.0025689 0.0493402 -0.00321877 0.00333445)
(0.03627 -0.0224815 0.00251215 0.0492763 -0.00318786 0.00333073)
(0.0404958 -0.0239084 0.00250115 0.0493428 -0.00313125 0.00332781)
(0.0436657 -0.0258509 0.00242649 0.0492675 -0.00302727 0.00331897)
(0.0482137 -0.0255488 0.00235458 0.0493569 -0.00298282 0.00331561)
(0.051704 -0.0276526 0.00221964 0.0490273 -0.00278106 0.00329789)
(0.0557008 -0.0227573 0.00202269 0.0489465 -0.00275015 0.00329502)
(0.0590214 -0.0264872 0.00179836 0.0475381 -0.00240095 0.00325716)
(0.0649739 -0.0054813 0.00113982 0.0484867 -0.00238766 0.00326118)
(0.139936 0.0417324 0.00667871 0.0305996 0.00300159 0.00320704)
(0.0388317 -0.0324351 0.00350678 0.0692564 -0.000320501 0.00311422)
(0.00903775 0.011899 0.00245445 0.0690275 0.00292347 0.00316255)
(0.0405589 -0.0202236 0.00331324 0.0804928 0.000670822 0.00310928)
(0.0250617 -0.00758946 0.00201528 0.0771522 0.00225859 0.00311348)
(0.0388076 -0.0117254 0.00267175 0.0779091 0.00123539 0.00310538)
(0.034141 -0.00754048 0.00190847 0.076894 0.00189503 0.00310209)
(0.0392311 -0.00554586 0.00221635 0.0768037 0.00145384 0.00310569)
(0.0381552 -0.00271281 0.0018047 0.0764986 0.00170773 0.00310209)
(0.0409375 0.00020941 0.00191831 0.0763986 0.00150543 0.00310677)
(0.0409497 0.00281541 0.00169865 0.0763123 0.00157259 0.00310446)
(0.0435157 0.00548353 0.00172448 0.0762369 0.00146528 0.00310809)
(0.0440604 0.00799306 0.00160476 0.0763596 0.00142911 0.00310708)
(0.047473 0.00977441 0.00159549 0.0762737 0.00135784 0.00310918)
(0.04829 0.0118918 0.00151188 0.0769298 0.00122535 0.00310852)
(0.0537461 0.0116622 0.00149959 0.0767841 0.00117296 0.00310919)
(0.0542653 0.013627 0.00138874 0.0788265 0.000907108 0.00310717)