/*--------------------------------*- C++ -*----------------------------------*\
  =========                 |
  \\      /  F ield         | OpenFOAM: The Open Source CFD Toolbox
   \\    /   O peration     | Website:  https://openfoam.org
    \\  /    A nd           | Version:  7
     \\/     M anipulation  |
\*---------------------------------------------------------------------------*/
FoamFile
{
    version     2.0;
    format      ascii;
    class       volScalarField;
    location    "2.6275";
    object      nut;
}
// * * * * * * * * * * * * * * * * * * * * * * * * * * * * * * * * * * * * * //

dimensions      [0 2 -1 0 0 0 0];

internalField   nonuniform List<scalar> 
7920
(
0.00875601
0.00912522
0.00912891
0.00913349
0.00912776
0.00912865
0.00912413
0.00912513
0.00912207
0.00912316
0.0091209
0.00912186
0.00911999
0.0091207
0.00911938
0.00911979
0.00911961
0.00911807
0.00912481
0.00913513
0.00451622
0.00454399
0.00445016
0.00435831
0.00431396
0.00429666
0.0042817
0.0042772
0.00426933
0.00426761
0.00426254
0.00426164
0.00425867
0.00425837
0.0042564
0.00425607
0.00425497
0.00425391
0.00428295
0.00428473
0.00345168
0.00368661
0.00371055
0.0037078
0.00370018
0.00369836
0.00369362
0.00369283
0.0036895
0.00368886
0.00368613
0.00368559
0.00368337
0.00368292
0.00368113
0.00368072
0.00367934
0.0036788
0.00367949
0.00368451
0.00332054
0.00359164
0.00364329
0.00366201
0.00366704
0.00367395
0.00367519
0.00367892
0.00367922
0.00368143
0.0036813
0.00368269
0.00368234
0.00368326
0.00368281
0.00368344
0.00368297
0.00368341
0.00368344
0.00368799
0.00330609
0.00358062
0.003635
0.00365702
0.00366469
0.00367437
0.00367763
0.00368422
0.00368625
0.00369102
0.00369242
0.00369603
0.00369699
0.00369976
0.00370043
0.00370259
0.00370307
0.00370464
0.0037053
0.00371029
0.00330762
0.00357991
0.00363396
0.00365631
0.00366472
0.00367536
0.0036796
0.00368738
0.00369035
0.00369646
0.00369873
0.00370362
0.00370538
0.00370932
0.00371069
0.00371389
0.00371499
0.00371739
0.00371878
0.00372389
0.00330762
0.00357991
0.00363396
0.00365631
0.00366472
0.00367536
0.0036796
0.00368738
0.00369035
0.00369646
0.00369873
0.00370362
0.00370538
0.00370933
0.00371069
0.0037139
0.00371499
0.0037174
0.00371879
0.00372391
0.00330609
0.00358062
0.003635
0.00365702
0.00366469
0.00367437
0.00367762
0.00368423
0.00368625
0.00369103
0.00369241
0.00369604
0.00369698
0.00369978
0.00370042
0.00370262
0.00370306
0.00370469
0.00370531
0.00371035
0.00332054
0.00359164
0.00364329
0.00366201
0.00366703
0.00367395
0.00367519
0.00367892
0.00367922
0.00368144
0.00368129
0.00368271
0.00368232
0.0036833
0.00368277
0.00368352
0.00368288
0.00368359
0.00368331
0.00368817
0.00345168
0.00368661
0.00371055
0.0037078
0.00370018
0.00369836
0.00369362
0.00369284
0.00368949
0.00368887
0.00368612
0.00368561
0.00368334
0.00368296
0.00368105
0.00368084
0.00367912
0.00367924
0.00367907
0.00368516
0.00451622
0.00454399
0.00445016
0.00435831
0.00431396
0.00429666
0.0042817
0.0042772
0.00426932
0.00426761
0.00426253
0.00426165
0.00425864
0.00425841
0.00425632
0.00425619
0.00425473
0.0042544
0.00428164
0.0042862
0.00875601
0.00912522
0.00912891
0.00913349
0.00912776
0.00912865
0.00912412
0.00912513
0.00912207
0.00912317
0.00912089
0.00912189
0.00911995
0.00912076
0.00911927
0.00911998
0.00911924
0.00911875
0.00912327
0.00913843
0.00336299
0.00377603
0.00379293
0.00376813
0.00376126
0.00374712
0.00374648
0.00373832
0.00373858
0.00373302
0.00373352
0.00372947
0.00372994
0.00372684
0.00372728
0.00372467
0.00372544
0.00372225
0.00372295
0.00373208
0.0029783
0.00348702
0.00355891
0.00356851
0.0035697
0.00356967
0.00356927
0.00356883
0.00356827
0.00356771
0.00356717
0.00356658
0.00356617
0.00356559
0.00356533
0.00356477
0.00356456
0.00356406
0.0035649
0.00356645
0.00289856
0.00341311
0.00348861
0.00350396
0.00350663
0.00351031
0.00351141
0.00351391
0.00351469
0.00351646
0.00351699
0.0035182
0.0035186
0.00351943
0.00351987
0.00352032
0.00352096
0.00352097
0.00352142
0.00352796
0.0028964
0.00341105
0.00348574
0.0035003
0.00350141
0.00350356
0.00350354
0.00350476
0.00350502
0.00350616
0.00350646
0.00350739
0.00350773
0.00350845
0.00350889
0.00350932
0.00351002
0.00351006
0.00351075
0.00351497
0.00289339
0.0034077
0.00348238
0.0034973
0.00349821
0.00350009
0.00349959
0.00350044
0.00350016
0.00350086
0.00350071
0.00350127
0.00350122
0.00350166
0.00350169
0.00350205
0.00350216
0.00350247
0.00350272
0.00350709
0.002895
0.00340945
0.0034839
0.00349871
0.00349957
0.00350143
0.00350088
0.00350169
0.00350131
0.00350193
0.00350165
0.0035021
0.00350189
0.00350222
0.00350207
0.00350231
0.00350224
0.00350241
0.00350242
0.00350641
0.002895
0.00340945
0.0034839
0.00349871
0.00349957
0.00350143
0.00350088
0.00350169
0.00350131
0.00350193
0.00350165
0.0035021
0.00350189
0.00350222
0.00350207
0.00350231
0.00350223
0.00350241
0.00350242
0.0035064
0.00289339
0.0034077
0.00348238
0.0034973
0.00349821
0.00350009
0.00349959
0.00350044
0.00350016
0.00350086
0.00350071
0.00350128
0.00350121
0.00350167
0.00350168
0.00350207
0.00350214
0.00350249
0.00350269
0.00350709
0.0028964
0.00341106
0.00348574
0.0035003
0.00350141
0.00350357
0.00350354
0.00350477
0.00350502
0.00350616
0.00350645
0.00350741
0.00350771
0.00350849
0.00350881
0.00350944
0.00350986
0.00351016
0.00351065
0.00351508
0.00289856
0.00341311
0.00348861
0.00350396
0.00350663
0.00351031
0.00351141
0.00351392
0.00351469
0.00351647
0.00351698
0.00351822
0.00351858
0.00351949
0.00351976
0.00352051
0.00352067
0.00352134
0.00352096
0.00352843
0.0029783
0.00348702
0.00355891
0.00356851
0.0035697
0.00356967
0.00356927
0.00356884
0.00356826
0.00356772
0.00356716
0.0035666
0.00356614
0.00356564
0.00356525
0.00356491
0.0035643
0.00356446
0.00356419
0.00356777
0.00336299
0.00377603
0.00379293
0.00376813
0.00376126
0.00374712
0.00374648
0.00373832
0.00373858
0.00373302
0.00373352
0.00372948
0.00372993
0.00372686
0.00372725
0.00372474
0.00372537
0.00372248
0.00372261
0.00373307
0.000838525
0.00123541
0.00129245
0.00127555
0.00123216
0.00119154
0.00115918
0.00113561
0.00111803
0.00110419
0.00109407
0.00108477
0.00107828
0.0010713
0.00106678
0.00106144
0.00105768
0.00105469
0.00104874
0.00105445
0.000356014
0.000750854
0.000881138
0.000931648
0.000948946
0.000959627
0.000964924
0.000970678
0.000973532
0.000976587
0.000977604
0.000978826
0.000978886
0.000979068
0.000978809
0.000978667
0.000978207
0.000977897
0.000977281
0.000979422
0.000307702
0.000664838
0.000783376
0.000836484
0.000852593
0.000864281
0.000866987
0.000872475
0.000874397
0.000878556
0.000880587
0.000884267
0.000886454
0.000889483
0.000891734
0.000894159
0.000896403
0.000898394
0.000899874
0.000903579
0.000316806
0.000668849
0.000784486
0.000835309
0.000851059
0.000860816
0.000862261
0.000864837
0.000864964
0.000865823
0.000866056
0.00086687
0.000867339
0.000868211
0.000869124
0.000869793
0.000871119
0.000871741
0.000872878
0.000875726
0.000312485
0.000664425
0.00077963
0.00083073
0.00084617
0.000855949
0.000857149
0.000859493
0.000859296
0.000859711
0.000859446
0.000859619
0.000859475
0.000859571
0.00085959
0.000859659
0.000859889
0.000859969
0.00086022
0.000862085
0.000314911
0.000666902
0.000782126
0.000832874
0.000848411
0.000858053
0.000859382
0.000861653
0.000861493
0.000861857
0.000861589
0.00086168
0.000861482
0.000861465
0.000861386
0.000861282
0.000861305
0.000861227
0.00086134
0.000862951
0.000314911
0.000666902
0.000782126
0.000832874
0.000848411
0.000858053
0.000859382
0.000861653
0.000861493
0.000861857
0.000861589
0.00086168
0.000861482
0.000861466
0.000861385
0.000861283
0.000861305
0.000861228
0.000861338
0.00086295
0.000312484
0.000664425
0.00077963
0.00083073
0.00084617
0.00085595
0.000857149
0.000859493
0.000859296
0.000859711
0.000859446
0.000859619
0.000859475
0.000859572
0.00085959
0.000859658
0.000859887
0.000859966
0.000860217
0.000862074
0.000316806
0.00066885
0.000784486
0.000835309
0.000851058
0.000860817
0.000862261
0.000864838
0.000864964
0.000865824
0.000866055
0.000866873
0.00086733
0.000868223
0.000869101
0.000869809
0.000871095
0.00087173
0.000872856
0.000875687
0.000307701
0.000664839
0.000783376
0.000836484
0.000852593
0.000864282
0.000866987
0.000872475
0.000874396
0.000878559
0.00088058
0.000884275
0.000886439
0.000889501
0.000891697
0.000894187
0.000896342
0.000898392
0.000899829
0.000903495
0.000356014
0.000750854
0.000881138
0.000931648
0.000948945
0.000959628
0.000964922
0.000970681
0.000973527
0.000976593
0.000977594
0.000978834
0.00097888
0.000979071
0.000978772
0.000978674
0.000978136
0.000977917
0.000977183
0.000979427
0.000838525
0.00123541
0.00129245
0.00127555
0.00123216
0.00119154
0.00115918
0.00113561
0.00111803
0.00110419
0.00109407
0.00108478
0.00107828
0.00107135
0.00106678
0.00106155
0.00105769
0.00105492
0.00104882
0.00105512
0.000838525
0.00123541
0.00129245
0.00127555
0.00123216
0.00119154
0.00115918
0.00113561
0.00111803
0.00110419
0.00109407
0.00108477
0.00107828
0.0010713
0.00106678
0.00106144
0.00105768
0.00105469
0.00104874
0.00105445
0.000356015
0.000750854
0.000881138
0.000931648
0.000948946
0.000959627
0.000964924
0.000970678
0.000973532
0.000976587
0.000977604
0.000978826
0.000978886
0.000979068
0.000978809
0.000978667
0.000978207
0.000977897
0.000977281
0.000979422
0.000307702
0.000664838
0.000783376
0.000836484
0.000852593
0.000864281
0.000866987
0.000872475
0.000874397
0.000878556
0.000880587
0.000884267
0.000886455
0.000889483
0.000891734
0.000894159
0.000896403
0.000898394
0.000899874
0.000903579
0.000316806
0.000668849
0.000784486
0.000835309
0.000851059
0.000860817
0.000862261
0.000864837
0.000864964
0.000865823
0.000866056
0.00086687
0.000867339
0.000868211
0.000869124
0.000869793
0.000871119
0.000871741
0.000872878
0.000875726
0.000312485
0.000664425
0.00077963
0.00083073
0.00084617
0.000855949
0.000857149
0.000859493
0.000859296
0.000859711
0.000859446
0.000859619
0.000859475
0.000859571
0.00085959
0.000859659
0.000859889
0.000859969
0.00086022
0.000862085
0.000314911
0.000666902
0.000782126
0.000832874
0.000848411
0.000858053
0.000859382
0.000861653
0.000861493
0.000861857
0.000861589
0.00086168
0.000861482
0.000861466
0.000861386
0.000861282
0.000861305
0.000861227
0.00086134
0.000862951
0.000314911
0.000666902
0.000782126
0.000832874
0.000848411
0.000858053
0.000859382
0.000861653
0.000861493
0.000861857
0.000861589
0.00086168
0.000861482
0.000861466
0.000861385
0.000861283
0.000861305
0.000861228
0.000861338
0.00086295
0.000312484
0.000664425
0.00077963
0.00083073
0.00084617
0.00085595
0.000857149
0.000859493
0.000859296
0.000859711
0.000859446
0.000859619
0.000859475
0.000859572
0.00085959
0.000859658
0.000859887
0.000859966
0.000860217
0.000862074
0.000316806
0.00066885
0.000784486
0.000835309
0.000851058
0.000860817
0.000862261
0.000864838
0.000864964
0.000865824
0.000866055
0.000866873
0.00086733
0.000868223
0.000869101
0.000869809
0.000871095
0.00087173
0.000872856
0.000875687
0.000307701
0.000664839
0.000783376
0.000836484
0.000852593
0.000864282
0.000866987
0.000872475
0.000874396
0.000878559
0.00088058
0.000884275
0.000886439
0.000889501
0.000891697
0.000894187
0.000896342
0.000898392
0.000899829
0.000903495
0.000356014
0.000750854
0.000881138
0.000931648
0.000948945
0.000959628
0.000964922
0.000970681
0.000973527
0.000976593
0.000977594
0.000978834
0.00097888
0.000979072
0.000978772
0.000978674
0.000978136
0.000977917
0.000977183
0.000979427
0.000838525
0.00123541
0.00129245
0.00127555
0.00123216
0.00119154
0.00115918
0.00113561
0.00111803
0.00110419
0.00109407
0.00108478
0.00107828
0.00107135
0.00106678
0.00106155
0.00105769
0.00105492
0.00104882
0.00105512
0.00336299
0.00377603
0.00379293
0.00376813
0.00376126
0.00374712
0.00374648
0.00373832
0.00373858
0.00373302
0.00373352
0.00372947
0.00372994
0.00372684
0.00372728
0.00372467
0.00372544
0.00372225
0.00372295
0.00373208
0.0029783
0.00348702
0.00355891
0.00356851
0.0035697
0.00356967
0.00356927
0.00356883
0.00356827
0.00356771
0.00356717
0.00356658
0.00356617
0.00356559
0.00356533
0.00356477
0.00356456
0.00356406
0.0035649
0.00356645
0.00289856
0.00341311
0.00348861
0.00350396
0.00350663
0.00351031
0.00351141
0.00351391
0.00351469
0.00351646
0.00351699
0.0035182
0.0035186
0.00351943
0.00351987
0.00352032
0.00352096
0.00352097
0.00352142
0.00352796
0.0028964
0.00341105
0.00348574
0.0035003
0.00350141
0.00350356
0.00350354
0.00350476
0.00350502
0.00350616
0.00350646
0.00350739
0.00350773
0.00350845
0.00350889
0.00350932
0.00351002
0.00351006
0.00351075
0.00351497
0.00289339
0.0034077
0.00348238
0.0034973
0.00349821
0.00350009
0.00349959
0.00350044
0.00350016
0.00350086
0.00350071
0.00350127
0.00350122
0.00350166
0.00350169
0.00350205
0.00350216
0.00350247
0.00350272
0.00350709
0.002895
0.00340945
0.0034839
0.00349871
0.00349957
0.00350143
0.00350088
0.00350169
0.00350131
0.00350193
0.00350165
0.0035021
0.00350189
0.00350222
0.00350207
0.00350231
0.00350224
0.00350241
0.00350242
0.00350641
0.002895
0.00340945
0.0034839
0.00349871
0.00349957
0.00350143
0.00350088
0.00350169
0.00350131
0.00350193
0.00350165
0.0035021
0.00350189
0.00350222
0.00350207
0.00350231
0.00350223
0.00350241
0.00350242
0.0035064
0.00289339
0.0034077
0.00348238
0.0034973
0.00349821
0.00350009
0.00349959
0.00350044
0.00350016
0.00350086
0.00350071
0.00350128
0.00350121
0.00350167
0.00350168
0.00350207
0.00350214
0.00350249
0.00350269
0.00350709
0.0028964
0.00341106
0.00348574
0.0035003
0.00350141
0.00350357
0.00350354
0.00350477
0.00350502
0.00350616
0.00350645
0.00350741
0.00350771
0.00350849
0.00350881
0.00350944
0.00350986
0.00351016
0.00351065
0.00351508
0.00289856
0.00341311
0.00348861
0.00350396
0.00350663
0.00351031
0.00351141
0.00351392
0.00351469
0.00351647
0.00351698
0.00351822
0.00351858
0.00351949
0.00351976
0.00352051
0.00352067
0.00352134
0.00352096
0.00352843
0.0029783
0.00348702
0.00355891
0.00356851
0.0035697
0.00356967
0.00356927
0.00356884
0.00356826
0.00356772
0.00356716
0.0035666
0.00356614
0.00356564
0.00356525
0.00356491
0.0035643
0.00356446
0.00356419
0.00356777
0.00336299
0.00377603
0.00379293
0.00376813
0.00376126
0.00374712
0.00374648
0.00373832
0.00373858
0.00373302
0.00373352
0.00372948
0.00372993
0.00372686
0.00372725
0.00372474
0.00372537
0.00372248
0.00372261
0.00373307
0.00875601
0.00912522
0.00912891
0.00913349
0.00912776
0.00912865
0.00912413
0.00912513
0.00912207
0.00912316
0.0091209
0.00912186
0.00911999
0.0091207
0.00911938
0.00911979
0.00911961
0.00911807
0.00912481
0.00913513
0.00451622
0.00454399
0.00445016
0.00435831
0.00431396
0.00429666
0.0042817
0.0042772
0.00426933
0.00426761
0.00426254
0.00426164
0.00425867
0.00425837
0.0042564
0.00425607
0.00425497
0.00425391
0.00428295
0.00428473
0.00345168
0.00368661
0.00371055
0.0037078
0.00370018
0.00369836
0.00369362
0.00369283
0.0036895
0.00368886
0.00368613
0.00368559
0.00368337
0.00368292
0.00368113
0.00368072
0.00367934
0.0036788
0.00367949
0.00368451
0.00332054
0.00359164
0.00364329
0.00366201
0.00366704
0.00367395
0.00367519
0.00367892
0.00367922
0.00368143
0.0036813
0.00368269
0.00368234
0.00368326
0.00368281
0.00368344
0.00368297
0.00368341
0.00368344
0.00368799
0.00330609
0.00358062
0.003635
0.00365702
0.00366469
0.00367437
0.00367763
0.00368422
0.00368625
0.00369102
0.00369242
0.00369603
0.00369699
0.00369976
0.00370043
0.00370259
0.00370307
0.00370464
0.0037053
0.00371029
0.00330762
0.00357991
0.00363396
0.00365631
0.00366472
0.00367536
0.0036796
0.00368738
0.00369035
0.00369646
0.00369873
0.00370362
0.00370538
0.00370932
0.00371069
0.00371389
0.00371499
0.00371739
0.00371878
0.00372389
0.00330762
0.00357991
0.00363396
0.00365631
0.00366472
0.00367536
0.0036796
0.00368738
0.00369035
0.00369646
0.00369873
0.00370362
0.00370538
0.00370933
0.00371069
0.0037139
0.00371499
0.0037174
0.00371879
0.00372391
0.00330609
0.00358062
0.003635
0.00365702
0.00366469
0.00367437
0.00367762
0.00368423
0.00368625
0.00369103
0.00369241
0.00369604
0.00369698
0.00369978
0.00370042
0.00370262
0.00370306
0.00370469
0.00370531
0.00371035
0.00332054
0.00359164
0.00364329
0.00366201
0.00366703
0.00367395
0.00367519
0.00367892
0.00367922
0.00368144
0.00368129
0.00368271
0.00368232
0.0036833
0.00368277
0.00368352
0.00368288
0.00368359
0.00368331
0.00368817
0.00345168
0.00368661
0.00371055
0.0037078
0.00370018
0.00369836
0.00369362
0.00369284
0.00368949
0.00368887
0.00368612
0.00368561
0.00368334
0.00368296
0.00368105
0.00368084
0.00367912
0.00367924
0.00367907
0.00368516
0.00451622
0.00454399
0.00445016
0.00435831
0.00431396
0.00429666
0.0042817
0.0042772
0.00426932
0.00426761
0.00426253
0.00426165
0.00425864
0.00425841
0.00425632
0.00425619
0.00425473
0.0042544
0.00428164
0.0042862
0.00875601
0.00912522
0.00912891
0.00913349
0.00912776
0.00912865
0.00912412
0.00912513
0.00912207
0.00912317
0.00912089
0.00912189
0.00911995
0.00912076
0.00911927
0.00911998
0.00911924
0.00911875
0.00912327
0.00913843
0.026616
0.0268092
0.0269029
0.0269803
0.0270409
0.0270988
0.0271472
0.0271945
0.0272352
0.0272757
0.0273117
0.0273481
0.0273811
0.0274141
0.0274442
0.0274743
0.0275022
0.0275302
0.0275563
0.0275823
0.0276064
0.0276303
0.0276524
0.0276743
0.0276944
0.0277141
0.027732
0.0277493
0.0277648
0.0277796
0.0277927
0.0278051
0.0278158
0.0278256
0.027834
0.0278415
0.0278477
0.0278533
0.0278577
0.0278615
0.0278644
0.0278669
0.0278686
0.0278701
0.0278709
0.0278717
0.027872
0.0278724
0.0278725
0.0278727
0.0278727
0.0278728
0.0278727
0.0278728
0.0278727
0.0278728
0.0278727
0.0278727
0.0278726
0.0278727
0.0278726
0.0278727
0.0278726
0.0278726
0.0278726
0.0278726
0.0278725
0.0278726
0.0278725
0.0278726
0.0278725
0.0278725
0.0278725
0.0278725
0.0278724
0.0278724
0.0278724
0.0278724
0.0278723
0.0278723
0.0278722
0.0278722
0.0278721
0.0278721
0.0278719
0.027872
0.0278716
0.0278717
0.0278687
0.027867
0.0152465
0.015527
0.0155777
0.0156235
0.0156542
0.0156892
0.0157141
0.0157429
0.0157639
0.0157887
0.0158075
0.0158297
0.015847
0.0158672
0.0158831
0.0159015
0.0159163
0.0159334
0.0159473
0.0159631
0.015976
0.0159906
0.0160025
0.0160158
0.0160266
0.0160387
0.0160483
0.0160589
0.0160671
0.0160763
0.0160832
0.0160909
0.0160965
0.0161027
0.016107
0.0161119
0.016115
0.0161187
0.0161208
0.0161235
0.0161247
0.0161266
0.0161272
0.0161285
0.0161287
0.0161295
0.0161294
0.01613
0.0161298
0.0161302
0.01613
0.0161304
0.0161301
0.0161305
0.0161302
0.0161306
0.0161303
0.0161306
0.0161304
0.0161307
0.0161305
0.0161308
0.0161306
0.0161309
0.0161307
0.016131
0.0161308
0.0161311
0.0161309
0.0161312
0.016131
0.0161313
0.0161311
0.0161313
0.0161312
0.0161314
0.0161313
0.0161315
0.0161314
0.0161315
0.0161314
0.0161316
0.0161314
0.0161316
0.0161314
0.0161315
0.0161313
0.0161315
0.0161287
0.0161274
0.0122436
0.0126421
0.0126803
0.0127167
0.012735
0.0127638
0.0127792
0.0128036
0.0128169
0.012838
0.01285
0.012869
0.0128804
0.0128977
0.0129083
0.0129242
0.0129342
0.0129489
0.0129584
0.0129721
0.012981
0.0129937
0.0130019
0.0130135
0.0130211
0.0130317
0.0130384
0.0130479
0.0130537
0.0130619
0.0130668
0.0130739
0.0130778
0.0130837
0.0130866
0.0130915
0.0130935
0.0130973
0.0130986
0.0131015
0.0131022
0.0131044
0.0131046
0.0131062
0.0131061
0.0131073
0.0131069
0.0131079
0.0131075
0.0131083
0.0131078
0.0131085
0.0131081
0.0131088
0.0131084
0.013109
0.0131086
0.0131092
0.0131089
0.0131095
0.0131092
0.0131097
0.0131094
0.01311
0.0131097
0.0131102
0.01311
0.0131105
0.0131103
0.0131107
0.0131106
0.013111
0.0131108
0.0131112
0.0131111
0.0131115
0.0131114
0.0131117
0.0131116
0.0131119
0.0131118
0.0131121
0.013112
0.0131123
0.0131122
0.0131124
0.0131122
0.0131125
0.0131116
0.0131078
0.0117857
0.0122804
0.0123191
0.0123515
0.0123637
0.0123896
0.0124007
0.0124234
0.0124334
0.0124532
0.0124623
0.0124803
0.0124892
0.012506
0.0125145
0.0125298
0.0125379
0.0125522
0.01256
0.0125734
0.0125808
0.0125933
0.0126002
0.0126118
0.0126182
0.0126288
0.0126346
0.0126442
0.0126493
0.0126578
0.0126621
0.0126695
0.012673
0.0126793
0.012682
0.0126872
0.0126891
0.0126933
0.0126945
0.0126979
0.0126985
0.0127011
0.0127013
0.0127033
0.0127031
0.0127046
0.0127042
0.0127055
0.012705
0.012706
0.0127055
0.0127064
0.0127059
0.0127068
0.0127063
0.0127072
0.0127068
0.0127075
0.0127072
0.0127079
0.0127076
0.0127083
0.012708
0.0127087
0.0127084
0.0127091
0.0127089
0.0127095
0.0127093
0.0127099
0.0127097
0.0127103
0.0127101
0.0127107
0.0127106
0.0127111
0.012711
0.0127115
0.0127114
0.0127118
0.0127118
0.0127122
0.0127121
0.0127125
0.0127124
0.0127128
0.0127127
0.0127131
0.0127131
0.0127083
0.01175
0.0122951
0.0123355
0.0123654
0.0123729
0.0123956
0.0124034
0.012424
0.0124314
0.0124496
0.0124565
0.0124732
0.0124803
0.0124961
0.0125032
0.0125178
0.0125245
0.0125382
0.0125448
0.0125578
0.0125642
0.0125763
0.0125823
0.0125936
0.0125992
0.0126097
0.0126148
0.0126244
0.012629
0.0126375
0.0126414
0.012649
0.0126522
0.0126588
0.0126613
0.0126668
0.0126686
0.0126731
0.0126743
0.0126779
0.0126786
0.0126815
0.0126817
0.0126839
0.0126838
0.0126855
0.0126852
0.0126866
0.0126861
0.0126873
0.0126867
0.0126878
0.0126873
0.0126883
0.0126878
0.0126888
0.0126883
0.0126892
0.0126889
0.0126897
0.0126894
0.0126902
0.0126899
0.0126907
0.0126905
0.0126912
0.012691
0.0126917
0.0126916
0.0126923
0.0126921
0.0126928
0.0126927
0.0126933
0.0126932
0.0126938
0.0126937
0.0126943
0.0126943
0.0126948
0.0126948
0.0126953
0.0126952
0.0126957
0.0126957
0.0126961
0.012696
0.0126964
0.0126967
0.0126915
0.011767
0.0123415
0.0123824
0.0124094
0.0124129
0.0124317
0.0124365
0.0124542
0.0124593
0.0124752
0.0124801
0.0124949
0.0125004
0.0125148
0.0125205
0.012534
0.0125394
0.012552
0.0125575
0.0125696
0.0125751
0.0125865
0.0125916
0.0126022
0.012607
0.012617
0.0126215
0.0126307
0.0126348
0.012643
0.0126465
0.0126539
0.0126568
0.0126633
0.0126656
0.0126711
0.0126728
0.0126773
0.0126785
0.0126821
0.0126828
0.0126858
0.012686
0.0126884
0.0126883
0.0126901
0.0126898
0.0126912
0.0126908
0.012692
0.0126915
0.0126926
0.0126921
0.0126932
0.0126927
0.0126937
0.0126933
0.0126943
0.0126939
0.0126948
0.0126945
0.0126954
0.0126951
0.0126959
0.0126957
0.0126965
0.0126963
0.0126971
0.0126969
0.0126977
0.0126975
0.0126982
0.0126981
0.0126988
0.0126988
0.0126994
0.0126994
0.0127
0.0127
0.0127005
0.0127005
0.0127011
0.0127011
0.0127016
0.0127016
0.012702
0.0127021
0.0127024
0.012703
0.0126974
0.0117673
0.0123396
0.0123768
0.0123997
0.0123997
0.0124146
0.0124166
0.0124312
0.0124341
0.0124476
0.0124507
0.0124634
0.0124674
0.01248
0.0124844
0.0124963
0.0125006
0.0125118
0.0125162
0.0125271
0.0125315
0.0125418
0.012546
0.0125556
0.0125596
0.0125686
0.0125725
0.0125808
0.0125843
0.0125918
0.0125949
0.0126017
0.0126042
0.0126102
0.0126123
0.0126174
0.0126189
0.0126232
0.0126242
0.0126277
0.0126283
0.0126312
0.0126314
0.0126336
0.0126335
0.0126353
0.012635
0.0126365
0.012636
0.0126373
0.0126367
0.0126379
0.0126374
0.0126384
0.0126379
0.012639
0.0126385
0.0126395
0.0126391
0.01264
0.0126397
0.0126406
0.0126403
0.0126412
0.0126409
0.0126417
0.0126415
0.0126423
0.0126422
0.0126429
0.0126428
0.0126435
0.0126434
0.0126441
0.012644
0.0126447
0.0126446
0.0126452
0.0126452
0.0126458
0.0126458
0.0126463
0.0126464
0.0126469
0.0126469
0.0126473
0.0126474
0.0126477
0.0126483
0.0126428
0.0117505
0.0122873
0.0123154
0.0123325
0.0123291
0.0123407
0.0123402
0.012352
0.0123529
0.0123639
0.0123654
0.0123761
0.0123786
0.0123893
0.0123923
0.0124025
0.0124055
0.0124151
0.0124184
0.0124277
0.0124311
0.0124399
0.0124431
0.0124514
0.0124545
0.0124623
0.0124653
0.0124725
0.0124752
0.0124818
0.0124842
0.0124901
0.0124922
0.0124974
0.012499
0.0125036
0.0125047
0.0125085
0.0125092
0.0125124
0.0125128
0.0125154
0.0125155
0.0125176
0.0125174
0.0125191
0.0125187
0.0125201
0.0125196
0.0125208
0.0125202
0.0125213
0.0125208
0.0125218
0.0125213
0.0125223
0.0125219
0.0125228
0.0125224
0.0125232
0.0125229
0.0125237
0.0125235
0.0125243
0.012524
0.0125248
0.0125246
0.0125253
0.0125251
0.0125258
0.0125257
0.0125264
0.0125262
0.0125269
0.0125268
0.0125274
0.0125273
0.0125279
0.0125279
0.0125284
0.0125284
0.0125289
0.0125289
0.0125293
0.0125293
0.0125297
0.0125297
0.01253
0.0125306
0.0125256
0.0117821
0.0122557
0.0122717
0.0122827
0.0122771
0.0122856
0.0122833
0.0122924
0.0122918
0.0123004
0.0123006
0.0123091
0.0123103
0.0123189
0.0123206
0.0123287
0.0123306
0.0123383
0.0123404
0.0123479
0.0123502
0.0123572
0.0123594
0.012366
0.0123682
0.0123745
0.0123766
0.0123824
0.0123843
0.0123896
0.0123912
0.012396
0.0123974
0.0124017
0.0124028
0.0124065
0.0124072
0.0124103
0.0124108
0.0124134
0.0124136
0.0124157
0.0124157
0.0124174
0.0124171
0.0124186
0.0124181
0.0124193
0.0124188
0.0124199
0.0124193
0.0124203
0.0124198
0.0124207
0.0124202
0.012421
0.0124206
0.0124214
0.0124211
0.0124218
0.0124215
0.0124222
0.0124219
0.0124226
0.0124224
0.012423
0.0124228
0.0124234
0.0124232
0.0124238
0.0124237
0.0124243
0.0124241
0.0124247
0.0124246
0.0124251
0.012425
0.0124255
0.0124254
0.0124259
0.0124258
0.0124262
0.0124262
0.0124266
0.0124265
0.0124269
0.0124269
0.0124271
0.0124274
0.0124229
0.0122225
0.012579
0.0125821
0.0125885
0.0125823
0.0125885
0.0125854
0.0125921
0.0125905
0.0125968
0.0125961
0.0126023
0.0126025
0.0126086
0.0126092
0.012615
0.0126158
0.0126213
0.0126223
0.0126277
0.0126288
0.0126338
0.012635
0.0126397
0.0126409
0.0126453
0.0126464
0.0126505
0.0126516
0.0126553
0.0126562
0.0126596
0.0126604
0.0126634
0.012664
0.0126666
0.0126669
0.0126691
0.0126693
0.0126711
0.0126711
0.0126727
0.0126725
0.0126738
0.0126735
0.0126746
0.0126741
0.012675
0.0126746
0.0126754
0.0126749
0.0126757
0.0126752
0.0126759
0.0126755
0.0126762
0.0126758
0.0126764
0.0126761
0.0126767
0.0126764
0.0126769
0.0126767
0.0126772
0.0126769
0.0126774
0.0126772
0.0126777
0.0126775
0.012678
0.0126778
0.0126783
0.0126781
0.0126785
0.0126784
0.0126788
0.0126787
0.012679
0.0126789
0.0126793
0.0126792
0.0126795
0.0126794
0.0126797
0.0126796
0.0126798
0.0126797
0.0126799
0.0126795
0.012676
0.0151802
0.0153867
0.0153855
0.015389
0.0153849
0.0153888
0.0153869
0.015391
0.0153901
0.015394
0.0153936
0.0153975
0.0153977
0.0154014
0.015402
0.0154054
0.015406
0.0154093
0.0154101
0.0154133
0.0154141
0.0154171
0.0154179
0.0154206
0.0154215
0.0154241
0.0154249
0.0154273
0.015428
0.0154302
0.0154308
0.0154328
0.0154333
0.0154351
0.0154355
0.015437
0.0154373
0.0154385
0.0154387
0.0154398
0.0154398
0.0154407
0.0154406
0.0154413
0.0154411
0.0154417
0.0154415
0.015442
0.0154417
0.0154422
0.0154419
0.0154423
0.015442
0.0154424
0.0154422
0.0154425
0.0154423
0.0154426
0.0154424
0.0154427
0.0154426
0.0154429
0.0154427
0.015443
0.0154428
0.0154431
0.0154429
0.0154432
0.0154431
0.0154433
0.0154432
0.0154434
0.0154433
0.0154435
0.0154434
0.0154436
0.0154435
0.0154437
0.0154436
0.0154438
0.0154437
0.0154438
0.0154437
0.0154439
0.0154438
0.0154439
0.0154437
0.0154439
0.0154414
0.0154403
0.0264633
0.0265211
0.026523
0.0265257
0.0265245
0.0265274
0.0265277
0.0265309
0.0265318
0.0265349
0.0265361
0.0265391
0.0265408
0.0265439
0.0265457
0.0265485
0.0265503
0.026553
0.0265548
0.0265574
0.0265592
0.0265616
0.0265633
0.0265656
0.0265672
0.0265693
0.0265709
0.0265728
0.0265742
0.026576
0.0265772
0.0265788
0.0265799
0.0265813
0.0265822
0.0265833
0.026584
0.026585
0.0265855
0.0265862
0.0265866
0.0265872
0.0265874
0.0265878
0.0265879
0.0265882
0.0265882
0.0265884
0.0265884
0.0265886
0.0265885
0.0265886
0.0265885
0.0265886
0.0265886
0.0265887
0.0265886
0.0265887
0.0265886
0.0265887
0.0265886
0.0265887
0.0265887
0.0265887
0.0265887
0.0265888
0.0265887
0.0265888
0.0265887
0.0265888
0.0265887
0.0265888
0.0265887
0.0265888
0.0265887
0.0265888
0.0265887
0.0265888
0.0265887
0.0265888
0.0265887
0.0265888
0.0265887
0.0265887
0.0265886
0.0265886
0.0265885
0.0265885
0.0265859
0.0265846
0.0121811
0.0123331
0.0123769
0.0124098
0.0124377
0.012463
0.0124848
0.0125059
0.012524
0.0125424
0.0125583
0.0125751
0.0125894
0.0126048
0.0126178
0.012632
0.012644
0.0126573
0.0126685
0.0126809
0.0126912
0.0127026
0.0127121
0.0127225
0.0127311
0.0127405
0.0127481
0.0127564
0.0127629
0.01277
0.0127755
0.0127815
0.0127858
0.0127906
0.0127939
0.0127977
0.0128001
0.0128029
0.0128045
0.0128065
0.0128074
0.0128089
0.0128093
0.0128103
0.0128103
0.012811
0.0128109
0.0128113
0.0128112
0.0128115
0.0128113
0.0128116
0.0128114
0.0128117
0.0128115
0.0128117
0.0128116
0.0128118
0.0128116
0.0128119
0.0128117
0.012812
0.0128118
0.012812
0.0128119
0.0128121
0.012812
0.0128122
0.0128121
0.0128122
0.0128122
0.0128123
0.0128122
0.0128124
0.0128123
0.0128125
0.0128124
0.0128126
0.0128125
0.0128127
0.0128127
0.0128128
0.0128128
0.012813
0.012813
0.0128132
0.0128132
0.0128136
0.0128129
0.012813
0.0117442
0.0120166
0.0120613
0.0120947
0.0121215
0.012147
0.0121684
0.0121894
0.0122073
0.0122255
0.0122412
0.0122577
0.012272
0.0122871
0.0123001
0.0123139
0.0123259
0.0123388
0.01235
0.012362
0.0123723
0.0123834
0.0123928
0.012403
0.0124116
0.0124207
0.0124283
0.0124363
0.0124429
0.0124498
0.0124553
0.0124611
0.0124656
0.0124703
0.0124736
0.0124773
0.0124798
0.0124825
0.0124842
0.0124862
0.0124872
0.0124885
0.0124891
0.01249
0.0124901
0.0124907
0.0124907
0.0124911
0.012491
0.0124912
0.0124911
0.0124913
0.0124912
0.0124914
0.0124912
0.0124914
0.0124913
0.0124915
0.0124914
0.0124915
0.0124914
0.0124916
0.0124915
0.0124917
0.0124916
0.0124917
0.0124916
0.0124918
0.0124917
0.0124919
0.0124918
0.0124919
0.0124919
0.012492
0.012492
0.0124921
0.012492
0.0124922
0.0124921
0.0124923
0.0124922
0.0124924
0.0124923
0.0124925
0.0124924
0.0124926
0.0124925
0.0124928
0.0124925
0.0124928
0.0112748
0.0116659
0.0117155
0.0117464
0.0117714
0.0117949
0.0118152
0.0118349
0.0118521
0.011869
0.0118842
0.0118995
0.0119134
0.0119276
0.0119403
0.0119532
0.011965
0.0119771
0.0119881
0.0119994
0.0120096
0.01202
0.0120294
0.0120389
0.0120475
0.0120562
0.0120639
0.0120716
0.0120783
0.0120849
0.0120906
0.0120962
0.0121009
0.0121055
0.0121092
0.0121128
0.0121155
0.0121182
0.0121202
0.0121221
0.0121234
0.0121248
0.0121255
0.0121264
0.0121268
0.0121273
0.0121274
0.0121277
0.0121277
0.0121279
0.0121278
0.012128
0.0121279
0.012128
0.012128
0.0121281
0.012128
0.0121281
0.0121281
0.0121282
0.0121281
0.0121282
0.0121282
0.0121283
0.0121282
0.0121283
0.0121283
0.0121284
0.0121283
0.0121284
0.0121284
0.0121285
0.0121285
0.0121286