/*--------------------------------*- C++ -*----------------------------------*\
  =========                 |
  \\      /  F ield         | OpenFOAM: The Open Source CFD Toolbox
   \\    /   O peration     | Website:  https://openfoam.org
    \\  /    A nd           | Version:  7
     \\/     M anipulation  |
\*---------------------------------------------------------------------------*/
FoamFile
{
    version     2.0;
    format      ascii;
    class       volScalarField;
    location    "0.0925";
    object      rho_0;
}
// * * * * * * * * * * * * * * * * * * * * * * * * * * * * * * * * * * * * * //

dimensions      [1 -3 0 0 0 0 0];

internalField   nonuniform List<scalar> 
1440
(
1.19542
1.18707
1.17868
1.17022
1.16161
1.15281
1.1438
1.13455
1.12509
1.11542
1.10555
1.09549
1.08526
1.07489
1.06441
1.05384
1.04324
1.03262
1.02203
1.01149
1.00105
0.99072
0.980541
0.970529
0.960705
0.951083
0.941674
0.932487
0.923529
0.914802
0.906307
0.898042
0.890004
0.882188
0.874588
0.867197
0.860009
0.853015
0.846207
0.839579
0.833121
0.826828
0.820692
0.814703
0.808853
0.803136
0.797545
0.792073
0.786715
0.781465
0.776319
0.771272
0.766319
0.761456
0.756679
0.751985
0.747371
0.742833
0.738368
0.733974
0.729648
0.725387
0.72119
0.717054
0.712977
0.708957
0.704992
0.701082
0.697225
0.693418
0.68966
0.68595
0.682286
0.678668
0.675095
0.671565
0.668078
0.664632
0.661224
0.657855
0.654523
0.65123
0.647973
0.644753
0.641567
0.638414
0.635291
0.632199
0.629135
0.626101
0.623098
0.620124
0.617179
0.61426
0.611365
0.608491
0.605634
0.602793
0.599967
0.597156
0.594364
0.591593
0.588851
0.586138
0.583467
0.58083
0.578249
0.575699
0.573219
0.570753
0.568385
0.565987
0.563748
0.561383
0.559322
0.556906
0.555152
0.55248
0.551365
0.547897
1.19971
1.20036
1.20075
1.20081
1.20048
1.19972
1.19855
1.19696
1.195
1.19269
1.19007
1.18718
1.18405
1.1807
1.17716
1.17348
1.16965
1.16572
1.16169
1.15758
1.15341
1.14919
1.14493
1.14063
1.13631
1.13198
1.12762
1.12326
1.11888
1.11451
1.11012
1.10574
1.10136
1.09697
1.09259
1.0882
1.08382
1.07944
1.07506
1.07068
1.0663
1.06193
1.05757
1.05321
1.04885
1.0445
1.04016
1.03582
1.03148
1.02716
1.02284
1.01853
1.01423
1.00994
1.00566
1.0014
0.99715
0.992915
0.988696
0.984493
0.980307
0.976139
0.97199
0.96786
0.96375
0.95966
0.955592
0.951545
0.94752
0.943517
0.939537
0.935581
0.931648
0.927739
0.923854
0.919994
0.916157
0.912346
0.908559
0.904797
0.90106
0.897348
0.89366
0.889997
0.886359
0.882745
0.879156
0.875591
0.872049
0.868531
0.865037
0.861565
0.858117
0.854691
0.851287
0.847905
0.844544
0.841203
0.837883
0.834579
0.831297
0.828027
0.824783
0.821542
0.818335
0.815119
0.811955
0.808755
0.805648
0.802448
0.799424
0.796191
0.793303
0.789969
0.787325
0.783745
0.781564
0.777439
0.776167
0.770873
1.19944
1.19945
1.19946
1.1995
1.19954
1.1996
1.19966
1.19969
1.1997
1.19967
1.19958
1.19943
1.19922
1.19893
1.19858
1.19816
1.19768
1.19713
1.19653
1.19587
1.19516
1.1944
1.1936
1.19276
1.19189
1.19098
1.19003
1.18906
1.18805
1.18701
1.18595
1.18486
1.18375
1.18261
1.18144
1.18024
1.17903
1.17778
1.17651
1.17522
1.1739
1.17256
1.17119
1.1698
1.16838
1.16694
1.16547
1.16398
1.16246
1.16092
1.15935
1.15775
1.15614
1.1545
1.15283
1.15114
1.14943
1.14769
1.14594
1.14416
1.14236
1.14053
1.13869
1.13682
1.13494
1.13304
1.13111
1.12917
1.12721
1.12524
1.12324
1.12123
1.1192
1.11716
1.1151
1.11303
1.11094
1.10884
1.10673
1.1046
1.10246
1.10031
1.09815
1.09598
1.09379
1.0916
1.08939
1.08718
1.08495
1.08272
1.08048
1.07823
1.07597
1.0737
1.07143
1.06915
1.06686
1.06457
1.06227
1.05996
1.05765
1.05532
1.053
1.05066
1.04833
1.04597
1.04364
1.04124
1.03892
1.03646
1.03418
1.03164
1.02944
1.02674
1.02471
1.02174
1.02007
1.01656
1.01561
1.01109
1.19944
1.19944
1.19943
1.19943
1.19942
1.19942
1.19941
1.19941
1.19941
1.19941
1.19942
1.19942
1.19943
1.19943
1.19943
1.19943
1.19943
1.19942
1.1994
1.19938
1.19936
1.19932
1.19928
1.19923
1.19918
1.19912
1.19905
1.19898
1.1989
1.19881
1.19871
1.19861
1.1985
1.19839
1.19826
1.19813
1.198
1.19785
1.1977
1.19754
1.19737
1.1972
1.19702
1.19683
1.19664
1.19643
1.19622
1.196
1.19577
1.19553
1.19529
1.19503
1.19477
1.1945
1.19422
1.19393
1.19363
1.19332
1.193
1.19267
1.19233
1.19199
1.19163
1.19126
1.19089
1.1905
1.1901
1.1897
1.18928
1.18886
1.18842
1.18797
1.18751
1.18705
1.18657
1.18608
1.18558
1.18507
1.18455
1.18402
1.18348
1.18293
1.18237
1.1818
1.18122
1.18063
1.18002
1.17941
1.17879
1.17815
1.17751
1.17685
1.17619
1.17551
1.17483
1.17413
1.17342
1.1727
1.17198
1.17124
1.17049
1.16973
1.16896
1.16817
1.16739
1.16657
1.16577
1.16493
1.16411
1.16323
1.16241
1.16147
1.16067
1.15965
1.15891
1.15775
1.15713
1.15574
1.15539
1.15358
1.19943
1.19943
1.19943
1.19943
1.19942
1.19941
1.19941
1.1994
1.19939
1.19938
1.19937
1.19937
1.19936
1.19935
1.19934
1.19933
1.19933
1.19932
1.19932
1.19931
1.19931
1.1993
1.1993
1.1993
1.19929
1.19929
1.19929
1.19929
1.19928
1.19928
1.19928
1.19927
1.19927
1.19927
1.19926
1.19926
1.19925
1.19925
1.19924
1.19924
1.19923
1.19922
1.19922
1.19921
1.1992
1.19919
1.19918
1.19917
1.19916
1.19915
1.19913
1.19912
1.19911
1.19909
1.19907
1.19906
1.19904
1.19902
1.199
1.19898
1.19895
1.19893
1.1989
1.19888
1.19885
1.19882
1.19879
1.19876
1.19872
1.19869
1.19865
1.19862
1.19858
1.19853
1.19849
1.19845
1.1984
1.19835
1.1983
1.19825
1.1982
1.19814
1.19809
1.19803
1.19797
1.1979
1.19784
1.19777
1.1977
1.19763
1.19755
1.19748
1.1974
1.19732
1.19723
1.19715
1.19706
1.19697
1.19687
1.19678
1.19668
1.19658
1.19647
1.19636
1.19626
1.19614
1.19603
1.1959
1.19578
1.19565
1.19553
1.19538
1.19526
1.1951
1.19498
1.19479
1.1947
1.19446
1.19441
1.1941
1.19943
1.19943
1.19943
1.19942
1.19942
1.19941
1.19941
1.1994
1.19939
1.19938
1.19937
1.19936
1.19936
1.19935
1.19934
1.19933
1.19932
1.19931
1.1993
1.1993
1.19929
1.19928
1.19928
1.19927
1.19926
1.19926
1.19925
1.19925
1.19924
1.19924
1.19924
1.19923
1.19923
1.19922
1.19922
1.19922
1.19921
1.19921
1.19921
1.1992
1.1992
1.1992
1.1992
1.19919
1.19919
1.19919
1.19919
1.19918
1.19918
1.19918
1.19918
1.19917
1.19917
1.19917
1.19917
1.19917
1.19916
1.19916
1.19916
1.19916
1.19915
1.19915
1.19915
1.19915
1.19915
1.19914
1.19914
1.19914
1.19914
1.19913
1.19913
1.19913
1.19913
1.19913
1.19912
1.19912
1.19912
1.19912
1.19911
1.19911
1.19911
1.19911
1.1991
1.1991
1.1991
1.19909
1.19909
1.19909
1.19908
1.19908
1.19907
1.19907
1.19907
1.19906
1.19906
1.19905
1.19905
1.19904
1.19904
1.19904
1.19903
1.19903
1.19902
1.19901
1.19901
1.199
1.199
1.19899
1.19898
1.19898
1.19897
1.19896
1.19895
1.19894
1.19894
1.19892
1.19892
1.1989
1.1989
1.19888
1.19943
1.19943
1.19943
1.19942
1.19942
1.19941
1.19941
1.1994
1.19939
1.19938
1.19937
1.19936
1.19936
1.19935
1.19934
1.19933
1.19932
1.19931
1.1993
1.1993
1.19929
1.19928
1.19928
1.19927
1.19926
1.19926
1.19925
1.19925
1.19924
1.19924
1.19923
1.19923
1.19923
1.19922
1.19922
1.19921
1.19921
1.19921
1.1992
1.1992
1.1992
1.19919
1.19919
1.19919
1.19918
1.19918
1.19918
1.19917
1.19917
1.19917
1.19917
1.19916
1.19916
1.19916
1.19915
1.19915
1.19915
1.19915
1.19914
1.19914
1.19914
1.19914
1.19913
1.19913
1.19913
1.19913
1.19912
1.19912
1.19912
1.19912
1.19911
1.19911
1.19911
1.19911
1.1991
1.1991
1.1991
1.1991
1.1991
1.19909
1.19909
1.19909
1.19909
1.19908
1.19908
1.19908
1.19908
1.19908
1.19907
1.19907
1.19907
1.19907
1.19906
1.19906
1.19906
1.19906
1.19906
1.19905
1.19905
1.19905
1.19905
1.19905
1.19904
1.19904
1.19904
1.19904
1.19904
1.19904
1.19903
1.19903
1.19903
1.19903
1.19902
1.19902
1.19902
1.19902
1.19901
1.19901
1.19901
1.19901
1.19943
1.19943
1.19943
1.19943
1.19942
1.19941
1.19941
1.1994
1.19939
1.19938
1.19937
1.19936
1.19936
1.19935
1.19934
1.19933
1.19932
1.19931
1.1993
1.1993
1.19929
1.19928
1.19928
1.19927
1.19926
1.19926
1.19925
1.19925
1.19924
1.19924
1.19923
1.19923
1.19923
1.19922
1.19922
1.19921
1.19921
1.19921
1.1992
1.1992
1.1992
1.19919
1.19919
1.19919
1.19918
1.19918
1.19918
1.19918
1.19917
1.19917
1.19917
1.19916
1.19916
1.19916
1.19916
1.19915
1.19915
1.19915
1.19914
1.19914
1.19914
1.19914
1.19913
1.19913
1.19913
1.19913
1.19912
1.19912
1.19912
1.19912
1.19911
1.19911
1.19911
1.19911
1.1991
1.1991
1.1991
1.1991
1.19909
1.19909
1.19909
1.19909
1.19909
1.19908
1.19908
1.19908
1.19908
1.19907
1.19907
1.19907
1.19907
1.19906
1.19906
1.19906
1.19906
1.19905
1.19905
1.19905
1.19905
1.19904
1.19904
1.19904
1.19904
1.19904
1.19903
1.19903
1.19903
1.19903
1.19903
1.19902
1.19902
1.19902
1.19902
1.19901
1.19901
1.19901
1.199
1.199
1.199
1.19899
1.19944
1.19944
1.19943
1.19943
1.19942
1.19942
1.19941
1.1994
1.19939
1.19938
1.19938
1.19937
1.19936
1.19935
1.19934
1.19933
1.19932
1.19931
1.19931
1.1993
1.19929
1.19928
1.19928
1.19927
1.19927
1.19926
1.19925
1.19925
1.19924
1.19924
1.19924
1.19923
1.19923
1.19922
1.19922
1.19921
1.19921
1.19921
1.1992
1.1992
1.1992
1.19919
1.19919
1.19919
1.19918
1.19918
1.19918
1.19917
1.19917
1.19917
1.19916
1.19916
1.19916
1.19915
1.19915
1.19915
1.19914
1.19914
1.19914
1.19913
1.19913
1.19913
1.19912
1.19912
1.19912
1.19911
1.19911
1.19911
1.1991
1.1991
1.1991
1.1991
1.19909
1.19909
1.19909
1.19908
1.19908
1.19908
1.19908
1.19907
1.19907
1.19907
1.19906
1.19906
1.19906
1.19905
1.19905
1.19905
1.19904
1.19904
1.19904
1.19904
1.19903
1.19903
1.19903
1.19902
1.19902
1.19902
1.19901
1.19901
1.19901
1.19901
1.199
1.199
1.199
1.19899
1.19899
1.19899
1.19899
1.19898
1.19898
1.19898
1.19897
1.19897
1.19896
1.19896
1.19896
1.19895
1.19895
1.19895
1.19944
1.19944
1.19944
1.19943
1.19943
1.19942
1.19941
1.19941
1.1994
1.19939
1.19938
1.19937
1.19936
1.19935
1.19934
1.19933
1.19932
1.19931
1.1993
1.19929
1.19928
1.19928
1.19927
1.19926
1.19925
1.19925
1.19924
1.19923
1.19923
1.19922
1.19921
1.19921
1.1992
1.1992
1.19919
1.19918
1.19918
1.19917
1.19917
1.19916
1.19916
1.19915
1.19915
1.19914
1.19914
1.19913
1.19913
1.19913
1.19912
1.19912
1.19911
1.19911
1.1991
1.1991
1.19909
1.19909
1.19909
1.19908
1.19908
1.19907
1.19907
1.19906
1.19906
1.19906
1.19905
1.19905
1.19904
1.19904
1.19904
1.19903
1.19903
1.19902
1.19902
1.19902
1.19901
1.19901
1.199
1.199
1.199
1.19899
1.19899
1.19899
1.19898
1.19898
1.19898
1.19897
1.19897
1.19896
1.19896
1.19896
1.19895
1.19895
1.19895
1.19894
1.19894
1.19894
1.19893
1.19893
1.19893
1.19892
1.19892
1.19892
1.19891
1.19891
1.19891
1.1989
1.1989
1.1989
1.19889
1.19889
1.19889
1.19888
1.19888
1.19888
1.19887
1.19887
1.19887
1.19886
1.19886
1.19886
1.19945
1.19945
1.19945
1.19944
1.19944
1.19943
1.19942
1.1994
1.19939
1.19938
1.19936
1.19935
1.19933
1.19932
1.1993
1.19929
1.19927
1.19926
1.19924
1.19923
1.19922
1.19921
1.1992
1.19919
1.19918
1.19917
1.19916
1.19916
1.19915
1.19914
1.19913
1.19913
1.19912
1.19912
1.19911
1.1991
1.1991
1.19909
1.19909
1.19908
1.19908
1.19908
1.19907
1.19907
1.19906
1.19906
1.19905
1.19905
1.19905
1.19904
1.19904
1.19903
1.19903
1.19903
1.19902
1.19902
1.19902
1.19901
1.19901
1.19901
1.199
1.199
1.199
1.19899
1.19899
1.19899
1.19898
1.19898
1.19898
1.19897
1.19897
1.19897
1.19896
1.19896
1.19896
1.19895
1.19895
1.19895
1.19894
1.19894
1.19894
1.19894
1.19893
1.19893
1.19893
1.19892
1.19892
1.19892
1.19891
1.19891
1.19891
1.1989
1.1989
1.1989
1.1989
1.19889
1.19889
1.19889
1.19888
1.19888
1.19888
1.19888
1.19887
1.19887
1.19887
1.19886
1.19886
1.19886
1.19886
1.19885
1.19885
1.19885
1.19885
1.19884
1.19884
1.19884
1.19883
1.19883
1.19883
1.19883
1.19946
1.19946
1.19944
1.19943
1.19941
1.19938
1.19936
1.19934
1.19932
1.1993
1.19928
1.19927
1.19925
1.19924
1.19923
1.19922
1.19921
1.1992
1.1992
1.19919
1.19918
1.19918
1.19917
1.19917
1.19916
1.19916
1.19915
1.19915
1.19915
1.19914
1.19914
1.19913
1.19913
1.19912
1.19912
1.19911
1.19911
1.19911
1.1991
1.1991
1.19909
1.19909
1.19908
1.19908
1.19908
1.19907
1.19907
1.19906
1.19906
1.19905
1.19905
1.19905
1.19904
1.19904
1.19903
1.19903
1.19903
1.19902
1.19902
1.19901
1.19901
1.19901
1.199
1.199
1.199
1.19899
1.19899
1.19899
1.19898
1.19898
1.19897
1.19897
1.19897
1.19896
1.19896
1.19896
1.19895
1.19895
1.19895
1.19894
1.19894
1.19894
1.19893
1.19893
1.19893
1.19892
1.19892
1.19892
1.19891
1.19891
1.19891
1.1989
1.1989
1.1989
1.19889
1.19889
1.19889
1.19888
1.19888
1.19888
1.19888
1.19887
1.19887
1.19887
1.19886
1.19886
1.19886
1.19886
1.19885
1.19885
1.19885
1.19884
1.19884
1.19884
1.19884
1.19883
1.19883
1.19883
1.19882
1.19882
)
;

boundaryField
{
    upperWall
    {
        type            calculated;
        value           nonuniform List<scalar> 
120
(
1.19947
1.19946
1.19945
1.19944
1.19943
1.19942
1.19941
1.19939
1.19938
1.19936
1.19935
1.19933
1.19932
1.19931
1.19929
1.19928
1.19927
1.19926
1.19924
1.19923
1.19922
1.19921
1.19921
1.1992
1.19919
1.19918
1.19917
1.19917
1.19916
1.19915
1.19915
1.19914
1.19914
1.19913
1.19913
1.19912
1.19912
1.19911
1.19911
1.1991
1.1991
1.19909
1.19909
1.19908
1.19908
1.19907
1.19907
1.19907
1.19906
1.19906
1.19905
1.19905
1.19904
1.19904
1.19904
1.19903
1.19903
1.19902
1.19902
1.19902
1.19901
1.19901
1.199
1.199
1.199
1.19899
1.19899
1.19899
1.19898
1.19898
1.19898
1.19897
1.19897
1.19896
1.19896
1.19896
1.19895
1.19895
1.19895
1.19894
1.19894
1.19894
1.19893
1.19893
1.19893
1.19892
1.19892
1.19892
1.19891
1.19891
1.19891
1.1989
1.1989
1.1989
1.19889
1.19889
1.19889
1.19888
1.19888
1.19888
1.19887
1.19887
1.19887
1.19886
1.19886
1.19886
1.19885
1.19885
1.19885
1.19884
1.19884
1.19884
1.19884
1.19883
1.19883
1.19883
1.19882
1.19882
1.19882
1.19881
)
;
    }
    lowerWall
    {
        type            calculated;
        value           nonuniform List<scalar> 
120
(
0.630909
0.833586
0.925784
0.967234
0.986751
0.995073
0.996805
0.99453
0.989445
0.982684
0.974335
0.965243
0.95558
0.945291
0.934693
0.923906
0.913027
0.902133
0.891292
0.880556
0.869971
0.859574
0.849394
0.839451
0.829763
0.820341
0.811192
0.802317
0.793716
0.785389
0.77733
0.769534
0.761992
0.754696
0.747635
0.740801
0.734182
0.727768
0.721548
0.715514
0.709655
0.703964
0.698433
0.693052
0.687811
0.682703
0.677719
0.672852
0.668096
0.663446
0.658897
0.654442
0.650079
0.645802
0.641607
0.637492
0.633452
0.629484
0.625586
0.621755
0.617988
0.614284
0.610638
0.60705
0.603517
0.600039
0.596612
0.593235
0.589908
0.586628
0.583394
0.580204
0.577057
0.573952
0.570889
0.567867
0.564883
0.561937
0.559027
0.556153
0.553313
0.550507
0.547736
0.544998
0.542292
0.539615
0.536967
0.534346
0.531752
0.529185
0.526645
0.524132
0.521645
0.519183
0.516742
0.514319
0.511913
0.509522
0.507144
0.504781
0.502435
0.500108
0.497807
0.49553
0.49329
0.491079
0.488915
0.486777
0.484699
0.482631
0.480648
0.478637
0.476762
0.474779
0.473052
0.471028
0.469555
0.467321
0.466383
0.46349
)
;
    }
    inlet
    {
        type            calculated;
        value           nonuniform List<scalar> 
12
(
1.19947
1.19945
1.19945
1.19944
1.19943
1.19943
1.19943
1.19943
1.19944
1.19944
1.19945
1.19947
)
;
    }
    outlet
    {
        type            calculated;
        value           nonuniform List<scalar> 
12
(
0.547897
0.770872
1.01109
1.15358
1.1941
1.19888
1.199
1.19899
1.19895
1.19886
1.19883
1.19882
)
;
    }
    frontAndBack
    {
        type            empty;
    }
}


// ************************************************************************* //
