/*--------------------------------*- C++ -*----------------------------------*\
  =========                 |
  \\      /  F ield         | OpenFOAM: The Open Source CFD Toolbox
   \\    /   O peration     | Website:  https://openfoam.org
    \\  /    A nd           | Version:  7
     \\/     M anipulation  |
\*---------------------------------------------------------------------------*/
FoamFile
{
    version     2.0;
    format      ascii;
    class       volSymmTensorField;
    location    "1.7275";
    object      UPrime2Mean;
}
// * * * * * * * * * * * * * * * * * * * * * * * * * * * * * * * * * * * * * //

dimensions      [0 2 -2 0 0 0 0];

internalField   nonuniform List<symmTensor> 
7920
(
(0.0136509 -0.00110633 -0.00142224 0.000151781 0.000169746 0.000388549)
(0.0585754 0.00792566 -0.00441159 0.00138217 -0.000558389 0.00163615)
(0.0892269 0.0142952 -0.00676887 0.00299185 -0.000945571 0.00372131)
(0.119067 0.0185965 -0.00828998 0.00375775 -0.000968909 0.00526437)
(0.124669 0.0188393 -0.00995007 0.00402363 -0.00107008 0.00589138)
(0.140513 0.0199584 -0.0108297 0.00410695 -0.00101603 0.00537633)
(0.139948 0.0192248 -0.0117827 0.00416457 -0.00110303 0.00458422)
(0.150925 0.0197469 -0.011919 0.00417286 -0.00106441 0.00366401)
(0.149137 0.0189588 -0.0122553 0.00419961 -0.00112834 0.00310655)
(0.157659 0.0192437 -0.0120919 0.00420116 -0.00108277 0.00270347)
(0.155805 0.0184924 -0.0122522 0.00421619 -0.00111644 0.00255365)
(0.162679 0.0185924 -0.0120931 0.00421425 -0.00107005 0.00241828)
(0.161098 0.0178974 -0.0121558 0.00422133 -0.00108566 0.00238303)
(0.166724 0.0178616 -0.0120826 0.0042193 -0.00104896 0.00236342)
(0.165564 0.0172268 -0.011991 0.00421936 -0.00104107 0.00236287)
(0.170236 0.0170936 -0.0121717 0.00422608 -0.00102806 0.00247052)
(0.169411 0.016402 -0.011748 0.00418244 -0.000962308 0.00241192)
(0.173987 0.0163366 -0.0125617 0.0042697 -0.00103181 0.00268114)
(0.171119 0.0138733 -0.011166 0.00362396 -0.000712167 0.00244382)
(0.188405 0.0191486 -0.013085 0.00456723 -0.00122049 0.00276648)
(0.00414122 0.000528629 0.000173904 0.00691785 0.00106938 0.000302071)
(0.00835936 -0.00419905 -0.000726268 0.00775331 0.00158938 0.00114908)
(0.0248264 -0.00768093 -0.00227608 0.00669053 0.0017826 0.0026652)
(0.0486254 -0.0106754 -0.00446632 0.0054136 0.00157696 0.00416731)
(0.0727698 -0.0107158 -0.0068453 0.00482776 0.00146762 0.00533622)
(0.0960394 -0.0115548 -0.00908921 0.00455706 0.00127725 0.00555287)
(0.11654 -0.011015 -0.0110854 0.00444704 0.00121293 0.00526098)
(0.134892 -0.0113524 -0.0124071 0.00437769 0.00110349 0.00456357)
(0.151545 -0.0107577 -0.0133703 0.00435506 0.00109381 0.0039219)
(0.166245 -0.0108283 -0.0138099 0.00432025 0.00103354 0.00336955)
(0.18016 -0.010239 -0.0141945 0.00431415 0.00103884 0.00299459)
(0.192359 -0.0101279 -0.0143087 0.00428899 0.00099888 0.00270298)
(0.204294 -0.00958034 -0.0144309 0.00428913 0.00100226 0.00249082)
(0.21478 -0.00933028 -0.0144857 0.00426958 0.000980997 0.00235417)
(0.225208 -0.00885482 -0.0142901 0.00426885 0.000964188 0.00221829)
(0.234925 -0.00838871 -0.0145271 0.00426895 0.000969228 0.00225972)
(0.242923 -0.00805572 -0.0138516 0.00422648 0.000897514 0.00213327)
(0.255224 -0.00678866 -0.0147719 0.00428562 0.000940761 0.00238541)
(0.250087 -0.0067172 -0.012905 0.0041489 0.000749643 0.00216835)
(0.268687 -0.000100906 -0.0145477 0.00378826 0.00064789 0.00254407)
(0.00558907 0.000889315 0.000619397 0.000999971 0.000322192 0.000292349)
(0.00985382 -0.000205064 0.00140902 0.00139773 6.65373e-05 0.000996142)
(0.0186002 -0.00232916 0.00255237 0.00223537 5.82853e-06 0.002061)
(0.0196234 -0.00342604 0.00246354 0.0030271 -4.81435e-05 0.003175)
(0.0247743 -0.00537604 0.00256742 0.00338422 -0.000227619 0.00442381)
(0.0279314 -0.00549476 0.00170516 0.00357764 -0.000352777 0.00534951)
(0.0346173 -0.00662125 0.000992091 0.00368542 -0.000591513 0.00602031)
(0.041495 -0.0062734 -0.000418296 0.0037551 -0.000709621 0.00615386)
(0.0500627 -0.00695711 -0.0014771 0.00381603 -0.000863231 0.00599862)
(0.0593199 -0.00655737 -0.00273142 0.0038635 -0.000905226 0.00552665)
(0.0688142 -0.00708359 -0.00346269 0.0039047 -0.000971467 0.00499748)
(0.0791001 -0.00679408 -0.00423967 0.00394191 -0.000964149 0.00439848)
(0.0887063 -0.00726999 -0.00459145 0.00397022 -0.000982861 0.00383366)
(0.0993143 -0.00713145 -0.00498309 0.00399633 -0.000956553 0.00332061)
(0.108632 -0.00764786 -0.00496709 0.00402381 -0.000952498 0.00283407)
(0.119639 -0.00746625 -0.00497127 0.00401513 -0.000938807 0.00252559)
(0.128194 -0.00840222 -0.00457048 0.004098 -0.00087895 0.00218297)
(0.140584 -0.00717174 -0.00438357 0.00399217 -0.00102707 0.00216532)
(0.146456 -0.00910154 -0.003679 0.00404845 -0.000702417 0.00195518)
(0.164437 -0.00388501 -0.00316474 0.00561472 -0.00181166 0.00217024)
(0.00572384 0.00247333 0.000613435 0.0030884 0.000662864 0.000276247)
(0.0114291 0.00578366 0.00155776 0.00539775 0.0012569 0.000949211)
(0.0291976 0.0113782 0.00361045 0.00642147 0.00170258 0.00190179)
(0.0393533 0.0123263 0.00477271 0.00603005 0.00168803 0.00281703)
(0.055778 0.0145202 0.00656497 0.00565212 0.0017002 0.00396627)
(0.0627652 0.0141073 0.0072157 0.00534329 0.00155218 0.00499663)
(0.0752565 0.015359 0.00816899 0.00511905 0.00148437 0.00606016)
(0.0805223 0.0147776 0.00778154 0.00493317 0.00133325 0.00672392)
(0.0910222 0.015771 0.00765722 0.00480789 0.0012805 0.00713122)
(0.0964514 0.0153207 0.00661809 0.00468211 0.00117138 0.00707628)
(0.106122 0.0161948 0.00616765 0.00460817 0.00114507 0.00679726)
(0.112326 0.0159247 0.00524207 0.00451887 0.00108247 0.00627934)
(0.121479 0.0167071 0.00486519 0.00447806 0.0010729 0.00565501)
(0.128591 0.016603 0.00424534 0.00440793 0.00104682 0.00496644)
(0.137139 0.0172848 0.00403021 0.004398 0.00103212 0.00424531)
(0.145407 0.0173363 0.00400255 0.00432442 0.0010241 0.00357813)
(0.152935 0.0178742 0.004145 0.00436272 0.001019 0.0029751)
(0.16321 0.0181007 0.00494087 0.00424881 0.000958664 0.00253112)
(0.168743 0.0182834 0.00516868 0.00430667 0.000974218 0.00217961)
(0.184563 0.0196497 0.00727739 0.00457756 0.000768869 0.00208753)
(0.00567201 -0.000163831 0.000608507 0.000116319 -2.92375e-05 0.000275953)
(0.010713 -0.00160942 0.00145994 0.00122508 -0.000366573 0.000967322)
(0.0301375 -0.0043488 0.00367216 0.00214636 -0.000486307 0.00189841)
(0.044271 -0.00553682 0.00508665 0.00289505 -0.000462845 0.0027782)
(0.0681258 -0.00821076 0.00748201 0.00330094 -0.000555786 0.00384385)
(0.0823894 -0.00910393 0.00872153 0.00350288 -0.000588478 0.00487811)
(0.105136 -0.0113693 0.0105416 0.00362224 -0.000743381 0.0059875)
(0.117767 -0.0119264 0.0107822 0.00368654 -0.000799922 0.00685004)
(0.138789 -0.013678 0.0113949 0.00374472 -0.000918496 0.00748106)
(0.150501 -0.014058 0.010718 0.00378155 -0.000941961 0.00770571)
(0.170007 -0.0154755 0.0107221 0.0038206 -0.00100917 0.00765976)
(0.181341 -0.0158182 0.00991918 0.00384714 -0.00100235 0.00732333)
(0.199478 -0.017017 0.00982011 0.00388172 -0.00103903 0.00684221)
(0.21072 -0.0173624 0.00911983 0.0038938 -0.00100509 0.00617012)
(0.227591 -0.0184931 0.00906163 0.00394477 -0.00103408 0.00547356)
(0.23867 -0.0187513 0.00872833 0.00389695 -0.000980343 0.00463579)
(0.254252 -0.0200153 0.00915075 0.00404969 -0.000997837 0.00393857)
(0.265511 -0.02058 0.00958586 0.00383533 -0.00104183 0.0032173)
(0.27681 -0.0207575 0.010439 0.00412896 -0.000881263 0.00270768)
(0.294104 -0.0273586 0.0126852 0.00502871 -0.00161776 0.00243841)
(0.00558709 0.00122135 0.00058537 0.00077083 0.000322197 0.000269669)
(0.00980079 0.00314823 0.00132242 0.00247226 0.000765354 0.000958534)
(0.0282231 0.00762811 0.00344825 0.00351875 0.00107344 0.00189426)
(0.0425379 0.00922508 0.00486991 0.00387958 0.00106155 0.00276556)
(0.0677306 0.0123315 0.00736016 0.00406362 0.00113965 0.00381506)
(0.0843806 0.0131608 0.00875635 0.00411704 0.00108357 0.00483605)
(0.11087 0.0155443 0.0108119 0.00415484 0.00114141 0.00594205)
(0.127433 0.0160004 0.0112816 0.00415116 0.00108825 0.00683784)
(0.154017 0.0178779 0.0121712 0.00416111 0.00112689 0.00752657)
(0.170546 0.0181625 0.0116872 0.00414593 0.00107339 0.00784191)
(0.19667 0.0196965 0.0119202 0.00414974 0.00109622 0.00789487)
(0.213161 0.0199418 0.011231 0.0041337 0.00104968 0.00765701)
(0.238352 0.0212401 0.0113093 0.0041404 0.00106871 0.00727581)
(0.25487 0.0214634 0.0106211 0.00411979 0.00102829 0.0066623)
(0.278618 0.0226689 0.0106706 0.0041446 0.00104866 0.00602912)
(0.295316 0.0227319 0.0102147 0.00408932 0.00100346 0.00516994)
(0.316417 0.0241377 0.0107504 0.00418771 0.0010303 0.00445998)
(0.334801 0.0241536 0.0110251 0.00403532 0.00100596 0.00365727)
(0.347406 0.0247042 0.0121354 0.00420859 0.000961487 0.00304589)
(0.374179 0.0281406 0.0144938 0.00484135 0.00122302 0.00274417)
(0.00558709 -0.00122136 0.000585374 0.000770825 -0.0003222 0.00026967)
(0.00980079 -0.00314821 0.0013224 0.00247226 -0.000765351 0.000958536)
(0.0282231 -0.00762812 0.00344829 0.00351875 -0.00107346 0.00189426)
(0.0425379 -0.00922506 0.00486983 0.00387957 -0.00106154 0.00276558)
(0.0677307 -0.0123315 0.00736031 0.00406362 -0.00113968 0.00381505)
(0.0843806 -0.0131607 0.00875608 0.00411704 -0.00108354 0.00483605)
(0.110871 -0.0155443 0.0108124 0.00415486 -0.00114148 0.00594207)
(0.127433 -0.0160003 0.0112809 0.00415113 -0.00108818 0.00683772)
(0.154018 -0.0178778 0.0121724 0.0041611 -0.00112702 0.00752676)
(0.170546 -0.0181618 0.0116855 0.00414584 -0.00107321 0.00784149)
(0.196673 -0.0196955 0.0119227 0.00414959 -0.00109642 0.00789542)
(0.21316 -0.0199396 0.0112276 0.00413336 -0.00104926 0.0076562)
(0.238359 -0.0212365 0.0113141 0.00413995 -0.00106891 0.00727669)
(0.254868 -0.021454 0.0106153 0.00411856 -0.00102729 0.00666136)
(0.278638 -0.0226616 0.0106778 0.00414384 -0.00104877 0.00603004)
(0.295312 -0.0226975 0.010207 0.00408457 -0.00100052 0.00516917)
(0.316457 -0.0241296 0.0107573 0.00418739 -0.00103045 0.00446064)
(0.334793 -0.024053 0.0110208 0.00402138 -0.00099877 0.00365732)
(0.347478 -0.0246719 0.0121307 0.0042068 -0.000959344 0.00304475)
(0.374195 -0.027984 0.0145099 0.00481574 -0.00121346 0.00274803)
(0.00567202 0.000163819 0.000608519 0.000116318 2.92355e-05 0.000275956)
(0.010713 0.00160943 0.0014599 0.00122507 0.000366568 0.000967324)
(0.0301375 0.00434879 0.00367228 0.00214635 0.000486304 0.00189841)
(0.0442711 0.00553683 0.00508641 0.00289504 0.000462836 0.00277823)
(0.0681256 0.00821074 0.00748248 0.00330093 0.000555792 0.0038438)
(0.0823898 0.00910399 0.00872071 0.00350284 0.000588454 0.0048781)
(0.105135 0.0113692 0.010543 0.00362222 0.000743404 0.00598749)
(0.117768 0.0119264 0.01078 0.00368653 0.000799859 0.00684968)
(0.138787 0.0136781 0.0113985 0.00374469 0.000918589 0.00748165)
(0.150504 0.0140584 0.0107128 0.00378152 0.000941764 0.00770432)
(0.170003 0.0154765 0.0107298 0.00382067 0.00100951 0.00766176)
(0.18135 0.0158195 0.00990819 0.00384723 0.00100188 0.00732033)
(0.19947 0.0170202 0.00983588 0.00388199 0.00104 0.00684594)
(0.210743 0.0173691 0.00909888 0.00389441 0.00100427 0.00616585)
(0.227579 0.018499 0.00909018 0.00394529 0.00103613 0.0054786)
(0.238722 0.0187787 0.00869352 0.00390008 0.000980053 0.00463058)
(0.254261 0.020021 0.00919302 0.00404986 0.00100137 0.00394474)
(0.265627 0.0206655 0.00954536 0.00384751 0.00104403 0.00321205)
(0.276916 0.0207798 0.0104775 0.00413025 0.000887505 0.0027112)
(0.294355 0.0275068 0.0126833 0.00506108 0.00162272 0.00244195)
(0.00572385 -0.00247334 0.00061345 0.00308839 -0.000662888 0.000276251)
(0.0114291 -0.00578364 0.0015577 0.00539773 -0.00125685 0.000949208)
(0.0291976 -0.0113783 0.00361063 0.00642147 -0.00170269 0.0019018)
(0.0393533 -0.0123263 0.00477234 0.00603001 -0.00168787 0.00281705)
(0.055778 -0.0145203 0.00656556 0.00565212 -0.00170042 0.00396616)
(0.0627654 -0.0141073 0.00721461 0.00534325 -0.00155184 0.00499654)
(0.0752564 -0.0153591 0.00817066 0.00511906 -0.00148486 0.00606003)
(0.0805228 -0.0147777 0.007779 0.0049331 -0.00133254 0.00672331)
(0.0910222 -0.0157711 0.00766132 0.00480788 -0.00128149 0.00713212)
(0.0964529 -0.0153205 0.00661226 0.00468192 -0.00116994 0.00707385)
(0.106122 -0.0161946 0.00617699 0.00460804 -0.00114698 0.00680123)
(0.11233 -0.0159242 0.00522874 0.00451842 -0.00107956 0.00627301)
(0.121481 -0.0167064 0.00488681 0.00447764 -0.00107652 0.00566421)
(0.128602 -0.0165996 0.00421426 0.00440635 -0.00104071 0.00495453)
(0.137149 -0.0172849 0.00407928 0.00439759 -0.00103931 0.00426142)
(0.145431 -0.0173244 0.00393392 0.00431948 -0.00101101 0.00355826)
(0.152971 -0.0178805 0.00424462 0.0043633 -0.00103348 0.00300094)
(0.163251 -0.0180685 0.00481454 0.00423614 -0.000933511 0.00250045)
(0.168837 -0.0182954 0.00532736 0.00430759 -0.000997875 0.00221339)
(0.184646 -0.0196023 0.00711227 0.00456364 -0.000733526 0.00205776)
(0.0055891 -0.000889326 0.00061941 0.000999963 -0.000322205 0.000292353)
(0.00985384 0.000205071 0.00140897 0.00139772 -6.6511e-05 0.000996134)
(0.0186002 0.00232915 0.00255245 0.00223536 -5.85822e-06 0.00206101)
(0.0196234 0.00342601 0.00246339 0.00302709 4.82002e-05 0.00317497)
(0.0247743 0.005376 0.00256743 0.0033842 0.0002276 0.00442362)
(0.0279313 0.00549473 0.00170523 0.0035776 0.000352823 0.00534931)
(0.0346172 0.00662116 0.000991691 0.00368539 0.000591548 0.00602005)
(0.0414945 0.00627328 -0.000416813 0.00375507 0.000709543 0.00615328)
(0.0500628 0.00695689 -0.00147963 0.00381602 0.000863495 0.00599962)
(0.0593181 0.0065574 -0.00272579 0.00386338 0.000904643 0.00552413)
(0.0688148 0.00708311 -0.00347166 0.00390479 0.000972574 0.00500272)
(0.0790936 0.00679414 -0.0042242 0.00394185 0.000962123 0.00438998)
(0.0887074 0.00726898 -0.00461373 0.00397054 0.000986362 0.00384841)
(0.0992953 0.00713176 -0.00495017 0.00399636 0.00095075 0.00329918)
(0.108626 0.00764615 -0.00500832 0.00402461 0.000962247 0.00286665)
(0.119593 0.007463 -0.00491653 0.00401649 0.000923662 0.00247985)
(0.128151 0.00839998 -0.00462747 0.00409875 0.000904399 0.00224602)
(0.140488 0.0071695 -0.00430147 0.00400002 0.000985805 0.00207903)
(0.146307 0.0091026 -0.00374943 0.00405041 0.00076353 0.00205915)
(0.164181 0.00394579 -0.00300218 0.00563622 0.00166437 0.00204232)
(0.00414125 -0.000528651 0.000173907 0.00691783 -0.00106939 0.000302075)
(0.0083594 0.00419906 -0.000726233 0.0077533 -0.00158933 0.00114908)
(0.0248264 0.00768089 -0.0022762 0.00669053 -0.00178267 0.00266521)
(0.0486253 0.0106754 -0.00446589 0.00541358 -0.00157683 0.00416725)
(0.0727697 0.0107157 -0.00684611 0.00482776 -0.00146777 0.00533606)
(0.0960391 0.0115547 -0.00908724 0.00455704 -0.00127699 0.00555275)
(0.11654 0.0110149 -0.0110885 0.00444706 -0.0012133 0.00526091)
(0.13489 0.011352 -0.0124009 0.00437769 -0.00110292 0.00456343)
(0.151544 0.0107576 -0.0133805 0.00435509 -0.00109467 0.00392292)
(0.16624 0.0108274 -0.0137922 0.00432012 -0.00103215 0.00336814)
(0.180157 0.0102385 -0.0142243 0.00431417 -0.00104087 0.00299895)
(0.192344 0.0101254 -0.0142601 0.00428876 -0.000995501 0.00269614)
(0.204288 0.00957902 -0.0145102 0.00428914 -0.00100727 0.00250436)
(0.214737 0.00932357 -0.0143603 0.00426863 -0.000972305 0.00233212)
(0.22518 0.00885268 -0.0144851 0.0042692 -0.000977578 0.00225518)
(0.234833 0.00837197 -0.0142278 0.0042661 -0.000945356 0.00220081)
(0.242791 0.0080563 -0.0142946 0.00422853 -0.000936304 0.00222179)
(0.255095 0.00675529 -0.014106 0.0042786 -0.000871783 0.00225175)
(0.24966 0.00672315 -0.0138801 0.00415677 -0.000868267 0.00234242)
(0.268717 0.000141608 -0.0130426 0.0037923 -0.000482988 0.00229305)
(0.0136509 0.0011063 -0.00142221 0.000151777 -0.000169739 0.000388555)
(0.0585755 -0.00792566 -0.00441146 0.00138217 0.000558389 0.00163619)
(0.089227 -0.0142952 -0.00676899 0.00299186 0.000945595 0.00372143)
(0.119067 -0.0185965 -0.00828936 0.00375775 0.000968838 0.00526452)
(0.124669 -0.0188393 -0.00995059 0.00402365 0.00107014 0.00589156)
(0.140513 -0.0199582 -0.0108283 0.0041069 0.0010159 0.00537657)
(0.139948 -0.0192248 -0.0117854 0.00416455 0.00110329 0.00458462)
(0.150925 -0.0197467 -0.0119155 0.0041728 0.0010641 0.00366426)
(0.149137 -0.0189589 -0.0122627 0.00419958 0.001129 0.00310781)
(0.157657 -0.0192429 -0.0120816 0.00420097 0.00108185 0.00270259)
(0.155805 -0.0184927 -0.0122716 0.0042162 0.00111803 0.00255745)
(0.162673 -0.0185909 -0.0120635 0.00421399 0.00106755 0.00241286)
(0.161099 -0.017898 -0.0122067 0.00422147 0.00108974 0.00239423)
(0.166707 -0.0178574 -0.0120009 0.00421855 0.00104211 0.00234491)
(0.165559 -0.0172283 -0.0121252 0.00422001 0.00105207 0.00239537)
(0.170198 -0.0170854 -0.0119537 0.00422446 0.00100887 0.00241581)
(0.169375 -0.0164066 -0.0120957 0.00418463 0.000994149 0.00250053)
(0.173926 -0.0163254 -0.0119986 0.00426695 0.000973287 0.00253987)
(0.170965 -0.0139045 -0.012012 0.0036333 0.000804707 0.00263146)
(0.188234 -0.0191795 -0.011913 0.00458134 0.00102796 0.00255178)
(0.00453584 -0.000425054 2.34281e-05 0.00258538 2.03811e-05 6.24265e-07)
(0.0391997 -0.0132881 2.57247e-06 0.00606768 2.10522e-05 4.9477e-07)
(0.0846959 -0.0192608 1.54675e-05 0.00697201 3.06196e-05 5.64687e-07)
(0.162529 -0.0264052 4.31812e-05 0.00679915 2.2729e-05 4.8481e-07)
(0.174212 -0.0254083 3.11955e-05 0.00694988 3.22446e-05 5.42492e-07)
(0.223539 -0.0298892 5.69931e-05 0.00722245 2.53153e-05 4.66227e-07)
(0.215821 -0.0282456 3.45416e-05 0.00746455 3.43199e-05 5.17685e-07)
(0.253282 -0.0314998 5.86661e-05 0.00764794 2.75252e-05 4.4647e-07)
(0.242758 -0.0295595 3.46159e-05 0.0077562 3.55382e-05 4.92607e-07)
(0.273584 -0.0318469 5.82028e-05 0.00783676 2.888e-05 4.28691e-07)
(0.263119 -0.0299278 3.42352e-05 0.00788469 3.5929e-05 4.68592e-07)
(0.288677 -0.0315498 5.72246e-05 0.00792752 2.96095e-05 4.11151e-07)
(0.279182 -0.0297815 3.38188e-05 0.00795249 3.58387e-05 4.43753e-07)
(0.300598 -0.0309294 5.65096e-05 0.00798253 2.98706e-05 3.92032e-07)
(0.292354 -0.0293312 3.40835e-05 0.00798729 3.5291e-05 4.17933e-07)
(0.310907 -0.0301253 5.72459e-05 0.00803784 2.97108e-05 3.72137e-07)
(0.3026 -0.0285296 3.53502e-05 0.00790377 3.40104e-05 3.9233e-07)
(0.321694 -0.0291192 6.22847e-05 0.00833688 2.97319e-05 3.52388e-07)
(0.304739 -0.0229044 3.3328e-05 0.00624278 3.04372e-05 3.6916e-07)
(0.302114 -0.0216901 8.11389e-05 0.00680184 2.47645e-05 3.2397e-07)
(0.00647559 0.000294843 2.85578e-05 0.00046456 -7.46413e-06 4.90127e-07)
(0.00514627 -2.94796e-05 1.7705e-05 0.00142445 -1.73183e-05 4.14338e-07)
(0.010776 -0.00230941 5.29356e-05 0.00291561 -2.70127e-05 4.68273e-07)
(0.0205424 -0.000111775 5.98489e-05 0.00438533 -2.37376e-05 4.06897e-07)
(0.0315567 -0.000977682 8.10293e-05 0.00555695 -2.99474e-05 4.4779e-07)
(0.0566766 0.00345088 9.20231e-05 0.00635212 -2.2933e-05 3.84979e-07)
(0.0694641 0.00237082 0.000102059 0.00678062 -3.03604e-05 4.23142e-07)
(0.0993126 0.00600125 0.000113072 0.00706527 -2.34186e-05 3.65165e-07)
(0.110543 0.00464536 0.000116591 0.00723823 -3.04975e-05 4.01553e-07)
(0.139844 0.00744849 0.000126739 0.00737978 -2.37513e-05 3.48651e-07)
(0.148912 0.00606662 0.000125632 0.00747668 -3.01854e-05 3.80244e-07)
(0.175868 0.00817465 0.000134712 0.00756451 -2.38323e-05 3.31638e-07)
(0.183213 0.00681829 0.000130276 0.0076206 -2.96518e-05 3.5744e-07)
(0.20764 0.00837944 0.000138821 0.00768865 -2.37045e-05 3.13279e-07)
(0.213812 0.00702251 0.000132291 0.00770308 -2.88967e-05 3.33857e-07)
(0.236633 0.00836346 0.000141189 0.00779769 -2.32158e-05 2.94743e-07)
(0.240562 0.00645477 0.00013335 0.00775138 -2.80382e-05 3.10721e-07)
(0.26562 0.00926552 0.000143616 0.00792778 -2.17677e-05 2.77367e-07)
(0.258151 0.0045141 0.000134639 0.00796598 -2.71979e-05 2.88567e-07)
(0.316696 0.0188104 0.000149038 0.00982068 -1.76075e-05 2.56649e-07)
(0.00518858 0.00146178 2.86803e-05 0.00140671 1.44246e-05 5.51752e-07)
(0.00648539 0.00287941 1.66685e-05 0.00728287 1.65597e-05 4.56909e-07)
(0.0221898 0.0116071 5.27169e-05 0.0102243 2.4924e-05 5.1583e-07)
(0.0203207 0.0087175 3.70415e-05 0.0101184 1.43863e-05 4.41262e-07)
(0.0316309 0.0124295 6.89836e-05 0.00966912 2.52307e-05 4.91219e-07)
(0.0282972 0.00842128 5.94527e-05 0.00926423 1.74984e-05 4.19751e-07)
(0.0375976 0.0110054 8.81261e-05 0.0089888 2.77294e-05 4.65524e-07)
(0.0382782 0.00784399 8.20013e-05 0.00879769 2.09035e-05 4.01004e-07)
(0.048066 0.0101447 0.000106842 0.00861294 2.99399e-05 4.44158e-07)
(0.0526293 0.00779432 0.000102506 0.00849886 2.35596e-05 3.85994e-07)
(0.0627711 0.00986621 0.00012334 0.00837618 3.13737e-05 4.23661e-07)
(0.0698479 0.00814386 0.000119927 0.00831147 2.53144e-05 3.70501e-07)
(0.0798122 0.00996114 0.000136793 0.00823622 3.2019e-05 4.01402e-07)
(0.0883877 0.00872267 0.000134127 0.0081933 2.62044e-05 3.5296e-07)
(0.0978471 0.0102389 0.000147398 0.00815791 3.19156e-05 3.77455e-07)
(0.107756 0.00956255 0.000146081 0.00810188 2.64177e-05 3.34164e-07)
(0.115967 0.010363 0.000155697 0.00807902 3.09364e-05 3.53223e-07)
(0.128512 0.0112628 0.000157511 0.0080854 2.65371e-05 3.15775e-07)
(0.133882 0.00959266 0.000162672 0.00713891 2.79853e-05 3.31602e-07)
(0.150483 0.0144466 0.000168312 0.00832164 2.69012e-05 2.97467e-07)
(0.00466913 -0.000366295 2.51106e-05 0.000272901 -8.39415e-06 4.93439e-07)
(0.00545254 -0.000222102 1.62352e-05 0.00143983 -1.60524e-05 4.24402e-07)
(0.0222513 -0.00327609 4.64859e-05 0.00289096 -2.61775e-05 4.7608e-07)
(0.0267054 -0.00348991 2.67066e-05 0.00423662 -2.37153e-05 4.11977e-07)
(0.0498495 -0.0081292 5.44347e-05 0.00519692 -3.08496e-05 4.54965e-07)
(0.0515255 -0.00809431 3.58581e-05 0.00588282 -2.51507e-05 3.90884e-07)
(0.0716891 -0.0122884 6.53168e-05 0.00627335 -3.24709e-05 4.29761e-07)
(0.0716339 -0.0117154 4.90727e-05 0.00655245 -2.621e-05 3.70581e-07)
(0.0890375 -0.0150893 7.83799e-05 0.00672624 -3.28641e-05 4.07533e-07)
(0.0890414 -0.014331 6.44318e-05 0.00687787 -2.63767e-05 3.54014e-07)
(0.104571 -0.017052 9.26408e-05 0.0069883 -3.22175e-05 3.86931e-07)
(0.105484 -0.0163274 8.08819e-05 0.00709042 -2.58651e-05 3.38e-07)
(0.119686 -0.0185608 0.000107252 0.00717649 -3.10949e-05 3.65334e-07)
(0.121734 -0.0179925 9.74183e-05 0.00724374 -2.50635e-05 3.20575e-07)
(0.1349 -0.0198937 0.000121513 0.00733084 -2.99165e-05 3.42285e-07)
(0.137886 -0.0195015 0.000113422 0.00733718 -2.39918e-05 3.02238e-07)
(0.150483 -0.021271 0.000135411 0.00753422 -2.89632e-05 3.19041e-07)
(0.153665 -0.0210368 0.000127972 0.00735846 -2.19674e-05 2.84627e-07)
(0.166894 -0.0227369 0.000150229 0.00789005 -2.79029e-05 2.96458e-07)
(0.167659 -0.0250041 0.000136885 0.00937961 -1.97702e-05 2.6703e-07)
(0.00475217 0.000905385 2.65523e-05 0.000774138 1.17138e-05 5.25007e-07)
(0.00535515 0.000952167 1.78191e-05 0.00413569 1.61663e-05 4.48013e-07)
(0.0211921 0.00844726 5.0684e-05 0.00629901 2.46978e-05 5.02242e-07)
(0.026454 0.00876087 3.01382e-05 0.00724964 1.6676e-05 4.31057e-07)
(0.0526651 0.0152186 5.83951e-05 0.00769491 2.60237e-05 4.78754e-07)
(0.0586251 0.0146146 3.65113e-05 0.00793847 1.85971e-05 4.09849e-07)
(0.0859772 0.0195421 6.63035e-05 0.00804588 2.78896e-05 4.52951e-07)
(0.0917426 0.0186991 4.53325e-05 0.008104 2.10304e-05 3.89911e-07)
(0.118163 0.0225359 7.58545e-05 0.00809072 2.94683e-05 4.30208e-07)
(0.123986 0.0216912 5.67627e-05 0.00808767 2.29947e-05 3.734e-07)
(0.148869 0.024745 8.74802e-05 0.00804892 3.04164e-05 4.09227e-07)
(0.154991 0.0240444 7.0946e-05 0.00803471 2.43056e-05 3.57724e-07)
(0.178194 0.0265394 0.000101272 0.0080022 3.07841e-05 3.87691e-07)
(0.184907 0.0260103 8.73831e-05 0.00797957 2.49805e-05 3.40795e-07)
(0.206189 0.0280934 0.000116733 0.00797637 3.05933e-05 3.64694e-07)
(0.213996 0.0276631 0.000105093 0.00790622 2.50113e-05 3.22675e-07)
(0.232186 0.0295153 0.000133536 0.00797952 2.97944e-05 3.41231e-07)
(0.24284 0.029181 0.000122643 0.00784376 2.45258e-05 3.04856e-07)
(0.253953 0.0296054 0.000153238 0.00753707 2.80888e-05 3.19603e-07)
(0.266481 0.0318451 0.000138364 0.00909552 2.5693e-05 2.8764e-07)
(0.00471497 -0.00063106 2.56063e-05 0.000437388 -9.84269e-06 5.06903e-07)
(0.00524722 -0.000474697 1.73844e-05 0.00235692 -1.57998e-05 4.36754e-07)
(0.0201269 -0.00563577 4.91871e-05 0.00388294 -2.49941e-05 4.88578e-07)
(0.0251164 -0.00582933 2.96783e-05 0.00508414 -1.99453e-05 4.20615e-07)
(0.0511699 -0.0113426 5.65496e-05 0.00585234 -2.82394e-05 4.6623e-07)
(0.0582159 -0.0111741 3.44479e-05 0.00640343 -2.19233e-05 3.99919e-07)
(0.0874684 -0.0158912 6.28388e-05 0.00670892 -3.02253e-05 4.4104e-07)
(0.0957365 -0.0154951 4.07428e-05 0.00692693 -2.38528e-05 3.7991e-07)
(0.125835 -0.0193771 7.01984e-05 0.00704688 -3.13547e-05 4.18323e-07)
(0.135201 -0.018957 4.93927e-05 0.00715417 -2.50115e-05 3.63048e-07)
(0.165012 -0.0221772 7.95698e-05 0.00722072 -3.15562e-05 3.97274e-07)
(0.175296 -0.0218535 6.11128e-05 0.00728816 -2.53915e-05 3.4709e-07)
(0.204263 -0.0245676 9.16369e-05 0.00733998 -3.11231e-05 3.75761e-07)
(0.215408 -0.0243767 7.59626e-05 0.00737664 -2.52149e-05 3.30031e-07)
(0.243035 -0.0267173 0.000106368 0.00744599 -3.03368e-05 3.52902e-07)
(0.255036 -0.0266418 9.31499e-05 0.00740888 -2.45224e-05 3.11974e-07)
(0.279981 -0.0287889 0.000123516 0.00759354 -2.93762e-05 3.29743e-07)
(0.294016 -0.0292013 0.000110691 0.00739505 -2.30655e-05 2.94506e-07)
(0.310958 -0.0303182 0.000144238 0.00762724 -2.80686e-05 3.07671e-07)
(0.328107 -0.0352787 0.000126696 0.0091262 -2.30537e-05 2.77427e-07)
(0.00471497 0.000631054 2.56063e-05 0.000437386 9.84269e-06 5.06903e-07)
(0.00524722 0.000474709 1.73846e-05 0.00235692 1.57997e-05 4.36754e-07)
(0.0201269 0.00563577 4.91872e-05 0.00388294 2.49942e-05 4.88578e-07)
(0.0251164 0.00582934 2.96786e-05 0.00508415 1.99453e-05 4.20615e-07)
(0.0511698 0.0113426 5.65499e-05 0.00585234 2.82394e-05 4.6623e-07)
(0.058216 0.0111742 3.44484e-05 0.00640345 2.19231e-05 3.99919e-07)
(0.087468 0.0158912 6.28397e-05 0.00670894 3.02253e-05 4.4104e-07)
(0.095737 0.0154953 4.07424e-05 0.006927 2.38524e-05 3.79911e-07)
(0.125834 0.0193774 7.01991e-05 0.00704694 3.13545e-05 4.18322e-07)
(0.135202 0.0189581 4.93922e-05 0.00715434 2.50107e-05 3.63048e-07)
(0.165009 0.0221781 7.95708e-05 0.00722093 3.15558e-05 3.97272e-07)
(0.175301 0.0218569 6.11063e-05 0.00728878 2.53898e-05 3.47093e-07)
(0.204256 0.0245704 9.1639e-05 0.00734047 3.11221e-05 3.75761e-07)
(0.215421 0.0243889 7.59534e-05 0.00737873 2.52102e-05 3.3003e-07)
(0.243022 0.0267252 0.000106375 0.00744724 3.03351e-05 3.52898e-07)
(0.255071 0.0266759 9.31198e-05 0.00741536 2.45133e-05 3.11958e-07)
(0.279959 0.0288177 0.000123529 0.00759787 2.93732e-05 3.29757e-07)
(0.294134 0.0292834 0.000110636 0.00741218 2.30567e-05 2.94465e-07)
(0.311017 0.0304095 0.000144302 0.00764225 2.80728e-05 3.07743e-07)
(0.328257 0.0354612 0.000126613 0.00917366 2.30623e-05 2.77356e-07)
(0.00475217 -0.000905389 2.65525e-05 0.000774141 -1.17137e-05 5.25007e-07)
(0.00535515 -0.00095216 1.78187e-05 0.0041357 -1.61664e-05 4.48013e-07)
(0.0211921 -0.00844726 5.06846e-05 0.00629903 -2.46977e-05 5.02242e-07)
(0.026454 -0.00876086 3.01385e-05 0.00724962 -1.66761e-05 4.31057e-07)
(0.0526651 -0.0152186 5.83956e-05 0.00769492 -2.60236e-05 4.78755e-07)
(0.0586252 -0.0146145 3.65117e-05 0.00793842 -1.85973e-05 4.09849e-07)
(0.0859772 -0.0195421 6.63052e-05 0.00804588 -2.78896e-05 4.52953e-07)
(0.0917429 -0.0186989 4.53361e-05 0.00810387 -2.10308e-05 3.8991e-07)
(0.118164 -0.0225357 7.58563e-05 0.00809066 -2.94683e-05 4.30209e-07)
(0.123986 -0.0216901 5.67647e-05 0.00808733 -2.29956e-05 3.734e-07)
(0.14887 -0.0247445 8.74821e-05 0.00804872 -3.04165e-05 4.09229e-07)
(0.154992 -0.0240413 7.09544e-05 0.0080337 -2.43074e-05 3.57721e-07)
(0.1782 -0.026538 0.00010127 0.00800176 -3.07848e-05 3.8769e-07)
(0.18491 -0.0259999 8.73905e-05 0.00797653 -2.49848e-05 3.40799e-07)
(0.206211 -0.02809 0.000116724 0.00797541 -3.05948e-05 3.64694e-07)
(0.214002 -0.027636 0.000105119 0.00789818 -2.50193e-05 3.22694e-07)
(0.232254 -0.0295032 0.000133514 0.00797637 -2.97977e-05 3.41208e-07)
(0.242829 -0.0291257 0.000122674 0.00782811 -2.45321e-05 3.04899e-07)
(0.254088 -0.0295639 0.000153174 0.00752567 -2.80845e-05 3.19527e-07)
(0.266546 -0.0317102 0.000138364 0.00905977 -2.5684e-05 2.87697e-07)
(0.00466913 0.000366293 2.51109e-05 0.000272901 8.39414e-06 4.93439e-07)
(0.00545255 0.000222111 1.62354e-05 0.00143983 1.60524e-05 4.24402e-07)
(0.0222513 0.00327609 4.64867e-05 0.00289096 2.61775e-05 4.7608e-07)
(0.0267055 0.00348992 2.67072e-05 0.00423662 2.37153e-05 4.11976e-07)
(0.0498493 0.0081292 5.44356e-05 0.00519692 3.08496e-05 4.54964e-07)
(0.0515258 0.00809437 3.58593e-05 0.00588282 2.51506e-05 3.90884e-07)
(0.0716886 0.0122884 6.53196e-05 0.00627337 3.24708e-05 4.29761e-07)
(0.0716349 0.0117155 4.90748e-05 0.00655247 2.62098e-05 3.70581e-07)
(0.0890364 0.0150895 7.83827e-05 0.0067263 3.28638e-05 4.07532e-07)
(0.0890444 0.0143315 6.44325e-05 0.0068779 2.63762e-05 3.54014e-07)
(0.104569 0.0170526 9.26431e-05 0.00698849 3.22171e-05 3.8693e-07)
(0.105492 0.0163289 8.08784e-05 0.00709064 2.58637e-05 3.38002e-07)
(0.119682 0.0185624 0.000107253 0.00717701 3.10941e-05 3.65331e-07)
(0.121755 0.017998 9.74137e-05 0.00724469 2.50594e-05 3.20577e-07)
(0.134896 0.0198979 0.00012151 0.00733227 2.99158e-05 3.42275e-07)
(0.137937 0.0195169 0.000113404 0.00734102 2.39835e-05 3.02228e-07)
(0.150491 0.0212852 0.000135399 0.00753912 2.89625e-05 3.19036e-07)
(0.153795 0.0210819 0.000127935 0.00737287 2.19621e-05 2.84598e-07)
(0.166978 0.0227862 0.000150252 0.00790653 2.79092e-05 2.96498e-07)
(0.167958 0.0251177 0.00013682 0.00942882 1.97849e-05 2.66993e-07)
(0.00518859 -0.00146178 2.86807e-05 0.00140671 -1.44246e-05 5.51752e-07)
(0.0064854 -0.00287941 1.66684e-05 0.00728288 -1.65597e-05 4.56909e-07)
(0.0221898 -0.0116071 5.27182e-05 0.0102243 -2.49239e-05 5.1583e-07)
(0.0203207 -0.0087175 3.70424e-05 0.0101184 -1.43864e-05 4.41261e-07)
(0.0316309 -0.0124295 6.89849e-05 0.00966915 -2.52306e-05 4.91219e-07)
(0.0282973 -0.00842129 5.94544e-05 0.00926418 -1.74986e-05 4.19751e-07)
(0.0375976 -0.0110054 8.81308e-05 0.00898882 -2.77292e-05 4.65526e-07)
(0.0382782 -0.00784416 8.20071e-05 0.00879754 -2.0904e-05 4.01003e-07)
(0.0480661 -0.0101446 0.000106848 0.00861294 -2.99396e-05 4.4416e-07)
(0.0526287 -0.00779469 0.000102507 0.00849852 -2.35606e-05 3.85993e-07)
(0.0627712 -0.00986627 0.000123346 0.00837615 -3.13733e-05 4.23665e-07)