/*--------------------------------*- C++ -*----------------------------------*\
  =========                 |
  \\      /  F ield         | OpenFOAM: The Open Source CFD Toolbox
   \\    /   O peration     | Website:  https://openfoam.org
    \\  /    A nd           | Version:  7
     \\/     M anipulation  |
\*---------------------------------------------------------------------------*/
FoamFile
{
    version     2.0;
    format      ascii;
    class       volScalarField;
    location    "0.055";
    object      rho_0;
}
// * * * * * * * * * * * * * * * * * * * * * * * * * * * * * * * * * * * * * //

dimensions      [1 -3 0 0 0 0 0];

internalField   nonuniform List<scalar> 
1440
(
1.19544
1.18708
1.1787
1.17023
1.16163
1.15283
1.14381
1.13457
1.12511
1.11545
1.10558
1.09551
1.08528
1.07491
1.06442
1.05386
1.04325
1.03263
1.02204
1.0115
1.00106
0.990736
0.980557
0.970546
0.960719
0.951091
0.941675
0.932479
0.923513
0.914781
0.906284
0.898019
0.889977
0.88215
0.874528
0.867109
0.859892
0.852878
0.84606
0.839427
0.832959
0.826636
0.820443
0.814376
0.808448
0.802677
0.797066
0.791587
0.786193
0.780848
0.775546
0.770317
0.7652
0.760222
0.755374
0.750617
0.745902
0.741188
0.736459
0.731721
0.727004
0.722354
0.717824
0.713471
0.709348
0.705499
0.701949
0.698706
0.695756
0.693072
0.690617
0.688354
0.686246
0.684264
0.682388
0.680604
0.678903
0.67728
0.675734
0.674264
0.672871
0.671555
0.670317
0.669158
0.668078
0.667078
0.666158
0.665317
0.664556
0.663872
0.663264
0.662731
0.66227
0.661877
0.66155
0.661284
0.661076
0.660921
0.660815
0.660754
0.660733
0.660748
0.660795
0.660871
0.660972
0.661096
0.66124
0.661402
0.661578
0.661767
0.661964
0.662169
0.662376
0.662583
0.662789
0.662979
0.663177
0.663335
0.663516
0.663642
1.19972
1.20037
1.20077
1.20082
1.20049
1.19974
1.19857
1.19698
1.19502
1.19271
1.1901
1.18721
1.18407
1.18072
1.17719
1.1735
1.16967
1.16573
1.1617
1.15759
1.15342
1.1492
1.14494
1.14064
1.13632
1.13199
1.12763
1.12327
1.11889
1.11451
1.11013
1.10574
1.10135
1.09696
1.09257
1.08818
1.08378
1.07939
1.075
1.07061
1.06622
1.06183
1.05745
1.05307
1.04869
1.04431
1.03993
1.03556
1.03119
1.02683
1.02246
1.0181
1.01374
1.00939
1.00503
1.00068
0.996342
0.992005
0.987672
0.983339
0.979006
0.974671
0.970336
0.966002
0.961672
0.957351
0.953044
0.948761
0.944508
0.940297
0.936135
0.93203
0.927987
0.924013
0.920114
0.916299
0.912576
0.90895
0.905427
0.902011
0.898708
0.895522
0.892458
0.889519
0.886702
0.884004
0.881422
0.878953
0.876594
0.874344
0.8722
0.870161
0.868228
0.866406
0.864701
0.863119
0.861667
0.860349
0.85917
0.858132
0.857231
0.85646
0.855807
0.855259
0.854799
0.854418
0.854109
0.85387
0.853705
0.853611
0.853604
0.853677
0.853852
0.854136
0.85451
0.855081
0.85561
0.856568
0.857069
0.858519
1.19946
1.19946
1.19948
1.19951
1.19956
1.19962
1.19967
1.19971
1.19972
1.19969
1.1996
1.19945
1.19924
1.19896
1.1986
1.19818
1.1977
1.19715
1.19654
1.19588
1.19517
1.19441
1.19361
1.19277
1.1919
1.19099
1.19004
1.18907
1.18806
1.18703
1.18597
1.18488
1.18376
1.18262
1.18145
1.18025
1.17903
1.17779
1.17651
1.17521
1.17389
1.17254
1.17116
1.16976
1.16833
1.16687
1.16539
1.16388
1.16235
1.16078
1.15919
1.15758
1.15594
1.15427
1.15258
1.15086
1.14911
1.14733
1.14552
1.14369
1.14182
1.13993
1.138
1.13604
1.13405
1.13202
1.12995
1.12784
1.1257
1.12351
1.12129
1.11902
1.11672
1.11439
1.11202
1.10963
1.10721
1.10476
1.1023
1.09982
1.09734
1.09484
1.09234
1.08984
1.08733
1.08484
1.08235
1.07987
1.0774
1.07494
1.0725
1.07009
1.0677
1.06534
1.06301
1.06073
1.05849
1.0563
1.05417
1.05211
1.05012
1.04821
1.04638
1.04463
1.04297
1.04139
1.03988
1.03847
1.03711
1.03585
1.03464
1.03354
1.03247
1.03155
1.03064
1.0299
1.02918
1.02863
1.02824
1.02778
1.19945
1.19945
1.19945
1.19944
1.19944
1.19943
1.19943
1.19943
1.19943
1.19944
1.19944
1.19945
1.19945
1.19945
1.19946
1.19945
1.19945
1.19944
1.19942
1.1994
1.19937
1.19933
1.19929
1.19925
1.19919
1.19913
1.19907
1.19899
1.19891
1.19883
1.19873
1.19863
1.19852
1.19841
1.19829
1.19816
1.19802
1.19788
1.19772
1.19756
1.1974
1.19722
1.19704
1.19684
1.19664
1.19643
1.19622
1.19599
1.19575
1.19551
1.19526
1.195
1.19473
1.19445
1.19416
1.19387
1.19356
1.19325
1.19292
1.19259
1.19224
1.19188
1.1915
1.19111
1.19071
1.19029
1.18985
1.18939
1.18892
1.18843
1.18791
1.18738
1.18683
1.18625
1.18566
1.18506
1.18443
1.18379
1.18313
1.18245
1.18176
1.18106
1.18034
1.1796
1.17885
1.17808
1.17729
1.17648
1.17565
1.17479
1.17392
1.17302
1.1721
1.17116
1.1702
1.16922
1.16822
1.16721
1.16619
1.16517
1.16416
1.16314
1.16214
1.16116
1.1602
1.15926
1.15834
1.15746
1.15661
1.15577
1.15499
1.15419
1.15347
1.15268
1.15204
1.15123
1.15072
1.1498
1.14952
1.14835
1.19945
1.19945
1.19945
1.19944
1.19944
1.19943
1.19943
1.19942
1.19941
1.19941
1.1994
1.19939
1.19938
1.19937
1.19936
1.19936
1.19935
1.19934
1.19933
1.19933
1.19932
1.19932
1.19931
1.19931
1.19931
1.1993
1.1993
1.1993
1.1993
1.1993
1.1993
1.1993
1.19929
1.19929
1.19929
1.19929
1.19928
1.19928
1.19927
1.19927
1.19926
1.19925
1.19924
1.19923
1.19922
1.19921
1.1992
1.19918
1.19917
1.19915
1.19914
1.19912
1.19911
1.19909
1.19908
1.19906
1.19905
1.19903
1.19902
1.199
1.19898
1.19897
1.19894
1.19892
1.19889
1.19886
1.19882
1.19878
1.19873
1.19868
1.19863
1.19857
1.19851
1.19844
1.19837
1.19831
1.19824
1.19816
1.1981
1.19803
1.19796
1.19789
1.19783
1.19776
1.19769
1.19763
1.19755
1.19748
1.19739
1.1973
1.1972
1.19708
1.19695
1.1968
1.19664
1.19647
1.19628
1.19608
1.19587
1.19565
1.19542
1.1952
1.19497
1.19475
1.19455
1.19435
1.19416
1.19399
1.19385
1.19371
1.19361
1.1935
1.19345
1.19333
1.1933
1.19315
1.19315
1.19294
1.19298
1.19268
1.19945
1.19945
1.19944
1.19944
1.19944
1.19943
1.19942
1.19942
1.19941
1.1994
1.1994
1.19939
1.19938
1.19937
1.19936
1.19935
1.19934
1.19933
1.19932
1.19931
1.1993
1.1993
1.19929
1.19928
1.19928
1.19927
1.19927
1.19926
1.19926
1.19926
1.19926
1.19925
1.19925
1.19925
1.19925
1.19924
1.19924
1.19924
1.19924
1.19923
1.19923
1.19923
1.19922
1.19922
1.19921
1.19921
1.1992
1.19919
1.19919
1.19918
1.19918
1.19918
1.19918
1.19917
1.19918
1.19918
1.19918
1.19918
1.19919
1.19919
1.1992
1.1992
1.1992
1.19921
1.19921
1.1992
1.1992
1.19919
1.19918
1.19917
1.19916
1.19914
1.19913
1.19911
1.1991
1.19908
1.19907
1.19907
1.19906
1.19906
1.19907
1.19908
1.1991
1.19911
1.19914
1.19916
1.19918
1.19921
1.19923
1.19925
1.19926
1.19926
1.19925
1.19923
1.19921
1.19917
1.19912
1.19907
1.19901
1.19894
1.19887
1.1988
1.19874
1.19869
1.19865
1.19862
1.19861
1.19861
1.19865
1.19869
1.19877
1.19885
1.19897
1.19904
1.19918
1.19923
1.19938
1.1994
1.19952
1.19952
1.19945
1.19945
1.19944
1.19944
1.19944
1.19943
1.19942
1.19942
1.19941
1.1994
1.1994
1.19939
1.19938
1.19937
1.19936
1.19935
1.19934
1.19933
1.19932
1.19931
1.1993
1.1993
1.19929
1.19928
1.19928
1.19927
1.19927
1.19926
1.19926
1.19926
1.19925
1.19925
1.19925
1.19925
1.19924
1.19924
1.19924
1.19923
1.19923
1.19923
1.19922
1.19922
1.19921
1.19921
1.1992
1.1992
1.19919
1.19919
1.19918
1.19917
1.19917
1.19917
1.19916
1.19916
1.19916
1.19916
1.19917
1.19917
1.19917
1.19918
1.19918
1.19918
1.19919
1.19919
1.19919
1.19919
1.19918
1.19917
1.19916
1.19915
1.19914
1.19912
1.19911
1.19909
1.19908
1.19906
1.19905
1.19905
1.19904
1.19904
1.19905
1.19906
1.19908
1.1991
1.19912
1.19915
1.19918
1.1992
1.19923
1.19925
1.19926
1.19927
1.19926
1.19925
1.19922
1.19919
1.19915
1.1991
1.19905
1.19898
1.19892
1.19886
1.19881
1.19877
1.19874
1.19873
1.19873
1.19874
1.19879
1.19884
1.19894
1.19903
1.19917
1.19926
1.1994
1.19948
1.19963
1.19968
1.1998
1.19983
1.19945
1.19945
1.19944
1.19944
1.19944
1.19943
1.19943
1.19942
1.19941
1.19941
1.1994
1.19939
1.19938
1.19937
1.19936
1.19935
1.19934
1.19933
1.19932
1.19931
1.1993
1.1993
1.19929
1.19928
1.19928
1.19927
1.19927
1.19926
1.19926
1.19926
1.19926
1.19925
1.19925
1.19925
1.19924
1.19924
1.19924
1.19924
1.19923
1.19923
1.19922
1.19922
1.19922
1.19921
1.1992
1.1992
1.19919
1.19919
1.19918
1.19918
1.19917
1.19917
1.19916
1.19916
1.19916
1.19916
1.19917
1.19917
1.19917
1.19918
1.19918
1.19918
1.19919
1.19919
1.19919
1.19919
1.19918
1.19917
1.19916
1.19915
1.19914
1.19912
1.19911
1.19909
1.19908
1.19906
1.19905
1.19904
1.19904
1.19904
1.19905
1.19906
1.19907
1.19909
1.19912
1.19914
1.19917
1.19919
1.19922
1.19924
1.19925
1.19926
1.19925
1.19924
1.19922
1.19919
1.19915
1.1991
1.19904
1.19898
1.19892
1.19886
1.19881
1.19876
1.19874
1.19872
1.19872
1.19873
1.19877
1.19882
1.19892
1.19901
1.19914
1.19923
1.19938
1.19945
1.1996
1.19965
1.19977
1.1998
1.19945
1.19945
1.19945
1.19944
1.19944
1.19943
1.19943
1.19942
1.19941
1.19941
1.1994
1.19939
1.19938
1.19937
1.19936
1.19935
1.19934
1.19933
1.19932
1.19931
1.1993
1.1993
1.19929
1.19928
1.19928
1.19927
1.19927
1.19926
1.19926
1.19926
1.19926
1.19925
1.19925
1.19925
1.19924
1.19924
1.19924
1.19923
1.19923
1.19923
1.19922
1.19922
1.19921
1.19921
1.1992
1.1992
1.19919
1.19918
1.19918
1.19917
1.19917
1.19916
1.19916
1.19916
1.19916
1.19916
1.19916
1.19916
1.19916
1.19917
1.19917
1.19917
1.19918
1.19918
1.19918
1.19917
1.19917
1.19916
1.19915
1.19914
1.19912
1.19911
1.19909
1.19907
1.19906
1.19905
1.19904
1.19903
1.19903
1.19903
1.19904
1.19905
1.19907
1.19909
1.19911
1.19913
1.19916
1.19918
1.19919
1.19921
1.19921
1.19921
1.1992
1.19918
1.19916
1.19912
1.19908
1.19903
1.19897
1.19892
1.19887
1.19882
1.19878
1.19876
1.19875
1.19875
1.19877
1.1988
1.19886
1.19893
1.19902
1.19911
1.19922
1.19929
1.19941
1.19945
1.19956
1.19956
1.19964
1.19957
1.19946
1.19946
1.19945
1.19945
1.19944
1.19944
1.19943
1.19943
1.19942
1.19941
1.1994
1.19939
1.19938
1.19937
1.19936
1.19935
1.19934
1.19933
1.19932
1.19931
1.1993
1.19929
1.19928
1.19927
1.19926
1.19926
1.19925
1.19925
1.19924
1.19924
1.19923
1.19923
1.19922
1.19922
1.19922
1.19921
1.19921
1.1992
1.1992
1.19919
1.19918
1.19918
1.19917
1.19916
1.19916
1.19915
1.19914
1.19914
1.19913
1.19912
1.19912
1.19912
1.19911
1.19911
1.19911
1.19911
1.19911
1.19911
1.19911
1.19911
1.19911
1.19911
1.1991
1.1991
1.19909
1.19908
1.19907
1.19906
1.19905
1.19904
1.19903
1.19902
1.19901
1.199
1.199
1.199
1.199
1.199
1.19901
1.19902
1.19903
1.19904
1.19906
1.19907
1.19908
1.19908
1.19909
1.19908
1.19908
1.19906
1.19904
1.19901
1.19898
1.19895
1.19892
1.19888
1.19886
1.19883
1.19882
1.19882
1.19883
1.19885
1.19889
1.19894
1.19899
1.19905
1.19911
1.19917
1.19922
1.19927
1.19929
1.1993
1.19927
1.19924
1.19917
1.19911
1.19902
1.19892
1.19884
1.19869
1.19947
1.19947
1.19946
1.19946
1.19945
1.19944
1.19944
1.19942
1.19941
1.1994
1.19939
1.19937
1.19936
1.19934
1.19932
1.19931
1.19929
1.19928
1.19926
1.19925
1.19923
1.19922
1.19921
1.1992
1.1992
1.19919
1.19918
1.19917
1.19917
1.19916
1.19916
1.19915
1.19915
1.19914
1.19913
1.19913
1.19912
1.19912
1.19911
1.1991
1.1991
1.19909
1.19908
1.19908
1.19908
1.19907
1.19907
1.19907
1.19907
1.19907
1.19907
1.19907
1.19906
1.19906
1.19906
1.19905
1.19904
1.19903
1.19903
1.19902
1.19901
1.19901
1.199
1.199
1.19901
1.19901
1.19902
1.19902
1.19903
1.19903
1.19903
1.19903
1.19902
1.19901
1.19899
1.19898
1.19896
1.19895
1.19895
1.19895
1.19896
1.19897
1.19899
1.19901
1.19903
1.19905
1.19906
1.19906
1.19906
1.19904
1.19901
1.19898
1.19894
1.19891
1.19889
1.19887
1.19888
1.1989
1.19895
1.199
1.19907
1.19913
1.19919
1.19924
1.19927
1.19928
1.19926
1.19921
1.19914
1.19905
1.19896
1.19887
1.1988
1.19876
1.19876
1.19881
1.19888
1.19904
1.19912
1.19939
1.19948
1.19947
1.19946
1.19944
1.19942
1.1994
1.19938
1.19936
1.19934
1.19932
1.1993
1.19929
1.19927
1.19926
1.19925
1.19924
1.19923
1.19922
1.19921
1.19921
1.1992
1.1992
1.19919
1.19919
1.19918
1.19918
1.19917
1.19917
1.19917
1.19916
1.19916
1.19915
1.19915
1.19914
1.19914
1.19913
1.19913
1.19913
1.19912
1.19911
1.19911
1.19911
1.19911
1.1991
1.1991
1.19909
1.19909
1.19908
1.19908
1.19908
1.19907
1.19907
1.19906
1.19906
1.19905
1.19905
1.19905
1.19905
1.19905
1.19905
1.19904
1.19904
1.19904
1.19904
1.19904
1.19903
1.19903
1.19903
1.19902
1.19902
1.19902
1.19902
1.19901
1.19901
1.19901
1.19901
1.19901
1.19901
1.19901
1.19901
1.19901
1.19901
1.19901
1.19901
1.19901
1.19901
1.19901
1.19901
1.19901
1.19901
1.19901
1.19901
1.19901
1.19901
1.19902
1.19902
1.19903
1.19904
1.19904
1.19905
1.19905
1.19906
1.19906
1.19906
1.19905
1.19905
1.19905
1.19905
1.19905
1.19905
1.19906
1.19906
1.19908
1.19909
1.19911
1.19912
1.19914
1.19915
1.19916
1.19916
)
;

boundaryField
{
    upperWall
    {
        type            calculated;
        value           nonuniform List<scalar> 
120
(
1.19948
1.19948
1.19947
1.19946
1.19945
1.19944
1.19942
1.19941
1.1994
1.19938
1.19937
1.19935
1.19934
1.19932
1.19931
1.1993
1.19928
1.19927
1.19926
1.19925
1.19924
1.19923
1.19922
1.19921
1.19921
1.1992
1.19919
1.19918
1.19918
1.19917
1.19917
1.19916
1.19915
1.19915
1.19914
1.19914
1.19913
1.19913
1.19912
1.19912
1.19911
1.19911
1.19911
1.1991
1.1991
1.19909
1.19909
1.19908
1.19908
1.19907
1.19907
1.19907
1.19906
1.19906
1.19905
1.19905
1.19905
1.19904
1.19904
1.19903
1.19903
1.19903
1.19902
1.19902
1.19902
1.19901
1.19901
1.199
1.199
1.199
1.19899
1.19899
1.19899
1.19898
1.19898
1.19898
1.19897
1.19897
1.19896
1.19896
1.19896
1.19895
1.19895
1.19895
1.19894
1.19894
1.19894
1.19893
1.19893
1.19893
1.19892
1.19892
1.19892
1.19891
1.19891
1.19891
1.1989
1.1989
1.19889
1.19889
1.19889
1.19888
1.19888
1.19888
1.19887
1.19887
1.19887
1.19886
1.19886
1.19886
1.19885
1.19885
1.19885
1.19884
1.19884
1.19884
1.19883
1.19883
1.19883
1.19882
)
;
    }
    lowerWall
    {
        type            calculated;
        value           nonuniform List<scalar> 
120
(
0.630922
0.8336
0.925799
0.967248
0.986766
0.995089
0.996822
0.994549
0.989465
0.982705
0.974357
0.965264
0.955601
0.945309
0.934709
0.92392
0.913039
0.902144
0.891303
0.880568
0.869984
0.859587
0.849407
0.839463
0.829772
0.820345
0.811188
0.802304
0.793696
0.785364
0.777302
0.769504
0.761957
0.754649
0.747568
0.740707
0.734061
0.727627
0.721395
0.715353
0.709481
0.703761
0.698177
0.692725
0.687413
0.682254
0.677246
0.672365
0.66757
0.662831
0.658141
0.653524
0.649012
0.644627
0.640359
0.636175
0.632034
0.6279
0.623761
0.619621
0.615506
0.611452
0.607503
0.603708
0.600108
0.596739
0.593621
0.590759
0.588141
0.585743
0.583535
0.581484
0.579561
0.577742
0.576009
0.574352
0.572764
0.571241
0.569783
0.568389
0.56706
0.565797
0.5646
0.56347
0.562408
0.561414
0.560488
0.559629
0.558838
0.558113
0.557453
0.556856
0.55632
0.555843
0.555421
0.555053
0.554735
0.554463
0.554235
0.554047
0.553895
0.553777
0.553689
0.55363
0.553596
0.553585
0.553595
0.553626
0.553673
0.553738
0.553814
0.553904
0.554
0.554106
0.554213
0.554323
0.554434
0.554537
0.554649
0.554732
)
;
    }
    inlet
    {
        type            calculated;
        value           nonuniform List<scalar> 
12
(
1.19949
1.19947
1.19946
1.19946
1.19945
1.19945
1.19945
1.19945
1.19945
1.19946
1.19947
1.19948
)
;
    }
    outlet
    {
        type            calculated;
        value           nonuniform List<scalar> 
12
(
0.663641
0.858518
1.02778
1.14835
1.19267
1.19952
1.19983
1.19979
1.19957
1.19869
1.19939
1.19916
)
;
    }
    frontAndBack
    {
        type            empty;
    }
}


// ************************************************************************* //
