/*--------------------------------*- C++ -*----------------------------------*\
  =========                 |
  \\      /  F ield         | OpenFOAM: The Open Source CFD Toolbox
   \\    /   O peration     | Website:  https://openfoam.org
    \\  /    A nd           | Version:  7
     \\/     M anipulation  |
\*---------------------------------------------------------------------------*/
FoamFile
{
    version     2.0;
    format      ascii;
    class       volScalarField;
    location    "0.25";
    object      rho;
}
// * * * * * * * * * * * * * * * * * * * * * * * * * * * * * * * * * * * * * //

dimensions      [1 -3 0 0 0 0 0];

internalField   nonuniform List<scalar> 
13200
(
1.21019
1.20977
1.2102
1.21023
1.21048
1.21035
1.2105
1.21035
1.21042
1.21026
1.2103
1.21017
1.2102
1.21012
1.21015
1.2101
1.21009
1.2101
1.20999
1.21023
1.21053
1.21039
1.21148
1.21202
1.21266
1.21256
1.21282
1.21261
1.21265
1.21232
1.21224
1.21195
1.21191
1.21176
1.21173
1.21171
1.21161
1.21178
1.21133
1.21231
1.21097
1.21104
1.21279
1.21414
1.21551
1.21563
1.21609
1.21591
1.21603
1.21552
1.21526
1.21466
1.2144
1.21407
1.21392
1.21389
1.21364
1.21398
1.21319
1.21458
1.21085
1.21085
1.21265
1.21445
1.21634
1.2168
1.21735
1.21732
1.21762
1.21726
1.21691
1.21608
1.21547
1.21486
1.21446
1.21434
1.21398
1.21429
1.21359
1.21453
1.21102
1.21099
1.21277
1.21468
1.21687
1.21753
1.21812
1.21814
1.2186
1.21848
1.21826
1.21738
1.21655
1.21566
1.21505
1.2147
1.21435
1.21442
1.21404
1.2144
1.21089
1.2108
1.21253
1.21445
1.21672
1.21748
1.21806
1.21805
1.21857
1.21863
1.21858
1.21775
1.21684
1.21576
1.21501
1.21447
1.21413
1.214
1.21381
1.21385
1.21098
1.21094
1.21269
1.21463
1.21692
1.21771
1.21828
1.21825
1.21879
1.21893
1.21899
1.21821
1.21729
1.21612
1.2153
1.21463
1.2143
1.21407
1.21396
1.21388
1.2109
1.21084
1.21262
1.21457
1.21685
1.21762
1.21817
1.21813
1.21868
1.21885
1.21895
1.21819
1.21728
1.21607
1.21523
1.2145
1.21417
1.21389
1.21381
1.21368
1.21094
1.21091
1.21273
1.21469
1.21697
1.21772
1.21826
1.21822
1.21877
1.21895
1.21906
1.21832
1.21741
1.21619
1.21533
1.21459
1.21425
1.21397
1.21388
1.21376
1.21091
1.21088
1.21271
1.21468
1.21694
1.21768
1.21822
1.21819
1.21874
1.21892
1.21903
1.21828
1.21738
1.21615
1.2153
1.21455
1.21421
1.21392
1.21383
1.21371
1.21091
1.21088
1.21271
1.21468
1.21694
1.21768
1.21822
1.21819
1.21874
1.21892
1.21903
1.21828
1.21738
1.21615
1.2153
1.21455
1.21421
1.21392
1.21383
1.21372
1.21094
1.21091
1.21273
1.21469
1.21697
1.21772
1.21826
1.21822
1.21877
1.21895
1.21907
1.21831
1.21741
1.21618
1.21534
1.21459
1.21426
1.21397
1.21388
1.21377
1.2109
1.21084
1.21262
1.21457
1.21685
1.21762
1.21817
1.21813
1.21868
1.21885
1.21895
1.21819
1.21729
1.21607
1.21523
1.2145
1.21417
1.21389
1.2138
1.2137
1.21098
1.21094
1.21269
1.21463
1.21692
1.21771
1.21828
1.21825
1.21879
1.21893
1.21899
1.2182
1.2173
1.21611
1.21532
1.21461
1.21432
1.21405
1.21397
1.21388
1.21089
1.2108
1.21253
1.21445
1.21672
1.21748
1.21806
1.21805
1.21857
1.21862
1.21858
1.21773
1.21686
1.21574
1.21505
1.21442
1.21418
1.21394
1.21387
1.2138
1.21102
1.21099
1.21277
1.21468
1.21687
1.21753
1.21812
1.21814
1.2186
1.21847
1.21827
1.21737
1.21658
1.21562
1.21511
1.21461
1.21447
1.21427
1.2142
1.21422
1.21085
1.21085
1.21265
1.21445
1.21634
1.2168
1.21735
1.21732
1.21763
1.21726
1.21692
1.21607
1.2155
1.21481
1.21454
1.21421
1.21417
1.21403
1.21393
1.2141
1.21097
1.21104
1.21279
1.21414
1.21551
1.21563
1.21609
1.21591
1.21603
1.21552
1.21527
1.21465
1.21442
1.21403
1.21399
1.21378
1.21382
1.21369
1.21365
1.21386
1.21053
1.21039
1.21148
1.21202
1.21266
1.21256
1.21282
1.21261
1.21265
1.21232
1.21224
1.21195
1.21191
1.21174
1.21176
1.21166
1.2117
1.21162
1.21162
1.21171
1.21019
1.20977
1.2102
1.21023
1.21048
1.21035
1.2105
1.21035
1.21042
1.21026
1.2103
1.21017
1.2102
1.21011
1.21015
1.21008
1.21012
1.21006
1.21008
1.21006
1.20869
1.20908
1.2095
1.21021
1.21022
1.21045
1.21029
1.21036
1.21013
1.21011
1.20992
1.20993
1.20981
1.20987
1.20979
1.20989
1.20974
1.20997
1.20955
1.21068
1.20887
1.20941
1.21053
1.21228
1.21288
1.21338
1.21329
1.21335
1.21295
1.21269
1.2122
1.21199
1.2117
1.21171
1.21153
1.21173
1.21139
1.21197
1.21097
1.21293
1.20855
1.20895
1.21011
1.21237
1.21345
1.21423
1.21425
1.2145
1.21415
1.21382
1.21304
1.21253
1.2119
1.21176
1.21139
1.21163
1.21118
1.21184
1.21087
1.21239
1.20875
1.20914
1.21033
1.21273
1.21406
1.21495
1.21506
1.21543
1.21531
1.21509
1.21424
1.21347
1.21255
1.21213
1.21161
1.21169
1.21132
1.21174
1.2112
1.21194
1.20856
1.20891
1.21006
1.21249
1.21387
1.2148
1.21489
1.21532
1.21536
1.21531
1.21452
1.21365
1.21254
1.21188
1.21123
1.21114
1.21083
1.21102
1.21079
1.21106
1.20869
1.20913
1.21031
1.21277
1.21415
1.21507
1.21515
1.21559
1.21572
1.21579
1.21508
1.21419
1.21299
1.21218
1.21146
1.21123
1.21097
1.21101
1.21095
1.211
1.20858
1.20897
1.21017
1.21263
1.21401
1.2149
1.21497
1.2154
1.21557
1.2157
1.21504
1.21415
1.21292
1.21203
1.21128
1.21097
1.21074
1.21072
1.21071
1.21067
1.20866
1.20909
1.21032
1.2128
1.21416
1.21505
1.21511
1.21555
1.21573
1.21587
1.21524
1.21435
1.21312
1.2122
1.21144
1.21109
1.21086
1.21082
1.21083
1.21078
1.20861
1.20902
1.21025
1.21273
1.21408
1.21496
1.21502
1.21546
1.21564
1.21579
1.21516
1.21427
1.21304
1.21211
1.21134
1.21099
1.21076
1.21071
1.21072
1.21068
1.20863
1.20906
1.2103
1.21279
1.21413
1.21501
1.21507
1.21551
1.21569
1.21584
1.21521
1.21431
1.21309
1.21215
1.21139
1.21103
1.21081
1.21076
1.21076
1.21073
1.20863
1.20906
1.2103
1.21279
1.21413
1.21501
1.21507
1.21551
1.21569
1.21584
1.21521
1.21431
1.21309
1.21215
1.21139
1.21103
1.21081
1.21076
1.21076
1.21074
1.20861
1.20902
1.21025
1.21273
1.21408
1.21496
1.21502
1.21546
1.21564
1.21579
1.21516
1.21426
1.21304
1.2121
1.21135
1.21099
1.21076
1.21071
1.21071
1.21069
1.20866
1.20909
1.21032
1.2128
1.21416
1.21505
1.21511
1.21555
1.21573
1.21587
1.21524
1.21434
1.21312
1.21219
1.21144
1.21108
1.21087
1.21082
1.21082
1.2108
1.20858
1.20897
1.21017
1.21263
1.21401
1.2149
1.21497
1.2154
1.21557
1.21569
1.21505
1.21414
1.21293
1.21202
1.2113
1.21095
1.21075
1.2107
1.21071
1.21068
1.20869
1.20913
1.21031
1.21277
1.21415
1.21507
1.21515
1.21558
1.21572
1.21579
1.21509
1.21418
1.21301
1.21216
1.21149
1.21119
1.21102
1.21097
1.21099
1.21096
1.20856
1.20891
1.21006
1.21249
1.21387
1.2148
1.21489
1.21531
1.21536
1.21531
1.21453
1.21364
1.21256
1.21184
1.21129
1.21105
1.21093
1.2109
1.21092
1.21092
1.20875
1.20914
1.21033
1.21273
1.21406
1.21495
1.21506
1.21543
1.21531
1.21508
1.21425
1.21345
1.21258
1.21207
1.2117
1.21156
1.2115
1.21149
1.2115
1.21156
1.20855
1.20895
1.21011
1.21237
1.21345
1.21423
1.21425
1.2145
1.21415
1.21382
1.21304
1.21251
1.21193
1.2117
1.21149
1.21146
1.21144
1.21146
1.21143
1.21161
1.20887
1.20941
1.21053
1.21228
1.21288
1.21338
1.21329
1.21335
1.21295
1.21269
1.21221
1.21198
1.21172
1.21167
1.2116
1.2116
1.21161
1.2116
1.21161
1.2118
1.20869
1.20908
1.2095
1.21021
1.21022
1.21045
1.21029
1.21036
1.21013
1.21011
1.20992
1.20993
1.20982
1.20986
1.20981
1.20984
1.20982
1.20983
1.20984
1.20992
1.20881
1.20947
1.21082
1.21186
1.2123
1.21241
1.21235
1.21219
1.21198
1.21178
1.21162
1.21153
1.21144
1.21146
1.21134
1.2115
1.21116
1.21177
1.21043
1.2135
1.20873
1.20913
1.21095
1.21308
1.21438
1.21497
1.21521
1.2152
1.21483
1.21422
1.21351
1.213
1.21253
1.2125
1.2121
1.21254
1.21178
1.2129
1.21119
1.21374
1.20873
1.20894
1.21069
1.21302
1.21458
1.21528
1.21563
1.21593
1.21593
1.21546
1.21455
1.2136
1.21267
1.21224
1.21172
1.21185
1.21141
1.21189
1.21124
1.21205
1.20872
1.20893
1.21069
1.21304
1.21461
1.21527
1.21562
1.21601
1.2162
1.21589
1.21501
1.21392
1.21285
1.21215
1.21162
1.21149
1.21128
1.21137
1.21123
1.21135
1.20872
1.20892
1.21071
1.21306
1.21462
1.21526
1.21559
1.216
1.21624
1.21598
1.21513
1.214
1.2129
1.21211
1.21159
1.21136
1.21122
1.2112
1.21118
1.21115
1.20871
1.20893
1.21075
1.21311
1.21464
1.21527
1.21561
1.21602
1.21627
1.21601
1.21518
1.21404
1.21294
1.21212
1.2116
1.21135
1.21122
1.21118
1.21117
1.21114
1.20871
1.20893
1.21076
1.21311
1.21464
1.21527
1.21561
1.21602
1.21626
1.21601
1.21517
1.21404
1.21294
1.21211
1.21159
1.21133
1.2112
1.21116
1.21115
1.21113
1.20871
1.20894
1.21078
1.21314
1.21465
1.21528
1.21562
1.21603
1.21627
1.21601
1.21518
1.21404
1.21295
1.21212
1.2116
1.21133
1.21121
1.21117
1.21115
1.21114
1.2087
1.20894
1.21078
1.21314
1.21465
1.21528
1.21562
1.21603
1.21627
1.216
1.21517
1.21403
1.21294
1.21211
1.21159
1.21133
1.2112
1.21116
1.21114
1.21114
1.2087
1.20894
1.21079
1.21314
1.21466
1.21528
1.21563
1.21603
1.21627
1.216
1.21517
1.21403
1.21294
1.21211
1.2116
1.21133
1.2112
1.21116
1.21114
1.21115
1.2087
1.20894
1.21079
1.21314
1.21466
1.21528
1.21563
1.21603
1.21627
1.216
1.21517
1.21403
1.21294
1.21211
1.2116
1.21133
1.2112
1.21116
1.21114
1.21115
1.2087
1.20894
1.21078
1.21314
1.21465
1.21528
1.21562
1.21603
1.21627
1.216
1.21517
1.21403
1.21294
1.21211
1.21159
1.21132
1.2112
1.21116
1.21114
1.21115
1.20871
1.20894
1.21078
1.21314
1.21465
1.21528
1.21562
1.21603
1.21627
1.21601
1.21518
1.21404
1.21295
1.21212
1.2116
1.21133
1.21121
1.21117
1.21114
1.21115
1.20871
1.20893
1.21076
1.21311
1.21464
1.21527
1.21561
1.21602
1.21626
1.21601
1.21517
1.21404
1.21294
1.21211
1.21159
1.21132
1.2112
1.21116
1.21114
1.21115
1.20871
1.20893
1.21075
1.21311
1.21464
1.21527
1.21561
1.21602
1.21627
1.21601
1.21518
1.21404
1.21295
1.21212
1.21161
1.21134
1.21123
1.21118
1.21116
1.21116
1.20872
1.20892
1.21071
1.21306
1.21462
1.21526
1.21559
1.216
1.21624
1.21597
1.21513
1.21399
1.21291
1.2121
1.21161
1.21134
1.21124
1.21118
1.21118
1.21117
1.20872
1.20893
1.21069
1.21304
1.21461
1.21527
1.21562
1.21601
1.2162
1.21588
1.21502
1.2139
1.21287
1.21211
1.21167
1.21142
1.21135
1.21128
1.21131
1.21127
1.20873
1.20894
1.21069
1.21302
1.21458
1.21527
1.21563
1.21593
1.21594
1.21545
1.21457
1.21357
1.21273
1.21215
1.21185
1.21167
1.21165
1.21158
1.21161
1.2116
1.20873
1.20913
1.21095
1.21308
1.21438
1.21497
1.21521
1.2152
1.21483
1.21421
1.21353
1.21297
1.2126
1.21238
1.2123
1.21223
1.21226
1.2122
1.21219
1.21234
1.20881
1.20947
1.21082
1.21186
1.2123
1.21241
1.21235
1.21219
1.21198
1.21178
1.21162
1.21152
1.21146
1.21142
1.21141
1.21138
1.21139
1.21133
1.21135
1.21144
1.20881
1.20947
1.21082
1.21186
1.2123
1.21242
1.21235
1.21219
1.21198
1.21178
1.21162
1.21153
1.21144
1.21146
1.21134
1.2115
1.21116
1.21177
1.21043
1.2135
1.20873
1.20913
1.21095
1.21308
1.21438
1.21497
1.21521
1.2152
1.21483
1.21422
1.21351
1.213
1.21253
1.2125
1.2121
1.21254
1.21178
1.2129
1.21119
1.21374
1.20873
1.20894
1.21069
1.21302
1.21458
1.21527
1.21563
1.21593
1.21593
1.21546
1.21455
1.2136
1.21267
1.21224
1.21172
1.21185
1.21141
1.21189
1.21124
1.21205
1.20872
1.20893
1.21069
1.21304
1.21461
1.21527
1.21562
1.21601
1.2162
1.21589
1.21501
1.21392
1.21285
1.21215
1.21162
1.21149
1.21128
1.21137
1.21123
1.21135
1.20872
1.20892
1.21071
1.21306
1.21462
1.21526
1.21559
1.216
1.21624
1.21598
1.21513
1.214
1.2129
1.21211
1.21159
1.21136
1.21122
1.2112
1.21118
1.21115
1.20871
1.20893
1.21075
1.21311
1.21464
1.21527
1.21561
1.21602
1.21627
1.21601
1.21518
1.21404
1.21294
1.21212
1.2116
1.21135
1.21122
1.21118
1.21117
1.21114
1.20871
1.20893
1.21076
1.21311
1.21464
1.21527
1.21561
1.21602
1.21626
1.21601
1.21517
1.21404
1.21294
1.21211
1.21159
1.21133
1.2112
1.21116
1.21115
1.21113
1.20871
1.20894
1.21078
1.21314
1.21465
1.21528
1.21562
1.21603
1.21627
1.21601
1.21518
1.21404
1.21294
1.21212
1.2116
1.21133
1.21121
1.21117
1.21115
1.21114
1.2087
1.20894
1.21078
1.21314
1.21465
1.21528
1.21562
1.21603
1.21627
1.216
1.21517
1.21403
1.21294
1.21211
1.21159
1.21133
1.2112
1.21116
1.21114
1.21114
1.2087
1.20894
1.21079
1.21314
1.21466
1.21528
1.21563
1.21603
1.21627
1.216
1.21517
1.21403
1.21294
1.21211
1.2116
1.21133
1.2112
1.21116
1.21114
1.21115
1.2087
1.20894
1.21079
1.21314
1.21466
1.21528
1.21563
1.21603
1.21627
1.216
1.21517
1.21403
1.21294
1.21211
1.2116
1.21133
1.2112
1.21116
1.21114
1.21115
1.2087
1.20894
1.21078
1.21314
1.21465
1.21528
1.21562
1.21603
1.21627
1.216
1.21517
1.21403
1.21294
1.21211
1.21159
1.21132
1.2112
1.21116
1.21114
1.21115
1.20871
1.20894
1.21078
1.21314
1.21465
1.21528
1.21562
1.21603
1.21627
1.21601
1.21518
1.21404
1.21295
1.21212
1.2116
1.21133
1.21121
1.21117
1.21114
1.21115
1.20871
1.20893
1.21076
1.21311
1.21464
1.21527
1.21561
1.21602
1.21626
1.21601
1.21517
1.21404
1.21294
1.21211
1.21159
1.21132
1.2112
1.21116
1.21114
1.21115
1.20871
1.20893
1.21075
1.21311
1.21464
1.21527
1.21561
1.21602
1.21627
1.21601
1.21518
1.21404
1.21295
1.21212
1.21161
1.21134
1.21123
1.21118
1.21116
1.21116
1.20872
1.20892
1.21071
1.21306
1.21462
1.21526
1.21559
1.216
1.21624
1.21597
1.21513
1.21399
1.21291
1.2121
1.21161
1.21134
1.21124
1.21118
1.21118
1.21117
1.20872
1.20893
1.21069
1.21304
1.21461
1.21527
1.21562
1.21601
1.2162
1.21588
1.21502
1.2139
1.21288
1.21211
1.21168
1.21142
1.21135
1.21128
1.21131
1.21127
1.20873
1.20894
1.21069
1.21302
1.21458
1.21527
1.21563
1.21593
1.21594
1.21545
1.21457
1.21357
1.21273
1.21215
1.21185
1.21167
1.21165
1.21158
1.21161
1.2116
1.20873
1.20913
1.21095
1.21308
1.21438
1.21497
1.21521
1.2152
1.21483
1.21421
1.21353
1.21297
1.2126
1.21238
1.2123
1.21223
1.21226
1.21221
1.21219
1.21234
1.20881
1.20947
1.21082
1.21186
1.2123
1.21241
1.21235
1.21219
1.21198
1.21178
1.21162
1.21152
1.21146
1.21142
1.21141
1.21138
1.21139
1.21133
1.21135
1.21144
1.20869
1.20908
1.2095
1.21021
1.21022
1.21045
1.21029
1.21036
1.21013
1.21011
1.20992
1.20993
1.20981
1.20987
1.20979
1.20989
1.20974
1.20997
1.20955
1.21068
1.20887
1.20941
1.21053
1.21228
1.21288
1.21338
1.21328
1.21335
1.21295
1.21269
1.2122
1.21199
1.2117
1.21171
1.21153
1.21173
1.21139
1.21197
1.21097
1.21293
1.20855
1.20895
1.21011
1.21237
1.21345
1.21423
1.21425
1.2145
1.21415
1.21382
1.21304
1.21253
1.2119
1.21176
1.21139
1.21163
1.21118
1.21184
1.21086
1.21239
1.20875
1.20914
1.21033
1.21273
1.21406
1.21495
1.21506
1.21543
1.21531
1.21509
1.21424
1.21347
1.21255
1.21213
1.21161
1.21169
1.21132
1.21174
1.2112
1.21194
1.20856
1.20891
1.21006
1.21249
1.21387
1.2148
1.21489
1.21532
1.21536
1.21531
1.21452
1.21365
1.21254
1.21188
1.21123
1.21113
1.21083
1.21102
1.21079
1.21106
1.20869
1.20913
1.21031
1.21277
1.21415
1.21507
1.21515
1.21559
1.21572
1.21579
1.21508
1.21419
1.21299
1.21218
1.21146
1.21122
1.21097
1.21101
1.21095
1.211
1.20858
1.20897
1.21017
1.21263
1.21401
1.2149
1.21497
1.2154
1.21557
1.2157
1.21504
1.21415
1.21292
1.21203
1.21128
1.21097
1.21074
1.21071
1.21071
1.21067
1.20866
1.20909
1.21032
1.2128
1.21416
1.21505
1.21511
1.21555
1.21573
1.21587
1.21524
1.21435
1.21312
1.2122
1.21144
1.21109
1.21086
1.21082
1.21083
1.21078
1.20861
1.20902
1.21025
1.21273
1.21408
1.21496
1.21502
1.21546
1.21564
1.21579
1.21516
1.21427
1.21304
1.21211
1.21134
1.21099
1.21076
1.21071
1.21072
1.21068
1.20863
1.20906
1.2103
1.21279
1.21413
1.21501
1.21507
1.21551
1.21569
1.21584
1.21521
1.21431
1.21309
1.21215
1.21139
1.21103
1.21081
1.21076
1.21076
1.21073
1.20863
1.20906
1.2103
1.21279
1.21413
1.21501
1.21507
1.21551
1.21569
1.21584
1.21521
1.21431
1.21309
1.21215
1.21139
1.21103
1.21081
1.21076
1.21076
1.21074
1.20861
1.20902
1.21025
1.21273
1.21408
1.21496
1.21502
1.21546
1.21564
1.21579
1.21516
1.21426
1.21304
1.2121
1.21135
1.21099
1.21076
1.21071
1.21071
1.21069
1.20866
1.20909
1.21032
1.2128
1.21416
1.21505
1.21511
1.21555
1.21573
1.21587
1.21524
1.21434
1.21312
1.21219
1.21144
1.21108
1.21087
1.21082
1.21082
1.2108
1.20858
1.20897
1.21017
1.21263
1.21401
1.2149
1.21497
1.2154
1.21557
1.21569
1.21505
1.21414
1.21293
1.21202
1.2113
1.21095
1.21075
1.2107
1.21071
1.21068
1.20869
1.20913
1.21031
1.21277
1.21415
1.21507
1.21515
1.21558
1.21572
1.21579
1.21509
1.21418
1.21301
1.21216
1.21149
1.21119
1.21102
1.21097
1.21099
1.21096
1.20856
1.20891
1.21006
1.21249
1.21387
1.2148
1.21489
1.21531
1.21536
1.21531
1.21453
1.21364
1.21256
1.21184
1.21129
1.21106
1.21093
1.2109
1.21092
1.21092
1.20875
1.20914
1.21033
1.21273
1.21406
1.21495
1.21506
1.21543
1.21531
1.21508
1.21425
1.21345
1.21258
1.21207
1.2117
1.21156
1.21151
1.21149
1.2115
1.21156
1.20855
1.20895
1.21011
1.21237
1.21345
1.21423
1.21425
1.2145
1.21415
1.21382
1.21304
1.21251
1.21193
1.2117
1.21149
1.21147
1.21144
1.21146
1.21143
1.21161
1.20887
1.20941
1.21053
1.21228
1.21288
1.21338
1.21329
1.21335
1.21295
1.21269
1.21221
1.21198
1.21172
1.21167
1.2116
1.2116
1.21161
1.2116
1.21161
1.2118
1.20869
1.20908
1.2095
1.21021
1.21022
1.21045
1.21029
1.21036
1.21013
1.21011
1.20992
1.20993
1.20982
1.20986
1.20981
1.20984
1.20982
1.20983
1.20984
1.20992
1.21019
1.20977
1.2102
1.21023
1.21048
1.21035
1.2105
1.21035
1.21042
1.21026
1.2103
1.21017
1.2102
1.21012
1.21015
1.2101
1.21009
1.2101
1.20999
1.21023
1.21053
1.21039
1.21148
1.21202
1.21266
1.21256
1.21282
1.21261
1.21265
1.21232
1.21224
1.21195
1.21191
1.21176
1.21174
1.21171
1.21161
1.21178
1.21133
1.21231
1.21097
1.21104
1.21279
1.21414
1.21551
1.21563
1.21609
1.21591
1.21603
1.21553
1.21526
1.21466
1.2144
1.21407
1.21392
1.21389
1.21364
1.21398
1.21319
1.21458
1.21085
1.21085
1.21265
1.21445
1.21634
1.2168
1.21735
1.21732
1.21762
1.21726
1.21691
1.21608
1.21547
1.21486
1.21446
1.21434
1.21398
1.21429
1.21359
1.21453
1.21102
1.21099
1.21277
1.21468
1.21687
1.21753
1.21812
1.21814
1.2186
1.21848
1.21826
1.21738
1.21655
1.21566
1.21505
1.2147
1.21435
1.21442
1.21404
1.2144
1.21089
1.2108
1.21253
1.21445
1.21672
1.21748
1.21806
1.21805
1.21857
1.21863
1.21858
1.21775
1.21684
1.21576
1.21501
1.21446
1.21413
1.214
1.21381
1.21385
1.21098
1.21094
1.21269
1.21463
1.21692
1.21771
1.21828
1.21825
1.21879
1.21893
1.21899
1.21821
1.21729
1.21612
1.2153
1.21463
1.2143
1.21407
1.21396
1.21388
1.2109
1.21084
1.21262
1.21457
1.21685
1.21762
1.21817
1.21813
1.21868
1.21885
1.21895
1.21819
1.21728
1.21607
1.21523
1.2145
1.21417
1.21389
1.21381
1.21368
1.21094
1.21091
1.21273
1.21469
1.21697
1.21772
1.21826
1.21822
1.21877
1.21895
1.21906
1.21832
1.21741
1.21619
1.21533
1.21459
1.21425
1.21397
1.21388
1.21376
1.21091
1.21088
1.21271
1.21468
1.21694
1.21768
1.21822
1.21819
1.21874
1.21892
1.21903
1.21828
1.21738
1.21615
1.2153
1.21455
1.21421
1.21392
1.21383
1.21371
1.21091
1.21088
1.21271
1.21468
1.21694
1.21768
1.21822
1.21819
1.21874
1.21892
1.21903
1.21828
1.21738
1.21615
1.2153
1.21455
1.21421
1.21392
1.21383
1.21372
1.21094
1.21091
1.21273
1.21469
1.21697
1.21772
1.21826
1.21822
1.21877
1.21895
1.21907
1.21831
1.21741
1.21618
1.21534
1.21459
1.21426
1.21397
1.21388
1.21377
1.2109
1.21084
1.21262
1.21457
1.21685
1.21762
1.21817
1.21813
1.21868
1.21885
1.21895
1.21819
1.21729
1.21607
1.21523
1.2145
1.21417
1.21389
1.2138
1.2137
1.21098
1.21094
1.21269
1.21463
1.21692
1.21771
1.21828
1.21825
1.21879
1.21893
1.21899
1.2182
1.2173
1.21611
1.21532
1.21461
1.21432
1.21405
1.21397
1.21388
1.21089
1.2108
1.21253
1.21445
1.21672
1.21748
1.21806
1.21805
1.21857
1.21862
1.21858
1.21773
1.21686
1.21574
1.21505
1.21442
1.21418
1.21394
1.21387
1.2138
1.21102
1.21099
1.21277
1.21468
1.21687
1.21753
1.21812
1.21814
1.2186
1.21847
1.21827
1.21737
1.21658
1.21562
1.21511
1.21461
1.21447
1.21427
1.2142
1.21422
1.21085
1.21085
1.21265
1.21445
1.21634
1.2168
1.21735
1.21732
1.21763
1.21726
1.21692
1.21607
1.2155
1.21481
1.21454
1.21421
1.21416
1.21403
1.21393
1.2141
1.21097
1.21104
1.21279
1.21414
1.21551
1.21563
1.21609
1.21591
1.21603
1.21552
1.21526
1.21465
1.21442
1.21403
1.21399
1.21378
1.21382
1.21369
1.21365
1.21386
1.21053
1.21039
1.21148
1.21202
1.21266
1.21256
1.21282
1.21261
1.21265
1.21232
1.21224
1.21195
1.21191
1.21174
1.21176
1.21166
1.2117
1.21162
1.21162
1.21171
1.21019
1.20977
1.2102
1.21023
1.21048
1.21035
1.2105
1.21035
1.21042
1.21026
1.2103
1.21017
1.2102
1.21011
1.21015
1.21008
1.21012
1.21006
1.21008
1.21006
1.20265
1.1959
1.194
1.19343
1.19348
1.19331
1.19334
1.19316
1.19316
1.19304
1.19309
1.19303
1.19309
1.19302
1.19303
1.19292
1.19293
1.19288
1.19294
1.19293
1.193
1.19298
1.19301
1.19295
1.19295
1.1929
1.19293
1.19293
1.19302
1.19307
1.19315
1.19316
1.19317
1.19312
1.19311
1.19309
1.19315
1.19321
1.19334
1.19342
1.19352
1.19356
1.19358
1.19354
1.19352
1.1935
1.19356
1.19364
1.1938
1.19395
1.19412
1.19425
1.19435
1.19438
1.19438
1.19434
1.19433
1.19434
1.19443
1.19457
1.19479
1.19504
1.19533
1.1956
1.19584
1.19603
1.19616
1.19623
1.19628
1.1963
1.19633
1.1964
1.19653
1.19674
1.19705
1.19746
1.19796
1.19855
1.19923
1.19998
1.20077
1.20161
1.20244
1.2033
1.20411
1.20497
1.20572
1.20655
1.20721
1.20806
1.2049
1.19821
1.19622
1.19561
1.19564
1.19548
1.19551
1.19532
1.19533
1.1952
1.19525
1.1952
1.19526
1.19518
1.19519
1.19509
1.1951
1.19505
1.1951
1.1951
1.19516
1.19514
1.19517
1.19512
1.19512
1.19507
1.1951
1.1951
1.19518
1.19523
1.19532
1.19532
1.19533
1.19528
1.19527
1.19525
1.19531
1.19538
1.1955
1.19559
1.19569
1.19572
1.19574
1.1957
1.19568
1.19566
1.19572
1.1958
1.19596
1.19611
1.19628
1.19641
1.19651
1.19654
1.19654
1.1965
1.19649
1.1965
1.19659
1.19673
1.19695
1.1972
1.19748
1.19775
1.198
1.19818
1.19832
1.19839
1.19843
1.19845
1.19848
1.19854
1.19868
1.19888
1.19919
1.1996
1.20011
1.2007
1.20138
1.20213
1.20292
1.20376
1.20458
1.20545
1.20626
1.20713
1.20787
1.20871
1.20937
1.21022
1.20867
1.20237
1.20025
1.19953
1.19954
1.19935
1.19938
1.19919
1.19919
1.19906
1.19911
1.19905
1.19911
1.19903
1.19904
1.19894
1.19894
1.19889
1.19894
1.19893
1.199
1.19898
1.19901
1.19895
1.19895
1.1989
1.19893
1.19893
1.19901
1.19906
1.19915
1.19915
1.19916
1.1991
1.19909
1.19907
1.19914
1.1992
1.19932
1.19941
1.19951
1.19954
1.19956
1.19952
1.1995
1.19948
1.19953
1.19962
1.19977
1.19992
1.2001
1.20022
1.20032
1.20035
1.20035
1.20031
1.2003
1.20031
1.2004
1.20054
1.20076
1.20101
1.2013
1.20156
1.20181
1.202
1.20213
1.2022
1.20224
1.20226
1.2023
1.20236
1.20249
1.2027
1.20301
1.20342
1.20392
1.20452
1.2052
1.20595
1.20674
1.20758
1.20841
1.20928
1.2101
1.21096
1.21171
1.21255
1.21322
1.21407
1.21121
1.20597
1.20382
1.20299
1.20294
1.20275
1.20277
1.20259
1.20258
1.20246
1.2025
1.20244
1.2025
1.20242
1.20243
1.20232
1.20233
1.20227
1.20233
1.20232
1.20239
1.20236
1.20239
1.20234
1.20234
1.20228
1.20231
1.20231
1.20239
1.20244
1.20252
1.20253
1.20254
1.20248
1.20247
1.20245
1.20251
1.20257
1.20269
1.20277
1.20288
1.20291
1.20293
1.20289
1.20287
1.20284
1.20289
1.20298
1.20313
1.20328
1.20346
1.20358
1.20368
1.2037
1.2037
1.20366
1.20365
1.20366
1.20375
1.20389
1.20411
1.20435
1.20464
1.20491
1.20515
1.20534
1.20547
1.20554
1.20558
1.2056
1.20563
1.2057
1.20583
1.20604
1.20634
1.20676
1.20726
1.20786
1.20854
1.2093
1.21009
1.21093
1.21177
1.21264
1.21345
1.21433
1.21507
1.21591
1.21659
1.21743
1.21301
1.20918
1.20726
1.20634
1.20625
1.20603
1.20605
1.20585
1.20585
1.20571
1.20575
1.20569
1.20575
1.20566
1.20567
1.20556
1.20556
1.2055
1.20556
1.20555
1.20561
1.20559
1.20561
1.20555
1.20555
1.2055
1.20552
1.20552
1.2056
1.20565
1.20573
1.20573
1.20574
1.20568
1.20567
1.20565
1.20571
1.20577
1.20589
1.20598
1.20608
1.20611
1.20613
1.20608
1.20606
1.20604
1.20609
1.20617
1.20632
1.20647
1.20665
1.20677
1.20687
1.2069
1.2069
1.20685
1.20684
1.20685
1.20694
1.20708
1.2073
1.20754
1.20783
1.2081
1.20835
1.20853
1.20867
1.20873
1.20878
1.2088
1.20883
1.20889
1.20902
1.20923
1.20954
1.20995
1.21046
1.21106
1.21174
1.2125
1.21329
1.21413
1.21497
1.21584
1.21666
1.21753
1.21828
1.21912
1.2198
1.22064
1.21339
1.21081
1.20927
1.20839
1.20826
1.20804
1.20805
1.20786
1.20784
1.20771
1.20776
1.20769
1.20775
1.20767
1.20767
1.20757
1.20757
1.20751
1.20757
1.20756
1.20762
1.20759
1.20762
1.20756
1.20756
1.20751
1.20753
1.20753
1.20761
1.20766
1.20774
1.20774
1.20775
1.20769
1.20768
1.20766
1.20772
1.20778
1.2079
1.20798
1.20808
1.20812
1.20814
1.20809
1.20807
1.20804
1.2081
1.20818
1.20833
1.20848
1.20866
1.20878
1.20888
1.2089
1.2089
1.20886
1.20885
1.20886
1.20894
1.20908
1.2093
1.20955
1.20984
1.21011
1.21035
1.21054
1.21067
1.21074
1.21078
1.2108
1.21083
1.21089
1.21103
1.21123
1.21154
1.21196
1.21246
1.21306
1.21375
1.21451
1.2153
1.21615
1.21698
1.21785
1.21867
1.21955
1.2203
1.22114
1.22182
1.22266
1.21375
1.21204
1.21094
1.21013
1.21
1.20976
1.20976
1.20956
1.20954
1.20941
1.20945
1.20938
1.20944
1.20935
1.20935
1.20924
1.20924
1.20919
1.20924
1.20923
1.20929
1.20927
1.20929
1.20923
1.20923
1.20918
1.2092
1.2092
1.20928
1.20933
1.20941
1.20941
1.20942
1.20936
1.20935
1.20933
1.20939
1.20945
1.20957
1.20965
1.20975
1.20979
1.20981
1.20976
1.20974
1.20971
1.20977
1.20985
1.21
1.21015
1.21033
1.21045
1.21055
1.21058
1.21058
1.21053
1.21052
1.21053
1.21062
1.21076
1.21098
1.21123
1.21152
1.21178
1.21203
1.21221
1.21235
1.21242
1.21246
1.21248
1.21251
1.21258
1.21271
1.21292
1.21323
1.21364
1.21415
1.21475
1.21543
1.21619
1.21698
1.21783
1.21867
1.21954
1.22036
1.22124
1.22199
1.22283
1.22351
1.22435
1.21363
1.21245
1.21171
1.21102
1.21091
1.21067
1.21066
1.21046
1.21045
1.21031
1.21035
1.21029
1.21034
1.21026
1.21026
1.21015
1.21015
1.2101
1.21015
1.21014
1.21021
1.21018
1.21021
1.21015
1.21015
1.2101
1.21012
1.21012
1.2102
1.21025
1.21034
1.21034
1.21035
1.21029
1.21027
1.21025
1.21031
1.21037
1.2105
1.21058
1.21068
1.21071
1.21073
1.21069
1.21067
1.21064
1.21069
1.21078
1.21093
1.21108
1.21126
1.21138
1.21148
1.21151
1.2115
1.21146
1.21145
1.21146
1.21155
1.21169
1.21191
1.21216
1.21245
1.21271
1.21296
1.21314
1.21328
1.21335
1.21339
1.21341
1.21344
1.2135
1.21364
1.21384
1.21415
1.21457
1.21508
1.21568
1.21636
1.21712
1.21792
1.21877
1.2196
1.22048
1.2213
1.22218
1.22292
1.22377
1.22445
1.22529
1.21368
1.2128
1.21235
1.21178
1.2117
1.21145
1.21145
1.21124
1.21122
1.21108
1.21111
1.21104
1.2111
1.21101
1.21101
1.2109
1.2109
1.21084
1.21089
1.21088
1.21095
1.21092
1.21095
1.21089
1.21089
1.21084
1.21086
1.21086
1.21094
1.21099
1.21108
1.21108
1.21109
1.21103
1.21101
1.21099
1.21105
1.21111
1.21124
1.21132
1.21142
1.21145
1.21147
1.21143
1.21141
1.21138
1.21144
1.21152
1.21167
1.21182
1.212
1.21212
1.21222
1.21225
1.21225
1.21221
1.2122
1.21221
1.21229
1.21243
1.21265
1.2129
1.21319
1.21346
1.21371
1.21389
1.21403
1.2141
1.21414
1.21416
1.21419
1.21425
1.21439
1.2146
1.21491
1.21532
1.21583
1.21643
1.21711
1.21787
1.21867
1.21952
1.22035
1.22123
1.22205
1.22293
1.22367
1.22452
1.2252
1.22603
1.21361
1.21289
1.21263
1.21216
1.21212
1.21187
1.21186
1.21165
1.21163
1.21148
1.21152
1.21145
1.2115
1.21141
1.21141
1.2113
1.2113
1.21125
1.2113
1.21129
1.21136
1.21133
1.21136
1.2113
1.2113
1.21125
1.21127
1.21127
1.21136
1.2114
1.21149
1.21149
1.2115
1.21144
1.21143
1.21141
1.21147
1.21153
1.21165
1.21174
1.21184
1.21187
1.21189
1.21185
1.21182
1.2118
1.21185
1.21193
1.21209
1.21224
1.21241
1.21254
1.21264
1.21266
1.21266
1.21262
1.21261
1.21261
1.2127
1.21284
1.21306
1.21331
1.2136
1.21387
1.21411
1.2143
1.21443
1.2145
1.21454
1.21456
1.21459
1.21465
1.21479
1.21499
1.2153
1.21572
1.21623
1.21683
1.21751
1.21827
1.21907
1.21992
1.22075
1.22163
1.22245
1.22333
1.22408
1.22492
1.2256
1.22643
1.21358
1.21296
1.21283
1.21244
1.21243
1.21219
1.21219
1.21198
1.21196
1.21181
1.21185
1.21177
1.21183
1.21173
1.21174
1.21163
1.21163
1.21157
1.21162
1.21162
1.21168
1.21166
1.21168
1.21163
1.21163
1.21157
1.21159
1.21159
1.21168
1.21172
1.21181
1.21181
1.21182
1.21176
1.21175
1.21173
1.21179
1.21185
1.21197
1.21205
1.21215
1.21218
1.2122
1.21216
1.21214
1.21211
1.21216
1.21224
1.2124
1.21255
1.21272
1.21284
1.21294
1.21297
1.21296
1.21292
1.21291
1.21292
1.213
1.21314
1.21336
1.21361
1.2139
1.21416
1.21441
1.21459
1.21473
1.21479
1.21484
1.21485
1.21488
1.21495
1.21508
1.21528
1.21559
1.21601
1.21652
1.21711
1.2178
1.21856
1.21935
1.2202
1.22104
1.22191
1.22273
1.22361
1.22435
1.2252
1.22588
1.22671
1.21362
1.21305
1.21302
1.2127
1.21272
1.21249
1.21249
1.21228
1.21226
1.21212
1.21216
1.21209
1.21214
1.21205
1.21205
1.21194
1.21194
1.21188
1.21193
1.21192
1.21198
1.21196
1.21198
1.21192
1.21192
1.21187
1.21189
1.21188
1.21197
1.21201
1.2121
1.21209
1.2121
1.21204
1.21203
1.21201
1.21206
1.21212
1.21224
1.21232
1.21242
1.21245
1.21247
1.21243
1.2124
1.21237
1.21243
1.21251
1.21266
1.21281
1.21298
1.2131
1.2132
1.21322
1.21322
1.21318
1.21316
1.21317
1.21325
1.21339
1.21361
1.21386
1.21414
1.21441
1.21465
1.21484
1.21497
1.21504
1.21508
1.21509
1.21512
1.21518
1.21531
1.21552
1.21583
1.21624
1.21675
1.21734
1.21802
1.21878
1.21957
1.22042
1.22125
1.22213
1.22294
1.22382
1.22456
1.22541
1.22609
1.22691
1.21353
1.21302
1.21306
1.21279
1.21283
1.21262
1.21262
1.21243
1.21241
1.21228
1.21231
1.21225
1.2123
1.21222
1.21222
1.21211
1.21211
1.21205
1.2121
1.21209
1.21216
1.21213
1.21215
1.2121
1.21209
1.21203
1.21205
1.21205
1.21213
1.21218
1.21226
1.21226
1.21226
1.2122
1.21219
1.21216
1.21222
1.21228
1.21239
1.21247
1.21257
1.2126
1.21262
1.21257
1.21254
1.21251
1.21256
1.21264
1.21279
1.21294
1.21311
1.21323
1.21333
1.21335
1.21334
1.21329
1.21328
1.21328
1.21336
1.2135
1.21372
1.21396
1.21425
1.21451
1.21475
1.21493
1.21507
1.21513
1.21516
1.21518
1.21521
1.21526
1.21539
1.21559
1.2159
1.21631
1.21681
1.21741
1.21809
1.21885
1.21964
1.22048
1.22131
1.22219
1.223
1.22388
1.22462
1.22546
1.22614
1.22696
1.21368
1.21322
1.21331
1.21309
1.21315
1.21295
1.21296
1.21276
1.21275
1.21261
1.21265
1.21258
1.21264
1.21255
1.21255
1.21244
1.21244
1.21238
1.21243
1.21241
1.21248
1.21245
1.21247
1.21241
1.2124
1.21234
1.21236
1.21236
1.21244
1.21248
1.21256
1.21255
1.21256
1.21249
1.21248
1.21245
1.21251
1.21256
1.21268
1.21276
1.21285
1.21288
1.21289
1.21284
1.21282
1.21278
1.21283
1.21291
1.21306
1.2132
1.21337
1.21349
1.21358
1.2136
1.21359
1.21354
1.21353
1.21353
1.21361
1.21374
1.21395
1.2142
1.21448
1.21474
1.21498
1.21516
1.21529
1.21535
1.21539
1.2154
1.21542
1.21548
1.2156
1.21581
1.21611
1.21652
1.21702
1.21761
1.21829
1.21904
1.21983
1.22067
1.2215
1.22237
1.22318
1.22406
1.2248
1.22563
1.22631
1.22713
1.21349
1.21306
1.21317
1.21301
1.21308
1.2129
1.21291
1.21273
1.21271
1.21259
1.21263
1.21257
1.21262
1.21254
1.21254
1.21243
1.21243
1.21237
1.21242
1.21241
1.21247
1.21244
1.21247
1.21241
1.2124
1.21234
1.21236
1.21235
1.21243
1.21247
1.21255
1.21255
1.21255
1.21249
1.21247
1.21244
1.2125
1.21255
1.21267
1.21275
1.21284
1.21286
1.21288
1.21283
1.2128
1.21276
1.21281
1.21289
1.21303
1.21318
1.21334
1.21346
1.21355