/*--------------------------------*- C++ -*----------------------------------*\
  =========                 |
  \\      /  F ield         | OpenFOAM: The Open Source CFD Toolbox
   \\    /   O peration     | Website:  https://openfoam.org
    \\  /    A nd           | Version:  7
     \\/     M anipulation  |
\*---------------------------------------------------------------------------*/
FoamFile
{
    version     2.0;
    format      ascii;
    class       volScalarField;
    location    "2.355";
    object      T;
}
// * * * * * * * * * * * * * * * * * * * * * * * * * * * * * * * * * * * * * //

dimensions      [0 0 0 1 0 0 0];

internalField   nonuniform List<scalar> 
4950
(
282.919
282.981
282.988
283.031
283.014
283.042
283.026
283.048
283.036
283.053
283.042
283.055
283.047
283.055
283.05
283.054
283.057
283.045
283.081
282.979
282.888
282.895
282.895
282.934
282.934
282.961
282.962
282.981
282.984
282.996
282.998
283.004
283.007
283.005
283.013
282.996
283.028
282.965
283.084
282.863
282.852
282.828
282.77
282.797
282.763
282.79
282.769
282.795
282.783
282.807
282.8
282.819
282.816
282.826
282.829
282.825
282.842
282.812
282.86
282.782
282.886
282.869
282.835
282.846
282.829
282.839
282.832
282.841
282.843
282.851
282.855
282.862
282.867
282.871
282.876
282.874
282.881
282.872
282.88
282.864
282.853
282.825
282.76
282.778
282.738
282.757
282.731
282.75
282.734
282.753
282.744
282.761
282.756
282.77
282.766
282.776
282.771
282.777
282.77
282.769
282.886
282.869
282.835
282.846
282.829
282.839
282.832
282.841
282.842
282.852
282.855
282.863
282.866
282.872
282.874
282.877
282.877
282.876
282.875
282.869
282.852
282.828
282.77
282.797
282.763
282.79
282.769
282.796
282.783
282.808
282.799
282.82
282.814
282.83
282.823
282.834
282.827
282.834
282.829
282.825
282.888
282.895
282.895
282.934
282.934
282.961
282.962
282.981
282.984
282.997
282.998
283.006
283.004
283.009
283.006
283.009
283.006
283.007
283.006
283.005
282.919
282.981
282.988
283.031
283.014
283.042
283.026
283.049
283.036
283.053
283.042
283.056
283.046
283.057
283.048
283.057
283.051
283.058
283.052
283.062
283.203
283.198
283.258
283.24
283.284
283.26
283.293
283.269
283.294
283.271
283.292
283.271
283.288
283.267
283.286
283.259
283.292
283.231
283.363
283.017
283.17
283.143
283.17
283.158
283.183
283.178
283.198
283.198
283.212
283.211
283.222
283.218
283.229
283.216
283.234
283.202
283.249
283.164
283.298
283.07
283.207
283.188
283.243
283.219
283.259
283.242
283.277
283.265
283.295
283.285
283.309
283.298
283.319
283.302
283.323
283.295
283.324
283.278
283.327
283.258
283.169
283.14
283.165
283.149
283.167
283.16
283.173
283.172
283.183
283.184
283.194
283.195
283.203
283.202
283.208
283.203
283.207
283.197
283.198
283.189
283.206
283.189
283.244
283.219
283.256
283.237
283.267
283.254
283.278
283.268
283.288
283.28
283.295
283.287
283.297
283.287
283.293
283.282
283.282
283.279
283.169
283.14
283.165
283.149
283.167
283.16
283.173
283.173
283.182
283.185
283.193
283.196
283.202
283.203
283.207
283.205
283.204
283.2
283.195
283.192
283.207
283.188
283.243
283.219
283.259
283.243
283.277
283.266
283.294
283.285
283.308
283.3
283.316
283.306
283.316
283.305
283.31
283.298
283.3
283.293
283.17
283.143
283.17
283.158
283.183
283.179
283.198
283.198
283.211
283.212
283.221
283.22
283.225
283.222
283.224
283.219
283.219
283.215
283.214
283.213
283.203
283.198
283.258
283.24
283.284
283.26
283.293
283.269
283.294
283.272
283.291
283.272
283.287
283.27
283.281
283.267
283.276
283.265
283.273
283.262
283.151
283.147
283.158
283.16
283.176
283.182
283.197
283.199
283.209
283.206
283.212
283.206
283.214
283.201
283.222
283.184
283.257
283.111
283.409
282.81
283.15
283.143
283.144
283.142
283.149
283.153
283.164
283.171
283.184
283.188
283.202
283.198
283.215
283.196
283.226
283.179
283.245
283.142
283.286
283.082
283.151
283.145
283.15
283.15
283.158
283.162
283.173
283.18
283.193
283.199
283.213
283.216
283.229
283.226
283.239
283.227
283.242
283.221
283.239
283.213
283.15
283.143
283.143
283.141
283.144
283.147
283.153
283.159
283.167
283.173
283.181
283.187
283.193
283.196
283.2
283.199
283.199
283.196
283.191
283.191
283.151
283.145
283.15
283.15
283.158
283.161
283.171
283.178
283.188
283.195
283.204
283.21
283.217
283.221
283.225
283.225
283.224
283.222
283.218
283.216
283.15
283.143
283.143
283.141
283.144
283.147
283.153
283.159
283.167
283.174
283.181
283.187
283.193
283.196
283.199
283.199
283.199
283.195
283.193
283.187
283.151
283.145
283.15
283.15
283.158
283.162
283.173
283.18
283.192
283.2
283.211
283.218
283.226
283.23
283.234
283.233
283.234
283.23
283.229
283.223
283.15
283.143
283.144
283.143
283.149
283.154
283.164
283.172
283.183
283.19
283.198
283.203
283.207
283.208
283.208
283.206
283.204
283.202
283.201
283.2
283.151
283.147
283.157
283.161
283.176
283.182
283.196
283.2
283.209
283.207
283.211
283.208
283.211
283.208
283.21
283.208
283.209
283.208
283.209
283.211
283.203
283.198
283.258
283.24
283.284
283.26
283.293
283.269
283.294
283.271
283.292
283.271
283.288
283.267
283.286
283.259
283.292
283.231
283.363
283.017
283.17
283.143
283.17
283.158
283.183
283.178
283.198
283.198
283.212
283.211
283.222
283.218
283.229
283.216
283.234
283.202
283.249
283.164
283.298
283.07
283.207
283.188
283.243
283.219
283.259
283.242
283.277
283.265
283.295
283.285
283.309
283.298
283.319
283.302
283.323
283.295
283.324
283.278
283.327
283.258
283.169
283.14
283.165
283.149
283.167
283.16
283.173
283.172
283.183
283.184
283.194
283.195
283.203
283.202
283.208
283.203
283.207
283.197
283.198
283.189
283.206
283.189
283.244
283.219
283.256
283.237
283.267
283.254
283.278
283.268
283.288
283.28
283.295
283.287
283.297
283.287
283.293
283.282
283.282
283.279
283.169
283.14
283.165
283.149
283.167
283.16
283.173
283.173
283.182
283.185
283.193
283.196
283.202
283.203
283.207
283.205
283.204
283.2
283.195
283.192
283.207
283.188
283.243
283.219
283.259
283.243
283.277
283.266
283.294
283.285
283.308
283.3
283.316
283.306
283.316
283.305
283.31
283.298
283.3
283.293
283.17
283.143
283.17
283.158
283.183
283.179
283.198
283.198
283.211
283.212
283.221
283.22
283.225
283.222
283.224
283.219
283.219
283.215
283.214
283.213
283.203
283.198
283.258
283.24
283.284
283.26
283.293
283.269
283.294
283.272
283.291
283.272
283.287
283.27
283.281
283.267
283.276
283.265
283.273
283.262
282.919
282.981
282.988
283.031
283.014
283.042
283.026
283.048
283.036
283.053
283.042
283.055
283.047
283.055
283.05
283.054
283.057
283.045
283.081
282.979
282.888
282.895
282.895
282.934
282.934
282.961
282.962
282.981
282.984
282.996
282.998
283.004
283.007
283.005
283.013
282.996
283.028
282.965
283.084
282.863
282.852
282.828
282.77
282.797
282.763
282.79
282.769
282.795
282.783
282.807
282.8
282.819
282.816
282.826
282.829
282.825
282.842
282.812
282.86
282.782
282.886
282.869
282.835
282.846
282.829
282.839
282.832
282.841
282.843
282.851
282.855
282.862
282.867
282.871
282.876
282.874
282.881
282.872
282.88
282.864
282.853
282.825
282.76
282.778
282.738
282.757
282.731
282.75
282.734
282.753
282.744
282.761
282.756
282.77
282.766
282.776
282.771
282.777
282.77
282.769
282.886
282.869
282.835
282.846
282.829
282.839
282.832
282.841
282.842
282.852
282.855
282.863
282.866
282.872
282.874
282.877
282.877
282.876
282.875
282.869
282.852
282.828
282.77
282.797
282.763
282.79
282.769
282.796
282.783
282.808
282.799
282.82
282.814
282.83
282.823
282.834
282.827
282.834
282.829
282.825
282.888
282.895
282.895
282.934
282.934
282.961
282.962
282.981
282.984
282.997
282.998
283.006
283.004
283.009
283.006
283.009
283.006
283.007
283.006
283.005
282.919
282.981
282.988
283.031
283.014
283.042
283.026
283.049
283.036
283.053
283.042
283.056
283.046
283.057
283.048
283.057
283.051
283.058
283.052
283.062
284.695
286.018
286.892
287.598
288.172
288.694
289.155
289.592
289.987
290.363
290.71
291.045
291.361
291.667
291.956
292.235
292.499
292.753
292.997
293.23
293.453
293.665
293.864
294.053
294.229
294.392
294.543
294.679
294.802
294.911
295.006
295.088
295.157
295.214
295.26
295.297
295.325
295.345
295.36
295.37
295.376
295.381
295.383
295.384
295.385
295.385
295.386
295.385
295.385
295.385
295.385
295.385
295.385
295.384
295.384
295.384
295.384
295.384
295.383
295.383
295.383
295.383
295.383
295.383
295.383
295.382
295.382
295.382
295.382
295.382
295.382
295.381
295.381
295.381
295.381
295.381
295.38
295.38
295.38
295.38
295.379
295.379
295.378
295.378
295.377
295.377
295.376
295.376
295.373
295.373
283.74
284.865
285.688
286.362
286.921
287.425
287.877
288.302
288.693
289.063
289.407
289.737
290.049
290.35
290.638
290.914
291.176
291.428
291.669
291.901
292.122
292.333
292.533
292.721
292.898
293.062
293.214
293.353
293.479
293.591
293.689
293.774
293.847
293.908
293.958
293.997
294.028
294.051
294.068
294.079
294.087
294.092
294.095
294.097
294.098
294.098
294.099
294.098
294.098
294.098
294.098
294.098
294.097
294.097
294.097
294.097
294.096
294.096
294.096
294.096
294.096
294.095
294.095
294.095
294.095
294.095
294.094
294.094
294.094
294.094
294.094
294.093
294.093
294.093
294.093
294.093
294.092
294.092
294.092
294.092
294.091
294.091
294.09
294.09
294.089
294.089
294.088
294.088
294.085
294.084
283.022
283.683
284.295
284.867
285.354
285.81
286.219
286.615
286.982
287.336
287.664
287.978
288.275
288.564
288.84
289.107
289.361
289.604
289.837
290.061
290.276
290.482
290.677
290.861
291.035
291.198
291.35
291.491
291.619
291.734
291.837
291.927
292.005
292.071
292.126
292.172
292.208
292.236
292.256
292.271
292.282
292.288
292.293
292.295
292.297
292.297
292.298
292.298
292.298
292.297
292.297
292.297
292.297
292.296
292.296
292.296
292.296
292.295
292.295
292.295
292.295
292.294
292.294
292.294
292.294
292.293
292.293
292.293
292.293
292.292
292.292
292.292
292.292
292.291
292.291
292.291
292.29
292.29
292.29
292.29
292.289
292.289
292.288
292.288
292.287
292.287
292.285
292.285
292.281
292.279
282.882
283.157
283.517
283.913
284.283
284.641
284.975
285.307
285.627
285.94
286.233
286.514
286.781
287.041
287.293
287.538
287.771
287.994
288.207
288.414
288.612
288.803
288.985
289.158
289.32
289.474
289.619
289.753
289.877
289.99
290.092
290.182
290.261
290.329
290.387
290.436
290.475
290.506
290.53
290.548
290.56
290.568
290.574
290.577
290.579
290.58
290.581
290.581
290.581
290.58
290.58
290.58
290.58
290.579
290.579
290.579
290.578
290.578
290.578
290.578
290.577
290.577
290.577
290.577
290.577
290.576
290.576
290.576
290.576
290.575
290.575
290.575
290.575
290.574
290.574
290.574
290.574
290.573
290.573
290.573
290.572
290.572
290.571
290.571
290.57
290.57
290.569
290.569
290.567
290.565
282.772
282.896
283.073
283.32
283.563
283.82
284.065
284.325
284.58
284.84
285.083
285.32
285.543
285.765
285.981
286.192
286.393
286.587
286.771
286.949
287.121
287.288
287.447
287.598
287.741
287.877
288.005
288.125
288.236
288.339
288.431
288.514
288.587
288.651
288.706
288.752
288.791
288.821
288.845
288.863
288.876
288.884
288.89
288.894
288.896
288.897
288.898
288.898
288.898
288.898
288.897
288.897
288.897
288.897
288.896
288.896
288.896
288.896
288.895
288.895
288.895
288.895
288.895
288.894
288.894
288.894
288.894
288.894
288.893
288.893
288.893
288.893
288.892
288.892
288.892
288.892
288.891
288.891
288.891
288.89
288.89
288.89
288.889
288.889
288.888
288.888
288.886
288.886
288.885
288.885
282.868
282.922
283.009
283.145
283.289
283.45
283.613
283.795
283.982
284.176
284.36
284.54
284.712
284.884
285.052
285.218
285.377
285.529
285.675
285.816
285.952
286.085
286.212
286.332
286.446
286.555
286.657
286.754
286.845
286.928
287.003
287.071
287.131
287.184
287.229
287.268
287.301
287.327
287.347
287.362
287.373
287.38
287.385
287.388
287.39
287.391
287.392
287.392
287.392
287.392
287.391
287.391
287.391
287.391
287.391
287.39
287.39
287.39
287.39
287.39
287.39
287.389
287.389
287.389
287.389
287.389
287.389
287.388
287.388
287.388
287.388
287.388
287.387
287.387
287.387
287.387
287.387
287.387
287.386
287.386
287.386
287.386
287.385
287.385
287.384
287.384
287.384
287.382
287.384
287.385
282.852
282.905
282.943
283.023
283.097
283.194
283.291
283.41
283.531
283.661
283.783
283.904
284.02
284.138
284.254
284.368
284.476
284.581
284.681
284.778
284.873
284.965
285.052
285.135
285.214
285.289
285.36
285.427
285.49
285.547
285.6
285.647
285.689
285.725
285.757
285.785
285.807
285.825
285.839
285.85
285.857
285.862
285.865
285.868
285.869
285.869
285.87
285.87
285.87
285.87
285.87
285.87
285.87
285.87
285.869
285.869
285.869
285.869
285.869
285.869
285.869
285.869
285.869
285.869
285.868
285.868
285.868
285.868
285.868
285.868
285.868
285.868
285.868
285.868
285.867
285.867
285.867
285.867
285.867
285.867
285.866
285.866
285.866
285.866
285.865
285.865
285.864
285.862
285.865
285.866
283.012
283.034
283.052
283.086
283.119
283.163
283.211
283.27
283.332
283.398
283.459
283.521
283.582
283.643
283.703
283.763
283.819
283.874
283.926
283.977
284.027
284.075
284.12
284.164
284.205
284.244
284.282
284.317
284.35
284.38
284.407
284.431
284.453
284.472
284.489
284.503
284.514
284.524
284.531
284.536
284.54
284.542
284.544
284.545
284.545
284.546
284.546
284.546
284.546
284.546
284.546
284.546
284.546
284.546
284.546
284.546
284.546
284.546
284.546
284.546
284.546
284.546
284.546
284.546
284.546
284.546
284.546
284.546
284.546
284.546
284.546
284.546
284.546
284.546
284.546
284.546
284.546
284.546
284.546
284.546
284.545
284.545
284.545
284.545
284.545
284.545
284.545
284.544
284.546
284.547
283.062
283.074
283.077
283.091
283.098
283.114
283.127
283.147
283.165
283.185
283.203
283.223
283.24
283.259
283.277
283.295
283.312
283.329
283.344
283.36
283.374
283.389
283.402
283.415
283.428
283.439
283.451
283.461
283.471
283.48
283.488
283.495
283.501
283.507
283.512
283.516
283.52
283.522
283.524
283.526
283.527
283.528
283.528
283.528
283.529
283.529
283.529
283.529
283.529
283.529
283.529
283.529
283.529
283.529
283.529
283.529
283.529
283.529
283.529
283.529
283.529
283.529
283.529
283.529
283.529
283.529
283.529
283.529
283.529
283.529
283.529
283.529
283.529
283.529
283.529
283.529
283.529
283.529
283.529
283.529
283.529
283.529
283.529
283.529
283.529
283.529
283.529
283.528
283.529
283.529
285.197
286.676
287.605
288.295
288.89
289.398
289.871
290.296
290.698
291.066
291.417
291.747
292.066
292.369
292.661
292.937
293.203
293.457
293.702
293.935
294.159
294.371
294.571
294.76
294.937
295.101
295.252
295.388
295.511
295.62
295.715
295.796
295.865
295.922
295.968
296.004
296.031
296.051
296.065
296.075
296.081
296.085
296.088
296.089
296.09
296.09
296.09
296.09
296.09
296.089
296.089
296.089
296.089
296.088
296.088
296.088
296.088
296.088
296.088
296.087
296.087
296.087
296.087
296.087
296.087
296.087
296.087
296.086
296.086
296.086
296.086
296.086
296.086
296.086
296.086
296.086
296.086
296.086
296.086
296.086
296.086
296.086
296.087
296.086
296.087
296.087
296.088
296.087
296.094
296.097
283.872
284.96
285.793
286.456
287.026
287.522
287.98
288.4
288.795
289.162
289.509
289.836
290.15
290.451
290.74
291.016
291.28
291.533
291.776
292.008
292.232
292.444
292.645
292.835
293.013
293.18
293.334
293.475
293.602
293.716
293.816
293.903
293.977
294.04
294.091
294.132
294.163
294.187
294.204
294.217
294.225
294.23
294.233
294.235
294.236
294.236
294.236
294.236
294.236
294.236
294.236
294.235
294.235
294.235
294.235
294.234
294.234
294.234
294.234
294.233
294.233
294.233
294.233
294.233
294.233
294.232
294.232
294.232
294.232
294.232
294.232
294.231
294.231
294.231
294.231
294.231
294.231
294.231
294.231
294.231
294.231
294.231
294.231
294.231
294.231
294.231
294.231
294.231
294.235
294.237
283.395
283.926
284.521
285.052
285.543
285.976
286.387
286.769
287.14
287.485
287.815
288.124
288.423
288.708
288.986
289.252
289.507
289.75
289.985
290.209
290.426
290.633
290.83
291.016
291.192
291.357
291.511
291.654
291.785
291.902
292.007
292.099
292.179
292.248
292.305
292.352
292.39
292.419
292.441
292.456
292.467
292.474
292.479
292.482
292.483
292.484
292.484
292.484
292.484
292.484
292.483
292.483
292.483
292.483
292.482
292.482
292.482
292.481
292.481
292.481
292.481
292.481
292.48
292.48
292.48
292.48
292.479
292.479
292.479
292.479
292.479
292.479
292.479
292.478
292.478
292.478
292.478
292.478
292.478
292.478
292.478
292.478
292.478
292.478
292.479
292.478
292.479
292.479
292.481
292.483
283.176
283.362
283.684
284.039
284.398
284.735
285.065
285.386
285.706
286.013
286.307
286.586
286.853
287.112
287.366
287.611
287.846
288.071
288.286
288.494
288.694
288.887
289.072
289.247
289.412
289.568
289.715
289.853
289.98
290.095
290.2
290.292
290.374
290.444
290.505
290.555
290.596
290.629
290.654
290.673
290.686
290.695
290.701
290.704
290.706
290.708
290.708
290.708
290.708
290.708
290.708
290.707
290.707
290.707
290.706
290.706
290.706
290.706
290.705
290.705
290.705
290.705
290.704
290.704
290.704
290.704
290.703
290.703
290.703
290.703
290.703
290.702
290.702
290.702
290.702
290.702
290.702
290.701
290.701
290.701
290.701
290.701
290.701
290.701
290.701
290.701
290.701
290.701
290.702
290.703
283.234
283.253
283.404
283.596
283.825
284.048
284.285
284.524
284.777
285.024
285.268
285.497
285.722
285.939
286.156
286.366
286.569
286.762
286.948
287.127
287.301
287.469
287.631
287.784
287.929
288.067
288.197
288.32
288.434
288.539
288.634
288.719
288.795
288.861
288.918
288.967
289.007
289.039
289.064
289.083
289.097
289.106
289.112
289.116
289.118
289.119
289.12
289.12
289.12
289.12
289.12
289.119
289.119
289.119
289.118
289.118
289.118
289.118
289.117
289.117
289.117
289.117
289.116
289.116
289.116
289.116
289.116
289.115
289.115
289.115
289.115
289.115
289.115
289.114
289.114
289.114
289.114
289.114
289.114
289.114
289.114
289.114
289.114
289.114
289.114
289.114
289.115
289.115
289.115
289.116
283.17
283.163
283.229
283.329
283.459
283.595
283.749
283.916
284.099
284.285
284.469
284.645
284.818
284.988
285.159
285.325
285.486
285.64
285.787
285.93
286.07
286.204
286.334
286.457
286.574
286.685
286.79
286.89
286.983
287.069
287.147
287.217
287.279
287.335
287.383
287.423
287.458
287.485
287.506
287.523
287.534
287.542
287.548
287.551
287.553
287.554
287.554
287.554
287.554
287.554
287.554
287.554
287.554
287.553
287.553
287.553
287.553
287.552
287.552
287.552
287.552
287.552
287.551
287.551
287.551
287.551
287.551
287.551
287.55
287.55
287.55
287.55
287.55
287.55
287.55
287.549
287.549
287.549
287.549
287.549
287.549
287.549
287.549
287.549
287.549
287.549
287.549
287.549
287.549
287.549
283.266
283.238
283.274
283.314
283.383
283.452
283.545
283.647
283.769
283.89
284.015
284.132
284.251
284.368
284.487
284.603
284.716
284.823
284.927
285.027
285.126
285.221
285.312
285.399
285.481
285.56
285.635
285.706
285.772
285.833
285.888
285.938
285.983
286.022
286.056
286.085
286.11
286.129
286.144
286.155
286.164
286.169
286.173
286.175
286.176
286.177
286.177
286.177
286.177
286.177
286.177
286.177
286.177
286.176
286.176
286.176
286.176
286.176
286.176
286.175
286.175
286.175
286.175
286.175
286.175
286.175
286.175
286.175
286.174
286.174
286.174
286.174
286.174
286.174
286.174
286.174
286.174
286.174
286.174
286.174
286.174
286.174
286.175
286.174
286.175
286.175
286.176
286.176
286.175
286.176
283.203
283.192
283.208
283.227
283.259
283.293
283.343
283.4
283.468
283.536
283.605
283.671
283.738
283.806
283.874
283.94
284.005
284.066
284.126
284.183
284.24
284.295
284.347
284.397
284.444
284.489
284.532
284.573
284.611
284.646
284.677
284.706
284.731
284.753
284.773
284.789
284.803
284.814
284.822
284.828
284.832
284.835
284.837
284.838
284.839
284.839
284.84
284.84
284.84
284.84
284.839
284.839
284.839
284.839
284.839
284.839
284.839
284.839
284.839
284.839
284.839
284.839
284.839
284.839
284.839
284.839
284.839
284.839
284.839
284.839
284.839
284.838
284.838
284.838
284.838
284.838
284.839
284.838
284.839
284.839
284.839
284.839
284.839
284.839
284.839
284.839
284.84
284.84
284.838
284.838
283.25
283.235
283.245
283.242
283.254
283.259
283.276
283.29
283.312
283.331
283.353
283.372
283.393
283.414
283.435
283.455
283.476
283.494
283.513
283.531
283.549
283.566
283.582
283.598
283.613
283.627
283.64
283.653
283.665
283.675
283.685
283.694
283.702
283.709
283.715
283.72
283.724
283.727
283.73
283.731
283.733
283.734
283.734
283.734
283.735
283.735
283.735
283.735
283.735
283.735
283.735
283.735
283.735
283.735
283.735
283.735
283.735
283.735
283.735
283.735
283.735
283.735
283.735
283.735
283.735
283.735
283.735
283.735
283.735
283.735
283.735
283.735
283.735
283.735
283.736
283.736
283.736
283.736
283.736
283.736
283.736
283.736
283.737
283.736
283.737
283.737
283.738
283.738
283.737
283.738
285.423
287.205
288.224
288.959
289.576
290.105
290.589
291.025
291.433
291.808
292.165
292.501
292.824
293.131
293.426
293.706
293.975
294.232
294.48
294.716
294.942
295.156
295.359
295.549
295.727
295.892
296.044
296.18
296.304
296.412
296.506
296.587
296.655
296.71
296.755
296.79
296.817
296.835
296.849
296.858
296.864
296.867
296.87
296.871
296.871
296.871
296.871
296.871
296.871
296.871
296.871
296.87
296.87
296.87
296.87
296.869
296.869
296.869
296.869
296.869
296.869
296.868
296.868
296.868
296.868
296.868
296.868
296.868
296.868
296.868
296.868
296.867
296.867
296.867
296.867
296.867
296.867
296.867
296.867
296.867
296.867
296.867
296.868
296.867
296.868
296.868
296.869
296.867
296.875
296.879
283.68
284.811
285.709
286.414
287.011
287.529
288.002
288.435
288.84
289.216
289.57
289.904
290.225
290.531
290.825
291.106
291.375
291.632
291.879
292.116
292.343
292.56
292.765
292.958
293.14
293.31
293.467
293.611
293.74
293.857
293.959
294.048
294.123
294.187
294.239
294.281
294.313
294.337
294.355
294.368
294.376
294.381
294.384
294.386
294.387
294.388
294.388
294.388
294.387
294.387
294.387
294.387
294.386
294.386
294.386
294.386
294.385
294.385
294.385
294.385
294.385
294.384
294.384
294.384
294.384
294.384
294.384
294.383
294.383
294.383
294.383
294.383
294.383
294.383
294.383
294.382
294.382
294.382
294.382
294.382
294.382
294.382
294.382
294.382
294.383
294.382
294.383
294.382
294.387
294.391
283.253
283.694
284.257
284.796
285.295
285.744
286.166
286.562
286.942
287.299
287.637
287.955
288.261
288.554
288.838
289.111
289.373
289.622
289.862
290.092
290.314
290.527
290.729
290.921
291.102
291.272
291.431
291.579
291.714
291.837
291.946
292.042
292.126
292.198
292.258
292.308
292.348
292.379
292.402
292.419
292.431
292.439
292.444
292.447
292.449
292.45
292.45
292.45
292.45
292.449
292.449
292.449
292.449
292.448
292.448
292.448
292.447
292.447
292.447
292.447
292.446
292.446
292.446
292.446
292.446
292.445
292.445
292.445
292.445
292.445
292.444
292.444
292.444
292.444
292.444
292.444
292.444
292.444
292.444
292.443
292.443
292.443
292.443
292.443
292.444
292.444
292.444
292.444
292.446
292.448
283.164
283.277
283.534
283.853
284.194
284.525
284.852
285.175
285.498
285.812
286.113
286.398
286.672
286.937
287.196
287.448
287.69
287.921
288.142
288.355
288.562
288.761
288.951
289.132
289.303
289.465
289.618
289.761
289.894
290.015
290.125
290.223
290.309
290.384
290.449
290.504
290.548
290.584
290.612
290.632
290.647
290.657
290.664
290.668
290.67
290.672
290.672
290.673
290.672
290.672
290.672
290.672
290.671
290.671
290.671
290.67
290.67
290.67
290.67
290.669
290.669
290.669
290.669
290.668
290.668
290.668
290.668
290.668
290.667
290.667
290.667
290.667
290.667
290.666
290.666
290.666
290.666
290.666
290.666
290.666
290.666
290.665
290.665
290.665
290.665
290.665
290.666
290.666
290.666
290.667
283.196
283.199
283.297
283.454
283.65
283.856
284.077
284.31
284.558
284.808
285.054
285.288
285.516
285.738
285.958
286.174
286.383
286.583
286.774
286.959
287.138
287.312
287.479
287.638
287.789
287.932
288.067
288.196
288.315
288.426
288.526
288.617
288.697
288.768
288.83
288.883
288.927
288.962
288.99
289.012
289.027
289.038
289.045
289.049
289.052
289.053
289.054
289.054
289.054
289.054
289.054
289.054
289.053
289.053
289.053
289.053
289.052
289.052
289.052
289.051
289.051
289.051
289.051
289.05
289.05
289.05
289.05
289.05
289.049
289.049
289.049
289.049
289.049
289.048
289.048
289.048
289.048
289.048
289.048
289.048
289.048
289.047
289.048
289.047
289.048
289.048
289.048
289.048
289.048
289.048
283.182
283.175
283.216
283.289
283.392
283.506
283.642
283.796
283.972
284.155
284.338
284.515
284.689
284.861
285.034
285.204
285.369
285.527
285.679
285.826
285.97
286.109
286.243
286.37
286.492
286.607
286.717
286.821
286.918
287.008
287.091
287.165
287.232
287.291
287.342
287.386
287.423
287.454
287.477
287.495
287.508
287.517
287.524
287.527
287.53
287.531
287.532
287.532
287.532
287.532
287.531
287.531
287.531
287.531
287.53
287.53
287.53
287.53
287.529
287.529
287.529
287.529
287.529
287.528
287.528
287.528
287.528
287.528
287.527
287.527
287.527
287.527
287.527
287.526
287.526
287.526
287.526
287.526
287.526
287.526
287.526
287.525
287.526
287.525
287.526
287.525
287.526
287.526
287.525
287.525
283.223
283.213
283.233
283.264
283.314
283.372
283.451
283.547
283.663
283.783
283.906
284.025
284.144
284.264
284.386
284.505
284.621
284.732
284.839
284.943
285.045
285.144
285.239
285.329
285.415
285.497
285.575
285.649
285.719
285.783
285.842
285.895
285.942
285.984
286.02
286.052
286.078
286.099
286.116
286.128
286.137
286.143
286.147
286.15
286.151
286.152
286.152
286.152
286.152
286.152
286.152
286.152
286.151
286.151
286.151
286.151
286.151
286.151
286.15
286.15
286.15
286.15
286.15
286.15
286.149
286.149
286.149
286.149
286.149
286.149
286.149
286.148
286.148
286.148
286.148
286.148
286.148
286.148
286.148
286.148
286.148
286.148
286.148
286.148
286.148
286.148
286.148
286.149
286.148
286.147
283.205
283.2
283.212
283.224
283.247
283.275
283.319
283.374
283.44
283.508
283.577
283.645
283.714
283.784
283.856
283.925
283.992
284.056
284.119
284.179
284.239
284.297
284.352
284.405
284.455
284.503
284.548
284.591
284.632
284.669
284.702
284.733
284.76
284.784
284.804
284.822
284.837
284.848
284.857
284.864
284.868
284.871
284.874
284.875
284.876
284.876
284.876
284.876
284.876
284.876
284.876
284.876
284.876
284.875
284.875
284.875
284.875
284.875
284.875
284.875
284.875
284.875
284.875
284.875
284.875
284.874
284.874
284.874
284.874
284.874
284.874
284.874
284.874
284.874
284.874
284.874
284.874
284.874
284.874
284.874
284.874
284.874
284.874
284.874
284.874
284.874
284.875
284.875
284.873
284.873
283.199
283.191
283.196
283.197
283.205
283.212
283.228
283.245
283.267
283.288
283.31
283.332
283.355
283.377
283.401
283.423
283.444
283.465
283.486
283.505
283.525
283.543
283.561
283.578
283.594
283.61
283.625
283.639
283.652
283.663
283.674
283.684
283.692
283.7
283.706
283.712
283.716
283.72
283.722
283.724
283.726
283.726
283.727
283.727
283.728
283.728
283.728
283.728
283.728
283.728
283.728
283.728
283.728
283.728
283.728
283.728
283.728
283.728
283.728
283.728
283.728
283.728
283.728
283.728
283.728
283.728
283.728
283.728
283.728
283.728
283.728
283.728
283.728
283.728
283.728
283.728
283.729
283.729
283.729
283.729
283.729
283.729
283.729
283.729
283.729
283.729
283.73
283.73
283.729
283.729
285.197
286.676
287.605
288.295
288.89
289.398
289.871
290.296
290.698
291.066
291.417
291.747
292.066
292.369
292.661
292.937
293.203
293.457
293.702
293.935
294.159
294.371
294.571
294.76
294.937
295.101
295.252
295.388
295.511
295.62
295.715
295.796
295.865
295.922
295.968
296.004
296.031
296.051
296.065
296.075
296.082
296.085
296.088
296.089
296.09
296.09
296.09
296.09
296.09
296.089
296.089
296.089
296.089
296.088
296.088
296.088
296.088
296.088
296.088
296.087
296.087
296.087
296.087
296.087
296.087
296.087
296.087
296.086
296.086
296.086
296.086
296.086
296.086
296.086
296.086
296.086
296.086
296.086
296.086
296.086
296.086
296.086
296.087
296.086
296.087
296.087
296.088
296.087
296.094
296.097
283.872
284.96
285.793
286.456
287.026
287.522
287.98
288.4
288.795
289.162
289.509
289.836
290.15
290.451
290.74
291.016
291.28
291.533
291.776
292.008
292.232
292.444
292.645
292.835
293.013
293.18
293.334
293.475
293.602
293.716
293.816
293.903
293.977
294.04
294.091
294.132
294.163
294.187
294.204
294.217
294.225
294.23
294.233
294.235
294.236
294.236
294.236
294.236
294.236
294.236
294.236
294.235
294.235
294.235
294.235
294.234
294.234
294.234
294.234
294.233
294.233
294.233
294.233
294.233
294.233
294.232
294.232
294.232
294.232
294.232
294.232
294.231
294.231
294.231
294.231
294.231
294.231
294.231
294.231
294.231
294.231
294.231
294.231
294.231
294.231
294.231
294.231
294.231
294.235
294.237
283.395
283.926
284.521
285.052
285.543
285.976
286.387
286.769
287.14
287.485
287.815
288.124
288.423
288.708
288.986
289.252
289.507
289.75
289.985
290.209
290.426
290.633
290.83
291.016
291.192
291.357
291.511
291.654
291.785
291.902
292.007
292.099
292.179
292.248
292.305
292.352
292.39
292.419
292.441
292.456
292.467
292.474
292.479
292.482
292.483
292.484
292.484
292.484
292.484
292.484
292.483
292.483
292.483
292.483
292.482
292.482
292.482
292.481
292.481
292.481
292.481
292.481
292.48
292.48
292.48
292.48
292.479
292.479
292.479
292.479
292.479
292.479
292.479
292.478
292.478
292.478
292.478
292.478
292.478
292.478
292.478
292.478
292.478
292.478
292.479
292.478
292.479
292.479
292.481
292.483
283.176
283.362
283.684
284.039
284.398
284.735
285.065
285.386
285.706
286.013
286.307
286.586
286.853
287.112
287.366
287.611
287.846
288.071
288.286
288.494
288.694
288.887
289.072
289.247
289.412
289.568
289.715
289.853
289.98
290.095
290.2
290.292
290.374
290.444
290.505
290.555
290.596
290.629
290.654
290.673
290.686
290.695
290.701
290.704
290.706
290.708
290.708
290.708
290.708
290.708
290.708
290.707
290.707
290.707
290.706
290.706
290.706
290.706
290.705
290.705
290.705
290.705
290.704
290.704
290.704
290.704
290.703
290.703
290.703
290.703
290.703
290.702
290.702
290.702
290.702
290.702
290.702
290.701
290.701
290.701
290.701
290.701
290.701
290.701
290.701
290.701
290.701
290.701
290.702
290.703
283.234
283.253
283.404
283.596
283.825
284.048
284.285
284.524
284.777
285.024
285.268
285.497
285.722
285.939
286.156
286.366