/*--------------------------------*- C++ -*----------------------------------*\
  =========                 |
  \\      /  F ield         | OpenFOAM: The Open Source CFD Toolbox
   \\    /   O peration     | Website:  https://openfoam.org
    \\  /    A nd           | Version:  7
     \\/     M anipulation  |
\*---------------------------------------------------------------------------*/
FoamFile
{
    version     2.0;
    format      ascii;
    class       volScalarField;
    location    "0.12";
    object      T;
}
// * * * * * * * * * * * * * * * * * * * * * * * * * * * * * * * * * * * * * //

dimensions      [0 0 0 1 0 0 0];

internalField   nonuniform List<scalar> 
1080
(
290
290.003
290.008
290.013
290.018
290.021
290.023
290.024
290.024
290.022
290.02
290.017
290.014
290.012
290.009
290.007
290.006
290.005
290.004
290.003
290.003
290.002
290.002
290.002
290.002
290.002
290.002
290.002
290.002
290.002
290.002
290.001
290.002
290
290.004
289.997
290.012
289.982
290.042
289.922
290
289.999
289.997
289.995
289.994
289.994
289.994
289.995
289.996
289.998
290
290.002
290.003
290.004
290.005
290.006
290.006
290.006
290.006
290.006
290.006
290.006
290.006
290.006
290.007
290.007
290.008
290.009
290.009
290.009
290.009
290.009
290.009
290.007
290.008
290.005
290.007
290.003
290.007
290.003
290
289.999
289.997
289.995
289.993
289.991
289.989
289.987
289.985
289.984
289.983
289.982
289.981
289.981
289.981
289.98
289.98
289.98
289.979
289.979
289.979
289.978
289.978
289.978
289.978
289.979
289.98
289.98
289.982
289.983
289.984
289.985
289.986
289.987
289.988
289.988
289.988
289.988
289.987
289.987
290
289.999
289.998
289.996
289.994
289.992
289.99
289.988
289.986
289.984
289.982
289.981
289.98
289.978
289.977
289.976
289.974
289.973
289.972
289.97
289.969
289.967
289.966
289.965
289.964
289.963
289.963
289.963
289.963
289.963
289.964
289.964
289.965
289.966
289.966
289.966
289.966
289.965
289.965
289.964
290
289.999
289.998
289.996
289.995
289.993
289.991
289.989
289.987
289.985
289.983
289.982
289.981
289.979
289.978
289.976
289.975
289.974
289.972
289.97
289.969
289.967
289.966
289.964
289.963
289.963
289.962
289.962
289.962
289.962
289.962
289.962
289.962
289.963
289.963
289.962
289.962
289.961
289.96
289.959
290
289.999
289.998
289.997
289.995
289.993
289.991
289.989
289.987
289.985
289.984
289.982
289.981
289.98
289.978
289.977
289.976
289.974
289.973
289.971
289.969
289.968
289.966
289.965
289.964
289.963
289.963
289.962
289.962
289.962
289.963
289.963
289.963
289.963
289.963
289.963
289.962
289.962
289.96
289.959
290
289.999
289.998
289.997
289.995
289.993
289.991
289.989
289.987
289.985
289.984
289.982
289.981
289.98
289.978
289.977
289.976
289.974
289.973
289.971
289.969
289.968
289.966
289.965
289.964
289.963
289.963
289.962
289.962
289.962
289.963
289.963
289.963
289.963
289.963
289.963
289.962
289.962
289.96
289.959
290
289.999
289.998
289.996
289.995
289.993
289.991
289.989
289.987
289.985
289.983
289.982
289.981
289.979
289.978
289.976
289.975
289.974
289.972
289.97
289.969
289.967
289.966
289.964
289.963
289.962
289.962
289.962
289.962
289.962
289.962
289.962
289.962
289.963
289.963
289.962
289.962
289.961
289.96
289.959
290
289.999
289.998
289.996
289.994
289.992
289.99
289.988
289.986
289.984
289.982
289.981
289.98
289.978
289.977
289.976
289.974
289.973
289.972
289.97
289.969
289.967
289.966
289.965
289.964
289.963
289.963
289.963
289.963
289.963
289.964
289.964
289.965
289.966
289.966
289.966
289.966
289.965
289.965
289.964
290
289.999
289.997
289.995
289.993
289.991
289.989
289.987
289.985
289.984
289.983
289.982
289.981
289.981
289.981
289.98
289.98
289.98
289.979
289.979
289.979
289.978
289.978
289.978
289.978
289.979
289.98
289.98
289.982
289.983
289.984
289.985
289.986
289.987
289.987
289.988
289.988
289.988
289.987
289.987
290
289.999
289.997
289.995
289.994
289.994
289.994
289.995
289.996
289.998
290
290.002
290.003
290.004
290.005
290.006
290.006
290.006
290.006
290.006
290.006
290.006
290.006
290.006
290.007
290.007
290.008
290.009
290.009
290.009
290.009
290.009
290.008
290.008
290.007
290.006
290.005
290.005
290.005
290.005
290
290.003
290.008
290.013
290.018
290.021
290.023
290.024
290.024
290.022
290.02
290.017
290.014
290.012
290.009
290.007
290.006
290.005
290.004
290.003
290.003
290.002
290.002
290.002
290.002
290.002
290.002
290.002
290.002
290.002
290.002
290.002
290.002
290.002
290.002
290.002
290.002
290.002
290.002
290.002
290.162
290.416
290.645
290.878
291.066
291.296
291.423
291.701
291.691
292.156
290.003
290.015
290.028
290.054
290.076
290.115
290.141
290.191
290.221
290.276
289.986
289.986
289.985
289.986
289.987
289.989
289.991
289.995
289.999
290.005
289.963
289.961
289.96
289.959
289.958
289.957
289.957
289.957
289.957
289.958
289.957
289.956
289.954
289.952
289.95
289.949
289.948
289.947
289.947
289.948
289.957
289.956
289.954
289.952
289.95
289.949
289.948
289.947
289.947
289.947
289.957
289.956
289.954
289.952
289.95
289.949
289.948
289.947
289.947
289.947
289.957
289.956
289.954
289.952
289.95
289.949
289.948
289.947
289.947
289.948
289.963
289.961
289.96
289.959
289.958
289.957
289.957
289.957
289.957
289.958
289.986
289.986
289.985
289.985
289.985
289.986
289.987
289.988
289.989
289.991
290.005
290.006
290.006
290.007
290.007
290.007
290.007
290.007
290.006
290.005
290.002
290.002
290.002
290.002
290.002
290.002
290.002
290.002
290.002
290.002
291.777
291.428
291.151
290.933
290.761
290.626
290.52
290.435
290.369
290.315
290.273
290.239
290.212
290.19
290.171
290.156
290.144
290.134
290.125
290.117
290.111
290.105
290.099
290.095
290.091
290.087
290.084
290.08
290.077
290.075
290.072
290.07
290.068
290.065
290.063
290.061
290.06
290.058
290.057
290.054
290.321
290.352
290.373
290.386
290.392
290.394
290.392
290.388
290.381
290.373
290.364
290.354
290.344
290.334
290.324
290.314
290.304
290.296
290.287
290.278
290.27
290.261
290.253
290.244
290.236
290.228
290.22
290.213
290.207
290.201
290.195
290.19
290.185
290.179
290.175
290.169
290.166
290.16
290.159
290.152
290.011
290.017
290.024
290.031
290.038
290.044
290.049
290.054
290.059
290.063
290.066
290.07
290.073
290.076
290.079
290.082
290.086
290.089
290.093
290.098
290.102
290.106
290.109
290.112
290.114
290.115
290.116
290.115
290.114
290.113
290.111
290.109
290.108
290.106
290.106
290.106
290.106
290.108
290.109
290.113
289.959
289.961
289.963
289.965
289.967
289.969
289.971
289.972
289.973
289.974
289.974
289.973
289.973
289.972
289.971
289.97
289.969
289.968
289.968
289.969
289.971
289.973
289.976
289.979
289.983
289.987
289.99
289.994
289.997
289.999
290.001
290.002
290.001
290.001
289.998
289.997
289.994
289.992
289.99
289.988
289.948
289.949
289.951
289.952
289.954
289.955
289.956
289.957
289.958
289.958
289.957
289.956
289.954
289.952
289.949
289.947
289.944
289.942
289.939
289.938
289.937
289.937
289.938
289.939
289.942
289.944
289.948
289.951
289.954
289.957
289.959
289.961
289.961
289.961
289.959
289.956
289.953
289.948
289.946
289.938
289.948
289.949
289.951
289.952
289.954
289.955
289.956
289.957
289.957
289.957
289.956
289.955
289.953
289.95
289.947
289.944
289.941
289.939
289.936
289.935
289.934
289.934
289.934
289.936
289.938
289.941
289.944
289.948
289.951
289.954
289.956
289.958
289.957
289.957
289.954
289.951
289.947
289.941
289.938
289.929
289.948
289.949
289.951
289.952
289.954
289.955
289.956
289.957
289.957
289.957
289.956
289.955
289.953
289.95
289.947
289.944
289.941
289.939
289.936
289.935
289.934
289.934
289.934
289.936
289.938
289.941
289.944
289.948
289.951
289.954
289.956
289.958
289.957
289.957
289.954
289.951
289.947
289.941
289.938
289.929
289.948
289.949
289.951
289.952
289.954
289.955
289.956
289.957
289.958
289.958
289.957
289.956
289.954
289.952
289.949
289.946
289.944
289.941
289.939
289.938
289.937
289.937
289.937
289.939
289.941
289.944
289.947
289.95
289.953
289.956
289.958
289.96
289.959
289.959
289.957
289.954
289.951
289.946
289.943
289.935
289.959
289.96
289.962
289.964
289.966
289.967
289.969
289.97
289.97
289.97
289.969
289.968
289.967
289.965
289.963
289.961
289.96
289.958
289.957
289.957
289.958
289.959
289.961
289.963
289.966
289.969
289.972
289.974
289.976
289.978
289.978
289.978
289.977
289.975
289.972
289.97
289.966
289.963
289.96
289.958
289.992
289.993
289.995
289.996
289.996
289.997
289.997
289.996
289.995
289.994
289.993
289.992
289.991
289.99
289.989
289.989
289.99
289.991
289.992
289.994
289.996
289.998
290
290.001
290.002
290.002
290.001
290
289.998
289.996
289.993
289.991
289.989
289.988
289.987
289.987
289.988
289.99
289.991
289.995
290.005
290.004
290.004
290.004
290.004
290.004
290.004
290.004
290.004
290.004
290.003
290.003
290.002
290.002
290.002
290.002
290.002
290.003
290.003
290.004
290.004
290.004
290.003
290.002
290.001
290.001
290
290
290
290
290
290
290
290
290
290
290
290
290
290.001
290.002
290.001
290.001
290.001
290.001
290.001
290.001
290.001
290.001
290.001
290.001
290.001
290.001
290.001
290.001
290.001
290.001
290.001
290.001
290.001
290.001
290
290
290
290
290
290
290
290
290
290
290
290
290
290
290
290
290
290
290
)
;

boundaryField
{
    upperWall
    {
        type            fixedValue;
        value           uniform 290;
    }
    lowerWall
    {
        type            fixedValue;
        value           uniform 290;
    }
    heatedWall
    {
        type            externalWallHeatFluxTemperature;
        mode            flux;
        kappaMethod     fluidThermo;
        kappa           none;
        alphaAni        Anialpha;
        q               uniform 890;
        qr              none;
        refValue        nonuniform List<scalar> 10(291.806 292.069 292.307 292.548 292.744 292.983 293.117 293.403 293.4 293.873);
        refGradient     nonuniform List<scalar> 10(876.982 881.753 886.364 890.857 895.185 899.457 903.504 907.638 911.282 915.609);
        valueFraction   uniform 0;
        value           nonuniform List<scalar> 10(291.806 292.069 292.307 292.548 292.744 292.983 293.117 293.403 293.4 293.873);
    }
    inlet
    {
        type            fixedValue;
        value           uniform 290;
    }
    outlet
    {
        type            inletOutlet;
        inletValue      uniform 290;
        value           nonuniform List<scalar> 
12
(
290.054
290.152
290.113
289.988
289.938
289.929
289.929
289.935
289.958
289.995
290.001
290
)
;
    }
    frontAndBack
    {
        type            empty;
    }
}


// ************************************************************************* //
