/*--------------------------------*- C++ -*----------------------------------*\
  =========                 |
  \\      /  F ield         | OpenFOAM: The Open Source CFD Toolbox
   \\    /   O peration     | Website:  https://openfoam.org
    \\  /    A nd           | Version:  7
     \\/     M anipulation  |
\*---------------------------------------------------------------------------*/
FoamFile
{
    version     2.0;
    format      ascii;
    class       volVectorField;
    location    "1";
    object      U_0;
}
// * * * * * * * * * * * * * * * * * * * * * * * * * * * * * * * * * * * * * //

dimensions      [0 1 -1 0 0 0 0];

internalField   nonuniform List<vector> 
7920
(
(2.93107 0.102077 -32.382)
(2.10729 -0.461609 -32.4327)
(1.39618 -0.615881 -32.4313)
(1.288 -0.671916 -32.4381)
(1.05424 -0.688569 -32.432)
(1.08012 -0.69341 -32.4363)
(0.939505 -0.6975 -32.4323)
(0.984555 -0.697725 -32.4368)
(0.879397 -0.69973 -32.4348)
(0.924161 -0.699551 -32.4391)
(0.840508 -0.701177 -32.4382)
(0.881016 -0.70074 -32.4419)
(0.812939 -0.701852 -32.4415)
(0.848504 -0.701379 -32.4441)
(0.792321 -0.701821 -32.4437)
(0.823122 -0.70192 -32.4448)
(0.775072 -0.698047 -32.4448)
(0.797235 -0.704503 -32.4435)
(0.761722 -0.645977 -32.4464)
(0.591065 -0.658353 -32.4357)
(4.41229 0.967638 -32.4284)
(4.33663 0.873026 -32.4682)
(3.687 0.818851 -32.4658)
(3.54108 0.751873 -32.4715)
(3.14375 0.72415 -32.4626)
(3.1396 0.710737 -32.4632)
(2.87892 0.704091 -32.4578)
(2.92203 0.70056 -32.4614)
(2.72816 0.698526 -32.4615)
(2.78148 0.696899 -32.4671)
(2.62831 0.695862 -32.4699)
(2.68106 0.694736 -32.4762)
(2.55678 0.694191 -32.4801)
(2.60547 0.693344 -32.4849)
(2.50276 0.692741 -32.4884)
(2.54846 0.692934 -32.4891)
(2.45647 0.689605 -32.4929)
(2.51969 0.694518 -32.486)
(2.39827 0.684905 -32.4979)
(2.67654 0.676125 -32.4575)
(4.75277 0.193183 -32.4329)
(5.26051 -0.228864 -32.4629)
(5.11846 -0.374643 -32.4491)
(5.23213 -0.492811 -32.4539)
(4.9903 -0.557398 -32.4389)
(5.04228 -0.593776 -32.4372)
(4.83097 -0.618018 -32.4241)
(4.876 -0.631718 -32.4258)
(4.70297 -0.64236 -32.4213)
(4.74612 -0.649094 -32.428)
(4.60486 -0.654623 -32.4293)
(4.6454 -0.658723 -32.4388)
(4.52939 -0.661942 -32.4452)
(4.56635 -0.664694 -32.4559)
(4.47134 -0.666905 -32.4647)
(4.5011 -0.66763 -32.4712)
(4.4297 -0.6712 -32.4799)
(4.43309 -0.666638 -32.4771)
(4.40839 -0.667432 -32.4885)
(4.31892 -0.6887 -32.4558)
(4.75379 0.649385 -32.4428)
(5.28664 0.749581 -32.47)
(5.3894 0.796844 -32.4546)
(5.69641 0.767163 -32.4567)
(5.64018 0.749256 -32.4419)
(5.81411 0.73491 -32.4375)
(5.72334 0.724541 -32.4224)
(5.83851 0.716487 -32.42)
(5.74748 0.710468 -32.4135)
(5.8318 0.704901 -32.4171)
(5.74903 0.700985 -32.4172)
(5.81468 0.69681 -32.4238)
(5.74154 0.694375 -32.4296)
(5.79581 0.690928 -32.4402)
(5.7302 0.690014 -32.4519)
(5.78061 0.686195 -32.4634)
(5.71458 0.688761 -32.4753)
(5.77895 0.682066 -32.4818)
(5.69392 0.696034 -32.4895)
(5.83824 0.706766 -32.4689)
(4.74589 -0.0881465 -32.4419)
(5.25019 -0.387029 -32.4686)
(5.41011 -0.479578 -32.4502)
(5.7725 -0.545255 -32.4524)
(5.7856 -0.580901 -32.4356)
(6.01956 -0.600756 -32.4312)
(5.9953 -0.614916 -32.4139)
(6.16289 -0.622822 -32.4105)
(6.13081 -0.629779 -32.4016)
(6.25859 -0.634217 -32.4046)
(6.22611 -0.638485 -32.4024)
(6.32654 -0.641581 -32.408)
(6.29582 -0.644754 -32.4103)
(6.37666 -0.646646 -32.4204)
(6.34931 -0.650294 -32.4296)
(6.41391 -0.648621 -32.4447)
(6.3945 -0.658039 -32.4558)
(6.43571 -0.646495 -32.4699)
(6.43762 -0.669826 -32.4755)
(6.43874 -0.691567 -32.4629)
(4.73336 0.35209 -32.4456)
(5.19351 0.557084 -32.4728)
(5.36344 0.635448 -32.4542)
(5.7412 0.655515 -32.4564)
(5.7781 0.66561 -32.4391)
(6.03571 0.668813 -32.4346)
(6.03808 0.670872 -32.4168)
(6.23006 0.670908 -32.4131)
(6.2251 0.671271 -32.4035)
(6.37621 0.670565 -32.4062)
(6.36959 0.670497 -32.4033)
(6.49128 0.669654 -32.4083)
(6.48392 0.669767 -32.409)
(6.58384 0.668527 -32.4182)
(6.57617 0.669891 -32.4258)
(6.65976 0.666235 -32.4416)
(6.65278 0.673459 -32.4522)
(6.72269 0.662519 -32.4688)
(6.72128 0.685553 -32.4745)
(6.78734 0.707681 -32.4627)
(4.73336 -0.35209 -32.4456)
(5.19351 -0.557084 -32.4728)
(5.36344 -0.635448 -32.4542)
(5.7412 -0.655515 -32.4564)
(5.7781 -0.66561 -32.4391)
(6.03571 -0.668812 -32.4346)
(6.03808 -0.670872 -32.4168)
(6.23006 -0.670905 -32.4131)
(6.22511 -0.671269 -32.4035)
(6.37621 -0.670557 -32.4063)
(6.3696 -0.670484 -32.4033)
(6.49128 -0.669633 -32.4084)
(6.48395 -0.669727 -32.409)
(6.58382 -0.668452 -32.4183)
(6.57624 -0.66981 -32.4257)
(6.65972 -0.665953 -32.4416)
(6.65297 -0.673329 -32.4522)
(6.72255 -0.661676 -32.4688)
(6.72154 -0.685079 -32.4746)
(6.787 -0.706123 -32.4626)
(4.74589 0.0881465 -32.4419)
(5.25019 0.387029 -32.4686)
(5.41011 0.479578 -32.4502)
(5.7725 0.545255 -32.4525)
(5.7856 0.580901 -32.4356)
(6.01956 0.600757 -32.4312)
(5.9953 0.614916 -32.4139)
(6.1629 0.622824 -32.4106)
(6.1308 0.629783 -32.4016)
(6.25861 0.634222 -32.4047)
(6.22609 0.6385 -32.4023)
(6.32658 0.641596 -32.4081)
(6.29578 0.644799 -32.4101)
(6.37678 0.646706 -32.4206)
(6.34927 0.650383 -32.4293)
(6.41417 0.648874 -32.445)
(6.39456 0.658184 -32.4555)
(6.43635 0.64732 -32.4702)
(6.43819 0.670298 -32.4753)
(6.44044 0.693268 -32.4629)
(4.75379 -0.649385 -32.4428)
(5.28664 -0.749581 -32.47)
(5.3894 -0.796843 -32.4546)
(5.69641 -0.767162 -32.4567)
(5.64018 -0.749256 -32.4419)
(5.81411 -0.734909 -32.4375)
(5.72334 -0.724541 -32.4224)
(5.83852 -0.716484 -32.42)
(5.74748 -0.710466 -32.4134)
(5.83182 -0.704892 -32.4172)
(5.74902 -0.700976 -32.417)
(5.81472 -0.696788 -32.4241)
(5.74155 -0.694349 -32.4292)
(5.79593 -0.690856 -32.4408)
(5.73028 -0.689969 -32.4511)
(5.78088 -0.685938 -32.4644)
(5.71497 -0.688724 -32.4739)
(5.77945 -0.681339 -32.4836)
(5.6951 -0.695819 -32.4874)
(5.83926 -0.705648 -32.4713)
(4.75277 -0.193183 -32.4329)
(5.26051 0.228864 -32.4629)
(5.11846 0.374644 -32.4491)
(5.23213 0.492811 -32.4539)
(4.9903 0.557398 -32.4389)
(5.04229 0.593776 -32.4372)
(4.83097 0.61802 -32.4241)
(4.876 0.631718 -32.4259)
(4.70297 0.642364 -32.4212)
(4.74614 0.649094 -32.4281)
(4.60486 0.654637 -32.4291)
(4.64548 0.658723 -32.4391)
(4.52938 0.66198 -32.4447)
(4.56659 0.664709 -32.4566)
(4.47135 0.666981 -32.4634)
(4.50171 0.667747 -32.4731)
(4.42998 0.671319 -32.4769)
(4.43455 0.667137 -32.4816)
(4.40974 0.667773 -32.4819)
(4.32304 0.689833 -32.4656)
(4.41229 -0.967637 -32.4284)
(4.33663 -0.873026 -32.4682)
(3.687 -0.818851 -32.4658)
(3.54108 -0.751872 -32.4715)
(3.14375 -0.72415 -32.4626)
(3.1396 -0.710736 -32.4632)
(2.87892 -0.704091 -32.4578)
(2.92204 -0.700559 -32.4614)
(2.72817 -0.698526 -32.4615)
(2.78149 -0.696895 -32.4671)
(2.62832 -0.695861 -32.4698)
(2.68112 -0.694724 -32.4764)
(2.55682 -0.694187 -32.4798)
(2.60564 -0.693305 -32.4854)
(2.5029 -0.692743 -32.4875)
(2.54884 -0.692792 -32.4906)
(2.45709 -0.689683 -32.4904)
(2.52029 -0.694143 -32.4906)
(2.40037 -0.685175 -32.489)
(2.67709 -0.676333 -32.4758)
(2.93107 -0.102078 -32.382)
(2.10729 0.461609 -32.4327)
(1.39618 0.615881 -32.4313)
(1.288 0.671916 -32.4381)
(1.05424 0.688569 -32.432)
(1.08012 0.69341 -32.4363)
(0.939506 0.697501 -32.4323)
(0.984557 0.697724 -32.4368)
(0.8794 0.699731 -32.4348)
(0.924169 0.699548 -32.4391)
(0.840515 0.701181 -32.4382)
(0.881045 0.70073 -32.442)
(0.812954 0.701864 -32.4414)
(0.848594 0.701352 -32.4443)
(0.792377 0.701853 -32.4435)
(0.823336 0.701848 -32.4452)
(0.775358 0.698169 -32.4441)
(0.797649 0.704392 -32.4449)
(0.762875 0.646569 -32.4436)
(0.592928 0.659127 -32.4427)
(4.32558 0.566025 0.00707247)
(3.08235 0.847681 0.00460522)
(2.31989 0.86959 0.00587609)
(1.75425 0.852645 0.00439863)
(1.61632 0.855056 0.00554225)
(1.41301 0.866597 0.00437343)
(1.40624 0.876439 0.00532852)
(1.28471 0.884485 0.00434773)
(1.2916 0.888831 0.0051297)
(1.20571 0.892607 0.00430185)
(1.21352 0.894518 0.00494281)
(1.15076 0.89673 0.0042475)
(1.15698 0.897698 0.00477375)
(1.10909 0.899312 0.00419161)
(1.11422 0.899276 0.00462243)
(1.07434 0.901776 0.00413535)
(1.08086 0.894242 0.00448822)
(1.05944 0.916122 0.00407585)
(1.01157 0.792847 0.00439688)
(1.4558 0.8194 0.00395979)
(4.75963 -0.10001 0.00449651)
(4.61532 -0.276996 0.0024646)
(4.53184 -0.476711 0.00376721)
(4.15259 -0.642205 0.002324)
(4.01212 -0.738082 0.00347542)
(3.73638 -0.79312 0.00231215)
(3.66409 -0.820382 0.00327021)
(3.4794 -0.83744 0.00229257)
(3.44109 -0.847689 0.00307651)
(3.31089 -0.855574 0.00225135)
(3.28704 -0.860997 0.0028941)
(3.19132 -0.865621 0.00220046)
(3.17411 -0.868641 0.00272779)
(3.10029 -0.872066 0.00214638)
(3.08803 -0.872819 0.00257753)
(3.02433 -0.877267 0.00209127)
(3.02569 -0.874447 0.00243934)
(2.94327 -0.881043 0.00203492)
(3.01796 -0.885202 0.00228854)
(2.6252 -0.893377 0.00190574)
(4.63833 0.435206 0.00579469)
(4.82933 0.871075 0.0038393)
(5.1467 0.969152 0.00502365)
(5.08975 0.959965 0.0035399)
(5.15384 0.941752 0.00466517)
(5.02123 0.928535 0.00348872)
(5.02972 0.919181 0.00444005)
(4.91397 0.913374 0.0034585)
(4.91119 0.907024 0.00424006)
(4.81847 0.903486 0.00341303)
(4.81104 0.899056 0.00405439)
(4.73747 0.897003 0.00336029)
(4.72754 0.894184 0.00388741)
(4.66941 0.89277 0.00330596)
(4.65632 0.891375 0.00373754)
(4.61436 0.889382 0.00325025)
(4.58776 0.887983 0.00360448)
(4.58608 0.888576 0.00319051)
(4.50755 0.848658 0.00351245)
(4.628 0.889798 0.00309814)
(4.57655 -0.201647 0.00461602)
(4.70297 -0.398055 0.00288015)
(5.13532 -0.518574 0.00406924)
(5.23752 -0.622999 0.00261484)
(5.45651 -0.690438 0.00374228)
(5.45982 -0.737382 0.00257061)
(5.5736 -0.763849 0.00352518)
(5.55087 -0.783147 0.00254672)
(5.61802 -0.795729 0.00333033)
(5.59044 -0.806311 0.00250576)
(5.63173 -0.814165 0.00314829)
(5.60521 -0.821073 0.00245607)
(5.63121 -0.826437 0.00298368)
(5.60744 -0.831229 0.00240385)
(5.62453 -0.835254 0.0028351)
(5.60128 -0.837765 0.00235002)
(5.61704 -0.845453 0.002698)
(5.57662 -0.838932 0.00229346)
(5.61972 -0.875205 0.00254601)
(5.42737 -0.896004 0.00219178)
(4.58958 0.341393 0.00526927)
(4.699 0.688151 0.00357296)
(5.1112 0.802913 0.00471448)
(5.2341 0.844305 0.00324589)
(5.49307 0.861161 0.0043604)
(5.54518 0.870776 0.003182)
(5.70945 0.874469 0.00413321)
(5.73885 0.876998 0.00315245)
(5.85425 0.876356 0.00393497)
(5.87442 0.876574 0.0031092)
(5.95784 0.875058 0.00375105)
(5.97246 0.874794 0.00305821)
(6.03369 0.873545 0.00358534)
(6.04557 0.87281 0.00300514)
(6.08993 0.87274 0.00343609)
(6.10283 0.869758 0.00295026)
(6.12858 0.873935 0.00330243)
(6.14937 0.865854 0.00289212)
(6.15452 0.86911 0.00319628)
(6.15249 0.916243 0.00281826)
(4.58353 -0.269023 0.00489841)
(4.67087 -0.539136 0.00326655)
(5.07802 -0.653433 0.00440734)
(5.20229 -0.724064 0.00294594)
(5.47265 -0.764312 0.0040588)
(5.53974 -0.791811 0.00288055)
(5.72177 -0.806341 0.00383182)
(5.77029 -0.817054 0.00285137)
(5.90549 -0.822852 0.00363422)
(5.94614 -0.828264 0.00280894)
(6.04966 -0.831525 0.0034511)
(6.08423 -0.834989 0.00275875)
(6.16485 -0.837378 0.00328597)
(6.19454 -0.839435 0.00270613)
(6.25831 -0.842257 0.00313664)
(6.2832 -0.841109 0.00265135)
(6.33466 -0.850124 0.00300044)
(6.34518 -0.839135 0.0025936)
(6.40123 -0.869824 0.00286927)
(6.31559 -0.904712 0.00251481)
(4.58353 0.269023 0.00489841)
(4.67087 0.539136 0.00326655)
(5.07802 0.653433 0.00440734)
(5.20229 0.724065 0.00294594)
(5.47265 0.764312 0.0040588)
(5.53974 0.791812 0.00288055)
(5.72177 0.806341 0.00383182)
(5.7703 0.817058 0.00285137)
(5.90548 0.822856 0.00363422)
(5.94615 0.828274 0.00280893)
(6.04965 0.831539 0.00345111)
(6.08425 0.835018 0.00275873)
(6.16482 0.837418 0.00328599)
(6.1946 0.839522 0.00270608)
(6.25824 0.842368 0.0031367)
(6.28337 0.841367 0.0026512)
(6.33455 0.85043 0.00300068)
(6.34573 0.839866 0.00259326)
(6.40148 0.870681 0.0028703)
(6.31656 0.90657 0.00251455)
(4.58958 -0.341393 0.00526927)
(4.699 -0.688151 0.00357296)
(5.1112 -0.802913 0.00471448)
(5.2341 -0.844305 0.0032459)
(5.49307 -0.861162 0.0043604)
(5.54518 -0.870774 0.003182)
(5.70945 -0.874468 0.00413321)
(5.73886 -0.876994 0.00315245)
(5.85425 -0.876353 0.00393497)
(5.87443 -0.876562 0.00310921)
(5.95785 -0.875048 0.00375103)
(5.97247 -0.87476 0.00305824)
(6.03371 -0.873516 0.0035853)
(6.0456 -0.872712 0.00300521)
(6.09004 -0.872659 0.003436)
(6.10285 -0.869488 0.00295042)
(6.12892 -0.873723 0.00330213)
(6.14929 -0.865218 0.00289239)
(6.15517 -0.868492 0.00319527)
(6.15264 -0.914622 0.00281813)
(4.57655 0.201647 0.00461602)
(4.70297 0.398055 0.00288015)
(5.13532 0.518574 0.00406924)
(5.23752 0.622999 0.00261484)
(5.45651 0.690439 0.00374227)
(5.45982 0.737383 0.00257061)
(5.5736 0.76385 0.00352518)
(5.55088 0.783149 0.00254672)
(5.61801 0.795734 0.00333033)
(5.59046 0.806317 0.00250577)
(5.63172 0.814181 0.00314828)
(5.60528 0.821091 0.00245607)
(5.63119 0.82648 0.00298368)
(5.60761 0.831285 0.00240385)
(5.62452 0.835371 0.0028351)
(5.60174 0.837948 0.00234999)
(5.61718 0.845774 0.00269811)
(5.57785 0.839557 0.0022933)
(5.62066 0.876112 0.00254692)
(5.43054 0.897687 0.00219156)
(4.63833 -0.435206 0.00579469)
(4.82933 -0.871075 0.0038393)
(5.1467 -0.969152 0.00502365)
(5.08975 -0.959965 0.0035399)
(5.15384 -0.941752 0.00466516)
(5.02123 -0.928534 0.00348872)
(5.02972 -0.919181 0.00444004)
(4.91398 -0.913371 0.00345851)
(4.91119 -0.907023 0.00424005)
(4.8185 -0.903477 0.00341305)
(4.81105 -0.899051 0.00405436)
(4.73753 -0.896975 0.00336034)
(4.72757 -0.894172 0.00388733)
(4.66959 -0.892688 0.0033061)
(4.65646 -0.891352 0.00373731)
(4.61479 -0.889163 0.00325059)
(4.58823 -0.887946 0.0036039)
(4.58703 -0.888149 0.0031911)
(4.50887 -0.848549 0.00351101)
(4.63038 -0.889273 0.00309844)
(4.75963 0.10001 0.0044965)
(4.61532 0.276996 0.0024646)
(4.53184 0.476712 0.0037672)
(4.15259 0.642205 0.002324)
(4.01212 0.738082 0.00347541)
(3.73638 0.79312 0.00231214)
(3.66409 0.820383 0.00327021)
(3.47941 0.83744 0.00229257)
(3.4411 0.847693 0.00307651)
(3.31092 0.855573 0.00225135)
(3.28705 0.861009 0.0028941)
(3.19141 0.865617 0.00220046)
(3.17414 0.868674 0.00272778)
(3.10053 0.872056 0.00214642)
(3.08812 0.87291 0.00257745)
(3.02502 0.877257 0.00209141)
(3.02597 0.874701 0.00243913)
(2.94531 0.8812 0.00203523)
(3.01858 0.885959 0.00228849)
(2.63249 0.894814 0.00190651)
(4.32558 -0.566025 0.00707245)
(3.08235 -0.847681 0.0046052)
(2.31989 -0.86959 0.00587606)
(1.75425 -0.852644 0.0043986)
(1.61632 -0.855056 0.00554222)
(1.41301 -0.866596 0.00437341)
(1.40624 -0.876439 0.00532849)
(1.28472 -0.884484 0.0043477)
(1.29161 -0.888832 0.00512967)
(1.20572 -0.892603 0.00430183)
(1.21353 -0.894522 0.00494278)
(1.1508 -0.896717 0.0042475)
(1.15703 -0.897712 0.00477369)
(1.1092 -0.89927 0.00419166)
(1.11438 -0.899322 0.00462228)
(1.07461 -0.901661 0.00413558)
(1.08133 -0.894426 0.00448775)
(1.06004 -0.915951 0.00407657)
(1.01299 -0.793793 0.00439499)
(1.45639 -0.820738 0.00396301)
(4.37944 0.0972073 0.00145197)
(3.9704 0.149133 0.0019962)
(3.43727 0.163009 0.00104126)
(2.96313 0.156814 0.0015835)
(2.55358 0.145311 0.00105975)
(2.25246 0.136891 0.00147592)
(2.02943 0.131953 0.00113235)
(1.87787 0.131543 0.0013946)
(1.7755 0.13377 0.00116279)
(1.70274 0.138151 0.00131604)
(1.65748 0.143119 0.00117227)
(1.61758 0.148571 0.00125327)
(1.59565 0.153254 0.00117844)
(1.56896 0.158207 0.00121006)
(1.5559 0.161065 0.00118883)
(1.53827 0.16639 0.00118367)
(1.52206 0.164779 0.00120857)
(1.52805 0.175243 0.00116819)
(1.47738 0.160362 0.00122114)
(1.56064 0.167665 0.00123605)
(4.54226 0.0878905 0.00324386)
(4.68165 0.119462 0.00396688)
(4.72597 0.120636 0.00300546)
(4.71708 0.0942736 0.00352241)
(4.64214 0.0561782 0.00297301)
(4.54957 0.0140965 0.00337364)
(4.44493 -0.0235803 0.00302055)
(4.34317 -0.0559669 0.00327852)
(4.25051 -0.080828 0.00304459)
(4.16218 -0.100677 0.00319781)
(4.08847 -0.11518 0.00305449)
(4.01566 -0.126893 0.00313674)
(3.95851 -0.135402 0.00306293)
(3.8988 -0.142731 0.00309528)
(3.85491 -0.148131 0.00307511)
(3.8062 -0.152547 0.00306881)
(3.77149 -0.157539 0.00309731)
(3.73613 -0.158215 0.00305016)
(3.70037 -0.165468 0.00314537)
(3.6873 -0.169776 0.00314857)
(4.51756 0.0458146 0.0018091)
(4.65971 0.110553 0.00241669)
(4.79382 0.162811 0.00148747)
(4.94432 0.191098 0.00200892)
(5.05339 0.201318 0.00146662)
(5.13975 0.202296 0.00187475)
(5.19272 0.19915 0.00153012)
(5.22487 0.196192 0.00179302)
(5.24196 0.194262 0.00156394)
(5.24562 0.193797 0.00171835)
(5.24595 0.194195 0.00157701)
(5.23767 0.195175 0.00165905)
(5.23084 0.196004 0.00158617)
(5.21904 0.197236 0.00161857)
(5.20782 0.196831 0.00159838)
(5.19765 0.199589 0.00159427)
(5.18068 0.19404 0.00161664)
(5.17813 0.204958 0.00158549)
(5.15051 0.183677 0.00161187)
(5.16116 0.209302 0.00164468)
(4.51359 0.0442082 0.00282741)
(4.62524 0.0508861 0.00354464)
(4.75148 0.0465239 0.00263991)
(4.91313 0.0289373 0.00316642)
(5.05415 0.00670316 0.00260966)
(5.18822 -0.0183112 0.00300583)
(5.29685 -0.0419757 0.00265017)
(5.38876 -0.0633658 0.00290778)
(5.46544 -0.080958 0.0026741)
(5.52779 -0.0955485 0.00282672)
(5.58436 -0.107079 0.00268324)
(5.63 -0.116427 0.00276472)
(5.6749 -0.124129 0.00269099)
(5.71121 -0.13011 0.00272343)
(5.74818 -0.136124 0.00270331)
(5.77788 -0.138985 0.00269914)
(5.80975 -0.146204 0.00272557)
(5.83051 -0.144036 0.00269157)
(5.86507 -0.155068 0.00277922)
(5.86308 -0.151991 0.00278423)
(4.5147 0.0166194 0.00212696)
(4.62641 0.0557482 0.00279873)
(4.74565 0.091447 0.00190382)
(4.90132 0.117033 0.00242169)
(5.04014 0.133272 0.00186316)
(5.17793 0.144338 0.00225993)
(5.29499 0.152062 0.00190727)
(5.39969 0.158739 0.00216717)
(5.49208 0.164536 0.00193613)
(5.57259 0.170066 0.00208991)
(5.64914 0.174909 0.00194802)
(5.71596 0.179401 0.00202987)
(5.78362 0.182871 0.0019568)
(5.84259 0.186369 0.0019891)
(5.90462 0.187861 0.00196874)
(5.95627 0.191808 0.00196512)
(6.017 0.188881 0.00198712)
(6.05332 0.198614 0.00196141)
(6.12919 0.18411 0.00199782)
(6.12542 0.209753 0.00203015)
(4.51344 0.011928 0.00245991)
(4.61856 -0.00404052 0.00316084)
(4.7364 -0.0234691 0.00227359)
(4.89037 -0.0449225 0.00279725)
(5.02836 -0.0639845 0.00223714)
(5.16604 -0.0817092 0.00263208)
(5.28418 -0.0971142 0.00227684)
(5.39106 -0.110775 0.00253565)
(5.48693 -0.122207 0.0023035)
(5.57168 -0.131935 0.00245699)
(5.65388 -0.139937 0.00231467)
(5.72643 -0.146528 0.00239651)
(5.80188 -0.152043 0.00232326)
(5.86724 -0.156367 0.00235552)
(5.93973 -0.160289 0.00233515)
(5.99677 -0.162976 0.0023313)
(6.07226 -0.165803 0.00235525)
(6.10954 -0.168214 0.00232818)
(6.20805 -0.167799 0.00239288)
(6.19627 -0.177088 0.00240858)
(4.51344 -0.0119281 0.00245991)
(4.61856 0.00404079 0.00316084)
(4.7364 0.0234689 0.00227359)
(4.89037 0.0449233 0.00279726)
(5.02836 0.0639843 0.00223714)
(5.16604 0.0817111 0.00263208)
(5.28418 0.0971144 0.00227684)
(5.39106 0.11078 0.00253566)
(5.48693 0.12221 0.0023035)
(5.57168 0.131948 0.002457)
(5.65388 0.139948 0.00231466)
(5.72643 0.146562 0.00239653)
(5.80188 0.152073 0.00232324)
(5.86725 0.156469 0.00235557)
(5.93973 0.16036 0.00233509)
(5.99679 0.163271 0.00233143)
(6.07228 0.165983 0.00235496)
(6.1096 0.168957 0.00232838)
(6.20816 0.168448 0.00239132)
(6.19649 0.178587 0.00240885)
(4.5147 -0.0166195 0.00212696)
(4.62641 -0.055748 0.00279873)
(4.74565 -0.0914472 0.00190382)
(4.90132 -0.117032 0.00242169)
(5.04014 -0.133272 0.00186316)
(5.17793 -0.144336 0.00225994)
(5.29499 -0.152061 0.00190728)
(5.39969 -0.158734 0.00216717)
(5.49208 -0.164533 0.00193613)
(5.5726 -0.170053 0.0020899)
(5.64914 -0.174899 0.00194802)
(5.71596 -0.179365 0.00202985)
(5.78364 -0.182844 0.00195682)
(5.8426 -0.186266 0.00198905)
(5.90469 -0.187794 0.00196881)
(5.95629 -0.191517 0.00196498)
(6.01717 -0.188715 0.00198738)
(6.0534 -0.197892 0.00196118)
(6.12958 -0.183512 0.00199913)
(6.12577 -0.208356 0.00202984)
(4.51359 -0.0442083 0.00282741)
(4.62524 -0.0508859 0.00354464)
(4.75148 -0.046524 0.0026399)
(4.91314 -0.0289366 0.00316642)
(5.05415 -0.00670325 0.00260966)
(5.18823 0.0183128 0.00300583)
(5.29685 0.0419762 0.00265016)
(5.38876 0.0633699 0.00290779)
(5.46544 0.0809613 0.00267409)
(5.52781 0.0955594 0.00282673)
(5.58435 0.10709 0.00268322)
(5.63004 0.116457 0.00276475)
(5.6749 0.124159 0.00269095)
(5.7113 0.130202 0.00272348)
(5.74823 0.136189 0.00270321)
(5.77806 0.139255 0.00269924)
(5.80999 0.146357 0.00272525)
(5.83093 0.144734 0.00269174)
(5.86588 0.155622 0.00277777)
(5.86424 0.153417 0.00278416)
(4.51756 -0.0458147 0.0018091)
(4.65971 -0.110553 0.00241669)
(4.79382 -0.162811 0.00148747)
(4.94432 -0.191098 0.00200893)
(5.05338 -0.201318 0.00146662)
(5.13975 -0.202295 0.00187475)
(5.19272 -0.19915 0.00153012)
(5.22488 -0.196187 0.00179303)
(5.24195 -0.194259 0.00156393)
(5.24566 -0.193786 0.00171836)
(5.24594 -0.194188 0.00157699)
(5.23776 -0.195145 0.00165906)
(5.23082 -0.195986 0.00158614)
(5.21923 -0.197149 0.00161859)
(5.20786 -0.196793 0.00159836)
(5.19809 -0.199345 0.00159426)
(5.181 -0.193954 0.00161669)
(5.17907 -0.204372 0.00158546)
(5.15171 -0.183324 0.00161248)
(5.16331 -0.208331 0.00164466)
(4.54226 -0.0878905 0.00324386)
(4.68165 -0.119462 0.00396688)
(4.72597 -0.120636 0.00300546)
(4.71709 -0.0942734 0.00352242)
(4.64214 -0.0561778 0.00297301)
(4.54957 -0.0140961 0.00337365)
(4.44492 0.0235817 0.00302054)
(4.34319 0.055968 0.00327853)
(4.25051 0.0808322 0.00304457)
(4.16222 0.10068 0.00319784)
(4.08846 0.115191 0.00305444)
(4.01579 0.126903 0.00313684)
(3.95849 0.135427 0.00306279)
(3.89914 0.142771 0.00309553)
(3.85491 0.148176 0.00307471)
(3.80703 0.152683 0.00306943)
(3.77168 0.157621 0.00309627)
(3.73806 0.15859 0.00305153)
(3.70129 0.165765 0.00314262)
(3.69189 0.170535 0.00315111)
(4.37944 -0.0972073 0.00145197)
(3.9704 -0.149133 0.0019962)
(3.43727 -0.163009 0.00104126)
(2.96313 -0.156814 0.0015835)
(2.55358 -0.145311 0.00105975)
(2.25246 -0.136891 0.00147592)
(2.02943 -0.131953 0.00113235)
(1.87788 -0.131543 0.0013946)
(1.77551 -0.13377 0.00116279)
(1.70277 -0.138149 0.00131605)
(1.6575 -0.143117 0.00117227)
(1.61766 -0.148566 0.00125328)
(1.59572 -0.15325 0.00117844)
(1.56915 -0.158192 0.00121007)
(1.55613 -0.161065 0.00118881)
(1.53872 -0.166339 0.00118373)
(1.52275 -0.164802 0.00120838)
(1.52919 -0.175113 0.00116861)
(1.47883 -0.16045 0.00122006)
(1.56473 -0.16776 0.00123794)
(4.37944 0.0972073 -0.00145198)
(3.9704 0.149133 -0.00199621)
(3.43727 0.163009 -0.00104128)
(2.96313 0.156814 -0.00158351)
(2.55358 0.145311 -0.00105976)
(2.25246 0.136891 -0.00147593)
(2.02943 0.131953 -0.00113236)
(1.87787 0.131544 -0.00139461)
(1.7755 0.13377 -0.0011628)
(1.70274 0.138151 -0.00131606)
(1.65748 0.143119 -0.00117229)
(1.61758 0.148571 -0.00125329)
(1.59565 0.153254 -0.00117846)
(1.56896 0.158208 -0.00121008)
(1.5559 0.161065 -0.00118884)
(1.53827 0.16639 -0.00118369)
(1.52206 0.164779 -0.00120859)
(1.52805 0.175243 -0.0011682)
(1.47738 0.160362 -0.00122116)
(1.56064 0.167665 -0.00123607)
(4.54226 0.0878905 -0.00324387)
(4.68165 0.119462 -0.00396689)
(4.72597 0.120636 -0.00300548)
(4.71708 0.0942736 -0.00352243)
(4.64214 0.0561782 -0.00297303)
(4.54957 0.0140965 -0.00337365)
(4.44493 -0.0235803 -0.00302056)
(4.34317 -0.0559669 -0.00327853)
(4.25051 -0.0808279 -0.0030446)
(4.16218 -0.100677 -0.00319782)
(4.08847 -0.11518 -0.0030545)
(4.01566 -0.126893 -0.00313676)
(3.95851 -0.135402 -0.00306295)
(3.8988 -0.142731 -0.0030953)
(3.85491 -0.148131 -0.00307513)
(3.8062 -0.152547 -0.00306883)
(3.77149 -0.157539 -0.00309733)
(3.73613 -0.158215 -0.00305017)
(3.70037 -0.165468 -0.00314538)
(3.6873 -0.169776 -0.00314859)
(4.51756 0.0458146 -0.00180911)
(4.65971 0.110553 -0.0024167)
(4.79382 0.162811 -0.00148748)
(4.94432 0.191098 -0.00200894)
(5.05339 0.201318 -0.00146664)
(5.13975 0.202296 -0.00187476)
(5.19272 0.19915 -0.00153014)
(5.22487 0.196192 -0.00179303)
(5.24196 0.194262 -0.00156395)
(5.24562 0.193798 -0.00171836)
(5.24595 0.194195 -0.00157702)
(5.23767 0.195175 -0.00165906)
(5.23084 0.196004 -0.00158618)
(5.21904 0.197236 -0.00161859)
(5.20782 0.196831 -0.00159839)
(5.19765 0.199589 -0.00159428)
(5.18068 0.19404 -0.00161666)
(5.17813 0.204958 -0.00158551)
(5.15051 0.183677 -0.00161189)
(5.16116 0.209302 -0.0016447)
(4.51359 0.0442082 -0.00282742)
(4.62524 0.0508861 -0.00354466)
(4.75148 0.0465238 -0.00263992)
(4.91313 0.0289373 -0.00316643)
(5.05415 0.00670317 -0.00260967)
(5.18822 -0.0183112 -0.00300584)
(5.29685 -0.0419756 -0.00265018)
(5.38876 -0.0633657 -0.00290779)
(5.46544 -0.0809579 -0.00267411)
(5.52779 -0.0955485 -0.00282673)
(5.58436 -0.107079 -0.00268326)
(5.63 -0.116427 -0.00276474)
(5.6749 -0.124129 -0.002691)
(5.71121 -0.13011 -0.00272344)
(5.74818 -0.136124 -0.00270332)
(5.77788 -0.138985 -0.00269915)
(5.80975 -0.146204 -0.00272558)
(5.83051 -0.144036 -0.00269159)
(5.86507 -0.155068 -0.00277924)
(5.86308 -0.151991 -0.00278425)
(4.5147 0.0166194 -0.00212697)
(4.62641 0.0557483 -0.00279875)
(4.74565 0.091447 -0.00190383)
(4.90132 0.117033 -0.0024217)
(5.04014 0.133272 -0.00186317)
(5.17793 0.144338 -0.00225995)
(5.29499 0.152062 -0.00190729)
(5.39969 0.158739 -0.00216719)
(5.49208 0.164536 -0.00193614)
(5.57259 0.170066 -0.00208992)
(5.64914 0.174909 -0.00194803)
(5.71596 0.179401 -0.00202988)
(5.78362 0.182871 -0.00195681)
(5.84259 0.186369 -0.00198911)
(5.90462 0.18786 -0.00196875)
(5.95627 0.191808 -0.00196513)
(6.017 0.188881 -0.00198713)
(6.05332 0.198613 -0.00196142)
(6.12919 0.18411 -0.00199783)
(6.12542 0.209753 -0.00203016)
(4.51344 0.011928 -0.00245993)
(4.61856 -0.00404052 -0.00316085)
(4.7364 -0.0234691 -0.0022736)
(4.89037 -0.0449225 -0.00279727)
(5.02836 -0.0639845 -0.00223715)
(5.16604 -0.0817091 -0.00263209)
(5.28418 -0.0971141 -0.00227686)
(5.39106 -0.110775 -0.00253567)
(5.48693 -0.122207 -0.00230351)
(5.57168 -0.131935 -0.00245701)
(5.65388 -0.139937 -0.00231468)
(5.72643 -0.146528 -0.00239652)
(5.80188 -0.152043 -0.00232327)
(5.86724 -0.156367 -0.00235554)
(5.93973 -0.160289 -0.00233516)
(5.99677 -0.162976 -0.00233131)
(6.07226 -0.165803 -0.00235527)
(6.10954 -0.168214 -0.00232819)
(6.20805 -0.167799 -0.0023929)
(6.19627 -0.177088 -0.00240859)
(4.51344 -0.0119281 -0.00245993)
(4.61856 0.0040408 -0.00316085)
(4.7364 0.0234689 -0.0022736)
(4.89037 0.0449233 -0.00279727)
(5.02836 0.0639843 -0.00223715)
(5.16604 0.0817112 -0.00263209)
(5.28418 0.0971146 -0.00227686)
(5.39106 0.11078 -0.00253567)
(5.48693 0.12221 -0.00230351)
(5.57168 0.131948 -0.00245701)
(5.65388 0.139948 -0.00231467)
(5.72643 0.146562 -0.00239654)
(5.80188 0.152073 -0.00232325)
(5.86725 0.156469 -0.00235559)
(5.93972 0.16036 -0.0023351)
(5.99679 0.163271 -0.00233144)
(6.07228 0.165983 -0.00235498)
(6.1096 0.168957 -0.00232839)
(6.20816 0.168448 -0.00239133)
(6.19649 0.178587 -0.00240887)
(4.5147 -0.0166195 -0.00212697)
(4.62641 -0.055748 -0.00279875)
(4.74565 -0.0914472 -0.00190383)
(4.90132 -0.117032 -0.0024217)
(5.04014 -0.133272 -0.00186317)
(5.17793 -0.144336 -0.00225995)
(5.29499 -0.152061 -0.00190729)
(5.39969 -0.158734 -0.00216719)
(5.49208 -0.164533 -0.00193615)
(5.5726 -0.170053 -0.00208992)
(5.64914 -0.174899 -0.00194804)
(5.71596 -0.179365 -0.00202986)
(5.78364 -0.182844 -0.00195683)
(5.8426 -0.186266 -0.00198906)
(5.90469 -0.187794 -0.00196882)
(5.95629 -0.191517 -0.001965)
(6.01717 -0.188715 -0.00198739)
(6.0534 -0.197892 -0.0019612)
(6.12958 -0.183512 -0.00199915)
(6.12577 -0.208356 -0.00202985)
(4.51359 -0.0442083 -0.00282742)
(4.62524 -0.0508859 -0.00354466)
(4.75148 -0.046524 -0.00263992)
(4.91314 -0.0289366 -0.00316643)
(5.05415 -0.00670323 -0.00260967)
(5.18823 0.0183129 -0.00300585)
(5.29685 0.0419763 -0.00265018)
(5.38876 0.06337 -0.0029078)
(5.46544 0.0809613 -0.0026741)
(5.52781 0.0955594 -0.00282674)
(5.58435 0.10709 -0.00268324)
(5.63004 0.116457 -0.00276477)
(5.6749 0.124159 -0.00269096)
(5.7113 0.130202 -0.0027235)
(5.74823 0.136189 -0.00270322)
(5.77806 0.139255 -0.00269926)
(5.80999 0.146357 -0.00272526)
(5.83093 0.144734 -0.00269175)
(5.86588 0.155622 -0.00277779)
(5.86424 0.153417 -0.00278417)
(4.51756 -0.0458147 -0.00180911)
(4.65971 -0.110553 -0.0024167)
(4.79382 -0.162811 -0.00148748)
(4.94432 -0.191098 -0.00200894)
(5.05338 -0.201318 -0.00146664)
(5.13975 -0.202295 -0.00187476)
(5.19272 -0.19915 -0.00153013)
(5.22488 -0.196187 -0.00179304)
(5.24195 -0.194259 -0.00156395)
(5.24566 -0.193786 -0.00171837)
(5.24594 -0.194188 -0.00157701)
(5.23776 -0.195145 -0.00165908)
(5.23082 -0.195986 -0.00158616)
(5.21923 -0.197149 -0.00161861)
(5.20786 -0.196793 -0.00159837)
(5.19809 -0.199345 -0.00159428)
(5.181 -0.193954 -0.0016167)
(5.17907 -0.204372 -0.00158548)
(5.15171 -0.183324 -0.00161249)
(5.16331 -0.208331 -0.00164468)
(4.54226 -0.0878905 -0.00324387)
(4.68165 -0.119462 -0.00396689)
(4.72597 -0.120636 -0.00300547)
(4.71709 -0.0942734 -0.00352243)
(4.64214 -0.0561778 -0.00297302)
(4.54957 -0.0140961 -0.00337366)
(4.44492 0.0235817 -0.00302056)
(4.34319 0.055968 -0.00327854)
(4.25051 0.0808323 -0.00304458)
(4.16222 0.100681 -0.00319785)
(4.08846 0.115191 -0.00305445)
(4.01579 0.126903 -0.00313685)
(3.95849 0.135427 -0.0030628)
(3.89914 0.142771 -0.00309554)
(3.85491 0.148176 -0.00307472)
(3.80703 0.152683 -0.00306944)
(3.77168 0.157621 -0.00309629)
(3.73806 0.15859 -0.00305154)
(3.70129 0.165765 -0.00314263)
(3.69189 0.170535 -0.00315112)
(4.37944 -0.0972073 -0.00145198)
(3.9704 -0.149133 -0.00199621)
(3.43727 -0.163009 -0.00104128)
(2.96313 -0.156814 -0.00158351)
(2.55358 -0.145311 -0.00105977)
(2.25246 -0.136891 -0.00147593)
(2.02943 -0.131953 -0.00113236)
(1.87788 -0.131543 -0.00139461)
(1.77551 -0.13377 -0.0011628)
(1.70277 -0.138149 -0.00131606)
(1.6575 -0.143117 -0.00117228)
(1.61766 -0.148566 -0.00125329)
(1.59572 -0.15325 -0.00117845)
(1.56915 -0.158192 -0.00121008)
(1.55613 -0.161065 -0.00118882)
(1.53872 -0.166339 -0.00118374)
(1.52275 -0.164802 -0.00120839)
(1.52919 -0.175113 -0.00116863)
(1.47883 -0.16045 -0.00122007)
(1.56473 -0.16776 -0.00123795)
(4.32558 0.566025 -0.00707245)
(3.08235 0.847681 -0.00460521)
(2.31989 0.86959 -0.00587607)
(1.75425 0.852645 -0.00439861)
(1.61632 0.855056 -0.00554223)
(1.41301 0.866597 -0.00437341)
(1.40624 0.876439 -0.0053285)
(1.28471 0.884485 -0.00434771)
(1.2916 0.888831 -0.00512968)
(1.20571 0.892607 -0.00430183)
(1.21352 0.894518 -0.0049428)
(1.15076 0.896731 -0.00424749)
(1.15698 0.897698 -0.00477374)
(1.10909 0.899312 -0.00419159)