/*--------------------------------*- C++ -*----------------------------------*\
  =========                 |
  \\      /  F ield         | OpenFOAM: The Open Source CFD Toolbox
   \\    /   O peration     | Website:  https://openfoam.org
    \\  /    A nd           | Version:  7
     \\/     M anipulation  |
\*---------------------------------------------------------------------------*/
FoamFile
{
    version     2.0;
    format      ascii;
    class       volVectorField;
    location    "0.5925";
    object      U;
}
// * * * * * * * * * * * * * * * * * * * * * * * * * * * * * * * * * * * * * //

dimensions      [0 1 -1 0 0 0 0];

internalField   nonuniform List<vector> 
1600
(
(0.0621319 0.0418671 0)
(0.0253905 0.0108589 0)
(0.0120639 0.00273032 0)
(0.005927 0.000579008 0)
(0.00272471 -8.18957e-06 0)
(0.00105686 -0.000154002 0)
(0.000150258 -0.000168348 0)
(-0.000350929 -0.000149386 0)
(-0.000630846 -0.000126526 0)
(-0.000784426 -0.000105835 0)
(-0.000862045 -8.6149e-05 0)
(-0.000888416 -6.94199e-05 0)
(-0.000882626 -5.79257e-05 0)
(-0.000858117 -4.92202e-05 0)
(-0.00082155 -4.27825e-05 0)
(-0.000776752 -3.74344e-05 0)
(-0.000725917 -3.29955e-05 0)
(-0.000672104 -2.98547e-05 0)
(-0.000615991 -2.66915e-05 0)
(-0.000557652 -2.44148e-05 0)
(-0.000498112 -2.26798e-05 0)
(-0.000437356 -2.11441e-05 0)
(-0.00037533 -1.97419e-05 0)
(-0.000311976 -1.83039e-05 0)
(-0.000247061 -1.70508e-05 0)
(-0.000181501 -1.62181e-05 0)
(-0.000115583 -1.50375e-05 0)
(-4.89651e-05 -1.37959e-05 0)
(1.74962e-05 -1.25091e-05 0)
(8.30902e-05 -1.10307e-05 0)
(0.000146991 -9.18287e-06 0)
(0.000208148 -6.72985e-06 0)
(0.000265261 -3.18389e-06 0)
(0.000316955 1.8244e-06 0)
(0.000356004 9.08936e-06 0)
(0.000387198 2.42438e-05 0)
(0.000400371 3.95347e-05 0)
(0.000379344 6.49048e-05 0)
(0.000151691 0.000138418 0)
(0.000626053 0.000390251 0)
(0.0829812 0.0654592 0)
(0.0578605 0.0353927 0)
(0.0391712 0.0185132 0)
(0.0258009 0.00962207 0)
(0.0166594 0.00515761 0)
(0.0106171 0.00284822 0)
(0.00661923 0.00161065 0)
(0.00395419 0.000916337 0)
(0.00216238 0.000510407 0)
(0.000951274 0.00026464 0)
(0.000129328 0.000113179 0)
(-0.000427359 1.77723e-05 0)
(-0.000797065 -4.50989e-05 0)
(-0.00103304 -8.59615e-05 0)
(-0.00117295 -0.000112051 0)
(-0.00124193 -0.000128143 0)
(-0.00125841 -0.000139087 0)
(-0.00123519 -0.000146976 0)
(-0.00118098 -0.000152184 0)
(-0.00110205 -0.000156377 0)
(-0.00100234 -0.000159811 0)
(-0.000885353 -0.00016262 0)
(-0.000753541 -0.000165077 0)
(-0.000608777 -0.000167115 0)
(-0.000452608 -0.000168796 0)
(-0.000286784 -0.000170458 0)
(-0.000112849 -0.000171093 0)
(6.8128e-05 -0.000171023 0)
(0.000254505 -0.000170042 0)
(0.000444636 -0.000167845 0)
(0.000636844 -0.000164032 0)
(0.00082943 -0.000158061 0)
(0.00102051 -0.000149199 0)
(0.00120863 -0.000136766 0)
(0.00139152 -0.000119471 0)
(0.00157051 -8.99935e-05 0)
(0.00174699 -5.4376e-05 0)
(0.00189036 4.24543e-06 0)
(0.00196777 0.00011652 0)
(0.00259902 0.000537108 0)
(0.0876891 0.0738497 0)
(0.0761727 0.050942 0)
(0.0608462 0.0344728 0)
(0.0463779 0.0227408 0)
(0.0341919 0.0148944 0)
(0.024815 0.00975762 0)
(0.0179046 0.00641596 0)
(0.012889 0.00424222 0)
(0.00925922 0.00281888 0)
(0.00662506 0.00187292 0)
(0.00470468 0.00123125 0)
(0.0033011 0.000788117 0)
(0.00227799 0.000477612 0)
(0.00153833 0.000256987 0)
(0.00101041 9.85844e-05 0)
(0.000642006 -1.6432e-05 0)
(0.000396932 -0.000101506 0)
(0.000249367 -0.000165785 0)
(0.000179174 -0.000216254 0)
(0.000171764 -0.000256885 0)
(0.000216378 -0.000290575 0)
(0.000304249 -0.00031913 0)
(0.000428881 -0.000343545 0)
(0.000585311 -0.000364615 0)
(0.0007691 -0.000382668 0)
(0.000976353 -0.000398121 0)
(0.00120356 -0.000410664 0)
(0.00144773 -0.000420359 0)
(0.00170588 -0.00042705 0)
(0.00197506 -0.000430463 0)
(0.00225246 -0.000430231 0)
(0.00253531 -0.000425869 0)
(0.00282071 -0.000416794 0)
(0.00310706 -0.00040216 0)
(0.00339379 -0.000380959 0)
(0.00368167 -0.00035068 0)
(0.00397253 -0.000312109 0)
(0.00425666 -0.000264113 0)
(0.00456042 -0.000168698 0)
(0.00520785 6.7175e-05 0)
(0.105132 0.0796417 0)
(0.0951218 0.0636796 0)
(0.0799482 0.0496535 0)
(0.0646809 0.0370588 0)
(0.0511309 0.0269198 0)
(0.0399118 0.019208 0)
(0.0310117 0.0135663 0)
(0.0241199 0.00956089 0)
(0.0188373 0.00675769 0)
(0.0147978 0.00479321 0)
(0.0117074 0.00340088 0)
(0.00934302 0.00239981 0)
(0.0075373 0.00167043 0)
(0.00616366 0.0011322 0)
(0.00512537 0.000730151 0)
(0.00434912 0.00042637 0)
(0.00377883 0.000194214 0)
(0.00337195 1.35268e-05 0)
(0.00309723 -0.000129672 0)
(0.00293122 -0.000245556 0)
(0.00285563 -0.000342039 0)
(0.00285587 -0.00042399 0)
(0.0029202 -0.000493768 0)
(0.00303919 -0.000553546 0)
(0.003205 -0.000604799 0)
(0.00341092 -0.000648541 0)
(0.0036511 -0.00068524 0)
(0.00392034 -0.000715147 0)
(0.00421386 -0.000738391 0)
(0.00452716 -0.000754911 0)
(0.00485606 -0.000764524 0)
(0.00519662 -0.000766971 0)
(0.00554514 -0.00076183 0)
(0.00589879 -0.000748289 0)
(0.00625589 -0.0007262 0)
(0.00661591 -0.000695494 0)
(0.00697823 -0.0006577 0)
(0.00733774 -0.00061617 0)
(0.00772526 -0.000560686 0)
(0.00836411 -0.000471943 0)
(0.110542 0.0874731 0)
(0.102426 0.0780123 0)
(0.0900158 0.0646529 0)
(0.0769307 0.050979 0)
(0.0646595 0.0392575 0)
(0.0535806 0.0296508 0)
(0.0440509 0.0220715 0)
(0.0361392 0.0163225 0)
(0.0297017 0.0120688 0)
(0.0245209 0.00894267 0)
(0.0203788 0.00663247 0)
(0.0170849 0.00490808 0)
(0.014479 0.00360865 0)
(0.0124283 0.00262152 0)
(0.0108238 0.00186587 0)
(0.00957736 0.00128208 0)
(0.00861924 0.000825532 0)
(0.00789517 0.000463516 0)
(0.00736237 0.000172333 0)
(0.00698647 -6.55733e-05 0)
(0.00674162 -0.000262503 0)
(0.00660836 -0.000428175 0)
(0.00656989 -0.000569849 0)
(0.00661169 -0.000691156 0)
(0.00672201 -0.000795074 0)
(0.006891 -0.000883788 0)
(0.00711015 -0.00095879 0)
(0.00737195 -0.00102107 0)
(0.00766967 -0.00107128 0)
(0.00799712 -0.00110981 0)
(0.00834863 -0.00113683 0)
(0.00871896 -0.00115242 0)
(0.00910328 -0.00115653 0)
(0.00949742 -0.00114903 0)
(0.00989811 -0.00113019 0)
(0.0103029 -0.00110086 0)
(0.0107084 -0.00106335 0)
(0.0111098 -0.00102208 0)
(0.0115365 -0.000976953 0)
(0.0121641 -0.000925455 0)
(0.102948 0.092666 0)
(0.101663 0.0868655 0)
(0.0938414 0.0749721 0)
(0.0847606 0.0617418 0)
(0.0750895 0.0499288 0)
(0.0653433 0.0396042 0)
(0.0562215 0.0308653 0)
(0.0480938 0.0238071 0)
(0.0410731 0.0182964 0)
(0.0351317 0.0140521 0)
(0.0301763 0.0107824 0)
(0.026091 0.0082504 0)
(0.0227558 0.00628018 0)
(0.0200554 0.00474193 0)
(0.0178844 0.00353689 0)
(0.016151 0.00258781 0)
(0.0147782 0.00183407 0)
(0.0137032 0.00122874 0)
(0.0128753 0.000735939 0)
(0.0122544 0.000329526 0)
(0.0118072 -8.85127e-06 0)
(0.0115056 -0.000293163 0)
(0.0113291 -0.000534659 0)
(0.0112604 -0.000741781 0)
(0.0112833 -0.000919376 0)
(0.0113845 -0.00107114 0)
(0.0115526 -0.00119996 0)
(0.011778 -0.00130794 0)
(0.0120518 -0.0013966 0)
(0.0123661 -0.00146701 0)
(0.0127137 -0.00151993 0)
(0.0130882 -0.00155591 0)
(0.0134833 -0.00157537 0)
(0.0138937 -0.00157868 0)
(0.0143146 -0.00156648 0)
(0.0147416 -0.00154001 0)
(0.0151691 -0.00150186 0)
(0.0155907 -0.00145671 0)
(0.0160335 -0.00140938 0)
(0.0166517 -0.00136759 0)
(0.106122 0.0920328 0)
(0.101942 0.0946648 0)
(0.0965222 0.0819688 0)
(0.0904178 0.0695962 0)
(0.0831725 0.0585749 0)
(0.0751583 0.0483925 0)
(0.0670695 0.0392193 0)
(0.0593619 0.0313832 0)
(0.0523044 0.0249537 0)
(0.0460301 0.0197736 0)
(0.040576 0.0156166 0)
(0.0359195 0.0122783 0)
(0.032002 0.00959788 0)
(0.0287449 0.00744892 0)
(0.0260618 0.00572775 0)
(0.0238689 0.00434702 0)
(0.0220904 0.00323369 0)
(0.0206611 0.00232852 0)
(0.0195265 0.001585 0)
(0.0186419 0.000967741 0)
(0.01797 0.000449806 0)
(0.017479 1.20899e-05 0)
(0.0171419 -0.000359061 0)
(0.0169375 -0.000676632 0)
(0.0168478 -0.000949262 0)
(0.0168564 -0.00118262 0)
(0.0169488 -0.00138131 0)
(0.0171132 -0.00154889 0)
(0.0173387 -0.00168804 0)
(0.0176159 -0.00180081 0)
(0.0179362 -0.0018887 0)
(0.0182918 -0.00195291 0)
(0.0186754 -0.00199438 0)
(0.0190803 -0.00201392 0)
(0.0195007 -0.00201249 0)
(0.0199307 -0.0019915 0)
(0.0203631 -0.0019535 0)
(0.0207898 -0.00190301 0)
(0.021235 -0.00184716 0)
(0.0218447 -0.00180141 0)
(0.0878717 0.104488 0)
(0.091876 0.0965833 0)
(0.0941565 0.0842299 0)
(0.0930045 0.0742455 0)
(0.0887452 0.0649248 0)
(0.0828675 0.0555727 0)
(0.0762655 0.0465871 0)
(0.0694693 0.0385062 0)
(0.0628523 0.0315622 0)
(0.056667 0.025719 0)
(0.0510626 0.0208374 0)
(0.0461083 0.0167739 0)
(0.0418144 0.0134085 0)
(0.0381501 0.010639 0)
(0.0350602 0.00837213 0)
(0.0324789 0.00652049 0)
(0.0303403 0.00500487 0)
(0.0285839 0.00375719 0)
(0.0271563 0.00272198 0)
(0.026012 0.00185584 0)
(0.0251119 0.00112529 0)
(0.0244226 0.00050482 0)
(0.0239139 -2.45161e-05 0)
(0.0235604 -0.000476392 0)
(0.0233423 -0.000864071 0)
(0.0232409 -0.00119681 0)
(0.0232396 -0.00148102 0)
(0.0233242 -0.00172189 0)
(0.0234824 -0.00192355 0)
(0.0237031 -0.00208921 0)
(0.0239765 -0.00222134 0)
(0.0242938 -0.0023219 0)
(0.0246467 -0.00239246 0)
(0.0250276 -0.00243431 0)
(0.0254297 -0.0024487 0)
(0.0258463 -0.00243715 0)
(0.0262691 -0.00240208 0)
(0.0266893 -0.00234772 0)
(0.0271275 -0.0022821 0)
(0.0277272 -0.002227 0)
(0.0870357 0.0949673 0)
(0.0904475 0.0887014 0)
(0.0947764 0.0819503 0)
(0.0952949 0.0758968 0)
(0.0929003 0.0689371 0)
(0.0888663 0.0609232 0)
(0.0838117 0.0526255 0)
(0.078175 0.0447708 0)
(0.0723356 0.0377105 0)
(0.0665964 0.0315113 0)
(0.0611759 0.0261234 0)
(0.0562139 0.0214773 0)
(0.0517825 0.0175103 0)
(0.0479005 0.0141605 0)
(0.0445495 0.0113591 0)
(0.0416894 0.0090295 0)
(0.0392712 0.00709366 0)
(0.0372449 0.00547963 0)
(0.035564 0.00412607 0)
(0.0341862 0.00298364 0)
(0.033074 0.00201367 0)
(0.0321938 0.00118596 0)
(0.0315161 0.000476773 0)
(0.0310133 -0.000131194 0)
(0.0306615 -0.000652309 0)
(0.0304419 -0.00110046 0)
(0.0303368 -0.00148442 0)
(0.0303301 -0.00181122 0)
(0.030408 -0.00208661 0)
(0.0305584 -0.00231515 0)
(0.0307704 -0.00250044 0)
(0.0310344 -0.00264536 0)
(0.0313415 -0.0027522 0)
(0.0316834 -0.00282282 0)
(0.0320526 -0.00285884 0)
(0.0324422 -0.00286194 0)
(0.0328435 -0.00283441 0)
(0.0332473 -0.00278013 0)
(0.0336707 -0.00270725 0)
(0.0342573 -0.00264229 0)
(0.105471 0.0914591 0)
(0.101541 0.085542 0)
(0.100339 0.0816232 0)
(0.0987884 0.0773305 0)
(0.0966099 0.0717184 0)
(0.093677 0.0648034 0)
(0.0899098 0.05733 0)
(0.08545 0.0499804 0)
(0.0805612 0.0431104 0)
(0.0755183 0.0368356 0)
(0.0705568 0.0311729 0)
(0.0658539 0.0261207 0)
(0.0615257 0.0216773 0)
(0.0576325 0.01783 0)
(0.0541911 0.0145439 0)
(0.0511896 0.0117622 0)
(0.0486001 0.00941546 0)
(0.0463881 0.00743305 0)
(0.0445179 0.00575177 0)
(0.0429548 0.0043192 0)
(0.0416661 0.0030935 0)
(0.0406208 0.00204158 0)
(0.0397906 0.0011368 0)
(0.0391494 0.000357199 0)
(0.0386716 -0.000313635 0)
(0.0383363 -0.000889982 0)
(0.0381265 -0.00138531 0)
(0.0380252 -0.00180862 0)
(0.0380173 -0.00216733 0)
(0.0380901 -0.00246749 0)
(0.0382322 -0.00271394 0)
(0.0384332 -0.00291057 0)
(0.038684 -0.00306053 0)
(0.038976 -0.00316634 0)
(0.0393016 -0.00323013 0)
(0.0396535 -0.00325385 0)
(0.0400235 -0.00323979 0)
(0.0404027 -0.0031915 0)
(0.0408044 -0.00311661 0)
(0.0413735 -0.00304438 0)
(0.0991029 0.0906424 0)
(0.10136 0.0870022 0)
(0.101078 0.0834096 0)
(0.100454 0.0792127 0)
(0.0992103 0.0738977 0)
(0.0973466 0.0676022 0)
(0.0947351 0.0608513 0)
(0.0913951 0.0541047 0)
(0.0875029 0.0476129 0)
(0.0832878 0.041477 0)
(0.0789713 0.0357449 0)
(0.0747385 0.0304648 0)
(0.0707255 0.0256891 0)
(0.067019 0.0214542 0)
(0.0636632 0.0177634 0)
(0.0606712 0.0145845 0)
(0.0580365 0.011862 0)
(0.0557424 0.00953142 0)
(0.0537669 0.00753164 0)
(0.0520858 0.00581032 0)
(0.0506738 0.00432499 0)
(0.0495053 0.00304148 0)
(0.0485551 0.00193182 0)
(0.0477989 0.000972272 0)
(0.0472139 0.000142736 0)
(0.0467778 -0.00057178 0)
(0.0464721 -0.00118666 0)
(0.0462815 -0.00171418 0)
(0.0461906 -0.00216342 0)
(0.0461859 -0.00254194 0)
(0.046256 -0.00285592 0)
(0.0463905 -0.00311036 0)
(0.04658 -0.00330934 0)
(0.0468161 -0.00345617 0)
(0.0470912 -0.00355361 0)
(0.0473984 -0.00360406 0)
(0.04773 -0.00360999 0)
(0.0480779 -0.00357471 0)
(0.048452 -0.00350491 0)
(0.0489989 -0.00343024 0)
(0.0977052 0.0961654 0)
(0.0985928 0.0841819 0)
(0.100398 0.0823598 0)
(0.101038 0.0795197 0)
(0.100976 0.0748729 0)
(0.100176 0.0692723 0)
(0.0985689 0.0632741 0)
(0.096208 0.0571933 0)
(0.0932473 0.0511872 0)
(0.0898809 0.0453298 0)
(0.0863017 0.0396818 0)
(0.0826784 0.0343255 0)
(0.0791442 0.0293562 0)
(0.0757934 0.0248529 0)
(0.072685 0.0208542 0)
(0.0698505 0.0173536 0)
(0.0673019 0.0143115 0)
(0.0650392 0.0116728 0)
(0.063055 0.00938141 0)
(0.061337 0.0073881 0)
(0.0598692 0.00565234 0)
(0.0586331 0.00414108 0)
(0.0576085 0.00282666 0)
(0.0567747 0.00168505 0)
(0.0561114 0.000694959 0)
(0.0555982 -0.000162136 0)
(0.0552167 -0.00090094 0)
(0.0549515 -0.00153694 0)
(0.0547885 -0.00208078 0)
(0.0547145 -0.00254173 0)
(0.0547179 -0.00292734 0)
(0.0547888 -0.00324379 0)
(0.054918 -0.00349615 0)
(0.0550974 -0.0036886 0)
(0.05532 -0.00382464 0)
(0.0555794 -0.00390732 0)
(0.0558686 -0.00393949 0)
(0.0561811 -0.00392444 0)
(0.056523 -0.0038677 0)
(0.0570432 -0.00379706 0)
(0.116746 0.0974282 0)
(0.108136 0.0857859 0)
(0.104358 0.0823787 0)
(0.103259 0.0791848 0)
(0.103154 0.0749428 0)
(0.102794 0.0700537 0)
(0.101783 0.0648207 0)
(0.100125 0.0594076 0)
(0.0979327 0.0539088 0)
(0.0953506 0.0483851 0)
(0.0925229 0.0429079 0)
(0.0895804 0.0375828 0)
(0.0866324 0.0325353 0)
(0.0837638 0.0278756 0)
(0.0810358 0.0236698 0)
(0.0784893 0.019933 0)
(0.0761497 0.016641 0)
(0.0740308 0.0137487 0)
(0.0721383 0.0112072 0)
(0.0704715 0.00897235 0)
(0.069024 0.00700778 0)
(0.0677856 0.00528356 0)
(0.0667421 0.00377406 0)
(0.0658777 0.00245625 0)
(0.0651753 0.00130881 0)
(0.0646182 0.000311919 0)
(0.0641887 -0.000551017 0)
(0.0638723 -0.00129487 0)
(0.0636567 -0.00193359 0)
(0.063529 -0.00247782 0)
(0.0634784 -0.00293637 0)
(0.0634954 -0.00331659 0)
(0.0635716 -0.00362456 0)
(0.0636996 -0.00386539 0)
(0.0638728 -0.00404343 0)
(0.0640857 -0.00416248 0)
(0.0643324 -0.00422602 0)
(0.0646081 -0.00423761 0)
(0.0649154 -0.00420176 0)
(0.0654053 -0.00414255 0)
(0.115816 0.108647 0)
(0.110635 0.095903 0)
(0.106663 0.0862447 0)
(0.10545 0.0798794 0)
(0.10534 0.0750349 0)
(0.105105 0.070521 0)
(0.104402 0.0658698 0)
(0.103229 0.0609906 0)
(0.101658 0.0559146 0)
(0.0997768 0.0506953 0)
(0.0976739 0.04541 0)
(0.0954317 0.0401761 0)
(0.093125 0.0351345 0)
(0.0908185 0.0304125 0)
(0.0885659 0.026093 0)
(0.0864099 0.0222057 0)
(0.084383 0.0187381 0)
(0.0825088 0.0156548 0)
(0.0808029 0.0129142 0)
(0.0792743 0.0104786 0)
(0.0779257 0.00831717 0)
(0.0767543 0.00640454 0)
(0.0757529 0.00471854 0)
(0.0749109 0.00323834 0)
(0.0742157 0.00194378 0)
(0.0736539 0.000815288 0)
(0.0732117 -0.000165295 0)
(0.0728754 -0.00101313 0)
(0.0726329 -0.0017435 0)
(0.0724739 -0.00236848 0)
(0.0723885 -0.00289819 0)
(0.0723678 -0.00334112 0)
(0.0724045 -0.0037044 0)
(0.0724919 -0.00399406 0)
(0.0726244 -0.00421536 0)
(0.0727971 -0.00437297 0)
(0.0730055 -0.00447116 0)
(0.0732463 -0.0045141 0)
(0.0735194 -0.00450569 0)
(0.0739772 -0.00446532 0)
(0.10401 0.104249 0)
(0.105665 0.0983651 0)
(0.105649 0.0872482 0)
(0.106163 0.0798602 0)
(0.106619 0.0749699 0)
(0.106628 0.070823 0)
(0.106231 0.0665908 0)
(0.105499 0.0620773 0)
(0.104491 0.0573005 0)
(0.103256 0.0523169 0)
(0.101839 0.0472069 0)
(0.100283 0.0420899 0)
(0.0986297 0.0371097 0)
(0.0969211 0.0323978 0)
(0.0951992 0.028043 0)
(0.093503 0.0240822 0)
(0.0918666 0.0205105 0)
(0.0903186 0.0172995 0)
(0.0888809 0.0144149 0)
(0.0875692 0.0118255 0)
(0.0863931 0.00950644 0)
(0.0853564 0.00743758 0)
(0.0844583 0.00560107 0)
(0.0836938 0.00397927 0)
(0.083055 0.00255406 0)
(0.0825326 0.00130702 0)
(0.0821158 0.000219999 0)
(0.0817937 -0.000723451 0)
(0.0815561 -0.00153837 0)
(0.0813938 -0.00223815 0)
(0.0812982 -0.00283409 0)
(0.0812617 -0.00333576 0)
(0.0812777 -0.00375127 0)
(0.0813407 -0.00408763 0)
(0.0814459 -0.00435098 0)
(0.0815896 -0.00454691 0)
(0.081768 -0.00468062 0)
(0.08198 -0.00475719 0)
(0.0822222 -0.00478049 0)
(0.0826485 -0.00476529 0)
(0.0990323 0.101736 0)
(0.103164 0.0956047 0)
(0.105873 0.0855246 0)
(0.106895 0.0788689 0)
(0.107302 0.074559 0)
(0.107407 0.0708427 0)
(0.107307 0.066928 0)
(0.107018 0.0626645 0)
(0.106549 0.0580966 0)
(0.105917 0.0532917 0)
(0.105139 0.0483339 0)
(0.104231 0.0433421 0)
(0.10321 0.0384567 0)
(0.102099 0.0338056 0)
(0.100928 0.0294755 0)
(0.0997282 0.0255044 0)
(0.0985323 0.0218906 0)
(0.0973688 0.0186109 0)
(0.0962622 0.0156364 0)
(0.0952316 0.0129418 0)
(0.094291 0.010508 0)
(0.0934493 0.00831985 0)
(0.0927108 0.00636413 0)
(0.0920757 0.0046268 0)
(0.091541 0.00309239 0)
(0.0911015 0.00174426 0)
(0.0907503 0.00056521 0)
(0.0904793 -0.00046107 0)
(0.0902798 -0.00134998 0)
(0.0901448 -0.00211555 0)
(0.090067 -0.00276992 0)
(0.09004 -0.0033236 0)
(0.0900583 -0.00378563 0)
(0.0901172 -0.00416391 0)
(0.090213 -0.00446548 0)
(0.0903427 -0.00469684 0)
(0.0905037 -0.0048642 0)
(0.0906963 -0.00497372 0)
(0.0909145 -0.00502993 0)
(0.0913127 -0.005044 0)
(0.110962 0.101764 0)
(0.111069 0.0945473 0)
(0.109735 0.0853544 0)
(0.108396 0.0788862 0)
(0.107824 0.0745533 0)
(0.107737 0.0708006 0)
(0.107849 0.0669315 0)
(0.107963 0.0627777 0)
(0.107989 0.0583425 0)
(0.107906 0.0536715 0)
(0.107709 0.0488433 0)
(0.107396 0.0439746 0)
(0.106966 0.0392006 0)
(0.106429 0.0346413 0)
(0.105802 0.0303773 0)
(0.105109 0.0264431 0)
(0.104378 0.0228373 0)
(0.103634 0.0195393 0)
(0.1029 0.0165242 0)
(0.102197 0.0137712 0)
(0.10154 0.0112658 0)
(0.100941 0.0089973 0)
(0.100409 0.00695652 0)
(0.0999485 0.00513299 0)
(0.0995605 0.00351427 0)
(0.0992441 0.00208604 0)
(0.0989958 0.000832816 0)
(0.0988106 -0.000261442 0)
(0.0986826 -0.00121144 0)
(0.0986059 -0.00203136 0)
(0.098575 -0.00273402 0)
(0.0985846 -0.00333065 0)
(0.0986302 -0.00383113 0)
(0.098708 -0.00424417 0)
(0.098815 -0.00457765 0)
(0.0989491 -0.00483895 0)
(0.0991082 -0.00503524 0)
(0.099294 -0.0051739 0)
(0.0994977 -0.0052606 0)
(0.0998742 -0.00530473 0)
(0.104154 0.0982243 0)
(0.108751 0.096129 0)
(0.108512 0.0873105 0)
(0.10761 0.0802026 0)
(0.107215 0.0749949 0)
(0.107396 0.0706799 0)
(0.10788 0.0666027 0)
(0.108424 0.0624445 0)
(0.108922 0.0580841 0)
(0.109343 0.0535117 0)
(0.109675 0.0487918 0)
(0.109905 0.0440382 0)
(0.110022 0.0393803 0)
(0.110024 0.0349293 0)
(0.10992 0.0307571 0)
(0.109725 0.0268928 0)
(0.109461 0.0233328 0)
(0.109149 0.0200574 0)
(0.108809 0.0170442 0)
(0.10846 0.0142753 0)
(0.108118 0.0117391 0)
(0.107796 0.00942845 0)
(0.107506 0.00733715 0)
(0.107254 0.00545792 0)
(0.107047 0.00378131 0)
(0.106887 0.00229557 0)
(0.106774 0.000987309 0)
(0.106706 -0.000157938 0)
(0.106679 -0.00115424 0)
(0.10669 -0.00201551 0)
(0.106733 -0.00275475 0)
(0.106806 -0.00338368 0)
(0.106904 -0.00391279 0)
(0.107024 -0.0043515 0)
(0.107165 -0.00470844 0)
(0.107323 -0.0049918 0)
(0.107497 -0.00520964 0)
(0.107691 -0.00537051 0)
(0.107892 -0.00548152 0)
(0.108256 -0.00555232 0)
(0.0947076 0.0955173 0)
(0.101184 0.0920631 0)
(0.103425 0.0861546 0)
(0.104843 0.0799576 0)
(0.10574 0.0745599 0)
(0.106621 0.0699752 0)
(0.107573 0.065797 0)
(0.108531 0.0616543 0)
(0.10946 0.0573539 0)
(0.110344 0.0528573 0)
(0.111164 0.0482275 0)
(0.111896 0.0435793 0)
(0.112519 0.0390369 0)
(0.113025 0.034702 0)
(0.113414 0.0306372 0)
(0.113696 0.0268648 0)
(0.113887 0.0233785 0)
(0.114003 0.0201581 0)
(0.114061 0.017182 0)
(0.114076 0.0144339 0)
(0.114063 0.0119038 0)
(0.114035 0.00958636 0)
(0.114007 0.00747742 0)
(0.113987 0.00557221 0)
(0.113985 0.00386397 0)
(0.114006 0.00234365 0)
(0.114054 0.00100027 0)
(0.114127 -0.000178608 0)
(0.114227 -0.00120598 0)
(0.114349 -0.00209501 0)
(0.114492 -0.0028584 0)
(0.114652 -0.00350808 0)
(0.114826 -0.00405493 0)
(0.115011 -0.00450893 0)
(0.115205 -0.00487931 0)
(0.115408 -0.00517492 0)
(0.115616 -0.00540459 0)
(0.115833 -0.00557791 0)
(0.116044 -0.00570346 0)
(0.116406 -0.00579284 0)
(0.104605 0.109351 0)
(0.104286 0.092949 0)
(0.103748 0.0840853 0)
(0.104336 0.0782311 0)
(0.105164 0.073226 0)
(0.106125 0.0687747 0)
(0.107228 0.0646268 0)
(0.108442 0.0604942 0)
(0.109724 0.0562106 0)
(0.111029 0.0517515 0)
(0.112305 0.0471882 0)
(0.113509 0.0426343 0)
(0.114608 0.0382056 0)
(0.115587 0.0339919 0)
(0.11644 0.0300451 0)
(0.117173 0.0263809 0)
(0.117797 0.0229895 0)
(0.118325 0.0198496 0)
(0.118768 0.0169397 0)
(0.119141 0.0142436 0)
(0.119456 0.0117516 0)
(0.119728 0.00945866 0)
(0.119969 0.00736181 0)
(0.120193 0.00545801 0)
(0.120409 0.00374278 0)
(0.120627 0.0022097 0)
(0.120851 0.000850347 0)
(0.121084 -0.000345373 0)
(0.121328 -0.00138891 0)
(0.121582 -0.00229221 0)
(0.121843 -0.00306737 0)
(0.12211 -0.00372612 0)
(0.12238 -0.0042795 0)
(0.12265 -0.00473776 0)
(0.122918 -0.00511054 0)
(0.123183 -0.00540719 0)
(0.123441 -0.00563713 0)
(0.123697 -0.00581077 0)
(0.123931 -0.0059379 0)
(0.124301 -0.00603289 0)
(0.10964 0.10661 0)
(0.10636 0.0944987 0)
(0.105935 0.0846807 0)
(0.105297 0.0780826 0)
(0.105183 0.0726404 0)
(0.105738 0.0678486 0)
(0.106787 0.0634281 0)
(0.108184 0.0591035 0)
(0.109798 0.0547119 0)
(0.111513 0.0502234 0)
(0.113234 0.0456965 0)
(0.114894 0.0412274 0)
(0.116448 0.0369132 0)
(0.117874 0.0328272 0)
(0.119163 0.0290092 0)
(0.120319 0.0254676 0)
(0.12135 0.0221892 0)
(0.122264 0.0191514 0)
(0.123073 0.0163321 0)
(0.123787 0.0137142 0)
(0.124419 0.0112873 0)
(0.124982 0.00904576 0)
(0.12549 0.00698682 0)
(0.125958 0.00510852 0)
(0.126396 0.00340831 0)
(0.126817 0.00188221 0)
(0.127226 0.000524381 0)
(0.127629 -0.000672755 0)
(0.12803 -0.00171862 0)
(0.128427 -0.00262368 0)
(0.128821 -0.003399 0)
(0.12921 -0.00405575 0)
(0.129591 -0.00460472 0)
(0.129962 -0.00505618 0)
(0.13032 -0.0054199 0)
(0.130663 -0.00570553 0)
(0.130987 -0.00592282 0)
(0.131295 -0.00608271 0)
(0.131563 -0.00619593 0)
(0.131951 -0.00627878 0)
(0.0937771 0.0988243 0)
(0.0971741 0.0919897 0)
(0.100976 0.0843866 0)
(0.10269 0.0781821 0)
(0.103547 0.0723626 0)
(0.104565 0.0670054 0)
(0.105979 0.0620876 0)
(0.10776 0.0574126 0)
(0.109792 0.0528215 0)
(0.111947 0.0482604 0)
(0.114114 0.0437555 0)
(0.116217 0.039372 0)
(0.118205 0.03518 0)
(0.120052 0.0312327 0)
(0.121751 0.0275568 0)
(0.123301 0.0241532 0)
(0.12471 0.0210053 0)
(0.125983 0.0180893 0)
(0.127131 0.0153817 0)
(0.128164 0.0128644 0)
(0.129093 0.0105254 0)
(0.129933 0.00835781 0)
(0.130697 0.00635853 0)
(0.131401 0.0045262 0)
(0.132057 0.00285989 0)
(0.132679 0.00135787 0)
(0.133275 1.68281e-05 0)
(0.133852 -0.00116819 0)
(0.134414 -0.00220429 0)
(0.134962 -0.00310008 0)
(0.135498 -0.00386523 0)
(0.136018 -0.00450989 0)
(0.136522 -0.00504424 0)
(0.137005 -0.0054782 0)
(0.137464 -0.00582142 0)
(0.137897 -0.00608352 0)
(0.138297 -0.00627436 0)
(0.138666 -0.00640503 0)
(0.138978 -0.00648689 0)
(0.139392 -0.00653552 0)
(0.100982 0.0900053 0)
(0.0970251 0.0860728 0)
(0.0989504 0.0819352 0)
(0.100345 0.0768855 0)
(0.101744 0.0711693 0)
(0.103365 0.0655237 0)
(0.105292 0.0602327 0)
(0.107529 0.0552522 0)
(0.109993 0.0504767 0)
(0.112568 0.0458508 0)
(0.115151 0.0413765 0)
(0.117663 0.037089 0)
(0.120051 0.0330313 0)
(0.122289 0.0292362 0)
(0.124365 0.0257169 0)
(0.126279 0.0224672 0)
(0.128035 0.0194672 0)
(0.129639 0.0166913 0)
(0.1311 0.0141148 0)
(0.132426 0.0117175 0)
(0.133631 0.00948566 0)
(0.134727 0.00741089 0)
(0.135732 0.00548933 0)
(0.13666 0.00372 0)
(0.137526 0.00210332 0)
(0.138343 0.000639523 0)
(0.139122 -0.00067173 0)
(0.13987 -0.00183315 0)
(0.140594 -0.00284925 0)
(0.141295 -0.0037264 0)
(0.141975 -0.00447243 0)
(0.142631 -0.00509608 0)
(0.143262 -0.00560646 0)
(0.143863 -0.00601279 0)
(0.14443 -0.00632425 0)
(0.144957 -0.00655015 0)
(0.145439 -0.0067002 0)
(0.145876 -0.00678519 0)
(0.146234 -0.00681708 0)
(0.146676 -0.00680568 0)
(0.0970751 0.0871711 0)
(0.0951158 0.0842962 0)
(0.0970944 0.0802794 0)
(0.0990938 0.0751108 0)
(0.101033 0.0693121 0)
(0.103082 0.0634704 0)
(0.105365 0.0579086 0)
(0.10793 0.0526786 0)
(0.110718 0.0477398 0)
(0.113626 0.0430551 0)
(0.116551 0.0386137 0)
(0.119411 0.0344255 0)
(0.12215 0.030508 0)
(0.124736 0.0268737 0)
(0.127155 0.0235226 0)
(0.1294 0.0204408 0)
(0.131474 0.0176045 0)
(0.133381 0.0149857 0)
(0.135127 0.0125575 0)
(0.136723 0.0102974 0)
(0.138182 0.00818929 0)
(0.139518 0.00622323 0)
(0.140746 0.0043945 0)
(0.141885 0.00270232 0)
(0.142948 0.00114825 0)
(0.143951 -0.000265128 0)
(0.144905 -0.00153595 0)
(0.145819 -0.00266424 0)
(0.1467 -0.00365172 0)
(0.14755 -0.00450223 0)
(0.148371 -0.00522134 0)
(0.149161 -0.00581593 0)
(0.149918 -0.00629364 0)
(0.150635 -0.00666258 0)
(0.151308 -0.00693118 0)
(0.151929 -0.00710815 0)
(0.152491 -0.00720281 0)
(0.152993 -0.00722514 0)
(0.153397 -0.007188 0)
(0.153862 -0.00708804 0)
(0.103267 0.0974355 0)
(0.0984751 0.0859789 0)
(0.0979037 0.0791346 0)
(0.0995283 0.0732417 0)
(0.101593 0.0672272 0)
(0.103827 0.0611838 0)
(0.106306 0.0553563 0)
(0.109078 0.0498632 0)
(0.112093 0.0447376 0)
(0.115251 0.0399712 0)
(0.118447 0.035545 0)
(0.121595 0.0314444 0)
(0.124632 0.0276611 0)
(0.127524 0.0241873 0)
(0.130247 0.0210094 0)
(0.132793 0.0181051 0)
(0.135157 0.0154454 0)
(0.137341 0.0129982 0)
(0.139352 0.0107334 0)
(0.141197 0.00862543 0)
(0.142892 0.00665559 0)
(0.14445 0.004812 0)
(0.145888 0.00308912 0)
(0.147223 0.00148634 0)
(0.148473 6.43692e-06 0)
(0.149651 -0.00134607 0)
(0.15077 -0.00256726 0)
(0.151839 -0.00365395 0)
(0.152867 -0.00460501 0)
(0.153857 -0.00542142 0)
(0.154809 -0.00610614 0)
(0.155723 -0.00666376 0)
(0.156594 -0.00710009 0)
(0.157416 -0.00742184 0)
(0.158183 -0.00763636 0)
(0.158887 -0.00775159 0)
(0.159517 -0.00777623 0)
(0.160071 -0.00771893 0)
(0.160512 -0.00759423 0)
(0.160983 -0.00737602 0)
(0.088758 0.0872096 0)
(0.0926836 0.0833708 0)
(0.0969025 0.0770989 0)
(0.100063 0.0710083 0)
(0.102571 0.0649198 0)
(0.105077 0.0587226 0)
(0.107807 0.0526298 0)
(0.110815 0.0468578 0)
(0.114061 0.0415249 0)
(0.117452 0.0366558 0)
(0.120889 0.0322252 0)
(0.124289 0.0281955 0)
(0.12759 0.0245344 0)
(0.130753 0.0212149 0)
(0.133752 0.01821 0)
(0.136571 0.0154885 0)
(0.139201 0.0130145 0)
(0.141643 0.0107506 0)
(0.143899 0.0086619 0)
(0.145978 0.00671901 0)
(0.147894 0.00490012 0)
(0.149661 0.00319132 0)
(0.151297 0.00158615 0)
(0.152817 8.42809e-05 0)
(0.15424 -0.00131048 0)
(0.15558 -0.00259218 0)
(0.15685 -0.00375407 0)
(0.158061 -0.00479017 0)
(0.159219 -0.00569627 0)
(0.16033 -0.00647023 0)
(0.161393 -0.00711209 0)
(0.162408 -0.00762383 0)
(0.16337 -0.00800915 0)
(0.164272 -0.0082731 0)
(0.165107 -0.00842188 0)
(0.165867 -0.00846244 0)
(0.166539 -0.00840285 0)
(0.167121 -0.00824979 0)
(0.167577 -0.0080208 0)
(0.168025 -0.00765599 0)
(0.0979806 0.0832716 0)
(0.0988315 0.07999 0)
(0.0991625 0.074669 0)
(0.101093 0.068609 0)
(0.103578 0.0623617 0)
(0.106429 0.055946 0)
(0.109567 0.0495904 0)
(0.112949 0.0435696 0)
(0.116516 0.038056 0)
(0.120189 0.0330973 0)
(0.123887 0.0286632 0)
(0.127539 0.0246986 0)
(0.131094 0.0211522 0)
(0.134512 0.0179818 0)
(0.137766 0.0151489 0)
(0.140838 0.0126132 0)
(0.143717 0.0103315 0)
(0.146399 0.00825986 0)
(0.148887 0.00635772 0)
(0.151187 0.00459106 0)
(0.153313 0.00293477 0)
(0.155277 0.00137264 0)
(0.157097 -0.00010264 0)
(0.158789 -0.00149145 0)
(0.160369 -0.00278915 0)
(0.161852 -0.00398798 0)
(0.163252 -0.00507882 0)
(0.164578 -0.0060529 0)
(0.165838 -0.00690286 0)
(0.167037 -0.00762331 0)
(0.168176 -0.00821119 0)
(0.169253 -0.00866575 0)
(0.170263 -0.00898843 0)
(0.171201 -0.00918261 0)
(0.17206 -0.00925329 0)
(0.17283 -0.00920645 0)
(0.173502 -0.00904956 0)
(0.174069 -0.00878681 0)
(0.174506 -0.00844038 0)
(0.174886 -0.00790558 0)
(0.0989298 0.0927965 0)
(0.0991583 0.0812702 0)
(0.0989354 0.0732403 0)
(0.101133 0.0660701 0)
(0.104225 0.0592755 0)
(0.10774 0.0525717 0)
(0.111503 0.046018 0)
(0.115421 0.0398437 0)
(0.119429 0.0342302 0)
(0.123465 0.029236 0)
(0.127474 0.0248289 0)
(0.131407 0.0209438 0)
(0.135223 0.0175179 0)
(0.138893 0.0144991 0)
(0.142393 0.0118406 0)
(0.145706 0.0094947 0)
(0.148818 0.00741112 0)
(0.151727 0.00553931 0)
(0.154432 0.00383304 0)
(0.156938 0.00225323 0)
(0.159257 0.000771335 0)
(0.161401 -0.000630797 0)
(0.163385 -0.00196196 0)
(0.165223 -0.00322284 0)
(0.166932 -0.00440796 0)
(0.168525 -0.00550799 0)
(0.170016 -0.00651175 0)
(0.171414 -0.0074078 0)
(0.172727 -0.00818578 0)
(0.17396 -0.00883715 0)
(0.175115 -0.00935584 0)
(0.176191 -0.00973844 0)
(0.177185 -0.00998426 0)
(0.178091 -0.0100951 0)
(0.178905 -0.010075 0)
(0.179618 -0.00992911 0)
(0.180226 -0.00966443 0)
(0.180717 -0.00928232 0)
(0.181085 -0.00881109 0)
(0.181336 -0.00809292 0)
(0.0950901 0.103894 0)
(0.0977852 0.0834115 0)
(0.0988389 0.0715719 0)
(0.101629 0.063005 0)
(0.105235 0.0555658 0)
(0.109386 0.0485445 0)
(0.113824 0.041833 0)
(0.118365 0.0355871 0)
(0.122904 0.0299617 0)
(0.127383 0.0250049 0)
(0.131762 0.0206769 0)
(0.13601 0.0169055 0)
(0.140107 0.0136217 0)
(0.144033 0.0107683 0)
(0.147772 0.00829348 0)
(0.15131 0.00614512 0)
(0.154638 0.00426772 0)
(0.157749 0.00260473 0)
(0.160644 0.00110478 0)
(0.163326 -0.000274928 0)
(0.165803 -0.0015673 0)
(0.168087 -0.00279284 0)
(0.17019 -0.00396171 0)
(0.172126 -0.00507488 0)
(0.173908 -0.00612642 0)
(0.175551 -0.00710591 0)
(0.177065 -0.00800044 0)
(0.178461 -0.00879636 0)
(0.179748 -0.00948064 0)
(0.180932 -0.010042 0)
(0.182014 -0.0104717 0)
(0.182997 -0.0107641 0)
(0.18388 -0.0109167 0)
(0.184661 -0.01093 0)
(0.185338 -0.0108075 0)
(0.185906 -0.0105537 0)
(0.186365 -0.0101755 0)
(0.186704 -0.00967142 0)
(0.18694 -0.00907652 0)
(0.186988 -0.00817746 0)
(0.098859 0.102471 0)
(0.0984315 0.0819037 0)
(0.0995925 0.0695181 0)
(0.102453 0.0597509 0)
(0.106613 0.051364 0)
(0.111527 0.0438479 0)
(0.116755 0.0369567 0)
(0.12202 0.0307043 0)
(0.12718 0.0251612 0)
(0.13217 0.0203325 0)
(0.136967 0.0161576 0)
(0.141561 0.0125551 0)
(0.145947 0.00945202 0)
(0.150122 0.0067912 0)
(0.15408 0.00451986 0)
(0.157812 0.00258475 0)
(0.161312 0.000927858 0)
(0.164574 -0.000510129 0)
(0.167598 -0.00178612 0)
(0.170387 -0.00294714 0)
(0.172946 -0.0040293 0)
(0.175286 -0.00505589 0)
(0.177419 -0.00603815 0)
(0.179357 -0.00697762 0)
(0.181113 -0.00786838 0)
(0.182699 -0.00869937 0)
(0.184127 -0.00945652 0)
(0.185408 -0.0101245 0)