/*--------------------------------*- C++ -*----------------------------------*\
  =========                 |
  \\      /  F ield         | OpenFOAM: The Open Source CFD Toolbox
   \\    /   O peration     | Website:  https://openfoam.org
    \\  /    A nd           | Version:  7
     \\/     M anipulation  |
\*---------------------------------------------------------------------------*/
FoamFile
{
    version     2.0;
    format      ascii;
    class       surfaceScalarField;
    location    "1.435";
    object      phi;
}
// * * * * * * * * * * * * * * * * * * * * * * * * * * * * * * * * * * * * * //

dimensions      [1 0 -1 0 0 0 0];

internalField   nonuniform List<scalar> 
21708
(
0.00129186
0.00100112
1.3557e-05
0.000894432
0.000389834
6.157e-06
0.000685082
0.000196321
1.16259e-05
0.000595146
8.18934e-05
6.66622e-06
0.000542674
4.03482e-05
1.07639e-05
0.000511535
2.29161e-05
6.87205e-06
0.000487751
1.23718e-05
1.00638e-05
0.000470904
8.48477e-06
7.01118e-06
0.000455906
4.13764e-06
9.50238e-06
0.000444632
2.81208e-06
7.09232e-06
0.000433877
3.53209e-07
9.0216e-06
0.00042564
-2.67389e-07
7.11402e-06
0.000417464
-1.81396e-06
8.59332e-06
0.000411141
-2.1636e-06
7.08522e-06
0.000404647
-3.11018e-06
8.20034e-06
0.000399355
-3.12617e-06
7.01595e-06
0.000392544
-2.41715e-06
7.82856e-06
0.000388256
-4.01823e-06
6.91371e-06
0.000335358
4.39322e-05
7.57811e-06
2.28725e-05
6.48184e-06
0.000304621
0.00224403
0.00106043
2.8235e-06
0.0020531
0.000583284
-3.9559e-06
0.00184787
0.000398579
1.61167e-06
0.00170454
0.000227166
-3.21192e-06
0.00160091
0.000141797
9.7196e-07
0.00152983
9.56962e-05
-2.87742e-06
0.00147336
6.73345e-05
3.50402e-07
0.00143182
5.15649e-05
-2.69078e-06
0.00139488
4.00861e-05
-1.82102e-07
0.00136656
3.2532e-05
-2.58945e-06
0.00133966
2.66623e-05
-6.50108e-07
0.00131867
2.20157e-05
-2.55812e-06
0.00129801
1.86162e-05
-1.07238e-06
0.00128167
1.54353e-05
-2.58163e-06
0.00126564
1.30428e-05
-1.46441e-06
0.00125152
1.22939e-05
-2.64689e-06
0.00124252
7.09673e-06
-1.85288e-06
0.00122577
1.4133e-05
-2.73645e-06
0.00126515
5.58124e-06
-2.34045e-06
-2.51273e-05
-3.28598e-06
0.00131514
0.00256972
0.00078751
9.54358e-06
0.00265953
0.00048878
3.24162e-06
0.00265122
0.000397082
8.44031e-06
0.00261404
0.000259582
3.51079e-06
0.00256418
0.00018288
7.61447e-06
0.00251946
0.000135582
3.71826e-06
0.0024754
0.000103419
6.90951e-06
0.00243889
8.32004e-05
3.84761e-06
0.00240382
6.77981e-05
6.33706e-06
0.00237499
5.6412e-05
3.92111e-06
0.00234707
4.76491e-05
5.84992e-06
0.00232403
3.99797e-05
3.93854e-06
0.00230136
3.4654e-05
5.41764e-06
0.00228275
2.88557e-05
3.90665e-06
0.00226348
2.59651e-05
5.02235e-06
0.00224925
2.13306e-05
3.83384e-06
0.00222923
2.10649e-05
4.65588e-06
0.00222052
1.77193e-05
3.71494e-06
0.00218847
3.17851e-05
4.44551e-06
1.85647e-05
3.35603e-06
0.00214005
0.00257637
0.000513175
4.14096e-06
0.00273584
0.000329738
-1.8945e-06
0.0028403
0.000287991
3.25584e-06
0.00290062
0.00019962
-1.61735e-06
0.00292981
0.000150002
2.52654e-06
0.00294738
0.000118231
-1.33169e-06
0.00295229
9.55595e-05
1.8949e-06
0.0029548
8.08109e-05
-1.14763e-06
0.00295137
6.88858e-05
1.36087e-06
0.00294818
5.96915e-05
-1.04493e-06
0.00294177
5.21857e-05
8.94653e-07
0.00293618
4.55302e-05
-1.0109e-06
0.00292889
4.03392e-05
4.74637e-07
0.00292214
3.5424e-05
-1.03252e-06
0.00291545
3.12769e-05
8.46951e-08
0.00290751
2.90086e-05
-1.09836e-06
0.00290426
2.32048e-05
-3.00682e-07
0.00289507
2.66411e-05
-1.2116e-06
0.00290763
1.85369e-05
-8.0211e-07
6.36925e-06
-1.6748e-06
0.00291997
0.00256519
0.000246773
7.47007e-06
0.00273218
0.000159649
1.64602e-06
0.00286572
0.000146414
6.6553e-06
0.00295829
0.000104025
1.77135e-06
0.00302095
8.02892e-05
5.88841e-06
0.00307128
6.47823e-05
2.01435e-06
0.00310699
5.35555e-05
5.22528e-06
0.00313835
4.62531e-05
2.1724e-06
0.00316142
4.01601e-05
4.67092e-06
0.0031825
3.54093e-05
2.25991e-06
0.00319816
3.13931e-05
4.19342e-06
0.00321266
2.77541e-05
2.28533e-06
0.00322328
2.48804e-05
3.76678e-06
0.00323331
2.19656e-05
2.25791e-06
0.00324011
1.98634e-05
3.37388e-06
0.00324773
1.78667e-05
2.18653e-06
0.00325041
1.61392e-05
3.00504e-06
0.00325737
1.61463e-05
2.05842e-06
0.00325512
1.65467e-05
2.72165e-06
1.54918e-05
1.71807e-06
0.00324267
0.00254724
-1.09413e-11
5.73912e-06
0.00270543
2.48247e-10
8.50022e-10
0.00284548
1.49954e-10
4.98942e-06
0.00294814
8.06074e-10
1.07748e-07
0.00302304
3.36437e-10
4.22437e-06
0.00308637
1.67599e-09
3.54074e-07
0.00313528
8.86283e-10
3.57136e-06
0.00317998
3.5338e-09
5.2149e-07
0.00321613
3.74721e-09
3.02413e-06
0.00324998
7.84088e-09
6.14993e-07
0.00327788
1.42667e-08
2.551e-06
0.003304
2.04649e-08
6.4429e-07
0.00332567
4.12468e-08
2.12731e-06
0.00334579
7.23177e-08
6.19673e-07
0.00336261
8.53102e-08
1.7355e-06
0.00337834
2.76799e-07
5.50341e-07
0.00339161
1.4328e-07
1.35708e-06
0.00340502
8.5326e-07
4.22643e-07
0.0034186
5.0617e-07
9.46215e-07
1.62579e-06
4.27323e-08
0.00343081
0.00254724
-0.000246773
5.73912e-06
0.00270543
-0.000159648
8.49452e-10
0.00284548
-0.000146414
4.98942e-06
0.00294814
-0.000104023
1.07746e-07
0.00302304
-8.02884e-05
4.22437e-06
0.00308637
-6.47792e-05
3.54069e-07
0.00313528
-5.35535e-05
3.57137e-06
0.00317998
-4.62466e-05
5.21476e-07
0.00321613
-4.01523e-05
3.02414e-06
0.00324998
-3.53953e-05
6.14956e-07
0.00327788
-3.13637e-05
2.55103e-06
0.00330401
-2.77182e-05
6.4419e-07
0.00332567
-2.47952e-05
2.12739e-06
0.00334581
-2.18354e-05
6.19397e-07
0.00336262
-1.96854e-05
1.73578e-06
0.00337838
-1.73453e-05
5.49595e-07
0.00339164
-1.5839e-05
1.3583e-06
0.00340509
-1.4471e-05
4.21037e-07
0.00341867
-1.55504e-05
9.52457e-07
-1.21053e-05
4.00654e-08
0.00343074
0.00256519
-0.000513175
7.47007e-06
0.00273218
-0.000329738
1.64602e-06
0.00286572
-0.00028799
6.6553e-06
0.00295829
-0.000199619
1.77135e-06
0.00302095
-0.000150001
5.88841e-06
0.00307128
-0.000118228
2.01435e-06
0.00310699
-9.55577e-05
5.22528e-06
0.00313835
-8.08046e-05
2.17241e-06
0.00316142
-6.8879e-05
4.67091e-06
0.00318251
-5.96776e-05
2.25994e-06
0.00319817
-5.21604e-05
4.19339e-06
0.00321267
-4.54945e-05
2.28541e-06
0.0032233
-4.02668e-05
3.76669e-06
0.00323334
-3.52979e-05
2.25816e-06
0.00324016
-3.11321e-05
3.37357e-06
0.00324782
-2.85184e-05
2.18723e-06
0.00325058
-2.29922e-05
3.00382e-06
0.00325768
-2.50991e-05
2.05976e-06
0.00325567
-1.77828e-05
2.71624e-06
-3.62616e-06
1.71962e-06
0.00324387
0.00257637
-0.00078751
4.14096e-06
0.00273584
-0.00048878
-1.8945e-06
0.0028403
-0.000397081
3.25584e-06
0.00290062
-0.000259581
-1.61735e-06
0.00292981
-0.000182879
2.52654e-06
0.00294738
-0.00013558
-1.3317e-06
0.00295229
-0.000103417
1.89491e-06
0.0029548
-8.31959e-05
-1.14765e-06
0.00295138
-6.77914e-05
1.36089e-06
0.00294819
-5.64026e-05
-1.04496e-06
0.00294177
-4.76263e-05
8.94698e-07
0.0029362
-3.99563e-05
-1.01098e-06
0.00292892
-3.45899e-05
4.74751e-07
0.0029222
-2.87681e-05
-1.03272e-06
0.00291554
-2.58373e-05
8.49872e-08
0.00290772
-2.09605e-05
-1.09885e-06
0.0029045
-2.08844e-05
-2.99499e-07
0.0028956
-1.64651e-05
-1.21283e-06
0.00290831
-3.11928e-05
-7.95969e-07
-1.61666e-05
-1.67675e-06
0.002921
0.00256972
-0.00106043
9.54358e-06
0.00265953
-0.000583284
3.24162e-06
0.00265122
-0.000398578
8.44031e-06
0.00261404
-0.000227165
3.51079e-06
0.00256418
-0.000141797
7.61447e-06
0.00251946
-9.56948e-05
3.71826e-06
0.0024754
-6.7333e-05
6.9095e-06
0.00243889
-5.1562e-05
3.84762e-06
0.00240383
-4.00817e-05
6.33706e-06
0.002375
-3.25263e-05
3.92113e-06
0.00234709
-2.66479e-05
5.8499e-06
0.00232405
-2.20019e-05
3.9386e-06
0.00230141
-1.85768e-05
5.41757e-06
0.00228284
-1.53818e-05
3.90684e-06
0.00226363
-1.29713e-05
5.02207e-06
0.00224952
-1.20605e-05
3.8344e-06
0.00222963
-7.04345e-06
4.65496e-06
0.00222137
-1.33222e-05
3.71586e-06
0.00218981
-5.47922e-06
4.44195e-06
2.61186e-05
3.35565e-06
0.00214281
0.00224403
-0.00100112
2.8235e-06
0.0020531
-0.000389833
-3.9559e-06
0.00184787
-0.000196321
1.61167e-06
0.00170454
-8.1893e-05
-3.21192e-06
0.00160091
-4.03478e-05
9.71961e-07
0.00152983
-2.29155e-05
-2.87743e-06
0.00147336
-1.2371e-05
3.50406e-07
0.00143182
-8.48377e-06
-2.69079e-06
0.00139489
-4.13577e-06
-1.82088e-07
0.00136657
-2.81052e-06
-2.58947e-06
0.00133968
-3.47613e-07
-6.5007e-07
0.0013187
2.70551e-07
-2.55817e-06
0.00129806
1.82918e-06
-1.07229e-06
0.00128176
2.17698e-06
-2.58175e-06
0.00126577
3.14082e-06
-1.46418e-06
0.00125182
3.19381e-06
-2.64722e-06
0.00124282
2.46615e-06
-1.85197e-06
0.00122663
4.27197e-06
-2.73762e-06
0.00126573
-4.35596e-05
-2.33533e-06
-2.23093e-05
-3.28912e-06
0.00131617
0.00129186
1.3557e-05
0.000894432
6.157e-06
0.000685082
1.16259e-05
0.000595146
6.66622e-06
0.000542674
1.07639e-05
0.000511535
6.87205e-06
0.000487752
1.00638e-05
0.000470906
7.01118e-06
0.000455909
9.50237e-06
0.000444636
7.09234e-06
0.000433886
9.02158e-06
0.000425653
7.11407e-06
0.000417492
8.59326e-06
0.000411182
7.08538e-06
0.000404719
8.20014e-06
0.000399493
7.01642e-06
0.000392733
7.828e-06
0.000388696
6.91461e-06
0.000336173
7.57661e-06
6.48313e-06
0.000306003
0.00189578
0.000420453
3.07603e-06
0.00137994
0.000515699
4.86533e-06
0.00103698
0.000351018
2.19159e-06
0.000856204
0.000182442
3.6663e-06
0.000767208
9.62566e-05
2.20108e-06
0.000712992
5.64684e-05
3.33038e-06
0.000678833
4.0599e-05
2.33668e-06
0.000648956
3.25115e-05
3.08087e-06
0.000627558
2.71915e-05
2.39895e-06
0.000606916
2.35523e-05
2.85518e-06
0.000591768
2.04052e-05
2.42282e-06
0.000576552
1.82906e-05
2.68479e-06
0.000564898
1.64395e-05
2.44365e-06
0.00055314
1.49014e-05
2.57334e-06
0.000543308
1.41856e-05
2.47831e-06
0.000533987
1.24642e-05
2.50954e-06
0.000528959
8.9601e-06
2.54037e-06
0.000511076
2.09755e-05
2.47717e-06
0.0006122
-9.74653e-05
2.58479e-06
-8.0952e-05
2.69559e-06
0.000695605
0.00240057
0.000320387
8.31468e-06
0.00234
0.000560677
1.01862e-05
0.00221746
0.00046613
7.68903e-06
0.00208223
0.00030418
9.02322e-06
0.00197245
0.000198207
7.6119e-06
0.00188144
0.000134831
8.64309e-06
0.00181284
0.000100711
7.74196e-06
0.00175372
7.94577e-05
8.39566e-06
0.00170786
6.3963e-05
7.80253e-06
0.00166617
5.33255e-05
8.18118e-06
0.00163285
4.40555e-05
7.82219e-06
0.00160152
3.77984e-05
8.01588e-06
0.00157557
3.21817e-05
7.83702e-06
0.00155104
2.76208e-05
7.90353e-06
0.0015291
2.54475e-05
7.86433e-06
0.00151068
1.90446e-05
7.83452e-06
0.00148753
2.09899e-05
7.92127e-06
0.0014833
1.3356e-05
7.79008e-06
0.00139792
-2.37734e-05
8.04796e-06
1.30694e-06
8.0493e-06
0.00130306
0.0024241
0.000207568
4.05675e-06
0.00255256
0.000427898
6.10022e-06
0.00261564
0.000406895
3.23616e-06
0.00261539
0.000301679
5.00467e-06
0.00259446
0.000222352
3.24005e-06
0.00256048
0.000166778
4.64485e-06
0.00252986
0.000133686
3.49529e-06
0.00249715
0.000110577
4.42361e-06
0.00246964
9.31559e-05
3.65042e-06
0.00244142
8.02249e-05
4.22103e-06
0.00241757
6.89477e-05
3.72729e-06
0.00239331
6.07725e-05
4.05938e-06
0.00237269
5.32064e-05
3.78145e-06
0.0023514
4.75703e-05
3.94938e-06
0.00233414
4.25259e-05
3.83884e-06
0.0023135
3.82185e-05
3.88674e-06
0.00230329
3.05052e-05
3.91026e-06
0.00227963
3.54117e-05
3.86938e-06
0.00228818
-3.32171e-05
3.91175e-06
-1.712e-05
4.04362e-06
0.00230451
0.00237618
0.000134273
7.18621e-06
0.00251787
0.000273766
9.09731e-06
0.00265162
0.000268337
6.70062e-06
0.00273232
0.000210011
8.10008e-06
0.00278633
0.000163065
6.63576e-06
0.00281452
0.000128466
7.68521e-06
0.00283499
0.000107297
6.7536e-06
0.00284423
9.17485e-05
7.4309e-06
0.00285149
7.94606e-05
6.82194e-06
0.00285262
6.98659e-05
7.2195e-06
0.00285346
6.11431e-05
6.84827e-06
0.00285059
5.44962e-05
7.05503e-06
0.00284797
4.8271e-05
6.86575e-06
0.00284314
4.31742e-05
6.94148e-06
0.00283822
3.93044e-05
6.89394e-06
0.00283301
3.40548e-05
6.87405e-06
0.0028235
3.12956e-05
6.95013e-06
0.00282079
2.85331e-05
6.85164e-06
0.00277941
-1.26568e-06
7.08931e-06
2.14338e-05
7.08774e-06
0.00273054
0.00237826
6.4158e-05
5.15499e-06
0.00251036
0.000134725
7.13474e-06
0.00264432
0.000135085
4.58207e-06
0.00274071
0.000108011
6.13375e-06
0.00281764
8.63429e-05
4.52046e-06
0.00287147
6.98307e-05
5.70752e-06
0.00291844
5.98047e-05
4.67907e-06
0.00295362
5.22555e-05
5.46227e-06
0.0029857
4.63e-05
4.78381e-06
0.0030101
4.15203e-05
5.259e-06
0.00303252
3.71044e-05
4.83541e-06
0.00304949
3.36792e-05
5.09936e-06
0.00306523
3.02956e-05
4.87085e-06
0.0030767
2.7749e-05
4.98919e-06
0.0030881
2.50672e-05
4.91228e-06
0.00309474
2.3306e-05
4.92612e-06
0.00310353
1.90968e-05
4.97048e-06
0.00310651
2.11508e-05
4.91741e-06
0.00310443
-3.04673e-06
5.00462e-06
6.55717e-06
5.10002e-06
0.00311429
0.00236962
-7.16681e-11
6.1551e-06
0.00249479
1.89881e-10
8.09572e-06
0.00262783
-5.01471e-11
5.67675e-06
0.00272757
5.14768e-10
7.13397e-06
0.00281137
-1.03234e-11
5.60706e-06
0.00287374
1.29453e-09
6.70315e-06
0.00293031
7.1625e-10
5.73307e-06
0.00297561
3.40774e-09
6.45112e-06
0.00301814
3.86666e-09
5.81742e-06
0.00305307
9.06272e-09
6.24605e-06
0.0030859
1.37962e-08
5.85636e-06
0.00311308
2.65007e-08
6.08581e-06
0.00313847
4.04909e-08
5.88217e-06
0.00315957
8.36483e-08
5.97451e-06
0.00317907
1.08896e-07
5.91573e-06
0.0031954
2.56455e-07
5.90995e-06
0.00320814
3.08012e-07
5.97193e-06
0.00322157
7.21506e-07
5.90076e-06
0.00321091
9.01265e-07
6.0724e-06
1.8609e-06
6.10731e-06
0.00320788
0.00236962
-6.41582e-05
6.1551e-06
0.00249479
-0.000134725
8.09572e-06
0.00262783
-0.000135085
5.67675e-06
0.00272757
-0.00010801
7.13397e-06
0.00281137
-8.6343e-05
5.60706e-06
0.00287374
-6.9828e-05
6.70315e-06
0.00293031
-5.98035e-05
5.73307e-06
0.00297561
-5.22484e-05
6.45112e-06
0.00301814
-4.62931e-05
5.81741e-06
0.00305307
-4.1501e-05
6.24607e-06
0.0030859
-3.70794e-05
5.85634e-06
0.00311308
-3.36228e-05
6.08586e-06
0.00313847
-3.02234e-05
5.88212e-06
0.00315957
-2.75729e-05
5.97465e-06
0.0031791
-2.48797e-05
5.91556e-06
0.00319541
-2.27806e-05
5.91031e-06
0.00320826
-1.85849e-05
5.97114e-06
0.00322178
-1.97961e-05
5.90138e-06
0.00321123
4.74993e-06
6.06802e-06
-3.22007e-06
6.10847e-06
0.00320858
0.00237826
-0.000134273
5.15499e-06
0.00251036
-0.000273766
7.13474e-06
0.00264432
-0.000268337
4.58207e-06
0.00274071
-0.00021001
6.13375e-06
0.00281764
-0.000163065
4.52046e-06
0.00287147
-0.000128464
5.70752e-06
0.00291844
-0.000107296
4.67907e-06
0.00295362
-9.17423e-05
5.46227e-06
0.0029857
-7.94535e-05
4.78382e-06
0.0030101
-6.98494e-05
5.25898e-06
0.00303253
-6.1118e-05
4.83543e-06
0.0030495
-5.44481e-05
5.09931e-06
0.00306524
-4.81986e-05
4.8709e-06
0.00307674
-4.30239e-05
4.98905e-06
0.00308814
-3.91126e-05
4.91243e-06
0.00309484
-3.35975e-05
4.92577e-06
0.0031036
-3.07561e-05
4.97113e-06
0.00310669
-2.72727e-05
4.91679e-06
0.00310469
2.87526e-06
5.00819e-06
-1.80541e-05
5.09889e-06
0.00311451
0.00237618
-0.000207568
7.18621e-06
0.00251787
-0.000427898
9.09731e-06
0.00265162
-0.000406895
6.70062e-06
0.00273232
-0.000301678
8.10008e-06
0.00278634
-0.000222352
6.63576e-06
0.00281452
-0.000166776
7.68521e-06
0.00283499
-0.000133684
6.7536e-06
0.00284423
-0.000110572
7.43091e-06
0.00285149
-9.31499e-05
6.82193e-06
0.00285262
-8.02108e-05
7.21952e-06
0.00285348
-6.89275e-05
6.84825e-06
0.00285061
-6.07312e-05
7.05507e-06
0.002848
-5.31506e-05
6.86569e-06
0.00284319
-4.7441e-05
6.94157e-06
0.00283833
-4.23881e-05
6.89374e-06
0.00283319
-3.78294e-05
6.87428e-06
0.00282386
-3.01457e-05
6.94927e-06
0.00282141
-3.44061e-05
6.8521e-06
0.00278052
3.43402e-05
7.08513e-06
1.95128e-05
7.08787e-06
0.00273264
0.0024241
-0.000320387
4.05675e-06
0.00255256
-0.000560677
6.10022e-06
0.00261564
-0.00046613
3.23616e-06
0.00261539
-0.000304179
5.00467e-06
0.00259446
-0.000198206
3.24005e-06
0.00256048
-0.00013483
4.64484e-06
0.00252986
-0.000100709
3.49529e-06
0.00249715
-7.94548e-05
4.42361e-06
0.00246964
-6.39577e-05
3.65042e-06
0.00244143
-5.33178e-05
4.22102e-06
0.00241758
-4.40388e-05
3.7273e-06
0.00239335
-3.77757e-05
4.05936e-06
0.00237273
-3.21364e-05
3.78149e-06
0.0023515
-2.75482e-05
3.94928e-06
0.00233426
-2.5333e-05
3.83897e-06
0.00231379
-1.88213e-05
3.88644e-06
0.00230362
-2.06728e-05
3.91068e-06
0.00228035
-1.27357e-05
3.86884e-06
0.0022891
2.46807e-05
3.91384e-06
6.10284e-07
4.04294e-06
0.00230593
0.00240057
-0.000420453
8.31468e-06
0.00234
-0.000515699
1.01862e-05
0.00221746
-0.000351018
7.68903e-06
0.00208223
-0.000182442
9.02322e-06
0.00197245
-9.62564e-05
7.6119e-06
0.00188144
-5.64679e-05
8.64309e-06
0.00181284
-4.05983e-05
7.74196e-06
0.00175373
-3.25102e-05
8.39566e-06
0.00170787
-2.71893e-05
7.80252e-06
0.00166618
-2.3549e-05
8.18119e-06
0.00163287
-2.03985e-05
7.82217e-06
0.00160156
-1.8281e-05
8.01591e-06
0.00157564
-1.6422e-05
7.83696e-06
0.00155114
-1.48704e-05
7.90361e-06
0.00152928
-1.41465e-05
7.86414e-06
0.00151099
-1.23673e-05
7.83478e-06
0.00148808
-8.88963e-06
7.9205e-06
0.00148415
-2.06563e-05
7.79077e-06
0.00139987
9.72853e-05
8.04456e-06
8.09797e-05
8.05046e-06
0.00130691
0.00189578
3.07603e-06
0.00137994
4.86533e-06
0.00103698
2.19159e-06
0.000856205
3.6663e-06
0.000767208
2.20108e-06
0.000712993
3.33038e-06
0.000678834
2.33668e-06
0.000648959
3.08087e-06
0.000627563
2.39895e-06
0.000606925
2.85517e-06
0.000591783
2.42283e-06
0.000576576
2.68477e-06
0.00056494
2.44368e-06
0.000553214
2.57327e-06
0.000543421
2.47837e-06
0.000534196
2.50938e-06
0.00052924
2.54039e-06
0.000511675
2.47694e-06
0.000612619
2.58476e-06
2.69408e-06
0.000696071
0.00213742
0.000171219
-2.09908e-11
0.00189281
0.00024804
-2.10343e-11
0.0016315
0.000262147
-2.08901e-11
0.00140197
0.000231938
-2.10454e-11
0.00121716
0.000185819
-2.08525e-11
0.00108069
0.000138626
-2.1084e-11
0.00098283
9.90147e-05
-2.08963e-11
0.000916059
6.86338e-05
-2.11776e-11
0.000869287
4.79216e-05
-2.10116e-11
0.000837126
3.3746e-05
-2.13207e-11
0.000813218
2.5047e-05
-2.11965e-11
0.000795374
1.92375e-05
-2.14773e-11
0.000780859
1.56651e-05
-2.12907e-11
0.000768661
1.34806e-05
-2.14518e-11
0.000758828
1.103e-05
-2.12226e-11
0.000748211
1.18578e-05
-2.13644e-11
0.000743443
6.05066e-06
-2.12135e-11
0.00073063
1.4056e-05
-2.13947e-11
0.000736743
-4.76621e-06
-2.13181e-11
-6.22232e-06
-2.14607e-11
0.000744425
0.00236168
0.000123396
-2.09812e-11
0.00240588
0.000212577
-2.10683e-11
0.00241207
0.000262306
-2.10122e-11
0.00238761
0.000264189
-2.12435e-11
0.00234164
0.000238255
-2.10861e-11
0.00228808
0.000199743
-2.12285e-11
0.00223213
0.000161685
-2.09369e-11
0.00217932
0.000128832
-2.11581e-11
0.00212984
0.000104182
-2.09561e-11
0.00208522
8.54636e-05
-2.12068e-11
0.00204444
7.24837e-05
-2.10273e-11
0.00200793
6.25198e-05
-2.13305e-11
0.00197478
5.53287e-05
-2.12492e-11
0.00194504
4.97446e-05
-2.15379e-11
0.00191831
4.42127e-05
-2.13805e-11
0.00189391
4.26746e-05
-2.15009e-11
0.00187311
3.33825e-05
-2.12936e-11
0.0018523
4.13144e-05
-2.1376e-11
0.00183712
1.71826e-05
-2.12868e-11
3.17403e-05
-2.12577e-11
0.00180599
0.00234973
8.32673e-05
-2.09779e-11
0.00241782
0.00014914
-2.10644e-11
0.00248831
0.000193699
-2.10034e-11
0.00255253
0.000203743
-2.1222e-11
0.00260027
0.000192617
-2.10535e-11
0.00263347
0.000170093
-2.12056e-11
0.00265253
0.000145082
-2.09775e-11
0.00266238
0.000122434
-2.12811e-11
0.00266481
0.000104448
-2.11588e-11
0.00266296
9.05546e-05
-2.13819e-11
0.00265785
8.02726e-05
-2.10276e-11
0.00265082
7.24756e-05
-2.1074e-11
0.0026427
6.59992e-05
-2.08538e-11
0.00263342
6.16579e-05
-2.12285e-11
0.00262454
5.55236e-05
-2.1292e-11
0.00261418
5.54424e-05
-2.15397e-11
0.00260594
4.39976e-05
-2.13817e-11
0.00259487
5.47008e-05
-2.13901e-11
0.0025877
2.67524e-05
-2.13391e-11
4.86777e-05
-2.16178e-11
0.00257333
0.00233986
5.61403e-05
-2.0984e-11
0.0023981
9.85387e-05
-2.10645e-11
0.00246948
0.000127679
-2.0996e-11
0.00254491
0.00013518
-2.11948e-11
0.00261337
0.000129656
-2.10157e-11
0.00267345
0.000116601
-2.11826e-11
0.00272249
0.000101751
-2.09856e-11
0.0027633
8.80696e-05
-2.13415e-11
0.00279643
7.72094e-05
-2.12925e-11
0.00282441
6.88415e-05
-2.1558e-11
0.00284787
6.26552e-05
-2.12022e-11
0.00286821
5.80995e-05
-2.12114e-11
0.00288581
5.4074e-05
-2.09141e-11
0.00290135
5.1795e-05
-2.12449e-11
0.00291498
4.74483e-05
-2.13161e-11
0.00292739
4.84662e-05
-2.15769e-11
0.00293748
3.93314e-05
-2.13544e-11
0.00294806
4.93563e-05
-2.13153e-11
0.00295329
2.69938e-05
-2.09107e-11
5.06183e-05
-2.13467e-11
0.00295681
0.00234044
2.64003e-05
-2.09852e-11
0.00239689
4.77659e-05
-2.10636e-11
0.00246492
6.28915e-05
-2.09829e-11
0.00253824
6.67624e-05
-2.11536e-11
0.00260711
6.41632e-05
-2.09717e-11
0.00267039
5.79362e-05
-2.11619e-11
0.00272499
5.07835e-05
-2.09969e-11
0.00277325
4.42925e-05
-2.13364e-11
0.0028152
3.91079e-05
-2.12491e-11
0.00285313
3.5233e-05
-2.14903e-11
0.00288731
3.2314e-05
-2.11611e-11
0.00291908
3.03378e-05
-2.12367e-11
0.00294846
2.83896e-05
-2.09785e-11
0.00297636
2.76343e-05
-2.12935e-11
0.0030021
2.52997e-05
-2.13087e-11
0.00302759
2.64805e-05
-2.15296e-11
0.00304911
2.12792e-05
-2.12699e-11
0.00307421
2.75739e-05
-2.12287e-11
0.00308941
1.5144e-05
-2.08182e-11
2.88153e-05
-2.11323e-11
0.00311464
0.0023381
-1.14712e-10
-2.09893e-11
0.00239251
3.20861e-10
-2.10724e-11
0.00245973
-2.353e-10
-2.09845e-11
0.0025324
8.08681e-10
-2.11492e-11
0.00260103
-2.64675e-10
-2.09619e-11
0.00266457
1.92893e-09
-2.11645e-11
0.00272004
4.37315e-10
-2.09922e-11
0.0027698
4.56318e-09
-2.12987e-11
0.00281379
3.56208e-09
-2.11464e-11
0.00285432
1.11121e-08
-2.13699e-11
0.00289148
1.2588e-08
-2.10987e-11
0.00292678
3.1051e-08
-2.12762e-11
0.00295985
3.24487e-08
-2.11032e-11
0.00299211
9.62639e-08
-2.14093e-11
0.00302194
7.04483e-08
-2.13323e-11
0.00305263
2.85376e-07
-2.14833e-11
0.00307821
1.7709e-07
-2.12474e-11
0.00310937
7.14086e-07
-2.12526e-11
0.00312829
6.45692e-07
-2.1011e-11
1.44114e-06
-2.12928e-11
0.00316009
0.0023381
-2.64005e-05
-2.09914e-11
0.00239251
-4.77653e-05
-2.10768e-11
0.00245973
-6.2892e-05
-2.09898e-11
0.0025324
-6.67608e-05
-2.11516e-11
0.00260103
-6.41638e-05
-2.09682e-11
0.00266457
-5.79323e-05
-2.11831e-11
0.00272004
-5.07828e-05
-2.10113e-11
0.0027698
-4.42832e-05
-2.1277e-11
0.00281379
-3.91012e-05
-2.10512e-11
0.00285432
-3.52103e-05
-2.12291e-11
0.00289148
-3.22899e-05
-2.10005e-11
0.00292678
-3.02751e-05
-2.12529e-11
0.00295985
-2.83269e-05
-2.11578e-11
0.00299211
-2.74418e-05
-2.14476e-11
0.00302194
-2.51636e-05
-2.12731e-11
0.00305264
-2.59133e-05
-2.13752e-11
0.00307824
-2.09389e-05
-2.12139e-11
0.00310942
-2.61666e-05
-2.1333e-11
0.00312838
-1.39057e-05
-2.13978e-11
-2.6036e-05
-2.16922e-11
0.00316029
0.00234044
-5.61405e-05
-2.09921e-11
0.00239689
-9.85381e-05
-2.10837e-11
0.00246492
-0.000127679
-2.09884e-11
0.00253824
-0.000135178
-2.11462e-11
0.00260711
-0.000129656
-2.09592e-11
0.00267039
-0.000116598
-2.11846e-11
0.00272499
-0.000101751
-2.1001e-11
0.00277325
-8.80606e-05
-2.12274e-11
0.0028152
-7.72031e-05
-2.09351e-11
0.00285313
-6.88199e-05
-2.11038e-11
0.00288731
-6.26318e-05
-2.09427e-11
0.00291909
-5.80402e-05
-2.13002e-11
0.00294847
-5.40129e-05
-2.12878e-11
0.00297637
-5.1613e-05
-2.15509e-11
0.00300212
-4.73175e-05
-2.12672e-11
0.00302764
-4.79253e-05
-2.13163e-11
0.00304919
-3.90138e-05
-2.11871e-11
0.00307433
-4.79996e-05
-2.13897e-11
0.00308962
-2.58361e-05
-2.16635e-11
-4.79234e-05
-2.18586e-11
0.00311494
0.00233986
-8.32674e-05
-2.1001e-11
0.0023981
-0.000149139
-2.10835e-11
0.00246948
-0.000193699
-2.09748e-11
0.00254491
-0.000203742
-2.11066e-11
0.00261337
-0.000192618
-2.0922e-11
0.00267345
-0.000170089
-2.11737e-11
0.00272249
-0.000145081
-2.10128e-11
0.0027633
-0.000122426
-2.12071e-11
0.00279643
-0.000104442
-2.08698e-11
0.00282442
-9.05342e-05
-2.10331e-11
0.00284788
-8.02526e-05
-2.09286e-11
0.00286822
-7.24207e-05
-2.13743e-11
0.00288583
-6.59473e-05
-2.13979e-11
0.00290139
-6.14921e-05
-2.15979e-11
0.00291504
-5.54173e-05
-2.12162e-11
0.0029275
-5.49523e-05
-2.12447e-11
0.00293766
-4.37511e-05
-2.11012e-11
0.00294839
-5.3487e-05
-2.13971e-11
0.00295384
-2.58225e-05
-2.17054e-11
-4.64288e-05
-2.16527e-11
0.00295781
0.00234973
-0.000123396
-2.10006e-11
0.00241782
-0.000212577
-2.10797e-11
0.00248831
-0.000262306
-2.09558e-11
0.00255254
-0.000264188
-2.10702e-11
0.00260027
-0.000238255
-2.08807e-11
0.00263347
-0.000199741
-2.11562e-11
0.00265253
-0.000161684
-2.10161e-11
0.00266238
-0.000128826
-2.12368e-11
0.00266481
-0.000104176
-2.09584e-11
0.00266297
-8.54489e-05
-2.11857e-11
0.00265786
-7.24665e-05
-2.11283e-11
0.00265084
-6.24798e-05
-2.15636e-11
0.00264273
-5.52875e-05
-2.14878e-11
0.0026335
-4.96213e-05
-2.15646e-11
0.00262465
-4.41358e-05
-2.11539e-11
0.00261441
-4.23028e-05
-2.12296e-11
0.00260625
-3.32204e-05
-2.10786e-11
0.00259547
-4.03876e-05
-2.14535e-11
0.00258857
-1.65314e-05
-2.13669e-11
-3.00935e-05
-2.13593e-11
0.00257482
0.00236168
-0.000171219
-2.10087e-11
0.00240588
-0.000248039
-2.10766e-11
0.00241207
-0.000262147
-2.09442e-11
0.00238761
-0.000231938
-2.10487e-11
0.00234164
-0.000185818
-2.0871e-11
0.00228809
-0.000138625
-2.11863e-11
0.00223213
-9.90134e-05
-2.11024e-11
0.00217933
-6.86315e-05
-2.1374e-11
0.00212984
-4.79174e-05
-2.11453e-11
0.00208523
-3.37406e-05
-2.13731e-11
0.00204446
-2.50354e-05
-2.11811e-11
0.00200797
-1.92214e-05
-2.13656e-11
0.00197485
-1.564e-05
-2.10976e-11
0.00194517
-1.34254e-05
-2.12029e-11
0.00191848
-1.09904e-05
-2.10369e-11
0.00189427
-1.16757e-05
-2.12815e-11
0.00187357
-5.98934e-06
-2.12496e-11
0.00185322
-1.35885e-05
-2.15588e-11
0.00183841
5.03366e-06
-2.14319e-11
6.71738e-06
-2.17952e-11
0.00180845
0.00213742
-2.09911e-11
0.00189281
-2.10976e-11
0.0016315
-2.10337e-11
0.00140197
-2.12208e-11
0.00121716
-2.1105e-11
0.00108069
-2.13557e-11
0.000982833
-2.11444e-11
0.000916064
-2.13246e-11
0.000869297
-2.1061e-11
0.00083714
-2.12543e-11
0.000813244
-2.10189e-11
0.000795417
-2.12326e-11
0.000780927
-2.1073e-11
0.000768784
-2.13331e-11
0.00075899
-2.12509e-11
0.000748555
-2.14869e-11
0.000743853
-2.13997e-11
0.000731496
-2.15613e-11
0.000737889
-2.14576e-11
-2.15884e-11
0.00074608
0.00213742
0.000171219
-3.07606e-06
0.00189281
0.00024804
-4.86537e-06
0.0016315
0.000262147
-2.19162e-06
0.00140197
0.000231938
-3.66634e-06
0.00121716
0.000185818
-2.20111e-06
0.00108069
0.000138626
-3.33042e-06
0.00098283
9.90146e-05
-2.33671e-06
0.000916059
6.86338e-05
-3.0809e-06
0.000869287
4.79215e-05
-2.39898e-06
0.000837126
3.37459e-05
-2.85522e-06
0.000813218
2.50469e-05
-2.42286e-06
0.000795374
1.92375e-05
-2.68483e-06
0.000780859
1.56652e-05
-2.44368e-06
0.000768661
1.34806e-05
-2.57338e-06
0.000758827
1.103e-05
-2.47834e-06
0.000748211
1.18578e-05
-2.50958e-06
0.000743443
6.05066e-06
-2.54041e-06
0.00073063
1.4056e-05
-2.4772e-06
0.000736743
-4.76624e-06
-2.58483e-06
-6.22236e-06
-2.69563e-06
0.000744425
0.00236168
0.000123396
-8.31472e-06
0.00240588
0.000212577
-1.01862e-05
0.00241207
0.000262306
-7.68907e-06
0.00238761
0.000264189
-9.02326e-06
0.00234164
0.000238255
-7.61194e-06
0.00228808
0.000199743
-8.64313e-06
0.00223213
0.000161685
-7.742e-06
0.00217932
0.000128832
-8.3957e-06
0.00212984
0.000104182
-7.80257e-06
0.00208522
8.54636e-05
-8.18122e-06
0.00204444
7.24837e-05
-7.82223e-06
0.00200793
6.25199e-05
-8.01592e-06
0.00197478
5.53288e-05
-7.83706e-06
0.00194504
4.97447e-05
-7.90357e-06
0.00191831
4.42128e-05
-7.86437e-06
0.00189391
4.26747e-05
-7.83456e-06
0.00187311
3.33826e-05
-7.92131e-06
0.0018523
4.13145e-05
-7.79012e-06
0.00183712
1.71827e-05
-8.04801e-06
3.17404e-05
-8.04934e-06
0.00180599
0.00234973
8.32673e-05
-4.05678e-06
0.00241782
0.00014914
-6.10026e-06
0.00248831
0.000193699
-3.2362e-06
0.00255253
0.000203743
-5.00471e-06
0.00260027
0.000192617
-3.24008e-06
0.00263347
0.000170093
-4.64488e-06
0.00265253
0.000145082
-3.49533e-06
0.00266238
0.000122434
-4.42365e-06
0.00266481
0.000104448
-3.65045e-06
0.00266296
9.05547e-05
-4.22106e-06
0.00265785
8.02727e-05
-3.72733e-06
0.00265082
7.24757e-05
-4.05942e-06
0.0026427
6.59993e-05
-3.78149e-06
0.00263342
6.1658e-05
-3.94942e-06
0.00262454
5.55237e-05
-3.83888e-06
0.00261418
5.54424e-05
-3.88678e-06
0.00260594
4.39977e-05
-3.91029e-06
0.00259487
5.47009e-05
-3.86941e-06
0.00258769
2.67524e-05
-3.91179e-06
4.86779e-05
-4.04366e-06
0.00257333
0.00233986
5.61403e-05
-7.18625e-06
0.0023981
9.85387e-05
-9.09735e-06
0.00246948
0.000127679
-6.70066e-06
0.00254491
0.00013518
-8.10012e-06
0.00261337
0.000129656
-6.6358e-06
0.00267345
0.000116601
-7.68525e-06
0.00272249
0.000101751
-6.75364e-06
0.0027633
8.80697e-05
-7.43094e-06
0.00279643
7.72095e-05
-6.82198e-06
0.00282441
6.88417e-05
-7.21954e-06
0.00284787
6.26553e-05
-6.84831e-06
0.00286821
5.80997e-05
-7.05507e-06
0.00288581
5.40742e-05
-6.86579e-06
0.00290135
5.17951e-05
-6.94152e-06
0.00291497
4.74483e-05
-6.89398e-06
0.00292739
4.84662e-05
-6.87409e-06
0.00293748
3.93314e-05
-6.95017e-06
0.00294806
4.93563e-05
-6.85168e-06
0.00295329
2.69939e-05
-7.08935e-06
5.06184e-05
-7.08778e-06
0.00295681
0.00234044
2.64003e-05
-5.15503e-06
0.00239689
4.77659e-05
-7.13477e-06
0.00246492
6.28915e-05
-4.58211e-06
0.00253824
6.67624e-05
-6.13379e-06
0.00260711
6.41633e-05
-4.52049e-06
0.00267039
5.79363e-05
-5.70756e-06
0.00272499
5.07836e-05
-4.67911e-06
0.00277325
4.42926e-05
-5.46231e-06
0.0028152
3.91079e-05
-4.78385e-06
0.00285313
3.52331e-05
-5.25904e-06
0.00288731
3.23142e-05
-4.83545e-06
0.00291908
3.03381e-05
-5.0994e-06
0.00294846
2.83899e-05
-4.87089e-06
0.00297636
2.76344e-05
-4.98923e-06
0.0030021
2.52998e-05
-4.91232e-06
0.00302759
2.64805e-05
-4.92616e-06
0.00304911
2.12792e-05
-4.97052e-06
0.00307421
2.75739e-05
-4.91745e-06
0.00308941
1.5144e-05
-5.00466e-06
2.88154e-05
-5.10005e-06
0.00311464
0.0023381
-1.17608e-10
-6.15514e-06
0.00239251
3.15177e-10
-8.09575e-06
0.00245973
-2.38212e-10
-5.67679e-06
0.0025324
8.19629e-10
-7.13401e-06
0.00260103
-2.27921e-10
-5.6071e-06
0.00266457
1.98507e-09
-6.70319e-06
0.00272004
4.96148e-10
-5.73311e-06
0.0027698
4.61935e-09
-6.45116e-06
0.00281379
3.63475e-09
-5.81746e-06
0.00285432
1.12403e-08
-6.24609e-06
0.00289148
1.27884e-08
-5.8564e-06
0.00292678
3.12987e-08
-6.08585e-06
0.00295985
3.26844e-08
-5.88221e-06
0.00299211
9.64311e-08
-5.97455e-06
0.00302194
7.05333e-08
-5.91577e-06
0.00305263
2.85411e-07
-5.90999e-06
0.00307821
1.77108e-07
-5.97197e-06
0.00310937
7.14115e-07
-5.9008e-06
0.00312829
6.4576e-07
-6.07244e-06
1.44117e-06
-6.10735e-06
0.00316009
0.0023381
-2.64005e-05
-6.15514e-06
0.00239251