/*--------------------------------*- C++ -*----------------------------------*\
  =========                 |
  \\      /  F ield         | OpenFOAM: The Open Source CFD Toolbox
   \\    /   O peration     | Website:  https://openfoam.org
    \\  /    A nd           | Version:  7
     \\/     M anipulation  |
\*---------------------------------------------------------------------------*/
FoamFile
{
    version     2.0;
    format      ascii;
    class       volScalarField;
    location    "2.8";
    object      rho;
}
// * * * * * * * * * * * * * * * * * * * * * * * * * * * * * * * * * * * * * //

dimensions      [1 -3 0 0 0 0 0];

internalField   nonuniform List<scalar> 
2640
(
1.22934
1.22933
1.22932
1.2293
1.22929
1.22929
1.22928
1.22928
1.22927
1.22927
1.22927
1.22927
1.22927
1.22927
1.22927
1.22927
1.22927
1.22927
1.22927
1.22927
1.22927
1.22927
1.22927
1.22927
1.22927
1.22927
1.22927
1.22928
1.22927
1.22928
1.22926
1.2293
1.22924
1.22935
1.22915
1.22954
1.22874
1.23044
1.22672
1.23496
1.22933
1.22933
1.22933
1.22932
1.22931
1.2293
1.22929
1.22929
1.22928
1.22927
1.22927
1.22927
1.22926
1.22926
1.22926
1.22926
1.22926
1.22926
1.22926
1.22926
1.22926
1.22926
1.22926
1.22927
1.22927
1.22927
1.22927
1.22928
1.22926
1.2293
1.22924
1.22933
1.2292
1.2294
1.22909
1.22957
1.22884
1.22992
1.22837
1.23052
1.22933
1.22933
1.22933
1.22932
1.22932
1.22931
1.2293
1.2293
1.2293
1.22929
1.22929
1.22928
1.22928
1.22928
1.22928
1.22928
1.22928
1.22927
1.22927
1.22927
1.22927
1.22927
1.22927
1.22928
1.22927
1.22928
1.22928
1.22928
1.22928
1.22929
1.22927
1.2293
1.22927
1.22931
1.22926
1.22931
1.22926
1.22931
1.22928
1.22926
1.22933
1.22933
1.22932
1.22932
1.22932
1.22931
1.22931
1.2293
1.2293
1.2293
1.22929
1.22929
1.22929
1.22929
1.22929
1.22929
1.22929
1.22929
1.22929
1.22929
1.22929
1.22929
1.22929
1.22929
1.22929
1.22929
1.22929
1.2293
1.2293
1.2293
1.2293
1.2293
1.2293
1.2293
1.22931
1.2293
1.22931
1.2293
1.22932
1.22929
1.22933
1.22933
1.22932
1.22932
1.22932
1.22931
1.22931
1.2293
1.2293
1.22929
1.22929
1.22929
1.22929
1.22929
1.22929
1.22929
1.22929
1.22929
1.22929
1.22929
1.22929
1.22929
1.22929
1.22929
1.22929
1.2293
1.2293
1.2293
1.2293
1.2293
1.22931
1.22931
1.22931
1.22931
1.22931
1.22932
1.22932
1.22932
1.22932
1.22932
1.22932
1.22933
1.22932
1.22932
1.22931
1.22931
1.22931
1.2293
1.2293
1.22929
1.22929
1.22929
1.22929
1.22929
1.22929
1.22929
1.22929
1.22929
1.22929
1.22929
1.22929
1.22929
1.22929
1.22929
1.22929
1.2293
1.2293
1.2293
1.2293
1.2293
1.22931
1.22931
1.22931
1.22931
1.22931
1.22932
1.22932
1.22932
1.22932
1.22932
1.22932
1.22933
1.22932
1.22932
1.22931
1.22931
1.22931
1.2293
1.2293
1.22929
1.22929
1.22929
1.22929
1.22929
1.22929
1.22929
1.22929
1.22929
1.22929
1.22929
1.22929
1.22929
1.22929
1.22929
1.22929
1.2293
1.2293
1.2293
1.2293
1.2293
1.22931
1.22931
1.22931
1.22931
1.22931
1.22932
1.22932
1.22932
1.22932
1.22932
1.22933
1.22933
1.22932
1.22932
1.22932
1.22931
1.22931
1.2293
1.2293
1.22929
1.22929
1.22929
1.22929
1.22929
1.22929
1.22929
1.22929
1.22929
1.22929
1.22929
1.22929
1.22929
1.22929
1.22929
1.22929
1.2293
1.2293
1.2293
1.2293
1.2293
1.22931
1.22931
1.22931
1.22931
1.22931
1.22932
1.22932
1.22932
1.22932
1.22932
1.22933
1.22933
1.22932
1.22932
1.22932
1.22931
1.22931
1.2293
1.2293
1.2293
1.22929
1.22929
1.22929
1.22929
1.22929
1.22929
1.22929
1.22929
1.22929
1.22929
1.22929
1.22929
1.22929
1.22929
1.22929
1.22929
1.22929
1.22929
1.2293
1.2293
1.2293
1.2293
1.2293
1.2293
1.22931
1.22931
1.22931
1.22931
1.22931
1.22931
1.22933
1.22933
1.22933
1.22932
1.22932
1.22931
1.2293
1.2293
1.2293
1.22929
1.22929
1.22928
1.22928
1.22928
1.22928
1.22928
1.22928
1.22927
1.22927
1.22927
1.22927
1.22927
1.22927
1.22927
1.22928
1.22928
1.22928
1.22928
1.22928
1.22928
1.22928
1.22929
1.22929
1.22929
1.22929
1.22929
1.22929
1.22929
1.22929
1.22929
1.22933
1.22933
1.22933
1.22932
1.22931
1.2293
1.22929
1.22929
1.22928
1.22927
1.22927
1.22927
1.22926
1.22926
1.22926
1.22926
1.22926
1.22926
1.22926
1.22926
1.22926
1.22926
1.22927
1.22927
1.22927
1.22927
1.22927
1.22927
1.22927
1.22928
1.22928
1.22928
1.22928
1.22928
1.22928
1.22928
1.22928
1.22928
1.22928
1.22928
1.22934
1.22933
1.22932
1.2293
1.22929
1.22929
1.22928
1.22928
1.22927
1.22927
1.22927
1.22927
1.22927
1.22927
1.22927
1.22927
1.22927
1.22927
1.22927
1.22927
1.22927
1.22927
1.22927
1.22927
1.22927
1.22927
1.22927
1.22927
1.22928
1.22928
1.22928
1.22928
1.22928
1.22928
1.22928
1.22928
1.22928
1.22928
1.22928
1.22928
1.19361
1.16155
1.14123
1.12549
1.11221
1.10062
1.09022
1.08074
1.07202
1.06393
1.05639
1.04932
1.04266
1.03637
1.03041
1.02476
1.01937
1.01423
1.00931
1.0046
1.00008
0.995727
0.991532
0.98748
0.983562
0.979765
0.97608
0.9725
0.969017
0.965624
0.962316
0.959086
0.95593
0.952844
0.949824
0.946867
0.943969
0.941128
0.938342
0.935607
0.932922
0.930285
0.927694
0.925146
0.922641
0.920177
0.917752
0.915364
0.913013
0.910697
0.908414
0.906164
0.903946
0.901758
0.8996
0.897471
0.89537
0.893296
0.89125
0.889231
0.887237
0.885269
0.883325
0.881407
0.879513
0.877642
0.875796
0.873973
0.872172
0.870395
0.868641
0.86691
0.865201
0.863515
0.861852
0.860211
0.858593
0.856998
0.855426
0.853876
0.85235
0.850847
0.849367
0.847912
0.84648
0.845072
0.843689
0.842331
0.840997
0.839689
0.838407
0.837151
0.83592
0.834716
0.833537
0.832385
0.83126
0.830161
0.829089
0.828043
0.827024
0.826031
0.825065
0.824126
0.823214
0.822328
0.821469
0.820637
0.819831
0.819052
0.818298
0.81757
0.816868
0.816192
0.81554
0.814912
0.814309
0.813729
0.813172
0.812639
0.812127
0.811638
0.81117
0.810724
0.810298
0.809893
0.809508
0.809142
0.808796
0.808469
0.80816
0.807869
0.807596
0.80734
0.807101
0.806879
0.806672
0.806482
0.806307
0.806146
0.806001
0.805869
0.805751
0.805647
0.805555
0.805476
0.805409
0.805353
0.805309
0.805274
0.80525
0.805236
0.805231
0.805234
0.805246
0.805267
0.805295
0.80533
0.805373
0.805423
0.805479
0.805542
0.805611
0.805686
0.805765
0.805852
0.80594
0.806037
0.806133
0.80624
0.806339
0.806457
0.806557
0.806688
0.806781
0.806932
0.807011
0.807189
0.807241
0.807468
1.22471
1.20861
1.19288
1.17901
1.16681
1.1559
1.14594
1.13674
1.12817
1.12015
1.1126
1.10548
1.09873
1.09231
1.0862
1.08037
1.07479
1.06944
1.06431
1.05937
1.05461
1.05001
1.04557
1.04127
1.0371
1.03305
1.02911
1.02528
1.02154
1.0179
1.01434
1.01086
1.00746
1.00413
1.00087
0.997678
0.994546
0.991474
0.988458
0.985497
0.982589
0.979731
0.976921
0.974159
0.971441
0.968767
0.966135
0.963544
0.960991
0.958476
0.955998
0.953554
0.951145
0.948768
0.946423
0.944109
0.941826
0.939572
0.937347
0.93515
0.932982
0.930841
0.928727
0.926639
0.924578
0.922542
0.920532
0.918546
0.916585
0.914648
0.912736
0.910847
0.908982
0.907141
0.905324
0.90353
0.90176
0.900014
0.898292
0.896593
0.894919
0.893269
0.891642
0.890041
0.888464
0.886911
0.885384
0.883882
0.882406
0.880955
0.879531
0.878133
0.876762
0.875418
0.874101
0.872811
0.871548
0.870313
0.869106
0.867926
0.866773
0.865648
0.864551
0.863482
0.86244
0.861426
0.86044
0.859481
0.85855
0.857647
0.856772
0.855923
0.855102
0.854308
0.853541
0.8528
0.852084
0.851394
0.850729
0.850088
0.849471
0.848878
0.848309
0.847762
0.847237
0.846735
0.846254
0.845795
0.845356
0.844939
0.844541
0.844163
0.843805
0.843466
0.843145
0.842843
0.842559
0.842291
0.842041
0.841808
0.84159
0.841388
0.841202
0.84103
0.840873
0.84073
0.840601
0.840484
0.84038
0.840289
0.840209
0.84014
0.840082
0.840034
0.839996
0.839967
0.839947
0.839936
0.839933
0.839939
0.839951
0.839972
0.839999
0.840034
0.840073
0.840122
0.840173
0.840233
0.840293
0.840366
0.840432
0.840517
0.840586
0.840685
0.840751
0.840869
0.840923
0.841066
0.8411
0.841282
1.22952
1.22632
1.22013
1.21248
1.20445
1.19651
1.18878
1.18132
1.17413
1.1672
1.16054
1.15414
1.14797
1.14203
1.1363
1.13078
1.12544
1.12028
1.11529
1.11045
1.10576
1.1012
1.09677
1.09246
1.08825
1.08415
1.08015
1.07624
1.07241
1.06867
1.06501
1.06142
1.0579
1.05444
1.05106
1.04773
1.04446
1.04125
1.0381
1.03499
1.03194
1.02894
1.02598
1.02307
1.02021
1.01739
1.01461
1.01187
1.00917
1.00651
1.00389
1.0013
0.998744
0.996223
0.993735
0.991278
0.988852
0.986456
0.984089
0.981751
0.979442
0.977161
0.974907
0.972681
0.970482
0.968309
0.966162
0.964041
0.961945
0.959873
0.957826
0.955803
0.953803
0.951827
0.949875
0.947947
0.946041
0.94416
0.942302
0.940468
0.938658
0.936872
0.93511
0.933372
0.931658
0.929968
0.928303
0.926662
0.925045
0.923454
0.921888
0.920347
0.918833
0.917345
0.915883
0.914448
0.913041
0.911661
0.910308
0.908982
0.907684
0.906413
0.90517
0.903955
0.902767
0.901606
0.900474
0.899369
0.898292
0.897244
0.896223
0.895231
0.894266
0.89333
0.892422
0.891541
0.890688
0.889861
0.889061
0.888287
0.887539
0.886815
0.886116
0.885441
0.88479
0.884163
0.883559
0.882978
0.882419
0.881883
0.881369
0.880877
0.880407
0.879957
0.879529
0.87912
0.878732
0.878362
0.878012
0.87768
0.877367
0.87707
0.876791
0.876529
0.876283
0.876053
0.875839
0.87564
0.875455
0.875285
0.875129
0.874986
0.874856
0.874739
0.874633
0.874538
0.874455
0.874381
0.874317
0.874263
0.874218
0.874182
0.874154
0.874135
0.874123
0.87412
0.874122
0.874135
0.874149
0.874177
0.874201
0.874243
0.874273
0.874332
0.874363
0.87444
0.874466
0.874565
0.87458
0.874704
1.22937
1.22927
1.22834
1.2263
1.22328
1.21958
1.21543
1.211
1.20639
1.20171
1.19698
1.19226
1.18757
1.18292
1.17832
1.1738
1.16934
1.16496
1.16066
1.15643
1.15229
1.14821
1.14421
1.14027
1.1364
1.1326
1.12886
1.12518
1.12156
1.11799
1.11448
1.11102
1.10761
1.10426
1.10095
1.0977
1.09449
1.09132
1.0882
1.08513
1.08209
1.07909
1.07614
1.07322
1.07034
1.0675
1.0647
1.06193
1.05919
1.05649
1.05383
1.0512
1.0486
1.04603
1.04349
1.04097
1.03849
1.03604
1.03361
1.0312
1.02883
1.02648
1.02415
1.02185
1.01958
1.01733
1.01511
1.01291
1.01074
1.00859
1.00646
1.00436
1.00227
1.00021
0.998174
0.996156
0.994161
0.992187
0.990235
0.988305
0.986398
0.984513
0.982651
0.980811
0.978994
0.977199
0.975426
0.973676
0.971948
0.970242
0.968559
0.966899
0.965263
0.96365
0.962062
0.960498
0.95896
0.957447
0.95596
0.954499
0.953065
0.951656
0.950273
0.948916
0.947585
0.94628
0.945002
0.943749
0.942524
0.941325
0.940153
0.939009
0.937892
0.936804
0.935743
0.934711
0.933707
0.93273
0.93178
0.930858
0.929961
0.929091
0.928246
0.927426
0.92663
0.925859
0.925111
0.924388
0.923689
0.923013
0.922361
0.921732
0.921127
0.920545
0.919986
0.919449
0.918935
0.918441
0.917969
0.917518
0.917086
0.916674
0.916281
0.915907
0.91555
0.915212
0.914892
0.914589
0.914303
0.914034
0.913781
0.913544
0.913323
0.913117
0.912925
0.912747
0.912582
0.91243
0.912289
0.91216
0.912042
0.911935
0.911837
0.91175
0.911671
0.911604
0.911543
0.911495
0.911451
0.911421
0.911391
0.91138
0.911361
0.911367
0.911357
0.911381
0.911374
0.911414
0.91141
0.911462
1.22932
1.22932
1.2293
1.22912
1.22866
1.22784
1.22665
1.22509
1.22322
1.22107
1.2187
1.21615
1.21346
1.21066
1.20777
1.20482
1.20182
1.19879
1.19573
1.19266
1.18959
1.18651
1.18343
1.18037
1.17731
1.17426
1.17122
1.1682
1.16519
1.1622
1.15922
1.15627
1.15334
1.15043
1.14754
1.14468
1.14184
1.13903
1.13624
1.13348
1.13074
1.12802
1.12532
1.12265
1.12
1.11738
1.11478
1.1122
1.10965
1.10712
1.10462
1.10214
1.09968
1.09725
1.09484
1.09245
1.09008
1.08773
1.0854
1.0831
1.08081
1.07854
1.07629
1.07406
1.07185
1.06966
1.0675
1.06535
1.06323
1.06112
1.05904
1.05697
1.05492
1.05289
1.05087
1.04887
1.04689
1.04493
1.04299
1.04106
1.03915
1.03726
1.03539
1.03354
1.03171
1.02989
1.0281
1.02632
1.02456
1.02282
1.0211
1.01939
1.01771
1.01604
1.01439
1.01277
1.01116
1.00958
1.00801
1.00647
1.00496
1.00346
1.00199
1.00054
0.999113
0.997708
0.996326
0.994966
0.993629
0.992315
0.991024
0.989758
0.988517
0.987302
0.986113
0.98495
0.983814
0.982704
0.981621
0.980564
0.979533
0.978527
0.977546
0.976589
0.975655
0.974746
0.97386
0.972997
0.972157
0.971342
0.97055
0.969782
0.969038
0.968319
0.967623
0.966952
0.966304
0.96568
0.965078
0.964499
0.963941
0.963404
0.962888
0.962391
0.961914
0.961457
0.961019
0.9606
0.9602
0.959819
0.959457
0.959113
0.958787
0.958479
0.958189
0.957914
0.957656
0.957412
0.957183
0.956968
0.956765
0.956575
0.956396
0.95623
0.956074
0.955931
0.955796
0.955675
0.955562
0.955463
0.955369
0.955291
0.955215
0.955157
0.955098
0.955056
0.955012
0.95498
0.954956
0.954921
1.22932
1.22931
1.2293
1.22929
1.22927
1.22921
1.22909
1.22887
1.22855
1.22808
1.22748
1.22673
1.22584
1.22482
1.22367
1.22241
1.22104
1.21958
1.21804
1.21643
1.21475
1.21302
1.21125
1.20943
1.20757
1.20567
1.20375
1.2018
1.19982
1.19782
1.19581
1.19378
1.19174
1.18968
1.18763
1.18557
1.1835
1.18144
1.17938
1.17731
1.17525
1.17319
1.17113
1.16907
1.16701
1.16495
1.1629
1.16086
1.15882
1.15679
1.15477
1.15276
1.15076
1.14877
1.14678
1.14481
1.14284
1.14088
1.13893
1.13699
1.13505
1.13312
1.1312
1.12929
1.12739
1.12551
1.12363
1.12177
1.11992
1.11809
1.11626
1.11445
1.11264
1.11085
1.10906
1.10729
1.10552
1.10376
1.10201
1.10028
1.09855
1.09684
1.09514
1.09345
1.09178
1.09012
1.08847
1.08683
1.08521
1.08359
1.08199
1.0804
1.07881
1.07724
1.07569
1.07414
1.07261
1.07109
1.06959
1.06811
1.06664
1.06519
1.06375
1.06233
1.06093
1.05954
1.05817
1.05682
1.05548
1.05415
1.05285
1.05156
1.05029
1.04904
1.04781
1.0466
1.04542
1.04426
1.04312
1.042
1.0409
1.03983
1.03878
1.03775
1.03674
1.03575
1.03478
1.03383
1.0329
1.03199
1.03111
1.03024
1.0294
1.02858
1.02778
1.02701
1.02626
1.02554
1.02484
1.02416
1.0235
1.02286
1.02224
1.02164
1.02107
1.02051
1.01997
1.01945
1.01895
1.01847
1.01801
1.01757
1.01715
1.01675
1.01637
1.016
1.01566
1.01533
1.01501
1.01472
1.01443
1.01416
1.01391
1.01366
1.01343
1.01321
1.013
1.01281
1.01263
1.01246
1.0123
1.01215
1.01202
1.01189
1.01178
1.01167
1.01159
1.01148
1.01143
1.0113
1.22932
1.22931
1.2293
1.22929
1.22928
1.22927
1.22925
1.22923
1.22921
1.22916
1.22909
1.22898
1.22883
1.22863
1.22837
1.22806
1.22768
1.22725
1.22676
1.22621
1.2256
1.22495
1.22424
1.22349
1.22269
1.22185
1.22096
1.22004
1.21907
1.21807
1.21704
1.21598
1.21488
1.21377
1.21262
1.21146
1.21028
1.20908
1.20787
1.20664
1.20539
1.20412
1.20284
1.20155
1.20024
1.19892
1.19759
1.19624
1.19489
1.19354
1.19218
1.19081
1.18944
1.18806
1.18668
1.18529
1.1839
1.18251
1.18111
1.1797
1.17829
1.17688
1.17547
1.17405
1.17264
1.17122
1.16981
1.16841
1.167
1.1656
1.1642
1.1628
1.16141
1.16001
1.15862
1.15723
1.15583
1.15445
1.15306
1.15168
1.1503
1.14892
1.14756
1.14619
1.14484
1.14349
1.14214
1.1408
1.13947
1.13814
1.13681
1.13549
1.13417
1.13286
1.13155
1.13025
1.12896
1.12767
1.1264
1.12513
1.12387
1.12263
1.12139
1.12016
1.11894
1.11773
1.11653
1.11534
1.11416
1.11298
1.11182
1.11067
1.10954
1.10841
1.1073
1.10621
1.10514
1.10408
1.10303
1.10201
1.101
1.10001
1.09903
1.09807
1.09712
1.09619
1.09528
1.09438
1.09349
1.09263
1.09178
1.09095
1.09014
1.08935
1.08858
1.08783
1.0871
1.08639
1.08569
1.08502
1.08437
1.08374
1.08312
1.08252
1.08194
1.08138
1.08084
1.08031
1.0798
1.07931
1.07884
1.07839
1.07795
1.07753
1.07714
1.07676
1.07639
1.07604
1.07571
1.07539
1.07508
1.07479
1.07451
1.07425
1.07399
1.07375
1.07352
1.0733
1.07309
1.0729
1.07272
1.07254
1.07239
1.07223
1.0721
1.07195
1.07186
1.07171
1.07165
1.07148
1.22932
1.22931
1.2293
1.22928
1.22927
1.22926
1.22924
1.22923
1.22922
1.2292
1.22919
1.22916
1.22913
1.22909
1.22903
1.22895
1.22885
1.22873
1.22859
1.22842
1.22822
1.228
1.22775
1.22746
1.22715
1.2268
1.22643
1.22602
1.22558
1.22511
1.22461
1.22409
1.22353
1.22296
1.22236
1.22174
1.2211
1.22043
1.21975
1.21904
1.21832
1.21758
1.21681
1.21603
1.21523
1.21441
1.21358
1.21274
1.21188
1.21101
1.21013
1.20923
1.20833
1.20742
1.20649
1.20556
1.20461
1.20366
1.20269
1.20171
1.20073
1.19974
1.19874
1.19774
1.19673
1.19572
1.19471
1.19369
1.19267
1.19165
1.19062
1.1896
1.18857
1.18753
1.18649
1.18545
1.18441
1.18337
1.18232
1.18128
1.18023
1.17919
1.17815
1.17711
1.17607
1.17503
1.174
1.17296
1.17193
1.17089
1.16986
1.16882
1.16779
1.16676
1.16574
1.16471
1.16369
1.16268
1.16167
1.16066
1.15966
1.15866
1.15767
1.15669
1.1557
1.15473
1.15376
1.15279
1.15183
1.15088
1.14993
1.14899
1.14807
1.14715
1.14624
1.14534
1.14446
1.14359
1.14272
1.14187
1.14104
1.14021
1.1394
1.13859
1.1378
1.13702
1.13625
1.1355
1.13475
1.13403
1.13331
1.13261
1.13193
1.13126
1.1306
1.12997
1.12935
1.12874
1.12815
1.12758
1.12702
1.12648
1.12595
1.12544
1.12494
1.12446
1.12399
1.12354
1.1231
1.12268
1.12227
1.12188
1.12151
1.12115
1.1208
1.12047
1.12016
1.11985
1.11956
1.11928
1.11902
1.11876
1.11851
1.11828
1.11805
1.11784
1.11764
1.11744
1.11726
1.11709
1.11693
1.11677
1.11663
1.11649
1.11638
1.11624
1.11615
1.116
1.11596
1.11578
1.22931
1.22929
1.22928
1.22926
1.22925
1.22924
1.22923
1.22922
1.22921
1.22919
1.22918
1.22917
1.22915
1.22913
1.22911
1.22908
1.22904
1.229
1.22895
1.22889
1.22882
1.22873
1.22863
1.22851
1.22838
1.22822
1.22805
1.22785
1.22764
1.2274
1.22715
1.22687
1.22658
1.22626
1.22593
1.22558
1.22522
1.22483
1.22443
1.22401
1.22357
1.22312
1.22265
1.22216
1.22166
1.22114
1.22061
1.22007
1.21952
1.21895
1.21838
1.21779
1.21719
1.21658
1.21596
1.21532
1.21468
1.21402
1.21336
1.21269
1.21201
1.21132
1.21062
1.20992
1.20921
1.2085
1.20778
1.20706
1.20633
1.2056
1.20487
1.20412
1.20338
1.20263
1.20188
1.20112
1.20037
1.1996
1.19884
1.19808
1.19731
1.19655
1.19578
1.19501
1.19425
1.19348
1.19271
1.19194
1.19116
1.19039
1.18962
1.18884
1.18807
1.1873
1.18653
1.18576
1.18499
1.18422
1.18346
1.1827
1.18194
1.18118
1.18043
1.17967
1.17892
1.17818
1.17743
1.17669
1.17596
1.17523
1.1745
1.17378
1.17307
1.17236
1.17167
1.17098
1.17029
1.16962
1.16896
1.1683
1.16765
1.16701
1.16638
1.16575
1.16514
1.16453
1.16393
1.16334
1.16277
1.1622
1.16164
1.1611
1.16057
1.16005
1.15954
1.15904
1.15856
1.15808
1.15762
1.15718
1.15674
1.15631
1.1559
1.1555
1.15511
1.15474
1.15437
1.15402
1.15368
1.15336
1.15304
1.15274
1.15245
1.15217
1.1519
1.15164
1.1514
1.15116
1.15093
1.15071
1.1505
1.1503
1.15011
1.14993
1.14975
1.14958
1.14943
1.14928
1.14914
1.149
1.14888
1.14875
1.14864
1.14853
1.14844
1.14832
1.14825
1.14813
1.14809
1.14795
1.22928
1.22927
1.22926
1.22925
1.22924
1.22923
1.22922
1.22921
1.2292
1.22919
1.22917
1.22916
1.22914
1.22913
1.22911
1.22909
1.22908
1.22906
1.22903
1.22901
1.22898
1.22894
1.22889
1.22883
1.22877
1.22869
1.2286
1.2285
1.22838
1.22826
1.22812
1.22796
1.2278
1.22762
1.22742
1.22722
1.227
1.22677
1.22653
1.22627
1.226
1.22572
1.22543
1.22513
1.22481
1.22449
1.22415
1.22381
1.22346
1.2231
1.22272
1.22234
1.22195
1.22155
1.22114
1.22072
1.2203
1.21986
1.21942
1.21897
1.21852
1.21806
1.21759
1.21712
1.21664
1.21616
1.21567
1.21518
1.21468
1.21418
1.21368
1.21317
1.21266
1.21215
1.21163
1.21111
1.21059
1.21007
1.20954
1.20901
1.20848
1.20795
1.20742
1.20689
1.20635
1.20582
1.20528
1.20474
1.2042
1.20366
1.20312
1.20258
1.20203
1.20149
1.20095
1.20041
1.19987
1.19933
1.19879
1.19825
1.19771
1.19718
1.19664
1.19611
1.19558
1.19505
1.19452
1.19399
1.19347
1.19295
1.19244
1.19193
1.19142
1.19092
1.19042
1.18993
1.18945
1.18897
1.1885
1.18803
1.18756
1.18711
1.18665
1.18621
1.18577
1.18534
1.18491
1.18449
1.18408
1.18368
1.18328
1.18289
1.18252
1.18214
1.18178
1.18143
1.18108
1.18075
1.18042
1.1801
1.17979
1.17949
1.17919
1.17891
1.17864
1.17837
1.17811
1.17786
1.17763
1.1774
1.17717
1.17696
1.17676
1.17656
1.17637
1.17619
1.17601
1.17585
1.17569
1.17553
1.17538
1.17524
1.17511
1.17498
1.17485
1.17474
1.17463
1.17452
1.17442
1.17433
1.17424
1.17415
1.17407
1.17399
1.17392
1.17384
1.17379
1.1737
1.17367
1.17356
1.22928
1.22927
1.22926
1.22925
1.22924
1.22923
1.22922
1.22921
1.22919
1.22918
1.22916
1.22915
1.22913
1.22912
1.22911
1.22909
1.22908
1.22907
1.22906
1.22904
1.22902
1.229
1.22897
1.22894
1.22891
1.22887
1.22882
1.22876
1.2287
1.22863
1.22855
1.22847
1.22837
1.22827
1.22816
1.22804
1.22792
1.22779
1.22765
1.2275
1.22734
1.22718
1.22701
1.22684
1.22666
1.22647
1.22628
1.22608
1.22587
1.22566
1.22544
1.22522
1.22498
1.22475
1.22451
1.22426
1.224
1.22374
1.22348
1.22321
1.22294
1.22266
1.22238
1.2221
1.22181
1.22152
1.22123
1.22093
1.22063
1.22033
1.22002
1.21972
1.21941
1.2191
1.21878
1.21847
1.21815
1.21784
1.21752
1.2172
1.21688
1.21656
1.21623
1.21591
1.21558
1.21525
1.21492
1.2146
1.21427
1.21393
1.2136
1.21327
1.21294
1.21261
1.21228
1.21195
1.21161
1.21128
1.21095
1.21062
1.21029
1.20996
1.20963
1.2093
1.20897
1.20864
1.20832
1.208
1.20767
1.20735
1.20704
1.20672
1.20641
1.2061
1.2058
1.2055
1.2052
1.2049
1.20461
1.20432
1.20404
1.20375
1.20348
1.2032
1.20293
1.20266
1.2024
1.20214
1.20189
1.20164
1.2014
1.20116
1.20092
1.2007
1.20047
1.20025
1.20004
1.19983
1.19963
1.19943
1.19924
1.19906
1.19888
1.1987
1.19854
1.19837
1.19822
1.19807
1.19792
1.19778
1.19765
1.19752
1.19739
1.19727
1.19715
1.19704
1.19694
1.19683
1.19673
1.19664
1.19655
1.19646
1.19638
1.1963
1.19623
1.19615
1.19609
1.19602
1.19596
1.1959
1.19584
1.19579
1.19574
1.19568
1.19564
1.19558
1.19555
1.19549
1.19547
1.1954
1.22928
1.22927
1.22926
1.22925
1.22924
1.22923
1.22922
1.2292
1.22919
1.22917
1.22916
1.22914
1.22913
1.22912
1.2291
1.22909
1.22908
1.22907
1.22906
1.22905
1.22904
1.22903
1.22902
1.229
1.22899
1.22897
1.22895
1.22892
1.2289
1.22887
1.22884
1.2288
1.22876
1.22872
1.22868
1.22863
1.22859
1.22853
1.22848
1.22843
1.22837
1.22831
1.22825
1.22819
1.22812
1.22805
1.22798
1.22791
1.22784
1.22776
1.22769
1.2276
1.22752
1.22744
1.22735
1.22726
1.22716
1.22707
1.22697
1.22687
1.22677
1.22667
1.22657
1.22647
1.22636
1.22625
1.22615
1.22604
1.22593
1.22582
1.22571
1.2256
1.22549
1.22537
1.22526
1.22515
1.22504
1.22492
1.22481
1.22469
1.22458
1.22446
1.22434
1.22423
1.22411
1.22399
1.22387
1.22375
1.22363
1.22351
1.22339
1.22327
1.22315
1.22303
1.22291
1.22279
1.22267
1.22255
1.22243
1.22231
1.22219
1.22207
1.22195
1.22183
1.22171
1.22159
1.22147
1.22135
1.22124
1.22112
1.221
1.22089
1.22077
1.22066
1.22055
1.22044
1.22033
1.22022
1.22012
1.22001
1.2199
1.2198
1.2197
1.2196
1.2195
1.2194
1.2193
1.21921
1.21911
1.21902
1.21893
1.21884
1.21875
1.21867
1.21858
1.2185
1.21842
1.21834
1.21826
1.21819
1.21812
1.21805
1.21798
1.21791
1.21785
1.21779
1.21773
1.21767
1.21762
1.21756
1.21751
1.21746
1.21742
1.21737
1.21732
1.21728
1.21724
1.2172
1.21716
1.21712
1.21709
1.21706
1.21702
1.21699
1.21696
1.21693
1.2169
1.21687
1.21685
1.21682
1.2168
1.21677
1.21675
1.21672
1.2167
1.21667
1.21665
1.21662
1.21661
1.21658
)
;

boundaryField
{
    upperWall
    {
        type            calculated;
        value           nonuniform List<scalar> 
220
(
1.22932
1.22931
1.22931
1.2293
1.22929
1.22928
1.22927
1.22927
1.22927
1.22926
1.22926
1.22926
1.22926
1.22926
1.22926
1.22926
1.22926
1.22926
1.22926
1.22927
1.22927
1.22927
1.22927
1.22927
1.22927
1.22927
1.22928
1.22928
1.22928
1.22928
1.22928
1.22929
1.22929
1.22929
1.22929
1.22929
1.22929
1.22929
1.22929
1.2293
1.2293
1.22929
1.22928
1.22927
1.22926
1.22924
1.22923
1.22921
1.2292
1.22918
1.22916
1.22915
1.22913
1.22912
1.2291
1.22909
1.22908
1.22907
1.22906
1.22905
1.22904
1.22904
1.22903
1.22903
1.22902
1.22901
1.22901
1.229
1.22899
1.22898
1.22897
1.22896
1.22895
1.22894
1.22893
1.22892
1.22891
1.2289
1.22889
1.22889
1.22888
1.22887
1.22886
1.22886
1.22885
1.22885
1.22884
1.22884
1.22883
1.22883
1.22882
1.22882
1.22881
1.2288
1.22879
1.22878
1.22877
1.22876
1.22875
1.22874
1.22873
1.22872
1.22871
1.22869
1.22868
1.22867
1.22866
1.22865
1.22864
1.22863
1.22862
1.22861
1.2286
1.22859
1.22859
1.22858
1.22857
1.22856
1.22856
1.22855
1.22854
1.22853
1.22853
1.22852
1.22851
1.2285
1.22849
1.22848
1.22848
1.22847
1.22846
1.22845
1.22844
1.22843
1.22843
1.22842
1.22841
1.2284
1.22839
1.22838
1.22837
1.22837
1.22836
1.22835
1.22834
1.22833
1.22832
1.22831
1.2283
1.22829
1.22828
1.22827
1.22826
1.22825
1.22824
1.22823
1.22822
1.22822
1.22821
1.2282
1.22819
1.22818
1.22817
1.22816
1.22815
1.22814
1.22813
1.22812
1.22811
1.2281
1.22809
1.22807
1.22806
1.22805
1.22804
1.22803
1.22802
1.228
1.22799
1.22798
1.22797
1.22796
1.22795
1.22794
1.22793
1.22792
1.22791
1.2279
1.2279
1.22789
1.22788
1.22787
1.22787
1.22786
1.22785
1.22785
1.22784
1.22783
1.22783
1.22782
1.22781
1.22781
1.2278
1.22779
1.22778
1.22778
1.22777
1.22776
1.22775
1.22774
1.22773
1.22772
1.22771
1.2277
1.22769
1.22767
1.22766
1.22765
1.22763
1.22762
)
;
    }
    lowerWall
    {
        type            calculated;
        value           nonuniform List<scalar> 
40
(
1.22932
1.22931
1.22931
1.2293
1.22929
1.22928
1.22927
1.22927
1.22927
1.22926
1.22926
1.22926
1.22926
1.22926
1.22926
1.22926
1.22926
1.22926
1.22926
1.22927
1.22927
1.22927
1.22927
1.22927
1.22927
1.22927
1.22928
1.22928
1.22928
1.22928
1.22928
1.22929
1.22929
1.22929
1.22929
1.22929
1.22929
1.22929
1.22929
1.2293
)
;
    }
    heatedWall
    {
        type            calculated;
        value           nonuniform List<scalar> 
180
(
1.15851
1.12941
1.11001
1.09463
1.08154
1.07013
1.05992
1.05063
1.0421
1.03419
1.02683
1.01993
1.01346
1.00735
1.00158
0.996099
0.990893
0.985932
0.981194
0.976659
0.972309
0.968129
0.964103
0.960219
0.956464
0.952829
0.949303
0.945879
0.942549
0.939306
0.936144
0.933059
0.930045
0.927099
0.924216
0.921393
0.918627
0.915916
0.913257
0.910648
0.908086
0.90557
0.903098
0.900668
0.898278
0.895926
0.893613
0.891334
0.889091
0.88688
0.884702
0.882554
0.880437
0.878348
0.876288
0.874255
0.87225
0.87027
0.868317
0.866388
0.864485
0.862606
0.860751
0.85892
0.857112
0.855327
0.853564
0.851824
0.850106
0.848411
0.846737
0.845084
0.843454
0.841845
0.840257
0.838692
0.837148
0.835625
0.834124
0.832646
0.831189
0.829754
0.828342
0.826953
0.825586
0.824242
0.822922
0.821626
0.820354
0.819106
0.817883
0.816684
0.81551
0.814361
0.813238
0.81214
0.811067
0.810019
0.808997
0.808001
0.80703
0.806085
0.805166
0.804272
0.803404
0.802562
0.801746
0.800955
0.80019
0.79945
0.798735
0.798046
0.797381
0.79674
0.796123
0.79553
0.794961
0.794414
0.793889
0.793387
0.792906
0.792446
0.792008
0.79159
0.791192
0.790814
0.790455
0.790115
0.789794
0.789492
0.789207
0.78894
0.78869
0.788457
0.78824
0.788039
0.787854
0.787685
0.78753
0.78739
0.787264
0.787152
0.787053
0.786968
0.786894
0.786833
0.786784
0.786745
0.786717
0.7867
0.786692
0.786693
0.786703
0.786722
0.786749
0.786784
0.786826
0.786875
0.786931
0.786994
0.787063
0.787139
0.78722
0.787307
0.787399
0.787497
0.787597
0.787705
0.787811
0.787929
0.788039
0.788169
0.788278
0.788421
0.788523
0.788687
0.788772
0.788966
0.789022
0.789269
)
;
    }
    inlet
    {
        type            calculated;
        value           nonuniform List<scalar> 
12
(
1.22932
1.22931
1.22931
1.22931
1.22931
1.22931
1.22931
1.22931
1.22931
1.22931
1.22931
1.22932
)
;
    }
    outlet
    {
        type            calculated;
        value           nonuniform List<scalar> 
12
(
0.807463
0.841277
0.874699
0.911457
0.954915
1.0113
1.07147
1.11578
1.14795
1.17356
1.19539
1.21657
)
;
    }
    frontAndBack
    {
        type            empty;
    }
}


// ************************************************************************* //
