/*--------------------------------*- C++ -*----------------------------------*\
  =========                 |
  \\      /  F ield         | OpenFOAM: The Open Source CFD Toolbox
   \\    /   O peration     | Website:  https://openfoam.org
    \\  /    A nd           | Version:  7
     \\/     M anipulation  |
\*---------------------------------------------------------------------------*/
FoamFile
{
    version     2.0;
    format      ascii;
    class       volVectorField;
    location    "0.0725";
    object      UMean;
}
// * * * * * * * * * * * * * * * * * * * * * * * * * * * * * * * * * * * * * //

dimensions      [0 1 -1 0 0 0 0];

internalField   nonuniform List<vector> 
1440
(
(11.9667 0.0519109 0)
(11.9154 0.153514 0)
(11.6948 0.250102 0)
(11.4487 0.319379 0)
(11.1167 0.36396 0)
(10.7646 0.384924 0)
(10.3794 0.387123 0)
(9.99213 0.374932 0)
(9.60278 0.353044 0)
(9.22573 0.324923 0)
(8.86324 0.293796 0)
(8.52096 0.261954 0)
(8.20027 0.230307 0)
(7.90337 0.199993 0)
(7.6303 0.171563 0)
(7.38126 0.145452 0)
(7.15531 0.121787 0)
(6.95162 0.100481 0)
(6.76891 0.081544 0)
(6.60577 0.0648658 0)
(6.46071 0.0501926 0)
(6.33234 0.037456 0)
(6.21901 0.0265065 0)
(6.11933 0.017125 0)
(6.03186 0.009189 0)
(5.95526 0.00261394 0)
(5.88816 -0.00276809 0)
(5.82944 -0.00724289 0)
(5.77812 -0.0109291 0)
(5.73325 -0.0137916 0)
(5.69386 -0.0159383 0)
(5.65922 -0.0175341 0)
(5.62862 -0.0186618 0)
(5.60151 -0.0193556 0)
(5.57729 -0.0196837 0)
(5.55556 -0.0198533 0)
(5.53608 -0.0198989 0)
(5.51852 -0.0197875 0)
(5.50267 -0.019468 0)
(5.48816 -0.0190093 0)
(5.47492 -0.0185504 0)
(5.46278 -0.0179554 0)
(5.45149 -0.0172799 0)
(5.44103 -0.0166021 0)
(5.43123 -0.0158932 0)
(5.42205 -0.0151037 0)
(5.41329 -0.014217 0)
(5.40489 -0.0134346 0)
(5.39695 -0.0127827 0)
(5.38941 -0.0120713 0)
(5.38215 -0.0113381 0)
(5.37519 -0.0106682 0)
(5.36851 -0.0100019 0)
(5.362 -0.0092292 0)
(5.35561 -0.00847474 0)
(5.34924 -0.00782009 0)
(5.34322 -0.00731259 0)
(5.33698 -0.00672676 0)
(5.33162 -0.00613596 0)
(5.32472 -0.00568043 0)
(11.9835 0.054729 0)
(12.0486 0.128853 0)
(12.081 0.203125 0)
(12.1731 0.263738 0)
(12.2451 0.314903 0)
(12.3322 0.354471 0)
(12.3992 0.383639 0)
(12.4593 0.402688 0)
(12.4989 0.412848 0)
(12.5244 0.415116 0)
(12.5322 0.410774 0)
(12.5264 0.401134 0)
(12.5074 0.387136 0)
(12.4781 0.369923 0)
(12.44 0.350384 0)
(12.3952 0.329408 0)
(12.3454 0.307694 0)
(12.2921 0.285789 0)
(12.2365 0.264183 0)
(12.1796 0.243241 0)
(12.1223 0.223184 0)
(12.0653 0.204243 0)
(12.009 0.186542 0)
(11.954 0.170131 0)
(11.9003 0.155052 0)
(11.8483 0.141313 0)
(11.7981 0.128872 0)
(11.7498 0.117623 0)
(11.7033 0.107488 0)
(11.6585 0.0984316 0)
(11.6156 0.0903657 0)
(11.5745 0.0831739 0)
(11.535 0.076774 0)
(11.4971 0.0710826 0)
(11.4608 0.0660191 0)
(11.4261 0.0614479 0)
(11.3927 0.0573079 0)
(11.3605 0.0535598 0)
(11.3297 0.050173 0)
(11.3 0.0471047 0)
(11.2716 0.0442683 0)
(11.2442 0.0416938 0)
(11.2179 0.039338 0)
(11.1927 0.0371612 0)
(11.1685 0.0351606 0)
(11.1452 0.0333251 0)
(11.1229 0.0316529 0)
(11.1015 0.0300714 0)
(11.081 0.0285494 0)
(11.0613 0.0271485 0)
(11.0424 0.0258403 0)
(11.0243 0.0246124 0)
(11.0069 0.023464 0)
(10.9902 0.02245 0)
(10.9744 0.0214868 0)
(10.9592 0.0205926 0)
(10.9446 0.0196917 0)
(10.9306 0.0188777 0)
(10.9173 0.0181247 0)
(10.9044 0.0173593 0)
(11.9825 0.0255381 0)
(12.0395 0.0738515 0)
(12.0547 0.122707 0)
(12.1274 0.16565 0)
(12.1866 0.203937 0)
(12.2733 0.235278 0)
(12.357 0.259976 0)
(12.4524 0.277572 0)
(12.5459 0.288643 0)
(12.6422 0.293636 0)
(12.7349 0.293389 0)
(12.8253 0.288854 0)
(12.9104 0.280671 0)
(12.9905 0.269729 0)
(13.0643 0.256719 0)
(13.1319 0.242333 0)
(13.193 0.227127 0)
(13.248 0.211553 0)
(13.2969 0.196 0)
(13.3401 0.180779 0)
(13.378 0.166097 0)
(13.411 0.152146 0)
(13.4395 0.139057 0)
(13.464 0.126897 0)
(13.485 0.115715 0)
(13.5027 0.105534 0)
(13.5177 0.0963424 0)
(13.5302 0.0880704 0)
(13.5406 0.0806649 0)
(13.5491 0.0740978 0)
(13.556 0.0683073 0)
(13.5615 0.0632158 0)
(13.5658 0.0587488 0)
(13.5691 0.0548309 0)
(13.5715 0.0514039 0)
(13.5731 0.0483603 0)
(13.5741 0.0456431 0)
(13.5745 0.0432134 0)
(13.5744 0.0410427 0)
(13.5739 0.0391036 0)
(13.573 0.0373282 0)
(13.5717 0.0357277 0)
(13.5702 0.0342714 0)
(13.5685 0.0329333 0)
(13.5665 0.0317019 0)
(13.5643 0.0305644 0)
(13.562 0.0295253 0)
(13.5596 0.0285296 0)
(13.557 0.0275494 0)
(13.5544 0.0266235 0)
(13.5517 0.0257412 0)
(13.5489 0.0249058 0)
(13.546 0.0241068 0)
(13.5431 0.0233887 0)
(13.5402 0.0227058 0)
(13.5372 0.0220571 0)
(13.5343 0.021398 0)
(13.5314 0.0207784 0)
(13.5285 0.0202004 0)
(13.5256 0.0196104 0)
(11.9817 0.0235005 0)
(12.0331 0.0641084 0)
(12.041 0.103446 0)
(12.103 0.136166 0)
(12.1513 0.164176 0)
(12.2267 0.186114 0)
(12.2998 0.202917 0)
(12.3857 0.214716 0)
(12.4715 0.222264 0)
(12.5622 0.226063 0)
(12.6518 0.226714 0)
(12.7416 0.22476 0)
(12.8288 0.220614 0)
(12.9136 0.214734 0)
(12.9947 0.207469 0)
(13.0719 0.199178 0)
(13.1446 0.190155 0)
(13.213 0.180663 0)
(13.2767 0.17093 0)
(13.336 0.161154 0)
(13.3909 0.151486 0)
(13.4415 0.142067 0)
(13.4882 0.133002 0)
(13.5312 0.124366 0)
(13.5706 0.116218 0)
(13.6069 0.108598 0)
(13.6402 0.101521 0)
(13.6709 0.09498 0)
(13.6992 0.0889659 0)
(13.7254 0.0834671 0)
(13.7496 0.0784567 0)
(13.7721 0.0738961 0)
(13.7931 0.069753 0)
(13.8127 0.0659848 0)
(13.8311 0.0625559 0)
(13.8484 0.0594147 0)
(13.8647 0.0565298 0)
(13.8802 0.0538742 0)
(13.8948 0.0514219 0)
(13.9087 0.0491545 0)
(13.922 0.0470377 0)
(13.9346 0.0450714 0)
(13.9466 0.0432346 0)
(13.9581 0.0415119 0)
(13.9691 0.0398957 0)
(13.9797 0.0383754 0)
(13.9898 0.0369442 0)
(13.9996 0.0355861 0)
(14.0089 0.0342866 0)
(14.0179 0.033059 0)
(14.0266 0.0318888 0)
(14.0349 0.0307806 0)
(14.0429 0.0297214 0)
(14.0505 0.0287304 0)
(14.0579 0.0277755 0)
(14.0651 0.0268695 0)
(14.072 0.0259868 0)
(14.0786 0.0251434 0)
(14.085 0.0243422 0)
(14.0912 0.0235529 0)
(11.9813 0.0101725 0)
(12.0317 0.028536 0)
(12.0394 0.0468681 0)
(12.1006 0.0631015 0)
(12.1475 0.0778516 0)
(12.2206 0.0901446 0)
(12.2907 0.100096 0)
(12.3729 0.107391 0)
(12.4547 0.112169 0)
(12.5411 0.114517 0)
(12.6266 0.114688 0)
(12.7126 0.113005 0)
(12.7964 0.109742 0)
(12.8783 0.105252 0)
(12.957 0.0998286 0)
(13.0324 0.0937708 0)
(13.1039 0.0873276 0)
(13.1715 0.0807123 0)
(13.2349 0.0741008 0)
(13.2943 0.0676375 0)
(13.3496 0.0614247 0)
(13.401 0.055547 0)
(13.4486 0.0500619 0)
(13.4927 0.0450029 0)
(13.5335 0.04039 0)
(13.5712 0.0362274 0)
(13.6061 0.0325084 0)
(13.6384 0.0292093 0)
(13.6683 0.0263051 0)
(13.6961 0.0237731 0)
(13.7221 0.0215832 0)
(13.7463 0.019701 0)
(13.769 0.0180932 0)
(13.7903 0.0167236 0)
(13.8104 0.0155635 0)
(13.8294 0.0145739 0)
(13.8475 0.0137278 0)
(13.8646 0.0130038 0)
(13.881 0.0123827 0)
(13.8966 0.0118527 0)
(13.9115 0.01139 0)
(13.9259 0.0109916 0)
(13.9396 0.0106442 0)
(13.9529 0.0103388 0)
(13.9656 0.0100688 0)
(13.9779 0.00982717 0)
(13.9898 0.00961018 0)
(14.0012 0.00940756 0)
(14.0123 0.00920774 0)
(14.023 0.00902102 0)
(14.0333 0.00883968 0)
(14.0433 0.00867236 0)
(14.053 0.00850985 0)
(14.0624 0.00836724 0)
(14.0715 0.00822972 0)
(14.0803 0.00810136 0)
(14.0888 0.00797034 0)
(14.0971 0.00784411 0)
(14.1051 0.00772973 0)
(14.1129 0.0076094 0)
(11.9813 0.00525436 0)
(12.031 0.0154418 0)
(12.0368 0.0251095 0)
(12.0953 0.0332188 0)
(12.1396 0.0400193 0)
(12.21 0.0452335 0)
(12.2778 0.0491365 0)
(12.3581 0.0518427 0)
(12.4384 0.0536095 0)
(12.5237 0.0546177 0)
(12.6083 0.0550478 0)
(12.6936 0.0550288 0)
(12.777 0.0546558 0)
(12.8584 0.0540032 0)
(12.9368 0.0531176 0)
(13.0119 0.0520397 0)
(13.0831 0.0507988 0)
(13.1505 0.0494213 0)
(13.2137 0.0479321 0)
(13.273 0.0463559 0)
(13.3282 0.0447141 0)
(13.3795 0.0430306 0)
(13.4271 0.041326 0)
(13.4713 0.0396192 0)
(13.5121 0.0379278 0)
(13.5499 0.0362663 0)
(13.5849 0.0346467 0)
(13.6173 0.0330777 0)
(13.6474 0.0315665 0)
(13.6754 0.0301185 0)
(13.7015 0.028736 0)
(13.7259 0.0274191 0)
(13.7488 0.0261676 0)
(13.7703 0.0249796 0)
(13.7906 0.0238515 0)
(13.8098 0.0227809 0)
(13.8281 0.0217643 0)
(13.8455 0.0207996 0)
(13.862 0.0198832 0)
(13.8779 0.0190134 0)
(13.893 0.0181857 0)
(13.9076 0.0174004 0)
(13.9215 0.0166538 0)
(13.935 0.0159451 0)
(13.948 0.0152715 0)
(13.9605 0.0146335 0)
(13.9725 0.0140271 0)
(13.9842 0.013454 0)
(13.9955 0.0129087 0)
(14.0064 0.0123969 0)
(14.017 0.01191 0)
(14.0272 0.0114537 0)
(14.0371 0.0110194 0)
(14.0467 0.010613 0)
(14.056 0.0102253 0)
(14.065 0.00985912 0)
(14.0738 0.00950915 0)
(14.0823 0.0091762 0)
(14.0905 0.00886542 0)
(14.0985 0.00856701 0)
(11.9813 -0.00525435 0)
(12.031 -0.0154419 0)
(12.0368 -0.0251095 0)
(12.0953 -0.0332188 0)
(12.1396 -0.0400193 0)
(12.21 -0.0452336 0)
(12.2778 -0.0491365 0)
(12.3581 -0.0518427 0)
(12.4384 -0.0536094 0)
(12.5237 -0.0546177 0)
(12.6083 -0.0550477 0)
(12.6936 -0.0550286 0)
(12.777 -0.0546556 0)
(12.8584 -0.0540028 0)
(12.9368 -0.0531171 0)
(13.0119 -0.0520391 0)
(13.0831 -0.050798 0)
(13.1505 -0.0494203 0)
(13.2137 -0.0479309 0)
(13.273 -0.0463544 0)
(13.3282 -0.0447122 0)
(13.3795 -0.0430284 0)
(13.4271 -0.0413233 0)
(13.4713 -0.039616 0)
(13.5121 -0.0379239 0)
(13.5499 -0.0362618 0)
(13.5849 -0.0346414 0)
(13.6173 -0.0330713 0)
(13.6474 -0.031559 0)
(13.6754 -0.0301095 0)
(13.7015 -0.0287256 0)
(13.7259 -0.0274069 0)
(13.7488 -0.0261535 0)
(13.7703 -0.0249637 0)
(13.7906 -0.0238345 0)
(13.8098 -0.0227629 0)
(13.8281 -0.0217454 0)
(13.8455 -0.0207792 0)
(13.862 -0.0198611 0)
(13.8779 -0.0189885 0)
(13.893 -0.0181576 0)
(13.9076 -0.0173674 0)
(13.9215 -0.0166156 0)
(13.935 -0.0158988 0)
(13.948 -0.0152172 0)
(13.9605 -0.0145669 0)
(13.9725 -0.013949 0)
(13.9842 -0.0133573 0)
(13.9955 -0.0127953 0)
(14.0064 -0.0122568 0)
(14.017 -0.0117458 0)
(14.0272 -0.0112535 0)
(14.0371 -0.0107848 0)
(14.0467 -0.0103334 0)
(14.056 -0.00989904 0)
(14.065 -0.00948117 0)
(14.0738 -0.00907862 0)
(14.0823 -0.00868998 0)
(14.0905 -0.00830915 0)
(14.0985 -0.00793768 0)
(11.9813 -0.0101725 0)
(12.0317 -0.0285361 0)
(12.0394 -0.046868 0)
(12.1006 -0.0631015 0)
(12.1475 -0.0778517 0)
(12.2206 -0.0901446 0)
(12.2907 -0.100096 0)
(12.3729 -0.107391 0)
(12.4547 -0.112169 0)
(12.5411 -0.114516 0)
(12.6266 -0.114688 0)
(12.7126 -0.113005 0)
(12.7964 -0.109742 0)
(12.8783 -0.105251 0)
(12.957 -0.0998281 0)
(13.0324 -0.0937703 0)
(13.1039 -0.0873269 0)
(13.1715 -0.0807114 0)
(13.2349 -0.0740996 0)
(13.2943 -0.067636 0)
(13.3496 -0.0614229 0)
(13.401 -0.0555448 0)
(13.4486 -0.0500592 0)
(13.4927 -0.0449998 0)
(13.5335 -0.0403862 0)
(13.5712 -0.036223 0)
(13.6061 -0.0325032 0)
(13.6384 -0.0292031 0)
(13.6683 -0.0262979 0)
(13.6961 -0.0237644 0)
(13.7221 -0.0215733 0)
(13.7463 -0.0196887 0)
(13.769 -0.0180783 0)
(13.7903 -0.0167067 0)
(13.8104 -0.0155456 0)
(13.8294 -0.0145557 0)
(13.8475 -0.013709 0)
(13.8646 -0.012984 0)
(13.881 -0.0123614 0)
(13.8966 -0.0118289 0)
(13.9115 -0.0113632 0)
(13.9259 -0.0109601 0)
(13.9396 -0.0106076 0)
(13.9529 -0.0102944 0)
(13.9656 -0.0100166 0)
(13.9779 -0.00976301 0)
(13.9898 -0.00953511 0)
(14.0012 -0.00931444 0)
(14.0123 -0.00909882 0)
(14.023 -0.00888515 0)
(14.0334 -0.00868089 0)
(14.0434 -0.00847681 0)
(14.0531 -0.00828005 0)
(14.0624 -0.00809107 0)
(14.0715 -0.00790371 0)
(14.0804 -0.00772168 0)
(14.0889 -0.00754131 0)
(14.0972 -0.00736412 0)
(14.1052 -0.00718267 0)
(14.113 -0.00698865 0)
(11.9817 -0.0235005 0)
(12.0331 -0.0641084 0)
(12.041 -0.103446 0)
(12.103 -0.136166 0)
(12.1513 -0.164176 0)
(12.2267 -0.186114 0)
(12.2998 -0.202917 0)
(12.3857 -0.214716 0)
(12.4715 -0.222264 0)
(12.5622 -0.226062 0)
(12.6518 -0.226714 0)
(12.7416 -0.224759 0)
(12.8288 -0.220614 0)
(12.9136 -0.214733 0)
(12.9947 -0.207468 0)
(13.0719 -0.199177 0)
(13.1446 -0.190155 0)
(13.213 -0.180662 0)
(13.2767 -0.170929 0)
(13.336 -0.161153 0)
(13.3909 -0.151484 0)
(13.4415 -0.142065 0)
(13.4882 -0.132999 0)
(13.5312 -0.124363 0)
(13.5706 -0.116215 0)
(13.6069 -0.108593 0)
(13.6402 -0.101516 0)
(13.671 -0.094974 0)
(13.6993 -0.0889589 0)
(13.7254 -0.0834586 0)
(13.7496 -0.0784469 0)
(13.7721 -0.0738839 0)
(13.7931 -0.0697385 0)
(13.8127 -0.0659687 0)
(13.8311 -0.0625388 0)
(13.8484 -0.0593972 0)
(13.8647 -0.0565117 0)
(13.8802 -0.0538552 0)
(13.8948 -0.0514016 0)
(13.9087 -0.049132 0)
(13.922 -0.0470127 0)
(13.9346 -0.045042 0)
(13.9466 -0.0432005 0)
(13.9581 -0.0414704 0)
(13.9692 -0.0398466 0)
(13.9797 -0.0383156 0)
(13.9899 -0.0368745 0)
(13.9996 -0.0354985 0)
(14.009 -0.0341842 0)
(14.018 -0.0329302 0)
(14.0267 -0.0317385 0)
(14.035 -0.030593 0)
(14.043 -0.029503 0)
(14.0507 -0.0284637 0)
(14.0581 -0.0274605 0)
(14.0652 -0.0265006 0)
(14.0721 -0.0255746 0)
(14.0788 -0.0246828 0)
(14.0852 -0.023814 0)
(14.0914 -0.0229536 0)
(11.9825 -0.025538 0)
(12.0395 -0.0738515 0)
(12.0547 -0.122707 0)
(12.1274 -0.16565 0)
(12.1866 -0.203937 0)
(12.2733 -0.235278 0)
(12.357 -0.259976 0)
(12.4524 -0.277572 0)
(12.5459 -0.288643 0)
(12.6422 -0.293636 0)
(12.7349 -0.293389 0)
(12.8253 -0.288854 0)
(12.9104 -0.280671 0)
(12.9905 -0.269728 0)
(13.0643 -0.256719 0)
(13.1319 -0.242333 0)
(13.193 -0.227126 0)
(13.248 -0.211553 0)
(13.2969 -0.195999 0)
(13.3401 -0.180778 0)
(13.378 -0.166095 0)
(13.411 -0.152145 0)
(13.4395 -0.139055 0)
(13.464 -0.126895 0)
(13.485 -0.115712 0)
(13.5028 -0.10553 0)
(13.5177 -0.0963378 0)
(13.5302 -0.0880652 0)
(13.5406 -0.0806588 0)
(13.5491 -0.0740903 0)
(13.556 -0.0683002 0)
(13.5615 -0.0632044 0)
(13.5658 -0.058731 0)
(13.5691 -0.0548097 0)
(13.5715 -0.0513833 0)
(13.5731 -0.0483426 0)
(13.5741 -0.0456266 0)
(13.5746 -0.0431972 0)
(13.5745 -0.0410259 0)
(13.5739 -0.0390853 0)
(13.573 -0.0373075 0)
(13.5718 -0.0357038 0)
(13.5703 -0.0342435 0)
(13.5685 -0.0328988 0)
(13.5665 -0.0316608 0)
(13.5644 -0.030514 0)
(13.5621 -0.029467 0)
(13.5597 -0.0284567 0)
(13.5572 -0.0274649 0)
(13.5546 -0.0265128 0)
(13.5519 -0.0256154 0)
(13.5491 -0.0247413 0)
(13.5463 -0.0239159 0)
(13.5434 -0.0231461 0)
(13.5405 -0.0223966 0)
(13.5376 -0.0216848 0)
(13.5348 -0.0210026 0)
(13.5319 -0.020364 0)
(13.5291 -0.0197348 0)
(13.5263 -0.0190725 0)
(11.9835 -0.0547289 0)
(12.0486 -0.128853 0)
(12.081 -0.203125 0)
(12.1731 -0.263738 0)
(12.2451 -0.314903 0)
(12.3322 -0.354471 0)
(12.3992 -0.383639 0)
(12.4593 -0.402688 0)
(12.4989 -0.412848 0)
(12.5244 -0.415116 0)
(12.5322 -0.410774 0)
(12.5264 -0.401134 0)
(12.5074 -0.387136 0)
(12.4781 -0.369923 0)
(12.44 -0.350384 0)
(12.3952 -0.329408 0)
(12.3454 -0.307694 0)
(12.2921 -0.285789 0)
(12.2365 -0.264182 0)
(12.1796 -0.24324 0)
(12.1223 -0.223183 0)
(12.0653 -0.204242 0)
(12.009 -0.18654 0)
(11.954 -0.170129 0)
(11.9003 -0.155049 0)
(11.8483 -0.14131 0)
(11.7981 -0.128869 0)
(11.7498 -0.117619 0)
(11.7033 -0.107483 0)
(11.6585 -0.098426 0)
(11.6156 -0.0903599 0)
(11.5745 -0.0831651 0)
(11.535 -0.0767612 0)
(11.4972 -0.0710676 0)
(11.4609 -0.0660044 0)
(11.4261 -0.061435 0)
(11.3927 -0.0572962 0)
(11.3606 -0.0535488 0)
(11.3297 -0.0501619 0)
(11.3001 -0.0470932 0)
(11.2717 -0.0442558 0)
(11.2443 -0.0416794 0)
(11.218 -0.0393215 0)
(11.1928 -0.0371398 0)
(11.1686 -0.0351345 0)
(11.1453 -0.0332939 0)
(11.123 -0.0316176 0)
(11.1017 -0.030024 0)
(11.0812 -0.0284962 0)
(11.0615 -0.0270753 0)
(11.0427 -0.025759 0)
(11.0246 -0.0244966 0)
(11.0073 -0.0233381 0)
(10.9908 -0.0222712 0)
(10.975 -0.0212459 0)
(10.9599 -0.0202948 0)
(10.9454 -0.0194042 0)
(10.9316 -0.0185921 0)
(10.9184 -0.0178088 0)
(10.9058 -0.0170038 0)
(11.9667 -0.0519108 0)
(11.9154 -0.153514 0)
(11.6948 -0.250102 0)
(11.4487 -0.319379 0)
(11.1167 -0.363961 0)
(10.7646 -0.384924 0)
(10.3794 -0.387123 0)
(9.99213 -0.374932 0)
(9.60278 -0.353044 0)
(9.22573 -0.324923 0)
(8.86324 -0.293796 0)
(8.52096 -0.261954 0)
(8.20027 -0.230307 0)
(7.90337 -0.199993 0)
(7.6303 -0.171563 0)
(7.38126 -0.145452 0)
(7.15531 -0.121787 0)
(6.95162 -0.100481 0)
(6.76891 -0.0815438 0)
(6.60577 -0.0648656 0)
(6.46071 -0.0501923 0)
(6.33234 -0.0374557 0)
(6.21901 -0.0265061 0)
(6.11934 -0.0171246 0)
(6.03186 -0.00918829 0)
(5.95527 -0.00261323 0)
(5.88817 0.00276934 0)
(5.82945 0.00724361 0)
(5.77813 0.0109313 0)
(5.73327 0.013792 0)
(5.69387 0.015932 0)
(5.65923 0.0175345 0)
(5.62865 0.0186754 0)
(5.60155 0.0193733 0)
(5.57735 0.0196944 0)
(5.55563 0.019855 0)
(5.53616 0.0198983 0)
(5.5186 0.0197869 0)
(5.50276 0.0194682 0)
(5.48826 0.0190109 0)
(5.47502 0.0185537 0)
(5.46289 0.0179575 0)
(5.4516 0.0172827 0)
(5.44116 0.0166058 0)
(5.43137 0.0158968 0)
(5.42221 0.0151117 0)
(5.41347 0.0142255 0)
(5.40509 0.0134419 0)
(5.39718 0.0127928 0)
(5.38968 0.0120946 0)
(5.38248 0.0113544 0)
(5.37556 0.0107054 0)
(5.36899 0.0100146 0)
(5.36253 0.00929551 0)
(5.3563 0.00866708 0)
(5.35024 0.00806347 0)
(5.34436 0.00745296 0)
(5.33858 0.00677464 0)
(5.33281 0.00618866 0)
(5.32722 0.00578208 0)
(5.32118 -0.00511538 0)
(5.31794 -0.00461272 0)
(5.31462 -0.00419226 0)
(5.31136 -0.00376631 0)
(5.30798 -0.00323567 0)
(5.30451 -0.00275089 0)
(5.30097 -0.00241333 0)
(5.2975 -0.00205358 0)
(5.29391 -0.00167012 0)
(5.29037 -0.00138796 0)
(5.28685 -0.00118106 0)
(5.28346 -0.000894179 0)
(5.27999 -0.000621294 0)
(5.27668 -0.000471397 0)
(5.27345 -0.000325817 0)
(5.27035 -0.000257018 0)
(5.26744 -7.07561e-05 0)
(5.26447 0.000196889 0)
(5.26159 0.000310072 0)
(5.25882 0.000473766 0)
(5.25601 0.000650878 0)
(5.25331 0.000686585 0)
(5.25073 0.0008227 0)
(5.24808 0.000947994 0)
(5.24559 0.000896196 0)
(5.24323 0.000941602 0)
(5.24084 0.00104884 0)
(5.23853 0.00105901 0)
(5.2363 0.00102175 0)
(5.23416 0.000908029 0)
(5.2322 0.000914188 0)
(5.23012 0.00102946 0)
(5.22807 0.0010182 0)
(5.22607 0.00108525 0)
(5.22393 0.00113425 0)
(5.22188 0.00102811 0)
(5.21988 0.00106671 0)
(5.21777 0.00114853 0)
(5.21568 0.00107941 0)
(5.21367 0.00111003 0)
(5.21153 0.00121793 0)
(5.20939 0.00123035 0)
(5.20724 0.00125523 0)
(5.20507 0.00131608 0)
(5.20285 0.00142795 0)
(5.20054 0.0014971 0)
(5.19826 0.00142203 0)
(5.19609 0.00137055 0)
(5.19389 0.0014681 0)
(5.19163 0.00154715 0)
(5.18938 0.00151727 0)
(5.18718 0.0015378 0)
(5.18492 0.00167515 0)
(5.18253 0.00170835 0)
(5.18031 0.00173459 0)
(5.17782 0.00152521 0)
(5.17609 0.00163536 0)
(5.17333 0.00140868 0)
(5.17228 0.00175154 0)
(5.16898 0.00170911 0)
(10.8922 0.0167506 0)
(10.8805 0.0161367 0)
(10.8695 0.0155536 0)
(10.8589 0.0150044 0)
(10.8489 0.014523 0)
(10.8395 0.0140541 0)
(10.8305 0.013565 0)
(10.822 0.0131014 0)
(10.8139 0.0126538 0)
(10.8064 0.0121882 0)
(10.7992 0.0117088 0)
(10.7925 0.0112556 0)
(10.7862 0.0108152 0)
(10.7803 0.0103367 0)
(10.7748 0.00988017 0)
(10.7697 0.00941353 0)
(10.7649 0.0090043 0)
(10.7606 0.00865313 0)
(10.7566 0.00827987 0)
(10.7529 0.00795535 0)
(10.7496 0.00766723 0)
(10.7466 0.00734796 0)
(10.7438 0.00708033 0)
(10.7413 0.00684182 0)
(10.7391 0.00657082 0)
(10.7369 0.00635123 0)
(10.7351 0.00616932 0)
(10.7334 0.00597597 0)
(10.7318 0.00580134 0)
(10.7303 0.00562391 0)
(10.7289 0.00550478 0)
(10.7277 0.00545276 0)
(10.7265 0.00537833 0)
(10.7254 0.0053596 0)
(10.7244 0.00535853 0)
(10.7234 0.00530163 0)
(10.7223 0.00528752 0)
(10.7213 0.00529485 0)
(10.7203 0.00525491 0)
(10.7193 0.00524807 0)
(10.7183 0.00526504 0)
(10.7173 0.00525165 0)
(10.7162 0.00524729 0)
(10.7152 0.00524011 0)
(10.7141 0.00524182 0)
(10.713 0.00523106 0)
(10.7119 0.00517282 0)
(10.7107 0.00512262 0)
(10.7095 0.00510995 0)
(10.7083 0.00509269 0)
(10.707 0.00506861 0)
(10.7057 0.00503578 0)
(10.7044 0.00508776 0)
(10.7031 0.00500649 0)
(10.7018 0.00509203 0)
(10.7004 0.00480321 0)
(10.699 0.00498632 0)
(10.6976 0.00446688 0)
(10.6964 0.00473657 0)
(10.6951 0.00384068 0)
(13.5227 0.0190885 0)
(13.5198 0.0185704 0)
(13.5171 0.0180741 0)
(13.5143 0.0175864 0)
(13.5117 0.0171374 0)
(13.5091 0.0166964 0)
(13.5067 0.0162238 0)
(13.5043 0.015745 0)
(13.502 0.0152638 0)
(13.4998 0.0147536 0)
(13.4977 0.014211 0)
(13.4957 0.0136687 0)
(13.4938 0.0131297 0)
(13.492 0.0125542 0)
(13.4902 0.0119858 0)
(13.4886 0.0114011 0)
(13.4871 0.0108478 0)
(13.4857 0.0103482 0)
(13.4844 0.00984607 0)
(13.4832 0.00937214 0)
(13.4821 0.00893651 0)
(13.4812 0.00849417 0)
(13.4803 0.00808932 0)
(13.4796 0.00771666 0)
(13.479 0.00732985 0)
(13.4785 0.00697925 0)
(13.4781 0.00667454 0)
(13.4778 0.00637537 0)
(13.4777 0.00609722 0)
(13.4776 0.00583061 0)
(13.4775 0.00560699 0)
(13.4776 0.00546225 0)
(13.4778 0.00533308 0)
(13.4781 0.00524881 0)
(13.4784 0.00519476 0)
(13.4789 0.00512564 0)
(13.4793 0.00509478 0)
(13.4798 0.00510146 0)
(13.4803 0.00509609 0)
(13.4809 0.00511931 0)
(13.4814 0.00518697 0)
(13.482 0.00524813 0)
(13.4826 0.00533159 0)
(13.4832 0.00541732 0)
(13.4838 0.00551053 0)
(13.4844 0.00559528 0)
(13.4849 0.00564129 0)
(13.4854 0.00566939 0)
(13.4859 0.00574111 0)
(13.4864 0.0058135 0)
(13.4869 0.00589076 0)
(13.4873 0.00592797 0)
(13.4878 0.00606526 0)
(13.4882 0.0060522 0)
(13.4886 0.0062239 0)
(13.489 0.00598788 0)
(13.4893 0.00624981 0)
(13.4897 0.00566665 0)
(13.4898 0.00606427 0)
(13.4903 0.00486029 0)
(14.0971 0.022825 0)
(14.1028 0.0221061 0)
(14.1084 0.021417 0)
(14.1137 0.0207413 0)
(14.1189 0.0200897 0)
(14.1239 0.0194442 0)
(14.1287 0.0187979 0)
(14.1334 0.0181563 0)
(14.1379 0.0175171 0)
(14.1422 0.0168722 0)
(14.1463 0.0162252 0)
(14.1503 0.0155798 0)
(14.1541 0.0149409 0)
(14.1577 0.0142926 0)
(14.1612 0.0136561 0)
(14.1645 0.0130224 0)
(14.1676 0.0124084 0)
(14.1705 0.0118192 0)
(14.1733 0.0112383 0)
(14.176 0.0106818 0)
(14.1786 0.0101493 0)
(14.181 0.0096251 0)
(14.1833 0.00912635 0)
(14.1855 0.00865035 0)
(14.1876 0.00818579 0)
(14.1896 0.00775002 0)
(14.1915 0.00734264 0)
(14.1933 0.00695362 0)
(14.195 0.00659491 0)
(14.1967 0.00626379 0)
(14.1983 0.00597133 0)
(14.1998 0.00572744 0)
(14.2013 0.00550964 0)
(14.2028 0.00533444 0)
(14.2042 0.00519346 0)
(14.2057 0.00506876 0)
(14.2071 0.00497715 0)
(14.2085 0.00491414 0)
(14.2098 0.00486283 0)
(14.2112 0.0048357 0)
(14.2126 0.00483058 0)
(14.214 0.00482822 0)
(14.2153 0.00484114 0)
(14.2167 0.00485276 0)
(14.2181 0.00487203 0)
(14.2195 0.00488224 0)
(14.2209 0.00489318 0)
(14.2223 0.00488864 0)
(14.2237 0.00491431 0)
(14.2251 0.00490611 0)
(14.2264 0.00494566 0)
(14.2278 0.00491548 0)
(14.2291 0.00499874 0)
(14.2305 0.0049173 0)
(14.2318 0.00505522 0)
(14.2331 0.00485227 0)
(14.2342 0.0050688 0)
(14.2356 0.00466472 0)
(14.2363 0.00493137 0)
(14.2379 0.00416172 0)
(14.1204 0.00750709 0)
(14.1277 0.00740068 0)
(14.1348 0.00730186 0)
(14.1416 0.00719897 0)
(14.1483 0.00710093 0)
(14.1547 0.00699773 0)
(14.1609 0.00688114 0)
(14.1669 0.00675213 0)
(14.1727 0.00661193 0)
(14.1783 0.00645383 0)
(14.1836 0.00627936 0)
(14.1888 0.00609145 0)
(14.1937 0.00589651 0)
(14.1984 0.00568212 0)
(14.2028 0.00546434 0)
(14.2071 0.00523756 0)
(14.2111 0.00501341 0)
(14.2149 0.00480117 0)
(14.2186 0.00459101 0)
(14.222 0.00438949 0)
(14.2253 0.00419993 0)
(14.2283 0.0040119 0)
(14.2312 0.00383329 0)
(14.2339 0.00366395 0)
(14.2365 0.00349584 0)
(14.2388 0.00333655 0)
(14.2411 0.00319117 0)
(14.2432 0.00305113 0)
(14.2452 0.00292112 0)
(14.2471 0.00280327 0)
(14.2488 0.00270081 0)
(14.2505 0.00262734 0)
(14.2521 0.00256871 0)
(14.2537 0.00253057 0)
(14.2552 0.00251062 0)
(14.2567 0.00249833 0)
(14.2581 0.00250268 0)
(14.2595 0.00252415 0)
(14.2609 0.00255495 0)
(14.2623 0.0025979 0)
(14.2637 0.00266115 0)
(14.2652 0.0027276 0)
(14.2666 0.00280875 0)
(14.2681 0.00289005 0)
(14.2696 0.00298089 0)
(14.2711 0.00306386 0)
(14.2726 0.00315287 0)
(14.2742 0.00322267 0)
(14.2758 0.00332486 0)
(14.2774 0.0033978 0)
(14.279 0.00351865 0)
(14.2806 0.00357284 0)
(14.2822 0.00372829 0)
(14.2838 0.00374403 0)
(14.2853 0.00393694 0)
(14.287 0.00385432 0)
(14.2883 0.0040928 0)
(14.2901 0.00386203 0)
(14.291 0.00411452 0)
(14.293 0.00369683 0)
(14.1063 0.0082939 0)
(14.1138 0.00802905 0)
(14.1211 0.00778036 0)
(14.1281 0.00753779 0)
(14.135 0.0073076 0)
(14.1416 0.00708157 0)
(14.1481 0.00685957 0)
(14.1543 0.0066402 0)
(14.1603 0.00642659 0)
(14.1661 0.00621412 0)
(14.1717 0.00600821 0)
(14.177 0.00580673 0)
(14.1821 0.00561147 0)
(14.187 0.0054139 0)
(14.1917 0.00522044 0)
(14.1962 0.00502683 0)
(14.2004 0.00483713 0)
(14.2044 0.0046536 0)
(14.2083 0.00447375 0)
(14.2119 0.00430427 0)
(14.2153 0.00414229 0)
(14.2186 0.00398423 0)
(14.2217 0.00383148 0)
(14.2246 0.00368068 0)
(14.2273 0.0035325 0)
(14.2299 0.00338825 0)
(14.2323 0.00325029 0)
(14.2346 0.00311616 0)
(14.2368 0.00298754 0)
(14.2389 0.00286785 0)
(14.2409 0.00275844 0)
(14.2427 0.00266269 0)
(14.2445 0.00257714 0)
(14.2463 0.00250466 0)
(14.248 0.00244263 0)
(14.2496 0.00238821 0)
(14.2512 0.00234237 0)
(14.2528 0.00230305 0)
(14.2544 0.00226885 0)
(14.256 0.00223926 0)
(14.2575 0.0022149 0)
(14.2592 0.002189 0)
(14.2608 0.00216939 0)
(14.2624 0.00214504 0)
(14.2641 0.00212962 0)
(14.2658 0.00210445 0)
(14.2675 0.00209704 0)
(14.2692 0.00207157 0)
(14.2709 0.00208141 0)
(14.2727 0.00205492 0)
(14.2744 0.00208466 0)
(14.2762 0.00205528 0)
(14.278 0.00211591 0)
(14.2798 0.00208357 0)
(14.2815 0.00218234 0)
(14.2834 0.00215632 0)
(14.2848 0.00229223 0)
(14.2869 0.00228787 0)
(14.2878 0.00241702 0)
(14.2901 0.00245962 0)
(14.1063 -0.00757153 0)
(14.1138 -0.00721553 0)
(14.1211 -0.00686582 0)
(14.1282 -0.00652751 0)
(14.135 -0.0061935 0)
(14.1417 -0.00587043 0)
(14.1481 -0.00555723 0)
(14.1543 -0.00525606 0)
(14.1603 -0.00496274 0)
(14.1661 -0.00468172 0)
(14.1717 -0.00440799 0)
(14.177 -0.00414345 0)
(14.1821 -0.00388764 0)
(14.187 -0.00364698 0)
(14.1917 -0.00341603 0)
(14.1961 -0.00319888 0)
(14.2004 -0.0029923 0)
(14.2044 -0.00279279 0)
(14.2082 -0.00259974 0)
(14.2119 -0.00240872 0)
(14.2153 -0.00222326 0)
(14.2186 -0.00204459 0)
(14.2216 -0.00187508 0)
(14.2245 -0.00171721 0)
(14.2273 -0.00156813 0)
(14.2299 -0.00143225 0)
(14.2323 -0.00130526 0)
(14.2346 -0.00119072 0)
(14.2368 -0.00108981 0)
(14.2389 -0.000995598 0)
(14.2408 -0.000911066 0)
(14.2427 -0.000831609 0)
(14.2445 -0.000755838 0)
(14.2463 -0.00068493 0)
(14.2479 -0.000618945 0)
(14.2496 -0.000557004 0)
(14.2512 -0.000500176 0)
(14.2528 -0.000447759 0)
(14.2544 -0.000395364 0)
(14.256 -0.000347203 0)
(14.2575 -0.00029762 0)
(14.2592 -0.000250371 0)
(14.2608 -0.000198471 0)
(14.2624 -0.000150065 0)
(14.2641 -9.27582e-05 0)
(14.2658 -4.29467e-05 0)
(14.2675 2.53351e-05 0)
(14.2692 7.72642e-05 0)
(14.2709 0.000161795 0)
(14.2727 0.000215928 0)
(14.2745 0.000319098 0)
(14.2763 0.000376017 0)
(14.278 0.00049914 0)
(14.2799 0.000568902 0)
(14.2816 0.000714763 0)
(14.2835 0.000826337 0)
(14.2849 0.000979176 0)
(14.287 0.00119387 0)
(14.2879 0.00130062 0)
(14.2902 0.00172592 0)
(14.1205 -0.00679092 0)
(14.1278 -0.00659098 0)
(14.1349 -0.00639011 0)
(14.1418 -0.00619239 0)
(14.1484 -0.00598664 0)
(14.1548 -0.00578046 0)
(14.161 -0.00557284 0)
(14.167 -0.00536401 0)
(14.1728 -0.00514437 0)
(14.1784 -0.00492136 0)
(14.1837 -0.00468072 0)
(14.1888 -0.00442386 0)
(14.1937 -0.00415974 0)
(14.1984 -0.00390043 0)
(14.2029 -0.00364558 0)
(14.2071 -0.00340042 0)
(14.2111 -0.00316621 0)
(14.215 -0.00294415 0)
(14.2186 -0.00272607 0)
(14.222 -0.00249971 0)
(14.2253 -0.00227895 0)
(14.2283 -0.00206218 0)
(14.2312 -0.00186052 0)
(14.2339 -0.00168242 0)
(14.2364 -0.00151595 0)
(14.2388 -0.0013688 0)
(14.241 -0.00123326 0)
(14.2431 -0.00111418 0)
(14.2451 -0.00101906 0)
(14.247 -0.000933673 0)
(14.2488 -0.000861728 0)
(14.2505 -0.000806243 0)
(14.2521 -0.000756371 0)
(14.2537 -0.00071714 0)
(14.2552 -0.000690156 0)
(14.2566 -0.000667956 0)
(14.2581 -0.000660408 0)
(14.2595 -0.000668201 0)
(14.2609 -0.000680582 0)
(14.2623 -0.000704271 0)
(14.2637 -0.000741735 0)
(14.2652 -0.000786887 0)
(14.2666 -0.000835817 0)
(14.2681 -0.000891642 0)
(14.2696 -0.000943036 0)
(14.2712 -0.00100237 0)
(14.2727 -0.00103522 0)
(14.2743 -0.00108017 0)
(14.2758 -0.00108795 0)
(14.2775 -0.00113212 0)
(14.2791 -0.00112112 0)
(14.2807 -0.00115261 0)
(14.2823 -0.00112398 0)
(14.284 -0.0011179 0)
(14.2855 -0.00106047 0)
(14.2873 -0.000914423 0)
(14.2886 -0.000840605 0)
(14.2905 -0.000424024 0)
(14.2914 -0.00039878 0)
(14.2934 0.00049399 0)
(14.0974 -0.0221175 0)
(14.1032 -0.021298 0)
(14.1087 -0.0205019 0)
(14.1141 -0.0197271 0)
(14.1193 -0.018958 0)
(14.1243 -0.0182065 0)
(14.1292 -0.0174685 0)
(14.1338 -0.0167447 0)
(14.1383 -0.0160242 0)
(14.1427 -0.0153155 0)
(14.1469 -0.0146027 0)
(14.1509 -0.0138855 0)
(14.1547 -0.0131792 0)
(14.1583 -0.0124905 0)
(14.1618 -0.0118169 0)
(14.165 -0.0111685 0)
(14.1682 -0.0105461 0)
(14.1712 -0.00994873 0)
(14.174 -0.00936388 0)
(14.1768 -0.00878092 0)
(14.1794 -0.00821677 0)
(14.1818 -0.00766653 0)
(14.1841 -0.0071478 0)
(14.1863 -0.00666465 0)
(14.1884 -0.00620106 0)
(14.1904 -0.00577491 0)
(14.1923 -0.00537382 0)
(14.1942 -0.00500975 0)
(14.1959 -0.00468965 0)
(14.1976 -0.00439143 0)
(14.1992 -0.00413118 0)
(14.2008 -0.00390687 0)
(14.2024 -0.00369906 0)
(14.2039 -0.00352189 0)
(14.2053 -0.00337373 0)
(14.2068 -0.00324032 0)
(14.2082 -0.00313865 0)
(14.2096 -0.00306256 0)
(14.211 -0.00299298 0)
(14.2124 -0.00294514 0)
(14.2138 -0.00291476 0)
(14.2152 -0.00289057 0)
(14.2166 -0.0028725 0)
(14.218 -0.00285907 0)
(14.2194 -0.00284214 0)
(14.2209 -0.00282728 0)
(14.2223 -0.00278586 0)
(14.2237 -0.00275317 0)
(14.2251 -0.00268652 0)
(14.2265 -0.00265466 0)
(14.2279 -0.00256494 0)
(14.2294 -0.00252041 0)
(14.2307 -0.00241964 0)
(14.2322 -0.00233386 0)
(14.2335 -0.0022049 0)
(14.235 -0.001977 0)
(14.2362 -0.00183579 0)
(14.2377 -0.00130085 0)
(14.2386 -0.00120709 0)
(14.2402 3.56025e-05 0)
(13.5235 -0.0184341 0)
(13.5208 -0.0178075 0)
(13.5181 -0.0172124 0)
(13.5155 -0.0166428 0)
(13.513 -0.0160599 0)
(13.5105 -0.0154864 0)
(13.5081 -0.0149346 0)
(13.5059 -0.0143899 0)
(13.5037 -0.0138323 0)
(13.5017 -0.0132875 0)
(13.4997 -0.0126965 0)
(13.4979 -0.0120506 0)
(13.4961 -0.011402 0)
(13.4944 -0.0107795 0)
(13.4928 -0.0101769 0)
(13.4913 -0.00959974 0)
(13.4899 -0.00906354 0)
(13.4886 -0.00858238 0)
(13.4874 -0.00809915 0)
(13.4864 -0.00757708 0)
(13.4854 -0.00706902 0)
(13.4846 -0.00656131 0)
(13.4838 -0.00610643 0)
(13.4831 -0.00571921 0)
(13.4825 -0.00534949 0)
(13.4821 -0.00502178 0)
(13.4817 -0.0047041 0)
(13.4815 -0.00442765 0)
(13.4813 -0.00421968 0)
(13.4813 -0.00401614 0)
(13.4813 -0.00384493 0)
(13.4815 -0.00372157 0)
(13.4817 -0.00359326 0)
(13.482 -0.00349285 0)
(13.4824 -0.00341665 0)
(13.4828 -0.00332884 0)
(13.4833 -0.00328586 0)
(13.4838 -0.00327804 0)
(13.4844 -0.00325261 0)