/*--------------------------------*- C++ -*----------------------------------*\
  =========                 |
  \\      /  F ield         | OpenFOAM: The Open Source CFD Toolbox
   \\    /   O peration     | Website:  https://openfoam.org
    \\  /    A nd           | Version:  7
     \\/     M anipulation  |
\*---------------------------------------------------------------------------*/
FoamFile
{
    version     2.0;
    format      ascii;
    class       surfaceScalarField;
    location    "1.4";
    object      phi;
}
// * * * * * * * * * * * * * * * * * * * * * * * * * * * * * * * * * * * * * //

dimensions      [1 0 -1 0 0 0 0];

internalField   nonuniform List<scalar> 
2518
(
0.0103892
0.00345522
0.00738453
0.00300549
0.00578306
0.00160233
0.00497606
0.000807855
0.00457001
0.000406879
0.00435737
0.000213401
0.00423191
0.000126133
0.00414096
9.15093e-05
0.0040625
7.8898e-05
0.00399126
7.15547e-05
0.00392712
6.43396e-05
0.00387056
5.66438e-05
0.00382031
5.02413e-05
0.00377547
4.47438e-05
0.00373463
4.06703e-05
0.00369696
3.74438e-05
0.00366341
3.32535e-05
0.00362905
3.40223e-05
0.00364449
-1.58184e-05
6.1995e-05
0.003582
0.0144998
0.00279975
0.0140468
0.00345928
0.0132387
0.00241136
0.0124793
0.00156832
0.0118363
0.00105088
0.011337
0.000713656
0.0109653
0.000498666
0.0106843
0.000373235
0.010462
0.000301775
0.0102777
0.000256209
0.0101216
0.000220655
0.00998601
0.000192253
0.00986826
0.000167872
0.00976172
0.000151048
0.00966917
0.000132914
0.00957901
0.00012725
0.00950831
0.000103565
0.00942032
0.000121627
0.00936706
3.70404e-05
0.000165768
0.0092629
0.0147478
0.00189624
0.0155576
0.00265028
0.015924
0.00204592
0.0160144
0.00147889
0.015921
0.00114534
0.0157413
0.000894373
0.0155372
0.000703666
0.0153359
0.000575397
0.0151459
0.000492384
0.0149689
0.000433795
0.014807
0.000382788
0.0146583
0.000340946
0.014525
0.000301013
0.0144011
0.000274571
0.0142927
0.00024083
0.0141865
0.000232885
0.0140998
0.00018959
0.0140022
0.000218589
0.0139205
0.000118175
0.000260977
0.0138247
0.0145588
0.00118167
0.0154767
0.00173319
0.0161608
0.00136274
0.0166519
0.000988787
0.0169898
0.000808491
0.0172151
0.000670069
0.0173637
0.000556013
0.017462
0.000477954
0.0175253
0.000429835
0.0175624
0.000397336
0.0175789
0.000366668
0.0175789
0.000341089
0.0175669
0.000312874
0.0175445
0.000296703
0.0175168
0.000268004
0.0174813
0.000267675
0.0174449
0.000225212
0.0174035
0.000259102
0.0173462
0.000174572
0.000298895
0.0173074
0.0144585
0.000567388
0.0153331
0.000859361
0.0160185
0.000678309
0.0165224
0.000485871
0.0169306
0.00040131
0.0172647
0.000337024
0.0175398
0.000281841
0.0177744
0.00024421
0.0179826
0.000222398
0.0181709
0.000209622
0.018341
0.000197011
0.0184942
0.000188148
0.018631
0.00017593
0.0187544
0.000173091
0.0188629
0.000159001
0.0189624
0.000167424
0.0190433
0.000143549
0.0191258
0.000175705
0.0191677
0.000131631
0.000217932
0.0192476
0.0144115
7.04358e-09
0.0152718
-8.08764e-09
0.015951
-8.61376e-09
0.0164379
3.12523e-08
0.0168402
-1.78372e-08
0.0171782
4.74585e-08
0.017461
-2.7328e-09
0.017706
1.19374e-07
0.0179291
3.90696e-08
0.018139
3.43691e-07
0.0183362
1.90565e-07
0.0185235
1.02658e-06
0.0186987
7.07855e-07
0.0188684
3.03849e-06
0.0190245
2.46262e-06
0.0191824
8.86624e-06
0.0193169
8.19354e-06
0.0194668
2.49297e-05
0.0195735
2.38609e-05
5.97507e-05
0.0197306
0.0144115
-0.000567372
0.0152718
-0.000859385
0.015951
-0.000678302
0.0164379
-0.000485835
0.0168402
-0.000401327
0.0171782
-0.000336945
0.017461
-0.000281832
0.017706
-0.000243987
0.0179291
-0.000222307
0.018139
-0.000208956
0.0183362
-0.000196616
0.0185236
-0.000186141
0.0186987
-0.000174497
0.0188686
-0.000167135
0.0190247
-0.000154104
0.0191829
-0.000150021
0.0193178
-0.000127519
0.0194683
-0.000126483
0.0195761
-8.50371e-05
-9.76448e-05
0.0197324
0.0144585
-0.00118166
0.0153331
-0.0017332
0.0160185
-0.00136271
0.0165224
-0.000988771
0.0169306
-0.000808511
0.0172647
-0.000669977
0.0175398
-0.000556032
0.0177744
-0.000477704
0.0179826
-0.000429802
0.0181709
-0.000396637
0.0183411
-0.000366382
0.0184943
-0.000339106
0.0186314
-0.000311665
0.018755
-0.000291029
0.0188642
-0.000263743
0.0189649
-0.000251431
0.0190479
-0.000211342
0.0191336
-0.000213098
0.0191807
-0.000133105
-0.000180761
0.0192627
0.0145588
-0.00189624
0.0154767
-0.00265026
0.0161609
-0.00204596
0.0166519
-0.00147883
0.0169899
-0.0011454
0.0172151
-0.000894227
0.0173638
-0.000703769
0.017462
-0.000575069
0.0175255
-0.0004925
0.0175625
-0.000433024
0.0175793
-0.000382797
0.0175793
-0.000338988
0.017568
-0.00030048
0.017546
-0.000269343
0.0175201
-0.000238371
0.0174866
-0.000218587
0.0174553
-0.000180864
0.0174203
-0.000178969
0.0173739
-8.76404e-05
-0.000148305
0.0173406
0.0147478
-0.00279976
0.0155576
-0.00345925
0.015924
-0.00241141
0.0160144
-0.00156827
0.015921
-0.00105092
0.0157413
-0.000713573
0.0155372
-0.000498701
0.015336
-0.000373068
0.015146
-0.000301777
0.0149692
-0.00025579
0.0148073
-0.000220545
0.0146594
-0.000191088
0.0145261
-0.000167399
0.0144041
-0.000147702
0.0142967
-0.000131406
0.0141953
-0.000117759
0.014113
-9.9248e-05
0.0140283
-9.49541e-05
0.0139606
-2.04701e-05
-7.8997e-05
0.0138907
0.0144998
-0.00345523
0.0140469
-0.00300548
0.0132387
-0.00160234
0.0124793
-0.000807844
0.0118363
-0.000406875
0.011337
-0.000213399
0.0109653
-0.000126104
0.0106845
-9.1489e-05
0.0104621
-7.88377e-05
0.0102781
-7.14513e-05
0.010122
-6.4197e-05
0.00998718
-5.62771e-05
0.00986952
-4.98635e-05
0.00976518
-4.35962e-05
0.0096731
-3.96436e-05
0.00958911
-3.41278e-05
0.00952018
-3.07002e-05
0.00945084
-2.60042e-05
0.00940712
2.28627e-05
-3.25378e-05
0.00936027
0.0103892
0.00738454
0.00578305
0.00497607
0.00457002
0.00435738
0.00423195
0.00414102
0.00406262
0.00399149
0.00392749
0.0038713
0.00382142
0.00377773
0.00373792
0.00370356
0.00367257
0.00364622
0.0036687
0.00363573
0.0034883
9.22477e-05
0.00341976
6.67879e-05
0.00334494
7.30651e-05
0.00330762
3.58403e-05
0.0032884
1.81494e-05
0.00327531
1.23603e-05
0.00326605
8.56081e-06
0.00325884
6.19309e-06
0.00325212
5.12068e-06
0.00324518
4.77586e-06
0.00323792
4.80008e-06
0.00323045
5.01195e-06
0.00322302
5.24286e-06
0.00321586
5.3444e-06
0.00320923
5.27516e-06
0.00320336
5.13753e-06
0.00319846
5.12258e-06
0.00319471
5.40113e-06
0.0031922
6.03721e-06
0.00319093
6.97989e-06
0.00319082
8.12833e-06
0.00319173
9.41446e-06
0.00319345
1.08434e-05
0.00319578
1.24706e-05
0.00319847
1.43411e-05
0.00320133
1.64389e-05
0.00320418
1.86778e-05
0.00320686
2.09336e-05
0.00320931
2.30917e-05
0.0032115
2.50824e-05
0.0032135
2.68871e-05
0.00321546
2.85238e-05
0.0032176
3.0023e-05
0.00322011
3.14095e-05
0.00322314
3.26921e-05
0.00322675
3.38645e-05
0.0032309
3.49102e-05
0.00323554
3.58112e-05
0.00324066
3.65551e-05
0.00324625
3.71401e-05
0.00325235
3.75751e-05
0.00325902
3.78788e-05
0.00326625
3.80774e-05
0.003274
3.8203e-05
0.00328208
3.82902e-05
0.00329027
3.83707e-05
0.00329828
3.84666e-05
0.00330586
3.85865e-05
0.00331283
3.87249e-05
0.00331915
3.88667e-05
0.00332488
3.89927e-05
0.00333017
3.90853e-05
0.00333526
3.91329e-05
0.00334044
3.91332e-05
0.00334593
3.90961e-05
0.0033519
3.90405e-05
0.00335835
3.89869e-05
0.00336518
3.89475e-05
0.00337224
3.89216e-05
0.00337936
3.88986e-05
0.0033864
3.88672e-05
0.00339322
3.88222e-05
0.0033997
3.87668e-05
0.00340571
3.8709e-05
0.00341123
3.86574e-05
0.00341636
3.86172e-05
0.00342135
3.85909e-05
0.00342653
3.85782e-05
0.00343225
3.85796e-05
0.00343874
3.85934e-05
0.00344609
3.86194e-05
0.00345418
3.8649e-05
0.00346277
3.86791e-05
0.00347153
3.8696e-05
0.00348008
3.87132e-05
0.00348808
3.87164e-05
0.00349525
3.87431e-05
0.00350156
3.87371e-05
0.00350717
3.87705e-05
0.00351256
3.86965e-05
0.00351807
3.87157e-05
0.00352436
3.84863e-05
0.00353133
3.85498e-05
0.00353945
3.80784e-05
0.00354752
3.84433e-05
0.00355627
3.75589e-05
0.00356314
3.87692e-05
0.00357092
3.68665e-05
0.00357471
3.98881e-05
3.72155e-05
0.00896899
0.000384689
0.00879785
0.000236107
0.00865672
0.000212257
0.00857446
0.000116194
0.00852815
6.27133e-05
0.00849832
4.07036e-05
0.00847712
2.84088e-05
0.00846023
2.15599e-05
0.00844485
1.84283e-05
0.00842964
1.72178e-05
0.00841427
1.68173e-05
0.00839899
1.67214e-05
0.00838419
1.6636e-05
0.00837024
1.63504e-05
0.00835733
1.58071e-05
0.00834559
1.51536e-05
0.00833513
1.46778e-05
0.00832612
1.46566e-05
0.00831877
1.52214e-05
0.00831328
1.63273e-05
0.00830967
1.78346e-05
0.00830785
1.96308e-05
0.0083076
2.17028e-05
0.00830865
2.41165e-05
0.0083108
2.69344e-05
0.00831392
3.01358e-05
0.00831792
3.35955e-05
0.00832274
3.71244e-05
0.00832832
4.05404e-05
0.00833459
4.37226e-05
0.00834151
4.66272e-05
0.00834915
4.92685e-05
0.0083576
5.16861e-05
0.00836702
5.39167e-05
0.0083775
5.59773e-05
0.00838908
5.78615e-05
0.0084017
5.95452e-05
0.00841527
6.0997e-05
0.00842971
6.21923e-05
0.00844499
6.31222e-05
0.00846108
6.37977e-05
0.00847798
6.42485e-05
0.00849564
6.45193e-05
0.00851395
6.46655e-05
0.00853272
6.47463e-05
0.00855167
6.48152e-05
0.00857051
6.49096e-05
0.00858899
6.5044e-05
0.00860693
6.52107e-05
0.00862429
6.53868e-05
0.00864112
6.55432e-05
0.00865756
6.56522e-05
0.00867385
6.56932e-05
0.00869024
6.56595e-05
0.00870697
6.55636e-05
0.00872418
6.5436e-05
0.0087419
6.5314e-05
0.00876
6.52248e-05
0.00877832
6.51752e-05
0.00879668
6.51539e-05
0.00881489
6.51437e-05
0.00883278
6.51321e-05
0.0088502
6.51146e-05
0.00886703
6.50896e-05
0.00888325
6.50537e-05
0.008899
6.49997e-05
0.00891457
6.49203e-05
0.00893037
6.48125e-05
0.0089468
6.46849e-05
0.00896416
6.45533e-05
0.00898254
6.4441e-05
0.00900181
6.43595e-05
0.00902171
6.43209e-05
0.00904184
6.4314e-05
0.00906177
6.43552e-05
0.0090811
6.44155e-05
0.00909953
6.45301e-05
0.00911701
6.45987e-05
0.00913374
6.47062e-05
0.00915016
6.46291e-05
0.00916672
6.46654e-05
0.00918396
6.43117e-05
0.00920193
6.44096e-05
0.00922082
6.36844e-05
0.00923978
6.43094e-05
0.00925901
6.29177e-05
0.00927668
6.49758e-05
0.00929456
6.18066e-05
0.00930941
6.6845e-05
6.2146e-05
0.0133544
0.000853449
0.0131148
0.000474316
0.012957
0.000368474
0.0128617
0.000209657
0.0128059
0.000116394
0.0127699
7.46611e-05
0.0127434
5.32395e-05
0.0127211
4.22729e-05
0.0127003
3.73444e-05
0.0126797
3.52833e-05
0.0126588
3.42663e-05
0.012638
3.35224e-05
0.0126179
3.27361e-05
0.0125991
3.17389e-05
0.0125818
3.04935e-05
0.012566
2.91432e-05
0.0125517
2.79798e-05
0.0125388
2.73157e-05
0.0125276
2.7342e-05
0.0125184
2.80674e-05
0.0125115
2.93708e-05
0.0125069
3.11178e-05
0.0125044
3.32525e-05
0.0125036
3.58044e-05
0.0125044
3.88216e-05
0.0125066
4.2288e-05
0.0125102
4.60857e-05
0.0125153
5.00232e-05
0.0125221
5.38995e-05
0.0125303
5.75633e-05
0.0125401
6.09391e-05
0.0125513
6.40161e-05
0.0125639
6.68212e-05
0.012578
6.93906e-05
0.0125936
7.17488e-05
0.0126109
7.38984e-05
0.0126297
7.58198e-05
0.01265
7.74803e-05
0.0126716
7.88492e-05
0.0126945
7.99113e-05
0.0127186
8.06746e-05
0.0127439
8.11712e-05
0.0127701
8.14534e-05
0.0127971
8.1588e-05
0.0128248
8.16471e-05
0.0128527
8.16955e-05
0.0128805
8.17776e-05
0.012908
8.19093e-05
0.0129349
8.20799e-05
0.0129613
8.22612e-05
0.0129872
8.24184e-05
0.0130127
8.25182e-05
0.0130381
8.25353e-05
0.0130635
8.24597e-05
0.0130893
8.2305e-05
0.0131156
8.21088e-05
0.0131423
8.19193e-05
0.0131694
8.17746e-05
0.0131968
8.1688e-05
0.0132241
8.16498e-05
0.0132514
8.16418e-05
0.0132783
8.16492e-05
0.0133047
8.16637e-05
0.0133306
8.16765e-05
0.0133558
8.16732e-05
0.0133805
8.16327e-05
0.0134049
8.15346e-05
0.0134296
8.13693e-05
0.0134549
8.11471e-05
0.0134811
8.08971e-05
0.0135083
8.06606e-05
0.0135364
8.04705e-05
0.0135652
8.03511e-05
0.0135941
8.03034e-05
0.0136229
8.03393e-05
0.0136511
8.04357e-05
0.0136783
8.0601e-05
0.0137046
8.07374e-05
0.0137302
8.0877e-05
0.0137553
8.08274e-05
0.0137807
8.08185e-05
0.0138067
8.04407e-05
0.0138335
8.0439e-05
0.013861
7.96986e-05
0.0138889
8.02574e-05
0.0139166
7.89067e-05
0.0139435
8.09999e-05
0.0139692
7.79113e-05
0.0139939
8.29856e-05
7.81067e-05
0.0169542
0.00120465
0.0167206
0.000706865
0.0166016
0.000486687
0.0165371
0.000272868
0.0164981
0.000153363
0.0164704
9.9944e-05
0.0164471
7.44866e-05
0.0164253
6.26228e-05
0.0164038
5.75855e-05
0.0163819
5.5366e-05
0.0163593
5.39107e-05
0.0163364
5.24483e-05
0.0163141
5.07933e-05
0.0162931
4.89325e-05
0.0162741
4.69178e-05
0.016257
4.48859e-05
0.0162414
4.30671e-05
0.0162269
4.17269e-05
0.0162137
4.10668e-05
0.0162023
4.11561e-05
0.0161932
4.19366e-05
0.0161866
4.32931e-05
0.0161825
4.51327e-05
0.0161804
4.74194e-05
0.01618
5.01476e-05
0.0161809
5.32877e-05
0.0161835
5.67485e-05
0.0161879
6.03822e-05
0.0161945
6.40221e-05
0.0162034
6.7525e-05
0.0162146
7.07966e-05
0.0162279
7.37932e-05
0.0162431
7.65112e-05
0.0162604
7.89693e-05
0.0162796
8.11916e-05
0.0163009
8.3192e-05
0.0163242
8.49651e-05
0.0163494
8.6489e-05
0.0163765
8.77371e-05
0.0164054
8.86934e-05
0.0164359
8.93632e-05
0.016468
8.97762e-05
0.0165014
8.99849e-05
0.0165358
9.00578e-05
0.0165711
9.00694e-05
0.0166067
9.00855e-05
0.0166423
9.01489e-05
0.0166776
9.02717e-05
0.0167125
9.04376e-05
0.0167467
9.06135e-05
0.0167805
9.07613e-05
0.0168139
9.08456e-05
0.0168471
9.08391e-05
0.0168804
9.07302e-05
0.016914
9.05326e-05
0.0169481
9.02867e-05
0.0169827
9.00465e-05
0.0170176
8.98568e-05
0.0170528
8.97357e-05
0.0170879
8.96767e-05
0.017123
8.9663e-05
0.0171577
8.96811e-05
0.0171919
8.97215e-05
0.0172255
8.97712e-05
0.0172585
8.9806e-05
0.0172909
8.97923e-05
0.0173231
8.9696e-05
0.0173554
8.94986e-05
0.0173884
8.92087e-05
0.0174222
8.88653e-05
0.017457
8.85231e-05
0.0174927
8.82362e-05
0.0175291
8.80391e-05
0.0175656
8.79496e-05
0.017602
8.7972e-05
0.0176378
8.8098e-05
0.0176726
8.82989e-05
0.0177065
8.85003e-05
0.0177396
8.86547e-05
0.0177723
8.86476e-05
0.0178052
8.85702e-05
0.0178386
8.82184e-05
0.017873
8.80616e-05
0.0179079
8.74241e-05
0.0179435
8.7755e-05
0.0179784
8.6735e-05
0.0180131
8.83936e-05
0.0180458
8.61487e-05
0.0180786
9.01378e-05
8.62042e-05
0.0194877
0.000961684
0.0194874
0.000706202
0.0194981
0.000475894
0.0195134
0.000257094
0.0195144
0.000150563
0.019505
0.000106551
0.0194901
8.68084e-05
0.0194728
7.81393e-05
0.0194551
7.43507e-05
0.0194373
7.2214e-05
0.0194187
7.02771e-05
0.0193994
6.80703e-05
0.01938
6.5582e-05
0.0193618
6.29507e-05
0.0193456
6.03346e-05
0.0193316
5.78832e-05
0.019319
5.57451e-05
0.0193071
5.407e-05
0.0192957
5.2987e-05
0.0192852
5.25736e-05
0.0192766
5.28384e-05
0.0192706
5.37295e-05
0.0192671
5.51638e-05
0.0192657
5.70537e-05
0.0192656
5.93183e-05
0.0192666
6.18779e-05
0.0192688
6.46461e-05
0.0192728
6.7529e-05
0.0192791
7.04313e-05
0.0192881
7.32644e-05
0.0193
7.59529e-05
0.0193146
7.84367e-05
0.0193316
8.06792e-05
0.019351
8.26681e-05
0.0193726
8.44125e-05
0.0193965
8.59295e-05
0.0194227
8.72293e-05
0.0194513
8.83092e-05
0.0194821
8.91584e-05
0.0195152
8.977e-05
0.0195505
9.01522e-05
0.0195877
9.03336e-05
0.0196266
9.0363e-05
0.019667
9.03043e-05
0.0197083
9.02256e-05
0.0197502
9.0185e-05
0.0197922
9.02158e-05
0.0198339
9.03202e-05
0.0198752
9.04736e-05
0.0199159
9.06371e-05
0.0199562
9.07706e-05
0.019996
9.08387e-05
0.0200357
9.08147e-05
0.0200756
9.06869e-05
0.0201157
9.04679e-05
0.0201562
9.01978e-05
0.0201973
8.99317e-05
0.0202386
8.97165e-05
0.0202802
8.95736e-05
0.0203218
8.94998e-05
0.0203632
8.94824e-05
0.0204043
8.95111e-05
0.020445
8.9578e-05
0.020485
8.96674e-05
0.0205243
8.97482e-05
0.0205631
8.97757e-05
0.0206016
8.97032e-05
0.0206403
8.95027e-05
0.0206795
8.91779e-05
0.0207195
8.87728e-05
0.0207606
8.83522e-05
0.0208026
8.79876e-05
0.0208452
8.77241e-05
0.020888
8.75958e-05
0.0209306
8.76038e-05
0.0209726
8.77517e-05
0.0210137
8.7983e-05
0.0210537
8.82401e-05
0.021093
8.84115e-05
0.0211318
8.84455e-05
0.0211709
8.83162e-05
0.0212105
8.80013e-05
0.021251
8.77097e-05
0.0212921
8.72067e-05
0.0213338
8.72848e-05
0.0213748
8.6698e-05
0.0214157
8.77498e-05
0.0214543
8.65973e-05
0.0214934
8.91018e-05
8.66979e-05
0.0205923
9.66298e-05
0.0210956
0.000201856
0.0213939
0.000178033
0.0215198
0.000131423
0.0215437
0.000125155
0.0215295
0.000117583
0.0215065
0.000106468
0.0214853
9.71116e-05
0.0214687
8.99555e-05
0.021456
8.43221e-05
0.0214448
7.96691e-05
0.0214336
7.55939e-05
0.0214223
7.18753e-05
0.0214119
6.84786e-05
0.0214036
6.54828e-05
0.0213973
6.29773e-05
0.0213924
6.09951e-05
0.0213875
5.95142e-05
0.0213823
5.85037e-05
0.0213771
5.79672e-05
0.0213732
5.79445e-05
0.0213715
5.8474e-05
0.0213722
5.95434e-05
0.0213748
6.10665e-05
0.0213784
6.29002e-05
0.0213824
6.489e-05
0.0213868
6.69154e-05
0.0213924
6.89112e-05
0.0214001
7.08579e-05
0.0214106
7.27511e-05
0.021424
7.45731e-05
0.0214402
7.62802e-05
0.0214591
7.78166e-05
0.0214804
7.91375e-05
0.0215039
8.02249e-05
0.0215297
8.10865e-05
0.0215578
8.17413e-05
0.0215884
8.22063e-05
0.0216216
8.24926e-05
0.0216572
8.2611e-05
0.0216954
8.25798e-05
0.0217358
8.24301e-05
0.0217782
8.22072e-05
0.0218223
8.19666e-05
0.0218675
8.17649e-05
0.0219135
8.16464e-05
0.0219597
8.16301e-05
0.0220057
8.17052e-05
0.0220512
8.18373e-05
0.0220962
8.1982e-05
0.0221408
8.2098e-05
0.0221849
8.21518e-05
0.0222289
8.21191e-05
0.0222731
8.1989e-05
0.0223175
8.17728e-05
0.0223623
8.1507e-05
0.0224076
8.12434e-05
0.0224533
8.10273e-05
0.0224991
8.08814e-05
0.0225449
8.08062e-05
0.0225906
8.07941e-05
0.022636
8.08397e-05
0.0226809
8.09377e-05
0.0227251
8.10719e-05
0.0227687
8.12062e-05
0.0228117
8.1288e-05
0.0228544
8.12607e-05
0.0228972
8.10871e-05
0.0229406
8.07654e-05
0.0229848
8.03391e-05
0.02303
7.98795e-05
0.0230761
7.94679e-05
0.0231228
7.91627e-05
0.0231698
7.90063e-05
0.0232165
7.90083e-05
0.0232627
7.91698e-05
0.0233078
7.94336e-05
0.023352
7.97283e-05
0.0233953
7.99344e-05
0.0234383
7.99954e-05
0.0234814
7.98629e-05
0.023525
7.95775e-05
0.0235696
7.92188e-05
0.0236147
7.88535e-05
0.0236605
7.87122e-05
0.0237055
7.85902e-05
0.0237504
7.90193e-05
0.0237931
7.89083e-05
0.0238362
7.9942e-05
7.93128e-05
0.0206041
-0.000778388
0.021119
-0.000314086
0.021439
-0.000141508
0.02158
-9.3941e-06
0.0216171
8.64339e-05
0.0216158
0.000115591
0.0216053
0.000113442
0.0215963
0.000103703
0.0215918
9.34855e-05
0.0215906
8.47136e-05
0.0215905
7.77566e-05
0.0215899
7.22653e-05
0.0215886
6.77851e-05
0.0215879
6.40807e-05
0.0215887
6.11284e-05
0.0215914
5.89445e-05
0.0215949
5.7443e-05
0.0215982
5.64304e-05
0.0216007
5.57145e-05
0.021603
5.52209e-05
0.0216065
5.50193e-05
0.0216119
5.52425e-05
0.0216196
5.59633e-05
0.0216288
5.71182e-05
0.0216385
5.85237e-05
0.0216481
5.99643e-05
0.0216577
6.12869e-05
0.021668
6.24457e-05
0.0216798
6.34838e-05
0.021694
6.44721e-05
0.0217107
6.54495e-05
0.0217298
6.63947e-05
0.0217512
6.72435e-05
0.0217745
6.79268e-05
0.0217998
6.84036e-05
0.021827
6.86708e-05
0.0218563
6.87513e-05
0.0218879
6.8677e-05
0.0219218
6.84771e-05
0.0219581
6.8177e-05
0.0219968
6.78029e-05
0.0220376
6.73867e-05
0.0220805
6.69679e-05
0.0221249
6.65916e-05
0.0221705
6.63008e-05
0.0222168
6.61254e-05
0.0222633
6.6071e-05
0.0223096
6.61168e-05
0.0223554
6.62225e-05
0.0224008
6.63422e-05
0.0224456
6.64366e-05
0.0224901
6.64762e-05
0.0225344
6.64407e-05
0.0225788
6.63212e-05
0.0226235
6.61266e-05
0.0226686
6.58879e-05
0.0227142
6.565e-05
0.0227602
6.54537e-05
0.0228063
6.53212e-05
0.0228524
6.52565e-05
0.0228984
6.52576e-05
0.0229441
6.5324e-05
0.0229892
6.54533e-05
0.0230338
6.56292e-05
0.0230776
6.58136e-05
0.0231209
6.59494e-05
0.0231639
6.59747e-05
0.023207
6.5846e-05
0.0232507
6.55565e-05
0.0232952
6.51461e-05
0.0233407
6.46874e-05
0.023387
6.42651e-05
0.023434
6.39464e-05
0.0234813
6.37791e-05
0.0235283
6.37807e-05
0.0235747
6.39504e-05
0.0236202
6.42335e-05
0.0236646
6.45527e-05
0.0237082
6.47852e-05
0.0237515
6.48805e-05
0.0237948
6.47595e-05
0.0238388
6.45408e-05
0.0238836
6.41392e-05
0.023929
6.39659e-05
0.0239751
6.35947e-05
0.0240203
6.40021e-05
0.0240656
6.37101e-05
0.0241084
6.47792e-05
0.0241519
6.40676e-05
6.55003e-05
0.0195256
-0.00104416
0.019563
-0.00035237
0.0196247
-0.000203204
0.0196836
-6.90205e-05
0.0197296
3.84366e-05
0.0197635
7.85182e-05
0.0197887
8.53023e-05
0.0198089
8.16637e-05
0.0198264
7.49725e-05
0.0198416
6.8172e-05
0.0198543
6.2429e-05
0.0198644
5.77981e-05
0.019873
5.40185e-05
0.0198813
5.0973e-05
0.0198906
4.87029e-05
0.0199008
4.72189e-05
0.0199113
4.63646e-05
0.0199214
4.58535e-05
0.019931
4.54328e-05
0.0199408
4.50294e-05
0.0199517
4.47641e-05
0.0199645
4.48305e-05
0.0199789
4.53344e-05
0.0199943
4.62077e-05
0.0200098
4.72435e-05
0.0200249
4.82119e-05
0.0200399
4.8971e-05
0.0200552
4.95106e-05
0.0200717
4.99185e-05
0.0200897
5.03028e-05
0.0201095
5.0722e-05
0.0201309
5.11584e-05
0.0201538
5.15414e-05
0.0201782
5.17927e-05
0.0202039
5.18659e-05
0.0202312
5.17586e-05
0.0202602
5.14998e-05
0.020291
5.11301e-05
0.0203238
5.06862e-05
0.0203584
5.01973e-05
0.020395
4.9688e-05
0.0204334
4.91843e-05
0.0204734
4.87164e-05
0.0205147
4.83178e-05
0.020557
4.8019e-05
0.0205997
4.78384e-05
0.0206426
4.77737e-05
0.0206853
4.78006e-05
0.0207275
4.78799e-05
0.0207691
4.79704e-05
0.0208102
4.80391e-05
0.0208509
4.80627e-05
0.0208914
4.80264e-05
0.0209321
4.79233e-05
0.020973
4.776e-05
0.0210145
4.75603e-05
0.0210563
4.73604e-05
0.0210985
4.71948e-05
0.021141
4.70842e-05
0.0211834
4.7036e-05
0.0212257
4.70528e-05
0.0212676
4.71381e-05
0.0213091
4.7291e-05
0.0213499
4.74956e-05
0.0213901
4.77131e-05
0.0214297
4.78863e-05
0.021469
4.79526e-05
0.0215085
4.78669e-05
0.0215485
4.76193e-05
0.0215894
4.72454e-05
0.0216312
4.68134e-05
0.021674
4.64078e-05
0.0217174
4.60957e-05
0.021761
4.59314e-05
0.0218045
4.59295e-05
0.0218473
4.60998e-05
0.0218891
4.63739e-05
0.02193
4.67039e-05
0.02197
4.69292e-05
0.0220097
4.70724e-05
0.0220495
4.6942e-05
0.0220899
4.68432e-05
0.0221312
4.63831e-05
0.0221731
4.64626e-05
0.0222156
4.58382e-05
0.0222573
4.67978e-05
0.022299
4.56984e-05
0.0223383
4.81056e-05
0.0223784
4.53546e-05
4.88808e-05
0.0170297
-0.00073528
0.0168656
-0.000189205
0.0168247
-0.000162941
0.0168256
-7.12511e-05
0.0168504
1.13698e-05
0.0168831
4.32866e-05
0.0169147
5.15764e-05
0.0169429
5.19776e-05
0.0169677
4.90304e-05
0.0169888
4.51516e-05
0.0170065
4.15744e-05
0.0170213
3.8551e-05
0.0170345
3.60278e-05
0.0170474
3.40315e-05
0.0170606
3.26547e-05
0.0170743
3.18944e-05
0.017088
3.15709e-05
0.0171015
3.14049e-05
0.0171149
3.11848e-05
0.017129
3.0887e-05
0.0171444
3.06585e-05
0.0171612
3.06859e-05
0.0171792
3.10515e-05
0.0171977
3.16753e-05
0.0172161
3.23684e-05
0.0172341
3.29432e-05
0.017252
3.33058e-05
0.0172701
3.34791e-05
0.0172888
3.35605e-05
0.0173084
3.36493e-05
0.017329
3.37907e-05
0.0173504
3.39609e-05
0.0173727
3.40933e-05
0.0173958
3.41211e-05
0.01742
3.401e-05
0.0174454
3.37655e-05
0.0174721
3.34196e-05
0.0175001
3.30104e-05
0.0175295
3.25692e-05
0.0175603
3.21169e-05
0.0175926
3.16689e-05
0.0176261
3.1241e-05
0.0176609
3.08528e-05
0.0176967
3.05272e-05
0.0177332
3.02852e-05
0.0177701
3.01383e-05
0.0178069
3.00818e-05
0.0178435
3.00943e-05
0.0178795
3.01443e-05
0.017915
3.02002e-05
0.0179499
3.02383e-05
0.0179844
3.02432e-05
0.0180188
3.02054e-05
0.0180533
3.01198e-05
0.0180881
2.99903e-05
0.0181234
2.98333e-05
0.0181591
2.96757e-05
0.0181952
2.9545e-05
0.0182315
2.94603e-05
0.0182678
2.94317e-05
0.018304
2.94652e-05
0.0183398
2.95662e-05
0.0183752
2.97332e-05
0.01841
2.99497e-05
0.018444
3.0178e-05
0.0184776
3.03641e-05
0.0185109
3.04495e-05
0.0185444
3.03928e-05
0.0185784
3.01833e-05
0.0186133
2.98532e-05
0.0186492
2.94627e-05
0.0186861
2.90918e-05
0.0187235
2.88013e-05
0.0187612
2.86491e-05
0.0187987
2.86412e-05
0.0188355
2.88004e-05
0.0188715
2.90419e-05
0.0189064
2.93589e-05
0.0189406
2.95515e-05
0.0189744
2.97324e-05
0.0190083
2.95889e-05
0.0190429
2.96191e-05
0.0190783
2.91235e-05
0.0191143
2.94425e-05
0.019151
2.8625e-05
0.0191869
3.0006e-05
0.0192227
2.82723e-05
0.0192564
3.16954e-05
0.0192904
2.73143e-05
3.22777e-05
0.0134726
-0.000318702
0.013336
-5.37052e-05
0.013273
-0.000101118
0.0132464
-4.62983e-05
0.013254
1.68141e-06
0.0132766
1.87975e-05
0.0133023
2.42916e-05
0.0133273
2.5833e-05
0.0133498
2.50494e-05
0.0133693
2.33737e-05
0.0133857
2.16631e-05
0.0133999
2.01403e-05
0.0134129
1.88403e-05
0.0134255
1.78362e-05
0.0134383
1.72052e-05
0.0134514
1.69303e-05
0.0134645
1.68728e-05
0.0134779
1.68465e-05
0.0134918
1.6732e-05
0.0135066
1.65423e-05
0.0135226
1.63927e-05
0.0135397
1.64054e-05
0.0135577
1.6621e-05
0.013576
1.69747e-05
0.0135941
1.73424e-05
0.0136121
1.76138e-05
0.0136298
1.77458e-05
0.0136475
1.77679e-05
0.0136654
1.77484e-05
0.0136835
1.77484e-05
0.013702
1.77891e-05
0.0137207
1.7848e-05
0.0137398
1.78797e-05
0.0137594
1.78442e-05
0.0137798
1.7726e-05
0.013801
1.75357e-05
0.0138231
1.72981e-05
0.013846
1.70371e-05
0.01387
1.67682e-05
0.0138948
1.64979e-05
0.0139206
1.62298e-05
0.0139474
1.59698e-05
0.013975
1.57289e-05
0.0140034
1.55221e-05
0.0140323
1.53638e-05
0.0140615
1.52619e-05
0.0140906
1.52136e-05
0.0141193
1.5205e-05
0.0141475
1.52163e-05
0.0141752
1.52285e-05
0.0142022
1.52288e-05
0.014229
1.52098e-05
0.0142555
1.51665e-05
0.0142821
1.50955e-05
0.0143091
1.49973e-05
0.0143366
1.48813e-05
0.0143645
1.47654e-05
0.0143928
1.46705e-05
0.0144214
1.4614e-05
0.0144499
1.46076e-05
0.0144783
1.4659e-05
0.0145064
1.47725e-05
0.014534
1.4944e-05
0.014561
1.51549e-05
0.0145874
1.53694e-05
0.0146132
1.554e-05
0.0146389
1.56173e-05
0.0146647
1.55682e-05
0.0146911
1.53852e-05
0.0147185
1.50975e-05
0.0147468
1.47561e-05
0.0147761
1.44317e-05
0.0148059
1.41752e-05
0.0148361
1.40412e-05
0.014866
1.40277e-05
0.0148953
1.41618e-05
0.0149237
1.43542e-05
0.0149511
1.46268e-05
0.0149777
1.47743e-05
0.015004
1.49605e-05
0.0150305
1.48274e-05
0.0150576
1.49475e-05
0.0150855
1.44997e-05
0.0151141
1.49502e-05
0.0151432
1.41292e-05
0.0151719
1.56013e-05
0.0151999
1.37269e-05
0.0152267
1.7282e-05
0.0152526
1.25016e-05
1.75581e-05
0.00910749
-6.73664e-05
0.00905679
-4.4281e-06
0.00899626
-4.21362e-05
0.00896456
-1.63233e-05
0.0089644
1.38888e-07
0.00897696
4.77079e-06
0.00899331
6.72251e-06
0.0090102
7.67271e-06
0.00902579
7.67149e-06
0.0090393
7.24996e-06
0.00905077
6.75826e-06
0.00906075
6.29211e-06
0.00906991
5.88136e-06
0.00907883
5.56596e-06
0.00908787
5.37591e-06
0.00909724
5.29976e-06
0.00910705
5.28309e-06
0.00911746
5.26012e-06
0.00912868
5.19462e-06
0.0091409
5.09914e-06
0.00915418
5.01976e-06
0.00916837
5.00069e-06
0.00918316
5.05476e-06
0.00919821
5.1581e-06
0.00921319
5.26789e-06
0.00922795
5.34787e-06
0.0092424
5.38515e-06
0.00925655
5.39091e-06
0.00927043
5.38828e-06
0.00928405
5.39651e-06
0.00929747
5.42066e-06
0.0093108
5.4511e-06
0.00932421
5.47205e-06
0.00933788
5.47209e-06
0.00935199
5.45017e-06
0.00936663
5.41396e-06
0.00938181
5.3728e-06
0.00939754
5.33122e-06
0.00941381
5.28685e-06
0.00943065
5.23353e-06
0.0094481
5.16629e-06
0.00946623
5.08511e-06
0.00948502
4.99565e-06
0.00950441
4.90709e-06
0.00952421
4.82861e-06
0.00954418
4.76584e-06
0.00956403
4.7188e-06
0.0095835
4.68251e-06
0.00960242
4.64996e-06
0.00962075
4.61565e-06
0.00963854
4.57737e-06
0.00965594
4.5348e-06
0.00967319
4.48673e-06
0.00969053
4.42998e-06
0.00970822
4.36204e-06
0.00972639
4.28541e-06
0.00974507
4.20994e-06
0.00976414
4.15078e-06
0.00978343
4.12388e-06
0.00980274
4.14218e-06
0.00982191
4.21343e-06
0.00984076
4.3385e-06
0.00985913
4.50806e-06
0.00987689
4.70052e-06
0.00989405
4.88249e-06
0.00991072
5.01498e-06
0.00992722
5.0618e-06
0.00994394
5.00158e-06
0.0099613
4.83367e-06
0.00997959
4.58446e-06
0.00999889
4.29634e-06
0.0100191
4.02559e-06
0.0100399
3.81397e-06
0.010061
3.70198e-06
0.0100818
3.68688e-06
0.0101021
3.78142e-06
0.0101214
3.91873e-06
0.0101398
4.10991e-06
0.0101575
4.21713e-06
0.0101748
4.35373e-06
0.0101923
4.2873e-06
0.0102104
4.40146e-06
0.0102293
4.16158e-06
0.0102491
4.51248e-06
0.0102689
4.05654e-06
0.0102891
5.03246e-06
0.0103076
3.90596e-06
0.0103264
6.09956e-06
0.0103422
3.11432e-06
6.12292e-06
0.00356653
0.00356019
0.00351621
0.00349817
0.00349676
0.00350008
0.00350528
0.00351112
0.00351643
0.0035207
0.00352395
0.00352643
0.00352845
0.00353034
0.00353243
0.00353497
0.00353817
0.0035422
0.00354711
0.00355293
0.00355955
0.00356683
0.00357455
0.00358244
0.00359025
0.00359776
0.00360477
0.00361119
0.00361696
0.0036221
0.00362671
0.00363097
0.00363511
0.00363936
0.00364387
0.00364873
0.00365393
0.00365945
0.0036653
0.00367151
0.00367816
0.0036853
0.00369298
0.00370115
0.00370964
0.00371824
0.00372664
0.00373462
0.00374199
0.0037487
0.00375482
0.0037605
0.00376599
0.00377156
0.00377746
0.00378384
0.0037907
0.00379795
0.00380542
0.00381295
0.00382039
0.00382761
0.00383447
0.00384085
0.00384674
0.00385223
0.00385757
0.00386311
0.00386919
0.00387607
0.00388382
0.00389232
0.00390133
0.00391051
0.00391948
0.0039279
0.00393548
0.00394219
0.00394819
0.00395396
0.00395986
0.00396654
0.00397389
0.0039824
0.00399084
0.00399999
0.00400718
0.00401538
0.00401944
)
;

boundaryField
{
    upperWall
    {
        type            calculated;
        value           uniform 0;
    }
    lowerWall
    {
        type            calculated;
        value           uniform 0;
    }
    heatedWall
    {
        type            calculated;
        value           uniform 0;
    }
    inlet
    {
        type            calculated;
        value           nonuniform List<scalar> 
12
(
-0.0138438
-0.0138436
-0.0138436
-0.0138435
-0.0138435
-0.0138435
-0.0138435
-0.0138435
-0.0138435
-0.0138436
-0.0138436
-0.0138438
)
;
    }
    outlet
    {
        type            calculated;
        value           nonuniform List<scalar> 
12
(
0.00358046
0.00932552
0.014018
0.0181096
0.0215301
0.0238766
0.0241925
0.0224156
0.0193222
0.0152776
0.0103591
0.00402571
)
;
    }
    frontAndBack
    {
        type            empty;
        value           nonuniform 0();
    }
}


// ************************************************************************* //
