/*--------------------------------*- C++ -*----------------------------------*\
  =========                 |
  \\      /  F ield         | OpenFOAM: The Open Source CFD Toolbox
   \\    /   O peration     | Website:  https://openfoam.org
    \\  /    A nd           | Version:  7
     \\/     M anipulation  |
\*---------------------------------------------------------------------------*/
FoamFile
{
    version     2.0;
    format      ascii;
    class       surfaceScalarField;
    location    "1.7";
    object      phi;
}
// * * * * * * * * * * * * * * * * * * * * * * * * * * * * * * * * * * * * * //

dimensions      [1 0 -1 0 0 0 0];

internalField   nonuniform List<scalar> 
3438
(
0.012798
0.00102921
0.0108035
0.00199071
0.00884006
0.00195974
0.00728841
0.00154792
0.00620607
0.00107861
0.00551198
0.000690354
0.00508037
0.00042786
0.00481263
0.000263974
0.00464174
0.000167105
0.00452397
0.000113965
0.00443502
8.51268e-05
0.00436184
6.93447e-05
0.00429763
6.035e-05
0.00423915
5.46017e-05
0.00418494
5.0331e-05
0.00413458
4.64703e-05
0.0040877
4.29856e-05
0.00404408
3.97406e-05
0.00400353
3.66865e-05
0.00396577
3.39045e-05
0.00393063
3.1293e-05
0.0038978
2.90076e-05
0.00386719
2.68066e-05
0.00383833
2.50651e-05
0.00381155
2.30176e-05
0.00378562
2.22027e-05
0.00376421
1.77077e-05
0.00374041
2.01412e-05
0.00376846
-3.16792e-05
2.81572e-05
0.00373673
0.014174
0.000682625
0.0145228
0.00163843
0.0145134
0.00196563
0.0142114
0.00184657
0.0137669
0.00151963
0.0132993
0.00115463
0.0128645
0.000859166
0.0124788
0.000646288
0.0121433
0.000499138
0.0118534
0.000400358
0.0116014
0.000333578
0.0113817
0.000285534
0.0111884
0.00025006
0.0110171
0.000222227
0.0108645
0.000199211
0.0107277
0.00017959
0.0106044
0.000162535
0.0104926
0.000147738
0.010391
0.000134608
0.0102978
0.000123336
0.0102124
0.000112986
0.0101331
0.000104593
0.0100603
9.59416e-05
0.00999115
9.05266e-05
0.00992906
8.15132e-05
0.00986679
8.09187e-05
0.00981694
6.40622e-05
0.009757
7.66453e-05
0.00970457
1.73686e-05
8.33472e-05
0.00964606
0.0140654
0.000445153
0.0145634
0.0011374
0.0151095
0.00141654
0.0155504
0.00140279
0.0158383
0.00122887
0.0159913
0.000998728
0.0160505
0.000797165
0.0160484
0.000645401
0.0160095
0.000535144
0.0159475
0.000459384
0.0158724
0.000405769
0.0157888
0.000366119
0.0157004
0.000335412
0.0156094
0.00031018
0.0155173
0.000288258
0.0154251
0.000268642
0.0153337
0.000250656
0.0152438
0.000234404
0.015156
0.000219134
0.0150703
0.000205682
0.0149877
0.000192298
0.0149073
0.000181691
0.0148309
0.000169053
0.0147558
0.000162338
0.0146864
0.000147654
0.0146162
0.00014798
0.0145541
0.000122951
0.0144888
0.000138883
0.0144209
8.22844e-05
0.000147459
0.0143538
0.0139998
0.000273923
0.0144112
0.000723729
0.0149171
0.000908514
0.0154133
0.000904408
0.015839
0.000801056
0.0161746
0.000660999
0.0164353
0.000534314
0.0166396
0.000438913
0.0168021
0.000370491
0.0169363
0.000322943
0.0170492
0.000290639
0.0171461
0.000267047
0.0172298
0.000249426
0.0173023
0.000235449
0.0173647
0.000223472
0.0174181
0.000212887
0.0174633
0.00020304
0.017501
0.000194287
0.0175319
0.00018567
0.0175565
0.000178493
0.0175758
0.000170421
0.0175897
0.000165124
0.0175996
0.000156579
0.017605
0.000154336
0.0176071
0.000142982
0.0176063
0.000146225
0.0176001
0.000126586
0.0175964
0.000140127
0.0175675
0.000108733
0.000151445
0.0175611
0.0139811
0.000122266
0.0143589
0.000344566
0.0148277
0.000438406
0.0152921
0.000438844
0.015702
0.000389885
0.0160408
0.000321003
0.0163159
0.000257925
0.0165428
0.000210772
0.0167352
0.000176873
0.0169036
0.000153286
0.0170559
0.000137
0.0171961
0.000125488
0.0173271
0.000117123
0.0174507
0.000110511
0.0175678
0.000104925
0.0176791
0.000100143
0.017785
9.57125e-05
0.0178858
9.1939e-05
0.0179817
8.81366e-05
0.0180732
8.52824e-05
0.0181602
8.17336e-05
0.0182436
8.00162e-05
0.0183223
7.61371e-05
0.0183987
7.62648e-05
0.0184691
7.08451e-05
0.0185396
7.40439e-05
0.0185998
6.47447e-05
0.0186654
7.29e-05
0.0187117
6.08456e-05
8.20391e-05
0.0187795
0.013968
-1.52966e-05
0.0143275
-1.52808e-05
0.0147809
-1.52932e-05
0.0152349
-1.5309e-05
0.0156399
-1.53419e-05
0.015976
-1.53565e-05
0.0162491
-1.53742e-05
0.016475
-1.54013e-05
0.0166671
-1.54196e-05
0.0168355
-1.54351e-05
0.0169877
-1.54504e-05
0.0171283
-1.54635e-05
0.0172606
-1.54761e-05
0.0173863
-1.54756e-05
0.0175063
-1.54751e-05
0.0176215
-1.54476e-05
0.0177322
-1.54303e-05
0.0178389
-1.53594e-05
0.0179418
-1.53245e-05
0.0180416
-1.51591e-05
0.0181377
-1.50909e-05
0.0182318
-1.47765e-05
0.018322
-1.47139e-05
0.0184115
-1.39945e-05
0.0184957
-1.39966e-05
0.0185815
-1.24461e-05
0.0186583
-1.27132e-05
0.01874
-9.46014e-06
0.018811
-1.07858e-05
-4.72025e-06
0.0188971
0.013968
-0.000151816
0.0143275
-0.000374089
0.0147809
-0.000467949
0.0152349
-0.000468419
0.0156399
-0.000419521
0.015976
-0.000350674
0.0162491
-0.000287641
0.016475
-0.000240526
0.0166671
-0.000206663
0.0168355
-0.000183104
0.0169877
-0.000166848
0.0171283
-0.000155362
0.0172606
-0.000147021
0.0173863
-0.000140409
0.0175063
-0.000134819
0.0176215
-0.000129987
0.0177322
-0.000125517
0.0178389
-0.000121609
0.0179418
-0.000117729
0.0180416
-0.000114568
0.0181378
-0.000110892
0.0182319
-0.000108535
0.018322
-0.000104523
0.0184116
-0.000103244
0.0184958
-9.78176e-05
0.0185817
-9.79642e-05
0.0186585
-8.91989e-05
0.0187402
-9.08042e-05
0.0188112
-8.14128e-05
-9.01688e-05
0.018897
0.0139811
-0.000300415
0.0143589
-0.0007502
0.0148277
-0.000935
0.0152921
-0.000930929
0.015702
-0.000827614
0.0160408
-0.000687603
0.0163159
-0.00056095
0.0165428
-0.000465587
0.0167352
-0.000397195
0.0169035
-0.000349678
0.0170559
-0.000317399
0.0171961
-0.000293832
0.0173271
-0.000276228
0.0174507
-0.000262253
0.0175679
-0.000250267
0.0176792
-0.000239638
0.017785
-0.000229749
0.0178858
-0.000220874
0.0179818
-0.000212175
0.0180733
-0.000204719
0.0181604
-0.000196524
0.0182438
-0.000190635
0.0183226
-0.00018196
0.0183991
-0.000178418
0.0184697
-0.000167065
0.0185406
-0.000167443
0.0186011
-0.000148384
0.0186672
-0.000155554
0.0187139
-0.000126816
-0.000155868
0.0187809
0.0139998
-0.000466778
0.0144112
-0.00115902
0.0149171
-0.00143817
0.0154133
-0.00142444
0.015839
-0.00125055
0.0161746
-0.00102045
0.0164353
-0.000818904
0.0166396
-0.000667175
0.0168021
-0.000556943
0.0169363
-0.000481211
0.0170492
-0.000427617
0.0171461
-0.000387985
0.0172298
-0.000357293
0.0173023
-0.000332058
0.0173648
-0.000310133
0.0174182
-0.000290472
0.0174634
-0.000272462
0.0175011
-0.00025609
0.0175321
-0.000240773
0.0175568
-0.000227051
0.0175762
-0.000213612
0.0175903
-0.000202447
0.0176004
-0.000189814
0.0176061
-0.000181865
0.0176087
-0.000167439
0.0176085
-0.000165018
0.0176035
-0.000141076
0.0176009
-0.000150656
0.0175738
-9.74768e-05
-0.000146197
0.0175663
0.0140654
-0.000697912
0.0145634
-0.00165371
0.0151095
-0.00198092
0.0155504
-0.00186187
0.0158383
-0.00153496
0.0159913
-0.00116998
0.0160505
-0.000874534
0.0160484
-0.00066168
0.0160095
-0.000514552
0.0159475
-0.00041579
0.0158724
-0.000349027
0.0157888
-0.000300994
0.0157005
-0.000265533
0.0156095
-0.000237695
0.0155174
-0.00021468
0.0154252
-0.000195023
0.0153339
-0.00017796
0.015244
-0.000163069
0.0151563
-0.000149925
0.0150708
-0.000138437
0.0149883
-0.000128094
0.0149082
-0.000119255
0.0148322
-0.000110718
0.0147577
-0.000104306
0.0146891
-9.5745e-05
0.01462
-9.28875e-05
0.0145595
-7.7507e-05
0.0144965
-8.45256e-05
0.0144311
-2.90278e-05
-7.75929e-05
0.0143656
0.014174
-0.00103712
0.0145228
-0.00199864
0.0145134
-0.00196765
0.0142114
-0.00155584
0.0137669
-0.00108654
0.0132992
-0.000698299
0.0128645
-0.000435814
0.0124788
-0.000271943
0.0121433
-0.000175084
0.0118534
-0.000121953
0.0116014
-9.3122e-05
0.0113817
-7.73464e-05
0.0111884
-6.83575e-05
0.0110172
-6.26094e-05
0.0108646
-5.83395e-05
0.0107278
-5.44645e-05
0.0106046
-5.09741e-05
0.0104929
-4.76888e-05
0.0103913
-4.46244e-05
0.0102984
-4.1747e-05
0.0102131
-3.91327e-05
0.0101342
-3.66542e-05
0.0100617
-3.44925e-05
0.00999348
-3.2332e-05
0.00993192
-3.0453e-05
0.00987152
-2.87383e-05
0.00982252
-2.47586e-05
0.00976699
-2.52509e-05
0.00971727
2.44378e-05
-2.96602e-05
0.00967304
0.012798
0.0108035
0.00884005
0.0072884
0.00620605
0.00551196
0.00508036
0.00481262
0.00464173
0.00452396
0.00443502
0.00436185
0.00429765
0.0042392
0.004185
0.00413469
0.00408786
0.00404431
0.00400383
0.00396623
0.00393123
0.00389871
0.00386835
0.00384014
0.00381379
0.00378915
0.00376847
0.00374726
0.00377573
0.00375004
0.00361853
0.000105052
0.00357139
3.47146e-05
0.00350578
5.41267e-05
0.00346838
2.71535e-05
0.00343936
2.01016e-05
0.00341484
1.71185e-05
0.00339615
1.28203e-05
0.00338291
8.69873e-06
0.0033739
5.77409e-06
0.00336798
3.6436e-06
0.0033643
2.18847e-06
0.0033621
1.31203e-06
0.00336078
9.04223e-07
0.00335993
7.61822e-07
0.00335928
7.87788e-07
0.00335867
9.24009e-07
0.00335807
1.15466e-06
0.00335742
1.33047e-06
0.00335672
1.53298e-06
0.003356
1.74237e-06
0.00335523
1.93228e-06
0.00335442
2.18156e-06
0.00335357
2.43428e-06
0.00335269
2.67394e-06
0.0033518
2.92298e-06
0.00335089
3.16029e-06
0.00335001
3.37046e-06
0.00334917
3.52771e-06
0.00334836
3.60293e-06
0.00334761
3.58983e-06
0.00334688
3.49641e-06
0.00334619
3.37927e-06
0.00334552
3.23142e-06
0.00334487
3.09708e-06
0.00334424
2.99392e-06
0.00334365
2.94689e-06
0.00334309
2.90808e-06
0.00334259
2.88215e-06
0.00334217
2.79777e-06
0.0033418
2.60826e-06
0.00334149
2.33126e-06
0.00334122
1.92928e-06
0.00334099
1.43775e-06
0.00334077
8.79498e-07
0.00334056
2.91327e-07
0.00334038
-2.08731e-07
0.0033402
-6.65866e-07
0.00334008
-1.00182e-06
0.00334
-1.22911e-06
0.00333996
-1.37246e-06
0.00333997
-1.41585e-06
0.00334001
-1.42464e-06
0.00334007
-1.3737e-06
0.00334014
-1.22576e-06
0.00334022
-1.01427e-06
0.00334031
-7.19158e-07
0.00334041
-3.73252e-07
0.00334051
1.06219e-08
0.00334064
4.13638e-07
0.00334079
8.4834e-07
0.00334097
1.29996e-06
0.00334117
1.73361e-06
0.0033414
2.09796e-06
0.00334165
2.38361e-06
0.00334191
2.6027e-06
0.00334219
2.74732e-06
0.00334247
2.83008e-06
0.00334275
2.89098e-06
0.00334304
2.92589e-06
0.00334332
2.97485e-06
0.00334362
3.0641e-06
0.00334391
3.16026e-06
0.00334421
3.24612e-06
0.00334451
3.34156e-06
0.00334482
3.43022e-06
0.00334512
3.49691e-06
0.00334543
3.54042e-06
0.00334574
3.54153e-06
0.00334605
3.5126e-06
0.00334637
3.45776e-06
0.00334668
3.35219e-06
0.003347
3.2064e-06
0.00334731
3.0076e-06
0.00334762
2.76903e-06
0.00334792
2.54307e-06
0.00334823
2.34204e-06
0.00334853
2.16764e-06
0.00334883
2.05057e-06
0.00334914
1.98228e-06
0.00334944
1.9518e-06
0.00334975
1.9657e-06
0.00335007
2.00255e-06
0.00335038
2.03769e-06
0.0033507
2.08553e-06
0.00335101
2.14267e-06
0.00335133
2.18841e-06
0.00335165
2.23632e-06
0.00335196
2.30232e-06
0.00335228
2.35884e-06
0.00335261
2.41268e-06
0.00335293
2.44561e-06
0.00335327
2.43022e-06
0.0033536
2.35413e-06
0.00335394
2.21648e-06
0.00335427
2.00411e-06
0.0033546
1.72784e-06
0.00335493
1.40021e-06
0.00335525
1.03412e-06
0.00335557
7.05646e-07
0.00335589
4.17503e-07
0.0033562
1.9688e-07
0.00335652
3.34958e-08
0.00335683
-2.4217e-08
0.00335715
-3.95275e-08
0.00335745
9.8701e-08
0.0033578
2.34485e-07
0.00335806
6.05052e-07
0.00335846
8.67846e-07
0.00335867
1.54803e-06
1.88515e-06
0.00932816
0.000410839
0.00916772
0.000183768
0.00902994
0.000181362
0.00893714
0.000110458
0.00887256
7.63187e-05
0.0088232
5.94255e-05
0.00878672
4.3607e-05
0.00876148
2.95381e-05
0.00874498
1.91213e-05
0.0087348
1.16767e-05
0.00872905
6.63911e-06
0.00872613
3.54235e-06
0.00872484
1.92276e-06
0.00872437
1.21623e-06
0.00872418
1.07593e-06
0.00872401
1.26763e-06
0.00872379
1.70822e-06
0.00872347
2.08631e-06
0.00872311
2.53336e-06
0.00872271
3.01044e-06
0.00872228
3.46182e-06
0.00872179
4.01733e-06
0.00872123
4.56004e-06
0.00872057
5.04497e-06
0.00871983
5.52272e-06
0.00871904
5.94699e-06
0.00871825
6.30375e-06
0.00871753
6.55111e-06
0.00871691
6.66236e-06
0.00871642
6.61914e-06
0.00871603
6.43672e-06
0.00871572
6.22556e-06
0.00871546
5.95087e-06
0.00871519
5.68699e-06
0.00871492
5.46158e-06
0.00871466
5.32416e-06
0.00871443
5.1922e-06
0.00871428
5.08109e-06
0.00871426
4.8726e-06
0.00871438
4.48875e-06
0.00871462
3.93467e-06
0.00871497
3.1619e-06
0.00871537
2.22107e-06
0.00871579
1.13804e-06
0.0087162
-1.75763e-08
0.00871661
-9.99294e-07
0.00871702
-1.96652e-06
0.00871749
-2.6552e-06
0.00871804
-3.0907e-06
0.00871867
-3.40516e-06
0.00871943
-3.47278e-06
0.00872024
-3.47238e-06
0.00872111
-3.34824e-06
0.00872199
-3.05288e-06
0.00872285
-2.65296e-06
0.0087237
-2.07311e-06
0.00872452
-1.43122e-06
0.00872534
-7.35583e-07
0.00872617
6.10571e-08
0.00872703
8.78664e-07
0.00872794
1.73169e-06
0.0087289
2.55451e-06
0.0087299
3.24868e-06
0.00873095
3.794e-06
0.00873204
4.21388e-06
0.00873316
4.49279e-06
0.00873429
4.65413e-06
0.00873543
4.77467e-06
0.00873658
4.846e-06
0.00873773
4.94527e-06
0.00873888
5.12251e-06
0.00874004
5.31401e-06
0.00874118
5.48575e-06
0.00874233
5.67656e-06
0.00874347
5.85252e-06
0.00874461
5.9871e-06
0.00874575
6.07645e-06
0.00874688
6.08146e-06
0.008748
6.03087e-06
0.00874912
5.92952e-06
0.00875024
5.73036e-06
0.00875135
5.45087e-06
0.00875246
5.06995e-06
0.00875355
4.6122e-06
0.00875464
4.17941e-06
0.00875572
3.79502e-06
0.00875679
3.46187e-06
0.00875786
3.23969e-06
0.00875892
3.11219e-06
0.00875998
3.05765e-06
0.00876104
3.08955e-06
0.00876209
3.16634e-06
0.00876314
3.23972e-06
0.00876418
3.33706e-06
0.00876522
3.45121e-06
0.00876626
3.54226e-06
0.00876729
3.64262e-06
0.00876831
3.77571e-06
0.00876933
3.89062e-06
0.00877034
3.99846e-06
0.00877136
4.0686e-06
0.00877237
4.0442e-06
0.00877338
3.90163e-06
0.00877439
3.6402e-06
0.00877538
3.23233e-06
0.00877637
2.70152e-06
0.00877735
2.0734e-06
0.00877832
1.37022e-06
0.00877929
7.38339e-07
0.00878024
1.8511e-07
0.00878119
-2.39509e-07
0.00878213
-5.49076e-07
0.00878306
-6.56279e-07
0.008784
-6.72213e-07
0.00878492
-4.18868e-07
0.00878586
-1.31428e-07
0.00878675
5.61912e-07
0.00878771
1.11531e-06
0.00878855
2.38001e-06
3.07441e-06
0.0138676
0.000886817
0.0135699
0.000472054
0.0133781
0.000364472
0.0132531
0.000227591
0.0131728
0.000149516
0.0131176
0.00010852
0.0130798
7.63644e-05
0.013055
5.02421e-05
0.0130399
3.12756e-05
0.0130315
1.82246e-05
0.0130274
9.72242e-06
0.0130261
4.57241e-06
0.0130262
1.9377e-06
0.0130268
8.51266e-07
0.0130274
6.80754e-07
0.0130278
1.00161e-06
0.013028
1.67858e-06
0.0130279
2.28454e-06
0.0130278
2.98392e-06
0.0130277
3.74651e-06
0.0130277
4.49001e-06
0.0130277
5.36686e-06
0.0130277
6.20394e-06
0.0130275
6.92079e-06
0.0130272
7.59872e-06
0.0130268
8.15421e-06
0.0130263
8.59048e-06
0.0130258
8.86196e-06
0.0130254
8.96645e-06
0.0130252
8.88191e-06
0.0130252
8.62666e-06
0.0130254
8.36453e-06
0.0130258
8.01025e-06
0.0130261
7.65124e-06
0.0130264
7.31656e-06
0.0130266
7.07452e-06
0.0130267
6.81349e-06
0.0130269
6.57602e-06
0.0130273
6.22073e-06
0.0130278
5.65374e-06
0.0130285
4.85529e-06
0.0130295
3.77995e-06
0.0130305
2.47378e-06
0.0130317
9.53525e-07
0.0130328
-6.95037e-07
0.0130338
-2.16837e-06
0.0130348
-3.55988e-06
0.0130357
-4.57757e-06
0.0130368
-5.26844e-06
0.013038
-5.71372e-06
0.0130394
-5.81179e-06
0.0130409
-5.77778e-06
0.0130425
-5.56499e-06
0.0130442
-5.12428e-06
0.0130458
-4.54168e-06
0.0130474
-3.72819e-06
0.013049
-2.82449e-06
0.0130505
-1.86428e-06
0.0130519
-7.66277e-07
0.0130534
3.8188e-07
0.0130549
1.56166e-06
0.0130565
2.7054e-06
0.0130582
3.67583e-06
0.0130599
4.43996e-06
0.0130617
5.03146e-06
0.0130635
5.42765e-06
0.0130654
5.66017e-06
0.0130673
5.83675e-06
0.0130693
5.94485e-06
0.0130712
6.09327e-06
0.0130731
6.35191e-06
0.0130751
6.63213e-06
0.013077
6.88437e-06
0.0130789
7.16454e-06
0.0130808
7.42041e-06
0.0130827
7.61955e-06
0.0130846
7.75436e-06
0.0130865
7.76611e-06
0.0130883
7.70303e-06
0.0130902
7.56688e-06
0.013092
7.29271e-06
0.0130939
6.90138e-06
0.0130957
6.36908e-06
0.0130975
5.72705e-06
0.0130993
5.12124e-06
0.0131011
4.58423e-06
0.0131028
4.11985e-06
0.0131046
3.81189e-06
0.0131064
3.63851e-06
0.0131081
3.56807e-06
0.0131098
3.62139e-06
0.0131115
3.73929e-06
0.0131132
3.85161e-06
0.0131149
3.9962e-06
0.0131166
4.16365e-06
0.0131183
4.29992e-06
0.01312
4.45378e-06
0.0131216
4.65161e-06
0.0131233
4.82099e-06
0.0131249
4.97923e-06
0.0131265
5.08779e-06
0.0131281
5.062e-06
0.0131297
4.86758e-06
0.0131313
4.50537e-06
0.0131329
3.93223e-06
0.0131345
3.18663e-06
0.013136
2.30589e-06
0.0131376
1.32149e-06
0.0131391
4.32521e-07
0.0131406
-3.44675e-07
0.0131421
-9.38508e-07
0.0131436
-1.36749e-06
0.0131451
-1.50048e-06
0.0131465
-1.50095e-06
0.013148
-1.17938e-06
0.0131494
-7.21895e-07
0.0131509
2.0017e-07
0.0131523
1.08429e-06
0.0131537
2.7471e-06
3.85498e-06
0.0173767
0.00106309
0.0171122
0.000729637
0.016928
0.000542669
0.0168093
0.000340775
0.0167416
0.000212214
0.0167041
0.000141478
0.0166841
9.22742e-05
0.0166745
5.63699e-05
0.0166709
3.22048e-05
0.0166706
1.68145e-05
0.0166721
7.50412e-06
0.0166743
2.38312e-06
0.0166767
6.87846e-08
0.0166788
-5.23079e-07
0.0166803
-2.13592e-07
0.0166811
4.79741e-07
0.0166813
1.4681e-06
0.0166811
2.30383e-06
0.0166808
3.19858e-06
0.0166805
4.17281e-06
0.0166806
5.1464e-06
0.0166809
6.27589e-06
0.0166813
7.35041e-06
0.0166817
8.26361e-06
0.016682
9.10502e-06
0.016682
9.7484e-06
0.0166817
1.02101e-05
0.0166813
1.04515e-05
0.016681
1.0499e-05
0.0166809
1.03445e-05
0.0166811
1.002e-05
0.0166817
9.72112e-06
0.0166826
9.33281e-06
0.0166835
8.92824e-06
0.0166844
8.5269e-06
0.0166851
8.2003e-06
0.0166857
7.81881e-06
0.0166861
7.43792e-06
0.0166866
6.9267e-06
0.0166872
6.18061e-06
0.0166882
5.17806e-06
0.0166895
3.87216e-06
0.0166911
2.29925e-06
0.0166928
4.59443e-07
0.0166946
-1.55572e-06
0.0166962
-3.40124e-06
0.0166977
-5.16947e-06
0.0166991
-6.47379e-06
0.0167004
-7.37277e-06
0.0167019
-7.96282e-06
0.0167036
-8.10943e-06
0.0167055
-8.0523e-06
0.0167077
-7.75491e-06
0.0167101
-7.17725e-06
0.0167125
-6.42447e-06
0.0167148
-5.4227e-06
0.016717
-4.30711e-06
0.0167191
-3.13252e-06
0.0167211
-1.8239e-06
0.016723
-4.24665e-07
0.016725
9.88837e-07
0.016727
2.36163e-06
0.016729
3.53222e-06
0.0167312
4.4546e-06
0.0167335
5.17147e-06
0.0167359
5.65454e-06
0.0167384
5.94123e-06
0.0167409
6.16239e-06
0.0167434
6.30174e-06
0.016746
6.49182e-06
0.0167486
6.8177e-06
0.0167511
7.17177e-06
0.0167537
7.49168e-06
0.0167563
7.84654e-06
0.0167588
8.16854e-06
0.0167614
8.42254e-06
0.0167639
8.5979e-06
0.0167664
8.61936e-06
0.0167689
8.55103e-06
0.0167714
8.39261e-06
0.0167739
8.06602e-06
0.0167763
7.59106e-06
0.0167787
6.94787e-06
0.0167812
6.16881e-06
0.0167836
5.43374e-06
0.0167859
4.78444e-06
0.0167883
4.22484e-06
0.0167907
3.85411e-06
0.016793
3.6497e-06
0.0167953
3.57128e-06
0.0167976
3.64658e-06
0.0167999
3.80218e-06
0.0168022
3.94968e-06
0.0168044
4.13489e-06
0.0168067
4.34758e-06
0.0168089
4.53089e-06
0.0168111
4.73051e-06
0.0168133
4.98349e-06
0.0168155
5.19808e-06
0.0168177
5.40186e-06
0.0168198
5.54236e-06
0.0168219
5.52122e-06
0.0168241
5.29229e-06
0.0168262
4.85842e-06
0.0168282
4.16061e-06
0.0168303
3.25431e-06
0.0168324
2.18503e-06
0.0168344
9.93539e-07
0.0168364
-8.83127e-08
0.0168384
-1.03163e-06
0.0168404
-1.73605e-06
0.0168423
-2.27933e-06
0.0168443
-2.47854e-06
0.0168462
-2.44844e-06
0.0168482
-2.04323e-06
0.01685
-1.39534e-06
0.0168519
-3.47744e-07
0.0168538
8.49843e-07
0.0168557
2.73715e-06
4.25786e-06
0.0192219
0.000615255
0.0194153
0.000532113
0.0194952
0.000459752
0.0195101
0.000323281
0.019517
0.000202851
0.0195333
0.000122702
0.0195542
6.8681e-05
0.0195737
3.43169e-05
0.0195892
1.45354e-05
0.0196003
4.1047e-06
0.019608
-8.3422e-07
0.0196132
-2.58597e-06
0.0196167
-2.59213e-06
0.019619
-1.6404e-06
0.0196202
-3.94717e-07
0.0196205
7.7871e-07
0.01962
1.97892e-06
0.019619
2.86879e-06
0.0196178
3.74409e-06
0.0196169
4.69752e-06
0.0196165
5.67422e-06
0.0196167
6.85493e-06
0.0196174
8.00392e-06
0.0196184
9.01586e-06
0.0196193
9.94758e-06
0.0196199
1.06379e-05
0.01962
1.1102e-05
0.0196198
1.12905e-05
0.0196194
1.12578e-05
0.0196192
1.10167e-05
0.0196193
1.06129e-05
0.01962
1.02613e-05
0.0196213
9.85143e-06
0.0196228
9.43818e-06
0.0196243
9.0224e-06
0.0196257
8.66422e-06
0.0196266
8.21197e-06
0.0196273
7.72726e-06
0.0196277
7.0846e-06
0.0196283
6.18876e-06
0.0196291
5.01904e-06
0.0196305
3.54658e-06
0.0196323
1.79465e-06
0.0196345
-2.45574e-07
0.0196368
-2.47423e-06
0.0196391
-4.55044e-06
0.019641
-6.56559e-06
0.0196427
-8.06502e-06
0.0196441
-9.11539e-06
0.0196456
-9.83519e-06
0.0196473
-1.00397e-05
0.0196494
-9.98372e-06
0.0196519
-9.64174e-06
0.0196546
-8.97624e-06
0.0196576
-8.0986e-06
0.0196605
-6.95187e-06
0.0196633
-5.68828e-06
0.0196659
-4.36162e-06
0.0196683
-2.89201e-06
0.0196705
-1.36307e-06
0.0196727
1.91327e-07
0.0196749
1.68899e-06
0.0196771
2.96827e-06
0.0196795
3.97381e-06
0.019682
4.75518e-06
0.0196847
5.28175e-06
0.0196874
5.59474e-06
0.0196903
5.83938e-06
0.0196933
5.99672e-06
0.0196963
6.21318e-06
0.0196993
6.58397e-06
0.0197023
6.98771e-06
0.0197053
7.35432e-06
0.0197083
7.76003e-06
0.0197113
8.12804e-06
0.0197143
8.42063e-06
0.0197173
8.62625e-06
0.0197203
8.65879e-06
0.0197232
8.59e-06
0.0197262
8.42069e-06
0.0197291
8.06406e-06
0.019732
7.53953e-06
0.0197348
6.83018e-06
0.0197377
5.96875e-06
0.0197405
5.15633e-06
0.0197434
4.44027e-06
0.0197462
3.82437e-06
0.0197489
3.41765e-06
0.0197517
3.19673e-06
0.0197545
3.117e-06
0.0197572
3.21072e-06
0.0197599
3.39561e-06
0.0197626
3.56952e-06
0.0197653
3.78334e-06
0.0197679
4.0317e-06
0.0197706
4.24901e-06
0.0197732
4.47734e-06
0.0197758
4.76964e-06
0.0197784
5.02309e-06
0.0197809
5.2633e-06
0.0197835
5.42659e-06
0.019786
5.41223e-06
0.0197885
5.166e-06
0.019791
4.69232e-06
0.0197935
3.91767e-06
0.019796
2.91305e-06
0.0197984
1.73162e-06
0.0198008
4.16969e-07
0.0198032
-7.82589e-07
0.0198056
-1.8183e-06
0.019808
-2.64917e-06
0.0198103
-3.22028e-06
0.0198126
-3.4473e-06
0.0198149
-3.3865e-06
0.0198172
-2.94592e-06
0.0198195
-2.19594e-06
0.0198217
-1.03645e-06
0.0198239
3.9953e-07
0.0198262
2.36132e-06
4.23269e-06
0.0195785
-6.81689e-05
0.0201415
-3.18388e-05
0.0206371
-3.59217e-05
0.0209981
-3.73663e-05
0.0212346
-3.31789e-05
0.0213833
-2.61854e-05
0.0214709
-1.97526e-05
0.021518
-1.42813e-05
0.0215403
-9.34482e-06
0.0215483
-5.23748e-06
0.0215488
-2.01994e-06
0.021546
5.07626e-07
0.0215422
2.28193e-06
0.0215384
3.63711e-06
0.0215349
4.53025e-06
0.0215316
4.97324e-06
0.0215284
5.33148e-06
0.0215253
5.40967e-06
0.0215224
5.57543e-06
0.0215202
5.93422e-06
0.0215189
6.44169e-06
0.0215187
7.28633e-06
0.0215195
8.20519e-06
0.0215209
9.10801e-06
0.0215225
9.9856e-06
0.0215238
1.06557e-05
0.0215245
1.10986e-05
0.0215246
1.12427e-05
0.0215242
1.1149e-05
0.0215239
1.08328e-05
0.021524
1.0345e-05
0.0215248
9.92664e-06
0.0215263
9.48546e-06
0.0215283
9.0741e-06
0.0215304
8.67951e-06
0.0215324
8.34343e-06
0.0215339
7.89582e-06
0.0215348
7.38014e-06
0.0215354
6.67643e-06
0.0215358
5.69153e-06
0.0215365
4.41548e-06
0.0215378
2.84648e-06
0.0215397
1.00044e-06
0.0215422
-1.12374e-06
0.021545
-3.42919e-06
0.0215477
-5.55656e-06
0.0215501
-7.63531e-06
0.021552
-9.21145e-06
0.0215535
-1.03391e-05
0.021555
-1.11335e-05
0.0215565
-1.13919e-05
0.0215585
-1.13788e-05
0.0215611
-1.10509e-05
0.0215641
-1.03627e-05
0.0215674
-9.43528e-06
0.0215707
-8.2253e-06
0.021574
-6.88136e-06
0.021577
-5.47271e-06
0.0215797
-3.93201e-06
0.0215821
-2.3474e-06
0.0215843
-7.508e-07
0.0215865
7.75497e-07
0.0215888
2.07056e-06
0.0215912
3.08327e-06
0.0215937
3.86538e-06
0.0215964
4.38852e-06
0.0215993
4.69629e-06
0.0216023
4.93932e-06
0.0216054
5.09762e-06
0.0216086
5.32039e-06
0.0216118
5.70805e-06
0.0216151
6.13084e-06
0.0216183
6.5174e-06
0.0216216
6.94472e-06
0.0216248
7.33299e-06
0.0216281
7.64343e-06
0.0216313
7.86506e-06
0.0216345
7.90639e-06
0.0216377
7.84077e-06
0.0216408
7.67239e-06
0.021644
7.30866e-06
0.0216471
6.76832e-06
0.0216502
6.04188e-06
0.0216533
5.15655e-06
0.0216564
4.32177e-06
0.0216595
3.58789e-06
0.0216625
2.95726e-06
0.0216655
2.54141e-06
0.0216685
2.3197e-06
0.0216715
2.24394e-06
0.0216745
2.34914e-06
0.0216774
2.55032e-06
0.0216804
2.73848e-06
0.0216833
2.96796e-06
0.0216862
3.23204e-06
0.021689
3.46419e-06
0.0216919
3.71547e-06
0.0216947
4.0274e-06
0.0216975
4.29564e-06
0.0217003
4.55362e-06
0.0217031
4.73219e-06
0.0217059
4.72498e-06
0.0217086
4.47747e-06
0.0217114
3.99583e-06
0.0217141
3.19796e-06
0.0217168
2.16326e-06
0.0217194
9.4953e-07
0.0217221
-3.94368e-07
0.0217247
-1.62548e-06
0.0217273
-2.72052e-06
0.0217299
-3.56957e-06
0.0217325
-4.14596e-06
0.021735
-4.38149e-06
0.0217375
-4.29765e-06
0.0217401
-3.85677e-06
0.0217426
-3.03797e-06
0.0217451
-1.8655e-06
0.0217475
-2.88391e-07
0.02175
1.61044e-06
3.72211e-06
0.0195786
-0.000748185
0.0201419
-0.000592734
0.0206381
-0.000529008
0.0209988
-0.000394975
0.0212359
-0.000267421
0.0213854
-0.00017384
0.0214739
-0.000107472
0.0215218
-6.24553e-05
0.021545
-3.31739e-05
0.0215538
-1.4699e-05
0.0215551
-3.50374e-06
0.021553
3.13431e-06
0.0215499
6.61106e-06
0.0215468
8.29528e-06
0.0215439
8.80163e-06
0.0215412
8.50083e-06
0.0215385
8.02565e-06
0.0215359
7.29081e-06
0.0215335
6.73776e-06
0.0215318
6.48439e-06
0.021531
6.48302e-06
0.0215314
6.92185e-06
0.0215327
7.55624e-06
0.0215346
8.28783e-06
0.0215366
9.0535e-06
0.0215383
9.66535e-06
0.0215394
1.00777e-05
0.0215399
1.01902e-05
0.0215399
1.00528e-05
0.0215399
9.69276e-06
0.0215404
9.14976e-06
0.0215415
8.6939e-06
0.0215434
8.24262e-06
0.0215457
7.85428e-06
0.0215482
7.50932e-06
0.0215505
7.22571e-06
0.0215523
6.82473e-06
0.0215535
6.33122e-06
0.0215542
5.62372e-06
0.0215549
4.62676e-06
0.0215558
3.32537e-06
0.0215573
1.75985e-06
0.0215595
-5.8284e-08
0.0215622
-2.1228e-06
0.0215652
-4.34052e-06
0.0215682
-6.37239e-06
0.0215707
-8.36413e-06
0.0215728
-9.88627e-06
0.0215745
-1.10062e-05
0.021576
-1.18111e-05
0.0215777
-1.2105e-05
0.0215798
-1.21496e-05
0.0215825
-1.18652e-05
0.0215857
-1.12071e-05
0.0215891
-1.03019e-05
0.0215926
-9.10552e-06
0.021596
-7.78524e-06
0.0215991
-6.38943e-06
0.0216019
-4.87706e-06
0.0216044
-3.33743e-06
0.0216067
-1.80187e-06
0.0216089
-3.38458e-07
0.0216112
8.85186e-07
0.0216136
1.84234e-06
0.0216162
2.57601e-06
0.0216189
3.06317e-06
0.0216218
3.34678e-06
0.0216248
3.57301e-06
0.0216279
3.72262e-06
0.0216311
3.93623e-06
0.0216343
4.31392e-06
0.0216375
4.72649e-06
0.0216408
5.10626e-06
0.0216441
5.52591e-06
0.0216473
5.9069e-06
0.0216505
6.21364e-06
0.0216537
6.43509e-06
0.0216569
6.48308e-06
0.0216601
6.42533e-06
0.0216633
6.26841e-06
0.0216664
5.92139e-06
0.0216696
5.40559e-06
0.0216727
4.70993e-06
0.0216758
3.8606e-06
0.0216789
3.06186e-06
0.0216819
2.36006e-06
0.021685
1.75514e-06
0.021688
1.36241e-06
0.021691
1.15478e-06
0.021694
1.08864e-06
0.0216969
1.19729e-06
0.0216999
1.40072e-06
0.0217028
1.59097e-06
0.0217057
1.81866e-06
0.0217086
2.08204e-06
0.0217115
2.3117e-06
0.0217143
2.56715e-06
0.0217172
2.87737e-06
0.02172
3.14395e-06
0.0217228
3.40004e-06
0.0217256
3.58056e-06
0.0217283
3.58187e-06
0.0217311
3.34943e-06
0.0217338
2.89327e-06
0.0217365
2.12702e-06
0.0217392
1.1327e-06
0.0217419
-2.65812e-08
0.0217445
-1.30802e-06
0.0217471
-2.49983e-06
0.0217497
-3.55462e-06
0.0217523
-4.36935e-06
0.0217549
-4.91441e-06
0.0217575
-5.14444e-06
0.02176
-5.04268e-06
0.0217625
-4.63109e-06
0.021765
-3.79569e-06
0.0217675
-2.69609e-06
0.0217699
-1.0738e-06
0.0217725
6.22583e-07
2.83106e-06
0.0192232
-0.00118533
0.0194184
-0.000782081
0.019501
-0.000605683
0.0195172
-0.000405564
0.019525
-0.000270699
0.0195426
-0.000188133
0.0195652
-0.000128017
0.0195866
-8.2704e-05
0.019604
-5.00759e-05
0.0196175
-2.76143e-05
0.0196274
-1.26907e-05
0.0196348
-3.15484e-06
0.0196404
2.37625e-06
0.0196446
5.39525e-06
0.0196475
6.73281e-06
0.0196494
6.88887e-06
0.0196504
6.62134e-06
0.0196509
5.96105e-06
0.0196511
5.38609e-06
0.0196516
5.05705e-06
0.0196526
4.95894e-06
0.0196542
5.27758e-06
0.0196563
5.83266e-06
0.0196586
6.48158e-06
0.0196608
7.17663e-06
0.0196625
7.73311e-06
0.0196637
8.09515e-06
0.0196645
8.17067e-06
0.0196651
8.00851e-06
0.0196658
7.64948e-06
0.0196669
7.13194e-06
0.0196686
6.71635e-06
0.0196707
6.31813e-06
0.0196732
5.99361e-06
0.0196756
5.72195e-06
0.0196777
5.49349e-06
0.0196795
5.14268e-06
0.0196808
4.68329e-06
0.0196819
4.01289e-06
0.019683
3.08113e-06
0.0196845
1.87246e-06
0.0196864
4.46572e-07
0.0196889
-1.18707e-06
0.0196916
-3.01538e-06
0.0196945
-4.98782e-06
0.0196972
-6.80713e-06
0.0196996
-8.58142e-06
0.0197016
-9.95659e-06
0.0197035
-1.09935e-05
0.0197053
-1.17434e-05
0.0197073
-1.20391e-05
0.0197097
-1.21057e-05
0.0197125
-1.1857e-05
0.0197157
-1.12539e-05
0.019719
-1.04233e-05
0.0197222
-9.32266e-06
0.0197253
-8.11908e-06
0.0197282
-6.85484e-06
0.0197308
-5.49038e-06
0.0197332
-4.10691e-06
0.0197354
-2.73805e-06
0.0197377
-1.44252e-06
0.01974
-3.54544e-07
0.0197424
4.94372e-07
0.0197449
1.14511e-06
0.0197476
1.57745e-06
0.0197504
1.83017e-06
0.0197533
2.03434e-06
0.0197562
2.17234e-06
0.0197592
2.3676e-06
0.0197622
2.71326e-06
0.0197652
3.08934e-06
0.0197683
3.43734e-06
0.0197713
3.8222e-06
0.0197743
4.17048e-06
0.0197773
4.45305e-06
0.0197803
4.6597e-06
0.0197832
4.71084e-06
0.0197862
4.66596e-06
0.0197891
4.53309e-06
0.019792
4.22698e-06
0.0197949
3.77229e-06
0.0197978
3.15562e-06
0.0198006
2.4018e-06
0.0198035
1.69508e-06
0.0198063
1.07428e-06
0.0198091
5.38771e-07
0.0198119
1.95933e-07
0.0198146
1.83618e-08
0.0198174
-3.43994e-08
0.0198201
7.05019e-08
0.0198228
2.62587e-07
0.0198255
4.41912e-07
0.0198282
6.52467e-07
0.0198308
8.95426e-07
0.0198335
1.11306e-06
0.0198361
1.3482e-06
0.0198387
1.63692e-06
0.0198413
1.88421e-06
0.0198438
2.11908e-06
0.0198464
2.29304e-06
0.0198489
2.30365e-06
0.0198514
2.10304e-06
0.0198539
1.70384e-06
0.0198564
1.02292e-06
0.0198588
1.37683e-07
0.0198613
-8.87156e-07
0.0198637
-2.02856e-06
0.0198661
-3.09153e-06
0.0198685
-4.03072e-06
0.0198708
-4.75448e-06
0.0198732
-5.22983e-06
0.0198755
-5.43903e-06
0.0198778
-5.32455e-06
0.0198801
-4.96906e-06
0.0198824
-4.16902e-06
0.0198847
-3.22384e-06
0.0198869
-1.68696e-06
0.0198892
-2.80848e-07
1.85814e-06
0.0173811
-0.000991406
0.017123
-0.000515138
0.0169441
-0.000418307
0.0168268
-0.000280829
0.0167595
-0.00019728
0.0167235
-0.000147384
0.0167055
-0.000106645
0.0166981
-7.28994e-05
0.016697
-4.71415e-05
0.0166995
-2.84343e-05
0.0167037
-1.54125e-05
0.0167087
-6.62945e-06
0.0167136