/*--------------------------------*- C++ -*----------------------------------*\
  =========                 |
  \\      /  F ield         | OpenFOAM: The Open Source CFD Toolbox
   \\    /   O peration     | Website:  https://openfoam.org
    \\  /    A nd           | Version:  7
     \\/     M anipulation  |
\*---------------------------------------------------------------------------*/
FoamFile
{
    version     2.0;
    format      ascii;
    class       surfaceScalarField;
    location    "1.48";
    object      phi_0;
}
// * * * * * * * * * * * * * * * * * * * * * * * * * * * * * * * * * * * * * //

dimensions      [1 0 -1 0 0 0 0];

internalField   nonuniform List<scalar> 
13265
(
0.00259812
0.00108882
1.34465e-05
0.00199149
0.000598332
6.8656e-06
0.00159598
0.000382444
1.16534e-05
0.00139204
0.000195415
7.13659e-06
0.00127094
0.000108733
1.10121e-05
0.00119665
6.55683e-05
7.38538e-06
0.00114263
4.22374e-05
1.04643e-05
0.00110333
3.05201e-05
7.4739e-06
0.00106997
2.21046e-05
9.93752e-06
0.00104398
1.71991e-05
7.48438e-06
0.00102031
1.28778e-05
9.46466e-06
0.00100146
1.00521e-05
7.4549e-06
0.000983722
7.34888e-06
9.0437e-06
0.000969186
5.77773e-06
7.39623e-06
0.000955216
3.9338e-06
8.66419e-06
0.000942701
3.82217e-06
7.31493e-06
0.0009261
6.89107e-06
8.32943e-06
0.000920987
-3.47507e-06
7.20695e-06
0.000817206
9.41787e-05
8.22594e-06
6.18833e-05
6.78234e-06
0.00074716
0.00386632
0.000919148
3.21949e-06
0.00382058
0.000645419
-2.77996e-06
0.00367602
0.000523784
1.79849e-06
0.00352646
0.000346305
-2.71973e-06
0.0033907
0.000242046
1.13926e-06
0.00327932
0.000178214
-2.50655e-06
0.00318399
0.000135824
5.68717e-07
0.00310686
0.000108952
-2.42918e-06
0.00303941
8.84113e-05
3.44741e-08
0.00298444
7.34952e-05
-2.42155e-06
0.00293516
6.1481e-05
-4.42479e-07
0.00289434
5.21863e-05
-2.45115e-06
0.00285753
4.38554e-05
-8.70633e-07
0.00282557
3.90172e-05
-2.50667e-06
0.00279945
3.00553e-05
-1.27169e-06
0.00277227
3.22778e-05
-2.58116e-06
0.0027637
1.58313e-05
-1.69966e-06
0.00273753
2.40615e-05
-2.71278e-06
0.00282034
1.23734e-05
-2.34983e-06
-3.62899e-05
-3.6973e-06
0.00292085
0.00408622
0.000521582
1.1565e-05
0.00433014
0.000393837
6.23415e-06
0.00447908
0.000362764
1.06385e-05
0.00455508
0.000262758
6.14239e-06
0.00458501
0.000200792
9.98337e-06
0.00459701
0.000158602
6.36022e-06
0.00459405
0.000128172
9.45246e-06
0.00458808
0.000107364
6.47153e-06
0.0045759
9.06046e-05
8.94406e-06
0.00456457
7.73298e-05
6.49615e-06
0.00454973
6.68613e-05
8.48148e-06
0.00453738
5.70965e-05
6.47366e-06
0.00452164
5.05392e-05
8.06933e-06
0.00451052
4.26753e-05
6.4185e-06
0.00449234
3.94161e-05
7.70706e-06
0.00448422
3.2867e-05
6.33858e-06
0.00445588
3.54756e-05
7.43694e-06
0.00444473
2.76411e-05
6.2447e-06
0.00438774
6.04062e-05
7.58537e-06
5.93086e-05
6.12417e-06
0.00428459
0.00404204
0.000176564
2.7919e-06
0.00430192
0.00013505
-2.52589e-06
0.00453403
0.000127414
1.80128e-06
0.00470332
9.47787e-05
-2.72029e-06
0.00482734
7.43165e-05
1.09759e-06
0.00492635
6.08875e-05
-2.55542e-06
0.0050017
5.11342e-05
5.2719e-07
0.00506577
4.4673e-05
-2.46804e-06
0.00511625
3.90828e-05
9.44686e-10
0.00516017
3.48698e-05
-2.4528e-06
0.00519574
3.08077e-05
-4.72857e-07
0.00522641
2.79759e-05
-2.47893e-06
0.00525273
2.42114e-05
-9.01198e-07
0.00527375
2.32447e-05
-2.533e-06
0.00529578
1.76945e-05
-1.3102e-06
0.00530975
2.04255e-05
-2.61607e-06
0.00533712
8.7133e-06
-1.78271e-06
0.00535147
1.48295e-05
-2.81364e-06
0.00541799
-4.75569e-06
-2.68642e-06
-2.21063e-05
-3.76807e-06
0.00550175
0.00404201
-0.000176564
1.13042e-05
0.00430435
-0.00013505
6.33675e-06
0.00454713
-0.000127414
1.06145e-05
0.00472913
-9.47775e-05
6.13476e-06
0.00486646
-7.43159e-05
9.95013e-06
0.00498064
-6.08846e-05
6.32337e-06
0.00507233
-5.11317e-05
9.41739e-06
0.00515414
-4.46661e-05
6.43853e-06
0.00522234
-3.90728e-05
8.91417e-06
0.00528459
-3.48529e-05
6.46817e-06
0.00533676
-3.07755e-05
8.45501e-06
0.0053853
-2.79246e-05
6.44855e-06
0.0054247
-2.41308e-05
8.04589e-06
0.00546369
-2.30623e-05
6.39573e-06
0.00549026
-1.75328e-05
7.69027e-06
0.00552311
-1.98015e-05
6.3183e-06
0.00553163
-8.39764e-06
7.44665e-06
0.00555212
-1.31354e-05
6.22715e-06
0.00553231
6.06821e-06
7.6811e-06
2.59033e-05
6.19635e-06
0.0054767
0.00404204
-0.000521582
2.7919e-06
0.00430192
-0.000393837
-2.52589e-06
0.00453403
-0.000362764
1.80128e-06
0.00470332
-0.000262757
-2.72029e-06
0.00482734
-0.000200792
1.09759e-06
0.00492635
-0.000158599
-2.55542e-06
0.0050017
-0.000128169
5.2719e-07
0.00506577
-0.000107358
-2.46804e-06
0.00511626
-9.05955e-05
9.45303e-10
0.00516017
-7.73153e-05
-2.4528e-06
0.00519575
-6.68325e-05
-4.72858e-07
0.00522643
-5.70525e-05
-2.47894e-06
0.00525276
-5.04681e-05
-9.01211e-07
0.0052738
-4.25182e-05
-2.53304e-06
0.00529586
-3.92789e-05
-1.31025e-06
0.0053099
-3.2324e-05
-2.61621e-06
0.00533733
-3.5214e-05
-1.78279e-06
0.00535185
-2.61147e-05
-2.81406e-06
0.00541857
-5.93038e-05
-2.68548e-06
-5.59619e-05
-3.7687e-06
0.00550279
0.00408622
-0.000919148
1.1565e-05
0.00433014
-0.000645419
6.23415e-06
0.00447908
-0.000523784
1.06385e-05
0.00455508
-0.000346304
6.14239e-06
0.00458501
-0.000242045
9.98337e-06
0.00459701
-0.000178212
6.36022e-06
0.00459405
-0.000135822
9.45246e-06
0.00458808
-0.000108948
6.47153e-06
0.00457591
-8.84042e-05
8.94406e-06
0.00456458
-7.34858e-05
6.49614e-06
0.00454975
-6.14601e-05
8.48148e-06
0.00453742
-5.21567e-05
6.47366e-06
0.0045217
-4.38067e-05
8.06932e-06
0.00451063
-3.8908e-05
6.41853e-06
0.0044925
-2.99691e-05
7.70701e-06
0.00448454
-3.18923e-05
6.3387e-06
0.00445632
-1.5692e-05
7.43685e-06
0.00444564
-2.30084e-05
6.24488e-06
0.00438916
-1.17816e-05
7.58478e-06
3.82759e-05
6.12362e-06
0.00428737
0.00386632
-0.00108882
3.21949e-06
0.00382058
-0.000598332
-2.77996e-06
0.00367602
-0.000382444
1.79849e-06
0.00352646
-0.000195414
-2.71973e-06
0.0033907
-0.000108732
1.13927e-06
0.00327932
-6.55677e-05
-2.50655e-06
0.003184
-4.22364e-05
5.68718e-07
0.00310686
-3.05188e-05
-2.42918e-06
0.00303942
-2.21014e-05
3.44751e-08
0.00298445
-1.71961e-05
-2.42156e-06
0.00293519
-1.28686e-05
-4.42478e-07
0.00289439
-1.00428e-05
-2.45117e-06
0.0028576
-7.32645e-06
-8.70634e-07
0.00282572
-5.74356e-06
-2.50673e-06
0.00279964
-3.89024e-06
-1.27168e-06
0.00277272
-3.69782e-06
-2.58137e-06
0.00276419
-6.79352e-06
-1.69945e-06
0.00273872
3.82961e-06
-2.71362e-06
0.00282162
-9.3693e-05
-2.34771e-06
-6.0948e-05
-3.69983e-06
0.00292321
0.00259812
1.34465e-05
0.00199149
6.86561e-06
0.00159598
1.16534e-05
0.00139204
7.13661e-06
0.00127094
1.10121e-05
0.00119666
7.3854e-06
0.00114264
1.04643e-05
0.00110333
7.47392e-06
0.00106998
9.93753e-06
0.00104398
7.4844e-06
0.00102033
9.46466e-06
0.00100149
7.45494e-06
0.000983772
9.04367e-06
0.000969269
7.39632e-06
0.000955344
8.66408e-06
0.000942952
7.31516e-06
0.000926449
8.32911e-06
0.00092169
7.20744e-06
0.000818393
8.22522e-06
6.78267e-06
0.000749294
0.00338088
0.000328621
3.21447e-06
0.00281637
0.000564936
5.01473e-06
0.00232404
0.000500266
2.29745e-06
0.00196995
0.000356087
3.76926e-06
0.00173908
0.000238542
2.02475e-06
0.00158921
0.000152762
3.20431e-06
0.0014934
0.000102953
2.05523e-06
0.00142385
7.28038e-05
2.96535e-06
0.00137506
5.53285e-05
2.14482e-06
0.00133383
4.46463e-05
2.79451e-06
0.00130266
3.71478e-05
2.20506e-06
0.00127399
3.21846e-05
2.63794e-06
0.00125147
2.80097e-05
2.23849e-06
0.00123005
2.49776e-05
2.50565e-06
0.00121363
2.14749e-05
2.26612e-06
0.001196
2.11912e-05
2.40615e-06
0.00119681
3.86809e-06
2.2985e-06
0.00117142
2.89016e-05
2.34619e-06
0.00131956
-0.000143467
2.21653e-06
-0.000128394
2.49345e-06
0.0014509
0.00382282
0.000200631
7.99023e-06
0.00389383
0.000480183
9.524e-06
0.00389367
0.000493296
7.49306e-06
0.00382718
0.000409994
8.4763e-06
0.00374362
0.00031474
7.19583e-06
0.00365321
0.000231463
7.9906e-06
0.00357321
0.000175147
7.2206e-06
0.00349844
0.000136271
7.78146e-06
0.00343544
0.000110015
7.29175e-06
0.00337727
9.17245e-05
7.62825e-06
0.00332807
7.75384e-05
7.32131e-06
0.00328265
6.65725e-05
7.48893e-06
0.00324301
5.83151e-05
7.32246e-06
0.00320783
4.90836e-05
7.37008e-06
0.0031728
4.66478e-05
7.32276e-06
0.00314827
3.45606e-05
7.27592e-06
0.00310535
3.6379e-05
7.3579e-06
0.00309664
2.63174e-05
7.22245e-06
0.00296186
-1.99408e-05
7.52788e-06
3.15543e-05
7.57875e-06
0.00278927
0.00381716
9.10077e-05
3.28695e-06
0.00401961
0.000277447
5.08622e-06
0.00420204
0.000317563
2.50548e-06
0.0043285
0.000284272
4.00482e-06
0.00441328
0.00023644
2.17132e-06
0.0044587
0.000187775
3.40322e-06
0.00448655
0.000153439
2.16727e-06
0.0044976
0.00012749
3.13434e-06
0.00450411
0.000109159
2.26339e-06
0.00450299
9.5398e-05
2.96308e-06
0.00450177
8.39453e-05
2.34311e-06
0.0044957
7.5348e-05
2.81628e-06
0.00449197
6.6732e-05
2.39427e-06
0.00448263
6.10937e-05
2.69387e-06
0.00448072
5.26925e-05
2.43071e-06
0.00446726
5.05386e-05
2.60173e-06
0.00447556
3.17868e-05
2.43428e-06
0.00446313
4.1089e-05
2.54259e-06
0.00449184
-4.4658e-05
2.18257e-06
-2.95981e-05
2.56154e-06
0.00455507
0.00374383
4.17046e-05
7.84983e-06
0.00391674
9.11629e-05
9.41152e-06
0.00413108
9.61077e-05
7.48459e-06
0.00431487
8.78439e-05
8.50457e-06
0.00447036
7.35081e-05
7.21033e-06
0.0045868
5.957e-05
7.99026e-06
0.00468329
4.9131e-05
7.20034e-06
0.00475803
4.14539e-05
7.75388e-06
0.00482305
3.58559e-05
7.25951e-06
0.00487581
3.16052e-05
7.59639e-06
0.00492287
2.81873e-05
7.29077e-06
0.00496242
2.49433e-05
7.45973e-06
0.00499697
2.30687e-05
7.29624e-06
0.00502785
1.93625e-05
7.34371e-06
0.00505059
2.02888e-05
7.30296e-06
0.00507585
1.42582e-05
7.25552e-06
0.00507674
2.05272e-05
7.36011e-06
0.00509198
1.44732e-05
7.23923e-06
0.00501711
1.85004e-05
7.65486e-06
4.65126e-05
7.6281e-06
0.00492812
0.0037907
-4.17048e-05
3.26738e-06
0.00397285
-9.11626e-05
5.08022e-06
0.00417168
-9.61079e-05
2.55828e-06
0.00434804
-8.78427e-05
4.06147e-06
0.00450145
-7.3508e-05
2.21949e-06
0.00462224
-5.9567e-05
3.44664e-06
0.00472658
-4.91293e-05
2.19634e-06
0.00481168
-4.14465e-05
3.15991e-06
0.00488899
-3.58479e-05
2.28446e-06
0.00495468
-3.15856e-05
2.98349e-06
0.00501618
-2.81606e-05
2.36431e-06
0.00506871
-2.48853e-05
2.83721e-06
0.0051195
-2.29978e-05
2.41725e-06
0.00516077
-1.91793e-05
2.71596e-06
0.00520538
-2.01117e-05
2.45244e-06
0.00523592
-1.37051e-05
2.6245e-06
0.00528028
-2.0028e-05
2.43968e-06
0.00531009
-1.29879e-05
2.5681e-06
0.00534956
-1.67836e-05
2.1369e-06
-4.28692e-05
2.56656e-06
0.00544111
0.00374383
-9.10078e-05
7.84983e-06
0.00391674
-0.000277447
9.41152e-06
0.00413108
-0.000317563
7.48459e-06
0.00431487
-0.000284271
8.50457e-06
0.00447036
-0.00023644
7.21033e-06
0.0045868
-0.000187773
7.99026e-06
0.00468329
-0.000153438
7.20034e-06
0.00475803
-0.000127483
7.75388e-06
0.00482305
-0.000109152
7.25951e-06
0.00487582
-9.538e-05
7.59639e-06
0.00492287
-8.3921e-05
7.29077e-06
0.00496243
-7.52948e-05
7.45974e-06
0.00499698
-6.66693e-05
7.29625e-06
0.00502788
-6.09246e-05
7.34373e-06
0.00505065
-5.25401e-05
7.30296e-06
0.00507595
-5.00323e-05
7.25559e-06
0.00507692
-3.13672e-05
7.36005e-06
0.00509234
-3.97737e-05
7.23941e-06
0.00501772
4.61166e-05
7.65428e-06
3.27555e-05
7.62812e-06
0.00492921
0.00381716
-0.000200631
3.28695e-06
0.00401961
-0.000480183
5.08622e-06
0.00420204
-0.000493296
2.50548e-06
0.0043285
-0.000409993
4.00482e-06
0.00441328
-0.000314739
2.17132e-06
0.0044587
-0.000231461
3.40322e-06
0.00448655
-0.000175146
2.16726e-06
0.0044976
-0.000136267
3.13434e-06
0.00450411
-0.000110009
2.26339e-06
0.004503
-9.17125e-05
2.96308e-06
0.00450178
-7.75179e-05
2.34312e-06
0.00449573
-6.65366e-05
2.81627e-06
0.00449201
-5.82641e-05
2.39428e-06
0.00448272
-4.89678e-05
2.69385e-06
0.00448085
-4.65279e-05
2.43073e-06
0.00446755
-3.42086e-05
2.60165e-06
0.00447594
-3.60512e-05
2.43424e-06
0.00446389
-2.53839e-05
2.54244e-06
0.00449294
2.10472e-05
2.18271e-06
-2.91037e-05
2.56109e-06
0.00455689
0.00382282
-0.000328621
7.99023e-06
0.00389383
-0.000564936
9.524e-06
0.00389367
-0.000500266
7.49306e-06
0.00382718
-0.000356087
8.4763e-06
0.00374362
-0.000238542
7.19583e-06
0.00365321
-0.000152761
7.9906e-06
0.00357322
-0.000102952
7.2206e-06
0.00349845
-7.28018e-05
7.78146e-06
0.00343545
-5.53249e-05
7.29175e-06
0.00337729
-4.46411e-05
7.62826e-06
0.00332809
-3.71374e-05
7.32131e-06
0.0032827
-3.21683e-05
7.48894e-06
0.00324309
-2.79856e-05
7.32245e-06
0.00320796
-2.49223e-05
7.37012e-06
0.00317301
-2.14262e-05
7.32272e-06
0.00314865
-2.10153e-05
7.27607e-06
0.00310596
-3.769e-06
7.35766e-06
0.00309772
-2.84364e-05
7.22288e-06
0.00296376
0.000143747
7.52646e-06
0.000128857
7.5797e-06
0.00279317
0.00338088
3.21447e-06
0.00281637
5.01473e-06
0.00232404
2.29745e-06
0.00196995
3.76926e-06
0.00173908
2.02476e-06
0.00158921
3.20431e-06
0.00149341
2.05523e-06
0.00142386
2.96535e-06
0.00137507
2.14482e-06
0.00133385
2.79451e-06
0.00130268
2.20508e-06
0.00127403
2.63792e-06
0.00125153
2.23852e-06
0.00123017
2.50562e-06
0.0012138
2.26617e-06
0.00119634
2.40612e-06
0.00119725
2.29852e-06
0.00117233
2.34604e-06
0.00132074
2.21662e-06
2.49277e-06
0.00145257
0.00356664
0.000138774
-3.21449e-06
0.00331371
0.000261531
-5.01476e-06
0.00300553
0.000311351
-2.29747e-06
0.0027039
0.000307806
-3.76928e-06
0.00243031
0.000276351
-2.02477e-06
0.00220278
0.000232722
-3.20433e-06
0.00201892
0.000186799
-2.05525e-06
0.00187847
0.000145214
-2.96537e-06
0.00177079
0.000110786
-2.14484e-06
0.00169144
8.37092e-05
-2.79453e-06
0.00163107
6.35359e-05
-2.20508e-06
0.00158629
4.8777e-05
-2.63796e-06
0.0015517
3.77898e-05
-2.23851e-06
0.00152439
3.10374e-05
-2.50567e-06
0.00150449
2.3142e-05
-2.26614e-06
0.00148395
2.4068e-05
-2.40617e-06
0.00147719
1.00624e-05
-2.29852e-06
0.00145659
2.40228e-05
-2.34621e-06
0.00147357
-1.38014e-05
-2.21655e-06
-2.11513e-05
-2.49347e-06
0.00149844
0.00376439
8.93478e-05
-7.99025e-06
0.00385471
0.000188819
-9.52402e-06
0.00392357
0.000256041
-7.49308e-06
0.00396215
0.000284785
-8.47632e-06
0.00396721
0.000284383
-7.19585e-06
0.00395159
0.000263125
-7.99063e-06
0.00391941
0.000232316
-7.22063e-06
0.00388068
0.000198459
-7.78148e-06
0.00383702
0.000168026
-7.29177e-06
0.00379384
0.000141162
-7.62828e-06
0.00375067
0.000120366
-7.32134e-06
0.00371049
0.0001029
-7.48895e-06
0.00367181
9.00037e-05
-7.32248e-06
0.00363703
7.93767e-05
-7.3701e-06
0.00360376
6.97955e-05
-7.32278e-06
0.00357482
6.62394e-05
-7.27594e-06
0.003547
5.12157e-05
-7.35792e-06
0.00352173
6.23252e-05
-7.22248e-06
0.00349756
2.40082e-05
-7.52791e-06
5.04892e-05
-7.57877e-06
0.00343967
0.00375066
4.42441e-05
-3.28697e-06
0.00384648
0.00010173
-5.08624e-06
0.00396084
0.000145255
-2.5055e-06
0.00408431
0.000167923
-4.00484e-06
0.00419809
0.000173643
-2.17134e-06
0.00429991
0.000166905
-3.40324e-06
0.00438293
0.000152521
-2.16729e-06
0.0044509
0.000135699
-3.13436e-06
0.00450343
0.000119021
-2.26341e-06
0.00454514
0.000104434
-2.9631e-06
0.00457729
9.1981e-05
-2.34313e-06
0.00460268
8.22241e-05
-2.8163e-06
0.00462305
7.34595e-05
-2.39429e-06
0.00463882
6.7955e-05
-2.6939e-06
0.00465261
5.97246e-05
-2.43074e-06
0.00466294
5.98871e-05
-2.60175e-06
0.00467255
4.51637e-05
-2.4343e-06
0.00468149
5.70686e-05
-2.54261e-06
0.00468582
2.25854e-05
-2.18259e-06
4.22848e-05
-2.56157e-06
0.00469759
0.00373933
1.95912e-05
-7.84986e-06
0.0038199
3.85438e-05
-9.41155e-06
0.00392699
5.16967e-05
-7.48461e-06
0.00405228
5.82479e-05
-8.50459e-06
0.00417861
6.04271e-05
-7.21035e-06
0.00430185
5.84417e-05
-7.99028e-06
0.00441305
5.46081e-05
-7.20037e-06
0.00451388
4.93245e-05
-7.75391e-06
0.00460186
4.45489e-05
-7.25953e-06
0.00468075
3.97885e-05
-7.59641e-06
0.00475014
3.62604e-05
-7.29079e-06
0.00481346
3.29317e-05
-7.45976e-06
0.00486998
3.06133e-05
-7.29627e-06
0.00492309
2.85375e-05
-7.34373e-06
0.00496986
2.64789e-05
-7.30298e-06
0.00501679
2.62828e-05
-7.25555e-06
0.00505328
2.21438e-05
-7.36013e-06
0.00509627
2.72057e-05
-7.23925e-06
0.00511632
1.64339e-05
-7.65489e-06
3.29935e-05
-7.62812e-06
0.00513934
0.00374469
-1.95915e-05
-3.2674e-06
0.0038305
-3.85432e-05
-5.08024e-06
0.00393758
-5.16972e-05
-2.5583e-06
0.00406079
-5.82463e-05
-4.06149e-06
0.00418478
-6.04274e-05
-2.2195e-06
0.00430736
-5.84378e-05
-3.44666e-06
0.00441985
-5.46064e-05
-2.19636e-06
0.00452375
-4.93153e-05
-3.15993e-06
0.0046164
-4.45399e-05
-2.28448e-06
0.00470097
-3.97645e-05
-2.98351e-06
0.00477728
-3.6233e-05
-2.36433e-06
0.00484785
-3.28591e-05
-2.83723e-06
0.00491294
-3.05514e-05
-2.41727e-06
0.00497423
-2.83099e-05
-2.71598e-06
0.00503089
-2.6349e-05
-2.45246e-06
0.0050869
-2.56448e-05
-2.62452e-06
0.00513445
-2.17705e-05
-2.4397e-06
0.00519117
-2.57099e-05
-2.56812e-06
0.00522548
-1.49966e-05
-2.13692e-06
-3.00221e-05
-2.56658e-06
0.00529212
0.00373933
-4.42443e-05
-7.84986e-06
0.0038199
-0.00010173
-9.41155e-06
0.00392699
-0.000145255
-7.48461e-06
0.00405228
-0.000167921
-8.50459e-06
0.00417861
-0.000173643
-7.21035e-06
0.00430185
-0.000166902
-7.99028e-06
0.00441305
-0.000152519
-7.20037e-06
0.00451388
-0.00013569
-7.75391e-06
0.00460186
-0.000119013
-7.25953e-06
0.00468075
-0.000104411
-7.59641e-06
0.00475015
-9.19556e-05
-7.2908e-06
0.00481347
-8.21552e-05
-7.45976e-06
0.00486999
-7.34028e-05
-7.29627e-06
0.00492311
-6.774e-05
-7.34375e-06
0.0049699
-5.96095e-05
-7.30299e-06
0.00501687
-5.92864e-05
-7.25562e-06
0.0050534
-4.48363e-05
-7.36008e-06
0.00509649
-5.56712e-05
-7.23943e-06
0.00511669
-2.12997e-05
-7.65431e-06
-3.95827e-05
-7.62815e-06
0.00513998
0.00375066
-8.93479e-05
-3.28697e-06
0.00384648
-0.000188818
-5.08624e-06
0.00396084
-0.000256041
-2.5055e-06
0.00408431
-0.000284784
-4.00484e-06
0.00419809
-0.000284383
-2.17134e-06
0.00429991
-0.000263122
-3.40324e-06
0.00438293
-0.000232314
-2.16728e-06
0.0044509
-0.000198452
-3.13436e-06
0.00450344
-0.000168018
-2.26341e-06
0.00454514
-0.000141144
-2.9631e-06
0.0045773
-0.000120344
-2.34314e-06
0.00460271
-0.000102844
-2.81629e-06
0.00462309
-8.99592e-05
-2.3943e-06
0.00463889
-7.92021e-05
-2.69387e-06
0.00465272
-6.97132e-05
-2.43075e-06
0.00466316
-6.57516e-05
-2.60168e-06
0.00467287
-5.0987e-05
-2.43427e-06
0.0046821
-6.12094e-05
-2.54246e-06
0.00468675
-2.30452e-05
-2.18273e-06
-4.84286e-05
-2.56111e-06
0.00469916
0.00376439
-0.000138774
-7.99025e-06
0.00385471
-0.00026153
-9.52402e-06
0.00392357
-0.000311351
-7.49308e-06
0.00396215
-0.000307805
-8.47632e-06
0.00396721
-0.000276351
-7.19585e-06
0.0039516
-0.000232721
-7.99063e-06
0.00391941
-0.000186797
-7.22063e-06
0.00388068
-0.000145211
-7.78149e-06
0.00383703
-0.00011078
-7.29177e-06
0.00379386
-8.37015e-05
-7.62829e-06
0.00375069
-6.35208e-05
-7.32133e-06
0.00371054
-4.87514e-05
-7.48897e-06
0.00367189
-3.77611e-05
-7.32248e-06
0.00363719
-3.09496e-05
-7.37015e-06
0.00360396
-2.30961e-05
-7.32274e-06
0.00357525
-2.38133e-05
-7.2761e-06
0.00354754
-9.9476e-06
-7.35768e-06
0.00352282
-2.34523e-05
-7.2229e-06
0.00349908
1.43157e-05
-7.52649e-06
2.19164e-05
-7.57972e-06
0.00344251
0.00356664
-3.21449e-06
0.00331371
-5.01476e-06
0.00300553
-2.29747e-06
0.0027039
-3.76928e-06
0.00243031
-2.02477e-06
0.00220278
-3.20433e-06
0.00201893
-2.05525e-06
0.00187848
-2.96537e-06
0.0017708
-2.14484e-06
0.00169146
-2.79453e-06
0.0016311
-2.2051e-06
0.00158635
-2.63795e-06
0.00155179
-2.23855e-06
0.00152456
-2.50565e-06
0.00150471
-2.26619e-06
0.00148442
-2.40614e-06
0.00147779
-2.29854e-06
0.00145775
-2.34606e-06
0.00147524
-2.21664e-06
-2.4928e-06
0.00150091
0.00338088
0.000328621
-1.34465e-05
0.00281637
0.000564936
-6.86563e-06
0.00232404
0.000500266
-1.16534e-05
0.00196995
0.000356087
-7.13662e-06
0.00173908
0.000238542
-1.10122e-05
0.00158921
0.000152762
-7.38541e-06
0.0014934
0.000102953
-1.04643e-05
0.00142385
7.28038e-05
-7.47393e-06
0.00137506
5.53285e-05
-9.93755e-06
0.00133383
4.46463e-05
-7.48441e-06
0.00130266
3.71477e-05
-9.46469e-06
0.00127399
3.21846e-05
-7.45493e-06
0.00125147
2.80097e-05
-9.04373e-06
0.00123005
2.49776e-05
-7.39626e-06
0.00121363
2.14749e-05
-8.66422e-06
0.001196
2.11913e-05
-7.31497e-06
0.00119681
3.86812e-06
-8.32946e-06
0.00117142
2.89016e-05
-7.20698e-06
0.00131956
-0.000143467
-8.22597e-06
-0.000128394
-6.78237e-06
0.0014509
0.00382282
0.000200631
-3.21951e-06
0.00389383
0.000480183
2.77995e-06
0.00389367
0.000493297
-1.7985e-06
0.00382718
0.000409994
2.71972e-06
0.00374362
0.00031474
-1.13928e-06
0.00365321
0.000231463
2.50654e-06
0.00357321
0.000175147
-5.68729e-07
0.00349844
0.000136271
2.42917e-06
0.00343544
0.000110015
-3.44855e-08
0.00337727
9.17245e-05
2.42154e-06
0.00332807
7.75384e-05
4.42467e-07
0.00328265
6.65725e-05
2.45114e-06
0.00324301
5.83152e-05
8.70621e-07
0.00320783
4.90837e-05
2.50666e-06
0.0031728
4.66479e-05
1.27168e-06
0.00314827
3.45607e-05
2.58114e-06
0.00310535
3.6379e-05
1.69965e-06
0.00309664
2.63174e-05
2.71277e-06
0.00296186
-1.99407e-05
2.34981e-06
3.15544e-05
3.69729e-06
0.00278926
0.00381716
9.10077e-05
-1.1565e-05
0.00401961
0.000277447
-6.23416e-06
0.00420204
0.000317563
-1.06386e-05
0.0043285
0.000284272
-6.1424e-06
0.00441328
0.00023644
-9.98339e-06
0.0044587
0.000187775
-6.36024e-06
0.00448655
0.000153439
-9.45247e-06
0.0044976
0.00012749
-6.47155e-06
0.00450411
0.000109159
-8.94408e-06
0.00450299
9.53981e-05
-6.49616e-06
0.00450177
8.39453e-05
-8.48149e-06
0.0044957
7.53481e-05
-6.47367e-06
0.00449197
6.67321e-05
-8.06934e-06
0.00448263
6.10938e-05
-6.41851e-06
0.00448072
5.26926e-05
-7.70707e-06
0.00446726
5.05387e-05
-6.33859e-06
0.00447556
3.17869e-05
-7.43696e-06
0.00446313
4.10891e-05
-6.24471e-06
0.00449184
-4.46579e-05
-7.58539e-06
-2.9598e-05
-6.12418e-06
0.00455507
0.00374383
4.17046e-05
-2.79192e-06
0.00391674
9.11629e-05
2.52588e-06
0.00413108
9.61077e-05
-1.80129e-06
0.00431487
8.78439e-05
2.72028e-06
0.00447036
7.35081e-05
-1.0976e-06
0.0045868
5.957e-05
2.55541e-06
0.00468329
4.91311e-05
-5.27203e-07
0.00475803
4.1454e-05
2.46803e-06
0.00482305
3.5856e-05
-9.5819e-10
0.00487581
3.16052e-05
2.45279e-06
0.00492287
2.81874e-05
4.72843e-07
0.00496242
2.49434e-05
2.47892e-06
0.00499697
2.30689e-05
9.01185e-07
0.00502785
1.93627e-05
2.53299e-06
0.00505059
2.0289e-05
1.31019e-06
0.00507585
1.42584e-05
2.61606e-06
0.00507674
2.05273e-05
1.7827e-06
0.00509198
1.44733e-05
2.81363e-06
0.00501711
1.85005e-05
2.6864e-06
4.65127e-05
3.76805e-06
0.00492811
0.0037907
-4.17048e-05
-1.13042e-05
0.00397285
-9.11625e-05
-6.33677e-06
0.00417168
-9.61079e-05
-1.06146e-05
0.00434804
-8.78427e-05
-6.13477e-06
0.00450145
-7.3508e-05
-9.95014e-06
0.00462224
-5.9567e-05
-6.32338e-06
0.00472658
-4.91293e-05
-9.4174e-06
0.00481168
-4.14464e-05
-6.43854e-06
0.00488899
-3.58478e-05
-8.91418e-06
0.00495468
-3.15855e-05
-6.46818e-06
0.00501618
-2.81605e-05
-8.45502e-06
0.00506871
-2.48852e-05
-6.44856e-06
0.0051195
-2.29977e-05
-8.0459e-06
0.00516077
-1.91791e-05
-6.39575e-06
0.00520538
-2.01115e-05
-7.69029e-06
0.00523592
-1.37049e-05
-6.31831e-06
0.00528028
-2.00279e-05
-7.44667e-06
0.00531009
-1.29879e-05
-6.22716e-06
0.00534956
-1.67836e-05
-7.68111e-06
-4.28692e-05
-6.19637e-06
0.00544111
0.00374383
-9.10078e-05
-2.79192e-06
0.00391674
-0.000277447
2.52588e-06
0.00413108
-0.000317563
-1.80129e-06
0.00431487
-0.000284271
2.72028e-06
0.00447036
-0.00023644
-1.0976e-06
0.0045868
-0.000187773
2.55541e-06
0.00468329
-0.000153438
-5.27204e-07
0.00475803
-0.000127483
2.46803e-06
0.00482305
-0.000109152
-9.59083e-10
0.00487582
-9.538e-05
2.45279e-06
0.00492287
-8.3921e-05
4.72844e-07
0.00496243
-7.52947e-05
2.47893e-06
0.00499698
-6.66691e-05
9.01196e-07
0.00502788
-6.09245e-05
2.53302e-06
0.00505065
-5.254e-05
1.31024e-06
0.00507595
-5.00321e-05
2.61619e-06
0.00507692
-3.13671e-05
1.78278e-06
0.00509233
-3.97736e-05
2.81404e-06
0.00501772
4.61167e-05
2.68546e-06
3.27556e-05
3.76868e-06
0.00492921
0.00381716
-0.000200631
-1.1565e-05
0.00401961
-0.000480183
-6.23416e-06
0.00420204
-0.000493296
-1.06386e-05
0.0043285
-0.000409993
-6.1424e-06
0.00441328
-0.000314739
-9.98339e-06
0.0044587
-0.000231461
-6.36024e-06
0.00448655
-0.000175146
-9.45247e-06
0.0044976
-0.000136267
-6.47155e-06
0.00450411
-0.000110009
-8.94408e-06
0.004503
-9.17124e-05
-6.49616e-06
0.00450178
-7.75179e-05
-8.48149e-06
0.00449573
-6.65366e-05
-6.47368e-06
0.00449201
-5.82641e-05
-8.06933e-06
0.00448272
-4.89677e-05
-6.41854e-06
0.00448085
-4.65278e-05
-7.70703e-06
0.00446755
-3.42085e-05
-6.33872e-06
0.00447594
-3.60512e-05
-7.43686e-06
0.00446389
-2.53838e-05
-6.24489e-06
0.00449294
2.10473e-05
-7.5848e-06
-2.91036e-05
-6.12363e-06
0.00455689
0.00382282
-0.000328621
-3.21951e-06
0.00389383
-0.000564936
2.77995e-06
0.00389367
-0.000500266
-1.7985e-06
0.00382718
-0.000356087
2.71972e-06
0.00374362
-0.000238542
-1.13928e-06
0.00365321
-0.000152761
2.50654e-06
0.00357322
-0.000102952
-5.68732e-07
0.00349845
-7.28018e-05
2.42917e-06
0.00343545
-5.53249e-05
-3.44904e-08
0.00337729
-4.46411e-05
2.42154e-06
0.00332809
-3.71374e-05
4.42462e-07
0.0032827
-3.21683e-05
2.45116e-06
0.00324309
-2.79856e-05
8.70618e-07
0.00320796
-2.49223e-05
2.50671e-06
0.00317301
-2.14262e-05
1.27167e-06
0.00314865
-2.10153e-05
2.58135e-06
0.00310596
-3.76897e-06
1.69943e-06
0.00309772
-2.84364e-05
2.7136e-06
0.00296376
0.000143747
2.34769e-06
0.000128857
3.69982e-06
0.00279317
0.00338088
-1.34465e-05
0.00281637
-6.86561e-06
0.00232404
-1.16534e-05
0.00196995
-7.13661e-06
0.00173908
-1.10121e-05
0.00158921
-7.3854e-06
0.00149341
-1.04643e-05
0.00142386
-7.47392e-06
0.00137507
-9.93753e-06
0.00133385
-7.4844e-06
0.00130268
-9.46466e-06
0.00127403
-7.45494e-06
0.00125153
-9.04367e-06
0.00123017
-7.39631e-06
0.0012138
-8.66407e-06
0.00119634
-7.31516e-06
0.00119725
-8.32911e-06
0.00117233
-7.20744e-06
0.00132074
-8.22522e-06
-6.78266e-06
0.00145257
0.00259812
0.00108882
0.00199149
0.000598332
0.00159598
0.000382444
0.00139204
0.000195415
0.00127094
0.000108733
0.00119665
6.55682e-05
0.00114263
4.22373e-05
0.00110333
3.052e-05
0.00106997
2.21044e-05
0.00104398
1.71989e-05
0.00102031
1.28776e-05
0.00100146
1.00519e-05
0.000983722
7.34874e-06
0.000969186
5.77761e-06
0.000955216
3.93371e-06
0.000942701
3.82209e-06
0.0009261
6.891e-06
0.000920987
-3.47514e-06
0.000817206
9.41786e-05
6.18832e-05
0.00074716
0.00386632
0.000919148
0.00382058
0.000645419
0.00367602
0.000523784
0.00352646
0.000346305
0.0033907
0.000242046
0.00327932
0.000178214
0.00318399
0.000135823
0.00310686
0.000108952
0.00303941
8.8411e-05
0.00298444
7.34949e-05
0.00293516
6.14808e-05
0.00289434
5.21861e-05
0.00285753
4.38552e-05
0.00282557
3.9017e-05
0.00279945
3.00551e-05
0.00277227
3.22777e-05
0.0027637
1.58312e-05
0.00273753
2.40614e-05
0.00282034
1.23733e-05
-3.629e-05
0.00292085
0.00408622
0.000521582
0.00433014
0.000393837
0.00447908
0.000362764
0.00455508
0.000262758
0.00458501
0.000200792
0.00459701
0.000158602
0.00459405
0.000128171
0.00458808
0.000107364
0.0045759
9.06043e-05
0.00456457
7.73295e-05
0.00454973
6.68611e-05
0.00453738
5.70963e-05
0.00452164
5.05389e-05
0.00451052
4.26751e-05
0.00449234
3.94159e-05
0.00448422
3.28668e-05
0.00445588
3.54754e-05
0.00444473
2.7641e-05
0.00438774
6.04061e-05
5.93086e-05
0.00428458
0.00404204
0.000176564
0.00430192
0.00013505
0.00453403
0.000127414
0.00470332
9.47785e-05
0.00482734
7.43163e-05
0.00492635
6.08873e-05
0.0050017
5.11339e-05
0.00506577
4.46727e-05
0.00511625
3.90825e-05
0.00516017
3.48695e-05
0.00519574
3.08074e-05
0.00522641
2.79757e-05
0.00525273
2.42112e-05
0.00527375
2.32445e-05
0.00529578
1.76943e-05
0.00530975
2.04254e-05
0.00533712
8.71316e-06
0.00535147
1.48294e-05
0.00541799
-4.75581e-06
-2.21064e-05
0.00550175
0.00404201
-0.000176565
0.00430435
-0.00013505
0.00454713
-0.000127414
0.00472913
-9.47776e-05
0.00486646
-7.43162e-05
0.00498064
-6.08848e-05
0.00507233
-5.1132e-05
0.00515414
-4.46664e-05
0.00522234
-3.90731e-05
0.00528459
-3.48532e-05
0.00533676
-3.07757e-05
0.0053853
-2.79248e-05
0.00542469
-2.4131e-05
0.00546369
-2.30625e-05
0.00549026
-1.7533e-05
0.00552311
-1.98016e-05
0.00553163
-8.39779e-06
0.00555212
-1.31355e-05
0.00553231
6.0681e-06
2.59033e-05
0.0054767
0.00404204
-0.000521582
0.00430192
-0.000393837
0.00453403
-0.000362764
0.00470332
-0.000262757
0.00482734
-0.000200792
0.00492635
-0.0001586
0.0050017
-0.00012817
0.00506577
-0.000107359
0.00511625
-9.05957e-05
0.00516017
-7.73156e-05
0.00519575
-6.68328e-05
0.00522643
-5.70527e-05
0.00525276
-5.04683e-05
0.0052738
-4.25184e-05
0.00529586
-3.92791e-05
0.0053099
-3.23241e-05
0.00533733
-3.52141e-05
0.00535185
-2.61148e-05
0.00541857
-5.93039e-05
-5.59619e-05
0.00550279
0.00408622
-0.000919148
0.00433014
-0.000645419
0.00447908
-0.000523784
0.00455508
-0.000346304
0.00458501
-0.000242045
0.00459701
-0.000178212
0.00459405
-0.000135822
0.00458808
-0.000108948
0.00457591
-8.84045e-05
0.00456458
-7.3486e-05
0.00454975
-6.14603e-05
0.00453742
-5.21569e-05
0.0045217
-4.38069e-05
0.00451063
-3.89082e-05
0.0044925
-2.99692e-05
0.00448454
-3.18924e-05
0.00445632
-1.56921e-05
0.00444564
-2.30085e-05
0.00438916
-1.17817e-05
3.82758e-05
0.00428737
0.00386632
-0.00108882
0.00382058
-0.000598332
0.00367602
-0.000382444
0.00352646
-0.000195415
0.0033907
-0.000108732
0.00327932
-6.55678e-05
0.003184
-4.22366e-05
0.00310686
-3.05189e-05
0.00303942
-2.21015e-05
0.00298445
-1.71963e-05
0.00293519
-1.28688e-05
0.00289439
-1.0043e-05
0.0028576
-7.32657e-06
0.00282572
-5.74365e-06
0.00279964
-3.89031e-06
0.00277272
-3.69787e-06
0.00276419
-6.79357e-06
0.00273872
3.82957e-06
0.00282162
-9.36931e-05
-6.09481e-05
0.00292321
0.00259812
0.00199149
0.00159598
0.00139204
0.00127094
0.00119666
0.00114264
0.00110333
0.00106998
0.00104398
0.00102033
0.00100149
0.000983771
0.000969269
0.000955343
0.000942952
0.000926449
0.00092169
0.000818392
0.000749294
0.000875978
-0.00020141
6.8575e-05
0.000899091
-8.7281e-05
6.04886e-05
0.000888642
-5.73977e-05
6.40993e-05
0.000881451
-5.44322e-05
5.76179e-05
0.00087405
-5.62531e-05
5.94765e-05
0.000868594
-5.36722e-05
5.50046e-05
0.000863154
-5.45564e-05
5.60669e-05
0.000858811
-5.23813e-05
5.29534e-05
0.0008545
-5.29817e-05
5.35457e-05
0.000850786
-5.1452e-05
5.13531e-05
0.000847198
-5.1937e-05
5.16663e-05
0.000843981
-5.07061e-05
5.01088e-05
0.000840991
-5.0952e-05
5.02533e-05
0.000838224
-4.99042e-05
4.91352e-05
0.000835713
-5.00691e-05
4.91769e-05
0.000833303
-4.92514e-05
4.83677e-05
0.000831162
-4.93953e-05
4.83501e-05
0.000829057