/*--------------------------------*- C++ -*----------------------------------*\
  =========                 |
  \\      /  F ield         | OpenFOAM: The Open Source CFD Toolbox
   \\    /   O peration     | Website:  https://openfoam.org
    \\  /    A nd           | Version:  7
     \\/     M anipulation  |
\*---------------------------------------------------------------------------*/
FoamFile
{
    version     2.0;
    format      ascii;
    class       volScalarField;
    location    "0.565";
    object      k;
}
// * * * * * * * * * * * * * * * * * * * * * * * * * * * * * * * * * * * * * //

dimensions      [0 2 -2 0 0 0 0];

internalField   nonuniform List<scalar> 
1600
(
3.68127e-05
2.12401e-05
1.10356e-05
7.19613e-06
5.30458e-06
4.10572e-06
3.25983e-06
2.63605e-06
2.16496e-06
1.80312e-06
1.52125e-06
1.2989e-06
1.12163e-06
9.79181e-07
8.6401e-07
7.7044e-07
6.94069e-07
6.31435e-07
5.79798e-07
5.3699e-07
5.01301e-07
4.71382e-07
4.46172e-07
4.24834e-07
4.067e-07
3.91235e-07
3.78005e-07
3.66652e-07
3.5688e-07
3.48441e-07
3.41125e-07
3.34751e-07
3.29165e-07
3.24225e-07
3.19804e-07
3.15766e-07
3.11851e-07
3.0697e-07
2.94169e-07
2.41684e-07
2.88019e-05
2.97588e-05
2.47615e-05
1.93499e-05
1.51766e-05
1.20144e-05
9.62749e-06
7.8156e-06
6.42847e-06
5.35665e-06
4.51998e-06
3.85969e-06
3.33338e-06
2.91051e-06
2.56868e-06
2.29103e-06
2.06449e-06
1.8788e-06
1.72582e-06
1.5991e-06
1.49354e-06
1.40512e-06
1.33068e-06
1.26772e-06
1.21426e-06
1.16869e-06
1.12972e-06
1.0963e-06
1.06755e-06
1.04273e-06
1.02122e-06
1.0025e-06
9.86099e-07
9.71625e-07
9.58721e-07
9.47064e-07
9.36254e-07
9.2541e-07
9.07399e-07
8.47886e-07
2.5119e-05
2.94399e-05
2.9072e-05
2.63716e-05
2.24283e-05
1.86539e-05
1.54008e-05
1.27228e-05
1.05692e-05
8.85736e-06
7.49989e-06
6.41906e-06
5.55282e-06
4.85415e-06
4.28777e-06
3.82671e-06
3.44998e-06
3.14086e-06
2.88605e-06
2.67491e-06
2.499e-06
2.35163e-06
2.22752e-06
2.12248e-06
2.03321e-06
1.95703e-06
1.89181e-06
1.83577e-06
1.78747e-06
1.74568e-06
1.7094e-06
1.67774e-06
1.64996e-06
1.62542e-06
1.60359e-06
1.58403e-06
1.56645e-06
1.55101e-06
1.53653e-06
1.52177e-06
2.30194e-05
2.71567e-05
2.8617e-05
2.81038e-05
2.6113e-05
2.31059e-05
1.99346e-05
1.69586e-05
1.43551e-05
1.21755e-05
1.03919e-05
8.94372e-06
7.76768e-06
6.81e-06
6.02792e-06
5.38768e-06
4.86228e-06
4.42983e-06
4.07258e-06
3.77609e-06
3.5288e-06
3.32142e-06
3.14659e-06
2.99843e-06
2.8723e-06
2.76447e-06
2.67194e-06
2.59224e-06
2.52336e-06
2.46361e-06
2.41157e-06
2.36605e-06
2.32602e-06
2.29064e-06
2.2592e-06
2.23123e-06
2.20657e-06
2.18566e-06
2.16911e-06
2.15968e-06
2.18518e-05
2.43576e-05
2.66145e-05
2.74024e-05
2.68556e-05
2.52456e-05
2.28401e-05
2.01403e-05
1.74903e-05
1.51044e-05
1.30593e-05
1.13465e-05
9.9244e-06
8.74682e-06
7.77247e-06
6.96652e-06
6.29974e-06
5.74753e-06
5.28924e-06
4.90763e-06
4.58851e-06
4.32032e-06
4.09376e-06
3.90137e-06
3.73718e-06
3.59644e-06
3.4753e-06
3.37063e-06
3.27986e-06
3.20086e-06
3.13183e-06
3.07126e-06
3.01788e-06
2.97061e-06
2.92863e-06
2.89138e-06
2.85875e-06
2.83131e-06
2.81038e-06
2.79884e-06
2.12351e-05
2.27221e-05
2.44594e-05
2.56747e-05
2.60379e-05
2.54932e-05
2.4142e-05
2.20744e-05
1.97275e-05
1.74198e-05
1.53229e-05
1.34925e-05
1.19248e-05
1.05944e-05
9.47189e-06
8.52863e-06
7.73833e-06
7.07726e-06
6.52436e-06
6.06127e-06
5.67226e-06
5.34414e-06
5.06604e-06
4.82912e-06
4.62627e-06
4.45178e-06
4.30101e-06
4.17023e-06
4.05637e-06
3.95686e-06
3.86958e-06
3.79273e-06
3.7248e-06
3.66452e-06
3.61092e-06
3.56335e-06
3.52166e-06
3.48649e-06
3.45954e-06
3.44407e-06
2.12441e-05
2.15914e-05
2.25462e-05
2.36343e-05
2.44735e-05
2.46871e-05
2.41257e-05
2.28095e-05
2.0966e-05
1.89652e-05
1.70213e-05
1.52372e-05
1.36474e-05
1.22546e-05
1.10485e-05
1.00132e-05
9.13048e-06
8.38161e-06
7.74819e-06
7.21295e-06
6.76022e-06
6.37625e-06
6.04927e-06
5.76948e-06
5.52889e-06
5.321e-06
5.14055e-06
4.98328e-06
4.8457e-06
4.7249e-06
4.61849e-06
4.52441e-06
4.44096e-06
4.36671e-06
4.30053e-06
4.24168e-06
4.18991e-06
4.14587e-06
4.11151e-06
4.09088e-06
2.08874e-05
2.09288e-05
2.12752e-05
2.20186e-05
2.2856e-05
2.33677e-05
2.33072e-05
2.26234e-05
2.12889e-05
1.97166e-05
1.80726e-05
1.64751e-05
1.4984e-05
1.36267e-05
1.24134e-05
1.1344e-05
1.0412e-05
9.60678e-06
8.91554e-06
8.32443e-06
7.81965e-06
7.38824e-06
7.01851e-06
6.70034e-06
6.42524e-06
6.18623e-06
5.97764e-06
5.79484e-06
5.63404e-06
5.49212e-06
5.36646e-06
5.25486e-06
5.15548e-06
5.06674e-06
4.98743e-06
4.91665e-06
4.85408e-06
4.80029e-06
4.75744e-06
4.73059e-06
2.04733e-05
2.04036e-05
2.04943e-05
2.08369e-05
2.14343e-05
2.19378e-05
2.20384e-05
2.17745e-05
2.09758e-05
1.97882e-05
1.85021e-05
1.71764e-05
1.58734e-05
1.46355e-05
1.34885e-05
1.24465e-05
1.15147e-05
1.06919e-05
9.97267e-06
9.34839e-06
8.80878e-06
8.343e-06
7.94052e-06
7.59169e-06
7.28809e-06
7.02263e-06
6.78947e-06
6.58385e-06
6.40186e-06
6.24027e-06
6.09639e-06
5.96796e-06
5.85306e-06
5.75008e-06
5.65768e-06
5.57492e-06
5.50132e-06
5.43738e-06
5.38535e-06
5.35144e-06
2.01927e-05
2.00621e-05
1.99645e-05
2.00427e-05
2.03175e-05
2.06512e-05
2.07535e-05
2.06249e-05
2.01883e-05
1.94167e-05
1.84393e-05
1.73928e-05
1.63197e-05
1.52538e-05
1.42285e-05
1.32666e-05
1.23819e-05
1.15816e-05
1.08673e-05
1.02365e-05
9.68331e-06
9.20003e-06
8.77821e-06
8.40946e-06
8.08602e-06
7.80112e-06
7.54909e-06
7.32526e-06
7.12579e-06
6.94749e-06
6.78776e-06
6.64436e-06
6.51542e-06
6.39932e-06
6.29472e-06
6.20062e-06
6.11645e-06
6.04256e-06
5.98122e-06
5.93973e-06
2.01353e-05
1.9985e-05
1.97199e-05
1.95548e-05
1.9561e-05
1.96262e-05
1.9626e-05
1.95198e-05
1.92269e-05
1.87155e-05
1.80532e-05
1.72548e-05
1.63882e-05
1.5508e-05
1.46323e-05
1.37846e-05
1.29826e-05
1.22387e-05
1.156e-05
1.09491e-05
1.04046e-05
9.92244e-06
9.49665e-06
9.12066e-06
8.78794e-06
8.49246e-06
8.22898e-06
7.99318e-06
7.78145e-06
7.59085e-06
7.41893e-06
7.26363e-06
7.12318e-06
6.99608e-06
6.88105e-06
6.77706e-06
6.6835e-06
6.60056e-06
6.53041e-06
6.48127e-06
2.02802e-05
2.01529e-05
1.97367e-05
1.92948e-05
1.90236e-05
1.88665e-05
1.87319e-05
1.8565e-05
1.83138e-05
1.79433e-05
1.74562e-05
1.68679e-05
1.62004e-05
1.54744e-05
1.47423e-05
1.402e-05
1.33191e-05
1.26535e-05
1.20331e-05
1.14639e-05
1.09479e-05
1.04842e-05
1.00695e-05
9.69929e-06
9.36839e-06
9.07191e-06
8.8053e-06
8.56473e-06
8.347e-06
8.14951e-06
7.97007e-06
7.8069e-06
7.65843e-06
7.52332e-06
7.40042e-06
7.28876e-06
7.18769e-06
7.09727e-06
7.01948e-06
6.9631e-06
2.04706e-05
2.0156e-05
1.96515e-05
1.90972e-05
1.86589e-05
1.83318e-05
1.8066e-05
1.78195e-05
1.7552e-05
1.72277e-05
1.68289e-05
1.6356e-05
1.58217e-05
1.52482e-05
1.46423e-05
1.40263e-05
1.34261e-05
1.28466e-05
1.22959e-05
1.17816e-05
1.13079e-05
1.0876e-05
1.04848e-05
1.01315e-05
9.81244e-06
9.52388e-06
9.26214e-06
9.02399e-06
8.8067e-06
8.60807e-06
8.42627e-06
8.25979e-06
8.10735e-06
7.96782e-06
7.84021e-06
7.72365e-06
7.61751e-06
7.52175e-06
7.43805e-06
7.37538e-06
2.0503e-05
2.00872e-05
1.95324e-05
1.89562e-05
1.84327e-05
1.7987e-05
1.76093e-05
1.72779e-05
1.69625e-05
1.66301e-05
1.62584e-05
1.58409e-05
1.53835e-05
1.48982e-05
1.43952e-05
1.38845e-05
1.33685e-05
1.28635e-05
1.23816e-05
1.19261e-05
1.15006e-05
1.11078e-05
1.07477e-05
1.04189e-05
1.0119e-05
9.84525e-06
9.59486e-06
9.36521e-06
9.15405e-06
8.95957e-06
8.78029e-06
8.615e-06
8.4627e-06
8.32248e-06
8.19354e-06
8.07515e-06
7.96671e-06
7.86809e-06
7.78062e-06
7.71305e-06
2.05453e-05
2.00254e-05
1.94873e-05
1.88946e-05
1.83077e-05
1.77756e-05
1.73108e-05
1.6905e-05
1.65345e-05
1.617e-05
1.57901e-05
1.53872e-05
1.49644e-05
1.45289e-05
1.40869e-05
1.36429e-05
1.32017e-05
1.27674e-05
1.23435e-05
1.1939e-05
1.156e-05
1.12068e-05
1.08799e-05
1.05786e-05
1.03015e-05
1.00465e-05
9.81144e-06
9.59438e-06
9.39344e-06
9.20714e-06
9.03432e-06
8.87402e-06
8.72547e-06
8.58797e-06
8.4609e-06
8.34365e-06
8.23567e-06
8.13674e-06
8.04784e-06
7.97706e-06
2.03591e-05
2.01015e-05
1.94991e-05
1.88549e-05
1.82215e-05
1.76362e-05
1.71161e-05
1.6658e-05
1.62415e-05
1.58407e-05
1.54378e-05
1.50271e-05
1.46118e-05
1.41976e-05
1.37882e-05
1.33852e-05
1.29898e-05
1.26037e-05
1.22303e-05
1.18723e-05
1.15318e-05
1.12122e-05
1.09154e-05
1.06404e-05
1.03857e-05
1.01499e-05
9.93144e-06
9.7286e-06
9.5399e-06
9.36408e-06
9.2002e-06
9.04749e-06
8.90535e-06
8.77323e-06
8.65063e-06
8.53705e-06
8.43197e-06
8.3351e-06
8.24702e-06
8.17483e-06
2.04761e-05
2.00861e-05
1.94231e-05
1.87658e-05
1.81276e-05
1.75289e-05
1.69873e-05
1.65016e-05
1.60541e-05
1.56229e-05
1.51948e-05
1.47675e-05
1.4346e-05
1.39359e-05
1.35399e-05
1.31583e-05
1.279e-05
1.24347e-05
1.20932e-05
1.17671e-05
1.14579e-05
1.11671e-05
1.08945e-05
1.06404e-05
1.04048e-05
1.01861e-05
9.98272e-06
9.79338e-06
9.61683e-06
9.45197e-06
9.29793e-06
9.15404e-06
9.01978e-06
8.89469e-06
8.77834e-06
8.67026e-06
8.56997e-06
8.47708e-06
8.39177e-06
8.31987e-06
2.08486e-05
2.02443e-05
1.93723e-05
1.86885e-05
1.80572e-05
1.74618e-05
1.69149e-05
1.64155e-05
1.59479e-05
1.54939e-05
1.50442e-05
1.46e-05
1.41679e-05
1.37543e-05
1.33616e-05
1.29892e-05
1.26349e-05
1.22972e-05
1.19752e-05
1.16692e-05
1.13798e-05
1.11076e-05
1.08527e-05
1.06151e-05
1.03938e-05
1.0188e-05
9.99669e-06
9.81859e-06
9.65257e-06
9.49764e-06
9.35296e-06
9.21787e-06
9.09185e-06
8.97445e-06
8.86524e-06
8.76374e-06
8.66945e-06
8.58187e-06
8.50083e-06
8.43069e-06
2.1144e-05
2.01757e-05
1.93509e-05
1.86544e-05
1.802e-05
1.74299e-05
1.68846e-05
1.63798e-05
1.59003e-05
1.54308e-05
1.49654e-05
1.45081e-05
1.40671e-05
1.36491e-05
1.32562e-05
1.28875e-05
1.25401e-05
1.22115e-05
1.19003e-05
1.16058e-05
1.1328e-05
1.1067e-05
1.08228e-05
1.05951e-05
1.03833e-05
1.01864e-05
1.00036e-05
9.83386e-06
9.67611e-06
9.52939e-06
9.39284e-06
9.26577e-06
9.14761e-06
9.03783e-06
8.93596e-06
8.84146e-06
8.75376e-06
8.67226e-06
8.59648e-06
8.52914e-06
2.043e-05
1.99171e-05
1.92842e-05
1.86369e-05
1.80094e-05
1.7423e-05
1.68821e-05
1.63784e-05
1.58943e-05
1.54158e-05
1.49405e-05
1.44753e-05
1.40295e-05
1.36095e-05
1.32172e-05
1.2851e-05
1.25076e-05
1.21843e-05
1.18791e-05
1.15909e-05
1.13194e-05
1.10645e-05
1.08261e-05
1.06039e-05
1.03975e-05
1.02062e-05
1.00292e-05
9.86555e-06
9.71414e-06
9.57405e-06
9.44442e-06
9.32448e-06
9.21357e-06
9.11106e-06
9.01637e-06
8.92887e-06
8.8479e-06
8.77276e-06
8.70273e-06
8.63883e-06
2.04539e-05
1.99242e-05
1.93507e-05
1.87032e-05
1.80523e-05
1.74506e-05
1.6906e-05
1.6402e-05
1.59157e-05
1.5433e-05
1.49534e-05
1.44855e-05
1.40391e-05
1.36204e-05
1.32305e-05
1.28675e-05
1.25279e-05
1.22087e-05
1.19078e-05
1.1624e-05
1.13569e-05
1.11064e-05
1.08724e-05
1.06547e-05
1.04528e-05
1.02661e-05
1.00939e-05
9.93534e-06
9.78948e-06
9.65539e-06
9.53219e-06
9.41902e-06
9.31509e-06
9.21965e-06
9.13199e-06
9.05137e-06
8.97703e-06
8.90816e-06
8.84396e-06
8.78361e-06
2.04083e-05
2.01077e-05
1.95706e-05
1.88772e-05
1.81686e-05
1.75347e-05
1.69795e-05
1.64707e-05
1.59774e-05
1.54863e-05
1.50002e-05
1.45297e-05
1.40846e-05
1.36697e-05
1.32851e-05
1.2928e-05
1.25945e-05
1.22814e-05
1.19864e-05
1.17082e-05
1.14465e-05
1.12011e-05
1.0972e-05
1.0759e-05
1.05619e-05
1.03803e-05
1.02136e-05
1.00609e-05
9.92142e-06
9.79415e-06
9.67813e-06
9.57236e-06
9.4759e-06
9.38786e-06
9.30736e-06
9.23357e-06
9.16564e-06
9.10267e-06
9.04397e-06
8.98668e-06
2.06613e-05
2.02892e-05
1.97314e-05
1.90167e-05
1.82982e-05
1.76676e-05
1.71135e-05
1.65961e-05
1.60882e-05
1.55833e-05
1.50887e-05
1.46158e-05
1.41728e-05
1.37629e-05
1.33846e-05
1.30343e-05
1.27078e-05
1.24018e-05
1.21139e-05
1.18429e-05
1.15884e-05
1.13502e-05
1.11284e-05
1.09229e-05
1.07335e-05
1.056e-05
1.04017e-05
1.02579e-05
1.01275e-05
1.00096e-05
9.90296e-06
9.80641e-06
9.71882e-06
9.6391e-06
9.56624e-06
9.49929e-06
9.43739e-06
9.37958e-06
9.32557e-06
9.27003e-06
2.06909e-05
2.03043e-05
1.96682e-05
1.89976e-05
1.83567e-05
1.77888e-05
1.72634e-05
1.67462e-05
1.62258e-05
1.5709e-05
1.52086e-05
1.47362e-05
1.42981e-05
1.38952e-05
1.3525e-05
1.31832e-05
1.28655e-05
1.25688e-05
1.22907e-05
1.20301e-05
1.17864e-05
1.15595e-05
1.13494e-05
1.11561e-05
1.09794e-05
1.0819e-05
1.06741e-05
1.05438e-05
1.04269e-05
1.03223e-05
1.02284e-05
1.01437e-05
1.0067e-05
9.99691e-06
9.93222e-06
9.87195e-06
9.81528e-06
9.76127e-06
9.71043e-06
9.65428e-06
2.06437e-05
2.01936e-05
1.96024e-05
1.89788e-05
1.84081e-05
1.79036e-05
1.74112e-05
1.69006e-05
1.6376e-05
1.58562e-05
1.53586e-05
1.4894e-05
1.44662e-05
1.40745e-05
1.37154e-05
1.33848e-05
1.30787e-05
1.27944e-05
1.25297e-05
1.22836e-05
1.20554e-05
1.18451e-05
1.16524e-05
1.14773e-05
1.13194e-05
1.11782e-05
1.10526e-05
1.09415e-05
1.08433e-05
1.07564e-05
1.0679e-05
1.06092e-05
1.05453e-05
1.04858e-05
1.04293e-05
1.03749e-05
1.03219e-05
1.02693e-05
1.02192e-05
1.01588e-05
2.09508e-05
2.02941e-05
1.96393e-05
1.90223e-05
1.84985e-05
1.80376e-05
1.75687e-05
1.70653e-05
1.65438e-05
1.60314e-05
1.55473e-05
1.50999e-05
1.46906e-05
1.43167e-05
1.39744e-05
1.36601e-05
1.33706e-05
1.31036e-05
1.28576e-05
1.26315e-05
1.24248e-05
1.22371e-05
1.20683e-05
1.19178e-05
1.17851e-05
1.16691e-05
1.15686e-05
1.14819e-05
1.1407e-05
1.13417e-05
1.12836e-05
1.12306e-05
1.11804e-05
1.11314e-05
1.10821e-05
1.10315e-05
1.09795e-05
1.0925e-05
1.08723e-05
1.08028e-05
2.06753e-05
2.03973e-05
1.97975e-05
1.91912e-05
1.86879e-05
1.82353e-05
1.77653e-05
1.72599e-05
1.67439e-05
1.62478e-05
1.57885e-05
1.53705e-05
1.49911e-05
1.4646e-05
1.4331e-05
1.40428e-05
1.3779e-05
1.3538e-05
1.33185e-05
1.31198e-05
1.29415e-05
1.2783e-05
1.2644e-05
1.25237e-05
1.24212e-05
1.23351e-05
1.22635e-05
1.22044e-05
1.21552e-05
1.2113e-05
1.2075e-05
1.20386e-05
1.20013e-05
1.19611e-05
1.19165e-05
1.18667e-05
1.18119e-05
1.17513e-05
1.1692e-05
1.16079e-05
2.06971e-05
2.0527e-05
1.98974e-05
1.93545e-05
1.89044e-05
1.84651e-05
1.79886e-05
1.74821e-05
1.69815e-05
1.65167e-05
1.60995e-05
1.57285e-05
1.53974e-05
1.50995e-05
1.48295e-05
1.45841e-05
1.43611e-05
1.4159e-05
1.3977e-05
1.38147e-05
1.36717e-05
1.35479e-05
1.34427e-05
1.33555e-05
1.32851e-05
1.32296e-05
1.3187e-05
1.31551e-05
1.31305e-05
1.31099e-05
1.309e-05
1.30678e-05
1.30408e-05
1.30064e-05
1.29632e-05
1.29105e-05
1.28492e-05
1.27787e-05
1.2709e-05
1.26061e-05
2.06618e-05
2.04844e-05
1.99726e-05
1.95617e-05
1.9173e-05
1.87363e-05
1.82483e-05
1.77486e-05
1.72808e-05
1.68693e-05
1.65181e-05
1.62199e-05
1.59637e-05
1.57396e-05
1.55406e-05
1.53615e-05
1.51994e-05
1.50524e-05
1.49198e-05
1.48017e-05
1.46987e-05
1.46113e-05
1.45397e-05
1.44836e-05
1.44421e-05
1.44137e-05
1.43958e-05
1.43867e-05
1.4383e-05
1.43801e-05
1.43743e-05
1.43627e-05
1.43432e-05
1.43123e-05
1.4268e-05
1.42101e-05
1.41401e-05
1.40575e-05
1.39753e-05
1.38518e-05
2.0609e-05
2.05001e-05
2.02941e-05
2.0015e-05
1.95929e-05
1.91003e-05
1.85922e-05
1.81178e-05
1.77114e-05
1.73846e-05
1.71316e-05
1.69392e-05
1.67917e-05
1.66735e-05
1.6575e-05
1.64873e-05
1.64056e-05
1.63276e-05
1.62521e-05
1.61807e-05
1.61163e-05
1.6061e-05
1.6017e-05
1.59853e-05
1.59658e-05
1.5958e-05
1.5959e-05
1.59666e-05
1.59808e-05
1.59935e-05
1.59984e-05
1.59956e-05
1.5984e-05
1.59573e-05
1.59121e-05
1.58494e-05
1.57711e-05
1.56771e-05
1.55821e-05
1.54391e-05
2.11181e-05
2.07352e-05
2.06319e-05
2.0407e-05
1.99859e-05
1.95166e-05
1.90719e-05
1.86947e-05
1.84101e-05
1.82183e-05
1.81048e-05
1.80562e-05
1.80529e-05
1.80654e-05
1.80901e-05
1.81089e-05
1.81147e-05
1.81096e-05
1.809e-05
1.80583e-05
1.80245e-05
1.79931e-05
1.79687e-05
1.79547e-05
1.79527e-05
1.7959e-05
1.79786e-05
1.80078e-05
1.80402e-05
1.80709e-05
1.80932e-05
1.80999e-05
1.80952e-05
1.80775e-05
1.8037e-05
1.79716e-05
1.78867e-05
1.77827e-05
1.7674e-05
1.75133e-05
2.09836e-05
2.08113e-05
2.07991e-05
2.06747e-05
2.0393e-05
2.01092e-05
1.98743e-05
1.97091e-05
1.96351e-05
1.96436e-05
1.97024e-05
1.98293e-05
1.99827e-05
2.0139e-05
2.02825e-05
2.03998e-05
2.04844e-05
2.05361e-05
2.05578e-05
2.05578e-05
2.05508e-05
2.054e-05
2.0537e-05
2.0542e-05
2.05611e-05
2.05984e-05
2.06481e-05
2.07064e-05
2.07675e-05
2.08252e-05
2.08714e-05
2.08975e-05
2.08996e-05
2.0889e-05
2.08551e-05
2.07846e-05
2.06891e-05
2.05703e-05
2.0441e-05
2.02576e-05
2.12472e-05
2.10197e-05
2.10544e-05
2.10969e-05
2.11426e-05
2.12349e-05
2.13903e-05
2.15732e-05
2.179e-05
2.20397e-05
2.23116e-05
2.25981e-05
2.28812e-05
2.31445e-05
2.33746e-05
2.35619e-05
2.37025e-05
2.3799e-05
2.38594e-05
2.38957e-05
2.39217e-05
2.39486e-05
2.39853e-05
2.40366e-05
2.41052e-05
2.41898e-05
2.42863e-05
2.43882e-05
2.44862e-05
2.45737e-05
2.464e-05
2.46761e-05
2.46778e-05
2.46597e-05
2.4607e-05
2.45097e-05
2.43822e-05
2.42271e-05
2.40549e-05
2.38291e-05
2.08428e-05
2.15279e-05
2.17714e-05
2.21631e-05
2.27961e-05
2.35473e-05
2.42782e-05
2.49101e-05
2.54484e-05
2.59183e-05
2.63384e-05
2.67218e-05
2.70746e-05
2.73964e-05
2.76821e-05
2.79251e-05
2.81223e-05
2.82773e-05
2.83985e-05
2.84989e-05
2.85916e-05
2.86877e-05
2.8794e-05
2.89132e-05
2.90444e-05
2.91832e-05
2.93226e-05
2.94527e-05
2.95596e-05
2.96419e-05
2.96838e-05
2.96781e-05
2.96401e-05
2.95512e-05
2.94144e-05
2.92375e-05
2.90271e-05
2.87876e-05
2.8529e-05
2.82223e-05
2.14991e-05
2.28037e-05
2.37894e-05
2.50314e-05
2.65697e-05
2.81241e-05
2.94319e-05
3.0436e-05
3.11862e-05
3.17653e-05
3.22411e-05
3.26644e-05
3.30672e-05
3.34572e-05
3.38275e-05
3.41618e-05
3.44508e-05
3.46947e-05
3.48987e-05
3.50744e-05
3.5234e-05
3.53861e-05
3.5534e-05
3.56782e-05
3.58154e-05
3.59375e-05
3.60341e-05
3.60945e-05
3.60954e-05
3.60639e-05
3.59765e-05
3.58151e-05
3.56002e-05
3.5334e-05
3.50232e-05
3.46764e-05
3.43028e-05
3.39081e-05
3.35041e-05
3.30706e-05
2.35154e-05
2.62099e-05
2.88588e-05
3.16937e-05
3.42478e-05
3.6249e-05
3.77076e-05
3.87582e-05
3.95476e-05
4.01944e-05
4.07676e-05
4.13174e-05
4.18726e-05
4.24133e-05
4.29121e-05
4.33291e-05
4.36582e-05
4.39043e-05
4.40715e-05
4.418e-05
4.42459e-05
4.42786e-05
4.42766e-05
4.42548e-05
4.41991e-05
4.40949e-05
4.39355e-05
4.37133e-05
4.34218e-05
4.30669e-05
4.26479e-05
4.21644e-05
4.16312e-05
4.10606e-05
4.04646e-05
3.98537e-05
3.9239e-05
3.86256e-05
3.80302e-05
3.74461e-05
2.79439e-05
3.41208e-05
3.99539e-05
4.4492e-05
4.71888e-05
4.87712e-05
4.9826e-05
5.07499e-05
5.16692e-05
5.2573e-05
5.33936e-05
5.41376e-05
5.48154e-05
5.53297e-05
5.56622e-05
5.57613e-05
5.57001e-05
5.55129e-05
5.51906e-05
5.47995e-05
5.43594e-05
5.38799e-05
5.33619e-05
5.27897e-05
5.21676e-05
5.1495e-05
5.07694e-05
4.99911e-05
4.9163e-05
4.82931e-05
4.73942e-05
4.64809e-05
4.55595e-05
4.46398e-05
4.37321e-05
4.28455e-05
4.19892e-05
4.11675e-05
4.04031e-05
3.97111e-05
3.23059e-05
4.89494e-05
5.87145e-05
6.35411e-05
6.5496e-05
6.66541e-05
6.74048e-05
6.82881e-05
6.92131e-05
6.99481e-05
7.02975e-05
7.02321e-05
6.98778e-05
6.91151e-05
6.81025e-05
6.69391e-05
6.56959e-05
6.44028e-05
6.30815e-05
6.17586e-05
6.04466e-05
5.91469e-05
5.78542e-05
5.65575e-05
5.52508e-05
5.39319e-05
5.26008e-05
5.1261e-05
4.99191e-05
4.85847e-05
4.72686e-05
4.59821e-05
4.47367e-05
4.35411e-05
4.24019e-05
4.13243e-05
4.0313e-05
3.93718e-05
3.8528e-05
3.78197e-05
4.8031e-05
7.6111e-05
8.76427e-05
9.20719e-05
9.16491e-05
8.96611e-05
8.75249e-05
8.5786e-05
8.40653e-05
8.20861e-05
7.97667e-05
7.71803e-05
7.44423e-05
7.1612e-05
6.87781e-05
6.60064e-05
6.33542e-05
6.0855e-05
5.85163e-05
5.63309e-05
5.42823e-05
5.23495e-05
5.05117e-05
4.875e-05
4.70508e-05
4.54061e-05
4.38125e-05
4.22703e-05
4.07824e-05
3.9354e-05
3.79906e-05
3.66973e-05
3.54785e-05
3.43364e-05
3.32719e-05
3.2285e-05
3.13762e-05
3.05482e-05
2.98248e-05
2.92517e-05
0.000103126
0.000132984
0.000130653
0.000119035
0.000101047
8.5681e-05
7.39506e-05
6.53124e-05
5.87657e-05
5.35378e-05
4.91654e-05
4.53982e-05
4.20946e-05
3.9161e-05
3.65425e-05
3.42021e-05
3.21117e-05
3.02448e-05
2.85727e-05
2.70669e-05
2.57001e-05
2.44483e-05
2.32915e-05
2.22135e-05
2.12025e-05
2.02505e-05
1.93523e-05
1.85051e-05
1.77076e-05
1.69594e-05
1.62604e-05
1.56104e-05
1.50088e-05
1.44542e-05
1.39451e-05
1.34795e-05
1.30557e-05
1.26737e-05
1.23418e-05
1.20784e-05
)
;

boundaryField
{
    upperWall
    {
        type            fixedValue;
        value           uniform 0;
    }
    lowerWall
    {
        type            fixedValue;
        value           uniform 0;
    }
    inlet
    {
        type            fixedValue;
        value           uniform 2e-05;
    }
    outlet
    {
        type            inletOutlet;
        inletValue      uniform 0;
        value           nonuniform List<scalar> 
40
(
0
8.47886e-07
1.52177e-06
2.15968e-06
2.79884e-06
3.44407e-06
4.09088e-06
4.73059e-06
5.35144e-06
5.93973e-06
6.48127e-06
6.9631e-06
7.37538e-06
7.71305e-06
7.97706e-06
8.17483e-06
8.31987e-06
8.43069e-06
8.52914e-06
8.63883e-06
8.78361e-06
8.98668e-06
9.27003e-06
9.65428e-06
1.01588e-05
1.08028e-05
1.16079e-05
1.26061e-05
1.38518e-05
1.54391e-05
1.75133e-05
2.02576e-05
2.38291e-05
2.82223e-05
3.30706e-05
3.74461e-05
3.97111e-05
3.78197e-05
2.92517e-05
1.20784e-05
)
;
    }
    frontAndBack
    {
        type            empty;
    }
}


// ************************************************************************* //
