/*--------------------------------*- C++ -*----------------------------------*\
  =========                 |
  \\      /  F ield         | OpenFOAM: The Open Source CFD Toolbox
   \\    /   O peration     | Website:  https://openfoam.org
    \\  /    A nd           | Version:  7
     \\/     M anipulation  |
\*---------------------------------------------------------------------------*/
FoamFile
{
    version     2.0;
    format      ascii;
    class       volScalarField;
    location    "0.01";
    object      rho;
}
// * * * * * * * * * * * * * * * * * * * * * * * * * * * * * * * * * * * * * //

dimensions      [1 -3 0 0 0 0 0];

internalField   nonuniform List<scalar> 
1440
(
1.19772
1.18052
1.16261
1.14325
1.12386
1.1071
1.09286
1.07867
1.06286
1.04683
1.0335
1.0247
1.02017
1.0184
1.01791
1.01784
1.01787
1.01788
1.01786
1.01781
1.01776
1.0177
1.01764
1.01757
1.0175
1.01743
1.01735
1.01727
1.01719
1.0171
1.01701
1.01692
1.01683
1.01674
1.01664
1.01655
1.01645
1.01636
1.01626
1.01616
1.01607
1.01597
1.01587
1.01577
1.01567
1.01558
1.01548
1.01538
1.01528
1.01518
1.01509
1.01499
1.01489
1.01479
1.01469
1.01459
1.0145
1.0144
1.0143
1.0142
1.01411
1.01401
1.01391
1.01381
1.01372
1.01362
1.01352
1.01343
1.01333
1.01324
1.01314
1.01304
1.01295
1.01286
1.01276
1.01267
1.01257
1.01248
1.01239
1.0123
1.0122
1.01211
1.01202
1.01193
1.01184
1.01174
1.01165
1.01156
1.01147
1.01138
1.01129
1.0112
1.01111
1.01102
1.01093
1.01084
1.01075
1.01066
1.01057
1.01049
1.0104
1.01031
1.01022
1.01013
1.01005
1.00996
1.00987
1.00978
1.0097
1.00961
1.00953
1.00944
1.00934
1.00931
1.00912
1.00917
1.00887
1.00896
1.0087
1.00816
1.20632
1.20762
1.20749
1.20504
1.20173
1.19982
1.19947
1.1992
1.19766
1.19475
1.19138
1.18872
1.1874
1.18723
1.18761
1.18804
1.18834
1.18847
1.18851
1.18849
1.18848
1.18848
1.18849
1.18852
1.18855
1.18859
1.18863
1.18868
1.18872
1.18877
1.18882
1.18886
1.18891
1.18896
1.189
1.18905
1.18909
1.18914
1.18919
1.18923
1.18928
1.18932
1.18937
1.18942
1.18946
1.1895
1.18955
1.18959
1.18963
1.18967
1.18971
1.18975
1.18979
1.18983
1.18987
1.18991
1.18994
1.18998
1.19002
1.19005
1.19009
1.19012
1.19015
1.19019
1.19022
1.19025
1.19028
1.19031
1.19034
1.19037
1.1904
1.19043
1.19046
1.19049
1.19051
1.19054
1.19057
1.19059
1.19061
1.19064
1.19066
1.19068
1.19071
1.19073
1.19075
1.19077
1.19079
1.1908
1.19082
1.19084
1.19086
1.19088
1.19089
1.19091
1.19092
1.19094
1.19095
1.19097
1.19098
1.19099
1.19101
1.19102
1.19103
1.19104
1.19105
1.19107
1.19107
1.19108
1.19109
1.1911
1.1911
1.19112
1.19108
1.19116
1.19104
1.19118
1.191
1.19108
1.19106
1.19068
1.20584
1.20542
1.20429
1.20224
1.19999
1.19933
1.2013
1.20496
1.20836
1.21013
1.21015
1.20914
1.2079
1.20686
1.20612
1.2056
1.20522
1.20493
1.20471
1.20455
1.20444
1.20437
1.20433
1.20431
1.2043
1.2043
1.2043
1.2043
1.20431
1.20431
1.20432
1.20432
1.20433
1.20433
1.20434
1.20434
1.20434
1.20435
1.20435
1.20435
1.20435
1.20435
1.20435
1.20436
1.20436
1.20436
1.20436
1.20435
1.20435
1.20435
1.20435
1.20435
1.20435
1.20434
1.20434
1.20434
1.20433
1.20433
1.20433
1.20432
1.20432
1.20431
1.20431
1.2043
1.20429
1.20429
1.20428
1.20427
1.20427
1.20426
1.20425
1.20424
1.20423
1.20422
1.20421
1.20421
1.2042
1.20418
1.20417
1.20416
1.20415
1.20414
1.20413
1.20412
1.2041
1.20409
1.20408
1.20406
1.20405
1.20403
1.20402
1.204
1.20399
1.20397
1.20396
1.20394
1.20392
1.20391
1.20389
1.20387
1.20386
1.20384
1.20382
1.2038
1.20378
1.20376
1.20374
1.20372
1.2037
1.20368
1.20367
1.20364
1.20362
1.20359
1.20358
1.20355
1.20353
1.20351
1.20346
1.20346
1.20584
1.2054
1.20421
1.20207
1.1997
1.19886
1.20069
1.20439
1.20798
1.20992
1.20997
1.20887
1.20746
1.20627
1.20543
1.20486
1.20447
1.20419
1.20398
1.20383
1.20373
1.20366
1.20362
1.20359
1.20357
1.20356
1.20355
1.20354
1.20353
1.20353
1.20352
1.20351
1.2035
1.20349
1.20348
1.20347
1.20346
1.20344
1.20343
1.20342
1.2034
1.20339
1.20338
1.20336
1.20335
1.20333
1.20332
1.2033
1.20328
1.20327
1.20325
1.20323
1.20322
1.2032
1.20318
1.20316
1.20314
1.20313
1.20311
1.20309
1.20307
1.20305
1.20303
1.20301
1.20299
1.20296
1.20294
1.20292
1.2029
1.20288
1.20285
1.20283
1.20281
1.20279
1.20276
1.20274
1.20271
1.20269
1.20266
1.20264
1.20261
1.20259
1.20256
1.20254
1.20251
1.20248
1.20246
1.20243
1.2024
1.20237
1.20235
1.20232
1.20229
1.20226
1.20223
1.2022
1.20217
1.20214
1.20211
1.20208
1.20205
1.20202
1.20199
1.20196
1.20193
1.2019
1.20186
1.20183
1.2018
1.20176
1.20174
1.2017
1.20167
1.20163
1.2016
1.20156
1.20153
1.20151
1.20144
1.20143
1.20584
1.2054
1.20421
1.20206
1.19969
1.19886
1.20071
1.20442
1.20799
1.20988
1.20987
1.20873
1.20731
1.20614
1.20531
1.20476
1.20438
1.20411
1.20391
1.20376
1.20366
1.2036
1.20355
1.20353
1.20351
1.2035
1.20349
1.20348
1.20347
1.20346
1.20346
1.20345
1.20344
1.20343
1.20342
1.2034
1.20339
1.20338
1.20337
1.20335
1.20334
1.20333
1.20331
1.2033
1.20328
1.20327
1.20325
1.20323
1.20322
1.2032
1.20318
1.20317
1.20315
1.20313
1.20311
1.20309
1.20307
1.20305
1.20304
1.20302
1.203
1.20298
1.20295
1.20293
1.20291
1.20289
1.20287
1.20285
1.20282
1.2028
1.20278
1.20276
1.20273
1.20271
1.20268
1.20266
1.20264
1.20261
1.20259
1.20256
1.20253
1.20251
1.20248
1.20246
1.20243
1.2024
1.20237
1.20235
1.20232
1.20229
1.20226
1.20223
1.20221
1.20218
1.20215
1.20212
1.20209
1.20206
1.20203
1.202
1.20197
1.20193
1.2019
1.20187
1.20184
1.20181
1.20177
1.20174
1.20171
1.20167
1.20165
1.20161
1.20158
1.20154
1.20151
1.20147
1.20143
1.20141
1.20135
1.20134
1.20584
1.2054
1.20421
1.20206
1.19968
1.19886
1.20072
1.20445
1.20801
1.20988
1.20986
1.20871
1.20729
1.20612
1.2053
1.20475
1.20438
1.20411
1.20391
1.20376
1.20366
1.20359
1.20355
1.20352
1.2035
1.20349
1.20348
1.20348
1.20347
1.20346
1.20345
1.20344
1.20343
1.20342
1.20341
1.2034
1.20339
1.20338
1.20336
1.20335
1.20334
1.20332
1.20331
1.20329
1.20328
1.20326
1.20325
1.20323
1.20321
1.2032
1.20318
1.20316
1.20315
1.20313
1.20311
1.20309
1.20307
1.20305
1.20303
1.20301
1.20299
1.20297
1.20295
1.20293
1.20291
1.20289
1.20287
1.20285
1.20282
1.2028
1.20278
1.20275
1.20273
1.20271
1.20268
1.20266
1.20263
1.20261
1.20258
1.20256
1.20253
1.20251
1.20248
1.20246
1.20243
1.2024
1.20237
1.20235
1.20232
1.20229
1.20226
1.20223
1.2022
1.20218
1.20215
1.20212
1.20209
1.20206
1.20203
1.202
1.20196
1.20193
1.2019
1.20187
1.20184
1.20181
1.20177
1.20174
1.20171
1.20167
1.20165
1.20161
1.20158
1.20154
1.20151
1.20147
1.20143
1.20141
1.20135
1.20134
1.20584
1.2054
1.20421
1.20206
1.19968
1.19886
1.20073
1.20446
1.20802
1.20988
1.20986
1.2087
1.20729
1.20611
1.20529
1.20475
1.20437
1.2041
1.2039
1.20376
1.20366
1.20359
1.20355
1.20352
1.2035
1.20349
1.20348
1.20347
1.20346
1.20346
1.20345
1.20344
1.20343
1.20342
1.20341
1.2034
1.20339
1.20337
1.20336
1.20335
1.20333
1.20332
1.2033
1.20329
1.20327
1.20326
1.20324
1.20323
1.20321
1.20319
1.20318
1.20316
1.20314
1.20312
1.20311
1.20309
1.20307
1.20305
1.20303
1.20301
1.20299
1.20297
1.20295
1.20293
1.20291
1.20289
1.20286
1.20284
1.20282
1.2028
1.20277
1.20275
1.20273
1.2027
1.20268
1.20266
1.20263
1.20261
1.20258
1.20256
1.20253
1.2025
1.20248
1.20245
1.20243
1.2024
1.20237
1.20234
1.20232
1.20229
1.20226
1.20223
1.2022
1.20217
1.20214
1.20211
1.20208
1.20205
1.20202
1.20199
1.20196
1.20193
1.2019
1.20187
1.20184
1.2018
1.20177
1.20174
1.20171
1.20167
1.20164
1.2016
1.20158
1.20154
1.20151
1.20147
1.20143
1.20141
1.20135
1.20133
1.20584
1.2054
1.20421
1.20206
1.19968
1.19886
1.20072
1.20444
1.20801
1.20988
1.20987
1.20871
1.2073
1.20612
1.2053
1.20475
1.20437
1.2041
1.2039
1.20376
1.20366
1.20359
1.20355
1.20352
1.2035
1.20349
1.20348
1.20347
1.20346
1.20345
1.20345
1.20344
1.20343
1.20342
1.20341
1.2034
1.20338
1.20337
1.20336
1.20334
1.20333
1.20332
1.2033
1.20329
1.20327
1.20326
1.20324
1.20323
1.20321
1.20319
1.20318
1.20316
1.20314
1.20312
1.2031
1.20309
1.20307
1.20305
1.20303
1.20301
1.20299
1.20297
1.20295
1.20293
1.20291
1.20288
1.20286
1.20284
1.20282
1.2028
1.20277
1.20275
1.20273
1.2027
1.20268
1.20265
1.20263
1.2026
1.20258
1.20255
1.20253
1.2025
1.20248
1.20245
1.20242
1.2024
1.20237
1.20234
1.20231
1.20229
1.20226
1.20223
1.2022
1.20217
1.20214
1.20211
1.20208
1.20205
1.20202
1.20199
1.20196
1.20193
1.2019
1.20187
1.20183
1.2018
1.20177
1.20174
1.2017
1.20167
1.20164
1.2016
1.20157
1.20153
1.20151
1.20147
1.20143
1.20141
1.20134
1.20133
1.20584
1.2054
1.20421
1.20206
1.19969
1.19886
1.2007
1.2044
1.20798
1.20988
1.20988
1.20874
1.20732
1.20613
1.2053
1.20475
1.20437
1.2041
1.2039
1.20375
1.20365
1.20359
1.20354
1.20352
1.2035
1.20349
1.20348
1.20347
1.20346
1.20345
1.20345
1.20344
1.20343
1.20342
1.20341
1.20339
1.20338
1.20337
1.20336
1.20334
1.20333
1.20332
1.2033
1.20329
1.20327
1.20326
1.20324
1.20322
1.20321
1.20319
1.20317
1.20316
1.20314
1.20312
1.2031
1.20308
1.20307
1.20305
1.20303
1.20301
1.20299
1.20297
1.20295
1.20293
1.2029
1.20288
1.20286
1.20284
1.20282
1.20279
1.20277
1.20275
1.20272
1.2027
1.20268
1.20265
1.20263
1.2026
1.20258
1.20255
1.20253
1.2025
1.20248
1.20245
1.20242
1.2024
1.20237
1.20234
1.20231
1.20228
1.20226
1.20223
1.2022
1.20217
1.20214
1.20211
1.20208
1.20205
1.20202
1.20199
1.20196
1.20193
1.2019
1.20186
1.20183
1.2018
1.20177
1.20174
1.2017
1.20167
1.20164
1.2016
1.20157
1.20153
1.2015
1.20147
1.20143
1.20141
1.20134
1.20133
1.20584
1.2054
1.20421
1.20207
1.1997
1.19887
1.20067
1.20433
1.2079
1.20985
1.20991
1.2088
1.20737
1.20617
1.20532
1.20476
1.20438
1.2041
1.2039
1.20375
1.20365
1.20359
1.20354
1.20352
1.2035
1.20349
1.20348
1.20347
1.20346
1.20345
1.20344
1.20344
1.20343
1.20342
1.20341
1.20339
1.20338
1.20337
1.20336
1.20334
1.20333
1.20332
1.2033
1.20329
1.20327
1.20326
1.20324
1.20322
1.20321
1.20319
1.20317
1.20316
1.20314
1.20312
1.2031
1.20308
1.20307
1.20305
1.20303
1.20301
1.20299
1.20297
1.20295
1.20293
1.2029
1.20288
1.20286
1.20284
1.20282
1.20279
1.20277
1.20275
1.20272
1.2027
1.20268
1.20265
1.20263
1.2026
1.20258
1.20255
1.20253
1.2025
1.20247
1.20245
1.20242
1.20239
1.20237
1.20234
1.20231
1.20228
1.20226
1.20223
1.2022
1.20217
1.20214
1.20211
1.20208
1.20205
1.20202
1.20199
1.20196
1.20193
1.2019
1.20186
1.20183
1.2018
1.20177
1.20174
1.2017
1.20167
1.20164
1.2016
1.20157
1.20153
1.2015
1.20147
1.20143
1.20141
1.20134
1.20133
1.20584
1.20541
1.20421
1.20205
1.1997
1.19895
1.20079
1.20434
1.20772
1.20953
1.20957
1.20852
1.20717
1.20603
1.20523
1.20469
1.20433
1.20407
1.20388
1.20374
1.20365
1.20359
1.20355
1.20352
1.2035
1.20349
1.20348
1.20347
1.20347
1.20346
1.20345
1.20344
1.20343
1.20342
1.20341
1.2034
1.20338
1.20337
1.20336
1.20334
1.20333
1.20332
1.2033
1.20329
1.20327
1.20325
1.20324
1.20322
1.20321
1.20319
1.20317
1.20315
1.20314
1.20312
1.2031
1.20308
1.20306
1.20304
1.20302
1.203
1.20298
1.20296
1.20294
1.20292
1.2029
1.20288
1.20285
1.20283
1.20281
1.20279
1.20276
1.20274
1.20272
1.20269
1.20267
1.20264
1.20262
1.20259
1.20257
1.20254
1.20252
1.20249
1.20247
1.20244
1.20241
1.20238
1.20236
1.20233
1.2023
1.20227
1.20225
1.20222
1.20219
1.20216
1.20213
1.2021
1.20207
1.20204
1.20201
1.20198
1.20195
1.20192
1.20189
1.20185
1.20182
1.20179
1.20176
1.20173
1.20169
1.20166
1.20163
1.20159
1.20156
1.20152
1.20149
1.20146
1.20142
1.2014
1.20134
1.20133
1.20585
1.20544
1.20412
1.20188
1.20005
1.20044
1.203
1.20586
1.20736
1.20732
1.2065
1.20561
1.20495
1.20451
1.20422
1.20402
1.20387
1.20377
1.20369
1.20364
1.2036
1.20358
1.20356
1.20354
1.20353
1.20352
1.20351
1.2035
1.20348
1.20347
1.20346
1.20345
1.20343
1.20342
1.2034
1.20339
1.20337
1.20336
1.20334
1.20332
1.20331
1.20329
1.20327
1.20325
1.20323
1.20322
1.2032
1.20318
1.20316
1.20314
1.20312
1.2031
1.20308
1.20306
1.20304
1.20302
1.203
1.20298
1.20295
1.20293
1.20291
1.20289
1.20286
1.20284
1.20282
1.2028
1.20277
1.20275
1.20272
1.2027
1.20267
1.20265
1.20262
1.2026
1.20257
1.20255
1.20252
1.2025
1.20247
1.20244
1.20242
1.20239
1.20236
1.20233
1.20231
1.20228
1.20225
1.20222
1.20219
1.20217
1.20214
1.20211
1.20208
1.20205
1.20202
1.20199
1.20196
1.20193
1.2019
1.20187
1.20184
1.20181
1.20177
1.20174
1.20171
1.20168
1.20165
1.20161
1.20158
1.20155
1.20152
1.20148
1.20145
1.20142
1.20139
1.20135
1.20132
1.20128
1.20123
1.20123
)
;

boundaryField
{
    upperWall
    {
        type            calculated;
        value           nonuniform List<scalar> 
120
(
1.20571
1.20571
1.2057
1.2057
1.20569
1.20569
1.20568
1.20568
1.20567
1.20566
1.20565
1.20564
1.20564
1.20563
1.20562
1.20561
1.2056
1.20559
1.20558
1.20557
1.20556
1.20555
1.20554
1.20552
1.20551
1.2055
1.20548
1.20547
1.20546
1.20544
1.20542
1.20541
1.20539
1.20538
1.20536
1.20534
1.20532
1.2053
1.20529
1.20527
1.20525
1.20523
1.20521
1.20518
1.20516
1.20514
1.20512
1.2051
1.20507
1.20505
1.20503
1.205
1.20498
1.20495
1.20493
1.2049
1.20487
1.20485
1.20482
1.20479
1.20476
1.20473
1.20471
1.20468
1.20465
1.20462
1.20459
1.20455
1.20452
1.20449
1.20446
1.20443
1.20439
1.20436
1.20433
1.20429
1.20426
1.20422
1.20419
1.20415
1.20412
1.20408
1.20404
1.20401
1.20397
1.20393
1.20389
1.20385
1.20382
1.20378
1.20374
1.2037
1.20366
1.20361
1.20357
1.20353
1.20349
1.20345
1.20341
1.20336
1.20332
1.20328
1.20323
1.20319
1.20314
1.2031
1.20305
1.20301
1.20296
1.20291
1.20287
1.20282
1.20277
1.20273
1.20268
1.20263
1.20258
1.20253
1.20248
1.20243
)
;
    }
    lowerWall
    {
        type            calculated;
        value           nonuniform List<scalar> 
120
(
0.474507
0.66176
0.770276
0.822403
0.840202
0.847525
0.850751
0.84845
0.840521
0.830144
0.820618
0.813735
0.810053
0.808394
0.807803
0.807544
0.807372
0.807237
0.807115
0.806997
0.806885
0.806783
0.806686
0.80659
0.806494
0.806398
0.806302
0.806205
0.806107
0.806008
0.805908
0.805807
0.805705
0.805603
0.8055
0.805396
0.805293
0.805188
0.805084
0.80498
0.804876
0.804772
0.804667
0.804563
0.804459
0.804356
0.804252
0.804149
0.804045
0.803943
0.80384
0.803737
0.803635
0.803533
0.803431
0.803329
0.803227
0.803126
0.803025
0.802925
0.802824
0.802724
0.802624
0.802524
0.802426
0.802327
0.802228
0.802131
0.802033
0.801936
0.80184
0.801744
0.801649
0.801554
0.80146
0.801366
0.801273
0.80118
0.801088
0.800997
0.800906
0.800815
0.800725
0.800636
0.800547
0.800458
0.800371
0.800283
0.800196
0.80011
0.800024
0.799939
0.799854
0.799769
0.799685
0.799602
0.799519
0.799437
0.799355
0.799274
0.799194
0.799114
0.799035
0.798957
0.798878
0.798802
0.798724
0.798648
0.798572
0.798495
0.798421
0.798348
0.798253
0.798223
0.798054
0.798095
0.797831
0.79788
0.79773
0.797169
)
;
    }
    inlet
    {
        type            calculated;
        value           nonuniform List<scalar> 
12
(
1.20571
1.20571
1.2057
1.2057
1.2057
1.2057
1.2057
1.2057
1.2057
1.2057
1.20571
1.20571
)
;
    }
    outlet
    {
        type            calculated;
        value           nonuniform List<scalar> 
12
(
1.00813
1.19065
1.20344
1.20141
1.20131
1.20131
1.20131
1.20131
1.20131
1.20131
1.2013
1.2012
)
;
    }
    frontAndBack
    {
        type            empty;
    }
}


// ************************************************************************* //
