/*--------------------------------*- C++ -*----------------------------------*\
  =========                 |
  \\      /  F ield         | OpenFOAM: The Open Source CFD Toolbox
   \\    /   O peration     | Website:  https://openfoam.org
    \\  /    A nd           | Version:  7
     \\/     M anipulation  |
\*---------------------------------------------------------------------------*/
FoamFile
{
    version     2.0;
    format      ascii;
    class       volVectorField;
    location    "0.03";
    object      U;
}
// * * * * * * * * * * * * * * * * * * * * * * * * * * * * * * * * * * * * * //

dimensions      [0 1 -1 0 0 0 0];

internalField   nonuniform List<vector> 
1440
(
(11.9935 0.0450368 0)
(11.9512 0.153768 0)
(11.8158 0.246379 0)
(11.587 0.317538 0)
(11.2878 0.369153 0)
(10.9415 0.401799 0)
(10.5666 0.416994 0)
(10.1748 0.417545 0)
(9.77739 0.407615 0)
(9.38278 0.3912 0)
(9.0004 0.369704 0)
(8.63322 0.344996 0)
(8.28312 0.317622 0)
(7.95302 0.288776 0)
(7.64421 0.260104 0)
(7.35719 0.232481 0)
(7.09207 0.206377 0)
(6.84833 0.182036 0)
(6.62529 0.159612 0)
(6.42193 0.139162 0)
(6.23718 0.120654 0)
(6.06987 0.103993 0)
(5.91877 0.0890484 0)
(5.7827 0.0756716 0)
(5.66044 0.0637152 0)
(5.55085 0.0530367 0)
(5.45281 0.0435162 0)
(5.3652 0.0350928 0)
(5.28697 0.027765 0)
(5.21711 0.0215404 0)
(5.1547 0.0163922 0)
(5.09884 0.0122491 0)
(5.04874 0.00896048 0)
(5.00375 0.00626443 0)
(4.96341 0.00381989 0)
(4.92732 0.00130593 0)
(4.89504 -0.00142051 0)
(4.8661 -0.00423604 0)
(4.84008 -0.00681562 0)
(4.81658 -0.00881884 0)
(4.79522 -0.0100562 0)
(4.7756 -0.0105187 0)
(4.75729 -0.0103056 0)
(4.73988 -0.00955164 0)
(4.723 -0.00839001 0)
(4.70641 -0.0069299 0)
(4.68993 -0.00526183 0)
(4.67351 -0.00348126 0)
(4.65715 -0.00169975 0)
(4.64092 -3.16762e-05 0)
(4.62494 0.00143191 0)
(4.60937 0.00264565 0)
(4.59434 0.00361756 0)
(4.57999 0.00440087 0)
(4.56642 0.00507608 0)
(4.55364 0.00573101 0)
(4.54164 0.00644444 0)
(4.53035 0.00727641 0)
(4.51967 0.00826366 0)
(4.50948 0.00941752 0)
(4.49965 0.0107241 0)
(4.49003 0.0121481 0)
(4.48049 0.0136401 0)
(4.47095 0.015147 0)
(4.46137 0.0166211 0)
(4.45174 0.0180244 0)
(4.44209 0.0193302 0)
(4.43249 0.0205195 0)
(4.42298 0.0215789 0)
(4.41366 0.0224983 0)
(4.40463 0.02327 0)
(4.396 0.0238901 0)
(4.38789 0.0243589 0)
(4.3804 0.0246794 0)
(4.37362 0.0248568 0)
(4.36759 0.0248971 0)
(4.36237 0.024809 0)
(4.35799 0.0246063 0)
(4.35449 0.0243076 0)
(4.35189 0.0239369 0)
(4.3502 0.0235229 0)
(4.34936 0.0230928 0)
(4.34925 0.0226749 0)
(4.34971 0.0223012 0)
(4.35052 0.0220007 0)
(4.35145 0.0217945 0)
(4.35229 0.0216931 0)
(4.35286 0.021688 0)
(4.35309 0.021748 0)
(4.353 0.0218277 0)
(4.35267 0.0218873 0)
(4.35224 0.0219081 0)
(4.35183 0.0218977 0)
(4.35154 0.0218838 0)
(4.3514 0.0219022 0)
(4.35142 0.0219798 0)
(4.35155 0.0221264 0)
(4.35173 0.0223314 0)
(4.35189 0.0225706 0)
(4.35199 0.0228107 0)
(4.35198 0.0230249 0)
(4.35186 0.0231924 0)
(4.35161 0.0233044 0)
(4.35124 0.0233573 0)
(4.35078 0.0233594 0)
(4.35027 0.0233176 0)
(4.34973 0.0232479 0)
(4.34923 0.0231556 0)
(4.34875 0.0230592 0)
(4.3484 0.0229518 0)
(4.34811 0.0228608 0)
(4.34799 0.0227531 0)
(4.34795 0.0226819 0)
(4.34812 0.022572 0)
(4.34829 0.0225145 0)
(4.34889 0.022371 0)
(4.34904 0.0223167 0)
(4.35068 0.0219304 0)
(4.35025 0.0220095 0)
(4.35382 0.02069 0)
(12.0029 0.0591405 0)
(12.0464 0.157207 0)
(12.1199 0.234024 0)
(12.2108 0.297599 0)
(12.3082 0.35309 0)
(12.404 0.400684 0)
(12.4923 0.439144 0)
(12.5683 0.468389 0)
(12.6288 0.489254 0)
(12.6721 0.503039 0)
(12.6976 0.510023 0)
(12.7062 0.510503 0)
(12.7001 0.505199 0)
(12.6815 0.495152 0)
(12.6522 0.481443 0)
(12.6138 0.465027 0)
(12.5681 0.446659 0)
(12.5164 0.426973 0)
(12.4601 0.406504 0)
(12.4003 0.385696 0)
(12.338 0.364963 0)
(12.274 0.344582 0)
(12.209 0.324773 0)
(12.1435 0.3057 0)
(12.078 0.287474 0)
(12.0129 0.270159 0)
(11.9483 0.253793 0)
(11.8846 0.238398 0)
(11.8219 0.223997 0)
(11.7604 0.210613 0)
(11.7001 0.198265 0)
(11.6412 0.186957 0)
(11.5835 0.176678 0)
(11.5273 0.167392 0)
(11.4725 0.159013 0)
(11.4191 0.151412 0)
(11.367 0.144457 0)
(11.3163 0.138052 0)
(11.2667 0.132168 0)
(11.2182 0.126839 0)
(11.1708 0.122128 0)
(11.1245 0.118074 0)
(11.0792 0.114665 0)
(11.0349 0.111858 0)
(10.9914 0.109579 0)
(10.9484 0.10774 0)
(10.906 0.106247 0)
(10.8641 0.104995 0)
(10.8225 0.103869 0)
(10.7813 0.102752 0)
(10.7404 0.101545 0)
(10.6999 0.100173 0)
(10.6599 0.0986046 0)
(10.6205 0.0968553 0)
(10.5817 0.0949749 0)
(10.5436 0.0930208 0)
(10.5063 0.0910373 0)
(10.4699 0.0890561 0)
(10.4345 0.0871162 0)
(10.4003 0.0852775 0)
(10.3672 0.0836073 0)
(10.3352 0.0821452 0)
(10.3043 0.0808789 0)
(10.2745 0.0797517 0)
(10.2458 0.0786965 0)
(10.2182 0.0776652 0)
(10.1917 0.0766327 0)
(10.1664 0.0755759 0)
(10.1422 0.07445 0)
(10.1192 0.0731886 0)
(10.0976 0.0717299 0)
(10.0775 0.0700498 0)
(10.059 0.0681743 0)
(10.0423 0.0661627 0)
(10.0273 0.0640764 0)
(10.0143 0.0619517 0)
(10.0031 0.059791 0)
(9.99397 0.0575792 0)
(9.98682 0.0553187 0)
(9.98165 0.0530627 0)
(9.97839 0.0509245 0)
(9.97687 0.0490572 0)
(9.97683 0.0476171 0)
(9.97794 0.0467275 0)
(9.97979 0.0464474 0)
(9.98197 0.0467458 0)
(9.98405 0.0474853 0)
(9.98575 0.0484431 0)
(9.98689 0.0493847 0)
(9.98748 0.0501273 0)
(9.98765 0.0505638 0)
(9.98762 0.0506732 0)
(9.98762 0.0505079 0)
(9.98781 0.0501617 0)
(9.98822 0.0497339 0)
(9.9888 0.0493046 0)
(9.98946 0.0489261 0)
(9.99007 0.0486285 0)
(9.99053 0.0484274 0)
(9.9908 0.0483304 0)
(9.99085 0.0483383 0)
(9.99072 0.0484392 0)
(9.99044 0.0486132 0)
(9.99007 0.0488264 0)
(9.98966 0.0490485 0)
(9.98929 0.0492397 0)
(9.98898 0.0493812 0)
(9.9888 0.0494444 0)
(9.98874 0.0494416 0)
(9.98889 0.049352 0)
(9.98915 0.049229 0)
(9.98971 0.0490256 0)
(9.99026 0.0488561 0)
(9.99128 0.0485694 0)
(9.99196 0.0484322 0)
(9.99354 0.0480016 0)
(9.99411 0.0479797 0)
(9.99654 0.0471255 0)
(9.99674 0.0472797 0)
(10.0001 0.0454055 0)
(12.001 0.0314509 0)
(12.0215 0.0913819 0)
(12.0625 0.145543 0)
(12.122 0.193462 0)
(12.1965 0.235905 0)
(12.2833 0.272949 0)
(12.3806 0.303923 0)
(12.4859 0.328079 0)
(12.5964 0.345253 0)
(12.7089 0.355487 0)
(12.8205 0.359658 0)
(12.9294 0.358967 0)
(13.0347 0.354408 0)
(13.1354 0.346714 0)
(13.2305 0.336545 0)
(13.3196 0.324554 0)
(13.4023 0.31135 0)
(13.4784 0.297453 0)
(13.548 0.283293 0)
(13.6114 0.269208 0)
(13.6688 0.255458 0)
(13.7205 0.242226 0)
(13.7669 0.229636 0)
(13.8084 0.217762 0)
(13.8453 0.206645 0)
(13.878 0.196301 0)
(13.9067 0.186732 0)
(13.9319 0.177941 0)
(13.9539 0.169943 0)
(13.9728 0.16275 0)
(13.9892 0.156363 0)
(14.0032 0.150761 0)
(14.0151 0.145898 0)
(14.0253 0.141697 0)
(14.0338 0.138026 0)
(14.0407 0.134739 0)
(14.0462 0.131733 0)
(14.0502 0.128998 0)
(14.0529 0.126612 0)
(14.0544 0.12469 0)
(14.0549 0.123322 0)
(14.0545 0.122534 0)
(14.0533 0.122267 0)
(14.0515 0.122401 0)
(14.0489 0.122809 0)
(14.0458 0.123385 0)
(14.0421 0.124042 0)
(14.0378 0.124699 0)
(14.033 0.125269 0)
(14.0278 0.125665 0)
(14.022 0.125808 0)
(14.0157 0.125637 0)
(14.0089 0.125134 0)
(14.0015 0.124331 0)
(13.9936 0.123291 0)
(13.9853 0.122087 0)
(13.9765 0.12077 0)
(13.9674 0.119377 0)
(13.9581 0.117943 0)
(13.9485 0.116517 0)
(13.9388 0.115151 0)
(13.9289 0.113873 0)
(13.9191 0.112662 0)
(13.9093 0.111457 0)
(13.8996 0.110185 0)
(13.8901 0.10879 0)
(13.8808 0.107247 0)
(13.8717 0.105546 0)
(13.863 0.103677 0)
(13.8545 0.101618 0)
(13.8465 0.0993342 0)
(13.8387 0.0967918 0)
(13.8313 0.0939759 0)
(13.8242 0.0909031 0)
(13.8173 0.0876206 0)
(13.8108 0.08419 0)
(13.8048 0.0806652 0)
(13.7993 0.0770832 0)
(13.7943 0.0734824 0)
(13.7897 0.0699327 0)
(13.7856 0.0665391 0)
(13.7819 0.0634115 0)
(13.7787 0.0606488 0)
(13.776 0.0583595 0)
(13.774 0.0566676 0)
(13.7727 0.0556732 0)
(13.7721 0.0553934 0)
(13.7723 0.0557019 0)
(13.7731 0.0563117 0)
(13.7746 0.0568491 0)
(13.7768 0.0570029 0)
(13.7796 0.0566545 0)
(13.7832 0.0559168 0)
(13.7875 0.055063 0)
(13.7923 0.0543949 0)
(13.7974 0.0541215 0)
(13.8026 0.0543091 0)
(13.8077 0.0548914 0)
(13.8124 0.055727 0)
(13.8165 0.056649 0)
(13.8199 0.0575136 0)
(13.8226 0.0582118 0)
(13.8245 0.0586846 0)
(13.8258 0.0589054 0)
(13.8265 0.0588887 0)
(13.8268 0.0586643 0)
(13.8269 0.058292 0)
(13.8271 0.0578174 0)
(13.8273 0.0573118 0)
(13.828 0.056792 0)
(13.8289 0.0563273 0)
(13.8305 0.055871 0)
(13.8322 0.0555279 0)
(13.8348 0.0551366 0)
(13.837 0.0549315 0)
(13.8407 0.0545011 0)
(13.8429 0.054406 0)
(13.8478 0.0537045 0)
(13.8492 0.0536262 0)
(13.8558 0.052232 0)
(12.0009 0.0223265 0)
(12.019 0.0659428 0)
(12.0549 0.106486 0)
(12.1074 0.142382 0)
(12.1734 0.173232 0)
(12.2505 0.199226 0)
(12.3364 0.220441 0)
(12.4297 0.236767 0)
(12.5284 0.248282 0)
(12.6307 0.255454 0)
(12.7349 0.259173 0)
(12.8397 0.260342 0)
(12.944 0.259581 0)
(13.0469 0.257257 0)
(13.1476 0.253645 0)
(13.2454 0.249017 0)
(13.3398 0.243644 0)
(13.4303 0.237762 0)
(13.5168 0.231558 0)
(13.5991 0.225174 0)
(13.6771 0.218721 0)
(13.751 0.212288 0)
(13.8209 0.205938 0)
(13.8868 0.199725 0)
(13.9491 0.193689 0)
(14.0078 0.187862 0)
(14.0633 0.182273 0)
(14.1156 0.176952 0)
(14.1651 0.171936 0)
(14.2119 0.167257 0)
(14.2563 0.162928 0)
(14.2984 0.158943 0)
(14.3386 0.155268 0)
(14.3771 0.151849 0)
(14.4138 0.148625 0)
(14.449 0.145549 0)
(14.4828 0.142613 0)
(14.5153 0.139861 0)
(14.5465 0.137367 0)
(14.5765 0.135198 0)
(14.6055 0.133379 0)
(14.6335 0.131898 0)
(14.6607 0.130722 0)
(14.6872 0.129799 0)
(14.7131 0.129088 0)
(14.7385 0.128555 0)
(14.7634 0.128155 0)
(14.788 0.127827 0)
(14.8123 0.1275 0)
(14.8361 0.127111 0)
(14.8596 0.126614 0)
(14.8827 0.125983 0)
(14.9052 0.125206 0)
(14.9273 0.124284 0)
(14.9488 0.123224 0)
(14.9697 0.122043 0)
(14.99 0.120763 0)
(15.0098 0.119407 0)
(15.0289 0.118007 0)
(15.0475 0.1166 0)
(15.0656 0.115221 0)
(15.0832 0.113891 0)
(15.1003 0.11261 0)
(15.1172 0.111356 0)
(15.1336 0.110091 0)
(15.1497 0.108774 0)
(15.1654 0.107365 0)
(15.1807 0.105836 0)
(15.1957 0.104164 0)
(15.2102 0.102326 0)
(15.2244 0.100301 0)
(15.2381 0.0980805 0)
(15.2514 0.0956686 0)
(15.2642 0.0930744 0)
(15.2763 0.0903161 0)
(15.2879 0.0874245 0)
(15.2989 0.0844345 0)
(15.3092 0.0813745 0)
(15.3189 0.0782694 0)
(15.3279 0.0751628 0)
(15.3364 0.0721406 0)
(15.3442 0.0693298 0)
(15.3517 0.066875 0)
(15.3588 0.0649031 0)
(15.3656 0.0634917 0)
(15.3723 0.062644 0)
(15.3789 0.0622722 0)
(15.3856 0.0622056 0)
(15.3925 0.062233 0)
(15.3997 0.062163 0)
(15.4071 0.061874 0)
(15.4147 0.0613383 0)
(15.4223 0.0606124 0)
(15.4297 0.0598042 0)
(15.4369 0.0590342 0)
(15.4439 0.058406 0)
(15.4505 0.0579932 0)
(15.4571 0.0578453 0)
(15.4637 0.0580012 0)
(15.4706 0.0584888 0)
(15.4778 0.0593096 0)
(15.4853 0.060414 0)
(15.4932 0.0616973 0)
(15.5011 0.0630093 0)
(15.5089 0.0641877 0)
(15.5164 0.0650764 0)
(15.5233 0.0655683 0)
(15.5297 0.0656029 0)
(15.5354 0.0652029 0)
(15.5407 0.0644177 0)
(15.5455 0.0633821 0)
(15.5504 0.0621728 0)
(15.5548 0.0609683 0)
(15.5602 0.0597484 0)
(15.5645 0.0587235 0)
(15.5711 0.0576799 0)
(15.5751 0.0569497 0)
(15.5837 0.0560324 0)
(15.5861 0.0555336 0)
(15.5982 0.0544854 0)
(12.0008 0.0133698 0)
(12.0172 0.0394296 0)
(12.0499 0.0635961 0)
(12.0982 0.084919 0)
(12.1601 0.103094 0)
(12.2331 0.118287 0)
(12.3151 0.130726 0)
(12.4043 0.140521 0)
(12.499 0.147793 0)
(12.5975 0.152813 0)
(12.6984 0.15597 0)
(12.8 0.15761 0)
(12.9013 0.157961 0)
(13.0012 0.157174 0)
(13.099 0.155386 0)
(13.1941 0.152738 0)
(13.286 0.149377 0)
(13.3744 0.145453 0)
(13.4589 0.141112 0)
(13.5397 0.136499 0)
(13.6166 0.131739 0)
(13.6897 0.126937 0)
(13.7591 0.122177 0)
(13.825 0.11753 0)
(13.8875 0.11305 0)
(13.9468 0.108774 0)
(14.0031 0.104728 0)
(14.0567 0.100936 0)
(14.1076 0.0974144 0)
(14.1562 0.0941741 0)
(14.2026 0.0912186 0)
(14.2471 0.0885414 0)
(14.2898 0.0861242 0)
(14.3308 0.0839393 0)
(14.3705 0.0819596 0)
(14.4088 0.0801665 0)
(14.4459 0.0785512 0)
(14.4818 0.0771179 0)
(14.5167 0.0758815 0)
(14.5507 0.0748583 0)
(14.5837 0.0740744 0)
(14.616 0.0735503 0)
(14.6477 0.0732917 0)
(14.6789 0.0733003 0)
(14.7096 0.0735579 0)
(14.74 0.0740221 0)
(14.7702 0.0746328 0)
(14.8001 0.0753226 0)
(14.8298 0.0760249 0)
(14.8593 0.0766813 0)
(14.8886 0.0772468 0)
(14.9177 0.0776939 0)
(14.9465 0.0780062 0)
(14.975 0.0781736 0)
(15.0031 0.0781923 0)
(15.0309 0.0780699 0)
(15.0582 0.0778296 0)
(15.0852 0.0775093 0)
(15.1117 0.0771507 0)
(15.1378 0.0767847 0)
(15.1635 0.0764234 0)
(15.1889 0.076062 0)
(15.2139 0.0756907 0)
(15.2386 0.075302 0)
(15.2629 0.0748892 0)
(15.2868 0.0744334 0)
(15.3103 0.0738916 0)
(15.3335 0.073204 0)
(15.3561 0.072329 0)
(15.3783 0.0712664 0)
(15.3998 0.0700391 0)
(15.4207 0.0686741 0)
(15.4409 0.067184 0)
(15.4604 0.0655533 0)
(15.479 0.0637508 0)
(15.4968 0.061764 0)
(15.5137 0.0596262 0)
(15.5297 0.0574179 0)
(15.5447 0.0552361 0)
(15.5587 0.0531554 0)
(15.5717 0.0512068 0)
(15.5837 0.0493892 0)
(15.595 0.0477152 0)
(15.6057 0.0462546 0)
(15.616 0.0451311 0)
(15.626 0.0444597 0)
(15.6358 0.0442603 0)
(15.6454 0.0444031 0)
(15.6548 0.0446261 0)
(15.664 0.0446337 0)
(15.673 0.0442326 0)
(15.682 0.0434302 0)
(15.691 0.0424377 0)
(15.7001 0.0415774 0)
(15.709 0.0411443 0)
(15.7177 0.041286 0)
(15.7261 0.0419556 0)
(15.7341 0.0429474 0)
(15.7418 0.0439938 0)
(15.7494 0.0448706 0)
(15.7574 0.0454689 0)
(15.766 0.0458076 0)
(15.7755 0.0459991 0)
(15.7859 0.0461891 0)
(15.7972 0.0464972 0)
(15.8091 0.0469766 0)
(15.8212 0.0476057 0)
(15.8331 0.0482994 0)
(15.8445 0.0489484 0)
(15.8553 0.0494387 0)
(15.865 0.0497037 0)
(15.8744 0.0496894 0)
(15.8825 0.0494362 0)
(15.8912 0.0489242 0)
(15.898 0.0482999 0)
(15.9069 0.0474692 0)
(15.9124 0.0467318 0)
(15.923 0.0457405 0)
(15.9262 0.0451555 0)
(15.9407 0.0439874 0)
(12.0008 0.00480287 0)
(12.0162 0.0141179 0)
(12.0473 0.0226988 0)
(12.0936 0.0302178 0)
(12.1533 0.0365839 0)
(12.2243 0.0419051 0)
(12.3045 0.0463404 0)
(12.392 0.0500041 0)
(12.4851 0.0529676 0)
(12.5823 0.0552967 0)
(12.6818 0.0570487 0)
(12.7823 0.0582955 0)
(12.8825 0.0591143 0)
(12.9814 0.0595697 0)
(13.0784 0.0597259 0)
(13.1727 0.0596512 0)
(13.264 0.0594151 0)
(13.3518 0.0590828 0)
(13.4359 0.058711 0)
(13.5163 0.0583424 0)
(13.593 0.0580013 0)
(13.6659 0.0577007 0)
(13.7351 0.0574479 0)
(13.8009 0.0572417 0)
(13.8633 0.0570756 0)
(13.9224 0.0569447 0)
(13.9786 0.0568495 0)
(14.032 0.0567919 0)
(14.0828 0.0567739 0)
(14.1312 0.0567963 0)
(14.1774 0.0568601 0)
(14.2217 0.0569634 0)
(14.2641 0.0570963 0)
(14.3049 0.0572465 0)
(14.3443 0.0573949 0)
(14.3823 0.0575371 0)
(14.4191 0.057668 0)
(14.4548 0.0578017 0)
(14.4895 0.0579672 0)
(14.5232 0.0581787 0)
(14.5562 0.0584773 0)
(14.5884 0.0588978 0)
(14.62 0.0594542 0)
(14.6511 0.0601434 0)
(14.6818 0.0609449 0)
(14.712 0.0618226 0)
(14.742 0.0627324 0)
(14.7717 0.063631 0)
(14.8012 0.0644796 0)
(14.8304 0.0652459 0)
(14.8595 0.065903 0)
(14.8882 0.0664263 0)
(14.9168 0.0667981 0)
(14.945 0.0670121 0)
(14.9729 0.0670773 0)
(15.0006 0.0670179 0)
(15.0279 0.0668685 0)
(15.0548 0.066662 0)
(15.0814 0.066418 0)
(15.1076 0.0661399 0)
(15.1335 0.0658232 0)
(15.1591 0.0654693 0)
(15.1844 0.0650933 0)
(15.2094 0.0647171 0)
(15.234 0.0643501 0)
(15.2583 0.0639702 0)
(15.2822 0.0635276 0)
(15.3058 0.062967 0)
(15.3289 0.0622496 0)
(15.3516 0.0613814 0)
(15.3736 0.0604207 0)
(15.395 0.0594416 0)
(15.4156 0.0584556 0)
(15.4355 0.0574076 0)
(15.4547 0.0562346 0)
(15.473 0.0549172 0)
(15.4904 0.0535021 0)
(15.5069 0.0520804 0)
(15.5224 0.0507364 0)
(15.5367 0.0495039 0)
(15.5501 0.0483532 0)
(15.5626 0.0472149 0)
(15.5744 0.0460501 0)
(15.5856 0.0449149 0)
(15.5964 0.0439626 0)
(15.6067 0.0433704 0)
(15.6167 0.0432318 0)
(15.6263 0.043477 0)
(15.6358 0.0438786 0)
(15.6451 0.0441461 0)
(15.6544 0.0440654 0)
(15.6638 0.0436044 0)
(15.6732 0.0429294 0)
(15.6825 0.0423255 0)
(15.6916 0.04206 0)
(15.7003 0.0422568 0)
(15.7087 0.0428399 0)
(15.7168 0.0435705 0)
(15.7247 0.0441524 0)
(15.7328 0.0443537 0)
(15.7414 0.0440901 0)
(15.7508 0.0434424 0)
(15.7612 0.0426138 0)
(15.7725 0.0418547 0)
(15.7847 0.0413795 0)
(15.7977 0.0413106 0)
(15.811 0.0416503 0)
(15.8245 0.042301 0)
(15.8377 0.0430981 0)
(15.8507 0.0438637 0)
(15.8628 0.0444472 0)
(15.8748 0.0447435 0)
(15.8854 0.0447304 0)
(15.8965 0.0443892 0)
(15.9055 0.0438415 0)
(15.9165 0.043032 0)
(15.9237 0.0422779 0)
(15.9359 0.0412202 0)
(15.94 0.0406685 0)
(15.9561 0.0393384 0)
(12.0008 -0.00348192 0)
(12.0161 -0.0103499 0)
(12.047 -0.0169207 0)
(12.093 -0.022978 0)
(12.1526 -0.0283515 0)
(12.2235 -0.0329194 0)
(12.3037 -0.0365795 0)
(12.3913 -0.0392654 0)
(12.4846 -0.040982 0)
(12.5818 -0.0418056 0)
(12.6814 -0.0418486 0)
(12.7819 -0.0412112 0)
(12.8822 -0.0399653 0)
(12.9813 -0.0381703 0)
(13.0783 -0.0358878 0)
(13.1728 -0.0331847 0)
(13.2641 -0.0301328 0)
(13.352 -0.0268099 0)
(13.4362 -0.0233021 0)
(13.5166 -0.019702 0)
(13.5932 -0.0161045 0)
(13.6659 -0.0125935 0)
(13.735 -0.00923958 0)
(13.8006 -0.00611116 0)
(13.8627 -0.00326176 0)
(13.9217 -0.000716749 0)
(13.9776 0.00152697 0)
(14.0308 0.00349021 0)
(14.0814 0.00519794 0)
(14.1297 0.0066754 0)
(14.1757 0.00794806 0)
(14.2198 0.00904347 0)
(14.2622 0.00998971 0)
(14.3029 0.010806 0)
(14.3421 0.0115137 0)
(14.3801 0.0121239 0)
(14.4168 0.0126646 0)
(14.4524 0.0131655 0)
(14.4871 0.0136573 0)
(14.5208 0.014197 0)
(14.5538 0.0147969 0)
(14.5861 0.0154545 0)
(14.6177 0.016177 0)
(14.6488 0.0169753 0)
(14.6794 0.0178485 0)
(14.7097 0.0187793 0)
(14.7395 0.0197399 0)
(14.7691 0.0206998 0)
(14.7984 0.0216309 0)
(14.8275 0.0225095 0)
(14.8562 0.0233171 0)
(14.8847 0.0240371 0)
(14.913 0.024657 0)
(14.941 0.0251724 0)
(14.9687 0.0255887 0)
(14.996 0.0259215 0)
(15.0231 0.0261916 0)
(15.0498 0.0264172 0)
(15.0762 0.0266075 0)
(15.1023 0.0267634 0)
(15.1281 0.0268851 0)
(15.1536 0.0269822 0)
(15.1787 0.0270779 0)
(15.2036 0.0271987 0)
(15.228 0.027354 0)
(15.2522 0.0275233 0)
(15.276 0.0276619 0)
(15.2994 0.0277271 0)
(15.3224 0.0277254 0)
(15.3448 0.0277032 0)
(15.3666 0.0276498 0)
(15.3878 0.0276031 0)
(15.4083 0.027574 0)
(15.4281 0.0274947 0)
(15.4472 0.0273029 0)
(15.4654 0.0270062 0)
(15.4828 0.0266869 0)
(15.4991 0.0264552 0)
(15.5143 0.0263743 0)
(15.5285 0.026401 0)
(15.5418 0.0263991 0)
(15.5543 0.0262256 0)
(15.5661 0.0258436 0)
(15.5773 0.0253611 0)
(15.588 0.0249983 0)
(15.5983 0.0249794 0)
(15.6082 0.0253924 0)
(15.6178 0.0261112 0)
(15.6273 0.0268334 0)
(15.6368 0.0272218 0)
(15.6461 0.0270758 0)
(15.6553 0.0264446 0)
(15.6644 0.0256194 0)
(15.6732 0.0250075 0)
(15.6817 0.0249499 0)
(15.6901 0.0255671 0)
(15.6984 0.0267011 0)
(15.7069 0.0279736 0)
(15.7156 0.0289293 0)
(15.7247 0.0292042 0)
(15.7344 0.0286517 0)
(15.7448 0.027382 0)
(15.7558 0.0257084 0)
(15.7674 0.0240402 0)
(15.7794 0.0227543 0)
(15.7917 0.0221061 0)
(15.8043 0.0221773 0)
(15.8169 0.0228982 0)
(15.8294 0.0240764 0)
(15.842 0.0254786 0)
(15.8539 0.0268655 0)
(15.8661 0.0280591 0)
(15.8772 0.0289443 0)
(15.889 0.0294697 0)
(15.8988 0.0296797 0)
(15.9107 0.0295578 0)
(15.9187 0.0293267 0)
(15.9318 0.0287783 0)
(15.9363 0.0285056 0)
(15.9533 0.0276319 0)
(12.0008 -0.0118126 0)
(12.0167 -0.0350488 0)
(12.0486 -0.0570439 0)
(12.0961 -0.0770131 0)
(12.1574 -0.0944868 0)
(12.2302 -0.109256 0)
(12.3124 -0.12121 0)
(12.4019 -0.130299 0)
(12.497 -0.136593 0)
(12.596 -0.140315 0)
(12.6971 -0.141775 0)
(12.799 -0.1413 0)
(12.9005 -0.139191 0)
(13.0006 -0.135714 0)
(13.0987 -0.13111 0)
(13.194 -0.125599 0)
(13.286 -0.119392 0)
(13.3745 -0.112682 0)
(13.4591 -0.105648 0)
(13.5398 -0.0984485 0)
(13.6166 -0.0912183 0)
(13.6894 -0.0840697 0)
(13.7585 -0.0771013 0)
(13.8239 -0.0703959 0)
(13.8859 -0.0640186 0)
(13.9447 -0.0580143 0)
(14.0005 -0.0524073 0)
(14.0535 -0.0472051 0)
(14.1039 -0.0424054 0)
(14.152 -0.0379984 0)
(14.1979 -0.0339691 0)
(14.242 -0.0302974 0)
(14.2842 -0.0269588 0)
(14.3249 -0.0239316 0)
(14.3641 -0.021187 0)
(14.402 -0.0187034 0)
(14.4388 -0.016443 0)
(14.4744 -0.0143689 0)
(14.5091 -0.0124461 0)
(14.543 -0.0106148 0)
(14.576 -0.00885833 0)
(14.6084 -0.00717207 0)
(14.6401 -0.00553809 0)
(14.6712 -0.00393483 0)
(14.7019 -0.002351 0)
(14.7321 -0.00079011 0)
(14.762 0.000731341 0)
(14.7915 0.00219117 0)
(14.8207 0.0035702 0)
(14.8496 0.00485284 0)
(14.8782 0.00602363 0)
(14.9065 0.00706896 0)
(14.9345 0.00797976 0)
(14.9623 0.00875669 0)
(14.9898 0.00941477 0)
(15.0169 0.00998111 0)
(15.0438 0.0104839 0)
(15.0703 0.0109403 0)
(15.0965 0.0113507 0)
(15.1224 0.0117052 0)
(15.1481 0.0120009 0)
(15.1734 0.0122555 0)
(15.1984 0.012505 0)
(15.2231 0.0127858 0)
(15.2474 0.0131114 0)
(15.2714 0.0134561 0)
(15.2951 0.0137701 0)
(15.3184 0.0140288 0)
(15.3412 0.0142467 0)
(15.3635 0.014475 0)
(15.3851 0.0148468 0)
(15.4061 0.015371 0)
(15.4264 0.0159657 0)
(15.446 0.016542 0)
(15.4649 0.017032 0)
(15.483 0.0174546 0)
(15.5001 0.0179093 0)
(15.5162 0.0184863 0)
(15.5311 0.0191945 0)
(15.545 0.0199682 0)
(15.558 0.0207114 0)
(15.5704 0.0212548 0)
(15.582 0.021518 0)
(15.5931 0.021579 0)
(15.6036 0.0216336 0)
(15.6135 0.0218794 0)
(15.623 0.0224004 0)
(15.6323 0.023108 0)
(15.6415 0.0237729 0)
(15.651 0.0241409 0)
(15.6605 0.0240729 0)
(15.6701 0.0236288 0)
(15.6793 0.0230527 0)
(15.6881 0.0226644 0)
(15.6965 0.0227075 0)
(15.7045 0.023225 0)
(15.7124 0.0240205 0)
(15.7207 0.0247299 0)
(15.7294 0.0249677 0)
(15.7388 0.0244784 0)
(15.7487 0.0232235 0)
(15.7591 0.0213828 0)
(15.7697 0.0192843 0)
(15.7804 0.0173139 0)
(15.7909 0.0158064 0)
(15.8013 0.0149809 0)
(15.8114 0.014889 0)
(15.8216 0.0154499 0)
(15.8317 0.0164628 0)
(15.8421 0.0177103 0)
(15.8523 0.0189533 0)
(15.8631 0.0200499 0)
(15.8733 0.0208701 0)
(15.8846 0.0214156 0)
(15.8943 0.0216663 0)
(15.9062 0.0216967 0)
(15.9143 0.0215694 0)
(15.9277 0.0212866 0)
(15.9324 0.0210994 0)
(15.9498 0.0206434 0)
(12.0008 -0.0204734 0)
(12.0179 -0.0606324 0)
(12.0521 -0.0985257 0)
(12.1028 -0.132881 0)
(12.1678 -0.162994 0)
(12.2445 -0.188504 0)
(12.3308 -0.209169 0)
(12.4247 -0.224884 0)
(12.5241 -0.235788 0)
(12.6272 -0.242268 0)
(12.7322 -0.244852 0)
(12.8378 -0.244108 0)
(12.9427 -0.240586 0)
(13.0459 -0.234804 0)
(13.1468 -0.227257 0)
(13.2445 -0.218408 0)
(13.3387 -0.208675 0)
(13.4288 -0.19841 0)
(13.5147 -0.187897 0)
(13.5964 -0.177359 0)
(13.6737 -0.166966 0)
(13.7467 -0.156855 0)
(13.8157 -0.14713 0)
(13.8806 -0.13786 0)
(13.9419 -0.129083 0)
(13.9997 -0.120826 0)
(14.0543 -0.113108 0)
(14.1058 -0.105937 0)
(14.1546 -0.0993104 0)
(14.2009 -0.0932118 0)
(14.2449 -0.0876159 0)
(14.2868 -0.0824949 0)
(14.3268 -0.0778214 0)
(14.3651 -0.0735625 0)
(14.4019 -0.0696872 0)
(14.4373 -0.0661529 0)
(14.4714 -0.0629304 0)
(14.5044 -0.059983 0)
(14.5363 -0.0572663 0)
(14.5674 -0.0547553 0)
(14.5975 -0.0523982 0)
(14.6269 -0.050146 0)
(14.6556 -0.0479673 0)
(14.6837 -0.0458482 0)
(14.7113 -0.043785 0)
(14.7383 -0.0417762 0)
(14.7649 -0.0398216 0)
(14.791 -0.0379248 0)
(14.8168 -0.0360953 0)
(14.8422 -0.0343523 0)
(14.8672 -0.0327225 0)
(14.8919 -0.0312278 0)
(14.9163 -0.0298761 0)
(14.9404 -0.0286588 0)
(14.9641 -0.0275536 0)
(14.9875 -0.0265325 0)
(15.0106 -0.0255731 0)
(15.0333 -0.0246659 0)
(15.0557 -0.0238132 0)
(15.0778 -0.0230187 0)
(15.0995 -0.0222747 0)
(15.121 -0.0215559 0)
(15.142 -0.0208262 0)
(15.1628 -0.020055 0)
(15.1832 -0.0192342 0)
(15.2033 -0.0183828 0)
(15.2231 -0.0175253 0)
(15.2425 -0.0166573 0)
(15.2614 -0.0157501 0)
(15.2799 -0.0147617 0)
(15.2979 -0.0135864 0)
(15.3153 -0.0122426 0)
(15.3322 -0.0108254 0)
(15.3486 -0.00939404 0)
(15.3643 -0.00794457 0)
(15.3792 -0.00639725 0)
(15.3933 -0.00466475 0)
(15.4064 -0.00275868 0)
(15.4186 -0.00081196 0)
(15.4302 0.000979366 0)
(15.4413 0.00241462 0)
(15.4519 0.0034871 0)
(15.4618 0.00431666 0)
(15.4712 0.00498486 0)
(15.4801 0.00563416 0)
(15.4886 0.00637015 0)
(15.4972 0.00719394 0)
(15.5061 0.00800677 0)
(15.5152 0.00866756 0)
(15.5244 0.00907834 0)
(15.5335 0.00925789 0)
(15.5422 0.00935303 0)
(15.5505 0.00957269 0)
(15.5583 0.0100773 0)
(15.5661 0.010881 0)
(15.574 0.0118198 0)
(15.5825 0.0126047 0)
(15.5916 0.0129267 0)
(15.6012 0.0125562 0)
(15.6112 0.0114261 0)
(15.6212 0.00967348 0)
(15.6306 0.00760078 0)
(15.6391 0.00557519 0)
(15.6467 0.0039386 0)
(15.6533 0.00291197 0)
(15.6593 0.00257893 0)
(15.6649 0.0028694 0)
(15.6707 0.00364804 0)
(15.6766 0.00470087 0)
(15.6833 0.00586614 0)
(15.6904 0.00694609 0)
(15.6984 0.0078962 0)
(15.7064 0.00859326 0)
(15.7157 0.00913434 0)
(15.7238 0.00941527 0)
(15.7342 0.00963601 0)
(15.7413 0.00965229 0)
(15.7532 0.00972604 0)
(15.7574 0.00968975 0)
(15.7729 0.00978008 0)
(12.0009 -0.0297528 0)
(12.02 -0.0871475 0)
(12.0582 -0.140329 0)
(12.1149 -0.188374 0)
(12.1878 -0.230949 0)
(12.2741 -0.267545 0)
(12.3713 -0.297591 0)
(12.4764 -0.32083 0)
(12.5866 -0.33744 0)
(12.6987 -0.347865 0)
(12.8102 -0.352639 0)
(12.919 -0.352402 0)
(13.0237 -0.347773 0)
(13.1231 -0.339395 0)
(13.2163 -0.327961 0)
(13.303 -0.314181 0)
(13.3828 -0.298727 0)
(13.4558 -0.282203 0)
(13.5221 -0.265135 0)
(13.5822 -0.247963 0)
(13.6363 -0.231062 0)
(13.6848 -0.214732 0)
(13.7282 -0.199193 0)
(13.7669 -0.184589 0)
(13.8012 -0.170998 0)
(13.8317 -0.158454 0)
(13.8587 -0.146959 0)
(13.8826 -0.13649 0)
(13.9036 -0.127004 0)
(13.9221 -0.118448 0)
(13.9384 -0.110766 0)
(13.9526 -0.103891 0)
(13.9651 -0.097751 0)
(13.976 -0.0922646 0)
(13.9855 -0.0873501 0)
(13.9937 -0.0829288 0)
(14.0008 -0.0789526 0)
(14.0069 -0.0753755 0)
(14.0122 -0.0721388 0)
(14.0167 -0.0691822 0)
(14.0205 -0.0664433 0)
(14.0238 -0.063873 0)
(14.0265 -0.0614446 0)
(14.0287 -0.0591399 0)
(14.0306 -0.0569424 0)
(14.0321 -0.0548413 0)
(14.0334 -0.0528334 0)
(14.0344 -0.0509234 0)
(14.0353 -0.0491203 0)
(14.0359 -0.0474268 0)
(14.0364 -0.0458343 0)
(14.0368 -0.0443287 0)
(14.037 -0.0429004 0)
(14.0371 -0.0415492 0)
(14.037 -0.0402791 0)
(14.0368 -0.0390886 0)
(14.0366 -0.0379648 0)
(14.0363 -0.0368902 0)
(14.036 -0.0358547 0)
(14.0356 -0.0348601 0)
(14.0353 -0.0339088 0)
(14.0349 -0.0329919 0)
(14.0345 -0.0320836 0)
(14.0342 -0.0311389 0)
(14.034 -0.0301124 0)
(14.0339 -0.0289962 0)
(14.0338 -0.0278235 0)
(14.0339 -0.0266188 0)
(14.0341 -0.0253587 0)
(14.0344 -0.0240068 0)
(14.0347 -0.0225801 0)
(14.0352 -0.0210052 0)
(14.0357 -0.0192249 0)
(14.0362 -0.0172843 0)
(14.0368 -0.0152431 0)
(14.0375 -0.0130901 0)
(14.0381 -0.0107782 0)
(14.0388 -0.00834143 0)
(14.0394 -0.00591822 0)
(14.0402 -0.00364708 0)
(14.0411 -0.00159602 0)
(14.0424 0.000229105 0)
(14.0439 0.00170606 0)
(14.0456 0.00280194 0)
(14.0475 0.00351851 0)
(14.0498 0.00390366 0)
(14.0525 0.00406563 0)
(14.0559 0.00415121 0)
(14.06 0.00426827 0)
(14.0645 0.00443512 0)
(14.0694 0.00458077 0)
(14.0746 0.00460262 0)
(14.0801 0.0044424 0)
(14.086 0.00413637 0)
(14.0924 0.00379815 0)
(14.0993 0.00354742 0)
(14.1067 0.00342466 0)
(14.1145 0.00337658 0)
(14.1221 0.00333082 0)
(14.1291 0.00326698 0)
(14.1353 0.00318811 0)
(14.1405 0.00311796 0)
(14.1446 0.00307879 0)
(14.1478 0.0030857 0)
(14.1504 0.0031267 0)
(14.1526 0.0032017 0)
(14.1546 0.00328443 0)
(14.157 0.00338448 0)
(14.1596 0.0034653 0)
(14.1627 0.00355601 0)
(14.1661 0.00358492 0)
(14.1702 0.00362689 0)
(14.1741 0.00357045 0)
(14.1789 0.00357907 0)
(14.1829 0.00346516 0)
(14.1883 0.00351418 0)
(14.1917 0.00338947 0)
(14.198 0.00353847 0)
(14.2 0.00344173 0)
(14.2084 0.00378119 0)
(12.0022 -0.0492893 0)
(12.0393 -0.137116 0)
(12.1043 -0.213186 0)
(12.1872 -0.279918 0)
(12.2774 -0.337984 0)
(12.3653 -0.386234 0)
(12.4437 -0.423822 0)
(12.5072 -0.450901 0)
(12.5532 -0.468463 0)
(12.5804 -0.477623 0)
(12.5896 -0.479484 0)
(12.5821 -0.475172 0)
(12.5599 -0.465665 0)
(12.5249 -0.451893 0)
(12.4794 -0.434782 0)
(12.4252 -0.415174 0)
(12.3642 -0.393816 0)
(12.298 -0.371341 0)
(12.2282 -0.348309 0)
(12.1558 -0.325204 0)
(12.082 -0.302427 0)
(12.0077 -0.280327 0)
(11.9334 -0.259145 0)
(11.8598 -0.239051 0)
(11.7871 -0.220154 0)
(11.7158 -0.202504 0)
(11.6461 -0.186116 0)
(11.578 -0.170975 0)
(11.5117 -0.15705 0)
(11.4473 -0.144291 0)
(11.3848 -0.132644 0)
(11.3241 -0.122041 0)
(11.2652 -0.112414 0)
(11.2082 -0.103695 0)
(11.1529 -0.0958123 0)
(11.0995 -0.0886989 0)
(11.0477 -0.0822669 0)
(10.9975 -0.0764204 0)
(10.9489 -0.0710725 0)
(10.9018 -0.0661504 0)
(10.8562 -0.0615897 0)
(10.8121 -0.0573367 0)
(10.7694 -0.0533583 0)
(10.7281 -0.0496391 0)
(10.6882 -0.0461703 0)
(10.6497 -0.0429496 0)
(10.6126 -0.0399761 0)
(10.5768 -0.0372481 0)
(10.5424 -0.0347652 0)
(10.5094 -0.0325261 0)
(10.4777 -0.030522 0)
(10.4473 -0.0287335 0)
(10.4182 -0.0271337 0)
(10.3903 -0.0256953 0)
(10.3635 -0.0243955 0)
(10.3378 -0.023217 0)
(10.3132 -0.0221461 0)
(10.2896 -0.021172 0)
(10.267 -0.0202849 0)
(10.2453 -0.0194753 0)
(10.2245 -0.018731 0)
(10.2046 -0.0180359 0)
(10.1854 -0.0173692 0)
(10.167 -0.0167094 0)
(10.1493 -0.0160414 0)
(10.1324 -0.0153601 0)
(10.1162 -0.0146667 0)
(10.1007 -0.0139582 0)
(10.0859 -0.0132167 0)
(10.072 -0.0124044 0)
(10.0589 -0.0114881 0)
(10.0469 -0.0104733 0)
(10.0359 -0.00940587 0)
(10.026 -0.00831997 0)
(10.0173 -0.00721192 0)
(10.0099 -0.00605481 0)
(10.0038 -0.00482605 0)
(9.9992 -0.00355477 0)
(9.9961 -0.00235405 0)
(9.99438 -0.00138871 0)
(9.99382 -0.000751034 0)
(9.99421 -0.000443126 0)
(9.99541 -0.000346574 0)
(9.99731 -0.000301239 0)
(9.99962 -0.000305225 0)
(10.0021 -0.00036803 0)
(10.0046 -0.000463983 0)
(10.0071 -0.000574177 0)
(10.0095 -0.000689499 0)
(10.0118 -0.000791946 0)
(10.0141 -0.000852944 0)
(10.0164 -0.00084117 0)
(10.0185 -0.000734216 0)
(10.0204 -0.000527821 0)
(10.0222 -0.000241394 0)
(10.0238 8.57579e-05 0)
(10.0252 0.000401291 0)
(10.0265 0.000651147 0)
(10.0278 0.000790192 0)
(10.029 0.000797543 0)
(10.03 0.000681369 0)
(10.0309 0.000484116 0)
(10.0316 0.000253287 0)
(10.0322 3.81084e-05 0)
(10.0328 -0.000131805 0)
(10.0334 -0.000224668 0)
(10.034 -0.000248004 0)
(10.0348 -0.000194929 0)
(10.0357 -0.000117062 0)
(10.0368 2.1198e-06 0)
(10.0379 9.87371e-05 0)
(10.0393 0.000229951 0)
(10.0406 0.000291617 0)
(10.0423 0.000409624 0)
(10.0436 0.000407263 0)
(10.0457 0.000525796 0)
(10.0467 0.000459623 0)
(10.0493 0.00062686 0)
(10.0498 0.00053263 0)
(10.0533 0.000837844 0)
(11.9796 -0.0359558 0)
(11.8805 -0.134841 0)
(11.6838 -0.225558 0)
(11.4008 -0.297691 0)
(11.0534 -0.349506 0)
(10.662 -0.380711 0)
(10.2433 -0.39299 0)
(9.80997 -0.389257 0)
(9.37381 -0.373518 0)
(8.94257 -0.348803 0)
(8.52529 -0.318536 0)
(8.12478 -0.285726 0)
(7.7452 -0.251477 0)
(7.38914 -0.217447 0)