/*--------------------------------*- C++ -*----------------------------------*\
  =========                 |
  \\      /  F ield         | OpenFOAM: The Open Source CFD Toolbox
   \\    /   O peration     | Website:  https://openfoam.org
    \\  /    A nd           | Version:  7
     \\/     M anipulation  |
\*---------------------------------------------------------------------------*/
FoamFile
{
    version     2.0;
    format      ascii;
    class       volScalarField;
    location    "4.4";
    object      rho_0;
}
// * * * * * * * * * * * * * * * * * * * * * * * * * * * * * * * * * * * * * //

dimensions      [1 -3 0 0 0 0 0];

internalField   nonuniform List<scalar> 
1320
(
1.23059
1.23055
1.23052
1.23051
1.2305
1.23049
1.23048
1.23048
1.23047
1.23047
1.23045
1.23048
1.23042
1.2305
1.23035
1.2306
1.23013
1.23104
1.22888
1.23517
1.23059
1.23056
1.23053
1.23051
1.2305
1.23049
1.23048
1.23049
1.23046
1.23049
1.23042
1.23052
1.23035
1.23061
1.23018
1.23088
1.22968
1.23172
1.22819
1.23414
1.23058
1.23057
1.23054
1.23053
1.23051
1.23051
1.23049
1.2305
1.23046
1.2305
1.23042
1.23053
1.23035
1.2306
1.23022
1.23076
1.22998
1.23106
1.2296
1.23143
1.23058
1.23057
1.23054
1.23054
1.23052
1.23052
1.2305
1.23051
1.23048
1.23051
1.23046
1.23051
1.23043
1.23051
1.2304
1.23052
1.23037
1.23051
1.2304
1.23043
1.23058
1.23056
1.23055
1.23053
1.23052
1.23052
1.23051
1.23051
1.2305
1.2305
1.23049
1.23049
1.23048
1.23047
1.23048
1.23046
1.23049
1.23042
1.23051
1.23037
1.23058
1.23056
1.23055
1.23053
1.23052
1.23052
1.23051
1.23051
1.2305
1.2305
1.23049
1.23049
1.23049
1.23048
1.23048
1.23047
1.23047
1.23046
1.23047
1.23046
1.23058
1.23056
1.23055
1.23053
1.23052
1.23052
1.23051
1.23051
1.2305
1.2305
1.23049
1.23049
1.23049
1.23048
1.23048
1.23047
1.23047
1.23047
1.23046
1.23046
1.23058
1.23056
1.23055
1.23053
1.23053
1.23052
1.23051
1.23051
1.2305
1.2305
1.23049
1.23049
1.23048
1.23048
1.23047
1.23047
1.23046
1.23046
1.23046
1.23045
1.23058
1.23056
1.23055
1.23053
1.23052
1.23052
1.23051
1.2305
1.2305
1.23049
1.23048
1.23048
1.23047
1.23046
1.23046
1.23045
1.23045
1.23044
1.23044
1.23043
1.23058
1.23057
1.23054
1.23053
1.23051
1.2305
1.23049
1.23049
1.23048
1.23047
1.23047
1.23046
1.23045
1.23045
1.23044
1.23044
1.23044
1.23043
1.23043
1.23042
1.23059
1.23056
1.23053
1.23051
1.2305
1.23049
1.23048
1.23048
1.23047
1.23047
1.23046
1.23046
1.23045
1.23045
1.23044
1.23044
1.23043
1.23043
1.23042
1.23042
1.23059
1.23055
1.23052
1.23051
1.2305
1.23049
1.23049
1.23048
1.23047
1.23047
1.23046
1.23046
1.23045
1.23045
1.23044
1.23043
1.23043
1.23042
1.23042
1.23041
1.18475
1.15472
1.13596
1.12148
1.10953
1.09928
1.09022
1.08203
1.0745
1.0675
1.06093
1.05473
1.04885
1.04325
1.0379
1.03278
1.02787
1.02314
1.0186
1.01421
1.00998
1.00588
1.00191
0.998068
0.994336
0.990711
0.987188
0.98376
0.980425
0.977177
0.974013
0.970929
0.967922
0.964988
0.962124
0.959329
0.956598
0.95393
0.951323
0.948775
0.946284
0.943848
0.941467
0.939139
0.936862
0.934634
0.932456
0.930325
0.928239
0.926197
0.924199
0.922242
0.920326
0.918449
0.916611
0.914811
0.913047
0.911319
0.909626
0.907968
0.906343
0.904751
0.903192
0.901666
0.900171
0.898708
0.897276
0.895873
0.8945
0.893154
0.891835
0.890541
0.889273
0.888026
0.886806
0.885604
0.884434
0.883277
0.882161
0.881046
0.879994
0.878915
0.87794
0.876878
0.876004
0.874917
0.874199
0.872998
0.872558
0.871058
1.21413
1.18895
1.17063
1.15623
1.14418
1.1337
1.12435
1.11586
1.10803
1.10073
1.09388
1.0874
1.08125
1.07539
1.06979
1.06443
1.05928
1.05433
1.04956
1.04496
1.04051
1.03621
1.03205
1.02801
1.0241
1.02029
1.01659
1.01299
1.00949
1.00607
1.00275
0.999511
0.996351
0.993269
0.990261
0.987324
0.984456
0.981654
0.978916
0.976241
0.973625
0.971069
0.968569
0.966125
0.963734
0.961396
0.959109
0.956872
0.954683
0.95254
0.950443
0.94839
0.94638
0.944411
0.942483
0.940595
0.938745
0.936933
0.935158
0.933419
0.931716
0.930047
0.928413
0.926813
0.925246
0.923712
0.922211
0.920741
0.919301
0.917891
0.916509
0.915153
0.913824
0.912518
0.91124
0.909981
0.908755
0.907541
0.906372
0.905203
0.9041
0.902967
0.901945
0.900828
0.899913
0.898766
0.898017
0.896746
0.896292
0.894702
1.22701
1.21214
1.19745
1.18468
1.17351
1.16352
1.15444
1.14607
1.13828
1.13096
1.12405
1.1175
1.11126
1.10529
1.09958
1.09409
1.08882
1.08374
1.07884
1.07411
1.06954
1.06511
1.06081
1.05665
1.0526
1.04867
1.04484
1.04112
1.0375
1.03397
1.03052
1.02717
1.02389
1.0207
1.01758
1.01454
1.01157
1.00866
1.00582
1.00305
1.00034
0.99769
0.995099
0.992565
0.990086
0.987662
0.985291
0.982971
0.9807
0.978479
0.976304
0.974175
0.972091
0.97005
0.968052
0.966095
0.964178
0.9623
0.96046
0.958658
0.956893
0.955163
0.95347
0.951811
0.950188
0.948598
0.947042
0.945519
0.944027
0.942565
0.941133
0.939728
0.938352
0.936998
0.935674
0.934369
0.933099
0.93184
0.930629
0.929415
0.928272
0.927094
0.926035
0.924871
0.923925
0.922725
0.921954
0.920619
0.920157
0.918486
1.23067
1.22493
1.21608
1.20673
1.19774
1.18924
1.18121
1.1736
1.16638
1.1595
1.15292
1.14662
1.14056
1.13474
1.12914
1.12374
1.11852
1.11347
1.10859
1.10387
1.09929
1.09484
1.09052
1.08633
1.08225
1.07828
1.07441
1.07064
1.06697
1.06338
1.05989
1.05648
1.05315
1.0499
1.04673
1.04363
1.0406
1.03764
1.03475
1.03193
1.02916
1.02646
1.02382
1.02123
1.0187
1.01623
1.01381
1.01144
1.00912
1.00685
1.00463
1.00246
1.00033
0.99825
0.996209
0.994211
0.992254
0.990336
0.988458
0.986618
0.984815
0.983049
0.98132
0.979626
0.977968
0.976344
0.974755
0.973199
0.971675
0.970182
0.96872
0.967284
0.965879
0.964496
0.963144
0.96181
0.960513
0.959226
0.957988
0.956746
0.955578
0.95437
0.953288
0.95209
0.951126
0.949887
0.949105
0.94772
0.947257
0.945526
1.23078
1.22978
1.22621
1.22105
1.21522
1.20915
1.20303
1.19696
1.191
1.18515
1.17944
1.17388
1.16845
1.16317
1.15804
1.15304
1.14817
1.14344
1.13883
1.13434
1.12996
1.12571
1.12155
1.11751
1.11356
1.1097
1.10594
1.10227
1.09868
1.09517
1.09175
1.0884
1.08513
1.08193
1.07881
1.07575
1.07276
1.06984
1.06699
1.06419
1.06146
1.05878
1.05617
1.05361
1.0511
1.04865
1.04625
1.0439
1.0416
1.03935
1.03715
1.03499
1.03288
1.03081
1.02878
1.0268
1.02485
1.02295
1.02108
1.01925
1.01746
1.01571
1.01399
1.01231
1.01066
1.00904
1.00746
1.00592
1.0044
1.00292
1.00146
1.00003
0.998635
0.997259
0.995914
0.994587
0.993296
0.992014
0.990783
0.989543
0.988381
0.987173
0.986098
0.984897
0.98394
0.982693
0.98192
0.980522
0.980068
0.978323
1.23045
1.23054
1.22991
1.22819
1.22553
1.22224
1.21853
1.21456
1.21043
1.20622
1.20196
1.19769
1.19342
1.18918
1.18499
1.18083
1.17674
1.1727
1.16873
1.16483
1.16099
1.15723
1.15354
1.14991
1.14636
1.14288
1.13947
1.13612
1.13284
1.12962
1.12647
1.12339
1.12036
1.1174
1.1145
1.11166
1.10888
1.10616
1.10349
1.10088
1.09833
1.09582
1.09338
1.09098
1.08863
1.08632
1.08407
1.08186
1.0797
1.07758
1.07551
1.07348
1.07149
1.06954
1.06763
1.06576
1.06392
1.06213
1.06037
1.05864
1.05695
1.05529
1.05367
1.05208
1.05052
1.049
1.0475
1.04604
1.04461
1.0432
1.04183
1.04048
1.03915
1.03785
1.03658
1.03532
1.0341
1.03288
1.03172
1.03054
1.02944
1.02829
1.02727
1.02613
1.02522
1.02403
1.0233
1.02196
1.02153
1.01986
1.23044
1.23043
1.2304
1.2301
1.22935
1.22809
1.22641
1.22438
1.22208
1.21957
1.21691
1.21412
1.21124
1.20829
1.20528
1.20225
1.19919
1.19612
1.19306
1.19
1.18697
1.18396
1.18097
1.17803
1.17511
1.17224
1.1694
1.16661
1.16386
1.16115
1.15848
1.15586
1.15328
1.15076
1.14827
1.14583
1.14344
1.1411
1.13879
1.13654
1.13432
1.13215
1.13003
1.12794
1.1259
1.12389
1.12193
1.12
1.11811
1.11626
1.11444
1.11266
1.11092
1.10921
1.10754
1.10589
1.10428
1.10271
1.10116
1.09964
1.09815
1.09669
1.09526
1.09386
1.09248
1.09114
1.08982
1.08853
1.08727
1.08603
1.08481
1.08362
1.08245
1.0813
1.08017
1.07906
1.07797
1.07689
1.07586
1.07481
1.07384
1.07281
1.07191
1.07089
1.07009
1.06903
1.06838
1.06719
1.06681
1.06531
1.23044
1.23039
1.23037
1.23032
1.23013
1.22971
1.22903
1.22808
1.22691
1.22552
1.22396
1.22224
1.2204
1.21844
1.2164
1.21428
1.21211
1.20989
1.20765
1.20538
1.2031
1.20081
1.19853
1.19626
1.194
1.19175
1.18952
1.18732
1.18513
1.18298
1.18085
1.17874
1.17667
1.17464
1.17263
1.17066
1.16871
1.16681
1.16493
1.16309
1.16128
1.15951
1.15776
1.15605
1.15437
1.15272
1.15111
1.14952
1.14796
1.14643
1.14493
1.14346
1.14202
1.14061
1.13922
1.13785
1.13652
1.13521
1.13392
1.13266
1.13142
1.1302
1.12901
1.12784
1.12669
1.12557
1.12447
1.1234
1.12234
1.1213
1.12029
1.11929
1.11831
1.11734
1.1164
1.11546
1.11455
1.11364
1.11277
1.11189
1.11107
1.11021
1.10946
1.1086
1.10793
1.10703
1.10649
1.10548
1.10515
1.1039
1.23042
1.23038
1.23035
1.23033
1.23026
1.23011
1.22981
1.22935
1.22872
1.22794
1.22699
1.22592
1.22472
1.22342
1.22203
1.22057
1.21904
1.21746
1.21584
1.21419
1.21252
1.21084
1.20915
1.20745
1.20575
1.20406
1.20238
1.2007
1.19904
1.1974
1.19577
1.19416
1.19257
1.191
1.18945
1.18792
1.18642
1.18494
1.18348
1.18205
1.18064
1.17926
1.1779
1.17656
1.17525
1.17396
1.17269
1.17145
1.17022
1.16902
1.16785
1.16669
1.16555
1.16444
1.16334
1.16227
1.16121
1.16018
1.15916
1.15816
1.15718
1.15621
1.15527
1.15434
1.15343
1.15254
1.15167
1.15081
1.14997
1.14915
1.14834
1.14755
1.14677
1.146
1.14524
1.14449
1.14377
1.14304
1.14234
1.14164
1.14098
1.14029
1.13969
1.139
1.13846
1.13775
1.13731
1.13651
1.13624
1.13523
1.23041
1.23037
1.23034
1.23032
1.23028
1.23021
1.23006
1.22982
1.22946
1.229
1.22842
1.22774
1.22696
1.22611
1.22518
1.22419
1.22315
1.22207
1.22095
1.2198
1.21864
1.21746
1.21627
1.21507
1.21387
1.21267
1.21147
1.21028
1.20909
1.20791
1.20674
1.20559
1.20444
1.20331
1.20219
1.20109
1.2
1.19893
1.19787
1.19683
1.19581
1.1948
1.19381
1.19283
1.19188
1.19094
1.19001
1.1891
1.18821
1.18733
1.18647
1.18562
1.18478
1.18396
1.18316
1.18237
1.18159
1.18083
1.18007
1.17934
1.17861
1.1779
1.1772
1.17651
1.17584
1.17518
1.17454
1.1739
1.17328
1.17267
1.17207
1.17148
1.1709
1.17033
1.16977
1.16921
1.16866
1.16812
1.16759
1.16707
1.16658
1.16606
1.16561
1.1651
1.1647
1.16417
1.16384
1.16324
1.16303
1.16228
1.2304
1.23037
1.23034
1.23031
1.23028
1.23024
1.23015
1.23002
1.22981
1.22954
1.2292
1.22879
1.22833
1.22781
1.22725
1.22665
1.22601
1.22534
1.22465
1.22395
1.22323
1.22249
1.22175
1.22101
1.22026
1.21951
1.21876
1.21801
1.21727
1.21653
1.2158
1.21507
1.21435
1.21363
1.21293
1.21223
1.21154
1.21086
1.21019
1.20952
1.20887
1.20823
1.2076
1.20698
1.20637
1.20577
1.20518
1.2046
1.20402
1.20346
1.20291
1.20236
1.20183
1.2013
1.20078
1.20027
1.19977
1.19928
1.19879
1.19831
1.19784
1.19738
1.19692
1.19648
1.19604
1.19561
1.1952
1.19479
1.19438
1.19399
1.1936
1.19321
1.19283
1.19246
1.19209
1.19172
1.19136
1.191
1.19065
1.1903
1.18998
1.18964
1.18934
1.18901
1.18875
1.1884
1.18818
1.18779
1.18765
1.18716
1.2304
1.23037
1.23033
1.2303
1.23028
1.23024
1.2302
1.23013
1.23005
1.22994
1.2298
1.22965
1.22947
1.22927
1.22905
1.22882
1.22858
1.22833
1.22807
1.22781
1.22753
1.22726
1.22698
1.2267
1.22642
1.22614
1.22586
1.22558
1.2253
1.22502
1.22474
1.22446
1.22419
1.22392
1.22365
1.22338
1.22312
1.22285
1.22259
1.22234
1.22209
1.22184
1.22159
1.22135
1.22112
1.22089
1.22066
1.22043
1.22021
1.21999
1.21977
1.21956
1.21935
1.21914
1.21893
1.21873
1.21853
1.21833
1.21813
1.21794
1.21775
1.21756
1.21738
1.2172
1.21702
1.21685
1.21668
1.21651
1.21635
1.21619
1.21603
1.21588
1.21572
1.21556
1.21541
1.21525
1.21509
1.21494
1.21479
1.21464
1.2145
1.21436
1.21424
1.2141
1.21399
1.21385
1.21375
1.21359
1.21352
1.21332
)
;

boundaryField
{
    upperWall
    {
        type            calculated;
        value           nonuniform List<scalar> 
110
(
1.2306
1.23056
1.23053
1.23051
1.2305
1.2305
1.23049
1.23048
1.23048
1.23047
1.23046
1.23046
1.23045
1.23045
1.23044
1.23043
1.23043
1.23042
1.23042
1.23041
1.2304
1.23036
1.23033
1.2303
1.23027
1.23024
1.23022
1.23019
1.23017
1.23014
1.23011
1.23009
1.23006
1.23003
1.23
1.22996
1.22993
1.2299
1.22987
1.22984
1.22981
1.22978
1.22975
1.22972
1.22969
1.22966
1.22963
1.2296
1.22957
1.22955
1.22952
1.22949
1.22946
1.22943
1.2294
1.22937
1.22933
1.2293
1.22926
1.22923
1.22919
1.22916
1.22913
1.2291
1.22907
1.22904
1.22902
1.22899
1.22896
1.22893
1.2289
1.22887
1.22884
1.22881
1.22877
1.22874
1.22871
1.22867
1.22864
1.2286
1.22856
1.22853
1.2285
1.22846
1.22843
1.2284
1.22837
1.22835
1.22832
1.2283
1.22827
1.22825
1.22821
1.22818
1.22814
1.2281
1.22806
1.22801
1.22797
1.22793
1.2279
1.22787
1.22785
1.22783
1.22781
1.22779
1.22776
1.22774
1.2277
1.22767
)
;
    }
    lowerWall
    {
        type            calculated;
        value           nonuniform List<scalar> 
20
(
1.2306
1.23056
1.23053
1.23051
1.2305
1.2305
1.23049
1.23048
1.23048
1.23047
1.23046
1.23046
1.23045
1.23045
1.23044
1.23043
1.23043
1.23042
1.23042
1.23041
)
;
    }
    heatedWall
    {
        type            calculated;
        value           nonuniform List<scalar> 
90
(
1.16315
1.13478
1.11651
1.10229
1.09062
1.08065
1.07184
1.06389
1.05659
1.04979
1.04341
1.03739
1.03168
1.02624
1.02104
1.01607
1.0113
1.00671
1.00229
0.998033
0.99392
0.989942
0.986089
0.982354
0.978729
0.975208
0.971785
0.968456
0.965215
0.962059
0.958984
0.955987
0.953064
0.950212
0.947428
0.94471
0.942055
0.939462
0.936927
0.93445
0.932029
0.929662
0.927347
0.925084
0.92287
0.920704
0.918586
0.916513
0.914484
0.912498
0.910553
0.908649
0.906784
0.904958
0.903169
0.901417
0.8997
0.898018
0.896371
0.894757
0.893176
0.891627
0.890111
0.888626
0.887172
0.885748
0.884355
0.882989
0.881652
0.880342
0.879057
0.877796
0.87656
0.875344
0.874155
0.872984
0.871844
0.870717
0.869632
0.868547
0.867524
0.866475
0.865527
0.864493
0.863642
0.862583
0.861882
0.860712
0.860281
0.858819
)
;
    }
    inlet
    {
        type            calculated;
        value           nonuniform List<scalar> 
12
(
1.2306
1.23059
1.23058
1.23058
1.23058
1.23058
1.23058
1.23058
1.23058
1.23058
1.23059
1.2306
)
;
    }
    outlet
    {
        type            calculated;
        value           nonuniform List<scalar> 
12
(
0.871041
0.894685
0.918468
0.945508
0.978304
1.01984
1.06529
1.10387
1.13521
1.16226
1.18714
1.2133
)
;
    }
    frontAndBack
    {
        type            empty;
    }
}


// ************************************************************************* //
