/*--------------------------------*- C++ -*----------------------------------*\
  =========                 |
  \\      /  F ield         | OpenFOAM: The Open Source CFD Toolbox
   \\    /   O peration     | Website:  https://openfoam.org
    \\  /    A nd           | Version:  7
     \\/     M anipulation  |
\*---------------------------------------------------------------------------*/
FoamFile
{
    version     2.0;
    format      ascii;
    class       volScalarField;
    location    "0.02";
    object      rho;
}
// * * * * * * * * * * * * * * * * * * * * * * * * * * * * * * * * * * * * * //

dimensions      [1 -3 0 0 0 0 0];

internalField   nonuniform List<scalar> 
7920
(
1.25713
1.2547
1.25437
1.25425
1.25432
1.25419
1.25429
1.2542
1.25426
1.2541
1.25406
1.25376
1.25371
1.25329
1.25324
1.25323
1.25363
1.25377
1.25398
1.25459
1.25688
1.25451
1.25406
1.25395
1.254
1.2539
1.25399
1.25392
1.25397
1.25382
1.25378
1.25349
1.25344
1.25302
1.25298
1.25297
1.25337
1.25351
1.25372
1.2542
1.2571
1.25476
1.25432
1.25417
1.25424
1.25411
1.25421
1.25412
1.25418
1.25401
1.25397
1.25368
1.25362
1.2532
1.25315
1.25315
1.25354
1.25369
1.25391
1.25434
1.25691
1.25457
1.25412
1.25398
1.25405
1.25392
1.25402
1.25395
1.254
1.25384
1.2538
1.25351
1.25346
1.25304
1.25299
1.25299
1.25338
1.25352
1.25374
1.25417
1.25702
1.25469
1.25425
1.25411
1.25418
1.25404
1.25414
1.25405
1.25411
1.25395
1.25391
1.25361
1.25356
1.25314
1.25309
1.25308
1.25348
1.25362
1.25384
1.25427
1.25696
1.25463
1.25418
1.25404
1.25411
1.25398
1.25408
1.25399
1.25405
1.25389
1.25385
1.25355
1.2535
1.25308
1.25303
1.25303
1.25342
1.25356
1.25378
1.25421
1.25696
1.25463
1.25418
1.25404
1.25411
1.25398
1.25408
1.25399
1.25405
1.25389
1.25385
1.25355
1.2535
1.25308
1.25303
1.25303
1.25342
1.25356
1.25378
1.25421
1.25702
1.25469
1.25425
1.25411
1.25418
1.25404
1.25414
1.25405
1.25411
1.25395
1.25391
1.25361
1.25356
1.25314
1.25309
1.25308
1.25348
1.25362
1.25384
1.25427
1.25692
1.25457
1.25412
1.25398
1.25405
1.25392
1.25402
1.25395
1.254
1.25384
1.2538
1.25351
1.25346
1.25304
1.25299
1.25299
1.25338
1.25352
1.25374
1.25417
1.2571
1.25476
1.25432
1.25417
1.25424
1.25411
1.25421
1.25412
1.25418
1.25401
1.25397
1.25368
1.25362
1.2532
1.25315
1.25315
1.25354
1.25369
1.25391
1.25433
1.25688
1.25451
1.25407
1.25395
1.254
1.2539
1.25399
1.25392
1.25397
1.25382
1.25378
1.25349
1.25344
1.25302
1.25297
1.25297
1.25337
1.25351
1.25373
1.25415
1.25713
1.2547
1.25437
1.25425
1.25432
1.25419
1.25429
1.2542
1.25426
1.25409
1.25406
1.25376
1.25371
1.25328
1.25324
1.25323
1.25363
1.25377
1.25399
1.25442
1.25471
1.25258
1.2521
1.25223
1.25219
1.25221
1.25225
1.25227
1.25229
1.25219
1.25213
1.25187
1.25182
1.25141
1.25137
1.25137
1.25177
1.25191
1.25211
1.25282
1.25501
1.2529
1.25243
1.25253
1.25251
1.25251
1.25255
1.25255
1.25258
1.25246
1.25241
1.25214
1.25208
1.25167
1.25163
1.25163
1.25203
1.25217
1.2524
1.25284
1.25478
1.25265
1.25216
1.25229
1.25225
1.25228
1.25231
1.25233
1.25235
1.25225
1.2522
1.25194
1.25188
1.25147
1.25143
1.25143
1.25183
1.25197
1.2522
1.25262
1.25496
1.25285
1.25237
1.25249
1.25246
1.25247
1.25251
1.25251
1.25254
1.25243
1.25237
1.25211
1.25205
1.25165
1.2516
1.2516
1.252
1.25214
1.25237
1.2528
1.25485
1.25272
1.25223
1.25236
1.25233
1.25235
1.25238
1.2524
1.25242
1.25232
1.25227
1.25201
1.25195
1.25154
1.2515
1.2515
1.2519
1.25204
1.25227
1.25269
1.2549
1.25278
1.2523
1.25243
1.25239
1.25242
1.25245
1.25247
1.25249
1.25238
1.25233
1.25207
1.25201
1.2516
1.25156
1.25156
1.25196
1.2521
1.25234
1.25275
1.2549
1.25278
1.2523
1.25243
1.25239
1.25242
1.25245
1.25247
1.25249
1.25238
1.25233
1.25207
1.25201
1.2516
1.25156
1.25156
1.25196
1.2521
1.25233
1.25275
1.25485
1.25272
1.25223
1.25236
1.25233
1.25235
1.25238
1.2524
1.25242
1.25232
1.25227
1.25201
1.25195
1.25154
1.2515
1.2515
1.2519
1.25204
1.25227
1.25269
1.25496
1.25285
1.25237
1.25249
1.25246
1.25247
1.25251
1.25251
1.25254
1.25243
1.25237
1.25211
1.25205
1.25165
1.2516
1.2516
1.252
1.25214
1.25237
1.2528
1.25478
1.25265
1.25216
1.25229
1.25225
1.25228
1.25231
1.25233
1.25235
1.25225
1.2522
1.25194
1.25188
1.25147
1.25143
1.25143
1.25183
1.25197
1.2522
1.25262
1.25501
1.25291
1.25244
1.25254
1.25251
1.25251
1.25255
1.25255
1.25258
1.25246
1.2524
1.25214
1.25208
1.25167
1.25162
1.25162
1.25202
1.25217
1.2524
1.25283
1.25471
1.25259
1.2521
1.25223
1.25219
1.25221
1.25225
1.25227
1.25229
1.25219
1.25213
1.25187
1.25182
1.25141
1.25137
1.25136
1.25177
1.25191
1.25214
1.25257
1.2549
1.25269
1.2523
1.25234
1.25236
1.25233
1.25239
1.25238
1.25241
1.25229
1.25225
1.25198
1.25192
1.25151
1.25146
1.25146
1.25186
1.252
1.25218
1.25293
1.2549
1.25269
1.2523
1.25234
1.25236
1.25233
1.25239
1.25238
1.25241
1.25229
1.25224
1.25198
1.25192
1.25151
1.25146
1.25146
1.25186
1.252
1.25222
1.25263
1.2549
1.25269
1.2523
1.25234
1.25236
1.25233
1.25239
1.25238
1.25241
1.25229
1.25224
1.25198
1.25192
1.25151
1.25146
1.25146
1.25186
1.252
1.25222
1.25264
1.2549
1.25269
1.2523
1.25234
1.25236
1.25233
1.25239
1.25238
1.25241
1.25229
1.25224
1.25198
1.25192
1.25151
1.25146
1.25146
1.25186
1.252
1.25222
1.25264
1.2549
1.25269
1.2523
1.25234
1.25236
1.25233
1.25239
1.25238
1.25241
1.25229
1.25224
1.25198
1.25192
1.25151
1.25146
1.25146
1.25186
1.252
1.25222
1.25264
1.2549
1.25269
1.2523
1.25234
1.25236
1.25233
1.25239
1.25238
1.25241
1.25229
1.25224
1.25198
1.25192
1.25151
1.25146
1.25146
1.25186
1.252
1.25222
1.25264
1.2549
1.25269
1.2523
1.25234
1.25236
1.25233
1.25239
1.25238
1.25241
1.25229
1.25224
1.25198
1.25192
1.25151
1.25146
1.25146
1.25186
1.252
1.25222
1.25264
1.2549
1.25269
1.2523
1.25234
1.25236
1.25233
1.25239
1.25238
1.25241
1.25229
1.25224
1.25198
1.25192
1.25151
1.25146
1.25146
1.25186
1.252
1.25222
1.25264
1.2549
1.25269
1.2523
1.25235
1.25236
1.25233
1.25239
1.25238
1.25241
1.25229
1.25224
1.25198
1.25192
1.25151
1.25146
1.25146
1.25186
1.252
1.25222
1.25264
1.2549
1.25269
1.2523
1.25235
1.25236
1.25233
1.25239
1.25238
1.25241
1.25229
1.25224
1.25198
1.25192
1.25151
1.25146
1.25146
1.25186
1.25199
1.25222
1.25264
1.25491
1.25269
1.2523
1.25235
1.25236
1.25233
1.25239
1.25238
1.25241
1.25229
1.25224
1.25198
1.25192
1.25151
1.25146
1.25146
1.25186
1.25199
1.25222
1.25264
1.2549
1.25269
1.2523
1.25234
1.25236
1.25233
1.25239
1.25238
1.25241
1.25229
1.25224
1.25198
1.25192
1.25151
1.25146
1.25146
1.25186
1.25199
1.25222
1.25264
1.2549
1.25269
1.2523
1.25234
1.25236
1.25233
1.25239
1.25238
1.25241
1.25229
1.25225
1.25198
1.25192
1.25151
1.25146
1.25146
1.25186
1.252
1.25218
1.25293
1.2549
1.25269
1.2523
1.25234
1.25236
1.25233
1.25239
1.25238
1.25241
1.25229
1.25224
1.25198
1.25192
1.25151
1.25146
1.25146
1.25186
1.252
1.25222
1.25263
1.2549
1.25269
1.2523
1.25234
1.25236
1.25233
1.25239
1.25238
1.25241
1.25229
1.25224
1.25198
1.25192
1.25151
1.25146
1.25146
1.25186
1.252
1.25222
1.25264
1.2549
1.25269
1.2523
1.25234
1.25236
1.25233
1.25239
1.25238
1.25241
1.25229
1.25224
1.25198
1.25192
1.25151
1.25146
1.25146
1.25186
1.252
1.25222
1.25264
1.2549
1.25269
1.2523
1.25234
1.25236
1.25233
1.25239
1.25238
1.25241
1.25229
1.25224
1.25198
1.25192
1.25151
1.25146
1.25146
1.25186
1.252
1.25222
1.25264
1.2549
1.25269
1.2523
1.25234
1.25236
1.25233
1.25239
1.25238
1.25241
1.25229
1.25224
1.25198
1.25192
1.25151
1.25146
1.25146
1.25186
1.252
1.25222
1.25264
1.2549
1.25269
1.2523
1.25235
1.25236
1.25233
1.25239
1.25238
1.25241
1.25229
1.25224
1.25198
1.25192
1.25151
1.25146
1.25146
1.25186
1.252
1.25222
1.25264
1.2549
1.25269
1.2523
1.25234
1.25236
1.25233
1.25239
1.25238
1.25241
1.25229
1.25224
1.25198
1.25192
1.25151
1.25146
1.25146
1.25186
1.252
1.25222
1.25264
1.2549
1.25269
1.2523
1.25235
1.25236
1.25233
1.25239
1.25238
1.25241
1.25229
1.25224
1.25198
1.25192
1.25151
1.25146
1.25146
1.25186
1.252
1.25222
1.25264
1.2549
1.25269
1.2523
1.25235
1.25236
1.25233
1.25239
1.25238
1.25241
1.25229
1.25224
1.25198
1.25192
1.25151
1.25146
1.25146
1.25186
1.25199
1.25222
1.25264
1.25491
1.25269
1.2523
1.25235
1.25236
1.25233
1.25239
1.25238
1.25241
1.25229
1.25224
1.25198
1.25192
1.25151
1.25146
1.25146
1.25186
1.25199
1.25222
1.25264
1.2549
1.25269
1.2523
1.25234
1.25236
1.25233
1.25239
1.25238
1.25241
1.25229
1.25224
1.25198
1.25192
1.25151
1.25146
1.25146
1.25186
1.25199
1.25222
1.25264
1.25471
1.25258
1.2521
1.25223
1.25219
1.25221
1.25225
1.25227
1.25229
1.25219
1.25213
1.25187
1.25182
1.25141
1.25137
1.25137
1.25177
1.25191
1.25211
1.25282
1.25501
1.2529
1.25243
1.25253
1.25251
1.25251
1.25255
1.25255
1.25258
1.25246
1.25241
1.25214
1.25208
1.25167
1.25163
1.25163
1.25203
1.25217
1.2524
1.25284
1.25478
1.25265
1.25216
1.25229
1.25225
1.25228
1.25231
1.25233
1.25235
1.25225
1.2522
1.25194
1.25188
1.25147
1.25143
1.25143
1.25183
1.25197
1.2522
1.25262
1.25496
1.25285
1.25237
1.25249
1.25246
1.25247
1.25251
1.25251
1.25254
1.25243
1.25237
1.25211
1.25205
1.25165
1.2516
1.2516
1.252
1.25214
1.25237
1.2528
1.25485
1.25272
1.25223
1.25236
1.25233
1.25235
1.25238
1.2524
1.25242
1.25232
1.25227
1.25201
1.25195
1.25154
1.2515
1.2515
1.2519
1.25204
1.25227
1.25269
1.2549
1.25278
1.2523
1.25243
1.25239
1.25242
1.25245
1.25247
1.25249
1.25238
1.25233
1.25207
1.25201
1.2516
1.25156
1.25156
1.25196
1.2521
1.25234
1.25275
1.2549
1.25278
1.2523
1.25243
1.25239
1.25242
1.25245
1.25247
1.25249
1.25238
1.25233
1.25207
1.25201
1.2516
1.25156
1.25156
1.25196
1.2521
1.25233
1.25275
1.25485
1.25272
1.25223
1.25236
1.25233
1.25235
1.25238
1.2524
1.25242
1.25232
1.25227
1.25201
1.25195
1.25154
1.2515
1.2515
1.2519
1.25204
1.25227
1.25269
1.25496
1.25285
1.25237
1.25249
1.25246
1.25247
1.25251
1.25251
1.25254
1.25243
1.25237
1.25211
1.25205
1.25165
1.2516
1.2516
1.252
1.25214
1.25237
1.2528
1.25478
1.25265
1.25216
1.25229
1.25225
1.25228
1.25231
1.25233
1.25235
1.25225
1.2522
1.25194
1.25188
1.25147
1.25143
1.25143
1.25183
1.25197
1.2522
1.25262
1.25501
1.25291
1.25244
1.25254
1.25251
1.25251
1.25255
1.25255
1.25258
1.25246
1.2524
1.25214
1.25208
1.25167
1.25162
1.25162
1.25202
1.25217
1.2524
1.25283
1.25471
1.25259
1.2521
1.25223
1.25219
1.25221
1.25225
1.25227
1.25229
1.25219
1.25213
1.25187
1.25182
1.25141
1.25137
1.25136
1.25177
1.25191
1.25214
1.25257
1.25713
1.2547
1.25437
1.25425
1.25432
1.25419
1.25429
1.2542
1.25426
1.25409
1.25406
1.25376
1.25371
1.25328
1.25324
1.25323
1.25363
1.25377
1.25398
1.25459
1.25688
1.25451
1.25406
1.25395
1.254
1.2539
1.25399
1.25392
1.25397
1.25382
1.25378
1.25349
1.25344
1.25302
1.25298
1.25297
1.25337
1.25351
1.25372
1.2542
1.2571
1.25476
1.25432
1.25417
1.25424
1.25411
1.25421
1.25412
1.25418
1.25401
1.25397
1.25368
1.25362
1.2532
1.25315
1.25315
1.25354
1.25369
1.25391
1.25434
1.25691
1.25457
1.25412
1.25398
1.25405
1.25392
1.25402
1.25395
1.254
1.25384
1.2538
1.25351
1.25346
1.25304
1.25299
1.25299
1.25338
1.25352
1.25374
1.25417
1.25702
1.25469
1.25425
1.25411
1.25418
1.25404
1.25414
1.25405
1.25411
1.25395
1.25391
1.25361
1.25356
1.25314
1.25309
1.25308
1.25348
1.25362
1.25384
1.25427
1.25696
1.25463
1.25418
1.25404
1.25411
1.25398
1.25408
1.25399
1.25405
1.25389
1.25385
1.25355
1.2535
1.25308
1.25303
1.25303
1.25342
1.25356
1.25378
1.25421
1.25696
1.25463
1.25418
1.25404
1.25411
1.25398
1.25408
1.25399
1.25405
1.25389
1.25385
1.25355
1.2535
1.25308
1.25303
1.25303
1.25342
1.25356
1.25378
1.25421
1.25702
1.25469
1.25425
1.25411
1.25418
1.25404
1.25414
1.25405
1.25411
1.25395
1.25391
1.25361
1.25356
1.25314
1.25309
1.25308
1.25348
1.25362
1.25384
1.25427
1.25692
1.25457
1.25412
1.25398
1.25405
1.25392
1.25402
1.25395
1.254
1.25384
1.2538
1.25351
1.25346
1.25304
1.25299
1.25299
1.25338
1.25352
1.25374
1.25417
1.2571
1.25476
1.25432
1.25417
1.25424
1.25411
1.25421
1.25412
1.25418
1.25401
1.25397
1.25368
1.25362
1.2532
1.25315
1.25315
1.25354
1.25369
1.25391
1.25433
1.25688
1.25451
1.25407
1.25395
1.254
1.2539
1.25399
1.25392
1.25397
1.25382
1.25378
1.25349
1.25344
1.25302
1.25297
1.25297
1.25337
1.25351
1.25373
1.25415
1.25713
1.2547
1.25437
1.25425
1.25432
1.25419
1.25429
1.2542
1.25426
1.2541
1.25406
1.25376
1.25371
1.25328
1.25324
1.25323
1.25363
1.25377
1.25399
1.25442
1.25183
1.2511
1.25099
1.24942
1.24983
1.25126
1.25241
1.24989
1.2476
1.24717
1.25011
1.2533
1.25544
1.25317
1.24893
1.24275
1.23737
1.23291
1.22999
1.22814
1.22714
1.22661
1.22637
1.22625
1.2262
1.22619
1.22618
1.22618
1.22617
1.22617
1.22617
1.22617
1.22617
1.22617
1.22617
1.22617
1.22617
1.22617
1.22617
1.22617
1.22617
1.22617
1.22617
1.22617
1.22617
1.22617
1.22617
1.22617
1.22617
1.22617
1.22617
1.22617
1.22617
1.22617
1.22617
1.22617
1.22617
1.22617
1.22617
1.22617
1.22618
1.22618
1.22618
1.22618
1.22619
1.2262
1.22623
1.22626
1.22632
1.22636
1.22645
1.22649
1.22654
1.22656
1.22654
1.22653
1.22651
1.22651
1.22652
1.22652
1.2265
1.22649
1.22646
1.22646
1.22644
1.22644
1.22639
1.22639
1.22632
1.22633
1.25334
1.2528
1.2527
1.25115
1.25157
1.25301
1.25417
1.25166
1.24937
1.24894
1.25189
1.25508
1.25723
1.25495
1.25071
1.24451
1.23912
1.23465
1.23173
1.22988
1.22887
1.22834
1.2281
1.22798
1.22794
1.22792
1.22791
1.22791
1.22791
1.22791
1.2279
1.2279
1.2279
1.2279
1.2279
1.2279
1.2279
1.2279
1.2279
1.2279
1.2279
1.2279
1.2279
1.2279
1.2279
1.2279
1.2279
1.2279
1.2279
1.2279
1.2279
1.2279
1.2279
1.2279
1.2279
1.2279
1.2279
1.2279
1.22791
1.22791
1.22791
1.22791
1.22791
1.22791
1.22792
1.22794
1.22796
1.22799
1.22805
1.2281
1.22818
1.22822
1.22827
1.22829
1.22827
1.22826
1.22824
1.22824
1.22825
1.22825
1.22823
1.22822
1.22819
1.22819
1.22817
1.22817
1.22813
1.22813
1.22808
1.22808
1.25432
1.25383
1.25371
1.25214
1.25255
1.25398
1.25514
1.25262
1.25033
1.24991
1.25285
1.25605
1.25819
1.25593
1.25169
1.24549
1.24011
1.23564
1.23272
1.23087
1.22986
1.22933
1.22908
1.22897
1.22892
1.2289
1.2289
1.22889
1.22889
1.22889
1.22889
1.22889
1.22889
1.22889
1.22889
1.22889
1.22889
1.22889
1.22889
1.22889
1.22889
1.22889
1.22889
1.22889
1.22889
1.22889
1.22889
1.22889
1.22889
1.22889
1.22889
1.22889
1.22889
1.22889
1.22889
1.22889
1.22889
1.22889
1.22889
1.22889
1.22889
1.22889
1.2289
1.2289
1.22891
1.22892
1.22895
1.22898
1.22904
1.22908
1.22917
1.22921
1.22926
1.22927
1.22926
1.22925
1.22922
1.22923
1.22923
1.22924
1.22922
1.22921
1.22918
1.22918
1.22916
1.22916
1.22911
1.22911
1.22904
1.22903
1.25403
1.25357
1.25347
1.25192
1.25234
1.25378
1.25494
1.25244
1.25014
1.24971
1.25266
1.25585
1.258
1.25573
1.25148
1.24528
1.23989
1.23542
1.23249
1.23064
1.22963
1.2291
1.22886
1.22874
1.22869
1.22868
1.22867
1.22867
1.22866
1.22866
1.22866
1.22866
1.22866
1.22866
1.22866
1.22866
1.22866
1.22866
1.22866
1.22866
1.22866
1.22866
1.22866
1.22866
1.22866
1.22866
1.22866
1.22866
1.22866
1.22866
1.22866
1.22866
1.22866
1.22866
1.22866
1.22866
1.22866
1.22866
1.22866
1.22866
1.22867
1.22867
1.22867
1.22867
1.22868
1.22869
1.22872
1.22875
1.22881
1.22885
1.22894
1.22898
1.22903
1.22905
1.22903
1.22902
1.229
1.229
1.22901
1.22901
1.22899
1.22898
1.22895
1.22895
1.22893
1.22893
1.22889
1.22889
1.22884
1.22884
1.25421
1.25372
1.2536
1.25203
1.25245
1.25388
1.25505
1.25254
1.25024
1.24982
1.25277
1.25596
1.2581
1.25583
1.25159
1.24539
1.24
1.23553
1.23261
1.23076
1.22975
1.22922
1.22897
1.22886
1.22881
1.22879
1.22879
1.22878
1.22878
1.22878
1.22878
1.22878
1.22878
1.22878
1.22878
1.22878
1.22878
1.22878
1.22878
1.22878
1.22878
1.22878
1.22878
1.22878
1.22878
1.22878
1.22878
1.22878
1.22878
1.22878
1.22878
1.22878
1.22878
1.22878
1.22878
1.22878
1.22878
1.22878
1.22878
1.22878
1.22878
1.22878
1.22879
1.22879
1.2288
1.22881
1.22884
1.22887
1.22893
1.22897
1.22905
1.2291
1.22915
1.22916
1.22915
1.22914
1.22911
1.22912
1.22912
1.22913
1.22911
1.2291
1.22907
1.22907
1.22905
1.22905
1.229
1.229
1.22894
1.22894
1.25407
1.25361
1.25351
1.25196
1.25239
1.25383
1.25499
1.25248
1.25018
1.24976
1.2527
1.2559
1.25804
1.25577
1.25152
1.24532
1.23993
1.23546
1.23253
1.23068
1.22967
1.22914
1.2289
1.22878
1.22873
1.22872
1.22871
1.22871
1.2287
1.2287
1.2287
1.2287
1.2287
1.2287
1.2287
1.2287
1.2287
1.2287
1.2287
1.2287
1.2287
1.2287
1.2287
1.2287
1.2287
1.2287
1.2287
1.2287
1.2287
1.2287
1.2287
1.2287
1.2287
1.2287
1.2287
1.2287
1.2287
1.2287
1.2287
1.2287
1.22871
1.22871
1.22871
1.22871
1.22872
1.22873
1.22876
1.22879
1.22885
1.22889
1.22898
1.22902
1.22907
1.22909
1.22907
1.22906
1.22904
1.22904
1.22905
1.22905
1.22903
1.22902
1.22899
1.22899
1.22897
1.22897
1.22893
1.22893
1.22889
1.22888
1.25407
1.25361
1.25351
1.25196
1.25239
1.25383
1.25499
1.25248
1.25018
1.24976
1.2527
1.25589
1.25804
1.25577
1.25152
1.24532
1.23993
1.23546
1.23253
1.23068
1.22967
1.22914
1.2289
1.22878
1.22873
1.22871
1.22871
1.22871
1.2287
1.2287
1.2287
1.2287
1.2287
1.2287
1.2287
1.2287
1.2287
1.2287
1.2287
1.2287
1.2287
1.2287
1.2287
1.2287
1.2287
1.2287
1.2287
1.2287
1.2287
1.2287
1.2287
1.2287
1.2287
1.2287
1.2287
1.2287
1.2287
1.2287
1.2287
1.2287
1.2287
1.22871
1.22871
1.22871
1.22872
1.22873
1.22876
1.22879
1.22885
1.22889
1.22898
1.22902
1.22907
1.22909
1.22907
1.22906
1.22904
1.22904
1.22904
1.22905
1.22903
1.22902
1.22899
1.22899
1.22897
1.22897
1.22893
1.22893
1.22889
1.22888
1.25421
1.25372
1.2536
1.25203
1.25245
1.25388
1.25504
1.25254
1.25024
1.24982
1.25276
1.25596
1.2581
1.25583
1.25159
1.24539
1.24
1.23553
1.2326
1.23075
1.22975
1.22922
1.22897
1.22886
1.22881
1.22879
1.22878
1.22878
1.22878
1.22878
1.22878
1.22878
1.22878
1.22878
1.22878
1.22878
1.22878
1.22878
1.22878
1.22878
1.22878
1.22878
1.22878
1.22878
1.22878
1.22878
1.22878
1.22878
1.22878
1.22878
1.22878
1.22878
1.22878
1.22878
1.22878
1.22878
1.22878
1.22878
1.22878
1.22878
1.22878
1.22878
1.22878
1.22879
1.2288
1.22881
1.22884
1.22887
1.22893
1.22897
1.22905
1.22909
1.22915
1.22916
1.22915
1.22914
1.22911
1.22911
1.22912
1.22912
1.2291
1.2291
1.22907
1.22907
1.22905
1.22905
1.229
1.22899
1.22894
1.22894
1.25403
1.25357
1.25347
1.25192
1.25234
1.25378
1.25494
1.25243
1.25014
1.24971
1.25266
1.25585
1.258
1.25572
1.25148
1.24528
1.23989
1.23542
1.23249
1.23064
1.22963
1.2291
1.22885
1.22874
1.22869
1.22867
1.22867
1.22866
1.22866
1.22866
1.22866
1.22866
1.22866
1.22866
1.22866
1.22866
1.22866
1.22866
1.22866
1.22866
1.22866
1.22866
1.22866
1.22866
1.22866
1.22866
1.22866
1.22866
1.22866
1.22866
1.22866
1.22866
1.22866
1.22866
1.22866
1.22866
1.22866
1.22866
1.22866
1.22866
1.22866
1.22866
1.22867
1.22867
1.22868
1.22869
1.22872
1.22875
1.22881
1.22885
1.22894
1.22898
1.22903
1.22904
1.22903
1.22902
1.229
1.229
1.229
1.22901
1.22899
1.22898
1.22895
1.22895
1.22893
1.22893
1.22889
1.22888
1.22884
1.22884
1.25437
1.25388
1.25376
1.25219
1.2526
1.25403
1.25518
1.25267
1.25038
1.24995
1.2529
1.2561
1.25824
1.25598
1.25174
1.24554
1.24016
1.23569
1.23276
1.23091
1.22991
1.22938
1.22913
1.22902
1.22897
1.22895
1.22894
1.22894
1.22894
1.22894
1.22894
1.22894
1.22894
1.22894
1.22894
1.22894
1.22894
1.22894
1.22894
1.22894
1.22894
1.22894
1.22894
1.22894
1.22894
1.22894
1.22894
1.22894
1.22894
1.22894
1.22894
1.22894
1.22894
1.22894
1.22894
1.22894
1.22894
1.22894
1.22894
1.22894
1.22894
1.22894
1.22895
1.22895
1.22896
1.22897
1.229
1.22903
1.22909
1.22913
1.22921
1.22926
1.22931
1.22932
1.22931
1.2293
1.22927
1.22927
1.22928
1.22929
1.22926
1.22926
1.22923
1.22923
1.22921
1.22921
1.22916
1.22916
1.22909
1.22908
1.25401
1.25355
1.25344
1.25189
1.25231
1.25375
1.25491
1.25241
1.25011
1.24969
1.25264
1.25583
1.25798
1.25571
1.25146
1.24526
1.23987
1.23539
1.23247
1.23062
1.22961
1.22908
1.22883
1.22872
1.22867
1.22865
1.22865
1.22864
1.22864
1.22864
1.22864
1.22864
1.22864
1.22864
1.22864
1.22864
1.22864
1.22864
1.22864
1.22864
1.22864
1.22864
1.22864
1.22864
1.22864
1.22864
1.22864
1.22864
1.22864
1.22864
1.22864
1.22864
1.22864
1.22864
1.22864
1.22864
1.22864
1.22864
1.22864
1.22864
1.22864
1.22864
1.22865
1.22865
1.22866
1.22867
1.2287
1.22873
1.22879
1.22883
1.22892
1.22896
1.22901
1.22902
1.22901
1.229
1.22898
1.22898
1.22898
1.22899
1.22897
1.22896
1.22893
1.22893
1.22891
1.22891
1.22887
1.22886
1.22882
1.22882
1.25462
1.25413
1.25402
1.25245
1.25286
1.25429
1.25545
1.25294
1.25064
1.25021
1.25316
1.25636
1.25851
1.25624
1.252
1.2458
1.24042
1.23594
1.23302
1.23117
1.23017
1.22964
1.22939
1.22928
1.22923
1.22921
1.2292
1.2292
1.2292
1.2292
1.2292
1.2292
1.2292
1.2292
1.2292
1.2292
1.2292
1.2292
1.2292
1.2292
1.2292
1.2292
1.2292
1.2292
1.2292
1.2292
1.2292
1.2292
1.2292
1.2292
1.2292
1.2292
1.2292
1.2292
1.2292
1.2292
1.2292
1.2292
1.2292
1.2292
1.2292
1.2292
1.2292
1.22921
1.22922
1.22923
1.22926
1.22928
1.22935
1.22939
1.22947
1.22951
1.22957
1.22958
1.22957
1.22956
1.22953
1.22953
1.22954
1.22954
1.22952
1.22952
1.22948
1.22948
1.22947
1.22946
1.22941
1.22941
1.22935
1.22935
1.24912
1.24838
1.24832
1.24683
1.24727
1.24874
1.24991
1.24742
1.24512
1.24469
1.24765
1.25085
1.253
1.25073
1.24648
1.24027
1.23486
1.23038
1.22745
1.22559
1.22459
1.22406
1.22381
1.22369
1.22365
1.22363
1.22362
1.22362
1.22362
1.22362
1.22362
1.22362
1.22362
1.22362
1.22362
1.22362
1.22362
1.22362
1.22362
1.22362
1.22362
1.22362
1.22362
1.22362
1.22362
1.22362
1.22362
1.22362
1.22362
1.22362
1.22362
1.22362
1.22362
1.22362
1.22362
1.22362
1.22362
1.22362
1.22362
1.22362
1.22362
1.22362
1.22362
1.22362
1.22363
1.22365
1.22368
1.2237
1.22376
1.22381
1.22389
1.22393
1.22398
1.224
1.22398
1.22398
1.22395
1.22395
1.22396
1.22396
1.22394
1.22393
1.2239
1.2239
1.22389
1.22389
1.22387
1.22387
1.22388
1.2239
1.25259
1.25215
1.25208
1.25056
1.25099
1.25246
1.25364
1.25114
1.24884
1.24842
1.25138
1.2546
1.25677
1.2545
1.25025
1.24403
1.23862
1.23412
1.23119
1.22933
1.22832
1.22779
1.22754
1.22742
1.22737
1.22735
1.22735
1.22734
1.22734
1.22734
1.22734
1.22734
1.22734
1.22734
1.22734
1.22734
1.22734
1.22734
1.22734
1.22734
1.22734
1.22734
1.22734
1.22734
1.22734
1.22734
1.22734
1.22734
1.22734
1.22734
1.22734
1.22734
1.22734
1.22734
1.22734
1.22734
1.22734
1.22734
1.22734
1.22734
1.22734
1.22734
1.22735
1.22735
1.22736
1.22737
1.2274
1.22743
1.22749
1.22753
1.22762
1.22766
1.22771
1.22773
1.22771
1.2277
1.22768
1.22768
1.22768
1.22769
1.22767
1.22766
1.22763
1.22763
1.22762
1.22762
1.22759
1.22759
1.22758
1.22758
1.25241
1.25203
1.25197
1.25048
1.25092
1.2524
1.25358
1.25108
1.24878
1.24836
1.25132
1.25453
1.2567
1.25442
1.25017
1.24394
1.23852
1.23403
1.23109
1.22923
1.22822
1.22768
1.22743
1.22732
1.22727
1.22725
1.22725
1.22724
1.22724
1.22724
1.22724
1.22724
1.22724
1.22724
1.22724
1.22724
1.22724
1.22724
1.22724
1.22724
1.22724
1.22724
1.22724
1.22724
1.22724
1.22724
1.22724
1.22724
1.22724
1.22724
1.22724
1.22724
1.22724
1.22724
1.22724
1.22724
1.22724
1.22724
1.22724
1.22724
1.22724
1.22724
1.22725
1.22725
1.22726
1.22727
1.2273
1.22733
1.22739
1.22743
1.22752
1.22756
1.22761
1.22763
1.22761
1.2276
1.22757
1.22758
1.22758
1.22759
1.22756
1.22756
1.22753
1.22753
1.22752
1.22751
1.22749
1.22749
1.22751
1.22751
1.25281
1.25241
1.25233
1.25081
1.25124
1.25271
1.25389
1.25139
1.24909
1.24866
1.25162
1.25484
1.25701
1.25475
1.2505
1.24427
1.23886
1.23437
1.23143
1.22957
1.22856
1.22803
1.22778
1.22766
1.22762
1.2276
1.22759
1.22759
1.22759
1.22759
1.22759
1.22759
1.22759
1.22759
1.22759
1.22759
1.22759
1.22759
1.22759
1.22759
1.22759
1.22759
1.22759
1.22759
1.22759
1.22759
1.22759
1.22759
1.22759
1.22759
1.22759
1.22759
1.22759
1.22759
1.22759
1.22759
1.22759
1.22759
1.22759
1.22759
1.22759
1.22759
1.22759
1.2276
1.22761
1.22762
1.22765
1.22767
1.22774
1.22778
1.22786
1.2279
1.22796
1.22797
1.22796
1.22795
1.22792
1.22792
1.22793
1.22793
1.22791
1.2279
1.22787
1.22787
1.22786
1.22786
1.22783
1.22783
1.22783
1.22783
1.25259
1.25223
1.25216
1.25066
1.2511
1.25257
1.25375
1.25125
1.24895
1.24852
1.25148
1.2547
1.25687
1.2546
1.25035
1.24413
1.23871
1.23422
1.23128
1.22942
1.22841
1.22788
1.22763
1.22751
1.22746
1.22745
1.22744
1.22744
1.22743
1.22743
1.22743
1.22743
1.22743
1.22743
1.22743
1.22743
1.22743
1.22743
1.22743
1.22743
1.22743
1.22743
1.22743
1.22743
1.22743
1.22743
1.22743
1.22743
1.22743
1.22743
1.22743
1.22743
1.22743
1.22743
1.22743
1.22743
1.22743
1.22743
1.22743
1.22743
1.22744
1.22744
1.22744
1.22744
1.22745
1.22746
1.22749
1.22752
1.22758
1.22763
1.22771
1.22775
1.2278
1.22782
1.2278
1.22779
1.22777
1.22777
1.22778
1.22778
1.22776
1.22775
1.22772
1.22772
1.22771
1.22771
1.22769
1.22769
1.22769
1.22769
1.25275
1.25235
1.25227
1.25075
1.25118
1.25265
1.25383
1.25133
1.24902
1.2486
1.25156
1.25478
1.25695
1.25469
1.25044
1.24421
1.2388
1.23431
1.23137
1.22951
1.2285
1.22797
1.22772
1.22761
1.22756
1.22754
1.22753
1.22753
1.22753
1.22753
1.22753
1.22753
1.22753
1.22753
1.22753
1.22753
1.22753
1.22753
1.22753
1.22753
1.22753
1.22753
1.22753
1.22753
1.22753
1.22753
1.22753
1.22753
1.22753
1.22753
1.22753
1.22753
1.22753
1.22753
1.22753
1.22753
1.22753
1.22753
1.22753
1.22753
1.22753
1.22753
1.22753
1.22754
1.22755
1.22756
1.22759
1.22761
1.22768
1.22772
1.2278
1.22784
1.2279
1.22791
1.2279
1.22789
1.22786
1.22786
1.22787
1.22787
1.22785
1.22785
1.22781
1.22781
1.2278
1.2278
1.22777
1.22777
1.22777
1.22777
1.25275
1.25235
1.25227
1.25075
1.25118
1.25265
1.25383
1.25132
1.24902
1.2486
1.25156
1.25478
1.25695
1.25469
1.25044
1.24421
1.2388
1.23431
1.23137
1.22951
1.2285
1.22797
1.22772
1.2276
1.22756
1.22754
1.22753
1.22753
1.22753
1.22753
1.22753
1.22753
1.22753
1.22753
1.22753
1.22753
1.22753
1.22753
1.22753
1.22753
1.22753
1.22753
1.22753
1.22753
1.22753
1.22753
1.22753
1.22753
1.22753
1.22753
1.22753
1.22753
1.22753
1.22753
1.22753
1.22753
1.22753
1.22753
1.22753
1.22753
1.22753
1.22753
1.22753
1.22754
1.22755
1.22756
1.22759
1.22761
1.22768
1.22772
1.2278
1.22784
1.2279
1.22791
1.2279
1.22789
1.22786
1.22786
1.22787
1.22787
1.22785
1.22784
1.22781
1.22781
1.2278
1.2278
1.22777
1.22777
1.22776
1.22776
1.25259
1.25223
1.25216
1.25066
1.2511
1.25257
1.25375
1.25125
1.24895
1.24852
1.25148
1.2547
1.25687
1.2546
1.25035
1.24413
1.23871
1.23422
1.23128
1.22942
1.22841
1.22788
1.22762
1.22751
1.22746
1.22744
1.22744
1.22743
1.22743
1.22743
1.22743
1.22743
1.22743
1.22743
1.22743
1.22743
1.22743
1.22743
1.22743
1.22743
1.22743
1.22743
1.22743
1.22743
1.22743
1.22743
1.22743
1.22743
1.22743
1.22743
1.22743
1.22743
1.22743
1.22743
1.22743
1.22743
1.22743
1.22743
1.22743
1.22743
1.22743
1.22743
1.22744
1.22744
1.22745
1.22746
1.22749
1.22752
1.22758
1.22762
1.22771
1.22775
1.2278
1.22782
1.2278
1.22779
1.22777
1.22777
1.22777
1.22778
1.22776
1.22775
1.22772
1.22772
1.22771
1.2277
1.22768
1.22768
1.22769
1.22769
1.25281
1.25241
1.25233
1.25081
1.25124
1.25271
1.25389
1.25139
1.24908
1.24866
1.25162
1.25484
1.25701
1.25474
1.25049
1.24427
1.23886
1.23437
1.23143
1.22957
1.22856
1.22803
1.22778
1.22766
1.22761
1.22759
1.22759
1.22759
1.22758
1.22758
1.22758
1.22758
1.22758
1.22758
1.22758
1.22758
1.22758
1.22758
1.22758
1.22758
1.22758
1.22758
1.22758
1.22758
1.22758
1.22758
1.22758
1.22758
1.22758
1.22758
1.22758
1.22758
1.22758
1.22758
1.22758
1.22758
1.22758
1.22758
1.22758
1.22758
1.22758
1.22759
1.22759
1.22759
1.2276
1.22761
1.22764
1.22767
1.22773
1.22778
1.22786
1.2279
1.22795
1.22797
1.22795
1.22794
1.22792
1.22792
1.22792
1.22793
1.22791
1.2279
1.22787
1.22787
1.22786
1.22786
1.22783
1.22783
1.22782
1.22782
1.25242
1.25205
1.25198
1.25049
1.25093
1.25241
1.25359
1.25109
1.24879
1.24837
1.25133
1.25454
1.25671
1.25443
1.25018
1.24395
1.23853
1.23404
1.2311
1.22924
1.22823
1.22769
1.22744
1.22733
1.22728
1.22726
1.22725
1.22725
1.22725
1.22725
1.22725
1.22725
1.22725
1.22725
1.22725
1.22725
1.22725
1.22725
1.22725
1.22725
1.22725
1.22725
1.22725
1.22725
1.22725
1.22725
1.22725
1.22725
1.22725
1.22725
1.22725
1.22725
1.22725
1.22725
1.22725
1.22725
1.22725
1.22725
1.22725
1.22725
1.22725
1.22725
1.22726
1.22726
1.22727
1.22728
1.22731
1.22734
1.2274
1.22744
1.22753
1.22757
1.22762
1.22763
1.22762
1.22761
1.22758
1.22759
1.22759
1.2276
1.22757
1.22757
1.22754
1.22754
1.22752
1.22752
1.2275
1.2275
1.22753
1.22753
1.25289
1.25248
1.2524
1.25088
1.25131
1.25278
1.25396
1.25146
1.24916
1.24874
1.2517
1.25492
1.25709
1.25482
1.25057
1.24434
1.23893
1.23444
1.2315
1.22964
1.22863
1.2281
1.22785
1.22773
1.22769
1.22767
1.22766
1.22766
1.22766
1.22766
1.22766
1.22766
1.22766
1.22766
1.22766
1.22766
1.22766
1.22766
1.22766
1.22766
1.22766
1.22766
1.22766
1.22766
1.22766
1.22766
1.22766
1.22766
1.22766
1.22766
1.22766
1.22766
1.22766
1.22766
1.22766
1.22766
1.22766
1.22766
1.22766
1.22766
1.22766
1.22766
1.22766
1.22767
1.22768
1.22769
1.22772
1.22774
1.22781
1.22785
1.22793
1.22797
1.22803
1.22804
1.22803
1.22802
1.22799
1.22799
1.228
1.228
1.22798
1.22797
1.22794
1.22794
1.22793
1.22793
1.2279
1.2279
1.2279
1.2279
1.25223
1.25186
1.25179
1.25029
1.25073
1.25222
1.2534
1.2509
1.2486
1.24818
1.25114
1.25436
1.25652
1.25425
1.24999
1.24377
1.23835
1.23386
1.23092
1.22906
1.22805
1.22752
1.22727
1.22715
1.2271
1.22708
1.22708
1.22707
1.22707
1.22707
1.22707
1.22707
1.22707
1.22707
1.22707
1.22707
1.22707
1.22707
1.22707
1.22707
1.22707
1.22707
1.22707
1.22707
1.22707
1.22707
1.22707
1.22707
1.22707
1.22707
1.22707
1.22707
1.22707
1.22707
1.22707
1.22707
1.22707
1.22707
1.22707
1.22707
1.22707
1.22708
1.22708
1.22708
1.22709
1.2271
1.22713
1.22716
1.22722
1.22727
1.22735
1.22739
1.22744
1.22746
1.22744
1.22743
1.22741
1.22741
1.22741
1.22742
1.2274
1.22739
1.22736
1.22736
1.22735
1.22735
1.22733
1.22732
1.22735
1.22735
1.24916
1.24834
1.24826
1.24677
1.2472
1.24868
1.24987
1.24737
1.24507
1.24464
1.2476
1.25083
1.25301
1.25075
1.2465
1.24028
1.23486
1.23037
1.22742
1.22556
1.22455
1.22402
1.22377
1.22365
1.22361
1.22359
1.22358
1.22358
1.22358
1.22358
1.22358
1.22358
1.22358
1.22358
1.22358
1.22358
1.22358
1.22358
1.22358
1.22358
1.22358
1.22358
1.22358
1.22358
1.22358
1.22358
1.22358
1.22358
1.22358
1.22358
1.22358
1.22358
1.22358
1.22358
1.22358
1.22358
1.22358
1.22358
1.22358
1.22358
1.22358
1.22358
1.22358
1.22359
1.2236
1.22361
1.22364
1.22366
1.22373
1.22377
1.22385
1.22389
1.22395
1.22396
1.22394
1.22394
1.22391
1.22391
1.22392
1.22392
1.2239
1.22389
1.22386
1.22386
1.22385
1.22385
1.22382
1.22381
1.22379
1.22379
1.2526
1.25225
1.25216
1.25066
1.2511
1.25259
1.25379
1.25129
1.24898
1.24856
1.25154
1.25478
1.25697
1.25471
1.25046
1.24421
1.23878
1.23427
1.23132
1.22946
1.22844
1.22791
1.22766
1.22754
1.2275
1.22748
1.22747
1.22747
1.22747
1.22746
1.22746
1.22746
1.22746
1.22746