/*--------------------------------*- C++ -*----------------------------------*\
  =========                 |
  \\      /  F ield         | OpenFOAM: The Open Source CFD Toolbox
   \\    /   O peration     | Website:  https://openfoam.org
    \\  /    A nd           | Version:  7
     \\/     M anipulation  |
\*---------------------------------------------------------------------------*/
FoamFile
{
    version     2.0;
    format      ascii;
    class       volScalarField;
    location    "0.03";
    object      nut;
}
// * * * * * * * * * * * * * * * * * * * * * * * * * * * * * * * * * * * * * //

dimensions      [0 2 -1 0 0 0 0];

internalField   nonuniform List<scalar> 
400
(
6.08857e-06
6.28529e-06
7.34067e-06
7.82091e-06
7.51044e-06
6.92508e-06
6.0347e-06
6.24457e-06
5.48813e-06
5.80981e-06
5.67216e-06
4.67441e-06
4.57015e-06
3.8747e-06
4.60363e-06
4.42816e-06
4.04823e-06
3.39652e-06
2.56426e-06
9.85861e-07
4.55927e-06
4.93796e-06
5.46127e-06
5.50664e-06
5.60569e-06
5.38581e-06
5.37909e-06
5.41294e-06
6.01061e-06
6.33895e-06
5.46674e-06
4.62337e-06
4.3931e-06
4.34627e-06
3.97783e-06
3.60584e-06
3.09445e-06
2.26818e-06
1.64308e-06
5.04627e-07
3.71643e-06
4.26236e-06
5.22572e-06
5.76443e-06
5.54644e-06
5.64328e-06
6.01785e-06
5.73871e-06
6.29956e-06
7.12961e-06
7.2409e-06
7.20663e-06
4.84654e-06
4.35357e-06
3.50139e-06
3.43881e-06
3.48448e-06
2.43846e-06
1.33444e-06
5.04404e-07
4.14946e-06
4.52474e-06
5.34807e-06
5.63048e-06
5.41801e-06
6.57764e-06
7.19935e-06
7.04182e-06
6.37245e-06
6.50307e-06
6.74099e-06
7.27613e-06
6.74386e-06
4.58501e-06
3.72418e-06
3.97261e-06
3.99324e-06
2.85202e-06
1.87931e-06
6.64438e-07
5.39938e-06
4.94517e-06
5.70929e-06
6.508e-06
5.8852e-06
7.27996e-06
5.69489e-06
5.65548e-06
5.64918e-06
5.70384e-06
6.02016e-06
6.85429e-06
6.80472e-06
5.88455e-06
4.4984e-06
4.40425e-06
4.07121e-06
2.74119e-06
1.48616e-06
5.25439e-07
6.37586e-06
6.23428e-06
5.88534e-06
6.14939e-06
6.52239e-06
7.12007e-06
4.99052e-06
5.2301e-06
4.9232e-06
5.07267e-06
5.6694e-06
6.80335e-06
6.62344e-06
6.04282e-06
5.37162e-06
4.36126e-06
3.30968e-06
2.05503e-06
1.42432e-06
7.14995e-07
6.80268e-06
6.3731e-06
5.78749e-06
7.13619e-06
7.60553e-06
7.46413e-06
4.75056e-06
5.12096e-06
4.64754e-06
4.76214e-06
5.51103e-06
6.74079e-06
6.31591e-06
5.74818e-06
5.45001e-06
4.15029e-06
2.61781e-06
2.84851e-06
2.76583e-06
1.43564e-06
7.49039e-06
5.86417e-06
5.84936e-06
6.71421e-06
8.11227e-06
7.9721e-06
4.48354e-06
4.36764e-06
4.45137e-06
4.92189e-06
5.44161e-06
5.87392e-06
5.37892e-06
5.13277e-06
4.7659e-06
3.6758e-06
3.33557e-06
3.77254e-06
3.6396e-06
3.05715e-06
8.28961e-06
5.74701e-06
6.1132e-06
6.22286e-06
6.74504e-06
7.88828e-06
5.60231e-06
4.46153e-06
4.40396e-06
4.59769e-06
4.76329e-06
4.73346e-06
4.47822e-06
4.36926e-06
4.32381e-06
4.10058e-06
3.8497e-06
3.58947e-06
3.80132e-06
4.02728e-06
7.97549e-06
6.07032e-06
6.06886e-06
6.21458e-06
6.37091e-06
6.09721e-06
6.26099e-06
5.43321e-06
4.40403e-06
4.42663e-06
4.15095e-06
4.02565e-06
4.06607e-06
4.07178e-06
4.31683e-06
4.38934e-06
3.67494e-06
3.7384e-06
3.8461e-06
4.20361e-06
7.33784e-06
6.08081e-06
6.66263e-06
5.76567e-06
6.38991e-06
5.38846e-06
5.23459e-06
5.68838e-06
4.47753e-06
4.08215e-06
3.82178e-06
3.81855e-06
3.92185e-06
3.88138e-06
4.12848e-06
3.91921e-06
3.80782e-06
4.02793e-06
3.95847e-06
4.13904e-06
7.17507e-06
5.48228e-06
5.35697e-06
4.51871e-06
4.91254e-06
4.54221e-06
4.63393e-06
5.10389e-06
4.78034e-06
4.02738e-06
3.59172e-06
3.5946e-06
4.01313e-06
4.37941e-06
4.01136e-06
3.77984e-06
3.85802e-06
3.84109e-06
3.84704e-06
4.12661e-06
7.31283e-06
4.64841e-06
4.51949e-06
4.1943e-06
4.25188e-06
4.31782e-06
4.41796e-06
4.59829e-06
4.55763e-06
3.47324e-06
3.49756e-06
3.86438e-06
4.46437e-06
5.86277e-06
5.04952e-06
4.13717e-06
3.89627e-06
4.18522e-06
3.6896e-06
3.797e-06
6.00656e-06
4.91763e-06
4.99823e-06
4.82169e-06
4.36888e-06
4.49208e-06
4.43674e-06
4.72685e-06
4.20942e-06
3.61071e-06
3.55313e-06
4.01853e-06
4.74742e-06
8.20894e-06
6.61752e-06
5.19369e-06
4.73717e-06
4.80033e-06
4.1471e-06
3.95839e-06
4.60223e-06
5.33211e-06
5.51579e-06
4.90283e-06
5.06688e-06
5.78941e-06
5.69547e-06
5.92718e-06
5.26432e-06
3.79864e-06
4.1354e-06
5.25235e-06
6.37716e-06
6.21357e-06
6.71438e-06
4.39655e-06
5.70555e-06
4.92592e-06
4.08376e-06
3.97415e-06
4.86033e-06
5.16357e-06
5.62482e-06
5.30219e-06
5.76318e-06
6.2266e-06
6.46437e-06
7.04984e-06
8.0967e-06
5.74963e-06
4.42959e-06
5.37326e-06
5.63847e-06
6.58046e-06
5.6479e-06
6.86464e-06
5.90285e-06
4.59075e-06
4.11614e-06
4.13096e-06
5.1457e-06
4.75054e-06
5.73238e-06
5.23501e-06
5.40752e-06
6.2435e-06
6.18747e-06
6.22015e-06
6.29312e-06
7.01556e-06
6.17596e-06
6.16725e-06
5.33887e-06
5.25779e-06
4.905e-06
5.60931e-06
5.04242e-06
4.41969e-06
4.49946e-06
4.41578e-06
4.65063e-06
4.86028e-06
5.93063e-06
6.20955e-06
6.12302e-06
5.74025e-06
5.69713e-06
5.36158e-06
5.43081e-06
5.72339e-06
5.1975e-06
4.78868e-06
5.2162e-06
4.95932e-06
5.03522e-06
4.91099e-06
4.79964e-06
5.0275e-06
5.09471e-06
4.72295e-06
4.16592e-06
4.54536e-06
4.41889e-06
4.37813e-06
4.54559e-06
4.72906e-06
4.73352e-06
4.91322e-06
4.65014e-06
4.62884e-06
4.56825e-06
4.52633e-06
4.66827e-06
4.90668e-06
5.23639e-06
5.69653e-06
5.91032e-06
5.5447e-06
5.46497e-06
4.33578e-06
3.75943e-06
3.72448e-06
4.02108e-06
4.65949e-06
4.83717e-06
4.63924e-06
4.72189e-06
5.06242e-06
5.231e-06
5.63981e-06
6.22392e-06
6.41568e-06
6.55581e-06
7.22079e-06
7.32848e-06
7.01597e-06
6.09752e-06
4.07531e-06
2.41321e-06
1.87361e-06
)
;

boundaryField
{
    upperWall
    {
        type            zeroGradient;
    }
    lowerWall
    {
        type            zeroGradient;
    }
    inlet
    {
        type            zeroGradient;
    }
    outlet
    {
        type            zeroGradient;
    }
    frontAndBack
    {
        type            empty;
    }
}


// ************************************************************************* //
