/*--------------------------------*- C++ -*----------------------------------*\
  =========                 |
  \\      /  F ield         | OpenFOAM: The Open Source CFD Toolbox
   \\    /   O peration     | Website:  https://openfoam.org
    \\  /    A nd           | Version:  7
     \\/     M anipulation  |
\*---------------------------------------------------------------------------*/
FoamFile
{
    version     2.0;
    format      ascii;
    class       volScalarField;
    location    "0.015";
    object      pMean;
}
// * * * * * * * * * * * * * * * * * * * * * * * * * * * * * * * * * * * * * //

dimensions      [1 -1 -2 0 0 0 0];

internalField   nonuniform List<scalar> 
1440
(
101618
101607
101606
101596
101590
101581
101575
101566
101559
101551
101544
101536
101528
101520
101513
101505
101498
101490
101482
101474
101467
101459
101451
101444
101436
101429
101421
101413
101406
101398
101390
101383
101375
101367
101359
101352
101344
101336
101328
101320
101312
101304
101297
101289
101281
101273
101265
101257
101249
101241
101233
101225
101217
101209
101201
101193
101185
101177
101169
101161
101616
101606
101604
101595
101590
101581
101574
101566
101559
101551
101544
101536
101528
101521
101513
101505
101498
101490
101482
101475
101467
101459
101451
101444
101436
101428
101421
101413
101405
101398
101390
101383
101375
101367
101359
101352
101344
101336
101328
101320
101312
101304
101297
101289
101281
101273
101265
101257
101249
101241
101233
101225
101217
101209
101201
101193
101185
101177
101169
101161
101616
101606
101604
101595
101589
101581
101574
101566
101559
101551
101544
101536
101528
101521
101513
101506
101498
101490
101482
101475
101467
101459
101451
101444
101436
101428
101421
101413
101405
101398
101390
101382
101375
101367
101359
101352
101344
101336
101328
101320
101312
101304
101297
101289
101281
101273
101265
101257
101249
101241
101233
101225
101217
101209
101201
101193
101185
101177
101169
101161
101615
101605
101603
101594
101589
101581
101574
101566
101559
101551
101544
101536
101529
101521
101513
101506
101498
101490
101482
101475
101467
101459
101451
101444
101436
101428
101420
101413
101405
101398
101390
101382
101375
101367
101359
101352
101344
101336
101328
101320
101312
101304
101297
101289
101281
101273
101265
101257
101249
101241
101233
101225
101217
101209
101201
101193
101185
101177
101169
101161
101615
101605
101603
101594
101589
101581
101574
101566
101559
101551
101544
101536
101529
101521
101513
101506
101498
101490
101482
101475
101467
101459
101451
101444
101436
101428
101420
101413
101405
101398
101390
101382
101375
101367
101359
101352
101344
101336
101328
101320
101312
101304
101297
101289
101281
101273
101265
101257
101249
101241
101233
101225
101217
101209
101201
101193
101185
101177
101169
101161
101615
101604
101603
101594
101589
101581
101574
101566
101559
101551
101544
101536
101529
101521
101513
101506
101498
101490
101482
101475
101467
101459
101451
101444
101436
101428
101420
101413
101405
101398
101390
101382
101375
101367
101359
101352
101344
101336
101328
101320
101312
101304
101297
101289
101281
101273
101265
101257
101249
101241
101233
101225
101217
101209
101201
101193
101185
101177
101169
101161
101615
101604
101603
101594
101589
101581
101574
101566
101559
101551
101544
101536
101529
101521
101513
101506
101498
101490
101482
101475
101467
101459
101451
101444
101436
101428
101420
101413
101405
101398
101390
101382
101375
101367
101359
101352
101344
101336
101328
101320
101312
101304
101297
101289
101281
101273
101265
101257
101249
101241
101233
101225
101217
101209
101201
101193
101185
101177
101169
101161
101615
101605
101603
101594
101589
101581
101574
101566
101559
101551
101544
101536
101529
101521
101513
101506
101498
101490
101482
101475
101467
101459
101451
101444
101436
101428
101420
101413
101405
101398
101390
101382
101375
101367
101359
101352
101344
101336
101328
101320
101312
101304
101297
101289
101281
101273
101265
101257
101249
101241
101233
101225
101217
101209
101201
101193
101185
101177
101169
101161
101615
101605
101603
101594
101589
101581
101574
101566
101559
101551
101544
101536
101529
101521
101513
101506
101498
101490
101482
101475
101467
101459
101451
101444
101436
101428
101420
101413
101405
101398
101390
101382
101375
101367
101359
101352
101344
101336
101328
101320
101312
101304
101297
101289
101281
101273
101265
101257
101249
101241
101233
101225
101217
101209
101201
101193
101185
101177
101169
101161
101616
101606
101604
101595
101589
101581
101574
101566
101559
101551
101544
101536
101528
101521
101513
101506
101498
101490
101482
101475
101467
101459
101451
101444
101436
101428
101421
101413
101405
101398
101390
101382
101375
101367
101359
101352
101344
101336
101328
101320
101312
101304
101297
101289
101281
101273
101265
101257
101249
101241
101233
101225
101217
101209
101201
101193
101185
101177
101169
101161
101616
101606
101604
101595
101590
101581
101574
101566
101559
101551
101544
101536
101528
101521
101513
101505
101498
101490
101482
101475
101467
101459
101451
101444
101436
101428
101421
101413
101405
101398
101390
101383
101375
101367
101359
101352
101344
101336
101328
101320
101312
101304
101297
101289
101281
101273
101265
101257
101249
101241
101233
101225
101217
101209
101201
101193
101185
101177
101169
101161
101618
101607
101606
101596
101590
101581
101575
101566
101559
101551
101544
101536
101528
101520
101513
101505
101498
101490
101482
101474
101467
101459
101451
101444
101436
101429
101421
101413
101406
101398
101390
101383
101375
101367
101359
101352
101344
101336
101328
101320
101312
101304
101297
101289
101281
101273
101265
101257
101249
101241
101233
101225
101217
101209
101201
101193
101185
101177
101169
101161
101154
101146
101138
101131
101123
101116
101108
101100
101093
101085
101077
101069
101061
101053
101045
101036
101028
101020
101012
101004
100995
100987
100979
100971
100963
100955
100947
100939
100930
100922
100913
100905
100896
100888
100879
100871
100862
100853
100845
100836
100828
100819
100811
100802
100793
100785
100776
100768
100759
100750
100742
100733
100725
100716
100708
100699
100690
100681
100673
100663
101153
101145
101138
101130
101122
101114
101106
101098
101090
101082
101074
101066
101058
101050
101041
101033
101025
101017
101008
101000
100992
100984
100975
100967
100959
100951
100942
100934
100926
100917
100909
100900
100892
100883
100875
100866
100857
100849
100840
100832
100823
100815
100806
100797
100789
100780
100772
100763
100754
100746
100737
100729
100720
100711
100703
100694
100686
100677
100668
100659
101153
101145
101137
101129
101121
101113
101105
101097
101089
101080
101072
101064
101056
101048
101039
101031
101023
101014
101006
100998
100989
100981
100973
100964
100956
100948
100939
100931
100923
100914
100906
100897
100889
100880
100871
100863
100854
100846
100837
100829
100820
100811
100803
100794
100786
100777
100768
100760
100751
100743
100734
100725
100717
100708
100700
100691
100682
100674
100665
100656
101153
101145
101137
101129
101121
101112
101104
101096
101088
101080
101071
101063
101055
101047
101038
101030
101022
101013
101005
100997
100988
100980
100971
100963
100955
100946
100938
100929
100921
100912
100904
100895
100887
100878
100870
100861
100853
100844
100836
100827
100819
100810
100801
100793
100784
100776
100767
100758
100750
100741
100732
100724
100715
100707
100698
100689
100681
100672
100663
100654
101153
101145
101137
101128
101120
101112
101104
101096
101087
101079
101071
101063
101054
101046
101038
101029
101021
101013
101004
100996
100988
100979
100971
100962
100954
100946
100937
100929
100920
100912
100903
100895
100886
100878
100869
100861
100852
100843
100835
100826
100818
100809
100801
100792
100783
100775
100766
100758
100749
100740
100732
100723
100714
100706
100697
100688
100680
100671
100662
100653
101153
101145
101136
101128
101120
101112
101104
101095
101087
101079
101071
101062
101054
101046
101038
101029
101021
101012
101004
100996
100987
100979
100970
100962
100954
100945
100937
100928
100920
100911
100903
100894
100886
100877
100869
100860
100852
100843
100835
100826
100817
100809
100800
100792
100783
100774
100766
100757
100749
100740
100731
100723
100714
100705
100697
100688
100679
100671
100662
100653
101153
101145
101136
101128
101120
101112
101104
101095
101087
101079
101071
101062
101054
101046
101037
101029
101021
101012
101004
100996
100987
100979
100970
100962
100953
100945
100937
100928
100920
100911
100903
100894
100886
100877
100869
100860
100851
100843
100834
100826
100817
100809
100800
100792
100783
100774
100766
100757
100748
100740
100731
100722
100714
100705
100696
100688
100679
100670
100661
100653
101153
101144
101136
101128
101120
101112
101104
101095
101087
101079
101071
101062
101054
101046
101037
101029
101021
101012
101004
100995
100987
100979
100970
100962
100953
100945
100936
100928
100920
100911
100903
100894
100886
100877
100868
100860
100851
100843
100834
100826
100817
100809
100800
100791
100783
100774
100766
100757
100748
100740
100731
100722
100714
100705
100696
100688
100679
100670
100661
100652
101153
101144
101136
101128
101120
101112
101104
101095
101087
101079
101071
101062
101054
101046
101037
101029
101021
101012
101004
100995
100987
100979
100970
100962
100953
100945
100936
100928
100920
100911
100903
100894
100886
100877
100868
100860
100851
100843
100834
100826
100817
100809
100800
100791
100783
100774
100766
100757
100748
100740
100731
100722
100714
100705
100696
100687
100679
100670
100661
100652
101153
101144
101136
101128
101120
101112
101104
101095
101087
101079
101071
101062
101054
101046
101037
101029
101021
101012
101004
100995
100987
100979
100970
100962
100953
100945
100936
100928
100919
100911
100903
100894
100885
100877
100868
100860
100851
100843
100834
100826
100817
100809
100800
100791
100783
100774
100766
100757
100748
100740
100731
100722
100714
100705
100696
100687
100679
100670
100661
100652
101153
101144
101136
101128
101120
101112
101104
101095
101087
101079
101071
101062
101054
101046
101037
101029
101021
101012
101004
100995
100987
100979
100970
100962
100953
100945
100936
100928
100919
100911
100903
100894
100886
100877
100868
100860
100851
100843
100834
100826
100817
100809
100800
100791
100783
100774
100766
100757
100748
100740
100731
100722
100714
100705
100696
100687
100678
100670
100661
100652
101153
101144
101136
101128
101120
101112
101103
101095
101087
101079
101071
101062
101054
101046
101037
101029
101021
101012
101004
100995
100987
100979
100970
100962
100953
100945
100936
100928
100919
100911
100903
100894
100885
100877
100868
100860
100851
100843
100834
100826
100817
100809
100800
100791
100783
100774
100765
100757
100748
100740
100731
100722
100713
100705
100696
100687
100678
100670
100661
100652
)
;

boundaryField
{
    upperWall
    {
        type            calculated;
        value           nonuniform List<scalar> 
120
(
101618
101607
101606
101596
101590
101581
101575
101566
101559
101551
101544
101536
101528
101520
101513
101505
101498
101490
101482
101474
101467
101459
101451
101444
101436
101429
101421
101413
101406
101398
101390
101383
101375
101367
101359
101352
101344
101336
101328
101320
101312
101304
101297
101289
101281
101273
101265
101257
101249
101241
101233
101225
101217
101209
101201
101193
101185
101177
101169
101161
101153
101144
101136
101128
101120
101112
101103
101095
101087
101079
101071
101062
101054
101046
101037
101029
101021
101012
101004
100995
100987
100979
100970
100962
100953
100945
100936
100928
100919
100911
100903
100894
100885
100877
100868
100860
100851
100843
100834
100826
100817
100809
100800
100791
100783
100774
100765
100757
100748
100740
100731
100722
100713
100705
100696
100687
100678
100670
100661
100652
)
;
    }
    lowerWall
    {
        type            calculated;
        value           nonuniform List<scalar> 
60
(
101618
101607
101606
101596
101590
101581
101575
101566
101559
101551
101544
101536
101528
101520
101513
101505
101498
101490
101482
101474
101467
101459
101451
101444
101436
101429
101421
101413
101406
101398
101390
101383
101375
101367
101359
101352
101344
101336
101328
101320
101312
101304
101297
101289
101281
101273
101265
101257
101249
101241
101233
101225
101217
101209
101201
101193
101185
101177
101169
101161
)
;
    }
    heatedWall
    {
        type            calculated;
        value           nonuniform List<scalar> 
60
(
101154
101146
101138
101131
101123
101116
101108
101100
101093
101085
101077
101069
101061
101053
101045
101036
101028
101020
101012
101004
100995
100987
100979
100971
100963
100955
100947
100939
100930
100922
100913
100905
100896
100888
100879
100871
100862
100853
100845
100836
100828
100819
100811
100802
100793
100785
100776
100768
100759
100750
100742
100733
100725
100716
100708
100699
100690
100681
100673
100663
)
;
    }
    inlet
    {
        type            calculated;
        value           nonuniform List<scalar> 
12
(
101618
101616
101616
101615
101615
101615
101615
101615
101615
101616
101616
101618
)
;
    }
    outlet
    {
        type            calculated;
        value           nonuniform List<scalar> 
12
(
100658
100654
100651
100649
100649
100648
100648
100648
100648
100647
100647
100647
)
;
    }
    frontAndBack
    {
        type            empty;
    }
}


// ************************************************************************* //
