/*--------------------------------*- C++ -*----------------------------------*\
  =========                 |
  \\      /  F ield         | OpenFOAM: The Open Source CFD Toolbox
   \\    /   O peration     | Website:  https://openfoam.org
    \\  /    A nd           | Version:  7
     \\/     M anipulation  |
\*---------------------------------------------------------------------------*/
FoamFile
{
    version     2.0;
    format      ascii;
    class       volVectorField;
    location    "4.68";
    object      U_0;
}
// * * * * * * * * * * * * * * * * * * * * * * * * * * * * * * * * * * * * * //

dimensions      [0 1 -1 0 0 0 0];

internalField   nonuniform List<vector> 
5760
(
(2.2563 0.12304 0)
(1.31032 0.0179299 0)
(1.06884 -0.00281422 0)
(0.939715 -0.000735241 0)
(0.868292 -0.000433338 0)
(0.828764 -0.000490023 0)
(0.808427 -0.000219642 0)
(0.793669 8.05637e-05 0)
(0.778445 0.000153951 0)
(0.763697 0.000101674 0)
(0.751145 6.05615e-05 0)
(0.740812 5.73779e-05 0)
(0.73196 6.4923e-05 0)
(0.724081 6.67279e-05 0)
(0.717007 6.38209e-05 0)
(0.710666 6.04611e-05 0)
(0.704973 5.81071e-05 0)
(0.69983 5.63042e-05 0)
(0.695156 5.45043e-05 0)
(0.690892 5.26592e-05 0)
(0.68699 5.08797e-05 0)
(0.68341 4.92092e-05 0)
(0.680115 4.76336e-05 0)
(0.677077 4.61352e-05 0)
(0.674268 4.47115e-05 0)
(0.671667 4.33625e-05 0)
(0.669255 4.20879e-05 0)
(0.667014 4.08852e-05 0)
(0.664929 3.97507e-05 0)
(0.662988 3.86794e-05 0)
(0.661178 3.7666e-05 0)
(0.659489 3.67059e-05 0)
(0.657911 3.5792e-05 0)
(0.656437 3.49233e-05 0)
(0.655059 3.40895e-05 0)
(0.65377 3.32902e-05 0)
(0.652564 3.2531e-05 0)
(0.651435 3.17882e-05 0)
(0.650378 3.10721e-05 0)
(0.649389 3.03936e-05 0)
(0.648464 2.97374e-05 0)
(0.647598 2.9102e-05 0)
(0.646789 2.84906e-05 0)
(0.646033 2.79029e-05 0)
(0.645327 2.7336e-05 0)
(0.644668 2.67929e-05 0)
(0.644054 2.62599e-05 0)
(0.643483 2.5759e-05 0)
(0.642954 2.52497e-05 0)
(0.642463 2.48233e-05 0)
(0.642008 2.43617e-05 0)
(0.641589 2.38766e-05 0)
(0.641204 2.34388e-05 0)
(0.640851 2.30188e-05 0)
(0.64053 2.25941e-05 0)
(0.640239 2.21762e-05 0)
(0.639978 2.17704e-05 0)
(0.639745 2.1371e-05 0)
(0.639539 2.09743e-05 0)
(0.639359 2.05867e-05 0)
(0.639205 2.02025e-05 0)
(0.639077 1.98405e-05 0)
(0.638971 1.94933e-05 0)
(0.638889 1.91329e-05 0)
(0.63883 1.87509e-05 0)
(0.638793 1.84132e-05 0)
(0.638777 1.81143e-05 0)
(0.638781 1.77852e-05 0)
(0.638806 1.74673e-05 0)
(0.638849 1.71613e-05 0)
(0.638911 1.68606e-05 0)
(0.638991 1.65653e-05 0)
(0.639088 1.6277e-05 0)
(0.639201 1.59946e-05 0)
(0.63933 1.57173e-05 0)
(0.639475 1.54452e-05 0)
(0.639634 1.51789e-05 0)
(0.639807 1.4918e-05 0)
(0.639993 1.46628e-05 0)
(0.640192 1.44137e-05 0)
(0.640403 1.41713e-05 0)
(0.640626 1.39363e-05 0)
(0.640859 1.37088e-05 0)
(0.641103 1.34889e-05 0)
(0.641357 1.32772e-05 0)
(0.641621 1.30744e-05 0)
(0.641892 1.28799e-05 0)
(0.642173 1.26929e-05 0)
(0.642461 1.25128e-05 0)
(0.642756 1.23391e-05 0)
(0.643058 1.21705e-05 0)
(0.643367 1.20061e-05 0)
(0.643682 1.18457e-05 0)
(0.644002 1.16889e-05 0)
(0.644328 1.15353e-05 0)
(0.644659 1.13842e-05 0)
(0.644994 1.12354e-05 0)
(0.645334 1.10887e-05 0)
(0.645678 1.09445e-05 0)
(0.646025 1.08034e-05 0)
(0.646376 1.06661e-05 0)
(0.646731 1.05335e-05 0)
(0.647088 1.04064e-05 0)
(0.647448 1.02853e-05 0)
(0.647811 1.01706e-05 0)
(0.648176 1.00625e-05 0)
(0.648543 9.96089e-06 0)
(0.648912 9.8654e-06 0)
(0.649283 9.77554e-06 0)
(0.649655 9.69073e-06 0)
(0.650029 9.6102e-06 0)
(0.650404 9.53314e-06 0)
(0.65078 9.45905e-06 0)
(0.651158 9.38733e-06 0)
(0.651536 9.31795e-06 0)
(0.651915 9.25109e-06 0)
(0.652295 9.18706e-06 0)
(0.652675 9.12687e-06 0)
(0.653056 9.07136e-06 0)
(0.653437 9.02193e-06 0)
(0.653819 8.97984e-06 0)
(0.654201 8.94648e-06 0)
(0.654583 8.92327e-06 0)
(0.654965 8.91135e-06 0)
(0.655347 8.91174e-06 0)
(0.655729 8.92516e-06 0)
(0.656111 8.95202e-06 0)
(0.656493 8.99254e-06 0)
(0.656874 9.04666e-06 0)
(0.657255 9.11422e-06 0)
(0.657635 9.19491e-06 0)
(0.658015 9.28846e-06 0)
(0.658394 9.39468e-06 0)
(0.658773 9.51352e-06 0)
(0.659151 9.64503e-06 0)
(0.659528 9.78974e-06 0)
(0.659905 9.94822e-06 0)
(0.660281 1.01215e-05 0)
(0.660656 1.03106e-05 0)
(0.66103 1.0517e-05 0)
(0.661403 1.07421e-05 0)
(0.661775 1.09872e-05 0)
(0.662146 1.12536e-05 0)
(0.662516 1.15424e-05 0)
(0.662885 1.18544e-05 0)
(0.663252 1.21903e-05 0)
(0.663619 1.25503e-05 0)
(0.663984 1.2934e-05 0)
(0.664348 1.33411e-05 0)
(0.664711 1.37717e-05 0)
(0.665072 1.42252e-05 0)
(0.665432 1.47009e-05 0)
(0.66579 1.51987e-05 0)
(0.666147 1.57173e-05 0)
(0.666503 1.62549e-05 0)
(0.666857 1.68114e-05 0)
(0.667209 1.73879e-05 0)
(0.66756 1.79852e-05 0)
(0.667909 1.86037e-05 0)
(0.668257 1.92426e-05 0)
(0.668603 1.99025e-05 0)
(0.668948 2.05848e-05 0)
(0.669291 2.12905e-05 0)
(0.669632 2.20203e-05 0)
(0.669972 2.27745e-05 0)
(0.67031 2.35519e-05 0)
(0.670647 2.43531e-05 0)
(0.670981 2.51807e-05 0)
(0.671314 2.60321e-05 0)
(0.671645 2.69027e-05 0)
(0.671975 2.77965e-05 0)
(0.672303 2.87099e-05 0)
(0.672628 2.964e-05 0)
(0.672953 3.05896e-05 0)
(0.673275 3.15549e-05 0)
(0.673596 3.25373e-05 0)
(0.673915 3.35345e-05 0)
(0.674232 3.45452e-05 0)
(0.674548 3.557e-05 0)
(0.674861 3.66094e-05 0)
(0.675174 3.76629e-05 0)
(0.675484 3.87335e-05 0)
(0.675793 3.9817e-05 0)
(0.6761 4.09146e-05 0)
(0.676405 4.20292e-05 0)
(0.676709 4.31607e-05 0)
(0.677011 4.43062e-05 0)
(0.677311 4.54651e-05 0)
(0.67761 4.66392e-05 0)
(0.677907 4.78286e-05 0)
(0.678202 4.90291e-05 0)
(0.678496 5.02383e-05 0)
(0.678788 5.14581e-05 0)
(0.679078 5.26888e-05 0)
(0.679367 5.39255e-05 0)
(0.679655 5.51654e-05 0)
(0.67994 5.64105e-05 0)
(0.680225 5.76626e-05 0)
(0.680507 5.89182e-05 0)
(0.680788 6.01746e-05 0)
(0.681068 6.14339e-05 0)
(0.681347 6.26981e-05 0)
(0.681623 6.39657e-05 0)
(0.681899 6.52372e-05 0)
(0.682173 6.6512e-05 0)
(0.682446 6.77907e-05 0)
(0.682717 6.90723e-05 0)
(0.682987 7.03597e-05 0)
(0.683255 7.165e-05 0)
(0.683523 7.29484e-05 0)
(0.683789 7.4249e-05 0)
(0.684053 7.55513e-05 0)
(0.684317 7.68423e-05 0)
(0.684579 7.81476e-05 0)
(0.684839 7.94441e-05 0)
(0.685099 8.07412e-05 0)
(0.685357 8.20247e-05 0)
(0.685614 8.33295e-05 0)
(0.68587 8.45873e-05 0)
(0.686125 8.58906e-05 0)
(0.686379 8.71246e-05 0)
(0.686631 8.84406e-05 0)
(0.686883 8.96381e-05 0)
(0.687133 9.09665e-05 0)
(0.687383 9.2113e-05 0)
(0.687631 9.34907e-05 0)
(0.687878 9.45763e-05 0)
(0.688125 9.60001e-05 0)
(0.688369 9.70045e-05 0)
(0.688615 9.85063e-05 0)
(0.688856 9.94395e-05 0)
(0.689104 0.000100948 0)
(0.689335 0.000101929 0)
(0.689592 0.000103261 0)
(0.689805 0.000104619 0)
(0.690085 0.000105189 0)
(0.690256 0.000107961 0)
(0.69059 0.000106138 0)
(0.690671 0.000113174 0)
(0.691164 0.000104596 0)
(3.80458 0.346855 0)
(3.11424 0.138891 0)
(2.74471 0.0360997 0)
(2.47114 0.0208816 0)
(2.29134 0.0130743 0)
(2.18118 0.00710289 0)
(2.11805 0.00459906 0)
(2.07489 0.00430371 0)
(2.03622 0.00424972 0)
(2.0001 0.00379892 0)
(1.96863 0.00322606 0)
(1.94212 0.0027895 0)
(1.9194 0.00249624 0)
(1.89936 0.00226943 0)
(1.88146 0.00206825 0)
(1.86543 0.00188844 0)
(1.85103 0.00173297 0)
(1.83804 0.0015995 0)
(1.82626 0.00148305 0)
(1.81553 0.00137991 0)
(1.80572 0.00128791 0)
(1.79673 0.00120556 0)
(1.78848 0.00113152 0)
(1.78088 0.0010646 0)
(1.77387 0.00100386 0)
(1.76738 0.000948506 0)
(1.76138 0.000897884 0)
(1.75582 0.000851449 0)
(1.75065 0.000808728 0)
(1.74585 0.00076931 0)
(1.74139 0.000732842 0)
(1.73723 0.000699014 0)
(1.73336 0.000667556 0)
(1.72976 0.000638234 0)
(1.72639 0.000610826 0)
(1.72325 0.000585174 0)
(1.72033 0.000561101 0)
(1.7176 0.000538438 0)
(1.71506 0.00051711 0)
(1.71268 0.000497012 0)
(1.71047 0.000478011 0)
(1.70841 0.000460014 0)
(1.7065 0.000442958 0)
(1.70472 0.000426767 0)
(1.70306 0.000411379 0)
(1.70153 0.000396723 0)
(1.70011 0.000382721 0)
(1.6988 0.000369348 0)
(1.69759 0.000356505 0)
(1.69649 0.000344493 0)
(1.69547 0.000332859 0)
(1.69454 0.000321549 0)
(1.6937 0.000310668 0)
(1.69294 0.000300192 0)
(1.69226 0.00029007 0)
(1.69165 0.000280297 0)
(1.69112 0.000270802 0)
(1.69066 0.000261659 0)
(1.69027 0.000252834 0)
(1.68994 0.000244189 0)
(1.68968 0.000235792 0)
(1.68948 0.000227681 0)
(1.68934 0.000219861 0)
(1.68925 0.000212235 0)
(1.68922 0.000204775 0)
(1.68925 0.000197569 0)
(1.68933 0.000190639 0)
(1.68945 0.000183906 0)
(1.68963 0.000177374 0)
(1.68985 0.000171063 0)
(1.69012 0.000164959 0)
(1.69043 0.000159051 0)
(1.69078 0.000153343 0)
(1.69118 0.000147833 0)
(1.69161 0.000142514 0)
(1.69208 0.000137385 0)
(1.69258 0.000132442 0)
(1.69311 0.00012768 0)
(1.69368 0.0001231 0)
(1.69428 0.0001187 0)
(1.69491 0.000114478 0)
(1.69557 0.000110429 0)
(1.69625 0.00010655 0)
(1.69695 0.000102839 0)
(1.69768 9.92978e-05 0)
(1.69844 9.59205e-05 0)
(1.69921 9.26988e-05 0)
(1.7 8.9626e-05 0)
(1.70081 8.66969e-05 0)
(1.70164 8.39043e-05 0)
(1.70248 8.12397e-05 0)
(1.70334 7.86959e-05 0)
(1.70421 7.62678e-05 0)
(1.7051 7.395e-05 0)
(1.706 7.17357e-05 0)
(1.70691 6.96179e-05 0)
(1.70783 6.75909e-05 0)
(1.70877 6.56506e-05 0)
(1.70971 6.37937e-05 0)
(1.71066 6.20181e-05 0)
(1.71162 6.03227e-05 0)
(1.71258 5.87065e-05 0)
(1.71355 5.71684e-05 0)
(1.71453 5.57069e-05 0)
(1.71552 5.43202e-05 0)
(1.71651 5.30059e-05 0)
(1.7175 5.17609e-05 0)
(1.7185 5.05819e-05 0)
(1.71951 4.94649e-05 0)
(1.72051 4.84058e-05 0)
(1.72152 4.74e-05 0)
(1.72254 4.64423e-05 0)
(1.72355 4.55291e-05 0)
(1.72457 4.46563e-05 0)
(1.72559 4.38217e-05 0)
(1.72661 4.30237e-05 0)
(1.72763 4.22613e-05 0)
(1.72866 4.15352e-05 0)
(1.72968 4.08461e-05 0)
(1.73071 4.01964e-05 0)
(1.73174 3.95882e-05 0)
(1.73277 3.90241e-05 0)
(1.73379 3.85066e-05 0)
(1.73482 3.80383e-05 0)
(1.73585 3.76208e-05 0)
(1.73687 3.7255e-05 0)
(1.7379 3.69414e-05 0)
(1.73892 3.66796e-05 0)
(1.73995 3.64686e-05 0)
(1.74097 3.63069e-05 0)
(1.74199 3.61929e-05 0)
(1.74301 3.61247e-05 0)
(1.74403 3.61009e-05 0)
(1.74504 3.61201e-05 0)
(1.74606 3.61818e-05 0)
(1.74707 3.62863e-05 0)
(1.74808 3.64343e-05 0)
(1.74909 3.66279e-05 0)
(1.75009 3.68695e-05 0)
(1.7511 3.71621e-05 0)
(1.7521 3.75094e-05 0)
(1.7531 3.79146e-05 0)
(1.75409 3.83811e-05 0)
(1.75508 3.89122e-05 0)
(1.75607 3.95096e-05 0)
(1.75706 4.01751e-05 0)
(1.75804 4.09098e-05 0)
(1.75902 4.17123e-05 0)
(1.76 4.25819e-05 0)
(1.76097 4.35185e-05 0)
(1.76194 4.45195e-05 0)
(1.7629 4.5583e-05 0)
(1.76386 4.67084e-05 0)
(1.76482 4.78921e-05 0)
(1.76577 4.91294e-05 0)
(1.76672 5.04197e-05 0)
(1.76767 5.17649e-05 0)
(1.76861 5.31665e-05 0)
(1.76955 5.46247e-05 0)
(1.77048 5.61389e-05 0)
(1.77141 5.77107e-05 0)
(1.77233 5.93439e-05 0)
(1.77325 6.10406e-05 0)
(1.77417 6.28023e-05 0)
(1.77508 6.46296e-05 0)
(1.77598 6.65205e-05 0)
(1.77689 6.84768e-05 0)
(1.77778 7.05041e-05 0)
(1.77868 7.25974e-05 0)
(1.77956 7.4748e-05 0)
(1.78045 7.69609e-05 0)
(1.78133 7.92274e-05 0)
(1.7822 8.15399e-05 0)
(1.78307 8.39042e-05 0)
(1.78393 8.63136e-05 0)
(1.78479 8.87678e-05 0)
(1.78565 9.1262e-05 0)
(1.7865 9.37912e-05 0)
(1.78735 9.63566e-05 0)
(1.78819 9.89638e-05 0)
(1.78902 0.000101608 0)
(1.78986 0.000104292 0)
(1.79069 0.000107016 0)
(1.79151 0.000109777 0)
(1.79233 0.000112583 0)
(1.79314 0.000115434 0)
(1.79395 0.000118324 0)
(1.79476 0.000121252 0)
(1.79556 0.00012422 0)
(1.79636 0.000127231 0)
(1.79715 0.000130273 0)
(1.79794 0.00013334 0)
(1.79872 0.000136436 0)
(1.7995 0.000139562 0)
(1.80028 0.000142704 0)
(1.80105 0.000145856 0)
(1.80182 0.000149023 0)
(1.80258 0.000152209 0)
(1.80334 0.000155402 0)
(1.80409 0.000158596 0)
(1.80484 0.000161799 0)
(1.80559 0.000165018 0)
(1.80634 0.000168245 0)
(1.80708 0.000171478 0)
(1.80781 0.000174722 0)
(1.80854 0.000177981 0)
(1.80927 0.000181247 0)
(1.81 0.00018453 0)
(1.81072 0.000187823 0)
(1.81144 0.000191133 0)
(1.81215 0.00019445 0)
(1.81287 0.00019778 0)
(1.81357 0.000201086 0)
(1.81428 0.000204423 0)
(1.81498 0.000207741 0)
(1.81568 0.000211063 0)
(1.81637 0.000214346 0)
(1.81706 0.000217685 0)
(1.81775 0.000220911 0)
(1.81844 0.000224247 0)
(1.81912 0.000227409 0)
(1.8198 0.000230774 0)
(1.82048 0.000233837 0)
(1.82115 0.000237244 0)
(1.82182 0.000240169 0)
(1.82249 0.000243717 0)
(1.82316 0.000246457 0)
(1.82382 0.000250174 0)
(1.82448 0.000252641 0)
(1.82514 0.000256653 0)
(1.82579 0.000258802 0)
(1.82646 0.000263057 0)
(1.82708 0.000265012 0)
(1.82778 0.000269263 0)
(1.82835 0.000271632 0)
(1.8291 0.000274781 0)
(1.82957 0.000279966 0)
(1.83047 0.000278168 0)
(1.83069 0.000290935 0)
(1.83197 0.000274188 0)
(4.41374 0.422874 0)
(4.22905 0.21294 0)
(3.97266 0.0753625 0)
(3.67499 0.0501086 0)
(3.43823 0.0343726 0)
(3.28014 0.0202739 0)
(3.18361 0.01311 0)
(3.11745 0.0110969 0)
(3.06154 0.0104122 0)
(3.01079 0.00936002 0)
(2.96625 0.00809942 0)
(2.92819 0.00705152 0)
(2.89541 0.00628762 0)
(2.86656 0.00569454 0)
(2.84082 0.00518573 0)
(2.81778 0.00473776 0)
(2.79707 0.00434902 0)
(2.77837 0.00401322 0)
(2.76142 0.00372004 0)
(2.74599 0.00346089 0)
(2.7319 0.00323007 0)
(2.719 0.0030235 0)
(2.70715 0.0028378 0)
(2.69625 0.00267003 0)
(2.68621 0.00251778 0)
(2.67694 0.00237906 0)
(2.66836 0.00225223 0)
(2.66042 0.00213588 0)
(2.65306 0.00202884 0)
(2.64623 0.00193006 0)
(2.63989 0.00183868 0)
(2.63399 0.00175391 0)
(2.62851 0.00167508 0)
(2.62342 0.0016016 0)
(2.61868 0.00153295 0)
(2.61427 0.00146869 0)
(2.61017 0.00140838 0)
(2.60635 0.00135166 0)
(2.6028 0.00129831 0)
(2.59951 0.00124799 0)
(2.59645 0.00120042 0)
(2.59361 0.00115539 0)
(2.59098 0.00111272 0)
(2.58855 0.00107221 0)
(2.5863 0.00103372 0)
(2.58423 0.000997059 0)
(2.58232 0.000962065 0)
(2.58057 0.000928615 0)
(2.57898 0.000896547 0)
(2.57752 0.000866359 0)
(2.5762 0.000837274 0)
(2.57501 0.000809162 0)
(2.57394 0.000782035 0)
(2.573 0.000755878 0)
(2.57217 0.000730664 0)
(2.57144 0.00070635 0)
(2.57083 0.000682794 0)
(2.57031 0.000660022 0)
(2.5699 0.000638051 0)
(2.56958 0.000616673 0)
(2.56935 0.000595904 0)
(2.56921 0.000575825 0)
(2.56915 0.00055642 0)
(2.56918 0.000537555 0)
(2.56929 0.0005192 0)
(2.56947 0.000501436 0)
(2.56973 0.000484313 0)
(2.57006 0.00046772 0)
(2.57046 0.000451646 0)
(2.57092 0.000436123 0)
(2.57145 0.000421128 0)
(2.57204 0.000406634 0)
(2.57269 0.000392644 0)
(2.57339 0.00037915 0)
(2.57415 0.000366141 0)
(2.57496 0.000353607 0)
(2.57582 0.000341539 0)
(2.57672 0.000329925 0)
(2.57767 0.000318761 0)
(2.57866 0.000308046 0)
(2.5797 0.000297769 0)
(2.58077 0.000287916 0)
(2.58187 0.000278479 0)
(2.58302 0.000269452 0)
(2.58419 0.000260835 0)
(2.58539 0.000252615 0)
(2.58663 0.000244771 0)
(2.58788 0.000237288 0)
(2.58917 0.000230156 0)
(2.59048 0.000223356 0)
(2.59181 0.000216871 0)
(2.59316 0.000210685 0)
(2.59453 0.000204785 0)
(2.59592 0.000199157 0)
(2.59732 0.000193784 0)
(2.59875 0.000188651 0)
(2.60018 0.000183743 0)
(2.60163 0.000179049 0)
(2.6031 0.00017456 0)
(2.60457 0.000170269 0)
(2.60606 0.00016617 0)
(2.60755 0.000162259 0)
(2.60906 0.000158532 0)
(2.61057 0.000154983 0)
(2.6121 0.000151607 0)
(2.61363 0.000148398 0)
(2.61516 0.000145349 0)
(2.6167 0.000142454 0)
(2.61825 0.000139704 0)
(2.6198 0.00013709 0)
(2.62135 0.000134602 0)
(2.62291 0.00013223 0)
(2.62447 0.000129965 0)
(2.62604 0.000127798 0)
(2.62761 0.000125723 0)
(2.62917 0.000123733 0)
(2.63075 0.000121827 0)
(2.63232 0.000120001 0)
(2.63389 0.000118255 0)
(2.63547 0.000116591 0)
(2.63704 0.000115011 0)
(2.63862 0.000113517 0)
(2.64019 0.000112113 0)
(2.64177 0.000110802 0)
(2.64334 0.000109585 0)
(2.64492 0.000108464 0)
(2.64649 0.00010744 0)
(2.64806 0.000106511 0)
(2.64963 0.000105675 0)
(2.6512 0.000104929 0)
(2.65276 0.000104269 0)
(2.65432 0.000103692 0)
(2.65588 0.000103194 0)
(2.65744 0.000102771 0)
(2.65899 0.00010242 0)
(2.66055 0.000102141 0)
(2.66209 0.000101933 0)
(2.66364 0.000101798 0)
(2.66518 0.000101738 0)
(2.66672 0.000101757 0)
(2.66825 0.000101861 0)
(2.66978 0.000102053 0)
(2.67131 0.00010234 0)
(2.67283 0.000102726 0)
(2.67435 0.000103215 0)
(2.67586 0.00010381 0)
(2.67736 0.000104513 0)
(2.67887 0.000105324 0)
(2.68036 0.000106241 0)
(2.68185 0.000107265 0)
(2.68334 0.00010839 0)
(2.68482 0.000109614 0)
(2.68629 0.000110934 0)
(2.68776 0.000112344 0)
(2.68922 0.000113839 0)
(2.69068 0.000115415 0)
(2.69213 0.000117075 0)
(2.69358 0.000118818 0)
(2.69502 0.000120645 0)
(2.69645 0.000122554 0)
(2.69787 0.00012455 0)
(2.69929 0.000126636 0)
(2.70071 0.000128818 0)
(2.70212 0.000131095 0)
(2.70352 0.000133471 0)
(2.70491 0.000135944 0)
(2.7063 0.000138517 0)
(2.70768 0.000141197 0)
(2.70905 0.00014398 0)
(2.71042 0.000146858 0)
(2.71177 0.000149831 0)
(2.71313 0.00015289 0)
(2.71447 0.000156022 0)
(2.71581 0.000159232 0)
(2.71714 0.000162515 0)
(2.71847 0.000165866 0)
(2.71978 0.00016928 0)
(2.72109 0.000172745 0)
(2.7224 0.000176262 0)
(2.72369 0.000179843 0)
(2.72499 0.000183481 0)
(2.72627 0.000187172 0)
(2.72755 0.000190923 0)
(2.72882 0.000194734 0)
(2.73008 0.000198608 0)
(2.73134 0.000202551 0)
(2.73259 0.000206557 0)
(2.73383 0.000210621 0)
(2.73507 0.00021475 0)
(2.7363 0.000218944 0)
(2.73752 0.000223193 0)
(2.73874 0.000227486 0)
(2.73995 0.000231826 0)
(2.74115 0.000236212 0)
(2.74235 0.000240629 0)
(2.74354 0.000245065 0)
(2.74473 0.000249528 0)
(2.74591 0.000254019 0)
(2.74708 0.000258521 0)
(2.74825 0.000263027 0)
(2.74941 0.000267546 0)
(2.75056 0.000272091 0)
(2.75171 0.000276649 0)
(2.75286 0.000281214 0)
(2.754 0.000285795 0)
(2.75513 0.000290403 0)
(2.75626 0.000295025 0)
(2.75738 0.000299672 0)
(2.7585 0.000304343 0)
(2.75961 0.000309035 0)
(2.76072 0.000313739 0)
(2.76182 0.000318477 0)
(2.76292 0.000323194 0)
(2.76401 0.00032795 0)
(2.76509 0.000332681 0)
(2.76617 0.000337435 0)
(2.76725 0.000342122 0)
(2.76832 0.000346899 0)
(2.76939 0.000351518 0)
(2.77045 0.000356298 0)
(2.77151 0.000360825 0)
(2.77256 0.000365644 0)
(2.77361 0.000370018 0)
(2.77466 0.000374914 0)
(2.7757 0.000379085 0)
(2.77674 0.00038419 0)
(2.77777 0.000388071 0)
(2.7788 0.000393466 0)
(2.77982 0.000396912 0)
(2.78085 0.000402779 0)
(2.78185 0.000405715 0)
(2.78289 0.000412043 0)
(2.78386 0.00041457 0)
(2.78493 0.00042105 0)
(2.78583 0.000424044 0)
(2.78699 0.000429173 0)
(2.78773 0.00043616 0)
(2.78911 0.000434538 0)
(2.78947 0.000452721 0)
(2.79141 0.000430042 0)
(4.59134 0.395182 0)
(4.81467 0.238565 0)
(4.80036 0.101827 0)
(4.60311 0.0789982 0)
(4.38167 0.0596157 0)
(4.21225 0.0376628 0)
(4.09926 0.0247611 0)
(4.01934 0.0200764 0)
(3.95314 0.0182307 0)
(3.89413 0.016343 0)
(3.84218 0.0142706 0)
(3.79728 0.0124995 0)
(3.75825 0.0111522 0)
(3.72379 0.0100921 0)
(3.69302 0.00919124 0)
(3.66542 0.00840404 0)
(3.64056 0.00772013 0)
(3.61809 0.00712697 0)
(3.5977 0.00660808 0)
(3.57912 0.00614931 0)
(3.56215 0.00574067 0)
(3.5466 0.00537482 0)
(3.53234 0.00504574 0)
(3.51922 0.00474833 0)
(3.50713 0.00447835 0)
(3.49598 0.00423229 0)
(3.48568 0.00400724 0)
(3.47615 0.00380072 0)
(3.46733 0.00361064 0)
(3.45916 0.00343519 0)
(3.45159 0.00327282 0)
(3.44456 0.00312214 0)
(3.43804 0.00298201 0)
(3.432 0.00285137 0)
(3.42639 0.00272929 0)
(3.42119 0.00261501 0)
(3.41636 0.00250771 0)
(3.41189 0.00240687 0)
(3.40775 0.00231201 0)
(3.40392 0.00222247 0)
(3.40038 0.00213782 0)
(3.39711 0.00205769 0)
(3.39411 0.00198177 0)
(3.39134 0.00190968 0)
(3.3888 0.00184117 0)
(3.38648 0.0017759 0)
(3.38437 0.00171362 0)
(3.38245 0.00165407 0)
(3.38072 0.00159699 0)
(3.37917 0.00154317 0)
(3.37778 0.00149136 0)
(3.37655 0.00144131 0)
(3.37547 0.00139312 0)
(3.37454 0.00134666 0)
(3.37375 0.00130186 0)
(3.3731 0.00125865 0)
(3.37258 0.00121685 0)
(3.37218 0.00117649 0)
(3.37191 0.00113747 0)
(3.37175 0.00109957 0)
(3.37171 0.00106284 0)
(3.37177 0.00102728 0)
(3.37193 0.000992901 0)
(3.3722 0.000959567 0)
(3.37256 0.00092719 0)
(3.37302 0.000895845 0)
(3.37356 0.000865595 0)
(3.37419 0.000836331 0)
(3.37491 0.000808012 0)
(3.3757 0.000780683 0)
(3.37657 0.000754305 0)
(3.37751 0.000728837 0)
(3.37852 0.000704275 0)
(3.3796 0.000680604 0)
(3.38074 0.000657802 0)
(3.38195 0.000635851 0)
(3.38321 0.000614731 0)
(3.38452 0.000594418 0)
(3.38589 0.000574905 0)
(3.38731 0.000556182 0)
(3.38877 0.000538228 0)
(3.39028 0.000521019 0)
(3.39184 0.000504535 0)
(3.39343 0.000488766 0)
(3.39506 0.000473711 0)
(3.39672 0.000459344 0)
(3.39842 0.000445632 0)
(3.40015 0.000432549 0)
(3.40191 0.000420077 0)
(3.40369 0.000408187 0)
(3.4055 0.00039685 0)
(3.40733 0.000386038 0)
(3.40919 0.00037573 0)
(3.41106 0.000365902 0)
(3.41296 0.000356525 0)
(3.41487 0.000347571 0)
(3.4168 0.000339012 0)
(3.41875 0.000330828 0)
(3.42071 0.000323001 0)
(3.42268 0.000315516 0)
(3.42467 0.000308361 0)
(3.42667 0.000301526 0)
(3.42868 0.000295002 0)
(3.4307 0.000288778 0)
(3.43272 0.000282846 0)
(3.43476 0.000277195 0)
(3.4368 0.000271817 0)
(3.43884 0.0002667 0)
(3.4409 0.000261831 0)
(3.44295 0.000257199 0)
(3.44501 0.000252787 0)
(3.44708 0.000248579 0)
(3.44915 0.000244561 0)
(3.45122 0.000240717 0)
(3.45329 0.000237035 0)
(3.45537 0.000233505 0)
(3.45745 0.000230117 0)
(3.45953 0.000226866 0)
(3.46161 0.000223746 0)
(3.46369 0.000220757 0)
(3.46577 0.0002179 0)
(3.46785 0.000215176 0)
(3.46993 0.000212588 0)
(3.47201 0.000210141 0)
(3.47409 0.000207836 0)
(3.47617 0.000205676 0)
(3.47825 0.000203662 0)
(3.48032 0.000201793 0)
(3.48239 0.000200067 0)
(3.48446 0.00019848 0)
(3.48652 0.000197026 0)
(3.48859 0.000195701 0)
(3.49064 0.000194496 0)
(3.4927 0.000193407 0)
(3.49475 0.000192426 0)
(3.4968 0.000191551 0)
(3.49884 0.000190777 0)
(3.50088 0.000190104 0)
(3.50292 0.000189534 0)
(3.50495 0.000189068 0)
(3.50697 0.000188712 0)
(3.50899 0.000188472 0)
(3.51101 0.000188353 0)
(3.51302 0.000188364 0)
(3.51502 0.000188508 0)
(3.51702 0.000188791 0)
(3.51901 0.000189219 0)
(3.521 0.00018979 0)
(3.52297 0.000190506 0)
(3.52495 0.000191366 0)
(3.52691 0.000192366 0)
(3.52887 0.000193499 0)
(3.53082 0.000194764 0)
(3.53276 0.000196153 0)
(3.5347 0.000197654 0)
(3.53663 0.000199264 0)
(3.53855 0.000200984 0)
(3.54046 0.00020281 0)
(3.54237 0.00020474 0)
(3.54426 0.000206772 0)
(3.54615 0.00020891 0)
(3.54804 0.000211159 0)
(3.54991 0.000213524 0)
(3.55178 0.000216007 0)
(3.55364 0.00021861 0)
(3.55549 0.000221336 0)
(3.55733 0.000224189 0)
(3.55916 0.000227174 0)
(3.56098 0.000230294 0)
(3.5628 0.000233543 0)
(3.5646 0.000236918 0)
(3.5664 0.000240408 0)
(3.56819 0.000243998 0)
(3.56997 0.000247692 0)
(3.57174 0.000251485 0)
(3.5735 0.000255367 0)
(3.57525 0.000259332 0)
(3.577 0.000263363 0)
(3.57874 0.000267458 0)
(3.58046 0.000271633 0)
(3.58218 0.00027588 0)
(3.58389 0.000280186 0)
(3.58559 0.000284563 0)
(3.58729 0.000289015 0)
(3.58897 0.000293544 0)
(3.59065 0.000298155 0)
(3.59232 0.000302845 0)
(3.59398 0.000307614 0)
(3.59563 0.000312466 0)
(3.59727 0.000317402 0)
(3.59891 0.000322414 0)
(3.60053 0.000327493 0)
(3.60215 0.000332637 0)
(3.60376 0.000337846 0)
(3.60536 0.000343102 0)
(3.60695 0.000348392 0)
(3.60854 0.000353721 0)
(3.61012 0.000359089 0)
(3.61168 0.000364475 0)
(3.61325 0.000369867 0)
(3.6148 0.000375275 0)
(3.61635 0.000380716 0)
(3.61789 0.000386175 0)
(3.61942 0.000391637 0)
(3.62095 0.000397117 0)
(3.62247 0.000402634 0)
(3.62398 0.000408168 0)
(3.62548 0.000413733 0)
(3.62698 0.000419332 0)
(3.62847 0.000424961 0)
(3.62996 0.000430606 0)
(3.63143 0.000436307 0)
(3.6329 0.000441996 0)
(3.63437 0.000447735 0)
(3.63582 0.000453451 0)
(3.63727 0.000459208 0)
(3.63872 0.000464888 0)
(3.64016 0.000470683 0)
(3.64159 0.000476296 0)
(3.64302 0.000482106 0)
(3.64444 0.000487616 0)
(3.64585 0.000493471 0)
(3.64726 0.000498788 0)
(3.64866 0.000504742 0)
(3.65006 0.000509815 0)
(3.65146 0.000516018 0)
(3.65284 0.000520722 0)
(3.65423 0.000527298 0)
(3.6556 0.000531459 0)
(3.65699 0.000538619 0)
(3.65834 0.000542147 0)
(3.65973 0.000549924 0)
(3.66104 0.000552894 0)
(3.66248 0.000560964 0)
(3.66368 0.000564388 0)
(3.66525 0.000571142 0)
(3.66624 0.000579167 0)
(3.66809 0.000578623 0)
(3.66861 0.000599739 0)
(3.67115 0.000575794 0)
(4.58431 0.329867 0)
(5.00588 0.225822 0)
(5.21616 0.103868 0)
(5.19407 0.0942423 0)
(5.06825 0.0802846 0)
(4.94084 0.0548683 0)
(4.84283 0.0373726 0)
(4.76773 0.02999 0)
(4.70347 0.0267119 0)
(4.64551 0.0238193 0)
(4.59387 0.020881 0)
(4.54857 0.0183743 0)
(4.50866 0.0164302 0)
(4.47309 0.014884 0)
(4.44111 0.0135726 0)
(4.41225 0.0124285 0)
(4.38614 0.0114325 0)
(4.36244 0.0105658 0)
(4.34086 0.00980554 0)
(4.32116 0.00913212 0)
(4.30312 0.0085314 0)
(4.28658 0.00799279 0)
(4.27138 0.00750764 0)
(4.2574 0.00706864 0)
(4.24451 0.0066697 0)
(4.23262 0.00630575 0)
(4.22165 0.00597255 0)
(4.21151 0.00566653 0)
(4.20213 0.00538464 0)
(4.19346 0.00512424 0)
(4.18544 0.00488308 0)
(4.17802 0.00465915 0)
(4.17115 0.00445076 0)
(4.1648 0.00425638 0)
(4.15893 0.00407467 0)
(4.1535 0.00390451 0)
(4.14849 0.00374471 0)
(4.14388 0.00359441 0)
(4.13962 0.00345299 0)
(4.13571 0.00331952 0)
(4.13213 0.00319328 0)
(4.12885 0.00307374 0)
(4.12585 0.00296043 0)
(4.12313 0.00285282 0)
(4.12066 0.00275052 0)
(4.11843 0.00265302 0)
(4.11643 0.00255998 0)
(4.11465 0.00247101 0)
(4.11308 0.00238569 0)
(4.11171 0.00230512 0)
(4.11052 0.00222769 0)
(4.10951 0.0021529 0)
(4.10867 0.00208085 0)
(4.108 0.00201144 0)
(4.10748 0.00194456 0)
(4.10712 0.00188005 0)
(4.1069 0.00181773 0)
(4.10682 0.00175751 0)
(4.10687 0.00169928 0)
(4.10706 0.00164284 0)
(4.10736 0.00158818 0)
(4.10779 0.00153527 0)
(4.10833 0.00148415 0)
(4.10899 0.00143461 0)
(4.10974 0.00138655 0)
(4.1106 0.00134006 0)
(4.11156 0.00129519 0)
(4.11261 0.00125183 0)
(4.11375 0.00120992 0)
(4.11498 0.00116951 0)
(4.11628 0.00113053 0)
(4.11767 0.00109295 0)
(4.11912 0.00105674 0)
(4.12065 0.00102188 0)
(4.12225 0.000988329 0)
(4.12391 0.000956063 0)
(4.12563 0.000925047 0)
(4.12741 0.00089524 0)
(4.12924 0.000866625 0)
(4.13112 0.000839183 0)
(4.13306 0.000812878 0)
(4.13504 0.000787671 0)
(4.13706 0.00076353 0)
(4.13913 0.000740436 0)
(4.14123 0.000718383 0)
(4.14337 0.000697335 0)
(4.14554 0.000677243 0)
(4.14775 0.000658071 0)
(4.14998 0.000639791 0)
(4.15224 0.000622364 0)
(4.15453 0.000605746 0)
(4.15684 0.000589902 0)
(4.15917 0.000574801 0)
(4.16153 0.000560408 0)
(4.1639 0.000546681 0)
(4.16629 0.000533577 0)
(4.16869 0.000521057 0)
(4.17112 0.000509087 0)
(4.17355 0.000497638 0)
(4.176 0.000486684 0)
(4.17846 0.000476205 0)
(4.18094 0.000466183 0)
(4.18342 0.000456602 0)
(4.18591 0.000447447 0)
(4.18841 0.000438704 0)
(4.19092 0.000430359 0)
(4.19343 0.000422401 0)
(4.19595 0.000414815 0)
(4.19848 0.000407588 0)
(4.20101 0.000400703 0)
(4.20354 0.000394141 0)
(4.20608 0.000387881 0)
(4.20862 0.000381903 0)
(4.21116 0.000376185 0)
(4.2137 0.000370711 0)
(4.21624 0.000365461 0)
(4.21879 0.000360422 0)
(4.22134 0.000355581 0)
(4.22388 0.000350926 0)
(4.22643 0.000346455 0)
(4.22898 0.000342163 0)
(4.23152 0.000338049 0)
(4.23407 0.000334116 0)
(4.23661 0.000330367 0)
(4.23916 0.000326805 0)
(4.2417 0.000323434 0)
(4.24423 0.000320256 0)
(4.24677 0.000317271 0)
(4.2493 0.000314479 0)
(4.25183 0.000311875 0)
(4.25435 0.000309455 0)
(4.25687 0.000307212 0)
(4.25939 0.000305138 0)
(4.2619 0.000303223 0)
(4.26441 0.000301458 0)
(4.26691 0.000299835 0)
(4.26941 0.000298348 0)
(4.2719 0.000296992 0)
(4.27439 0.000295765 0)
(4.27687 0.000294665 0)
(4.27935 0.000293697 0)
(4.28182 0.000292865 0)
(4.28429 0.000292174 0)
(4.28675 0.000291633 0)
(4.2892 0.000291248 0)
(4.29165 0.000291027 0)
(4.29408 0.000290976 0)
(4.29652 0.000291097 0)
(4.29894 0.000291394 0)
(4.30136 0.00029187 0)
(4.30376 0.000292517 0)
(4.30616 0.000293332 0)
(4.30856 0.000294313 0)
(4.31094 0.000295449 0)
(4.31331 0.000296725 0)
(4.31568 0.000298138 0)
(4.31804 0.000299684 0)
(4.32038 0.000301356 0)
(4.32272 0.000303149 0)
(4.32506 0.000305057 0)
(4.32738 0.000307084 0)
(4.32969 0.000309233 0)
(4.332 0.000311509 0)
(4.33429 0.000313913 0)
(4.33658 0.000316448 0)
(4.33885 0.000319118 0)
(4.34112 0.00032193 0)
(4.34338 0.000324891 0)
(4.34563 0.000328007 0)
(4.34786 0.000331276 0)
(4.35009 0.000334695 0)
(4.35231 0.000338256 0)
(4.35451 0.000341941 0)
(4.35671 0.000345752 0)
(4.3589 0.000349687 0)
(4.36107 0.000353732 0)
(4.36324 0.000357876 0)
(4.36539 0.000362103 0)
(4.36754 0.000366403 0)
(4.36967 0.000370793 0)
(4.3718 0.000375266 0)
(4.37392 0.0003798 0)
(4.37602 0.000384407 0)
(4.37812 0.000389096 0)
(4.38021 0.000393866 0)
(4.38229 0.000398723 0)
(4.38435 0.000403666 0)
(4.38641 0.000408698 0)
(4.38846 0.000413825 0)
(4.3905 0.00041905 0)
(4.39253 0.000424366 0)
(4.39455 0.000429767 0)
(4.39655 0.000435252 0)
(4.39855 0.00044082 0)
(4.40054 0.000446452 0)
(4.40252 0.000452136 0)
(4.40449 0.000457874 0)
(4.40645 0.000463663 0)
(4.40841 0.00046948 0)
(4.41035 0.000475308 0)
(4.41228 0.000481157 0)
(4.41421 0.000487044 0)
(4.41613 0.000492951 0)
(4.41804 0.000498856 0)
(4.41994 0.000504778 0)
(4.42183 0.000510741 0)
(4.42371 0.000516721 0)
(4.42559 0.000522733 0)
(4.42746 0.000528784 0)
(4.42932 0.00053487 0)
(4.43117 0.000540979 0)
(4.43301 0.000547159 0)
(4.43485 0.00055334 0)
(4.43668 0.000559583 0)
(4.4385 0.000565811 0)
(4.44031 0.000572099 0)
(4.44211 0.000578311 0)
(4.44391 0.000584659 0)
(4.4457 0.000590825 0)
(4.44748 0.000597208 0)
(4.44926 0.000603275 0)
(4.45102 0.000609711 0)
(4.45279 0.000615568 0)
(4.45454 0.000622112 0)
(4.45629 0.00062771 0)
(4.45803 0.000634514 0)
(4.45977 0.000639704 0)
(4.4615 0.000646904 0)
(4.46322 0.000651519 0)
(4.46495 0.00065932 0)
(4.46664 0.000663288 0)
(4.46839 0.000671727 0)
(4.47002 0.000675134 0)
(4.47182 0.000683881 0)
(4.47334 0.000687803 0)
(4.47529 0.000695316 0)
(4.47655 0.000704173 0)
(4.47885 0.000704707 0)
(4.47952 0.000727227 0)
(4.48265 0.000705374 0)
(4.55124 0.271045 0)
(4.99869 0.199506 0)
(5.30911 0.0872694 0)
(5.43092 0.0890949 0)
(5.4373 0.0865812 0)
(5.40302 0.0646043 0)
(5.36338 0.0466298 0)
(5.32398 0.0383391 0)
(5.28286 0.0343117 0)
(5.24109 0.0306872 0)
(5.2013 0.0270259 0)
(5.16487 0.0238786 0)
(5.13173 0.0214076 0)
(5.10145 0.0194294 0)
(5.07368 0.0177525 0)
(5.04823 0.0162916 0)
(5.02491 0.0150175 0)
(5.00353 0.0139051 0)
(4.98389 0.0129261 0)
(4.96583 0.0120566 0)
(4.94921 0.011279 0)
(4.9339 0.01058 0)
(4.91978 0.00994874 0)
(4.90676 0.00937627 0)
(4.89474 0.00885494 0)
(4.88365 0.00837842 0)
(4.8734 0.00794136 0)
(4.86394 0.00753928 0)
(4.8552 0.0071683 0)
(4.84713 0.00682508 0)
(4.83969 0.00650677 0)
(4.83282 0.00621085 0)
(4.8265 0.00593514 0)
(4.82068 0.00567769 0)
(4.81532 0.0054368 0)