/*--------------------------------*- C++ -*----------------------------------*\
  =========                 |
  \\      /  F ield         | OpenFOAM: The Open Source CFD Toolbox
   \\    /   O peration     | Website:  https://openfoam.org
    \\  /    A nd           | Version:  7
     \\/     M anipulation  |
\*---------------------------------------------------------------------------*/
FoamFile
{
    version     2.0;
    format      ascii;
    class       volScalarField;
    location    "2.93";
    object      alphat;
}
// * * * * * * * * * * * * * * * * * * * * * * * * * * * * * * * * * * * * * //

dimensions      [1 -1 -1 0 0 0 0];

internalField   nonuniform List<scalar> 
7920
(
0.0108018
0.0112505
0.0112557
0.0112581
0.0112525
0.0112514
0.0112471
0.0112466
0.011244
0.011244
0.0112421
0.0112423
0.0112407
0.0112408
0.0112397
0.0112396
0.0112394
0.0112376
0.0112447
0.0112605
0.00557203
0.00560428
0.00548843
0.00537321
0.00531887
0.00529636
0.00527831
0.00527202
0.00526263
0.00526002
0.00525408
0.00525262
0.00524913
0.00524853
0.0052461
0.0052457
0.00524386
0.00524335
0.00527692
0.00528369
0.00425986
0.00454888
0.00457953
0.0045744
0.00456575
0.00456211
0.00455688
0.00455484
0.00455126
0.0045497
0.00454679
0.00454559
0.00454317
0.00454229
0.00454015
0.00453962
0.00453745
0.00453744
0.00453662
0.00454518
0.00409737
0.00443118
0.00449601
0.00451771
0.00452459
0.00453194
0.00453395
0.00453762
0.00453835
0.00454043
0.00454055
0.00454186
0.0045416
0.00454256
0.004542
0.00454281
0.00454196
0.0045428
0.0045421
0.00454842
0.00408
0.00441797
0.00448654
0.0045122
0.00452266
0.00453334
0.00453809
0.00454521
0.00454827
0.00455338
0.00455555
0.00455947
0.004561
0.00456409
0.00456515
0.00456762
0.0045683
0.00457012
0.00457085
0.00457688
0.00408172
0.00441674
0.00448491
0.0045109
0.0045223
0.00453415
0.00454015
0.00454874
0.00455299
0.00455976
0.00456305
0.00456852
0.0045711
0.00457559
0.00457759
0.00458128
0.00458283
0.00458558
0.00458737
0.00459339
0.00408172
0.00441674
0.00448491
0.0045109
0.0045223
0.00453415
0.00454015
0.00454874
0.00455299
0.00455976
0.00456305
0.00456852
0.0045711
0.00457558
0.00457759
0.00458128
0.00458284
0.00458558
0.00458739
0.00459341
0.00408
0.00441797
0.00448654
0.0045122
0.00452266
0.00453334
0.00453809
0.00454521
0.00454827
0.00455338
0.00455555
0.00455947
0.00456101
0.00456408
0.00456517
0.00456761
0.00456834
0.00457011
0.00457093
0.00457689
0.00409737
0.00443118
0.00449601
0.00451771
0.00452459
0.00453194
0.00453395
0.00453761
0.00453836
0.00454042
0.00454055
0.00454185
0.00454162
0.00454254
0.00454204
0.00454277
0.00454205
0.00454273
0.00454232
0.00454816
0.00425986
0.00454888
0.00457953
0.0045744
0.00456575
0.00456211
0.00455688
0.00455484
0.00455126
0.00454969
0.0045468
0.00454557
0.00454319
0.00454225
0.00454019
0.00453953
0.00453757
0.00453732
0.00453716
0.00454432
0.00557203
0.00560428
0.00548843
0.00537321
0.00531887
0.00529636
0.00527831
0.00527202
0.00526263
0.00526002
0.00525408
0.00525261
0.00524914
0.00524852
0.00524611
0.00524564
0.00524392
0.00524323
0.00527684
0.00528206
0.0108018
0.0112505
0.0112557
0.0112581
0.0112525
0.0112514
0.0112471
0.0112466
0.011244
0.011244
0.0112421
0.0112423
0.0112407
0.0112409
0.0112396
0.0112397
0.0112392
0.011238
0.0112439
0.0112618
0.00414209
0.004651
0.00467007
0.00464028
0.00463071
0.00461409
0.00461251
0.00460314
0.00460286
0.00459657
0.00459672
0.00459218
0.00459238
0.00458894
0.00458911
0.0045863
0.00458673
0.0045836
0.0045827
0.00459897
0.0036693
0.0042966
0.004384
0.0043961
0.00439673
0.00439697
0.004396
0.00439574
0.00439482
0.00439441
0.00439357
0.0043931
0.0043924
0.00439198
0.00439131
0.00439114
0.00439
0.00439081
0.00438918
0.00439609
0.00357013
0.00420475
0.00429621
0.00431577
0.00431785
0.00432293
0.00432342
0.00432701
0.00432739
0.0043301
0.00433037
0.0043324
0.00433259
0.00433416
0.00433431
0.00433555
0.00433555
0.00433677
0.00433556
0.00434616
0.00356806
0.00420306
0.00429382
0.00431245
0.00431287
0.00431602
0.00431531
0.00431724
0.00431711
0.0043189
0.00431904
0.00432059
0.00432089
0.00432218
0.00432265
0.00432359
0.00432422
0.00432478
0.00432512
0.00433102
0.0035639
0.00419852
0.004289
0.0043083
0.0043083
0.00431131
0.00430989
0.00431151
0.0043106
0.00431197
0.00431144
0.00431261
0.00431237
0.00431337
0.00431332
0.00431422
0.00431425
0.00431505
0.00431519
0.0043209
0.00356605
0.00420104
0.00429124
0.00431049
0.00431044
0.00431346
0.00431198
0.00431359
0.00431256
0.00431385
0.00431316
0.00431422
0.00431378
0.00431465
0.00431441
0.00431511
0.00431502
0.00431558
0.00431557
0.00432076
0.00356605
0.00420104
0.00429124
0.00431049
0.00431044
0.00431346
0.00431198
0.00431359
0.00431256
0.00431385
0.00431316
0.00431422
0.00431379
0.00431465
0.00431441
0.00431511
0.00431502
0.00431558
0.00431557
0.00432076
0.0035639
0.00419852
0.004289
0.0043083
0.00430831
0.00431131
0.00430989
0.00431151
0.0043106
0.00431196
0.00431145
0.00431261
0.00431238
0.00431337
0.00431333
0.00431421
0.00431427
0.00431503
0.00431519
0.00432087
0.00356806
0.00420306
0.00429382
0.00431245
0.00431287
0.00431602
0.00431532
0.00431724
0.00431712
0.00431889
0.00431905
0.00432058
0.00432091
0.00432218
0.00432262
0.00432362
0.00432419
0.00432469
0.00432528
0.00433079
0.00357013
0.00420475
0.00429621
0.00431577
0.00431785
0.00432293
0.00432342
0.004327
0.0043274
0.00433009
0.00433038
0.00433238
0.00433262
0.00433413
0.00433433
0.00433553
0.0043356
0.00433659
0.00433596
0.0043453
0.0036693
0.00429659
0.004384
0.0043961
0.00439673
0.00439697
0.00439601
0.00439574
0.00439483
0.0043944
0.00439358
0.00439309
0.00439242
0.00439195
0.00439137
0.00439103
0.00439018
0.00439039
0.00438999
0.00439442
0.00414209
0.004651
0.00467007
0.00464028
0.00463071
0.00461409
0.00461251
0.00460314
0.00460287
0.00459657
0.00459672
0.00459218
0.00459239
0.00458893
0.00458914
0.00458627
0.00458684
0.00458345
0.00458344
0.00459655
0.00103297
0.00152187
0.00159207
0.00157124
0.00151776
0.00146775
0.00142786
0.00139887
0.0013772
0.00136018
0.0013477
0.00133628
0.00132825
0.00131973
0.00131405
0.00130766
0.00130267
0.00129974
0.00129084
0.0013013
0.000438577
0.000924953
0.0010854
0.00114759
0.00116885
0.00118199
0.00118849
0.00119559
0.00119909
0.00120289
0.00120411
0.00120567
0.00120566
0.001206
0.00120548
0.00120558
0.00120454
0.00120482
0.00120302
0.00120712
0.00037906
0.000818993
0.000964967
0.00103037
0.00105017
0.00106456
0.00106785
0.00107462
0.00107697
0.00108212
0.0010846
0.00108917
0.00109182
0.00109561
0.0010983
0.00110138
0.00110399
0.00110659
0.00110817
0.00111296
0.000390279
0.00082394
0.000966346
0.00102894
0.0010483
0.00106032
0.00106208
0.00106526
0.00106541
0.00106649
0.00106678
0.00106781
0.00106839
0.00106949
0.00107061
0.00107145
0.00107306
0.00107383
0.0010752
0.00107868
0.000384955
0.000818488
0.000960358
0.00102329
0.00104227
0.00105432
0.00105577
0.00105867
0.00105842
0.00105896
0.00105864
0.00105888
0.00105871
0.00105886
0.00105889
0.00105898
0.00105926
0.00105935
0.00105965
0.00106191
0.000387943
0.000821541
0.000963436
0.00102594
0.00104504
0.00105692
0.00105854
0.00106135
0.00106115
0.00106162
0.0010613
0.00106144
0.00106121
0.00106122
0.00106113
0.00106101
0.00106104
0.00106095
0.00106108
0.00106304
0.000387943
0.000821541
0.000963436
0.00102594
0.00104504
0.00105692
0.00105854
0.00106135
0.00106115
0.00106162
0.0010613
0.00106144
0.00106121
0.00106122
0.00106113
0.00106102
0.00106104
0.00106095
0.00106107
0.00106305
0.000384955
0.000818488
0.000960358
0.00102329
0.00104227
0.00105432
0.00105577
0.00105867
0.00105842
0.00105896
0.00105864
0.00105888
0.00105871
0.00105886
0.00105889
0.00105899
0.00105925
0.00105935
0.00105964
0.00106192
0.000390278
0.00082394
0.000966346
0.00102894
0.0010483
0.00106032
0.00106208
0.00106526
0.00106541
0.00106649
0.00106678
0.00106781
0.00106839
0.0010695
0.00107059
0.00107146
0.00107303
0.00107381
0.00107517
0.00107864
0.000379059
0.000818993
0.000964967
0.00103037
0.00105017
0.00106455
0.00106786
0.00107462
0.00107697
0.00108211
0.0010846
0.00108916
0.00109183
0.0010956
0.0010983
0.00110136
0.00110399
0.00110649
0.00110823
0.00111272
0.000438577
0.000924953
0.0010854
0.00114759
0.00116885
0.00118199
0.00118849
0.00119559
0.00119909
0.00120288
0.00120411
0.00120565
0.0012057
0.00120594
0.00120555
0.00120541
0.00120472
0.00120443
0.0012035
0.00120625
0.00103297
0.00152187
0.00159207
0.00157124
0.00151776
0.00146775
0.00142786
0.00139887
0.0013772
0.00136018
0.0013477
0.00133629
0.00132827
0.00131975
0.00131411
0.00130768
0.00130293
0.00129954
0.001292
0.00129981
0.00103297
0.00152187
0.00159207
0.00157124
0.00151776
0.00146775
0.00142786
0.00139887
0.0013772
0.00136018
0.0013477
0.00133628
0.00132825
0.00131973
0.00131405
0.00130766
0.00130267
0.00129974
0.00129084
0.0013013
0.000438577
0.000924953
0.0010854
0.00114759
0.00116885
0.00118199
0.00118849
0.00119559
0.00119909
0.00120289
0.00120411
0.00120567
0.00120566
0.001206
0.00120548
0.00120558
0.00120454
0.00120482
0.00120302
0.00120712
0.00037906
0.000818993
0.000964967
0.00103037
0.00105017
0.00106456
0.00106785
0.00107462
0.00107697
0.00108212
0.0010846
0.00108917
0.00109182
0.00109561
0.0010983
0.00110138
0.00110399
0.00110659
0.00110817
0.00111296
0.000390279
0.00082394
0.000966346
0.00102894
0.0010483
0.00106032
0.00106208
0.00106526
0.00106541
0.00106649
0.00106678
0.00106781
0.00106839
0.00106949
0.00107061
0.00107145
0.00107306
0.00107383
0.0010752
0.00107868
0.000384955
0.000818488
0.000960358
0.00102329
0.00104227
0.00105432
0.00105577
0.00105867
0.00105842
0.00105896
0.00105864
0.00105888
0.00105871
0.00105886
0.00105889
0.00105898
0.00105926
0.00105935
0.00105965
0.00106191
0.000387943
0.000821541
0.000963436
0.00102594
0.00104504
0.00105692
0.00105854
0.00106135
0.00106115
0.00106162
0.0010613
0.00106144
0.00106121
0.00106122
0.00106113
0.00106101
0.00106104
0.00106095
0.00106108
0.00106304
0.000387943
0.000821541
0.000963436
0.00102594
0.00104504
0.00105692
0.00105854
0.00106135
0.00106115
0.00106162
0.0010613
0.00106144
0.00106121
0.00106122
0.00106113
0.00106102
0.00106104
0.00106095
0.00106107
0.00106305
0.000384955
0.000818488
0.000960358
0.00102329
0.00104227
0.00105432
0.00105577
0.00105867
0.00105842
0.00105896
0.00105864
0.00105888
0.00105871
0.00105886
0.00105889
0.00105899
0.00105925
0.00105935
0.00105964
0.00106192
0.000390278
0.00082394
0.000966346
0.00102894
0.0010483
0.00106032
0.00106208
0.00106526
0.00106541
0.00106649
0.00106678
0.00106781
0.00106839
0.0010695
0.00107059
0.00107146
0.00107303
0.00107381
0.00107517
0.00107864
0.000379059
0.000818993
0.000964967
0.00103037
0.00105017
0.00106455
0.00106786
0.00107462
0.00107697
0.00108211
0.0010846
0.00108916
0.00109183
0.0010956
0.0010983
0.00110136
0.00110399
0.00110649
0.00110823
0.00111272
0.000438577
0.000924953
0.0010854
0.00114759
0.00116885
0.00118199
0.00118849
0.00119559
0.00119909
0.00120288
0.00120411
0.00120565
0.0012057
0.00120594
0.00120555
0.00120541
0.00120472
0.00120443
0.0012035
0.00120625
0.00103297
0.00152187
0.00159207
0.00157124
0.00151776
0.00146775
0.00142786
0.00139887
0.0013772
0.00136018
0.0013477
0.00133629
0.00132827
0.00131975
0.00131411
0.00130768
0.00130293
0.00129954
0.001292
0.00129981
0.00414209
0.004651
0.00467007
0.00464028
0.00463071
0.00461409
0.00461251
0.00460314
0.00460286
0.00459657
0.00459672
0.00459218
0.00459238
0.00458894
0.00458911
0.0045863
0.00458673
0.0045836
0.0045827
0.00459897
0.0036693
0.0042966
0.004384
0.0043961
0.00439673
0.00439697
0.004396
0.00439574
0.00439482
0.00439441
0.00439357
0.0043931
0.0043924
0.00439198
0.00439131
0.00439114
0.00439
0.00439081
0.00438918
0.00439609
0.00357013
0.00420475
0.00429621
0.00431577
0.00431785
0.00432293
0.00432342
0.00432701
0.00432739
0.0043301
0.00433037
0.0043324
0.00433259
0.00433416
0.00433431
0.00433555
0.00433555
0.00433677
0.00433556
0.00434616
0.00356806
0.00420306
0.00429382
0.00431245
0.00431287
0.00431602
0.00431531
0.00431724
0.00431711
0.0043189
0.00431904
0.00432059
0.00432089
0.00432218
0.00432265
0.00432359
0.00432422
0.00432478
0.00432512
0.00433102
0.0035639
0.00419852
0.004289
0.0043083
0.0043083
0.00431131
0.00430989
0.00431151
0.0043106
0.00431197
0.00431144
0.00431261
0.00431237
0.00431337
0.00431332
0.00431422
0.00431425
0.00431505
0.00431519
0.0043209
0.00356605
0.00420104
0.00429124
0.00431049
0.00431044
0.00431346
0.00431198
0.00431359
0.00431256
0.00431385
0.00431316
0.00431422
0.00431378
0.00431465
0.00431441
0.00431511
0.00431502
0.00431558
0.00431557
0.00432076
0.00356605
0.00420104
0.00429124
0.00431049
0.00431044
0.00431346
0.00431198
0.00431359
0.00431256
0.00431385
0.00431316
0.00431422
0.00431379
0.00431465
0.00431441
0.00431511
0.00431502
0.00431558
0.00431557
0.00432076
0.0035639
0.00419852
0.004289
0.0043083
0.00430831
0.00431131
0.00430989
0.00431151
0.0043106
0.00431196
0.00431145
0.00431261
0.00431238
0.00431337
0.00431333
0.00431421
0.00431427
0.00431503
0.00431519
0.00432087
0.00356806
0.00420306
0.00429382
0.00431245
0.00431287
0.00431602
0.00431532
0.00431724
0.00431712
0.00431889
0.00431905
0.00432058
0.00432091
0.00432218
0.00432262
0.00432362
0.00432419
0.00432469
0.00432528
0.00433079
0.00357013
0.00420475
0.00429621
0.00431577
0.00431785
0.00432293
0.00432342
0.004327
0.0043274
0.00433009
0.00433038
0.00433238
0.00433262
0.00433413
0.00433433
0.00433553
0.0043356
0.00433659
0.00433596
0.0043453
0.0036693
0.00429659
0.004384
0.0043961
0.00439673
0.00439697
0.00439601
0.00439574
0.00439483
0.0043944
0.00439358
0.00439309
0.00439242
0.00439195
0.00439137
0.00439103
0.00439018
0.00439039
0.00438999
0.00439442
0.00414209
0.004651
0.00467007
0.00464028
0.00463071
0.00461409
0.00461251
0.00460314
0.00460287
0.00459657
0.00459672
0.00459218
0.00459239
0.00458893
0.00458914
0.00458627
0.00458684
0.00458345
0.00458344
0.00459655
0.0108018
0.0112505
0.0112557
0.0112581
0.0112525
0.0112514
0.0112471
0.0112466
0.011244
0.011244
0.0112421
0.0112423
0.0112407
0.0112408
0.0112397
0.0112396
0.0112394
0.0112376
0.0112447
0.0112605
0.00557203
0.00560428
0.00548843
0.00537321
0.00531887
0.00529636
0.00527831
0.00527202
0.00526263
0.00526002
0.00525408
0.00525262
0.00524913
0.00524853
0.0052461
0.0052457
0.00524386
0.00524335
0.00527692
0.00528369
0.00425986
0.00454888
0.00457953
0.0045744
0.00456575
0.00456211
0.00455688
0.00455484
0.00455126
0.0045497
0.00454679
0.00454559
0.00454317
0.00454229
0.00454015
0.00453962
0.00453745
0.00453744
0.00453662
0.00454518
0.00409737
0.00443118
0.00449601
0.00451771
0.00452459
0.00453194
0.00453395
0.00453762
0.00453835
0.00454043
0.00454055
0.00454186
0.0045416
0.00454256
0.004542
0.00454281
0.00454196
0.0045428
0.0045421
0.00454842
0.00408
0.00441797
0.00448654
0.0045122
0.00452266
0.00453334
0.00453809
0.00454521
0.00454827
0.00455338
0.00455555
0.00455947
0.004561
0.00456409
0.00456515
0.00456762
0.0045683
0.00457012
0.00457085
0.00457688
0.00408172
0.00441674
0.00448491
0.0045109
0.0045223
0.00453415
0.00454015
0.00454874
0.00455299
0.00455976
0.00456305
0.00456852
0.0045711
0.00457559
0.00457759
0.00458128
0.00458283
0.00458558
0.00458737
0.00459339
0.00408172
0.00441674
0.00448491
0.0045109
0.0045223
0.00453415
0.00454015
0.00454874
0.00455299
0.00455976
0.00456305
0.00456852
0.0045711
0.00457558
0.00457759
0.00458128
0.00458284
0.00458558
0.00458739
0.00459341
0.00408
0.00441797
0.00448654
0.0045122
0.00452266
0.00453334
0.00453809
0.00454521
0.00454827
0.00455338
0.00455555
0.00455947
0.00456101
0.00456408
0.00456517
0.00456761
0.00456834
0.00457011
0.00457093
0.00457689
0.00409737
0.00443118
0.00449601
0.00451771
0.00452459
0.00453194
0.00453395
0.00453761
0.00453836
0.00454042
0.00454055
0.00454185
0.00454162
0.00454254
0.00454204
0.00454277
0.00454205
0.00454273
0.00454232
0.00454816
0.00425986
0.00454888
0.00457953
0.0045744
0.00456575
0.00456211
0.00455688
0.00455484
0.00455126
0.00454969
0.0045468
0.00454557
0.00454319
0.00454225
0.00454019
0.00453953
0.00453757
0.00453732
0.00453716
0.00454432
0.00557203
0.00560428
0.00548843
0.00537321
0.00531887
0.00529636
0.00527831
0.00527202
0.00526263
0.00526002
0.00525408
0.00525261
0.00524914
0.00524852
0.00524611
0.00524564
0.00524392
0.00524323
0.00527684
0.00528206
0.0108018
0.0112505
0.0112557
0.0112581
0.0112525
0.0112514
0.0112471
0.0112466
0.011244
0.011244
0.0112421
0.0112423
0.0112407
0.0112409
0.0112396
0.0112397
0.0112392
0.011238
0.0112439
0.0112618
0.0325802
0.032637
0.0326362
0.0326332
0.0326302
0.0326276
0.0326252
0.0326229
0.0326211
0.032619
0.0326174
0.0326153
0.0326138
0.0326117
0.0326103
0.0326084
0.0326071
0.0326052
0.0326038
0.0326019
0.0326006
0.0325988
0.0325975
0.0325956
0.0325943
0.0325925
0.0325911
0.0325892
0.0325878
0.032586
0.0325845
0.0325826
0.0325811
0.0325792
0.0325777
0.0325758
0.0325743
0.0325724
0.0325709
0.0325691
0.0325676
0.0325658
0.0325643
0.0325626
0.0325612
0.0325596
0.0325583
0.0325567
0.0325554
0.0325539
0.0325527
0.0325512
0.03255
0.0325486
0.0325474
0.0325461
0.0325449
0.0325436
0.0325424
0.0325411
0.0325399
0.0325385
0.0325374
0.032536
0.0325349
0.0325335
0.0325323
0.032531
0.0325298
0.0325285
0.0325273
0.032526
0.0325248
0.0325235
0.0325223
0.032521
0.0325197
0.0325184
0.0325172
0.0325159
0.0325147
0.0325134
0.0325121
0.0325108
0.0325096
0.0325083
0.032507
0.0325057
0.0325016
0.0324986
0.0187108
0.0189587
0.0189562
0.0189572
0.0189508
0.0189515
0.0189465
0.0189471
0.0189432
0.0189438
0.0189405
0.0189408
0.0189378
0.0189379
0.0189353
0.0189354
0.018933
0.0189329
0.0189307
0.0189305
0.0189285
0.0189283
0.0189264
0.0189261
0.0189242
0.0189237
0.0189219
0.0189213
0.0189195
0.0189188
0.018917
0.0189162
0.0189144
0.0189135
0.0189117
0.0189108
0.018909
0.018908
0.0189063
0.0189054
0.0189037
0.0189028
0.0189012
0.0189004
0.018899
0.0188982
0.0188969
0.0188962
0.018895
0.0188943
0.0188932
0.0188927
0.0188917
0.0188912
0.0188902
0.0188897
0.0188888
0.0188883
0.0188875
0.018887
0.0188861
0.0188856
0.0188848
0.0188842
0.0188834
0.0188829
0.0188821
0.0188815
0.0188807
0.0188802
0.0188794
0.0188788
0.018878
0.0188774
0.0188767
0.0188761
0.0188753
0.0188747
0.0188739
0.0188733
0.0188726
0.0188719
0.0188712
0.0188705
0.0188697
0.0188691
0.0188682
0.0188677
0.0188642
0.018862
0.0150736
0.0155055
0.0155074
0.015511
0.0155004
0.0155032
0.0154945
0.0154969
0.0154898
0.0154921
0.0154861
0.015488
0.0154826
0.0154841
0.0154794
0.0154809
0.0154767
0.0154779
0.0154741
0.0154751
0.0154717
0.0154726
0.0154694
0.0154702
0.0154672
0.0154678
0.0154649
0.0154654
0.0154626
0.015463
0.0154603
0.0154605
0.0154579
0.0154579
0.0154554
0.0154554
0.015453
0.0154529
0.0154506
0.0154505
0.0154484
0.0154482
0.0154463
0.0154461
0.0154444
0.0154443
0.0154427
0.0154426
0.0154412
0.0154411
0.0154399
0.0154399
0.0154388
0.0154388
0.0154378
0.0154378
0.0154368
0.0154368
0.0154359
0.0154359
0.015435
0.015435
0.0154342
0.0154341
0.0154333
0.0154332
0.0154324
0.0154323
0.0154315
0.0154314
0.0154307
0.0154305
0.0154298
0.0154296
0.0154289
0.0154287
0.015428
0.0154278
0.0154271
0.0154268
0.0154262
0.0154259
0.0154253
0.0154249
0.0154243
0.0154239
0.0154233
0.0154229
0.0154216
0.0154168
0.0145262
0.0151013
0.0151168
0.0151245
0.0151125
0.0151169
0.0151063
0.0151095
0.0151005
0.0151036
0.0150959
0.0150986
0.0150917
0.0150938
0.0150878
0.0150899
0.0150846
0.0150865
0.0150816
0.0150832
0.0150788
0.0150803
0.0150763
0.0150777
0.0150739
0.0150751
0.0150716
0.0150726
0.0150693
0.0150702
0.0150671
0.0150678
0.0150648
0.0150653
0.0150625
0.0150629
0.0150602
0.0150606
0.0150581
0.0150584
0.015056
0.0150562
0.0150541
0.0150543
0.0150524
0.0150526
0.0150509
0.0150511
0.0150496
0.0150498
0.0150485
0.0150487
0.0150475
0.0150478
0.0150467
0.015047
0.015046
0.0150462
0.0150453
0.0150455
0.0150446
0.0150448
0.015044
0.0150441
0.0150433
0.0150434
0.0150427
0.0150427
0.015042
0.0150421
0.0150414
0.0150414
0.0150407
0.0150407
0.01504
0.01504
0.0150394
0.0150393
0.0150387
0.0150386
0.015038
0.0150378
0.0150372
0.015037
0.0150365
0.0150362
0.0150357
0.0150354
0.0150352
0.0150292
0.0144931
0.0151454
0.0151748
0.0151876
0.0151766
0.0151819
0.0151711
0.0151745
0.0151648
0.0151679
0.0151597
0.0151625
0.0151549
0.0151572
0.0151504
0.0151527
0.0151468
0.015149
0.0151436
0.0151455
0.0151405
0.0151423
0.0151379
0.0151396
0.0151354
0.0151369
0.015133
0.0151343
0.0151307
0.0151319
0.0151285
0.0151296
0.0151263
0.0151272
0.0151241
0.0151249
0.015122
0.0151227
0.01512
0.0151205
0.015118
0.0151184
0.0151162
0.0151166
0.0151146
0.015115
0.0151132
0.0151136
0.015112
0.0151123
0.015111
0.0151113
0.0151101
0.0151105
0.0151094
0.0151098
0.0151088
0.0151092
0.0151082
0.0151086
0.0151077
0.015108
0.0151072
0.0151075
0.0151067
0.015107
0.0151062
0.0151064
0.0151057
0.0151059
0.0151052
0.0151053
0.0151047
0.0151048
0.0151042
0.0151042
0.0151036
0.0151036
0.0151031
0.015103
0.0151025
0.0151024
0.0151019
0.0151018
0.0151013
0.0151011
0.0151006
0.0151003
0.0151004
0.0150938
0.0145144
0.0152106
0.0152491
0.0152658
0.0152562
0.0152623
0.0152519
0.0152555
0.0152458
0.015249
0.0152408
0.0152436
0.015236
0.0152384
0.0152315
0.0152338
0.0152279
0.0152302
0.0152247
0.0152267
0.0152216
0.0152236
0.015219
0.0152209
0.0152167
0.0152184
0.0152144
0.0152159
0.0152122
0.0152137
0.0152102
0.0152114
0.0152082
0.0152092
0.0152062
0.0152071
0.0152042
0.015205
0.0152024
0.015203
0.0152005
0.0152011
0.0151989
0.0151994
0.0151974
0.0151978
0.0151961
0.0151965
0.0151949
0.0151953
0.0151939
0.0151944
0.0151931
0.0151936
0.0151925
0.015193
0.015192
0.0151924
0.0151915
0.0151919
0.015191
0.0151914
0.0151906
0.015191
0.0151902
0.0151905
0.0151898
0.01519
0.0151893
0.0151896
0.0151889
0.0151891
0.0151885
0.0151886
0.015188
0.0151881
0.0151876
0.0151876
0.0151871
0.0151871
0.0151866
0.0151866
0.0151861
0.015186
0.0151855
0.0151854
0.0151849
0.0151846
0.0151849
0.0151777
0.0145146
0.0152114
0.0152507
0.015268
0.0152592
0.0152653
0.0152556
0.0152592
0.01525
0.0152532
0.0152454
0.0152483
0.015241
0.0152434
0.0152368
0.0152392
0.0152335
0.0152359
0.0152307
0.0152327
0.0152279
0.0152299
0.0152255
0.0152275
0.0152235
0.0152252
0.0152214
0.015223
0.0152195
0.015221
0.0152178
0.0152191
0.015216
0.0152171
0.0152142
0.0152152
0.0152125
0.0152133
0.0152108
0.0152115
0.0152091
0.0152098
0.0152076
0.0152082
0.0152062
0.0152068
0.015205
0.0152055
0.0152039
0.0152044
0.015203
0.0152034
0.0152022
0.0152027
0.0152016
0.0152021
0.0152011
0.0152015
0.0152006
0.015201
0.0152002
0.0152005
0.0151997
0.0152001
0.0151993
0.0151996
0.0151989
0.0151992
0.0151985
0.0151987
0.0151981
0.0151983
0.0151976
0.0151978
0.0151972
0.0151973
0.0151967
0.0151968
0.0151963
0.0151963
0.0151958
0.0151958
0.0151952
0.0151952
0.0151947
0.0151946
0.0151941
0.0151938
0.0151941
0.0151869
0.0144942
0.0151487
0.0151797
0.0151938
0.0151846
0.01519
0.0151808
0.0151841
0.0151757
0.0151788
0.0151717
0.0151745
0.0151679
0.0151702
0.0151643
0.0151666
0.0151615
0.0151638
0.015159
0.015161
0.0151566
0.0151586
0.0151546
0.0151565
0.0151529
0.0151546
0.0151511
0.0151527
0.0151495
0.015151
0.015148
0.0151493
0.0151465
0.0151476
0.015145
0.0151459
0.0151435
0.0151443
0.015142
0.0151427
0.0151405
0.0151411
0.0151391
0.0151396
0.0151378
0.0151383
0.0151367
0.0151371
0.0151356
0.015136
0.0151347
0.0151351
0.0151339
0.0151343
0.0151332
0.0151336
0.0151326
0.015133
0.0151321
0.0151325
0.0151316
0.0151319
0.0151311
0.0151314
0.0151306
0.0151309
0.0151302
0.0151304
0.0151297
0.0151299
0.0151292
0.0151293
0.0151287
0.0151288
0.0151282
0.0151283
0.0151277
0.0151277
0.0151271
0.0151271
0.0151266
0.0151265
0.015126
0.0151259
0.0151254
0.0151253
0.0151248
0.0151245
0.0151246
0.0151179
0.0145274
0.0151054
0.0151232
0.0151324
0.0151228
0.0151271
0.0151185
0.0151216
0.0151142
0.0151171
0.015111
0.0151135
0.0151079
0.01511
0.015105
0.0151071
0.0151027
0.0151048
0.0151007
0.0151025
0.0150988
0.0151005
0.0150972
0.0150988
0.0150957
0.0150972
0.0150942
0.0150956
0.0150929
0.0150942
0.0150916
0.0150927
0.0150903
0.0150912
0.0150889
0.0150898
0.0150876
0.0150884
0.0150863
0.0150869
0.015085
0.0150855
0.0150837
0.0150841
0.0150825
0.0150829
0.0150813
0.0150817
0.0150803
0.0150806
0.0150793
0.0150796
0.0150785
0.0150788
0.0150777
0.015078
0.015077
0.0150773
0.0150764
0.0150766
0.0150757
0.0150759
0.0150751
0.0150753
0.0150745
0.0150746
0.0150739
0.015074
0.0150732
0.0150733
0.0150726
0.0150727
0.015072
0.015072
0.0150714
0.0150713
0.0150707
0.0150707
0.01507
0.01507
0.0150694
0.0150692
0.0150687
0.0150685
0.0150679
0.0150677
0.0150672
0.0150669
0.0150665
0.0150604
0.0150719
0.0155063
0.0155094
0.0155138
0.0155049
0.0155077
0.0155003
0.0155026
0.0154965
0.0154987
0.0154936
0.0154954
0.0154907
0.0154922
0.0154881
0.0154895
0.0154859
0.0154872
0.0154838
0.015485
0.0154819
0.015483
0.0154802
0.0154811
0.0154785
0.0154794
0.0154769
0.0154777
0.0154754
0.0154761
0.015474
0.0154746
0.0154725
0.015473
0.015471
0.0154715
0.0154696
0.01547
0.0154682
0.0154684
0.0154668
0.015467
0.0154654
0.0154656
0.0154641
0.0154642
0.0154629
0.015463
0.0154617
0.0154618
0.0154606
0.0154607
0.0154596
0.0154597
0.0154587
0.0154587
0.0154578
0.0154578
0.0154569
0.0154569
0.015456
0.015456
0.0154552
0.0154552
0.0154544
0.0154543
0.0154535
0.0154534
0.0154527
0.0154526
0.0154518
0.0154517
0.015451
0.0154508
0.0154501
0.0154499
0.0154492
0.015449
0.0154484
0.0154481
0.0154475
0.0154472
0.0154466
0.0154462
0.0154456
0.0154453
0.0154446
0.0154443
0.0154431
0.0154382
0.0187076
0.0189576
0.0189559
0.0189571
0.0189515
0.0189525
0.0189479
0.0189486
0.018945
0.0189456
0.0189426
0.0189429
0.0189401
0.0189403
0.0189377
0.0189379
0.0189356
0.0189356
0.0189335
0.0189334
0.0189314
0.0189313
0.0189295
0.0189294
0.0189276
0.0189274
0.0189257
0.0189255
0.0189239
0.0189236
0.0189221
0.0189218
0.0189203
0.01892
0.0189186
0.0189182
0.0189168
0.0189164
0.0189151
0.0189147
0.0189134
0.0189129
0.0189117
0.0189113
0.0189101
0.0189097
0.0189086
0.0189081
0.018907
0.0189066
0.0189055
0.0189051
0.0189041
0.0189037
0.0189027
0.0189023
0.0189013
0.0189009
0.0189
0.0188995
0.0188987
0.0188982
0.0188973
0.0188968
0.018896
0.0188955
0.0188946
0.0188941
0.0188933
0.0188927
0.0188919
0.0188914
0.0188906
0.01889
0.0188892
0.0188887
0.0188879
0.0188873
0.0188865
0.0188859
0.0188852
0.0188845
0.0188838
0.0188831
0.0188823
0.0188817
0.0188808
0.0188803
0.0188766
0.0188744
0.0326209
0.0326863
0.0326889
0.0326878
0.0326864
0.0326856
0.032685
0.0326844
0.0326842
0.0326839
0.032684
0.0326838
0.032684
0.0326838
0.0326841
0.0326839
0.0326842
0.032684
0.0326843
0.0326841
0.0326843
0.032684
0.0326842
0.0326838
0.032684
0.0326836
0.0326836
0.0326832
0.0326832
0.0326827
0.0326825
0.032682
0.0326818
0.0326811
0.0326808
0.0326801
0.0326796
0.0326788
0.0326783
0.0326774
0.0326767
0.0326757
0.0326749
0.0326738
0.0326729
0.0326718
0.0326708
0.0326696
0.0326685
0.0326672
0.0326662
0.0326648
0.0326637
0.0326624
0.0326612
0.0326599
0.0326587
0.0326574
0.0326562
0.0326548
0.0326536
0.0326523
0.0326511
0.0326498
0.0326486
0.0326472
0.032646
0.0326447
0.0326435
0.0326422
0.032641
0.0326396
0.0326384
0.0326371
0.0326359
0.0326346
0.0326333
0.032632
0.0326308
0.0326295
0.0326282
0.0326269
0.0326257
0.0326243
0.0326231
0.0326217
0.0326204
0.0326191
0.0326148
0.0326119
0.0148676
0.0149631
0.0149603
0.0149564
0.0149536
0.0149516
0.0149494
0.0149482
0.0149463
0.0149456
0.0149437
0.0149431
0.0149413
0.0149408
0.0149391
0.0149387
0.014937
0.0149366
0.014935
0.0149346
0.0149331
0.0149327
0.0149312
0.0149308
0.0149293
0.0149289
0.0149274
0.0149269
0.0149254
0.0149248
0.0149234
0.0149227
0.0149213
0.0149206
0.0149192
0.0149184
0.014917
0.0149163
0.014915
0.0149143
0.014913
0.0149123
0.0149111
0.0149105
0.0149094
0.0149088
0.0149078
0.0149073
0.0149063
0.0149059
0.014905
0.0149046
0.0149038
0.0149034
0.0149026
0.0149022
0.0149015
0.0149011
0.0149004
0.0149
0.0148993
0.0148989
0.0148982
0.0148978
0.0148971
0.0148967
0.0148961
0.0148956
0.014895
0.0148945
0.0148939
0.0148935
0.0148928
0.0148924
0.0148918
0.0148913
0.0148907
0.0148902
0.0148896
0.0148892
0.0148886
0.0148882
0.0148876
0.0148872
0.0148866
0.0148862
0.0148856
0.0148855
0.0148838
0.0148833
0.014408
0.0146681
0.014671
0.0146699
0.0146677
0.0146669
0.0146651
0.0146647
0.0146632
0.0146629
0.0146615
0.0146611
0.0146597
0.0146593
0.014658
0.0146577
0.0146564
0.014656
0.0146548
0.0146543
0.0146531
0.0146527
0.0146515
0.014651
0.0146498
0.0146492
0.0146479
0.0146473
0.014646
0.0146452
0.0146439
0.0146431
0.0146417
0.0146408
0.0146394
0.0146385
0.0146371
0.0146362
0.0146348
0.0146339
0.0146327
0.0146318
0.0146306
0.0146298
0.0146288
0.014628
0.014627
0.0146264
0.0146255
0.014625
0.0146242
0.0146237
0.014623
0.0146225
0.0146219
0.0146214
0.0146208
0.0146204
0.0146198
0.0146193
0.0146187
0.0146183
0.0146177
0.0146173
0.0146167
0.0146162
0.0146157
0.0146152
0.0146146
0.0146142
0.0146136
0.0146132
0.0146126
0.0146121
0.0146116
0.0146111
0.0146106
0.0146101
0.0146095
0.0146091
0.0146085
0.0146081
0.0146075
0.0146071
0.0146064
0.0146061
0.0146053
0.0146051
0.0146041
0.0146038
0.0138644
0.0142973
0.0143164
0.0143186
0.0143183
0.0143183
0.0143173
0.0143167
0.0143159
0.0143154
0.0143146
0.014314
0.014313
0.0143123
0.0143114
0.0143108
0.0143099
0.0143093
0.0143084
0.0143077
0.0143068
0.0143061
0.0143052
0.0143045
0.0143036
0.0143028
0.0143018
0.0143009
0.0142999
0.014299
0.0142979
0.0142969
0.0142957
0.0142946
0.0142934
0.0142924
0.0142912
0.0142901
0.0142889
0.0142878
0.0142867
0.0142856
0.0142846
0.0142836
0.0142827
0.0142818
0.0142809
0.0142801
0.0142794
0.0142787
0.014278
0.0142774
0.0142768
0.0142762
0.0142757
0.0142751
0.0142746
0.0142741
0.0142736
0.0142731
0.0142726
0.0142721
0.0142716
0.0142711
0.0142706
0.0142701
0.0142696
0.0142692
0.0142687
0.0142682
0.0142677
0.0142672
0.0142667
0.0142662
0.0142657
0.0142652
0.0142647
0.0142642
0.0142637
0.0142632
0.0142627
0.0142622
0.0142616
0.0142612
0.0142605
0.0142601
0.0142594
0.014259
0.0142579
0.0142528
0.0136868
0.0142159
0.0142479
0.0142526
0.0142537
0.0142544
0.014254
0.0142536
0.014253
0.0142526
0.0142522
0.0142516
0.0142509
0.0142501
0.0142494
0.0142487
0.0142481
0.0142474
0.0142468
0.014246
0.0142452
0.0142445
0.0142438
0.014243
0.0142423
0.0142415
0.0142406
0.0142397
0.0142389
0.0142379
0.014237
0.014236
0.014235
0.0142339
0.0142329
0.0142317