/*--------------------------------*- C++ -*----------------------------------*\
  =========                 |
  \\      /  F ield         | OpenFOAM: The Open Source CFD Toolbox
   \\    /   O peration     | Website:  https://openfoam.org
    \\  /    A nd           | Version:  7
     \\/     M anipulation  |
\*---------------------------------------------------------------------------*/
FoamFile
{
    version     2.0;
    format      ascii;
    class       volScalarField;
    location    "0.0775";
    object      alphat;
}
// * * * * * * * * * * * * * * * * * * * * * * * * * * * * * * * * * * * * * //

dimensions      [1 -1 -1 0 0 0 0];

internalField   nonuniform List<scalar> 
1440
(
6.60102e-05
0.00015322
0.000244751
0.000321462
0.000381844
0.000426611
0.000457696
0.000477567
0.000488605
0.000493057
0.000491952
0.000488923
0.000483021
0.000475409
0.00046699
0.000458203
0.000449353
0.000440653
0.000432244
0.000424216
0.000416619
0.00040948
0.000402802
0.000396578
0.00039079
0.000385412
0.00038042
0.000375786
0.000371478
0.000367464
0.000363722
0.000360231
0.000356961
0.000353881
0.000350974
0.000348238
0.000345663
0.000343222
0.000340882
0.000338626
0.00033646
0.000334405
0.000332478
0.000330682
0.000329004
0.000327426
0.000325926
0.00032449
0.000323104
0.000321764
0.000320464
0.000319205
0.000317984
0.000316802
0.00031566
0.000314556
0.000313491
0.000312463
0.00031147
0.000310512
0.000309588
0.000308697
0.000307838
0.000307012
0.000306219
0.000305459
0.000304733
0.000304041
0.000303385
0.000302767
0.000302188
0.000301651
0.000301155
0.000300701
0.00030029
0.000299921
0.000299595
0.000299312
0.000299072
0.000298875
0.000298719
0.0002986
0.000298516
0.00029846
0.000298427
0.00029841
0.000298403
0.000298401
0.0002984
0.000298396
0.00029839
0.000298377
0.000298361
0.000298341
0.000298318
0.000298291
0.000298261
0.000298231
0.000298202
0.000298173
0.000298147
0.000298123
0.0002981
0.000298077
0.000298055
0.000298033
0.000298011
0.000297989
0.000297966
0.000297945
0.000297925
0.000297907
0.000297891
0.000297877
0.000297865
0.000297855
0.000297847
0.000297841
0.000297836
0.000297831
3.80386e-06
1.5552e-05
3.43665e-05
5.85339e-05
8.92717e-05
0.000120746
0.000149802
0.000175576
0.000197142
0.000214942
0.000228835
0.000239647
0.000247817
0.000253812
0.000258058
0.000260975
0.000262847
0.000263989
0.000264543
0.000264756
0.000264626
0.000264415
0.000264084
0.00026369
0.000263279
0.000262874
0.000262491
0.000262136
0.000261813
0.000261524
0.000261265
0.000261033
0.000260824
0.000260632
0.000260454
0.000260288
0.000260129
0.000259975
0.000259822
0.000259664
0.0002595
0.000259331
0.000259158
0.000258982
0.000258803
0.000258623
0.00025844
0.000258255
0.000258065
0.00025787
0.000257668
0.000257457
0.000257237
0.000257007
0.000256771
0.00025653
0.000256285
0.000256039
0.000255792
0.000255544
0.000255295
0.000255046
0.000254801
0.000254564
0.000254341
0.00025413
0.000253928
0.000253728
0.000253526
0.000253322
0.00025312
0.000252927
0.000252748
0.000252583
0.000252428
0.000252276
0.000252118
0.000251952
0.00025178
0.000251605
0.000251435
0.000251278
0.00025114
0.000251022
0.000250924
0.000250843
0.000250778
0.000250725
0.000250684
0.000250656
0.000250638
0.00025063
0.000250625
0.000250632
0.000250653
0.000250669
0.000250682
0.000250692
0.0002507
0.000250709
0.00025072
0.000250733
0.000250746
0.000250756
0.000250761
0.000250759
0.00025074
0.00025071
0.000250673
0.000250631
0.000250587
0.000250544
0.000250505
0.000250473
0.000250447
0.000250429
0.000250417
0.000250412
0.000250409
0.000250414
1.89286e-06
2.07451e-06
3.16314e-06
5.77669e-06
1.01816e-05
1.62259e-05
2.41739e-05
3.33131e-05
4.27174e-05
5.21595e-05
6.11891e-05
6.96421e-05
7.73634e-05
8.43256e-05
9.04901e-05
9.59125e-05
0.000100613
0.000104678
0.000108154
0.000111131
0.000113659
0.000115808
0.000117637
0.000119197
0.000120534
0.000121684
0.000122682
0.000123558
0.000124338
0.000125041
0.000125687
0.000126291
0.000126866
0.000127422
0.000127966
0.000128506
0.000129045
0.000129588
0.000130139
0.000130699
0.000131271
0.000131853
0.000132447
0.000133055
0.000133676
0.000134311
0.000134956
0.000135611
0.000136275
0.000136946
0.000137622
0.000138301
0.00013898
0.000139659
0.000140335
0.000141007
0.000141675
0.000142337
0.000142994
0.000143643
0.000144283
0.000144912
0.000145527
0.000146129
0.000146717
0.000147291
0.000147848
0.000148388
0.00014891
0.000149412
0.000149889
0.000150338
0.000150756
0.000151145
0.000151507
0.000151836
0.000152122
0.000152365
0.000152573
0.000152756
0.000152908
0.000153014
0.00015307
0.000153098
0.000153113
0.000153103
0.00015305
0.00015298
0.000152911
0.000152846
0.000152786
0.000152747
0.000152749
0.000152792
0.000152846
0.000152883
0.000152903
0.000152927
0.000152939
0.000152939
0.000152939
0.000152954
0.000152994
0.000153061
0.000153152
0.000153255
0.000153358
0.000153447
0.000153512
0.00015355
0.000153563
0.000153554
0.000153511
0.000153451
0.00015339
0.000153334
0.000153285
0.000153245
0.00015322
0.000153195
1.88997e-06
1.89162e-06
1.90003e-06
1.93926e-06
2.08293e-06
2.46571e-06
3.23988e-06
4.48751e-06
6.1916e-06
8.36436e-06
1.07644e-05
1.32752e-05
1.5877e-05
1.85538e-05
2.11821e-05
2.37077e-05
2.61301e-05
2.84436e-05
3.06104e-05
3.26288e-05
3.45173e-05
3.62708e-05
3.7872e-05
3.93327e-05
4.06853e-05
4.1947e-05
4.31127e-05
4.41771e-05
4.51453e-05
4.60336e-05
4.68638e-05
4.76516e-05
4.83916e-05
4.90695e-05
4.96881e-05
5.02752e-05
5.08533e-05
5.1416e-05
5.19406e-05
5.24219e-05
5.28785e-05
5.33327e-05
5.37908e-05
5.42431e-05
5.46759e-05
5.50831e-05
5.54748e-05
5.58724e-05
5.62879e-05
5.6708e-05
5.71068e-05
5.74751e-05
5.78319e-05
5.82029e-05
5.85926e-05
5.8982e-05
5.93511e-05
5.96995e-05
6.00429e-05
6.03941e-05
6.07509e-05
6.11015e-05
6.14375e-05
6.17608e-05
6.20783e-05
6.23939e-05
6.27049e-05
6.30066e-05
6.32974e-05
6.35778e-05
6.38455e-05
6.40944e-05
6.43188e-05
6.45195e-05
6.47035e-05
6.48773e-05
6.50384e-05
6.51727e-05
6.52621e-05
6.5301e-05
6.53047e-05
6.5296e-05
6.5274e-05
6.52301e-05
6.51362e-05
6.50128e-05
6.48858e-05
6.47619e-05
6.46358e-05
6.44891e-05
6.4304e-05
6.40769e-05
6.38218e-05
6.35674e-05
6.33472e-05
6.31839e-05
6.30769e-05
6.30012e-05
6.29189e-05
6.27965e-05
6.26205e-05
6.24061e-05
6.21926e-05
6.20241e-05
6.1924e-05
6.18841e-05
6.18807e-05
6.19178e-05
6.20025e-05
6.20801e-05
6.21382e-05
6.21779e-05
6.21773e-05
6.20497e-05
6.18224e-05
6.15832e-05
6.13771e-05
6.1123e-05
6.09942e-05
6.07246e-05
1.88952e-06
1.89014e-06
1.89253e-06
1.89786e-06
1.90931e-06
1.92295e-06
1.94737e-06
1.99417e-06
2.06214e-06
2.17577e-06
2.40952e-06
2.64234e-06
2.95696e-06
3.45587e-06
3.94298e-06
4.39023e-06
4.94087e-06
5.57207e-06
6.14064e-06
6.65173e-06
7.21411e-06
7.82499e-06
8.38523e-06
8.86237e-06
9.32057e-06
9.82074e-06
1.03477e-05
1.08376e-05
1.1246e-05
1.16002e-05
1.19775e-05
1.24217e-05
1.28752e-05
1.32461e-05
1.35239e-05
1.37992e-05
1.41587e-05
1.4576e-05
1.49459e-05
1.52124e-05
1.54239e-05
1.56776e-05
1.6018e-05
1.6391e-05
1.67033e-05
1.69194e-05
1.7097e-05
1.73286e-05
1.76468e-05
1.79936e-05
1.82792e-05
1.8467e-05
1.86137e-05
1.88111e-05
1.90845e-05
1.93775e-05
1.963e-05
1.98283e-05
1.99909e-05
2.01507e-05
2.03427e-05
2.05721e-05
2.07999e-05
2.09814e-05
2.11158e-05
2.124e-05
2.13851e-05
2.15511e-05
2.17214e-05
2.18805e-05
2.20162e-05
2.21179e-05
2.21864e-05
2.22421e-05
2.23102e-05
2.23943e-05
2.24692e-05
2.25091e-05
2.25167e-05
2.25142e-05
2.25043e-05
2.24811e-05
2.24311e-05
2.23396e-05
2.22264e-05
2.21092e-05
2.20014e-05
2.1905e-05
2.18078e-05
2.16886e-05
2.15276e-05
2.13185e-05
2.10731e-05
2.08199e-05
2.05923e-05
2.04124e-05
2.02805e-05
2.01719e-05
2.00477e-05
1.98729e-05
1.96307e-05
1.93279e-05
1.89936e-05
1.86706e-05
1.84019e-05
1.8215e-05
1.8113e-05
1.80759e-05
1.80721e-05
1.80735e-05
1.80623e-05
1.8004e-05
1.78413e-05
1.75669e-05
1.73001e-05
1.68978e-05
1.66159e-05
1.61451e-05
1.59295e-05
1.54414e-05
1.88911e-06
1.88949e-06
1.8914e-06
1.89629e-06
1.90528e-06
1.9152e-06
1.93553e-06
1.95717e-06
1.9738e-06
1.9996e-06
2.02992e-06
2.05285e-06
2.08239e-06
2.12013e-06
2.14706e-06
2.17031e-06
2.21348e-06
2.26731e-06
2.30429e-06
2.32826e-06
2.3706e-06
2.43975e-06
2.50638e-06
2.54732e-06
2.5763e-06
2.62623e-06
2.70708e-06
2.79171e-06
2.84845e-06
2.87919e-06
2.91847e-06
2.99395e-06
3.0923e-06
3.17474e-06
3.22075e-06
3.25001e-06
3.30261e-06
3.39738e-06
3.50163e-06
3.57749e-06
3.61687e-06
3.64947e-06
3.71587e-06
3.82388e-06
3.92872e-06
3.99619e-06
4.03153e-06
4.07233e-06
4.14947e-06
4.25913e-06
4.36888e-06
4.44637e-06
4.48632e-06
4.5169e-06
4.57854e-06
4.6861e-06
4.79515e-06
4.87659e-06
4.92597e-06
4.96482e-06
5.02269e-06
5.10742e-06
5.1996e-06
5.27655e-06
5.33017e-06
5.36717e-06
5.40516e-06
5.46272e-06
5.5417e-06
5.62315e-06
5.68619e-06
5.72617e-06
5.75277e-06
5.77709e-06
5.80493e-06
5.8382e-06
5.87613e-06
5.91363e-06
5.94236e-06
5.95687e-06
5.95987e-06
5.95876e-06
5.95466e-06
5.94516e-06
5.92151e-06
5.89053e-06
5.86552e-06
5.84697e-06
5.82832e-06
5.80089e-06
5.75767e-06
5.69559e-06
5.61885e-06
5.53882e-06
5.46696e-06
5.40926e-06
5.36591e-06
5.33116e-06
5.29154e-06
5.22964e-06
5.13457e-06
5.01059e-06
4.87564e-06
4.74975e-06
4.6453e-06
4.56091e-06
4.49386e-06
4.43407e-06
4.39139e-06
4.35163e-06
4.33572e-06
4.30833e-06
4.28888e-06
4.23799e-06
4.19064e-06
4.07043e-06
3.98258e-06
3.7831e-06
3.66837e-06
3.37147e-06
1.8891e-06
1.88948e-06
1.89138e-06
1.8961e-06
1.90399e-06
1.91802e-06
1.93539e-06
1.95293e-06
1.97614e-06
2.00302e-06
2.02532e-06
2.05165e-06
2.08813e-06
2.11922e-06
2.13935e-06
2.16897e-06
2.21735e-06
2.26372e-06
2.29265e-06
2.31929e-06
2.36613e-06
2.42964e-06
2.4852e-06
2.5197e-06
2.54868e-06
2.59864e-06
2.67246e-06
2.74366e-06
2.78784e-06
2.81245e-06
2.84911e-06
2.91713e-06
3.00112e-06
3.0691e-06
3.10632e-06
3.12912e-06
3.16911e-06
3.24639e-06
3.3333e-06
3.39858e-06
3.43283e-06
3.45622e-06
3.50095e-06
3.58427e-06
3.66999e-06
3.72845e-06
3.75739e-06
3.78273e-06
3.83511e-06
3.91749e-06
4.00101e-06
4.06155e-06
4.09363e-06
4.11437e-06
4.1518e-06
4.22675e-06
4.30979e-06
4.37418e-06
4.41271e-06
4.43899e-06
4.47502e-06
4.53206e-06
4.60058e-06
4.66054e-06
4.7008e-06
4.72746e-06
4.75563e-06
4.79575e-06
4.847e-06
4.90055e-06
4.94652e-06
4.97929e-06
4.99966e-06
5.01394e-06
5.03015e-06
5.05277e-06
5.07924e-06
5.10185e-06
5.11435e-06
5.11744e-06
5.11702e-06
5.11455e-06
5.10838e-06
5.09477e-06
5.06062e-06
5.02666e-06
5.00468e-06
4.99121e-06
4.97773e-06
4.95587e-06
4.92078e-06
4.87165e-06
4.81209e-06
4.74797e-06
4.68763e-06
4.63695e-06
4.59768e-06
4.56743e-06
4.53657e-06
4.49325e-06
4.43009e-06
4.34391e-06
4.23668e-06
4.11991e-06
4.01369e-06
3.92905e-06
3.86762e-06
3.81096e-06
3.76368e-06
3.70849e-06
3.67744e-06
3.64046e-06
3.62113e-06
3.57777e-06
3.54341e-06
3.45735e-06
3.38956e-06
3.23042e-06
3.13164e-06
2.86556e-06
1.8895e-06
1.89011e-06
1.89247e-06
1.89829e-06
1.90775e-06
1.92224e-06
1.95056e-06
1.99199e-06
2.05637e-06
2.19051e-06
2.37917e-06
2.60578e-06
2.98447e-06
3.43313e-06
3.86647e-06
4.35157e-06
4.91954e-06
5.4946e-06
6.03107e-06
6.56377e-06
7.12383e-06
7.68594e-06
8.20802e-06
8.68066e-06
9.13202e-06
9.60371e-06
1.00958e-05
1.0558e-05
1.09406e-05
1.12673e-05
1.16219e-05
1.20413e-05
1.24639e-05
1.28014e-05
1.30485e-05
1.33006e-05
1.36331e-05
1.40139e-05
1.43563e-05
1.46024e-05
1.47824e-05
1.49977e-05
1.53054e-05
1.56509e-05
1.5937e-05
1.61221e-05
1.62583e-05
1.64496e-05
1.67406e-05
1.7058e-05
1.72982e-05
1.74429e-05
1.7561e-05
1.77254e-05
1.79535e-05
1.82083e-05
1.84344e-05
1.86002e-05
1.87227e-05
1.88502e-05
1.90158e-05
1.92098e-05
1.93965e-05
1.95508e-05
1.96731e-05
1.97805e-05
1.98916e-05
2.00174e-05
2.01577e-05
2.02972e-05
2.0412e-05
2.04878e-05
2.05346e-05
2.05804e-05
2.06424e-05
2.07088e-05
2.07528e-05
2.07657e-05
2.07646e-05
2.07581e-05
2.07397e-05
2.07119e-05
2.06572e-05
2.05392e-05
2.04042e-05
2.02871e-05
2.01931e-05
2.01047e-05
1.99988e-05
1.98599e-05
1.96836e-05
1.94737e-05
1.92394e-05
1.89995e-05
1.87786e-05
1.85956e-05
1.84539e-05
1.83393e-05
1.8223e-05
1.80715e-05
1.78595e-05
1.75826e-05
1.72613e-05
1.69345e-05
1.66455e-05
1.64284e-05
1.62974e-05
1.62432e-05
1.62358e-05
1.624e-05
1.6236e-05
1.61954e-05
1.60383e-05
1.57137e-05
1.53783e-05
1.49383e-05
1.45924e-05
1.41097e-05
1.38907e-05
1.34192e-05
1.88996e-06
1.89156e-06
1.89981e-06
1.9383e-06
2.07966e-06
2.45738e-06
3.2231e-06
4.44388e-06
6.16942e-06
8.32851e-06
1.06642e-05
1.31683e-05
1.57834e-05
1.84364e-05
2.10248e-05
2.3534e-05
2.59408e-05
2.82218e-05
3.03614e-05
3.23649e-05
3.42265e-05
3.59358e-05
3.74989e-05
3.8936e-05
4.0263e-05
4.14892e-05
4.262e-05
4.36546e-05
4.45913e-05
4.54447e-05
4.62442e-05
4.70071e-05
4.77213e-05
4.83679e-05
4.89565e-05
4.95193e-05
5.00743e-05
5.061e-05
5.11091e-05
5.15695e-05
5.20037e-05
5.24294e-05
5.28595e-05
5.32906e-05
5.37023e-05
5.40796e-05
5.44361e-05
5.48028e-05
5.51918e-05
5.55818e-05
5.59434e-05
5.62736e-05
5.65973e-05
5.69385e-05
5.72969e-05
5.76531e-05
5.7991e-05
5.83119e-05
5.86289e-05
5.89521e-05
5.92809e-05
5.9607e-05
5.99234e-05
6.02287e-05
6.0526e-05
6.08187e-05
6.11073e-05
6.13903e-05
6.16652e-05
6.19284e-05
6.21761e-05
6.24049e-05
6.26139e-05
6.28054e-05
6.29841e-05
6.31522e-05
6.33041e-05
6.34252e-05
6.35008e-05
6.35302e-05
6.35314e-05
6.35222e-05
6.34978e-05
6.34447e-05
6.33334e-05
6.32207e-05
6.3114e-05
6.29968e-05
6.28586e-05
6.26944e-05
6.24938e-05
6.22485e-05
6.19742e-05
6.17096e-05
6.14893e-05
6.13276e-05
6.12203e-05
6.11479e-05
6.1073e-05
6.09532e-05
6.07674e-05
6.05301e-05
6.0287e-05
6.0091e-05
5.99729e-05
5.99261e-05
5.99214e-05
5.99617e-05
6.00533e-05
6.01327e-05
6.01894e-05
6.02263e-05
6.0212e-05
6.00392e-05
5.97656e-05
5.94913e-05
5.92478e-05
5.89731e-05
5.88204e-05
5.85452e-05
1.89278e-06
2.07041e-06
3.14453e-06
5.73901e-06
1.01233e-05
1.61416e-05
2.40473e-05
3.31732e-05
4.25287e-05
5.19543e-05
6.09436e-05
6.93783e-05
7.70781e-05
8.40322e-05
9.0184e-05
9.56015e-05
0.000100294
0.000104358
0.000107833
0.000110811
0.000113343
0.000115497
0.000117334
0.000118905
0.000120253
0.000121417
0.000122431
0.000123325
0.000124124
0.000124848
0.000125517
0.000126146
0.000126747
0.00012733
0.000127903
0.000128471
0.00012904
0.000129614
0.000130194
0.000130786
0.000131388
0.000132001
0.000132625
0.000133261
0.000133908
0.000134565
0.000135229
0.000135901
0.000136579
0.000137262
0.000137949
0.000138639
0.000139328
0.000140017
0.000140703
0.000141386
0.000142064
0.000142739
0.000143409
0.000144072
0.000144726
0.000145369
0.000146
0.000146618
0.000147222
0.000147812
0.000148384
0.000148939
0.000149474
0.000149989
0.00015048
0.000150943
0.000151377
0.000151781
0.000152156
0.000152497
0.000152799
0.000153059
0.000153283
0.000153478
0.00015364
0.00015376
0.000153832
0.000153868
0.000153888
0.000153888
0.000153859
0.000153792
0.000153711
0.000153649
0.00015361
0.000153586
0.000153576
0.000153589
0.000153627
0.000153662
0.000153673
0.000153672
0.000153686
0.000153696
0.000153708
0.000153733
0.000153779
0.000153851
0.000153946
0.000154054
0.000154162
0.000154255
0.000154323
0.000154362
0.000154375
0.000154359
0.000154303
0.00015424
0.000154178
0.000154123
0.000154078
0.000154041
0.00015402
0.000153997
3.77925e-06
1.54469e-05
3.41986e-05
5.8315e-05
8.90163e-05
0.000120426
0.000149499
0.000175246
0.000196839
0.000214666
0.000228575
0.000239504
0.000247778
0.000253895
0.000258261
0.000261325
0.000263332
0.000264638
0.000265332
0.000265728
0.000265756
0.000265695
0.000265546
0.000265322
0.000265082
0.000264848
0.000264634
0.000264448
0.000264294
0.000264171
0.000264077
0.000264008
0.00026396
0.000263928
0.000263909
0.000263898
0.000263892
0.000263888
0.000263883
0.000263873
0.000263858
0.000263837
0.000263808
0.000263769
0.00026372
0.00026366
0.000263588
0.000263506
0.000263414
0.000263311
0.000263198
0.000263073
0.000262937
0.000262792
0.000262638
0.000262479
0.000262316
0.000262151
0.000261982
0.000261812
0.000261638
0.000261461
0.000261285
0.000261115
0.000260952
0.000260799
0.00026065
0.0002605
0.000260343
0.000260179
0.000260012
0.000259849
0.000259698
0.000259558
0.000259427
0.000259295
0.000259157
0.000259006
0.000258844
0.000258676
0.000258508
0.000258349
0.000258206
0.000258084
0.000257982
0.000257901
0.000257836
0.000257787
0.000257752
0.000257732
0.000257722
0.00025772
0.00025772
0.000257728
0.000257748
0.000257768
0.000257788
0.000257806
0.000257824
0.000257842
0.00025786
0.000257878
0.000257896
0.000257911
0.000257921
0.000257923
0.000257913
0.000257884
0.000257848
0.000257807
0.000257763
0.000257721
0.000257682
0.000257651
0.000257627
0.000257611
0.000257601
0.000257596
0.000257596
0.000257605
6.60195e-05
0.000153313
0.000245156
0.000322159
0.000382916
0.000428009
0.000459475
0.000479613
0.000491038
0.000495618
0.00049489
0.000492156
0.000486415
0.000479064
0.000470918
0.000462414
0.000453855
0.000445456
0.000437354
0.000429641
0.000422365
0.00041555
0.000409201
0.000403307
0.000397848
0.000392801
0.000388136
0.000383824
0.000379835
0.000376139
0.000372709
0.000369518
0.000366542
0.00036376
0.000361151
0.000358697
0.000356381
0.00035419
0.000352111
0.000350134
0.000348251
0.000346454
0.000344735
0.000343088
0.000341508
0.000339989
0.000338529
0.000337123
0.000335769
0.000334465
0.000333208
0.000331996
0.000330828
0.000329701
0.000328614
0.000327565
0.00032655
0.000325569
0.000324619
0.000323698
0.000322806
0.000321942
0.000321107
0.000320302
0.000319527
0.000318783
0.000318071
0.000317393
0.00031675
0.000316143
0.000315574
0.000315044
0.000314554
0.000314105
0.000313697
0.000313329
0.000313004
0.00031272
0.000312479
0.00031228
0.000312122
0.000312003
0.000311917
0.00031186
0.000311826
0.000311808
0.000311802
0.000311801
0.000311803
0.000311805
0.000311804
0.000311801
0.000311795
0.000311787
0.000311776
0.000311761
0.00031174
0.000311713
0.000311681
0.000311647
0.000311614
0.000311584
0.000311557
0.000311534
0.000311513
0.000311494
0.000311474
0.000311455
0.000311435
0.000311416
0.000311398
0.000311381
0.000311365
0.000311352
0.00031134
0.000311332
0.000311324
0.000311318
0.000311314
0.000311309
)
;

boundaryField
{
    upperWall
    {
        type            zeroGradient;
    }
    lowerWall
    {
        type            zeroGradient;
    }
    inlet
    {
        type            zeroGradient;
    }
    outlet
    {
        type            zeroGradient;
    }
    frontAndBack
    {
        type            empty;
    }
}


// ************************************************************************* //
