/*--------------------------------*- C++ -*----------------------------------*\
  =========                 |
  \\      /  F ield         | OpenFOAM: The Open Source CFD Toolbox
   \\    /   O peration     | Website:  https://openfoam.org
    \\  /    A nd           | Version:  7
     \\/     M anipulation  |
\*---------------------------------------------------------------------------*/
FoamFile
{
    version     2.0;
    format      ascii;
    class       volScalarField;
    location    "0.0775";
    object      k_0;
}
// * * * * * * * * * * * * * * * * * * * * * * * * * * * * * * * * * * * * * //

dimensions      [0 2 -2 0 0 0 0];

internalField   nonuniform List<scalar> 
1440
(
0.0244208
0.131778
0.336786
0.58193
0.822454
1.02839
1.18586
1.29348
1.3566
1.38422
1.38091
1.36689
1.33706
1.29821
1.25558
1.21166
1.16814
1.12611
1.08623
1.04887
1.01417
0.982159
0.95275
0.925806
0.901168
0.878652
0.858066
0.839227
0.821969
0.806122
0.791528
0.778052
0.76558
0.754002
0.743211
0.733114
0.723635
0.714715
0.7063
0.698342
0.690791
0.683602
0.676735
0.670157
0.663841
0.657768
0.651923
0.646297
0.640878
0.635661
0.630638
0.625804
0.621153
0.61668
0.612378
0.60824
0.604256
0.600419
0.596721
0.593153
0.58971
0.586389
0.583187
0.580104
0.577142
0.574303
0.571589
0.569005
0.566556
0.564246
0.562083
0.560071
0.558215
0.556518
0.554983
0.553608
0.552396
0.551344
0.550451
0.549715
0.549129
0.548683
0.548365
0.548155
0.548032
0.547974
0.547957
0.54796
0.547969
0.547971
0.547963
0.547933
0.547887
0.547827
0.54775
0.547659
0.547558
0.547452
0.547348
0.547249
0.547157
0.547072
0.546992
0.546915
0.546839
0.546763
0.546687
0.546611
0.546535
0.546463
0.546393
0.546331
0.546274
0.546226
0.546184
0.546151
0.546123
0.546101
0.546086
0.546065
8.10314e-05
0.00135436
0.00661319
0.0191847
0.044627
0.0816538
0.125709
0.172742
0.217868
0.259103
0.293827
0.322431
0.345002
0.362131
0.374608
0.383403
0.389216
0.392909
0.394872
0.395827
0.395765
0.395461
0.394806
0.39396
0.39307
0.392199
0.391393
0.390674
0.390053
0.389531
0.389101
0.388754
0.388473
0.388246
0.388063
0.387915
0.387793
0.387684
0.387574
0.387455
0.387321
0.387172
0.387011
0.386839
0.386654
0.386451
0.386227
0.385977
0.385699
0.385388
0.385042
0.384657
0.384232
0.38377
0.383274
0.382748
0.382198
0.381627
0.381039
0.380439
0.379834
0.379232
0.378639
0.378054
0.377477
0.376907
0.376346
0.375797
0.375263
0.374741
0.374225
0.373708
0.373188
0.372666
0.372146
0.371635
0.371135
0.370646
0.370161
0.369677
0.369193
0.368714
0.368253
0.367822
0.367431
0.367089
0.366799
0.366565
0.366387
0.366265
0.366198
0.366176
0.366183
0.36624
0.366342
0.366433
0.366511
0.36657
0.366614
0.366645
0.36667
0.366692
0.366709
0.366718
0.366717
0.366698
0.366638
0.366558
0.366464
0.36636
0.366253
0.366153
0.366064
0.365993
0.365938
0.365904
0.365884
0.365879
0.36588
0.365902
2.00658e-05
2.41018e-05
5.60345e-05
0.000186885
0.000580562
0.00147443
0.00327263
0.00621492
0.0102193
0.0152364
0.0209688
0.0271633
0.0335219
0.0398293
0.0458691
0.0515354
0.0567156
0.061398
0.0655518
0.0692188
0.0724128
0.0751879
0.0775934
0.0796781
0.081488
0.0830645
0.0844473
0.0856734
0.0867739
0.0877751
0.0887009
0.0895734
0.0904097
0.0912228
0.0920234
0.0928211
0.0936226
0.0944337
0.0952596
0.0961048
0.0969709
0.0978576
0.0987664
0.0997003
0.100661
0.101646
0.102653
0.10368
0.104725
0.105788
0.106865
0.107953
0.109047
0.110145
0.111246
0.112345
0.113442
0.114534
0.115621
0.116702
0.117772
0.118828
0.119867
0.120888
0.121893
0.122877
0.123837
0.124768
0.125666
0.126529
0.127351
0.128127
0.128855
0.129538
0.130174
0.130753
0.131259
0.131694
0.132072
0.132403
0.132667
0.132832
0.132894
0.132898
0.132889
0.13286
0.13279
0.132724
0.132669
0.132599
0.132498
0.132385
0.132301
0.132268
0.132266
0.132277
0.132315
0.132416
0.132531
0.132635
0.132725
0.132804
0.132878
0.132952
0.133027
0.133101
0.133169
0.133222
0.133256
0.13327
0.13327
0.133256
0.133199
0.133133
0.133071
0.133022
0.132981
0.132958
0.132942
0.132943
2.00046e-05
2.00394e-05
2.02181e-05
2.10617e-05
2.4298e-05
3.40493e-05
5.8787e-05
0.000112729
0.000214707
0.000392045
0.000648892
0.000986657
0.00141178
0.00192825
0.00251291
0.00314764
0.00382396
0.00453117
0.00524769
0.00596272
0.00667324
0.00736836
0.00803285
0.00866449
0.00927125
0.00985573
0.0104112
0.0109313
0.0114155
0.0118694
0.0123021
0.0127199
0.0131181
0.0134878
0.01383
0.0141596
0.0144883
0.014811
0.0151144
0.0153955
0.0156655
0.015937
0.0162131
0.0164874
0.0167514
0.0170018
0.017245
0.0174945
0.0177571
0.0180236
0.0182775
0.0185138
0.0187454
0.0189886
0.0192454
0.0195027
0.0197477
0.0199806
0.0202121
0.0204503
0.0206932
0.0209329
0.0211638
0.0213876
0.021609
0.0218302
0.0220495
0.0222637
0.0224716
0.022673
0.0228651
0.0230428
0.0232019
0.0233441
0.0234757
0.023602
0.0237202
0.0238187
0.0238836
0.0239114
0.0239152
0.0239122
0.0239005
0.0238715
0.0238006
0.0237037
0.0235975
0.0234902
0.0233845
0.023274
0.0231503
0.0230092
0.0228541
0.022695
0.0225462
0.0224191
0.022315
0.0222242
0.0221313
0.0220237
0.0218988
0.021768
0.0216534
0.021576
0.0215414
0.0215351
0.0215377
0.021554
0.021589
0.0216103
0.0216164
0.0216131
0.0215848
0.0214714
0.0213056
0.0211428
0.0210046
0.0208456
0.0207631
0.0206034
1.9995e-05
2.00083e-05
2.00588e-05
2.01723e-05
2.04158e-05
2.0707e-05
2.1242e-05
2.22726e-05
2.3807e-05
2.65237e-05
3.25305e-05
3.90209e-05
4.9027e-05
6.69999e-05
8.69624e-05
0.000107823
0.000136866
0.000174025
0.000211023
0.000247639
0.000291655
0.00034319
0.000393708
0.000439542
0.00048642
0.000540471
0.000600122
0.000657875
0.000707885
0.000753197
0.000803637
0.0008649
0.000928899
0.0009823
0.00102351
0.00106625
0.00112355
0.00119089
0.00125118
0.00129524
0.00133153
0.00137672
0.00143809
0.00150569
0.00156249
0.00160225
0.00163627
0.00168209
0.0017454
0.00181444
0.00187122
0.00190878
0.0019394
0.00198193
0.00204088
0.00210391
0.00215836
0.00220146
0.00223741
0.00227363
0.00231782
0.00237076
0.00242312
0.00246476
0.00249593
0.00252554
0.00256066
0.00260101
0.00264248
0.0026813
0.00271431
0.00273875
0.00275505
0.00276855
0.00278559
0.00280668
0.00282525
0.0028349
0.00283664
0.00283598
0.00283341
0.00282768
0.00281526
0.00279277
0.00276491
0.00273549
0.00270738
0.00268119
0.0026547
0.00262388
0.00258506
0.00253722
0.00248278
0.00242733
0.00237709
0.00233589
0.00230323
0.002274
0.00224075
0.00219746
0.00214207
0.00207705
0.00200876
0.00194549
0.00189471
0.00186043
0.00184197
0.00183468
0.00183222
0.00182952
0.00182354
0.0018071
0.00177
0.00171336
0.0016595
0.00158265
0.00152973
0.00144531
0.00140742
0.0013246
1.99864e-05
1.99944e-05
2.00349e-05
2.01393e-05
2.03281e-05
2.05428e-05
2.09853e-05
2.14497e-05
2.18157e-05
2.23974e-05
2.30767e-05
2.3599e-05
2.42934e-05
2.51756e-05
2.58037e-05
2.63784e-05
2.74612e-05
2.88002e-05
2.97145e-05
3.03389e-05
3.14931e-05
3.33742e-05
3.51856e-05
3.63018e-05
3.7141e-05
3.86503e-05
4.11007e-05
4.36747e-05
4.54003e-05
4.63648e-05
4.76958e-05
5.02683e-05
5.36259e-05
5.64461e-05
5.80205e-05
5.90912e-05
6.11146e-05
6.47428e-05
6.87394e-05
7.16452e-05
7.31645e-05
7.45298e-05
7.74029e-05
8.20179e-05
8.64974e-05
8.93692e-05
9.0912e-05
9.284e-05
9.65165e-05
0.000101739
0.000106978
0.000110665
0.000112572
0.000114154
0.000117469
0.000123142
0.000128878
0.00013316
0.000135778
0.00013795
0.00014129
0.000146174
0.000151475
0.000155897
0.000158986
0.000161166
0.000163514
0.00016713
0.000172075
0.000177146
0.000181043
0.000183499
0.000185149
0.000186699
0.000188512
0.00019071
0.000193226
0.000195697
0.000197556
0.000198459
0.000198632
0.000198583
0.000198358
0.000197763
0.000196151
0.000194078
0.000192331
0.000190937
0.000189518
0.000187603
0.000184819
0.000181007
0.000176422
0.000171703
0.000167448
0.000163926
0.000161117
0.000158703
0.00015596
0.000151985
0.000146316
0.000139355
0.000132163
0.00012575
0.000120599
0.000116487
0.000113189
0.000110195
0.000107995
0.000105922
0.000104979
0.000103468
0.000102359
9.97569e-05
9.74039e-05
9.17201e-05
8.77297e-05
7.90696e-05
7.43135e-05
6.2771e-05
1.99863e-05
1.99943e-05
2.00346e-05
2.01344e-05
2.03027e-05
2.06045e-05
2.09767e-05
2.13588e-05
2.18732e-05
2.24685e-05
2.29692e-05
2.35802e-05
2.44272e-05
2.51433e-05
2.56205e-05
2.63572e-05
2.75562e-05
2.86976e-05
2.94142e-05
3.01168e-05
3.13781e-05
3.30884e-05
3.45847e-05
3.5522e-05
3.63603e-05
3.78481e-05
4.00487e-05
4.21717e-05
4.34849e-05
4.4249e-05
4.54649e-05
4.77193e-05
5.05008e-05
5.27494e-05
5.39773e-05
5.47788e-05
5.62646e-05
5.91049e-05
6.2288e-05
6.46714e-05
6.59206e-05
6.68399e-05
6.86769e-05
7.20441e-05
7.5485e-05
7.78147e-05
7.89753e-05
8.00817e-05
8.2423e-05
8.60459e-05
8.97098e-05
9.23508e-05
9.37452e-05
9.47108e-05
9.65472e-05
0.000100151
0.0001041
0.000107145
0.000108966
0.000110264
0.000112123
0.000115065
0.000118574
0.000121623
0.000123663
0.000125046
0.000126575
0.000128779
0.000131589
0.000134514
0.00013701
0.00013877
0.000139852
0.000140624
0.000141542
0.000142843
0.000144356
0.000145628
0.000146306
0.000146459
0.000146433
0.000146307
0.000145984
0.000145208
0.000143226
0.000141323
0.000140034
0.000139154
0.000138253
0.000136942
0.000135017
0.000132455
0.000129428
0.00012619
0.000123115
0.000120454
0.000118283
0.000116499
0.000114664
0.000112263
0.000109011
0.000104811
9.98078e-05
9.45761e-05
8.9991e-05
8.6429e-05
8.38351e-05
8.13834e-05
7.92837e-05
7.6872e-05
7.54821e-05
7.386e-05
7.29643e-05
7.11291e-05
6.96857e-05
6.62332e-05
6.36013e-05
5.76826e-05
5.41724e-05
4.53263e-05
1.99947e-05
2.00077e-05
2.00576e-05
2.01814e-05
2.03812e-05
2.06954e-05
2.1311e-05
2.22189e-05
2.36799e-05
2.68928e-05
3.16606e-05
3.80255e-05
4.99655e-05
6.6e-05
8.36272e-05
0.000106064
0.000135651
0.000169088
0.000203611
0.000241273
0.000284354
0.000330958
0.000377246
0.00042182
0.000466981
0.000516796
0.000571216
0.000624361
0.000669947
0.000710596
0.000756673
0.000812753
0.000870466
0.000917377
0.000952802
0.000990617
0.00104164
0.0011008
0.00115446
0.00119342
0.00122293
0.00125979
0.001313
0.00137282
0.00142239
0.00145462
0.00147944
0.0015157
0.00157081
0.00163056
0.00167549
0.00170275
0.00172612
0.00175956
0.00180594
0.00185762
0.00190335
0.00193694
0.00196225
0.00198945
0.00202514
0.00206684
0.00210689
0.00213998
0.00216645
0.00219011
0.002215
0.00224354
0.00227545
0.00230707
0.00233282
0.00234952
0.00235978
0.00237014
0.00238442
0.00239957
0.00240944
0.00241226
0.00241205
0.00241042
0.00240606
0.00239974
0.00238701
0.00235985
0.00232952
0.00230291
0.00228041
0.00225814
0.0022318
0.00219922
0.00216046
0.00211661
0.00206912
0.002021
0.00197629
0.00193797
0.00190643
0.0018791
0.00185114
0.00181697
0.00177277
0.00171851
0.00165848
0.00159971
0.00154939
0.00151252
0.00149058
0.00148114
0.00147859
0.00147698
0.00147327
0.00146233
0.00142904
0.00136937
0.00130972
0.00123536
0.00117842
0.00110293
0.00106933
0.000999955
2.00043e-05
2.00383e-05
2.02134e-05
2.10408e-05
2.42218e-05
3.38196e-05
5.81804e-05
0.000110564
0.000213264
0.000388528
0.000636735
0.000971063
0.00139538
0.00190379
0.00247563
0.00310184
0.0037688
0.00446075
0.00516287
0.0058669
0.00656115
0.00723255
0.00787528
0.00849066
0.00907959
0.00964133
0.0101741
0.0106736
0.0111361
0.0115665
0.0119777
0.0123767
0.0127553
0.0131024
0.0134231
0.0137342
0.0140445
0.0143465
0.0146301
0.0148943
0.0151461
0.0153957
0.0156501
0.0159066
0.0161525
0.0163792
0.0165959
0.0168212
0.0170617
0.017303
0.0175274
0.0177341
0.0179391
0.018157
0.0183869
0.0186159
0.0188341
0.0190426
0.0192501
0.0194628
0.01968
0.0198964
0.0201073
0.020312
0.0205126
0.0207112
0.0209083
0.0211028
0.021293
0.0214758
0.0216475
0.0218053
0.0219484
0.0220794
0.0222026
0.0223202
0.0224274
0.0225128
0.0225653
0.0225851
0.0225867
0.0225828
0.0225694
0.0225338
0.0224539
0.0223686
0.0222798
0.0221794
0.0220672
0.0219472
0.0218158
0.0216662
0.0215032
0.0213434
0.0212009
0.0210801
0.0209801
0.020895
0.0208099
0.0207063
0.0205772
0.0204339
0.0203027
0.0202098
0.0201653
0.0201558
0.0201584
0.0201778
0.0202166
0.0202389
0.0202443
0.0202391
0.0202014
0.0200601
0.0198699
0.0196898
0.0195321
0.0193657
0.0192708
0.019114
2.00641e-05
2.40068e-05
5.53773e-05
0.000184457
0.000573942
0.00145921
0.00323858
0.00616311
0.0101296
0.0151173
0.0208012
0.0269574
0.0332731
0.0395482
0.0455509
0.0511881
0.0563367
0.0609952
0.0651255
0.0687724
0.0719513
0.0747121
0.0771081
0.0791865
0.0809926
0.0825682
0.0839532
0.0851839
0.0862909
0.0873015
0.0882397
0.0891267
0.0899782
0.090808
0.0916266
0.0924432
0.0932636
0.094094
0.0949395
0.0958042
0.0966884
0.0975929
0.0985179
0.0994645
0.100433
0.10142
0.102424
0.103444
0.104478
0.105525
0.106584
0.107652
0.108725
0.109803
0.110882
0.111961
0.113037
0.114112
0.115183
0.116248
0.117304
0.118347
0.119375
0.120388
0.121384
0.122361
0.123313
0.124237
0.125128
0.125983
0.126799
0.127573
0.128303
0.128989
0.129627
0.130209
0.130725
0.131176
0.13157
0.131914
0.132193
0.13238
0.132468
0.132486
0.132484
0.132472
0.132448
0.132389
0.132324
0.132277
0.13223
0.132153
0.132055
0.131976
0.131944
0.131943
0.131958
0.132011
0.132132
0.132262
0.132384
0.132492
0.132588
0.132677
0.132763
0.132845
0.132917
0.132972
0.133003
0.133013
0.13301
0.132981
0.132905
0.132836
0.132777
0.132734
0.132703
0.13269
0.132684
0.132693
7.99885e-05
0.00133629
0.00654993
0.0190449
0.0443771
0.0812191
0.125169
0.171998
0.216995
0.258081
0.292611
0.321264
0.343847
0.361036
0.373563
0.38248
0.38838
0.392245
0.394307
0.395485
0.395572
0.395392
0.39495
0.394285
0.393573
0.392879
0.392246
0.391697
0.391242
0.390879
0.390602
0.390398
0.390255
0.390163
0.390107
0.390075
0.390059
0.390048
0.390032
0.390005
0.38996
0.389896
0.38981
0.389696
0.389552
0.389375
0.389165
0.388923
0.388648
0.388342
0.388004
0.387635
0.387236
0.38681
0.386363
0.385897
0.385416
0.384921
0.384415
0.383904
0.383395
0.382894
0.382401
0.381915
0.381433
0.380954
0.380483
0.380022
0.379574
0.379133
0.378694
0.378252
0.377805
0.377358
0.376914
0.376478
0.376047
0.37562
0.375196
0.37477
0.374343
0.373919
0.373509
0.373129
0.372786
0.372486
0.372232
0.372028
0.371877
0.371776
0.371721
0.371704
0.371709
0.371754
0.371846
0.371942
0.372038
0.372126
0.372203
0.372265
0.372316
0.37236
0.372395
0.372421
0.372432
0.372429
0.372395
0.372319
0.372231
0.372134
0.372034
0.37194
0.371857
0.371794
0.371748
0.371723
0.371712
0.371714
0.371723
0.371761
0.0244095
0.131636
0.336595
0.581249
0.82117
1.02597
1.18238
1.28831
1.35043
1.37575
1.37172
1.35662
1.32516
1.28541
1.24207
1.19762
1.15371
1.1114
1.07134
1.03389
0.999172
0.967192
0.937864
0.911041
0.886548
0.864197
0.843795
0.825153
0.808092
0.792444
0.778058
0.764793
0.752527
0.741147
0.730554
0.720662
0.711388
0.702666
0.694444
0.686672
0.679311
0.672319
0.665664
0.659315
0.653251
0.647452
0.6419
0.636581
0.631481
0.626586
0.621888
0.617376
0.613041
0.608875
0.604869
0.601014
0.597299
0.593716
0.590256
0.586914
0.583685
0.580568
0.577562
0.57467
0.571892
0.569232
0.566694
0.564284
0.562004
0.559856
0.557845
0.555974
0.554248
0.552667
0.551234
0.54995
0.548815
0.547829
0.546992
0.546301
0.545751
0.545333
0.545032
0.544829
0.544706
0.544642
0.544619
0.54462
0.544633
0.544644
0.544649
0.544647
0.544636
0.544615
0.544585
0.544538
0.544469
0.544378
0.54427
0.544155
0.544043
0.543941
0.543852
0.543776
0.543708
0.543644
0.543581
0.543519
0.543456
0.543395
0.543334
0.543279
0.543229
0.543187
0.543149
0.543121
0.543096
0.543078
0.543064
0.543048
)
;

boundaryField
{
    upperWall
    {
        type            fixedValue;
        value           uniform 0;
    }
    lowerWall
    {
        type            fixedValue;
        value           uniform 0;
    }
    inlet
    {
        type            fixedValue;
        value           uniform 2e-05;
    }
    outlet
    {
        type            inletOutlet;
        inletValue      uniform 0;
        value           nonuniform List<scalar> 
12
(
0.546065
0.365902
0.132943
0.0206034
0.0013246
6.2771e-05
4.53263e-05
0.000999955
0.019114
0.132693
0.371761
0.543048
)
;
    }
    frontAndBack
    {
        type            empty;
    }
}


// ************************************************************************* //
