/*--------------------------------*- C++ -*----------------------------------*\
  =========                 |
  \\      /  F ield         | OpenFOAM: The Open Source CFD Toolbox
   \\    /   O peration     | Website:  https://openfoam.org
    \\  /    A nd           | Version:  7
     \\/     M anipulation  |
\*---------------------------------------------------------------------------*/
FoamFile
{
    version     2.0;
    format      ascii;
    class       volSymmTensorField;
    location    "0.7925";
    object      UPrime2Mean;
}
// * * * * * * * * * * * * * * * * * * * * * * * * * * * * * * * * * * * * * //

dimensions      [0 2 -2 0 0 0 0];

internalField   nonuniform List<symmTensor> 
1440
(
(0.00590217 5.79907e-05 0 8.09317e-07 0 0)
(0.0012594 4.02081e-05 0 1.6842e-05 0 0)
(0.0030717 -8.9728e-05 0 6.38825e-05 0 0)
(0.00471133 -0.00015736 0 0.000145447 0 0)
(0.00644917 -0.000272324 0 0.000254001 0 0)
(0.0089193 -0.000579994 0 0.000369872 0 0)
(0.0124662 -0.00110786 0 0.000469066 0 0)
(0.0173418 -0.00177258 0 0.000532373 0 0)
(0.0237332 -0.00245856 0 0.000556033 0 0)
(0.0317411 -0.00308468 0 0.000544756 0 0)
(0.0413435 -0.00360666 0 0.000509013 0 0)
(0.052587 -0.00401066 0 0.000460967 0 0)
(0.0653379 -0.00426433 0 0.00040522 0 0)
(0.0792964 -0.00435745 0 0.00034731 0 0)
(0.0941312 -0.00429847 0 0.000291147 0 0)
(0.109532 -0.00410843 0 0.000239006 0 0)
(0.12523 -0.00381942 0 0.000192301 0 0)
(0.140989 -0.00346571 0 0.000151669 0 0)
(0.15661 -0.00307591 0 0.000117191 0 0)
(0.171932 -0.00267064 0 8.86254e-05 0 0)
(0.186843 -0.00226384 0 6.55178e-05 0 0)
(0.201266 -0.00186409 0 4.73254e-05 0 0)
(0.21515 -0.00147552 0 3.34735e-05 0 0)
(0.228465 -0.00109959 0 2.33764e-05 0 0)
(0.241189 -0.000737206 0 1.64288e-05 0 0)
(0.25331 -0.000390261 0 1.2038e-05 0 0)
(0.264822 -6.17705e-05 0 9.64365e-06 0 0)
(0.275729 0.000244826 0 8.7382e-06 0 0)
(0.286041 0.000526248 0 8.89075e-06 0 0)
(0.295775 0.000779546 0 9.76098e-06 0 0)
(0.304957 0.00100301 0 1.10863e-05 0 0)
(0.313617 0.00119591 0 1.26637e-05 0 0)
(0.321792 0.00135845 0 1.43358e-05 0 0)
(0.329521 0.00149196 0 1.59838e-05 0 0)
(0.336844 0.00159867 0 1.75216e-05 0 0)
(0.343803 0.00168168 0 1.8892e-05 0 0)
(0.350435 0.00174424 0 2.00601e-05 0 0)
(0.356777 0.00178951 0 2.10078e-05 0 0)
(0.362864 0.00182037 0 2.17313e-05 0 0)
(0.368727 0.00183933 0 2.22384e-05 0 0)
(0.374392 0.00184848 0 2.25447e-05 0 0)
(0.379886 0.00184948 0 2.26709e-05 0 0)
(0.38523 0.00184363 0 2.26387e-05 0 0)
(0.390445 0.00183209 0 2.24705e-05 0 0)
(0.395548 0.0018156 0 2.21861e-05 0 0)
(0.400555 0.00179485 0 2.18024e-05 0 0)
(0.405481 0.0017705 0 2.13343e-05 0 0)
(0.410339 0.00174316 0 2.0798e-05 0 0)
(0.415139 0.0017135 0 2.02107e-05 0 0)
(0.419891 0.00168215 0 1.95884e-05 0 0)
(0.424604 0.00164968 0 1.89448e-05 0 0)
(0.429285 0.00161651 0 1.82903e-05 0 0)
(0.433939 0.00158305 0 1.76338e-05 0 0)
(0.43857 0.00154956 0 1.69813e-05 0 0)
(0.443185 0.00151639 0 1.63388e-05 0 0)
(0.447785 0.00148371 0 1.57106e-05 0 0)
(0.452373 0.00145174 0 1.50996e-05 0 0)
(0.456952 0.00142069 0 1.45091e-05 0 0)
(0.461523 0.00139052 0 1.39406e-05 0 0)
(0.466088 0.00136143 0 1.33959e-05 0 0)
(0.470647 0.00133345 0 1.28761e-05 0 0)
(0.475203 0.00130661 0 1.23816e-05 0 0)
(0.479755 0.00128092 0 1.1913e-05 0 0)
(0.484305 0.00125636 0 1.14699e-05 0 0)
(0.488852 0.00123292 0 1.10519e-05 0 0)
(0.493397 0.00121056 0 1.06581e-05 0 0)
(0.497941 0.00118926 0 1.02876e-05 0 0)
(0.502483 0.00116896 0 9.93927e-06 0 0)
(0.507023 0.00114964 0 9.61188e-06 0 0)
(0.511561 0.00113125 0 9.30436e-06 0 0)
(0.516098 0.0011138 0 9.01545e-06 0 0)
(0.520633 0.00109724 0 8.74399e-06 0 0)
(0.525166 0.00108157 0 8.48883e-06 0 0)
(0.529695 0.00106683 0 8.24926e-06 0 0)
(0.534223 0.00105289 0 8.02398e-06 0 0)
(0.538747 0.00103981 0 7.81228e-06 0 0)
(0.543268 0.00102758 0 7.61339e-06 0 0)
(0.547785 0.00101617 0 7.42665e-06 0 0)
(0.552298 0.00100556 0 7.25133e-06 0 0)
(0.556806 0.000995738 0 7.08695e-06 0 0)
(0.56131 0.000986639 0 6.9327e-06 0 0)
(0.56581 0.000978258 0 6.7881e-06 0 0)
(0.570304 0.000970521 0 6.6524e-06 0 0)
(0.574792 0.000963451 0 6.52529e-06 0 0)
(0.579274 0.000956958 0 6.40626e-06 0 0)
(0.58375 0.000951069 0 6.29493e-06 0 0)
(0.588219 0.000945709 0 6.19075e-06 0 0)
(0.592682 0.000940861 0 6.0931e-06 0 0)
(0.597138 0.000936548 0 6.00146e-06 0 0)
(0.601586 0.00093261 0 5.9153e-06 0 0)
(0.606027 0.000929088 0 5.83428e-06 0 0)
(0.61046 0.000926007 0 5.75831e-06 0 0)
(0.614884 0.00092335 0 5.68716e-06 0 0)
(0.619301 0.000921089 0 5.62056e-06 0 0)
(0.623709 0.000919179 0 5.55801e-06 0 0)
(0.628109 0.000917583 0 5.49891e-06 0 0)
(0.632501 0.000916278 0 5.44286e-06 0 0)
(0.636884 0.000915242 0 5.3894e-06 0 0)
(0.64126 0.000914482 0 5.33901e-06 0 0)
(0.645628 0.000913982 0 5.29114e-06 0 0)
(0.649989 0.000913778 0 5.24704e-06 0 0)
(0.654343 0.000913833 0 5.20473e-06 0 0)
(0.658691 0.000914187 0 5.16701e-06 0 0)
(0.663035 0.000914683 0 5.128e-06 0 0)
(0.667371 0.000915457 0 5.09583e-06 0 0)
(0.671703 0.00091607 0 5.05559e-06 0 0)
(0.676023 0.000917265 0 5.03001e-06 0 0)
(0.680339 0.00091752 0 4.9839e-06 0 0)
(0.684634 0.000919667 0 4.97161e-06 0 0)
(0.688924 0.000918922 0 4.91511e-06 0 0)
(0.69318 0.000923424 0 4.93104e-06 0 0)
(0.697435 0.000920566 0 4.85474e-06 0 0)
(0.701629 0.00093 0 4.92422e-06 0 0)
(0.705852 0.000922596 0 4.8086e-06 0 0)
(0.709919 0.000941535 0 4.96275e-06 0 0)
(0.714163 0.000925267 0 4.7893e-06 0 0)
(0.717905 0.000961175 0 5.03874e-06 0 0)
(0.722401 0.000936188 0 4.81948e-06 0 0)
(0.725173 0.000992324 0 5.08468e-06 0 0)
(0.730893 0.00100758 0 5.02851e-06 0 0)
(0.00596895 8.17093e-05 0 1.68145e-06 0 0)
(0.00135985 6.15404e-05 0 1.91342e-05 0 0)
(0.00298589 8.23941e-06 0 6.02246e-05 0 0)
(0.00487233 0.000129275 0 0.000128913 0 0)
(0.0071443 0.000365807 0 0.000229032 0 0)
(0.00962896 0.000607075 0 0.000360275 0 0)
(0.012069 0.000786549 0 0.000513247 0 0)
(0.0144989 0.000889232 0 0.000670829 0 0)
(0.0170438 0.000935352 0 0.000818118 0 0)
(0.0196243 0.000939178 0 0.000947809 0 0)
(0.0220965 0.000894264 0 0.00105751 0 0)
(0.0244682 0.000793074 0 0.00114609 0 0)
(0.026837 0.000646134 0 0.0012116 0 0)
(0.029257 0.000474003 0 0.00125215 0 0)
(0.0317403 0.000296546 0 0.00126732 0 0)
(0.0343041 0.000128033 0 0.00125911 0 0)
(0.0369757 -2.63668e-05 0 0.0012312 0 0)
(0.0397783 -0.000169076 0 0.00118747 0 0)
(0.0427241 -0.000305111 0 0.00113155 0 0)
(0.0458157 -0.000439683 0 0.00106643 0 0)
(0.0490519 -0.00057736 0 0.000994746 0 0)
(0.0524348 -0.0007214 0 0.000918985 0 0)
(0.0559713 -0.000871753 0 0.000841326 0 0)
(0.0596707 -0.00102468 0 0.000763893 0 0)
(0.0635429 -0.00117393 0 0.000688576 0 0)
(0.067597 -0.00131267 0 0.000616833 0 0)
(0.0718402 -0.00143484 0 0.000549688 0 0)
(0.0762762 -0.00153589 0 0.000487774 0 0)
(0.080905 -0.0016131 0 0.000431409 0 0)
(0.085722 -0.00166589 0 0.000380658 0 0)
(0.0907197 -0.00169563 0 0.000335365 0 0)
(0.0958875 -0.001705 0 0.000295209 0 0)
(0.101214 -0.00169742 0 0.000259777 0 0)
(0.106687 -0.00167649 0 0.000228614 0 0)
(0.112295 -0.00164568 0 0.000201266 0 0)
(0.118028 -0.00160797 0 0.000177295 0 0)
(0.123875 -0.00156579 0 0.000156303 0 0)
(0.12983 -0.00152095 0 0.00013793 0 0)
(0.135884 -0.00147467 0 0.00012186 0 0)
(0.142031 -0.00142779 0 0.000107815 0 0)
(0.148268 -0.0013808 0 9.55482e-05 0 0)
(0.154589 -0.00133408 0 8.48408e-05 0 0)
(0.16099 -0.00128785 0 7.54981e-05 0 0)
(0.167468 -0.00124228 0 6.7346e-05 0 0)
(0.174018 -0.00119747 0 6.023e-05 0 0)
(0.180639 -0.00115349 0 5.40142e-05 0 0)
(0.187325 -0.00111037 0 4.85837e-05 0 0)
(0.194074 -0.00106813 0 4.38373e-05 0 0)
(0.200883 -0.0010267 0 3.96847e-05 0 0)
(0.207748 -0.000985977 0 3.6046e-05 0 0)
(0.214665 -0.000945837 0 3.28515e-05 0 0)
(0.22163 -0.00090616 0 3.00407e-05 0 0)
(0.22864 -0.000866836 0 2.75613e-05 0 0)
(0.23569 -0.000827787 0 2.53678e-05 0 0)
(0.242776 -0.000788961 0 2.34213e-05 0 0)
(0.249895 -0.00075033 0 2.16878e-05 0 0)
(0.257043 -0.00071188 0 2.01381e-05 0 0)
(0.264216 -0.0006736 0 1.87468e-05 0 0)
(0.271412 -0.000635509 0 1.7493e-05 0 0)
(0.278627 -0.000597629 0 1.63592e-05 0 0)
(0.28586 -0.000559974 0 1.53304e-05 0 0)
(0.293107 -0.00052254 0 1.4394e-05 0 0)
(0.300367 -0.000485308 0 1.35393e-05 0 0)
(0.307637 -0.000448235 0 1.27569e-05 0 0)
(0.314917 -0.000411267 0 1.20391e-05 0 0)
(0.322204 -0.000374346 0 1.13795e-05 0 0)
(0.329496 -0.000337417 0 1.07727e-05 0 0)
(0.336793 -0.000300433 0 1.0214e-05 0 0)
(0.344091 -0.000263365 0 9.69975e-06 0 0)
(0.351391 -0.000226195 0 9.22653e-06 0 0)
(0.35869 -0.000188931 0 8.79158e-06 0 0)
(0.365986 -0.000151591 0 8.39248e-06 0 0)
(0.373279 -0.000114218 0 8.02712e-06 0 0)
(0.380566 -7.6851e-05 0 7.69348e-06 0 0)
(0.387847 -3.95522e-05 0 7.38979e-06 0 0)
(0.39512 -2.37459e-06 0 7.11425e-06 0 0)
(0.402384 3.4632e-05 0 6.86516e-06 0 0)
(0.409637 7.14343e-05 0 6.64083e-06 0 0)
(0.41688 0.000107986 0 6.4397e-06 0 0)
(0.424111 0.000144258 0 6.2602e-06 0 0)
(0.431329 0.00018021 0 6.10091e-06 0 0)
(0.438533 0.000215817 0 5.96035e-06 0 0)
(0.445723 0.000251048 0 5.8372e-06 0 0)
(0.452898 0.000285895 0 5.73009e-06 0 0)
(0.460058 0.000320342 0 5.63785e-06 0 0)
(0.467201 0.000354386 0 5.55926e-06 0 0)
(0.474329 0.000388016 0 5.49327e-06 0 0)
(0.481439 0.000421215 0 5.43885e-06 0 0)
(0.488533 0.000453975 0 5.39501e-06 0 0)
(0.495608 0.000486284 0 5.36084e-06 0 0)
(0.502666 0.000518142 0 5.33548e-06 0 0)
(0.509705 0.00054956 0 5.31814e-06 0 0)
(0.516726 0.000580566 0 5.30815e-06 0 0)
(0.523727 0.000611152 0 5.30489e-06 0 0)
(0.53071 0.000641326 0 5.30781e-06 0 0)
(0.537674 0.000671037 0 5.31627e-06 0 0)
(0.544619 0.000700305 0 5.32976e-06 0 0)
(0.551545 0.000729072 0 5.34766e-06 0 0)
(0.558453 0.000757423 0 5.36982e-06 0 0)
(0.565342 0.000785278 0 5.39561e-06 0 0)
(0.572214 0.000812804 0 5.42555e-06 0 0)
(0.579067 0.000839791 0 5.45831e-06 0 0)
(0.585905 0.000866561 0 5.49546e-06 0 0)
(0.592725 0.000892572 0 5.53379e-06 0 0)
(0.599527 0.000918563 0 5.57716e-06 0 0)
(0.606315 0.000943334 0 5.61873e-06 0 0)
(0.613078 0.000968664 0 5.66762e-06 0 0)
(0.61983 0.000991913 0 5.71052e-06 0 0)
(0.626541 0.00101722 0 5.76648e-06 0 0)
(0.633259 0.00103866 0 5.81149e-06 0 0)
(0.639889 0.00106542 0 5.87857e-06 0 0)
(0.646585 0.0010847 0 5.93066e-06 0 0)
(0.653067 0.00111526 0 6.01376e-06 0 0)
(0.6598 0.00113241 0 6.08544e-06 0 0)
(0.66598 0.00116986 0 6.18615e-06 0 0)
(0.67293 0.00118821 0 6.31259e-06 0 0)
(0.678434 0.00123539 0 6.42518e-06 0 0)
(0.686098 0.0012738 0 6.72141e-06 0 0)
(0.689981 0.00132221 0 6.80558e-06 0 0)
(0.700155 0.00144256 0 7.69638e-06 0 0)
(0.00596646 4.94803e-05 0 6.59536e-07 0 0)
(0.00134693 3.76628e-05 0 7.76436e-06 0 0)
(0.0029817 -1.79499e-06 0 2.55512e-05 0 0)
(0.00479841 6.74038e-05 0 5.67165e-05 0 0)
(0.00694159 0.00021074 0 0.000103217 0 0)
(0.00931981 0.000361371 0 0.000165608 0 0)
(0.0117239 0.000488578 0 0.000241093 0 0)
(0.0142283 0.000599301 0 0.000323384 0 0)
(0.0169994 0.000715002 0 0.000405322 0 0)
(0.0199736 0.000845372 0 0.000481438 0 0)
(0.0229921 0.000983548 0 0.000548021 0 0)
(0.0260394 0.00112181 0 0.000602557 0 0)
(0.0291854 0.00125988 0 0.000642838 0 0)
(0.0324523 0.00140156 0 0.000667667 0 0)
(0.0358214 0.00154985 0 0.000677751 0 0)
(0.0392821 0.00170327 0 0.000675094 0 0)
(0.0428364 0.00185415 0 0.000662098 0 0)
(0.0464853 0.00199102 0 0.000640955 0 0)
(0.0502212 0.00210342 0 0.000613574 0 0)
(0.0540247 0.00218409 0 0.000581606 0 0)
(0.0578695 0.002229 0 0.000546476 0 0)
(0.0617297 0.00223722 0 0.000509454 0 0)
(0.065584 0.00221144 0 0.000471697 0 0)
(0.0694152 0.0021577 0 0.000434252 0 0)
(0.073209 0.00208401 0 0.000398048 0 0)
(0.0769563 0.0019984 0 0.00036379 0 0)
(0.0806537 0.00190786 0 0.00033195 0 0)
(0.0843028 0.00181798 0 0.000302831 0 0)
(0.087908 0.00173268 0 0.000276551 0 0)
(0.0914745 0.00165419 0 0.00025307 0 0)
(0.095008 0.00158333 0 0.000232253 0 0)
(0.0985144 0.00151986 0 0.000213889 0 0)
(0.101999 0.00146299 0 0.000197734 0 0)
(0.105468 0.00141171 0 0.000183546 0 0)
(0.108924 0.00136501 0 0.000171101 0 0)
(0.112372 0.00132201 0 0.000160194 0 0)
(0.115814 0.00128203 0 0.000150639 0 0)
(0.119255 0.00124458 0 0.000142274 0 0)
(0.122697 0.00120928 0 0.000134954 0 0)
(0.126144 0.00117582 0 0.000128554 0 0)
(0.129597 0.00114384 0 0.000122956 0 0)
(0.133061 0.00111301 0 0.000118059 0 0)
(0.136537 0.00108297 0 0.000113769 0 0)
(0.140029 0.00105338 0 0.000110002 0 0)
(0.143537 0.00102394 0 0.000106682 0 0)
(0.147065 0.00099445 0 0.000103735 0 0)
(0.150613 0.000964746 0 0.000101091 0 0)
(0.154184 0.000934797 0 9.86889e-05 0 0)
(0.157778 0.00090469 0 9.64839e-05 0 0)
(0.161397 0.000874606 0 9.44405e-05 0 0)
(0.165041 0.000844769 0 9.25318e-05 0 0)
(0.168711 0.000815416 0 9.07358e-05 0 0)
(0.172407 0.000786753 0 8.9034e-05 0 0)
(0.176131 0.000758934 0 8.74104e-05 0 0)
(0.179881 0.000732041 0 8.58512e-05 0 0)
(0.183659 0.000706093 0 8.43439e-05 0 0)
(0.187464 0.000681038 0 8.28762e-05 0 0)
(0.191297 0.000656778 0 8.1435e-05 0 0)
(0.195157 0.000633173 0 8.00091e-05 0 0)
(0.199046 0.000610081 0 7.85888e-05 0 0)
(0.202963 0.000587361 0 7.71671e-05 0 0)
(0.206908 0.000564896 0 7.57377e-05 0 0)
(0.210882 0.000542588 0 7.42966e-05 0 0)
(0.214885 0.000520383 0 7.28407e-05 0 0)
(0.218917 0.000498257 0 7.13688e-05 0 0)
(0.22298 0.000476228 0 6.98808e-05 0 0)
(0.227074 0.000454332 0 6.83779e-05 0 0)
(0.231198 0.000432637 0 6.68623e-05 0 0)
(0.235354 0.000411211 0 6.53364e-05 0 0)
(0.239542 0.000390143 0 6.3803e-05 0 0)
(0.243762 0.000369511 0 6.22657e-05 0 0)
(0.248015 0.000349402 0 6.07282e-05 0 0)
(0.252301 0.000329879 0 5.91944e-05 0 0)
(0.25662 0.000311016 0 5.76683e-05 0 0)
(0.260971 0.00029285 0 5.61537e-05 0 0)
(0.265356 0.000275425 0 5.46541e-05 0 0)
(0.269773 0.000258756 0 5.31728e-05 0 0)
(0.274222 0.000242866 0 5.17123e-05 0 0)
(0.278703 0.000227746 0 5.02752e-05 0 0)
(0.283217 0.000213398 0 4.88632e-05 0 0)
(0.287761 0.000199792 0 4.74781e-05 0 0)
(0.292337 0.000186922 0 4.6121e-05 0 0)
(0.296943 0.000174751 0 4.47927e-05 0 0)
(0.301579 0.000163268 0 4.34935e-05 0 0)
(0.306244 0.000152432 0 4.22238e-05 0 0)
(0.310938 0.00014223 0 4.09831e-05 0 0)
(0.315661 0.000132626 0 3.97717e-05 0 0)
(0.320412 0.000123613 0 3.85888e-05 0 0)
(0.32519 0.000115165 0 3.74349e-05 0 0)
(0.329995 0.000107282 0 3.63088e-05 0 0)
(0.334827 9.99402e-05 0 3.52109e-05 0 0)
(0.339684 9.31517e-05 0 3.41395e-05 0 0)
(0.344566 8.69018e-05 0 3.30953e-05 0 0)
(0.349474 8.12082e-05 0 3.20766e-05 0 0)
(0.354406 7.60465e-05 0 3.10846e-05 0 0)
(0.359363 7.14404e-05 0 3.01178e-05 0 0)
(0.364343 6.73552e-05 0 2.91776e-05 0 0)
(0.369347 6.38293e-05 0 2.82618e-05 0 0)
(0.374376 6.08094e-05 0 2.73717e-05 0 0)
(0.379428 5.83502e-05 0 2.65045e-05 0 0)
(0.384504 5.63701e-05 0 2.56619e-05 0 0)
(0.389603 5.49433e-05 0 2.48412e-05 0 0)
(0.394727 5.39559e-05 0 2.4045e-05 0 0)
(0.399873 5.35027e-05 0 2.32704e-05 0 0)
(0.405044 5.34434e-05 0 2.25216e-05 0 0)
(0.410233 5.38856e-05 0 2.17919e-05 0 0)
(0.415445 5.47267e-05 0 2.10903e-05 0 0)
(0.420674 5.59851e-05 0 2.03994e-05 0 0)
(0.425916 5.78301e-05 0 1.97436e-05 0 0)
(0.431176 5.9859e-05 0 1.90792e-05 0 0)
(0.436427 6.30212e-05 0 1.84708e-05 0 0)
(0.441717 6.59885e-05 0 1.78123e-05 0 0)
(0.446927 7.10451e-05 0 1.72643e-05 0 0)
(0.452276 7.59727e-05 0 1.65795e-05 0 0)
(0.457335 8.38522e-05 0 1.61254e-05 0 0)
(0.462859 9.48208e-05 0 1.53627e-05 0 0)
(0.467511 0.000106622 0 1.50724e-05 0 0)
(0.473555 0.000137254 0 1.41599e-05 0 0)
(0.477149 0.00015024 0 1.41357e-05 0 0)
(0.485315 0.000233754 0 1.302e-05 0 0)
(0.00596665 3.47274e-05 0 3.38863e-07 0 0)
(0.00134721 2.67653e-05 0 3.95256e-06 0 0)
(0.0029798 -1.72985e-06 0 1.30258e-05 0 0)
(0.00478155 4.6404e-05 0 2.89242e-05 0 0)
(0.0068953 0.00014469 0 5.21547e-05 0 0)
(0.00922601 0.000243717 0 8.23574e-05 0 0)
(0.01156 0.000324659 0 0.00011807 0 0)
(0.0139786 0.000394703 0 0.000156598 0 0)
(0.0166608 0.000466994 0 0.0001947 0 0)
(0.0195501 0.000547492 0 0.000229717 0 0)
(0.0224922 0.000634235 0 0.000260045 0 0)
(0.0254783 0.000724543 0 0.000284911 0 0)
(0.0285861 0.00081916 0 0.000304029 0 0)
(0.0318461 0.000921029 0 0.000317499 0 0)
(0.0352462 0.00103266 0 0.000325857 0 0)
(0.0387813 0.00115405 0 0.000329863 0 0)
(0.0424603 0.0012819 0 0.000330311 0 0)
(0.0462948 0.0014107 0 0.000327826 0 0)
(0.0502888 0.00153471 0 0.000322843 0 0)
(0.0544318 0.00164894 0 0.000315677 0 0)
(0.0587009 0.0017492 0 0.000306657 0 0)
(0.0630701 0.00183226 0 0.000296132 0 0)
(0.0675162 0.00189643 0 0.000284459 0 0)
(0.0720174 0.00194195 0 0.000271973 0 0)
(0.0765533 0.00197082 0 0.000259002 0 0)
(0.0811069 0.00198607 0 0.000245867 0 0)
(0.0856673 0.00199104 0 0.000232875 0 0)
(0.090229 0.00198885 0 0.000220269 0 0)
(0.0947902 0.00198215 0 0.000208231 0 0)
(0.0993513 0.00197305 0 0.000196861 0 0)
(0.103914 0.00196309 0 0.000186217 0 0)
(0.108482 0.00195326 0 0.000176314 0 0)
(0.113056 0.00194409 0 0.000167155 0 0)
(0.117641 0.00193574 0 0.000158721 0 0)
(0.122237 0.00192818 0 0.000150988 0 0)
(0.126846 0.00192124 0 0.000143916 0 0)
(0.131469 0.00191476 0 0.000137466 0 0)
(0.136107 0.0019085 0 0.000131591 0 0)
(0.14076 0.00190228 0 0.000126244 0 0)
(0.145427 0.00189588 0 0.000121375 0 0)
(0.150111 0.00188915 0 0.000116941 0 0)
(0.15481 0.00188199 0 0.000112894 0 0)
(0.159525 0.00187438 0 0.000109199 0 0)
(0.164255 0.00186635 0 0.000105818 0 0)
(0.169001 0.00185802 0 0.00010272 0 0)
(0.173762 0.00184951 0 9.9872e-05 0 0)
(0.178537 0.00184095 0 9.72427e-05 0 0)
(0.183326 0.00183248 0 9.48011e-05 0 0)
(0.188128 0.00182433 0 9.2528e-05 0 0)
(0.192944 0.00181671 0 9.04067e-05 0 0)
(0.197772 0.00180984 0 8.84277e-05 0 0)
(0.202613 0.00180389 0 8.65791e-05 0 0)
(0.207465 0.00179897 0 8.48532e-05 0 0)
(0.212329 0.0017951 0 8.32391e-05 0 0)
(0.217204 0.00179227 0 8.17297e-05 0 0)
(0.22209 0.00179035 0 8.0315e-05 0 0)
(0.226987 0.00178924 0 7.89896e-05 0 0)
(0.231894 0.00178875 0 7.7746e-05 0 0)
(0.236811 0.00178871 0 7.65788e-05 0 0)
(0.241736 0.00178888 0 7.5477e-05 0 0)
(0.24667 0.00178908 0 7.44325e-05 0 0)
(0.251612 0.00178907 0 7.34338e-05 0 0)
(0.256561 0.00178872 0 7.24739e-05 0 0)
(0.261516 0.00178788 0 7.15436e-05 0 0)
(0.266476 0.0017865 0 7.06384e-05 0 0)
(0.271441 0.0017845 0 6.97514e-05 0 0)
(0.27641 0.00178191 0 6.88813e-05 0 0)
(0.281382 0.00177874 0 6.80238e-05 0 0)
(0.286356 0.00177505 0 6.71791e-05 0 0)
(0.291332 0.00177088 0 6.63443e-05 0 0)
(0.296309 0.00176632 0 6.55205e-05 0 0)
(0.301286 0.0017614 0 6.47053e-05 0 0)
(0.306263 0.0017562 0 6.39006e-05 0 0)
(0.31124 0.00175077 0 6.31044e-05 0 0)
(0.316215 0.00174517 0 6.23189e-05 0 0)
(0.321189 0.00173942 0 6.1542e-05 0 0)
(0.32616 0.00173359 0 6.07762e-05 0 0)
(0.331129 0.00172766 0 6.00193e-05 0 0)
(0.336095 0.0017217 0 5.9274e-05 0 0)
(0.341057 0.00171566 0 5.85375e-05 0 0)
(0.346015 0.0017096 0 5.78127e-05 0 0)
(0.350968 0.00170347 0 5.70965e-05 0 0)
(0.355917 0.00169731 0 5.63917e-05 0 0)
(0.36086 0.00169105 0 5.5695e-05 0 0)
(0.365797 0.00168472 0 5.50087e-05 0 0)
(0.370728 0.00167825 0 5.43293e-05 0 0)
(0.375651 0.00167167 0 5.36593e-05 0 0)
(0.380568 0.00166491 0 5.2995e-05 0 0)
(0.385477 0.00165801 0 5.23392e-05 0 0)
(0.390377 0.00165088 0 5.16877e-05 0 0)
(0.395269 0.0016436 0 5.10438e-05 0 0)
(0.400152 0.00163606 0 5.04026e-05 0 0)
(0.405027 0.00162835 0 4.9768e-05 0 0)
(0.409891 0.00162038 0 4.91348e-05 0 0)
(0.414747 0.00161225 0 4.85078e-05 0 0)
(0.419592 0.00160385 0 4.78817e-05 0 0)
(0.424429 0.00159532 0 4.72622e-05 0 0)
(0.429255 0.00158653 0 4.66423e-05 0 0)
(0.434074 0.00157764 0 4.60297e-05 0 0)
(0.438884 0.00156847 0 4.54143e-05 0 0)
(0.443686 0.00155926 0 4.48078e-05 0 0)
(0.44848 0.0015497 0 4.41944e-05 0 0)
(0.453269 0.00154023 0 4.35956e-05 0 0)
(0.458047 0.00153027 0 4.29824e-05 0 0)
(0.462823 0.00152066 0 4.23967e-05 0 0)
(0.467585 0.00151023 0 4.17788e-05 0 0)
(0.472348 0.0015007 0 4.12142e-05 0 0)
(0.477089 0.00148951 0 4.05762e-05 0 0)
(0.481833 0.00148041 0 4.00458e-05 0 0)
(0.486544 0.00146785 0 3.93548e-05 0 0)
(0.491256 0.00145995 0 3.88878e-05 0 0)
(0.49593 0.00144498 0 3.80823e-05 0 0)
(0.500576 0.00143993 0 3.77455e-05 0 0)
(0.505222 0.0014211 0 3.6717e-05 0 0)
(0.509732 0.0014223 0 3.66413e-05 0 0)
(0.51442 0.00139799 0 3.52028e-05 0 0)
(0.518618 0.00141096 0 3.55989e-05 0 0)
(0.523585 0.00137946 0 3.34314e-05 0 0)
(0.527019 0.00140634 0 3.44402e-05 0 0)
(0.533732 0.00136111 0 3.08997e-05 0 0)
(0.00596671 2.05224e-05 0 1.21177e-07 0 0)
(0.00134721 1.58573e-05 0 1.40095e-06 0 0)
(0.00297872 -1.20103e-06 0 4.577e-06 0 0)
(0.00477133 2.65641e-05 0 1.0079e-05 0 0)
(0.0068695 8.29367e-05 0 1.80101e-05 0 0)
(0.00917971 0.000139013 0 2.81854e-05 0 0)
(0.0114851 0.000184829 0 4.01434e-05 0 0)
(0.0138677 0.000225114 0 5.3097e-05 0 0)
(0.0165126 0.000266965 0 6.6066e-05 0 0)
(0.0193666 0.000313155 0 7.81895e-05 0 0)
(0.0222748 0.000362446 0 8.89334e-05 0 0)
(0.0252271 0.000413534 0 9.80601e-05 0 0)
(0.0283012 0.000467125 0 0.000105493 0 0)
(0.031526 0.000525095 0 0.0001112 0 0)
(0.0348861 0.000589054 0 0.000115172 0 0)
(0.0383714 0.000659305 0 0.000117464 0 0)
(0.0419864 0.000734089 0 0.000118186 0 0)
(0.0457401 0.000809707 0 0.000117475 0 0)
(0.0496365 0.000881586 0 0.00011544 0 0)
(0.0536671 0.000945502 0 0.000112193 0 0)
(0.0578132 0.000998182 0 0.00010789 0 0)
(0.0620545 0.00103749 0 0.000102731 0 0)
(0.0663743 0.00106272 0 9.69593e-05 0 0)
(0.0707579 0.00107476 0 9.08346e-05 0 0)
(0.0751907 0.00107572 0 8.45951e-05 0 0)
(0.0796599 0.00106834 0 7.84485e-05 0 0)
(0.084156 0.00105536 0 7.25542e-05 0 0)
(0.0886743 0.00103916 0 6.70059e-05 0 0)
(0.0932126 0.00102168 0 6.18497e-05 0 0)
(0.0977703 0.00100448 0 5.71057e-05 0 0)
(0.102348 0.000988568 0 5.27805e-05 0 0)
(0.106947 0.000974464 0 4.88665e-05 0 0)
(0.111568 0.000962273 0 4.53424e-05 0 0)
(0.116214 0.000951839 0 4.21787e-05 0 0)
(0.120886 0.000942861 0 3.93438e-05 0 0)
(0.125584 0.000934993 0 3.68076e-05 0 0)
(0.13031 0.000927899 0 3.45413e-05 0 0)
(0.135064 0.000921304 0 3.25179e-05 0 0)
(0.139846 0.000915021 0 3.07121e-05 0 0)
(0.144656 0.000908962 0 2.91011e-05 0 0)
(0.149496 0.000903113 0 2.76648e-05 0 0)
(0.154364 0.000897504 0 2.63851e-05 0 0)
(0.159261 0.000892178 0 2.52457e-05 0 0)
(0.164187 0.000887184 0 2.42318e-05 0 0)
(0.169141 0.000882579 0 2.33302e-05 0 0)
(0.174124 0.000878441 0 2.25303e-05 0 0)
(0.179135 0.000874908 0 2.18246e-05 0 0)
(0.184173 0.00087213 0 2.12068e-05 0 0)
(0.18924 0.000870229 0 2.06694e-05 0 0)
(0.194334 0.000869305 0 2.02048e-05 0 0)
(0.199457 0.000869425 0 1.98052e-05 0 0)
(0.204607 0.000870631 0 1.94633e-05 0 0)
(0.209787 0.000872934 0 1.91721e-05 0 0)
(0.214995 0.000876314 0 1.89254e-05 0 0)
(0.220233 0.000880714 0 1.87172e-05 0 0)
(0.2255 0.000886057 0 1.85427e-05 0 0)
(0.230796 0.000892251 0 1.83979e-05 0 0)
(0.236123 0.000899205 0 1.82802e-05 0 0)
(0.241479 0.000906797 0 1.81863e-05 0 0)
(0.246865 0.000914883 0 1.81128e-05 0 0)
(0.25228 0.000923303 0 1.80555e-05 0 0)
(0.257722 0.000931907 0 1.80107e-05 0 0)
(0.263193 0.000940556 0 1.79749e-05 0 0)
(0.268689 0.000949137 0 1.7945e-05 0 0)
(0.274212 0.000957557 0 1.79185e-05 0 0)
(0.279759 0.000965747 0 1.78931e-05 0 0)
(0.28533 0.000973646 0 1.78666e-05 0 0)
(0.290924 0.000981217 0 1.78373e-05 0 0)
(0.296539 0.000988442 0 1.78041e-05 0 0)
(0.302176 0.000995325 0 1.77662e-05 0 0)
(0.307832 0.00100188 0 1.77232e-05 0 0)
(0.313508 0.00100813 0 1.76751e-05 0 0)
(0.319201 0.0010141 0 1.76217e-05 0 0)
(0.324913 0.00101982 0 1.75634e-05 0 0)
(0.330642 0.00102534 0 1.75003e-05 0 0)
(0.336387 0.00103067 0 1.74327e-05 0 0)
(0.342147 0.00103586 0 1.73609e-05 0 0)
(0.347923 0.00104093 0 1.72853e-05 0 0)
(0.353714 0.00104591 0 1.72062e-05 0 0)
(0.359519 0.00105081 0 1.7124e-05 0 0)
(0.365337 0.00105565 0 1.70389e-05 0 0)
(0.371168 0.00106043 0 1.69511e-05 0 0)
(0.377012 0.00106516 0 1.68609e-05 0 0)
(0.382868 0.00106983 0 1.67685e-05 0 0)
(0.388735 0.00107443 0 1.66739e-05 0 0)
(0.394613 0.00107896 0 1.65773e-05 0 0)
(0.400501 0.00108339 0 1.64787e-05 0 0)
(0.406398 0.00108771 0 1.63783e-05 0 0)
(0.412305 0.00109192 0 1.6276e-05 0 0)
(0.418219 0.001096 0 1.6172e-05 0 0)
(0.424141 0.00109994 0 1.60663e-05 0 0)
(0.430069 0.00110373 0 1.59589e-05 0 0)
(0.436004 0.00110736 0 1.585e-05 0 0)
(0.441945 0.00111082 0 1.57395e-05 0 0)
(0.447891 0.00111413 0 1.56277e-05 0 0)
(0.453841 0.00111727 0 1.55145e-05 0 0)
(0.459796 0.00112027 0 1.54007e-05 0 0)
(0.465755 0.00112308 0 1.52852e-05 0 0)
(0.471718 0.00112578 0 1.51697e-05 0 0)
(0.477685 0.00112826 0 1.50518e-05 0 0)
(0.483657 0.00113067 0 1.49349e-05 0 0)
(0.489633 0.00113279 0 1.48141e-05 0 0)
(0.495614 0.00113494 0 1.4697e-05 0 0)
(0.501598 0.00113667 0 1.45728e-05 0 0)
(0.507587 0.00113865 0 1.44578e-05 0 0)
(0.513577 0.00113988 0 1.43279e-05 0 0)
(0.519571 0.00114182 0 1.42184e-05 0 0)
(0.525562 0.00114227 0 1.40765e-05 0 0)
(0.531553 0.0011444 0 1.39777e-05 0 0)
(0.537539 0.00114348 0 1.38109e-05 0 0)
(0.543503 0.00114631 0 1.37345e-05 0 0)
(0.549487 0.00114308 0 1.35197e-05 0 0)
(0.555375 0.00114783 0 1.34912e-05 0 0)
(0.561389 0.0011409 0 1.31892e-05 0 0)
(0.567089 0.00115008 0 1.32556e-05 0 0)
(0.573259 0.00113748 0 1.2798e-05 0 0)
(0.578503 0.0011546 0 1.30242e-05 0 0)
(0.585203 0.00113233 0 1.228e-05 0 0)
(0.589309 0.00115691 0 1.26733e-05 0 0)
(0.598349 0.00111422 0 1.13889e-05 0 0)
(0.00596671 6.72319e-06 0 1.23173e-08 0 0)
(0.00134703 4.96248e-06 0 1.44131e-07 0 0)
(0.0029781 -6.25625e-07 0 4.71911e-07 0 0)
(0.0047665 8.6265e-06 0 1.03785e-06 0 0)
(0.00685741 2.69267e-05 0 1.84956e-06 0 0)
(0.00915838 4.48917e-05 0 2.88616e-06 0 0)
(0.0114512 5.98339e-05 0 4.1036e-06 0 0)
(0.013818 7.359e-05 0 5.43104e-06 0 0)
(0.0164458 8.81289e-05 0 6.7805e-06 0 0)
(0.0192836 0.000103892 0 8.0729e-06 0 0)
(0.0221774 0.000120434 0 9.25412e-06 0 0)
(0.0251175 0.000137606 0 1.02944e-05 0 0)
(0.0281806 0.000155762 0 1.11719e-05 0 0)
(0.0313945 0.000175422 0 1.18677e-05 0 0)
(0.0347424 0.000196987 0 1.23636e-05 0 0)
(0.0382115 0.000220517 0 1.26573e-05 0 0)
(0.0418031 0.000245301 0 1.27552e-05 0 0)
(0.0455245 0.000269913 0 1.2674e-05 0 0)
(0.0493802 0.000292777 0 1.24399e-05 0 0)
(0.0533644 0.000312815 0 1.20857e-05 0 0)
(0.0574611 0.00032953 0 1.16391e-05 0 0)
(0.0616524 0.000342922 0 1.11276e-05 0 0)
(0.0659236 0.00035339 0 1.05818e-05 0 0)
(0.0702615 0.000361681 0 1.00361e-05 0 0)
(0.0746516 0.000368655 0 9.52071e-06 0 0)
(0.0790808 0.000374978 0 9.05312e-06 0 0)
(0.0835391 0.000381045 0 8.64161e-06 0 0)
(0.0880212 0.000387018 0 8.28769e-06 0 0)
(0.0925245 0.000392938 0 7.98777e-06 0 0)
(0.0970486 0.000398839 0 7.73673e-06 0 0)
(0.101594 0.000404725 0 7.52832e-06 0 0)
(0.106161 0.000410579 0 7.35718e-06 0 0)
(0.110752 0.000416355 0 7.21759e-06 0 0)
(0.115368 0.000422045 0 7.10403e-06 0 0)
(0.12001 0.000427648 0 7.01061e-06 0 0)
(0.124679 0.000433176 0 6.93207e-06 0 0)
(0.129376 0.000438615 0 6.86352e-06 0 0)
(0.134101 0.000443942 0 6.80126e-06 0 0)
(0.138854 0.000449108 0 6.74256e-06 0 0)
(0.143636 0.000454072 0 6.68616e-06 0 0)
(0.148446 0.0004588 0 6.63157e-06 0 0)
(0.153285 0.000463275 0 6.57892e-06 0 0)
(0.158153 0.000467477 0 6.52836e-06 0 0)
(0.163048 0.000471407 0 6.48026e-06 0 0)
(0.167972 0.000475083 0 6.43507e-06 0 0)
(0.172923 0.000478562 0 6.39355e-06 0 0)
(0.177903 0.000481928 0 6.35652e-06 0 0)
(0.182909 0.000485288 0 6.32455e-06 0 0)
(0.187944 0.000488729 0 6.29753e-06 0 0)
(0.193007 0.00049233 0 6.275e-06 0 0)
(0.198098 0.000496154 0 6.25628e-06 0 0)
(0.203218 0.000500256 0 6.24087e-06 0 0)
(0.208367 0.000504666 0 6.22827e-06 0 0)
(0.213546 0.000509396 0 6.21802e-06 0 0)
(0.218756 0.000514428 0 6.20956e-06 0 0)
(0.223996 0.000519728 0 6.20242e-06 0 0)
(0.229268 0.000525234 0 6.19594e-06 0 0)
(0.234571 0.000530863 0 6.18926e-06 0 0)
(0.239905 0.000536526 0 6.18159e-06 0 0)
(0.245271 0.00054214 0 6.17227e-06 0 0)
(0.250667 0.000547623 0 6.16076e-06 0 0)
(0.256093 0.000552909 0 6.14664e-06 0 0)
(0.26155 0.000557941 0 6.12956e-06 0 0)
(0.267035 0.00056268 0 6.10935e-06 0 0)
(0.272548 0.000567099 0 6.08586e-06 0 0)
(0.278088 0.000571181 0 6.05904e-06 0 0)
(0.283654 0.000574918 0 6.02875e-06 0 0)
(0.289245 0.000578311 0 5.99497e-06 0 0)
(0.29486 0.000581373 0 5.95779e-06 0 0)
(0.300499 0.000584128 0 5.9174e-06 0 0)
(0.30616 0.000586605 0 5.87399e-06 0 0)
(0.311843 0.000588836 0 5.82786e-06 0 0)
(0.317547 0.000590852 0 5.77928e-06 0 0)
(0.323272 0.00059269 0 5.72858e-06 0 0)
(0.329016 0.000594377 0 5.67604e-06 0 0)
(0.334779 0.000595944 0 5.62198e-06 0 0)
(0.340561 0.000597416 0 5.56666e-06 0 0)
(0.346361 0.000598815 0 5.51037e-06 0 0)
(0.352179 0.000600157 0 5.45335e-06 0 0)
(0.358014 0.000601455 0 5.39584e-06 0 0)
(0.363866 0.000602716 0 5.33801e-06 0 0)
(0.369735 0.000603949 0 5.28006e-06 0 0)
(0.37562 0.000605155 0 5.22214e-06 0 0)
(0.381521 0.000606333 0 5.16441e-06 0 0)
(0.387437 0.000607481 0 5.10694e-06 0 0)
(0.393368 0.000608596 0 5.04989e-06 0 0)
(0.399314 0.000609675 0 4.9933e-06 0 0)
(0.405273 0.000610711 0 4.93728e-06 0 0)
(0.411246 0.0006117 0 4.88188e-06 0 0)
(0.417232 0.000612639 0 4.82715e-06 0 0)
(0.42323 0.000613525 0 4.77316e-06 0 0)
(0.42924 0.000614353 0 4.71994e-06 0 0)
(0.435261 0.000615121 0 4.66751e-06 0 0)
(0.441293 0.000615824 0 4.61589e-06 0 0)
(0.447336 0.000616465 0 4.56512e-06 0 0)
(0.453388 0.000617037 0 4.51518e-06 0 0)
(0.459451 0.000617548 0 4.46617e-06 0 0)
(0.465523 0.000617981 0 4.41793e-06 0 0)
(0.471605 0.000618353 0 4.37067e-06 0 0)
(0.477697 0.000618628 0 4.32403e-06 0 0)
(0.483799 0.000618845 0 4.27852e-06 0 0)
(0.489911 0.00061893 0 4.23332e-06 0 0)
(0.496033 0.000618977 0 4.18963e-06 0 0)
(0.502165 0.00061883 0 4.14563e-06 0 0)
(0.508308 0.000618701 0 4.10395e-06 0 0)
(0.514459 0.00061825 0 4.06067e-06 0 0)
(0.520618 0.000617935 0 4.02135e-06 0 0)
(0.526784 0.000617016 0 3.97772e-06 0 0)
(0.53295 0.000616496 0 3.94152e-06 0 0)
(0.539127 0.000614813 0 3.89562e-06 0 0)
(0.545277 0.000614144 0 3.86441e-06 0 0)
(0.551468 0.000611262 0 3.81295e-06 0 0)
(0.557549 0.000610764 0 3.79106e-06 0 0)
(0.563794 0.000606084 0 3.72815e-06 0 0)
(0.569686 0.000606637 0 3.72381e-06 0 0)
(0.576126 0.0005992 0 3.63767e-06 0 0)
(0.58154 0.000602375 0 3.66319e-06 0 0)
(0.588571 0.000589771 0 3.52621e-06 0 0)
(0.592774 0.0005964 0 3.5842e-06 0 0)
(0.602256 0.000570016 0 3.32133e-06 0 0)
(0.00596671 -6.91548e-06 0 1.68778e-08 0 0)