/*--------------------------------*- C++ -*----------------------------------*\
  =========                 |
  \\      /  F ield         | OpenFOAM: The Open Source CFD Toolbox
   \\    /   O peration     | Website:  https://openfoam.org
    \\  /    A nd           | Version:  7
     \\/     M anipulation  |
\*---------------------------------------------------------------------------*/
FoamFile
{
    version     2.0;
    format      ascii;
    class       volSymmTensorField;
    location    "0.14";
    object      UPrime2Mean;
}
// * * * * * * * * * * * * * * * * * * * * * * * * * * * * * * * * * * * * * //

dimensions      [0 2 -2 0 0 0 0];

internalField   nonuniform List<symmTensor> 
1440
(
(0.0330591 0.000324564 0 4.50731e-06 0 0)
(0.00717628 0.000243791 0 9.45779e-05 0 0)
(0.0172368 -0.000472727 0 0.000359735 0 0)
(0.0266059 -0.000874923 0 0.00081891 0 0)
(0.0365022 -0.00153914 0 0.0014278 0 0)
(0.0504582 -0.00325407 0 0.00207583 0 0)
(0.0703571 -0.0061846 0 0.00262946 0 0)
(0.0975372 -0.00988296 0 0.00298185 0 0)
(0.133146 -0.0137035 0 0.00311045 0 0)
(0.177797 -0.017174 0 0.00304094 0 0)
(0.231251 -0.0200318 0 0.00283232 0 0)
(0.2936 -0.0221916 0 0.00255344 0 0)
(0.364077 -0.023476 0 0.00223134 0 0)
(0.441002 -0.0238505 0 0.00190099 0 0)
(0.522509 -0.0233827 0 0.00158533 0 0)
(0.606838 -0.0222005 0 0.00129614 0 0)
(0.692463 -0.0204896 0 0.00104031 0 0)
(0.778082 -0.0184503 0 0.000820862 0 0)
(0.862628 -0.0162484 0 0.000637603 0 0)
(0.945259 -0.0140012 0 0.000488181 0 0)
(1.02541 -0.0117848 0 0.000368824 0 0)
(1.10271 -0.0096433 0 0.000275365 0 0)
(1.17695 -0.00759359 0 0.000203826 0 0)
(1.248 -0.00563423 0 0.000150642 0 0)
(1.31576 -0.00375884 0 0.000112675 0 0)
(1.38018 -0.00196599 0 8.70826e-05 0 0)
(1.44126 -0.000263936 0 7.14875e-05 0 0)
(1.49901 0.00132983 0 6.36805e-05 0 0)
(1.55347 0.00279347 0 6.16409e-05 0 0)
(1.60475 0.00410663 0 6.36609e-05 0 0)
(1.65299 0.00525537 0 6.82334e-05 0 0)
(1.69837 0.00623376 0 7.41887e-05 0 0)
(1.7411 0.00704434 0 8.07096e-05 0 0)
(1.78142 0.00769628 0 8.72221e-05 0 0)
(1.81958 0.00820121 0 9.325e-05 0 0)
(1.8558 0.00857452 0 9.8406e-05 0 0)
(1.89033 0.00883621 0 0.000102463 0 0)
(1.92338 0.00900629 0 0.000105338 0 0)
(1.95514 0.00910223 0 0.000107038 0 0)
(1.98579 0.00913886 0 0.000107632 0 0)
(2.01547 0.0091286 0 0.000107242 0 0)
(2.04433 0.00908095 0 0.000106024 0 0)
(2.07247 0.00900333 0 0.000104146 0 0)
(2.1 0.00890088 0 0.000101765 0 0)
(2.127 0.00877753 0 9.90198e-05 0 0)
(2.15356 0.00863643 0 9.60227e-05 0 0)
(2.17974 0.00847942 0 9.28531e-05 0 0)
(2.20561 0.00830971 0 8.95799e-05 0 0)
(2.23121 0.00813077 0 8.62641e-05 0 0)
(2.2566 0.00794598 0 8.29537e-05 0 0)
(2.28181 0.00775846 0 7.96831e-05 0 0)
(2.30687 0.00757082 0 7.64734e-05 0 0)
(2.33182 0.00738528 0 7.33406e-05 0 0)
(2.35667 0.00720334 0 7.02934e-05 0 0)
(2.38144 0.00702638 0 6.73409e-05 0 0)
(2.40614 0.00685485 0 6.44898e-05 0 0)
(2.4308 0.00668948 0 6.17485e-05 0 0)
(2.4554 0.00653008 0 5.91221e-05 0 0)
(2.47998 0.00637689 0 5.66122e-05 0 0)
(2.50453 0.00623007 0 5.42223e-05 0 0)
(2.52906 0.00608876 0 5.19501e-05 0 0)
(2.55357 0.00595349 0 4.97964e-05 0 0)
(2.57807 0.00582399 0 4.77607e-05 0 0)
(2.60256 0.0057001 0 4.58409e-05 0 0)
(2.62704 0.00558171 0 4.4034e-05 0 0)
(2.65152 0.0054687 0 4.2337e-05 0 0)
(2.676 0.00536098 0 4.07457e-05 0 0)
(2.70048 0.0052585 0 3.92558e-05 0 0)
(2.72495 0.00516111 0 3.78625e-05 0 0)
(2.74943 0.00506883 0 3.65612e-05 0 0)
(2.7739 0.00498151 0 3.53465e-05 0 0)
(2.79836 0.0048992 0 3.42129e-05 0 0)
(2.82282 0.00482178 0 3.31563e-05 0 0)
(2.84727 0.00474903 0 3.21706e-05 0 0)
(2.8717 0.00468138 0 3.12521e-05 0 0)
(2.89613 0.00461815 0 3.03963e-05 0 0)
(2.92053 0.00455918 0 2.95981e-05 0 0)
(2.94492 0.00450474 0 2.88543e-05 0 0)
(2.96929 0.00445457 0 2.81607e-05 0 0)
(2.99364 0.00440846 0 2.75137e-05 0 0)
(3.01796 0.00436612 0 2.69101e-05 0 0)
(3.04225 0.00432732 0 2.6347e-05 0 0)
(3.06652 0.00429198 0 2.58216e-05 0 0)
(3.09076 0.00425984 0 2.53313e-05 0 0)
(3.11497 0.00423077 0 2.48738e-05 0 0)
(3.13915 0.00420435 0 2.44467e-05 0 0)
(3.1633 0.00418058 0 2.40467e-05 0 0)
(3.18741 0.00415919 0 2.36721e-05 0 0)
(3.21149 0.00413994 0 2.332e-05 0 0)
(3.23552 0.00412316 0 2.29903e-05 0 0)
(3.25952 0.00410809 0 2.26804e-05 0 0)
(3.28348 0.00409487 0 2.2389e-05 0 0)
(3.3074 0.00408357 0 2.21144e-05 0 0)
(3.33128 0.00407397 0 2.18548e-05 0 0)
(3.35511 0.0040659 0 2.16086e-05 0 0)
(3.37891 0.00405935 0 2.13747e-05 0 0)
(3.40266 0.00405427 0 2.11525e-05 0 0)
(3.42636 0.00405059 0 2.09416e-05 0 0)
(3.45003 0.00404826 0 2.07419e-05 0 0)
(3.47367 0.0040472 0 2.05516e-05 0 0)
(3.49727 0.00404731 0 2.03712e-05 0 0)
(3.52084 0.00404842 0 2.01955e-05 0 0)
(3.54438 0.0040503 0 2.00301e-05 0 0)
(3.5679 0.00405289 0 1.98608e-05 0 0)
(3.59138 0.00405632 0 1.97123e-05 0 0)
(3.61484 0.00405996 0 1.95409e-05 0 0)
(3.63824 0.00406575 0 1.94222e-05 0 0)
(3.66162 0.00406884 0 1.92369e-05 0 0)
(3.68491 0.00407928 0 1.91711e-05 0 0)
(3.70817 0.00407814 0 1.89485e-05 0 0)
(3.73129 0.00409793 0 1.89736e-05 0 0)
(3.75436 0.00408609 0 1.86653e-05 0 0)
(3.77718 0.00412493 0 1.88554e-05 0 0)
(3.80003 0.00409055 0 1.83881e-05 0 0)
(3.82219 0.00416962 0 1.88417e-05 0 0)
(3.84506 0.00409365 0 1.8212e-05 0 0)
(3.86554 0.00425304 0 1.89171e-05 0 0)
(3.88953 0.00414884 0 1.84545e-05 0 0)
(3.90494 0.00441486 0 1.90382e-05 0 0)
(3.93519 0.00461592 0 2.0696e-05 0 0)
(0.0334309 0.000455609 0 9.29573e-06 0 0)
(0.00777455 0.000362514 0 0.000105926 0 0)
(0.0168336 8.0526e-05 0 0.000334789 0 0)
(0.0275508 0.000739642 0 0.000717668 0 0)
(0.0403995 0.00203737 0 0.00127283 0 0)
(0.0545009 0.00337798 0 0.00199631 0 0)
(0.0683949 0.00438977 0 0.00283672 0 0)
(0.0821265 0.00497088 0 0.00370086 0 0)
(0.0964219 0.00521482 0 0.004505 0 0)
(0.11098 0.00520434 0 0.00520638 0 0)
(0.125004 0.00491949 0 0.00579033 0 0)
(0.138464 0.00433144 0 0.00625186 0 0)
(0.151877 0.00350202 0 0.0065824 0 0)
(0.165565 0.00254655 0 0.00677581 0 0)
(0.179606 0.00157217 0 0.00683247 0 0)
(0.194092 0.000657273 0 0.00676413 0 0)
(0.209164 -0.000167626 0 0.00659167 0 0)
(0.224944 -0.000917542 0 0.00633779 0 0)
(0.2415 -0.00162579 0 0.00602335 0 0)
(0.258846 -0.00232671 0 0.00566516 0 0)
(0.27697 -0.00304847 0 0.00527667 0 0)
(0.295879 -0.00380955 0 0.00487001 0 0)
(0.315607 -0.00460922 0 0.00445521 0 0)
(0.336209 -0.00542499 0 0.00404213 0 0)
(0.357737 -0.00622063 0 0.00363933 0 0)
(0.380241 -0.00695546 0 0.00325391 0 0)
(0.403755 -0.0075922 0 0.00289169 0 0)
(0.42829 -0.00810374 0 0.00255685 0 0)
(0.453836 -0.00847595 0 0.00225187 0 0)
(0.480355 -0.00870809 0 0.00197754 0 0)
(0.507794 -0.00881068 0 0.00173323 0 0)
(0.536086 -0.00880196 0 0.00151732 0 0)
(0.565156 -0.00870395 0 0.00132765 0 0)
(0.594929 -0.00853885 0 0.00116167 0 0)
(0.625335 -0.00832721 0 0.00101687 0 0)
(0.656313 -0.00808677 0 0.000890855 0 0)
(0.687813 -0.0078313 0 0.000781364 0 0)
(0.719795 -0.00757038 0 0.000686343 0 0)
(0.752226 -0.00731009 0 0.000603964 0 0)
(0.785082 -0.00705392 0 0.000532622 0 0)
(0.818344 -0.00680354 0 0.000470898 0 0)
(0.851998 -0.00655952 0 0.00041753 0 0)
(0.886033 -0.00632178 0 0.000371389 0 0)
(0.920436 -0.00608984 0 0.000331473 0 0)
(0.955195 -0.00586309 0 0.000296899 0 0)
(0.990296 -0.00564078 0 0.000266892 0 0)
(1.02572 -0.00542251 0 0.000240799 0 0)
(1.06145 -0.00520789 0 0.000218058 0 0)
(1.09747 -0.00499647 0 0.000198176 0 0)
(1.13375 -0.00478777 0 0.000180727 0 0)
(1.17027 -0.00458134 0 0.000165348 0 0)
(1.20701 -0.0043768 0 0.000151733 0 0)
(1.24394 -0.00417383 0 0.000139622 0 0)
(1.28103 -0.00397213 0 0.0001288 0 0)
(1.31827 -0.0037715 0 0.000119087 0 0)
(1.35564 -0.00357177 0 0.000110337 0 0)
(1.39311 -0.00337284 0 0.000102427 0 0)
(1.43067 -0.00317465 0 9.52571e-05 0 0)
(1.46831 -0.00297731 0 8.87419e-05 0 0)
(1.506 -0.00278098 0 8.28119e-05 0 0)
(1.54374 -0.00258601 0 7.74104e-05 0 0)
(1.58151 -0.00239266 0 7.24877e-05 0 0)
(1.61932 -0.00220111 0 6.80011e-05 0 0)
(1.65714 -0.00201143 0 6.39125e-05 0 0)
(1.69498 -0.00182365 0 6.01885e-05 0 0)
(1.73282 -0.00163767 0 5.67984e-05 0 0)
(1.77067 -0.00145335 0 5.37151e-05 0 0)
(1.80851 -0.00127045 0 5.09129e-05 0 0)
(1.84634 -0.0010887 0 4.83691e-05 0 0)
(1.88416 -0.000907846 0 4.60619e-05 0 0)
(1.92195 -0.000727683 0 4.39719e-05 0 0)
(1.95971 -0.000548066 0 4.20807e-05 0 0)
(1.99744 -0.000368924 0 4.03718e-05 0 0)
(2.03512 -0.00019028 0 3.88292e-05 0 0)
(2.07276 -1.22274e-05 0 3.74384e-05 0 0)
(2.11034 0.000165093 0 3.61854e-05 0 0)
(2.14786 0.000341416 0 3.50577e-05 0 0)
(2.18531 0.000516552 0 3.40429e-05 0 0)
(2.22269 0.000690275 0 3.31295e-05 0 0)
(2.26 0.000862388 0 3.23072e-05 0 0)
(2.29722 0.00103266 0 3.15668e-05 0 0)
(2.33437 0.00120093 0 3.08994e-05 0 0)
(2.37142 0.00136709 0 3.02975e-05 0 0)
(2.40839 0.00153108 0 2.97539e-05 0 0)
(2.44527 0.00169286 0 2.92633e-05 0 0)
(2.48205 0.00185241 0 2.8821e-05 0 0)
(2.51875 0.00200969 0 2.84231e-05 0 0)
(2.55534 0.0021647 0 2.80663e-05 0 0)
(2.59184 0.00231741 0 2.77481e-05 0 0)
(2.62824 0.00246787 0 2.7466e-05 0 0)
(2.66453 0.00261609 0 2.72182e-05 0 0)
(2.70073 0.00276199 0 2.70029e-05 0 0)
(2.73682 0.00290557 0 2.68189e-05 0 0)
(2.77281 0.00304672 0 2.66643e-05 0 0)
(2.8087 0.00318545 0 2.65379e-05 0 0)
(2.84448 0.00332156 0 2.64377e-05 0 0)
(2.88015 0.00345522 0 2.63624e-05 0 0)
(2.91573 0.00358619 0 2.63096e-05 0 0)
(2.95121 0.00371478 0 2.62786e-05 0 0)
(2.98659 0.00384061 0 2.62651e-05 0 0)
(3.02188 0.00396412 0 2.62712e-05 0 0)
(3.05707 0.00408452 0 2.62881e-05 0 0)
(3.09218 0.00420288 0 2.6324e-05 0 0)
(3.12721 0.00431743 0 2.63617e-05 0 0)
(3.16214 0.00443104 0 2.64211e-05 0 0)
(3.19699 0.00453953 0 2.64692e-05 0 0)
(3.23173 0.00464986 0 2.65496e-05 0 0)
(3.2664 0.00475182 0 2.65989e-05 0 0)
(3.30089 0.00486178 0 2.67016e-05 0 0)
(3.33537 0.00495526 0 2.67454e-05 0 0)
(3.36946 0.00507016 0 2.68714e-05 0 0)
(3.40381 0.00515189 0 2.69149e-05 0 0)
(3.43718 0.00528057 0 2.70573e-05 0 0)
(3.47164 0.0053505 0 2.71473e-05 0 0)
(3.50353 0.00550575 0 2.7275e-05 0 0)
(3.53896 0.00558558 0 2.75946e-05 0 0)
(3.56752 0.00577944 0 2.76352e-05 0 0)
(3.60631 0.00598457 0 2.88348e-05 0 0)
(3.62687 0.00617678 0 2.86392e-05 0 0)
(3.67838 0.00690283 0 3.34116e-05 0 0)
(0.033417 0.000275947 0 3.66949e-06 0 0)
(0.00770044 0.000223462 0 4.32098e-05 0 0)
(0.0168022 1.39428e-05 0 0.000142297 0 0)
(0.027131 0.000388634 0 0.000315709 0 0)
(0.0392612 0.00117248 0 0.000573463 0 0)
(0.0527627 0.00200925 0 0.0009178 0 0)
(0.0664472 0.00272597 0 0.00133334 0 0)
(0.0805849 0.00334395 0 0.00178555 0 0)
(0.0961376 0.00397008 0 0.00223456 0 0)
(0.112883 0.00466153 0 0.00264947 0 0)
(0.129926 0.0053902 0 0.00300974 0 0)
(0.147099 0.00612122 0 0.00330182 0 0)
(0.164775 0.00685832 0 0.00351502 0 0)
(0.183102 0.00762234 0 0.00364274 0 0)
(0.201996 0.0084279 0 0.00368893 0 0)
(0.221402 0.00926624 0 0.00366518 0 0)
(0.241326 0.0100941 0 0.00358552 0 0)
(0.261767 0.0108429 0 0.0034626 0 0)
(0.282682 0.0114463 0 0.00330721 0 0)
(0.303968 0.011858 0 0.00312852 0 0)
(0.325477 0.0120552 0 0.00293417 0 0)
(0.347061 0.0120369 0 0.00273068 0 0)
(0.368601 0.0118241 0 0.00252367 0 0)
(0.390005 0.0114574 0 0.00231831 0 0)
(0.411203 0.0109878 0 0.00211918 0 0)
(0.432153 0.0104659 0 0.00193012 0 0)
(0.452841 0.00993405 0 0.00175387 0 0)
(0.473279 0.00942347 0 0.00159206 0 0)
(0.493492 0.00895391 0 0.00144551 0 0)
(0.513508 0.00853431 0 0.0013142 0 0)
(0.53336 0.00816523 0 0.00119745 0 0)
(0.553082 0.0078418 0 0.00109432 0 0)
(0.572703 0.00755641 0 0.00100371 0 0)
(0.59225 0.00730103 0 0.000924426 0 0)
(0.611745 0.00706893 0 0.000855099 0 0)
(0.631209 0.00685461 0 0.000794476 0 0)
(0.650659 0.00665374 0 0.000741523 0 0)
(0.670112 0.00646317 0 0.000695373 0 0)
(0.689583 0.00628066 0 0.000655252 0 0)
(0.709088 0.00610447 0 0.000620448 0 0)
(0.72864 0.00593306 0 0.000590302 0 0)
(0.748253 0.00576506 0 0.000564211 0 0)
(0.767939 0.00559936 0 0.000541623 0 0)
(0.78771 0.00543516 0 0.000522036 0 0)
(0.807578 0.00527203 0 0.000504989 0 0)
(0.827552 0.00510995 0 0.000490053 0 0)
(0.847643 0.00494911 0 0.000476809 0 0)
(0.867857 0.00479013 0 0.000464894 0 0)
(0.8882 0.00463398 0 0.000454016 0 0)
(0.908677 0.00448178 0 0.000443946 0 0)
(0.92929 0.00433458 0 0.0004345 0 0)
(0.950044 0.00419321 0 0.000425528 0 0)
(0.970938 0.00405817 0 0.000416909 0 0)
(0.991975 0.00392959 0 0.000408543 0 0)
(1.01315 0.00380722 0 0.000400355 0 0)
(1.03447 0.00369051 0 0.000392285 0 0)
(1.05594 0.00357864 0 0.000384287 0 0)
(1.07754 0.00347065 0 0.000376323 0 0)
(1.09929 0.00336549 0 0.000368363 0 0)
(1.12118 0.00326222 0 0.000360394 0 0)
(1.14321 0.00315995 0 0.000352412 0 0)
(1.16539 0.003058 0 0.000344423 0 0)
(1.18772 0.00295584 0 0.000336435 0 0)
(1.21019 0.00285322 0 0.000328462 0 0)
(1.23281 0.00275006 0 0.000320521 0 0)
(1.25557 0.00264654 0 0.000312629 0 0)
(1.27849 0.002543 0 0.000304807 0 0)
(1.30156 0.00243996 0 0.000297071 0 0)
(1.32479 0.00233803 0 0.000289434 0 0)
(1.34817 0.00223788 0 0.000281908 0 0)
(1.3717 0.00214015 0 0.000274503 0 0)
(1.39539 0.00204548 0 0.000267223 0 0)
(1.41924 0.00195436 0 0.000260073 0 0)
(1.44325 0.00186725 0 0.000253056 0 0)
(1.46741 0.00178439 0 0.000246172 0 0)
(1.49174 0.00170598 0 0.000239422 0 0)
(1.51621 0.00163199 0 0.000232802 0 0)
(1.54085 0.00156237 0 0.000226312 0 0)
(1.56563 0.00149696 0 0.000219947 0 0)
(1.59057 0.0014356 0 0.000213703 0 0)
(1.61565 0.00137802 0 0.000207579 0 0)
(1.64087 0.00132402 0 0.000201571 0 0)
(1.66624 0.00127336 0 0.000195676 0 0)
(1.69175 0.00122591 0 0.000189893 0 0)
(1.71739 0.00118149 0 0.000184223 0 0)
(1.74317 0.00114006 0 0.000178664 0 0)
(1.76907 0.00110148 0 0.000173221 0 0)
(1.7951 0.00106577 0 0.000167894 0 0)
(1.82125 0.00103285 0 0.000162688 0 0)
(1.84753 0.00100279 0 0.000157603 0 0)
(1.87391 0.000975551 0 0.000152645 0 0)
(1.90041 0.000951168 0 0.000147813 0 0)
(1.92702 0.000929574 0 0.000143116 0 0)
(1.95374 0.000910801 0 0.000138551 0 0)
(1.98056 0.000894734 0 0.000134125 0 0)
(2.00748 0.000881385 0 0.000129833 0 0)
(2.03451 0.000870534 0 0.000125682 0 0)
(2.06164 0.000862261 0 0.00012166 0 0)
(2.08887 0.000856247 0 0.000117777 0 0)
(2.11619 0.00085271 0 0.000114015 0 0)
(2.14362 0.000851178 0 0.000110394 0 0)
(2.17115 0.000852018 0 0.000106884 0 0)
(2.19879 0.000854573 0 0.000103516 0 0)
(2.22651 0.000859441 0 0.000100241 0 0)
(2.25435 0.000865788 0 9.7114e-05 0 0)
(2.28226 0.000874446 0 9.40437e-05 0 0)
(2.31027 0.000884578 0 9.1142e-05 0 0)
(2.33833 0.000896729 0 8.8229e-05 0 0)
(2.36646 0.000911224 0 8.55512e-05 0 0)
(2.39463 0.000926458 0 8.2733e-05 0 0)
(2.42277 0.000946893 0 8.03049e-05 0 0)
(2.45103 0.000965578 0 7.74884e-05 0 0)
(2.47892 0.000995149 0 7.53808e-05 0 0)
(2.50739 0.00102226 0 7.24004e-05 0 0)
(2.53448 0.00106692 0 7.07687e-05 0 0)
(2.56372 0.00112496 0 6.73174e-05 0 0)
(2.58871 0.00119308 0 6.64779e-05 0 0)
(2.62047 0.00135994 0 6.21057e-05 0 0)
(2.64003 0.00143889 0 6.25166e-05 0 0)
(2.68294 0.0019052 0 5.70247e-05 0 0)
(0.033418 0.000192998 0 1.87351e-06 0 0)
(0.00770256 0.00015827 0 2.18577e-05 0 0)
(0.016793 8.13311e-06 0 7.20101e-05 0 0)
(0.0270372 0.000268195 0 0.000159776 0 0)
(0.0389994 0.000802874 0 0.000287699 0 0)
(0.0522302 0.0013499 0 0.00045344 0 0)
(0.0655174 0.00180439 0 0.000648781 0 0)
(0.0791699 0.00219577 0 0.000858949 0 0)
(0.0942249 0.00258863 0 0.00106613 0 0)
(0.110505 0.00301712 0 0.00125547 0 0)
(0.127139 0.00347695 0 0.00141785 0 0)
(0.143993 0.00395862 0 0.00154888 0 0)
(0.161476 0.00446757 0 0.00164708 0 0)
(0.179776 0.00501756 0 0.00171316 0 0)
(0.198845 0.00561907 0 0.00175034 0 0)
(0.218657 0.00627023 0 0.00176334 0 0)
(0.239255 0.00695199 0 0.00175704 0 0)
(0.260692 0.00763229 0 0.00173541 0 0)
(0.282995 0.00827732 0 0.00170122 0 0)
(0.30611 0.00885901 0 0.00165644 0 0)
(0.32991 0.00935603 0 0.00160285 0 0)
(0.354244 0.00975347 0 0.00154217 0 0)
(0.378972 0.0100453 0 0.00147605 0 0)
(0.403972 0.0102357 0 0.00140599 0 0)
(0.429136 0.0103395 0 0.00133367 0 0)
(0.454375 0.0103756 0 0.0012607 0 0)
(0.479633 0.0103636 0 0.00118858 0 0)
(0.504882 0.0103202 0 0.00111853 0 0)
(0.530117 0.0102591 0 0.00105147 0 0)
(0.555345 0.0101906 0 0.000988024 0 0)
(0.580582 0.0101217 0 0.00092861 0 0)
(0.605846 0.0100563 0 0.000873396 0 0)
(0.631151 0.00999568 0 0.000822407 0 0)
(0.656513 0.00993957 0 0.000775576 0 0)
(0.68194 0.00988682 0 0.000732783 0 0)
(0.707441 0.00983594 0 0.000693832 0 0)
(0.733019 0.00978552 0 0.000658512 0 0)
(0.758677 0.00973418 0 0.000626569 0 0)
(0.784415 0.00968087 0 0.00059775 0 0)
(0.810235 0.00962481 0 0.000571775 0 0)
(0.836135 0.0095658 0 0.000548381 0 0)
(0.862115 0.00950405 0 0.0005273 0 0)
(0.888176 0.00944032 0 0.000508295 0 0)
(0.914315 0.00937567 0 0.00049113 0 0)
(0.940533 0.00931147 0 0.000475598 0 0)
(0.966826 0.00924904 0 0.000461488 0 0)
(0.993194 0.00918955 0 0.000448592 0 0)
(1.01963 0.00913397 0 0.000436711 0 0)
(1.04615 0.00908335 0 0.000425702 0 0)
(1.07273 0.00903848 0 0.000415441 0 0)
(1.09938 0.00899995 0 0.00040584 0 0)
(1.1261 0.00896788 0 0.000396813 0 0)
(1.15288 0.00894215 0 0.000388297 0 0)
(1.17974 0.00892216 0 0.000380228 0 0)
(1.20665 0.00890721 0 0.000372559 0 0)
(1.23363 0.00889625 0 0.000365244 0 0)
(1.26066 0.00888833 0 0.000358257 0 0)
(1.28775 0.00888239 0 0.000351574 0 0)
(1.31489 0.0088775 0 0.000345186 0 0)
(1.34208 0.00887257 0 0.000339067 0 0)
(1.36932 0.00886671 0 0.0003332 0 0)
(1.39659 0.00885901 0 0.000327557 0 0)
(1.42391 0.00884888 0 0.000322124 0 0)
(1.45125 0.00883577 0 0.000316875 0 0)
(1.47862 0.00881954 0 0.000311805 0 0)
(1.50602 0.00880006 0 0.000306894 0 0)
(1.53343 0.00877756 0 0.000302144 0 0)
(1.56086 0.00875223 0 0.000297541 0 0)
(1.58831 0.00872458 0 0.000293086 0 0)
(1.61575 0.0086949 0 0.000288767 0 0)
(1.64321 0.00866377 0 0.000284582 0 0)
(1.67066 0.00863147 0 0.000280516 0 0)
(1.69812 0.0085985 0 0.000276569 0 0)
(1.72557 0.00856505 0 0.000272724 0 0)
(1.75302 0.00853148 0 0.000268981 0 0)
(1.78046 0.0084978 0 0.00026532 0 0)
(1.80789 0.00846425 0 0.000261743 0 0)
(1.83531 0.00843069 0 0.000258232 0 0)
(1.86271 0.00839726 0 0.000254787 0 0)
(1.8901 0.00836373 0 0.000251391 0 0)
(1.91747 0.0083302 0 0.000248046 0 0)
(1.94482 0.0082964 0 0.000244735 0 0)
(1.97215 0.00826245 0 0.000241464 0 0)
(1.99945 0.00822806 0 0.000238216 0 0)
(2.02673 0.00819335 0 0.000235 0 0)
(2.05397 0.00815806 0 0.000231801 0 0)
(2.08118 0.00812238 0 0.00022863 0 0)
(2.10835 0.00808602 0 0.000225475 0 0)
(2.13549 0.0080492 0 0.000222349 0 0)
(2.16258 0.00801163 0 0.000219238 0 0)
(2.18963 0.00797359 0 0.000216159 0 0)
(2.21664 0.00793473 0 0.000213098 0 0)
(2.2436 0.00789539 0 0.000210073 0 0)
(2.27052 0.00785522 0 0.000207068 0 0)
(2.29739 0.00781459 0 0.000204107 0 0)
(2.32421 0.00777307 0 0.000201165 0 0)
(2.35099 0.00773111 0 0.000198272 0 0)
(2.37772 0.00768819 0 0.000195396 0 0)
(2.40441 0.00764492 0 0.000192573 0 0)
(2.43105 0.00760058 0 0.000189759 0 0)
(2.45766 0.00755613 0 0.00018701 0 0)
(2.48423 0.00751043 0 0.000184254 0 0)
(2.51078 0.00746522 0 0.000181588 0 0)
(2.53728 0.00741824 0 0.000178875 0 0)
(2.56377 0.00737291 0 0.000176305 0 0)
(2.59019 0.00732433 0 0.000173596 0 0)
(2.61662 0.00727979 0 0.000171144 0 0)
(2.64294 0.00722846 0 0.000168362 0 0)
(2.66928 0.00718663 0 0.000166087 0 0)
(2.69543 0.0071302 0 0.000163101 0 0)
(2.7216 0.00709523 0 0.000161138 0 0)
(2.74756 0.00702993 0 0.000157711 0 0)
(2.77338 0.00701029 0 0.000156334 0 0)
(2.79919 0.00693111 0 0.000152021 0 0)
(2.82426 0.00694312 0 0.000151747 0 0)
(2.8503 0.00684645 0 0.000145702 0 0)
(2.87368 0.00691578 0 0.000147394 0 0)
(2.90126 0.00680327 0 0.000138059 0 0)
(2.92042 0.00693664 0 0.000142406 0 0)
(2.9577 0.00679666 0 0.000126781 0 0)
(0.0334183 0.000113194 0 6.57923e-07 0 0)
(0.00770263 9.29092e-05 0 7.63255e-06 0 0)
(0.0167877 4.27716e-06 0 2.49618e-05 0 0)
(0.0269804 0.000153625 0 5.49721e-05 0 0)
(0.0388532 0.000457233 0 9.81633e-05 0 0)
(0.0519665 0.000763875 0 0.000153411 0 0)
(0.0650909 0.00101959 0 0.000218115 0 0)
(0.0785397 0.00124432 0 0.00028798 0 0)
(0.0933855 0.00147177 0 0.000357661 0 0)
(0.109471 0.00171754 0 0.000422384 0 0)
(0.125924 0.00197858 0 0.000479104 0 0)
(0.1426 0.00225074 0 0.000526432 0 0)
(0.159904 0.00253884 0 0.000563973 0 0)
(0.178017 0.00285236 0 0.00059174 0 0)
(0.196874 0.00319883 0 0.000609942 0 0)
(0.216422 0.00357924 0 0.000619108 0 0)
(0.236678 0.00398357 0 0.000620032 0 0)
(0.257679 0.0043903 0 0.000613616 0 0)
(0.279448 0.00477195 0 0.000600562 0 0)
(0.301945 0.00510305 0 0.000581516 0 0)
(0.325066 0.00536469 0 0.000557289 0 0)
(0.348693 0.00554574 0 0.000528865 0 0)
(0.372727 0.00564414 0 0.000497424 0 0)
(0.397087 0.0056675 0 0.00046424 0 0)
(0.421698 0.00563072 0 0.000430511 0 0)
(0.446493 0.00555199 0 0.00039728 0 0)
(0.471423 0.00544837 0 0.000365321 0 0)
(0.496462 0.00533388 0 0.000335103 0 0)
(0.5216 0.00521937 0 0.000306906 0 0)
(0.546836 0.0051126 0 0.000280879 0 0)
(0.572174 0.00501788 0 0.000257103 0 0)
(0.597623 0.00493637 0 0.000235567 0 0)
(0.623193 0.00486703 0 0.000216188 0 0)
(0.648892 0.00480773 0 0.000198845 0 0)
(0.674727 0.00475594 0 0.000183388 0 0)
(0.700703 0.00470927 0 0.000169652 0 0)
(0.726823 0.00466567 0 0.000157466 0 0)
(0.753089 0.00462353 0 0.000146665 0 0)
(0.779502 0.00458186 0 0.0001371 0 0)
(0.806062 0.0045403 0 0.000128638 0 0)
(0.832769 0.00449904 0 0.00012116 0 0)
(0.85962 0.00445858 0 0.000114562 0 0)
(0.886616 0.00441957 0 0.000108746 0 0)
(0.913755 0.0043827 0 0.000103622 0 0)
(0.941035 0.00434866 0 9.91103e-05 0 0)
(0.968455 0.0043182 0 9.51397e-05 0 0)
(0.996014 0.00429224 0 9.16574e-05 0 0)
(1.02371 0.00427169 0 8.86168e-05 0 0)
(1.05155 0.00425717 0 8.59696e-05 0 0)
(1.07953 0.00424912 0 8.36681e-05 0 0)
(1.10765 0.00424766 0 8.16659e-05 0 0)
(1.13592 0.00425277 0 7.99218e-05 0 0)
(1.16434 0.00426419 0 7.83978e-05 0 0)
(1.1929 0.00428149 0 7.70616e-05 0 0)
(1.22162 0.0043041 0 7.5884e-05 0 0)
(1.25048 0.00433134 0 7.48414e-05 0 0)
(1.2795 0.0043625 0 7.39153e-05 0 0)
(1.30866 0.00439693 0 7.30954e-05 0 0)
(1.33797 0.00443392 0 7.23725e-05 0 0)
(1.36743 0.00447269 0 7.17364e-05 0 0)
(1.39703 0.00451243 0 7.11749e-05 0 0)
(1.42677 0.00455241 0 7.06763e-05 0 0)
(1.45664 0.00459197 0 7.02294e-05 0 0)
(1.48663 0.00463061 0 6.98254e-05 0 0)
(1.51675 0.00466795 0 6.94559e-05 0 0)
(1.54698 0.00470375 0 6.91142e-05 0 0)
(1.57733 0.00473783 0 6.8793e-05 0 0)
(1.60778 0.00477016 0 6.84863e-05 0 0)
(1.63832 0.00480077 0 6.81894e-05 0 0)
(1.66896 0.00482982 0 6.78994e-05 0 0)
(1.69969 0.00485749 0 6.76136e-05 0 0)
(1.73051 0.004884 0 6.73304e-05 0 0)
(1.7614 0.00490956 0 6.70478e-05 0 0)
(1.79238 0.00493435 0 6.67645e-05 0 0)
(1.82343 0.00495855 0 6.64787e-05 0 0)
(1.85455 0.00498229 0 6.61893e-05 0 0)
(1.88574 0.00500564 0 6.58948e-05 0 0)
(1.917 0.00502868 0 6.55941e-05 0 0)
(1.94832 0.00505142 0 6.52858e-05 0 0)
(1.9797 0.00507386 0 6.49689e-05 0 0)
(2.01114 0.00509598 0 6.46422e-05 0 0)
(2.04264 0.00511776 0 6.43051e-05 0 0)
(2.07419 0.00513915 0 6.39565e-05 0 0)
(2.10578 0.0051601 0 6.35965e-05 0 0)
(2.13742 0.00518058 0 6.32245e-05 0 0)
(2.16911 0.00520058 0 6.28411e-05 0 0)
(2.20083 0.00522006 0 6.24465e-05 0 0)
(2.23258 0.00523901 0 6.20416e-05 0 0)
(2.26437 0.00525742 0 6.16271e-05 0 0)
(2.29618 0.00527525 0 6.12043e-05 0 0)
(2.32802 0.00529249 0 6.07744e-05 0 0)
(2.35987 0.00530911 0 6.03384e-05 0 0)
(2.39174 0.00532513 0 5.9898e-05 0 0)
(2.42363 0.00534051 0 5.94539e-05 0 0)
(2.45553 0.00535533 0 5.90084e-05 0 0)
(2.48743 0.00536951 0 5.85607e-05 0 0)
(2.51935 0.00538319 0 5.81148e-05 0 0)
(2.55127 0.0053962 0 5.76666e-05 0 0)
(2.5832 0.00540882 0 5.72237e-05 0 0)
(2.61514 0.00542067 0 5.67765e-05 0 0)
(2.64708 0.00543235 0 5.63401e-05 0 0)
(2.67903 0.00544303 0 5.58935e-05 0 0)
(2.711 0.00545401 0 5.54683e-05 0 0)
(2.74297 0.00546339 0 5.50176e-05 0 0)
(2.77495 0.00547401 0 5.46089e-05 0 0)
(2.80692 0.00548163 0 5.41405e-05 0 0)
(2.8389 0.00549249 0 5.37571e-05 0 0)
(2.87085 0.0054972 0 5.32433e-05 0 0)
(2.90279 0.00550952 0 5.29066e-05 0 0)
(2.93466 0.00550918 0 5.22989e-05 0 0)
(2.96644 0.00552573 0 5.20577e-05 0 0)
(2.99825 0.00551688 0 5.12697e-05 0 0)
(3.02962 0.0055435 0 5.12236e-05 0 0)
(3.06151 0.00552126 0 5.00946e-05 0 0)
(3.0919 0.00556904 0 5.04223e-05 0 0)
(3.12451 0.00552688 0 4.86549e-05 0 0)
(3.15254 0.00561067 0 4.96012e-05 0 0)
(3.18778 0.00553596 0 4.66321e-05 0 0)
(3.20993 0.00565104 0 4.82325e-05 0 0)
(3.25745 0.00550519 0 4.29972e-05 0 0)
(0.0334183 3.57158e-05 0 6.07473e-08 0 0)
(0.0077015 2.76358e-05 0 7.2796e-07 0 0)
(0.0167843 4.68495e-07 0 2.40929e-06 0 0)
(0.0269534 4.93992e-05 0 5.32619e-06 0 0)
(0.0387844 0.00014378 0 9.51193e-06 0 0)
(0.0518444 0.000237576 0 1.48424e-05 0 0)
(0.0648975 0.000318188 0 2.10747e-05 0 0)
(0.0782567 0.000393285 0 2.78347e-05 0 0)
(0.0930071 0.000471035 0 3.46583e-05 0 0)
(0.109004 0.000553944 0 4.11153e-05 0 0)
(0.12538 0.000641405 0 4.69012e-05 0 0)
(0.141993 0.000734121 0 5.18423e-05 0 0)
(0.159243 0.000834746 0 5.58322e-05 0 0)
(0.177303 0.000945876 0 5.87967e-05 0 0)
(0.196097 0.00106866 0 6.06789e-05 0 0)
(0.215559 0.00120193 0 6.14814e-05 0 0)
(0.235686 0.00134017 0 6.12595e-05 0 0)
(0.256503 0.00147335 0 6.01049e-05 0 0)
(0.278038 0.00159053 0 5.81652e-05 0 0)
(0.300268 0.00168432 0 5.56199e-05 0 0)
(0.323111 0.00175227 0 5.26327e-05 0 0)
(0.346462 0.00179618 0 4.93548e-05 0 0)
(0.370237 0.0018209 0 4.59496e-05 0 0)
(0.39436 0.00183342 0 4.25909e-05 0 0)
(0.418758 0.00184127 0 3.9433e-05 0 0)
(0.443357 0.00185042 0 3.65677e-05 0 0)
(0.468102 0.00186443 0 3.40329e-05 0 0)
(0.492963 0.00188411 0 3.18306e-05 0 0)
(0.517928 0.00190879 0 2.99348e-05 0 0)
(0.542994 0.00193733 0 2.8316e-05 0 0)
(0.568167 0.00196839 0 2.69386e-05 0 0)
(0.593454 0.00200053 0 2.57712e-05 0 0)
(0.618864 0.00203231 0 2.47849e-05 0 0)
(0.644407 0.00206268 0 2.39527e-05 0 0)
(0.67009 0.00209096 0 2.32474e-05 0 0)
(0.695918 0.00211695 0 2.26447e-05 0 0)
(0.721893 0.00214064 0 2.21226e-05 0 0)
(0.748017 0.00216221 0 2.16632e-05 0 0)
(0.774289 0.00218181 0 2.12521e-05 0 0)
(0.800709 0.00219966 0 2.08795e-05 0 0)
(0.827275 0.00221598 0 2.05392e-05 0 0)
(0.853986 0.00223102 0 2.02281e-05 0 0)
(0.88084 0.00224507 0 1.99445e-05 0 0)
(0.907834 0.00225845 0 1.96877e-05 0 0)
(0.934968 0.00227161 0 1.94576e-05 0 0)
(0.96224 0.00228508 0 1.92552e-05 0 0)
(0.989651 0.0022995 0 1.90818e-05 0 0)
(1.0172 0.00231549 0 1.89377e-05 0 0)
(1.04489 0.00233351 0 1.88207e-05 0 0)
(1.07272 0.00235385 0 1.87269e-05 0 0)
(1.10069 0.00237664 0 1.86521e-05 0 0)
(1.12882 0.00240188 0 1.85926e-05 0 0)
(1.15709 0.00242941 0 1.85452e-05 0 0)
(1.18551 0.00245895 0 1.85074e-05 0 0)
(1.21409 0.00249009 0 1.84767e-05 0 0)
(1.24282 0.00252234 0 1.84506e-05 0 0)
(1.27171 0.00255517 0 1.8427e-05 0 0)
(1.30076 0.00258801 0 1.84028e-05 0 0)
(1.32997 0.00262031 0 1.83751e-05 0 0)
(1.35934 0.00265163 0 1.83419e-05 0 0)
(1.38885 0.00268162 0 1.83014e-05 0 0)
(1.41851 0.00271004 0 1.82528e-05 0 0)
(1.44832 0.00273674 0 1.81952e-05 0 0)
(1.47827 0.00276167 0 1.81287e-05 0 0)
(1.50835 0.00278484 0 1.8053e-05 0 0)
(1.53855 0.00280634 0 1.79684e-05 0 0)
(1.56888 0.00282626 0 1.78746e-05 0 0)
(1.59933 0.00284471 0 1.77717e-05 0 0)
(1.62989 0.00286185 0 1.766e-05 0 0)
(1.66055 0.00287784 0 1.75403e-05 0 0)
(1.69132 0.00289286 0 1.74131e-05 0 0)
(1.72218 0.00290705 0 1.72794e-05 0 0)
(1.75314 0.00292054 0 1.71401e-05 0 0)
(1.78419 0.00293346 0 1.69959e-05 0 0)
(1.81532 0.00294589 0 1.68474e-05 0 0)
(1.84654 0.00295794 0 1.66954e-05 0 0)
(1.87784 0.00296964 0 1.65405e-05 0 0)
(1.90922 0.00298105 0 1.63833e-05 0 0)
(1.94068 0.00299222 0 1.62243e-05 0 0)
(1.97222 0.00300319 0 1.60641e-05 0 0)
(2.00383 0.003014 0 1.59028e-05 0 0)
(2.03551 0.00302466 0 1.57409e-05 0 0)
(2.06725 0.00303519 0 1.55786e-05 0 0)
(2.09907 0.00304561 0 1.54164e-05 0 0)
(2.13095 0.00305592 0 1.52545e-05 0 0)
(2.16289 0.00306615 0 1.50932e-05 0 0)
(2.19488 0.00307629 0 1.49328e-05 0 0)
(2.22693 0.00308633 0 1.47737e-05 0 0)
(2.25904 0.00309629 0 1.4616e-05 0 0)
(2.29119 0.00310617 0 1.44601e-05 0 0)
(2.32339 0.00311598 0 1.43064e-05 0 0)
(2.35563 0.00312572 0 1.41551e-05 0 0)
(2.38791 0.00313537 0 1.40063e-05 0 0)
(2.42022 0.00314489 0 1.38602e-05 0 0)
(2.45257 0.00315427 0 1.37169e-05 0 0)
(2.48496 0.00316346 0 1.35762e-05 0 0)
(2.51737 0.00317246 0 1.34384e-05 0 0)
(2.54982 0.00318119 0 1.33029e-05 0 0)
(2.5823 0.00318972 0 1.31704e-05 0 0)
(2.61482 0.00319795 0 1.30395e-05 0 0)
(2.64736 0.00320609 0 1.29122e-05 0 0)
(2.67994 0.00321386 0 1.27851e-05 0 0)
(2.71256 0.00322167 0 1.26624e-05 0 0)
(2.7452 0.00322885 0 1.25374e-05 0 0)
(2.77788 0.00323625 0 1.24191e-05 0 0)
(2.81058 0.00324248 0 1.2293e-05 0 0)
(2.84332 0.00324942 0 1.2179e-05 0 0)
(2.87605 0.00325413 0 1.20471e-05 0 0)
(2.90879 0.00326068 0 1.19392e-05 0 0)
(2.94152 0.00326299 0 1.17938e-05 0 0)
(2.97414 0.00326949 0 1.16978e-05 0 0)
(3.00688 0.00326798 0 1.15264e-05 0 0)
(3.03911 0.00327543 0 1.14576e-05 0 0)
(3.07203 0.0032681 0 1.12375e-05 0 0)
(3.10328 0.003279 0 1.12267e-05 0 0)
(3.13708 0.00326288 0 1.09127e-05 0 0)
(3.16588 0.00328152 0 1.10108e-05 0 0)
(3.20258 0.00324956 0 1.05038e-05 0 0)
(3.22517 0.00327762 0 1.07315e-05 0 0)
(3.27464 0.00320128 0 9.76841e-06 0 0)
(0.0334183 -4.08489e-05 0 1.08396e-07 0 0)
(0.00770131 -3.69222e-05 0 1.14701e-06 0 0)
(0.0167842 -2.3133e-06 0 3.57621e-06 0 0)
(0.0269533 -4.95652e-05 0 7.65766e-06 0 0)
(0.0387837 -0.000157238 0 1.34569e-05 0 0)
(0.0518426 -0.000268646 0 2.08329e-05 0 0)
(0.0648954 -0.000357699 0 2.94636e-05 0 0)
(0.0782556 -0.000430666 0 3.88327e-05 0 0)
(0.093008 -0.000502519 0 4.82746e-05 0 0)
(0.109008 -0.000579517 0 5.71746e-05 0 0)
(0.125387 -0.000659008 0 6.51014e-05 0 0)
(0.142003 -0.000738781 0 7.1838e-05 0 0)
(0.159254 -0.000820904 0 7.72911e-05 0 0)
(0.177316 -0.000909333 0 8.14245e-05 0 0)
(0.196111 -0.00100765 0 8.42143e-05 0 0)
(0.215573 -0.00111733 0 8.56997e-05 0 0)
(0.235699 -0.00123506 0 8.59352e-05 0 0)
(0.256516 -0.00135219 0 8.49729e-05 0 0)
(0.278052 -0.0014575 0 8.28094e-05 0 0)
(0.300285 -0.00154183 0 7.94868e-05 0 0)
(0.323131 -0.0016008 0 7.5169e-05 0 0)
(0.346485 -0.00163459 0 7.01281e-05 0 0)
(0.37026 -0.00164649 0 6.4683e-05 0 0)
(0.394384 -0.00164199 0 5.91752e-05 0 0)
(0.41878 -0.00162718 0 5.38936e-05 0 0)