/*--------------------------------*- C++ -*----------------------------------*\
  =========                 |
  \\      /  F ield         | OpenFOAM: The Open Source CFD Toolbox
   \\    /   O peration     | Website:  https://openfoam.org
    \\  /    A nd           | Version:  7
     \\/     M anipulation  |
\*---------------------------------------------------------------------------*/
FoamFile
{
    version     2.0;
    format      ascii;
    class       volVectorField;
    location    "2.425";
    object      UMean;
}
// * * * * * * * * * * * * * * * * * * * * * * * * * * * * * * * * * * * * * //

dimensions      [0 1 -1 0 0 0 0];

internalField   nonuniform List<vector> 
7920
(
(-3.08927 -9.01853 -243.701)
(2.41518 -10.2535 -250.323)
(-0.342636 -10.6564 -249.767)
(1.24826 -10.4707 -250.158)
(0.382682 -10.607 -249.976)
(0.962847 -10.5423 -250.068)
(0.641589 -10.5893 -250.003)
(0.874292 -10.5652 -250.029)
(0.750404 -10.5809 -250.003)
(0.855482 -10.5703 -250.008)
(0.808648 -10.5731 -249.995)
(0.871799 -10.5673 -249.993)
(0.85688 -10.5618 -249.984)
(0.92333 -10.5577 -249.977)
(0.921207 -10.5411 -249.97)
(1.03896 -10.5381 -249.956)
(1.03878 -10.4968 -249.955)
(1.2956 -10.4947 -249.918)
(1.29446 -10.3657 -249.932)
(1.56399 -10.3382 -250.151)
(-2.10657 5.56245 -271.353)
(5.35506 5.41337 -278.483)
(0.407658 5.34566 -280.948)
(3.33739 5.41734 -280.958)
(1.60175 5.33907 -281.424)
(2.74806 5.38061 -281.31)
(2.09518 5.35271 -281.424)
(2.56866 5.36837 -281.356)
(2.31474 5.3581 -281.366)
(2.53285 5.36432 -281.315)
(2.4364 5.36109 -281.274)
(2.57021 5.36316 -281.223)
(2.53841 5.36375 -281.133)
(2.67997 5.36283 -281.075)
(2.66983 5.36743 -280.902)
(2.91583 5.36114 -280.823)
(2.89362 5.37585 -280.469)
(3.44305 5.35147 -280.323)
(3.35252 5.41324 -279.416)
(4.81505 5.4805 -278.336)
(-2.7938 -2.59804 -272.605)
(7.54556 -3.28682 -282.114)
(1.46119 -4.09974 -284.544)
(5.21375 -3.87665 -285.778)
(3.07588 -4.10178 -285.88)
(4.49617 -4.02898 -286.015)
(3.71472 -4.09529 -285.976)
(4.29687 -4.06903 -285.969)
(3.99905 -4.08943 -285.907)
(4.2698 -4.07803 -285.862)
(4.15962 -4.08124 -285.772)
(4.33335 -4.07547 -285.71)
(4.29909 -4.06786 -285.573)
(4.49517 -4.06545 -285.499)
(4.48234 -4.04291 -285.273)
(4.83595 -4.04678 -285.17)
(4.78847 -3.9904 -284.776)
(5.59593 -4.01384 -284.551)
(5.35383 -3.88763 -283.65)
(7.53105 -3.86148 -281.351)
(-2.57242 1.91369 -273.049)
(8.18831 1.98014 -279.156)
(2.61639 1.87668 -282.834)
(6.25846 1.82302 -282.833)
(4.30507 1.75387 -283.678)
(5.66108 1.73953 -283.477)
(4.93383 1.72813 -283.682)
(5.48606 1.72678 -283.552)
(5.20593 1.72577 -283.559)
(5.46497 1.72675 -283.456)
(5.36143 1.72789 -283.36)
(5.53182 1.72877 -283.261)
(5.50044 1.73097 -283.063)
(5.69628 1.73075 -282.965)
(5.68359 1.73398 -282.603)
(6.03275 1.73016 -282.489)
(5.98022 1.73408 -281.824)
(6.74629 1.72261 -281.543)
(6.52212 1.68014 -280.392)
(8.28091 1.80303 -277.299)
(-2.853 -0.947851 -272.142)
(8.41464 -1.19762 -278.172)
(2.98509 -1.67561 -281.998)
(6.85675 -1.55841 -281.884)
(4.99527 -1.68812 -282.855)
(6.36916 -1.66293 -282.612)
(5.67601 -1.69856 -282.85)
(6.22383 -1.69037 -282.694)
(5.95663 -1.70026 -282.702)
(6.21286 -1.69651 -282.581)
(6.11496 -1.69772 -282.47)
(6.28675 -1.69563 -282.358)
(6.25835 -1.6914 -282.131)
(6.46155 -1.6905 -282.023)
(6.45003 -1.67801 -281.616)
(6.81861 -1.68031 -281.491)
(6.76061 -1.64745 -280.782)
(7.58034 -1.66082 -280.417)
(7.32285 -1.58345 -279.432)
(9.20086 -1.60694 -275.707)
(-2.83138 0.860833 -272.371)
(8.43729 0.993591 -277.587)
(3.2147 1.13769 -281.435)
(7.09093 1.05503 -281.007)
(5.34599 1.05954 -281.978)
(6.70969 1.033 -281.705)
(6.05297 1.03964 -281.946)
(6.58795 1.03322 -281.78)
(6.33158 1.03709 -281.783)
(6.58053 1.03564 -281.654)
(6.48628 1.03719 -281.533)
(6.65413 1.03687 -281.415)
(6.62744 1.03658 -281.175)
(6.82718 1.03642 -281.063)
(6.8174 1.03296 -280.64)
(7.17854 1.03255 -280.509)
(7.12481 1.01954 -279.797)
(7.91521 1.02185 -279.383)
(7.6871 0.954663 -278.522)
(9.39543 1.03395 -274.561)
(-2.83138 -0.860832 -272.371)
(8.43729 -0.99359 -277.587)
(3.21469 -1.13769 -281.435)
(7.09093 -1.05503 -281.007)
(5.34599 -1.05954 -281.978)
(6.70968 -1.033 -281.705)
(6.05297 -1.03964 -281.946)
(6.58795 -1.03323 -281.78)
(6.33158 -1.03709 -281.783)
(6.58053 -1.03564 -281.654)
(6.48629 -1.03719 -281.533)
(6.65413 -1.03689 -281.415)
(6.62744 -1.03659 -281.175)
(6.82718 -1.03649 -281.063)
(6.8174 -1.03294 -280.64)
(7.17852 -1.03291 -280.509)
(7.12476 -1.01905 -279.799)
(7.91529 -1.02341 -279.38)
(7.68677 -0.952358 -278.531)
(9.39529 -1.03471 -274.544)
(-2.853 0.947852 -272.142)
(8.41464 1.19762 -278.172)
(2.98509 1.6756 -281.998)
(6.85674 1.5584 -281.884)
(4.99527 1.68812 -282.855)
(6.36917 1.66292 -282.612)
(5.67601 1.69856 -282.85)
(6.22383 1.69037 -282.695)
(5.95663 1.70026 -282.702)
(6.21286 1.6965 -282.581)
(6.11495 1.69771 -282.47)
(6.28674 1.69562 -282.358)
(6.25833 1.69139 -282.131)
(6.46154 1.69043 -282.023)
(6.44992 1.67804 -281.617)
(6.81865 1.67998 -281.49)
(6.76011 1.64786 -280.787)
(7.58078 1.65939 -280.407)
(7.32165 1.58565 -279.457)
(9.20002 1.60648 -275.654)
(-2.57242 -1.91369 -273.049)
(8.18831 -1.98014 -279.156)
(2.61639 -1.87668 -282.834)
(6.25846 -1.82302 -282.833)
(4.30507 -1.75387 -283.678)
(5.66108 -1.73952 -283.477)
(4.93383 -1.72814 -283.682)
(5.48606 -1.72678 -283.552)
(5.20592 -1.72577 -283.559)
(5.46497 -1.72675 -283.456)
(5.36143 -1.72789 -283.36)
(5.53181 -1.72878 -283.261)
(5.50042 -1.73097 -283.064)
(5.69625 -1.73079 -282.965)
(5.68349 -1.73396 -282.604)
(6.03274 -1.73039 -282.487)
(5.97968 -1.73369 -281.83)
(6.74684 -1.7238 -281.529)
(6.51997 -1.67738 -280.431)
(8.28211 -1.80389 -277.206)
(-2.7938 2.59804 -272.605)
(7.54556 3.28682 -282.114)
(1.46119 4.09974 -284.544)
(5.21375 3.87664 -285.778)
(3.07588 4.10178 -285.88)
(4.49617 4.02898 -286.015)
(3.71472 4.09528 -285.976)
(4.29687 4.06902 -285.969)
(3.99905 4.08943 -285.907)
(4.2698 4.07802 -285.862)
(4.15962 4.08123 -285.772)
(4.33334 4.07545 -285.71)
(4.29906 4.06785 -285.574)
(4.49515 4.06541 -285.499)
(4.4822 4.04292 -285.274)
(4.83604 4.0466 -285.168)
(4.7877 3.99065 -284.781)
(5.59741 4.01291 -284.537)
(5.3504 3.8902 -283.693)
(7.53747 3.86055 -281.218)
(-2.10657 -5.56245 -271.353)
(5.35506 -5.41337 -278.483)
(0.407658 -5.34566 -280.948)
(3.33739 -5.41734 -280.958)
(1.60175 -5.33906 -281.424)
(2.74805 -5.3806 -281.31)
(2.09518 -5.35271 -281.424)
(2.56866 -5.36836 -281.356)
(2.31474 -5.35809 -281.366)
(2.53286 -5.36432 -281.315)
(2.4364 -5.36109 -281.274)
(2.5702 -5.36315 -281.223)
(2.53839 -5.36375 -281.133)
(2.67995 -5.36283 -281.075)
(2.66973 -5.36744 -280.903)
(2.91584 -5.36116 -280.822)
(2.89314 -5.37584 -280.472)
(3.44393 -5.35162 -280.316)
(3.34975 -5.41256 -279.438)
(4.82729 -5.48069 -278.242)
(-3.08927 9.01853 -243.701)
(2.41518 10.2535 -250.323)
(-0.342636 10.6564 -249.767)
(1.24826 10.4707 -250.158)
(0.382682 10.607 -249.976)
(0.96285 10.5423 -250.068)
(0.641595 10.5893 -250.003)
(0.874292 10.5652 -250.029)
(0.750409 10.5809 -250.003)
(0.855491 10.5703 -250.009)
(0.808647 10.5731 -249.995)
(0.871797 10.5673 -249.993)
(0.856876 10.5618 -249.984)
(0.923326 10.5577 -249.977)
(0.921177 10.5412 -249.97)
(1.03899 10.5381 -249.956)
(1.03863 10.4968 -249.955)
(1.29603 10.4944 -249.917)
(1.29324 10.366 -249.935)
(1.56831 10.336 -250.16)
(9.11634 13.0708 0.835849)
(0.825575 14.8952 0.361031)
(1.86675 14.5586 0.686683)
(0.738191 14.5097 0.493498)
(1.02223 14.4822 0.622845)
(0.837996 14.4972 0.540777)
(0.851206 14.4824 0.593529)
(0.825073 14.4903 0.557604)
(0.80845 14.482 0.577782)
(0.805494 14.4855 0.561045)
(0.793345 14.4806 0.566353)
(0.785824 14.4818 0.557466)
(0.779665 14.4777 0.554498)
(0.752718 14.4782 0.548676)
(0.751658 14.4718 0.538542)
(0.670399 14.4727 0.533921)
(0.684615 14.4578 0.513437)
(0.438188 14.4585 0.509504)
(0.560463 14.3139 0.470842)
(1.10707 14.3139 0.463207)
(12.3025 -4.96134 0.0325123)
(2.12189 -7.19935 -0.463606)
(4.74527 -7.13376 -0.14487)
(2.34402 -7.57603 -0.342617)
(2.75538 -7.44164 -0.210987)
(2.32499 -7.47421 -0.294395)
(2.31984 -7.43408 -0.240707)
(2.25039 -7.43228 -0.27704)
(2.20281 -7.42139 -0.256465)
(2.19054 -7.41621 -0.273294)
(2.15979 -7.41505 -0.267771)
(2.1393 -7.41119 -0.276617)
(2.12483 -7.41854 -0.279431)
(2.05609 -7.41496 -0.285123)
(2.05483 -7.44179 -0.295126)
(1.84208 -7.43525 -0.299467)
(1.87538 -7.51752 -0.319917)
(1.24217 -7.50525 -0.323107)
(1.47067 -8.01611 -0.364243)
(-0.414322 -7.89 -0.368279)
(12.5473 5.18614 0.331671)
(4.03519 6.67373 -0.17327)
(6.36441 6.23162 0.149036)
(4.20496 6.07503 -0.0537199)
(4.38033 5.90879 0.0791343)
(4.01036 5.92635 -0.00615506)
(3.92633 5.88903 0.0481541)
(3.87638 5.90546 0.0111353)
(3.79876 5.89406 0.031956)
(3.79328 5.90255 0.014842)
(3.75119 5.89862 0.0204216)
(3.73322 5.90326 0.011424)
(3.71573 5.9013 0.0085702)
(3.64525 5.90529 0.00275641)
(3.64565 5.9009 -0.00733216)
(3.41753 5.90591 -0.0118393)
(3.45441 5.88685 -0.0323784)
(2.75896 5.88286 -0.0358931)
(2.96354 5.79856 -0.0771828)
(0.333298 5.83646 -0.0803473)
(12.3221 -0.931135 0.152774)
(4.01607 -1.84573 -0.352533)
(7.43252 -1.84741 -0.0371538)
(5.48042 -2.34848 -0.233513)
(5.73528 -2.40272 -0.102917)
(5.34077 -2.44288 -0.184882)
(5.23571 -2.43937 -0.132)
(5.16209 -2.43041 -0.167531)
(5.07053 -2.42676 -0.147341)
(5.05292 -2.41846 -0.163757)
(5.0046 -2.41888 -0.158325)
(4.97754 -2.41357 -0.166939)
(4.96011 -2.42111 -0.169655)
(4.87268 -2.41596 -0.175198)
(4.88143 -2.44263 -0.184919)
(4.60177 -2.43394 -0.189164)
(4.66297 -2.52046 -0.209061)
(3.78604 -2.51573 -0.212207)
(4.0285 -2.88042 -0.252237)
(1.37272 -2.82019 -0.253556)
(12.1994 1.71263 0.249771)
(4.27755 2.65036 -0.248179)
(7.88693 2.50032 0.0708875)
(6.37328 2.50937 -0.128885)
(6.61722 2.41045 0.00188072)
(6.29499 2.41972 -0.0814659)
(6.17484 2.38766 -0.0285135)
(6.11174 2.39341 -0.0644226)
(6.01457 2.385 -0.0442049)
(5.99735 2.38758 -0.0607416)
(5.94774 2.38583 -0.0553228)
(5.9216 2.38753 -0.0639944)
(5.9057 2.38898 -0.0667485)
(5.82233 2.39081 -0.0723426)
(5.83695 2.39585 -0.082132)
(5.56694 2.39795 -0.0864494)
(5.64195 2.40974 -0.106525)
(4.7848 2.40531 -0.109747)
(5.02749 2.42824 -0.151192)
(2.11983 2.44655 -0.151631)
(12.0641 -0.597586 0.208121)
(4.0425 -1.18643 -0.293458)
(8.0101 -1.12257 0.0239513)
(6.67985 -1.39009 -0.173955)
(7.04312 -1.42665 -0.0434292)
(6.76605 -1.46459 -0.125514)
(6.66043 -1.4607 -0.0728825)
(6.59761 -1.46053 -0.10824)
(6.5004 -1.45696 -0.0881957)
(6.47987 -1.45429 -0.104481)
(6.42962 -1.45403 -0.0991037)
(6.40071 -1.45221 -0.107643)
(6.38567 -1.45651 -0.110355)
(6.29833 -1.45463 -0.11586)
(6.31699 -1.46956 -0.125545)
(6.03558 -1.46607 -0.129774)
(6.12031 -1.51302 -0.149685)
(5.22301 -1.5115 -0.152772)
(5.47342 -1.66838 -0.193722)
(2.71046 -1.66201 -0.193642)
(12.0641 0.597586 0.208121)
(4.0425 1.18643 -0.293458)
(8.0101 1.12257 0.0239514)
(6.67985 1.39009 -0.173955)
(7.04312 1.42664 -0.0434287)
(6.76605 1.46459 -0.125514)
(6.66043 1.4607 -0.0728828)
(6.59761 1.46053 -0.10824)
(6.5004 1.45696 -0.0881957)
(6.47988 1.45429 -0.104481)
(6.42962 1.45403 -0.0991041)
(6.40071 1.45219 -0.107644)
(6.38566 1.45648 -0.110355)
(6.29833 1.4545 -0.115861)
(6.31695 1.46937 -0.125547)
(6.03556 1.46562 -0.129778)
(6.12012 1.51171 -0.14969)
(5.22284 1.51029 -0.152781)
(5.47267 1.65974 -0.193745)
(2.70628 1.66022 -0.193648)
(12.1994 -1.71263 0.249771)
(4.27755 -2.65036 -0.248179)
(7.88693 -2.50032 0.0708873)
(6.37328 -2.50937 -0.128885)
(6.61723 -2.41045 0.00188067)
(6.29499 -2.41972 -0.0814659)
(6.17483 -2.38765 -0.0285138)
(6.11174 -2.3934 -0.064423)
(6.01458 -2.385 -0.044205)
(5.99734 -2.38758 -0.0607415)
(5.94773 -2.38583 -0.0553231)
(5.92158 -2.38755 -0.0639954)
(5.90566 -2.38901 -0.0667484)
(5.82226 -2.39092 -0.0723416)
(5.83676 -2.39602 -0.0821329)
(5.56658 -2.39833 -0.0864464)
(5.64124 -2.4109 -0.106533)
(4.78251 -2.40638 -0.109729)
(5.02522 -2.43651 -0.151261)
(2.10937 -2.44838 -0.151533)
(12.3221 0.931136 0.152774)
(4.01607 1.84573 -0.352533)
(7.43252 1.84741 -0.0371539)
(5.48042 2.34849 -0.233513)
(5.73528 2.40272 -0.102916)
(5.34077 2.44288 -0.184882)
(5.23571 2.43937 -0.132001)
(5.16209 2.43041 -0.167531)
(5.07053 2.42677 -0.147341)
(5.05291 2.41845 -0.163757)
(5.0046 2.41887 -0.158325)
(4.97752 2.41355 -0.166939)
(4.96005 2.42108 -0.169655)
(4.87261 2.41587 -0.1752)
(4.8812 2.44249 -0.184922)
(4.60137 2.43366 -0.189167)
(4.66201 2.51957 -0.209074)
(3.78318 2.51512 -0.212206)
(4.02522 2.87489 -0.252338)
(1.35355 2.81987 -0.253475)
(12.5473 -5.18614 0.331671)
(4.03519 -6.67373 -0.17327)
(6.36441 -6.23162 0.149036)
(4.20496 -6.07503 -0.0537196)
(4.38033 -5.90878 0.079135)
(4.01036 -5.92635 -0.00615499)
(3.92633 -5.88902 0.0481539)
(3.87638 -5.90544 0.0111355)
(3.79876 -5.89406 0.0319557)
(3.79327 -5.90254 0.0148419)
(3.75118 -5.89861 0.0204213)
(3.73321 -5.90326 0.0114228)
(3.71567 -5.90132 0.00856997)
(3.64515 -5.90533 0.00275625)
(3.64537 -5.90101 -0.00733367)
(3.41704 -5.90609 -0.0118396)
(3.45335 -5.88757 -0.0323942)
(2.75608 -5.88322 -0.0358739)
(2.9605 -5.803 -0.0773269)
(0.307251 -5.83659 -0.0801687)
(12.3025 4.96134 0.0325123)
(2.12189 7.19936 -0.463606)
(4.74527 7.13377 -0.14487)
(2.34402 7.57603 -0.342617)
(2.75538 7.44164 -0.210987)
(2.32499 7.47421 -0.294394)
(2.31985 7.43408 -0.240707)
(2.25039 7.43226 -0.27704)
(2.20281 7.4214 -0.256464)
(2.19054 7.41619 -0.273294)
(2.15978 7.41502 -0.267772)
(2.13928 7.41118 -0.276616)
(2.12477 7.41854 -0.279432)
(2.05602 7.41492 -0.285124)
(2.05459 7.44177 -0.295128)
(1.8416 7.43521 -0.299471)
(1.87456 7.51739 -0.319931)
(1.23883 7.50521 -0.323107)
(1.46879 8.01685 -0.364378)
(-0.44132 7.89124 -0.368181)
(9.11634 -13.0708 0.835849)
(0.825577 -14.8953 0.361031)
(1.86675 -14.5586 0.686683)
(0.738192 -14.5097 0.493498)
(1.02223 -14.4822 0.622845)
(0.837997 -14.4972 0.540777)
(0.851202 -14.4823 0.593527)
(0.825075 -14.4903 0.557603)
(0.80846 -14.482 0.577782)
(0.805493 -14.4855 0.561043)
(0.793341 -14.4805 0.566351)
(0.785825 -14.4818 0.557465)
(0.779646 -14.4777 0.554498)
(0.752682 -14.4782 0.548674)
(0.751548 -14.4718 0.538541)
(0.670223 -14.4727 0.533916)
(0.684226 -14.4579 0.513429)
(0.437033 -14.4584 0.509496)
(0.55962 -14.3135 0.47078)
(1.10931 -14.31 0.463216)
(2.26045 -0.0580838 -0.621873)
(1.84668 0.207107 -0.353502)
(2.44317 0.274263 -0.472229)
(1.1454 0.128269 -0.4787)
(2.29157 0.177867 -0.469338)
(1.39965 0.141854 -0.498173)
(2.05221 0.150705 -0.483091)
(1.58283 0.133899 -0.501434)
(1.89609 0.133673 -0.493401)
(1.65503 0.125543 -0.503163)
(1.79105 0.123298 -0.500205)
(1.6484 0.118808 -0.505437)
(1.69983 0.115789 -0.50465)
(1.59892 0.112206 -0.507798)
(1.61413 0.109395 -0.505599)
(1.56723 0.105798 -0.507928)
(1.56649 0.103817 -0.496065)
(1.73544 0.115136 -0.499451)
(1.59163 0.0613431 -0.452325)
(3.0717 0.125921 -0.465836)
(4.85136 -0.0711475 0.169398)
(3.3588 -1.11557 0.509718)
(4.87656 -1.13588 0.377791)
(3.01603 -1.28554 0.374964)
(4.07468 -1.32156 0.380597)
(3.11176 -1.30382 0.353196)
(3.69417 -1.33434 0.366658)
(3.24003 -1.31041 0.348686)
(3.51352 -1.32647 0.355916)
(3.28304 -1.3116 0.346206)
(3.3982 -1.31836 0.348694)
(3.25051 -1.31015 0.343412)
(3.28989 -1.31359 0.343818)
(3.16102 -1.30904 0.340582)
(3.1662 -1.31573 0.342273)
(3.04268 -1.31285 0.339778)
(3.03599 -1.3392 0.350632)
(2.99212 -1.32345 0.346731)
(2.98304 -1.49539 0.389317)
(3.32267 -1.50924 0.369545)
(4.46225 0.500469 -0.225485)
(4.13512 1.2127 0.0554121)
(5.65995 1.26337 -0.0622575)
(4.2021 1.08521 -0.0740888)
(5.27723 1.02881 -0.0628636)
(4.45209 0.961683 -0.0930427)
(5.0362 0.927671 -0.0775303)
(4.62883 0.908787 -0.0962834)
(4.8982 0.89322 -0.0882818)
(4.68226 0.886362 -0.0982235)
(4.79313 0.878462 -0.0954436)
(4.64936 0.874889 -0.100818)
(4.68287 0.870036 -0.100343)
(4.55927 0.866239 -0.103658)
(4.55202 0.863535 -0.102063)
(4.45661 0.857281 -0.104646)
(4.41345 0.854199 -0.094139)
(4.48151 0.854973 -0.0979588)
(4.3559 0.789254 -0.0557782)
(4.97625 0.855142 -0.0714072)
(4.41356 -0.33067 -0.0453718)
(3.92667 -1.08891 0.290062)
(6.14103 -1.01213 0.161451)
(5.03392 -1.21254 0.162389)
(6.14804 -1.26675 0.167796)
(5.48267 -1.28647 0.140185)
(5.98442 -1.32128 0.153365)
(5.64543 -1.30997 0.135302)
(5.86422 -1.32546 0.14239)
(5.68118 -1.31558 0.132636)
(5.76839 -1.32225 0.135107)
(5.64078 -1.31609 0.129807)
(5.66575 -1.32046 0.130346)
(5.54479 -1.3165 0.12707)
(5.53937 -1.32646 0.129216)
(5.4135 -1.32181 0.126597)
(5.39199 -1.3602 0.138856)
(5.30105 -1.33967 0.13477)
(5.28371 -1.51423 0.183057)
(5.32523 -1.55081 0.163883)
(4.36898 0.436741 -0.135463)
(4.04813 1.15121 0.175107)
(6.19536 1.22678 0.0485846)
(5.35146 1.20736 0.0406984)
(6.5654 1.1717 0.0471521)
(6.04109 1.12165 0.0177239)
(6.59309 1.08328 0.0316885)
(6.31751 1.06046 0.0133144)
(6.552 1.04318 0.0206642)
(6.39361 1.03499 0.010905)
(6.48399 1.02772 0.0134324)
(6.36739 1.02384 0.00814351)
(6.39124 1.02127 0.00859527)
(6.28066 1.01759 0.00531605)
(6.26999 1.01997 0.00711995)
(6.16706 1.01305 0.00449243)
(6.12865 1.02412 0.0156812)
(6.0983 1.01495 0.0116385)
(6.03251 1.01024 0.0562355)
(6.15337 1.08207 0.039481)
(4.30549 -0.390735 -0.104482)
(3.86651 -1.05436 0.219343)
(6.20518 -1.02615 0.0911038)
(5.48167 -1.14945 0.0888184)
(6.78787 -1.16887 0.0945229)
(6.354 -1.16354 0.0660909)
(6.91871 -1.16315 0.0795092)
(6.67794 -1.15007 0.0613322)
(6.90918 -1.15014 0.0684356)
(6.76438 -1.14256 0.0587191)
(6.85131 -1.14273 0.0611677)
(6.74031 -1.13825 0.0558919)
(6.7629 -1.13961 0.0563978)
(6.65341 -1.136 0.0531177)
(6.64429 -1.14309 0.0551883)
(6.53356 -1.13711 0.0525208)
(6.50187 -1.16453 0.0645588)
(6.43375 -1.14998 0.0604458)
(6.38152 -1.23336 0.107718)
(6.42427 -1.29614 0.0899733)
(4.30549 0.390735 -0.104482)
(3.86651 1.05436 0.219343)
(6.20518 1.02615 0.0911038)
(5.48167 1.14944 0.0888184)
(6.78787 1.16887 0.0945229)
(6.354 1.16354 0.0660909)
(6.91871 1.16315 0.0795092)
(6.67794 1.15007 0.0613321)
(6.90918 1.15014 0.0684357)
(6.76438 1.14255 0.058719)
(6.8513 1.14272 0.0611674)
(6.7403 1.13821 0.0558913)
(6.76289 1.13958 0.0563974)
(6.65336 1.13587 0.053116)
(6.64426 1.14286 0.0551853)
(6.53337 1.13695 0.0525164)
(6.50174 1.16322 0.0645419)
(6.43319 1.15002 0.0604373)
(6.38096 1.2292 0.107644)
(6.42255 1.29276 0.0899479)
(4.36898 -0.436741 -0.135463)
(4.04813 -1.15121 0.175107)
(6.19536 -1.22678 0.0485845)
(5.35146 -1.20736 0.0406983)
(6.5654 -1.1717 0.0471522)
(6.04109 -1.12165 0.0177238)
(6.59309 -1.08328 0.0316885)
(6.31751 -1.06047 0.0133147)
(6.552 -1.04318 0.0206645)
(6.39361 -1.03501 0.0109055)
(6.48398 -1.02773 0.0134327)
(6.36738 -1.02389 0.00814398)
(6.39119 -1.0213 0.00859616)
(6.28064 -1.01772 0.00531728)
(6.26981 -1.0202 0.00712418)
(6.16688 -1.01319 0.00449573)
(6.12831 -1.02553 0.015704)
(6.09697 -1.01477 0.0116527)
(6.03239 -1.01472 0.0563511)
(6.14785 -1.08578 0.039473)
(4.41356 0.330669 -0.0453719)
(3.92667 1.08891 0.290062)
(6.14103 1.01213 0.161451)
(5.03392 1.21254 0.162389)
(6.14804 1.26674 0.167796)
(5.48267 1.28647 0.140185)
(5.98442 1.32127 0.153365)
(5.64543 1.30997 0.135302)
(5.86422 1.32546 0.14239)
(5.68117 1.31556 0.132636)
(5.76837 1.32224 0.135107)
(5.64076 1.31605 0.129806)
(5.66568 1.32043 0.130346)
(5.5447 1.31641 0.127069)
(5.53914 1.32627 0.129217)
(5.41301 1.32172 0.126594)
(5.39152 1.35922 0.138861)
(5.29859 1.33977 0.134771)
(5.28306 1.51156 0.183125)
(5.31598 1.54828 0.163852)
(4.46225 -0.500469 -0.225485)
(4.13512 -1.2127 0.055412)
(5.65995 -1.26337 -0.0622575)
(4.2021 -1.08521 -0.0740888)
(5.27723 -1.02882 -0.0628635)
(4.45209 -0.961682 -0.0930428)
(5.03619 -0.927675 -0.07753)
(4.62883 -0.90879 -0.0962829)
(4.89819 -0.893216 -0.0882819)
(4.68225 -0.886371 -0.0982231)
(4.79311 -0.878471 -0.0954432)
(4.64934 -0.874917 -0.100818)
(4.68277 -0.870052 -0.100343)
(4.5592 -0.866317 -0.103658)
(4.55171 -0.86368 -0.102061)
(4.45614 -0.857316 -0.104643)
(4.41296 -0.855127 -0.094128)
(4.47883 -0.854624 -0.0979385)
(4.3562 -0.792119 -0.0557252)
(4.96625 -0.857786 -0.0714105)
(4.85136 0.0711475 0.169398)
(3.3588 1.11557 0.509718)
(4.87656 1.13588 0.377791)
(3.01603 1.28554 0.374965)
(4.07468 1.32156 0.380597)
(3.11176 1.30382 0.353196)
(3.69417 1.33433 0.366657)
(3.24003 1.31042 0.348685)
(3.51351 1.32647 0.355917)
(3.28303 1.31159 0.346205)
(3.39818 1.31835 0.348693)
(3.25049 1.31014 0.343412)
(3.28979 1.31357 0.343819)
(3.16092 1.30902 0.34058)
(3.16588 1.31566 0.342276)
(3.0421 1.31284 0.339776)
(3.03555 1.33883 0.350655)
(2.98855 1.32352 0.34673)
(2.984 1.49491 0.389482)
(3.30705 1.50829 0.369416)
(2.26045 0.0580838 -0.621873)
(1.84668 -0.207107 -0.353502)
(2.44317 -0.274262 -0.472229)
(1.1454 -0.128269 -0.478699)
(2.29156 -0.177871 -0.469338)
(1.39964 -0.141852 -0.498172)
(2.05222 -0.150709 -0.483089)
(1.58281 -0.133906 -0.501434)
(1.89609 -0.133664 -0.4934)
(1.65504 -0.125547 -0.503161)
(1.79102 -0.123307 -0.500205)
(1.64837 -0.118814 -0.505436)
(1.69975 -0.115787 -0.504649)
(1.59885 -0.112226 -0.507797)
(1.61389 -0.109409 -0.505599)
(1.56686 -0.105782 -0.507923)
(1.56633 -0.103921 -0.496063)
(1.73338 -0.115094 -0.499418)
(1.59234 -0.0608204 -0.452276)
(3.07027 -0.126236 -0.465691)
(2.26045 -0.0580835 0.621873)
(1.84668 0.207108 0.353502)
(2.44317 0.274262 0.472229)
(1.1454 0.128269 0.478701)
(2.29156 0.177872 0.469337)
(1.39964 0.141854 0.498172)
(2.05221 0.150708 0.483089)
(1.58281 0.133906 0.501432)
(1.8961 0.133664 0.493399)
(1.65505 0.125546 0.503162)
(1.79103 0.123305 0.500206)
(1.64841 0.118801 0.505437)
(1.69985 0.115791 0.504649)
(1.5989 0.112215 0.507798)
(1.61412 0.109395 0.505599)
(1.56722 0.105798 0.507928)
(1.56648 0.10382 0.496064)
(1.73543 0.115137 0.499451)
(1.59162 0.0613421 0.452325)
(3.0717 0.125921 0.465837)
(4.85136 -0.0711474 -0.169398)
(3.3588 -1.11557 -0.509717)
(4.87655 -1.13588 -0.377791)
(3.01603 -1.28554 -0.374965)
(4.07468 -1.32156 -0.380596)
(3.11176 -1.30382 -0.353196)
(3.69417 -1.33433 -0.366658)
(3.24003 -1.31041 -0.348684)
(3.51352 -1.32647 -0.355917)
(3.28304 -1.3116 -0.346206)
(3.3982 -1.31836 -0.348693)
(3.25051 -1.31015 -0.343412)
(3.28989 -1.31358 -0.343818)
(3.16102 -1.30904 -0.340581)
(3.1662 -1.31573 -0.342272)
(3.04268 -1.31285 -0.339778)
(3.03599 -1.3392 -0.350631)
(2.99212 -1.32345 -0.34673)
(2.98304 -1.49539 -0.389317)
(3.32267 -1.50924 -0.369545)
(4.46225 0.500469 0.225485)
(4.13512 1.2127 -0.0554122)
(5.65995 1.26337 0.0622574)
(4.2021 1.08521 0.074089)
(5.27723 1.02882 0.0628634)
(4.45209 0.961682 0.0930426)
(5.0362 0.927674 0.0775302)
(4.62883 0.908788 0.0962826)
(4.8982 0.893214 0.0882817)
(4.68226 0.886365 0.0982232)
(4.79314 0.878466 0.0954433)
(4.64936 0.874885 0.100818)
(4.68287 0.870039 0.100343)
(4.55927 0.866243 0.103658)
(4.55202 0.863533 0.102063)
(4.45661 0.857281 0.104646)
(4.41345 0.8542 0.0941394)
(4.48151 0.854972 0.0979589)
(4.3559 0.789253 0.0557783)
(4.97625 0.855141 0.0714074)
(4.41356 -0.33067 0.0453719)
(3.92667 -1.08891 -0.290062)
(6.14103 -1.01213 -0.161451)
(5.03392 -1.21254 -0.162389)
(6.14804 -1.26674 -0.167796)
(5.48267 -1.28647 -0.140185)
(5.98442 -1.32127 -0.153365)
(5.64543 -1.30997 -0.135302)
(5.86422 -1.32546 -0.14239)
(5.68118 -1.31557 -0.132635)
(5.76839 -1.32224 -0.135107)
(5.64078 -1.31609 -0.129806)
(5.66575 -1.32045 -0.130346)
(5.54479 -1.3165 -0.12707)
(5.53937 -1.32646 -0.129216)
(5.4135 -1.32181 -0.126597)
(5.39199 -1.3602 -0.138856)
(5.30105 -1.33967 -0.134769)
(5.28371 -1.51423 -0.183057)
(5.32523 -1.55081 -0.163883)
(4.36898 0.436741 0.135463)
(4.04813 1.15121 -0.175107)
(6.19536 1.22678 -0.0485845)
(5.35146 1.20736 -0.0406984)
(6.5654 1.1717 -0.0471521)
(6.04109 1.12165 -0.0177238)
(6.59309 1.08328 -0.0316884)
(6.31751 1.06046 -0.0133147)
(6.552 1.04317 -0.0206647)
(6.39361 1.03499 -0.0109056)
(6.484 1.02772 -0.0134325)
(6.36739 1.02384 -0.00814353)
(6.39124 1.02128 -0.00859529)
(6.28066 1.01759 -0.00531606)
(6.26999 1.01997 -0.0071199)
(6.16706 1.01305 -0.00449238)
(6.12865 1.02412 -0.0156812)
(6.0983 1.01495 -0.0116383)
(6.03251 1.01024 -0.0562352)
(6.15337 1.08206 -0.0394808)
(4.30549 -0.390735 0.104482)
(3.86651 -1.05436 -0.219343)
(6.20518 -1.02615 -0.0911038)
(5.48167 -1.14944 -0.0888184)
(6.78787 -1.16887 -0.0945228)
(6.354 -1.16354 -0.0660908)
(6.91871 -1.16315 -0.0795091)
(6.67794 -1.15007 -0.061332)
(6.90918 -1.15015 -0.0684361)
(6.76438 -1.14256 -0.0587193)
(6.85131 -1.14272 -0.0611673)
(6.74031 -1.13825 -0.0558917)
(6.7629 -1.13961 -0.0563978)
(6.65341 -1.13599 -0.0531175)
(6.64429 -1.14309 -0.0551882)
(6.53356 -1.13711 -0.0525207)
(6.50187 -1.16453 -0.0645582)
(6.43376 -1.14998 -0.0604456)
(6.38152 -1.23336 -0.107718)
(6.42428 -1.29614 -0.0899732)
(4.30549 0.390735 0.104482)
(3.86651 1.05436 -0.219343)
(6.20518 1.02615 -0.0911038)
(5.48167 1.14945 -0.0888184)
(6.78787 1.16887 -0.0945228)
(6.354 1.16354 -0.0660909)
(6.91871 1.16315 -0.0795091)
(6.67794 1.15007 -0.0613321)
(6.90918 1.15014 -0.0684354)
(6.76438 1.14255 -0.0587188)
(6.8513 1.14272 -0.0611676)
(6.7403 1.13821 -0.0558913)
(6.76289 1.13958 -0.0563973)
(6.65336 1.13587 -0.0531159)
(6.64426 1.14286 -0.0551856)
(6.53337 1.13695 -0.0525163)
(6.50174 1.16322 -0.0645415)
(6.43319 1.15002 -0.0604373)
(6.38096 1.2292 -0.107644)
(6.42256 1.29276 -0.0899478)
(4.36898 -0.436741 0.135463)
(4.04813 -1.15121 -0.175107)
(6.19536 -1.22678 -0.0485845)
(5.35146 -1.20736 -0.0406983)
(6.5654 -1.1717 -0.047152)
(6.04109 -1.12165 -0.0177238)
(6.59309 -1.08328 -0.0316884)
(6.31751 -1.06046 -0.0133143)
(6.552 -1.04318 -0.020664)
(6.39361 -1.035 -0.0109049)
(6.48398 -1.02773 -0.0134325)
(6.36738 -1.02389 -0.00814382)
(6.39119 -1.0213 -0.00859604)
(6.28064 -1.01771 -0.00531703)
(6.26981 -1.0202 -0.00712439)
(6.16689 -1.01319 -0.00449573)
(6.12831 -1.02553 -0.0157035)
(6.09698 -1.01477 -0.0116526)
(6.0324 -1.01472 -0.0563512)
(6.14785 -1.08578 -0.039473)
(4.41356 0.330669 0.0453719)
(3.92667 1.08891 -0.290062)
(6.14103 1.01213 -0.161451)
(5.03392 1.21254 -0.162389)
(6.14804 1.26675 -0.167796)
(5.48267 1.28647 -0.140185)
(5.98442 1.32127 -0.153365)
(5.64543 1.30997 -0.135302)
(5.86422 1.32545 -0.14239)
(5.68117 1.31557 -0.132636)
(5.76837 1.32224 -0.135107)
(5.64076 1.31605 -0.129806)
(5.66568 1.32043 -0.130345)
(5.5447 1.31641 -0.127068)
(5.53914 1.32627 -0.129217)
(5.41302 1.32172 -0.126593)
(5.39153 1.35922 -0.138861)
(5.29859 1.33977 -0.134771)
(5.28306 1.51156 -0.183125)
(5.31599 1.54829 -0.163852)
(4.46225 -0.50047 0.225485)
(4.13512 -1.2127 -0.0554122)
(5.65995 -1.26337 0.0622574)
(4.2021 -1.08521 0.0740887)
(5.27723 -1.02881 0.0628637)
(4.45209 -0.961684 0.0930428)
(5.0362 -0.927672 0.0775303)
(4.62882 -0.908787 0.0962834)
(4.8982 -0.893222 0.088282)
(4.68225 -0.886369 0.0982236)
(4.79311 -0.878465 0.0954437)
(4.64934 -0.874918 0.100818)
(4.68277 -0.87005 0.100343)
(4.5592 -0.866311 0.103658)
(4.55171 -0.86368 0.102061)
(4.45614 -0.857317 0.104643)
(4.41296 -0.855127 0.0941285)
(4.47883 -0.854623 0.0979387)
(4.3562 -0.792118 0.0557252)
(4.96626 -0.857786 0.0714106)
(4.85136 0.0711469 -0.169398)
(3.3588 1.11557 -0.509717)
(4.87655 1.13588 -0.377791)
(3.01603 1.28554 -0.374964)
(4.07468 1.32156 -0.380597)
(3.11176 1.30381 -0.353196)
(3.69417 1.33434 -0.366658)
(3.24003 1.31041 -0.348686)
(3.51351 1.32646 -0.355917)
(3.28303 1.3116 -0.346206)
(3.39818 1.31835 -0.348694)
(3.25049 1.31014 -0.343412)
(3.28979 1.31358 -0.343818)
(3.16092 1.30902 -0.34058)
(3.16588 1.31565 -0.342276)
(3.0421 1.31284 -0.339776)
(3.03555 1.33883 -0.350654)
(2.98855 1.32352 -0.346729)
(2.984 1.49491 -0.389482)
(3.30705 1.50829 -0.369416)
(2.26045 0.058083 0.621873)
(1.84668 -0.207108 0.353502)
(2.44317 -0.274263 0.472229)
(1.1454 -0.128269 0.4787)
(2.29157 -0.177867 0.469338)
(1.39965 -0.141854 0.498173)
(2.05221 -0.150705 0.483091)
(1.58283 -0.133899 0.501434)
(1.89609 -0.133672 0.493401)
(1.65503 -0.125544 0.503163)
(1.79104 -0.123297 0.500205)
(1.64839 -0.118815 0.505437)
(1.69975 -0.115789 0.50465)
(1.59886 -0.11222 0.507797)
(1.61391 -0.109408 0.505599)
(1.56686 -0.105785 0.507924)
(1.56633 -0.103922 0.496063)
(1.73338 -0.115094 0.499418)
(1.59234 -0.0608193 0.452276)
(3.07027 -0.126236 0.465691)
(9.11634 13.0708 -0.835849)
(0.825568 14.8952 -0.36103)
(1.86677 14.5586 -0.686682)
(0.738186 14.5097 -0.493499)
(1.02221 14.4821 -0.622844)
(0.838008 14.4972 -0.540776)
(0.851197 14.4823 -0.593528)
(0.825074 14.4902 -0.557601)
(0.808487 14.482 -0.577781)
(0.805501 14.4855 -0.561045)
(0.793337 14.4806 -0.566352)
(0.785831 14.4818 -0.557466)
(0.779671 14.4777 -0.554498)
(0.752713 14.4782 -0.548676)
(0.751653 14.4718 -0.538542)
(0.670398 14.4727 -0.53392)
(0.68462 14.4577 -0.513437)
(0.438196 14.4585 -0.509504)
(0.560462 14.3139 -0.470843)
(1.10707 14.3139 -0.463207)
(12.3025 -4.96134 -0.0325123)
(2.12189 -7.19935 0.463606)
(4.74527 -7.13376 0.144869)
(2.34402 -7.57604 0.342617)
(2.75539 -7.44163 0.210987)
(2.32499 -7.4742 0.294394)
(2.31985 -7.43408 0.240707)
(2.25039 -7.43224 0.27704)
(2.2028 -7.42139 0.256463)
(2.19055 -7.41619 0.273293)
(2.15979 -7.41502 0.267771)
(2.1393 -7.41119 0.276615)
(2.12484 -7.41854 0.279431)
(2.0561 -7.41493 0.285123)
(2.05482 -7.44178 0.295126)
(1.84208 -7.43525 0.299467)
(1.87538 -7.5175 0.319917)
(1.24216 -7.50523 0.323107)
(1.47067 -8.01611 0.364243)
(-0.414319 -7.89 0.368279)
(12.5473 5.18614 -0.331671)
(4.03519 6.67372 0.17327)
(6.36441 6.23161 -0.149036)
(4.20496 6.07504 0.0537199)
(4.38033 5.90877 -0.0791342)
(4.01037 5.92634 0.00615522)
(3.92633 5.88903 -0.0481541)
(3.87638 5.90542 -0.0111354)
(3.79877 5.89406 -0.0319558)
(3.79328 5.90255 -0.0148419)
(3.75119 5.89861 -0.0204215)
(3.73323 5.90325 -0.0114236)
(3.71573 5.9013 -0.00856983)
(3.64525 5.90528 -0.00275635)
(3.64565 5.9009 0.00733228)
(3.41753 5.9059 0.0118395)
(3.45441 5.88684 0.0323782)
(2.75897 5.88285 0.0358929)
(2.96354 5.79856 0.0771828)
(0.333299 5.83646 0.0803472)
(12.3221 -0.931134 -0.152774)
(4.01607 -1.84572 0.352533)
(7.43252 -1.8474 0.0371538)
(5.48042 -2.34848 0.233513)
(5.73528 -2.40272 0.102917)
(5.34077 -2.44288 0.184881)
(5.23571 -2.43937 0.132)
(5.16209 -2.43041 0.167531)
(5.07053 -2.42677 0.147341)
(5.05292 -2.41845 0.163757)
(5.00461 -2.41887 0.158325)
(4.97754 -2.41357 0.16694)
(4.96011 -2.42111 0.169655)
(4.87269 -2.41594 0.175198)
(4.88143 -2.44262 0.184919)
(4.60177 -2.43394 0.189164)
(4.66297 -2.52045 0.209061)
(3.78604 -2.51573 0.212207)