/*--------------------------------*- C++ -*----------------------------------*\
  =========                 |
  \\      /  F ield         | OpenFOAM: The Open Source CFD Toolbox
   \\    /   O peration     | Website:  https://openfoam.org
    \\  /    A nd           | Version:  7
     \\/     M anipulation  |
\*---------------------------------------------------------------------------*/
FoamFile
{
    version     2.0;
    format      ascii;
    class       volScalarField;
    location    "0.615";
    object      p_0;
}
// * * * * * * * * * * * * * * * * * * * * * * * * * * * * * * * * * * * * * //

dimensions      [1 -1 -2 0 0 0 0];

internalField   nonuniform List<scalar> 
7920
(
99388.1
99371.8
99378.9
99369.1
99375.2
99367.4
99372.5
99366.2
99370.4
99365.2
99368.5
99364.2
99366.9
99363.3
99365.4
99362.4
99364
99361.5
99362.9
99360.4
99372
99358.8
99366.1
99356.5
99362.6
99354.9
99360
99353.7
99357.9
99352.7
99356
99351.7
99354.4
99350.8
99352.9
99349.9
99351.5
99349.1
99350
99347.9
99379.9
99367.1
99373.7
99363.9
99369.9
99362.1
99367.2
99360.9
99365
99359.8
99363.1
99358.8
99361.4
99357.8
99360
99357
99358.6
99356.1
99357.5
99355.1
99372.5
99361.2
99367.9
99358.3
99364.3
99356.6
99361.7
99355.4
99359.5
99354.3
99357.6
99353.3
99356
99352.4
99354.5
99351.5
99353.1
99350.6
99351.6
99349.6
99376.5
99365.4
99371.8
99362.1
99368.1
99360.3
99365.4
99359.1
99363.2
99358
99361.3
99357
99359.6
99356
99358.1
99355.1
99356.8
99354.3
99355.6
99353.4
99374.2
99363.5
99369.9
99360.3
99366.3
99358.5
99363.5
99357.2
99361.4
99356.1
99359.5
99355.1
99357.8
99354.2
99356.3
99353.3
99354.9
99352.4
99353.6
99351.5
99374.2
99363.5
99369.9
99360.3
99366.3
99358.5
99363.5
99357.2
99361.4
99356.1
99359.5
99355.1
99357.8
99354.2
99356.3
99353.3
99354.9
99352.4
99353.6
99351.5
99376.5
99365.4
99371.8
99362.1
99368.1
99360.3
99365.4
99359.1
99363.2
99358
99361.3
99357
99359.6
99356
99358.1
99355.1
99356.8
99354.3
99355.6
99353.4
99372.5
99361.2
99367.9
99358.3
99364.3
99356.6
99361.7
99355.4
99359.5
99354.3
99357.6
99353.3
99356
99352.4
99354.5
99351.5
99353.1
99350.6
99351.6
99349.6
99379.9
99367.1
99373.7
99363.9
99369.9
99362.1
99367.2
99360.9
99365
99359.8
99363.1
99358.8
99361.4
99357.8
99360
99357
99358.6
99356.1
99357.5
99355.1
99372
99358.8
99366.1
99356.5
99362.6
99354.9
99360
99353.7
99357.9
99352.7
99356
99351.7
99354.4
99350.8
99352.9
99349.9
99351.5
99349.1
99350
99347.9
99388.1
99371.8
99378.9
99369.1
99375.2
99367.4
99372.5
99366.2
99370.4
99365.2
99368.5
99364.2
99366.9
99363.3
99365.4
99362.4
99364
99361.5
99362.9
99360.4
99353.4
99355.6
99349.1
99351.6
99347.6
99349.5
99346.6
99347.9
99345.9
99346.7
99345.2
99345.7
99344.7
99344.8
99344.2
99344.1
99343.8
99343.5
99343.3
99343.5
99364
99367.6
99361.1
99363.5
99359.3
99361.2
99358.2
99359.5
99357.4
99358.2
99356.7
99357.2
99356.2
99356.3
99355.7
99355.6
99355.3
99355
99355
99355.3
99355.3
99358.1
99351.8
99354.3
99350.1
99352
99349.1
99350.4
99348.4
99349.2
99347.7
99348.1
99347.1
99347.3
99346.7
99346.6
99346.2
99346.1
99345.7
99346.1
99361.3
99365
99358.9
99361.3
99357.1
99359
99356
99357.3
99355.2
99356
99354.5
99354.9
99353.9
99354
99353.4
99353.3
99353
99352.8
99352.8
99353
99357
99360.4
99354.4
99356.8
99352.6
99354.4
99351.5
99352.8
99350.7
99351.5
99350
99350.4
99349.4
99349.5
99348.9
99348.9
99348.5
99348.3
99348
99348.3
99359
99362.6
99356.6
99359.1
99354.9
99356.7
99353.8
99355
99352.9
99353.7
99352.2
99352.7
99351.6
99351.8
99351.1
99351.1
99350.7
99350.6
99350.4
99350.6
99359
99362.6
99356.6
99359.1
99354.9
99356.7
99353.8
99355
99352.9
99353.7
99352.2
99352.7
99351.6
99351.8
99351.1
99351.1
99350.7
99350.6
99350.4
99350.6
99357
99360.4
99354.4
99356.8
99352.6
99354.4
99351.5
99352.8
99350.7
99351.5
99350
99350.4
99349.4
99349.5
99348.9
99348.9
99348.5
99348.3
99348
99348.3
99361.3
99365
99358.9
99361.3
99357.1
99359
99356
99357.3
99355.2
99356
99354.5
99354.9
99353.9
99354
99353.4
99353.3
99353
99352.8
99352.8
99353
99355.3
99358.1
99351.8
99354.3
99350.1
99352
99349.1
99350.4
99348.4
99349.2
99347.7
99348.1
99347.1
99347.3
99346.7
99346.6
99346.2
99346.1
99345.7
99346
99364
99367.6
99361.1
99363.5
99359.3
99361.2
99358.2
99359.5
99357.4
99358.2
99356.7
99357.2
99356.2
99356.3
99355.7
99355.6
99355.3
99355
99355
99355.3
99353.4
99355.6
99349.1
99351.6
99347.6
99349.5
99346.6
99347.9
99345.9
99346.7
99345.2
99345.7
99344.7
99344.8
99344.2
99344.1
99343.8
99343.5
99343.3
99343.5
99344.3
99343.1
99342.5
99341.6
99340.8
99340.2
99339.4
99339.1
99338.5
99338.4
99337.8
99337.7
99337.2
99337.2
99336.7
99336.6
99336.1
99336.1
99335.6
99335.8
99343.9
99343.1
99342.5
99341.7
99340.8
99340.2
99339.5
99339.2
99338.5
99338.4
99337.8
99337.7
99337.2
99337.2
99336.6
99336.6
99336.1
99336.2
99335.6
99335.8
99343.9
99343
99342.4
99341.7
99340.8
99340.3
99339.5
99339.2
99338.5
99338.3
99337.7
99337.7
99337.1
99337.1
99336.6
99336.6
99336.1
99336.1
99335.6
99335.8
99343.7
99343
99342.4
99341.7
99340.9
99340.3
99339.5
99339.2
99338.5
99338.4
99337.8
99337.7
99337.2
99337.1
99336.6
99336.6
99336.1
99336.1
99335.6
99335.8
99343.7
99343
99342.4
99341.7
99340.9
99340.3
99339.5
99339.2
99338.5
99338.4
99337.8
99337.7
99337.1
99337.1
99336.6
99336.6
99336.1
99336.1
99335.6
99335.7
99343.6
99343
99342.4
99341.7
99340.9
99340.3
99339.5
99339.2
99338.6
99338.4
99337.8
99337.7
99337.1
99337.1
99336.6
99336.6
99336.1
99336.1
99335.6
99335.7
99343.6
99343
99342.4
99341.7
99340.9
99340.3
99339.5
99339.2
99338.6
99338.4
99337.8
99337.7
99337.1
99337.1
99336.6
99336.6
99336.1
99336.1
99335.6
99335.7
99343.7
99343
99342.4
99341.7
99340.9
99340.3
99339.5
99339.2
99338.5
99338.4
99337.8
99337.7
99337.1
99337.1
99336.6
99336.6
99336.1
99336.1
99335.6
99335.7
99343.7
99343
99342.4
99341.7
99340.9
99340.3
99339.5
99339.2
99338.5
99338.4
99337.8
99337.7
99337.2
99337.1
99336.6
99336.6
99336.1
99336.1
99335.6
99335.8
99343.9
99343
99342.4
99341.7
99340.8
99340.3
99339.5
99339.2
99338.5
99338.3
99337.7
99337.7
99337.1
99337.1
99336.6
99336.6
99336.1
99336.1
99335.6
99335.8
99343.9
99343.1
99342.5
99341.7
99340.8
99340.2
99339.5
99339.2
99338.5
99338.4
99337.8
99337.7
99337.2
99337.2
99336.6
99336.6
99336.1
99336.2
99335.6
99335.8
99344.3
99343.1
99342.5
99341.6
99340.8
99340.2
99339.4
99339.1
99338.5
99338.4
99337.8
99337.7
99337.2
99337.2
99336.7
99336.6
99336.1
99336.1
99335.6
99335.7
99344.3
99343.1
99342.5
99341.6
99340.8
99340.2
99339.4
99339.1
99338.5
99338.4
99337.8
99337.7
99337.2
99337.2
99336.7
99336.6
99336.1
99336.1
99335.6
99335.8
99343.9
99343.1
99342.5
99341.7
99340.8
99340.2
99339.5
99339.2
99338.5
99338.4
99337.8
99337.7
99337.2
99337.2
99336.6
99336.6
99336.1
99336.2
99335.6
99335.8
99343.9
99343
99342.4
99341.7
99340.8
99340.3
99339.5
99339.2
99338.5
99338.3
99337.7
99337.7
99337.1
99337.1
99336.6
99336.6
99336.1
99336.1
99335.6
99335.8
99343.7
99343
99342.4
99341.7
99340.9
99340.3
99339.5
99339.2
99338.5
99338.4
99337.8
99337.7
99337.2
99337.1
99336.6
99336.6
99336.1
99336.1
99335.6
99335.8
99343.7
99343
99342.4
99341.7
99340.9
99340.3
99339.5
99339.2
99338.5
99338.4
99337.8
99337.7
99337.1
99337.1
99336.6
99336.6
99336.1
99336.1
99335.6
99335.7
99343.6
99343
99342.4
99341.7
99340.9
99340.3
99339.5
99339.2
99338.6
99338.4
99337.8
99337.7
99337.1
99337.1
99336.6
99336.6
99336.1
99336.1
99335.6
99335.7
99343.6
99343
99342.4
99341.7
99340.9
99340.3
99339.5
99339.2
99338.6
99338.4
99337.8
99337.7
99337.1
99337.1
99336.6
99336.6
99336.1
99336.1
99335.6
99335.7
99343.7
99343
99342.4
99341.7
99340.9
99340.3
99339.5
99339.2
99338.5
99338.4
99337.8
99337.7
99337.1
99337.1
99336.6
99336.6
99336.1
99336.1
99335.6
99335.7
99343.7
99343
99342.4
99341.7
99340.9
99340.3
99339.5
99339.2
99338.5
99338.4
99337.8
99337.7
99337.2
99337.1
99336.6
99336.6
99336.1
99336.1
99335.6
99335.8
99343.9
99343
99342.4
99341.7
99340.8
99340.3
99339.5
99339.2
99338.5
99338.3
99337.7
99337.7
99337.1
99337.1
99336.6
99336.6
99336.1
99336.1
99335.6
99335.8
99343.9
99343.1
99342.5
99341.7
99340.8
99340.2
99339.5
99339.2
99338.5
99338.4
99337.8
99337.7
99337.2
99337.2
99336.6
99336.6
99336.1
99336.2
99335.6
99335.8
99344.3
99343.1
99342.5
99341.6
99340.8
99340.2
99339.4
99339.1
99338.5
99338.4
99337.8
99337.7
99337.2
99337.2
99336.7
99336.6
99336.1
99336.1
99335.6
99335.7
99353.4
99355.6
99349.1
99351.6
99347.6
99349.5
99346.6
99347.9
99345.9
99346.7
99345.2
99345.7
99344.7
99344.8
99344.2
99344.1
99343.8
99343.5
99343.3
99343.5
99364
99367.6
99361.1
99363.5
99359.3
99361.2
99358.2
99359.5
99357.4
99358.2
99356.7
99357.2
99356.2
99356.3
99355.7
99355.6
99355.3
99355
99355
99355.3
99355.3
99358.1
99351.8
99354.3
99350.1
99352
99349.1
99350.4
99348.4
99349.2
99347.7
99348.1
99347.1
99347.3
99346.7
99346.6
99346.2
99346.1
99345.7
99346.1
99361.3
99365
99358.9
99361.3
99357.1
99359
99356
99357.3
99355.2
99356
99354.5
99354.9
99353.9
99354
99353.4
99353.3
99353
99352.8
99352.8
99353
99357
99360.4
99354.4
99356.8
99352.6
99354.4
99351.5
99352.8
99350.7
99351.5
99350
99350.4
99349.4
99349.5
99348.9
99348.9
99348.5
99348.3
99348
99348.3
99359
99362.6
99356.6
99359.1
99354.9
99356.7
99353.8
99355
99352.9
99353.7
99352.2
99352.7
99351.6
99351.8
99351.1
99351.1
99350.7
99350.6
99350.4
99350.6
99359
99362.6
99356.6
99359.1
99354.9
99356.7
99353.8
99355
99352.9
99353.7
99352.2
99352.7
99351.6
99351.8
99351.1
99351.1
99350.7
99350.6
99350.4
99350.6
99357
99360.4
99354.4
99356.8
99352.6
99354.4
99351.5
99352.8
99350.7
99351.5
99350
99350.4
99349.4
99349.5
99348.9
99348.9
99348.5
99348.3
99348
99348.3
99361.3
99365
99358.9
99361.3
99357.1
99359
99356
99357.3
99355.2
99356
99354.5
99354.9
99353.9
99354
99353.4
99353.3
99353
99352.8
99352.8
99353
99355.3
99358.1
99351.8
99354.3
99350.1
99352
99349.1
99350.4
99348.4
99349.2
99347.7
99348.1
99347.1
99347.3
99346.7
99346.6
99346.2
99346.1
99345.7
99346
99364
99367.6
99361.1
99363.5
99359.3
99361.2
99358.2
99359.5
99357.4
99358.2
99356.7
99357.2
99356.2
99356.3
99355.7
99355.6
99355.3
99355
99355
99355.3
99353.4
99355.6
99349.1
99351.6
99347.6
99349.5
99346.6
99347.9
99345.9
99346.7
99345.2
99345.7
99344.7
99344.8
99344.2
99344.1
99343.8
99343.5
99343.3
99343.5
99388.1
99371.8
99378.9
99369.1
99375.2
99367.4
99372.5
99366.2
99370.4
99365.2
99368.5
99364.2
99366.9
99363.3
99365.4
99362.4
99364
99361.5
99362.9
99360.4
99372
99358.8
99366.1
99356.5
99362.6
99354.9
99360
99353.7
99357.9
99352.7
99356
99351.7
99354.4
99350.8
99352.9
99349.9
99351.5
99349.1
99350
99347.9
99379.9
99367.1
99373.7
99363.9
99369.9
99362.1
99367.2
99360.9
99365
99359.8
99363.1
99358.8
99361.4
99357.8
99360
99357
99358.6
99356.1
99357.5
99355.1
99372.5
99361.2
99367.9
99358.3
99364.3
99356.6
99361.7
99355.4
99359.5
99354.3
99357.6
99353.3
99356
99352.4
99354.5
99351.5
99353.1
99350.6
99351.6
99349.6
99376.5
99365.4
99371.8
99362.1
99368.1
99360.3
99365.4
99359.1
99363.2
99358
99361.3
99357
99359.6
99356
99358.1
99355.1
99356.8
99354.3
99355.6
99353.4
99374.2
99363.5
99369.9
99360.3
99366.3
99358.5
99363.5
99357.2
99361.4
99356.1
99359.5
99355.1
99357.8
99354.2
99356.3
99353.3
99354.9
99352.4
99353.6
99351.5
99374.2
99363.5
99369.9
99360.3
99366.3
99358.5
99363.5
99357.2
99361.4
99356.1
99359.5
99355.1
99357.8
99354.2
99356.3
99353.3
99354.9
99352.4
99353.6
99351.5
99376.5
99365.4
99371.8
99362.1
99368.1
99360.3
99365.4
99359.1
99363.2
99358
99361.3
99357
99359.6
99356
99358.1
99355.1
99356.8
99354.3
99355.6
99353.4
99372.5
99361.2
99367.9
99358.3
99364.3
99356.6
99361.7
99355.4
99359.5
99354.3
99357.6
99353.3
99356
99352.4
99354.5
99351.5
99353.1
99350.6
99351.6
99349.6
99379.9
99367.1
99373.7
99363.9
99369.9
99362.1
99367.2
99360.9
99365
99359.8
99363.1
99358.8
99361.4
99357.8
99360
99357
99358.6
99356.1
99357.5
99355.1
99372
99358.8
99366.1
99356.5
99362.6
99354.9
99360
99353.7
99357.9
99352.7
99356
99351.7
99354.4
99350.8
99352.9
99349.9
99351.5
99349.1
99350
99347.9
99388.1
99371.8
99378.9
99369.1
99375.2
99367.4
99372.5
99366.2
99370.4
99365.2
99368.5
99364.2
99366.9
99363.3
99365.4
99362.4
99364
99361.5
99362.9
99360.4
99382
99369.8
99372.1
99361.6
99363.4
99354.5
99356
99348.4
99349.6
99342.7
99343.6
99337.3
99337.9
99332.2
99332.8
99327.7
99328.3
99323.7
99324.2
99319.9
99320.3
99316.3
99316.5
99312.7
99312.9
99309.4
99309.7
99306.6
99306.9
99304.2
99304.6
99302.1
99302.4
99300
99300.3
99298
99298.3
99296.3
99296.8
99295.4
99296.2
99295.3
99296.4
99295.8
99297
99296.7
99298
99298.2
99300
99300.9
99303.5
99305.6
99309.4
99313
99318.1
99323.4
99329.9
99337
99345.1
99354.1
99364.1
99375.4
99387.8
99401.9
99417.1
99434.1
99452.3
99472.2
99493.2
99515.4
99538.6
99562.2
99587
99611.1
99636.5
99660.2
99685.8
99708.6
99734.1
99756
99781
99802.1
99826.7
99847.4
99871.4
99892
99915.3
99936.1
99958.6
99979.7
99348
99334.8
99336.8
99326.2
99327.8
99318.9
99320.4
99312.7
99313.9
99307.1
99307.9
99301.6
99302.3
99296.6
99297.2
99292.1
99292.6
99288
99288.6
99284.3
99284.7
99280.6
99280.9
99277.1
99277.3
99273.8
99274
99270.9
99271.2
99268.5
99268.9
99266.4
99266.7
99264.3
99264.6
99262.3
99262.6
99260.6
99261.1
99259.7
99260.5
99259.6
99260.7
99260.1
99261.3
99261
99262.3
99262.5
99264.2
99265.2
99267.8
99269.9
99273.6
99277.3
99282.4
99287.6
99294.2
99301.2
99309.4
99318.3
99328.4
99339.7
99352.1
99366.1
99381.3
99398.3
99416.5
99436.4
99457.3
99479.5
99502.8
99526.4
99551.1
99575.2
99600.6
99624.3
99649.9
99672.7
99698.1
99720
99745
99766.2
99790.7
99811.4
99835.4
99856
99879.3
99900.1
99922.6
99943.8
99367
99354.7
99357
99346.4
99348.2
99339.3
99340.8
99333.1
99334.3
99327.5
99328.3
99322.1
99322.7
99317
99317.6
99312.5
99313.1
99308.5
99309
99304.7
99305.1
99301.1
99301.3
99297.5
99297.7
99294.2
99294.5
99291.4
99291.7
99289
99289.4
99286.9
99287.2
99284.8
99285.1
99282.8
99283.1
99281.2
99281.6
99280.2
99281.1
99280.2
99281.2
99280.7
99281.8
99281.5
99282.9
99283
99284.8
99285.8
99288.4
99290.5
99294.2
99297.9
99303
99308.2
99314.8
99321.9
99330
99339
99349
99360.3
99372.7
99386.8
99402
99419
99437.2
99457.1
99478.1
99500.3
99523.5
99547.1
99571.9
99595.9
99621.4
99645.1
99670.7
99693.5
99718.9
99740.8
99765.9
99787
99811.5
99832.2
99856.2
99876.9
99900.2
99921
99943.4
99964.5
99352.1
99339
99341
99330.4
99332.1
99323.2
99324.6
99317
99318.1
99311.3
99312.1
99305.9
99306.5
99300.8
99301.4
99296.3
99296.9
99292.3
99292.8
99288.5
99288.9
99284.9
99285.1
99281.3
99281.5
99278
99278.3
99275.1
99275.5
99272.8
99273.2
99270.6
99271
99268.6
99268.8
99266.6
99266.8
99264.9
99265.4
99264
99264.8
99263.9
99265
99264.4
99265.6
99265.3
99266.6
99266.8
99268.5
99269.5
99272.1
99274.2
99278
99281.6
99286.7
99292
99298.5
99305.6
99313.7
99322.7
99332.7
99344
99356.4
99370.4
99385.7
99402.7
99420.9
99440.7
99461.7
99483.9
99507.1
99530.8
99555.5
99579.6
99605
99628.7
99654.3
99677.1
99702.5
99724.4
99749.4
99770.6
99795.1
99815.8
99839.8
99860.4
99883.7
99904.5
99927
99948.2
99361.8
99349.4
99351.6
99341
99342.7
99333.9
99335.3
99327.7
99328.9
99322
99322.9
99316.6
99317.2
99311.6
99312.1
99307
99307.6
99303
99303.6
99299.3
99299.7
99295.6
99295.9
99292.1
99292.3
99288.8
99289
99285.9
99286.3
99283.5
99284
99281.5
99281.8
99279.4
99279.6
99277.4
99277.6
99275.7
99276.2
99274.8
99275.7
99274.7
99275.8
99275.2
99276.4
99276.1
99277.5
99277.6
99279.4
99280.4
99283
99285.1
99288.8
99292.5
99297.6
99302.8
99309.4
99316.4
99324.6
99333.6
99343.6
99354.9
99367.3
99381.4
99396.6
99413.6
99431.8
99451.7
99472.7
99494.9
99518.1
99541.7
99566.5
99590.5
99616
99639.7
99665.3
99688.1
99713.5
99735.4
99760.4
99781.6
99806.1
99826.8
99850.8
99871.4
99894.7
99915.5
99938
99959.1
99357
99344.2
99346.3
99335.7
99337.3
99328.4
99329.9
99322.2
99323.4
99316.6
99317.4
99311.2
99311.8
99306.1
99306.7
99301.6
99302.2
99297.6
99298.1
99293.8
99294.2
99290.2
99290.4
99286.6
99286.8
99283.3
99283.6
99280.5
99280.8
99278.1
99278.5
99276
99276.3
99273.9
99274.2
99271.9
99272.2
99270.3
99270.8
99269.3
99270.2
99269.3
99270.3
99269.8
99271
99270.6
99272
99272.1
99273.9
99274.9
99277.5
99279.6
99283.3
99287
99292.1
99297.3
99303.9
99310.9
99319.1
99328.1
99338.1
99349.4
99361.8
99375.9
99391.1
99408.1
99426.3
99446.2
99467.1
99489.3
99512.6
99536.2
99560.9
99585
99610.5
99634.1
99659.7
99682.6
99708
99729.9
99754.9
99776
99800.6
99821.3
99845.2
99865.9
99889.2
99910
99932.5
99953.6
99357
99344.3
99346.5
99335.9
99337.6
99328.8
99330.2
99322.6
99323.8
99316.9
99317.8
99311.5
99312.1
99306.4
99307
99301.9
99302.5
99297.9
99298.4
99294.1
99294.5
99290.5
99290.8
99287
99287.1
99283.7
99283.9
99280.8
99281.2
99278.4
99278.8
99276.3
99276.7
99274.3
99274.5
99272.3
99272.5
99270.6
99271.1
99269.7
99270.5
99269.6
99270.7
99270.1
99271.3
99271
99272.3
99272.5
99274.2
99275.2
99277.8
99279.9
99283.7
99287.3
99292.4
99297.7
99304.2
99311.3
99319.4
99328.4
99338.4
99349.7
99362.1
99376.2
99391.4
99408.4
99426.6
99446.5
99467.5
99489.7
99512.9
99536.5
99561.3
99585.3
99610.8
99634.5
99660.1
99682.9
99708.3
99730.2
99755.2
99776.3
99800.9
99821.6
99845.6
99866.2
99889.5
99910.3
99932.8
99953.9
99361.7
99349.2
99351.4
99340.8
99342.5
99333.6
99335
99327.4
99328.6
99321.7
99322.6
99316.3
99316.9
99311.3
99311.8
99306.7
99307.3
99302.7
99303.3
99299
99299.4
99295.3
99295.6
99291.8
99292
99288.5
99288.7
99285.6
99286
99283.2
99283.7
99281.1
99281.5
99279.1
99279.3
99277.1
99277.3
99275.4
99275.9
99274.5
99275.4
99274.4
99275.5
99274.9
99276.1
99275.8
99277.2
99277.3
99279.1
99280.1
99282.7
99284.8
99288.5
99292.2
99297.3
99302.5
99309.1
99316.1
99324.3
99333.3
99343.3
99354.6
99367
99381.1
99396.3
99413.3
99431.5
99451.4
99472.4
99494.6
99517.8
99541.4
99566.2
99590.2
99615.7
99639.4
99665
99687.8
99713.2
99735.1
99760.1
99781.2
99805.8
99826.5
99850.5
99871.1
99894.4
99915.2
99937.7
99958.8
99352.1
99339.2
99341.2
99330.7
99332.4
99323.5
99325
99317.3
99318.5
99311.6
99312.5
99306.2
99306.8
99301.2
99301.7
99296.6
99297.2
99292.6
99293.1
99288.9
99289.3
99285.2
99285.5
99281.7
99281.9
99278.4
99278.6
99275.5
99275.9
99273.1
99273.5
99271
99271.3
99269
99269.2
99266.9
99267.2
99265.3
99265.8
99264.3
99265.2
99264.3
99265.3
99264.8
99265.9
99265.6
99267
99267.1
99268.9
99269.9
99272.4
99274.6
99278.3
99281.9
99287
99292.3
99298.9
99305.9
99314.1
99323
99333.1
99344.4
99356.8
99370.8
99386
99403
99421.2
99441.1
99462.1
99484.3
99507.5
99531.1
99555.9
99579.9
99605.4
99629
99654.6
99677.5
99702.9
99724.8
99749.8
99770.9
99795.5
99816.2
99840.1
99860.8
99884.1
99904.9
99927.4
99948.5
99366.9
99354.6
99356.8
99346.2
99347.9
99339
99340.5
99332.8
99334
99327.2
99328
99321.8
99322.4
99316.7
99317.3
99312.2
99312.8
99308.2
99308.7
99304.4
99304.8
99300.8
99301
99297.2
99297.4
99293.9
99294.2
99291.1
99291.4
99288.7
99289.1
99286.6
99286.9
99284.5
99284.8
99282.5
99282.8
99280.9
99281.3
99279.9
99280.8
99279.9
99280.9
99280.4
99281.5
99281.2
99282.6
99282.7
99284.5
99285.5
99288.1
99290.2
99293.9
99297.6
99302.7
99308
99314.5
99321.6
99329.7
99338.7
99348.7
99360
99372.4
99386.5
99401.7
99418.7
99436.9
99456.8
99477.8
99500
99523.2
99546.8
99571.6
99595.7
99621.1
99644.8
99670.4
99693.2
99718.6
99740.5
99765.6
99786.7
99811.2
99831.9
99855.9
99876.6
99899.9
99920.7
99943.1
99964.2
99348.1
99335
99337.1
99326.5
99328.2
99319.3
99320.8
99313.1
99314.3
99307.4
99308.3
99302
99302.6
99296.9
99297.5
99292.4
99293
99288.4
99288.9
99284.6
99285
99281
99281.2
99277.4
99277.6
99274.1
99274.4
99271.3
99271.6
99268.9
99269.3
99266.8
99267.1
99264.7
99264.9
99262.7
99262.9
99261
99261.5
99260.1
99260.9
99260
99261.1
99260.5
99261.7
99261.4
99262.7
99262.8
99264.6
99265.6
99268.2
99270.3
99274
99277.6
99282.7
99288
99294.6
99301.6
99309.7
99318.7
99328.7
99340
99352.4
99366.5
99381.7
99398.7
99416.9
99436.8
99457.7
99479.9
99503.1
99526.8
99551.5
99575.6
99601
99624.7
99650.3
99673.1
99698.5
99720.4
99745.4
99766.5
99791.1
99811.8
99835.7
99856.4
99879.7
99900.5
99923
99944.1
99381.9
99369.6
99371.8
99361.3
99363
99354.1
99355.6
99347.9
99349.1
99342.3
99343.1
99336.9
99337.5
99331.8
99332.4
99327.3
99327.9
99323.2
99323.8
99319.5
99319.9
99315.8
99316.1
99312.3
99312.5
99309
99309.2
99306.1
99306.5
99303.7
99304.1
99301.6
99302
99299.6
99299.8
99297.6
99297.8
99295.9
99296.4
99295
99295.8
99294.9
99296
99295.4
99296.6
99296.2
99297.6
99297.7
99299.5
99300.5
99303.1
99305.2
99308.9
99312.5
99317.6
99322.9
99329.5
99336.5
99344.7
99353.7
99363.7
99375
99387.4
99401.4
99416.6
99433.7
99451.9
99471.8
99492.7
99514.9
99538.2
99561.8
99586.6
99610.6
99636.1
99659.8
99685.4
99708.2
99733.6
99755.5
99780.6
99801.7
99826.2
99846.9
99870.9
99891.6
99914.9
99935.7
99958.1
99979.3
99327.4
99320.1
99320.9
99314.1
99315.1
99308.8
99309.9
99304
99305
99299.4
99300.2
99294.8
99295.4
99290.3
99290.9
99286.3
99287
99282.7
99283.3
99279.3
99279.7
99275.9
99276.2
99272.6
99272.8
99269.4
99269.7
99266.7
99267.1
99264.4
99264.9
99262.4
99262.8
99260.5
99260.7
99258.5
99258.8
99256.9
99257.4
99256
99256.9
99256
99257.1
99256.5
99257.7
99257.4
99258.7
99258.9
99260.7
99261.6
99264.3
99266.4
99270.1
99273.8
99278.9
99284.2
99290.8
99297.8
99306
99315
99325
99336.3
99348.8
99362.8
99378.1
99395.1
99413.3
99433.3
99454.3
99476.5
99499.7
99523.4
99548.2
99572.3
99597.7
99621.4
99647
99669.9
99695.2
99717.1
99742.1
99763.2
99787.7
99808.4
99832.2
99852.9
99875.8
99896.7
99918.7
99939.6
99359.8
99353
99354
99347.4
99348.5
99342.2
99343.3
99337.4
99338.4
99332.8
99333.6
99328.2
99328.8
99323.8
99324.4
99319.8
99320.4
99316.1
99316.7
99312.7
99313.2
99309.3
99309.7
99306
99306.3
99302.9
99303.2
99300.2
99300.6
99297.9
99298.3
99295.9
99296.3
99293.9
99294.2
99291.9
99292.2
99290.3
99290.8
99289.4
99290.3
99289.4
99290.5
99289.9
99291.1
99290.8
99292.2
99292.3
99294.1
99295.1
99297.7
99299.8
99303.6
99307.2
99312.3
99317.6
99324.2
99331.3
99339.4
99348.4
99358.5
99369.8
99382.2
99396.3
99411.5
99428.6
99446.8
99466.7
99487.8
99510
99533.3
99556.9
99581.7
99605.8
99631.3
99655
99680.6
99703.4
99728.8
99750.7
99775.7
99796.8
99821.3
99842
99865.8
99886.5
99909.5
99930.4
99952.3
99973.2
99335.5
99327.7
99328.4
99321.7
99322.7
99316.3
99317.4
99311.5
99312.6
99306.9
99307.7
99302.3
99302.9
99297.9
99298.5
99293.9
99294.5
99290.2
99290.9
99286.8
99287.3
99283.5
99283.8
99280.1
99280.4
99277
99277.3
99274.3
99274.7
99272
99272.4
99270
99270.4
99268
99268.3
99266.1
99266.3
99264.4
99264.9
99263.5
99264.4
99263.5
99264.6
99264
99265.2
99264.9
99266.3
99266.4
99268.2
99269.2
99271.8
99273.9
99277.7
99281.3
99286.4
99291.7
99298.3
99305.3
99313.5
99322.5
99332.6
99343.9
99356.3
99370.4
99385.6
99402.7
99420.9
99440.8
99461.8
99484
99507.3
99531
99555.7
99579.8
99605.3
99629
99654.6
99677.4
99702.8
99724.7
99749.7
99770.8
99795.3
99816
99839.8
99860.4
99883.4
99904.3
99926.3
99947.2
99353.5
99346.5
99347.5
99340.8
99341.9
99335.6
99336.7
99330.8
99331.8
99326.2
99327
99321.6
99322.2
99317.2
99317.8
99313.1
99313.8
99309.5
99310.1
99306.1
99306.6
99302.7
99303.1
99299.4
99299.7
99296.3
99296.6
99293.5
99294
99291.3
99291.7
99289.3
99289.7
99287.3
99287.6
99285.3
99285.6
99283.7
99284.2
99282.8
99283.7
99282.8
99283.9
99283.3
99284.5
99284.2
99285.6
99285.7
99287.5
99288.5
99291.1
99293.2
99297
99300.6
99305.7
99311
99317.6
99324.6
99332.8
99341.8
99351.9
99363.2
99375.6
99389.7
99404.9
99422
99440.2
99460.1
99481.1
99503.4
99526.7
99550.3
99575.1
99599.2
99624.7
99648.4
99674
99696.8
99722.2
99744.1
99769.1
99790.2
99814.7
99835.4
99859.2
99879.9
99902.9
99923.7
99945.6
99966.6
99341.8
99334.2
99334.9
99328.1
99329.1
99322.8
99323.9
99318
99319
99313.4
99314.2
99308.8
99309.4
99304.4
99305
99300.3
99301
99296.7
99297.3
99293.3
99293.8
99289.9
99290.3
99286.6
99286.8
99283.5
99283.8
99280.7
99281.2
99278.5
99278.9
99276.5
99276.8
99274.5
99274.8
99272.5
99272.8
99270.9
99271.4
99270
99270.9
99270
99271.1
99270.5
99271.7
99271.4
99272.8
99272.9
99274.7
99275.7
99278.3
99280.4
99284.2
99287.8
99292.9
99298.2
99304.8
99311.8
99320
99329
99339.1
99350.4
99362.8
99376.9
99392.1
99409.2
99427.4
99447.3
99468.3
99490.5
99513.8
99537.5
99562.3
99586.3
99611.8
99635.5
99661.1
99684
99709.3
99731.2
99756.2
99777.3
99801.8
99822.5
99846.3
99867
99890
99910.8
99932.8
99953.7
99347.7
99340.4
99341.2
99334.5
99335.6
99329.3
99330.4
99324.5
99325.5
99319.9
99320.7
99315.3
99315.9
99310.9
99311.5
99306.8
99307.5
99303.2
99303.8
99299.8
99300.3
99296.4
99296.8
99293.1
99293.4
99290
99290.3
99287.3
99287.7
99285
99285.4
99283
99283.4
99281
99281.3
99279
99279.3
99277.4
99277.9
99276.5
99277.4
99276.5
99277.6
99277
99278.2
99277.9
99279.3
99279.4
99281.2
99282.2
99284.8
99286.9
99290.7
99294.3
99299.4
99304.7
99311.3
99318.4
99326.5
99335.5
99345.6
99356.9
99369.3
99383.4
99398.6
99415.7
99433.9
99453.8
99474.8
99497.1
99520.4
99544
99568.8
99592.9
99618.4
99642
99667.7
99690.5
99715.9
99737.8
99762.8
99783.9
99808.3
99829.1
99852.9
99873.6
99896.5
99917.4
99939.3
99960.3
99347.6
99340.3
99341.1
99334.3
99335.3
99329
99330.1
99324.2
99325.2
99319.6
99320.4
99315
99315.6
99310.5
99311.2
99306.5
99307.2
99302.9
99303.5
99299.5
99300
99296.1
99296.4
99292.8
99293
99289.7
99290
99286.9
99287.3
99284.7
99285.1
99282.7
99283
99280.7
99280.9
99278.7
99279
99277.1
99277.6
99276.2
99277.1
99276.2
99277.3
99276.7
99277.9
99277.6
99279
99279.1
99280.9
99281.9
99284.5
99286.6
99290.4
99294
99299.1
99304.4
99311
99318
99326.2
99335.2
99345.3
99356.6
99369
99383.1
99398.3
99415.4
99433.6
99453.5
99474.5
99496.8
99520
99543.7
99568.5
99592.5
99618
99641.7
99667.3
99690.2
99715.6
99737.5
99762.4
99783.6
99808
99828.7
99852.5
99873.2
99896.2
99917.1
99939
99959.9
99341.9
99334.3
99335.1
99328.4
99329.4
99323.1
99324.2
99318.3
99319.3
99313.7
99314.5
99309.1
99309.7
99304.6
99305.3
99300.6
99301.3
99297
99297.6
99293.6
99294.1
99290.2
99290.5
99286.9
99287.1
99283.8
99284.1
99281
99281.4
99278.8
99279.2
99276.7
99277.1
99274.8
99275
99272.8
99273.1
99271.2
99271.7
99270.3
99271.2
99270.3
99271.4
99270.8
99272
99271.7
99273.1
99273.2
99275
99276
99278.6
99280.7
99284.5
99288.1
99293.2
99298.5
99305.1
99312.1
99320.3
99329.3
99339.4
99350.7
99363.1
99377.2
99392.4
99409.5
99427.7
99447.6
99468.6
99490.8
99514.1
99537.8
99562.5
99586.6
99612.1
99635.8
99661.4
99684.3
99709.6
99731.5
99756.5
99777.6
99802.1
99822.8
99846.6
99867.3
99890.3
99911.1
99933.1
99954
99353.5
99346.4
99347.3
99340.5
99341.6
99335.2
99336.3
99330.4
99331.5
99325.8
99326.6
99321.2
99321.9
99316.8
99317.4
99312.8
99313.4
99309.2
99309.8
99305.7
99306.2
99302.4
99302.7
99299
99299.3
99295.9
99296.2
99293.2
99293.6
99290.9
99291.4
99288.9
99289.3
99286.9
99287.2
99285
99285.2
99283.3
99283.9
99282.5
99283.3
99282.4
99283.5
99282.9
99284.1
99283.8
99285.2
99285.3
99287.1
99288.1
99290.7
99292.8
99296.6
99300.2
99305.3
99310.6
99317.2
99324.3
99332.4
99341.4
99351.5
99362.8
99375.2
99389.3
99404.6
99421.6
99439.8
99459.8
99480.8
99503
99526.3
99549.9
99574.7
99598.8
99624.3
99648
99673.6
99696.4
99721.8
99743.7
99768.7
99789.8
99814.3
99835
99858.8
99879.5
99902.5
99923.3
99945.2
99966.2
99335.5
99327.9
99328.6
99321.9
99322.9
99316.6
99317.7
99311.8
99312.8
99307.2
99308
99302.6
99303.2
99298.2
99298.8
99294.1
99294.8
99290.5
99291.1
99287.1
99287.6
99283.7
99284
99280.4
99280.6
99277.3
99277.6
99274.5
99274.9
99272.3
99272.7
99270.3
99270.6
99268.3
99268.5
99266.3
99266.6
99264.7
99265.2
99263.8
99264.7
99263.8
99264.9
99264.3
99265.5
99265.2
99266.6
99266.7
99268.5
99269.5
99272.1
99274.2
99277.9
99281.6
99286.7
99292
99298.6
99305.6
99313.8
99322.8
99332.8
99344.2
99356.6
99370.6
99385.9
99402.9
99421.2
99441.1
99462.1
99484.3
99507.6
99531.2
99556
99580.1
99605.6
99629.3
99654.9
99677.7
99703.1
99725
99750
99771.1
99795.5
99816.2
99840
99860.7
99883.7
99904.6
99926.5
99947.5
99359.7
99352.8
99353.7
99347.1
99348.1
99341.8
99342.9
99337
99338
99332.3
99333.1
99327.7
99328.4
99323.3
99323.9
99319.3
99320
99315.7
99316.3
99312.3
99312.7
99308.9
99309.2
99305.5
99305.8
99302.4
99302.7
99299.7
99300.1
99297.4
99297.9
99295.4
99295.8
99293.4
99293.7
99291.5
99291.8
99289.9
99290.4
99289
99289.8
99288.9
99290
99289.5
99290.7
99290.4
99291.7
99291.9
99293.7
99294.6
99297.2
99299.4
99303.1
99306.7
99311.9
99317.2
99323.7
99330.8
99339
99348
99358
99369.3
99381.8
99395.8
99411.1
99428.1
99446.4
99466.3
99487.3
99509.5
99532.8
99556.5
99581.2
99605.3
99630.8
99654.5
99680.1
99703
99728.4
99750.3
99775.3
99796.4
99820.8
99841.5
99865.4
99886
99909
99929.9
99951.8
99972.7
99327.5
99320.3
99321.1
99314.4
99315.4
99309
99310.2
99304.2
99305.3
99299.6
99300.4
99295
99295.6
99290.6
99291.2
99286.6
99287.2
99283
99283.6
99279.5
99280
99276.2
99276.5
99272.8
99273.1
99269.7
99270
99267
99267.4
99264.7
99265.2
99262.7
99263.1
99260.7
99261
99258.8
99259
99257.1
99257.7
99256.3
99257.1
99256.2
99257.3
99256.7
99257.9
99257.6
99259
99259.1
99260.9
99261.9
99264.5
99266.6
99270.4
99274
99279.1
99284.4
99291
99298.1
99306.2
99315.2
99325.3
99336.6
99349
99363.1
99378.3
99395.4
99413.6
99433.5
99454.5
99476.7
99500
99523.7
99548.4
99572.5
99598
99621.7
99647.3
99670.1
99695.5
99717.4
99742.4
99763.5
99787.9
99808.6
99832.4
99853.1
99876.1
99897
99918.9
99939.9
99334.4
99329.3
99328.7
99324
99324
99319.4
99320
99315.4
99316.1
99311.6
99312.3
99307.7
99308.3
99303.9
99304.5
99300.3
99301
99297.1
99297.8
99294.1
99294.6
99291
99291.4
99287.9
99288.2
99285
99285.3
99282.4
99282.9
99280.2
99280.7
99278.3
99278.8
99276.4
99276.8
99274.6
99274.9
99273
99273.5
99272.1
99273
99272.1
99273.3
99272.7
99273.9
99273.6
99275
99275.1
99277
99277.9
99280.5
99282.7
99286.4
99290.1
99295.2
99300.5
99307.1
99314.2
99322.4
99331.4
99341.4
99352.8
99365.2
99379.3
99394.6
99411.7
99429.9
99449.9
99470.9
99493.2
99516.5
99540.1
99564.9
99589.1
99614.6
99638.3
99663.9
99686.7
99712.1
99734
99759
99780.1
99804.6
99825.3
99849.1
99869.8
99892.8
99913.7
99935.9
99956.8
99334.5
99329.4
99328.7
99324
99324.1
99319.5
99320
99315.5
99316.2
99311.6
99312.3
99307.7
99308.3
99303.9
99304.5
99300.4
99301.1
99297.2
99297.8
99294.1
99294.6
99291
99291.4
99287.9
99288.2
99285
99285.3
99282.4
99282.9
99280.3
99280.8
99278.4
99278.8
99276.5
99276.8
99274.6
99274.9
99273
99273.5
99272.2
99273
99272.2
99273.3
99272.7
99273.9
99273.6
99275
99275.2
99277
99277.9
99280.6
99282.7
99286.5
99290.1
99295.2
99300.5
99307.1
99314.2
99322.4
99331.4
99341.5
99352.8
99365.2
99379.3
99394.6