/*--------------------------------*- C++ -*----------------------------------*\
  =========                 |
  \\      /  F ield         | OpenFOAM: The Open Source CFD Toolbox
   \\    /   O peration     | Website:  https://openfoam.org
    \\  /    A nd           | Version:  7
     \\/     M anipulation  |
\*---------------------------------------------------------------------------*/
FoamFile
{
    version     2.0;
    format      ascii;
    class       volScalarField;
    location    "0.48";
    object      T;
}
// * * * * * * * * * * * * * * * * * * * * * * * * * * * * * * * * * * * * * //

dimensions      [0 0 0 1 0 0 0];

internalField   nonuniform List<scalar> 
4950
(
282.943
283.047
283.099
283.202
283.252
283.333
283.348
283.38
283.363
283.365
283.329
283.311
283.269
283.249
283.22
283.209
283.203
283.191
283.229
283.133
282.916
282.973
283.022
283.145
283.303
283.511
283.661
283.765
283.803
283.81
283.769
283.698
283.597
283.485
283.385
283.285
283.251
283.156
283.259
283.037
282.879
282.911
282.89
282.965
283.059
283.3
283.512
283.716
283.804
283.875
283.886
283.896
283.831
283.714
283.532
283.323
283.158
282.961
282.927
282.723
282.914
282.954
282.956
283
283.094
283.308
283.552
283.768
283.892
283.958
283.995
284.034
284.044
283.986
283.844
283.607
283.384
283.106
282.98
282.752
282.881
282.913
282.881
282.932
282.997
283.219
283.444
283.677
283.789
283.866
283.889
283.945
283.965
283.945
283.819
283.599
283.358
283.068
282.905
282.67
282.914
282.954
282.956
283
283.094
283.308
283.552
283.768
283.892
283.959
283.995
284.034
284.043
283.987
283.842
283.609
283.379
283.112
282.973
282.76
282.879
282.911
282.89
282.965
283.059
283.3
283.512
283.716
283.804
283.875
283.886
283.897
283.829
283.717
283.528
283.332
283.143
282.986
282.889
282.777
282.916
282.973
283.022
283.145
283.303
283.511
283.661
283.765
283.803
283.81
283.768
283.699
283.596
283.487
283.38
283.295
283.231
283.198
283.172
283.204
282.943
283.047
283.099
283.202
283.252
283.333
283.348
283.38
283.363
283.365
283.329
283.311
283.269
283.25
283.219
283.212
283.198
283.204
283.199
283.228
283.228
283.262
283.376
283.459
283.618
283.679
283.753
283.734
283.744
283.691
283.671
283.605
283.578
283.522
283.513
283.476
283.498
283.451
283.582
283.247
283.196
283.22
283.282
283.36
283.558
283.774
283.97
284.08
284.145
284.154
284.124
284.023
283.892
283.727
283.597
283.458
283.415
283.296
283.405
283.192
283.234
283.27
283.35
283.383
283.579
283.799
284.067
284.218
284.337
284.378
284.429
284.404
284.334
284.152
283.95
283.701
283.536
283.325
283.291
283.089
283.195
283.225
283.272
283.312
283.48
283.713
283.967
284.139
284.241
284.295
284.35
284.386
284.37
284.254
284.054
283.789
283.555
283.3
283.181
282.953
283.233
283.272
283.35
283.376
283.564
283.783
284.057
284.219
284.336
284.375
284.441
284.477
284.489
284.389
284.209
283.935
283.696
283.416
283.286
283.052
283.195
283.225
283.272
283.312
283.48
283.713
283.967
284.139
284.241
284.295
284.35
284.386
284.369
284.255
284.053
283.791
283.552
283.304
283.176
282.959
283.234
283.27
283.35
283.383
283.579
283.799
284.067
284.218
284.336
284.378
284.428
284.405
284.332
284.155
283.945
283.709
283.522
283.347
283.259
283.133
283.196
283.22
283.282
283.36
283.558
283.774
283.97
284.08
284.144
284.155
284.123
284.024
283.89
283.731
283.59
283.472
283.388
283.347
283.312
283.355
283.228
283.262
283.375
283.459
283.618
283.679
283.753
283.734
283.744
283.691
283.671
283.606
283.577
283.524
283.51
283.481
283.486
283.481
283.489
283.52
283.181
283.216
283.273
283.407
283.611
283.777
283.871
283.864
283.809
283.728
283.665
283.604
283.572
283.535
283.541
283.509
283.581
283.469
283.771
283.205
283.18
283.223
283.247
283.334
283.543
283.804
284.024
284.159
284.239
284.268
284.24
284.116
283.938
283.714
283.544
283.356
283.3
283.149
283.269
283.101
283.181
283.23
283.252
283.32
283.52
283.789
284.034
284.187
284.281
284.35
284.407
284.401
284.301
284.095
283.841
283.579
283.376
283.167
283.087
282.891
283.18
283.228
283.243
283.311
283.511
283.784
284.023
284.171
284.251
284.317
284.385
284.422
284.367
284.202
283.949
283.672
283.434
283.196
283.078
282.844
283.182
283.23
283.25
283.319
283.523
283.796
284.041
284.188
284.27
284.334
284.405
284.449
284.407
284.254
284.008
283.728
283.488
283.243
283.122
282.887
283.18
283.228
283.243
283.312
283.511
283.784
284.023
284.171
284.251
284.317
284.385
284.422
284.367
284.202
283.949
283.672
283.434
283.196
283.079
282.843
283.181
283.23
283.251
283.32
283.52
283.79
284.033
284.187
284.281
284.35
284.406
284.402
284.299
284.097
283.838
283.584
283.369
283.178
283.074
282.907
283.18
283.224
283.247
283.334
283.543
283.804
284.024
284.16
284.238
284.269
284.238
284.119
283.933
283.722
283.531
283.378
283.263
283.209
283.177
283.232
283.181
283.216
283.273
283.407
283.611
283.777
283.871
283.864
283.808
283.729
283.664
283.606
283.568
283.54
283.532
283.528
283.542
283.555
283.57
283.637
283.228
283.262
283.376
283.459
283.618
283.679
283.753
283.734
283.744
283.691
283.671
283.605
283.578
283.522
283.513
283.476
283.498
283.451
283.582
283.247
283.196
283.22
283.282
283.36
283.558
283.774
283.97
284.08
284.145
284.154
284.124
284.023
283.892
283.727
283.597
283.458
283.415
283.296
283.405
283.192
283.234
283.27
283.35
283.383
283.579
283.799
284.067
284.218
284.337
284.378
284.429
284.404
284.334
284.152
283.95
283.701
283.536
283.325
283.291
283.089
283.195
283.225
283.272
283.312
283.48
283.713
283.967
284.139
284.241
284.295
284.35
284.386
284.37
284.254
284.054
283.789
283.555
283.3
283.181
282.953
283.233
283.272
283.35
283.376
283.564
283.783
284.057
284.219
284.336
284.375
284.441
284.477
284.489
284.389
284.209
283.935
283.696
283.416
283.286
283.052
283.195
283.225
283.272
283.312
283.48
283.713
283.967
284.139
284.241
284.295
284.35
284.386
284.369
284.255
284.053
283.791
283.552
283.304
283.176
282.959
283.234
283.27
283.35
283.383
283.579
283.799
284.067
284.218
284.336
284.378
284.429
284.405
284.332
284.155
283.945
283.709
283.522
283.347
283.259
283.133
283.196
283.22
283.282
283.36
283.558
283.774
283.97
284.08
284.144
284.155
284.123
284.024
283.89
283.731
283.59
283.472
283.388
283.347
283.312
283.355
283.228
283.262
283.375
283.459
283.618
283.679
283.753
283.734
283.744
283.691
283.671
283.606
283.577
283.524
283.51
283.481
283.486
283.481
283.489
283.52
282.943
283.047
283.099
283.202
283.252
283.333
283.348
283.38
283.363
283.365
283.329
283.311
283.269
283.249
283.22
283.209
283.203
283.191
283.229
283.133
282.916
282.973
283.022
283.145
283.303
283.511
283.661
283.765
283.803
283.81
283.769
283.698
283.597
283.485
283.385
283.285
283.251
283.156
283.259
283.037
282.879
282.911
282.89
282.965
283.059
283.3
283.512
283.716
283.804
283.875
283.886
283.896
283.831
283.714
283.532
283.323
283.158
282.961
282.927
282.723
282.914
282.954
282.956
283
283.094
283.308
283.552
283.768
283.892
283.958
283.995
284.034
284.044
283.986
283.844
283.607
283.384
283.106
282.98
282.752
282.881
282.913
282.881
282.932
282.997
283.219
283.444
283.677
283.789
283.866
283.889
283.945
283.965
283.945
283.819
283.599
283.358
283.068
282.905
282.67
282.914
282.954
282.956
283
283.094
283.308
283.552
283.768
283.892
283.959
283.995
284.034
284.043
283.987
283.842
283.609
283.379
283.112
282.973
282.76
282.879
282.911
282.89
282.965
283.059
283.3
283.512
283.716
283.804
283.875
283.886
283.897
283.829
283.717
283.528
283.332
283.143
282.986
282.889
282.777
282.916
282.973
283.022
283.145
283.303
283.511
283.661
283.765
283.803
283.81
283.768
283.699
283.595
283.487
283.38
283.295
283.231
283.198
283.172
283.204
282.943
283.047
283.099
283.202
283.252
283.333
283.348
283.38
283.363
283.365
283.329
283.311
283.269
283.25
283.219
283.212
283.198
283.204
283.199
283.228
285.034
286.459
287.368
287.981
288.316
288.496
288.567
288.605
288.613
288.621
288.62
288.623
288.621
288.622
288.62
288.619
288.616
288.614
288.61
288.607
288.601
288.596
288.59
288.583
288.575
288.567
288.558
288.548
288.537
288.526
288.514
288.502
288.49
288.477
288.465
288.453
288.441
288.429
288.418
288.408
288.399
288.39
288.382
288.374
288.366
288.359
288.351
288.344
288.337
288.329
288.322
288.314
288.306
288.298
288.289
288.281
288.273
288.265
288.257
288.25
288.243
288.237
288.23
288.224
288.217
288.21
288.203
288.195
288.188
288.181
288.174
288.167
288.16
288.154
288.147
288.141
288.134
288.127
288.12
288.113
288.107
288.1
288.093
288.086
288.079
288.072
288.066
288.053
288.076
287.961
283.984
285.264
286.175
286.807
287.178
287.385
287.478
287.524
287.537
287.546
287.546
287.548
287.546
287.546
287.544
287.543
287.54
287.537
287.533
287.529
287.524
287.519
287.512
287.505
287.498
287.489
287.48
287.47
287.459
287.448
287.436
287.424
287.412
287.399
287.387
287.375
287.363
287.351
287.34
287.33
287.321
287.312
287.303
287.296
287.288
287.28
287.273
287.266
287.258
287.251
287.243
287.235
287.227
287.219
287.21
287.202
287.194
287.186
287.178
287.171
287.164
287.157
287.15
287.144
287.137
287.13
287.122
287.115
287.108
287.1
287.093
287.086
287.079
287.073
287.066
287.059
287.052
287.046
287.039
287.032
287.025
287.018
287.011
287.004
286.998
286.99
286.984
286.97
286.994
286.898
283.018
283.954
284.766
285.387
285.781
286.03
286.155
286.225
286.25
286.265
286.267
286.271
286.269
286.271
286.268
286.268
286.265
286.263
286.259
286.256
286.25
286.246
286.239
286.233
286.225
286.217
286.207
286.197
286.187
286.175
286.164
286.152
286.139
286.127
286.115
286.103
286.091
286.079
286.068
286.058
286.048
286.04
286.031
286.023
286.016
286.008
286.001
285.993
285.986
285.978
285.971
285.963
285.955
285.946
285.938
285.93
285.922
285.914
285.906
285.899
285.892
285.885
285.879
285.872
285.865
285.858
285.851
285.843
285.836
285.829
285.822
285.815
285.808
285.801
285.794
285.788
285.781
285.774
285.767
285.76
285.753
285.746
285.74
285.733
285.726
285.718
285.712
285.698
285.716
285.651
282.668
283.271
283.94
284.47
284.829
285.071
285.21
285.289
285.323
285.34
285.344
285.347
285.345
285.345
285.342
285.341
285.338
285.336
285.331
285.328
285.322
285.317
285.31
285.304
285.296
285.287
285.278
285.268
285.257
285.246
285.234
285.222
285.21
285.198
285.186
285.174
285.162
285.15
285.139
285.129
285.12
285.111
285.102
285.095
285.087
285.08
285.072
285.065
285.057
285.05
285.042
285.034
285.026
285.018
285.01
285.001
284.993
284.985
284.978
284.971
284.964
284.957
284.95
284.944
284.937
284.93
284.922
284.915
284.908
284.901
284.893
284.887
284.88
284.873
284.866
284.86
284.853
284.846
284.839
284.832
284.826
284.819
284.812
284.805
284.799
284.792
284.785
284.773
284.783
284.744
282.49
282.945
283.472
283.892
284.168
284.37
284.491
284.569
284.603
284.623
284.627
284.631
284.63
284.631
284.629
284.628
284.625
284.624
284.62
284.616
284.611
284.606
284.6
284.593
284.586
284.578
284.568
284.558
284.548
284.537
284.525
284.513
284.501
284.489
284.477
284.465
284.453
284.441
284.43
284.42
284.411
284.402
284.394
284.386
284.378
284.371
284.363
284.356
284.349
284.341
284.334
284.326
284.318
284.31
284.301
284.293
284.285
284.277
284.269
284.262
284.255
284.249
284.242
284.235
284.229
284.221
284.214
284.207
284.2
284.192
284.185
284.179
284.172
284.165
284.158
284.152
284.145
284.138
284.131
284.124
284.117
284.111
284.104
284.097
284.09
284.083
284.075
284.066
284.068
284.044
282.639
283.018
283.428
283.721
283.905
284.039
284.125
284.182
284.208
284.222
284.225
284.227
284.226
284.225
284.223
284.222
284.219
284.217
284.213
284.209
284.204
284.199
284.192
284.186
284.178
284.17
284.161
284.151
284.141
284.13
284.118
284.107
284.095
284.083
284.071
284.059
284.047
284.036
284.025
284.016
284.006
283.998
283.989
283.982
283.974
283.967
283.96
283.953
283.946
283.938
283.931
283.923
283.915
283.907
283.899
283.891
283.883
283.876
283.868
283.861
283.854
283.848
283.841
283.835
283.828
283.821
283.814
283.807
283.8
283.793
283.786
283.78
283.773
283.767
283.76
283.753
283.747
283.74
283.734
283.727
283.72
283.714
283.707
283.701
283.694
283.688
283.68
283.673
283.67
283.655
282.799
283.113
283.376
283.558
283.656
283.737
283.784
283.822
283.836
283.847
283.848
283.852
283.85
283.851
283.849
283.849
283.847
283.845
283.842
283.838
283.834
283.829
283.824
283.818
283.81
283.803
283.794
283.785
283.775
283.764
283.753
283.742
283.73
283.719
283.707
283.696
283.685
283.674
283.664
283.655
283.646
283.638
283.63
283.623
283.617
283.61
283.603
283.597
283.59
283.584
283.577
283.57
283.563
283.556
283.549
283.542
283.534
283.528
283.521
283.515
283.509
283.504
283.498
283.493
283.487
283.481
283.475
283.469
283.463
283.457
283.451
283.446
283.44
283.435
283.43
283.424
283.419
283.413
283.408
283.402
283.397
283.392
283.386
283.381
283.375
283.37
283.363
283.358
283.354
283.343
283.124
283.263
283.387
283.465
283.506
283.54
283.56
283.575
283.581
283.586
283.585
283.586
283.585
283.585
283.583
283.582
283.58
283.578
283.575
283.571
283.567
283.563
283.558
283.552
283.545
283.538
283.53
283.522
283.513
283.503
283.493
283.483
283.472
283.462
283.452
283.442
283.432
283.423
283.415
283.407
283.4
283.394
283.389
283.384
283.379
283.375
283.371
283.366
283.362
283.358
283.354
283.349
283.345
283.34
283.335
283.331
283.326
283.322
283.318
283.315
283.312
283.309
283.306
283.303
283.3
283.297
283.294
283.29
283.287
283.284
283.281
283.278
283.276
283.273
283.27
283.268
283.265
283.263
283.26
283.257
283.255
283.252
283.25
283.248
283.245
283.243
283.239
283.237
283.235
283.23
283.135
283.177
283.209
283.234
283.243
283.255
283.259
283.266
283.267
283.269
283.268
283.269
283.268
283.269
283.267
283.267
283.265
283.264
283.262
283.26
283.257
283.253
283.25
283.246
283.241
283.236
283.23
283.224
283.218
283.212
283.205
283.199
283.192
283.186
283.18
283.175
283.17
283.166
283.162
283.159
283.157
283.156
283.155
283.154
283.154
283.154
283.154
283.154
283.153
283.153
283.152
283.151
283.15
283.149
283.148
283.147
283.146
283.145
283.144
283.144
283.144
283.144
283.145
283.145
283.145
283.144
283.144
283.143
283.143
283.142
283.142
283.142
283.142
283.142
283.142
283.142
283.141
283.141
283.141
283.141
283.14
283.14
283.14
283.14
283.14
283.14
283.139
283.139
283.138
283.137
285.553
287.119
288.074
288.662
289.005
289.159
289.23
289.249
289.257
289.253
289.252
289.246
289.243
289.238
289.234
289.229
289.225
289.22
289.215
289.209
289.203
289.196
289.188
289.18
289.172
289.163
289.153
289.142
289.131
289.119
289.107
289.095
289.082
289.07
289.057
289.045
289.033
289.022
289.01
289
288.991
288.982
288.974
288.966
288.959
288.951
288.944
288.937
288.929
288.922
288.914
288.907
288.899
288.891
288.882
288.874
288.866
288.859
288.851
288.844
288.837
288.831
288.824
288.818
288.811
288.804
288.797
288.79
288.782
288.775
288.769
288.762
288.755
288.749
288.742
288.736
288.729
288.723
288.717
288.71
288.704
288.697
288.691
288.685
288.68
288.672
288.669
288.653
288.693
288.56
284.101
285.359
286.284
286.911
287.298
287.501
287.599
287.637
287.651
287.652
287.651
287.647
287.644
287.64
287.636
287.632
287.627
287.623
287.617
287.612
287.605
287.599
287.591
287.584
287.575
287.566
287.556
287.545
287.534
287.522
287.51
287.497
287.484
287.472
287.459
287.447
287.435
287.423
287.412
287.402
287.392
287.383
287.375
287.367
287.359
287.352
287.344
287.337
287.329
287.322
287.314
287.306
287.298
287.29
287.282
287.274
287.265
287.258
287.25
287.243
287.236
287.229
287.223
287.216
287.209
287.202
287.195
287.188
287.181
287.174
287.167
287.16
287.153
287.147
287.14
287.134
287.127
287.12
287.114
287.107
287.101
287.094
287.088
287.081
287.076
287.068
287.065
287.048
287.086
286.984
283.346
284.193
284.998
285.581
285.985
286.219
286.352
286.409
286.435
286.438
286.439
286.433
286.43
286.424
286.42
286.415
286.411
286.405
286.4
286.393
286.387
286.38
286.372
286.364
286.355
286.346
286.336
286.325
286.314
286.302
286.29
286.277
286.265
286.252
286.239
286.227
286.215
286.203
286.192
286.182
286.172
286.164
286.155
286.147
286.139
286.132
286.125
286.117
286.11
286.102
286.095
286.087
286.079
286.071
286.062
286.054
286.046
286.038
286.03
286.023
286.016
286.01
286.003
285.996
285.99
285.983
285.975
285.968
285.961
285.954
285.947
285.94
285.933
285.927
285.92
285.914
285.907
285.9
285.894
285.887
285.881
285.874
285.869
285.862
285.857
285.849
285.846
285.83
285.857
285.792
282.923
283.488
284.119
284.603
284.953
285.182
285.324
285.397
285.432
285.442
285.444
285.441
285.438
285.434
285.43
285.425
285.421
285.416
285.411
285.405
285.399
285.392
285.385
285.377
285.369
285.36
285.35
285.339
285.328
285.316
285.304
285.292
285.279
285.267
285.254
285.242
285.23
285.219
285.208
285.198
285.188
285.179
285.171
285.163
285.155
285.148
285.141
285.133
285.126
285.119
285.111
285.103
285.095
285.087
285.079
285.071
285.063
285.055
285.047
285.04
285.034
285.027
285.02
285.014
285.007
285
284.993
284.986
284.979
284.972
284.965
284.958
284.951
284.945
284.938
284.932
284.925
284.919
284.912
284.906
284.9
284.893
284.887
284.88
284.874
284.867
284.863
284.85
284.863
284.827
282.907
283.31
283.815
284.174
284.436
284.609
284.73
284.793
284.828
284.836
284.839
284.835
284.832
284.826
284.823
284.817
284.813
284.807
284.802
284.796
284.79
284.783
284.776
284.768
284.759
284.75
284.74
284.73
284.719
284.707
284.695
284.683
284.671
284.658
284.646
284.634
284.622
284.611
284.6
284.59
284.58
284.572
284.563
284.556
284.548
284.541
284.534
284.527
284.519
284.512
284.504
284.497
284.489
284.481
284.472
284.464
284.456
284.449
284.441
284.434
284.427
284.421
284.414
284.408
284.401
284.394
284.387
284.38
284.373
284.366
284.359
284.352
284.345
284.339
284.332
284.326
284.319
284.313
284.306
284.3
284.294
284.287
284.281
284.274
284.269
284.262
284.257
284.248
284.25
284.229
282.905
283.277
283.667
283.919
284.087
284.201
284.282
284.329
284.354
284.362
284.364
284.361
284.358
284.354
284.35
284.346
284.342
284.337
284.332
284.327
284.321
284.315
284.308
284.3
284.292
284.283
284.274
284.263
284.253
284.241
284.229
284.217
284.205
284.193
284.181
284.169
284.157
284.146
284.135
284.125
284.116
284.107
284.099
284.092
284.084
284.077
284.07
284.063
284.055
284.048
284.041
284.033
284.025
284.017
284.009
284.001
283.993
283.985
283.978
283.971
283.964
283.958
283.951
283.945
283.938
283.931
283.924
283.917
283.91
283.903
283.896
283.89
283.883
283.877
283.87
283.864
283.857
283.85
283.844
283.837
283.831
283.825
283.819
283.812
283.806
283.8
283.793
283.787
283.783
283.769
283.18
283.467
283.74
283.882
283.976
284.03
284.076
284.097
284.112
284.112
284.113
284.107
284.105
284.1
284.097
284.092
284.088
284.083
284.079
284.073
284.067
284.061
284.054
284.047
284.039
284.03
284.021
284.011
284
283.989
283.978
283.966
283.954
283.942
283.93
283.919
283.907
283.897
283.886
283.877
283.868
283.86
283.852
283.845
283.838
283.831
283.824
283.817
283.811
283.804
283.797
283.79
283.782
283.775
283.767
283.76
283.752
283.745
283.738
283.732
283.725
283.72
283.714
283.708
283.702
283.695
283.689
283.682
283.676
283.669
283.663
283.657
283.651
283.645
283.639
283.634
283.628
283.622
283.616
283.61
283.605
283.599
283.594
283.588
283.583
283.577
283.571
283.566
283.561
283.551
283.333
283.476
283.614
283.68
283.721
283.744
283.765
283.774
283.78
283.779
283.779
283.776
283.774
283.771
283.768
283.765
283.762
283.758
283.755
283.75
283.745
283.74
283.734
283.727
283.72
283.712
283.704
283.695
283.685
283.675
283.664
283.653
283.642
283.631
283.62
283.609
283.599
283.589
283.58
283.572
283.564
283.557
283.55
283.544
283.539
283.533
283.528
283.523
283.518
283.512
283.507
283.501
283.496
283.49
283.484
283.478
283.472
283.467
283.462
283.458
283.453
283.449
283.445
283.441
283.437
283.433
283.429
283.424
283.42
283.415
283.411
283.408
283.404
283.4
283.396
283.393
283.389
283.385
283.382
283.378
283.375
283.371
283.368
283.364
283.361
283.358
283.354
283.351
283.347
283.342
283.368
283.386
283.43
283.439
283.452
283.452
283.459
283.457
283.459
283.456
283.456
283.452
283.451
283.448
283.447
283.444
283.442
283.439
283.436
283.433
283.429
283.424
283.42
283.415
283.409
283.403
283.396
283.389
283.382
283.374
283.366
283.358
283.35
283.342
283.335
283.328
283.321
283.315
283.31
283.306
283.302
283.299
283.297
283.295
283.294
283.292
283.291
283.29
283.289
283.287
283.286
283.284
283.283
283.281
283.279
283.277
283.275
283.274
283.273
283.272
283.271
283.271
283.271
283.271
283.27
283.269
283.269
283.268
283.267
283.266
283.265
283.265
283.265
283.264
283.264
283.264
283.264
283.263
283.263
283.262
283.262
283.262
283.262
283.262
283.262
283.262
283.262
283.262
283.262
283.261
285.82
287.657
288.688
289.302
289.641
289.79
289.853
289.869
289.875
289.871
289.869
289.863
289.86
289.855
289.852
289.847
289.843
289.837
289.833
289.827
289.821
289.814
289.807
289.799
289.791
289.781
289.772
289.761
289.75
289.738
289.726
289.714
289.702
289.689
289.677
289.664
289.652
289.641
289.63
289.62
289.61
289.602
289.594
289.586
289.578
289.571
289.564
289.556
289.549
289.542
289.534
289.526
289.519
289.51
289.502
289.494
289.486
289.478
289.471
289.464
289.457
289.45
289.444
289.437
289.43
289.423
289.416
289.409
289.402
289.394
289.387
289.381
289.374
289.367
289.361
289.354
289.348
289.341
289.335
289.328
289.322
289.315
289.309
289.302
289.297
289.289
289.286
289.267
289.324
289.148
283.902
285.226
286.213
286.88
287.292
287.507
287.609
287.648
287.661
287.661
287.659
287.654
287.65
287.645
287.641
287.636
287.631
287.626
287.62
287.614
287.607
287.6
287.592
287.584
287.575
287.566
287.555
287.544
287.533
287.521
287.508
287.495
287.482
287.47
287.456
287.444
287.431
287.42
287.408
287.398
287.388
287.379
287.37
287.362
287.354
287.347
287.339
287.332
287.324
287.316
287.309
287.301
287.293
287.284
287.276
287.268
287.259
287.251
287.244
287.237
287.23
287.223
287.216
287.21
287.203
287.196
287.189
287.181
287.174
287.167
287.16
287.154
287.147
287.14
287.134
287.127
287.121
287.114
287.108
287.101
287.095
287.088
287.082
287.075
287.07
287.062
287.059
287.038
287.089
286.97
283.13
283.958
284.747
285.346
285.769
286.029
286.174
286.241
286.269
286.275
286.275
286.27
286.266
286.261
286.256
286.251
286.246
286.24
286.234
286.228
286.221
286.214
286.206
286.198
286.189
286.18
286.169
286.158
286.147
286.135
286.122
286.11
286.097
286.084
286.071
286.059
286.046
286.034
286.023
286.013
286.003
285.994
285.985
285.977
285.969
285.962
285.954
285.947
285.939
285.931
285.924
285.916
285.908
285.899
285.891
285.883
285.874
285.866
285.859
285.852
285.845
285.838
285.831
285.825
285.818
285.811
285.804
285.796
285.789
285.782
285.775
285.768
285.762
285.755
285.748
285.742
285.735
285.729
285.722
285.715
285.709
285.703
285.697
285.69
285.685
285.677
285.674
285.656
285.687
285.623
282.838
283.386
283.973
284.431
284.776
285.015
285.169
285.252
285.291
285.304
285.306
285.303
285.3
285.295
285.29
285.286
285.281
285.276
285.27
285.264
285.258
285.251
285.243
285.236
285.227
285.218
285.208
285.197
285.186
285.174
285.162
285.15
285.137
285.125
285.112
285.1
285.088
285.076
285.065
285.055
285.045
285.037
285.028
285.021
285.013
285.006
284.998
284.991
284.984
284.976
284.969
284.961
284.953
284.945
284.937
284.929
284.921
284.913
284.906
284.899
284.892
284.886
284.879
284.873
284.866
284.859
284.852
284.845
284.838
284.831
284.824
284.818
284.811
284.805
284.798
284.792
284.785
284.779
284.772
284.766
284.76
284.753
284.747
284.741
284.735
284.728
284.724
284.711
284.723
284.691
282.807
283.24
283.709
284.038
284.277
284.448
284.57
284.642
284.68
284.692
284.696
284.692
284.689
284.684
284.68
284.675
284.67
284.665
284.659
284.653
284.647
284.64
284.633
284.625
284.617
284.608
284.598
284.587
284.576
284.565
284.553
284.541
284.528
284.516
284.503
284.491
284.479
284.468
284.457
284.447
284.438
284.429
284.421
284.414
284.406
284.399
284.392
284.385
284.377
284.37
284.363
284.355
284.347
284.339
284.331
284.323
284.315
284.308
284.3
284.293
284.287
284.28
284.274
284.267
284.261
284.254
284.247
284.24
284.233
284.226
284.219
284.213
284.206
284.2
284.193
284.187
284.181
284.174
284.168
284.161
284.155
284.148
284.143
284.136
284.13
284.124
284.118
284.11
284.111
284.093
282.847
283.278
283.664
283.894
284.039
284.139
284.215
284.262
284.288
284.296
284.298
284.295
284.291
284.287
284.283
284.279
284.274
284.269
284.264
284.259
284.253
284.246
284.239
284.231
284.223
284.214
284.204
284.194
284.183
284.172
284.16
284.148
284.135
284.123
284.111
284.099
284.087
284.076
284.065
284.055
284.046
284.037
284.029
284.021
284.014
284.006
283.999
283.992
283.985
283.977
283.97
283.962
283.954
283.946
283.938
283.93
283.922
283.914
283.907
283.9
283.893
283.887
283.88
283.874
283.867
283.86
283.853
283.846
283.838
283.831
283.824
283.818
283.811
283.805
283.798
283.791
283.785
283.778
283.772
283.765
283.759
283.752
283.746
283.739
283.733
283.727
283.719
283.714
283.709
283.696
283.076
283.462
283.742
283.878
283.953
283.999
284.037
284.058
284.071
284.073
284.072
284.068
284.065
284.061
284.057
284.053
284.049
284.044
284.039
284.033
284.028
284.021
284.014
284.007
283.999
283.99
283.981
283.97
283.96
283.948
283.937
283.925
283.913
283.9
283.888
283.876
283.865
283.854
283.843
283.833
283.824
283.815
283.807
283.8
283.792
283.785
283.778
283.771
283.764
283.756
283.749
283.741
283.734
283.726
283.717
283.709
283.701
283.694
283.686
283.68
283.673
283.666
283.66
283.653
283.647
283.64
283.633
283.626
283.618
283.611
283.605
283.598
283.591
283.585
283.578
283.572
283.565
283.559
283.552
283.545
283.539
283.532
283.527
283.52
283.514
283.508
283.5
283.496
283.489
283.478
283.368
283.562
283.702
283.761
283.791
283.808
283.823
283.831
283.835
283.834
283.833
283.83
283.828
283.825
283.822
283.819
283.815
283.812
283.808
283.803
283.798
283.792
283.786
283.779
283.772
283.764
283.755
283.745
283.735
283.724
283.713
283.702
283.691
283.679
283.668
283.656
283.645
283.635
283.625
283.616
283.607
283.6
283.592
283.586
283.579
283.573
283.566
283.56
283.554
283.548
283.541
283.535
283.528
283.521
283.514
283.507
283.5
283.493
283.487
283.481
283.476
283.47
283.465
283.46
283.454
283.449
283.443
283.437
283.431
283.426
283.42
283.415
283.409
283.405
283.399
283.394
283.389
283.384
283.379
283.373
283.369
283.364
283.359
283.354
283.349
283.344
283.339
283.335
283.329
283.322
283.408
283.418
283.457
283.468
283.476
283.478
283.482
283.482
283.483
283.482
283.481
283.479
283.478
283.476
283.474
283.472
283.47
283.467
283.464
283.46
283.457
283.452
283.447
283.442
283.436
283.429
283.422
283.414
283.405
283.397
283.388
283.379
283.369
283.36
283.352
283.343
283.335
283.327
283.321
283.315
283.309
283.305
283.301
283.298
283.295
283.292
283.289
283.287
283.284
283.281
283.279
283.276
283.273
283.27
283.266
283.263
283.26
283.258
283.255
283.254
283.252
283.251
283.25
283.248
283.247
283.246
283.244
283.242
283.24
283.239
283.237
283.236
283.235
283.234
283.233
283.232
283.231
283.23
283.229
283.228
283.228
283.227
283.226
283.225
283.225
283.224
283.223
283.223
283.221
283.22
285.553
287.119
288.074
288.662
289.005
289.159
289.23
289.249
289.257
289.253
289.252
289.246
289.243
289.238
289.234
289.229
289.225
289.22
289.215
289.209
289.203
289.196
289.189
289.18
289.172
289.163
289.153
289.142
289.131
289.119
289.107
289.095
289.082
289.07
289.057
289.045
289.033
289.022
289.01
289
288.991
288.982
288.974
288.966
288.959
288.951
288.944
288.937
288.929
288.922
288.914
288.907
288.899
288.891
288.882
288.874
288.866
288.859
288.851
288.844
288.837
288.831
288.824
288.818
288.811
288.804
288.797
288.79
288.782
288.775
288.769
288.762
288.755
288.749
288.742
288.736
288.729
288.723
288.717
288.71
288.704
288.697
288.691
288.685
288.68
288.672
288.669
288.653
288.693
288.56
284.101
285.359
286.284
286.911
287.298
287.501
287.599
287.637
287.651
287.652
287.651
287.647
287.644
287.64
287.636
287.632
287.627
287.623
287.617
287.612
287.605
287.599
287.591
287.584
287.575
287.566
287.556
287.545
287.534
287.522
287.51
287.497
287.484
287.472
287.459
287.447
287.435
287.423
287.412
287.402
287.392
287.383
287.375
287.367
287.359
287.352
287.344
287.337
287.329
287.322
287.314
287.306
287.298
287.29
287.282
287.274
287.265
287.258
287.25
287.243
287.236
287.229
287.223
287.216
287.209
287.202
287.195
287.188
287.181
287.174
287.167
287.16
287.153
287.147
287.14
287.134
287.127
287.12
287.114
287.107
287.101
287.094
287.088
287.081
287.076
287.068
287.065
287.048
287.086
286.984
283.346
284.193
284.998
285.581
285.985
286.219
286.352
286.409
286.435
286.438
286.439
286.433
286.43
286.424
286.42
286.415
286.411
286.405
286.4
286.393
286.387
286.38
286.372
286.364
286.355
286.346
286.336
286.325
286.314
286.302
286.29
286.277
286.265
286.252
286.239
286.227
286.215
286.203
286.192
286.182
286.172
286.164
286.155
286.147
286.139
286.132
286.125
286.117
286.11
286.102
286.094
286.087
286.079
286.07
286.062
286.054
286.046
286.038
286.03
286.023
286.016
286.01
286.003
285.996
285.99
285.982
285.975
285.968
285.961
285.954
285.947
285.94
285.933
285.927
285.92
285.914
285.907
285.9
285.894
285.887
285.881
285.874
285.869
285.862
285.857
285.849
285.846
285.83
285.857
285.792
282.923
283.488
284.119
284.603
284.953
285.182
285.324
285.397
285.432
285.442
285.444
285.441
285.438
285.434
285.43
285.425
285.421
285.416
285.411
285.405
285.399
285.392
285.385
285.377
285.369
285.36
285.35
285.339
285.328
285.316
285.304
285.292
285.279
285.267
285.254
285.242
285.23
285.219
285.208
285.198
285.188
285.179
285.171
285.163
285.155
285.148
285.141
285.133
285.126
285.119
285.111
285.103
285.095
285.087
285.079
285.071
285.063
285.055
285.047
285.04
285.034
285.027
285.02
285.014
285.007
285
284.993
284.986
284.979
284.972
284.965
284.958
284.951
284.945
284.938
284.932
284.925
284.919
284.912
284.906
284.899
284.893
284.887
284.88
284.874
284.867
284.863
284.85
284.863
284.827
282.907
283.31
283.815
284.174
284.436
284.609
284.73
284.793
284.828
284.836
284.839
284.835
284.832
284.826
284.823
284.817
284.813
284.807
284.802
284.796
284.79
284.783
284.776
284.768
284.759
284.75
284.74
284.73
284.719
284.707
284.695
284.683
284.671
284.658