/*--------------------------------*- C++ -*----------------------------------*\
  =========                 |
  \\      /  F ield         | OpenFOAM: The Open Source CFD Toolbox
   \\    /   O peration     | Website:  https://openfoam.org
    \\  /    A nd           | Version:  7
     \\/     M anipulation  |
\*---------------------------------------------------------------------------*/
FoamFile
{
    version     2.0;
    format      ascii;
    class       volScalarField;
    location    "0.635";
    object      alphat;
}
// * * * * * * * * * * * * * * * * * * * * * * * * * * * * * * * * * * * * * //

dimensions      [1 -1 -1 0 0 0 0];

internalField   nonuniform List<scalar> 
4950
(
0.0107343
0.0114323
0.0114566
0.0114626
0.0114563
0.0114568
0.0114508
0.0114508
0.0114462
0.0114467
0.0114438
0.011445
0.011443
0.0114442
0.0114426
0.0114431
0.0114424
0.0114413
0.0114458
0.0114779
0.00564448
0.00601423
0.00597534
0.0058643
0.00578231
0.00574103
0.00571253
0.00569951
0.00568622
0.00568045
0.00567211
0.00566847
0.0056625
0.00565985
0.00565525
0.00565357
0.00565339
0.00564613
0.00569987
0.0057199
0.00448738
0.00497355
0.00508214
0.00510827
0.00511398
0.00512108
0.0051245
0.00512919
0.00513128
0.00513481
0.00513604
0.00513888
0.0051393
0.00514149
0.00514081
0.00514239
0.00514144
0.00514218
0.00514377
0.00515446
0.00438681
0.0048708
0.00499757
0.00504701
0.00507062
0.00509167
0.00510448
0.00511891
0.00512716
0.00513782
0.00514382
0.00515265
0.00515742
0.00516447
0.0051676
0.00517248
0.00517481
0.00517764
0.00518032
0.00518893
0.00437314
0.00486192
0.00499006
0.0050415
0.00506658
0.00508911
0.00510336
0.00511937
0.00512921
0.00514151
0.00514918
0.00515967
0.0051662
0.00517489
0.00517971
0.00518598
0.00518969
0.00519391
0.00519739
0.00520687
0.00438681
0.0048708
0.00499757
0.00504701
0.00507062
0.00509167
0.00510448
0.00511891
0.00512716
0.00513782
0.00514382
0.00515266
0.00515742
0.00516448
0.0051676
0.00517249
0.00517481
0.00517764
0.00518038
0.00518897
0.00448738
0.00497355
0.00508214
0.00510827
0.00511398
0.00512107
0.0051245
0.00512919
0.00513128
0.0051348
0.00513606
0.00513887
0.00513933
0.00514146
0.00514088
0.00514233
0.00514157
0.00514207
0.005144
0.00515412
0.00564448
0.00601423
0.00597534
0.0058643
0.00578231
0.00574103
0.00571253
0.00569951
0.00568622
0.00568045
0.0056721
0.00566845
0.00566251
0.0056598
0.00565526
0.00565346
0.00565349
0.00564589
0.00569985
0.0057184
0.0107343
0.0114323
0.0114566
0.0114626
0.0114563
0.0114568
0.0114508
0.0114508
0.0114462
0.0114467
0.0114438
0.011445
0.011443
0.0114443
0.0114425
0.0114433
0.0114421
0.0114416
0.0114455
0.011478
0.00421419
0.00506783
0.00517648
0.00515964
0.00514541
0.00512293
0.00511712
0.00510385
0.00510118
0.00509255
0.00509112
0.00508499
0.00508421
0.00507955
0.00507933
0.0050753
0.00507596
0.00507151
0.00506857
0.00509552
0.00363395
0.00460373
0.00479252
0.00483219
0.00484164
0.00484716
0.00485003
0.00485329
0.00485491
0.00485696
0.00485766
0.0048585
0.0048582
0.00485848
0.0048576
0.00485822
0.00485677
0.00485806
0.00485782
0.00486756
0.00354286
0.00450421
0.00469754
0.00474409
0.00475294
0.00475892
0.00476033
0.0047637
0.00476498
0.00476844
0.00476979
0.0047728
0.00477377
0.00477578
0.00477627
0.00477758
0.00477792
0.00477878
0.00477794
0.00478822
0.00354736
0.00450757
0.00469939
0.00474551
0.00475454
0.00475927
0.0047598
0.00476126
0.00476131
0.00476248
0.00476285
0.00476413
0.00476438
0.00476536
0.00476526
0.00476583
0.00476576
0.00476614
0.00476653
0.00477309
0.00353844
0.00449698
0.00468955
0.00473674
0.00474551
0.00475058
0.00475064
0.00475222
0.00475171
0.00475287
0.00475268
0.00475373
0.00475348
0.00475444
0.00475383
0.00475446
0.0047538
0.00475426
0.00475385
0.00475935
0.00354736
0.00450757
0.00469939
0.00474551
0.00475454
0.00475927
0.0047598
0.00476126
0.00476131
0.00476247
0.00476286
0.00476412
0.00476437
0.00476537
0.00476524
0.00476585
0.00476574
0.00476613
0.00476651
0.00477307
0.00354286
0.00450421
0.00469754
0.00474409
0.00475294
0.00475892
0.00476033
0.0047637
0.00476499
0.00476844
0.00476979
0.00477281
0.00477376
0.0047758
0.00477624
0.00477761
0.00477788
0.00477873
0.00477807
0.00478788
0.00363395
0.00460373
0.00479252
0.00483219
0.00484164
0.00484716
0.00485003
0.00485329
0.00485491
0.00485695
0.00485766
0.00485849
0.00485822
0.00485845
0.00485765
0.00485807
0.00485694
0.0048577
0.00485856
0.00486628
0.00421419
0.00506783
0.00517648
0.00515964
0.00514541
0.00512293
0.00511712
0.00510385
0.00510118
0.00509255
0.00509112
0.00508499
0.00508423
0.00507954
0.00507937
0.00507524
0.00507614
0.00507126
0.00506955
0.00509299
0.00100721
0.00184285
0.00207046
0.00210872
0.00209357
0.00205874
0.00202256
0.00199266
0.00196851
0.001949
0.00193464
0.00192216
0.0019139
0.00190574
0.00190102
0.00189614
0.00189232
0.00189181
0.0018831
0.0019027
0.000472099
0.00112715
0.00142797
0.00155301
0.00160357
0.00162931
0.00164217
0.00165335
0.00166125
0.00166937
0.00167499
0.00168035
0.00168349
0.00168659
0.00168801
0.00168972
0.0016906
0.00169144
0.00169216
0.00169803
0.000436555
0.00103693
0.00130767
0.00143352
0.00148106
0.00150818
0.00151625
0.00152487
0.00152726
0.00153247
0.00153463
0.00153909
0.00154116
0.00154444
0.00154645
0.00154898
0.00155096
0.00155303
0.00155394
0.00155903
0.000442747
0.00105036
0.00132026
0.0014417
0.00148844
0.00151293
0.00152065
0.00152654
0.00152758
0.0015297
0.00153013
0.00153115
0.0015313
0.00153156
0.00153161
0.00153146
0.00153188
0.00153158
0.00153219
0.00153529
0.000435742
0.00103523
0.0013021
0.00142628
0.00147245
0.00149871
0.00150563
0.00151235
0.001513
0.001515
0.00151503
0.00151579
0.00151541
0.00151553
0.00151485
0.00151467
0.00151414
0.00151376
0.00151296
0.00151532
0.000442747
0.00105037
0.00132026
0.0014417
0.00148844
0.00151293
0.00152065
0.00152654
0.00152758
0.0015297
0.00153014
0.00153115
0.00153129
0.00153157
0.0015316
0.00153147
0.00153187
0.00153159
0.00153216
0.0015353
0.000436555
0.00103693
0.00130767
0.00143352
0.00148106
0.00150818
0.00151625
0.00152486
0.00152727
0.00153247
0.00153464
0.00153909
0.00154115
0.00154445
0.00154643
0.00154898
0.00155094
0.00155298
0.00155393
0.00155894
0.000472099
0.00112715
0.00142797
0.00155301
0.00160357
0.00162931
0.00164217
0.00165335
0.00166125
0.00166936
0.001675
0.00168033
0.00168351
0.00168655
0.00168805
0.00168961
0.00169071
0.00169112
0.00169253
0.00169741
0.00100721
0.00184285
0.00207046
0.00210872
0.00209357
0.00205874
0.00202256
0.00199266
0.00196851
0.001949
0.00193464
0.00192216
0.00191391
0.00190574
0.00190109
0.00189609
0.00189264
0.00189139
0.00188438
0.00190102
0.00421419
0.00506783
0.00517648
0.00515964
0.00514541
0.00512293
0.00511712
0.00510385
0.00510118
0.00509255
0.00509112
0.00508499
0.00508421
0.00507955
0.00507933
0.0050753
0.00507596
0.00507151
0.00506857
0.00509552
0.00363395
0.00460373
0.00479252
0.0048322
0.00484164
0.00484716
0.00485003
0.00485329
0.00485491
0.00485696
0.00485766
0.0048585
0.0048582
0.00485848
0.00485759
0.00485822
0.00485677
0.00485806
0.00485782
0.00486756
0.00354286
0.00450421
0.00469754
0.00474409
0.00475294
0.00475892
0.00476033
0.0047637
0.00476498
0.00476844
0.00476979
0.0047728
0.00477377
0.00477578
0.00477627
0.00477758
0.00477792
0.00477878
0.00477794
0.00478822
0.00354736
0.00450757
0.00469939
0.00474551
0.00475454
0.00475927
0.0047598
0.00476126
0.00476131
0.00476248
0.00476285
0.00476413
0.00476438
0.00476536
0.00476526
0.00476583
0.00476576
0.00476614
0.00476653
0.00477309
0.00353844
0.00449698
0.00468955
0.00473674
0.00474551
0.00475058
0.00475064
0.00475222
0.00475171
0.00475287
0.00475268
0.00475373
0.00475348
0.00475444
0.00475383
0.00475446
0.0047538
0.00475426
0.00475385
0.00475935
0.00354736
0.00450757
0.00469939
0.00474551
0.00475454
0.00475927
0.0047598
0.00476126
0.00476131
0.00476247
0.00476286
0.00476412
0.00476437
0.00476537
0.00476524
0.00476585
0.00476574
0.00476613
0.00476651
0.00477307
0.00354286
0.00450421
0.00469754
0.00474409
0.00475294
0.00475892
0.00476033
0.0047637
0.00476499
0.00476844
0.00476979
0.00477281
0.00477376
0.0047758
0.00477624
0.00477761
0.00477788
0.00477873
0.00477807
0.00478788
0.00363395
0.00460373
0.00479252
0.00483219
0.00484164
0.00484716
0.00485003
0.00485329
0.00485491
0.00485695
0.00485766
0.00485849
0.00485822
0.00485845
0.00485765
0.00485807
0.00485694
0.0048577
0.00485856
0.00486628
0.00421419
0.00506783
0.00517648
0.00515964
0.00514541
0.00512293
0.00511712
0.00510385
0.00510118
0.00509255
0.00509112
0.00508499
0.00508423
0.00507954
0.00507937
0.00507524
0.00507614
0.00507126
0.00506955
0.00509299
0.0107343
0.0114323
0.0114566
0.0114626
0.0114563
0.0114568
0.0114508
0.0114508
0.0114462
0.0114467
0.0114438
0.011445
0.011443
0.0114442
0.0114426
0.0114431
0.0114424
0.0114413
0.0114458
0.0114779
0.00564448
0.00601423
0.00597534
0.0058643
0.00578231
0.00574103
0.00571253
0.00569951
0.00568622
0.00568045
0.00567211
0.00566847
0.0056625
0.00565985
0.00565525
0.00565357
0.00565339
0.00564613
0.00569987
0.0057199
0.00448738
0.00497355
0.00508214
0.00510827
0.00511398
0.00512108
0.0051245
0.00512919
0.00513128
0.00513481
0.00513604
0.00513888
0.0051393
0.00514149
0.00514081
0.00514239
0.00514144
0.00514218
0.00514377
0.00515446
0.00438681
0.0048708
0.00499757
0.00504701
0.00507062
0.00509167
0.00510448
0.00511891
0.00512716
0.00513782
0.00514382
0.00515265
0.00515742
0.00516447
0.0051676
0.00517248
0.00517481
0.00517764
0.00518033
0.00518893
0.00437314
0.00486192
0.00499006
0.0050415
0.00506658
0.00508911
0.00510337
0.00511937
0.00512921
0.00514151
0.00514918
0.00515967
0.0051662
0.00517489
0.00517971
0.00518598
0.00518969
0.00519391
0.00519739
0.00520687
0.00438681
0.0048708
0.00499757
0.00504701
0.00507062
0.00509167
0.00510448
0.00511891
0.00512716
0.00513782
0.00514382
0.00515266
0.00515742
0.00516448
0.0051676
0.00517249
0.00517481
0.00517764
0.00518038
0.00518897
0.00448738
0.00497355
0.00508214
0.00510827
0.00511398
0.00512107
0.0051245
0.00512919
0.00513128
0.0051348
0.00513606
0.00513887
0.00513933
0.00514146
0.00514088
0.00514233
0.00514157
0.00514207
0.005144
0.00515412
0.00564448
0.00601423
0.00597534
0.0058643
0.00578231
0.00574103
0.00571253
0.00569951
0.00568622
0.00568045
0.0056721
0.00566845
0.00566251
0.0056598
0.00565526
0.00565346
0.00565349
0.00564589
0.00569985
0.0057184
0.0107343
0.0114323
0.0114566
0.0114626
0.0114563
0.0114568
0.0114508
0.0114508
0.0114462
0.0114467
0.0114438
0.011445
0.011443
0.0114443
0.0114425
0.0114433
0.0114421
0.0114416
0.0114455
0.011478
0.0334466
0.03357
0.0335688
0.0335676
0.0335627
0.0335629
0.0335599
0.0335602
0.0335579
0.0335579
0.0335559
0.0335556
0.0335538
0.0335535
0.0335519
0.0335515
0.0335501
0.0335498
0.0335486
0.0335483
0.0335472
0.033547
0.033546
0.0335459
0.0335451
0.033545
0.0335444
0.0335445
0.0335442
0.0335445
0.0335444
0.0335449
0.0335451
0.0335459
0.0335463
0.0335474
0.0335482
0.0335497
0.0335509
0.0335529
0.0335545
0.0335568
0.0335588
0.0335615
0.0335638
0.0335667
0.0335693
0.0335725
0.0335752
0.0335785
0.0335814
0.0335846
0.0335875
0.0335906
0.0335933
0.0335961
0.0335986
0.0336011
0.0336034
0.0336056
0.0336077
0.0336099
0.0336119
0.0336141
0.0336162
0.0336185
0.0336207
0.033623
0.0336253
0.0336278
0.0336301
0.0336327
0.0336351
0.0336377
0.0336403
0.033643
0.0336456
0.0336482
0.0336509
0.0336535
0.0336561
0.0336586
0.0336612
0.0336637
0.0336663
0.033669
0.0336714
0.0336745
0.033672
0.0336717
0.0195701
0.0201152
0.0201311
0.0201398
0.0201304
0.020135
0.0201274
0.0201326
0.0201278
0.0201332
0.0201304
0.0201357
0.0201339
0.0201391
0.0201379
0.0201429
0.0201422
0.0201471
0.0201467
0.0201516
0.0201516
0.0201564
0.0201566
0.0201614
0.0201619
0.0201667
0.0201675
0.0201723
0.0201733
0.0201782
0.0201795
0.0201844
0.0201859
0.0201909
0.0201927
0.0201978
0.0201998
0.020205
0.0202073
0.0202125
0.020215
0.0202204
0.0202231
0.0202284
0.0202312
0.0202364
0.0202392
0.0202443
0.0202471
0.020252
0.0202547
0.0202593
0.0202618
0.020266
0.0202682
0.020272
0.0202739
0.0202772
0.0202789
0.0202819
0.0202833
0.020286
0.0202873
0.0202899
0.0202911
0.0202937
0.0202949
0.0202974
0.0202986
0.0203011
0.0203023
0.0203048
0.0203061
0.0203085
0.0203099
0.0203122
0.0203136
0.0203159
0.0203173
0.0203196
0.020321
0.0203231
0.0203245
0.0203267
0.020328
0.0203303
0.0203316
0.0203343
0.0203329
0.0203331
0.0164867
0.0173459
0.0173958
0.0174163
0.0174066
0.0174188
0.0174106
0.0174228
0.0174183
0.0174298
0.0174281
0.0174394
0.0174393
0.0174504
0.0174512
0.0174622
0.0174636
0.0174745
0.0174764
0.0174873
0.0174896
0.0175004
0.0175032
0.0175138
0.017517
0.0175276
0.0175311
0.0175417
0.0175456
0.0175562
0.0175603
0.0175709
0.0175753
0.0175858
0.0175905
0.017601
0.0176059
0.0176163
0.0176214
0.0176318
0.017637
0.0176472
0.0176526
0.0176626
0.0176679
0.0176776
0.0176829
0.0176921
0.0176972
0.0177061
0.0177109
0.0177192
0.0177238
0.0177315
0.0177357
0.0177428
0.0177465
0.0177531
0.0177564
0.0177625
0.0177656
0.0177713
0.0177742
0.0177796
0.0177823
0.0177875
0.0177902
0.0177951
0.0177977
0.0178025
0.017805
0.0178096
0.017812
0.0178164
0.0178188
0.017823
0.0178253
0.0178293
0.0178315
0.0178353
0.0178373
0.0178409
0.0178429
0.0178464
0.0178482
0.0178516
0.0178535
0.0178564
0.0178597
0.017855
0.0161147
0.0171799
0.0172733
0.0173076
0.0173011
0.0173186
0.0173113
0.017327
0.0173232
0.0173379
0.0173371
0.0173514
0.0173524
0.0173665
0.0173685
0.0173825
0.0173853
0.0173992
0.0174026
0.0174165
0.0174204
0.0174341
0.0174384
0.0174521
0.0174569
0.0174705
0.0174756
0.0174892
0.0174946
0.0175082
0.017514
0.0175274
0.0175335
0.0175469
0.0175532
0.0175665
0.017573
0.0175861
0.0175928
0.0176058
0.0176126
0.0176253
0.0176321
0.0176444
0.0176512
0.0176631
0.0176696
0.017681
0.0176873
0.017698
0.017704
0.0177141
0.0177196
0.017729
0.017734
0.0177427
0.0177472
0.0177552
0.0177593
0.0177667
0.0177705
0.0177774
0.017781
0.0177875
0.0177909
0.0177972
0.0178005
0.0178065
0.0178096
0.0178154
0.0178185
0.017824
0.0178269
0.0178323
0.0178351
0.0178402
0.0178429
0.0178477
0.0178503
0.0178548
0.0178573
0.0178616
0.0178639
0.0178681
0.0178702
0.0178743
0.0178765
0.01788
0.0178836
0.0178804
0.0161209
0.0172117
0.0173171
0.0173576
0.0173537
0.0173727
0.0173666
0.0173834
0.0173801
0.0173957
0.0173952
0.0174104
0.0174118
0.0174268
0.0174293
0.0174443
0.0174475
0.0174624
0.0174662
0.017481
0.0174854
0.0175002
0.017505
0.0175196
0.0175249
0.0175395
0.0175451
0.0175597
0.0175657
0.0175802
0.0175865
0.017601
0.0176075
0.0176219
0.0176287
0.0176429
0.01765
0.017664
0.0176712
0.017685
0.0176924
0.0177059
0.0177132
0.0177263
0.0177335
0.0177461
0.0177531
0.0177652
0.0177719
0.0177832
0.0177896
0.0178002
0.0178061
0.017816
0.0178213
0.0178305
0.0178353
0.0178437
0.0178481
0.0178559
0.0178599
0.0178672
0.017871
0.0178779
0.0178815
0.0178881
0.0178916
0.017898
0.0179013
0.0179074
0.0179105
0.0179164
0.0179195
0.0179251
0.0179281
0.0179334
0.0179363
0.0179413
0.017944
0.0179488
0.0179514
0.0179559
0.0179584
0.0179628
0.0179651
0.0179693
0.0179718
0.0179752
0.0179802
0.0179753
0.016115
0.0171821
0.017278
0.0173146
0.0173106
0.017328
0.0173228
0.0173385
0.0173356
0.0173503
0.0173498
0.0173642
0.0173652
0.0173795
0.0173816
0.0173957
0.0173985
0.0174125
0.0174159
0.0174299
0.0174338
0.0174477
0.017452
0.0174658
0.0174706
0.0174843
0.0174895
0.0175032
0.0175087
0.0175223
0.0175282
0.0175417
0.0175478
0.0175613
0.0175677
0.0175811
0.0175876
0.0176009
0.0176076
0.0176207
0.0176275
0.0176403
0.0176472
0.0176596
0.0176664
0.0176784
0.017685
0.0176964
0.0177028
0.0177136
0.0177196
0.0177298
0.0177354
0.0177448
0.0177499
0.0177586
0.0177632
0.0177713
0.0177754
0.0177829
0.0177867
0.0177937
0.0177973
0.0178039
0.0178074
0.0178137
0.017817
0.0178231
0.0178262
0.0178321
0.0178351
0.0178408
0.0178437
0.0178491
0.0178519
0.017857
0.0178598
0.0178646
0.0178672
0.0178718
0.0178743
0.0178787
0.017881
0.0178852
0.0178874
0.0178915
0.0178937
0.0178973
0.0179008
0.0178978
0.0164866
0.0173481
0.0174006
0.0174238
0.0174174
0.0174299
0.0174246
0.0174367
0.0174336
0.0174453
0.0174439
0.0174555
0.0174554
0.0174668
0.0174676
0.0174788
0.0174802
0.0174914
0.0174933
0.0175044
0.0175068
0.0175178
0.0175206
0.0175315
0.0175347
0.0175456
0.0175491
0.0175599
0.0175639
0.0175747
0.0175789
0.0175896
0.0175942
0.0176049
0.0176096
0.0176203
0.0176253
0.0176359
0.0176411
0.0176517
0.017657
0.0176674
0.0176729
0.017683
0.0176885
0.0176983
0.0177037
0.0177131
0.0177183
0.0177273
0.0177322
0.0177407
0.0177453
0.0177532
0.0177575
0.0177647
0.0177686
0.0177752
0.0177787
0.0177849
0.0177881
0.0177939
0.0177969
0.0178024
0.0178052
0.0178105
0.0178132
0.0178183
0.017821
0.0178259
0.0178284
0.0178332
0.0178356
0.0178402
0.0178426
0.0178469
0.0178493
0.0178534
0.0178556
0.0178595
0.0178616
0.0178653
0.0178673
0.0178709
0.0178728
0.0178762
0.0178781
0.0178811
0.0178844
0.01788
0.0195682
0.0201144
0.0201312
0.0201418
0.0201347
0.0201404
0.0201349
0.0201406
0.0201368
0.0201425
0.0201399
0.0201454
0.0201436
0.020149
0.0201478
0.0201531
0.0201523
0.0201574
0.0201571
0.0201621
0.0201621
0.0201671
0.0201674
0.0201723
0.0201729
0.0201778
0.0201786
0.0201836
0.0201847
0.0201897
0.0201911
0.0201962
0.0201978
0.0202029
0.0202048
0.02021
0.0202121
0.0202174
0.0202198
0.0202252
0.0202278
0.0202333
0.0202361
0.0202416
0.0202444
0.0202498
0.0202527
0.020258
0.0202609
0.0202659
0.0202687
0.0202734
0.020276
0.0202804
0.0202827
0.0202866
0.0202886
0.0202921
0.0202938
0.0202969
0.0202984
0.0203013
0.0203027
0.0203054
0.0203068
0.0203094
0.0203107
0.0203134
0.0203147
0.0203172
0.0203186
0.0203211
0.0203225
0.020325
0.0203265
0.0203289
0.0203304
0.0203328
0.0203343
0.0203366
0.0203381
0.0203403
0.0203418
0.020344
0.0203455
0.0203478
0.0203492
0.0203519
0.0203504
0.0203511
0.0334813
0.0336133
0.0336157
0.0336193
0.0336187
0.0336222
0.0336212
0.033623
0.0336214
0.033622
0.0336203
0.0336203
0.0336185
0.0336183
0.0336167
0.0336164
0.033615
0.0336147
0.0336135
0.0336133
0.0336122
0.033612
0.0336111
0.033611
0.0336102
0.0336102
0.0336097
0.0336098
0.0336095
0.0336099
0.0336098
0.0336105
0.0336106
0.0336115
0.033612
0.0336132
0.0336141
0.0336157
0.033617
0.0336191
0.0336208
0.0336233
0.0336254
0.0336282
0.0336307
0.0336338
0.0336366
0.0336399
0.0336429
0.0336463
0.0336494
0.0336529
0.033656
0.0336592
0.0336622
0.0336652
0.0336679
0.0336706
0.0336731
0.0336756
0.0336779
0.0336802
0.0336825
0.0336849
0.0336872
0.0336896
0.0336919
0.0336945
0.0336969
0.0336995
0.033702
0.0337048
0.0337074
0.0337101
0.0337129
0.0337157
0.0337185
0.0337213
0.0337241
0.0337268
0.0337295
0.0337322
0.0337349
0.0337376
0.0337403
0.0337431
0.0337457
0.0337489
0.0337466
0.0337463
0.0163284
0.016544
0.0165479
0.0165474
0.0165451
0.0165458
0.0165441
0.0165462
0.0165451
0.0165479
0.016547
0.01655
0.0165491
0.0165521
0.0165513
0.0165542
0.0165535
0.0165564
0.0165557
0.0165586
0.0165581
0.0165609
0.0165604
0.0165632
0.0165629
0.0165657
0.0165655
0.0165683
0.0165683
0.0165711
0.0165713
0.0165741
0.0165744
0.0165772
0.0165777
0.0165806
0.0165812
0.0165841
0.0165849
0.0165878
0.0165888
0.0165917
0.0165927
0.0165956
0.0165966
0.0165994
0.0166004
0.016603
0.016604
0.0166064
0.0166072
0.0166094
0.0166101
0.016612
0.0166124
0.016614
0.0166142
0.0166155
0.0166155
0.0166166
0.0166165
0.0166175
0.0166174
0.0166183
0.0166183
0.0166193
0.0166193
0.0166203
0.0166205
0.0166216
0.0166218
0.016623
0.0166233
0.0166245
0.016625
0.0166263
0.0166269
0.0166281
0.0166288
0.0166301
0.0166309
0.0166322
0.016633
0.0166345
0.0166353
0.0166372
0.0166379
0.0166406
0.0166395
0.0166414
0.0156416
0.0161997
0.016231
0.0162357
0.0162346
0.0162358
0.0162346
0.0162366
0.0162366
0.0162394
0.0162401
0.0162432
0.0162442
0.0162473
0.0162485
0.0162515
0.0162527
0.0162557
0.0162569
0.0162599
0.0162612
0.0162641
0.0162655
0.0162685
0.0162699
0.0162729
0.0162744
0.0162775
0.0162792
0.0162824
0.0162842
0.0162875
0.0162896
0.016293
0.0162952
0.0162988
0.0163013
0.0163052
0.016308
0.016312
0.0163151
0.0163194
0.0163228
0.0163273
0.0163309
0.0163356
0.0163394
0.0163442
0.0163481
0.0163529
0.0163569
0.0163617
0.0163657
0.0163703
0.0163741
0.0163785
0.0163821
0.0163863
0.0163896
0.0163935
0.0163966
0.0164003
0.0164033
0.0164068
0.0164096
0.016413
0.0164158
0.0164191
0.0164217
0.016425
0.0164275
0.0164307
0.0164332
0.0164362
0.0164386
0.0164416
0.0164439
0.0164467
0.0164489
0.0164516
0.0164536
0.0164562
0.0164579
0.0164605
0.0164621
0.0164646
0.0164661
0.0164685
0.0164705
0.0164724
0.0149106
0.0157517
0.0158267
0.0158401
0.0158416
0.0158429
0.0158419
0.0158427
0.0158426
0.0158439
0.0158447
0.0158464
0.0158475
0.0158493
0.0158506
0.0158524
0.0158537
0.0158555
0.0158568
0.0158586
0.0158599
0.0158617
0.015863
0.0158649
0.0158663
0.0158681
0.0158696
0.0158716
0.0158731
0.0158752
0.0158769
0.0158791
0.0158809
0.0158833
0.0158853
0.0158879
0.0158901
0.0158929
0.0158954
0.0158985
0.0159012
0.0159045
0.0159076
0.0159111
0.0159144
0.0159182
0.0159216
0.0159255
0.0159291
0.0159331
0.0159368
0.0159408
0.0159446
0.0159485
0.0159521
0.0159558
0.0159593
0.0159628
0.0159661
0.0159694
0.0159725
0.0159757
0.0159786
0.0159817
0.0159846
0.0159876
0.0159904
0.0159934
0.015996
0.015999
0.0160016
0.0160045
0.0160071
0.0160099
0.0160124
0.0160151
0.0160175
0.0160201
0.0160224
0.0160249
0.0160269
0.0160293
0.0160312
0.0160335
0.0160352
0.0160375
0.016039
0.0160412
0.0160434
0.0160391
0.0147183
0.0156448
0.0157401
0.015757
0.0157597
0.015761
0.0157598
0.0157598
0.0157591
0.0157595
0.0157596
0.0157604
0.015761
0.015762
0.0157627
0.0157637
0.0157645
0.0157655
0.0157663
0.0157674
0.0157682
0.0157693
0.0157701
0.0157712
0.015772
0.0157732
0.0157741
0.0157754
0.0157764
0.0157778
0.0157789
0.0157804
0.0157817
0.0157834
0.0157848
0.0157867
0.0157883
0.0157904
0.0157924
0.0157947
0.0157969
0.0157995
0.015802
0.0158049
0.0158076
0.0158106
0.0158135
0.0158167
0.0158197
0.015823
0.0158262
0.0158295
0.0158326
0.0158359
0.0158389
0.015842
0.0158449
0.0158478
0.0158505
0.0158532
0.0158557
0.0158583
0.0158607
0.0158632
0.0158655
0.015868
0.0158703
0.0158728
0.015875
0.0158774
0.0158796
0.015882
0.0158841
0.0158865
0.0158886
0.0158908
0.0158929
0.0158951
0.0158971
0.0158992
0.015901
0.015903
0.0159047
0.0159067
0.0159081
0.0159101
0.0159116
0.0159134
0.0159149
0.0159118
0.014579
0.0155631
0.0156675
0.0156864
0.0156896
0.0156913
0.0156902
0.0156903
0.0156896
0.0156899
0.0156899
0.0156906
0.015691
0.0156918
0.0156924
0.0156933
0.0156939
0.0156948
0.0156955
0.0156964
0.015697
0.015698
0.0156986
0.0156996
0.0157003
0.0157013
0.0157021
0.0157032
0.0157041
0.0157053
0.0157063
0.0157077
0.0157088
0.0157103
0.0157116
0.0157134
0.0157149
0.0157169
0.0157186
0.0157208
0.0157229
0.0157254
0.0157277
0.0157304
0.015733
0.0157359
0.0157386
0.0157417
0.0157446
0.0157477
0.0157507
0.0157539
0.0157569
0.01576
0.0157629
0.0157659
0.0157686
0.0157714
0.0157739
0.0157765
0.0157789
0.0157814
0.0157836
0.015786
0.0157882
0.0157906
0.0157927
0.015795
0.0157971
0.0157994
0.0158015
0.0158038
0.0158058
0.015808
0.01581
0.0158122
0.0158142
0.0158163
0.0158181
0.0158201
0.0158219
0.0158238
0.0158254
0.0158273
0.0158287
0.0158306
0.015832
0.0158336
0.0158357
0.0158305
0.0147182
0.0156436
0.0157383
0.0157553
0.0157587
0.0157606
0.0157602
0.0157607
0.0157606
0.0157612
0.0157615
0.0157623
0.0157629
0.0157639
0.0157647
0.0157657
0.0157665
0.0157675
0.0157684
0.0157694
0.0157702
0.0157713
0.0157722
0.0157733
0.0157742
0.0157753
0.0157763
0.0157775
0.0157786
0.01578
0.0157811
0.0157826
0.015784
0.0157856
0.0157871
0.015789
0.0157907
0.0157928
0.0157947
0.0157971
0.0157993
0.015802
0.0158044
0.0158073
0.01581
0.0158131
0.015816
0.0158192
0.0158223
0.0158256
0.0158287
0.0158321
0.0158352
0.0158385
0.0158415
0.0158446
0.0158475
0.0158504
0.0158531
0.0158559
0.0158584
0.015861
0.0158634
0.015866
0.0158683
0.0158708
0.015873
0.0158755
0.0158777
0.0158802
0.0158824
0.0158848
0.0158869
0.0158893
0.0158914
0.0158937
0.0158957
0.0158979
0.0158999
0.015902
0.0159038
0.0159059
0.0159076
0.0159095
0.0159111
0.015913
0.0159145
0.0159163
0.0159179
0.0159149
0.01491
0.0157498
0.0158251
0.0158391
0.0158419
0.0158444
0.0158449
0.0158466
0.0158473
0.015849
0.0158499
0.0158517
0.0158529
0.0158548
0.015856
0.0158579
0.0158592
0.015861
0.0158623
0.0158642
0.0158655
0.0158674
0.0158688
0.0158707
0.0158721
0.015874
0.0158755
0.0158775
0.0158791
0.0158812
0.0158829
0.0158852
0.0158871
0.0158895
0.0158915
0.0158941
0.0158964
0.0158993
0.0159018
0.0159049
0.0159077
0.0159111
0.0159141
0.0159177
0.0159211
0.0159248
0.0159283
0.0159323
0.0159359
0.01594
0.0159437
0.0159477
0.0159515
0.0159554
0.0159591
0.0159629
0.0159663
0.0159699
0.0159732
0.0159766
0.0159796
0.0159829
0.0159858
0.015989
0.0159918
0.0159949
0.0159977
0.0160007
0.0160034
0.0160064
0.016009
0.0160119
0.0160145
0.0160174
0.0160199
0.0160226
0.016025
0.0160277
0.01603
0.0160325
0.0160346
0.016037
0.0160389
0.0160413
0.016043
0.0160453
0.0160469
0.016049
0.0160514
0.0160474
0.0156435
0.0162049
0.016238
0.0162443
0.0162453
0.0162481
0.0162486
0.0162515
0.0162522
0.0162553
0.0162563
0.0162594
0.0162605
0.0162637
0.0162648
0.0162679
0.0162691
0.0162722
0.0162735
0.0162766
0.0162779
0.016281
0.0162823
0.0162854
0.0162869
0.01629
0.0162916
0.0162948
0.0162965
0.0162998
0.0163017
0.0163051
0.0163072
0.0163107
0.016313
0.0163167
0.0163193
0.0163232
0.0163261
0.0163302
0.0163334
0.0163378
0.0163412
0.0163458
0.0163495
0.0163543
0.0163581
0.016363
0.016367
0.0163719
0.016376
0.0163808
0.0163849
0.0163896
0.0163935
0.016398
0.0164017
0.0164059
0.0164093
0.0164133
0.0164165
0.0164202
0.0164232
0.0164269
0.0164297
0.0164333
0.016436
0.0164395
0.0164421
0.0164455
0.0164481
0.0164513
0.0164538
0.016457
0.0164594
0.0164625
0.0164648
0.0164677
0.0164699
0.0164727
0.0164747
0.0164774
0.0164792
0.0164818
0.0164835
0.016486
0.0164876
0.0164899
0.0164923
0.0164946
0.0163562
0.0165838
0.0165921
0.0165941
0.0165947
0.016597
0.0165968
0.0165995
0.016599
0.0166019
0.0166011
0.0166041
0.0166032
0.0166062
0.0166054
0.0166084
0.0166076
0.0166105
0.0166098
0.0166128
0.0166122
0.0166151
0.0166147
0.0166176
0.0166173
0.0166201
0.01662
0.0166228
0.0166229
0.0166258
0.016626
0.0166289
0.0166292
0.0166322
0.0166327
0.0166357
0.0166364
0.0166394
0.0166402
0.0166433
0.0166443
0.0166473
0.0166484
0.0166515
0.0166526
0.0166555
0.0166566
0.0166593
0.0166604
0.0166629
0.0166638
0.0166662
0.0166669
0.016669
0.0166695
0.0166712
0.0166715
0.0166729
0.0166731
0.0166742
0.0166743
0.0166753
0.0166753
0.0166764
0.0166764
0.0166775
0.0166776
0.0166787
0.0166789
0.0166801
0.0166804
0.0166816
0.0166821
0.0166833
0.0166839
0.0166852
0.0166859
0.0166872
0.016688
0.0166893
0.0166901
0.0166916
0.0166924
0.016694
0.0166949
0.0166967
0.0166977
0.0167002
0.0166996
0.016702
0.00735026
0.00760876
0.007619
0.00761822
0.00762174
0.00762712
0.00763184
0.00764139
0.00764603
0.00765744
0.00766125
0.00767311
0.00767609
0.00768793
0.00769028
0.00770196
0.00770392
0.00771536
0.00771711
0.00772827
0.00772993
0.0077408
0.00774247
0.00775305
0.0077548
0.0077651
0.00776697
0.00777702
0.00777904
0.00778884
0.007791
0.00780055
0.00780286
0.00781215
0.00781457
0.00782361
0.00782612
0.00783488
0.00783744
0.0078459
0.00784846
0.00785657
0.00785904
0.00786675
0.00786907
0.00787632
0.00787845
0.0078852
0.00788708
0.00789332
0.00789492
0.00790062
0.00790192
0.00790707
0.00790807
0.0079127
0.00791342
0.00791759
0.00791809
0.00792188
0.00792223
0.00792573
0.007926
0.00792929
0.00792951
0.00793265
0.00793284
0.00793586
0.00793603
0.00793894
0.0079391
0.00794192
0.00794208
0.00794482
0.00794498
0.00794766
0.00794782
0.00795043
0.00795059
0.00795315
0.00795329
0.00795583
0.00795596
0.0079585
0.00795859
0.0079612
0.00796103
0.0079643
0.00796264
0.00796377
0.00705393
0.00779765
0.00787515
0.00788602
0.00788926
0.00789345
0.00789623
0.00790183
0.00790537
0.00791196
0.0079158
0.00792277
0.00792659
0.00793359
0.0079373
0.00794422
0.00794783
0.00795466
0.00795823
0.00796497
0.00796853
0.00797517
0.00797875
0.0079853
0.00798893
0.0079954
0.0079991
0.00800552
0.00800932
0.00801571
0.00801962
0.00802598
0.00803001
0.00803637
0.00804052
0.00804689
0.0080512
0.0080576
0.00806207
0.00806852
0.00807315
0.00807965
0.00808442
0.00809097
0.00809585
0.00810241
0.00810738
0.00811392
0.00811895
0.00812545
0.00813048
0.00813688
0.00814187
0.00814813
0.00815301
0.00815906
0.00816378
0.00816961
0.00817415
0.00817975
0.0081841
0.00818949
0.00819367
0.00819887
0.00820288
0.00820791
0.00821175
0.00821661
0.00822028
0.00822496
0.00822846
0.00823295
0.00823626
0.00824055
0.00824368
0.00824777
0.00825067
0.00825455
0.00825722
0.00826087
0.00826327
0.00826671
0.00826881
0.00827205
0.00827385
0.0082769
0.00827854
0.00828085
0.00828324
0.00828636
0.0063447
0.00738695
0.00754457
0.00757438
0.00758069
0.00758358
0.00758411
0.00758563
0.00758644
0.00758836
0.00758979
0.00759208
0.00759384
0.00759624
0.00759809
0.00760047
0.00760231
0.00760464
0.00760648
0.00760877
0.00761059
0.00761285
0.00761467
0.00761691
0.00761874
0.00762098
0.00762282
0.00762508
0.00762696
0.00762925
0.00763119
0.00763351
0.0076355
0.00763787
0.00763994
0.00764238
0.00764454
0.00764708
0.00764935
0.00765198
0.00765437
0.00765711
0.00765961
0.00766244
0.00766503
0.00766794
0.00767061
0.00767357
0.0076763
0.00767929
0.00768205
0.00768502
0.00768777
0.00769069
0.00769337
0.0076962
0.00769879
0.0077015
0.00770398
0.00770658
0.00770895
0.00771146
0.00771375
0.0077162
0.00771841
0.0077208
0.00772295
0.0077253
0.00772738
0.00772967
0.0077317
0.00773392
0.00773588
0.00773804
0.00773994
0.00774201
0.00774383
0.00774582
0.00774754
0.00774943
0.00775102
0.00775283
0.00775427
0.00775601
0.00775729
0.00775902
0.00776016
0.00776175
0.00776343
0.00776263
0.00608972
0.00720243
0.00739445
0.00743019
0.00743844
0.00743845
0.00743806
0.00743622
0.00743574
0.00743455
0.0074346
0.00743412
0.00743454
0.00743448
0.00743501
0.00743513
0.00743566
0.00743588
0.00743639
0.0074367
0.0074372
0.00743756
0.00743806
0.00743848
0.00743898
0.00743945
0.00743999
0.00744052
0.0074411
0.00744171
0.00744234
0.00744302
0.00744371
0.00744447
0.00744524
0.00744609
0.00744696
0.00744792
0.0074489
0.00744999
0.00745109
0.0074523
0.00745352
0.00745485
0.00745616
0.00745758
0.00745899
0.00746048
0.00746195
0.0074635
0.00746501
0.00746657
0.00746809
0.00746962
0.0074711
0.00747257