/*--------------------------------*- C++ -*----------------------------------*\
  =========                 |
  \\      /  F ield         | OpenFOAM: The Open Source CFD Toolbox
   \\    /   O peration     | Website:  https://openfoam.org
    \\  /    A nd           | Version:  7
     \\/     M anipulation  |
\*---------------------------------------------------------------------------*/
FoamFile
{
    version     2.0;
    format      ascii;
    class       volScalarField;
    location    "0.62";
    object      p;
}
// * * * * * * * * * * * * * * * * * * * * * * * * * * * * * * * * * * * * * //

dimensions      [1 -1 -2 0 0 0 0];

internalField   nonuniform List<scalar> 
7920
(
99440.6
99424.4
99431.4
99421.6
99427.7
99419.9
99424.9
99418.6
99422.6
99417.4
99420.6
99416.3
99418.9
99415.2
99417.3
99414.3
99415.9
99413.3
99414.7
99412.2
99424.5
99411.3
99418.6
99408.9
99415.1
99407.3
99412.4
99406
99410.1
99404.9
99408.1
99403.8
99406.4
99402.7
99404.8
99401.8
99403.4
99400.9
99401.8
99399.7
99432.4
99419.6
99426.2
99416.3
99422.4
99414.6
99419.5
99413.2
99417.2
99412
99415.2
99410.8
99413.4
99409.8
99411.9
99408.8
99410.4
99407.9
99409.3
99406.9
99425.1
99413.7
99420.4
99410.7
99416.8
99409
99414
99407.6
99411.7
99406.5
99409.7
99405.3
99407.9
99404.3
99406.4
99403.3
99404.9
99402.4
99403.4
99401.4
99429
99417.9
99424.3
99414.6
99420.5
99412.7
99417.7
99411.3
99415.4
99410.1
99413.4
99409
99411.6
99408
99410
99407
99408.6
99406.1
99407.4
99405.1
99426.7
99416.1
99422.4
99412.7
99418.7
99410.9
99415.9
99409.5
99413.6
99408.3
99411.6
99407.2
99409.8
99406.1
99408.2
99405.2
99406.8
99404.3
99405.4
99403.3
99426.7
99416.1
99422.4
99412.7
99418.7
99410.9
99415.9
99409.5
99413.6
99408.3
99411.6
99407.2
99409.8
99406.1
99408.2
99405.2
99406.8
99404.3
99405.4
99403.3
99429
99417.9
99424.3
99414.6
99420.5
99412.7
99417.7
99411.3
99415.4
99410.1
99413.4
99409
99411.6
99408
99410
99407
99408.6
99406.1
99407.4
99405.1
99425.1
99413.7
99420.4
99410.7
99416.8
99409
99414
99407.6
99411.7
99406.5
99409.7
99405.3
99407.9
99404.3
99406.4
99403.3
99404.9
99402.4
99403.4
99401.4
99432.4
99419.6
99426.2
99416.3
99422.4
99414.6
99419.5
99413.2
99417.2
99412
99415.2
99410.8
99413.4
99409.8
99411.9
99408.8
99410.4
99407.9
99409.3
99406.9
99424.5
99411.3
99418.6
99408.9
99415.1
99407.3
99412.4
99406
99410.1
99404.9
99408.1
99403.8
99406.4
99402.7
99404.8
99401.8
99403.4
99400.9
99401.8
99399.7
99440.6
99424.4
99431.4
99421.6
99427.7
99419.9
99424.9
99418.6
99422.6
99417.4
99420.6
99416.3
99418.9
99415.2
99417.3
99414.3
99415.9
99413.3
99414.7
99412.2
99405.9
99408.1
99401.6
99404.1
99400
99401.9
99399
99400.2
99398.1
99398.8
99397.3
99397.7
99396.6
99396.7
99396.1
99396
99395.6
99395.3
99395.1
99395.3
99416.6
99420.1
99413.6
99415.9
99411.7
99413.5
99410.6
99411.8
99409.6
99410.4
99408.8
99409.2
99408.1
99408.2
99407.6
99407.5
99407.1
99406.8
99406.8
99407.1
99407.8
99410.6
99404.3
99406.7
99402.5
99404.4
99401.5
99402.7
99400.6
99401.3
99399.8
99400.1
99399.1
99399.2
99398.5
99398.4
99398
99397.8
99397.4
99397.8
99413.8
99417.5
99411.3
99413.8
99409.5
99411.4
99408.3
99409.6
99407.4
99408.1
99406.6
99406.9
99405.9
99406
99405.3
99405.2
99404.8
99404.6
99404.5
99404.8
99409.5
99412.9
99406.8
99409.2
99405
99406.8
99403.8
99405
99402.9
99403.6
99402.1
99402.4
99401.4
99401.5
99400.8
99400.7
99400.3
99400.1
99399.8
99400.1
99411.5
99415.1
99409.1
99411.5
99407.3
99409.1
99406.1
99407.3
99405.1
99405.9
99404.3
99404.7
99403.6
99403.7
99403
99402.9
99402.5
99402.4
99402.2
99402.4
99411.5
99415.1
99409.1
99411.5
99407.3
99409.1
99406.1
99407.3
99405.1
99405.9
99404.3
99404.7
99403.6
99403.7
99403
99402.9
99402.5
99402.4
99402.2
99402.4
99409.5
99412.9
99406.8
99409.2
99405
99406.8
99403.8
99405
99402.9
99403.6
99402.1
99402.4
99401.4
99401.5
99400.8
99400.7
99400.3
99400.1
99399.8
99400.1
99413.8
99417.5
99411.3
99413.8
99409.5
99411.4
99408.3
99409.6
99407.4
99408.1
99406.6
99406.9
99405.9
99406
99405.3
99405.2
99404.8
99404.6
99404.5
99404.8
99407.8
99410.6
99404.3
99406.7
99402.5
99404.4
99401.5
99402.7
99400.6
99401.3
99399.8
99400.1
99399.1
99399.2
99398.5
99398.4
99398
99397.8
99397.4
99397.8
99416.6
99420.1
99413.6
99415.9
99411.7
99413.5
99410.6
99411.8
99409.6
99410.4
99408.8
99409.2
99408.1
99408.2
99407.6
99407.5
99407.1
99406.8
99406.8
99407
99405.9
99408.1
99401.6
99404.1
99400
99401.9
99399
99400.2
99398.1
99398.8
99397.3
99397.7
99396.6
99396.7
99396.1
99396
99395.6
99395.3
99395.1
99395.3
99396.7
99395.6
99394.9
99394
99393.1
99392.5
99391.7
99391.4
99390.7
99390.5
99389.8
99389.7
99389.1
99389
99388.5
99388.4
99387.9
99387.9
99387.3
99387.5
99396.4
99395.6
99394.9
99394.1
99393.2
99392.6
99391.8
99391.4
99390.7
99390.5
99389.8
99389.7
99389.1
99389
99388.5
99388.4
99387.9
99387.9
99387.3
99387.6
99396.4
99395.5
99394.9
99394.1
99393.2
99392.6
99391.7
99391.4
99390.7
99390.5
99389.8
99389.7
99389.1
99389
99388.4
99388.4
99387.9
99387.9
99387.3
99387.5
99396.2
99395.5
99394.9
99394.1
99393.2
99392.6
99391.8
99391.4
99390.7
99390.5
99389.8
99389.7
99389.1
99389
99388.5
99388.4
99387.9
99387.9
99387.3
99387.5
99396.2
99395.5
99394.9
99394.1
99393.2
99392.6
99391.8
99391.4
99390.7
99390.5
99389.8
99389.7
99389.1
99389
99388.4
99388.4
99387.9
99387.9
99387.3
99387.4
99396.1
99395.5
99394.9
99394.1
99393.2
99392.6
99391.8
99391.4
99390.7
99390.5
99389.8
99389.7
99389.1
99389
99388.4
99388.4
99387.9
99387.9
99387.3
99387.4
99396.1
99395.5
99394.9
99394.1
99393.2
99392.6
99391.8
99391.4
99390.7
99390.5
99389.8
99389.7
99389.1
99389
99388.4
99388.4
99387.9
99387.9
99387.3
99387.4
99396.2
99395.5
99394.9
99394.1
99393.2
99392.6
99391.8
99391.4
99390.7
99390.5
99389.8
99389.7
99389.1
99389
99388.4
99388.4
99387.9
99387.9
99387.3
99387.4
99396.2
99395.5
99394.9
99394.1
99393.2
99392.6
99391.8
99391.4
99390.7
99390.5
99389.8
99389.7
99389.1
99389
99388.5
99388.4
99387.9
99387.9
99387.3
99387.5
99396.4
99395.5
99394.9
99394.1
99393.2
99392.6
99391.7
99391.4
99390.7
99390.5
99389.8
99389.7
99389.1
99389
99388.4
99388.4
99387.9
99387.9
99387.3
99387.5
99396.4
99395.6
99394.9
99394.1
99393.2
99392.6
99391.8
99391.4
99390.7
99390.5
99389.8
99389.7
99389.1
99389
99388.5
99388.4
99387.9
99387.9
99387.3
99387.5
99396.7
99395.6
99394.9
99394
99393.1
99392.5
99391.7
99391.4
99390.7
99390.5
99389.8
99389.7
99389.1
99389
99388.5
99388.4
99387.9
99387.9
99387.3
99387.5
99396.7
99395.6
99394.9
99394
99393.1
99392.5
99391.7
99391.4
99390.7
99390.5
99389.8
99389.7
99389.1
99389
99388.5
99388.4
99387.9
99387.9
99387.3
99387.5
99396.4
99395.6
99394.9
99394.1
99393.2
99392.6
99391.8
99391.4
99390.7
99390.5
99389.8
99389.7
99389.1
99389
99388.5
99388.4
99387.9
99387.9
99387.3
99387.6
99396.4
99395.5
99394.9
99394.1
99393.2
99392.6
99391.7
99391.4
99390.7
99390.5
99389.8
99389.7
99389.1
99389
99388.4
99388.4
99387.9
99387.9
99387.3
99387.5
99396.2
99395.5
99394.9
99394.1
99393.2
99392.6
99391.8
99391.4
99390.7
99390.5
99389.8
99389.7
99389.1
99389
99388.5
99388.4
99387.9
99387.9
99387.3
99387.5
99396.2
99395.5
99394.9
99394.1
99393.2
99392.6
99391.8
99391.4
99390.7
99390.5
99389.8
99389.7
99389.1
99389
99388.4
99388.4
99387.9
99387.9
99387.3
99387.4
99396.1
99395.5
99394.9
99394.1
99393.2
99392.6
99391.8
99391.4
99390.7
99390.5
99389.8
99389.7
99389.1
99389
99388.4
99388.4
99387.9
99387.9
99387.3
99387.4
99396.1
99395.5
99394.9
99394.1
99393.2
99392.6
99391.8
99391.4
99390.7
99390.5
99389.8
99389.7
99389.1
99389
99388.4
99388.4
99387.9
99387.9
99387.3
99387.4
99396.2
99395.5
99394.9
99394.1
99393.2
99392.6
99391.8
99391.4
99390.7
99390.5
99389.8
99389.7
99389.1
99389
99388.4
99388.4
99387.9
99387.9
99387.3
99387.4
99396.2
99395.5
99394.9
99394.1
99393.2
99392.6
99391.8
99391.4
99390.7
99390.5
99389.8
99389.7
99389.1
99389
99388.5
99388.4
99387.9
99387.9
99387.3
99387.5
99396.4
99395.5
99394.9
99394.1
99393.2
99392.6
99391.7
99391.4
99390.7
99390.5
99389.8
99389.7
99389.1
99389
99388.4
99388.4
99387.9
99387.9
99387.3
99387.5
99396.4
99395.6
99394.9
99394.1
99393.2
99392.6
99391.8
99391.4
99390.7
99390.5
99389.8
99389.7
99389.1
99389
99388.5
99388.4
99387.9
99387.9
99387.3
99387.5
99396.7
99395.6
99394.9
99394
99393.1
99392.5
99391.7
99391.4
99390.7
99390.5
99389.8
99389.7
99389.1
99389
99388.5
99388.4
99387.9
99387.9
99387.3
99387.5
99405.9
99408.1
99401.6
99404.1
99400
99401.9
99399
99400.2
99398.1
99398.8
99397.3
99397.7
99396.6
99396.7
99396.1
99396
99395.6
99395.3
99395.1
99395.3
99416.6
99420.1
99413.6
99415.9
99411.7
99413.5
99410.6
99411.8
99409.6
99410.4
99408.8
99409.2
99408.1
99408.2
99407.6
99407.5
99407.1
99406.8
99406.8
99407.1
99407.8
99410.6
99404.3
99406.7
99402.5
99404.4
99401.5
99402.7
99400.6
99401.3
99399.8
99400.1
99399.1
99399.2
99398.5
99398.4
99398
99397.8
99397.4
99397.8
99413.8
99417.5
99411.3
99413.8
99409.5
99411.4
99408.3
99409.6
99407.4
99408.1
99406.6
99406.9
99405.9
99406
99405.3
99405.2
99404.8
99404.6
99404.5
99404.8
99409.5
99412.9
99406.8
99409.2
99405
99406.8
99403.8
99405
99402.9
99403.6
99402.1
99402.4
99401.4
99401.5
99400.8
99400.7
99400.3
99400.1
99399.8
99400.1
99411.5
99415.1
99409.1
99411.5
99407.3
99409.1
99406.1
99407.3
99405.1
99405.9
99404.3
99404.7
99403.6
99403.7
99403
99402.9
99402.5
99402.4
99402.2
99402.4
99411.5
99415.1
99409.1
99411.5
99407.3
99409.1
99406.1
99407.3
99405.1
99405.9
99404.3
99404.7
99403.6
99403.7
99403
99402.9
99402.5
99402.4
99402.2
99402.4
99409.5
99412.9
99406.8
99409.2
99405
99406.8
99403.8
99405
99402.9
99403.6
99402.1
99402.4
99401.4
99401.5
99400.8
99400.7
99400.3
99400.1
99399.8
99400.1
99413.8
99417.5
99411.3
99413.8
99409.5
99411.4
99408.3
99409.6
99407.4
99408.1
99406.6
99406.9
99405.9
99406
99405.3
99405.2
99404.8
99404.6
99404.5
99404.8
99407.8
99410.6
99404.3
99406.7
99402.5
99404.4
99401.5
99402.7
99400.6
99401.3
99399.8
99400.1
99399.1
99399.2
99398.5
99398.4
99398
99397.8
99397.4
99397.8
99416.6
99420.1
99413.6
99415.9
99411.7
99413.5
99410.6
99411.8
99409.6
99410.4
99408.8
99409.2
99408.1
99408.2
99407.6
99407.5
99407.1
99406.8
99406.8
99407
99405.9
99408.1
99401.6
99404.1
99400
99401.9
99399
99400.2
99398.1
99398.8
99397.3
99397.7
99396.6
99396.7
99396.1
99396
99395.6
99395.3
99395.1
99395.3
99440.6
99424.4
99431.4
99421.6
99427.7
99419.9
99424.9
99418.6
99422.6
99417.4
99420.6
99416.3
99418.9
99415.2
99417.3
99414.3
99415.9
99413.3
99414.7
99412.2
99424.5
99411.3
99418.6
99408.9
99415.1
99407.3
99412.4
99406
99410.1
99404.9
99408.1
99403.8
99406.4
99402.7
99404.8
99401.8
99403.4
99400.9
99401.8
99399.7
99432.4
99419.6
99426.2
99416.3
99422.4
99414.6
99419.5
99413.2
99417.2
99412
99415.2
99410.8
99413.4
99409.8
99411.9
99408.8
99410.4
99407.9
99409.3
99406.9
99425.1
99413.7
99420.4
99410.7
99416.8
99409
99414
99407.6
99411.7
99406.5
99409.7
99405.3
99407.9
99404.3
99406.4
99403.3
99404.9
99402.4
99403.4
99401.4
99429
99417.9
99424.3
99414.6
99420.5
99412.7
99417.7
99411.3
99415.4
99410.1
99413.4
99409
99411.6
99408
99410
99407
99408.6
99406.1
99407.4
99405.1
99426.7
99416.1
99422.4
99412.7
99418.7
99410.9
99415.9
99409.5
99413.6
99408.3
99411.6
99407.2
99409.8
99406.1
99408.2
99405.2
99406.8
99404.3
99405.4
99403.3
99426.7
99416.1
99422.4
99412.7
99418.7
99410.9
99415.9
99409.5
99413.6
99408.3
99411.6
99407.2
99409.8
99406.1
99408.2
99405.2
99406.8
99404.3
99405.4
99403.3
99429
99417.9
99424.3
99414.6
99420.5
99412.7
99417.7
99411.3
99415.4
99410.1
99413.4
99409
99411.6
99408
99410
99407
99408.6
99406.1
99407.4
99405.1
99425.1
99413.7
99420.4
99410.7
99416.8
99409
99414
99407.6
99411.7
99406.5
99409.7
99405.3
99407.9
99404.3
99406.4
99403.3
99404.9
99402.4
99403.4
99401.4
99432.4
99419.6
99426.2
99416.3
99422.4
99414.6
99419.5
99413.2
99417.2
99412
99415.2
99410.8
99413.4
99409.8
99411.9
99408.8
99410.4
99407.9
99409.3
99406.9
99424.5
99411.3
99418.6
99408.9
99415.1
99407.3
99412.4
99406
99410.1
99404.9
99408.1
99403.8
99406.4
99402.7
99404.8
99401.8
99403.4
99400.9
99401.8
99399.7
99440.6
99424.4
99431.4
99421.6
99427.7
99419.9
99424.9
99418.6
99422.6
99417.4
99420.6
99416.3
99418.9
99415.2
99417.3
99414.3
99415.9
99413.3
99414.7
99412.2
99433.9
99421.7
99424.1
99413.6
99415.2
99406.2
99407.3
99399.3
99400.2
99393.1
99393.8
99387.5
99388.2
99382.5
99383
99377.7
99378
99373.2
99373.5
99369
99369.3
99365.2
99365.5
99361.8
99362.1
99358.6
99358.8
99355.5
99355.6
99352.5
99352.6
99349.8
99350
99347.6
99348
99346
99346.5
99344.7
99345.2
99343.7
99344.3
99343.3
99344.3
99343.9
99345.6
99346.2
99348.6
99350.2
99353.5
99356.2
99360.5
99364.5
99370.1
99375.8
99383.1
99390.8
99400.1
99410.3
99421.9
99434.5
99448.5
99463.4
99479.4
99496.2
99514
99532.1
99551.4
99570.5
99590.9
99610.6
99631.9
99651.7
99673.3
99692.8
99714.1
99732.9
99753.6
99771.4
99791.1
99808
99826.6
99843.1
99860.9
99877.5
99895.1
99912.1
99930
99947.8
99966.3
99984.7
99399.8
99386.7
99388.8
99378.1
99379.7
99370.5
99371.7
99363.6
99364.5
99357.4
99358.1
99351.9
99352.5
99346.8
99347.3
99342
99342.4
99337.5
99337.8
99333.3
99333.6
99329.5
99329.8
99326.1
99326.4
99322.9
99323.1
99319.8
99319.9
99316.8
99316.9
99314.1
99314.3
99311.9
99312.3
99310.3
99310.8
99309
99309.5
99308
99308.6
99307.6
99308.6
99308.2
99309.9
99310.4
99312.9
99314.4
99317.8
99320.4
99324.8
99328.8
99334.4
99340
99347.3
99355
99364.4
99374.5
99386.2
99398.8
99412.7
99427.6
99443.6
99460.3
99478.1
99496.3
99515.5
99534.7
99555.1
99574.8
99596
99615.8
99637.4
99656.9
99678.2
99697
99717.7
99735.5
99755.1
99772.1
99790.6
99807.1
99824.9
99841.5
99859.1
99876.1
99894
99911.7
99930.3
99948.7
99418.8
99406.6
99408.9
99398.4
99400
99390.9
99392
99384
99384.9
99377.8
99378.6
99372.3
99372.9
99367.2
99367.7
99362.4
99362.8
99357.9
99358.2
99353.8
99354
99350
99350.3
99346.6
99346.8
99343.4
99343.5
99340.3
99340.4
99337.3
99337.4
99334.6
99334.8
99332.4
99332.8
99330.8
99331.3
99329.5
99330
99328.5
99329.2
99328.1
99329.1
99328.8
99330.4
99331
99333.4
99335
99338.3
99341
99345.3
99349.4
99355
99360.6
99367.9
99375.7
99385
99395.1
99406.8
99419.4
99433.4
99448.2
99464.3
99481
99498.8
99517
99536.2
99555.4
99575.8
99595.5
99616.7
99636.6
99658.1
99677.6
99699
99717.8
99738.4
99756.3
99775.9
99792.9
99811.4
99827.9
99845.7
99862.3
99879.9
99896.9
99914.8
99932.6
99951.1
99969.5
99403.9
99390.9
99393
99382.3
99383.9
99374.8
99375.9
99367.9
99368.7
99361.6
99362.4
99356.1
99356.7
99351
99351.5
99346.2
99346.6
99341.7
99342
99337.6
99337.8
99333.8
99334.1
99330.3
99330.6
99327.1
99327.3
99324
99324.1
99321.1
99321.1
99318.4
99318.6
99316.2
99316.6
99314.5
99315
99313.3
99313.8
99312.3
99312.9
99311.8
99312.9
99312.5
99314.2
99314.7
99317.2
99318.7
99322.1
99324.7
99329.1
99333.1
99338.7
99344.4
99351.6
99359.4
99368.7
99378.8
99390.5
99403.1
99417.1
99431.9
99448
99464.7
99482.5
99500.6
99519.9
99539
99559.4
99579.1
99600.4
99620.2
99641.7
99661.2
99682.6
99701.4
99722
99739.9
99759.5
99776.4
99795
99811.5
99829.3
99845.9
99863.5
99880.5
99898.4
99916.1
99934.7
99953.1
99413.6
99401.2
99403.5
99393
99394.6
99385.5
99386.6
99378.6
99379.4
99372.4
99373.1
99366.8
99367.5
99361.8
99362.3
99357
99357.4
99352.5
99352.8
99348.3
99348.6
99344.6
99344.8
99341.1
99341.4
99337.9
99338.1
99334.8
99334.9
99331.9
99331.9
99329.2
99329.4
99327
99327.4
99325.4
99325.8
99324.1
99324.6
99323.1
99323.7
99322.7
99323.7
99323.3
99325
99325.6
99328
99329.6
99332.9
99335.6
99339.9
99343.9
99349.5
99355.2
99362.5
99370.2
99379.6
99389.7
99401.4
99414
99428
99442.8
99458.9
99475.6
99493.4
99511.5
99530.8
99549.9
99570.4
99590.1
99611.3
99631.1
99652.7
99672.2
99693.6
99712.3
99733
99750.8
99770.5
99787.4
99806
99822.5
99840.3
99856.8
99874.4
99891.5
99909.4
99927.1
99945.7
99964
99408.8
99396.1
99398.2
99387.6
99389.2
99380.1
99381.2
99373.2
99374
99366.9
99367.7
99361.4
99362
99356.3
99356.8
99351.6
99351.9
99347.1
99347.3
99342.9
99343.2
99339.1
99339.4
99335.7
99335.9
99332.5
99332.7
99329.4
99329.5
99326.4
99326.5
99323.7
99323.9
99321.5
99321.9
99319.9
99320.4
99318.6
99319.1
99317.6
99318.3
99317.2
99318.2
99317.9
99319.5
99320.1
99322.5
99324.1
99327.4
99330.1
99334.4
99338.5
99344.1
99349.7
99357
99364.8
99374.1
99384.2
99395.9
99408.5
99422.5
99437.3
99453.4
99470.1
99487.9
99506
99525.3
99544.4
99564.9
99584.6
99605.8
99625.6
99647.2
99666.7
99688
99706.8
99727.5
99745.3
99764.9
99781.9
99800.4
99816.9
99834.7
99851.3
99868.9
99886
99903.9
99921.6
99940.2
99958.5
99408.8
99396.2
99398.4
99387.9
99389.5
99380.4
99381.5
99373.5
99374.3
99367.3
99368
99361.7
99362.3
99356.6
99357.1
99351.9
99352.2
99347.4
99347.6
99343.2
99343.5
99339.4
99339.7
99336
99336.2
99332.8
99333
99329.7
99329.8
99326.7
99326.8
99324
99324.2
99321.9
99322.2
99320.2
99320.7
99318.9
99319.4
99317.9
99318.6
99317.5
99318.5
99318.2
99319.9
99320.4
99322.9
99324.4
99327.7
99330.4
99334.8
99338.8
99344.4
99350.1
99357.3
99365.1
99374.4
99384.5
99396.2
99408.8
99422.8
99437.6
99453.7
99470.4
99488.2
99506.4
99525.6
99544.8
99565.2
99584.9
99606.1
99625.9
99647.5
99667
99688.4
99707.1
99727.8
99745.6
99765.2
99782.2
99800.8
99817.3
99835.1
99851.6
99869.2
99886.3
99904.2
99921.9
99940.5
99958.9
99413.5
99401.1
99403.4
99392.8
99394.3
99385.2
99386.3
99378.3
99379.1
99372.1
99372.8
99366.5
99367.2
99361.5
99362
99356.7
99357.1
99352.2
99352.5
99348
99348.3
99344.3
99344.5
99340.8
99341.1
99337.6
99337.8
99334.5
99334.6
99331.6
99331.7
99328.9
99329.1
99326.7
99327.1
99325.1
99325.5
99323.8
99324.3
99322.8
99323.4
99322.4
99323.4
99323
99324.7
99325.3
99327.7
99329.3
99332.6
99335.3
99339.6
99343.6
99349.2
99354.9
99362.2
99369.9
99379.3
99389.4
99401.1
99413.7
99427.7
99442.5
99458.6
99475.3
99493.1
99511.2
99530.5
99549.6
99570.1
99589.8
99611
99630.8
99652.4
99671.9
99693.3
99712
99732.7
99750.5
99770.2
99787.1
99805.7
99822.2
99840
99856.5
99874.1
99891.2
99909.1
99926.8
99945.4
99963.7
99403.9
99391
99393.2
99382.6
99384.2
99375.1
99376.2
99368.2
99369
99362
99362.7
99356.4
99357.1
99351.4
99351.9
99346.6
99346.9
99342.1
99342.4
99337.9
99338.2
99334.1
99334.4
99330.7
99331
99327.5
99327.7
99324.4
99324.5
99321.4
99321.5
99318.7
99318.9
99316.6
99316.9
99314.9
99315.4
99313.6
99314.1
99312.6
99313.3
99312.2
99313.2
99312.9
99314.5
99315.1
99317.5
99319.1
99322.4
99325.1
99329.4
99333.4
99339
99344.7
99352
99359.7
99369
99379.2
99390.8
99403.4
99417.4
99432.3
99448.3
99465
99482.8
99501
99520.2
99539.4
99559.8
99579.5
99600.7
99620.5
99642.1
99661.6
99683
99701.7
99722.4
99740.2
99759.8
99776.8
99795.3
99811.8
99829.7
99846.2
99863.8
99880.9
99898.8
99916.5
99935.1
99953.5
99418.7
99406.5
99408.8
99398.2
99399.8
99390.7
99391.8
99383.8
99384.6
99377.5
99378.3
99372
99372.6
99366.9
99367.4
99362.2
99362.5
99357.7
99357.9
99353.5
99353.8
99349.7
99350
99346.3
99346.5
99343.1
99343.3
99340
99340.1
99337
99337.1
99334.3
99334.5
99332.2
99332.5
99330.5
99331
99329.2
99329.7
99328.2
99328.9
99327.8
99328.8
99328.5
99330.1
99330.7
99333.1
99334.7
99338
99340.7
99345.1
99349.1
99354.7
99360.4
99367.6
99375.4
99384.7
99394.8
99406.5
99419.1
99433.1
99448
99464
99480.7
99498.5
99516.7
99535.9
99555.1
99575.5
99595.2
99616.4
99636.3
99657.8
99677.3
99698.7
99717.5
99738.2
99756
99775.6
99792.6
99811.1
99827.6
99845.4
99862
99879.6
99896.6
99914.6
99932.3
99950.8
99969.2
99399.9
99386.9
99389
99378.4
99380
99370.9
99372
99364
99364.9
99357.8
99358.5
99352.2
99352.9
99347.2
99347.7
99342.4
99342.7
99337.9
99338.2
99333.7
99334
99329.9
99330.2
99326.5
99326.7
99323.3
99323.4
99320.2
99320.3
99317.2
99317.3
99314.5
99314.7
99312.3
99312.7
99310.7
99311.1
99309.4
99309.9
99308.4
99309
99307.9
99309
99308.6
99310.3
99310.8
99313.2
99314.8
99318.1
99320.8
99325.1
99329.1
99334.7
99340.4
99347.7
99355.4
99364.7
99374.9
99386.5
99399.1
99413.1
99428
99444
99460.7
99478.5
99496.6
99515.9
99535
99555.4
99575.2
99596.4
99616.2
99637.7
99657.2
99678.6
99697.4
99718
99735.9
99755.5
99772.4
99791
99807.5
99825.3
99841.8
99859.4
99876.5
99894.4
99912.1
99930.7
99949.1
99433.8
99421.6
99423.8
99413.3
99414.9
99405.8
99406.9
99398.9
99399.7
99392.6
99393.4
99387.1
99387.7
99382
99382.5
99377.3
99377.6
99372.7
99373
99368.6
99368.8
99364.8
99365.1
99361.4
99361.6
99358.1
99358.3
99355.1
99355.1
99352.1
99352.2
99349.4
99349.6
99347.2
99347.6
99345.6
99346
99344.3
99344.8
99343.3
99343.9
99342.8
99343.9
99343.5
99345.2
99345.7
99348.2
99349.7
99353.1
99355.7
99360.1
99364.1
99369.7
99375.4
99382.6
99390.4
99399.7
99409.8
99421.5
99434.1
99448.1
99462.9
99479
99495.7
99513.5
99531.7
99550.9
99570.1
99590.5
99610.2
99631.4
99651.3
99672.8
99692.3
99713.7
99732.5
99753.2
99771
99790.6
99807.6
99826.1
99842.6
99860.4
99877
99894.6
99911.7
99929.6
99947.3
99965.8
99984.2
99379.2
99372
99372.8
99366.1
99367
99360.4
99361.1
99354.9
99355.5
99349.7
99350.4
99345
99345.6
99340.5
99341.1
99336.3
99336.7
99332.2
99332.5
99328.3
99328.7
99324.8
99325.2
99321.6
99321.9
99318.6
99318.8
99315.6
99315.8
99312.8
99312.9
99310.2
99310.4
99308.1
99308.5
99306.5
99307
99305.2
99305.8
99304.3
99305
99303.9
99305
99304.6
99306.3
99306.8
99309.3
99310.9
99314.2
99316.9
99321.3
99325.3
99330.9
99336.6
99343.9
99351.7
99361
99371.2
99382.9
99395.5
99409.5
99424.4
99440.5
99457.2
99475.1
99493.2
99512.5
99531.7
99552.1
99571.9
99593.1
99612.9
99634.5
99654
99675.4
99694.2
99714.8
99732.7
99752.2
99769.2
99787.7
99804.2
99821.9
99838.4
99855.9
99872.9
99890.5
99908.3
99926.3
99944.5
99411.6
99404.9
99406
99399.4
99400.3
99393.8
99394.6
99388.3
99389
99383.2
99383.8
99378.4
99379.1
99374
99374.5
99369.7
99370.1
99365.6
99366
99361.8
99362.1
99358.3
99358.6
99355.1
99355.4
99352
99352.3
99349.1
99349.2
99346.2
99346.3
99343.6
99343.9
99341.5
99341.9
99339.9
99340.4
99338.7
99339.2
99337.7
99338.4
99337.4
99338.4
99338.1
99339.7
99340.3
99342.8
99344.4
99347.7
99350.4
99354.7
99358.8
99364.4
99370.1
99377.4
99385.1
99394.5
99404.7
99416.4
99429
99443
99457.9
99474
99490.8
99508.6
99526.8
99546.1
99565.2
99585.7
99605.4
99626.7
99646.5
99668.1
99687.6
99709
99727.8
99748.4
99766.3
99785.8
99802.8
99821.3
99837.8
99855.5
99872.1
99889.5
99906.6
99924.2
99942
99959.9
99978.1
99387.2
99379.6
99380.4
99373.6
99374.5
99367.9
99368.7
99362.4
99363.1
99357.3
99357.9
99352.5
99353.2
99348.1
99348.6
99343.8
99344.2
99339.7
99340.1
99335.9
99336.2
99332.4
99332.7
99329.2
99329.5
99326.1
99326.4
99323.2
99323.3
99320.3
99320.4
99317.7
99318
99315.6
99316
99314
99314.5
99312.8
99313.3
99311.8
99312.5
99311.5
99312.5
99312.1
99313.8
99314.4
99316.9
99318.4
99321.8
99324.5
99328.8
99332.9
99338.5
99344.2
99351.5
99359.2
99368.6
99378.7
99390.4
99403.1
99417.1
99432
99448.1
99464.8
99482.6
99500.8
99520.1
99539.3
99559.7
99579.4
99600.7
99620.5
99642.1
99661.6
99683
99701.7
99722.4
99740.2
99759.8
99776.8
99795.2
99811.7
99829.4
99846
99863.4
99880.5
99898.1
99915.9
99933.9
99952.1
99405.3
99398.4
99399.4
99392.8
99393.7
99387.2
99387.9
99381.7
99382.4
99376.5
99377.2
99371.8
99372.4
99367.4
99367.9
99363.1
99363.5
99359
99359.4
99355.2
99355.5
99351.7
99352
99348.4
99348.8
99345.4
99345.7
99342.5
99342.6
99339.6
99339.7
99337
99337.3
99334.9
99335.3
99333.3
99333.8
99332.1
99332.6
99331.1
99331.8
99330.7
99331.8
99331.4
99333.1
99333.7
99336.2
99337.7
99341.1
99343.8
99348.1
99352.2
99357.8
99363.5
99370.8
99378.5
99387.9
99398.1
99409.7
99422.4
99436.4
99451.3
99467.4
99484.1
99502
99520.1
99539.4
99558.6
99579.1
99598.8
99620
99639.9
99661.5
99681
99702.3
99721.1
99741.8
99759.6
99779.2
99796.2
99814.7
99831.2
99848.9
99865.4
99882.9
99899.9
99917.5
99935.3
99953.3
99971.5
99393.6
99386.1
99386.8
99380.1
99381
99374.4
99375.1
99368.9
99369.6
99363.7
99364.4
99359
99359.6
99354.6
99355.1
99350.3
99350.7
99346.2
99346.6
99342.4
99342.7
99338.8
99339.2
99335.6
99336
99332.6
99332.8
99329.7
99329.8
99326.8
99326.9
99324.2
99324.4
99322.1
99322.5
99320.5
99321
99319.3
99319.8
99318.3
99319
99317.9
99319
99318.6
99320.3
99320.9
99323.4
99324.9
99328.3
99331
99335.3
99339.3
99345
99350.7
99358
99365.7
99375.1
99385.2
99396.9
99409.6
99423.6
99438.5
99454.6
99471.3
99489.1
99507.3
99526.6
99545.8
99566.2
99586
99607.2
99627
99648.6
99668.1
99689.5
99708.3
99728.9
99746.8
99766.3
99783.3
99801.8
99818.3
99836
99852.6
99870
99887.1
99904.6
99922.4
99940.5
99958.7
99399.4
99392.3
99393.2
99386.5
99387.4
99380.9
99381.6
99375.4
99376.1
99370.2
99370.9
99365.5
99366.1
99361.1
99361.6
99356.8
99357.2
99352.7
99353.1
99348.9
99349.2
99345.4
99345.7
99342.1
99342.5
99339.1
99339.4
99336.2
99336.3
99333.3
99333.4
99330.7
99331
99328.6
99329
99327
99327.5
99325.8
99326.3
99324.8
99325.5
99324.4
99325.5
99325.1
99326.8
99327.4
99329.9
99331.4
99334.8
99337.5
99341.8
99345.9
99351.5
99357.2
99364.5
99372.2
99381.6
99391.8
99403.4
99416.1
99430.1
99445
99461.1
99477.8
99495.7
99513.8
99533.1
99552.3
99572.8
99592.5
99613.7
99633.6
99655.1
99674.7
99696
99714.8
99735.5
99753.3
99772.9
99789.8
99808.3
99824.8
99842.5
99859.1
99876.5
99893.6
99911.2
99929
99947
99965.2
99399.4
99392.2
99393
99386.3
99387.1
99380.6
99381.3
99375.1
99375.8
99369.9
99370.6
99365.2
99365.8
99360.8
99361.3
99356.5
99356.9
99352.4
99352.8
99348.6
99348.9
99345
99345.4
99341.8
99342.2
99338.8
99339
99335.8
99336
99333
99333.1
99330.4
99330.6
99328.3
99328.7
99326.7
99327.2
99325.5
99326
99324.5
99325.2
99324.1
99325.2
99324.8
99326.5
99327.1
99329.5
99331.1
99334.5
99337.2
99341.5
99345.5
99351.2
99356.9
99364.1
99371.9
99381.3
99391.4
99403.1
99415.8
99429.8
99444.7
99460.8
99477.5
99495.3
99513.5
99532.8
99552
99572.4
99592.2
99613.4
99633.3
99654.8
99674.3
99695.7
99714.5
99735.1
99753
99772.6
99789.5
99808
99824.5
99842.2
99858.8
99876.2
99893.3
99910.9
99928.7
99946.7
99964.9
99393.6
99386.2
99387
99380.3
99381.2
99374.7
99375.4
99369.2
99369.9
99364
99364.7
99359.3
99359.9
99354.9
99355.4
99350.6
99351
99346.5
99346.8
99342.6
99343
99339.1
99339.5
99335.9
99336.2
99332.9
99333.1
99329.9
99330.1
99327.1
99327.2
99324.5
99324.7
99322.4
99322.8
99320.8
99321.3
99319.6
99320.1
99318.6
99319.3
99318.2
99319.3
99318.9
99320.6
99321.2
99323.6
99325.2
99328.6
99331.3
99335.6
99339.6
99345.2
99350.9
99358.2
99366
99375.4
99385.5
99397.2
99409.8
99423.9
99438.8
99454.8
99471.6
99489.4
99507.6
99526.9
99546.1
99566.5
99586.2
99607.5
99627.3
99648.9
99668.4
99689.8
99708.6
99729.2
99747
99766.6
99783.6
99802.1
99818.6
99836.3
99852.8
99870.3
99887.3
99904.9
99922.7
99940.8
99958.9
99405.2
99398.3
99399.2
99392.5
99393.4
99386.8
99387.6
99381.3
99382
99376.2
99376.8
99371.4
99372.1
99367
99367.5
99362.8
99363.2
99358.6
99359
99354.8
99355.2
99351.3
99351.6
99348.1
99348.4
99345
99345.3
99342.1
99342.2
99339.2
99339.4
99336.6
99336.9
99334.5
99334.9
99332.9
99333.5
99331.7
99332.2
99330.8
99331.4
99330.4
99331.4
99331.1
99332.8
99333.3
99335.8
99337.4
99340.7
99343.4
99347.8
99351.8
99357.4
99363.1
99370.4
99378.2
99387.5
99397.7
99409.4
99422
99436
99450.9
99467
99483.8
99501.6
99519.8
99539.1
99558.2
99578.7
99598.4
99619.7
99639.5
99661.1
99680.6
99702
99720.8
99741.4
99759.2
99778.8
99795.8
99814.3
99830.8
99848.5
99865.1
99882.5
99899.6
99917.2
99934.9
99952.9
99971.1
99387.3
99379.7
99380.5
99373.8
99374.7
99368.2
99368.9
99362.7
99363.4
99357.5
99358.2
99352.8
99353.4
99348.4
99348.9
99344.1
99344.5
99340
99340.3
99336.2
99336.5
99332.6
99333
99329.4
99329.7
99326.4
99326.6
99323.4
99323.6
99320.6
99320.7
99318
99318.2
99315.9
99316.3
99314.3
99314.8
99313.1
99313.6
99312.1
99312.8
99311.7
99312.8
99312.4
99314.1
99314.7
99317.1
99318.7
99322
99324.8
99329.1
99333.1
99338.7
99344.4
99351.7
99359.5
99368.8
99379
99390.7
99403.3
99417.3
99432.2
99448.3
99465.1
99482.9
99501.1
99520.4
99539.5
99560
99579.7
99600.9
99620.8
99642.3
99661.9
99683.2
99702
99722.7
99740.5
99760.1
99777
99795.5
99812
99829.7
99846.3
99863.7
99880.8
99898.4
99916.2
99934.2
99952.4
99411.5
99404.7
99405.7
99399
99399.9
99393.4
99394.1
99387.9
99388.6
99382.7
99383.4
99378
99378.6
99373.6
99374.1
99369.3
99369.7
99365.2
99365.5
99361.3
99361.7
99357.8
99358.2
99354.6
99354.9
99351.6
99351.8
99348.6
99348.8
99345.8
99345.9
99343.2
99343.4
99341.1
99341.5
99339.5
99340
99338.2
99338.8
99337.3
99338
99336.9
99338
99337.6
99339.3
99339.8
99342.3
99343.9
99347.2
99349.9
99354.3
99358.3
99363.9
99369.6
99376.9
99384.7
99394
99404.2
99415.9
99428.5
99442.6
99457.5
99473.5
99490.3
99508.1
99526.3
99545.6
99564.8
99585.2
99605
99626.2
99646.1
99667.6
99687.1
99708.5
99727.3
99748
99765.8
99785.4
99802.3
99820.8
99837.3
99855
99871.6
99889
99906.1
99923.7
99941.5
99959.5
99977.7
99379.2
99372.1
99373
99366.3
99367.2
99360.6
99361.4
99355.1
99355.8
99350
99350.6
99345.2
99345.9
99340.8
99341.3
99336.5
99336.9
99332.4
99332.8
99328.6
99328.9
99325.1
99325.4
99321.9
99322.2
99318.8
99319.1
99315.9
99316
99313
99313.1
99310.4
99310.7
99308.3
99308.7
99306.7
99307.2
99305.5
99306
99304.5
99305.2
99304.2
99305.2
99304.9
99306.5
99307.1
99309.6
99311.1
99314.5
99317.2
99321.5
99325.6
99331.2
99336.9
99344.2
99351.9
99361.3
99371.4
99383.1
99395.8
99409.8
99424.7
99440.7
99457.5
99475.3
99493.5
99512.8
99531.9
99552.4
99572.1
99593.3
99613.2
99634.8
99654.3
99675.6
99694.4
99715.1
99732.9
99752.5
99769.4
99787.9
99804.4
99822.1
99838.7
99856.1
99873.2
99890.8
99908.5
99926.6
99944.8
99386.2
99381.2
99380.6
99375.9
99375.8
99371
99371.2
99366.3
99366.7
99361.9
99362.5
99357.9
99358.5
99354.1
99354.6
99350.3
99350.8
99346.6
99347
99343.1
99343.6
99339.9
99340.3
99336.9
99337.3
99334.1
99334.4
99331.3
99331.5
99328.6
99328.7
99326.1
99326.4
99324.1
99324.5
99322.5
99323.1
99321.4
99321.9
99320.4
99321.1
99320.1
99321.2
99320.8
99322.5
99323.1
99325.6
99327.2
99330.5
99333.3
99337.6
99341.7
99347.3
99353
99360.3
99368.1
99377.5
99387.7
99399.4
99412
99426.1
99441
99457.1
99473.9
99491.8
99510
99529.3
99548.5
99569
99588.7
99610
99629.8
99651.4
99671
99692.3
99711.1
99731.8
99749.6
99769.2
99786.2
99804.6
99821.1
99838.8
99855.4
99872.8
99889.9
99907.5
99925.3
99943.5
99961.8
99386.2
99381.2
99380.6
99375.9
99375.9
99371
99371.2
99366.3
99366.7
99362
99362.5
99357.9
99358.5
99354.1
99354.6
99350.3
99350.8
99346.6
99347.1
99343.1
99343.6
99339.9
99340.4
99336.9
99337.3
99334.1
99334.4
99331.3
99331.5
99328.6
99328.8
99326.1
99326.4
99324.1
99324.5
99322.6
99323.1
99321.4
99321.9
99320.5
99321.2
99320.1
99321.2
99320.9
99322.6
99323.1
99325.6
99327.2
99330.6
99333.3
99337.6