/*--------------------------------*- C++ -*----------------------------------*\
  =========                 |
  \\      /  F ield         | OpenFOAM: The Open Source CFD Toolbox
   \\    /   O peration     | Website:  https://openfoam.org
    \\  /    A nd           | Version:  7
     \\/     M anipulation  |
\*---------------------------------------------------------------------------*/
FoamFile
{
    version     2.0;
    format      ascii;
    class       volScalarField;
    location    "0.1075";
    object      alphat;
}
// * * * * * * * * * * * * * * * * * * * * * * * * * * * * * * * * * * * * * //

dimensions      [1 -1 -1 0 0 0 0];

internalField   nonuniform List<scalar> 
4950
(
0.0110858
0.0118079
0.011841
0.0118583
0.0118607
0.0118677
0.0118661
0.0118702
0.0118676
0.0118703
0.0118677
0.0118698
0.0118674
0.0118692
0.0118672
0.0118688
0.011868
0.011869
0.0118715
0.0119052
0.00583574
0.00613736
0.00604622
0.00587374
0.00579621
0.00578355
0.00577825
0.00577881
0.00577657
0.00577731
0.00577517
0.00577579
0.00577374
0.00577429
0.00577234
0.00577289
0.00577097
0.00577215
0.00580074
0.00587651
0.00460671
0.0050282
0.00508295
0.00507824
0.00506603
0.00506203
0.00505764
0.00505689
0.0050544
0.00505447
0.00505236
0.0050525
0.00505048
0.0050506
0.00504864
0.00504885
0.00504684
0.00504765
0.00504825
0.00506327
0.00449315
0.00492349
0.00500664
0.00502723
0.00502715
0.00502751
0.00502393
0.00502375
0.00502148
0.00502174
0.00501961
0.00501986
0.00501774
0.00501796
0.00501591
0.00501601
0.00501469
0.00501362
0.00501519
0.00502058
0.0044791
0.00491546
0.00500113
0.00502358
0.0050241
0.0050243
0.00502028
0.00501961
0.00501712
0.00501716
0.00501503
0.00501513
0.00501311
0.00501317
0.00501125
0.00501123
0.00500978
0.00500898
0.00501017
0.00501613
0.00449315
0.00492349
0.00500664
0.00502723
0.00502715
0.00502751
0.00502393
0.00502375
0.00502148
0.00502174
0.00501961
0.00501985
0.00501774
0.00501796
0.00501591
0.005016
0.00501471
0.00501358
0.00501529
0.00502041
0.00460671
0.0050282
0.00508295
0.00507824
0.00506603
0.00506203
0.00505764
0.00505689
0.0050544
0.00505447
0.00505236
0.0050525
0.00505048
0.00505059
0.00504865
0.00504882
0.00504692
0.00504751
0.00504857
0.00506244
0.00583574
0.00613736
0.00604622
0.00587374
0.00579621
0.00578355
0.00577825
0.00577881
0.00577657
0.00577731
0.00577517
0.00577579
0.00577374
0.00577428
0.00577235
0.00577284
0.00577111
0.0057717
0.00580166
0.00587362
0.0110858
0.0118079
0.011841
0.0118583
0.0118607
0.0118677
0.0118661
0.0118702
0.0118676
0.0118703
0.0118677
0.0118698
0.0118674
0.0118692
0.0118672
0.0118688
0.0118679
0.0118692
0.0118714
0.0119042
0.00432094
0.00517546
0.0052868
0.00528015
0.00528075
0.00527438
0.00527772
0.00527419
0.00527682
0.00527401
0.00527578
0.00527353
0.00527472
0.00527278
0.00527374
0.00527157
0.00527195
0.00527062
0.00525845
0.00529397
0.00369793
0.00463123
0.00478765
0.00480391
0.00479818
0.00479507
0.0047922
0.00479219
0.00479133
0.00479181
0.00479138
0.00479179
0.00479154
0.00479184
0.00479157
0.0047922
0.00479147
0.00479412
0.00479362
0.00480518
0.00360472
0.0045206
0.0046847
0.00471651
0.00471778
0.00471914
0.00471673
0.00471757
0.00471645
0.00471743
0.00471678
0.0047176
0.00471713
0.00471778
0.00471744
0.00471814
0.0047179
0.00471833
0.00471734
0.00472678
0.00360854
0.00452445
0.00468828
0.00472126
0.00472342
0.00472483
0.00472245
0.00472321
0.00472221
0.00472309
0.00472255
0.00472322
0.0047229
0.00472335
0.0047232
0.00472374
0.00472382
0.00472399
0.00472411
0.00473292
0.00360022
0.00451363
0.00467831
0.00471186
0.00471423
0.0047158
0.00471332
0.00471418
0.00471304
0.00471405
0.00471339
0.00471422
0.00471373
0.00471439
0.00471404
0.00471478
0.00471478
0.00471521
0.00471434
0.00472238
0.00360854
0.00452445
0.00468828
0.00472126
0.00472342
0.00472483
0.00472245
0.00472321
0.00472221
0.00472309
0.00472255
0.00472322
0.00472289
0.00472334
0.00472318
0.00472372
0.00472383
0.00472401
0.00472416
0.00473283
0.00360472
0.0045206
0.0046847
0.00471651
0.00471778
0.00471914
0.00471673
0.00471757
0.00471645
0.00471743
0.00471678
0.0047176
0.00471713
0.00471778
0.00471746
0.00471818
0.00471811
0.00471839
0.00471747
0.00472637
0.00369793
0.00463123
0.00478765
0.00480391
0.00479817
0.00479507
0.0047922
0.00479219
0.00479133
0.00479181
0.00479138
0.00479179
0.00479154
0.00479184
0.00479159
0.00479215
0.0047916
0.00479376
0.00479403
0.00480352
0.00432094
0.00517546
0.0052868
0.00528015
0.00528075
0.00527438
0.00527772
0.00527419
0.00527682
0.00527401
0.00527578
0.00527353
0.00527472
0.00527278
0.00527376
0.00527151
0.00527217
0.00527
0.00526009
0.00529013
0.00108824
0.00165157
0.00175562
0.00177789
0.00177536
0.0017784
0.00177798
0.00178176
0.00178241
0.00178591
0.00178678
0.00178996
0.00179092
0.00179389
0.0017948
0.00179781
0.00179737
0.00180241
0.00179195
0.00181631
0.000535451
0.000957026
0.00105243
0.00106718
0.00106292
0.00106097
0.00105839
0.00105839
0.00105742
0.0010575
0.00105693
0.00105693
0.00105655
0.00105655
0.00105645
0.00105646
0.00105599
0.00105843
0.00105715
0.00106916
0.000494103
0.00089677
0.000992454
0.00102024
0.00101957
0.00102113
0.00101851
0.00101927
0.00101751
0.00101803
0.00101678
0.00101703
0.00101615
0.00101622
0.00101565
0.00101565
0.00101524
0.00101523
0.00101389
0.00101736
0.000499827
0.000911078
0.00101079
0.0010388
0.00103923
0.00104054
0.0010383
0.00103861
0.00103725
0.00103739
0.00103656
0.00103653
0.00103587
0.0010358
0.00103559
0.0010354
0.00103525
0.00103462
0.001035
0.00103831
0.000492911
0.000896201
0.000991736
0.00101988
0.00101926
0.00102084
0.00101816
0.00101893
0.00101713
0.00101765
0.00101638
0.00101664
0.00101574
0.00101582
0.00101521
0.00101521
0.00101472
0.00101473
0.00101324
0.00101641
0.000499827
0.000911078
0.00101079
0.0010388
0.00103923
0.00104054
0.0010383
0.00103861
0.00103725
0.00103739
0.00103657
0.00103653
0.00103587
0.00103579
0.00103558
0.00103539
0.00103525
0.00103461
0.00103499
0.0010383
0.000494103
0.00089677
0.000992454
0.00102024
0.00101957
0.00102113
0.00101851
0.00101927
0.00101751
0.00101803
0.00101678
0.00101703
0.00101615
0.00101623
0.00101566
0.00101565
0.00101525
0.00101523
0.00101389
0.00101731
0.000535451
0.000957026
0.00105243
0.00106718
0.00106292
0.00106097
0.00105839
0.00105839
0.00105742
0.0010575
0.00105693
0.00105693
0.00105655
0.00105655
0.00105645
0.00105644
0.00105601
0.0010583
0.00105721
0.00106867
0.00108824
0.00165157
0.00175562
0.00177789
0.00177536
0.0017784
0.00177798
0.00178176
0.00178241
0.00178591
0.00178678
0.00178996
0.00179092
0.00179389
0.00179484
0.00179771
0.00179765
0.00180185
0.00179312
0.00181432
0.00432094
0.00517546
0.0052868
0.00528015
0.00528075
0.00527438
0.00527772
0.00527419
0.00527682
0.00527401
0.00527578
0.00527353
0.00527472
0.00527278
0.00527374
0.00527157
0.00527195
0.00527062
0.00525845
0.00529397
0.00369793
0.00463123
0.00478765
0.00480391
0.00479817
0.00479507
0.0047922
0.00479219
0.00479133
0.00479181
0.00479138
0.00479179
0.00479154
0.00479184
0.00479157
0.0047922
0.00479147
0.00479412
0.00479362
0.00480518
0.00360472
0.0045206
0.0046847
0.00471651
0.00471778
0.00471914
0.00471673
0.00471757
0.00471645
0.00471743
0.00471678
0.0047176
0.00471713
0.00471778
0.00471744
0.00471814
0.0047179
0.00471833
0.00471734
0.00472678
0.00360854
0.00452445
0.00468828
0.00472126
0.00472342
0.00472483
0.00472245
0.00472321
0.00472221
0.00472309
0.00472255
0.00472322
0.0047229
0.00472335
0.00472319
0.00472373
0.00472381
0.00472398
0.0047241
0.00473292
0.00360022
0.00451363
0.00467831
0.00471186
0.00471423
0.0047158
0.00471332
0.00471418
0.00471304
0.00471405
0.00471339
0.00471422
0.00471373
0.00471439
0.00471404
0.00471478
0.00471479
0.00471522
0.00471434
0.00472238
0.00360854
0.00452445
0.00468828
0.00472126
0.00472342
0.00472483
0.00472245
0.00472321
0.00472221
0.00472309
0.00472255
0.00472322
0.00472289
0.00472334
0.00472318
0.00472372
0.00472383
0.00472401
0.00472416
0.00473283
0.00360472
0.0045206
0.0046847
0.00471651
0.00471778
0.00471914
0.00471673
0.00471757
0.00471645
0.00471743
0.00471678
0.0047176
0.00471713
0.00471778
0.00471745
0.00471817
0.00471813
0.0047184
0.00471747
0.00472637
0.00369793
0.00463123
0.00478765
0.00480391
0.00479818
0.00479507
0.0047922
0.00479219
0.00479133
0.00479181
0.00479138
0.00479179
0.00479154
0.00479184
0.00479159
0.00479215
0.0047916
0.00479376
0.00479403
0.00480352
0.00432094
0.00517546
0.0052868
0.00528015
0.00528075
0.00527438
0.00527772
0.00527419
0.00527682
0.00527401
0.00527578
0.00527353
0.00527472
0.00527278
0.00527376
0.00527151
0.00527217
0.00527
0.00526009
0.00529013
0.0110858
0.0118079
0.011841
0.0118583
0.0118607
0.0118677
0.0118661
0.0118702
0.0118676
0.0118703
0.0118677
0.0118698
0.0118674
0.0118692
0.0118672
0.0118688
0.011868
0.011869
0.0118715
0.0119052
0.00583574
0.00613736
0.00604622
0.00587374
0.00579621
0.00578355
0.00577825
0.00577881
0.00577657
0.00577731
0.00577517
0.00577579
0.00577374
0.00577429
0.00577234
0.00577289
0.00577097
0.00577215
0.00580074
0.00587651
0.00460671
0.0050282
0.00508295
0.00507824
0.00506603
0.00506203
0.00505764
0.00505689
0.0050544
0.00505447
0.00505236
0.0050525
0.00505048
0.00505059
0.00504864
0.00504885
0.00504684
0.00504765
0.00504825
0.00506327
0.00449315
0.00492349
0.00500664
0.00502723
0.00502715
0.00502751
0.00502393
0.00502375
0.00502148
0.00502174
0.00501961
0.00501985
0.00501774
0.00501796
0.00501591
0.00501601
0.00501469
0.00501362
0.00501519
0.00502058
0.0044791
0.00491546
0.00500113
0.00502358
0.0050241
0.0050243
0.00502028
0.00501961
0.00501712
0.00501716
0.00501503
0.00501513
0.00501311
0.00501317
0.00501125
0.00501123
0.00500978
0.00500898
0.00501017
0.00501613
0.00449315
0.00492349
0.00500664
0.00502723
0.00502715
0.00502751
0.00502393
0.00502375
0.00502148
0.00502174
0.00501961
0.00501985
0.00501774
0.00501796
0.00501591
0.005016
0.00501471
0.00501358
0.00501529
0.00502041
0.00460671
0.0050282
0.00508295
0.00507824
0.00506603
0.00506203
0.00505764
0.00505689
0.0050544
0.00505447
0.00505236
0.0050525
0.00505048
0.00505059
0.00504865
0.00504882
0.00504692
0.00504751
0.00504857
0.00506244
0.00583574
0.00613736
0.00604622
0.00587374
0.00579621
0.00578355
0.00577825
0.00577881
0.00577657
0.00577731
0.00577517
0.00577579
0.00577374
0.00577428
0.00577235
0.00577284
0.00577111
0.0057717
0.00580166
0.00587362
0.0110858
0.0118079
0.011841
0.0118583
0.0118607
0.0118677
0.0118661
0.0118702
0.0118676
0.0118703
0.0118677
0.0118698
0.0118674
0.0118692
0.0118672
0.0118688
0.0118679
0.0118692
0.0118714
0.0119042
0.0345228
0.0346977
0.0346943
0.0346946
0.0346885
0.0346888
0.0346841
0.0346835
0.0346784
0.034678
0.0346741
0.0346725
0.0346668
0.0346652
0.0346618
0.0346598
0.0346533
0.0346505
0.0346477
0.0346471
0.0346415
0.0346377
0.0346347
0.0346356
0.0346322
0.034628
0.0346233
0.0346243
0.0346238
0.0346213
0.0346144
0.0346123
0.0346131
0.0346147
0.0346092
0.0346031
0.0346001
0.0346035
0.034604
0.0345996
0.034591
0.0345886
0.0345915
0.0345949
0.0345897
0.0345811
0.0345753
0.0345786
0.0345833
0.0345822
0.0345719
0.0345625
0.0345608
0.0345665
0.0345688
0.0345604
0.0345444
0.0345298
0.0345257
0.0345223
0.0345148
0.0344858
0.0344532
0.0344126
0.0343911
0.0343649
0.0343433
0.0343038
0.0342605
0.0342341
0.034216
0.0342498
0.0342619
0.0343138
0.0343158
0.0343454
0.0343538
0.0343745
0.0344051
0.0344122
0.0344192
0.0344012
0.0343645
0.0343653
0.0343444
0.0343911
0.0344121
0.0344366
0.0344516
0.034405
0.0201171
0.0206514
0.0206467
0.0206545
0.02064
0.0206465
0.0206336
0.0206389
0.0206266
0.0206316
0.0206208
0.0206248
0.0206135
0.0206173
0.0206079
0.0206111
0.0206005
0.0206029
0.0205949
0.0205984
0.020589
0.0205905
0.020583
0.0205869
0.0205794
0.0205801
0.0205721
0.0205756
0.0205703
0.0205714
0.0205626
0.0205637
0.0205596
0.0205626
0.0205549
0.0205532
0.0205471
0.0205506
0.0205467
0.0205455
0.0205364
0.0205361
0.0205337
0.0205365
0.0205296
0.0205251
0.0205179
0.0205201
0.020519
0.0205183
0.0205086
0.0205029
0.0204982
0.0205009
0.0204984
0.0204928
0.0204798
0.0204703
0.0204644
0.0204613
0.0204536
0.0204359
0.0204145
0.0203904
0.0203765
0.0203614
0.0203491
0.020328
0.0203062
0.0202949
0.0202911
0.0203169
0.0203351
0.020376
0.0203923
0.0204233
0.0204434
0.0204708
0.0205026
0.020523
0.0205391
0.0205451
0.0205364
0.0205534
0.0205519
0.0205946
0.0206158
0.020646
0.0206601
0.0206573
0.0165563
0.0173326
0.017339
0.0173512
0.0173272
0.0173362
0.0173145
0.0173221
0.0173015
0.0173084
0.0172895
0.0172952
0.0172763
0.0172814
0.0172645
0.0172687
0.017251
0.0172543
0.0172392
0.0172429
0.0172269
0.0172286
0.0172146
0.0172179
0.017204
0.0172043
0.0171902
0.0171926
0.0171809
0.0171808
0.0171663
0.0171662
0.0171558
0.0171567
0.0171433
0.0171401
0.0171285
0.0171294
0.0171194
0.0171159
0.0171018
0.0170991
0.0170907
0.0170901
0.0170778
0.0170711
0.017059
0.0170578
0.0170505
0.0170464
0.0170319
0.0170238
0.0170139
0.0170126
0.0170042
0.0169955
0.0169788
0.0169673
0.0169571
0.0169509
0.0169393
0.016921
0.0168993
0.016877
0.0168632
0.0168494
0.0168383
0.0168205
0.0168034
0.0167959
0.0167954
0.0168203
0.0168372
0.016874
0.0168875
0.0169163
0.0169328
0.0169582
0.0169846
0.0170029
0.0170169
0.0170229
0.017017
0.0170339
0.017035
0.017075
0.0170933
0.0171213
0.0171355
0.0171419
0.0159733
0.0168708
0.0168977
0.0169135
0.0168856
0.0168948
0.0168699
0.0168776
0.0168539
0.0168608
0.0168388
0.0168442
0.0168224
0.0168271
0.0168073
0.0168109
0.0167904
0.0167931
0.0167752
0.0167781
0.0167594
0.0167602
0.0167435
0.0167458
0.0167292
0.0167284
0.0167118
0.016713
0.0166987
0.0166973
0.0166804
0.016679
0.0166661
0.0166656
0.0166497
0.0166453
0.0166311
0.0166306
0.0166181
0.0166132
0.0165968
0.0165928
0.016582
0.0165799
0.0165653
0.0165573
0.016543
0.0165404
0.0165309
0.0165253
0.0165088
0.0164994
0.0164876
0.0164848
0.0164745
0.0164644
0.0164461
0.0164336
0.0164218
0.0164143
0.0164014
0.0163824
0.0163599
0.0163374
0.0163232
0.016309
0.0162978
0.0162801
0.0162634
0.0162562
0.0162561
0.0162807
0.0162972
0.0163333
0.0163462
0.0163744
0.01639
0.0164149
0.0164401
0.0164578
0.0164709
0.0164766
0.0164707
0.0164874
0.0164884
0.0165278
0.0165452
0.0165725
0.0165867
0.0166079
0.0159308
0.0168093
0.0168375
0.0168539
0.0168252
0.0168344
0.0168087
0.0168164
0.0167918
0.0167986
0.0167758
0.0167811
0.0167585
0.016763
0.0167424
0.0167459
0.0167247
0.0167271
0.0167085
0.0167111
0.0166917
0.0166922
0.0166748
0.0166769
0.0166595
0.0166585
0.0166412
0.016642
0.0166271
0.0166254
0.0166079
0.0166061
0.0165925
0.0165916
0.0165751
0.0165703
0.0165556
0.0165547
0.0165416
0.0165363
0.0165194
0.016515
0.0165036
0.0165012
0.016486
0.0164777
0.0164629
0.01646
0.0164499
0.016444
0.0164271
0.0164174
0.0164051
0.0164019
0.0163912
0.0163808
0.0163621
0.0163494
0.0163372
0.0163295
0.0163163
0.0162971
0.0162745
0.0162518
0.0162375
0.0162233
0.016212
0.0161943
0.0161777
0.0161706
0.0161705
0.0161951
0.0162115
0.0162475
0.0162603
0.0162885
0.0163039
0.0163288
0.0163537
0.0163714
0.0163844
0.0163901
0.0163842
0.0164009
0.016402
0.0164412
0.0164586
0.016486
0.0165008
0.0165155
0.0159731
0.0168726
0.0169004
0.0169165
0.0168884
0.0168977
0.0168727
0.0168805
0.0168567
0.0168636
0.0168416
0.016847
0.0168252
0.0168299
0.01681
0.0168136
0.0167931
0.0167958
0.0167779
0.0167808
0.016762
0.0167628
0.0167461
0.0167484
0.0167317
0.016731
0.0167144
0.0167155
0.0167012
0.0166998
0.0166829
0.0166814
0.0166685
0.016668
0.0166521
0.0166476
0.0166335
0.0166329
0.0166204
0.0166155
0.016599
0.016595
0.0165842
0.0165821
0.0165674
0.0165594
0.0165451
0.0165425
0.0165329
0.0165273
0.0165108
0.0165014
0.0164895
0.0164867
0.0164764
0.0164663
0.0164479
0.0164354
0.0164236
0.0164161
0.0164032
0.0163841
0.0163616
0.016339
0.0163248
0.0163106
0.0162994
0.0162817
0.016265
0.0162578
0.0162576
0.0162822
0.0162987
0.0163348
0.0163476
0.0163758
0.0163914
0.0164163
0.0164414
0.0164591
0.0164722
0.0164779
0.016472
0.0164887
0.0164897
0.016529
0.0165464
0.0165737
0.0165879
0.0166087
0.0165539
0.017336
0.0173439
0.0173563
0.0173322
0.0173413
0.0173195
0.0173271
0.0173064
0.0173134
0.0172944
0.0173001
0.0172812
0.0172863
0.0172693
0.0172735
0.0172558
0.0172591
0.0172439
0.0172477
0.0172316
0.0172333
0.0172192
0.0172226
0.0172085
0.0172089
0.0171948
0.0171971
0.0171854
0.0171853
0.0171708
0.0171706
0.0171602
0.017161
0.0171477
0.0171445
0.0171327
0.0171336
0.0171236
0.0171201
0.0171059
0.0171032
0.0170948
0.0170942
0.0170818
0.0170751
0.0170629
0.0170617
0.0170544
0.0170502
0.0170357
0.0170275
0.0170175
0.0170162
0.0170078
0.0169991
0.0169823
0.0169708
0.0169605
0.0169542
0.0169426
0.0169243
0.0169025
0.0168801
0.0168663
0.0168524
0.0168413
0.0168235
0.0168063
0.0167987
0.0167982
0.0168231
0.0168399
0.0168767
0.0168901
0.0169188
0.0169352
0.0169606
0.0169868
0.017005
0.017019
0.0170249
0.0170189
0.0170357
0.0170366
0.0170765
0.0170947
0.0171227
0.0171368
0.0171434
0.020113
0.0206586
0.0206553
0.0206629
0.0206483
0.0206548
0.0206418
0.0206472
0.0206347
0.0206398
0.0206289
0.020633
0.0206216
0.0206255
0.020616
0.0206193
0.0206085
0.0206111
0.020603
0.0206066
0.0205971
0.0205986
0.0205911
0.0205951
0.0205875
0.0205883
0.0205803
0.0205837
0.0205784
0.0205796
0.0205707
0.0205719
0.0205678
0.0205708
0.0205631
0.0205614
0.0205553
0.0205589
0.020555
0.0205537
0.0205447
0.0205444
0.020542
0.0205448
0.0205379
0.0205335
0.0205263
0.0205285
0.0205274
0.0205267
0.020517
0.0205113
0.0205066
0.0205093
0.0205069
0.0205012
0.0204883
0.0204788
0.0204729
0.0204698
0.0204621
0.0204445
0.0204231
0.020399
0.0203851
0.02037
0.0203577
0.0203366
0.0203149
0.0203036
0.0202999
0.0203255
0.0203437
0.0203844
0.0204006
0.0204313
0.0204513
0.0204783
0.0205099
0.02053
0.020546
0.0205517
0.0205428
0.0205595
0.0205578
0.0206003
0.0206213
0.0206514
0.020665
0.0206628
0.0345828
0.0347691
0.0347663
0.0347667
0.0347605
0.0347611
0.0347562
0.0347558
0.0347506
0.0347503
0.0347463
0.0347448
0.034739
0.0347376
0.034734
0.0347321
0.0347255
0.0347227
0.0347199
0.0347194
0.0347137
0.0347099
0.034707
0.034708
0.0347044
0.0347003
0.0346956
0.0346967
0.0346962
0.0346937
0.0346868
0.0346848
0.0346857
0.0346873
0.0346817
0.0346757
0.0346727
0.0346762
0.0346767
0.0346723
0.0346638
0.0346615
0.0346644
0.0346679
0.0346628
0.0346541
0.0346484
0.0346519
0.0346566
0.0346555
0.0346452
0.0346359
0.0346343
0.0346402
0.0346425
0.034634
0.034618
0.0346033
0.0345993
0.0345958
0.034588
0.0345586
0.0345255
0.0344842
0.0344622
0.0344348
0.034412
0.0343708
0.0343257
0.0342974
0.0342775
0.0343097
0.0343198
0.0343704
0.0343707
0.0343997
0.0344073
0.0344281
0.0344585
0.0344656
0.0344723
0.0344537
0.0344165
0.0344171
0.0343959
0.0344431
0.0344641
0.034489
0.0345039
0.0344572
0.0167589
0.0170675
0.0170694
0.0170758
0.0170705
0.0170753
0.0170694
0.0170738
0.017067
0.0170715
0.017065
0.0170688
0.0170613
0.017065
0.0170587
0.0170621
0.0170543
0.0170572
0.0170516
0.0170554
0.0170485
0.0170506
0.0170454
0.0170498
0.0170443
0.017046
0.0170402
0.0170444
0.017041
0.0170431
0.0170365
0.0170388
0.0170365
0.0170404
0.0170348
0.0170347
0.0170308
0.0170355
0.0170333
0.0170336
0.017027
0.0170284
0.017028
0.017032
0.0170272
0.017025
0.0170203
0.0170243
0.0170249
0.017026
0.0170189
0.0170159
0.0170137
0.0170184
0.017018
0.0170149
0.0170054
0.0169997
0.0169974
0.0169977
0.0169942
0.0169818
0.0169675
0.0169516
0.0169472
0.0169417
0.0169413
0.0169328
0.0169272
0.0169323
0.0169466
0.0169893
0.0170207
0.0170754
0.0170992
0.0171433
0.017168
0.0172062
0.0172399
0.0172674
0.0172868
0.0172992
0.0172964
0.0173218
0.0173264
0.0173776
0.0173977
0.0174333
0.017448
0.0174463
0.0156592
0.0162844
0.0163018
0.016304
0.0162991
0.0163009
0.0162964
0.0162975
0.0162923
0.0162933
0.0162885
0.0162888
0.0162829
0.0162829
0.016278
0.0162777
0.0162712
0.01627
0.0162653
0.0162651
0.0162591
0.016257
0.0162521
0.0162522
0.0162472
0.0162446
0.0162389
0.0162385
0.0162351
0.016233
0.0162263
0.016224
0.0162211
0.0162207
0.016215
0.0162105
0.0162056
0.0162055
0.0162028
0.0161991
0.0161917
0.0161884
0.0161865
0.0161863
0.016181
0.0161747
0.0161685
0.0161675
0.0161668
0.0161642
0.0161563
0.0161489
0.0161445
0.0161443
0.0161425
0.0161358
0.0161246
0.0161137
0.0161071
0.0161013
0.0160931
0.0160747
0.0160522
0.0160252
0.0160043
0.0159817
0.0159582
0.015927
0.0158894
0.0158584
0.0158289
0.0158225
0.0158124
0.0158181
0.0158121
0.0158105
0.015811
0.0158088
0.0158213
0.0158191
0.015821
0.0158102
0.0157903
0.0157847
0.0157715
0.0157847
0.0157977
0.0158076
0.0158231
0.015808
0.0148943
0.0156282
0.0156711
0.0156739
0.0156709
0.0156711
0.0156688
0.0156682
0.0156654
0.0156647
0.0156623
0.0156609
0.0156574
0.0156559
0.0156533
0.0156516
0.0156474
0.0156449
0.0156423
0.0156409
0.015637
0.0156339
0.015631
0.01563
0.015627
0.0156236
0.0156198
0.0156186
0.015617
0.0156142
0.0156095
0.0156066
0.0156054
0.0156045
0.0156006
0.0155959
0.0155928
0.0155924
0.0155914
0.0155876
0.015582
0.0155787
0.0155785
0.0155783
0.0155747
0.0155688
0.0155643
0.0155636
0.0155644
0.0155623
0.0155562
0.0155496
0.0155468
0.0155473
0.0155471
0.0155414
0.0155321
0.0155224
0.0155176
0.0155129
0.0155065
0.0154896
0.0154694
0.0154442
0.0154252
0.0154041
0.0153823
0.0153527
0.0153167
0.0152868
0.015258
0.0152512
0.0152403
0.0152446
0.0152371
0.0152335
0.0152319
0.0152272
0.0152371
0.0152323
0.0152318
0.0152184
0.0151968
0.0151882
0.0151729
0.0151823
0.0151927
0.0151987
0.015211
0.0151919
0.0148396
0.0155428
0.0155863
0.0155889
0.0155863
0.015586
0.0155841
0.0155832
0.015581
0.01558
0.0155783
0.0155767
0.0155739
0.0155723
0.0155704
0.0155685
0.0155651
0.0155626
0.0155608
0.0155594
0.0155563
0.0155532
0.0155511
0.0155502
0.015548
0.0155447
0.0155416
0.0155406
0.0155397
0.0155371
0.0155331
0.0155305
0.01553
0.0155294
0.0155261
0.0155217
0.0155192
0.0155192
0.0155188
0.0155153
0.0155104
0.0155075
0.0155078
0.015508
0.015505
0.0154994
0.0154955
0.0154952
0.0154966
0.0154948
0.0154893
0.0154831
0.0154809
0.0154817
0.015482
0.0154767
0.0154679
0.0154587
0.0154544
0.0154501
0.0154441
0.0154277
0.015408
0.0153833
0.0153649
0.0153442
0.0153229
0.0152937
0.0152582
0.0152287
0.0152003
0.0151939
0.0151832
0.0151877
0.0151804
0.015177
0.0151755
0.015171
0.0151808
0.0151761
0.0151756
0.0151622
0.0151406
0.0151319
0.0151166
0.0151258
0.0151361
0.0151419
0.0151535
0.0151379
0.0147338
0.015478
0.0155263
0.0155294
0.0155269
0.0155267
0.0155249
0.0155241
0.0155219
0.015521
0.0155193
0.0155178
0.015515
0.0155134
0.0155116
0.0155097
0.0155064
0.0155039
0.0155022
0.0155008
0.0154978
0.0154947
0.0154927
0.0154918
0.0154897
0.0154864
0.0154835
0.0154824
0.0154816
0.0154792
0.0154752
0.0154726
0.0154722
0.0154716
0.0154684
0.0154641
0.0154617
0.0154616
0.0154613
0.0154579
0.0154531
0.0154502
0.0154505
0.0154508
0.0154478
0.0154423
0.0154384
0.0154382
0.0154396
0.0154379
0.0154324
0.0154262
0.015424
0.0154249
0.0154252
0.01542
0.0154113
0.015402
0.0153978
0.0153936
0.0153877
0.0153713
0.0153517
0.0153271
0.0153087
0.0152881
0.0152669
0.0152378
0.0152025
0.0151731
0.0151448
0.0151384
0.0151278
0.0151323
0.015125
0.0151217
0.0151201
0.0151156
0.0151255
0.0151208
0.0151203
0.0151069
0.0150854
0.0150767
0.0150615
0.0150706
0.0150808
0.0150866
0.0150988
0.0150806
0.0148389
0.0155426
0.0155865
0.0155891
0.0155865
0.0155862
0.0155843
0.0155834
0.0155812
0.0155802
0.0155785
0.0155769
0.0155741
0.0155725
0.0155706
0.0155688
0.0155654
0.0155629
0.0155611
0.0155597
0.0155566
0.0155535
0.0155514
0.0155505
0.0155483
0.015545
0.015542
0.0155409
0.01554
0.0155375
0.0155335
0.0155309
0.0155304
0.0155298
0.0155265
0.0155221
0.0155197
0.0155196
0.0155192
0.0155158
0.0155109
0.0155079
0.0155083
0.0155085
0.0155055
0.0154999
0.015496
0.0154957
0.0154971
0.0154953
0.0154898
0.0154836
0.0154814
0.0154822
0.0154825
0.0154772
0.0154685
0.0154592
0.0154549
0.0154506
0.0154447
0.0154282
0.0154085
0.0153838
0.0153654
0.0153447
0.0153234
0.0152942
0.0152587
0.0152292
0.0152008
0.0151944
0.0151837
0.0151883
0.0151809
0.0151775
0.015176
0.0151715
0.0151813
0.0151766
0.0151761
0.0151627
0.0151411
0.0151324
0.0151171
0.0151263
0.0151366
0.0151424
0.0151539
0.0151381
0.0148914
0.0156275
0.015671
0.0156738
0.0156708
0.015671
0.0156686
0.0156681
0.0156652
0.0156645
0.0156621
0.0156608
0.0156573
0.0156558
0.0156533
0.0156515
0.0156474
0.015645
0.0156424
0.015641
0.0156371
0.015634
0.0156312
0.0156302
0.0156273
0.0156239
0.0156201
0.0156189
0.0156173
0.0156147
0.0156099
0.0156071
0.015606
0.0156051
0.0156012
0.0155965
0.0155934
0.0155931
0.0155921
0.0155884
0.0155828
0.0155796
0.0155793
0.0155792
0.0155756
0.0155697
0.0155652
0.0155646
0.0155654
0.0155633
0.0155572
0.0155506
0.0155479
0.0155484
0.0155482
0.0155425
0.0155332
0.0155235
0.0155187
0.0155141
0.0155077
0.0154908
0.0154706
0.0154454
0.0154265
0.0154054
0.0153836
0.015354
0.015318
0.0152881
0.0152593
0.0152526
0.0152417
0.015246
0.0152384
0.0152349
0.0152332
0.0152286
0.0152384
0.0152336
0.0152331
0.0152197
0.0151981
0.0151894
0.0151741
0.0151835
0.0151939
0.0151999
0.0152123
0.0151932
0.0156553
0.016288
0.0163066
0.0163086
0.0163036
0.0163054
0.0163007
0.0163019
0.0162966
0.0162976
0.0162927
0.0162931
0.0162871
0.0162872
0.0162823
0.016282
0.0162755
0.0162744
0.0162697
0.0162696
0.0162635
0.0162615
0.0162566
0.0162568
0.0162519
0.0162493
0.0162436
0.0162432
0.0162399
0.0162378
0.0162312
0.016229
0.0162261
0.0162257
0.0162201
0.0162157
0.0162108
0.0162108
0.0162082
0.0162045
0.0161972
0.0161939
0.0161921
0.0161919
0.0161867
0.0161804
0.0161743
0.0161734
0.0161727
0.0161702
0.0161623
0.016155
0.0161506
0.0161505
0.0161487
0.0161421
0.0161309
0.0161201
0.0161135
0.0161078
0.0160996
0.0160812
0.0160588
0.0160319
0.016011
0.0159884
0.015965
0.0159338
0.0158963
0.0158654
0.015836
0.0158296
0.0158195
0.0158253
0.0158192
0.0158176
0.0158182
0.0158159
0.0158284
0.0158262
0.015828
0.0158171
0.0157972
0.0157916
0.0157783
0.0157915
0.0158044
0.0158143
0.0158298
0.0158147
0.0167871
0.0171144
0.0171182
0.0171241
0.0171186
0.0171232
0.017117
0.0171213
0.0171143
0.0171187
0.0171121
0.0171158
0.0171081
0.0171119
0.0171054
0.0171088
0.0171009
0.0171039
0.0170981
0.0171021
0.017095
0.0170972
0.0170919
0.0170964
0.0170909
0.0170926
0.0170868
0.0170911
0.0170876
0.0170898
0.0170831
0.0170856
0.0170833
0.0170872
0.0170816
0.0170816
0.0170776
0.0170824
0.0170802
0.0170806
0.0170739
0.0170755
0.017075
0.0170791
0.0170744
0.0170722
0.0170675
0.0170716
0.0170722
0.0170734
0.0170663
0.0170633
0.0170612
0.0170659
0.0170656
0.0170625
0.017053
0.0170473
0.017045
0.0170453
0.0170418
0.0170292
0.0170148
0.0169987
0.0169941
0.0169883
0.0169876
0.0169785
0.0169724
0.016977
0.0169907
0.0170328
0.0170637
0.017118
0.0171413
0.0171853
0.0172097
0.0172479
0.0172815
0.017309
0.0173284
0.0173406
0.0173377
0.0173631
0.0173676
0.017419
0.0174392
0.0174751
0.0174899
0.0174892
0.0071708
0.00756272
0.00756891
0.00758896
0.00757948
0.00759749
0.00758395
0.00760164
0.00758516
0.00760237
0.0075842
0.00760009
0.00758039
0.00759534
0.0075756
0.00758912
0.00756859
0.00758106
0.0075617
0.00757336
0.00755353
0.00756362
0.00754518
0.0075552
0.00753683
0.00754467
0.00752695
0.00753521
0.00751868
0.00752479
0.00750749
0.00751336
0.00749845
0.00750372
0.00748741
0.00749044
0.00747582
0.0074802
0.0074661
0.0074674
0.00745201
0.00745381
0.00744148
0.0074431
0.00742865
0.00742723
0.00741393
0.00741493
0.00740344
0.0074016
0.00738671
0.00738335
0.00737158
0.00737078
0.00735888
0.00735343
0.00733843
0.00733294
0.0073228
0.00731976
0.00730961
0.00730151
0.0072909
0.00728569
0.00728652
0.00729032
0.00729955
0.00730766
0.00732481
0.00735068
0.00738769
0.00744027
0.00748564
0.00754622
0.00758327
0.00764146
0.00767672
0.0077315
0.00776913
0.00781353
0.0078437
0.00787932
0.0079024
0.0079512
0.00797784
0.00804309
0.00806696
0.00811748
0.00813491
0.00816094
0.00576239
0.00636014
0.00638658
0.00638855
0.00638249
0.00638377
0.00637731
0.00637831
0.00637114
0.00637199
0.00636473
0.00636516
0.00635742
0.00635755
0.00635023
0.00635001
0.00634219
0.00634145
0.00633433
0.00633375
0.0063262
0.00632469
0.00631768
0.00631679
0.00630989
0.00630782
0.00630074
0.00629931
0.00629323
0.00629103
0.00628386
0.00628142
0.00627578
0.00627392
0.00626736
0.00626387
0.00625774
0.00625578
0.00625059
0.00624718
0.0062404
0.00623701
0.00623242
0.00623015
0.00622448
0.0062199
0.00621404
0.00621141
0.00620771
0.00620443
0.00619818
0.0061931
0.00618824
0.00618582
0.00618203
0.00617722
0.00617008
0.00616369
0.00615836
0.00615391
0.00614808
0.00613902
0.00612809
0.00611592
0.00610567
0.00609519
0.00608415
0.00607063
0.00605459
0.00604127
0.00602842
0.00602427
0.00601879
0.00601929
0.00601566
0.00601367
0.00601275
0.00601078
0.00601454
0.00601301
0.0060132
0.00600877
0.00600134
0.0059993
0.00599456
0.00599971
0.006005
0.00600937
0.00601545
0.00601269
0.00514516
0.00577386
0.00582579
0.0058284
0.00582691
0.00582662
0.00582509
0.00582451
0.00582265
0.005822
0.00582024
0.00581934
0.00581718
0.0058162
0.00581439
0.00581331
0.00581096
0.00580962
0.00580786
0.00580688
0.00580467
0.00580306
0.00580124
0.0058004
0.00579858
0.00579683
0.00579475
0.00579379
0.00579252
0.00579102
0.00578866
0.00578711
0.00578607
0.00578522
0.00578323
0.00578102
0.00577934
0.0057787
0.00577779
0.00577595
0.00577346
0.00577179
0.00577122
0.00577071
0.005769
0.00576641
0.00576441
0.00576375
0.00576367
0.0057625
0.00575997
0.00575722
0.0057559
0.00575571
0.00575532
0.00575295
0.00574935
0.00574556
0.00574358
0.00574162
0.00573907
0.00573278
0.00572531
0.00571606
0.00570904
0.00570125
0.00569321
0.00568237
0.00566923
0.00565826
0.00564761
0.00564485
0.00564058
0.00564169
0.00563859
0.00563683
0.00563584
0.00563369
0.00563679
0.00563459
0.00563404
0.00562874
0.00562062
0.00561702
0.00561123
0.00561399
0.00561745
0.00561911
0.00562324
0.00561603
0.00514543
0.00575363
0.00580935
0.00580867
0.00580854
0.00580562
0.00580516
0.00580226
0.00580136
0.00579889
0.00579797
0.00579572
0.00579421
0.00579229
0.00579109
0.00578939
0.00578764
0.00578592
0.00578477
0.00578359
0.00578201
0.00578034
0.00577916
0.00577836
0.00577718
0.00577557
0.00577413
0.00577336
0.00577272
0.00577147
0.00576973
0.00576846
0.00576801
0.00576747
0.00576606
0.00576419
0.00576307
0.00576277
0.0057624
0.00576092
0.00575896
0.00575765
0.00575757
0.00575741
0.00575618
0.00575395
0.0057524
0.00575208
0.00575242
0.00575161
0.00574949
0.00574708
0.00574615