/*--------------------------------*- C++ -*----------------------------------*\
  =========                 |
  \\      /  F ield         | OpenFOAM: The Open Source CFD Toolbox
   \\    /   O peration     | Website:  https://openfoam.org
    \\  /    A nd           | Version:  7
     \\/     M anipulation  |
\*---------------------------------------------------------------------------*/
FoamFile
{
    version     2.0;
    format      ascii;
    class       volScalarField;
    location    "2.32";
    object      rho;
}
// * * * * * * * * * * * * * * * * * * * * * * * * * * * * * * * * * * * * * //

dimensions      [1 -3 0 0 0 0 0];

internalField   nonuniform List<scalar> 
5760
(
1.22082
1.20399
1.19149
1.18155
1.17281
1.16511
1.15834
1.15221
1.1465
1.14111
1.13602
1.13121
1.12665
1.12229
1.11813
1.11415
1.11032
1.10664
1.10309
1.09967
1.09636
1.09316
1.09005
1.08704
1.08411
1.08126
1.07848
1.07577
1.07313
1.07056
1.06805
1.0656
1.0632
1.06086
1.05857
1.05632
1.05413
1.05198
1.04987
1.0478
1.04577
1.04378
1.04183
1.03991
1.03802
1.03617
1.03435
1.03256
1.0308
1.02907
1.02738
1.02571
1.02408
1.02248
1.02091
1.01937
1.01786
1.01638
1.01494
1.01353
1.01215
1.01081
1.00951
1.00824
1.007
1.0058
1.00464
1.00352
1.00243
1.00139
1.00037
0.9994
0.998464
0.997563
0.996699
0.99587
0.995076
0.994317
0.99359
0.992897
0.992235
0.991604
0.991003
0.990431
0.989887
0.989371
0.988882
0.988418
0.987979
0.987565
0.987173
0.986803
0.986455
0.986127
0.985819
0.98553
0.985258
0.985003
0.984764
0.98454
0.984331
0.984136
0.983954
0.983784
0.983626
0.98348
0.983344
0.983218
0.983102
0.982995
0.982897
0.982808
0.982727
0.982653
0.982586
0.982526
0.982472
0.982424
0.982382
0.982345
0.982313
0.982285
0.982262
0.982242
0.982227
0.982215
0.982206
0.982201
0.982198
0.982199
0.982202
0.982209
0.982217
0.982229
0.982243
0.982259
0.982277
0.982297
0.982319
0.982342
0.982368
0.982394
0.982422
0.982451
0.982481
0.982512
0.982544
0.982576
0.98261
0.982645
0.98268
0.982716
0.982753
0.982791
0.98283
0.982869
0.982909
0.98295
0.982991
0.983033
0.983075
0.983118
0.983161
0.983204
0.983247
0.983291
0.983334
0.983377
0.983421
0.983464
0.983508
0.983551
0.983595
0.983639
0.983683
0.983728
0.983772
0.983817
0.983862
0.983906
0.983951
0.983996
0.984041
0.984086
0.984131
0.984176
0.98422
0.984265
0.984309
0.984352
0.984396
0.98444
0.984483
0.984526
0.98457
0.984613
0.984656
0.984699
0.984742
0.984786
0.984829
0.984872
0.984916
0.984959
0.985003
0.985046
0.98509
0.985133
0.985177
0.985221
0.985265
0.985309
0.985352
0.985396
0.98544
0.985484
0.985528
0.985572
0.985615
0.985659
0.985703
0.985747
0.98579
0.985834
0.985877
0.985921
0.985963
0.986008
0.986049
0.986096
0.986133
0.986183
0.986215
0.986272
0.986293
0.986364
0.986366
0.98646
0.986429
0.986568
1.22667
1.21691
1.20805
1.20009
1.19283
1.18628
1.18034
1.17482
1.1696
1.16464
1.15993
1.15544
1.15114
1.14702
1.14306
1.13924
1.13556
1.13201
1.12857
1.12525
1.12203
1.1189
1.11587
1.11291
1.11004
1.10723
1.1045
1.10182
1.09921
1.09666
1.09417
1.09172
1.08934
1.087
1.08471
1.08246
1.08026
1.07811
1.07599
1.07391
1.07187
1.06987
1.0679
1.06596
1.06406
1.06219
1.06034
1.05853
1.05675
1.055
1.05327
1.05158
1.04991
1.04828
1.04667
1.04509
1.04355
1.04203
1.04055
1.0391
1.03768
1.03629
1.03494
1.03362
1.03234
1.03109
1.02988
1.0287
1.02756
1.02645
1.02538
1.02435
1.02336
1.0224
1.02148
1.02059
1.01974
1.01892
1.01813
1.01738
1.01667
1.01598
1.01532
1.0147
1.0141
1.01353
1.01299
1.01247
1.01198
1.01152
1.01107
1.01066
1.01026
1.00989
1.00953
1.0092
1.00888
1.00859
1.00831
1.00804
1.0078
1.00756
1.00734
1.00714
1.00695
1.00677
1.0066
1.00644
1.00629
1.00615
1.00603
1.00591
1.0058
1.0057
1.0056
1.00551
1.00544
1.00536
1.0053
1.00524
1.00518
1.00513
1.00509
1.00505
1.00501
1.00498
1.00495
1.00493
1.00491
1.00489
1.00487
1.00486
1.00485
1.00485
1.00484
1.00484
1.00484
1.00485
1.00486
1.00486
1.00488
1.00489
1.0049
1.00492
1.00493
1.00495
1.00497
1.00499
1.00501
1.00504
1.00506
1.00508
1.00511
1.00513
1.00516
1.00519
1.00522
1.00524
1.00527
1.00531
1.00534
1.00537
1.0054
1.00543
1.00547
1.0055
1.00554
1.00557
1.0056
1.00564
1.00567
1.00571
1.00574
1.00578
1.00581
1.00584
1.00588
1.00591
1.00595
1.00599
1.00602
1.00606
1.00609
1.00613
1.00617
1.0062
1.00624
1.00627
1.00631
1.00635
1.00638
1.00642
1.00645
1.00649
1.00652
1.00656
1.00659
1.00663
1.00666
1.00669
1.00673
1.00676
1.0068
1.00683
1.00687
1.0069
1.00694
1.00697
1.00701
1.00704
1.00708
1.00711
1.00715
1.00719
1.00722
1.00726
1.00729
1.00733
1.00736
1.0074
1.00744
1.00747
1.00751
1.00754
1.00758
1.00761
1.00765
1.00769
1.00772
1.00776
1.00779
1.00783
1.00786
1.0079
1.00792
1.00798
1.00798
1.00806
1.00803
1.00816
1.22873
1.22426
1.21898
1.21328
1.20763
1.20237
1.19753
1.1929
1.18842
1.18409
1.17993
1.17592
1.17204
1.16829
1.16465
1.16112
1.15769
1.15435
1.15111
1.14797
1.1449
1.14192
1.13902
1.1362
1.13344
1.13074
1.12811
1.12553
1.123
1.12052
1.11809
1.1157
1.11336
1.11107
1.10882
1.10661
1.10444
1.10231
1.10022
1.09817
1.09615
1.09417
1.09222
1.0903
1.08841
1.08654
1.08471
1.0829
1.08112
1.07936
1.07764
1.07593
1.07426
1.07261
1.07099
1.0694
1.06783
1.06629
1.06479
1.06331
1.06186
1.06044
1.05906
1.0577
1.05638
1.05508
1.05382
1.05259
1.0514
1.05024
1.04911
1.04802
1.04696
1.04594
1.04495
1.044
1.04308
1.04219
1.04134
1.04053
1.03974
1.03899
1.03826
1.03757
1.0369
1.03627
1.03566
1.03508
1.03452
1.03399
1.03349
1.033
1.03255
1.03211
1.0317
1.0313
1.03093
1.03058
1.03024
1.02993
1.02963
1.02935
1.02908
1.02883
1.02859
1.02836
1.02815
1.02795
1.02776
1.02758
1.02742
1.02726
1.02711
1.02697
1.02684
1.02672
1.02661
1.0265
1.0264
1.02631
1.02623
1.02615
1.02608
1.02602
1.02596
1.0259
1.02585
1.0258
1.02576
1.02572
1.02569
1.02565
1.02562
1.0256
1.02558
1.02556
1.02554
1.02553
1.02551
1.02551
1.0255
1.0255
1.0255
1.0255
1.0255
1.02551
1.02552
1.02553
1.02554
1.02555
1.02556
1.02557
1.02558
1.0256
1.02561
1.02563
1.02565
1.02567
1.02568
1.02571
1.02573
1.02575
1.02577
1.0258
1.02582
1.02585
1.02588
1.0259
1.02593
1.02596
1.02599
1.02601
1.02604
1.02607
1.02609
1.02612
1.02615
1.02618
1.0262
1.02623
1.02626
1.02629
1.02632
1.02635
1.02637
1.0264
1.02644
1.02647
1.0265
1.02653
1.02656
1.02658
1.02661
1.02664
1.02667
1.0267
1.02673
1.02676
1.02678
1.02681
1.02684
1.02686
1.02689
1.02692
1.02695
1.02697
1.027
1.02703
1.02706
1.02708
1.02711
1.02714
1.02717
1.0272
1.02722
1.02725
1.02728
1.02731
1.02734
1.02737
1.02739
1.02742
1.02745
1.02748
1.02751
1.02754
1.02757
1.0276
1.02762
1.02765
1.02768
1.02771
1.02773
1.02777
1.02778
1.02783
1.02783
1.0279
1.02786
1.02799
1.229
1.22768
1.22537
1.22206
1.2182
1.21436
1.21071
1.20716
1.20363
1.20013
1.19671
1.19337
1.19009
1.18688
1.18372
1.18062
1.17757
1.17458
1.17165
1.16878
1.16597
1.16322
1.16054
1.15792
1.15536
1.15285
1.15039
1.14797
1.1456
1.14326
1.14096
1.13869
1.13646
1.13426
1.1321
1.12997
1.12788
1.12582
1.1238
1.12181
1.11985
1.11793
1.11603
1.11416
1.11232
1.11051
1.10871
1.10695
1.1052
1.10347
1.10177
1.10009
1.09843
1.09679
1.09518
1.09359
1.09203
1.09049
1.08898
1.0875
1.08604
1.08461
1.0832
1.08183
1.08048
1.07915
1.07786
1.07659
1.07536
1.07415
1.07297
1.07182
1.0707
1.06962
1.06856
1.06754
1.06655
1.06559
1.06467
1.06378
1.06292
1.06209
1.06129
1.06052
1.05978
1.05907
1.05838
1.05772
1.05709
1.05648
1.0559
1.05534
1.0548
1.05429
1.05379
1.05333
1.05288
1.05245
1.05205
1.05166
1.0513
1.05095
1.05062
1.0503
1.05001
1.04972
1.04945
1.0492
1.04895
1.04872
1.0485
1.04829
1.04809
1.04791
1.04773
1.04756
1.0474
1.04725
1.04711
1.04698
1.04685
1.04674
1.04663
1.04653
1.04644
1.04635
1.04627
1.04619
1.04612
1.04605
1.04599
1.04593
1.04587
1.04582
1.04577
1.04573
1.04569
1.04565
1.04561
1.04558
1.04556
1.04553
1.04551
1.0455
1.04548
1.04547
1.04547
1.04546
1.04546
1.04545
1.04545
1.04545
1.04545
1.04545
1.04545
1.04546
1.04546
1.04547
1.04547
1.04548
1.04549
1.0455
1.04552
1.04553
1.04555
1.04556
1.04558
1.0456
1.04562
1.04564
1.04566
1.04569
1.04571
1.04573
1.04575
1.04577
1.04579
1.04581
1.04582
1.04584
1.04586
1.04588
1.04591
1.04593
1.04595
1.04597
1.046
1.04602
1.04605
1.04607
1.0461
1.04612
1.04615
1.04617
1.0462
1.04622
1.04624
1.04626
1.04629
1.04631
1.04633
1.04635
1.04637
1.04639
1.04641
1.04643
1.04645
1.04647
1.04649
1.04651
1.04653
1.04655
1.04657
1.04659
1.04661
1.04663
1.04665
1.04668
1.0467
1.04672
1.04674
1.04676
1.04678
1.0468
1.04683
1.04685
1.04687
1.04689
1.04691
1.04694
1.04695
1.04698
1.04699
1.04703
1.04703
1.04708
1.04706
1.04713
1.04709
1.0472
1.22867
1.22862
1.2281
1.22683
1.22477
1.22238
1.21993
1.21744
1.2149
1.21233
1.20976
1.20721
1.20466
1.20212
1.19957
1.19704
1.19451
1.19198
1.18948
1.18699
1.18454
1.18212
1.17974
1.17741
1.17512
1.17287
1.17067
1.16849
1.16635
1.16423
1.16213
1.16006
1.158
1.15597
1.15396
1.15197
1.15
1.14807
1.14616
1.14427
1.14242
1.1406
1.1388
1.13703
1.13528
1.13355
1.13185
1.13016
1.12849
1.12683
1.12519
1.12357
1.12196
1.12037
1.1188
1.11725
1.11572
1.11421
1.11272
1.11125
1.10981
1.10839
1.107
1.10563
1.10428
1.10295
1.10165
1.10037
1.09911
1.09788
1.09667
1.09548
1.09432
1.09318
1.09207
1.09099
1.08994
1.08892
1.08792
1.08696
1.08603
1.08512
1.08425
1.08341
1.08259
1.0818
1.08104
1.0803
1.07958
1.07889
1.07823
1.07758
1.07696
1.07636
1.07578
1.07523
1.0747
1.07418
1.07369
1.07322
1.07278
1.07235
1.07194
1.07155
1.07118
1.07083
1.07049
1.07017
1.06986
1.06956
1.06928
1.06901
1.06875
1.0685
1.06826
1.06803
1.06781
1.0676
1.0674
1.06721
1.06704
1.06687
1.06672
1.06657
1.06643
1.0663
1.06618
1.06607
1.06596
1.06586
1.06576
1.06567
1.06558
1.06549
1.06541
1.06533
1.06525
1.06518
1.06512
1.06505
1.065
1.06495
1.0649
1.06486
1.06482
1.06479
1.06476
1.06473
1.06471
1.06469
1.06467
1.06466
1.06464
1.06463
1.06461
1.0646
1.06459
1.06458
1.06456
1.06456
1.06455
1.06454
1.06454
1.06454
1.06455
1.06455
1.06456
1.06457
1.06458
1.06459
1.06461
1.06462
1.06464
1.06465
1.06466
1.06468
1.06469
1.0647
1.06471
1.06472
1.06473
1.06474
1.06476
1.06477
1.06478
1.0648
1.06481
1.06483
1.06485
1.06487
1.06489
1.06491
1.06494
1.06496
1.06498
1.065
1.06501
1.06503
1.06505
1.06506
1.06508
1.06509
1.0651
1.06512
1.06513
1.06514
1.06515
1.06517
1.06518
1.06519
1.0652
1.06522
1.06523
1.06524
1.06526
1.06527
1.06528
1.0653
1.06531
1.06533
1.06534
1.06535
1.06537
1.06538
1.0654
1.06541
1.06543
1.06544
1.06546
1.06547
1.06548
1.06551
1.06551
1.06554
1.06554
1.06557
1.06556
1.06561
1.06557
1.06567
1.22845
1.2286
1.22863
1.22846
1.22781
1.22676
1.22545
1.22399
1.22239
1.22071
1.21898
1.21722
1.21543
1.21362
1.21177
1.20988
1.20796
1.206
1.20402
1.20201
1.19999
1.19798
1.19598
1.194
1.19205
1.19013
1.18824
1.18638
1.18454
1.18271
1.1809
1.17909
1.17729
1.17549
1.1737
1.17192
1.17014
1.16838
1.16663
1.16491
1.1632
1.16152
1.15986
1.15823
1.15662
1.15503
1.15346
1.1519
1.15035
1.14882
1.14729
1.14578
1.14427
1.14277
1.14127
1.1398
1.13833
1.13688
1.13545
1.13403
1.13264
1.13127
1.12991
1.12858
1.12727
1.12598
1.1247
1.12344
1.1222
1.12098
1.11977
1.11858
1.11741
1.11625
1.11511
1.114
1.11291
1.11184
1.11079
1.10977
1.10878
1.10782
1.10688
1.10597
1.10509
1.10423
1.1034
1.1026
1.10181
1.10105
1.10031
1.09959
1.09889
1.09821
1.09755
1.09691
1.09628
1.09568
1.0951
1.09454
1.094
1.09349
1.09299
1.09252
1.09207
1.09164
1.09123
1.09083
1.09045
1.09009
1.08973
1.08939
1.08906
1.08875
1.08844
1.08814
1.08785
1.08757
1.08731
1.08705
1.08681
1.08658
1.08636
1.08615
1.08596
1.08578
1.08561
1.08545
1.08529
1.08515
1.08501
1.08488
1.08475
1.08463
1.0845
1.08439
1.08427
1.08416
1.08405
1.08395
1.08386
1.08377
1.08368
1.0836
1.08353
1.08347
1.08341
1.08336
1.08332
1.08327
1.08324
1.0832
1.08317
1.08314
1.0831
1.08307
1.08304
1.08301
1.08298
1.08295
1.08292
1.0829
1.08287
1.08285
1.08284
1.08282
1.08282
1.08281
1.08281
1.08281
1.08282
1.08282
1.08283
1.08284
1.08285
1.08286
1.08286
1.08287
1.08287
1.08287
1.08287
1.08287
1.08287
1.08287
1.08287
1.08288
1.08288
1.08289
1.0829
1.08292
1.08293
1.08295
1.08297
1.08298
1.083
1.08302
1.08303
1.08305
1.08306
1.08307
1.08308
1.08309
1.0831
1.0831
1.08311
1.08311
1.08312
1.08312
1.08313
1.08313
1.08313
1.08314
1.08314
1.08315
1.08315
1.08316
1.08317
1.08317
1.08318
1.08319
1.08319
1.0832
1.08321
1.08321
1.08322
1.08323
1.08323
1.08324
1.08325
1.08326
1.08326
1.08328
1.08328
1.0833
1.08329
1.08332
1.0833
1.08335
1.0833
1.08338
1.2284
1.22851
1.22857
1.2286
1.22853
1.22827
1.22784
1.22723
1.22648
1.2256
1.22464
1.22362
1.22255
1.22143
1.22027
1.21904
1.21776
1.2164
1.21499
1.21351
1.21199
1.21044
1.20887
1.2073
1.20573
1.20418
1.20265
1.20114
1.19964
1.19816
1.19669
1.19521
1.19373
1.19224
1.19074
1.18923
1.1877
1.18618
1.18465
1.18313
1.18162
1.18012
1.17864
1.17719
1.17575
1.17434
1.17294
1.17156
1.17019
1.16883
1.16747
1.16611
1.16475
1.16339
1.16203
1.16067
1.15931
1.15797
1.15663
1.1553
1.15398
1.15269
1.15141
1.15015
1.14891
1.14769
1.14648
1.14529
1.14411
1.14295
1.14179
1.14064
1.1395
1.13837
1.13725
1.13613
1.13504
1.13395
1.13289
1.13184
1.13082
1.12981
1.12884
1.12789
1.12696
1.12606
1.12519
1.12434
1.12351
1.1227
1.12191
1.12114
1.12038
1.11964
1.11891
1.11819
1.11749
1.11681
1.11615
1.1155
1.11488
1.11427
1.11369
1.11313
1.1126
1.11209
1.1116
1.11113
1.11068
1.11025
1.10983
1.10942
1.10903
1.10865
1.10827
1.1079
1.10755
1.1072
1.10686
1.10653
1.10621
1.1059
1.10561
1.10534
1.10507
1.10483
1.1046
1.10438
1.10418
1.10399
1.1038
1.10363
1.10346
1.10329
1.10313
1.10297
1.10282
1.10266
1.10251
1.10236
1.10222
1.10208
1.10195
1.10183
1.10171
1.10161
1.10151
1.10143
1.10135
1.10128
1.10122
1.10116
1.10111
1.10106
1.10101
1.10096
1.10091
1.10086
1.10081
1.10076
1.1007
1.10065
1.1006
1.10055
1.10051
1.10047
1.10044
1.10042
1.1004
1.10038
1.10037
1.10037
1.10037
1.10037
1.10038
1.10038
1.10038
1.10038
1.10038
1.10038
1.10037
1.10036
1.10034
1.10033
1.10032
1.1003
1.1003
1.10029
1.10029
1.10029
1.1003
1.10031
1.10032
1.10034
1.10035
1.10037
1.10038
1.1004
1.10041
1.10042
1.10043
1.10043
1.10044
1.10044
1.10043
1.10043
1.10043
1.10042
1.10042
1.10042
1.10041
1.10041
1.1004
1.1004
1.1004
1.1004
1.10039
1.10039
1.10039
1.10039
1.10039
1.10039
1.10038
1.10038
1.10038
1.10038
1.10038
1.10038
1.10038
1.10039
1.10038
1.10039
1.10038
1.10039
1.10038
1.1004
1.10038
1.10041
1.10037
1.10043
1.2284
1.22848
1.22853
1.22855
1.22853
1.22847
1.22834
1.22816
1.22792
1.22762
1.22726
1.22686
1.22641
1.22591
1.22536
1.22474
1.22406
1.22329
1.22244
1.22151
1.2205
1.21943
1.21831
1.21716
1.21599
1.21482
1.21366
1.21252
1.21139
1.21028
1.20917
1.20806
1.20695
1.20581
1.20465
1.20346
1.20225
1.20101
1.19975
1.19848
1.1972
1.19593
1.19466
1.19342
1.19219
1.19098
1.18979
1.18862
1.18746
1.18631
1.18516
1.18401
1.18285
1.18169
1.18051
1.17932
1.17812
1.17692
1.17571
1.17451
1.17331
1.17213
1.17095
1.1698
1.16866
1.16754
1.16644
1.16536
1.16428
1.16322
1.16216
1.16111
1.16005
1.159
1.15795
1.15689
1.15584
1.15479
1.15374
1.15271
1.15168
1.15068
1.14969
1.14873
1.14779
1.14688
1.14599
1.14513
1.14428
1.14346
1.14266
1.14187
1.14109
1.14032
1.13956
1.13881
1.13806
1.13732
1.1366
1.13589
1.13519
1.13451
1.13385
1.13321
1.1326
1.13201
1.13145
1.13092
1.1304
1.12991
1.12944
1.12898
1.12853
1.12809
1.12767
1.12724
1.12682
1.12641
1.126
1.1256
1.12521
1.12483
1.12446
1.1241
1.12377
1.12345
1.12315
1.12287
1.12261
1.12236
1.12213
1.12192
1.12171
1.1215
1.12131
1.12111
1.12092
1.12072
1.12053
1.12033
1.12014
1.11995
1.11976
1.11959
1.11942
1.11926
1.11912
1.11899
1.11887
1.11876
1.11867
1.11859
1.11851
1.11844
1.11838
1.11831
1.11824
1.11818
1.11811
1.11803
1.11796
1.11788
1.1178
1.11772
1.11764
1.11757
1.11751
1.11745
1.11741
1.11737
1.11734
1.11732
1.11731
1.1173
1.1173
1.1173
1.11731
1.11731
1.1173
1.11729
1.11728
1.11726
1.11724
1.11721
1.11718
1.11715
1.11713
1.1171
1.11708
1.11706
1.11706
1.11706
1.11706
1.11707
1.11709
1.1171
1.11712
1.11714
1.11716
1.11717
1.11718
1.11718
1.11718
1.11718
1.11718
1.11717
1.11716
1.11715
1.11713
1.11712
1.11711
1.1171
1.11708
1.11707
1.11706
1.11705
1.11704
1.11703
1.11702
1.11701
1.117
1.11699
1.11698
1.11697
1.11696
1.11696
1.11695
1.11694
1.11693
1.11693
1.11692
1.11691
1.1169
1.11691
1.11689
1.1169
1.11687
1.1169
1.11685
1.1169
1.22841
1.22848
1.22853
1.22854
1.22852
1.22845
1.22836
1.22825
1.22814
1.22803
1.22793
1.22784
1.22776
1.22767
1.22757
1.22744
1.22725
1.22699
1.22665
1.22623
1.22571
1.2251
1.22442
1.22369
1.22292
1.22213
1.22133
1.22055
1.21977
1.21902
1.21827
1.21753
1.21678
1.21601
1.21522
1.21439
1.21352
1.2126
1.21165
1.21067
1.20966
1.20863
1.20761
1.20658
1.20557
1.20458
1.20362
1.20267
1.20175
1.20083
1.19993
1.19902
1.19811
1.19718
1.19623
1.19526
1.19427
1.19326
1.19223
1.19119
1.19014
1.18909
1.18805
1.18702
1.18601
1.18502
1.18405
1.1831
1.18216
1.18124
1.18033
1.17941
1.1785
1.17758
1.17665
1.17571
1.17476
1.1738
1.17282
1.17185
1.17087
1.1699
1.16895
1.16801
1.16709
1.16619
1.16532
1.16448
1.16366
1.16286
1.16209
1.16132
1.16057
1.15983
1.15908
1.15834
1.15759
1.15685
1.1561
1.15536
1.15462
1.15389
1.15317
1.15248
1.15181
1.15116
1.15054
1.14995
1.14938
1.14885
1.14834
1.14784
1.14736
1.1469
1.14644
1.14598
1.14553
1.14507
1.14461
1.14416
1.1437
1.14325
1.14281
1.14238
1.14197
1.14158
1.14121
1.14086
1.14054
1.14024
1.13996
1.1397
1.13945
1.13922
1.13899
1.13877
1.13854
1.13832
1.13809
1.13785
1.13762
1.13738
1.13714
1.13691
1.13668
1.13646
1.13626
1.13607
1.1359
1.13575
1.13562
1.1355
1.1354
1.13531
1.13523
1.13515
1.13507
1.13499
1.13491
1.13482
1.13472
1.13462
1.13451
1.1344
1.13429
1.13419
1.13408
1.13399
1.13391
1.13383
1.13378
1.13373
1.1337
1.13368
1.13367
1.13367
1.13367
1.13367
1.13367
1.13367
1.13366
1.13364
1.13361
1.13358
1.13353
1.13349
1.13344
1.13339
1.13334
1.1333
1.13327
1.13325
1.13325
1.13325
1.13326
1.13327
1.13329
1.13331
1.13334
1.13336
1.13337
1.13338
1.13339
1.13339
1.13338
1.13337
1.13336
1.13334
1.13332
1.1333
1.13328
1.13326
1.13324
1.13322
1.1332
1.13318
1.13316
1.13314
1.13312
1.1331
1.13309
1.13307
1.13305
1.13304
1.13302
1.133
1.13299
1.13297
1.13296
1.13295
1.13293
1.13292
1.1329
1.13289
1.13287
1.13287
1.13284
1.13285
1.13281
1.13285
1.22841
1.22848
1.22853
1.22854
1.22851
1.22845
1.22836
1.22825
1.22814
1.22805
1.22799
1.22796
1.22797
1.22801
1.22808
1.22815
1.22821
1.22825
1.22823
1.22816
1.22801
1.22779
1.2275
1.22714
1.22674
1.22631
1.22586
1.2254
1.22496
1.22453
1.22412
1.22371
1.22331
1.22289
1.22246
1.22198
1.22146
1.22089
1.22026
1.21958
1.21886
1.2181
1.21733
1.21654
1.21576
1.21499
1.21424
1.21352
1.21283
1.21215
1.2115
1.21085
1.2102
1.20954
1.20885
1.20814
1.20739
1.20661
1.2058
1.20496
1.20409
1.20321
1.20233
1.20145
1.20058
1.19973
1.1989
1.1981
1.19732
1.19656
1.19582
1.19509
1.19436
1.19362
1.19287
1.1921
1.19131
1.19049
1.18965
1.18879
1.18791
1.18703
1.18614
1.18526
1.1844
1.18355
1.18274
1.18195
1.18119
1.18046
1.17975
1.17906
1.17839
1.17772
1.17705
1.17637
1.17569
1.17499
1.17428
1.17355
1.17282
1.17209
1.17136
1.17064
1.16993
1.16925
1.16859
1.16797
1.16738
1.16682
1.1663
1.16579
1.16531
1.16485
1.16439
1.16393
1.16348
1.16301
1.16254
1.16206
1.16157
1.16108
1.16059
1.1601
1.15963
1.15917
1.15873
1.15832
1.15793
1.15758
1.15725
1.15695
1.15668
1.15642
1.15617
1.15594
1.1557
1.15546
1.15521
1.15495
1.15469
1.15441
1.15413
1.15385
1.15357
1.15329
1.15303
1.15278
1.15255
1.15235
1.15217
1.15201
1.15188
1.15176
1.15166
1.15157
1.15148
1.1514
1.15131
1.15121
1.15111
1.15099
1.15086
1.15072
1.15058
1.15044
1.15029
1.15015
1.15003
1.14991
1.14982
1.14974
1.14968
1.14963
1.14961
1.14959
1.14959
1.1496
1.1496
1.14961
1.14961
1.1496
1.14957
1.14954
1.14949
1.14943
1.14936
1.14929
1.14921
1.14915
1.14909
1.14904
1.14901
1.149
1.149
1.14901
1.14903
1.14905
1.14908
1.14911
1.14914
1.14916
1.14917
1.14918
1.14918
1.14917
1.14915
1.14914
1.14911
1.14909
1.14906
1.14903
1.149
1.14897
1.14895
1.14892
1.14889
1.14887
1.14884
1.14881
1.14879
1.14877
1.14874
1.14872
1.14869
1.14867
1.14865
1.14863
1.1486
1.14858
1.14856
1.14854
1.14852
1.1485
1.14848
1.14847
1.14844
1.14843
1.14839
1.14841
1.22841
1.22848
1.22853
1.22854
1.22851
1.22845
1.22835
1.22824
1.22814
1.22805
1.22799
1.22796
1.22798
1.22804
1.22812
1.22823
1.22833
1.22843
1.2285
1.22853
1.22852
1.22846
1.22836
1.22821
1.22804
1.22785
1.22765
1.22746
1.22728
1.22713
1.227
1.22688
1.22678
1.22668
1.22656
1.22641
1.22621
1.22596
1.22565
1.22528
1.22485
1.22437
1.22385
1.22331
1.22275
1.2222
1.22167
1.22117
1.22069
1.22025
1.21983
1.21943
1.21904
1.21865
1.21824
1.2178
1.21733
1.21681
1.21624
1.21563
1.21498
1.2143
1.2136
1.21289
1.21218
1.21149
1.21082
1.21018
1.20957
1.20899
1.20844
1.20791
1.20739
1.20687
1.20633
1.20578
1.2052
1.20458
1.20392
1.20323
1.20251
1.20176
1.20099
1.20023
1.19946
1.19871
1.19799
1.19729
1.19663
1.196
1.1954
1.19483
1.19428
1.19374
1.1932
1.19265
1.19209
1.1915
1.19089
1.19025
1.18959
1.18891
1.18821
1.18752
1.18683
1.18616
1.18551
1.18489
1.18431
1.18376
1.18325
1.18278
1.18233
1.1819
1.18148
1.18107
1.18066
1.18023
1.17979
1.17933
1.17885
1.17835
1.17785
1.17734
1.17683
1.17633
1.17584
1.17538
1.17496
1.17456
1.1742
1.17388
1.17358
1.17332
1.17307
1.17283
1.1726
1.17236
1.17212
1.17186
1.17159
1.1713
1.171
1.17068
1.17036
1.17003
1.16972
1.16942
1.16913
1.16888
1.16865
1.16845
1.16828
1.16813
1.16802
1.16791
1.16782
1.16774
1.16765
1.16756
1.16745
1.16733
1.16719
1.16704
1.16687
1.16669
1.16651
1.16633
1.16616
1.166
1.16586
1.16574
1.16565
1.16557
1.16553
1.1655
1.16549
1.16549
1.1655
1.16552
1.16553
1.16553
1.16552
1.16549
1.16544
1.16537
1.16529
1.1652
1.1651
1.16501
1.16492
1.16484
1.16479
1.16475
1.16473
1.16473
1.16474
1.16477
1.16481
1.16485
1.16488
1.16492
1.16494
1.16496
1.16497
1.16496
1.16495
1.16493
1.16491
1.16488
1.16485
1.16481
1.16478
1.16474
1.16471
1.16467
1.16464
1.16461
1.16458
1.16454
1.16451
1.16448
1.16445
1.16442
1.16439
1.16436
1.16433
1.1643
1.16427
1.16425
1.16422
1.16419
1.16416
1.16414
1.16411
1.16409
1.16406
1.16405
1.16401
1.16401
1.2284
1.22848
1.22853
1.22854
1.22851
1.22845
1.22835
1.22824
1.22814
1.22805
1.22799
1.22796
1.22798
1.22804
1.22812
1.22823
1.22834
1.22844
1.22852
1.22856
1.22856
1.22852
1.22845
1.22834
1.22822
1.22809
1.22797
1.22787
1.2278
1.22776
1.22777
1.2278
1.22787
1.22795
1.22803
1.2281
1.22814
1.22814
1.22808
1.22797
1.2278
1.22757
1.2273
1.227
1.22668
1.22635
1.22604
1.22575
1.22549
1.22527
1.22508
1.22492
1.22477
1.22464
1.22449
1.22433
1.22412
1.22387
1.22356
1.2232
1.22278
1.22232
1.22182
1.22131
1.22078
1.22027
1.21977
1.21931
1.21889
1.2185
1.21815
1.21783
1.21753
1.21724
1.21695
1.21663
1.21629
1.2159
1.21547
1.21499
1.21446
1.2139
1.21331
1.2127
1.21208
1.21148
1.21089
1.21034
1.20982
1.20934
1.2089
1.20849
1.20811
1.20774
1.20737
1.207
1.20661
1.20618
1.20573
1.20524
1.20471
1.20415
1.20356
1.20296
1.20235
1.20176
1.20117
1.20062
1.2001
1.19962
1.19918
1.19878
1.19841
1.19807
1.19774
1.19742
1.19709
1.19675
1.19638
1.19599
1.19557
1.19513
1.19466
1.19417
1.19368
1.19319
1.19271
1.19225
1.19181
1.19142
1.19106
1.19074
1.19046
1.1902
1.18998
1.18977
1.18956
1.18936
1.18914
1.18891
1.18865
1.18837
1.18807
1.18775
1.18742
1.18707
1.18673
1.1864
1.18608
1.18579
1.18553
1.18531
1.18511
1.18495
1.18482
1.18472
1.18463
1.18455
1.18447
1.18438
1.18428
1.18416
1.18403
1.18387
1.18369
1.18349
1.18328
1.18308
1.18287
1.18268
1.1825
1.18235
1.18222
1.18212
1.18205
1.18201
1.18199
1.18199
1.182
1.18202
1.18204
1.18205
1.18205
1.18203
1.18199
1.18192
1.18183
1.18173
1.18161
1.18149
1.18138
1.18128
1.1812
1.18114
1.1811
1.18109
1.1811
1.18113
1.18117
1.18121
1.18126
1.1813
1.18134
1.18136
1.18138
1.18138
1.18138
1.18136
1.18134
1.18131
1.18127
1.18123
1.18119
1.18115
1.18111
1.18107
1.18103
1.181
1.18096
1.18092
1.18089
1.18085
1.18082
1.18078
1.18075
1.18071
1.18068
1.18064
1.18061
1.18058
1.18054
1.18051
1.18048
1.18045
1.18042
1.18039
1.18036
1.18034
1.1803
1.18029
1.2284
1.22848
1.22853
1.22854
1.22851
1.22845
1.22835
1.22824
1.22814
1.22805
1.22799
1.22796
1.22798
1.22804
1.22812
1.22823
1.22834
1.22844
1.22852
1.22856
1.22856
1.22852
1.22845
1.22834
1.22822
1.2281
1.22798
1.22789
1.22783
1.22781
1.22784
1.2279
1.228
1.22812
1.22825
1.22837
1.22848
1.22855
1.22857
1.22855
1.22848
1.22837
1.22822
1.22804
1.22786
1.22767
1.22751
1.22737
1.22728
1.22722
1.2272
1.22722
1.22725
1.2273
1.22734
1.22736
1.22734
1.22727
1.22715
1.22698
1.22675
1.22648
1.22617
1.22584
1.22551
1.22518
1.22488
1.2246
1.22437
1.22418
1.22402
1.22389
1.22379
1.22369
1.22358
1.22346
1.2233
1.2231
1.22286
1.22256
1.22223
1.22185
1.22144
1.22101
1.22058
1.22016
1.21975
1.21938
1.21904
1.21874
1.21848
1.21824
1.21803
1.21784
1.21764
1.21743
1.2172
1.21694
1.21665
1.21631
1.21593
1.21552
1.21508
1.21462
1.21415
1.21369
1.21324
1.21282
1.21243
1.21208
1.21176
1.21148
1.21123
1.211
1.21079
1.21057
1.21034
1.2101
1.20983
1.20953
1.2092
1.20884
1.20845
1.20804
1.20762
1.20719
1.20678
1.20639
1.20602
1.20568
1.20538
1.20512
1.20489
1.20469
1.20452
1.20435
1.20419
1.20403
1.20385
1.20365
1.20342
1.20318
1.2029
1.20261
1.20229
1.20197
1.20165
1.20133
1.20104
1.20076
1.20052
1.20031
1.20013
1.19998
1.19986
1.19977
1.19969
1.19962
1.19955
1.19947
1.19937
1.19926
1.19912
1.19896
1.19878
1.19858
1.19837
1.19816
1.19795
1.19776
1.19758
1.19742
1.1973
1.1972
1.19712
1.19708
1.19706
1.19706
1.19707
1.19709
1.19711
1.19712
1.19711
1.19709
1.19704
1.19697
1.19688
1.19677
1.19665
1.19653
1.19642
1.19631
1.19623
1.19617
1.19613
1.19612
1.19613
1.19616
1.1962
1.19625
1.19629
1.19634
1.19637
1.1964
1.19642
1.19642
1.19641
1.19639
1.19637
1.19634
1.1963
1.19626
1.19622
1.19618
1.19614
1.19609
1.19605
1.19601
1.19598
1.19594
1.1959
1.19586
1.19583
1.19579
1.19575
1.19572
1.19568
1.19565
1.19561
1.19558
1.19554
1.19551
1.19548
1.19544
1.19541
1.19538
1.19535
1.19532
1.19529
1.19527
1.22841
1.22848
1.22853
1.22854
1.22851
1.22845
1.22835
1.22824
1.22814
1.22805
1.22799
1.22796
1.22798
1.22804
1.22812
1.22823
1.22834
1.22844
1.22851
1.22856
1.22856
1.22852
1.22845
1.22835
1.22822
1.2281
1.22798
1.22789
1.22783
1.22782
1.22785
1.22792
1.22802
1.22815
1.22828
1.2284
1.2285
1.22856
1.22858
1.22855
1.22848
1.22837
1.22824
1.2281
1.22796
1.22784
1.22774
1.22768
1.22766
1.22768
1.22774
1.22782
1.22792
1.22802
1.2281
1.22816
1.22819
1.22817
1.22811
1.228
1.22786
1.22769
1.22749
1.22729
1.22709
1.22691
1.22676
1.22663
1.22654
1.22648
1.22645
1.22643
1.22643
1.22643
1.22641
1.22637
1.2263
1.22619
1.22604
1.22585
1.22562
1.22537
1.2251
1.22482
1.22454
1.22427
1.22403
1.22381
1.22362
1.22347
1.22334
1.22323
1.22313
1.22304
1.22294
1.22283
1.22269
1.22252
1.22232
1.22208
1.22181
1.22151
1.22119
1.22086
1.22053
1.2202
1.2199
1.21961
1.21936
1.21913
1.21893
1.21876
1.21861
1.21847
1.21833
1.21819
1.21803
1.21785
1.21764
1.2174
1.21714
1.21685
1.21654
1.21622
1.21589
1.21556
1.21524
1.21494
1.21467
1.21442
1.21421
1.21402
1.21386
1.21372
1.21359
1.21346
1.21333
1.2132
1.21304
1.21287
1.21267
1.21245
1.2122
1.21195
1.21168
1.2114
1.21113
1.21087
1.21063
1.21041
1.21022
1.21005
1.20992
1.2098
1.20971
1.20963
1.20957
1.2095
1.20943
1.20934
1.20925
1.20913
1.20899
1.20884
1.20866
1.20848
1.20829
1.20811
1.20793
1.20776
1.20762
1.20749
1.20739
1.20731
1.20726
1.20723
1.20722
1.20722
1.20722
1.20723
1.20724
1.20724
1.20722
1.20718
1.20712
1.20704
1.20695
1.20685
1.20674
1.20664
1.20654
1.20646
1.2064
1.20636
1.20634
1.20634
1.20636
1.20639
1.20643
1.20647
1.2065
1.20654
1.20656
1.20658
1.20658
1.20658
1.20656
1.20654
1.20651
1.20648
1.20644
1.2064
1.20636
1.20632
1.20628
1.20624
1.20621
1.20617
1.20613
1.20609
1.20606
1.20602
1.20599
1.20595
1.20592
1.20588
1.20585
1.20582
1.20578
1.20575
1.20572
1.20569
1.20566
1.20563
1.2056
1.20557
1.20554
1.20551
1.20549
1.20546
1.22841
1.22848
1.22853
1.22854
1.22851
1.22845
1.22836
1.22825
1.22814
1.22805
1.22799
1.22796
1.22798
1.22804
1.22812
1.22822
1.22833
1.22843
1.22851
1.22855
1.22855
1.22851
1.22843
1.22832
1.2282
1.22807
1.22797
1.22789
1.22785
1.22785
1.2279
1.22798
1.22809
1.22821
1.22832
1.22842
1.22848
1.22851
1.2285
1.22845
1.22837
1.22826
1.22814
1.22803
1.22793
1.22785
1.22781
1.2278
1.22782
1.22788
1.22795
1.22804
1.22814
1.22822
1.22829
1.22833
1.22834
1.22831
1.22825
1.22817
1.22806
1.22794
1.22781
1.22769
1.22758
1.22749
1.22743
1.22739
1.22738
1.22738
1.22741
1.22744
1.22746
1.22748
1.22749
1.22746
1.22741
1.22733
1.22722
1.22709
1.22693
1.22676
1.22658
1.22641
1.22624
1.22608
1.22595
1.22584
1.22575
1.22568
1.22563
1.22558
1.22554
1.22549
1.22544
1.22536
1.22526
1.22513
1.22498
1.2248
1.22459
1.22438
1.22415
1.22392
1.22369
1.22348
1.22328
1.22311
1.22295
1.22282
1.2227
1.2226
1.2225
1.22241
1.22231
1.2222
1.22208
1.22193
1.22176
1.22157
1.22135
1.22112
1.22088
1.22063
1.22039
1.22015
1.21992
1.21971
1.21952
1.21935
1.21921
1.21908
1.21897
1.21886
1.21876
1.21866
1.21855
1.21842
1.21828
1.21812
1.21794
1.21775
1.21754
1.21732
1.2171
1.21689
1.21668
1.21648
1.2163
1.21614
1.216
1.21588
1.21578
1.2157
1.21563
1.21556
1.2155
1.21543
1.21535
1.21526
1.21516
1.21504
1.21491
1.21477
1.21462
1.21446
1.21431
1.21416
1.21402
1.21389
1.21379
1.2137
1.21363
1.21358
1.21355
1.21353
1.21352
1.21352
1.21352
1.21351
1.2135
1.21348
1.21345
1.2134
1.21333
1.21326
1.21318
1.21309
1.21301
1.21293
1.21286
1.21281
1.21278
1.21276
1.21276
1.21277
1.21279
1.21281
1.21284
1.21287
1.21289
1.21291
1.21292
1.21292
1.21291
1.2129
1.21288
1.21285
1.21282
1.21279
1.21276
1.21272
1.21268
1.21265
1.21261
1.21258
1.21254
1.21251
1.21247
1.21244
1.21241
1.21238
1.21234
1.21231
1.21228
1.21225
1.21222
1.21219
1.21216
1.21213
1.2121
1.21207
1.21205
1.21202
1.21199
1.21197
1.21194
1.21192
1.21189
1.21187
1.22841
1.22848
1.22853
1.22854
1.22852
1.22845
1.22836
1.22825
1.22814
1.22805
1.22799
1.22796
1.22798
1.22804
1.22812
1.22823
1.22834
1.22844
1.22851
1.22853
1.22852
1.22846
1.22837
1.22825
1.22814
1.22803
1.22795
1.2279
1.22789
1.22792
1.22799
1.22807
1.22817
1.22827
1.22835
1.22841
1.22843
1.22843
1.22839
1.22832
1.22824
1.22815
1.22806
1.22798
1.22792
1.22789
1.22788
1.22791
1.22795
1.22801
1.22809
1.22816
1.22822
1.22827
1.2283
1.22831
1.22829
1.22826
1.2282
1.22812
1.22804
1.22796
1.22789
1.22783
1.22778
1.22775
1.22774
1.22774
1.22776
1.22779
1.22783
1.22786
1.22788
1.22789
1.22789
1.22786
1.22782
1.22775
1.22766
1.22757
1.22746
1.22735
1.22724
1.22714
1.22704
1.22697
1.2269
1.22686
1.22682
1.2268
1.22678
1.22676
1.22673
1.2267