/*--------------------------------*- C++ -*----------------------------------*\
  =========                 |
  \\      /  F ield         | OpenFOAM: The Open Source CFD Toolbox
   \\    /   O peration     | Website:  https://openfoam.org
    \\  /    A nd           | Version:  7
     \\/     M anipulation  |
\*---------------------------------------------------------------------------*/
FoamFile
{
    version     2.0;
    format      ascii;
    class       volScalarField;
    location    "2.95";
    object      nut;
}
// * * * * * * * * * * * * * * * * * * * * * * * * * * * * * * * * * * * * * //

dimensions      [0 2 -1 0 0 0 0];

internalField   nonuniform List<scalar> 
2640
(
0.000717856
0.00172142
0.00237241
0.00266246
0.00270563
0.00266939
0.00257739
0.0024638
0.00235975
0.00227012
0.00219538
0.00213374
0.00208271
0.00203994
0.00200351
0.00197185
0.00194384
0.00191869
0.0018958
0.00187476
0.00185524
0.00183706
0.00182006
0.0018041
0.00178908
0.00177493
0.00176155
0.00174891
0.00173693
0.00172555
0.00171479
0.00170444
0.00169478
0.00168514
0.00167664
0.00166712
0.00166021
0.00164998
0.00164286
0.00164949
8.2678e-05
0.000384874
0.000732467
0.0011267
0.00136583
0.00150854
0.00158728
0.00162324
0.00163844
0.00163998
0.00163839
0.00163454
0.0016293
0.00162394
0.0016186
0.00161339
0.00160828
0.00160325
0.00159828
0.00159334
0.00158842
0.00158354
0.00157862
0.00157378
0.00156886
0.00156397
0.001559
0.00155419
0.00154925
0.00154463
0.00153966
0.00153538
0.00153026
0.00152653
0.00152101
0.00151805
0.00151206
0.0015094
0.00150132
0.00150184
1.06695e-05
4.96955e-05
0.000127173
0.000241234
0.000383095
0.000509557
0.000609415
0.000682722
0.000736141
0.000774389
0.000802458
0.000823923
0.000840962
0.000855332
0.000867965
0.000879707
0.000890807
0.00090171
0.000912297
0.000922917
0.000933232
0.000943654
0.000953637
0.000963774
0.000973288
0.000983177
0.00099213
0.00100163
0.0010098
0.00101884
0.00102608
0.00103468
0.00104092
0.00104909
0.00105438
0.00106203
0.00106668
0.00107333
0.0010781
0.00108299
9.42381e-06
1.06908e-05
1.90386e-05
3.85699e-05
6.8743e-05
0.000107863
0.000151427
0.000190907
0.000225272
0.000254194
0.000278579
0.000299069
0.000316728
0.000331926
0.000345547
0.000357636
0.000368944
0.000379242
0.000389242
0.000398497
0.000407766
0.000416405
0.000425289
0.000433559
0.000442276
0.000450318
0.000459023
0.000466908
0.000475703
0.00048344
0.000492406
0.000499957
0.000509176
0.000516458
0.000526035
0.000532916
0.000542974
0.00054931
0.000560062
0.000566239
9.41037e-06
9.5161e-06
9.8875e-06
1.104e-05
1.38653e-05
1.89577e-05
2.78754e-05
3.50471e-05
4.69363e-05
5.32252e-05
6.42119e-05
6.9493e-05
7.9033e-05
8.36483e-05
9.2052e-05
9.62281e-05
0.000103885
0.000107768
0.000114923
0.000118591
0.00012538
0.000128872
0.00013538
0.000138724
0.000145013
0.000148233
0.000154358
0.000157484
0.000163491
0.000166552
0.000172487
0.000175517
0.000181422
0.000184454
0.000190375
0.000193435
0.000199421
0.000202556
0.000208773
0.000212197
9.40542e-06
9.48754e-06
9.74538e-06
1.01061e-05
1.0857e-05
1.13017e-05
1.21996e-05
1.26924e-05
1.37313e-05
1.42884e-05
1.54388e-05
1.60377e-05
1.72521e-05
1.78851e-05
1.91573e-05
1.98298e-05
2.11765e-05
2.18938e-05
2.33257e-05
2.40873e-05
2.56036e-05
2.64053e-05
2.79982e-05
2.8835e-05
3.04952e-05
3.13628e-05
3.30828e-05
3.39787e-05
3.57541e-05
3.6678e-05
3.8508e-05
3.94622e-05
4.13514e-05
4.23407e-05
4.42988e-05
4.53305e-05
4.73763e-05
4.84684e-05
5.0675e-05
5.18902e-05
9.40542e-06
9.48754e-06
9.74538e-06
1.01061e-05
1.08571e-05
1.13016e-05
1.21996e-05
1.26922e-05
1.37312e-05
1.42882e-05
1.54385e-05
1.60373e-05
1.72525e-05
1.78849e-05
1.91575e-05
1.98291e-05
2.11759e-05
2.1892e-05
2.33234e-05
2.40832e-05
2.55977e-05
2.63967e-05
2.79857e-05
2.88181e-05
3.04707e-05
3.13308e-05
3.30369e-05
3.39199e-05
3.56703e-05
3.65717e-05
3.83578e-05
3.92726e-05
4.10855e-05
4.20059e-05
4.38329e-05
4.47448e-05
4.65672e-05
4.74579e-05
4.92979e-05
5.02017e-05
9.41037e-06
9.5161e-06
9.88749e-06
1.104e-05
1.38653e-05
1.8943e-05
2.78807e-05
3.50417e-05
4.69386e-05
5.32212e-05
6.4213e-05
6.94894e-05
7.90594e-05
8.36192e-05
9.20871e-05
9.61878e-05
0.000103922
0.000107721
0.000114957
0.000118538
0.000125403
0.000128813
0.000135383
0.000138656
0.000144984
0.000148146
0.00015428
0.000157354
0.000163336
0.000166342
0.000172206
0.000175157
0.00018093
0.000183832
0.000189523
0.000192361
0.000197953
0.000200717
0.00020628
0.000209123
9.42381e-06
1.06908e-05
1.90386e-05
3.85699e-05
6.87423e-05
0.000107629
0.000151594
0.00019077
0.000225392
0.000254081
0.000278687
0.00029896
0.000316834
0.000331812
0.000345658
0.000357512
0.000369061
0.000379101
0.000389367
0.000398333
0.000407897
0.00041621
0.000425421
0.00043332
0.000442396
0.000450015
0.000459109
0.000466509
0.000475712
0.000482893
0.000492265
0.000499179
0.000508757
0.000515316
0.000525116
0.000531196
0.000541178
0.000546659
0.000556748
0.000562088
1.06695e-05
4.96955e-05
0.000127173
0.000241234
0.000383091
0.00050956
0.000609414
0.000682722
0.000736142
0.000774386
0.00080246
0.000823917
0.000840965
0.000855323
0.000867969
0.000879691
0.000890812
0.000901684
0.000912301
0.000922875
0.000933234
0.000943586
0.000953635
0.000963665
0.000973273
0.000982994
0.000992087
0.00100133
0.0010097
0.00101835
0.00102589
0.00103389
0.00104056
0.00104785
0.00105369
0.00106014
0.00106528
0.00107054
0.00107521
0.00107904
8.2678e-05
0.000384874
0.000732467
0.0011267
0.00136583
0.00150854
0.00158727
0.00162324
0.00163844
0.00163998
0.00163839
0.00163454
0.0016293
0.00162393
0.0016186
0.00161338
0.00160827
0.00160324
0.00159827
0.00159333
0.00158841
0.00158352
0.0015786
0.00157376
0.00156883
0.00156395
0.00155895
0.00155417
0.00154917
0.00154461
0.00153954
0.00153537
0.00153008
0.0015265
0.00152081
0.0015179
0.0015118
0.00150917
0.00150087
0.0015012
0.000717856
0.00172142
0.00237241
0.00266246
0.00270563
0.00266939
0.0025774
0.0024638
0.00235975
0.00227012
0.00219538
0.00213374
0.00208272
0.00203995
0.00200352
0.00197186
0.00194385
0.00191871
0.00189583
0.0018748
0.00185529
0.00183713
0.00182015
0.00180423
0.00178924
0.00177514
0.00176182
0.00174929
0.00173738
0.00172622
0.00171554
0.00170561
0.00169602
0.00168719
0.00167864
0.00167075
0.00166334
0.00165617
0.00164829
0.00165753
0.00396058
0.00421705
0.00426643
0.00425614
0.00423168
0.00421223
0.0041982
0.00418759
0.00417924
0.00417297
0.00416888
0.00416653
0.00416593
0.00416675
0.00416888
0.00417224
0.00417658
0.00418182
0.00418785
0.00419456
0.00420186
0.00420965
0.00421784
0.00422638
0.00423518
0.00424421
0.00425342
0.00426276
0.00427221
0.00428174
0.00429133
0.00430096
0.00431062
0.00432028
0.00432994
0.00433959
0.00434921
0.00435879
0.00436833
0.0043778
0.00438721
0.00439653
0.00440577
0.00441491
0.00442395
0.00443289
0.00444171
0.00445042
0.00445903
0.00446753
0.00447593
0.00448424
0.00449246
0.00450062
0.00450872
0.00451676
0.00452478
0.00453277
0.00454074
0.00454872
0.0045567
0.00456469
0.00457269
0.00458072
0.00458877
0.00459684
0.00460492
0.00461301
0.00462111
0.0046292
0.00463727
0.00464532
0.00465333
0.00466129
0.00466919
0.00467702
0.00468477
0.00469243
0.00469999
0.00470744
0.00471479
0.00472202
0.00472915
0.00473616
0.00474307
0.00474988
0.0047566
0.00476323
0.00476978
0.00477627
0.00478269
0.00478906
0.0047954
0.00480169
0.00480796
0.0048142
0.00482042
0.00482663
0.00483282
0.004839
0.00484517
0.00485131
0.00485745
0.00486356
0.00486964
0.0048757
0.00488172
0.0048877
0.00489364
0.00489953
0.00490537
0.00491116
0.00491688
0.00492254
0.00492813
0.00493365
0.00493911
0.00494449
0.00494981
0.00495505
0.00496023
0.00496533
0.00497037
0.00497535
0.00498027
0.00498512
0.00498993
0.00499467
0.00499937
0.00500403
0.00500864
0.00501322
0.00501776
0.00502227
0.00502675
0.00503121
0.00503565
0.00504008
0.00504449
0.0050489
0.00505329
0.00505769
0.00506207
0.00506646
0.00507084
0.00507521
0.00507959
0.00508396
0.00508832
0.00509267
0.00509701
0.00510134
0.00510566
0.00510995
0.00511423
0.00511849
0.00512273
0.00512694
0.00513112
0.00513528
0.00513942
0.00514352
0.0051476
0.00515166
0.00515568
0.00515971
0.00516367
0.00516768
0.00517158
0.0051756
0.0051794
0.00518351
0.00518714
0.00519148
0.00519477
0.00519959
0.00520224
0.00520792
0.00520967
0.00521658
0.0036032
0.00409211
0.00422841
0.00426096
0.00425912
0.00425093
0.0042404
0.00423293
0.0042283
0.00422589
0.00422588
0.00422693
0.00422963
0.00423385
0.00423907
0.00424524
0.00425219
0.00425983
0.00426803
0.0042767
0.00428575
0.00429511
0.00430471
0.00431449
0.00432441
0.00433443
0.00434451
0.00435463
0.00436476
0.00437489
0.00438501
0.00439509
0.00440514
0.00441515
0.00442511
0.00443501
0.00444486
0.00445466
0.0044644
0.00447408
0.0044837
0.00449326
0.00450276
0.00451221
0.0045216
0.00453094
0.00454022
0.00454945
0.00455862
0.00456774
0.00457681
0.00458583
0.00459479
0.00460371
0.00461258
0.0046214
0.00463017
0.00463889
0.00464756
0.00465619
0.00466477
0.0046733
0.00468178
0.00469022
0.00469861
0.00470695
0.00471524
0.00472349
0.0047317
0.00473985
0.00474796
0.00475603
0.00476405
0.00477203
0.00477997
0.00478786
0.00479571
0.00480352
0.00481129
0.00481902
0.0048267
0.00483435
0.00484195
0.00484951
0.00485702
0.00486449
0.00487192
0.00487929
0.00488663
0.00489391
0.00490115
0.00490834
0.00491548
0.00492256
0.0049296
0.00493658
0.00494351
0.00495038
0.0049572
0.00496396
0.00497067
0.00497732
0.00498391
0.00499045
0.00499693
0.00500336
0.00500972
0.00501604
0.0050223
0.0050285
0.00503465
0.00504075
0.00504679
0.00505278
0.00505872
0.0050646
0.00507044
0.00507623
0.00508197
0.00508766
0.0050933
0.0050989
0.00510445
0.00510996
0.00511543
0.00512086
0.00512625
0.0051316
0.00513691
0.00514219
0.00514743
0.00515263
0.00515781
0.00516294
0.00516805
0.00517312
0.00517817
0.00518318
0.00518816
0.00519312
0.00519804
0.00520294
0.00520781
0.00521266
0.00521748
0.00522227
0.00522704
0.00523179
0.00523651
0.00524122
0.0052459
0.00525056
0.00525521
0.00525983
0.00526444
0.00526903
0.0052736
0.00527816
0.00528271
0.00528724
0.00529175
0.00529626
0.00530075
0.00530523
0.00530969
0.00531417
0.00531859
0.00532308
0.00532744
0.00533197
0.00533623
0.00534087
0.00534494
0.00534982
0.0053535
0.00535889
0.0053619
0.00536806
0.0053705
0.00537761
0.00244322
0.0030716
0.00337379
0.00351064
0.00356759
0.00359109
0.00360093
0.00360652
0.00361145
0.00361679
0.00362311
0.00363012
0.00363782
0.00364618
0.00365502
0.00366423
0.00367368
0.00368326
0.00369292
0.00370257
0.00371217
0.0037217
0.00373112
0.00374043
0.00374961
0.00375868
0.00376763
0.00377646
0.0037852
0.00379384
0.0038024
0.00381087
0.00381928
0.00382762
0.00383591
0.00384414
0.00385232
0.00386046
0.00386855
0.0038766
0.00388462
0.00389259
0.00390053
0.00390844
0.00391631
0.00392415
0.00393196
0.00393973
0.00394748
0.00395519
0.00396286
0.00397051
0.00397812
0.00398569
0.00399323
0.00400074
0.00400821
0.00401565
0.00402305
0.00403042
0.00403775
0.00404505
0.00405231
0.00405954
0.00406673
0.00407389
0.00408102
0.00408812
0.00409518
0.00410221
0.00410922
0.00411619
0.00412312
0.00413003
0.00413691
0.00414376
0.00415058
0.00415737
0.00416414
0.00417087
0.00417758
0.00418425
0.0041909
0.00419752
0.0042041
0.00421066
0.00421718
0.00422367
0.00423013
0.00423656
0.00424294
0.0042493
0.00425562
0.0042619
0.00426815
0.00427436
0.00428054
0.00428668
0.00429279
0.00429886
0.00430489
0.00431089
0.00431685
0.00432278
0.00432867
0.00433452
0.00434034
0.00434612
0.00435187
0.00435758
0.00436325
0.00436889
0.0043745
0.00438007
0.0043856
0.0043911
0.00439656
0.00440199
0.00440738
0.00441274
0.00441806
0.00442334
0.00442859
0.0044338
0.00443897
0.00444411
0.00444922
0.00445429
0.00445933
0.00446434
0.00446932
0.00447426
0.00447917
0.00448406
0.00448891
0.00449374
0.00449853
0.0045033
0.00450804
0.00451275
0.00451744
0.00452209
0.00452672
0.00453133
0.0045359
0.00454046
0.00454498
0.00454949
0.00455397
0.00455843
0.00456287
0.00456728
0.00457168
0.00457606
0.00458042
0.00458476
0.00458909
0.0045934
0.00459769
0.00460197
0.00460623
0.00461049
0.00461472
0.00461895
0.00462314
0.00462736
0.00463151
0.00463573
0.00463982
0.00464407
0.00464806
0.00465239
0.0046562
0.00466074
0.0046642
0.00466915
0.00467207
0.00467754
0.00468012
0.00468658
0.00119259
0.00160991
0.002022
0.0023281
0.00253112
0.00266136
0.00274574
0.0028025
0.00284297
0.00287381
0.00289903
0.00292077
0.0029402
0.00295802
0.00297454
0.00298995
0.00300433
0.00301773
0.00303018
0.00304175
0.00305249
0.00306247
0.00307176
0.00308043
0.00308855
0.00309621
0.00310347
0.00311039
0.00311702
0.00312342
0.00312963
0.00313569
0.00314162
0.00314746
0.00315323
0.00315894
0.00316461
0.00317025
0.00317587
0.00318147
0.00318706
0.00319264
0.00319822
0.0032038
0.00320937
0.00321494
0.00322051
0.00322608
0.00323165
0.00323721
0.00324278
0.00324833
0.00325388
0.00325943
0.00326496
0.00327049
0.003276
0.00328151
0.003287
0.00329248
0.00329794
0.00330339
0.00330883
0.00331425
0.00331966
0.00332505
0.00333044
0.0033358
0.00334116
0.0033465
0.00335183
0.00335714
0.00336244
0.00336773
0.003373
0.00337826
0.0033835
0.00338873
0.00339395
0.00339916
0.00340435
0.00340953
0.0034147
0.00341986
0.00342501
0.00343014
0.00343527
0.00344038
0.00344547
0.00345055
0.00345562
0.00346068
0.00346571
0.00347074
0.00347575
0.00348074
0.00348573
0.0034907
0.00349565
0.00350059
0.00350552
0.00351044
0.00351534
0.00352023
0.00352511
0.00352997
0.00353482
0.00353966
0.00354448
0.00354928
0.00355407
0.00355885
0.00356361
0.00356836
0.00357309
0.0035778
0.0035825
0.00358718
0.00359185
0.00359649
0.00360112
0.00360573
0.00361032
0.00361489
0.00361944
0.00362396
0.00362846
0.00363295
0.00363741
0.00364184
0.00364626
0.00365066
0.00365503
0.00365938
0.00366372
0.00366803
0.00367232
0.0036766
0.00368085
0.00368508
0.00368929
0.00369347
0.00369764
0.00370178
0.0037059
0.00371
0.00371408
0.00371813
0.00372217
0.00372618
0.00373018
0.00373415
0.0037381
0.00374204
0.00374596
0.00374986
0.00375374
0.00375761
0.00376146
0.00376529
0.0037691
0.00377291
0.00377668
0.00378046
0.00378419
0.00378795
0.00379163
0.00379539
0.003799
0.00380279
0.0038063
0.00381017
0.00381349
0.00381754
0.00382057
0.00382493
0.00382755
0.00383226
0.0038346
0.00384034
0.000432398
0.000558997
0.000755612
0.00100287
0.00124088
0.00144748
0.00161893
0.00175797
0.00186961
0.00195925
0.00203177
0.00209106
0.00214006
0.00218096
0.00221533
0.0022444
0.00226904
0.00228996
0.00230772
0.0023228
0.00233559
0.00234646
0.00235568
0.00236354
0.00237025
0.002376
0.00238098
0.00238533
0.00238916
0.00239258
0.00239569
0.00239855
0.00240123
0.00240377
0.00240622
0.00240861
0.00241097
0.00241331
0.00241566
0.00241801
0.00242039
0.0024228
0.00242524
0.00242771
0.00243022
0.00243276
0.00243534
0.00243796
0.00244061
0.0024433
0.00244601
0.00244876
0.00245154
0.00245434
0.00245717
0.00246002
0.0024629
0.00246579
0.00246869
0.00247162
0.00247455
0.0024775
0.00248046
0.00248344
0.00248642
0.00248942
0.00249242
0.00249544
0.00249846
0.0025015
0.00250454
0.0025076
0.00251066
0.00251373
0.0025168
0.00251989
0.00252297
0.00252607
0.00252917
0.00253228
0.00253539
0.00253852
0.00254165
0.00254479
0.00254794
0.0025511
0.00255426
0.00255744
0.00256063
0.00256382
0.00256702
0.00257023
0.00257344
0.00257667
0.0025799
0.00258314
0.0025864
0.00258966
0.00259293
0.00259621
0.00259951
0.00260282
0.00260614
0.00260947
0.00261281
0.00261616
0.00261952
0.0026229
0.00262628
0.00262967
0.00263308
0.00263649
0.0026399
0.00264333
0.00264677
0.00265021
0.00265366
0.00265712
0.00266058
0.00266405
0.00266752
0.002671
0.00267447
0.00267795
0.00268142
0.0026849
0.00268837
0.00269183
0.00269529
0.00269875
0.0027022
0.00270564
0.00270908
0.00271251
0.00271594
0.00271935
0.00272277
0.00272617
0.00272956
0.00273295
0.00273633
0.00273969
0.00274305
0.00274639
0.00274972
0.00275303
0.00275634
0.00275962
0.0027629
0.00276616
0.0027694
0.00277264
0.00277586
0.00277906
0.00278225
0.00278543
0.00278859
0.00279175
0.00279488
0.002798
0.0028011
0.00280421
0.00280726
0.00281035
0.00281336
0.00281644
0.0028194
0.00282249
0.00282536
0.00282849
0.00283125
0.00283446
0.00283706
0.00284042
0.00284279
0.00284635
0.00284845
0.00285222
0.00285413
0.00285878
0.000106592
0.000133666
0.000177721
0.000245825
0.000344125
0.00046045
0.000584861
0.000709994
0.000830282
0.000942278
0.0010441
0.00113505
0.00121512
0.00128483
0.00134492
0.00139633
0.00144004
0.00147696
0.001508
0.00153398
0.00155563
0.0015736
0.00158847
0.00160074
0.00161083
0.00161912
0.00162591
0.00163147
0.00163603
0.00163977
0.00164285
0.00164541
0.00164755
0.00164937
0.00165094
0.00165233
0.00165358
0.00165474
0.00165584
0.00165691
0.00165796
0.00165902
0.00166009
0.00166119
0.00166232
0.00166348
0.00166469
0.00166594
0.00166723
0.00166856
0.00166994
0.00167137
0.00167284
0.00167435
0.0016759
0.00167749
0.00167911
0.00168077
0.00168246
0.00168419
0.00168594
0.00168772
0.00168952
0.00169136
0.00169321
0.00169509
0.00169699
0.00169891
0.00170086
0.00170282
0.00170481
0.00170681
0.00170883
0.00171087
0.00171292
0.00171499
0.00171707
0.00171916
0.00172127
0.00172339
0.00172552
0.00172766
0.00172981
0.00173198
0.00173416
0.00173635
0.00173856
0.00174077
0.001743
0.00174524
0.00174748
0.00174974
0.00175201
0.00175428
0.00175657
0.00175887
0.00176117
0.00176348
0.00176581
0.00176814
0.00177049
0.00177285
0.00177521
0.00177759
0.00177998
0.00178238
0.00178478
0.0017872
0.00178962
0.00179205
0.00179448
0.00179693
0.00179937
0.00180183
0.00180429
0.00180676
0.00180923
0.0018117
0.00181419
0.00181667
0.00181916
0.00182165
0.00182415
0.00182664
0.00182913
0.00183162
0.00183411
0.00183659
0.00183908
0.00184155
0.00184402
0.00184649
0.00184895
0.00185141
0.00185386
0.0018563
0.00185874
0.00186117
0.0018636
0.00186602
0.00186843
0.00187084
0.00187323
0.00187562
0.001878
0.00188036
0.00188272
0.00188507
0.0018874
0.00188972
0.00189203
0.00189433
0.00189662
0.0018989
0.00190116
0.00190343
0.00190566
0.00190791
0.00191012
0.00191235
0.00191452
0.00191675
0.00191887
0.0019211
0.00192316
0.00192541
0.0019274
0.00192968
0.00193157
0.00193392
0.00193569
0.00193812
0.00193977
0.00194229
0.0019438
0.00194641
0.00194781
0.00195047
0.00195181
0.0019551
0.00010302
0.000125229
0.000161368
0.000220378
0.000307838
0.000419461
0.000542554
0.000669361
0.00079376
0.000911679
0.00102047
0.00111897
0.00120665
0.00128392
0.00135119
0.00140966
0.00146011
0.00150344
0.00154054
0.00157224
0.00159934
0.00162251
0.00164238
0.00165948
0.00167426
0.00168712
0.00169838
0.00170833
0.00171719
0.00172517
0.00173243
0.0017391
0.0017453
0.00175112
0.00175664
0.00176192
0.00176701
0.00177196
0.00177679
0.00178154
0.00178622
0.00179085
0.00179544
0.00180001
0.00180455
0.00180908
0.0018136
0.00181811
0.00182261
0.00182711
0.00183161
0.0018361
0.0018406
0.00184509
0.00184958
0.00185406
0.00185854
0.00186301
0.00186748
0.00187194
0.00187639
0.00188083
0.00188526
0.00188968
0.00189409
0.00189849
0.00190288
0.00190725
0.00191162
0.00191598
0.00192032
0.00192465
0.00192897
0.00193327
0.00193756
0.00194183
0.00194609
0.00195033
0.00195454
0.00195875
0.00196293
0.00196709
0.00197124
0.00197537
0.00197948
0.00198358
0.00198765
0.00199171
0.00199575
0.00199976
0.00200376
0.00200773
0.00201168
0.00201561
0.00201951
0.00202339
0.00202725
0.00203108
0.0020349
0.00203868
0.00204245
0.0020462
0.00204992
0.00205361
0.00205729
0.00206094
0.00206457
0.00206817
0.00207175
0.0020753
0.00207882
0.00208232
0.0020858
0.00208925
0.00209268
0.00209608
0.00209945
0.00210281
0.00210614
0.00210944
0.00211272
0.00211598
0.00211921
0.00212242
0.0021256
0.00212876
0.00213188
0.00213499
0.00213806
0.00214111
0.00214414
0.00214714
0.00215011
0.00215306
0.00215599
0.0021589
0.00216178
0.00216464
0.00216748
0.0021703
0.0021731
0.00217588
0.00217863
0.00218137
0.00218408
0.00218676
0.00218943
0.00219208
0.0021947
0.0021973
0.00219988
0.00220245
0.00220499
0.00220751
0.00221002
0.00221251
0.00221497
0.00221743
0.00221985
0.00222229
0.00222466
0.00222707
0.0022294
0.0022318
0.00223406
0.00223646
0.00223865
0.00224107
0.00224316
0.00224564
0.00224761
0.00225018
0.00225198
0.00225468
0.0022563
0.00225913
0.00226059
0.0022635
0.00226491
0.00226843
0.000423962
0.000541328
0.000723247
0.00096031
0.0012001
0.00141494
0.00159751
0.0017488
0.00187289
0.00197461
0.00205851
0.00212827
0.00218687
0.0022364
0.00227869
0.00231469
0.00234553
0.00237204
0.0023949
0.00241466
0.0024318
0.00244673
0.00245978
0.00247126
0.00248143
0.00249051
0.0024987
0.00250614
0.00251299
0.00251934
0.00252531
0.00253096
0.00253637
0.00254158
0.00254665
0.00255161
0.00255648
0.00256129
0.00256606
0.0025708
0.00257552
0.00258023
0.00258494
0.00258964
0.00259434
0.00259904
0.00260375
0.00260847
0.00261319
0.00261792
0.00262266
0.0026274
0.00263214
0.0026369
0.00264165
0.00264641
0.00265117
0.00265592
0.00266068
0.00266544
0.00267019
0.00267494
0.00267969
0.00268443
0.00268917
0.00269391
0.00269864
0.00270336
0.00270808
0.0027128
0.00271751
0.00272221
0.0027269
0.00273159
0.00273626
0.00274092
0.00274557
0.00275021
0.00275483
0.00275945
0.00276405
0.00276864
0.00277322
0.00277779
0.00278235
0.00278689
0.00279142
0.00279594
0.00280044
0.00280493
0.0028094
0.00281386
0.0028183
0.00282273
0.00282714
0.00283154
0.00283592
0.00284028
0.00284463
0.00284897
0.0028533
0.0028576
0.0028619
0.00286618
0.00287044
0.00287469
0.00287893
0.00288314
0.00288734
0.00289153
0.0028957
0.00289985
0.00290399
0.00290811
0.00291221
0.0029163
0.00292037
0.00292443
0.00292847
0.00293249
0.00293649
0.00294048
0.00294445
0.0029484
0.00295233
0.00295624
0.00296012
0.00296399
0.00296784
0.00297166
0.00297547
0.00297926
0.00298302
0.00298677
0.0029905
0.00299421
0.00299791
0.00300158
0.00300523
0.00300887
0.00301249
0.00301609
0.00301966
0.00302322
0.00302675
0.00303027
0.00303376
0.00303723
0.00304068
0.00304411
0.00304753
0.00305092
0.00305429
0.00305764
0.00306097
0.00306429
0.00306758
0.00307086
0.00307412
0.00307736
0.00308057
0.00308379
0.00308696
0.00309015
0.00309327
0.00309644
0.0030995
0.00310268
0.00310565
0.00310888
0.00311173
0.00311504
0.00311771
0.0031212
0.00312359
0.00312733
0.00312942
0.00313338
0.0031353
0.0031401
0.00118092
0.00158835
0.00199793
0.00231669
0.00253784
0.00268523
0.00278419
0.00285307
0.00290351
0.0029426
0.00297454
0.00300175
0.00302565
0.00304702
0.00306637
0.00308386
0.00309977
0.00311418
0.0031272
0.00313897
0.00314959
0.00315919
0.00316787
0.00317574
0.00318293
0.00318951
0.0031956
0.00320127
0.00320659
0.00321163
0.00321644
0.00322108
0.00322557
0.00322997
0.00323428
0.00323854
0.00324277
0.00324697
0.00325116
0.00325535
0.00325955
0.00326376
0.00326797
0.00327221
0.00327646
0.00328074
0.00328503
0.00328934
0.00329368
0.00329803
0.0033024
0.00330679
0.0033112
0.00331563
0.00332007
0.00332453
0.00332899
0.00333347
0.00333796
0.00334246
0.00334697
0.00335149
0.00335601
0.00336055
0.00336509
0.00336964
0.00337419
0.00337875
0.00338331
0.00338788
0.00339245
0.00339702
0.00340159
0.00340616
0.00341073
0.0034153
0.00341987
0.00342443
0.003429
0.00343356
0.00343812
0.00344268
0.00344723
0.00345178
0.00345633
0.00346087
0.00346541
0.00346994
0.00347447
0.00347899
0.00348351
0.00348802
0.00349252
0.00349702
0.00350152
0.00350601
0.00351049
0.00351497
0.00351945
0.00352392
0.00352838
0.00353284
0.0035373
0.00354175
0.0035462
0.00355064
0.00355508
0.00355951
0.00356393
0.00356835
0.00357276
0.00357717
0.00358157
0.00358596
0.00359035
0.00359473
0.0035991
0.00360346
0.00360781
0.00361216
0.00361649
0.00362081
0.00362512
0.00362942
0.00363371
0.00363798
0.00364224
0.00364649
0.00365073
0.00365495
0.00365916
0.00366336
0.00366754
0.00367171
0.00367587
0.00368001
0.00368414
0.00368826
0.00369237
0.00369645
0.00370053
0.00370458
0.00370862
0.00371265
0.00371666
0.00372065
0.00372462
0.00372858
0.00373252
0.00373645
0.00374036
0.00374425
0.00374813
0.00375199
0.00375584
0.00375967
0.00376348
0.00376728
0.00377106
0.00377483
0.00377858
0.00378232
0.00378603
0.00378975
0.00379343
0.00379714
0.00380076
0.00380447
0.00380803
0.00381178
0.00381522
0.00381907
0.00382232
0.00382636
0.0038293
0.00383368
0.00383618
0.00384093
0.0038432
0.00384889
0.00243582
0.00307622
0.00339656
0.00355079
0.00362045
0.00365149
0.00366569
0.00367355
0.00367923
0.00368432
0.00368943
0.00369474
0.00370031
0.00370609
0.00371203
0.003718
0.00372404
0.00372997
0.00373576
0.00374142
0.00374691
0.00375218
0.00375727
0.00376217
0.00376689
0.00377144
0.00377585
0.00378014
0.00378432
0.00378842
0.00379246
0.00379645
0.0038004
0.00380433
0.00380825
0.00381217
0.00381609
0.00382002
0.00382396
0.00382792
0.0038319
0.0038359
0.00383993
0.00384398
0.00384805
0.00385215
0.00385627
0.00386042
0.00386458
0.00386878
0.00387299
0.00387722
0.00388147
0.00388573
0.00389002
0.00389432
0.00389863
0.00390296
0.0039073
0.00391165
0.00391601
0.00392039
0.00392478
0.00392917
0.00393358
0.00393799
0.00394241
0.00394684
0.00395127
0.00395571
0.00396015
0.0039646
0.00396905
0.00397351
0.00397797
0.00398243
0.00398689
0.00399136
0.00399582
0.00400029
0.00400476
0.00400923
0.0040137
0.00401817
0.00402264
0.00402711
0.00403158
0.00403604
0.00404051
0.00404497
0.00404944
0.0040539
0.00405837
0.00406283
0.00406729
0.00407176
0.00407622
0.00408069
0.00408515
0.00408962
0.00409409
0.00409855
0.00410302
0.00410749
0.00411196
0.00411644
0.00412091
0.00412538
0.00412986
0.00413433
0.0041388
0.00414328
0.00414775
0.00415222
0.00415669
0.00416116
0.00416562
0.00417008
0.00417454
0.00417899
0.00418344
0.00418788
0.00419231
0.00419674
0.00420116
0.00420558
0.00420999
0.00421439
0.00421879
0.00422318
0.00422756
0.00423194
0.0042363
0.00424066
0.00424502
0.00424936
0.00425369
0.00425802
0.00426234
0.00426664
0.00427094
0.00427522
0.0042795
0.00428376
0.00428801
0.00429226
0.00429649
0.00430071
0.00430492
0.00430911
0.0043133
0.00431748
0.00432164
0.0043258
0.00432994
0.00433408
0.0043382
0.00434231
0.00434642
0.00435051
0.00435459
0.00435867
0.00436273
0.00436679
0.00437082
0.00437488
0.00437887
0.00438294
0.00438688
0.00439098
0.00439482
0.00439902
0.00440267
0.0044071
0.00441039
0.00441525
0.00441799
0.00442338
0.00442581
0.00443212
0.00362069
0.00412709
0.00427035
0.00430102
0.00429562
0.00428049
0.00426272
0.00424764
0.00423522
0.00422516
0.00421716
0.00421098
0.00420639
0.00420318
0.00420114
0.00420008
0.00420006
0.00420051
0.00420163
0.00420333
0.00420542
0.00420781
0.00421044
0.0042133
0.00421632
0.00421948
0.00422276
0.00422612
0.00422956
0.00423306
0.00423661
0.00424021
0.00424385
0.00424753
0.00425125
0.00425499
0.00425877
0.00426258
0.00426641
0.00427027
0.00427416
0.00427807
0.00428201
0.00428597
0.00428995
0.00429395
0.00429797
0.00430201
0.00430607
0.00431015
0.00431424
0.00431835
0.00432247
0.00432661
0.00433076
0.00433492
0.0043391
0.00434329
0.00434748
0.00435169
0.00435591
0.00436014
0.00436437
0.00436861
0.00437286
0.00437711
0.00438137
0.00438563
0.00438989
0.00439416
0.00439843
0.00440271
0.00440698
0.00441126
0.00441554
0.00441983
0.00442411
0.0044284
0.00443268
0.00443697
0.00444126
0.00444556
0.00444985
0.00445414
0.00445844
0.00446273
0.00446703
0.00447133
0.00447563
0.00447994
0.00448424
0.00448855
0.00449287
0.00449718
0.0045015
0.00450582
0.00451015
0.00451448
0.00451881
0.00452314
0.00452748
0.00453182
0.00453616
0.00454051
0.00454486
0.00454921
0.00455357
0.00455793
0.00456229
0.00456666
0.00457102
0.00457539
0.00457976
0.00458413
0.0045885
0.00459288
0.00459725
0.00460162
0.004606
0.00461037
0.00461474
0.00461911
0.00462348
0.00462786
0.00463223
0.0046366
0.00464097
0.00464534
0.00464971
0.00465409
0.00465846
0.00466282
0.00466719
0.00467156
0.00467592
0.00468028
0.00468464
0.00468899
0.00469335
0.0046977
0.00470204
0.00470638
0.00471072
0.00471506
0.00471939
0.00472371
0.00472804
0.00473235
0.00473667
0.00474097
0.00474528
0.00474957
0.00475386
0.00475815
0.00476243
0.00476671
0.00477098
0.00477525
0.00477951
0.00478376
0.00478801
0.00479226
0.0047965
0.00480075
0.00480497
0.00480921
0.00481341
0.00481767
0.00482182
0.00482612
0.00483018
0.0048346
0.00483848
0.00484313
0.00484665
0.00485179
0.00485467
0.00486055
0.00486289
0.00486969
0.00394678
0.00417952
0.00420829
0.00418504
0.00414778
0.00411622
0.00408968
0.00406727
0.00404805
0.00403165
0.00401782
0.00400629
0.00399678
0.00398903
0.00398282
0.00397799
0.00397442
0.00397184
0.00397017
0.00396931
0.00396915
0.00396949
0.00397035
0.00397163
0.00397324
0.00397514
0.00397729
0.00397964
0.00398217
0.00398485
0.00398767
0.00399059
0.00399361
0.00399671
0.00399989
0.00400313
0.00400641
0.00400974
0.00401309
0.00401647
0.00401986
0.00402325
0.00402663
0.00403
0.00403336
0.00403669
0.00404
0.00404328
0.00404653
0.00404976
0.00405296
0.00405615
0.00405932
0.00406249
0.00406566
0.00406884
0.00407203
0.00407525
0.00407849
0.00408176
0.00408508
0.00408843
0.00409183
0.00409527
0.00409875
0.00410228
0.00410585
0.00410945
0.00411307
0.00411672
0.00412039
0.00412407
0.00412775
0.00413142
0.00413508
0.00413872
0.00414233
0.00414591
0.00414946
0.00415297
0.00415643
0.00415986
0.00416325
0.0041666
0.00416992
0.0041732
0.00417646
0.00417971
0.00418293
0.00418616
0.00418938
0.0041926
0.00419584
0.00419909
0.00420236
0.00420565
0.00420897
0.00421232
0.00421569
0.0042191
0.00422254
0.004226
0.00422949
0.00423301
0.00423655
0.00424012
0.0042437
0.00424729
0.0042509
0.00425451
0.00425813
0.00426175
0.00426537
0.004269
0.00427261
0.00427622
0.00427983
0.00428342
0.00428701
0.00429059
0.00429416
0.00429772
0.00430128
0.00430483
0.00430837
0.00431191
0.00431544
0.00431897
0.0043225
0.00432603
0.00432956
0.0043331
0.00433663
0.00434018
0.00434373
0.00434729
0.00435087
0.00435445
0.00435805
0.00436166
0.00436529
0.00436893
0.00437259
0.00437627
0.00437995
0.00438366
0.00438737
0.0043911
0.00439483
0.00439858
0.00440233
0.00440608
0.00440984
0.0044136
0.00441736
0.00442111
0.00442487
0.00442862
0.00443236
0.00443609
0.00443982
0.00444354
0.00444725
0.00445096
0.00445465
0.00445836
0.00446202
0.00446573
0.00446935
0.0044731
0.00447665
0.0044805
0.00448391
0.00448797
0.00449108
0.00449559
0.00449811
0.00450342
0.00450512
0.00451158
)
;

boundaryField
{
    upperWall
    {
        type            zeroGradient;
    }
    lowerWall
    {
        type            zeroGradient;
    }
    heatedWall
    {
        type            zeroGradient;
    }
    inlet
    {