/*--------------------------------*- C++ -*----------------------------------*\
  =========                 |
  \\      /  F ield         | OpenFOAM: The Open Source CFD Toolbox
   \\    /   O peration     | Website:  https://openfoam.org
    \\  /    A nd           | Version:  7
     \\/     M anipulation  |
\*---------------------------------------------------------------------------*/
FoamFile
{
    version     2.0;
    format      ascii;
    class       volSymmTensorField;
    location    "0.05";
    object      UPrime2Mean;
}
// * * * * * * * * * * * * * * * * * * * * * * * * * * * * * * * * * * * * * //

dimensions      [0 2 -2 0 0 0 0];

internalField   nonuniform List<symmTensor> 
400
(
(2.30977e-06 -6.44234e-06 0 6.07578e-05 0 0)
(0.000277564 -5.13413e-05 0 1.06146e-05 0 0)
(0.000380766 -2.24448e-05 0 2.01661e-06 0 0)
(0.000517512 -1.07735e-05 0 7.69066e-07 0 0)
(0.000591813 -4.93234e-06 0 3.94859e-07 0 0)
(0.000622463 -1.6497e-06 0 2.24229e-07 0 0)
(0.000621497 7.85233e-07 0 1.25789e-07 0 0)
(0.000600404 2.61795e-06 0 7.1645e-08 0 0)
(0.000567369 3.72982e-06 0 4.85175e-08 0 0)
(0.000529521 4.17107e-06 0 4.09444e-08 0 0)
(0.000492135 4.13445e-06 0 3.75912e-08 0 0)
(0.000458274 3.79886e-06 0 3.3611e-08 0 0)
(0.000429193 3.33296e-06 0 2.82086e-08 0 0)
(0.000405101 2.84897e-06 0 2.23161e-08 0 0)
(0.000385628 2.40424e-06 0 1.68895e-08 0 0)
(0.000370156 2.02621e-06 0 1.24843e-08 0 0)
(0.000358036 1.72415e-06 0 9.24798e-09 0 0)
(0.000348593 1.52781e-06 0 7.35861e-09 0 0)
(0.000341508 1.27371e-06 0 5.15383e-09 0 0)
(0.000332219 1.56721e-06 0 8.11436e-09 0 0)
(1.34975e-05 4.33763e-05 0 0.000168104 0 0)
(0.000121173 -0.000133547 0 0.000159924 0 0)
(0.000306018 -0.000148299 0 8.13564e-05 0 0)
(0.00057731 -0.000127315 0 4.00222e-05 0 0)
(0.000803699 -8.30781e-05 0 1.98749e-05 0 0)
(0.000935155 -3.76775e-05 0 1.01117e-05 0 0)
(0.000975807 2.34285e-07 0 5.44061e-06 0 0)
(0.000947081 2.6838e-05 0 3.65206e-06 0 0)
(0.000873906 4.15442e-05 0 3.25905e-06 0 0)
(0.000779695 4.63714e-05 0 3.22422e-06 0 0)
(0.000682172 4.46209e-05 0 3.05293e-06 0 0)
(0.000592061 3.9392e-05 0 2.65969e-06 0 0)
(0.000514304 3.29688e-05 0 2.14186e-06 0 0)
(0.000450069 2.66889e-05 0 1.61756e-06 0 0)
(0.000398472 2.1164e-05 0 1.16104e-06 0 0)
(0.000357759 1.65792e-05 0 8.00994e-07 0 0)
(0.000326117 1.29053e-05 0 5.36168e-07 0 0)
(0.000301565 1.01126e-05 0 3.57596e-07 0 0)
(0.000283696 7.96311e-06 0 2.36688e-07 0 0)
(0.00026357 6.69977e-06 0 1.80969e-07 0 0)
(2.48454e-05 7.77531e-05 0 0.000263338 0 0)
(3.16529e-05 -0.000101713 0 0.000383481 0 0)
(0.000105277 -0.000168231 0 0.000288116 0 0)
(0.000284575 -0.000200814 0 0.000169639 0 0)
(0.000494039 -0.000166236 0 8.77387e-05 0 0)
(0.000655102 -9.58768e-05 0 4.23209e-05 0 0)
(0.000739281 -2.20963e-05 0 2.14611e-05 0 0)
(0.000748964 3.6052e-05 0 1.47842e-05 0 0)
(0.000701483 7.14606e-05 0 1.44387e-05 0 0)
(0.000620145 8.56364e-05 0 1.53342e-05 0 0)
(0.000526221 8.45471e-05 0 1.51649e-05 0 0)
(0.000434664 7.48925e-05 0 1.36014e-05 0 0)
(0.000353735 6.1962e-05 0 1.11968e-05 0 0)
(0.000286552 4.90298e-05 0 8.60664e-06 0 0)
(0.000233056 3.76773e-05 0 6.26552e-06 0 0)
(0.000191592 2.84018e-05 0 4.36447e-06 0 0)
(0.000160168 2.11377e-05 0 2.92639e-06 0 0)
(0.000136375 1.56254e-05 0 1.9095e-06 0 0)
(0.000119946 1.1532e-05 0 1.20831e-06 0 0)
(0.000102652 8.23819e-06 0 7.4668e-07 0 0)
(2.45274e-05 8.14577e-05 0 0.000295561 0 0)
(1.12236e-05 -6.16778e-05 0 0.00055141 0 0)
(2.4884e-05 -0.000107002 0 0.00051413 0 0)
(9.73411e-05 -0.000171239 0 0.000355293 0 0)
(0.000217685 -0.000177141 0 0.000202686 0 0)
(0.000340996 -0.000125823 0 0.000100464 0 0)
(0.000432561 -4.91342e-05 0 4.83618e-05 0 0)
(0.000475618 2.35563e-05 0 3.08474e-05 0 0)
(0.000469788 7.50388e-05 0 3.05709e-05 0 0)
(0.000426824 0.000100687 0 3.46378e-05 0 0)
(0.000363222 0.000104688 0 3.64167e-05 0 0)
(0.000293875 9.48337e-05 0 3.43258e-05 0 0)
(0.000229018 7.85769e-05 0 2.94159e-05 0 0)
(0.000173958 6.11856e-05 0 2.33682e-05 0 0)
(0.000130254 4.5554e-05 0 1.74832e-05 0 0)
(9.71677e-05 3.28003e-05 0 1.24562e-05 0 0)
(7.31199e-05 2.30307e-05 0 8.50324e-06 0 0)
(5.58447e-05 1.5808e-05 0 5.58715e-06 0 0)
(4.47966e-05 1.08175e-05 0 3.5453e-06 0 0)
(3.41852e-05 6.52057e-06 0 1.99618e-06 0 0)
(2.30461e-05 7.77832e-05 0 0.000294417 0 0)
(7.10391e-06 -4.07978e-05 0 0.000625493 0 0)
(4.78047e-06 -4.43504e-05 0 0.000675526 0 0)
(2.56613e-05 -0.000100896 0 0.00053344 0 0)
(7.74383e-05 -0.000133703 0 0.000340036 0 0)
(0.000148308 -0.000116702 0 0.000182098 0 0)
(0.000218484 -6.25277e-05 0 8.81076e-05 0 0)
(0.000269315 4.08338e-06 0 5.03566e-05 0 0)
(0.000289551 6.10534e-05 0 4.65119e-05 0 0)
(0.000278886 9.61915e-05 0 5.48332e-05 0 0)
(0.000245505 0.000108015 0 6.15363e-05 0 0)
(0.000200643 0.000102054 0 6.15012e-05 0 0)
(0.000154262 8.6085e-05 0 5.52907e-05 0 0)
(0.000112936 6.68049e-05 0 4.56457e-05 0 0)
(7.97237e-05 4.85376e-05 0 3.52151e-05 0 0)
(5.50269e-05 3.33404e-05 0 2.57037e-05 0 0)
(3.79166e-05 2.17788e-05 0 1.78783e-05 0 0)
(2.65392e-05 1.34226e-05 0 1.18683e-05 0 0)
(2.00666e-05 8.05147e-06 0 7.58504e-06 0 0)
(1.48961e-05 3.51112e-06 0 4.07745e-06 0 0)
(2.43436e-05 8.03746e-05 0 0.000292913 0 0)
(5.05521e-06 -3.08943e-05 0 0.000659758 0 0)
(1.63202e-06 -5.14483e-06 0 0.000773984 0 0)
(6.25061e-06 -3.90961e-05 0 0.000671762 0 0)
(2.40962e-05 -7.61175e-05 0 0.000471312 0 0)
(5.67204e-05 -8.38567e-05 0 0.000276 0 0)
(9.85669e-05 -5.79131e-05 0 0.000140893 0 0)
(0.000138685 -1.01031e-05 0 7.55249e-05 0 0)
(0.000165416 4.10161e-05 0 6.15021e-05 0 0)
(0.000172241 7.96421e-05 0 7.18964e-05 0 0)
(0.000160032 9.83677e-05 0 8.5111e-05 0 0)
(0.000134926 9.82917e-05 0 9.01428e-05 0 0)
(0.000104648 8.54483e-05 0 8.51434e-05 0 0)
(7.5613e-05 6.67971e-05 0 7.31238e-05 0 0)
(5.16381e-05 4.77356e-05 0 5.81708e-05 0 0)
(3.40048e-05 3.13327e-05 0 4.34513e-05 0 0)
(2.23989e-05 1.87957e-05 0 3.07387e-05 0 0)
(1.54485e-05 9.88708e-06 0 2.06084e-05 0 0)
(1.21813e-05 4.51493e-06 0 1.32629e-05 0 0)
(1.06126e-05 2.35608e-07 0 6.96495e-06 0 0)
(2.42171e-05 7.9865e-05 0 0.000292301 0 0)
(4.38416e-06 -3.27978e-05 0 0.000667818 0 0)
(1.65283e-06 9.03442e-06 0 0.000820765 0 0)
(3.09328e-06 -2.07012e-06 0 0.000760761 0 0)
(8.27273e-06 -2.89067e-05 0 0.000576578 0 0)
(2.02451e-05 -4.56737e-05 0 0.000366933 0 0)
(4.00085e-05 -4.09458e-05 0 0.00020139 0 0)
(6.41656e-05 -1.45962e-05 0 0.000107499 0 0)
(8.55501e-05 2.31164e-05 0 7.76807e-05 0 0)
(9.72953e-05 5.8046e-05 0 8.58637e-05 0 0)
(9.64465e-05 7.96468e-05 0 0.000104821 0 0)
(8.47744e-05 8.46245e-05 0 0.000116786 0 0)
(6.7015e-05 7.59999e-05 0 0.00011558 0 0)
(4.83266e-05 5.97432e-05 0 0.000103079 0 0)
(3.24405e-05 4.16152e-05 0 8.43723e-05 0 0)
(2.10223e-05 2.5458e-05 0 6.43111e-05 0 0)
(1.4131e-05 1.3092e-05 0 4.61094e-05 0 0)
(1.07936e-05 4.54844e-06 0 3.11256e-05 0 0)
(9.95754e-06 -2.01251e-07 0 2.01061e-05 0 0)
(1.08756e-05 -3.52434e-06 0 1.04011e-05 0 0)
(2.36331e-05 7.81131e-05 0 0.000292449 0 0)
(3.99652e-06 -3.64819e-05 0 0.000661092 0 0)
(1.39438e-06 1.28238e-05 0 0.000831833 0 0)
(2.70441e-06 1.72858e-05 0 0.000805639 0 0)
(4.36204e-06 3.74359e-06 0 0.000647536 0 0)
(7.57928e-06 -1.16149e-05 0 0.00044197 0 0)
(1.43321e-05 -1.85447e-05 0 0.00026074 0 0)
(2.52172e-05 -1.04087e-05 0 0.000143934 0 0)
(3.77023e-05 1.09137e-05 0 9.66253e-05 0 0)
(4.73793e-05 3.63511e-05 0 9.86538e-05 0 0)
(5.06803e-05 5.56762e-05 0 0.000121009 0 0)
(4.68539e-05 6.28492e-05 0 0.000140163 0 0)
(3.80112e-05 5.77666e-05 0 0.000144543 0 0)
(2.7625e-05 4.45726e-05 0 0.000133399 0 0)
(1.87311e-05 2.86341e-05 0 0.00011198 0 0)
(1.28936e-05 1.41345e-05 0 8.67725e-05 0 0)
(1.02432e-05 3.28408e-06 0 6.27793e-05 0 0)
(1.00475e-05 -3.6786e-06 0 4.24844e-05 0 0)
(1.12057e-05 -6.9036e-06 0 2.74253e-05 0 0)
(1.38906e-05 -8.27257e-06 0 1.39841e-05 0 0)
(2.47299e-05 8.02477e-05 0 0.000286846 0 0)
(3.61658e-06 -3.1117e-05 0 0.000651326 0 0)
(1.37282e-06 1.95159e-05 0 0.000826951 0 0)
(2.96367e-06 3.15566e-05 0 0.00082077 0 0)
(4.07864e-06 2.80355e-05 0 0.000686956 0 0)
(4.57677e-06 1.7499e-05 0 0.000495167 0 0)
(5.30443e-06 5.40547e-06 0 0.000311306 0 0)
(7.80498e-06 -1.97543e-07 0 0.000180506 0 0)
(1.24205e-05 4.65701e-06 0 0.000118083 0 0)
(1.76022e-05 1.68598e-05 0 0.000111997 0 0)
(2.09672e-05 2.90695e-05 0 0.00013516 0 0)
(2.10212e-05 3.46628e-05 0 0.000160551 0 0)
(1.81636e-05 3.12219e-05 0 0.000171264 0 0)
(1.4261e-05 2.08307e-05 0 0.000162788 0 0)
(1.13207e-05 7.87677e-06 0 0.000139557 0 0)
(1.0413e-05 -3.62915e-06 0 0.000109444 0 0)
(1.14775e-05 -1.1475e-05 0 7.95013e-05 0 0)
(1.38589e-05 -1.54119e-05 0 5.36537e-05 0 0)
(1.65201e-05 -1.60038e-05 0 3.4433e-05 0 0)
(2.01283e-05 -1.42149e-05 0 1.72378e-05 0 0)
(2.474e-05 8.03153e-05 0 0.000289492 0 0)
(3.32967e-06 -3.03779e-05 0 0.000642899 0 0)
(1.48929e-06 2.40174e-05 0 0.000814051 0 0)
(3.67497e-06 4.27828e-05 0 0.000816406 0 0)
(5.53134e-06 4.77772e-05 0 0.00070071 0 0)
(6.41853e-06 4.29982e-05 0 0.000525689 0 0)
(5.82156e-06 2.93259e-05 0 0.00034838 0 0)
(4.62474e-06 1.36092e-05 0 0.000212897 0 0)
(4.24483e-06 3.00439e-06 0 0.00014045 0 0)
(5.26414e-06 -2.71144e-07 0 0.000126664 0 0)
(7.08853e-06 6.77674e-07 0 0.000148782 0 0)
(8.72118e-06 6.37557e-07 0 0.000178875 0 0)
(9.81788e-06 -3.76029e-06 0 0.000195676 0 0)
(1.09618e-05 -1.21452e-05 0 0.000190392 0 0)
(1.29786e-05 -2.14599e-05 0 0.000165808 0 0)
(1.61489e-05 -2.84555e-05 0 0.00013088 0 0)
(2.00532e-05 -3.14984e-05 0 9.48974e-05 0 0)
(2.40106e-05 -3.0683e-05 0 6.34825e-05 0 0)
(2.733e-05 -2.73581e-05 0 4.02618e-05 0 0)
(3.05487e-05 -2.11276e-05 0 1.96564e-05 0 0)
(2.27393e-05 7.56298e-05 0 0.000281352 0 0)
(3.50914e-06 -3.37877e-05 0 0.000621472 0 0)
(1.39616e-06 2.41457e-05 0 0.000783009 0 0)
(4.54825e-06 5.0545e-05 0 0.000788785 0 0)
(8.25272e-06 6.4212e-05 0 0.000688057 0 0)
(1.18898e-05 6.57259e-05 0 0.000531764 0 0)
(1.37589e-05 5.23096e-05 0 0.000368185 0 0)
(1.3372e-05 2.88191e-05 0 0.000237016 0 0)
(1.1892e-05 3.74896e-06 0 0.000161279 0 0)
(1.09916e-05 -1.65331e-05 0 0.000142369 0 0)
(1.17188e-05 -3.04596e-05 0 0.000162828 0 0)
(1.41872e-05 -4.02143e-05 0 0.000195998 0 0)
(1.80457e-05 -4.84426e-05 0 0.000217739 0 0)
(2.29557e-05 -5.56535e-05 0 0.000215156 0 0)
(2.85472e-05 -6.02921e-05 0 0.000188994 0 0)
(3.41835e-05 -6.06356e-05 0 0.000149116 0 0)
(3.91385e-05 -5.64966e-05 0 0.000107164 0 0)
(4.2755e-05 -4.88452e-05 0 7.05644e-05 0 0)
(4.52009e-05 -4.02006e-05 0 4.39351e-05 0 0)
(4.60148e-05 -2.83491e-05 0 2.07441e-05 0 0)
(2.40157e-05 7.76938e-05 0 0.000281148 0 0)
(3.16305e-06 -2.77471e-05 0 0.000599445 0 0)
(2.16321e-06 3.21827e-05 0 0.000741378 0 0)
(6.87814e-06 6.32005e-05 0 0.000742303 0 0)
(1.36074e-05 8.2453e-05 0 0.000651595 0 0)
(2.23874e-05 8.79198e-05 0 0.000513829 0 0)
(3.06033e-05 7.39006e-05 0 0.000368768 0 0)
(3.60887e-05 4.29387e-05 0 0.0002496 0 0)
(3.88064e-05 3.49415e-06 0 0.000177753 0 0)
(4.03868e-05 -3.52593e-05 0 0.000157869 0 0)
(4.27529e-05 -6.72643e-05 0 0.000177361 0 0)
(4.69556e-05 -9.04395e-05 0 0.000212112 0 0)
(5.28682e-05 -0.000104911 0 0.000236673 0 0)
(5.95307e-05 -0.000110969 0 0.000235009 0 0)
(6.56747e-05 -0.000108772 0 0.000206199 0 0)
(7.01099e-05 -9.92442e-05 0 0.000161144 0 0)
(7.23527e-05 -8.48511e-05 0 0.000113796 0 0)
(7.20925e-05 -6.80909e-05 0 7.31645e-05 0 0)
(7.10867e-05 -5.2872e-05 0 4.43922e-05 0 0)
(6.67071e-05 -3.4734e-05 0 2.01081e-05 0 0)
(2.55495e-05 8.01625e-05 0 0.000278081 0 0)
(2.4302e-06 -2.04402e-05 0 0.000573723 0 0)
(3.62832e-06 4.33756e-05 0 0.00069087 0 0)
(1.13782e-05 7.90193e-05 0 0.000680504 0 0)
(2.34636e-05 0.000101861 0 0.00059476 0 0)
(4.1101e-05 0.000108332 0 0.000473792 0 0)
(6.10849e-05 9.11483e-05 0 0.000349726 0 0)
(7.95202e-05 5.1148e-05 0 0.000248314 0 0)
(9.44626e-05 -3.72655e-06 0 0.000187015 0 0)
(0.00010612 -6.24366e-05 0 0.000171084 0 0)
(0.000115654 -0.000114718 0 0.000191214 0 0)
(0.000123783 -0.000153255 0 0.00022597 0 0)
(0.000130141 -0.000174136 0 0.000250005 0 0)
(0.000133604 -0.000176706 0 0.000245986 0 0)
(0.000133227 -0.000163573 0 0.000212758 0 0)
(0.00012877 -0.000139899 0 0.000162738 0 0)
(0.00012136 -0.000112093 0 0.000111722 0 0)
(0.000111627 -8.46143e-05 0 6.94883e-05 0 0)
(0.000103508 -6.24208e-05 0 4.07456e-05 0 0)
(9.08215e-05 -3.85992e-05 0 1.76058e-05 0 0)
(2.51693e-05 7.87125e-05 0 0.000270861 0 0)
(2.02424e-06 -1.55222e-05 0 0.000535742 0 0)
(5.62758e-06 5.31414e-05 0 0.000624618 0 0)
(1.87888e-05 9.38532e-05 0 0.000600261 0 0)
(4.05141e-05 0.00011832 0 0.000517239 0 0)
(7.35935e-05 0.000121926 0 0.000412376 0 0)
(0.000114373 9.72584e-05 0 0.000311098 0 0)
(0.000156912 4.47431e-05 0 0.000231791 0 0)
(0.000196208 -2.75661e-05 0 0.000186696 0 0)
(0.000228739 -0.000106751 0 0.000179347 0 0)
(0.000252014 -0.000178223 0 0.00020157 0 0)
(0.000264189 -0.000228989 0 0.000233908 0 0)
(0.000264214 -0.000250959 0 0.000252576 0 0)
(0.000252581 -0.000243459 0 0.000241838 0 0)
(0.000231882 -0.000213397 0 0.000202684 0 0)
(0.000205905 -0.0001718 0 0.000149452 0 0)
(0.000179231 -0.000129432 0 9.84373e-05 0 0)
(0.000153724 -9.21714e-05 0 5.85944e-05 0 0)
(0.000135026 -6.46833e-05 0 3.28921e-05 0 0)
(0.000112245 -3.79503e-05 0 1.35329e-05 0 0)
(2.52156e-05 7.73286e-05 0 0.000260352 0 0)
(1.40821e-06 -1.08041e-05 0 0.000482726 0 0)
(9.4051e-06 6.19968e-05 0 0.00053614 0 0)
(3.25604e-05 0.000105321 0 0.00049592 0 0)
(7.20122e-05 0.000126597 0 0.000416201 0 0)
(0.00013251 0.000120513 0 0.000329158 0 0)
(0.000208967 8.12445e-05 0 0.000253416 0 0)
(0.000291288 1.11701e-05 0 0.000200214 0 0)
(0.000368192 -7.95777e-05 0 0.000175711 0 0)
(0.000428601 -0.000175048 0 0.000179793 0 0)
(0.000463336 -0.000256271 0 0.000203501 0 0)
(0.000467294 -0.000306149 0 0.000229008 0 0)
(0.000441388 -0.000315606 0 0.00023645 0 0)
(0.000392912 -0.000287726 0 0.000215431 0 0)
(0.000333232 -0.000236138 0 0.000171298 0 0)
(0.000273143 -0.000177637 0 0.000119518 0 0)
(0.000220748 -0.00012521 0 7.4327e-05 0 0)
(0.000177679 -8.39118e-05 0 4.18118e-05 0 0)
(0.00014868 -5.59302e-05 0 2.22319e-05 0 0)
(0.000118356 -3.14102e-05 0 8.75121e-06 0 0)
(2.31249e-05 7.0113e-05 0 0.00024262 0 0)
(8.51454e-07 -6.01658e-06 0 0.000411545 0 0)
(1.79723e-05 7.19811e-05 0 0.000426503 0 0)
(6.20839e-05 0.000113167 0 0.000373105 0 0)
(0.000136031 0.000121788 0 0.00030074 0 0)
(0.000244566 9.47176e-05 0 0.000234824 0 0)
(0.000375741 3.1908e-05 0 0.000186872 0 0)
(0.000508322 -5.83494e-05 0 0.000160844 0 0)
(0.000619141 -0.000160952 0 0.00015651 0 0)
(0.00068804 -0.000256216 0 0.000169351 0 0)
(0.000702361 -0.000323746 0 0.000189185 0 0)
(0.000661114 -0.000348705 0 0.000201427 0 0)
(0.000576518 -0.000328436 0 0.000193608 0 0)
(0.000469983 -0.000274473 0 0.000163465 0 0)
(0.000363761 -0.000206623 0 0.000120327 0 0)
(0.000272825 -0.000142825 0 7.77295e-05 0 0)
(0.000203535 -9.29499e-05 0 4.47978e-05 0 0)
(0.00015333 -5.81016e-05 0 2.34868e-05 0 0)
(0.000122164 -3.65782e-05 0 1.17018e-05 0 0)
(9.32792e-05 -1.98583e-05 0 4.4849e-06 0 0)
(2.4312e-05 6.56314e-05 0 0.000205122 0 0)
(1.01086e-06 1.0555e-05 0 0.000300183 0 0)
(4.47149e-05 8.38394e-05 0 0.000277315 0 0)
(0.000134336 0.000105382 0 0.000221725 0 0)
(0.00026866 8.31218e-05 0 0.000171904 0 0)
(0.000441985 2.43846e-05 0 0.000139459 0 0)
(0.000622122 -5.97144e-05 0 0.000124217 0 0)
(0.000770186 -0.000153348 0 0.00012264 0 0)
(0.000855978 -0.000238555 0 0.000130334 0 0)
(0.00086365 -0.000298226 0 0.000141474 0 0)
(0.000794645 -0.00032 0 0.000148457 0 0)
(0.000668136 -0.000300856 0 0.000143823 0 0)
(0.000515494 -0.000249783 0 0.000124484 0 0)
(0.000368691 -0.000184489 0 9.45346e-05 0 0)
(0.000249078 -0.000122792 0 6.27253e-05 0 0)
(0.000163186 -7.51572e-05 0 3.66657e-05 0 0)
(0.000107305 -4.35343e-05 0 1.9221e-05 0 0)
(7.24534e-05 -2.45357e-05 0 9.27891e-06 0 0)
(5.31396e-05 -1.42021e-05 0 4.30135e-06 0 0)
(3.73923e-05 -7.39712e-06 0 1.67792e-06 0 0)
(2.57434e-05 6.13508e-05 0 0.000172435 0 0)
(7.85365e-06 3.16284e-05 0 0.00020228 0 0)
(0.00011333 8.77284e-05 0 0.000153417 0 0)
(0.000281179 7.10846e-05 0 0.000105599 0 0)
(0.000476845 1.03083e-05 0 8.17978e-05 0 0)
(0.000663241 -6.62049e-05 0 7.6241e-05 0 0)
(0.000792724 -0.000137595 0 7.87861e-05 0 0)
(0.000837283 -0.00019081 0 8.32115e-05 0 0)
(0.00079438 -0.000218573 0 8.61562e-05 0 0)
(0.000680226 -0.000218432 0 8.53477e-05 0 0)
(0.000523908 -0.000192999 0 7.90214e-05 0 0)
(0.000360312 -0.000150452 0 6.66822e-05 0 0)
(0.00021956 -0.000102805 0 5.01963e-05 0 0)
(0.000117798 -6.11972e-05 0 3.33095e-05 0 0)
(5.55321e-05 -3.15335e-05 0 1.94726e-05 0 0)
(2.33612e-05 -1.38521e-05 0 1.01311e-05 0 0)
(9.79074e-06 -4.93332e-06 0 4.77658e-06 0 0)
(5.70059e-06 -1.09333e-06 0 2.11666e-06 0 0)
(5.70801e-06 1.88718e-07 0 9.18582e-07 0 0)
(7.4964e-06 6.59601e-07 0 4.06455e-07 0 0)
(3.40217e-05 4.22883e-05 0 6.12472e-05 0 0)
(4.11189e-05 2.74105e-05 0 3.9475e-05 0 0)
(0.000216906 1.30099e-05 0 3.25129e-05 0 0)
(0.000368054 -3.57943e-05 0 3.561e-05 0 0)
(0.000466284 -7.88391e-05 0 4.10896e-05 0 0)
(0.000502157 -0.000101876 0 4.26062e-05 0 0)
(0.000469827 -0.000104909 0 3.97779e-05 0 0)
(0.000387503 -9.37885e-05 0 3.44078e-05 0 0)
(0.000283331 -7.49928e-05 0 2.82071e-05 0 0)
(0.000181952 -5.34134e-05 0 2.20997e-05 0 0)
(0.000101387 -3.26236e-05 0 1.64144e-05 0 0)
(5.10552e-05 -1.54023e-05 0 1.13576e-05 0 0)
(3.08015e-05 -3.40748e-06 0 7.20297e-06 0 0)
(3.31304e-05 3.26876e-06 0 4.14586e-06 0 0)
(4.79186e-05 5.80874e-06 0 2.15538e-06 0 0)
(6.66628e-05 5.85389e-06 0 1.01176e-06 0 0)
(8.41929e-05 4.79428e-06 0 4.31144e-07 0 0)
(9.86436e-05 3.57744e-06 0 1.76283e-07 0 0)
(0.000109061 2.53872e-06 0 7.36604e-08 0 0)
(0.000120086 2.20251e-06 0 4.80033e-08 0 0)
(3.60904e-05 3.15024e-05 0 3.07957e-05 0 0)
(5.5518e-05 6.01491e-06 0 2.31828e-06 0 0)
(0.000111665 -1.30141e-05 0 3.69357e-06 0 0)
(8.78029e-05 -1.427e-05 0 4.95711e-06 0 0)
(6.68459e-05 -8.84357e-06 0 3.84028e-06 0 0)
(5.9015e-05 -3.65095e-06 0 2.25316e-06 0 0)
(6.31502e-05 -4.20097e-07 0 1.13279e-06 0 0)
(7.71359e-05 1.04371e-06 0 5.06145e-07 0 0)
(9.77944e-05 1.4407e-06 0 2.07387e-07 0 0)
(0.000122245 1.36689e-06 0 8.14352e-08 0 0)
(0.000148226 1.15104e-06 0 3.29083e-08 0 0)
(0.000173823 9.3285e-07 0 1.50843e-08 0 0)
(0.000197381 7.48901e-07 0 8.19762e-09 0 0)
(0.000217688 5.85302e-07 0 4.90089e-09 0 0)
(0.000234142 4.20214e-07 0 2.82462e-09 0 0)
(0.000246763 2.56206e-07 0 1.4598e-09 0 0)
(0.000255996 1.10414e-07 0 7.53478e-10 0 0)
(0.000262616 3.59847e-08 0 5.1866e-10 0 0)
(0.000267195 -7.12353e-08 0 4.60422e-10 0 0)
(0.000272875 2.63147e-07 0 4.17105e-10 0 0)
)
;

boundaryField
{
    upperWall
    {
        type            calculated;
        value           uniform (0 0 0 0 0 0);
    }
    lowerWall
    {
        type            calculated;
        value           uniform (0 0 0 0 0 0);
    }
    inlet
    {
        type            calculated;
        value           nonuniform List<symmTensor> 
20
(
(1.73647e-06 -2.1023e-07 1.37905e-07 4.31497e-05 9.59211e-07 1.45033e-06)
(2.2231e-06 -7.98193e-07 2.56478e-07 4.41007e-05 -6.9518e-07 1.49018e-06)
(1.50552e-06 6.65485e-07 1.17501e-08 4.61829e-05 1.60211e-07 1.54948e-06)
(1.74486e-06 -6.73999e-07 -7.95694e-08 4.52619e-05 3.25076e-07 1.77932e-06)
(1.88024e-06 -1.40406e-06 9.94399e-08 4.3631e-05 -1.21562e-06 1.96217e-06)
(1.88454e-06 -1.17711e-08 -9.57659e-10 4.1765e-05 -1.01403e-06 2.07059e-06)
(1.84989e-06 5.10756e-07 -8.80723e-08 4.28045e-05 5.16144e-07 1.9165e-06)
(1.58955e-06 2.17894e-07 4.99622e-09 4.19084e-05 3.04527e-07 1.65885e-06)
(1.78648e-06 5.80149e-07 -2.40774e-07 4.05847e-05 2.93378e-07 1.70203e-06)
(1.93899e-06 9.50094e-07 1.94955e-07 4.48542e-05 -2.80121e-07 2.19015e-06)
(2.2046e-06 -4.7514e-07 2.25679e-07 4.23754e-05 -8.97437e-07 1.90859e-06)
(2.0468e-06 1.24485e-07 1.76923e-07 4.5304e-05 -5.85796e-07 1.43965e-06)
(2.08622e-06 6.26202e-07 -3.35534e-07 4.61283e-05 7.33057e-07 2.12296e-06)
(2.04139e-06 5.81179e-07 -5.61541e-08 4.40551e-05 -4.96172e-07 1.74856e-06)
(2.0612e-06 4.72126e-07 1.47109e-07 4.42684e-05 -1.16593e-07 1.70073e-06)
(1.67837e-06 -7.39097e-07 3.49397e-08 4.26144e-05 -7.43379e-07 2.13253e-06)
(1.80558e-06 -5.80023e-08 -2.69665e-07 4.51204e-05 -2.34374e-07 1.80521e-06)
(1.90584e-06 3.81798e-07 1.50767e-07 4.36841e-05 -6.39987e-07 1.6885e-06)
(1.73999e-06 5.62647e-07 -2.68762e-07 4.35803e-05 7.92033e-08 2.43435e-06)
(2.03838e-06 2.30957e-07 3.55087e-07 4.60725e-05 -8.01277e-07 2.07058e-06)
)
;
    }
    outlet
    {
        type            calculated;
        value           nonuniform List<symmTensor> 
20
(
(0.000332219 1.56721e-06 0 8.11436e-09 0 0)
(0.00026357 6.69977e-06 0 1.80969e-07 0 0)
(0.000102652 8.23819e-06 0 7.4668e-07 0 0)
(3.41852e-05 6.52057e-06 0 1.99618e-06 0 0)
(1.48961e-05 3.51112e-06 0 4.07745e-06 0 0)
(1.06126e-05 2.35608e-07 0 6.96495e-06 0 0)
(1.08756e-05 -3.52434e-06 0 1.04011e-05 0 0)
(1.38906e-05 -8.27257e-06 0 1.39841e-05 0 0)
(2.01283e-05 -1.42149e-05 0 1.72378e-05 0 0)
(3.05487e-05 -2.11276e-05 0 1.96564e-05 0 0)
(4.60148e-05 -2.83491e-05 0 2.07441e-05 0 0)
(6.67071e-05 -3.4734e-05 0 2.01081e-05 0 0)
(9.08215e-05 -3.85992e-05 0 1.76058e-05 0 0)
(0.000112245 -3.79503e-05 0 1.35329e-05 0 0)
(0.000118356 -3.14102e-05 0 8.75121e-06 0 0)
(9.32792e-05 -1.98583e-05 0 4.4849e-06 0 0)
(3.73923e-05 -7.39712e-06 0 1.67792e-06 0 0)
(7.4964e-06 6.59601e-07 0 4.06455e-07 0 0)
(0.000120086 2.20251e-06 0 4.80033e-08 0 0)
(0.000272875 2.63147e-07 0 4.17105e-10 0 0)
)
;
    }
    frontAndBack
    {
        type            empty;
    }
}


// ************************************************************************* //
