/*--------------------------------*- C++ -*----------------------------------*\
  =========                 |
  \\      /  F ield         | OpenFOAM: The Open Source CFD Toolbox
   \\    /   O peration     | Website:  https://openfoam.org
    \\  /    A nd           | Version:  7
     \\/     M anipulation  |
\*---------------------------------------------------------------------------*/
FoamFile
{
    version     2.0;
    format      ascii;
    class       volScalarField;
    location    "2.4475";
    object      pPrime2Mean;
}
// * * * * * * * * * * * * * * * * * * * * * * * * * * * * * * * * * * * * * //

dimensions      [2 -2 -4 0 0 0 0];

internalField   nonuniform List<scalar> 
7920
(
712081
711205
711216
710278
710223
709132
708951
707709
707383
706026
705576
704144
703592
702111
701474
699951
699236
697673
696908
695414
712037
711142
711128
710171
710110
709008
708823
707571
707243
705880
705428
703991
703437
701952
701312
699784
699068
697496
696737
695235
712038
711122
711109
710158
710096
709003
708825
707589
707270
705918
705471
704041
703491
702010
701372
699847
699127
697561
696781
695268
712038
711125
711110
710155
710092
708992
708806
707560
707236
705879
705432
703999
703449
701967
701330
699803
699086
697510
696738
695178
712041
711122
711106
710150
710084
708986
708802
707562
707243
705892
705448
704019
703471
701991
701356
699832
699113
697544
696756
695192
712038
711117
711099
710142
710077
708979
708795
707554
707234
705880
705436
704006
703458
701977
701342
699817
699100
697528
696744
695168
712038
711117
711099
710142
710077
708979
708795
707554
707234
705880
705436
704006
703458
701977
701342
699818
699100
697528
696744
695168
712041
711122
711106
710150
710084
708986
708802
707562
707243
705892
705448
704019
703471
701991
701356
699832
699113
697544
696755
695192
712038
711125
711110
710155
710092
708992
708806
707560
707236
705879
705432
703999
703449
701967
701330
699803
699086
697511
696739
695178
712038
711122
711109
710158
710096
709003
708825
707589
707270
705918
705471
704041
703491
702010
701372
699847
699126
697562
696779
695268
712037
711142
711128
710171
710110
709008
708823
707571
707243
705880
705428
703991
703437
701952
701312
699785
699068
697496
696736
695235
712081
711205
711216
710278
710223
709132
708951
707709
707383
706027
705576
704144
703592
702111
701474
699951
699236
697673
696907
695414
711382
710279
710521
709385
709554
708270
708305
706905
706799
705309
705068
703522
703162
701585
701121
699518
698959
697329
696698
695087
711423
710278
710521
709397
709577
708316
708367
706987
706891
705415
705178
703640
703283
701710
701248
699649
699088
697468
696840
695249
711421
710293
710543
709410
709586
708307
708347
706953
706851
705368
705129
703588
703229
701654
701190
699586
699024
697391
696760
695097
711442
710289
710522
709379
709554
708287
708338
706958
706867
705395
705163
703629
703275
701705
701244
699645
699081
697454
696816
695168
711439
710286
710521
709378
709556
708283
708331
706944
706849
705372
705137
703600
703245
701673
701212
699612
699050
697415
696780
695098
711447
710290
710523
709377
709553
708283
708332
706949
706856
705382
705149
703614
703259
701689
701230
699631
699068
697435
696796
695122
711447
710290
710523
709377
709553
708283
708332
706949
706856
705382
705149
703614
703259
701689
701230
699631
699068
697435
696795
695121
711439
710286
710521
709378
709556
708283
708331
706944
706849
705372
705137
703600
703245
701673
701212
699612
699050
697415
696781
695098
711442
710289
710522
709379
709554
708287
708338
706958
706867
705395
705163
703629
703275
701705
701244
699645
699081
697455
696815
695168
711421
710293
710543
709410
709586
708307
708347
706953
706851
705368
705129
703588
703229
701654
701190
699587
699024
697391
696759
695097
711423
710278
710521
709397
709577
708316
708367
706987
706891
705415
705178
703640
703283
701710
701248
699649
699087
697469
696838
695250
711382
710279
710521
709385
709554
708270
708305
706905
706799
705309
705068
703522
703162
701585
701121
699518
698958
697329
696697
695089
711282
710185
710312
709241
709389
708224
708251
706929
706803
705370
705119
703613
703254
701697
701241
699635
699091
697429
696841
695200
711306
710192
710315
709238
709379
708209
708237
706920
706802
705375
705129
703628
703271
701714
701257
699650
699103
697440
696846
695186
711308
710199
710321
709240
709376
708203
708232
706918
706802
705376
705132
703631
703276
701721
701265
699657
699110
697444
696845
695165
711322
710204
710324
709238
709369
708192
708220
706907
706793
705370
705128
703629
703276
701723
701269
699663
699116
697450
696849
695165
711323
710207
710326
709238
709367
708189
708218
706907
706794
705371
705128
703629
703276
701722
701269
699663
699116
697450
696848
695162
711327
710208
710327
709238
709365
708187
708215
706904
706792
705369
705127
703629
703276
701723
701270
699664
699117
697452
696848
695164
711327
710208
710327
709238
709365
708187
708215
706904
706792
705369
705127
703629
703276
701723
701270
699664
699117
697452
696848
695164
711323
710207
710326
709238
709367
708189
708218
706907
706794
705371
705128
703629
703276
701722
701269
699663
699116
697450
696848
695163
711322
710204
710324
709238
709369
708192
708220
706907
706793
705370
705128
703629
703276
701723
701269
699663
699116
697451
696849
695166
711308
710199
710321
709240
709376
708203
708232
706918
706802
705376
705132
703631
703276
701721
701265
699658
699109
697445
696844
695166
711306
710192
710315
709238
709379
708209
708237
706920
706802
705375
705130
703628
703271
701714
701257
699650
699102
697441
696844
695188
711282
710185
710312
709241
709389
708224
708251
706929
706803
705370
705119
703613
703254
701697
701241
699635
699091
697431
696839
695204
711282
710185
710312
709241
709389
708224
708251
706929
706803
705370
705119
703613
703254
701697
701241
699635
699091
697429
696841
695200
711306
710192
710316
709238
709379
708209
708237
706920
706802
705375
705130
703628
703271
701714
701257
699650
699103
697440
696846
695186
711308
710199
710322
709240
709376
708203
708232
706919
706802
705376
705132
703632
703276
701721
701265
699657
699110
697444
696845
695165
711322
710204
710324
709238
709369
708192
708220
706907
706793
705370
705128
703630
703276
701723
701269
699663
699116
697451
696849
695165
711323
710207
710326
709238
709367
708189
708218
706907
706794
705371
705128
703629
703276
701722
701269
699663
699116
697450
696848
695163
711327
710209
710327
709238
709365
708187
708215
706904
706792
705369
705127
703629
703276
701723
701270
699664
699117
697452
696848
695164
711327
710209
710327
709238
709365
708187
708215
706904
706792
705369
705127
703629
703276
701723
701270
699664
699117
697452
696848
695164
711323
710207
710326
709238
709367
708189
708218
706907
706794
705371
705128
703629
703276
701722
701269
699663
699116
697450
696848
695163
711322
710204
710324
709238
709369
708192
708220
706907
706793
705370
705128
703630
703276
701723
701270
699663
699116
697451
696849
695166
711308
710199
710322
709240
709376
708203
708232
706919
706802
705376
705132
703631
703276
701721
701265
699658
699109
697445
696844
695166
711306
710192
710316
709238
709379
708209
708237
706920
706802
705375
705130
703628
703271
701714
701257
699650
699102
697441
696844
695188
711282
710185
710312
709241
709389
708224
708251
706929
706803
705370
705119
703613
703254
701697
701241
699635
699091
697431
696839
695204
711383
710279
710521
709385
709554
708270
708305
706905
706799
705310
705068
703522
703163
701585
701121
699518
698959
697329
696698
695087
711423
710279
710522
709397
709577
708316
708367
706987
706891
705415
705178
703641
703283
701710
701248
699649
699088
697468
696840
695249
711422
710293
710544
709410
709586
708308
708348
706954
706852
705368
705129
703588
703229
701654
701190
699586
699024
697391
696760
695097
711442
710289
710523
709380
709555
708287
708338
706958
706867
705395
705163
703629
703275
701705
701244
699645
699081
697455
696816
695168
711440
710286
710521
709378
709556
708284
708331
706945
706849
705372
705137
703600
703245
701673
701213
699612
699050
697415
696780
695099
711447
710290
710523
709377
709553
708283
708332
706949
706856
705382
705149
703614
703260
701690
701230
699631
699068
697435
696796
695122
711447
710290
710523
709377
709553
708283
708332
706949
706856
705382
705149
703614
703260
701690
701230
699631
699068
697435
696795
695122
711440
710286
710521
709378
709556
708284
708331
706945
706849
705372
705137
703601
703245
701673
701213
699612
699050
697416
696781
695098
711442
710289
710523
709380
709555
708287
708338
706958
706867
705395
705163
703629
703275
701705
701244
699645
699081
697455
696815
695168
711422
710293
710544
709410
709586
708308
708348
706954
706852
705368
705129
703588
703229
701654
701190
699587
699024
697391
696760
695098
711423
710279
710522
709397
709577
708316
708367
706987
706891
705415
705178
703641
703283
701710
701248
699649
699088
697469
696838
695250
711383
710279
710521
709385
709554
708270
708305
706905
706799
705310
705068
703522
703162
701585
701122
699519
698958
697329
696697
695089
712081
711205
711217
710278
710223
709133
708951
707709
707384
706027
705576
704144
703592
702112
701474
699952
699236
697674
696908
695414
712037
711142
711128
710171
710110
709008
708823
707571
707244
705880
705428
703991
703438
701952
701313
699785
699069
697496
696737
695235
712038
711123
711109
710159
710096
709004
708826
707589
707270
705918
705472
704042
703492
702011
701373
699847
699127
697561
696781
695268
712038
711125
711110
710155
710092
708992
708806
707560
707237
705879
705432
703999
703449
701967
701330
699803
699087
697511
696738
695178
712041
711123
711106
710151
710084
708986
708802
707562
707243
705892
705448
704019
703471
701992
701357
699833
699113
697544
696756
695192
712039
711117
711099
710143
710077
708979
708795
707554
707234
705881
705436
704006
703458
701977
701343
699818
699101
697529
696744
695168
712039
711117
711099
710143
710077
708979
708795
707554
707234
705881
705436
704006
703458
701977
701343
699818
699101
697529
696745
695168
712041
711123
711106
710151
710084
708986
708802
707562
707243
705892
705448
704019
703471
701991
701357
699833
699113
697544
696755
695192
712038
711125
711110
710155
710092
708992
708806
707560
707237
705879
705432
703999
703449
701967
701330
699803
699086
697511
696739
695178
712038
711123
711109
710159
710096
709004
708826
707589
707270
705918
705472
704042
703491
702011
701373
699847
699127
697562
696780
695269
712037
711142
711128
710171
710110
709008
708823
707571
707244
705880
705428
703991
703438
701952
701313
699785
699068
697496
696736
695236
712081
711205
711217
710278
710223
709133
708951
707709
707384
706027
705576
704144
703592
702112
701474
699951
699236
697674
696907
695414
693390
686584
683270
676221
672261
664870
660366
652685
647692
639749
634307
626127
620274
611881
605649
597059
590479
581710
574807
565875
558675
549594
542122
532907
525184
515849
507898
498455
490297
480761
472416
462800
454289
444606
435949
426214
417431
407659
398773
388982
380017
370226
361197
351394
342279
332472
323330
313577
304445
294763
285670
276080
267047
257567
248615
239259
230408
221191
212462
203398
194811
185916
177492
168781
160543
152034
144003
135713
127916
119864
112327
104535
97286.1
89776
82848.8
75649.6
69078.3
62218.7
56048.7
49568.4
43843
37786.9
32572.7
26995.5
22353.1
17372.8
13435
9035.24
5834.03
2592.09
692996
686208
682907
675868
671916
664529
660031
652354
647367
639430
633996
625822
619976
611588
605362
596778
590203
581439
574542
565614
558419
549343
541875
532663
524945
515613
507666
498227
490072
480540
472198
462585
454078
444399
435745
426014
417235
407467
398585
388798
379837
370050
361025
351227
342116
332314
323176
313427
304300
294623
285534
275949
266921
257445
248498
239146
230300
221087
212363
203304
194721
185830
177412
168705
160471
151966
143940
135654
127861
119813
112279
104491
97245.9
89739.5
82815.5
75619.8
69051.5
62195.1
56027.7
49550.4
43827.3
37773.9
32561.7
26986.8
22346.1
17367.6
13431.1
9032.57
5831.54
2589.94
692976
686180
682859
675814
671855
664467
659963
652285
647293
639357
633918
625745
619896
611509
605282
596700
590124
581363
574466
565542
558348
549275
541808
532601
524885
515557
507612
498176
490024
480495
472156
462546
454041
444364
435713
425984
417207
407441
398560
388775
379815
370029
361005
351207
342097
332296
323158
313410
304283
294606
285517
275932
266903
257427
248480
239128
230282
221068
212343
203283
194701
185809
177390
168683
160448
151942
143916
135629
127836
119788
112254
104466
97220.8
89714.2
82790.6
75595
69027.2
62171.1
56004.6
49527.9
43805.9
37753.4
32542.6
26968.9
22330
17353.1
13418.8
9022.29
5824.08
2585.17
692889
686135
682823
675787
671834
664448
659947
652270
647281
639345
633910
625737
619890
611503
605278
596695
590120
581358
574461
565536
558342
549267
541800
532591
524874
515544
507598
498161
490008
480477
472138
462527
454020
444343
435691
425961
417184
407417
398536
388751
379791
370005
360981
351184
342074
332273
323136
313388
304262
294585
285497
275913
266886
257411
248464
239113
230268
221055
212332
203273
194691
185801
177383
168677
160443
151939
143914
135628
127836
119789
112255
104468
97223.5
89717.8
82794.7
75599.8
69032.3
62176.8
56010.5
49534.1
43812.1
37759.8
32548.8
26975
22335.7
17358.4
13423.4
9026.24
5826.51
2586.59
692907
686133
682801
675755
671797
664408
659904
652224
647231
639293
633854
625681
619831
611444
605216
596633
590057
581295
574398
565473
558278
549205
541738
532530
524813
515484
507539
498103
489950
480421
472082
462472
453967
444290
435639
425910
417133
407368
398488
388703
379744
369959
360935
351138
342029
332228
323092
313344
304218
294542
285454
275871
266844
257369
248423
239072
230227
221015
212292
203233
194652
185762
177344
168639
160406
151902
143877
135592
127801
119754
112222
104435
97191.7
89686.9
82764.8
75570.9
69004.7
62150.3
55985.3
49510.3
43789.9
37738.9
32529.6
26957.5
22320.1
17344.7
13411.8
9016.78
5819.72
2582.12
692885
686123
682797
675761
671809
664423
659922
652244
647254
639318
633881
625709
619861
611474
605248
596665
590090
581328
574431
565506
558312
549238
541770
532562
524845
515515
507570
498133
489980
480450
472110
462500
453994
444316
435665
425935
417158
407392
398511
388725
379766
369981
360956
351159
342049
332248
323112
313364
304238
294562
285473
275890
266862
257387
248441
239090
230245
221033
212309
203251
194669
185779
177361
168655
160422
151918
143893
135608
127816
119769
112236
104449
97205.7
89700.5
82777.9
75583.6
69016.9
62162
55996.5
49520.9
43799.8
37748.2
32538.2
26965.4
22327.1
17350.8
13417
9020.99
5822.52
2583.98
692892
686122
682790
675745
671788
664399
659894
652213
647221
639283
633845
625671
619822
611434
605207
596624
590048
581286
574389
565463
558269
549195
541728
532520
524803
515474
507528
498092
489940
480410
472071
462461
453955
444279
435627
425899
417122
407356
398476
388691
379732
369948
360924
351127
342018
332218
323082
313335
304209
294534
285446
275863
266836
257362
248416
239065
230221
221009
212287
203229
194648
185758
177341
168636
160403
151900
143875
135591
127800
119753
112221
104435
97191.8
89687.2
82765.4
75571.7
69005.7
62151.5
55986.6
49511.7
43791.4
37740.5
32531.2
26959
22321.6
17346.1
13413.1
9017.84
5820.4
2582.43
692900
686131
682803
675765
671812
664428
659925
652247
647257
639321
633884
625712
619863
611476
605249
596667
590091
581330
574433
565508
558313
549240
541773
532564
524847
515518
507573
498137
489984
480454
472114
462504
453998
444322
435670
425940
417163
407397
398516
388731
379771
369986
360962
351165
342055
332254
323117
313369
304242
294566
285478
275894
266866
257391
248444
239093
230248
221035
212311
203252
194671
185780
177362
168656
160422
151918
143893
135607
127815
119768
112235
104448
97203.9
89698.6
82775.9
75581.4
69014.7
62159.7
55994.2
49518.5
43797.5
37745.9
32536.1
26963.3
22325.2
17349.1
13415.4
9019.72
5821.71
2583.51
692897
686128
682807
675762
671804
664413
659909
652228
647237
639299
633861
625688
619839
611451
605225
596642
590066
581304
574407
565481
558287
549213
541746
532538
524820
515491
507546
498110
489957
480427
472088
462477
453972
444295
435644
425915
417138
407372
398492
388707
379748
369964
360940
351144
342034
332234
323098
313351
304226
294550
285462
275880
266853
257378
248433
239082
230238
221026
212304
203246
194665
185775
177358
168653
160420
151916
143892
135607
127816
119769
112237
104450
97206.7
89701.8
82779.6
75585.5
69018.9
62164.2
55998.8
49523.3
43802.2
37750.6
32540.6
26967.7
22329.4
17352.9
13419
9022.6
5824.02
2584.71
692965
686172
682854
675817
671863
664479
659977
652302
647312
639377
633940
625769
619920
611535
605308
596727
590152
581391
574494
565570
558376
549304
541837
532630
524913
515585
507639
498204
490051
480522
472182
462572
454067
444390
435738
426009
417231
407465
398584
388798
379838
370052
361027
351229
342118
332316
323179
313430
304303
294625
285536
275951
266922
257445
248497
239145
230298
221084
212359
203299
194716
185824
177404
168697
160462
151956
143929
135642
127849
119800
112265
104477
97231.3
89724.4
82800.3
75604.2
69036
62179.5
56012.5
49535.3
43812.9
37759.8
32548.5
26974.2
22334.8
17357.2
13422.3
9025.14
5826.08
2586.47
693000
686190
682878
675830
671873
664482
659981
652300
647310
639371
633935
625760
619912
611524
605297
596713
590137
581373
574476
565548
558354
549278
541810
532599
524881
515550
507603
498165
490011
480479
472139
462527
454020
444342
435689
425959
417181
407414
398532
388746
379786
370001
360976
351179
342069
332267
323131
313383
304256
294580
285492
275909
266881
257406
248460
239109
230264
221052
212329
203270
194689
185799
177381
168676
160442
151938
143913
135628
127836
119789
112256
104469
97225.3
89719.9
82796.9
75602.2
69035
62179.6
56013.4
49537.1
43815.2
37762.8
32551.8
26977.9
22338.5
17361
13425.8
9028.26
5828.5
2587.67
693375
686577
683276
676239
672287
664902
660404
652726
647737
639797
634358
626180
620329
611936
605706
597117
590537
581769
574866
565934
558735
549654
542182
532966
525243
515907
507956
498513
490354
480817
472472
462855
454343
444659
436002
426265
417482
407709
398823
389031
380065
370273
361243
351439
342323
332516
323373
313619
304486
294803
285709
276119
267085
257604
248651
239294
230443
221224
212494
203429
194842
185945
177521
168809
160570
152060
144029
135737
127940
119887
112348
104555
97305.6
89794.5
82866.4
75666.2
69093.9
62233.3
56062.3
49581.1
43854.6
37797.5
32582.3
27004
22360.6
17379.3
13440.4
9039.64
5837.22
2594.2
693277
686314
683280
676128
672332
664869
660469
652733
647809
639823
634430
626214
620395
611969
605762
597144
590580
581786
574895
565940
558749
549649
542182
532950
525231
515880
507932
498477
490321
480774
472432
462806
454298
444607
435953
426212
417432
407656
398773
388979
380018
370224
361198
351394
342283
332475
323337
313582
304455
294773
285683
276094
267065
257585
248638
239282
230436
221219
212495
203432
194849
185954
177535
168825
160590
152082
144055
135765
127972
119920
112385
104592
97346.6
89835.3
82910.4
75709.3
69139.7
62277.1
56108
49623.5
43897.6
37835.8
32619.4
27034.5
22387.2
17397.5
13451.7
9039.8
5825.25
2578.63
693687
686688
683647
676497
672699
665239
660840
653106
648182
640195
634800
626581
620760
612330
606120
597497
590930
582131
575236
566276
559080
549975
542504
533266
525543
516187
508235
498774
490614
481062
472715
463084
454571
444875
436216
426470
417686
407904
399017
389217
380251
370452
361421
351611
342494
332681
323538
313778
304645
294957
285862
276268
267233
257748
248795
239434
230582
221360
212630
203562
194974
186074
177649
168934
160694
152180
144149
135854
128055
119998
112459
104662
97411.3
89895.3
82966
75760.2
69186.5
62319.4
56146.3
49657.6
43928
37862.2
32642.2
27053.6
22403
17410.1
13461.2
9046.57
5829.83
2581.74
693372
686496
683461
676317
672522
665061
660661
652926
648003
640018
634625
626409
620589
612162
605953
597333
590769
581972
575080
566123
558929
549826
542357
533122
525401
516048
508097
498639
490481
480930
472585
462957
454445
444752
436095
426351
417568
407789
398903
389106
380142
370346
361317
351510
342395
332585
323444
313686
304556
294871
285779
276187
267156
257673
248723
239365
230516
221296
212569
203503
194918
186021
177599
168886
160649
152138
144109
135816
128021
119966
112429
104634
97385.9
89872.2
82944.8
75741.3
69169.4
62304.4
56133
49646.2
43918.1
37854.1
32635.5
27048.5
22399.1
17407.4
13459.6
9045.84
5829.66
2581.5
693564
686645
683607
676459
672662
665201
660800
653064
648140
640153
634758
626540
620718
612289
606079
597456
590889
582091
575196
566237
559042
549937
542466
533229
525507
516152
508200
498739
490580
481028
472681
463051
454538
444843
436185
426439
417655
407874
398987
389188
380222
370424
361393
351584
342468
332655
323513
313753
304621
294934
285840
276246
267212
257728
248775
239415
230564
221342
212613
203545
194958
186059
177635
168920
160681
152168
144137
135842
128045
119988
112450
104653
97403.1
89887.6
82958.9
75753.7
69180.5
62314
56141.4
49653.2
43924.1
37858.7
32639.2
27051.1
22400.9
17408.4
13460
9045.66
5829.59
2581.35
693400
686539
683504
676365
672574
665114
660714
652979
648056
640072
634679
626463
620643
612215
606006
597385
590820
582023
575130
566172
558978
549874
542405
533169
525447
516093
508142
498682
490524
480973
472627
462998
454485
444791
436133
426389
417606
407825
398939
389141
380176
370379
361349
351541
342426
332615
323473
313715
304584
294898
285805
276212
267180
257696
248745
239386
230536
221316
212588
203521
194935
186037
177614
168901
160663
152151
144121
135828
128031
119976
112438
104642
97393.6
89879.2
82951.2
75747.1
69174.6
62309
56137.1
49649.7
43921.2
37856.6
32637.6
27050.2
22400.4
17408.3
13460.2
9046.12
5829.92
2581.56
693473
686586
683544
676401
672607
665145
660743
653006
648081
640094
634700
626482
620661
612231
606021
597400
590833
582035
575141
566183
558988
549884
542414
533177
525455
516100
508149
498690
490530
480979
472633
463004
454491
444797
436139
426394
417611
407830
398944
389146
380181
370383
361354
351545
342430
332618
323476
313718
304586
294900
285807
276214
267181
257697
248746
239386
230536
221316
212588
203520
194934
186036
177613
168899
160661
152149
144119
135825
128028
119973
112435
104639
97390.2
89875.6
82947.6
75743.3
69170.9
62305.2
56133.4
49646
43917.6
37853.1
32634.2
27046.9
22397.4
17405.5
13457.7
9043.96
5828.41
2580.45
693464
686593
683561
676423
672633
665175
660776
653041
648119
640135
634742
626526
620706
612277
606068
597447
590881
582083
575189
566231
559036
549932
542461
533225
525503
516147
508196
498736
490576
481024
472678
463048
454535
444840
436181
426435
417652
407870
398984
389184
380219
370421
361391
351581
342466
332653
323510
313751
304619
294932
285838
276245
267211
257727
248775
239415
230564
221343
212614
203546
194959
186060
177636
168922
160683
152170
144139
135845
128048
119991
112453
104656
97406.4
89891.1
82962.4
75757.3
69184.1
62317.6
56145
49656.8
43927.5
37862.2
32642.5
27054.3
22403.9
17411.1
13462.4
9047.78
5831.25
2582.41
693409
686530
683486
676345
672550
665088
660685
652947
648022
640036
634641
626424
620603
612174
605965
597344
590778
581981
575088
566130
558936
549832
542363
533127
525406
516052
508101
498642
490484
480934
472588
462959
454448
444754
436097
426353
417570
407790
398905
389107
380143
370346
361318
351510
342396
332584
323443
313686
304555
294870
285777
276186
267154
257671
248720
239362
230513
221293
212565
203499
194914
186016
177594
168881
160644
152133
144103
135811
128015
119960
112423
104628
97379.8
89866
82938.7
75735.2
69163.4
62298.5
56127.3
49640.6
43912.8
37848.9
32630.6
27043.9
22394.9
17403.5
13456.2
9042.91
5827.58
2579.88
693554
686648
683620
676480
672690
665234
660836
653104
648182
640198
634806
626589
620769
612340
606131
597510
590943
582145
575251
566292
559097
549991
542521
533283
525561
516205
508253
498792
490632
481079
472732
463101
454588
444892
436233
426486
417702
407920
399032
389232
380266
370467
361436
351626
342509
332695
323552
313792
304659
294971
285876
276282
267247
257762
248809
239448
230596
221374
212644
203575
194987
186087
177662
168947
160707
152193
144161
135866
128067
120010
112470
104673
97422.1
89905.8
82976.1
75770
69195.9
62328.5
56154.9
49665.8
43935.7
37869.4
32648.9
27059.8
22408.6
17415.1
13465.6
9050.2
5832.98
2583.63
693380
686481
683438
676290
672493
665029
660626
652889
647964
639977
634583
626365
620545
612117
605908
597288
590722
581926
575033
566076
558883
549780
542312
533077
525356
516003
508053
498595
490437
480888
472543
462915
454404
444712
436055
426312
417530
407751
398866
389070
380106
370310
361282
351476
342362
332552
323412
313655
304526
294841
285750
276159
267128
257646
248696
239339
230491
221272
212545
203480
194896
185999
177578
168866
160629
152119
144091
135799
128004
119950
112413
104619
97371.6
89858.6
82932
75729.2
69158
62293.7
56123.1
49637
43909.8
37846.4
32628.6
27042.3
22393.7
17402.8
13455.8
9042.74
5827.4
2579.82
693668
686678
683652
676513
672723
665269
660874
653143
648223
640238
634846
626629
620810
612381
606172
597550
590984
582185
575291
566331
559136
550030
542559
533321
525598
516242
508289
498828
490667
481114
472767
463135
454622
444925
436266
426519
417734
407951
399063
389262
380295
370496
361464
351654
342536
332722
323578
313817
304684
294995
285899
276304
267269
257783
248829
239467
230615
221392
212662
203592
195003
186103
177677
168961
160721
152206
144174
135878
128078
120021
112481
104682
97431
89914.1
82983.9
75777.2
69202.6
62334.6
56160.6
49670.9
43940.3
37873.5
32652.5
27063
22411.3
17417.3
13467.4
9051.56
5833.66
2584.23
693276
686288
683242
676085
672285
664819
660416
652678
647752
639765
634371
626154
620334
611908
605700
597082
590518
581724
574833
565879
558688
549588
542122
532890
525172
515822
507875
498420
490265
480718
472377
462752
454244
444555
435901
426161
417382
407607
398725
388931
379971
370178
361153
351350
342239
332432
323295
313541
304415
294733
285645
276057
267029
257550
248603
239248
230403
221187
212463
203401
194819
185925
177507
168798
160564
152056
144030
135741
127949
119898
112364
104572
97327.3
89817
82893
75692.8
69124.2
62262.5
56094.4
49610.9
43886.1
37825.2
32609.9
27026
22379.8
17391.2
13446.5
9035.66
5822.21
2576.36
693605
686993
683978
676960
673211
665791
661450
653714
648843
640833
635482
627231
621441
612976
606788
598129
591576
582742
575855
566863
559670
550535
543064
533799
526074
516694
508738
499256
491091
481519
473168
463520
455002
445291
436628
426867
418078
408284
399392
389581
380611
370801
361767
351947
342827
333004
323857
314088
304952
295256
286157
276555
267517
258025
249068
239700
230845
221616
212883
203808
195217
186310
177882
169160
160917
152397
144361
136059
128257
120193
112649
104844
97589.1
90065
83130.3
75915.8
69336.1
62459.5
56280
49780.8
44044.5
37966.9
32740.4
27138.8
22482.2
17474.6
13520.5
9087.94
5866.48
2597.96
693587
686985
683967
676950
673201
665781
661440
653704
648834
640825
635473
627222
621433
612968
606780
598122
591568
582735
575848
566856
559664
550528
543057
533793
526068
516688
508732
499250
491086
481514
473163
463514
454997
445286
436622
426862
418074
408279
399388
389576
380606
370797
361763
351943
342823
333000
323853
314084
304948
295252
286154
276552
267514
258022
249065
239697
230843
221614
212881
203805
195214
186308
177880
169158
160915
152395
144360
136058
128256
120192
112648
104843
97588
90064
83129.4
75915
69335.4
62458.8
56279.4
49780.2
44044
37966.5
32740.1
27138.5
22482
17474.4
13520.4
9087.8
5866.37
2597.81
693563
686981
683967
676952
673203
665783
661441
653705
648834
640825
635474
627223
621434
612969
606780
598122
591569
582735
575848
566856
559664
550529
543058
533793
526068
516688
508733
499250
491086
481514
473163
463515
454998
445286
436623
426862
418074
408279
399388
389577
380607
370798
361764
351944
342824
333001
323854
314085
304949
295253
286155
276553
267515
258022
249066
239698
230843
221614
212881
203806
195215
186309
177880
169159
160915
152395
144360
136058
128256
120192
112648
104843
97588.1
90064
83129.4
75914.9
69335.3
62458.7
56279.3
49780.1
44043.9
37966.4
32740
27138.4
22481.8
17474.2
13520.3
9087.74
5866.33
2597.63
693566
686972
683955
676942
673195
665775
661433
653696
648826
640817
635465
627215
621426
612961
606772
598114
591561
582728
575841
566849
559656
550521
543050
533786
526061
516681
508726
499243
491079
481507
473156
463508
454991
445280
436616
426856
418068
408273
399382
389570
380601
370792
361758
351938
342818
332995
323848
314079
304943
295248
286149
276547
267510
258017
249061
239693
230839
221610
212877
203802
195211
186305
177877
169155
160912
152392
144357
136055
128253
120189
112646
104841
97585.8
90061.9
83127.5
75913.1
69333.7
62457.2
56277.9
49778.8
44042.7
37965.3
32739
27137.6
22481.2
17473.7
13519.8
9087.37
5866.05
2597.46
693560
686971
683956
676945
673200
665781
661438
653701
648830
640821
635470
627220
621430
612965
606777
598118
591565
582732
575845
566853
559660
550525
543054
533790
526065
516685
508729
499247
491083
481511
473160
463511
454994
445283
436619
426859
418071
408276
399385
389573
380604
370794
361760
351940
342820
332997
323850
314082
304945
295250
286151
276549
267512
258019
249063
239695
230841
221612
212879
203804
195212
186306
177878
169156
160913
152393
144358
136056
128254
120190
112646
104842
97586.6
90062.6
83128.2
75913.8
69334.2
62457.7
56278.4
49779.3
44043.1
37965.7
32739.4
27137.9
22481.4
17473.9
13520
9087.52
5866.17
2597.48
693562
686968
683951
676941
673198
665779
661436
653698
648827
640818
635467
627217
621428
612962
606774
598116
591562
582729
575842
566850
559658
550523
543052
533787
526062
516682
508727
499245
491081
481509
473158
463509
454992
445281
436618
426857
418069
408274
399383
389572
380602
370793
361759
351939
342819
332996
323849
314080
304944
295248
286150
276548
267511
258018
249062
239694
230840
221611
212878
203803
195212
186305
177877
169156
160913
152392
144357
136055
128253
120189
112646
104841
97586.2
90062.2