/*--------------------------------*- C++ -*----------------------------------*\
  =========                 |
  \\      /  F ield         | OpenFOAM: The Open Source CFD Toolbox
   \\    /   O peration     | Website:  https://openfoam.org
    \\  /    A nd           | Version:  7
     \\/     M anipulation  |
\*---------------------------------------------------------------------------*/
FoamFile
{
    version     2.0;
    format      ascii;
    class       volScalarField;
    location    "3.6";
    object      T;
}
// * * * * * * * * * * * * * * * * * * * * * * * * * * * * * * * * * * * * * //

dimensions      [0 0 0 1 0 0 0];

internalField   nonuniform List<scalar> 
1200
(
283.152
283.152
283.151
283.15
283.15
283.15
283.15
283.15
283.15
283.149
283.15
283.149
283.151
283.146
283.155
283.14
283.167
283.112
283.242
282.863
283.15
283.15
283.15
283.15
283.151
283.15
283.151
283.15
283.151
283.149
283.152
283.146
283.155
283.14
283.165
283.123
283.195
283.069
283.289
282.911
283.15
283.148
283.148
283.148
283.148
283.148
283.149
283.148
283.15
283.147
283.152
283.145
283.155
283.14
283.162
283.129
283.178
283.106
283.207
283.073
283.15
283.148
283.147
283.146
283.146
283.146
283.146
283.145
283.147
283.145
283.148
283.145
283.149
283.143
283.151
283.141
283.152
283.14
283.152
283.143
283.15
283.149
283.148
283.147
283.146
283.146
283.145
283.145
283.145
283.144
283.144
283.144
283.144
283.144
283.143
283.145
283.142
283.146
283.139
283.15
283.15
283.149
283.148
283.147
283.146
283.146
283.145
283.145
283.145
283.145
283.144
283.144
283.144
283.144
283.143
283.143
283.142
283.143
283.141
283.143
283.15
283.149
283.148
283.147
283.146
283.146
283.146
283.145
283.145
283.145
283.144
283.144
283.144
283.143
283.143
283.143
283.143
283.142
283.143
283.142
283.15
283.149
283.148
283.147
283.146
283.146
283.146
283.145
283.145
283.145
283.144
283.144
283.144
283.144
283.144
283.144
283.144
283.144
283.144
283.144
283.15
283.149
283.148
283.147
283.146
283.146
283.146
283.146
283.146
283.146
283.146
283.146
283.147
283.147
283.147
283.147
283.147
283.147
283.147
283.147
283.15
283.148
283.148
283.148
283.148
283.149
283.149
283.149
283.149
283.149
283.149
283.149
283.149
283.149
283.149
283.15
283.149
283.15
283.149
283.149
283.15
283.15
283.151
283.151
283.151
283.151
283.151
283.151
283.151
283.15
283.15
283.15
283.15
283.15
283.15
283.15
283.15
283.15
283.15
283.15
283.152
283.152
283.151
283.151
283.15
283.15
283.15
283.15
283.15
283.15
283.15
283.15
283.15
283.15
283.15
283.15
283.15
283.151
283.151
283.151
286.279
288.389
289.751
290.81
291.699
292.481
293.189
293.844
294.457
295.036
295.588
296.115
296.621
297.108
297.577
298.031
298.47
298.896
299.309
299.711
300.102
300.484
300.856
301.22
301.576
301.923
302.262
302.594
302.918
303.235
303.546
303.849
304.147
304.439
304.725
305.005
305.279
305.547
305.809
306.067
306.319
306.566
306.808
307.045
307.278
307.506
307.728
307.946
308.158
308.365
308.568
308.764
308.956
309.142
309.323
309.498
309.667
309.83
309.986
310.135
310.278
310.413
310.542
310.663
310.777
310.883
310.982
311.074
311.159
311.237
311.308
311.372
311.429
311.48
311.525
311.564
311.596
311.628
311.646
311.676
284.361
286.137
287.418
288.434
289.3
290.067
290.765
291.411
292.017
292.59
293.136
293.658
294.16
294.642
295.108
295.558
295.994
296.417
296.827
297.227
297.615
297.995
298.365
298.726
299.08
299.425
299.763
300.093
300.415
300.73
301.039
301.342
301.638
301.928
302.212
302.491
302.763
303.03
303.292
303.548
303.798
304.044
304.285
304.522
304.753
304.98
305.201
305.418
305.63
305.836
306.038
306.235
306.426
306.612
306.793
306.968
307.138
307.301
307.458
307.608
307.752
307.889
308.019
308.143
308.259
308.367
308.469
308.564
308.652
308.732
308.806
308.872
308.933
308.986
309.034
309.076
309.111
309.146
309.165
309.2
283.46
284.59
285.64
286.537
287.33
288.047
288.708
289.326
289.908
290.462
290.99
291.497
291.985
292.455
292.91
293.35
293.777
294.191
294.594
294.986
295.368
295.74
296.104
296.46
296.808
297.147
297.48
297.805
298.122
298.433
298.737
299.035
299.327
299.613
299.893
300.168
300.437
300.7
300.958
301.21
301.458
301.7
301.938
302.171
302.399
302.623
302.841
303.055
303.265
303.469
303.668
303.863
304.053
304.237
304.417
304.591
304.76
304.923
305.08
305.231
305.375
305.514
305.645
305.77
305.888
305.999
306.104
306.201
306.292
306.376
306.453
306.523
306.587
306.644
306.695
306.741
306.779
306.818
306.839
306.879
283.15
283.662
284.354
285.042
285.695
286.312
286.897
287.453
287.986
288.497
288.989
289.463
289.922
290.366
290.798
291.216
291.624
292.02
292.406
292.782
293.149
293.508
293.858
294.201
294.537
294.865
295.186
295.5
295.807
296.108
296.403
296.691
296.974
297.251
297.522
297.788
298.049
298.304
298.554
298.799
299.038
299.274
299.504
299.73
299.951
300.168
300.38
300.588
300.791
300.99
301.184
301.374
301.558
301.739
301.914
302.084
302.25
302.41
302.565
302.714
302.857
302.994
303.125
303.25
303.369
303.481
303.587
303.686
303.779
303.865
303.945
304.018
304.084
304.145
304.199
304.25
304.29
304.334
304.356
304.402
283.11
283.241
283.576
284.001
284.458
284.924
285.387
285.843
286.29
286.728
287.156
287.573
287.981
288.379
288.768
289.149
289.52
289.884
290.239
290.586
290.926
291.259
291.585
291.904
292.216
292.523
292.823
293.117
293.405
293.687
293.963
294.233
294.499
294.759
295.014
295.263
295.508
295.748
295.983
296.213
296.439
296.66
296.877
297.089
297.297
297.501
297.701
297.897
298.088
298.276
298.459
298.638
298.812
298.983
299.149
299.311
299.468
299.62
299.768
299.911
300.048
300.18
300.307
300.429
300.544
300.654
300.758
300.856
300.948
301.034
301.114
301.188
301.256
301.318
301.373
301.427
301.468
301.516
301.539
301.59
283.137
283.133
283.221
283.404
283.651
283.938
284.247
284.569
284.898
285.229
285.562
285.893
286.222
286.548
286.871
287.19
287.504
287.813
288.118
288.418
288.712
289.002
289.286
289.566
289.84
290.109
290.374
290.633
290.887
291.137
291.382
291.622
291.857
292.088
292.314
292.536
292.753
292.966
293.175
293.38
293.581
293.778
293.971
294.16
294.345
294.526
294.704
294.878
295.049
295.216
295.379
295.539
295.695
295.848
295.996
296.141
296.282
296.42
296.553
296.682
296.806
296.927
297.043
297.154
297.26
297.361
297.458
297.549
297.635
297.716
297.791
297.862
297.926
297.987
298.04
298.092
298.132
298.18
298.203
298.256
283.143
283.138
283.145
283.191
283.285
283.42
283.586
283.775
283.98
284.197
284.423
284.655
284.892
285.132
285.373
285.615
285.856
286.097
286.336
286.573
286.808
287.039
287.268
287.494
287.716
287.935
288.15
288.362
288.57
288.774
288.975
289.172
289.366
289.555
289.741
289.924
290.103
290.279
290.452
290.621
290.786
290.949
291.108
291.264
291.416
291.566
291.713
291.857
291.998
292.136
292.271
292.403
292.532
292.658
292.782
292.902
293.019
293.133
293.244
293.352
293.456
293.557
293.655
293.748
293.838
293.924
294.006
294.084
294.158
294.227
294.292
294.353
294.409
294.462
294.508
294.554
294.59
294.633
294.653
294.7
283.145
283.145
283.143
283.151
283.181
283.237
283.318
283.42
283.54
283.674
283.82
283.975
284.137
284.305
284.478
284.653
284.831
285.009
285.188
285.367
285.545
285.722
285.897
286.07
286.241
286.41
286.577
286.741
286.903
287.062
287.219
287.372
287.523
287.671
287.817
287.96
288.1
288.238
288.373
288.505
288.635
288.763
288.887
289.009
289.129
289.246
289.362
289.474
289.585
289.693
289.799
289.903
290.005
290.104
290.201
290.295
290.387
290.477
290.565
290.65
290.732
290.812
290.889
290.963
291.035
291.103
291.168
291.23
291.289
291.344
291.396
291.444
291.489
291.531
291.569
291.606
291.635
291.67
291.686
291.725
283.148
283.148
283.146
283.147
283.156
283.18
283.22
283.277
283.348
283.432
283.527
283.631
283.742
283.859
283.981
284.106
284.234
284.364
284.494
284.626
284.757
284.888
285.018
285.147
285.274
285.4
285.525
285.648
285.769
285.889
286.006
286.122
286.235
286.346
286.456
286.564
286.669
286.773
286.875
286.975
287.073
287.169
287.263
287.355
287.445
287.534
287.62
287.705
287.789
287.871
287.951
288.029
288.106
288.18
288.254
288.325
288.394
288.462
288.528
288.592
288.655
288.715
288.773
288.83
288.884
288.935
288.985
289.031
289.076
289.118
289.157
289.193
289.227
289.259
289.287
289.316
289.337
289.364
289.376
289.405
283.149
283.149
283.148
283.147
283.15
283.161
283.182
283.214
283.258
283.311
283.372
283.44
283.515
283.593
283.676
283.762
283.849
283.939
284.03
284.121
284.213
284.304
284.396
284.486
284.575
284.664
284.751
284.838
284.923
285.007
285.09
285.172
285.252
285.33
285.408
285.484
285.558
285.632
285.704
285.774
285.844
285.911
285.978
286.043
286.107
286.169
286.23
286.29
286.349
286.407
286.464
286.519
286.574
286.626
286.678
286.728
286.777
286.825
286.872
286.917
286.961
287.004
287.045
287.085
287.123
287.16
287.194
287.227
287.259
287.288
287.315
287.341
287.365
287.387
287.407
287.427
287.442
287.46
287.469
287.489
283.15
283.15
283.149
283.148
283.149
283.154
283.165
283.183
283.208
283.239
283.275
283.316
283.36
283.407
283.457
283.509
283.562
283.617
283.672
283.728
283.784
283.84
283.896
283.951
284.006
284.06
284.113
284.166
284.219
284.271
284.321
284.372
284.421
284.469
284.516
284.563
284.609
284.654
284.698
284.742
284.784
284.826
284.867
284.907
284.946
284.984
285.022
285.059
285.095
285.131
285.166
285.2
285.233
285.265
285.297
285.328
285.358
285.387
285.416
285.443
285.47
285.497
285.522
285.547
285.57
285.593
285.614
285.634
285.653
285.671
285.687
285.703
285.717
285.731
285.743
285.755
285.764
285.775
285.78
285.793
283.151
283.151
283.15
283.15
283.15
283.151
283.155
283.161
283.17
283.18
283.193
283.207
283.222
283.239
283.256
283.274
283.292
283.311
283.33
283.35
283.37
283.389
283.409
283.428
283.447
283.465
283.484
283.502
283.52
283.539
283.556
283.574
283.591
283.608
283.624
283.64
283.656
283.672
283.687
283.703
283.718
283.732
283.747
283.761
283.774
283.787
283.801
283.813
283.826
283.839
283.851
283.863
283.875
283.886
283.897
283.907
283.918
283.928
283.937
283.947
283.957
283.966
283.975
283.984
283.992
284
284.008
284.015
284.021
284.027
284.033
284.038
284.043
284.047
284.051
284.055
284.059
284.062
284.064
284.069
)
;

boundaryField
{
    upperWall
    {
        type            fixedValue;
        value           uniform 283.15;
    }
    lowerWall
    {
        type            fixedValue;
        value           uniform 283.15;
    }
    heatedWall
    {
        type            externalWallHeatFluxTemperature;
        mode            power;
        kappaMethod     fluidThermo;
        kappa           none;
        alphaAni        Anialpha;
        Q               5040;
        qr              none;
        refValue        nonuniform List<scalar> 
80
(
287.687
289.735
291.11
292.173
293.063
293.844
294.552
295.207
295.82
296.4
296.951
297.479
297.985
298.473
298.943
299.397
299.837
300.263
300.676
301.078
301.47
301.852
302.225
302.589
302.945
303.292
303.632
303.964
304.288
304.605
304.916
305.22
305.518
305.81
306.096
306.376
306.65
306.919
307.182
307.439
307.691
307.939
308.181
308.419
308.651
308.879
309.102
309.32
309.532
309.74
309.942
310.139
310.331
310.517
310.698
310.873
311.042
311.205
311.361
311.51
311.653
311.788
311.917
312.038
312.152
312.258
312.358
312.45
312.534
312.612
312.683
312.746
312.803
312.854
312.898
312.938
312.97
313.001
313.019
313.048
)
;
        refGradient     nonuniform List<scalar> 
80
(
169.01
161.613
163.104
163.641
163.684
163.632
163.585
163.558
163.564
163.596
163.644
163.699
163.757
163.814
163.868
163.92
163.968
164.015
164.06
164.102
164.143
164.181
164.218
164.252
164.285
164.317
164.349
164.38
164.411
164.441
164.47
164.498
164.525
164.551
164.575
164.6
164.624
164.648
164.672
164.696
164.72
164.742
164.764
164.785
164.805
164.825
164.844
164.864
164.883
164.901
164.918
164.934
164.949
164.963
164.975
164.986
164.996
165.005
165.013
165.019
165.025
165.028
165.03
165.03
165.027
165.022
165.015
165.005
164.992
164.976
164.959
164.937
164.917
164.888
164.867
164.83
164.811
164.761
164.749
164.679
)
;
        valueFraction   uniform 0;
        value           nonuniform List<scalar> 
80
(
287.687
289.735
291.11
292.173
293.063
293.844
294.552
295.207
295.82
296.4
296.951
297.479
297.985
298.473
298.943
299.397
299.837
300.263
300.676
301.078
301.47
301.852
302.225
302.589
302.945
303.292
303.632
303.964
304.288
304.605
304.916
305.22
305.518
305.81
306.096
306.376
306.65
306.919
307.182
307.439
307.691
307.939
308.181
308.419
308.651
308.879
309.102
309.32
309.532
309.74
309.942
310.139
310.331
310.517
310.698
310.873
311.042
311.205
311.361
311.51
311.653
311.788
311.917
312.038
312.152
312.258
312.358
312.45
312.534
312.612
312.683
312.746
312.803
312.854
312.898
312.938
312.97
313.001
313.019
313.048
)
;
    }
    inlet
    {
        type            fixedValue;
        value           uniform 283.15;
    }
    outlet
    {
        type            inletOutlet;
        inletValue      uniform 283.15;
        value           nonuniform List<scalar> 
12
(
311.676
309.2
306.879
304.402
301.59
298.256
294.7
291.725
289.405
287.489
285.793
284.069
)
;
    }
    frontAndBack
    {
        type            empty;
    }
}


// ************************************************************************* //
