/*--------------------------------*- C++ -*----------------------------------*\
  =========                 |
  \\      /  F ield         | OpenFOAM: The Open Source CFD Toolbox
   \\    /   O peration     | Website:  https://openfoam.org
    \\  /    A nd           | Version:  7
     \\/     M anipulation  |
\*---------------------------------------------------------------------------*/
FoamFile
{
    version     2.0;
    format      ascii;
    class       volScalarField;
    location    "0.1175";
    object      rho_0;
}
// * * * * * * * * * * * * * * * * * * * * * * * * * * * * * * * * * * * * * //

dimensions      [1 -3 0 0 0 0 0];

internalField   nonuniform List<scalar> 
1440
(
1.19069
1.17387
1.15715
1.14049
1.12372
1.1068
1.0896
1.07225
1.05472
1.037
1.01913
1.00115
0.983101
0.965053
0.947054
0.929167
0.911447
0.893956
0.876739
0.859846
0.843319
0.827191
0.81149
0.796235
0.781441
0.767115
0.753261
0.739877
0.726956
0.714491
0.70247
0.69088
0.679706
0.668935
0.658548
0.648528
0.638858
0.629521
0.620499
0.611779
0.603344
0.595176
0.58726
0.579582
0.57213
0.564894
0.557861
0.551022
0.544367
0.537886
0.53157
0.525412
0.519403
0.513537
0.507806
0.502203
0.496724
0.491362
0.48611
0.480963
0.475918
0.47097
0.466114
0.461346
0.45666
0.452051
0.447515
0.443049
0.438652
0.434324
0.430059
0.425852
0.421694
0.417576
0.413492
0.409442
0.405431
0.401469
0.397571
0.393755
0.390036
0.386427
0.382937
0.379572
0.376335
0.373224
0.370239
0.367374
0.364627
0.361994
0.359473
0.357061
0.354757
0.352559
0.350467
0.34848
0.346595
0.344812
0.343131
0.341549
0.340066
0.338681
0.337392
0.336198
0.335099
0.334091
0.333174
0.332345
0.331603
0.330944
0.330368
0.329866
0.329446
0.329089
0.328812
0.328585
0.328439
0.328327
0.328303
0.328275
1.19943
1.20099
1.2019
1.20201
1.20125
1.19961
1.19707
1.19373
1.18964
1.18487
1.17949
1.17358
1.1672
1.16043
1.15332
1.14592
1.1383
1.13049
1.12252
1.11444
1.10626
1.09802
1.08974
1.08142
1.07309
1.06475
1.05642
1.04809
1.03978
1.0315
1.02324
1.01501
1.00681
0.998647
0.990521
0.982435
0.974384
0.966377
0.958404
0.950488
0.942617
0.934787
0.926998
0.919254
0.911554
0.903903
0.8963
0.888747
0.881246
0.873798
0.866403
0.859063
0.851779
0.844553
0.837383
0.830272
0.823219
0.816225
0.80929
0.802415
0.795599
0.788843
0.782147
0.77551
0.768932
0.762412
0.75595
0.749545
0.743196
0.736903
0.730665
0.72448
0.718346
0.712262
0.706226
0.700235
0.694287
0.688379
0.682508
0.676669
0.670861
0.665081
0.659329
0.653607
0.647914
0.642254
0.63663
0.631043
0.625499
0.620002
0.614559
0.609176
0.603863
0.598627
0.593476
0.588417
0.583455
0.578601
0.573859
0.569242
0.564754
0.560406
0.5562
0.552142
0.548231
0.544474
0.540872
0.537426
0.534148
0.53102
0.528083
0.525268
0.522694
0.520172
0.518005
0.515714
0.514045
0.511829
0.510892
0.508381
1.19883
1.19885
1.1989
1.199
1.19913
1.19928
1.19941
1.19951
1.19954
1.19947
1.19928
1.19896
1.19849
1.19787
1.19711
1.19619
1.19513
1.19393
1.19261
1.19117
1.18961
1.18795
1.1862
1.18435
1.18243
1.18042
1.17833
1.17618
1.17396
1.17167
1.16932
1.16691
1.16443
1.16191
1.15932
1.15669
1.15399
1.15125
1.14845
1.1456
1.1427
1.13975
1.13675
1.1337
1.1306
1.12745
1.12425
1.121
1.11771
1.11437
1.11099
1.10756
1.1041
1.10058
1.09703
1.09344
1.0898
1.08613
1.08242
1.07867
1.07489
1.07107
1.06721
1.06332
1.0594
1.05545
1.05146
1.04744
1.04339
1.03931
1.0352
1.03106
1.0269
1.0227
1.01847
1.01421
1.00993
1.00561
1.00126
0.99687
0.992445
0.987979
0.983466
0.978904
0.974288
0.969614
0.96488
0.960084
0.955222
0.950294
0.945298
0.940234
0.935103
0.929908
0.92465
0.919335
0.913966
0.908549
0.903088
0.897587
0.892056
0.886494
0.880923
0.875329
0.869757
0.864158
0.858625
0.853038
0.847592
0.842022
0.836736
0.831162
0.826148
0.820496
0.815958
0.810044
0.80636
0.799754
0.797634
0.789413
1.19883
1.19883
1.19883
1.19883
1.19883
1.19883
1.19884
1.19885
1.19887
1.19889
1.19892
1.19895
1.19898
1.19901
1.19903
1.19904
1.19904
1.19903
1.199
1.19896
1.1989
1.19882
1.19873
1.19861
1.19848
1.19833
1.19816
1.19798
1.19777
1.19754
1.19729
1.19703
1.19674
1.19644
1.19611
1.19577
1.19541
1.19502
1.19462
1.1942
1.19376
1.19329
1.19281
1.19231
1.19178
1.19123
1.19067
1.19008
1.18947
1.18883
1.18818
1.1875
1.1868
1.18608
1.18534
1.18457
1.18378
1.18297
1.18213
1.18127
1.18038
1.17947
1.17854
1.17758
1.1766
1.17559
1.17456
1.1735
1.17241
1.1713
1.17017
1.169
1.16781
1.16659
1.16535
1.16407
1.16277
1.16144
1.16007
1.15867
1.15724
1.15577
1.15427
1.15273
1.15114
1.14951
1.14784
1.14612
1.14435
1.14252
1.14065
1.13871
1.13672
1.13467
1.13256
1.13038
1.12814
1.12584
1.12347
1.12103
1.11853
1.11595
1.11333
1.11061
1.10786
1.10499
1.10213
1.0991
1.09615
1.09294
1.08994
1.08651
1.08354
1.0798
1.07702
1.07279
1.07048
1.06544
1.06411
1.05761
1.19883
1.19883
1.19883
1.19883
1.19883
1.19883
1.19882
1.19882
1.19882
1.19882
1.19882
1.19882
1.19882
1.19882
1.19882
1.19882
1.19882
1.19883
1.19883
1.19884
1.19884
1.19885
1.19885
1.19886
1.19886
1.19887
1.19887
1.19887
1.19887
1.19888
1.19888
1.19887
1.19887
1.19887
1.19886
1.19886
1.19885
1.19884
1.19882
1.19881
1.19879
1.19877
1.19875
1.19873
1.1987
1.19867
1.19864
1.19861
1.19857
1.19853
1.19849
1.19844
1.19839
1.19833
1.19828
1.19822
1.19815
1.19808
1.19801
1.19793
1.19785
1.19777
1.19768
1.19758
1.19748
1.19738
1.19727
1.19715
1.19703
1.19691
1.19678
1.19664
1.1965
1.19635
1.19619
1.19603
1.19586
1.19568
1.1955
1.19531
1.19511
1.1949
1.19468
1.19445
1.19421
1.19396
1.1937
1.19343
1.19314
1.19285
1.19253
1.19221
1.19186
1.1915
1.19113
1.19073
1.19032
1.18989
1.18944
1.18897
1.18848
1.18796
1.18743
1.18686
1.18628
1.18566
1.18504
1.18436
1.1837
1.18294
1.18225
1.1814
1.1807
1.17972
1.17905
1.17789
1.17733
1.17589
1.17557
1.17366
1.19883
1.19883
1.19883
1.19883
1.19883
1.19883
1.19883
1.19882
1.19882
1.19882
1.19882
1.19881
1.19881
1.19881
1.19881
1.19881
1.1988
1.1988
1.1988
1.1988
1.1988
1.19879
1.19879
1.19879
1.19879
1.19879
1.19879
1.19879
1.19879
1.19879
1.19879
1.19879
1.19879
1.19879
1.19879
1.19879
1.19879
1.19879
1.19879
1.19879
1.19879
1.19879
1.19879
1.19879
1.19879
1.19879
1.19879
1.19879
1.1988
1.1988
1.1988
1.1988
1.1988
1.1988
1.1988
1.1988
1.1988
1.1988
1.1988
1.1988
1.1988
1.1988
1.1988
1.19879
1.19879
1.19879
1.19879
1.19879
1.19878
1.19878
1.19878
1.19877
1.19877
1.19877
1.19876
1.19876
1.19875
1.19874
1.19874
1.19873
1.19872
1.19871
1.1987
1.19869
1.19868
1.19867
1.19865
1.19864
1.19863
1.19861
1.19859
1.19857
1.19855
1.19853
1.1985
1.19848
1.19845
1.19842
1.19838
1.19835
1.19831
1.19827
1.19823
1.19818
1.19814
1.19808
1.19803
1.19796
1.1979
1.19783
1.19777
1.19767
1.19761
1.1975
1.19743
1.1973
1.19725
1.19708
1.19705
1.19682
1.19883
1.19883
1.19883
1.19883
1.19883
1.19883
1.19882
1.19882
1.19882
1.19882
1.19882
1.19881
1.19881
1.19881
1.19881
1.19881
1.1988
1.1988
1.1988
1.1988
1.1988
1.19879
1.19879
1.19879
1.19879
1.19879
1.19879
1.19878
1.19878
1.19878
1.19878
1.19878
1.19878
1.19878
1.19878
1.19877
1.19877
1.19877
1.19877
1.19877
1.19877
1.19877
1.19877
1.19877
1.19877
1.19877
1.19877
1.19876
1.19876
1.19876
1.19876
1.19876
1.19876
1.19876
1.19876
1.19876
1.19876
1.19876
1.19876
1.19876
1.19876
1.19876
1.19876
1.19876
1.19876
1.19876
1.19876
1.19876
1.19875
1.19875
1.19875
1.19875
1.19875
1.19875
1.19875
1.19875
1.19875
1.19875
1.19875
1.19875
1.19875
1.19875
1.19875
1.19875
1.19875
1.19875
1.19875
1.19875
1.19875
1.19875
1.19875
1.19875
1.19875
1.19875
1.19876
1.19876
1.19876
1.19875
1.19875
1.19875
1.19876
1.19876
1.19876
1.19876
1.19876
1.19876
1.19876
1.19876
1.19876
1.19876
1.19876
1.19875
1.19875
1.19874
1.19874
1.19874
1.19874
1.19874
1.19875
1.19874
1.19883
1.19883
1.19883
1.19883
1.19883
1.19883
1.19883
1.19882
1.19882
1.19882
1.19882
1.19881
1.19881
1.19881
1.19881
1.19881
1.1988
1.1988
1.1988
1.1988
1.1988
1.19879
1.19879
1.19879
1.19879
1.19879
1.19879
1.19878
1.19878
1.19878
1.19878
1.19878
1.19878
1.19878
1.19878
1.19877
1.19877
1.19877
1.19877
1.19877
1.19877
1.19877
1.19877
1.19877
1.19877
1.19877
1.19876
1.19876
1.19876
1.19876
1.19876
1.19876
1.19876
1.19876
1.19876
1.19876
1.19876
1.19876
1.19876
1.19876
1.19875
1.19875
1.19875
1.19875
1.19875
1.19875
1.19875
1.19875
1.19875
1.19875
1.19875
1.19875
1.19875
1.19875
1.19874
1.19874
1.19874
1.19874
1.19874
1.19874
1.19874
1.19874
1.19874
1.19874
1.19874
1.19874
1.19874
1.19874
1.19874
1.19874
1.19874
1.19874
1.19873
1.19873
1.19873
1.19873
1.19873
1.19873
1.19873
1.19873
1.19873
1.19873
1.19873
1.19873
1.19873
1.19873
1.19873
1.19873
1.19873
1.19873
1.19873
1.19873
1.19872
1.19872
1.19872
1.19872
1.19873
1.19873
1.19873
1.19873
1.19883
1.19883
1.19883
1.19883
1.19883
1.19883
1.19883
1.19882
1.19882
1.19882
1.19882
1.19881
1.19881
1.19881
1.19881
1.19881
1.1988
1.1988
1.1988
1.1988
1.1988
1.19879
1.19879
1.19879
1.19879
1.19879
1.19879
1.19878
1.19878
1.19878
1.19878
1.19878
1.19878
1.19878
1.19878
1.19877
1.19877
1.19877
1.19877
1.19877
1.19877
1.19877
1.19877
1.19877
1.19877
1.19876
1.19876
1.19876
1.19876
1.19876
1.19876
1.19876
1.19876
1.19876
1.19876
1.19876
1.19876
1.19875
1.19875
1.19875
1.19875
1.19875
1.19875
1.19875
1.19875
1.19875
1.19875
1.19875
1.19875
1.19874
1.19874
1.19874
1.19874
1.19874
1.19874
1.19874
1.19874
1.19874
1.19874
1.19874
1.19874
1.19874
1.19873
1.19873
1.19873
1.19873
1.19873
1.19873
1.19873
1.19873
1.19873
1.19873
1.19873
1.19873
1.19873
1.19872
1.19872
1.19872
1.19872
1.19872
1.19872
1.19872
1.19872
1.19872
1.19872
1.19872
1.19872
1.19872
1.19872
1.19872
1.19871
1.19871
1.19871
1.19871
1.19871
1.19871
1.19871
1.19871
1.19872
1.19871
1.19883
1.19883
1.19883
1.19883
1.19883
1.19883
1.19883
1.19882
1.19882
1.19882
1.19882
1.19882
1.19881
1.19881
1.19881
1.19881
1.1988
1.1988
1.1988
1.1988
1.19879
1.19879
1.19879
1.19879
1.19879
1.19878
1.19878
1.19878
1.19878
1.19878
1.19877
1.19877
1.19877
1.19877
1.19877
1.19877
1.19877
1.19876
1.19876
1.19876
1.19876
1.19876
1.19876
1.19876
1.19876
1.19875
1.19875
1.19875
1.19875
1.19875
1.19875
1.19875
1.19875
1.19874
1.19874
1.19874
1.19874
1.19874
1.19874
1.19874
1.19874
1.19874
1.19873
1.19873
1.19873
1.19873
1.19873
1.19873
1.19873
1.19873
1.19873
1.19872
1.19872
1.19872
1.19872
1.19872
1.19872
1.19872
1.19872
1.19872
1.19872
1.19872
1.19871
1.19871
1.19871
1.19871
1.19871
1.19871
1.19871
1.19871
1.19871
1.19871
1.19871
1.19871
1.19871
1.1987
1.1987
1.1987
1.1987
1.1987
1.1987
1.1987
1.1987
1.1987
1.1987
1.1987
1.1987
1.1987
1.1987
1.1987
1.1987
1.1987
1.1987
1.1987
1.1987
1.1987
1.19869
1.19869
1.19869
1.19869
1.19884
1.19884
1.19883
1.19883
1.19883
1.19883
1.19883
1.19882
1.19882
1.19882
1.19881
1.19881
1.19881
1.1988
1.1988
1.19879
1.19879
1.19879
1.19878
1.19878
1.19878
1.19877
1.19877
1.19877
1.19877
1.19876
1.19876
1.19876
1.19876
1.19876
1.19875
1.19875
1.19875
1.19875
1.19875
1.19875
1.19875
1.19874
1.19874
1.19874
1.19874
1.19874
1.19874
1.19874
1.19874
1.19874
1.19873
1.19873
1.19873
1.19873
1.19873
1.19873
1.19873
1.19873
1.19873
1.19872
1.19872
1.19872
1.19872
1.19872
1.19872
1.19872
1.19872
1.19872
1.19872
1.19872
1.19871
1.19871
1.19871
1.19871
1.19871
1.19871
1.19871
1.19871
1.19871
1.19871
1.19871
1.19871
1.19871
1.1987
1.1987
1.1987
1.1987
1.1987
1.1987
1.1987
1.1987
1.1987
1.1987
1.1987
1.1987
1.1987
1.1987
1.1987
1.1987
1.1987
1.1987
1.1987
1.19869
1.19869
1.1987
1.1987
1.1987
1.1987
1.1987
1.1987
1.19869
1.19869
1.19869
1.19869
1.1987
1.19871
1.19872
1.19871
1.19871
1.1987
1.19869
1.19869
1.19868
1.1987
1.19884
1.19884
1.19883
1.19883
1.19882
1.19882
1.19881
1.19881
1.1988
1.1988
1.19879
1.19879
1.19879
1.19878
1.19878
1.19878
1.19878
1.19877
1.19877
1.19877
1.19877
1.19877
1.19877
1.19876
1.19876
1.19876
1.19876
1.19876
1.19876
1.19876
1.19876
1.19875
1.19875
1.19875
1.19875
1.19875
1.19875
1.19875
1.19875
1.19874
1.19874
1.19874
1.19874
1.19874
1.19874
1.19874
1.19874
1.19873
1.19873
1.19873
1.19873
1.19873
1.19873
1.19873
1.19873
1.19873
1.19872
1.19872
1.19872
1.19872
1.19872
1.19872
1.19872
1.19872
1.19872
1.19872
1.19872
1.19871
1.19871
1.19871
1.19871
1.19871
1.19871
1.19871
1.19871
1.19871
1.19871
1.19871
1.1987
1.1987
1.1987
1.1987
1.1987
1.1987
1.1987
1.1987
1.1987
1.1987
1.1987
1.1987
1.1987
1.1987
1.1987
1.1987
1.1987
1.1987
1.1987
1.1987
1.1987
1.1987
1.1987
1.19869
1.19869
1.19869
1.19869
1.19869
1.19869
1.19869
1.19869
1.1987
1.1987
1.1987
1.1987
1.19869
1.19869
1.1987
1.1987
1.1987
1.1987
1.1987
)
;

boundaryField
{
    upperWall
    {
        type            calculated;
        value           nonuniform List<scalar> 
120
(
1.19884
1.19884
1.19884
1.19883
1.19883
1.19883
1.19882
1.19882
1.19882
1.19881
1.19881
1.19881
1.1988
1.1988
1.19879
1.19879
1.19879
1.19879
1.19878
1.19878
1.19878
1.19877
1.19877
1.19877
1.19877
1.19877
1.19876
1.19876
1.19876
1.19876
1.19876
1.19876
1.19875
1.19875
1.19875
1.19875
1.19875
1.19875
1.19874
1.19874
1.19874
1.19874
1.19874
1.19874
1.19874
1.19874
1.19873
1.19873
1.19873
1.19873
1.19873
1.19873
1.19873
1.19873
1.19872
1.19872
1.19872
1.19872
1.19872
1.19872
1.19872
1.19872
1.19872
1.19871
1.19871
1.19871
1.19871
1.19871
1.19871
1.19871
1.19871
1.19871
1.1987
1.1987
1.1987
1.1987
1.1987
1.1987
1.1987
1.1987
1.1987
1.19869
1.19869
1.19869
1.19869
1.19869
1.19869
1.19869
1.19869
1.19869
1.19869
1.19868
1.19868
1.19868
1.19868
1.19868
1.19868
1.19868
1.19868
1.19868
1.19868
1.19867
1.19867
1.19867
1.19867
1.19867
1.19867
1.19867
1.19867
1.19867
1.19867
1.19866
1.19866
1.19866
1.19866
1.19866
1.19866
1.19866
1.19866
1.19866
)
;
    }
    lowerWall
    {
        type            calculated;
        value           nonuniform List<scalar> 
120
(
0.470172
0.658119
0.762141
0.813174
0.837767
0.847566
0.848334
0.843452
0.834794
0.823572
0.810595
0.796312
0.781575
0.766242
0.750633
0.734984
0.719426
0.704075
0.689008
0.674294
0.659981
0.646105
0.632688
0.619745
0.607281
0.595296
0.583785
0.572737
0.562139
0.551977
0.542233
0.532889
0.523927
0.515331
0.50708
0.499156
0.49154
0.484215
0.477162
0.470369
0.463823
0.457508
0.451408
0.445507
0.439795
0.43426
0.428893
0.423685
0.418627
0.41371
0.408927
0.404272
0.399736
0.395314
0.391001
0.38679
0.382677
0.378656
0.374723
0.370872
0.367102
0.363406
0.359783
0.356228
0.352737
0.349305
0.34593
0.342609
0.339342
0.336126
0.332959
0.329836
0.32675
0.323694
0.320665
0.317661
0.314686
0.311748
0.308858
0.306028
0.303271
0.300595
0.298006
0.295508
0.293104
0.290792
0.288571
0.286438
0.28439
0.282425
0.28054
0.278734
0.277007
0.275357
0.273784
0.272286
0.270863
0.269515
0.26824
0.267039
0.26591
0.264853
0.263867
0.262951
0.262104
0.261325
0.260613
0.259965
0.259383
0.25886
0.2584
0.257993
0.25765
0.257348
0.257114
0.256905
0.256774
0.256645
0.256609
0.25654
)
;
    }
    inlet
    {
        type            calculated;
        value           nonuniform List<scalar> 
12
(
1.19884
1.19884
1.19884
1.19883
1.19883
1.19883
1.19883
1.19883
1.19883
1.19883
1.19884
1.19884
)
;
    }
    outlet
    {
        type            calculated;
        value           nonuniform List<scalar> 
12
(
0.328275
0.508381
0.789413
1.05761
1.17366
1.19682
1.19874
1.19873
1.19871
1.19869
1.1987
1.1987
)
;
    }
    frontAndBack
    {
        type            empty;
    }
}


// ************************************************************************* //
