/*--------------------------------*- C++ -*----------------------------------*\
  =========                 |
  \\      /  F ield         | OpenFOAM: The Open Source CFD Toolbox
   \\    /   O peration     | Website:  https://openfoam.org
    \\  /    A nd           | Version:  7
     \\/     M anipulation  |
\*---------------------------------------------------------------------------*/
FoamFile
{
    version     2.0;
    format      ascii;
    class       surfaceScalarField;
    location    "0.03";
    object      phi_0;
}
// * * * * * * * * * * * * * * * * * * * * * * * * * * * * * * * * * * * * * //

dimensions      [1 0 -1 0 0 0 0];

internalField   nonuniform List<scalar> 
2748
(
0.00997724
4.81384e-05
0.00984589
0.000131503
0.0096439
0.000202149
0.00938332
0.000260749
0.00907743
0.00030608
0.00874019
0.000337435
0.00838453
0.000355875
0.00802138
0.000363371
0.00765923
0.000362377
0.00730476
0.000354717
0.00696276
0.000342246
0.00663636
0.000326639
0.00632797
0.000308631
0.00603904
0.000289154
0.00577026
0.000268987
0.00552176
0.000248675
0.00529326
0.000228636
0.00508417
0.000209184
0.00489365
0.000190553
0.00472073
0.000172911
0.00456428
0.000156366
0.00442315
0.000140986
0.00429615
0.0001268
0.00418211
0.000113807
0.00407987
0.000101985
0.00398832
9.12928e-05
0.00390641
8.16742e-05
0.00383318
7.30644e-05
0.00376771
6.53923e-05
0.00370916
5.85826e-05
0.00365676
5.25541e-05
0.00360985
4.72031e-05
0.00356778
4.24912e-05
0.0035299
3.8393e-05
0.00349566
3.48068e-05
0.00346456
3.16638e-05
0.00343618
2.89052e-05
0.00341011
2.64792e-05
0.00338602
2.43419e-05
0.00336362
2.24561e-05
0.00334267
2.07917e-05
0.00332298
1.93238e-05
0.00330443
1.80336e-05
0.0032869
1.6907e-05
0.00327035
1.59321e-05
0.00325473
1.5099e-05
0.00324002
1.43968e-05
0.00322618
1.38129e-05
0.00321317
1.33325e-05
0.0032009
1.29384e-05
0.00318927
1.26106e-05
0.00317815
1.23275e-05
0.00316738
1.2067e-05
0.00315678
1.18099e-05
0.00314623
1.15405e-05
0.00313559
1.12481e-05
0.00312477
1.09264e-05
0.00311373
1.05754e-05
0.00310249
1.02032e-05
0.00309115
9.82779e-06
0.00307992
9.47504e-06
0.00306905
9.17427e-06
0.00305879
8.95111e-06
0.00304932
8.82096e-06
0.00304071
8.7853e-06
0.00303293
8.83158e-06
0.00302582
8.93596e-06
0.00301915
9.06821e-06
0.00301269
9.19698e-06
0.00300618
9.29383e-06
0.00299946
9.33988e-06
0.00299241
9.3306e-06
0.00298501
9.2627e-06
0.00297731
9.13111e-06
0.00296942
8.95158e-06
0.00296145
8.73816e-06
0.00295351
8.50664e-06
0.0029457
8.2715e-06
0.00293807
8.04357e-06
0.00293067
7.82997e-06
0.0029235
7.63491e-06
0.00291656
7.46008e-06
0.00290983
7.30544e-06
0.0029033
7.16956e-06
0.00289693
7.05034e-06
0.0028907
6.9452e-06
0.0028846
6.85155e-06
0.00287861
6.76674e-06
0.00287272
6.68845e-06
0.00286692
6.61441e-06
0.0028612
6.54281e-06
0.00285555
6.47187e-06
0.00284997
6.40035e-06
0.00284447
6.32706e-06
0.00283903
6.25137e-06
0.00283366
6.17272e-06
0.00282836
6.09112e-06
0.00282313
6.00657e-06
0.00281797
5.91966e-06
0.00281288
5.83083e-06
0.00280786
5.74098e-06
0.00280292
5.65082e-06
0.00279804
5.56116e-06
0.00279323
5.47292e-06
0.00278849
5.38615e-06
0.00278382
5.30273e-06
0.00277921
5.22034e-06
0.00277466
5.14408e-06
0.00277017
5.06527e-06
0.00276574
4.99844e-06
0.00276137
4.91848e-06
0.00275706
4.8652e-06
0.00275282
4.77207e-06
0.00274862
4.74132e-06
0.00274454
4.60787e-06
0.00274045
4.61742e-06
0.00273658
4.39417e-06
0.00273261
4.49772e-06
0.00272896
4.17216e-06
4.51702e-06
0.0100437
2.9119e-05
0.0100879
8.7493e-05
0.010149
0.000141151
0.0102209
0.00018909
0.0102954
0.000231786
0.0103648
0.000268208
0.0104236
0.00029726
0.0104685
0.000318646
0.0104983
0.000332859
0.0105126
0.000340638
0.0105122
0.000342837
0.0104987
0.000340393
0.0104735
0.000334073
0.0104383
0.000324628
0.0103947
0.000312793
0.0103444
0.000299229
0.0102888
0.000284506
0.010229
0.000269104
0.0101664
0.000253425
0.0101016
0.000237798
0.0100357
0.000222485
0.00996906
0.000207696
0.00990235
0.000193586
0.00983594
0.000180259
0.00977015
0.000167789
0.00970521
0.000156209
0.0096413
0.000145527
0.00957856
0.000135729
0.00951705
0.000126784
0.00945686
0.000118648
0.009398
0.000111265
0.00934047
0.000104579
0.00928426
9.85452e-05
0.00922939
9.31126e-05
0.00917584
8.82152e-05
0.00912358
8.37899e-05
0.00907259
7.97803e-05
0.00902284
7.61371e-05
0.00897428
7.28181e-05
0.00892688
6.97867e-05
0.00888061
6.70133e-05
0.00883542
6.44725e-05
0.00879127
6.21442e-05
0.00874814
6.00125e-05
0.00870598
5.8063e-05
0.00866479
5.62821e-05
0.00862454
5.4656e-05
0.00858522
5.31689e-05
0.00854682
5.18031e-05
0.00850934
5.05393e-05
0.00847277
4.93573e-05
0.0084371
4.82359e-05
0.00840232
4.71552e-05
0.0083684
4.60983e-05
0.00833531
4.50522e-05
0.00830302
4.40086e-05
0.00827147
4.29643e-05
0.00824061
4.19225e-05
0.0082104
4.08933e-05
0.00818078
3.9893e-05
0.00815171
3.89422e-05
0.00812316
3.80613e-05
0.00809513
3.72663e-05
0.00806761
3.65649e-05
0.00804064
3.59546e-05
0.00801423
3.5423e-05
0.0079884
3.49503e-05
0.00796316
3.45126e-05
0.0079385
3.40858e-05
0.00791441
3.36477e-05
0.00789086
3.31837e-05
0.00786781
3.26841e-05
0.00784524
3.21406e-05
0.00782312
3.15506e-05
0.00780142
3.09222e-05
0.00778014
3.02652e-05
0.00775927
2.9591e-05
0.00773881
2.89112e-05
0.00771876
2.82367e-05
0.00769914
2.7576e-05
0.00767995
2.69363e-05
0.00766118
2.63223e-05
0.00764284
2.57373e-05
0.00762494
2.51827e-05
0.00760745
2.46587e-05
0.00759038
2.4164e-05
0.00757372
2.36973e-05
0.00755747
2.32558e-05
0.0075416
2.28374e-05
0.00752612
2.24388e-05
0.00751101
2.20575e-05
0.00749626
2.16904e-05
0.00748186
2.13356e-05
0.0074678
2.09902e-05
0.00745407
2.06532e-05
0.00744066
2.03224e-05
0.00742755
1.99975e-05
0.00741474
1.96771e-05
0.0074022
1.93619e-05
0.00738993
1.90506e-05
0.00737791
1.8745e-05
0.00736612
1.84434e-05
0.00735455
1.8149e-05
0.0073432
1.78581e-05
0.00733203
1.75763e-05
0.00732105
1.72966e-05
0.00731024
1.70283e-05
0.00729959
1.67585e-05
0.00728909
1.6504e-05
0.00727875
1.62402e-05
0.00726852
1.59981e-05
0.00725845
1.5733e-05
0.00724846
1.55016e-05
0.00723867
1.52228e-05
0.00722891
1.50001e-05
0.00721946
1.46842e-05
0.00720995
1.44643e-05
0.00720093
1.4058e-05
0.00719177
1.38398e-05
1.34127e-05
0.0100328
2.06291e-05
0.0100583
6.20832e-05
0.0100984
0.000101253
0.0101516
0.000136037
0.010217
0.000166545
0.0102928
0.000192647
0.0103764
0.000213888
0.0104651
0.0002301
0.0105567
0.000241556
0.0106488
0.000248776
0.0107396
0.000252283
0.0108276
0.000252599
0.0109117
0.000250228
0.0109909
0.000245608
0.0110648
0.000239165
0.011133
0.000231289
0.0111954
0.000222358
0.011252
0.000212702
0.011303
0.000202606
0.0113487
0.000192316
0.0113893
0.000182039
0.0114252
0.000171946
0.0114568
0.000162179
0.0114843
0.000152847
0.0115082
0.000144026
0.0115287
0.000135764
0.0115462
0.000128085
0.011561
0.000120998
0.0115733
0.000114493
0.0115833
0.000108549
0.0115914
0.000103141
0.0115977
9.82361e-05
0.0116023
9.37988e-05
0.0116055
8.97923e-05
0.0116073
8.61763e-05
0.011608
8.2909e-05
0.0116077
7.99498e-05
0.0116063
7.72627e-05
0.0116041
7.48163e-05
0.011601
7.2584e-05
0.0115972
7.05437e-05
0.0115928
6.86776e-05
0.0115877
6.6971e-05
0.011582
6.54121e-05
0.0115759
6.39905e-05
0.0115692
6.26957e-05
0.0115621
6.15173e-05
0.0115547
6.04428e-05
0.0115468
5.94578e-05
0.0115387
5.85462e-05
0.0115302
5.76928e-05
0.0115215
5.68801e-05
0.0115125
5.60921e-05
0.0115033
5.53149e-05
0.0114939
5.45382e-05
0.0114842
5.37555e-05
0.0114744
5.29654e-05
0.0114643
5.21717e-05
0.0114541
5.1384e-05
0.0114437
5.06159e-05
0.0114331
4.98842e-05
0.0114223
4.92053e-05
0.0114115
4.85924e-05
0.0114005
4.80522e-05
0.0113894
4.75839e-05
0.0113782
4.7178e-05
0.0113669
4.68193e-05
0.0113556
4.64878e-05
0.0113441
4.61629e-05
0.0113326
4.58245e-05
0.011321
4.54562e-05
0.0113093
4.50459e-05
0.0112975
4.45875e-05
0.0112856
4.40779e-05
0.0112737
4.35211e-05
0.0112617
4.29253e-05
0.0112496
4.23008e-05
0.0112374
4.1658e-05
0.0112251
4.10079e-05
0.0112128
4.03597e-05
0.0112004
3.97219e-05
0.011188
3.91005e-05
0.0111755
3.85004e-05
0.0111629
3.79242e-05
0.0111503
3.73737e-05
0.0111377
3.68485e-05
0.011125
3.63486e-05
0.0111123
3.58719e-05
0.0110995
3.5417e-05
0.0110868
3.49808e-05
0.011074
3.45613e-05
0.0110611
3.4155e-05
0.0110482
3.37602e-05
0.0110354
3.33738e-05
0.0110225
3.29948e-05
0.0110096
3.26201e-05
0.0109967
3.22497e-05
0.0109839
3.18809e-05
0.0109711
3.15153e-05
0.0109583
3.11497e-05
0.0109456
3.0788e-05
0.010933
3.04252e-05
0.0109204
3.00679e-05
0.010908
2.97071e-05
0.0108956
2.93552e-05
0.0108835
2.89949e-05
0.0108714
2.86499e-05
0.0108595
2.82861e-05
0.0108478
2.79509e-05
0.0108363
2.75748e-05
0.010825
2.72554e-05
0.010814
2.68496e-05
0.0108031
2.65614e-05
0.0107925
2.60919e-05
0.0107821
2.58685e-05
0.0107721
2.52661e-05
0.010762
2.51735e-05
0.0107526
2.42905e-05
0.010743
2.43862e-05
2.29745e-05
0.0100313
1.33378e-05
0.0100535
3.99649e-05
0.0100895
6.54951e-05
0.0101372
8.8484e-05
0.0101953
0.000108563
0.0102625
0.000125697
0.0103368
0.000139747
0.0104166
0.000150601
0.0105
0.000158359
0.0105857
0.000163311
0.0106724
0.000165804
0.010759
0.000166187
0.0108447
0.000164795
0.0109286
0.000161925
0.0110102
0.000157851
0.0110889
0.00015283
0.0111644
0.000147109
0.0112364
0.00014091
0.0113048
0.00013442
0.0113695
0.000127799
0.0114306
0.000121179
0.011488
0.000114667
0.011542
0.000108354
0.0115926
0.000102326
0.0116401
9.66255e-05
0.0116847
9.12852e-05
0.0117265
8.63228e-05
0.0117658
8.17432e-05
0.0118028
7.75387e-05
0.0118376
7.36971e-05
0.0118705
7.02021e-05
0.0119017
6.70333e-05
0.0119312
6.41677e-05
0.0119593
6.15813e-05
0.0119861
5.92493e-05
0.0120117
5.71458e-05
0.0120362
5.5245e-05
0.0120597
5.35237e-05
0.0120823
5.19614e-05
0.0121041
5.05409e-05
0.0121251
4.9248e-05
0.0121455
4.80717e-05
0.0121651
4.70033e-05
0.0121842
4.60355e-05
0.0122027
4.51619e-05
0.0122208
4.43758e-05
0.0122383
4.36702e-05
0.0122555
4.30366e-05
0.0122722
4.24656e-05
0.0122885
4.1946e-05
0.0123045
4.14665e-05
0.0123202
4.10147e-05
0.0123355
4.05794e-05
0.0123506
4.01502e-05
0.0123653
3.97202e-05
0.0123797
3.92849e-05
0.0123938
3.8844e-05
0.0124076
3.84008e-05
0.0124211
3.79624e-05
0.0124343
3.75389e-05
0.0124472
3.71426e-05
0.0124599
3.67851e-05
0.0124723
3.64763e-05
0.0124845
3.62214e-05
0.0124965
3.60201e-05
0.0125083
3.58657e-05
0.0125199
3.57468e-05
0.0125314
3.56478e-05
0.0125426
3.55521e-05
0.0125537
3.5443e-05
0.0125646
3.53065e-05
0.0125752
3.51324e-05
0.0125857
3.49156e-05
0.0125959
3.4653e-05
0.012606
3.43465e-05
0.0126158
3.40017e-05
0.0126253
3.36271e-05
0.0126346
3.32312e-05
0.0126437
3.28233e-05
0.0126525
3.24114e-05
0.0126611
3.20035e-05
0.0126694
3.16054e-05
0.0126775
3.12224e-05
0.0126853
3.08573e-05
0.0126928
3.05126e-05
0.0127001
3.01889e-05
0.0127071
2.98866e-05
0.0127138
2.96044e-05
0.0127202
2.93416e-05
0.0127264
2.90955e-05
0.0127322
2.88646e-05
0.0127378
2.86457e-05
0.0127431
2.84374e-05
0.0127481
2.82365e-05
0.0127528
2.80418e-05
0.0127572
2.78504e-05
0.0127613
2.76619e-05
0.0127651
2.74733e-05
0.0127687
2.72856e-05
0.0127719
2.70957e-05
0.0127748
2.69061e-05
0.0127775
2.67122e-05
0.01278
2.65191e-05
0.0127821
2.63184e-05
0.0127841
2.61204e-05
0.0127858
2.59092e-05
0.0127873
2.57062e-05
0.0127887
2.54791e-05
0.0127898
2.52731e-05
0.0127909
2.50203e-05
0.0127918
2.48177e-05
0.0127926
2.45221e-05
0.0127934
2.43404e-05
0.0127941
2.39703e-05
0.0127947
2.38462e-05
0.0127954
2.33384e-05
0.012796
2.3335e-05
0.0127968
2.25567e-05
0.0127974
2.27333e-05
2.14059e-05
0.0100306
6.55502e-06
0.0100511
1.9592e-05
0.0100846
3.21529e-05
0.0101297
4.35775e-05
0.0101848
5.35662e-05
0.0102487
6.20734e-05
0.0103195
6.90835e-05
0.0103958
7.45548e-05
0.0104759
7.85098e-05
0.0105584
8.10663e-05
0.010642
8.23919e-05
0.0107258
8.26613e-05
0.0108088
8.20394e-05
0.0108903
8.06745e-05
0.0109696
7.8703e-05
0.0110465
7.6254e-05
0.0111204
7.34486e-05
0.0111911
7.04027e-05
0.0112585
6.72097e-05
0.0113226
6.39486e-05
0.0113832
6.06851e-05
0.0114406
5.74728e-05
0.0114947
5.43585e-05
0.0115458
5.13819e-05
0.011594
4.85666e-05
0.0116394
4.59273e-05
0.0116823
4.34743e-05
0.0117229
4.12135e-05
0.0117613
3.91333e-05
0.0117978
3.72295e-05
0.0118324
3.54946e-05
0.0118655
3.39184e-05
0.0118971
3.24893e-05
0.0119273
3.11958e-05
0.0119564
3.00257e-05
0.0119844
2.89666e-05
0.0120115
2.80059e-05
0.0120376
2.71323e-05
0.012063
2.63357e-05
0.0120877
2.56083e-05
0.0121117
2.49439e-05
0.0121352
2.43386e-05
0.0121581
2.37894e-05
0.0121805
2.32942e-05
0.0122025
2.28507e-05
0.0122242
2.24565e-05
0.0122454
2.21083e-05
0.0122664
2.18015e-05
0.0122871
2.15309e-05
0.0123075
2.12896e-05
0.0123276
2.10702e-05
0.0123476
2.08649e-05
0.0123673
2.06663e-05
0.0123868
2.04681e-05
0.0124062
2.02661e-05
0.0124253
2.00582e-05
0.0124443
1.98449e-05
0.0124631
1.96293e-05
0.0124817
1.9417e-05
0.0125001
1.92156e-05
0.0125184
1.9034e-05
0.0125365
1.88806e-05
0.0125545
1.87619e-05
0.0125724
1.86814e-05
0.0125902
1.86385e-05
0.0126079
1.8628e-05
0.0126256
1.86412e-05
0.0126432
1.86661e-05
0.0126606
1.86898e-05
0.0126781
1.86999e-05
0.0126954
1.86855e-05
0.0127127
1.8639e-05
0.0127298
1.85558e-05
0.0127469
1.84335e-05
0.0127638
1.8273e-05
0.0127806
1.80783e-05
0.0127973
1.78558e-05
0.0128139
1.76127e-05
0.0128303
1.73563e-05
0.0128466
1.70938e-05
0.0128627
1.68317e-05
0.0128786
1.65758e-05
0.0128944
1.63308e-05
0.01291
1.61002e-05
0.0129254
1.58866e-05
0.0129406
1.56912e-05
0.0129556
1.55145e-05
0.0129705
1.5356e-05
0.0129851
1.52151e-05
0.0129995
1.50902e-05
0.0130137
1.49797e-05
0.0130277
1.48815e-05
0.0130415
1.47936e-05
0.0130551
1.47137e-05
0.0130684
1.46399e-05
0.0130814
1.45703e-05
0.0130943
1.45037e-05
0.0131069
1.44381e-05
0.0131192
1.43729e-05
0.0131313
1.4306e-05
0.0131431
1.42374e-05
0.0131547
1.41645e-05
0.0131661
1.40888e-05
0.0131772
1.40062e-05
0.0131881
1.39206e-05
0.0131988
1.38237e-05
0.0132092
1.37248e-05
0.0132195
1.36078e-05
0.0132296
1.34939e-05
0.0132396
1.33503e-05
0.0132494
1.32238e-05
0.013259
1.30457e-05
0.0132686
1.29154e-05
0.013278
1.26896e-05
0.0132874
1.25737e-05
0.0132967
1.22749e-05
0.0133061
1.21999e-05
0.0133152
1.17623e-05
0.0133245
1.17282e-05
1.10752e-05
0.0100302
2.13423e-09
0.01005
6.03578e-09
0.0100823
1.00362e-08
0.010126
1.43386e-08
0.0101797
1.88571e-08
0.010242
2.43195e-08
0.0103112
3.21809e-08
0.010386
4.34853e-08
0.0104646
5.83741e-08
0.0105459
7.67261e-08
0.0106284
9.83328e-08
0.0107112
1.22894e-07
0.0107933
1.5013e-07
0.0108741
1.79895e-07
0.0109528
2.12033e-07
0.011029
2.45899e-07
0.0111024
2.80738e-07
0.0111727
3.16202e-07
0.0112398
3.52268e-07
0.0113036
3.88813e-07
0.011364
4.25671e-07
0.0114212
4.6268e-07
0.0114752
4.99914e-07
0.0115262
5.37765e-07
0.0115743
5.76244e-07
0.0116197
6.14982e-07
0.0116625
6.53148e-07
0.0117031
6.89755e-07
0.0117415
7.24069e-07
0.011778
7.55817e-07
0.0118126
7.84059e-07
0.0118457
8.07573e-07
0.0118773
8.25176e-07
0.0119075
8.36222e-07
0.0119365
8.40451e-07
0.0119645
8.3751e-07
0.0119915
8.26765e-07
0.0120176
8.0776e-07
0.0120429
7.80905e-07
0.0120675
7.47801e-07
0.0120914
7.11051e-07
0.0121148
6.73851e-07
0.0121377
6.39604e-07
0.0121601
6.11581e-07
0.012182
5.9265e-07
0.0122036
5.84881e-07
0.0122248
5.89197e-07
0.0122457
6.05142e-07
0.0122664
6.30956e-07
0.0122867
6.63775e-07
0.0123069
7.00001e-07
0.0123268
7.35723e-07
0.0123465
7.67167e-07
0.0123661
7.91251e-07
0.0123854
8.06088e-07
0.0124046
8.11389e-07
0.0124236
8.08645e-07
0.0124424
8.01153e-07
0.0124611
7.93819e-07
0.0124797
7.92734e-07
0.0124981
8.04428e-07
0.0125163
8.34955e-07
0.0125345
8.88848e-07
0.0125526
9.68224e-07
0.0125706
1.07212e-06
0.0125885
1.19634e-06
0.0126064
1.33384e-06
0.0126241
1.47561e-06
0.0126419
1.61177e-06
0.0126595
1.73276e-06
0.0126771
1.83025e-06
0.0126946
1.89775e-06
0.012712
1.93112e-06
0.0127294
1.92868e-06
0.0127466
1.89113e-06
0.0127638
1.82159e-06
0.0127808
1.72502e-06
0.0127978
1.6074e-06
0.0128146
1.47515e-06
0.0128313
1.33469e-06
0.0128479
1.19216e-06
0.0128643
1.05304e-06
0.0128806
9.21925e-07
0.0128968
8.02435e-07
0.0129127
6.97205e-07
0.0129285
6.0791e-07
0.0129442
5.35348e-07
0.0129596
4.79543e-07
0.0129749
4.39895e-07
0.01299
4.15306e-07
0.0130049
4.04304e-07
0.0130196
4.05158e-07
0.0130341
4.15978e-07
0.0130484
4.3484e-07
0.0130625
4.59842e-07
0.0130763
4.89205e-07
0.01309
5.2123e-07
0.0131034
5.54396e-07
0.0131166
5.87167e-07
0.0131296
6.18193e-07
0.0131423
6.45963e-07
0.0131549
6.69269e-07
0.0131672
6.86517e-07
0.0131793
6.96659e-07
0.0131912
6.97893e-07
0.0132029
6.89416e-07
0.0132144
6.6921e-07
0.0132258
6.3695e-07
0.013237
5.90723e-07
0.0132481
5.30834e-07
0.013259
4.56506e-07
0.0132699
3.67784e-07
0.0132806
2.67817e-07
0.0132913
1.51857e-07
0.0133019
3.50559e-08
0.0133125
-1.04838e-07
0.0133231
-2.18889e-07
0.0133335
-3.84813e-07
0.013344
-4.61541e-07
-6.72853e-07
0.0100302
-6.55074e-06
0.01005
-1.95798e-05
0.0100823
-3.21327e-05
0.010126
-4.35494e-05
0.0101797
-5.35305e-05
0.010242
-6.20279e-05
0.0103113
-6.90227e-05
0.010386
-7.44714e-05
0.0104647
-7.83965e-05
0.0105459
-8.09161e-05
0.0106284
-8.21984e-05
0.0107112
-8.24185e-05
0.0107933
-8.17413e-05
0.0108741
-8.03159e-05
0.0109528
-7.82797e-05
0.0110291
-7.5763e-05
0.0111025
-7.28879e-05
0.0111728
-6.97705e-05
0.0112398
-6.6505e-05
0.0113036
-6.3171e-05
0.011364
-5.98342e-05
0.0114212
-5.65484e-05
0.0114752
-5.33589e-05
0.0115262
-5.03057e-05
0.0115743
-4.74131e-05
0.0116197
-4.46962e-05
0.0116626
-4.21662e-05
0.0117031
-3.98307e-05
0.0117415
-3.76803e-05
0.011778
-3.57116e-05
0.0118127
-3.39193e-05
0.0118457
-3.22954e-05
0.0118772
-3.08303e-05
0.0119075
-2.95135e-05
0.0119365
-2.83338e-05
0.0119644
-2.72802e-05
0.0119914
-2.63415e-05
0.0120175
-2.5507e-05
0.0120428
-2.47655e-05
0.0120674
-2.41062e-05
0.0120914
-2.35182e-05
0.0121147
-2.29908e-05
0.0121376
-2.25137e-05
0.01216
-2.20775e-05
0.012182
-2.16739e-05
0.0122035
-2.12961e-05
0.0122248
-2.09389e-05
0.0122457
-2.05989e-05
0.0122663
-2.02741e-05
0.0122867
-1.99639e-05
0.0123068
-1.96683e-05
0.0123268
-1.93878e-05
0.0123465
-1.91233e-05
0.012366
-1.88752e-05
0.0123853
-1.86434e-05
0.0124045
-1.84266e-05
0.0124235
-1.82221e-05
0.0124423
-1.80262e-05
0.012461
-1.78343e-05
0.0124796
-1.76413e-05
0.012498
-1.74418e-05
0.0125163
-1.72314e-05
0.0125345
-1.70066e-05
0.0125526
-1.67661e-05
0.0125706
-1.65109e-05
0.0125886
-1.62449e-05
0.0126064
-1.59739e-05
0.0126242
-1.5705e-05
0.0126419
-1.54461e-05
0.0126595
-1.52052e-05
0.012677
-1.4989e-05
0.0126945
-1.48032e-05
0.0127119
-1.46515e-05
0.0127292
-1.45349e-05
0.0127464
-1.44527e-05
0.0127635
-1.44021e-05
0.0127805
-1.43789e-05
0.0127975
-1.43776e-05
0.0128143
-1.43925e-05
0.012831
-1.44172e-05
0.0128476
-1.44459e-05
0.012864
-1.44731e-05
0.0128803
-1.44942e-05
0.0128965
-1.45056e-05
0.0129124
-1.45045e-05
0.0129283
-1.44889e-05
0.0129439
-1.44578e-05
0.0129594
-1.44109e-05
0.0129747
-1.43485e-05
0.0129898
-1.42716e-05
0.0130047
-1.41817e-05
0.0130194
-1.40802e-05
0.0130339
-1.39689e-05
0.0130482
-1.38494e-05
0.0130623
-1.37238e-05
0.0130762
-1.35936e-05
0.0130898
-1.34611e-05
0.0131032
-1.33275e-05
0.0131164
-1.31951e-05
0.0131294
-1.30645e-05
0.0131421
-1.29387e-05
0.0131547
-1.28176e-05
0.013167
-1.27058e-05
0.0131791
-1.26012e-05
0.013191
-1.25116e-05
0.0132027
-1.24303e-05
0.0132142
-1.23709e-05
0.0132255
-1.23175e-05
0.0132367
-1.2296e-05
0.0132477
-1.2272e-05
0.0132587
-1.22954e-05
0.0132695
-1.22955e-05
0.0132803
-1.23682e-05
0.0132909
-1.2376e-05
0.0133016
-1.24987e-05
0.0133121
-1.24822e-05
0.0133227
-1.26425e-05
0.0133332
-1.25376e-05
0.0133436
-1.26621e-05
-1.24338e-05
0.0100306
-1.3334e-05
0.0100511
-3.99527e-05
0.0100846
-6.54736e-05
0.0101297
-8.84571e-05
0.0101849
-0.000108533
0.0102487
-0.00012566
0.0103196
-0.000139696
0.0103958
-0.000150528
0.0104759
-0.000158257
0.0105584
-0.000163172
0.0106421
-0.000165621
0.0107258
-0.000165953
0.0108089
-0.000164504
0.0108904
-0.000161571
0.0109697
-0.00015743
0.0110466
-0.00015234
0.0111204
-0.000146548
0.0111912
-0.000140277
0.0112586
-0.000133714
0.0113226
-0.000127019
0.0113833
-0.000120327
0.0114407
-0.000113742
0.0114948
-0.000107353
0.0115459
-0.000101247
0.0115941
-9.54679e-05
0.0116395
-9.00483e-05
0.0116824
-8.50068e-05
0.011723
-8.03495e-05
0.0117614
-7.60708e-05
0.0117978
-7.21607e-05
0.0118324
-6.86051e-05
0.0118655
-6.53856e-05
0.011897
-6.2481e-05
0.0119272
-5.98686e-05
0.0119563
-5.75244e-05
0.0119843
-5.54248e-05
0.0120113
-5.35468e-05
0.0120374
-5.18678e-05
0.0120628
-5.03659e-05
0.0120874
-4.90213e-05
0.0121115
-4.78146e-05
0.0121349
-4.67272e-05
0.0121578
-4.57413e-05
0.0121803
-4.48411e-05
0.0122023
-4.4013e-05
0.012224
-4.32457e-05
0.0122453
-4.25299e-05
0.0122663
-4.18582e-05
0.012287
-4.12251e-05
0.0123074
-4.06265e-05
0.0123275
-4.00598e-05
0.0123474
-3.95225e-05
0.0123672
-3.90132e-05
0.0123867
-3.85299e-05
0.012406
-3.80706e-05
0.0124251
-3.76323e-05
0.0124441
-3.72115e-05
0.0124628
-3.68036e-05
0.0124815
-3.64043e-05
0.0125
-3.60083e-05
0.0125183
-3.56114e-05
0.0125365
-3.52091e-05
0.0125546
-3.47993e-05
0.0125726
-3.43809e-05
0.0125904
-3.39553e-05
0.0126082
-3.35259e-05
0.0126259
-3.30981e-05
0.0126434
-3.26781e-05
0.0126609
-3.22731e-05
0.0126782
-3.18895e-05
0.0126955
-3.15338e-05
0.0127127
-3.12104e-05
0.0127297
-3.09224e-05
0.0127467
-3.06703e-05
0.0127636
-3.04534e-05
0.0127803
-3.02688e-05
0.012797
-3.01125e-05
0.0128135
-2.9979e-05
0.0128299
-2.98625e-05
0.0128462
-2.97567e-05
0.0128624
-2.9656e-05
0.0128784
-2.95546e-05
0.0128942
-2.94483e-05
0.0129099
-2.93326e-05
0.0129254
-2.92051e-05
0.0129407
-2.90631e-05
0.0129558
-2.89061e-05
0.0129707
-2.87333e-05
0.0129854
-2.85455e-05
0.0129999
-2.8343e-05
0.0130142
-2.81276e-05
0.0130282
-2.79001e-05
0.013042
-2.76629e-05
0.0130556
-2.74173e-05
0.013069
-2.7166e-05
0.0130821
-2.69098e-05
0.013095
-2.66518e-05
0.0131076
-2.63919e-05
0.0131199
-2.61343e-05
0.0131321
-2.58782e-05
0.0131439
-2.56292e-05
0.0131555
-2.53847e-05
0.0131669
-2.51532e-05
0.013178
-2.49281e-05
0.0131889
-2.47237e-05
0.0131996
-2.45255e-05
0.0132101
-2.43598e-05
0.0132204
-2.4194e-05
0.0132305
-2.40791e-05
0.0132404
-2.39441e-05
0.0132502
-2.3892e-05
0.0132599
-2.37731e-05
0.0132694
-2.37981e-05
0.0132789
-2.36597e-05
0.0132883
-2.37822e-05
0.0132976
-2.35533e-05
0.0133069
-2.37992e-05
0.0133161
-2.3345e-05
0.0133254
-2.36954e-05
-2.2776e-05
0.0100313
-2.0628e-05
0.0100535
-6.20712e-05
0.0100895
-0.000101228
0.0101372
-0.000136013
0.0101954
-0.000166526
0.0102625
-0.000192625
0.0103369
-0.000213854
0.0104166
-0.000230044
0.0105001
-0.000241471
0.0105858
-0.000248655
0.0106725
-0.000252117
0.0107592
-0.000252382
0.0108449
-0.000249952
0.0109288
-0.000245263
0.0110104
-0.000238748
0.0110891
-0.000230799
0.0111645
-0.000221794
0.0112365
-0.000212064
0.0113049
-0.000201894
0.0113697
-0.000191531
0.0114307
-0.00018118
0.0114881
-0.000171014
0.0115421
-0.000161173
0.0115928
-0.000151764
0.0116403
-0.000142865
0.0116848
-0.000134523
0.0117266
-0.000126764
0.0117659
-0.000119598
0.0118029
-0.000113016
0.0118377
-0.000107003
0.0118706
-0.000101534
0.0119017
-9.6579e-05
0.0119313
-9.21029e-05
0.0119593
-8.8069e-05
0.0119861
-8.44393e-05
0.0120117
-8.11763e-05
0.0120362
-7.82433e-05
0.0120597
-7.56059e-05
0.0120823
-7.32323e-05
0.0121042
-7.10928e-05
0.0121252
-6.91587e-05
0.0121456
-6.74015e-05
0.0121654
-6.57957e-05
0.0121846
-6.43191e-05
0.0122032
-6.2953e-05
0.0122213
-6.16816e-05
0.012239
-6.04915e-05
0.0122563
-5.93714e-05
0.0122731
-5.83119e-05
0.0122895
-5.73068e-05
0.0123056
-5.63507e-05
0.0123213
-5.54391e-05
0.0123366
-5.45682e-05
0.0123517
-5.37341e-05
0.0123665
-5.29331e-05
0.0123809
-5.21608e-05
0.0123951
-5.14127e-05
0.012409
-5.06838e-05
0.0124226
-4.99693e-05
0.012436
-4.92643e-05
0.0124491
-4.85648e-05
0.012462
-4.78669e-05
0.0124747
-4.71686e-05
0.0124872
-4.64689e-05
0.0124994
-4.57699e-05
0.0125115
-4.50749e-05
0.0125233
-4.4389e-05
0.0125349
-4.37178e-05
0.0125464
-4.30675e-05
0.0125576
-4.2444e-05
0.0125686
-4.18523e-05
0.0125795
-4.1296e-05
0.0125901
-4.07772e-05
0.0126006
-4.02959e-05
0.0126108
-3.98509e-05
0.0126209
-3.94388e-05
0.0126307
-3.90558e-05
0.0126404
-3.8696e-05
0.0126498
-3.8354e-05
0.0126589
-3.80233e-05
0.0126678
-3.76986e-05
0.0126765
-3.73745e-05
0.0126849
-3.70467e-05
0.012693
-3.67112e-05
0.0127009
-3.63658e-05
0.0127085
-3.60081e-05
0.0127157
-3.56377e-05
0.0127227
-3.5254e-05
0.0127294
-3.48582e-05
0.0127358
-3.44506e-05
0.0127419
-3.40332e-05
0.0127477
-3.36069e-05
0.0127532
-3.31741e-05
0.0127584
-3.27359e-05
0.0127632
-3.22954e-05
0.0127678
-3.18529e-05
0.0127721
-3.1412e-05
0.0127761
-3.09722e-05
0.0127798
-3.0538e-05
0.0127832
-3.01082e-05
0.0127863
-2.96889e-05
0.0127891
-2.92772e-05
0.0127917
-2.88822e-05
0.012794
-2.84965e-05
0.0127961
-2.8136e-05
0.0127979
-2.77844e-05
0.0127996
-2.74702e-05
0.012801
-2.71585e-05
0.0128023
-2.69027e-05
0.0128034
-2.66292e-05
0.0128043
-2.64434e-05
0.0128052
-2.61927e-05
0.0128059
-2.60903e-05
0.0128066
-2.58238e-05
0.0128071
-2.58248e-05
0.0128077
-2.54652e-05
0.0128082
-2.56037e-05
0.0128087
-2.50029e-05
0.0128092
-2.5263e-05
-2.41938e-05
0.0100328
-2.9124e-05
0.0100583
-8.74762e-05
0.0100984
-0.000141122
0.0101516
-0.000189071
0.0102171
-0.000231777
0.0102928
-0.000268195
0.0103764
-0.00029723
0.0104652
-0.000318591
0.0105567
-0.000332773
0.0106488
-0.000340515
0.0107396
-0.000342671
0.0108276
-0.000340177
0.0109117
-0.000333799
0.010991
-0.00032429
0.0110649
-0.000312388
0.011133
-0.000298757
0.0111955
-0.000283967
0.0112521
-0.0002685
0.0113032
-0.000252756
0.0113489
-0.000237067
0.0113896
-0.000221694
0.0114256
-0.000206846
0.0114573
-0.000192676
0.0114849
-0.00017929
0.0115089
-0.000166757
0.0115296
-0.000155114
0.0115473
-0.000144368
0.0115622
-0.000134506
0.0115747
-0.000125499
0.011585
-0.000117307
0.0115933
-0.000109882
0.0115998
-0.00010317
0.0116047
-9.7117e-05
0.0116082
-9.1665e-05
0.0116103
-8.67581e-05
0.0116113
-8.23416e-05
0.0116112
-7.83619e-05
0.0116102
-7.47703e-05
0.0116083
-7.15295e-05
0.0116055
-6.86025e-05
0.011602
-6.5948e-05
0.0115979
-6.35277e-05
0.0115931
-6.13101e-05
0.0115878
-5.92678e-05
0.011582
-5.73778e-05
0.0115756
-5.56209e-05
0.0115689
-5.39797e-05
0.0115617
-5.24408e-05
0.0115542
-5.09922e-05
0.0115463
-4.9624e-05
0.0115382
-4.83294e-05
0.0115297
-4.71018e-05
0.011521
-4.59352e-05
0.0115121
-4.48241e-05
0.0115029
-4.37631e-05
0.0114935
-4.27467e-05
0.011484
-4.17695e-05
0.0114743
-4.0826e-05
0.0114645
-3.99111e-05
0.0114545
-3.902e-05
0.0114444
-3.81491e-05
0.0114342
-3.72953e-05
0.011424
-3.64556e-05
0.0114136
-3.5628e-05
0.0114032
-3.48146e-05
0.0113927
-3.40183e-05
0.0113822
-3.32428e-05
0.0113716
-3.24921e-05
0.011361
-3.17705e-05
0.0113503
-3.10816e-05
0.0113396
-3.04285e-05
0.0113288
-2.98131e-05
0.011318
-2.92359e-05
0.0113071
-2.86961e-05
0.0112961
-2.81916e-05
0.0112851
-2.7719e-05
0.0112739
-2.72741e-05
0.0112627
-2.68521e-05
0.0112513
-2.6448e-05
0.0112398
-2.60565e-05
0.0112282
-2.56733e-05
0.0112165
-2.52941e-05
0.0112047
-2.49155e-05
0.0111927
-2.45349e-05
0.0111806
-2.41506e-05
0.0111683
-2.37614e-05
0.011156
-2.33672e-05
0.0111436
-2.29681e-05
0.011131
-2.25652e-05
0.0111184
-2.21593e-05
0.0111057
-2.1752e-05
0.0110929
-2.13444e-05
0.0110801
-2.09383e-05
0.0110673
-2.05346e-05
0.0110544
-2.01353e-05
0.0110415
-1.9741e-05
0.0110286
-1.93538e-05
0.0110158
-1.89738e-05
0.011003
-1.86034e-05
0.0109902
-1.82422e-05
0.0109775
-1.78933e-05
0.0109648
-1.75558e-05
0.0109523
-1.72342e-05
0.0109399
-1.69258e-05
0.0109275
-1.66378e-05
0.0109153
-1.63642e-05
0.0109033
-1.61168e-05
0.0108914
-1.58828e-05
0.0108796
-1.5682e-05
0.010868
-1.54885e-05
0.0108566
-1.53366e-05
0.0108453
-1.51775e-05
0.0108342
-1.50714e-05
0.0108234
-1.49311e-05
0.0108126
-1.48591e-05
0.0108021
-1.47095e-05
0.0107916
-1.46434e-05
0.0107816
-1.44361e-05
0.0107713
-1.43304e-05
-1.41416e-05
0.0100436
-4.80281e-05
0.0100876
-0.000131328
0.0101487
-0.000201995
0.0102204
-0.000260634
0.0102948
-0.00030599
0.0103641
-0.00033736
0.0104229
-0.000355803
0.0104679
-0.000363302
0.0104976
-0.000362305
0.010512
-0.000354636
0.0105117
-0.000342165
0.0104983
-0.000326548
0.0104733
-0.000308521
0.0104382
-0.000289023
0.0103949
-0.00026883
0.0103449
-0.000248491
0.0102896
-0.000228421
0.0102302
-0.000208939
0.0101679
-0.000190278
0.0101037
-0.000172606
0.0100382
-0.000156034
0.00997208
-0.000140627
0.00990594
-0.000126415
0.00984014
-0.000113395
0.009775
-0.000101546
0.00971076
-9.08237e-05
0.00964758
-8.11731e-05
0.0095856
-7.25289e-05
0.00952489
-6.48202e-05
0.0094655
-5.79739e-05
0.00940745
-5.1916e-05
0.00935075
-4.65736e-05
0.00929539
-4.18772e-05
0.00924135
-3.77593e-05
0.0091886
-3.41572e-05
0.00913711
-3.10119e-05
0.00908684
-2.82664e-05
0.00903776
-2.58582e-05
0.00898982
-2.37632e-05
0.00894301
-2.19567e-05
0.0088973
-2.03861e-05
0.00885264
-1.90166e-05
0.00880903
-1.78199e-05
0.00876643
-1.67712e-05
0.00872482
-1.58495e-05
0.00868419
-1.50371e-05
0.00864451
-1.43186e-05
0.00860577
-1.36818e-05
0.00856795
-1.31161e-05
0.00853103
-1.26125e-05
0.00849501
-1.21638e-05
0.00845985
-1.17636e-05
0.00842555
-1.14059e-05
0.00839207
-1.1085e-05
0.00835941
-1.07959e-05
0.00832754
-1.05334e-05
0.00829643
-1.02926e-05
0.00826607
-1.0069e-05
0.00823644
-9.85834e-06
0.00820752
-9.65713e-06
0.00817929
-9.46291e-06
0.00815173
-9.27565e-06
0.00812482
-9.09191e-06
0.00809855
-8.90773e-06
0.00807289
-8.72607e-06
0.00804783
-8.54882e-06
0.00802334
-8.37795e-06
0.0079994
-8.21562e-06
0.00797598
-8.06392e-06
0.00795307
-7.92453e-06
0.00793063
-7.79863e-06
0.00790864
-7.68667e-06
0.00788707
-7.58841e-06
0.00786589
-7.50283e-06
0.00784507
-7.4283e-06
0.00782461
-7.36263e-06
0.00780447
-7.30344e-06
0.00778464
-7.24813e-06
0.0077651
-7.19427e-06
0.00774586
-7.13954e-06
0.0077269
-7.08208e-06
0.00770823
-7.02036e-06
0.00768985
-6.95338e-06
0.00767177
-6.88051e-06
0.00765399
-6.80166e-06
0.00763652
-6.717e-06
0.00761938
-6.62712e-06
0.00760258
-6.53269e-06
0.00758612
-6.43468e-06
0.00757002
-6.33392e-06
0.00755429
-6.23139e-06
0.00753892
-6.12779e-06
0.00752393
-6.02393e-06
0.00750932
-5.9203e-06
0.00749508
-5.81751e-06
0.00748122
-5.71578e-06
0.00746772
-5.61555e-06
0.00745459
-5.5168e-06
0.0074418
-5.41989e-06
0.00742935
-5.32476e-06
0.00741721
-5.23184e-06
0.00740536
-5.1412e-06
0.0073938
-5.05335e-06
0.00738248
-4.96874e-06
0.00737139
-4.88756e-06
0.00736051
-4.81147e-06
0.0073498
-4.73882e-06
0.00733925
-4.67472e-06
0.00732882