/*--------------------------------*- C++ -*----------------------------------*\
  =========                 |
  \\      /  F ield         | OpenFOAM: The Open Source CFD Toolbox
   \\    /   O peration     | Website:  https://openfoam.org
    \\  /    A nd           | Version:  7
     \\/     M anipulation  |
\*---------------------------------------------------------------------------*/
FoamFile
{
    version     2.0;
    format      ascii;
    class       volScalarField;
    location    "2.24";
    object      rho;
}
// * * * * * * * * * * * * * * * * * * * * * * * * * * * * * * * * * * * * * //

dimensions      [1 -3 0 0 0 0 0];

internalField   nonuniform List<scalar> 
5760
(
1.22132
1.20407
1.19159
1.18191
1.17335
1.16567
1.15883
1.15263
1.14685
1.14143
1.13632
1.13151
1.12694
1.12259
1.11844
1.11446
1.11063
1.10695
1.1034
1.09997
1.09665
1.09343
1.09031
1.08728
1.08434
1.08148
1.07869
1.07598
1.07334
1.07077
1.06825
1.0658
1.0634
1.06105
1.05876
1.05651
1.0543
1.05214
1.05002
1.04795
1.04591
1.04391
1.04195
1.04002
1.03813
1.03628
1.03445
1.03266
1.03091
1.02919
1.0275
1.02584
1.02421
1.02262
1.02107
1.01954
1.01806
1.01661
1.0152
1.01382
1.01249
1.01119
1.00994
1.00872
1.00755
1.00641
1.00532
1.00427
1.00325
1.00228
1.00135
1.00045
0.999597
0.998779
0.997997
0.997252
0.996542
0.995866
0.995224
0.994614
0.994036
0.993489
0.992971
0.992481
0.992019
0.991584
0.991173
0.990788
0.990425
0.990084
0.989765
0.989465
0.989185
0.988923
0.988678
0.988449
0.988236
0.988038
0.987854
0.987683
0.987524
0.987378
0.987243
0.987119
0.987006
0.986902
0.986807
0.986721
0.986643
0.986573
0.98651
0.986453
0.986403
0.986358
0.986319
0.986285
0.986255
0.98623
0.986209
0.986192
0.986179
0.986169
0.986163
0.98616
0.98616
0.986163
0.986168
0.986177
0.986188
0.986201
0.986216
0.986233
0.986252
0.986273
0.986295
0.986318
0.986342
0.986368
0.986394
0.986422
0.98645
0.98648
0.98651
0.986541
0.986573
0.986606
0.98664
0.986675
0.98671
0.986746
0.986783
0.98682
0.986857
0.986895
0.986934
0.986972
0.987011
0.98705
0.987089
0.987128
0.987167
0.987207
0.987246
0.987285
0.987324
0.987364
0.987404
0.987443
0.987484
0.987524
0.987564
0.987605
0.987646
0.987687
0.987728
0.987769
0.98781
0.987851
0.987891
0.987932
0.987972
0.988012
0.988052
0.988091
0.988131
0.98817
0.98821
0.988249
0.988288
0.988328
0.988367
0.988407
0.988447
0.988486
0.988526
0.988566
0.988606
0.988646
0.988687
0.988727
0.988767
0.988808
0.988849
0.988889
0.98893
0.988971
0.989011
0.989052
0.989093
0.989134
0.989175
0.989216
0.989257
0.989298
0.989339
0.98938
0.989421
0.989462
0.989503
0.989544
0.989584
0.989625
0.989665
0.989706
0.989746
0.989787
0.989826
0.989868
0.989906
0.98995
0.989984
0.990031
0.990059
0.990114
0.990132
0.9902
0.990198
0.990291
0.990254
0.990392
1.2272
1.21706
1.2081
1.20034
1.1933
1.18685
1.18092
1.17536
1.17009
1.16509
1.16036
1.15585
1.15155
1.14743
1.14348
1.13968
1.13602
1.13249
1.12907
1.12576
1.12254
1.11942
1.11638
1.11342
1.11054
1.10773
1.105
1.10233
1.09972
1.09717
1.09469
1.09226
1.08988
1.08755
1.08527
1.08303
1.08084
1.07869
1.07657
1.0745
1.07246
1.07046
1.06849
1.06655
1.06465
1.06279
1.06095
1.05915
1.05738
1.05564
1.05393
1.05225
1.05061
1.04899
1.04741
1.04586
1.04435
1.04287
1.04142
1.04001
1.03863
1.0373
1.036
1.03474
1.03352
1.03234
1.0312
1.0301
1.02904
1.02801
1.02703
1.02609
1.02518
1.02432
1.02348
1.02269
1.02193
1.02121
1.02052
1.01986
1.01923
1.01864
1.01807
1.01754
1.01703
1.01655
1.0161
1.01567
1.01527
1.01489
1.01453
1.01419
1.01388
1.01358
1.0133
1.01304
1.0128
1.01257
1.01235
1.01215
1.01197
1.0118
1.01163
1.01148
1.01135
1.01122
1.0111
1.01099
1.01089
1.0108
1.01072
1.01064
1.01058
1.01052
1.01046
1.01041
1.01037
1.01033
1.01029
1.01026
1.01023
1.01021
1.01019
1.01018
1.01016
1.01015
1.01015
1.01015
1.01015
1.01015
1.01015
1.01016
1.01017
1.01018
1.0102
1.01021
1.01023
1.01025
1.01027
1.01029
1.01031
1.01033
1.01035
1.01038
1.0104
1.01043
1.01045
1.01048
1.01051
1.01054
1.01057
1.0106
1.01063
1.01067
1.0107
1.01073
1.01077
1.0108
1.01083
1.01087
1.0109
1.01094
1.01097
1.011
1.01104
1.01107
1.01111
1.01114
1.01118
1.01121
1.01124
1.01128
1.01131
1.01135
1.01139
1.01142
1.01146
1.01149
1.01153
1.01156
1.0116
1.01164
1.01167
1.0117
1.01174
1.01177
1.01181
1.01184
1.01187
1.01191
1.01194
1.01197
1.01201
1.01204
1.01207
1.01211
1.01214
1.01217
1.01221
1.01224
1.01228
1.01231
1.01234
1.01238
1.01241
1.01245
1.01248
1.01251
1.01255
1.01258
1.01262
1.01265
1.01268
1.01272
1.01275
1.01279
1.01282
1.01285
1.01289
1.01292
1.01295
1.01299
1.01302
1.01306
1.01309
1.01312
1.01315
1.01319
1.01322
1.01325
1.01328
1.01332
1.01334
1.01339
1.0134
1.01346
1.01345
1.01353
1.01349
1.01362
1.22928
1.22448
1.21901
1.21339
1.20793
1.20286
1.19811
1.19352
1.18902
1.18464
1.18043
1.17638
1.17247
1.16869
1.16504
1.16151
1.1581
1.15479
1.15158
1.14846
1.14542
1.14245
1.13956
1.13672
1.13396
1.13125
1.1286
1.12601
1.12347
1.12099
1.11856
1.11618
1.11385
1.11157
1.10933
1.10714
1.10498
1.10286
1.10078
1.09873
1.09671
1.09472
1.09277
1.09084
1.08895
1.08708
1.08525
1.08344
1.08167
1.07992
1.07821
1.07652
1.07486
1.07324
1.07164
1.07007
1.06853
1.06702
1.06554
1.0641
1.06268
1.0613
1.05996
1.05865
1.05738
1.05614
1.05494
1.05378
1.05265
1.05157
1.05052
1.04951
1.04854
1.0476
1.0467
1.04584
1.04501
1.04422
1.04345
1.04273
1.04203
1.04136
1.04073
1.04012
1.03954
1.03899
1.03847
1.03798
1.03751
1.03707
1.03665
1.03625
1.03587
1.03552
1.03518
1.03487
1.03457
1.03429
1.03403
1.03378
1.03354
1.03332
1.03312
1.03292
1.03274
1.03257
1.03241
1.03226
1.03212
1.03199
1.03187
1.03176
1.03166
1.03157
1.03148
1.03141
1.03133
1.03127
1.03121
1.03115
1.0311
1.03105
1.03101
1.03097
1.03093
1.0309
1.03087
1.03085
1.03083
1.03081
1.0308
1.03079
1.03078
1.03078
1.03077
1.03077
1.03078
1.03078
1.03079
1.0308
1.0308
1.03081
1.03083
1.03084
1.03085
1.03086
1.03088
1.03089
1.03091
1.03093
1.03095
1.03097
1.03099
1.03101
1.03104
1.03106
1.03109
1.03111
1.03114
1.03117
1.0312
1.03122
1.03125
1.03128
1.0313
1.03133
1.03136
1.03138
1.03141
1.03144
1.03146
1.03149
1.03152
1.03155
1.03158
1.0316
1.03163
1.03166
1.03169
1.03172
1.03175
1.03178
1.03181
1.03184
1.03187
1.0319
1.03193
1.03195
1.03198
1.03201
1.03203
1.03206
1.03209
1.03211
1.03214
1.03216
1.03219
1.03222
1.03224
1.03227
1.0323
1.03232
1.03235
1.03238
1.0324
1.03243
1.03246
1.03248
1.03251
1.03254
1.03257
1.03259
1.03262
1.03265
1.03267
1.0327
1.03273
1.03276
1.03278
1.03281
1.03284
1.03286
1.03289
1.03292
1.03294
1.03297
1.033
1.03303
1.03305
1.03308
1.0331
1.03313
1.03315
1.03319
1.03319
1.03325
1.03323
1.03331
1.03327
1.03337
1.22956
1.22796
1.22542
1.22207
1.21833
1.21468
1.21121
1.20777
1.20428
1.20078
1.19731
1.19389
1.19054
1.18726
1.18405
1.18092
1.17786
1.17489
1.17199
1.16916
1.16639
1.16368
1.16102
1.15841
1.15584
1.15331
1.15082
1.14837
1.14597
1.1436
1.14128
1.13901
1.13678
1.13459
1.13244
1.13033
1.12825
1.12621
1.1242
1.12221
1.12026
1.11832
1.11642
1.11454
1.11268
1.11085
1.10904
1.10726
1.10551
1.10378
1.10208
1.10041
1.09876
1.09714
1.09555
1.09398
1.09244
1.09093
1.08944
1.08797
1.08654
1.08513
1.08375
1.0824
1.08108
1.07979
1.07854
1.07732
1.07613
1.07498
1.07387
1.07279
1.07174
1.07074
1.06976
1.06882
1.06791
1.06704
1.0662
1.06539
1.06461
1.06386
1.06314
1.06245
1.06178
1.06115
1.06054
1.05996
1.05941
1.05888
1.05838
1.0579
1.05744
1.05701
1.05661
1.05622
1.05585
1.0555
1.05517
1.05485
1.05456
1.05427
1.054
1.05375
1.0535
1.05327
1.05305
1.05285
1.05265
1.05247
1.0523
1.05214
1.05199
1.05185
1.05172
1.0516
1.05149
1.05138
1.05129
1.05119
1.05111
1.05103
1.05095
1.05088
1.05081
1.05075
1.05069
1.05064
1.05058
1.05054
1.0505
1.05046
1.05042
1.05039
1.05037
1.05035
1.05033
1.05031
1.0503
1.05029
1.05028
1.05028
1.05027
1.05027
1.05027
1.05026
1.05026
1.05026
1.05026
1.05027
1.05027
1.05028
1.05028
1.05029
1.0503
1.05031
1.05033
1.05034
1.05036
1.05038
1.0504
1.05042
1.05044
1.05046
1.05047
1.05049
1.05051
1.05053
1.05055
1.05056
1.05058
1.0506
1.05062
1.05064
1.05065
1.05067
1.0507
1.05072
1.05074
1.05076
1.05079
1.05081
1.05084
1.05086
1.05088
1.0509
1.05093
1.05095
1.05097
1.05099
1.05101
1.05103
1.05104
1.05106
1.05108
1.0511
1.05112
1.05114
1.05115
1.05117
1.05119
1.05121
1.05123
1.05125
1.05126
1.05128
1.0513
1.05132
1.05134
1.05136
1.05138
1.0514
1.05142
1.05144
1.05146
1.05148
1.0515
1.05152
1.05154
1.05156
1.05158
1.0516
1.05162
1.05164
1.05166
1.05168
1.0517
1.05172
1.05174
1.05176
1.05178
1.0518
1.05181
1.05184
1.05184
1.05189
1.05187
1.05194
1.05189
1.05199
1.22922
1.22894
1.22821
1.22681
1.22477
1.22253
1.22028
1.21798
1.21557
1.21306
1.21048
1.20786
1.20521
1.20256
1.19992
1.1973
1.19472
1.19218
1.18969
1.18725
1.18485
1.1825
1.18018
1.17788
1.17561
1.17335
1.17112
1.1689
1.16671
1.16454
1.1624
1.16029
1.15821
1.15617
1.15416
1.15219
1.15025
1.14834
1.14645
1.14459
1.14275
1.14093
1.13913
1.13734
1.13557
1.13382
1.13208
1.13037
1.12867
1.127
1.12535
1.12372
1.12212
1.12054
1.11898
1.11745
1.11594
1.11445
1.11299
1.11154
1.11011
1.10871
1.10733
1.10597
1.10463
1.10332
1.10203
1.10077
1.09954
1.09834
1.09717
1.09604
1.09493
1.09386
1.09282
1.09181
1.09084
1.08989
1.08897
1.08809
1.08723
1.0864
1.08559
1.08482
1.08407
1.08334
1.08264
1.08197
1.08132
1.0807
1.08011
1.07954
1.07899
1.07847
1.07798
1.0775
1.07705
1.07663
1.07622
1.07583
1.07545
1.0751
1.07475
1.07443
1.07411
1.07381
1.07352
1.07325
1.07298
1.07273
1.0725
1.07227
1.07206
1.07186
1.07167
1.0715
1.07133
1.07118
1.07103
1.0709
1.07077
1.07065
1.07053
1.07042
1.07031
1.07021
1.07011
1.07002
1.06993
1.06985
1.06977
1.06969
1.06963
1.06956
1.0695
1.06945
1.06941
1.06937
1.06933
1.0693
1.06927
1.06924
1.06922
1.0692
1.06917
1.06915
1.06914
1.06912
1.0691
1.06908
1.06907
1.06905
1.06904
1.06903
1.06902
1.06902
1.06902
1.06902
1.06902
1.06903
1.06904
1.06905
1.06906
1.06907
1.06908
1.06909
1.0691
1.06911
1.06912
1.06913
1.06914
1.06915
1.06915
1.06916
1.06917
1.06918
1.06919
1.0692
1.06921
1.06923
1.06924
1.06926
1.06928
1.0693
1.06932
1.06934
1.06935
1.06937
1.06939
1.0694
1.06941
1.06943
1.06944
1.06945
1.06946
1.06947
1.06948
1.06949
1.06949
1.0695
1.06951
1.06952
1.06953
1.06954
1.06955
1.06956
1.06957
1.06959
1.0696
1.06961
1.06962
1.06963
1.06964
1.06965
1.06967
1.06968
1.06969
1.0697
1.06971
1.06973
1.06974
1.06975
1.06977
1.06978
1.06979
1.06981
1.06982
1.06983
1.06984
1.06986
1.06987
1.06989
1.06989
1.06992
1.06991
1.06995
1.06993
1.06998
1.06994
1.07002
1.229
1.22893
1.22877
1.22845
1.22777
1.22679
1.22566
1.2244
1.223
1.22146
1.2198
1.21803
1.21616
1.21422
1.21222
1.2102
1.20816
1.20614
1.20413
1.20215
1.2002
1.19827
1.19637
1.19447
1.19259
1.1907
1.18881
1.18691
1.18502
1.18312
1.18123
1.17935
1.1775
1.17566
1.17385
1.17207
1.17032
1.16859
1.16689
1.16521
1.16355
1.1619
1.16026
1.15863
1.157
1.15539
1.15378
1.15218
1.15058
1.14901
1.14745
1.1459
1.14438
1.14288
1.1414
1.13994
1.13851
1.13709
1.13569
1.13431
1.13294
1.13158
1.13024
1.12892
1.12761
1.12631
1.12503
1.12377
1.12252
1.1213
1.12011
1.11894
1.1178
1.11669
1.1156
1.11455
1.11353
1.11253
1.11156
1.11062
1.1097
1.10881
1.10794
1.1071
1.10627
1.10547
1.10469
1.10393
1.10319
1.10248
1.10179
1.10113
1.10049
1.09988
1.09929
1.09873
1.09819
1.09768
1.09719
1.09672
1.09627
1.09583
1.09542
1.09502
1.09463
1.09425
1.09389
1.09354
1.0932
1.09287
1.09256
1.09226
1.09197
1.0917
1.09144
1.0912
1.09097
1.09076
1.09055
1.09036
1.09019
1.09002
1.08985
1.0897
1.08955
1.08941
1.08927
1.08913
1.089
1.08887
1.08874
1.08862
1.08851
1.0884
1.08831
1.08821
1.08813
1.08805
1.08799
1.08792
1.08787
1.08782
1.08777
1.08773
1.08769
1.08765
1.08761
1.08758
1.08754
1.0875
1.08746
1.08743
1.08739
1.08736
1.08733
1.0873
1.08728
1.08726
1.08724
1.08723
1.08723
1.08723
1.08723
1.08723
1.08724
1.08724
1.08725
1.08725
1.08726
1.08726
1.08726
1.08725
1.08725
1.08725
1.08724
1.08724
1.08723
1.08723
1.08723
1.08724
1.08724
1.08725
1.08727
1.08728
1.0873
1.08731
1.08733
1.08734
1.08735
1.08737
1.08738
1.08738
1.08739
1.08739
1.0874
1.0874
1.0874
1.0874
1.0874
1.0874
1.0874
1.0874
1.0874
1.08741
1.08741
1.08741
1.08741
1.08741
1.08742
1.08742
1.08742
1.08742
1.08743
1.08743
1.08743
1.08744
1.08744
1.08745
1.08745
1.08746
1.08746
1.08747
1.08747
1.08748
1.08748
1.08749
1.08749
1.0875
1.0875
1.08751
1.08751
1.08753
1.08752
1.08754
1.08753
1.08756
1.08754
1.08758
1.08753
1.08761
1.22894
1.22884
1.22871
1.22861
1.22849
1.22827
1.22796
1.22755
1.22701
1.22633
1.22551
1.22454
1.22344
1.22222
1.2209
1.21949
1.21804
1.21655
1.21505
1.21355
1.21207
1.21061
1.20916
1.20772
1.20627
1.20482
1.20334
1.20184
1.20032
1.19877
1.1972
1.19562
1.19404
1.19246
1.1909
1.18935
1.18783
1.18634
1.18486
1.18341
1.18197
1.18055
1.17913
1.17772
1.1763
1.17488
1.17346
1.17203
1.1706
1.16916
1.16774
1.16632
1.16492
1.16353
1.16216
1.16081
1.15948
1.15818
1.15688
1.15561
1.15435
1.15309
1.15185
1.15061
1.14938
1.14815
1.14693
1.14571
1.1445
1.14331
1.14213
1.14096
1.13982
1.1387
1.1376
1.13653
1.13549
1.13447
1.13348
1.13252
1.13157
1.13065
1.12975
1.12887
1.12801
1.12716
1.12632
1.1255
1.1247
1.12391
1.12314
1.1224
1.12167
1.12097
1.1203
1.11965
1.11903
1.11843
1.11786
1.11731
1.11679
1.11629
1.1158
1.11533
1.11487
1.11443
1.114
1.11357
1.11316
1.11276
1.11236
1.11198
1.11161
1.11126
1.11092
1.1106
1.1103
1.11001
1.10975
1.10949
1.10926
1.10904
1.10883
1.10862
1.10843
1.10824
1.10806
1.10788
1.1077
1.10753
1.10735
1.10718
1.10702
1.10686
1.10671
1.10657
1.10644
1.10631
1.1062
1.1061
1.10601
1.10593
1.10586
1.1058
1.10573
1.10568
1.10562
1.10556
1.10551
1.10545
1.10539
1.10533
1.10527
1.10521
1.10515
1.10509
1.10504
1.10499
1.10495
1.10492
1.1049
1.10488
1.10487
1.10486
1.10486
1.10486
1.10486
1.10486
1.10486
1.10486
1.10485
1.10484
1.10483
1.10482
1.1048
1.10478
1.10476
1.10474
1.10473
1.10471
1.10471
1.10471
1.10471
1.10472
1.10473
1.10474
1.10476
1.10477
1.10479
1.1048
1.10481
1.10482
1.10482
1.10482
1.10482
1.10482
1.10481
1.1048
1.1048
1.10479
1.10478
1.10477
1.10476
1.10476
1.10475
1.10474
1.10473
1.10473
1.10472
1.10472
1.10471
1.1047
1.1047
1.10469
1.10469
1.10469
1.10468
1.10468
1.10467
1.10467
1.10467
1.10467
1.10466
1.10466
1.10466
1.10466
1.10465
1.10466
1.10465
1.10465
1.10465
1.10465
1.10465
1.10466
1.10464
1.10466
1.10463
1.10467
1.10462
1.10469
1.22894
1.22881
1.22867
1.22856
1.2285
1.22846
1.22845
1.22844
1.22841
1.22831
1.22813
1.22784
1.22741
1.22685
1.22616
1.22536
1.22446
1.2235
1.2225
1.22148
1.22046
1.21945
1.21845
1.21746
1.21647
1.21546
1.21443
1.21336
1.21226
1.21111
1.20991
1.20868
1.20742
1.20615
1.20486
1.20358
1.20232
1.20108
1.19986
1.19866
1.19748
1.19632
1.19517
1.19402
1.19286
1.19169
1.19051
1.18931
1.18809
1.18686
1.18561
1.18436
1.18312
1.18188
1.18065
1.17944
1.17824
1.17707
1.17592
1.17479
1.17367
1.17257
1.17147
1.17037
1.16927
1.16817
1.16706
1.16595
1.16483
1.16371
1.16259
1.16147
1.16037
1.15928
1.1582
1.15715
1.15612
1.15512
1.15414
1.15319
1.15226
1.15136
1.15047
1.14959
1.14873
1.14788
1.14704
1.1462
1.14537
1.14454
1.14373
1.14293
1.14214
1.14137
1.14062
1.1399
1.1392
1.13853
1.13789
1.13728
1.13669
1.13613
1.13559
1.13507
1.13456
1.13407
1.13358
1.1331
1.13263
1.13216
1.1317
1.13124
1.13079
1.13036
1.12994
1.12953
1.12915
1.12878
1.12844
1.12812
1.12782
1.12754
1.12727
1.12703
1.12679
1.12656
1.12634
1.12612
1.1259
1.12569
1.12547
1.12525
1.12503
1.12482
1.12461
1.12441
1.12422
1.12404
1.12387
1.12372
1.12358
1.12346
1.12336
1.12326
1.12318
1.1231
1.12302
1.12295
1.12288
1.12281
1.12273
1.12265
1.12256
1.12247
1.12238
1.12229
1.12221
1.12212
1.12205
1.12198
1.12193
1.12188
1.12185
1.12182
1.12181
1.1218
1.1218
1.1218
1.1218
1.1218
1.12179
1.12179
1.12177
1.12175
1.12172
1.12169
1.12165
1.12162
1.12158
1.12155
1.12152
1.1215
1.12149
1.12148
1.12148
1.12149
1.12151
1.12152
1.12154
1.12156
1.12157
1.12159
1.12159
1.1216
1.1216
1.12159
1.12158
1.12157
1.12155
1.12154
1.12152
1.12151
1.12149
1.12147
1.12145
1.12144
1.12142
1.12141
1.12139
1.12138
1.12136
1.12135
1.12134
1.12132
1.12131
1.1213
1.12129
1.12127
1.12126
1.12125
1.12124
1.12123
1.12122
1.12121
1.1212
1.12119
1.12118
1.12118
1.12117
1.12116
1.12115
1.12115
1.12113
1.12114
1.12112
1.12113
1.1211
1.12112
1.12107
1.12113
1.22895
1.22881
1.22867
1.22855
1.22848
1.22845
1.22847
1.22853
1.22862
1.22872
1.22879
1.22883
1.2288
1.22869
1.22848
1.22817
1.22776
1.22728
1.22675
1.22618
1.22559
1.22499
1.22441
1.22383
1.22326
1.22268
1.22208
1.22144
1.22076
1.22002
1.21922
1.21837
1.21746
1.21651
1.21553
1.21454
1.21355
1.21257
1.21161
1.21067
1.20976
1.20887
1.208
1.20713
1.20627
1.20539
1.20449
1.20356
1.2026
1.20162
1.2006
1.19956
1.19851
1.19744
1.19638
1.19533
1.19429
1.19327
1.19228
1.19131
1.19036
1.18943
1.18851
1.1876
1.18668
1.18576
1.18482
1.18387
1.1829
1.18191
1.18091
1.1799
1.17888
1.17786
1.17684
1.17584
1.17486
1.17391
1.17297
1.17207
1.17119
1.17034
1.16951
1.16869
1.16789
1.16709
1.16629
1.16549
1.16469
1.16388
1.16307
1.16226
1.16145
1.16064
1.15985
1.15908
1.15833
1.1576
1.15691
1.15625
1.15561
1.15501
1.15444
1.15389
1.15336
1.15284
1.15233
1.15183
1.15132
1.15082
1.15031
1.14981
1.1493
1.1488
1.1483
1.14782
1.14735
1.1469
1.14648
1.14609
1.14572
1.14538
1.14506
1.14477
1.14449
1.14423
1.14398
1.14373
1.14348
1.14324
1.14298
1.14273
1.14246
1.1422
1.14193
1.14167
1.14141
1.14117
1.14094
1.14073
1.14053
1.14036
1.14021
1.14008
1.13996
1.13986
1.13977
1.13968
1.1396
1.13951
1.13942
1.13933
1.13922
1.13911
1.13899
1.13887
1.13874
1.13862
1.1385
1.1384
1.1383
1.13822
1.13815
1.1381
1.13806
1.13803
1.13802
1.13802
1.13802
1.13802
1.13803
1.13802
1.13801
1.138
1.13797
1.13793
1.13788
1.13782
1.13776
1.1377
1.13765
1.1376
1.13756
1.13754
1.13753
1.13752
1.13753
1.13755
1.13757
1.13759
1.13762
1.13764
1.13765
1.13766
1.13767
1.13767
1.13766
1.13764
1.13763
1.13761
1.13758
1.13756
1.13753
1.13751
1.13748
1.13746
1.13743
1.13741
1.13738
1.13736
1.13734
1.13732
1.1373
1.13728
1.13725
1.13723
1.13721
1.13719
1.13717
1.13716
1.13714
1.13712
1.1371
1.13708
1.13707
1.13705
1.13703
1.13702
1.137
1.13699
1.13697
1.13696
1.13694
1.13694
1.13692
1.13692
1.13688
1.1369
1.13685
1.13689
1.22895
1.22881
1.22867
1.22855
1.22848
1.22845
1.22847
1.22853
1.22863
1.22874
1.22886
1.22896
1.22902
1.22904
1.229
1.22891
1.22876
1.22857
1.22835
1.2281
1.22785
1.2276
1.22737
1.22715
1.22694
1.22674
1.22652
1.22628
1.22599
1.22565
1.22524
1.22475
1.2242
1.22359
1.22292
1.22222
1.22151
1.22079
1.22008
1.21939
1.21873
1.21811
1.21751
1.21692
1.21635
1.21577
1.21517
1.21454
1.21388
1.21317
1.21242
1.21163
1.2108
1.20994
1.20907
1.2082
1.20733
1.20647
1.20564
1.20484
1.20407
1.20333
1.2026
1.2019
1.20119
1.20049
1.19977
1.19903
1.19826
1.19746
1.19663
1.19577
1.19489
1.19399
1.19308
1.19217
1.19127
1.19039
1.18953
1.18871
1.18791
1.18715
1.18641
1.1857
1.185
1.18431
1.18362
1.18292
1.18221
1.18149
1.18074
1.17998
1.1792
1.17841
1.17763
1.17684
1.17607
1.17533
1.17461
1.17392
1.17327
1.17265
1.17207
1.17152
1.171
1.17049
1.17
1.16951
1.16902
1.16852
1.16801
1.16749
1.16696
1.16642
1.16588
1.16534
1.16481
1.16429
1.1638
1.16333
1.1629
1.1625
1.16213
1.1618
1.16149
1.16121
1.16094
1.16068
1.16042
1.16016
1.1599
1.15962
1.15933
1.15903
1.15872
1.15841
1.15809
1.15778
1.15748
1.1572
1.15695
1.15671
1.15651
1.15633
1.15617
1.15604
1.15593
1.15583
1.15574
1.15565
1.15556
1.15546
1.15535
1.15522
1.15509
1.15494
1.15478
1.15461
1.15445
1.15429
1.15415
1.15402
1.1539
1.15381
1.15374
1.15369
1.15366
1.15365
1.15364
1.15365
1.15366
1.15367
1.15367
1.15367
1.15364
1.15361
1.15355
1.15348
1.15341
1.15332
1.15324
1.15316
1.15309
1.15303
1.15299
1.15297
1.15296
1.15298
1.153
1.15303
1.15306
1.15309
1.15312
1.15314
1.15316
1.15316
1.15316
1.15315
1.15313
1.15311
1.15308
1.15305
1.15302
1.15299
1.15295
1.15292
1.15289
1.15286
1.15282
1.15279
1.15276
1.15273
1.15271
1.15268
1.15265
1.15262
1.15259
1.15257
1.15254
1.15251
1.15249
1.15246
1.15243
1.15241
1.15239
1.15236
1.15234
1.15232
1.15229
1.15228
1.15225
1.15224
1.15221
1.1522
1.15217
1.15216
1.15213
1.15213
1.15209
1.15211
1.22894
1.22881
1.22867
1.22855
1.22848
1.22845
1.22847
1.22853
1.22863
1.22874
1.22886
1.22896
1.22903
1.22906
1.22904
1.22898
1.22888
1.22875
1.22861
1.22847
1.22835
1.22826
1.2282
1.22818
1.22819
1.22822
1.22827
1.22831
1.22832
1.22829
1.22821
1.22805
1.22783
1.22753
1.22717
1.22676
1.22632
1.22586
1.2254
1.22495
1.22454
1.22415
1.2238
1.22348
1.22317
1.22288
1.22257
1.22225
1.22188
1.22147
1.221
1.22048
1.2199
1.21928
1.21862
1.21794
1.21726
1.21658
1.21592
1.21529
1.21469
1.21413
1.21361
1.21312
1.21264
1.21217
1.2117
1.2112
1.21068
1.21011
1.20951
1.20885
1.20816
1.20742
1.20666
1.20589
1.20511
1.20434
1.2036
1.20288
1.2022
1.20156
1.20095
1.20038
1.19983
1.19929
1.19876
1.19823
1.19767
1.19709
1.19648
1.19583
1.19516
1.19445
1.19373
1.193
1.19226
1.19154
1.19084
1.19017
1.18953
1.18894
1.18839
1.18788
1.1874
1.18695
1.18651
1.18609
1.18566
1.18521
1.18475
1.18427
1.18377
1.18324
1.18269
1.18214
1.18158
1.18103
1.18049
1.17998
1.1795
1.17906
1.17866
1.1783
1.17797
1.17768
1.17741
1.17716
1.17691
1.17666
1.17641
1.17614
1.17585
1.17554
1.17521
1.17487
1.17451
1.17416
1.1738
1.17346
1.17314
1.17285
1.17259
1.17236
1.17217
1.17201
1.17188
1.17177
1.17167
1.17158
1.1715
1.1714
1.17129
1.17117
1.17102
1.17086
1.17068
1.17048
1.17028
1.17007
1.16988
1.1697
1.16953
1.1694
1.16928
1.1692
1.16914
1.16911
1.1691
1.1691
1.16912
1.16914
1.16916
1.16917
1.16916
1.16913
1.16908
1.16901
1.16892
1.16881
1.1687
1.16859
1.16848
1.16839
1.16832
1.16827
1.16825
1.16824
1.16826
1.16829
1.16833
1.16838
1.16842
1.16846
1.16849
1.16851
1.16852
1.16851
1.1685
1.16848
1.16845
1.16841
1.16838
1.16834
1.1683
1.16826
1.16822
1.16818
1.16814
1.1681
1.16806
1.16803
1.16799
1.16796
1.16792
1.16789
1.16785
1.16782
1.16778
1.16775
1.16772
1.16769
1.16765
1.16762
1.16759
1.16756
1.16753
1.16751
1.16748
1.16745
1.16742
1.1674
1.16737
1.16735
1.16732
1.16731
1.16727
1.16726
1.16722
1.16723
1.22894
1.22881
1.22867
1.22855
1.22848
1.22845
1.22847
1.22853
1.22863
1.22875
1.22886
1.22896
1.22903
1.22906
1.22904
1.22898
1.22888
1.22876
1.22862
1.22849
1.22839
1.22832
1.22829
1.2283
1.22836
1.22846
1.22858
1.22872
1.22884
1.22894
1.229
1.22901
1.22897
1.22887
1.22872
1.22852
1.2283
1.22805
1.22781
1.22758
1.22739
1.22722
1.2271
1.22701
1.22695
1.22691
1.22688
1.22683
1.22674
1.22662
1.22643
1.22618
1.22587
1.22549
1.22506
1.2246
1.22411
1.22362
1.22315
1.2227
1.22229
1.22192
1.2216
1.22132
1.22107
1.22084
1.22061
1.22037
1.2201
1.21979
1.21943
1.21902
1.21854
1.21802
1.21745
1.21686
1.21625
1.21564
1.21504
1.21447
1.21395
1.21346
1.21302
1.21262
1.21226
1.21191
1.21158
1.21124
1.21089
1.2105
1.21008
1.20961
1.2091
1.20855
1.20795
1.20734
1.20671
1.20608
1.20546
1.20487
1.20431
1.2038
1.20333
1.20291
1.20253
1.20218
1.20185
1.20153
1.20121
1.20087
1.20051
1.20012
1.1997
1.19924
1.19875
1.19824
1.19771
1.19718
1.19665
1.19614
1.19567
1.19523
1.19483
1.19448
1.19417
1.1939
1.19366
1.19344
1.19323
1.19302
1.19281
1.19257
1.19231
1.19202
1.19171
1.19137
1.191
1.19063
1.19025
1.18988
1.18953
1.1892
1.1889
1.18865
1.18843
1.18825
1.18811
1.18799
1.1879
1.18782
1.18774
1.18766
1.18756
1.18745
1.1873
1.18714
1.18694
1.18673
1.1865
1.18627
1.18604
1.18581
1.18561
1.18543
1.18529
1.18517
1.18509
1.18504
1.18501
1.18501
1.18503
1.18506
1.18509
1.18511
1.18512
1.1851
1.18506
1.18499
1.18489
1.18478
1.18464
1.18451
1.18437
1.18425
1.18415
1.18408
1.18403
1.18402
1.18403
1.18405
1.1841
1.18415
1.18421
1.18426
1.1843
1.18433
1.18435
1.18435
1.18435
1.18433
1.1843
1.18426
1.18422
1.18418
1.18413
1.18409
1.18404
1.184
1.18395
1.18391
1.18387
1.18383
1.18379
1.18375
1.18371
1.18367
1.18363
1.18359
1.18355
1.18351
1.18347
1.18344
1.1834
1.18336
1.18333
1.18329
1.18326
1.18323
1.18319
1.18316
1.18313
1.1831
1.18307
1.18304
1.18301
1.18299
1.18296
1.18294
1.1829
1.18289
1.22894
1.22881
1.22867
1.22855
1.22848
1.22845
1.22847
1.22853
1.22863
1.22875
1.22886
1.22896
1.22903
1.22906
1.22904
1.22898
1.22888
1.22876
1.22862
1.22849
1.22839
1.22832
1.22829
1.22831
1.22837
1.22847
1.2286
1.22874
1.22888
1.22899
1.22907
1.22911
1.2291
1.22904
1.22893
1.22879
1.22863
1.22846
1.2283
1.22817
1.22807
1.22801
1.22801
1.22805
1.22813
1.22824
1.22835
1.22846
1.22854
1.22858
1.22857
1.22849
1.22836
1.22816
1.22792
1.22764
1.22733
1.22703
1.22674
1.22648
1.22626
1.22608
1.22595
1.22586
1.22581
1.22577
1.22574
1.22569
1.22561
1.2255
1.22533
1.2251
1.22482
1.22448
1.22411
1.2237
1.22328
1.22285
1.22245
1.22207
1.22173
1.22143
1.22117
1.22096
1.22078
1.22062
1.22047
1.22031
1.22013
1.21992
1.21967
1.21937
1.21903
1.21863
1.2182
1.21774
1.21727
1.21679
1.21632
1.21588
1.21547
1.2151
1.21477
1.21449
1.21424
1.21402
1.21382
1.21362
1.21342
1.2132
1.21296
1.21267
1.21235
1.21199
1.2116
1.21117
1.21073
1.21028
1.20984
1.20941
1.20901
1.20864
1.20832
1.20803
1.20779
1.20758
1.2074
1.20724
1.20709
1.20693
1.20677
1.20657
1.20635
1.2061
1.20582
1.20551
1.20518
1.20483
1.20448
1.20413
1.2038
1.2035
1.20322
1.20298
1.20278
1.20262
1.2025
1.2024
1.20232
1.20225
1.20218
1.20211
1.20202
1.20191
1.20177
1.20161
1.20141
1.2012
1.20097
1.20074
1.2005
1.20028
1.20007
1.1999
1.19975
1.19963
1.19955
1.19949
1.19947
1.19947
1.19949
1.19951
1.19954
1.19956
1.19956
1.19955
1.1995
1.19943
1.19933
1.1992
1.19907
1.19893
1.19879
1.19867
1.19857
1.19849
1.19845
1.19843
1.19844
1.19847
1.19852
1.19857
1.19862
1.19868
1.19872
1.19875
1.19877
1.19877
1.19876
1.19874
1.19871
1.19868
1.19864
1.19859
1.19854
1.1985
1.19845
1.1984
1.19836
1.19831
1.19827
1.19823
1.19818
1.19814
1.1981
1.19806
1.19802
1.19798
1.19794
1.1979
1.19786
1.19782
1.19778
1.19775
1.19771
1.19767
1.19764
1.1976
1.19757
1.19754
1.1975
1.19747
1.19744
1.19741
1.19738
1.19735
1.19732
1.1973
1.19727
1.19725
1.22894
1.22881
1.22867
1.22855
1.22848
1.22845
1.22847
1.22853
1.22863
1.22874
1.22886
1.22896
1.22903
1.22906
1.22904
1.22898
1.22888
1.22876
1.22863
1.2285
1.22839
1.22832
1.22829
1.22831
1.22837
1.22847
1.2286
1.22874
1.22888
1.22899
1.22907
1.2291
1.22908
1.22901
1.2289
1.22876
1.2286
1.22845
1.22832
1.22821
1.22816
1.22815
1.22819
1.22827
1.22839
1.22853
1.22866
1.22879
1.22888
1.22894
1.22894
1.2289
1.2288
1.22866
1.2285
1.22831
1.22812
1.22794
1.22778
1.22766
1.22757
1.22753
1.22752
1.22754
1.22759
1.22764
1.22768
1.22771
1.2277
1.22766
1.22757
1.22743
1.22725
1.22702
1.22677
1.22651
1.22624
1.22597
1.22573
1.22551
1.22533
1.22518
1.22507
1.22499
1.22493
1.22488
1.22483
1.22476
1.22467
1.22455
1.22439
1.22418
1.22394
1.22366
1.22336
1.22303
1.22269
1.22236
1.22205
1.22175
1.22149
1.22126
1.22107
1.22091
1.22077
1.22065
1.22054
1.22042
1.22029
1.22014
1.21996
1.21975
1.2195
1.21922
1.21891
1.21857
1.21823
1.21789
1.21755
1.21723
1.21694
1.21668
1.21645
1.21625
1.21609
1.21595
1.21583
1.21572
1.2156
1.21548
1.21534
1.21517
1.21498
1.21476
1.21451
1.21424
1.21396
1.21366
1.21337
1.21309
1.21282
1.21258
1.21236
1.21218
1.21203
1.21191
1.21182
1.21174
1.21168
1.21162
1.21155
1.21148
1.21138
1.21127
1.21113
1.21097
1.21078
1.21058
1.21038
1.21017
1.20996
1.20978
1.20961
1.20946
1.20935
1.20926
1.2092
1.20916
1.20915
1.20915
1.20916
1.20918
1.20919
1.2092
1.20918
1.20914
1.20908
1.209
1.2089
1.20878
1.20866
1.20854
1.20842
1.20833
1.20825
1.2082
1.20818
1.20817
1.20819
1.20822
1.20827
1.20831
1.20836
1.2084
1.20843
1.20845
1.20845
1.20845
1.20843
1.2084
1.20837
1.20833
1.20829
1.20825
1.2082
1.20816
1.20811
1.20807
1.20803
1.20798
1.20794
1.2079
1.20786
1.20782
1.20778
1.20774
1.20771
1.20767
1.20763
1.20759
1.20755
1.20752
1.20748
1.20744
1.20741
1.20738
1.20734
1.20731
1.20728
1.20725
1.20722
1.20719
1.20716
1.20713
1.2071
1.20707
1.20705
1.20702
1.20699
1.20697
1.22895
1.22881
1.22867
1.22855
1.22848
1.22845
1.22847
1.22853
1.22863
1.22874
1.22886
1.22896
1.22903
1.22906
1.22904
1.22898
1.22888
1.22876
1.22862
1.2285
1.22839
1.22832
1.2283
1.22832
1.22839
1.2285
1.22863
1.22877
1.22889
1.22899
1.22904
1.22905
1.229
1.22891
1.22879
1.22866
1.22852
1.22839
1.2283
1.22824
1.22823
1.22825
1.22832
1.22842
1.22854
1.22866
1.22877
1.22885
1.22891
1.22893
1.22891
1.22885
1.22875
1.22864
1.22851
1.22838
1.22826
1.22816
1.22809
1.22805
1.22804
1.22806
1.22811
1.22817
1.22824
1.2283
1.22835
1.22838
1.22837
1.22834
1.22826
1.22816
1.22802
1.22787
1.2277
1.22753
1.22736
1.22721
1.22708
1.22698
1.2269
1.22685
1.22682
1.2268
1.22679
1.22679
1.22677
1.22673
1.22667
1.22658
1.22645
1.2263
1.22612
1.22591
1.2257
1.22547
1.22525
1.22503
1.22483
1.22465
1.2245
1.22438
1.22427
1.22419
1.22411
1.22405
1.22397
1.22389
1.22379
1.22367
1.22352
1.22335
1.22315
1.22292
1.22268
1.22243
1.22218
1.22193
1.22169
1.22147
1.22127
1.2211
1.22095
1.22083
1.22072
1.22063
1.22054
1.22045
1.22035
1.22024
1.22011
1.21996
1.21979
1.21959
1.21938
1.21916
1.21892
1.21869
1.21846
1.21825
1.21805
1.21788
1.21773
1.2176
1.2175
1.21741
1.21734
1.21728
1.21722
1.21716
1.21709
1.21701
1.21691
1.21679
1.21665
1.2165
1.21633
1.21616
1.21599
1.21582
1.21567
1.21552
1.2154
1.2153
1.21522
1.21517
1.21513
1.21511
1.2151
1.2151
1.2151
1.21511
1.2151
1.21508
1.21505
1.21499
1.21492
1.21484
1.21475
1.21465
1.21455
1.21446
1.21438
1.21431
1.21427
1.21425
1.21424
1.21425
1.21427
1.2143
1.21434
1.21437
1.2144
1.21442
1.21443
1.21443
1.21443
1.21441
1.21439
1.21436
1.21432
1.21429
1.21425
1.2142
1.21416
1.21412
1.21408
1.21404
1.214
1.21397
1.21393
1.21389
1.21386
1.21382
1.21378
1.21375
1.21371
1.21368
1.21364
1.21361
1.21357
1.21354
1.21351
1.21348
1.21345
1.21341
1.21338
1.21336
1.21333
1.2133
1.21327
1.21324
1.21322
1.21319
1.21317
1.21314
1.21312
1.21309
1.21307
1.21305
1.22895
1.22881
1.22867
1.22856
1.22848
1.22845
1.22847
1.22853
1.22862
1.22874
1.22886
1.22896
1.22903
1.22906
1.22904
1.22897
1.22886
1.22873
1.2286
1.22847
1.22838
1.22833
1.22833
1.22838
1.22846
1.22858
1.2287
1.22882
1.22891
1.22896
1.22898
1.22895
1.22888
1.22878
1.22867
1.22855
1.22845
1.22837
1.22832
1.22831
1.22833
1.22838
1.22846
1.22855
1.22864
1.22873
1.22879
1.22884
1.22885
1.22883
1.22878
1.22871
1.22863
1.22854
1.22845
1.22837
1.22831
1.22827
1.22825
1.22826
1.22828
1.22833
1.22839
1.22844
1.2285
1.22854
1.22857
1.22857
1.22855
1.22851
1.22844
1.22835
1.22826
1.22815
1.22805
1.22795
1.22786
1.22778
1.22773
1.22769
1.22767
1.22766
1.22767
1.22767
1.22768
1.22767
1.22766
1.22762
1.22756
1.22748
1.22738
1.22726
1.22713
1.22698