/*--------------------------------*- C++ -*----------------------------------*\
  =========                 |
  \\      /  F ield         | OpenFOAM: The Open Source CFD Toolbox
   \\    /   O peration     | Website:  https://openfoam.org
    \\  /    A nd           | Version:  7
     \\/     M anipulation  |
\*---------------------------------------------------------------------------*/
FoamFile
{
    version     2.0;
    format      ascii;
    class       volVectorField;
    location    "0.03";
    object      UMean;
}
// * * * * * * * * * * * * * * * * * * * * * * * * * * * * * * * * * * * * * //

dimensions      [0 1 -1 0 0 0 0];

internalField   nonuniform List<vector> 
2400
(
(0.00121095 0.000252915 0)
(0.00100844 0.000154082 0)
(0.000781087 9.79094e-05 0)
(0.000553115 2.39022e-05 0)
(0.000552321 3.80329e-05 0)
(0.000473226 2.19113e-06 0)
(0.000466018 9.75298e-06 0)
(0.000445351 2.02105e-06 0)
(0.000438102 2.24649e-06 0)
(0.00043186 1.36696e-06 0)
(0.000427752 1.02683e-06 0)
(0.00042477 8.05911e-07 0)
(0.000422548 6.65594e-07 0)
(0.000420838 5.69977e-07 0)
(0.000419478 5.0235e-07 0)
(0.000418365 4.45437e-07 0)
(0.000417447 4.15102e-07 0)
(0.000416672 3.81149e-07 0)
(0.00041599 3.50034e-07 0)
(0.000415389 3.24272e-07 0)
(0.000414853 3.02865e-07 0)
(0.000414369 2.84302e-07 0)
(0.00041393 2.66442e-07 0)
(0.000413527 2.49295e-07 0)
(0.000413156 2.33121e-07 0)
(0.000412813 2.18185e-07 0)
(0.000412495 2.0431e-07 0)
(0.0004122 1.91774e-07 0)
(0.000411926 1.80112e-07 0)
(0.000411672 1.69104e-07 0)
(0.000411435 1.58674e-07 0)
(0.000411215 1.48769e-07 0)
(0.00041101 1.39351e-07 0)
(0.00041082 1.3025e-07 0)
(0.000410643 1.2147e-07 0)
(0.000410479 1.13008e-07 0)
(0.000410327 1.05065e-07 0)
(0.000410186 9.75513e-08 0)
(0.000410055 9.05133e-08 0)
(0.000409934 8.39262e-08 0)
(0.000409823 7.7739e-08 0)
(0.00040972 7.20102e-08 0)
(0.000409626 6.66333e-08 0)
(0.000409539 6.17721e-08 0)
(0.000409459 5.71678e-08 0)
(0.000409387 5.28941e-08 0)
(0.00040932 4.88847e-08 0)
(0.000409259 4.51453e-08 0)
(0.000409204 4.16419e-08 0)
(0.000409155 3.83665e-08 0)
(0.00040911 3.52455e-08 0)
(0.000409069 3.24808e-08 0)
(0.000409033 2.98581e-08 0)
(0.000409 2.73967e-08 0)
(0.000408971 2.50813e-08 0)
(0.000408946 2.29925e-08 0)
(0.000408924 2.09431e-08 0)
(0.000408904 1.90325e-08 0)
(0.000408888 1.73059e-08 0)
(0.000408874 1.56976e-08 0)
(0.000408862 1.41881e-08 0)
(0.000408853 1.27445e-08 0)
(0.000408845 1.13889e-08 0)
(0.00040884 1.01276e-08 0)
(0.000408836 8.96779e-09 0)
(0.000408833 7.90183e-09 0)
(0.000408832 6.92337e-09 0)
(0.000408832 6.03161e-09 0)
(0.000408834 5.2008e-09 0)
(0.000408837 4.46009e-09 0)
(0.00040884 3.79353e-09 0)
(0.000408845 3.21023e-09 0)
(0.00040885 2.67856e-09 0)
(0.000408856 2.20356e-09 0)
(0.000408863 1.77191e-09 0)
(0.00040887 1.33076e-09 0)
(0.000408878 1.00312e-09 0)
(0.000408886 7.29804e-10 0)
(0.000408894 5.09762e-10 0)
(0.000408903 3.64459e-10 0)
(0.000408912 2.55494e-10 0)
(0.000408922 2.12228e-10 0)
(0.000408931 1.23006e-10 0)
(0.000408941 1.57861e-10 0)
(0.000408951 2.33615e-10 0)
(0.000408961 2.62107e-10 0)
(0.000408971 3.34344e-10 0)
(0.000408981 4.24013e-10 0)
(0.000408992 5.40352e-10 0)
(0.000409002 6.21382e-10 0)
(0.000409012 6.31158e-10 0)
(0.000409022 7.31711e-10 0)
(0.000409032 7.34912e-10 0)
(0.000409042 8.69739e-10 0)
(0.000409052 9.11765e-10 0)
(0.000409062 9.72252e-10 0)
(0.000409071 1.04823e-09 0)
(0.000409081 1.10034e-09 0)
(0.00040909 1.10006e-09 0)
(0.000409099 1.13018e-09 0)
(0.000409108 8.66567e-10 0)
(0.000409117 9.67399e-10 0)
(0.000409126 1.16814e-09 0)
(0.000409134 1.10337e-09 0)
(0.000409142 1.1184e-09 0)
(0.00040915 1.17093e-09 0)
(0.000409158 1.24319e-09 0)
(0.000409165 1.303e-09 0)
(0.000409172 1.33665e-09 0)
(0.000409179 1.3561e-09 0)
(0.000409185 1.41443e-09 0)
(0.000409189 2.00208e-09 0)
(0.000409193 2.3885e-09 0)
(0.000409197 3.51535e-09 0)
(0.000409197 4.61273e-09 0)
(0.000409191 6.54187e-09 0)
(0.000409171 1.19977e-08 0)
(0.00040912 3.01826e-08 0)
(0.000409142 3.00499e-08 0)
(0.000408945 3.06291e-08 0)
(0.00153117 0.000446753 0)
(0.00149216 0.000390355 0)
(0.00142525 0.000294679 0)
(0.00119967 0.000139884 0)
(0.00124751 0.000111151 0)
(0.00112989 4.28231e-05 0)
(0.00114027 3.77785e-05 0)
(0.00110069 1.71003e-05 0)
(0.00109349 1.34703e-05 0)
(0.00108241 8.38278e-06 0)
(0.0010758 5.91872e-06 0)
(0.00107096 4.23455e-06 0)
(0.00106747 3.11366e-06 0)
(0.0010649 2.34816e-06 0)
(0.00106296 1.81619e-06 0)
(0.00106148 1.43995e-06 0)
(0.00106034 1.18033e-06 0)
(0.00105943 9.80136e-07 0)
(0.00105869 8.29663e-07 0)
(0.00105808 7.17193e-07 0)
(0.00105756 6.30401e-07 0)
(0.00105711 5.61125e-07 0)
(0.00105672 5.05689e-07 0)
(0.00105638 4.6069e-07 0)
(0.00105607 4.22939e-07 0)
(0.0010558 3.90055e-07 0)
(0.00105554 3.6079e-07 0)
(0.00105531 3.34548e-07 0)
(0.0010551 3.10926e-07 0)
(0.00105491 2.89542e-07 0)
(0.00105473 2.70061e-07 0)
(0.00105456 2.52237e-07 0)
(0.00105441 2.35839e-07 0)
(0.00105426 2.20658e-07 0)
(0.00105413 2.06182e-07 0)
(0.00105401 1.92455e-07 0)
(0.0010539 1.79515e-07 0)
(0.00105379 1.67176e-07 0)
(0.0010537 1.55601e-07 0)
(0.00105361 1.44742e-07 0)
(0.00105352 1.34624e-07 0)
(0.00105345 1.25186e-07 0)
(0.00105338 1.16363e-07 0)
(0.00105331 1.08125e-07 0)
(0.00105326 1.0041e-07 0)
(0.0010532 9.318e-08 0)
(0.00105315 8.64456e-08 0)
(0.00105311 8.01463e-08 0)
(0.00105307 7.42984e-08 0)
(0.00105303 6.88727e-08 0)
(0.001053 6.38538e-08 0)
(0.00105297 5.92534e-08 0)
(0.00105294 5.49807e-08 0)
(0.00105292 5.08838e-08 0)
(0.0010529 4.68883e-08 0)
(0.00105288 4.32103e-08 0)
(0.00105286 3.96777e-08 0)
(0.00105285 3.63635e-08 0)
(0.00105283 3.32291e-08 0)
(0.00105282 3.02133e-08 0)
(0.00105281 2.7403e-08 0)
(0.00105281 2.4864e-08 0)
(0.0010528 2.2538e-08 0)
(0.0010528 2.04009e-08 0)
(0.00105279 1.84525e-08 0)
(0.00105279 1.66628e-08 0)
(0.00105279 1.50345e-08 0)
(0.00105279 1.35401e-08 0)
(0.00105279 1.22056e-08 0)
(0.00105279 1.09725e-08 0)
(0.0010528 9.85299e-09 0)
(0.0010528 8.84978e-09 0)
(0.0010528 7.93913e-09 0)
(0.00105281 7.13009e-09 0)
(0.00105281 6.4363e-09 0)
(0.00105282 5.83592e-09 0)
(0.00105282 5.33008e-09 0)
(0.00105283 4.90334e-09 0)
(0.00105284 4.60004e-09 0)
(0.00105284 4.28167e-09 0)
(0.00105285 3.73911e-09 0)
(0.00105286 3.70253e-09 0)
(0.00105286 3.97104e-09 0)
(0.00105287 3.24959e-09 0)
(0.00105288 2.9808e-09 0)
(0.00105288 3.01449e-09 0)
(0.00105289 3.22002e-09 0)
(0.0010529 3.27359e-09 0)
(0.00105291 3.37766e-09 0)
(0.00105291 3.46435e-09 0)
(0.00105292 3.56103e-09 0)
(0.00105293 3.86053e-09 0)
(0.00105294 2.68186e-09 0)
(0.00105294 3.04159e-09 0)
(0.00105295 3.31935e-09 0)
(0.00105296 3.32958e-09 0)
(0.00105296 3.38974e-09 0)
(0.00105297 3.44461e-09 0)
(0.00105298 3.46094e-09 0)
(0.00105298 4.02583e-09 0)
(0.00105299 4.76686e-09 0)
(0.001053 3.03805e-09 0)
(0.001053 3.9219e-09 0)
(0.00105301 4.47572e-09 0)
(0.00105302 4.86195e-09 0)
(0.00105302 5.01411e-09 0)
(0.00105303 5.04819e-09 0)
(0.00105303 5.38988e-09 0)
(0.00105304 5.79671e-09 0)
(0.00105304 6.77069e-09 0)
(0.00105304 8.79893e-09 0)
(0.00105304 1.19403e-08 0)
(0.00105305 8.10052e-09 0)
(0.00105305 1.37468e-08 0)
(0.00105304 2.18696e-08 0)
(0.00105303 3.45928e-08 0)
(0.00105301 5.72626e-08 0)
(0.00105296 8.80958e-08 0)
(0.00105308 9.84687e-08 0)
(0.00105289 1.69775e-07 0)
(0.00156043 0.000297324 0)
(0.00163144 0.000358277 0)
(0.00169481 0.000312621 0)
(0.00152617 0.0001965 0)
(0.00161265 0.000143201 0)
(0.00150592 8.0402e-05 0)
(0.00152667 5.96641e-05 0)
(0.00148641 3.46336e-05 0)
(0.00148372 2.5398e-05 0)
(0.00147097 1.69139e-05 0)
(0.00146524 1.18587e-05 0)
(0.00146027 8.47383e-06 0)
(0.00145676 6.15279e-06 0)
(0.00145416 4.53924e-06 0)
(0.00145223 3.4057e-06 0)
(0.00145076 2.61531e-06 0)
(0.00144964 2.04516e-06 0)
(0.00144877 1.62879e-06 0)
(0.00144807 1.325e-06 0)
(0.0014475 1.10064e-06 0)
(0.00144703 9.3108e-07 0)
(0.00144664 8.01558e-07 0)
(0.0014463 7.01848e-07 0)
(0.00144601 6.2304e-07 0)
(0.00144575 5.5921e-07 0)
(0.00144552 5.06891e-07 0)
(0.00144532 4.63157e-07 0)
(0.00144513 4.25035e-07 0)
(0.00144496 3.9144e-07 0)
(0.0014448 3.61472e-07 0)
(0.00144466 3.34458e-07 0)
(0.00144453 3.09802e-07 0)
(0.00144441 2.87054e-07 0)
(0.00144429 2.66047e-07 0)
(0.00144419 2.47024e-07 0)
(0.00144409 2.29599e-07 0)
(0.001444 2.13699e-07 0)
(0.00144392 1.98932e-07 0)
(0.00144385 1.84931e-07 0)
(0.00144378 1.71595e-07 0)
(0.00144372 1.59034e-07 0)
(0.00144366 1.47128e-07 0)
(0.0014436 1.35872e-07 0)
(0.00144355 1.25287e-07 0)
(0.00144351 1.15306e-07 0)
(0.00144347 1.05893e-07 0)
(0.00144343 9.70259e-08 0)
(0.0014434 8.86604e-08 0)
(0.00144336 8.07994e-08 0)
(0.00144334 7.33649e-08 0)
(0.00144331 6.63187e-08 0)
(0.00144329 5.96559e-08 0)
(0.00144327 5.33135e-08 0)
(0.00144325 4.74106e-08 0)
(0.00144324 4.20708e-08 0)
(0.00144322 3.73008e-08 0)
(0.00144321 3.29427e-08 0)
(0.0014432 2.89824e-08 0)
(0.00144319 2.53873e-08 0)
(0.00144318 2.22572e-08 0)
(0.00144318 1.9383e-08 0)
(0.00144317 1.67262e-08 0)
(0.00144317 1.4234e-08 0)
(0.00144317 1.19059e-08 0)
(0.00144316 9.72245e-09 0)
(0.00144316 7.69156e-09 0)
(0.00144316 5.80629e-09 0)
(0.00144317 4.07932e-09 0)
(0.00144317 2.5312e-09 0)
(0.00144317 1.0848e-09 0)
(0.00144317 -2.50783e-10 0)
(0.00144318 -1.50083e-09 0)
(0.00144318 -2.63418e-09 0)
(0.00144318 -3.66271e-09 0)
(0.00144319 -4.5761e-09 0)
(0.00144319 -5.28057e-09 0)
(0.0014432 -6.01742e-09 0)
(0.0014432 -6.71043e-09 0)
(0.00144321 -7.30423e-09 0)
(0.00144321 -7.83745e-09 0)
(0.00144322 -8.31151e-09 0)
(0.00144323 -8.67475e-09 0)
(0.00144323 -8.73416e-09 0)
(0.00144324 -8.89203e-09 0)
(0.00144324 -9.72242e-09 0)
(0.00144325 -1.06444e-08 0)
(0.00144326 -1.14653e-08 0)
(0.00144326 -1.15396e-08 0)
(0.00144327 -1.17361e-08 0)
(0.00144328 -1.17183e-08 0)
(0.00144328 -1.15649e-08 0)
(0.00144329 -1.11079e-08 0)
(0.00144329 -1.20517e-08 0)
(0.0014433 -1.14078e-08 0)
(0.00144331 -1.15512e-08 0)
(0.00144331 -1.09098e-08 0)
(0.00144332 -1.01579e-08 0)
(0.00144333 -9.79209e-09 0)
(0.00144333 -9.55481e-09 0)
(0.00144334 -9.08125e-09 0)
(0.00144334 -8.06743e-09 0)
(0.00144335 -7.34725e-09 0)
(0.00144336 -6.88194e-09 0)
(0.00144336 -7.34419e-09 0)
(0.00144337 -6.67009e-09 0)
(0.00144337 -5.88862e-09 0)
(0.00144338 -5.24881e-09 0)
(0.00144338 -4.80738e-09 0)
(0.00144339 -3.94731e-09 0)
(0.00144339 -2.67477e-09 0)
(0.00144339 -1.01718e-09 0)
(0.00144339 1.43554e-09 0)
(0.00144339 5.34225e-09 0)
(0.0014434 1.1459e-08 0)
(0.00144339 2.07305e-08 0)
(0.00144339 3.15547e-08 0)
(0.00144338 5.27786e-08 0)
(0.00144335 7.75365e-08 0)
(0.0014436 8.40581e-08 0)
(0.00144348 1.01165e-07 0)
(0.00153887 0.000224836 0)
(0.00162707 0.00030755 0)
(0.00174794 0.000304915 0)
(0.00161947 0.000206185 0)
(0.00174681 0.00016273 0)
(0.00165372 9.89995e-05 0)
(0.00169363 7.42454e-05 0)
(0.00165768 4.74718e-05 0)
(0.00166192 3.38348e-05 0)
(0.00165163 2.35201e-05 0)
(0.00164787 1.64824e-05 0)
(0.00164427 1.17787e-05 0)
(0.00164157 8.49702e-06 0)
(0.00163954 6.19488e-06 0)
(0.00163799 4.57091e-06 0)
(0.00163681 3.4236e-06 0)
(0.00163589 2.60233e-06 0)
(0.00163516 2.01164e-06 0)
(0.00163458 1.58483e-06 0)
(0.0016341 1.27233e-06 0)
(0.00163371 1.04203e-06 0)
(0.00163337 8.71327e-07 0)
(0.00163308 7.41996e-07 0)
(0.00163283 6.41645e-07 0)
(0.00163261 5.62672e-07 0)
(0.00163241 5.0017e-07 0)
(0.00163223 4.49762e-07 0)
(0.00163207 4.08124e-07 0)
(0.00163192 3.72736e-07 0)
(0.00163179 3.42019e-07 0)
(0.00163167 3.14811e-07 0)
(0.00163155 2.90339e-07 0)
(0.00163145 2.67977e-07 0)
(0.00163135 2.47431e-07 0)
(0.00163126 2.28833e-07 0)
(0.00163118 2.11837e-07 0)
(0.0016311 1.96175e-07 0)
(0.00163103 1.81819e-07 0)
(0.00163097 1.68361e-07 0)
(0.00163091 1.5571e-07 0)
(0.00163085 1.43741e-07 0)
(0.0016308 1.32499e-07 0)
(0.00163076 1.21946e-07 0)
(0.00163072 1.11997e-07 0)
(0.00163068 1.02657e-07 0)
(0.00163064 9.38745e-08 0)
(0.00163061 8.56309e-08 0)
(0.00163058 7.78637e-08 0)
(0.00163056 7.05408e-08 0)
(0.00163053 6.36375e-08 0)
(0.00163051 5.71192e-08 0)
(0.00163049 5.09304e-08 0)
(0.00163048 4.51122e-08 0)
(0.00163046 3.9774e-08 0)
(0.00163045 3.49736e-08 0)
(0.00163044 3.05579e-08 0)
(0.00163043 2.64722e-08 0)
(0.00163042 2.27124e-08 0)
(0.00163041 1.9314e-08 0)
(0.00163041 1.63844e-08 0)
(0.0016304 1.36964e-08 0)
(0.0016304 1.11168e-08 0)
(0.0016304 8.69543e-09 0)
(0.0016304 6.42664e-09 0)
(0.0016304 4.2948e-09 0)
(0.0016304 2.3072e-09 0)
(0.0016304 4.6199e-10 0)
(0.0016304 -1.2066e-09 0)
(0.0016304 -2.74925e-09 0)
(0.0016304 -4.1516e-09 0)
(0.00163041 -5.4688e-09 0)
(0.00163041 -6.6385e-09 0)
(0.00163041 -7.71782e-09 0)
(0.00163042 -8.70508e-09 0)
(0.00163042 -9.5949e-09 0)
(0.00163043 -1.03838e-08 0)
(0.00163043 -1.11304e-08 0)
(0.00163044 -1.18115e-08 0)
(0.00163044 -1.24616e-08 0)
(0.00163045 -1.29224e-08 0)
(0.00163045 -1.29709e-08 0)
(0.00163046 -1.33824e-08 0)
(0.00163046 -1.37297e-08 0)
(0.00163047 -1.2786e-08 0)
(0.00163047 -1.32124e-08 0)
(0.00163048 -1.55374e-08 0)
(0.00163049 -1.59554e-08 0)
(0.00163049 -1.55412e-08 0)
(0.0016305 -1.55454e-08 0)
(0.00163051 -1.50783e-08 0)
(0.00163051 -1.47387e-08 0)
(0.00163052 -1.37721e-08 0)
(0.00163052 -1.76322e-08 0)
(0.00163053 -1.65353e-08 0)
(0.00163054 -1.56219e-08 0)
(0.00163054 -1.48198e-08 0)
(0.00163055 -1.39508e-08 0)
(0.00163056 -1.40578e-08 0)
(0.00163056 -1.36235e-08 0)
(0.00163057 -1.34929e-08 0)
(0.00163057 -1.39246e-08 0)
(0.00163058 -1.12423e-08 0)
(0.00163058 -1.14277e-08 0)
(0.00163059 -1.16634e-08 0)
(0.00163059 -1.14281e-08 0)
(0.0016306 -1.05055e-08 0)
(0.0016306 -9.36341e-09 0)
(0.00163061 -8.93272e-09 0)
(0.00163061 -7.94619e-09 0)
(0.00163062 -6.73525e-09 0)
(0.00163062 -5.78189e-09 0)
(0.00163062 -4.66135e-09 0)
(0.00163062 6.33945e-09 0)
(0.00163063 1.0945e-08 0)
(0.00163062 1.8611e-08 0)
(0.00163063 3.04772e-08 0)
(0.00163063 4.36547e-08 0)
(0.00163061 5.92974e-08 0)
(0.00163084 7.00957e-08 0)
(0.0016307 9.4362e-09 0)
(0.0015176 0.000149332 0)
(0.00159891 0.000232162 0)
(0.00173031 0.000251752 0)
(0.00161817 0.000183507 0)
(0.00177029 0.000154167 0)
(0.00168673 9.95022e-05 0)
(0.00174302 7.81102e-05 0)
(0.00171147 5.14991e-05 0)
(0.00172337 3.80721e-05 0)
(0.00171596 2.67077e-05 0)
(0.001715 1.90616e-05 0)
(0.00171323 1.37054e-05 0)
(0.00171174 9.9049e-06 0)
(0.00171057 7.20989e-06 0)
(0.00170963 5.29447e-06 0)
(0.00170888 3.92934e-06 0)
(0.00170826 2.95208e-06 0)
(0.00170775 2.24952e-06 0)
(0.00170733 1.74195e-06 0)
(0.00170697 1.37318e-06 0)
(0.00170665 1.10306e-06 0)
(0.00170638 9.03165e-07 0)
(0.00170614 7.53909e-07 0)
(0.00170593 6.41321e-07 0)
(0.00170573 5.55025e-07 0)
(0.00170556 4.87151e-07 0)
(0.0017054 4.32635e-07 0)
(0.00170525 3.8825e-07 0)
(0.00170512 3.51447e-07 0)
(0.00170499 3.20349e-07 0)
(0.00170488 2.93552e-07 0)
(0.00170477 2.70141e-07 0)
(0.00170468 2.49471e-07 0)
(0.00170459 2.30957e-07 0)
(0.00170451 2.13841e-07 0)
(0.00170443 1.98022e-07 0)
(0.00170436 1.83238e-07 0)
(0.00170429 1.69406e-07 0)
(0.00170423 1.56628e-07 0)
(0.00170418 1.44764e-07 0)
(0.00170413 1.33735e-07 0)
(0.00170408 1.23447e-07 0)
(0.00170404 1.13849e-07 0)
(0.001704 1.04816e-07 0)
(0.00170397 9.63802e-08 0)
(0.00170393 8.84837e-08 0)
(0.0017039 8.10862e-08 0)
(0.00170388 7.41903e-08 0)
(0.00170385 6.77482e-08 0)
(0.00170383 6.17552e-08 0)
(0.00170381 5.61932e-08 0)
(0.0017038 5.10437e-08 0)
(0.00170378 4.62928e-08 0)
(0.00170377 4.18262e-08 0)
(0.00170376 3.75384e-08 0)
(0.00170375 3.34854e-08 0)
(0.00170374 2.96857e-08 0)
(0.00170373 2.61325e-08 0)
(0.00170372 2.27759e-08 0)
(0.00170372 1.95494e-08 0)
(0.00170372 1.65648e-08 0)
(0.00170371 1.38412e-08 0)
(0.00170371 1.13631e-08 0)
(0.00170371 9.0987e-09 0)
(0.00170371 7.01091e-09 0)
(0.00170371 5.0902e-09 0)
(0.00170371 3.338e-09 0)
(0.00170371 1.75294e-09 0)
(0.00170371 3.13182e-10 0)
(0.00170372 -1.00072e-09 0)
(0.00170372 -2.20514e-09 0)
(0.00170372 -3.30419e-09 0)
(0.00170373 -4.2999e-09 0)
(0.00170373 -5.18744e-09 0)
(0.00170374 -5.96147e-09 0)
(0.00170374 -6.63463e-09 0)
(0.00170375 -7.24585e-09 0)
(0.00170375 -7.76913e-09 0)
(0.00170376 -8.23238e-09 0)
(0.00170376 -8.59916e-09 0)
(0.00170377 -8.81276e-09 0)
(0.00170377 -9.00835e-09 0)
(0.00170378 -9.05232e-09 0)
(0.00170378 -8.62728e-09 0)
(0.00170379 -8.44848e-09 0)
(0.00170379 -1.07419e-08 0)
(0.0017038 -1.01317e-08 0)
(0.00170381 -9.61322e-09 0)
(0.00170381 -9.38813e-09 0)
(0.00170382 -8.86103e-09 0)
(0.00170383 -8.67369e-09 0)
(0.00170383 -7.73602e-09 0)
(0.00170383 -1.2186e-08 0)
(0.00170384 -1.13248e-08 0)
(0.00170385 -9.84554e-09 0)
(0.00170386 -9.70013e-09 0)
(0.00170386 -9.49035e-09 0)
(0.00170387 -9.82355e-09 0)
(0.00170387 -9.50133e-09 0)
(0.00170388 -9.15983e-09 0)
(0.00170388 -9.30263e-09 0)
(0.00170389 -8.76109e-09 0)
(0.00170389 -8.5706e-09 0)
(0.0017039 -7.47943e-09 0)
(0.0017039 -7.32143e-09 0)
(0.00170391 -6.7583e-09 0)
(0.00170391 -5.83692e-09 0)
(0.00170392 -5.06374e-09 0)
(0.00170392 -3.99242e-09 0)
(0.00170392 -2.38897e-09 0)
(0.00170393 -1.93362e-10 0)
(0.00170393 2.49448e-09 0)
(0.00170393 7.72144e-09 0)
(0.00170394 1.28884e-08 0)
(0.00170394 2.0443e-08 0)
(0.00170395 3.41693e-08 0)
(0.00170395 4.24675e-08 0)
(0.00170394 5.08431e-08 0)
(0.00170417 5.01216e-08 0)
(0.00170401 1.82014e-08 0)
(0.00150381 0.00010222 0)
(0.00157386 0.000171282 0)
(0.00169847 0.000197693 0)
(0.00158965 0.000151506 0)
(0.00175504 0.000133947 0)
(0.00167614 8.99004e-05 0)
(0.00174498 7.33125e-05 0)
(0.00171652 4.94467e-05 0)
(0.00173547 3.76141e-05 0)
(0.00173057 2.66341e-05 0)
(0.00173254 1.92994e-05 0)
(0.00173261 1.39771e-05 0)
(0.00173245 1.01404e-05 0)
(0.00173223 7.38746e-06 0)
(0.00173197 5.41462e-06 0)
(0.00173169 4.00037e-06 0)
(0.00173142 2.98391e-06 0)
(0.00173116 2.25123e-06 0)
(0.00173091 1.72148e-06 0)
(0.00173067 1.33773e-06 0)
(0.00173045 1.05752e-06 0)
(0.00173025 8.51647e-07 0)
(0.00173005 6.9906e-07 0)
(0.00172987 5.84871e-07 0)
(0.00172971 4.9821e-07 0)
(0.00172955 4.31298e-07 0)
(0.00172941 3.78783e-07 0)
(0.00172927 3.36801e-07 0)
(0.00172915 3.02537e-07 0)
(0.00172903 2.73979e-07 0)
(0.00172892 2.49778e-07 0)
(0.00172882 2.28818e-07 0)
(0.00172873 2.10393e-07 0)
(0.00172864 1.93977e-07 0)
(0.00172856 1.7909e-07 0)
(0.00172849 1.65511e-07 0)
(0.00172842 1.53097e-07 0)
(0.00172836 1.41549e-07 0)
(0.0017283 1.30894e-07 0)
(0.00172825 1.20997e-07 0)
(0.0017282 1.1175e-07 0)
(0.00172815 1.03097e-07 0)
(0.00172811 9.49482e-08 0)
(0.00172808 8.74091e-08 0)
(0.00172804 8.02868e-08 0)
(0.00172801 7.36273e-08 0)
(0.00172798 6.73933e-08 0)
(0.00172796 6.15334e-08 0)
(0.00172793 5.60363e-08 0)
(0.00172791 5.09e-08 0)
(0.00172789 4.60751e-08 0)
(0.00172788 4.15819e-08 0)
(0.00172786 3.73936e-08 0)
(0.00172785 3.34873e-08 0)
(0.00172784 2.98435e-08 0)
(0.00172783 2.64759e-08 0)
(0.00172782 2.33504e-08 0)
(0.00172782 2.04637e-08 0)
(0.00172781 1.78099e-08 0)
(0.00172781 1.53053e-08 0)
(0.0017278 1.30106e-08 0)
(0.0017278 1.08936e-08 0)
(0.0017278 8.9377e-09 0)
(0.0017278 7.13764e-09 0)
(0.0017278 5.48255e-09 0)
(0.0017278 3.95297e-09 0)
(0.0017278 2.54089e-09 0)
(0.0017278 1.28559e-09 0)
(0.0017278 1.21466e-10 0)
(0.0017278 -9.47765e-10 0)
(0.00172781 -1.92332e-09 0)
(0.00172781 -2.81722e-09 0)
(0.00172781 -3.64941e-09 0)
(0.00172782 -4.37341e-09 0)
(0.00172782 -5.01768e-09 0)
(0.00172783 -5.57883e-09 0)
(0.00172783 -6.0939e-09 0)
(0.00172784 -6.5571e-09 0)
(0.00172784 -6.92865e-09 0)
(0.00172785 -7.25059e-09 0)
(0.00172785 -7.44366e-09 0)
(0.00172786 -7.62308e-09 0)
(0.00172786 -7.73653e-09 0)
(0.00172787 -7.60491e-09 0)
(0.00172787 -7.48313e-09 0)
(0.00172788 -8.76161e-09 0)
(0.00172789 -8.6633e-09 0)
(0.00172789 -8.5274e-09 0)
(0.0017279 -8.44457e-09 0)
(0.0017279 -8.32302e-09 0)
(0.00172791 -8.4644e-09 0)
(0.00172791 -8.31885e-09 0)
(0.00172792 -8.9678e-09 0)
(0.00172793 -8.81007e-09 0)
(0.00172793 -8.51738e-09 0)
(0.00172794 -8.43577e-09 0)
(0.00172794 -8.29608e-09 0)
(0.00172795 -8.16644e-09 0)
(0.00172796 -8.02461e-09 0)
(0.00172796 -7.8434e-09 0)
(0.00172797 -7.59301e-09 0)
(0.00172797 -7.08921e-09 0)
(0.00172798 -6.82112e-09 0)
(0.00172798 -6.39427e-09 0)
(0.00172799 -6.08675e-09 0)
(0.00172799 -5.54072e-09 0)
(0.00172799 -4.79986e-09 0)
(0.001728 -3.94411e-09 0)
(0.001728 -2.86794e-09 0)
(0.00172801 -1.42135e-09 0)
(0.00172801 5.57843e-10 0)
(0.00172802 3.39459e-09 0)
(0.00172802 7.86432e-09 0)
(0.00172803 1.27568e-08 0)
(0.00172803 1.88555e-08 0)
(0.00172804 2.67431e-08 0)
(0.00172804 3.22719e-08 0)
(0.00172803 3.63949e-08 0)
(0.00172825 3.11692e-08 0)
(0.00172809 2.49484e-09 0)
(0.00149501 6.90926e-05 0)
(0.00155776 0.000122035 0)
(0.00167205 0.000146851 0)
(0.00156175 0.000116636 0)
(0.00173344 0.000107119 0)
(0.00165602 7.39612e-05 0)
(0.00173371 6.21275e-05 0)
(0.001707 4.26545e-05 0)
(0.0017317 3.31656e-05 0)
(0.00172867 2.36982e-05 0)
(0.00173329 1.73856e-05 0)
(0.00173497 1.26815e-05 0)
(0.00173602 9.24221e-06 0)
(0.00173669 6.7488e-06 0)
(0.00173708 4.94753e-06 0)
(0.00173727 3.64766e-06 0)
(0.00173733 2.70948e-06 0)
(0.00173731 2.03206e-06 0)
(0.00173723 1.54272e-06 0)
(0.00173712 1.1872e-06 0)
(0.00173699 9.28345e-07 0)
(0.00173685 7.39016e-07 0)
(0.0017367 5.99436e-07 0)
(0.00173656 4.95248e-07 0)
(0.00173642 4.1682e-07 0)
(0.00173628 3.56996e-07 0)
(0.00173615 3.10568e-07 0)
(0.00173602 2.73839e-07 0)
(0.0017359 2.44273e-07 0)
(0.00173579 2.19974e-07 0)
(0.00173569 1.9959e-07 0)
(0.00173559 1.82146e-07 0)
(0.0017355 1.66986e-07 0)
(0.00173542 1.53595e-07 0)
(0.00173534 1.41591e-07 0)
(0.00173527 1.30735e-07 0)
(0.0017352 1.20754e-07 0)
(0.00173514 1.116e-07 0)
(0.00173508 1.03102e-07 0)
(0.00173503 9.52642e-08 0)
(0.00173498 8.7955e-08 0)
(0.00173494 8.11362e-08 0)
(0.0017349 7.4798e-08 0)
(0.00173486 6.88057e-08 0)
(0.00173483 6.32123e-08 0)
(0.0017348 5.79851e-08 0)
(0.00173477 5.3088e-08 0)
(0.00173474 4.85227e-08 0)
(0.00173472 4.42477e-08 0)
(0.0017347 4.02563e-08 0)
(0.00173468 3.65504e-08 0)
(0.00173467 3.31015e-08 0)
(0.00173465 2.98908e-08 0)
(0.00173464 2.68929e-08 0)
(0.00173463 2.40834e-08 0)
(0.00173462 2.14193e-08 0)
(0.00173461 1.89212e-08 0)
(0.0017346 1.65823e-08 0)
(0.0017346 1.43994e-08 0)
(0.00173459 1.23852e-08 0)
(0.00173459 1.05023e-08 0)
(0.00173459 8.76559e-09 0)
(0.00173459 7.16221e-09 0)
(0.00173459 5.68546e-09 0)
(0.00173459 4.32695e-09 0)
(0.00173459 3.0936e-09 0)
(0.00173459 1.97765e-09 0)
(0.00173459 9.34622e-10 0)
(0.00173459 -7.62019e-12 0)
(0.00173459 -8.66226e-10 0)
(0.0017346 -1.64767e-09 0)
(0.0017346 -2.36388e-09 0)
(0.0017346 -3.00056e-09 0)
(0.00173461 -3.56555e-09 0)
(0.00173461 -4.08942e-09 0)
(0.00173462 -4.54124e-09 0)
(0.00173462 -4.93571e-09 0)
(0.00173463 -5.28625e-09 0)
(0.00173463 -5.5928e-09 0)
(0.00173464 -5.82537e-09 0)
(0.00173464 -6.00601e-09 0)
(0.00173465 -6.15815e-09 0)
(0.00173465 -6.2605e-09 0)
(0.00173466 -6.29902e-09 0)
(0.00173466 -6.3621e-09 0)
(0.00173467 -6.88243e-09 0)
(0.00173468 -6.88499e-09 0)
(0.00173468 -6.83518e-09 0)
(0.00173469 -6.79919e-09 0)
(0.00173469 -6.72939e-09 0)
(0.0017347 -6.79366e-09 0)
(0.0017347 -6.84681e-09 0)
(0.00173471 -7.1276e-09 0)
(0.00173472 -7.16718e-09 0)
(0.00173472 -6.98002e-09 0)
(0.00173473 -6.8382e-09 0)
(0.00173473 -6.71453e-09 0)
(0.00173474 -6.6171e-09 0)
(0.00173474 -6.48399e-09 0)
(0.00173475 -6.31901e-09 0)
(0.00173475 -6.14872e-09 0)
(0.00173476 -5.86517e-09 0)
(0.00173476 -5.58973e-09 0)
(0.00173477 -5.21266e-09 0)
(0.00173477 -4.84174e-09 0)
(0.00173478 -4.35916e-09 0)
(0.00173478 -3.74387e-09 0)
(0.00173479 -2.99977e-09 0)
(0.00173479 -2.01749e-09 0)
(0.0017348 -6.56521e-10 0)
(0.0017348 1.12481e-09 0)
(0.00173481 3.50871e-09 0)
(0.00173481 6.83766e-09 0)
(0.00173482 1.08533e-08 0)
(0.00173483 1.59335e-08 0)
(0.00173483 2.20711e-08 0)
(0.00173484 2.6999e-08 0)
(0.00173483 2.98037e-08 0)
(0.00173504 2.52341e-08 0)
(0.00173488 4.5818e-09 0)
(0.00148974 4.47365e-05 0)
(0.00154871 8.1661e-05 0)
(0.00165423 0.000100858 0)
(0.00154158 8.2071e-05 0)
(0.00171594 7.7393e-05 0)
(0.00163846 5.45094e-05 0)
(0.001722 4.67813e-05 0)
(0.00169607 3.25392e-05 0)
(0.00172504 2.57081e-05 0)
(0.00172329 1.85071e-05 0)
(0.00173001 1.37095e-05 0)
(0.00173294 1.00569e-05 0)
(0.00173498 7.35718e-06 0)
(0.00173639 5.38529e-06 0)
(0.00173732 3.95155e-06 0)
(0.00173791 2.91153e-06 0)
(0.00173826 2.1586e-06 0)
(0.00173844 1.61403e-06 0)
(0.00173851 1.21973e-06 0)
(0.00173851 9.33026e-07 0)
(0.00173846 7.24553e-07 0)
(0.00173837 5.72158e-07 0)
(0.00173826 4.60138e-07 0)
(0.00173815 3.76842e-07 0)
(0.00173802 3.1446e-07 0)
(0.0017379 2.67176e-07 0)
(0.00173778 2.3078e-07 0)
(0.00173766 2.02178e-07 0)
(0.00173755 1.7935e-07 0)
(0.00173744 1.60819e-07 0)
(0.00173734 1.4534e-07 0)
(0.00173725 1.32282e-07 0)
(0.00173716 1.21001e-07 0)
(0.00173708 1.1108e-07 0)
(0.001737 1.02274e-07 0)
(0.00173693 9.43175e-08 0)
(0.00173687 8.70509e-08 0)
(0.0017368 8.04168e-08 0)
(0.00173675 7.42761e-08 0)
(0.0017367 6.85829e-08 0)
(0.00173665 6.33059e-08 0)
(0.00173661 5.83789e-08 0)
(0.00173657 5.37667e-08 0)
(0.00173653 4.95029e-08 0)
(0.0017365 4.5495e-08 0)
(0.00173647 4.17315e-08 0)
(0.00173644 3.82134e-08 0)
(0.00173641 3.49149e-08 0)
(0.00173639 3.18293e-08 0)
(0.00173637 2.89355e-08 0)
(0.00173635 2.62361e-08 0)
(0.00173634 2.37103e-08 0)
(0.00173632 2.13374e-08 0)
(0.00173631 1.91122e-08 0)
(0.0017363 1.70456e-08 0)
(0.00173629 1.51315e-08 0)
(0.00173628 1.33631e-08 0)
(0.00173628 1.17292e-08 0)
(0.00173627 1.02193e-08 0)
(0.00173627 8.80279e-09 0)
(0.00173626 7.48787e-09 0)
(0.00173626 6.26367e-09 0)
(0.00173626 5.12979e-09 0)
(0.00173626 4.08515e-09 0)
(0.00173626 3.13875e-09 0)
(0.00173626 2.26521e-09 0)
(0.00173626 1.47112e-09 0)
(0.00173626 7.18782e-10 0)
(0.00173626 5.17244e-11 0)
(0.00173627 -5.76017e-10 0)
(0.00173627 -1.11189e-09 0)
(0.00173627 -1.64919e-09 0)
(0.00173628 -2.07888e-09 0)
(0.00173628 -2.48921e-09 0)
(0.00173629 -2.85287e-09 0)
(0.00173629 -3.19181e-09 0)
(0.0017363 -3.48331e-09 0)
(0.0017363 -3.74086e-09 0)
(0.00173631 -3.98288e-09 0)
(0.00173631 -4.13728e-09 0)
(0.00173632 -4.27425e-09 0)
(0.00173632 -4.35757e-09 0)
(0.00173633 -4.44188e-09 0)
(0.00173633 -4.53158e-09 0)
(0.00173633 -4.6005e-09 0)
(0.00173634 -4.80828e-09 0)
(0.00173635 -4.88972e-09 0)
(0.00173636 -4.89816e-09 0)
(0.00173636 -4.8758e-09 0)
(0.00173637 -4.85219e-09 0)
(0.00173637 -4.88791e-09 0)
(0.00173637 -4.92077e-09 0)
(0.00173638 -4.99198e-09 0)
(0.00173639 -5.01326e-09 0)
(0.0017364 -4.93878e-09 0)
(0.0017364 -4.88318e-09 0)
(0.00173641 -4.80782e-09 0)
(0.00173641 -4.72168e-09 0)
(0.00173642 -4.60132e-09 0)
(0.00173642 -4.49517e-09 0)
(0.00173643 -4.33653e-09 0)
(0.00173643 -4.12983e-09 0)
(0.00173644 -3.93754e-09 0)
(0.00173644 -3.67694e-09 0)
(0.00173645 -3.38796e-09 0)
(0.00173645 -3.01336e-09 0)
(0.00173646 -2.54037e-09 0)
(0.00173646 -1.95639e-09 0)
(0.00173647 -1.19811e-09 0)
(0.00173647 -1.69547e-10 0)
(0.00173648 1.20375e-09 0)
(0.00173648 2.99203e-09 0)
(0.00173649 5.39215e-09 0)
(0.00173649 8.27008e-09 0)
(0.0017365 1.16468e-08 0)
(0.00173651 1.54108e-08 0)
(0.00173651 1.84009e-08 0)
(0.0017365 1.95808e-08 0)
(0.00173672 1.54511e-08 0)
(0.00173655 5.93119e-10 0)
(0.00148675 2.52575e-05 0)
(0.00154409 4.69671e-05 0)
(0.00164372 5.88786e-05 0)
(0.00152921 4.86274e-05 0)
(0.00170456 4.66186e-05 0)
(0.00162658 3.32513e-05 0)
(0.00171362 2.89376e-05 0)
(0.00168795 2.03006e-05 0)
(0.00171971 1.62111e-05 0)
(0.00171872 1.17294e-05 0)
(0.00172689 8.74621e-06 0)
(0.00173066 6.44188e-06 0)
(0.00173339 4.72631e-06 0)
(0.00173532 3.4665e-06 0)
(0.00173664 2.54658e-06 0)
(0.00173751 1.87673e-06 0)
(0.00173807 1.39027e-06 0)
(0.00173841 1.03746e-06 0)
(0.00173859 7.81117e-07 0)
(0.00173866 5.95552e-07 0)
(0.00173867 4.6073e-07 0)
(0.00173862 3.61864e-07 0)
(0.00173855 2.89262e-07 0)
(0.00173845 2.35674e-07 0)
(0.00173834 1.95637e-07 0)
(0.00173823 1.65366e-07 0)
(0.00173812 1.42114e-07 0)
(0.00173801 1.24004e-07 0)
(0.0017379 1.09614e-07 0)
(0.0017378 9.79507e-08 0)
(0.0017377 8.83333e-08 0)
(0.0017376 8.02692e-08 0)
(0.00173752 7.33165e-08 0)
(0.00173744 6.72306e-08 0)
(0.00173736 6.18283e-08 0)
(0.00173729 5.69642e-08 0)
(0.00173722 5.25601e-08 0)
(0.00173716 4.85296e-08 0)
(0.00173711 4.48241e-08 0)
(0.00173706 4.13729e-08 0)
(0.00173701 3.82133e-08 0)
(0.00173697 3.52266e-08 0)
(0.00173693 3.24472e-08 0)
(0.00173689 2.98608e-08 0)
(0.00173686 2.74574e-08 0)
(0.00173683 2.51861e-08 0)
(0.0017368 2.30529e-08 0)
(0.00173678 2.10559e-08 0)
(0.00173675 1.91953e-08 0)
(0.00173673 1.74547e-08 0)
(0.00173672 1.5836e-08 0)
(0.0017367 1.4327e-08 0)
(0.00173669 1.29226e-08 0)
(0.00173667 1.16116e-08 0)
(0.00173666 1.03844e-08 0)
(0.00173665 9.23109e-09 0)
(0.00173665 8.15375e-09 0)
(0.00173664 7.15997e-09 0)
(0.00173663 6.23247e-09 0)
(0.00173663 5.3546e-09 0)
(0.00173663 4.54377e-09 0)
(0.00173662 3.79548e-09 0)
(0.00173662 3.11042e-09 0)
(0.00173662 2.47747e-09 0)
(0.00173662 1.89854e-09 0)
(0.00173662 1.36749e-09 0)
(0.00173662 8.95705e-10 0)
(0.00173663 4.50153e-10 0)
(0.00173663 3.77353e-11 0)
(0.00173663 -3.29425e-10 0)
(0.00173663 -6.57535e-10 0)
(0.00173664 -9.72162e-10 0)
(0.00173664 -1.24071e-09 0)
(0.00173665 -1.48299e-09 0)
(0.00173665 -1.69926e-09 0)
(0.00173666 -1.90793e-09 0)
(0.00173666 -2.08329e-09 0)
(0.00173666 -2.23204e-09 0)
(0.00173667 -2.37244e-09 0)
(0.00173668 -2.47568e-09 0)
(0.00173668 -2.56017e-09 0)
(0.00173669 -2.61944e-09 0)
(0.00173669 -2.66675e-09 0)
(0.0017367 -2.7147e-09 0)
(0.0017367 -2.76801e-09 0)
(0.0017367 -2.87703e-09 0)
(0.00173671 -2.9261e-09 0)
(0.00173672 -2.94987e-09 0)
(0.00173673 -2.93858e-09 0)
(0.00173673 -2.9239e-09 0)
(0.00173674 -2.93528e-09 0)
(0.00173674 -2.95171e-09 0)
(0.00173674 -2.98346e-09 0)
(0.00173676 -2.98339e-09 0)
(0.00173676 -2.95923e-09 0)
(0.00173677 -2.92674e-09 0)
(0.00173677 -2.87746e-09 0)
(0.00173678 -2.83664e-09 0)
(0.00173678 -2.763e-09 0)
(0.00173679 -2.69457e-09 0)
(0.00173679 -2.61021e-09 0)
(0.0017368 -2.47989e-09 0)
(0.0017368 -2.36314e-09 0)
(0.00173681 -2.18999e-09 0)
(0.00173681 -2.00244e-09 0)
(0.00173682 -1.77785e-09 0)
(0.00173682 -1.48469e-09 0)
(0.00173683 -1.12411e-09 0)
(0.00173683 -6.3884e-10 0)
(0.00173684 1.63008e-11 0)
(0.00173684 8.71287e-10 0)
(0.00173685 1.98394e-09 0)
(0.00173685 3.43839e-09 0)
(0.00173686 5.2186e-09 0)
(0.00173687 7.31752e-09 0)
(0.00173688 9.64048e-09 0)
(0.00173688 1.16202e-08 0)
(0.00173687 1.24004e-08 0)
(0.00173709 9.92078e-09 0)
(0.00173692 1.03599e-09 0)