/*--------------------------------*- C++ -*----------------------------------*\
  =========                 |
  \\      /  F ield         | OpenFOAM: The Open Source CFD Toolbox
   \\    /   O peration     | Website:  https://openfoam.org
    \\  /    A nd           | Version:  7
     \\/     M anipulation  |
\*---------------------------------------------------------------------------*/
FoamFile
{
    version     2.0;
    format      ascii;
    class       surfaceScalarField;
    location    "1.855";
    object      phi_0;
}
// * * * * * * * * * * * * * * * * * * * * * * * * * * * * * * * * * * * * * //

dimensions      [1 0 -1 0 0 0 0];

internalField   nonuniform List<scalar> 
36620
(
0.000466396
0.00091304
7.68726e-06
0.000259672
0.000201965
3.98858e-06
0.000184569
6.77557e-05
6.57611e-06
0.000160475
1.91029e-05
4.22281e-06
0.000147
6.52884e-06
6.18348e-06
0.000138746
3.15477e-06
4.34213e-06
0.000132441
-3.48704e-07
5.90139e-06
0.00012758
-3.19719e-07
4.4322e-06
0.000123497
-2.33364e-06
5.66934e-06
0.000120136
-1.87805e-06
4.49129e-06
0.000117192
-3.27444e-06
5.47043e-06
0.000114674
-2.75635e-06
4.525e-06
0.000112425
-3.79979e-06
5.29627e-06
0.000110441
-3.30731e-06
4.53807e-06
0.000108627
-4.08234e-06
5.14003e-06
0.000107075
-3.73738e-06
4.53399e-06
0.000105194
-3.87365e-06
4.99783e-06
0.000104269
-4.34585e-06
4.51545e-06
9.20278e-05
6.59096e-06
4.89642e-06
1.95628e-07
4.42157e-06
8.66559e-05
0.00100493
0.00129343
1.59783e-06
0.000743819
0.000464106
-1.81006e-06
0.000590147
0.000219792
8.4909e-07
0.000524117
8.58276e-05
-1.47294e-06
0.000485083
4.4286e-05
5.16108e-07
0.000460895
2.79251e-05
-1.32168e-06
0.00044117
1.84053e-05
2.4762e-07
0.000426857
1.45066e-05
-1.22536e-06
0.000413649
1.01518e-05
1.74789e-08
0.00040375
8.48082e-06
-1.16426e-06
0.000394039
5.91152e-06
-1.80997e-07
0.000386614
5.08512e-06
-1.13007e-06
0.000379063
3.38516e-06
-3.56097e-07
0.000373166
2.9761e-06
-1.11722e-06
0.000367085
1.77332e-06
-5.13783e-07
0.000362363
1.36101e-06
-1.12084e-06
0.000357596
8.08088e-07
-6.62516e-07
0.000354504
-8.66471e-07
-1.1359e-06
0.000367029
-5.82917e-06
-8.49754e-07
-1.70765e-05
-1.26713e-06
0.000384818
0.00139738
0.0012774
5.65564e-06
0.00128402
0.00057424
2.45035e-06
0.001151
0.000347045
4.96639e-06
0.00106339
0.000170037
2.61344e-06
0.00100156
0.000100773
4.57407e-06
0.000958931
6.71031e-05
2.72346e-06
0.00092458
4.77858e-05
4.28515e-06
0.000898513
3.71074e-05
2.8103e-06
0.000875149
2.88308e-05
4.05059e-06
0.000856687
2.34508e-05
2.86848e-06
0.000839151
1.89744e-05
3.85053e-06
0.000825014
1.56896e-05
2.90227e-06
0.000811186
1.28903e-05
3.67612e-06
0.000799841
1.07391e-05
2.91567e-06
0.000788516
8.89066e-06
3.51987e-06
0.000779254
7.0058e-06
2.91153e-06
0.000768424
7.53868e-06
3.38011e-06
0.000762247
1.68967e-06
2.89118e-06
0.000741332
1.10446e-05
3.31423e-06
-2.01534e-06
2.82163e-06
0.000722713
0.00155164
0.00111082
1.84474e-06
0.00157089
0.000555441
-1.23474e-06
0.00152778
0.000388109
1.25254e-06
0.00148112
0.000216965
-1.06642e-06
0.00143688
0.0001433
9.24458e-07
0.00140082
0.000103326
-9.10197e-07
0.00136831
7.89476e-05
6.62856e-07
0.00134141
6.41821e-05
-8.08568e-07
0.00131637
5.28448e-05
4.35928e-07
0.00129538
4.46081e-05
-7.45293e-07
0.00127547
3.81034e-05
2.38568e-07
0.00125857
3.27472e-05
-7.10371e-07
0.00124234
2.85006e-05
6.38652e-08
0.00122821
2.49845e-05
-6.97237e-07
0.0012149
2.1684e-05
-9.37144e-08
0.00120231
1.96512e-05
-7.00846e-07
0.00119286
1.6548e-05
-2.43613e-07
0.00117986
1.47036e-05
-7.19027e-07
0.00118263
8.01448e-06
-4.47527e-07
-1.42916e-06
-8.33987e-07
0.00118214
0.0015908
0.000902186
4.81614e-06
0.00167406
0.000469441
1.9553e-06
0.00169669
0.000360336
4.354e-06
0.00169481
0.000216003
2.02954e-06
0.00168098
0.000152335
3.99415e-06
0.00166561
0.000115778
2.14846e-06
0.00164779
9.23502e-05
3.71343e-06
0.00163156
7.75253e-05
2.23975e-06
0.0016147
6.56349e-05
3.48136e-06
0.00159977
5.66789e-05
2.29982e-06
0.0015847
4.93639e-05
3.28234e-06
0.00157142
4.31898e-05
2.3343e-06
0.00155819
3.81231e-05
3.10834e-06
0.00154644
3.38775e-05
2.34821e-06
0.00153477
2.98578e-05
2.95264e-06
0.00152433
2.71575e-05
2.34455e-06
0.00151327
2.41655e-05
2.81402e-06
0.00150382
2.1155e-05
2.32428e-06
0.00148956
1.88251e-05
2.7512e-06
1.67604e-05
2.26061e-06
0.00146838
0.00158213
0.000704653
2.30855e-06
0.00168047
0.000370855
-5.26709e-07
0.00173714
0.000301045
1.82051e-06
0.00176537
0.000187472
-5.05161e-07
0.00177744
0.00013799
1.46527e-06
0.00178391
0.000108911
-3.75886e-07
0.00178436
8.9981e-05
1.19383e-06
0.00178352
7.79918e-05
-2.79078e-07
0.00177962
6.79595e-05
9.64545e-07
0.00177566
6.02998e-05
-2.16843e-07
0.00177001
5.371e-05
7.66473e-07
0.00176475
4.81401e-05
-1.82159e-07
0.00175857
4.3241e-05
5.91788e-07
0.00175277
3.9376e-05
-1.68836e-07
0.0017467
3.49984e-05
4.34622e-07
0.00174037
3.31287e-05
-1.72615e-07
0.0017357
2.79749e-05
2.85487e-07
0.00172821
2.8203e-05
-1.94144e-07
0.00172794
1.83347e-05
8.8172e-08
1.88308e-05
-2.89992e-07
0.00172544
0.00157138
0.000516047
4.18708e-06
0.00166857
0.000271368
1.51131e-06
0.00173679
0.00022822
3.81504e-06
0.00177798
0.000143972
1.50402e-06
0.0018036
0.000108093
3.4649e-06
0.00182315
8.69503e-05
1.62187e-06
0.00183599
7.32251e-05
3.1895e-06
0.00184691
6.46883e-05
1.71719e-06
0.00185396
5.73357e-05
2.96055e-06
0.00186015
5.17682e-05
1.78002e-06
0.00186379
4.67716e-05
2.76334e-06
0.00186704
4.25665e-05
1.81588e-06
0.00186856
3.86637e-05
2.59022e-06
0.00187001
3.56456e-05
1.8306e-06
0.00187007
3.20467e-05
2.43521e-06
0.00187039
3.04827e-05
1.82748e-06
0.00186891
2.66238e-05
2.29627e-06
0.00186816
2.6538e-05
1.80605e-06
0.00186328
2.03575e-05
2.21616e-06
2.48066e-05
1.74442e-06
0.00185487
0.00156081
0.000339398
2.75152e-06
0.00165287
0.000178455
7.80722e-08
0.00172476
0.000153184
2.34791e-06
0.00177065
9.72523e-05
2.66062e-08
0.00180205
7.3899e-05
1.98437e-06
0.00182797
6.01049e-05
1.39671e-07
0.00184748
5.1272e-05
1.7073e-06
0.00186533
4.59459e-05
2.33232e-07
0.00187928
4.12969e-05
1.47622e-06
0.00189234
3.78423e-05
2.94449e-07
0.00190266
3.46311e-05
1.27728e-06
0.00191242
3.19783e-05
3.28642e-07
0.00192015
2.93641e-05
1.10228e-06
0.00192751
2.74954e-05
3.41886e-07
0.00193331
2.4852e-05
9.45351e-07
0.00193874
2.42453e-05
3.38006e-07
0.00194343
2.06169e-05
7.98138e-07
0.00194706
2.20131e-05
3.15067e-07
0.00195131
1.48654e-05
6.24025e-07
1.89641e-05
2.34387e-07
0.00195625
0.00155486
0.000167826
3.65552e-06
0.00164342
8.80467e-05
1.06324e-06
0.00171596
7.65347e-05
3.31412e-06
0.00176285
4.85467e-05
1.00627e-06
0.00179603
3.69503e-05
2.9624e-06
0.00182411
3.01252e-05
1.11919e-06
0.00184616
2.57978e-05
2.6874e-06
0.00186699
2.3242e-05
1.21484e-06
0.00188421
2.10008e-05
2.45876e-06
0.00190083
1.93708e-05
1.27823e-06
0.00191483
1.78307e-05
2.26182e-06
0.00192841
1.65755e-05
1.31433e-06
0.00193991
1.53106e-05
2.08873e-06
0.0019512
1.44275e-05
1.32917e-06
0.00196054
1.31439e-05
1.93374e-06
0.00197009
1.29076e-05
1.32612e-06
0.00197717
1.12347e-05
1.79294e-06
0.00198517
1.21507e-05
1.30341e-06
0.0019887
9.03958e-06
1.68414e-06
1.28008e-05
1.23925e-06
0.00199297
0.00155156
-6.28303e-11
3.19086e-06
0.00163823
2.1661e-10
5.98466e-07
0.00171113
-1.04446e-10
2.83801e-06
0.00175835
7.19397e-10
5.24372e-07
0.00179201
1.33952e-10
2.47803e-06
0.00182071
1.87568e-09
6.33212e-07
0.00184358
9.42161e-10
2.20074e-06
0.00186543
4.28292e-09
7.27041e-07
0.00188384
4.18806e-09
1.97039e-06
0.00190185
9.67363e-09
7.89063e-07
0.00191735
1.62479e-08
1.77216e-06
0.00193257
2.51872e-08
8.24034e-07
0.00194576
4.92322e-08
1.59793e-06
0.00195882
8.5721e-08
8.38029e-07
0.00196997
1.11808e-07
1.44189e-06
0.00198127
3.20476e-07
8.34724e-07
0.00199048
2.20655e-07
1.29782e-06
0.00200025
1.0158e-06
8.12131e-07
0.00200684
6.84489e-07
1.15521e-06
2.35682e-06
7.42343e-07
0.00201589
0.00155156
-0.000167827
3.19086e-06
0.00163823
-8.80463e-05
5.98465e-07
0.00171113
-7.65349e-05
2.83802e-06
0.00175835
-4.85453e-05
5.24371e-07
0.00179201
-3.695e-05
2.47803e-06
0.00182071
-3.01215e-05
6.33209e-07
0.00184358
-2.5796e-05
2.20074e-06
0.00186543
-2.32336e-05
7.27032e-07
0.00188384
-2.09925e-05
1.97039e-06
0.00190185
-1.93521e-05
7.89036e-07
0.00191735
-1.77984e-05
1.77215e-06
0.00193257
-1.65275e-05
8.23954e-07
0.00194576
-1.5212e-05
1.59789e-06
0.00195883
-1.4263e-05
8.37779e-07
0.00196998
-1.29203e-05
1.44178e-06
0.00198129
-1.22837e-05
8.33949e-07
0.00199052
-1.08002e-05
1.29761e-06
0.0020003
-1.01295e-05
8.09907e-07
0.00200691
-7.69923e-06
1.15535e-06
-8.06833e-06
7.38506e-07
0.00201596
0.00155486
-0.000339398
3.65552e-06
0.00164342
-0.000178455
1.06324e-06
0.00171596
-0.000153184
3.31412e-06
0.00176285
-9.72509e-05
1.00627e-06
0.00179603
-7.38987e-05
2.9624e-06
0.00182411
-6.01011e-05
1.11919e-06
0.00184616
-5.12702e-05
2.6874e-06
0.00186699
-4.59374e-05
1.21485e-06
0.00188421
-4.12889e-05
2.45876e-06
0.00190083
-3.78231e-05
1.27826e-06
0.00191483
-3.45998e-05
2.26183e-06
0.00192841
-3.19291e-05
1.31441e-06
0.00193991
-2.92683e-05
2.08877e-06
0.0019512
-2.73297e-05
1.32941e-06
0.00196055
-2.46343e-05
1.93382e-06
0.0019701
-2.36251e-05
1.32688e-06
0.00197719
-2.01957e-05
1.79309e-06
0.00198523
-2.00366e-05
1.30553e-06
0.00198883
-1.35914e-05
1.68398e-06
-1.4402e-05
1.24248e-06
0.00199327
0.00156081
-0.000516047
2.75152e-06
0.00165287
-0.000271368
7.80721e-08
0.00172476
-0.00022822
2.34791e-06
0.00177065
-0.00014397
2.66053e-08
0.00180205
-0.000108093
1.98437e-06
0.00182797
-8.69467e-05
1.39668e-07
0.00184748
-7.32233e-05
1.7073e-06
0.00186533
-6.46801e-05
2.33223e-07
0.00187928
-5.73282e-05
1.47622e-06
0.00189234
-5.17499e-05
2.94426e-07
0.00190267
-4.67418e-05
1.27728e-06
0.00191242
-4.25208e-05
3.28571e-07
0.00192016
-3.85713e-05
1.10226e-06
0.00192753
-3.54925e-05
3.41674e-07
0.00193335
-3.18378e-05
9.45269e-07
0.00193881
-2.99026e-05
3.3736e-07
0.00194353
-2.62322e-05
7.97987e-07
0.00194725
-2.464e-05
3.13136e-07
0.00195161
-1.92016e-05
6.24555e-07
-2.04039e-05
2.30842e-07
0.00195671
0.00157138
-0.000704653
4.18708e-06
0.00166857
-0.000370855
1.51131e-06
0.00173679
-0.000301045
3.81504e-06
0.00177798
-0.000187471
1.50402e-06
0.0018036
-0.000137989
3.4649e-06
0.00182315
-0.000108907
1.62187e-06
0.00183599
-8.99793e-05
3.1895e-06
0.00184691
-7.79839e-05
1.71719e-06
0.00185397
-6.79525e-05
2.96055e-06
0.00186015
-6.02821e-05
1.78004e-06
0.00186379
-5.36824e-05
2.76335e-06
0.00186705
-4.80961e-05
1.81594e-06
0.00186858
-4.31562e-05
2.59025e-06
0.00187003
-3.92313e-05
1.83081e-06
0.00187011
-3.48086e-05
2.43525e-06
0.00187046
-3.25834e-05
1.82815e-06
0.00186903
-2.76332e-05
2.29633e-06
0.00186842
-2.64421e-05
1.80789e-06
0.00186374
-1.73773e-05
2.21581e-06
-1.48698e-05
1.74677e-06
0.00185577
0.00158213
-0.000902186
2.30855e-06
0.00168047
-0.000469441
-5.26709e-07
0.00173714
-0.000360336
1.82051e-06
0.00176537
-0.000216002
-5.05162e-07
0.00177744
-0.000152334
1.46527e-06
0.00178391
-0.000115775
-3.75888e-07
0.00178436
-9.23484e-05
1.19384e-06
0.00178352
-7.75186e-05
-2.79086e-07
0.00177962
-6.56284e-05
9.64549e-07
0.00177566
-5.66643e-05
-2.16865e-07
0.00177002
-4.9339e-05
7.66476e-07
0.00176477
-4.31541e-05
-1.82221e-07
0.00175859
-3.80473e-05
5.91778e-07
0.00175282
-3.37586e-05
-1.6901e-07
0.00174678
-2.96916e-05
4.34573e-07
0.00174053
-2.66971e-05
-1.73124e-07
0.00173592
-2.38847e-05
2.85406e-07
0.00172865
-1.96064e-05
-1.95725e-07
0.00172858
-1.80774e-05
8.92664e-08
-1.32642e-05
-2.9326e-07
0.00172656
0.0015908
-0.00111082
4.81614e-06
0.00167406
-0.000555441
1.9553e-06
0.00169669
-0.000388109
4.354e-06
0.00169481
-0.000216964
2.02954e-06
0.00168098
-0.000143299
3.99415e-06
0.00166562
-0.000103323
2.14846e-06
0.00164779
-7.89458e-05
3.71343e-06
0.00163157
-6.41771e-05
2.23976e-06
0.0016147
-5.2839e-05
3.48137e-06
0.00159978
-4.45969e-05
2.29983e-06
0.00158471
-3.80822e-05
3.28234e-06
0.00157144
-3.27199e-05
2.33435e-06
0.00155822
-2.84382e-05
3.10836e-06
0.00154649
-2.48931e-05
2.34838e-06
0.00153486
-2.15507e-05
2.95266e-06
0.00152452
-1.9286e-05
2.34511e-06
0.00151353
-1.63457e-05
2.81403e-06
0.0015044
-1.34681e-05
2.3257e-06
0.00149047
-7.60055e-06
2.75063e-06
4.03137e-06
2.26195e-06
0.00147018
0.00155164
-0.0012774
1.84474e-06
0.00157089
-0.00057424
-1.23474e-06
0.00152778
-0.000347045
1.25254e-06
0.00148112
-0.000170037
-1.06642e-06
0.00143688
-0.000100772
9.24459e-07
0.00140082
-6.71018e-05
-9.10199e-07
0.00136831
-4.77843e-05
6.62857e-07
0.00134141
-3.71042e-05
-8.08574e-07
0.00131637
-2.88262e-05
4.35932e-07
0.00129539
-2.34443e-05
-7.4531e-07
0.00127548
-1.89588e-05
2.38575e-07
0.0012586
-1.56751e-05
-7.10417e-07
0.00124239
-1.28451e-05
6.38665e-08
0.0012283
-1.06875e-05
-6.97364e-07
0.00121502
-8.79493e-06
-9.37267e-08
0.00120258
-6.78712e-06
-7.01209e-07
0.00119318
-7.38951e-06
-2.43585e-07
0.00118063
-8.91244e-07
-7.20221e-07
0.00118348
-1.07276e-05
-4.45738e-07
3.85048e-06
-8.36807e-07
0.00118377
0.00139738
-0.00129343
5.65564e-06
0.00128402
-0.000464106
2.45035e-06
0.001151
-0.000219792
4.96639e-06
0.00106339
-8.58274e-05
2.61344e-06
0.00100156
-4.42857e-05
4.57407e-06
0.000958933
-2.79244e-05
2.72346e-06
0.000924582
-1.84044e-05
4.28515e-06
0.000898516
-1.4505e-05
2.8103e-06
0.000875154
-1.01492e-05
4.05059e-06
0.000856695
-8.47753e-06
2.86849e-06
0.000839166
-5.90325e-06
3.85053e-06
0.000825036
-5.07805e-06
2.90231e-06
0.00081123
-3.36221e-06
3.67613e-06
0.000799912
-2.9521e-06
2.91581e-06
0.000788634
-1.72476e-06
3.51985e-06
0.000779485
-1.2553e-06
2.91194e-06
0.000768736
-7.40452e-07
3.38007e-06
0.000762974
1.25206e-06
2.89213e-06
0.000742369
5.82864e-06
3.31381e-06
1.78035e-05
2.82209e-06
0.000724875
0.00100493
-0.00091304
1.59783e-06
0.000743819
-0.000201965
-1.81006e-06
0.000590147
-6.77557e-05
8.49091e-07
0.000524117
-1.91029e-05
-1.47294e-06
0.000485084
-6.52875e-06
5.16108e-07
0.000460896
-3.15454e-06
-1.32168e-06
0.000441171
3.49058e-07
2.47621e-07
0.000426859
3.20257e-07
-1.22536e-06
0.000413652
2.33449e-06
1.74829e-08
0.000403756
1.87894e-06
-1.16427e-06
0.00039405
3.27685e-06
-1.8099e-07
0.000386631
2.75797e-06
-1.1301e-06
0.000379096
3.80646e-06
-3.56088e-07
0.000373217
3.313e-06
-1.11728e-06
0.000367171
4.09609e-06
-5.13775e-07
0.000362528
3.7637e-06
-1.12101e-06
0.000357805
3.89667e-06
-6.62433e-07
0.000354995
4.4517e-06
-1.13666e-06
0.000367346
-6.42293e-06
-8.48073e-07
9.3955e-08
-1.26967e-06
0.000385587
0.000466396
7.68726e-06
0.000259672
3.98858e-06
0.000184569
6.57611e-06
0.000160475
4.22281e-06
0.000147
6.18348e-06
0.000138746
4.34213e-06
0.000132442
5.90139e-06
0.00012758
4.4322e-06
0.000123498
5.66934e-06
0.000120138
4.4913e-06
0.000117196
5.47043e-06
0.000114679
4.52503e-06
0.000112437
5.29625e-06
0.000110458
4.53817e-06
0.000108659
5.13995e-06
0.000107132
4.53429e-06
0.000105275
4.99762e-06
0.000104455
4.51614e-06
9.23809e-05
4.89594e-06
4.42286e-06
8.73011e-05
0.000887767
0.000504999
1.59724e-06
0.000527374
0.000361539
2.06654e-06
0.000374418
0.000157508
1.24436e-06
0.000316071
6.00279e-05
1.77057e-06
0.000288014
3.22014e-05
1.28036e-06
0.000268359
2.16691e-05
1.58203e-06
0.000255183
1.70835e-05
1.25814e-06
0.000243506
1.39463e-05
1.43264e-06
0.000235239
1.19659e-05
1.24265e-06
0.00022719
1.04732e-05
1.3373e-06
0.000221313
9.37819e-06
1.23562e-06
0.000215276
8.54766e-06
1.2758e-06
0.000210739
7.85491e-06
1.23342e-06
0.000205969
7.32284e-06
1.23683e-06
0.00020225
6.87248e-06
1.236e-06
0.00019849
6.32691e-06
1.21414e-06
0.000195652
5.83917e-06
1.24513e-06
0.000191589
6.62843e-06
1.20139e-06
0.000233861
-3.93758e-05
1.25618e-06
-2.78479e-05
1.23358e-06
0.000264148
0.00137714
0.000511548
4.7333e-06
0.00119112
0.000539684
5.28234e-06
0.0010204
0.00032384
4.44806e-06
0.000902266
0.000170921
4.97742e-06
0.000826832
0.000102918
4.47593e-06
0.000773752
6.79205e-05
4.78777e-06
0.000736658
4.92907e-05
4.45037e-06
0.000706203
3.78775e-05
4.63886e-06
0.000683223
2.98813e-05
4.4357e-06
0.000662537
2.48117e-05
4.53926e-06
0.000646235
2.04169e-05
4.43052e-06
0.000630813
1.77002e-05
4.4729e-06
0.000618285
1.49111e-05
4.43057e-06
0.000606106
1.32522e-05
4.4298e-06
0.000595809
1.15036e-05
4.43517e-06
0.00058609
9.7955e-06
4.40386e-06
0.000576282
9.80504e-06
4.4487e-06
0.000571474
5.18438e-06
4.38673e-06
0.000531765
-5.73238e-06
4.49713e-06
2.25598e-06
4.44882e-06
0.000495223
0.00148501
0.000416919
1.96628e-06
0.00148344
0.000540295
2.63156e-06
0.00141275
0.000397105
1.58806e-06
0.00133034
0.000252812
2.33142e-06
0.00126177
0.000173642
1.65006e-06
0.00120522
0.000124318
2.15207e-06
0.00116161
9.48637e-05
1.6545e-06
0.00112437
7.53041e-05
1.99581e-06
0.00109475
6.13011e-05
1.6574e-06
0.00106813
5.18446e-05
1.88608e-06
0.00104627
4.3887e-05
1.66759e-06
0.00102587
3.86112e-05
1.81134e-06
0.00100868
3.34889e-05
1.68287e-06
0.000992182
3.02626e-05
1.76348e-06
0.000978215
2.66195e-05
1.7041e-06
0.000964005
2.44888e-05
1.73645e-06
0.000954335
2.0413e-05
1.73096e-06
0.000938839
2.11239e-05
1.72455e-06
0.000950306
-1.63318e-05
1.7251e-06
-5.77604e-06
1.76201e-06
0.000958674
0.00146516
0.000336088
4.31685e-06
0.0015376
0.000460905
4.92899e-06
0.00155946
0.000371587
4.1173e-06
0.00154398
0.000261768
4.64521e-06
0.00151832
0.000195304
4.13359e-06
0.00148744
0.00014909
4.45296e-06
0.00145915
0.000119027
4.11041e-06
0.00143133
9.73845e-05
4.30313e-06
0.00140744
8.09463e-05
4.09494e-06
0.0013846
6.91954e-05
4.20133e-06
0.00136505
5.90574e-05
4.08846e-06
0.00134629
5.2014e-05
4.13302e-06
0.00133003
4.51846e-05
4.08766e-06
0.00131427
4.06781e-05
4.08896e-06
0.00130026
3.58382e-05
4.0924e-06
0.00128691
3.2423e-05
4.06318e-06
0.00127336
2.89244e-05
4.10723e-06
0.00126352
2.54881e-05
4.05004e-06
0.0012359
5.93572e-06
4.16746e-06
2.20539e-05
4.11354e-06
0.00120238
0.00145946
0.000265799
2.35234e-06
0.00154342
0.000375085
3.03334e-06
0.00159682
0.000319718
2.02645e-06
0.001619
0.000238091
2.72165e-06
0.00162795
0.000187474
2.07001e-06
0.00162584
0.000150066
2.53157e-06
0.00162065
0.000125155
2.08025e-06
0.00161107
0.000106184
2.38016e-06
0.00160151
9.13127e-05
2.08635e-06
0.00159012
8.0065e-05
2.27489e-06
0.00157972
7.01287e-05
2.09603e-06
0.00156848
6.2896e-05
2.20342e-06
0.00155843
5.57491e-05
2.1079e-06
0.00154778
5.10113e-05
2.15743e-06
0.00153858
4.53161e-05
2.12325e-06
0.00152806
4.25579e-05
2.13109e-06
0.00152133
3.56843e-05
2.14178e-06
0.00150935
3.69828e-05
2.12061e-06
0.00150966
5.52669e-06
2.12821e-06
2.13092e-05
2.16184e-06
0.00150974
0.00144286
0.000208079
3.94635e-06
0.00152143
0.000290616
4.58994e-06
0.00158712
0.000251275
3.77903e-06
0.00162799
0.000191592
4.31494e-06
0.00165765
0.000154684
3.79254e-06
0.00167529
0.000127157
4.1257e-06
0.00168832
0.000108846
3.77694e-06
0.00169502
9.45817e-05
3.97888e-06
0.00169982
8.31145e-05
3.76483e-06
0.00170102
7.42171e-05
3.8776e-06
0.00170158
6.60593e-05
3.7599e-06
0.0017
6.00022e-05
3.80928e-06
0.00169834
5.37761e-05
3.76016e-06
0.00169533
4.96059e-05
3.76524e-06
0.00169229
4.45148e-05
3.76568e-06
0.00168865
4.17268e-05
3.73947e-06
0.00168367
3.65651e-05
3.78059e-06
0.00168011
3.59588e-05
3.72968e-06
0.00166497
1.62157e-05
3.84034e-06
3.47949e-05
3.79137e-06
0.00164665
0.00144463
0.000151644
2.71071e-06
0.0015179
0.000214698
3.37957e-06
0.00158068
0.000189053
2.45958e-06
0.00162414
0.00014575
3.07603e-06
0.00165982
0.000119198
2.47082e-06
0.00168564
9.9318e-05
2.87918e-06
0.00170802
8.64804e-05
2.46707e-06
0.00172446
7.64838e-05
2.7276e-06
0.00173896
6.85157e-05
2.46396e-06
0.00174952
6.22577e-05
2.62247e-06
0.00175893
5.64193e-05
2.46659e-06
0.00176566
5.20563e-05
2.5516e-06
0.00177172
4.73672e-05
2.47345e-06
0.00177582
4.43733e-05
2.50637e-06
0.0017797
4.01047e-05
2.48484e-06
0.0017816
3.86442e-05
2.48035e-06
0.00178464
3.27424e-05
2.50008e-06
0.00178433
3.49642e-05
2.47164e-06
0.00178623
1.3362e-05
2.49515e-06
2.83139e-05
2.51821e-06
0.0017912
0.00143718
0.000100361
3.61812e-06
0.0015063
0.00014059
4.27817e-06
0.00156957
0.000123884
3.45703e-06
0.00161471
9.58224e-05
4.00128e-06
0.0016531
7.85256e-05
3.46434e-06
0.00168225
6.57284e-05
3.8107e-06
0.00170869
5.75932e-05
3.4525e-06
0.00172976
5.13421e-05
3.66444e-06
0.00174933
4.63822e-05
3.44274e-06
0.00176522
4.25332e-05
3.563e-06
0.00178008
3.88745e-05
3.43935e-06
0.0017923
3.61825e-05
3.49465e-06
0.0018037
3.31686e-05
3.44113e-06
0.00181321
3.13042e-05
3.45099e-06
0.00182181
2.85361e-05
3.44814e-06
0.00182931
2.75323e-05
3.42567e-06
0.00183469
2.4138e-05
3.46321e-06
0.0018408
2.51318e-05
3.41806e-06
0.00183729
1.33284e-05
3.51162e-06
2.60824e-05
3.47618e-06
0.00183556
0.00143833
4.93975e-05
3.0216e-06
0.00150546
7.00518e-05
3.69165e-06
0.00156667
6.23679e-05
2.82161e-06
0.00161089
4.8404e-05
3.39851e-06
0.00164895
3.98007e-05
2.82219e-06
0.00167845
3.33818e-05
3.20125e-06
0.00170585
2.9364e-05
2.81309e-06
0.00172841
2.63023e-05
3.05097e-06
0.00174993
2.39164e-05
2.8058e-06
0.00176815
2.20801e-05
2.94649e-06
0.00178562
2.03358e-05
2.80474e-06
0.00180068
1.90772e-05
2.8761e-06
0.00181505
1.76189e-05
2.80878e-06
0.0018276
1.68046e-05
2.83132e-06
0.00183943
1.53605e-05
2.81793e-06
0.00184978
1.51881e-05
2.80562e-06
0.00185935
1.29749e-05
2.83222e-06
0.00186791
1.44683e-05
2.79852e-06
0.00187251
6.90905e-06
2.84392e-06
1.37022e-05
2.84876e-06
0.00188258
0.00143602
-1.13791e-10
3.31578e-06
0.0015019
2.82585e-10
3.98339e-06
0.00156317
-1.59544e-10
3.14346e-06
0.00160759
7.25684e-10
3.69998e-06
0.00164592
-5.40614e-11
3.14541e-06
0.00167566
1.79227e-09
3.50606e-06
0.00170339
6.73939e-10
3.13501e-06
0.00172641
4.34356e-09
3.35823e-06
0.00174857
3.79656e-09
3.12638e-06
0.00176761
1.14541e-08
3.25542e-06
0.00178606
1.46468e-08
3.12395e-06
0.00180225
3.35263e-08
3.18617e-06
0.00181784
4.42338e-08
3.12674e-06
0.00183178
1.05257e-07
3.14209e-06
0.00184487
1.2169e-07
3.13475e-06
0.00185694
3.20272e-07
3.11662e-06
0.00186716
3.53869e-07
3.14937e-06
0.00187783
8.95647e-07
3.10955e-06
0.00188096
1.0997e-06
3.1805e-06
2.33245e-06
3.16293e-06
0.00188921
0.00143602
-4.93977e-05
3.31578e-06
0.0015019
-7.00513e-05
3.98339e-06
0.00156317
-6.23682e-05
3.14346e-06
0.00160759
-4.84025e-05
3.69998e-06
0.00164592
-3.98008e-05
3.14541e-06
0.00167566
-3.33781e-05
3.50606e-06
0.00170339
-2.93627e-05
3.13501e-06
0.00172641
-2.62934e-05
3.35823e-06
0.00174857
-2.39089e-05
3.12638e-06
0.00176761
-2.20565e-05
3.25544e-06
0.00178606
-2.03068e-05
3.12395e-06
0.00180225
-1.90082e-05
3.18622e-06
0.00181784
-1.75314e-05
3.12676e-06
0.00183178
-1.65881e-05
3.14223e-06
0.00184486
-1.512e-05
3.13482e-06
0.00185692
-1.45337e-05
3.11705e-06
0.00186715
-1.22758e-05
3.14951e-06
0.00187781
-1.2673e-05
3.11081e-06
0.00188101
-4.78085e-06
3.18049e-06
-9.20791e-06
3.16508e-06
0.00188943
0.00143833
-0.000100361
3.0216e-06
0.00150546
-0.00014059
3.69165e-06
0.00156667
-0.000123884
2.82161e-06
0.00161089
-9.5821e-05
3.39851e-06
0.00164895
-7.85257e-05
2.82219e-06
0.00167845
-6.57248e-05
3.20125e-06
0.00170585
-5.75919e-05
2.81309e-06
0.00172841
-5.13335e-05
3.05096e-06
0.00174993
-4.63749e-05
2.8058e-06
0.00176816
-4.25105e-05
2.94648e-06
0.00178563
-3.8846e-05
2.80474e-06
0.00180069
-3.61166e-05
2.87605e-06
0.00181506
-3.30822e-05
2.80876e-06
0.00182762
-3.10985e-05
2.83118e-06
0.00183945
-2.82987e-05
2.81786e-06
0.00184983
-2.69081e-05
2.80518e-06
0.00185941
-2.34498e-05
2.83205e-06
0.00186803
-2.33908e-05
2.79725e-06
0.00187263
-1.11912e-05
2.8438e-06
-2.15119e-05
2.84663e-06
0.00188262
0.00143718
-0.000151644
3.61812e-06
0.0015063
-0.000214698
4.27818e-06
0.00156957
-0.000189053
3.45703e-06
0.00161471
-0.000145749
4.00128e-06
0.0016531
-0.000119198
3.46434e-06
0.00168225
-9.93145e-05
3.8107e-06
0.00170869
-8.64792e-05
3.4525e-06
0.00172976
-7.64752e-05
3.66445e-06
0.00174933
-6.85088e-05
3.44274e-06
0.00176522
-6.2235e-05
3.56301e-06
0.00178008
-5.6392e-05
3.43935e-06
0.0017923
-5.19907e-05
3.49468e-06
0.00180371
-4.72846e-05
3.44114e-06
0.00181322
-4.41687e-05
3.4511e-06
0.00182182
-3.98794e-05
3.44817e-06
0.00182934
-3.8028e-05
3.42602e-06
0.00183476
-3.20935e-05
3.46324e-06
0.00184092
-3.32825e-05
3.41911e-06
0.00183758
-1.13929e-05
3.51118e-06
-2.40532e-05
3.47787e-06
0.00183615
0.00144463
-0.000208079
2.71071e-06
0.0015179
-0.000290616
3.37957e-06
0.00158068
-0.000251275
2.45958e-06
0.00162414
-0.000191591
3.07603e-06
0.00165982
-0.000154684
2.47082e-06
0.00168564
-0.000127154
2.87918e-06
0.00170802
-0.000108844
2.46707e-06
0.00172446
-9.45737e-05
2.7276e-06
0.00173896
-8.31079e-05
2.46396e-06
0.00174952
-7.41962e-05
2.62246e-06
0.00175894
-6.60335e-05
2.46658e-06
0.00176567
-5.99423e-05
2.55156e-06
0.00177174
-5.36983e-05
2.47344e-06
0.00177586
-4.94204e-05
2.50624e-06
0.00177975
-4.43038e-05
2.48479e-06
0.00178171
-4.11683e-05
2.47994e-06
0.00178479
-3.59568e-05
2.49992e-06
0.00178463
-3.44168e-05
2.4705e-06
0.0017866
-1.43256e-05
2.49506e-06
-3.06251e-05
2.5163e-06
0.00179167
0.00144286
-0.000265799
3.94635e-06
0.00152143
-0.000375085
4.58994e-06
0.00158712
-0.000319718
3.77903e-06
0.00162799
-0.00023809
4.31494e-06
0.00165765
-0.000187474
3.79254e-06
0.00167529
-0.000150063
4.1257e-06
0.00168832
-0.000125153
3.77694e-06
0.00169502
-0.000106176
3.97888e-06
0.00169982
-9.13065e-05
3.76483e-06
0.00170102
-8.00461e-05
3.87761e-06
0.00170158
-7.01051e-05
3.7599e-06
0.00170001
-6.28416e-05
3.80931e-06
0.00169836
-5.56795e-05
3.76015e-06
0.00169537
-5.08418e-05
3.76532e-06
0.00169236
-4.51321e-05
3.76569e-06
0.00168876
-4.20476e-05
3.73972e-06
0.00168388
-3.51684e-05
3.78052e-06
0.00168048
-3.56045e-05
3.7305e-06
0.00166567
-3.96388e-06
3.83937e-06
-1.77575e-05
3.7928e-06
0.00164796
0.00145946
-0.000336088
2.35234e-06
0.00154342
-0.000460905
3.03334e-06
0.00159682
-0.000371587
2.02645e-06
0.001619
-0.000261768
2.72165e-06
0.00162795
-0.000195304
2.07001e-06
0.00162584
-0.000149088
2.53157e-06
0.00162065
-0.000119026
2.08025e-06
0.00161107
-9.73789e-05
2.38016e-06
0.00160151
-8.09405e-05
2.08635e-06
0.00159013
-6.91807e-05
2.27488e-06
0.00157973
-5.90362e-05
2.09602e-06
0.0015685
-5.19718e-05
2.20339e-06
0.00155846
-4.5124e-05
2.10789e-06
0.00154785
-4.0546e-05
2.15732e-06
0.00153867
-3.56812e-05
2.12322e-06
0.00152827
-3.20233e-05
2.13074e-06
0.0015216
-2.84779e-05
2.14165e-06
0.00150992
-2.43983e-05
2.11974e-06
0.00151041
-4.55944e-06
2.12826e-06
-1.89034e-05
2.16028e-06
0.0015109
0.00146516
-0.000416919
4.31685e-06
0.0015376
-0.000540295
4.92899e-06
0.00155946
-0.000397105
4.1173e-06
0.00154398
-0.000252811
4.64521e-06
0.00151832
-0.000173641
4.13359e-06
0.00148744
-0.000124316
4.45296e-06
0.00145915
-9.48624e-05
4.11041e-06
0.00143133
-7.53002e-05
4.30314e-06
0.00140745
-6.12961e-05
4.09494e-06
0.00138461
-5.18342e-05
4.20134e-06
0.00136507
-4.38699e-05
4.08845e-06
0.00134631
-3.85814e-05
4.13304e-06
0.00133007
-3.34422e-05
4.08765e-06
0.00131434
-3.01669e-05
4.08901e-06
0.00130037
-2.65028e-05
4.09238e-06
0.00128713
-2.41957e-05
4.06336e-06
0.00127373
-2.01069e-05
4.10709e-06
0.00126418
-2.03303e-05
4.05067e-06
0.00123712
1.71478e-05
4.16595e-06
7.77936e-06
4.11479e-06
0.00120475
0.00148501
-0.000511548
1.96628e-06
0.00148344
-0.000539684
2.63156e-06
0.00141275
-0.00032384
1.58807e-06
0.00133034
-0.000170921
2.33142e-06
0.00126177
-0.000102918
1.65006e-06
0.00120522
-6.79197e-05
2.15207e-06
0.00116161
-4.92897e-05
1.6545e-06
0.00112437
-3.78754e-05
1.99581e-06
0.00109476
-2.98778e-05
1.6574e-06
0.00106814
-2.48062e-05
1.88607e-06
0.00104628
-2.04056e-05
1.66759e-06
0.0010259
-1.76845e-05
1.81133e-06
0.00100872
-1.48815e-05
1.68286e-06
0.000992275
-1.32021e-05
1.76341e-06
0.000978351
-1.14295e-05
1.70409e-06
0.000964283
-9.64436e-06
1.7362e-06
0.000954704
-9.59031e-06
1.73087e-06
0.000939616
-4.79305e-06
1.724e-06
0.000951253
6.36874e-06
1.72509e-06
-9.48891e-07
1.76111e-06
0.000960335
0.00137714
-0.000504999
4.7333e-06
0.00119112
-0.000361539
5.28234e-06
0.0010204
-0.000157508
4.44806e-06
0.000902266
-6.00278e-05
4.97742e-06
0.000826832
-3.22012e-05
4.47593e-06
0.000773753
-2.16687e-05
4.78777e-06
0.00073666
-1.7083e-05
4.45037e-06
0.000706206
-1.39454e-05
4.63886e-06
0.000683228
-1.19644e-05
4.4357e-06
0.000662545
-1.04711e-05
4.53927e-06
0.00064625
-9.37413e-06
4.43052e-06
0.000630838
-8.54214e-06
4.47291e-06
0.00061833
-7.84447e-06
4.43056e-06
0.000606182
-7.30491e-06
4.42983e-06
0.000595935
-6.84718e-06
4.43514e-06
0.000586311
-6.27255e-06
4.40395e-06
0.000576659
-5.77942e-06
4.44852e-06
0.000572071
-6.45663e-06
4.38713e-06
0.000533296
3.90738e-05
4.49577e-06
2.78444e-05
4.44991e-06
0.000498081
0.000887767
1.59724e-06
0.000527374
2.06654e-06
0.000374418
1.24436e-06
0.000316071
1.77057e-06
0.000288014
1.28036e-06
0.00026836
1.58203e-06
0.000255184
1.25814e-06
0.000243508
1.43264e-06
0.000235242
1.24265e-06
0.000227195
1.3373e-06
0.000221322
1.23562e-06
0.00021529
1.27579e-06
0.000210764
1.23343e-06
0.000206012
1.23679e-06
0.000202317
1.23601e-06
0.000198612
1.21403e-06
0.000195834
1.24511e-06
0.000191943
1.20119e-06
0.000233911
1.25601e-06
1.23254e-06
0.000264208
0.00107404
0.000314131
-2.01263e-11
0.000781756
0.000293571
-2.02174e-11
0.000577036
0.000205179
-2.01408e-11
0.000468565
0.000109479
-2.02008e-11
0.000416686
5.24263e-05
-2.00613e-11
0.000391832
2.5729e-05
-2.02148e-11
0.000376457
1.59409e-05
-2.01453e-11
0.000365151
1.20512e-05
-2.03876e-11
0.000355061
1.06429e-05
-2.0342e-11
0.000346357
9.34393e-06
-2.05238e-11
0.000338359
8.52646e-06
-2.03643e-11
0.000331408
7.50988e-06
-2.04079e-11
0.000325147
6.77191e-06
-2.02309e-11
0.000319554
6.10504e-06
-2.0326e-11
0.000314792
5.27527e-06
-2.02554e-11
0.000309947
5.3415e-06
-2.04088e-11
0.00030678
3.70052e-06
-2.04058e-11
0.000301683
5.59399e-06
-2.05735e-11
0.00030248
-2.35161e-07
-2.06467e-11
3.46363e-07
-2.08564e-11
0.000302655
0.00142367
0.000281768
-2.0132e-11
0.00137967
0.00034207
-2.02337e-11
0.00128996
0.000298535
-2.01831e-11
0.00120175
0.000201874
-2.02214e-11
0.00112796
0.000129935
-2.00195e-11
0.00106978
8.79967e-05
-2.01266e-11
0.00102268
6.68489e-05
-2.00416e-11
0.000984242
5.45415e-05
-2.02441e-11
0.000951779
4.69788e-05
-2.01842e-11
0.000924395
4.07056e-05
-2.04248e-11
0.000900748
3.60244e-05
-2.04048e-11
0.000880342
3.17759e-05
-2.06017e-11
0.000862496
2.83985e-05
-2.05141e-11
0.000846637
2.57138e-05
-2.06363e-11
0.000832896
2.27499e-05
-2.05319e-11
0.000819922
2.20125e-05
-2.05854e-11
0.000809418
1.79508e-05
-2.04213e-11
0.000798181
2.05267e-05
-2.03709e-11
0.000789691