/*--------------------------------*- C++ -*----------------------------------*\
  =========                 |
  \\      /  F ield         | OpenFOAM: The Open Source CFD Toolbox
   \\    /   O peration     | Website:  https://openfoam.org
    \\  /    A nd           | Version:  7
     \\/     M anipulation  |
\*---------------------------------------------------------------------------*/
FoamFile
{
    version     2.0;
    format      ascii;
    class       volScalarField;
    location    "0.5175";
    object      p_0;
}
// * * * * * * * * * * * * * * * * * * * * * * * * * * * * * * * * * * * * * //

dimensions      [1 -1 -2 0 0 0 0];

internalField   nonuniform List<scalar> 
7920
(
101282
101265
101272
101262
101269
101261
101267
101261
101265
101261
101265
101261
101264
101262
101265
101262
101265
101264
101266
101265
101265
101251
101259
101249
101256
101248
101254
101248
101252
101248
101252
101248
101252
101249
101252
101250
101252
101251
101253
101252
101273
101260
101267
101257
101263
101255
101261
101255
101260
101255
101259
101255
101259
101256
101259
101257
101259
101258
101260
101259
101266
101254
101261
101251
101257
101250
101255
101249
101254
101249
101253
101250
101253
101250
101253
101251
101254
101252
101254
101254
101270
101258
101265
101255
101261
101254
101259
101253
101258
101253
101257
101253
101257
101254
101257
101255
101258
101256
101258
101257
101267
101256
101263
101253
101259
101252
101257
101251
101256
101251
101255
101252
101255
101252
101255
101253
101256
101254
101256
101255
101267
101256
101263
101253
101259
101252
101257
101251
101256
101251
101255
101252
101255
101252
101255
101253
101256
101254
101256
101255
101270
101258
101265
101255
101261
101254
101259
101253
101258
101253
101257
101253
101257
101254
101257
101255
101258
101256
101258
101257
101266
101254
101261
101251
101257
101250
101255
101249
101254
101249
101253
101250
101253
101250
101253
101251
101254
101252
101254
101254
101273
101260
101267
101257
101263
101255
101261
101255
101260
101255
101259
101255
101259
101256
101259
101257
101259
101258
101260
101259
101265
101251
101259
101249
101256
101248
101254
101248
101252
101248
101252
101248
101252
101249
101252
101250
101252
101251
101253
101252
101282
101265
101272
101262
101269
101261
101267
101261
101265
101261
101265
101261
101264
101262
101265
101262
101265
101264
101266
101265
101246
101248
101241
101244
101240
101242
101239
101241
101239
101241
101240
101241
101241
101242
101242
101243
101243
101244
101245
101246
101256
101260
101253
101256
101252
101254
101251
101253
101251
101253
101252
101253
101253
101253
101254
101254
101255
101256
101257
101258
101247
101250
101244
101246
101242
101244
101242
101244
101242
101243
101242
101244
101243
101244
101244
101245
101246
101247
101247
101249
101254
101257
101251
101254
101250
101252
101249
101251
101249
101250
101249
101250
101250
101251
101251
101252
101253
101254
101255
101256
101249
101252
101246
101249
101245
101247
101244
101246
101244
101246
101245
101246
101246
101247
101247
101248
101248
101249
101250
101251
101251
101255
101249
101251
101247
101249
101247
101248
101247
101248
101247
101248
101248
101249
101249
101250
101250
101251
101252
101253
101251
101255
101249
101251
101247
101249
101247
101248
101247
101248
101247
101248
101248
101249
101249
101250
101250
101251
101252
101253
101249
101252
101246
101249
101245
101247
101244
101246
101244
101246
101245
101246
101246
101247
101247
101248
101248
101249
101250
101251
101254
101257
101251
101254
101250
101252
101249
101251
101249
101250
101249
101250
101250
101251
101251
101252
101253
101254
101255
101256
101247
101250
101244
101246
101242
101244
101242
101244
101242
101243
101242
101244
101243
101244
101244
101245
101246
101247
101247
101249
101256
101260
101253
101256
101252
101254
101251
101253
101251
101253
101252
101253
101253
101253
101254
101254
101255
101256
101257
101258
101246
101248
101241
101244
101240
101242
101239
101241
101239
101241
101240
101241
101241
101242
101242
101243
101243
101244
101245
101246
101236
101235
101234
101233
101233
101232
101232
101232
101231
101232
101232
101232
101233
101233
101233
101234
101235
101236
101236
101237
101236
101235
101234
101233
101233
101232
101232
101232
101231
101232
101232
101232
101233
101233
101234
101234
101235
101236
101236
101237
101236
101235
101234
101233
101233
101232
101232
101232
101231
101232
101232
101232
101233
101233
101234
101234
101235
101236
101236
101237
101235
101235
101234
101233
101233
101232
101232
101232
101232
101232
101232
101232
101233
101233
101234
101234
101235
101236
101236
101237
101235
101234
101234
101233
101233
101232
101232
101232
101231
101232
101232
101232
101232
101233
101233
101234
101235
101236
101236
101237
101235
101234
101234
101233
101233
101232
101232
101232
101232
101232
101232
101232
101233
101233
101234
101234
101235
101236
101236
101237
101235
101234
101234
101233
101233
101232
101232
101232
101232
101232
101232
101232
101233
101233
101234
101234
101235
101236
101236
101237
101235
101234
101234
101233
101233
101232
101232
101232
101231
101232
101232
101232
101232
101233
101233
101234
101235
101236
101236
101237
101235
101235
101234
101233
101233
101232
101232
101232
101232
101232
101232
101232
101233
101233
101234
101234
101235
101236
101236
101237
101236
101235
101234
101233
101233
101232
101232
101232
101231
101232
101232
101232
101233
101233
101234
101234
101235
101236
101236
101237
101236
101235
101234
101233
101233
101232
101232
101232
101231
101232
101232
101232
101233
101233
101234
101234
101235
101236
101236
101237
101236
101235
101234
101233
101233
101232
101232
101232
101231
101232
101232
101232
101233
101233
101233
101234
101235
101236
101236
101237
101236
101235
101234
101233
101233
101232
101232
101232
101231
101232
101232
101232
101233
101233
101233
101234
101235
101236
101236
101237
101236
101235
101234
101233
101233
101232
101232
101232
101231
101232
101232
101232
101233
101233
101234
101234
101235
101236
101236
101237
101236
101235
101234
101233
101233
101232
101232
101232
101231
101232
101232
101232
101233
101233
101234
101234
101235
101236
101236
101237
101235
101235
101234
101233
101233
101232
101232
101232
101232
101232
101232
101232
101233
101233
101234
101234
101235
101236
101236
101237
101235
101234
101234
101233
101233
101232
101232
101232
101231
101232
101232
101232
101232
101233
101233
101234
101235
101236
101236
101237
101235
101234
101234
101233
101233
101232
101232
101232
101232
101232
101232
101232
101233
101233
101234
101234
101235
101236
101236
101237
101235
101234
101234
101233
101233
101232
101232
101232
101232
101232
101232
101232
101233
101233
101234
101234
101235
101236
101236
101237
101235
101234
101234
101233
101233
101232
101232
101232
101231
101232
101232
101232
101232
101233
101233
101234
101235
101236
101236
101237
101235
101235
101234
101233
101233
101232
101232
101232
101232
101232
101232
101232
101233
101233
101234
101234
101235
101236
101236
101237
101236
101235
101234
101233
101233
101232
101232
101232
101231
101232
101232
101232
101233
101233
101234
101234
101235
101236
101236
101237
101236
101235
101234
101233
101233
101232
101232
101232
101231
101232
101232
101232
101233
101233
101234
101234
101235
101236
101236
101237
101236
101235
101234
101233
101233
101232
101232
101232
101231
101232
101232
101232
101233
101233
101233
101234
101235
101236
101236
101237
101246
101248
101241
101244
101240
101242
101239
101241
101239
101241
101240
101241
101241
101242
101242
101243
101243
101244
101245
101246
101256
101260
101253
101256
101252
101254
101251
101253
101251
101253
101252
101253
101253
101253
101254
101254
101255
101256
101257
101258
101247
101250
101244
101246
101242
101244
101242
101244
101242
101243
101242
101244
101243
101244
101244
101245
101246
101247
101247
101249
101254
101257
101251
101254
101250
101252
101249
101251
101249
101250
101249
101250
101250
101251
101251
101252
101253
101254
101255
101256
101249
101252
101246
101249
101245
101247
101244
101246
101244
101246
101245
101246
101246
101247
101247
101248
101248
101249
101250
101251
101251
101255
101249
101251
101247
101249
101247
101248
101247
101248
101247
101248
101248
101249
101249
101250
101250
101251
101252
101253
101251
101255
101249
101251
101247
101249
101247
101248
101247
101248
101247
101248
101248
101249
101249
101250
101250
101251
101252
101253
101249
101252
101246
101249
101245
101247
101244
101246
101244
101246
101245
101246
101246
101247
101247
101248
101248
101249
101250
101251
101254
101257
101251
101254
101250
101252
101249
101251
101249
101250
101249
101250
101250
101251
101251
101252
101253
101254
101255
101256
101247
101250
101244
101246
101242
101244
101242
101244
101242
101243
101242
101244
101243
101244
101244
101245
101246
101247
101247
101249
101256
101260
101253
101256
101252
101254
101251
101253
101251
101253
101252
101253
101253
101253
101254
101254
101255
101256
101257
101258
101246
101248
101241
101244
101240
101242
101239
101241
101239
101241
101240
101241
101241
101242
101242
101243
101243
101244
101245
101246
101282
101265
101272
101262
101269
101261
101267
101261
101265
101261
101265
101261
101264
101262
101265
101262
101265
101264
101266
101265
101265
101251
101259
101249
101256
101248
101254
101248
101252
101248
101252
101248
101252
101249
101252
101250
101252
101251
101253
101252
101273
101260
101267
101257
101263
101255
101261
101255
101260
101255
101259
101255
101259
101256
101259
101257
101259
101258
101260
101259
101266
101254
101261
101251
101257
101250
101255
101249
101254
101249
101253
101250
101253
101250
101253
101251
101254
101252
101254
101254
101270
101258
101265
101255
101261
101254
101259
101253
101258
101253
101257
101253
101257
101254
101257
101255
101258
101256
101258
101257
101267
101256
101263
101253
101259
101252
101257
101251
101256
101251
101255
101252
101255
101252
101255
101253
101256
101254
101256
101255
101267
101256
101263
101253
101259
101252
101257
101251
101256
101251
101255
101252
101255
101252
101255
101253
101256
101254
101256
101255
101270
101258
101265
101255
101261
101254
101259
101253
101258
101253
101257
101253
101257
101254
101257
101255
101258
101256
101258
101257
101266
101254
101261
101251
101257
101250
101255
101249
101254
101249
101253
101250
101253
101250
101253
101251
101254
101252
101254
101254
101273
101260
101267
101257
101263
101255
101261
101255
101260
101255
101259
101255
101259
101256
101259
101257
101259
101258
101260
101259
101265
101251
101259
101249
101256
101248
101254
101248
101252
101248
101252
101248
101252
101249
101252
101250
101252
101251
101253
101252
101282
101265
101272
101262
101269
101261
101267
101261
101265
101261
101265
101261
101264
101262
101265
101262
101265
101264
101266
101265
101288
101278
101283
101273
101276
101265
101265
101253
101249
101234
101227
101210
101199
101181
101168
101149
101136
101117
101103
101084
101071
101053
101039
101021
101006
100988
100973
100955
100939
100921
100905
100888
100873
100855
100841
100824
100810
100794
100780
100764
100749
100733
100718
100702
100688
100672
100658
100643
100629
100614
100600
100585
100571
100556
100542
100527
100513
100499
100485
100471
100457
100443
100429
100415
100401
100387
100373
100359
100345
100331
100317
100303
100290
100276
100262
100248
100234
100220
100206
100192
100178
100164
100151
100137
100123
100108
100094
100080
100065
100052
101254
101242
101247
101237
101240
101229
101229
101217
101213
101198
101190
101173
101163
101144
101132
101113
101099
101080
101066
101048
101034
101016
101002
100984
100970
100952
100937
100918
100903
100884
100869
100851
100836
100819
100805
100788
100774
100758
100744
100728
100713
100697
100682
100666
100651
100636
100622
100607
100593
100578
100564
100549
100535
100520
100506
100491
100477
100462
100449
100434
100421
100407
100393
100379
100365
100351
100337
100323
100309
100295
100281
100267
100254
100240
100226
100212
100198
100184
100170
100156
100142
100128
100115
100101
100087
100072
100058
100044
100029
100016
101273
101263
101268
101258
101260
101250
101249
101237
101233
101219
101211
101194
101184
101165
101153
101134
101120
101101
101087
101069
101055
101037
101023
101005
100991
100973
100958
100939
100924
100905
100890
100872
100857
100840
100826
100809
100795
100779
100765
100748
100734
100717
100703
100687
100672
100656
100643
100627
100614
100599
100585
100570
100556
100541
100527
100512
100498
100483
100470
100455
100442
100427
100414
100399
100386
100371
100358
100343
100330
100315
100302
100288
100275
100261
100247
100233
100219
100204
100190
100177
100163
100149
100135
100121
100107
100093
100079
100065
100050
100037
101258
101246
101251
101241
101244
101233
101233
101221
101217
101202
101195
101178
101167
101149
101136
101117
101104
101085
101071
101052
101039
101021
101007
100989
100974
100956
100941
100923
100907
100889
100873
100856
100841
100823
100809
100793
100779
100762
100748
100732
100718
100701
100686
100670
100656
100640
100626
100611
100597
100582
100569
100553
100539
100524
100510
100495
100481
100467
100453
100439
100425
100411
100397
100383
100369
100355
100341
100327
100313
100299
100285
100272
100258
100244
100230
100216
100202
100188
100174
100160
100146
100133
100119
100105
100091
100077
100062
100048
100034
100020
101268
101257
101262
101252
101255
101244
101244
101232
101228
101213
101206
101189
101178
101160
101147
101128
101115
101096
101082
101063
101050
101031
101018
101000
100985
100967
100952
100934
100918
100900
100884
100866
100852
100834
100820
100804
100790
100773
100759
100743
100728
100712
100697
100681
100667
100651
100637
100622
100608
100593
100579
100564
100550
100535
100521
100506
100492
100478
100464
100450
100436
100422
100408
100394
100380
100366
100352
100338
100324
100310
100296
100282
100269
100255
100241
100227
100213
100199
100185
100171
100157
100143
100130
100116
100102
100088
100073
100059
100045
100031
101263
101252
101257
101247
101249
101239
101238
101226
101222
101208
101200
101183
101173
101154
101142
101123
101109
101090
101076
101058
101044
101026
101012
100994
100980
100962
100947
100928
100913
100894
100879
100861
100846
100829
100815
100798
100784
100768
100754
100737
100723
100706
100692
100675
100661
100645
100631
100616
100603
100588
100574
100559
100545
100530
100516
100501
100487
100472
100459
100444
100431
100416
100403
100388
100375
100360
100347
100332
100318
100304
100291
100277
100264
100250
100236
100222
100207
100193
100179
100165
100152
100138
100124
100110
100096
100082
100068
100054
100039
100026
101263
101252
101257
101247
101250
101239
101239
101227
101223
101208
101200
101184
101173
101154
101142
101123
101109
101090
101077
101058
101044
101026
101012
100994
100980
100962
100947
100928
100913
100895
100879
100861
100846
100829
100815
100798
100784
100768
100754
100738
100723
100707
100692
100676
100661
100646
100632
100617
100603
100588
100574
100559
100545
100530
100516
100501
100487
100473
100459
100444
100431
100417
100403
100389
100375
100361
100347
100333
100319
100305
100291
100277
100264
100250
100236
100222
100208
100194
100180
100166
100152
100138
100125
100111
100097
100082
100068
100054
100040
100026
101268
101257
101262
101252
101254
101244
101244
101231
101227
101213
101205
101188
101178
101159
101147
101128
101114
101095
101081
101063
101049
101031
101017
100999
100985
100967
100952
100933
100918
100899
100884
100866
100851
100834
100820
100803
100789
100773
100759
100743
100728
100712
100697
100681
100666
100651
100637
100622
100608
100593
100579
100564
100550
100535
100521
100506
100492
100477
100464
100449
100436
100421
100408
100394
100380
100366
100352
100338
100324
100310
100296
100282
100269
100255
100241
100227
100213
100199
100185
100171
100157
100143
100130
100116
100102
100087
100073
100059
100044
100031
101258
101247
101252
101241
101244
101234
101233
101221
101217
101203
101195
101178
101167
101149
101137
101117
101104
101085
101071
101053
101039
101021
101007
100989
100975
100956
100941
100923
100908
100889
100874
100856
100841
100824
100809
100793
100779
100763
100749
100732
100718
100701
100687
100670
100656
100640
100626
100611
100598
100583
100569
100554
100540
100525
100511
100496
100482
100467
100453
100439
100426
100411
100398
100383
100370
100355
100341
100327
100313
100299
100286
100272
100258
100244
100231
100217
100202
100188
100174
100160
100147
100133
100119
100105
100091
100077
100063
100049
100034
100021
101273
101262
101267
101257
101260
101250
101249
101237
101233
101218
101211
101194
101183
101165
101152
101133
101120
101101
101087
101068
101055
101037
101023
101005
100991
100972
100957
100939
100923
100905
100890
100872
100857
100840
100825
100809
100795
100779
100764
100748
100734
100717
100703
100686
100672
100656
100642
100627
100614
100599
100585
100570
100556
100540
100526
100512
100498
100483
100469
100455
100441
100427
100414
100399
100386
100371
100357
100343
100329
100315
100302
100288
100274
100260
100247
100232
100218
100204
100190
100176
100162
100149
100135
100121
100107
100093
100078
100064
100050
100036
101254
101242
101247
101237
101240
101229
101229
101217
101213
101198
101191
101174
101163
101145
101132
101113
101100
101081
101067
101048
101035
101017
101003
100985
100970
100952
100937
100919
100903
100885
100870
100852
100837
100819
100805
100789
100775
100758
100744
100728
100714
100697
100682
100666
100652
100636
100622
100607
100593
100578
100565
100549
100535
100520
100506
100491
100477
100463
100449
100435
100421
100407
100393
100379
100365
100351
100337
100323
100309
100295
100281
100268
100254
100240
100226
100212
100198
100184
100170
100156
100142
100129
100115
100101
100087
100073
100058
100044
100030
100016
101288
101278
101283
101273
101276
101265
101265
101253
101248
101234
101226
101209
101199
101180
101168
101149
101135
101116
101102
101084
101070
101052
101038
101020
101006
100988
100973
100954
100939
100920
100905
100887
100872
100855
100841
100824
100810
100794
100780
100763
100749
100732
100718
100702
100687
100671
100658
100642
100629
100614
100600
100585
100571
100556
100542
100527
100513
100498
100485
100470
100457
100442
100429
100414
100401
100386
100372
100358
100344
100330
100317
100303
100289
100275
100262
100247
100233
100219
100205
100191
100178
100164
100150
100136
100122
100108
100094
100079
100065
100051
101232
101226
101230
101224
101226
101218
101217
101207
101203
101190
101182
101166
101156
101138
101125
101107
101093
101075
101061
101043
101029
101011
100998
100980
100966
100948
100933
100914
100899
100880
100865
100847
100833
100815
100801
100785
100771
100754
100740
100724
100710
100693
100679
100662
100648
100632
100618
100603
100590
100575
100561
100546
100532
100517
100503
100488
100474
100459
100446
100431
100418
100403
100390
100376
100362
100348
100334
100319
100306
100292
100278
100264
100251
100237
100223
100209
100195
100181
100166
100153
100139
100125
100111
100097
100083
100069
100054
100040
100025
100012
101265
101260
101264
101258
101260
101252
101252
101241
101237
101224
101216
101200
101190
101172
101160
101141
101128
101109
101095
101077
101063
101046
101032
101014
101000
100982
100967
100948
100933
100915
100899
100881
100867
100849
100835
100819
100805
100788
100774
100758
100744
100727
100712
100696
100682
100666
100652
100637
100624
100609
100595
100580
100566
100551
100537
100522
100508
100493
100479
100465
100452
100437
100424
100409
100396
100381
100367
100353
100339
100325
100312
100298
100284
100270
100257
100242
100228
100214
100200
100186
100172
100159
100145
100131
100117
100103
100088
100074
100059
100045
101240
101234
101238
101232
101234
101226
101225
101215
101211
101198
101190
101174
101163
101146
101133
101115
101101
101083
101069
101051
101037
101019
101005
100988
100973
100955
100940
100922
100907
100888
100873
100855
100840
100823
100809
100792
100778
100762
100748
100732
100717
100701
100686
100670
100656
100640
100626
100611
100597
100582
100569
100554
100540
100524
100510
100495
100482
100467
100453
100439
100425
100411
100398
100383
100370
100355
100341
100327
100313
100299
100286
100272
100258
100244
100231
100216
100202
100188
100174
100160
100146
100133
100119
100105
100091
100077
100062
100048
100033
100019
101258
101253
101257
101251
101253
101246
101245
101235
101230
101217
101210
101194
101183
101165
101153
101134
101121
101102
101088
101070
101057
101039
101025
101007
100993
100975
100960
100941
100926
100908
100893
100875
100860
100843
100828
100812
100798
100782
100768
100751
100737
100720
100706
100690
100675
100660
100646
100631
100617
100602
100588
100573
100559
100544
100530
100515
100501
100486
100473
100458
100445
100431
100417
100403
100389
100375
100361
100347
100333
100319
100305
100291
100278
100264
100250
100236
100222
100208
100194
100180
100166
100152
100138
100124
100110
100096
100081
100067
100052
100039
101246
101241
101244
101238
101240
101232
101232
101222
101217
101204
101196
101181
101170
101152
101140
101121
101108
101089
101075
101057
101044
101026
101012
100994
100980
100962
100947
100928
100913
100895
100880
100862
100847
100830
100815
100799
100785
100769
100755
100738
100724
100708
100693
100677
100662
100647
100633
100618
100604
100589
100575
100560
100546
100531
100517
100502
100488
100474
100460
100445
100432
100418
100404
100390
100376
100362
100348
100334
100320
100306
100292
100278
100265
100251
100237
100223
100209
100195
100181
100167
100153
100139
100126
100112
100097
100083
100068
100054
100040
100026
101252
101247
101251
101245
101247
101239
101238
101228
101224
101211
101203
101187
101177
101159
101146
101128
101114
101096
101082
101064
101050
101032
101019
101001
100987
100968
100954
100935
100920
100901
100886
100868
100853
100836
100822
100805
100792
100775
100761
100745
100731
100714
100699
100683
100669
100653
100639
100624
100611
100596
100582
100567
100553
100538
100523
100509
100495
100480
100466
100452
100438
100424
100411
100396
100383
100368
100354
100340
100326
100312
100299
100285
100271
100257
100244
100230
100215
100201
100187
100173
100159
100146
100132
100118
100104
100090
100075
100061
100046
100032
101252
101247
101250
101244
101247
101239
101238
101228
101224
101210
101203
101187
101176
101159
101146
101128
101114
101095
101082
101064
101050
101032
101018
101001
100986
100968
100953
100935
100919
100901
100886
100868
100853
100836
100822
100805
100791
100775
100761
100745
100730
100714
100699
100683
100668
100653
100639
100624
100610
100595
100581
100566
100552
100537
100523
100508
100494
100480
100466
100452
100438
100424
100410
100396
100382
100368
100354
100340
100326
100312
100298
100285
100271
100257
100243
100229
100215
100201
100187
100173
100159
100145
100132
100118
100104
100089
100075
100061
100046
100032
101246
101241
101244
101238
101240
101233
101232
101222
101218
101204
101197
101181
101170
101153
101140
101122
101108
101089
101076
101058
101044
101026
101012
100995
100980
100962
100947
100929
100913
100895
100880
100862
100847
100830
100816
100799
100785
100769
100755
100739
100724
100708
100693
100677
100662
100647
100633
100618
100604
100589
100575
100560
100546
100531
100517
100502
100488
100474
100460
100446
100432
100418
100404
100390
100376
100362
100348
100334
100320
100306
100293
100279
100265
100251
100237
100223
100209
100195
100181
100167
100153
100140
100126
100112
100098
100083
100069
100055
100040
100026
101258
101253
101257
101251
101253
101245
101244
101234
101230
101217
101209
101193
101183
101165
101152
101134
101120
101102
101088
101070
101056
101038
101025
101007
100993
100975
100960
100941
100926
100907
100892
100874
100859
100842
100828
100812
100798
100781
100767
100751
100737
100720
100705
100689
100675
100659
100645
100630
100617
100602
100588
100573
100559
100544
100530
100515
100501
100486
100472
100458
100445
100430
100417
100402
100389
100374
100360
100346
100332
100318
100305
100291
100277
100263
100250
100236
100221
100207
100193
100179
100165
100152
100138
100124
100110
100096
100081
100067
100052
100038
101240
101234
101238
101232
101234
101226
101225
101215
101211
101198
101190
101174
101164
101146
101133
101115
101101
101083
101069
101051
101037
101019
101006
100988
100974
100956
100941
100922
100907
100889
100873
100855
100841
100823
100809
100793
100779
100762
100748
100732
100718
100701
100687
100670
100656
100640
100626
100611
100598
100583
100569
100554
100540
100525
100511
100496
100482
100467
100454
100439
100426
100411
100398
100384
100370
100356
100342
100327
100314
100300
100286
100272
100259
100245
100231
100217
100203
100188
100174
100161
100147
100133
100119
100105
100091
100077
100062
100048
100033
100020
101265
101260
101263
101258
101260
101252
101251
101241
101237
101224
101216
101200
101189
101172
101159
101141
101127
101108
101095
101077
101063
101045
101031
101014
100999
100981
100966
100948
100932
100914
100899
100881
100866
100849
100835
100818
100804
100788
100774
100758
100743
100727
100712
100696
100681
100666
100652
100637
100623
100608
100594
100579
100565
100550
100536
100521
100507
100493
100479
100465
100451
100437
100423
100409
100395
100381
100367
100353
100339
100325
100311
100297
100284
100270
100256
100242
100228
100214
100200
100186
100172
100158
100145
100131
100116
100102
100088
100074
100059
100045
101232
101226
101230
101224
101226
101218
101218
101207
101203
101190
101182
101167
101156
101138
101126
101107
101094
101075
101061
101043
101029
101012
100998
100980
100966
100948
100933
100914
100899
100881
100865
100848
100833
100816
100801
100785
100771
100755
100741
100724
100710
100693
100679
100663
100648
100632
100619
100603
100590
100575
100561
100546
100532
100517
100503
100488
100474
100459
100446
100431
100418
100404
100390
100376
100362
100348
100334
100320
100306
100292
100278
100264
100251
100237
100223
100209
100195
100181
100167
100153
100139
100125
100111
100098
100083
100069
100054
100040
100026
100012
101238
101235
101237
101233
101234
101229
101227
101219
101214
101202
101194
101179
101169
101152
101139
101121
101108
101090
101076
101058
101045
101027
101013
100996
100982
100964
100949
100930
100915
100897
100882
100864
100849
100832
100818
100801
100787
100771
100757
100741
100726
100710
100695
100679
100665
100649
100635
100620
100607
100592
100578
100563
100549
100534
100520
100505
100491
100476
100463
100448
100435
100420
100407
100393
100379
100365
100351
100337
100323
100309
100295
100281
100268
100254
100240
100226
100212
100198
100183
100170
100156
100142
100128
100114
100100
100086
100071
100057
100043
100029
101238
101235
101237
101233
101234
101229
101227
101219
101214
101202
101194
101179
101169
101152
101139
101121
101108
101090
101076
101058
101045
101027
101013
100996
100982
100964
100949
100930
100915
100897
100882
100864
100849
100832
100818
100801
100787
100771
100757
100741
100726
100710
100695
100679
100665
100649
100635
100620
100607
100592
100578
100563
100549
100534
100520
100505
100491
100476
100463
100448
100435
100420
100407
100393
100379
100365
100351
100337
100323
100309
100295
100281
100268
100254
100240
100226
100212
100198
100183
100170
100156
100142
100128
100114
100100
100086
100071
100057
100043
100029
101238
101235
101237
101233
101234
101229
101227
101219
101214
101202
101194
101179
101169
101152
101139
101121
101108
101090
101076
101058
101045
101027
101013
100996
100982
100964
100949
100930
100915
100897
100882
100864
100849
100832
100818
100801
100787
100771
100757
100741
100726
100710
100695
100679
100665
100649
100635
100620
100607
100592
100578
100563
100549
100534
100520
100505
100491
100476
100463
100448
100435
100420
100407
100393
100379
100365
100351
100336
100323
100309
100295
100281
100268
100254
100240
100226
100212
100198
100183
100170
100156
100142
100128
100114
100100
100086
100071
100057
100043
100029
101238
101235
101237
101233
101234
101229
101227
101219
101214
101202
101194
101179
101169
101152
101139
101121
101108
101090
101076
101058
101045
101027
101013
100996
100982
100964
100949
100930
100915
100897
100882
100864
100849
100832
100818
100801
100787
100771
100757
100741
100726
100710
100695
100679
100665
100649
100635
100620
100607
100592
100578
100563
100549
100534
100520
100505
100491
100476
100463
100448
100435
100420
100407
100393
100379
100365
100351
100337
100323
100309
100295
100281
100268
100254
100240
100226
100212
100198
100183
100170
100156
100142
100128
100114
100100
100086
100071
100057
100043
100029
101238
101235
101237
101233
101234
101229
101227
101219
101214
101202
101194
101179
101169
101152
101139
101121
101108
101090
101076
101058
101045
101027
101013
100996
100982
100964
100949
100930
100915
100897
100882
100864
100849
100832
100818
100801
100787
100771
100757
100741
100726
100710
100695
100679
100665
100649
100635
100620
100607
100592
100578
100563
100549
100534
100520
100505
100491
100476
100463
100448
100435
100420
100407
100393
100379
100365
100351
100336
100323
100309
100295
100281
100268
100254
100240
100226
100212
100198
100183
100170
100156
100142
100128
100114
100100
100086
100071
100057
100043
100029
101238
101235
101237
101233
101234
101229
101227
101219
101214
101202
101194
101179
101169
101152
101139
101121
101108
101090
101076
101058
101045
101027
101013
100996
100982
100964
100949
100930
100915
100897
100882
100864
100849
100832
100818
100801
100787
100771
100757
100741
100726
100710
100695
100679
100665
100649
100635
100620
100607
100592
100578
100563
100549
100534
100520
100505
100491
100476
100463
100448
100435
100420
100407
100393
100379
100365
100351
100336
100323
100309
100295
100281
100268
100254
100240
100226
100212
100198
100183
100170
100156
100142
100128
100114
100100
100086
100071
100057
100043
100029
101238
101235
101237
101233
101234
101229
101227
101219
101214
101202
101194
101179
101169
101152
101139
101121
101108
101090
101076
101058
101045
101027
101013
100996
100982
100964
100949
100930
100915
100897
100882
100864
100849
100832
100818
100801
100787
100771
100757
100741
100726
100710
100695
100679
100665
100649