/*--------------------------------*- C++ -*----------------------------------*\
  =========                 |
  \\      /  F ield         | OpenFOAM: The Open Source CFD Toolbox
   \\    /   O peration     | Website:  https://openfoam.org
    \\  /    A nd           | Version:  7
     \\/     M anipulation  |
\*---------------------------------------------------------------------------*/
FoamFile
{
    version     2.0;
    format      ascii;
    class       volVectorField;
    location    "0.05";
    object      UMean;
}
// * * * * * * * * * * * * * * * * * * * * * * * * * * * * * * * * * * * * * //

dimensions      [0 1 -1 0 0 0 0];

internalField   nonuniform List<vector> 
1440
(
(9.83383 0.0303955 0)
(9.77915 0.111467 0)
(9.63618 0.183723 0)
(9.41236 0.239606 0)
(9.13613 0.278267 0)
(8.82962 0.299983 0)
(8.5068 0.306503 0)
(8.17656 0.300544 0)
(7.84696 0.285531 0)
(7.52399 0.264058 0)
(7.21448 0.238876 0)
(6.92066 0.212264 0)
(6.64548 0.185091 0)
(6.39057 0.158607 0)
(6.15636 0.133731 0)
(5.94276 0.110985 0)
(5.74926 0.0906335 0)
(5.57507 0.0727422 0)
(5.41912 0.0572504 0)
(5.28018 0.0440263 0)
(5.15695 0.0329014 0)
(5.0481 0.0236312 0)
(4.95226 0.0159212 0)
(4.86809 0.00952224 0)
(4.79433 0.00424408 0)
(4.72979 -5.96182e-05 0)
(4.6734 -0.00350992 0)
(4.62417 -0.00621222 0)
(4.58119 -0.00826754 0)
(4.54364 -0.00977017 0)
(4.5108 -0.0108183 0)
(4.482 -0.0115026 0)
(4.45667 -0.0118906 0)
(4.43431 -0.0120321 0)
(4.41449 -0.0119701 0)
(4.39683 -0.0117438 0)
(4.38102 -0.0113878 0)
(4.36678 -0.0109288 0)
(4.35387 -0.0103861 0)
(4.3421 -0.00978203 0)
(4.33129 -0.00913887 0)
(4.32129 -0.0084751 0)
(4.31199 -0.00780541 0)
(4.30327 -0.00714066 0)
(4.29504 -0.0064876 0)
(4.28723 -0.00584972 0)
(4.27978 -0.00522945 0)
(4.27263 -0.00463056 0)
(4.26575 -0.004058 0)
(4.25911 -0.00351722 0)
(4.25266 -0.00301231 0)
(4.2464 -0.0025447 0)
(4.24031 -0.0021131 0)
(4.23437 -0.00171438 0)
(4.22858 -0.00134513 0)
(4.22292 -0.00100216 0)
(4.21739 -0.000682949 0)
(4.21198 -0.000385572 0)
(4.20669 -0.000108605 0)
(4.20152 0.000148858 0)
(4.19645 0.000388042 0)
(4.19149 0.000610137 0)
(4.18663 0.000816332 0)
(4.18186 0.00100777 0)
(4.1772 0.00118552 0)
(4.17262 0.00135035 0)
(4.16814 0.00150296 0)
(4.16374 0.00164391 0)
(4.15943 0.0017736 0)
(4.1552 0.0018925 0)
(4.15105 0.00200091 0)
(4.14699 0.00209925 0)
(4.143 0.00218802 0)
(4.13909 0.0022677 0)
(4.13526 0.0023388 0)
(4.13151 0.00240178 0)
(4.12783 0.00245714 0)
(4.12422 0.0025055 0)
(4.12069 0.00254742 0)
(4.11723 0.00258335 0)
(4.11385 0.0026139 0)
(4.11053 0.00263945 0)
(4.10729 0.00266047 0)
(4.10411 0.00267745 0)
(4.101 0.00269071 0)
(4.09795 0.00270062 0)
(4.09497 0.00270751 0)
(4.09205 0.00271158 0)
(4.0892 0.0027131 0)
(4.0864 0.00271229 0)
(4.08365 0.00270933 0)
(4.08096 0.00270443 0)
(4.07832 0.00269777 0)
(4.07573 0.0026896 0)
(4.07319 0.00268016 0)
(4.07069 0.00266962 0)
(4.06823 0.00265841 0)
(4.06581 0.00264672 0)
(4.06342 0.00263485 0)
(4.06107 0.00262281 0)
(4.05875 0.00261098 0)
(4.05645 0.00259934 0)
(4.05418 0.0025885 0)
(4.05192 0.00257815 0)
(4.04969 0.00256929 0)
(4.04747 0.00256061 0)
(4.04525 0.00255436 0)
(4.04306 0.00254685 0)
(4.04087 0.00254331 0)
(4.0387 0.00253575 0)
(4.03652 0.00253427 0)
(4.03437 0.00252478 0)
(4.03221 0.00252399 0)
(4.0301 0.00251056 0)
(4.02795 0.00250369 0)
(4.02588 0.00248994 0)
(4.02381 0.00245168 0)
(4.02172 0.00244904 0)
(4.01993 0.00233104 0)
(4.01698 0.002274 0)
(9.85127 0.0409257 0)
(9.90378 0.112456 0)
(9.96796 0.172748 0)
(10.0334 0.224342 0)
(10.1007 0.268203 0)
(10.1671 0.303586 0)
(10.2275 0.329968 0)
(10.2764 0.347721 0)
(10.3113 0.357876 0)
(10.3313 0.361478 0)
(10.3375 0.359488 0)
(10.3311 0.352833 0)
(10.3139 0.342312 0)
(10.2876 0.328698 0)
(10.254 0.312771 0)
(10.2145 0.295257 0)
(10.1707 0.276802 0)
(10.1237 0.257943 0)
(10.0747 0.23913 0)
(10.0246 0.220719 0)
(9.97409 0.202983 0)
(9.92379 0.186112 0)
(9.87409 0.170209 0)
(9.82535 0.155333 0)
(9.77784 0.141523 0)
(9.73173 0.128793 0)
(9.68714 0.117136 0)
(9.64414 0.106529 0)
(9.60275 0.0969272 0)
(9.56297 0.0882728 0)
(9.52477 0.0804969 0)
(9.48812 0.0735258 0)
(9.45296 0.0672869 0)
(9.41925 0.0617106 0)
(9.38693 0.0567304 0)
(9.35593 0.0522838 0)
(9.32619 0.0483127 0)
(9.29766 0.0447647 0)
(9.27028 0.0415927 0)
(9.24401 0.0387542 0)
(9.21879 0.0362109 0)
(9.19458 0.0339291 0)
(9.17135 0.0318786 0)
(9.14905 0.0300329 0)
(9.12765 0.028368 0)
(9.1071 0.0268634 0)
(9.08739 0.0255007 0)
(9.06846 0.0242639 0)
(9.0503 0.0231385 0)
(9.03287 0.0221113 0)
(9.01614 0.0211699 0)
(9.00009 0.0203029 0)
(8.98469 0.0195004 0)
(8.96992 0.0187536 0)
(8.95575 0.0180558 0)
(8.94217 0.0174014 0)
(8.92915 0.0167861 0)
(8.91668 0.0162062 0)
(8.90473 0.0156591 0)
(8.8933 0.0151422 0)
(8.88237 0.0146535 0)
(8.87191 0.0141908 0)
(8.86192 0.0137526 0)
(8.85238 0.013337 0)
(8.84327 0.0129424 0)
(8.83457 0.0125674 0)
(8.82628 0.012211 0)
(8.81837 0.0118721 0)
(8.81083 0.0115499 0)
(8.80364 0.0112434 0)
(8.79679 0.0109516 0)
(8.79027 0.0106738 0)
(8.78407 0.010409 0)
(8.77816 0.0101563 0)
(8.77254 0.00991497 0)
(8.7672 0.00968418 0)
(8.76212 0.00946328 0)
(8.7573 0.0092517 0)
(8.75272 0.00904898 0)
(8.74837 0.00885469 0)
(8.74425 0.00866853 0)
(8.74034 0.00849026 0)
(8.73664 0.00831971 0)
(8.73313 0.00815673 0)
(8.72981 0.0080012 0)
(8.72667 0.00785305 0)
(8.7237 0.00771226 0)
(8.72089 0.00757881 0)
(8.71824 0.00745272 0)
(8.71573 0.00733398 0)
(8.71336 0.00722263 0)
(8.71111 0.00711867 0)
(8.70899 0.0070221 0)
(8.70698 0.00693274 0)
(8.70508 0.00685047 0)
(8.70328 0.0067751 0)
(8.70157 0.00670686 0)
(8.69994 0.00664582 0)
(8.69839 0.00659229 0)
(8.6969 0.00654587 0)
(8.69548 0.00650668 0)
(8.69411 0.00647364 0)
(8.69279 0.0064471 0)
(8.69151 0.00642507 0)
(8.69025 0.00640877 0)
(8.68904 0.00639466 0)
(8.68783 0.00638584 0)
(8.68665 0.00637607 0)
(8.68547 0.00637151 0)
(8.68432 0.00636115 0)
(8.68314 0.00635646 0)
(8.68203 0.00634024 0)
(8.68085 0.00633097 0)
(8.67978 0.00630404 0)
(8.67858 0.0062854 0)
(8.67757 0.00623823 0)
(8.67637 0.0062064 0)
(8.67541 0.00611158 0)
(8.67427 0.00607408 0)
(8.67287 0.00585156 0)
(9.85021 0.0240211 0)
(9.88792 0.070013 0)
(9.9304 0.112126 0)
(9.9749 0.149576 0)
(10.0286 0.182122 0)
(10.0937 0.209408 0)
(10.1687 0.231051 0)
(10.2496 0.246951 0)
(10.3333 0.257379 0)
(10.4171 0.262801 0)
(10.4991 0.263733 0)
(10.5781 0.260751 0)
(10.653 0.25442 0)
(10.7229 0.245334 0)
(10.7873 0.234131 0)
(10.846 0.22145 0)
(10.8989 0.207873 0)
(10.9461 0.193888 0)
(10.988 0.179894 0)
(11.0249 0.166203 0)
(11.0571 0.153045 0)
(11.085 0.140596 0)
(11.109 0.12898 0)
(11.1296 0.118268 0)
(11.1471 0.108486 0)
(11.1619 0.0996247 0)
(11.1742 0.0916557 0)
(11.1844 0.084532 0)
(11.1927 0.0781974 0)
(11.1995 0.0725874 0)
(11.2047 0.0676357 0)
(11.2088 0.0632757 0)
(11.2118 0.0594401 0)
(11.2139 0.0560639 0)
(11.2152 0.0530876 0)
(11.2158 0.0504574 0)
(11.2158 0.0481248 0)
(11.2153 0.0460463 0)
(11.2144 0.0441837 0)
(11.2131 0.0425063 0)
(11.2114 0.0409883 0)
(11.2094 0.0396065 0)
(11.2072 0.0383395 0)
(11.2048 0.0371688 0)
(11.2022 0.0360788 0)
(11.1994 0.035057 0)
(11.1965 0.0340929 0)
(11.1935 0.033178 0)
(11.1904 0.0323044 0)
(11.1873 0.0314652 0)
(11.184 0.0306539 0)
(11.1807 0.0298654 0)
(11.1774 0.0290958 0)
(11.174 0.0283424 0)
(11.1706 0.0276036 0)
(11.1672 0.0268784 0)
(11.1638 0.0261663 0)
(11.1604 0.0254668 0)
(11.1571 0.0247795 0)
(11.1537 0.024104 0)
(11.1504 0.0234403 0)
(11.147 0.0227883 0)
(11.1438 0.022148 0)
(11.1405 0.0215196 0)
(11.1373 0.0209035 0)
(11.1342 0.0202999 0)
(11.1311 0.0197094 0)
(11.1281 0.0191323 0)
(11.1251 0.018569 0)
(11.1223 0.0180197 0)
(11.1194 0.0174844 0)
(11.1167 0.0169631 0)
(11.114 0.0164555 0)
(11.1115 0.0159615 0)
(11.109 0.0154808 0)
(11.1065 0.0150131 0)
(11.1042 0.0145582 0)
(11.102 0.0141159 0)
(11.0998 0.013686 0)
(11.0977 0.0132685 0)
(11.0957 0.0128635 0)
(11.0939 0.012471 0)
(11.092 0.012091 0)
(11.0903 0.0117238 0)
(11.0887 0.0113694 0)
(11.0872 0.011028 0)
(11.0857 0.0106995 0)
(11.0844 0.0103841 0)
(11.0831 0.0100817 0)
(11.0819 0.00979252 0)
(11.0808 0.00951655 0)
(11.0798 0.00925387 0)
(11.0788 0.00900472 0)
(11.078 0.00876912 0)
(11.0772 0.00854728 0)
(11.0765 0.00833918 0)
(11.0759 0.00814517 0)
(11.0753 0.0079652 0)
(11.0748 0.00779986 0)
(11.0744 0.00764884 0)
(11.0741 0.00751284 0)
(11.0738 0.00739092 0)
(11.0736 0.007284 0)
(11.0734 0.00719006 0)
(11.0733 0.00711037 0)
(11.0732 0.00704137 0)
(11.0732 0.0069855 0)
(11.0732 0.00693674 0)
(11.0733 0.00690014 0)
(11.0734 0.00686484 0)
(11.0735 0.00684132 0)
(11.0737 0.00681009 0)
(11.0738 0.00679279 0)
(11.0742 0.00675391 0)
(11.0742 0.00673725 0)
(11.0747 0.00667281 0)
(11.0746 0.00665535 0)
(11.0754 0.00653166 0)
(11.0749 0.00652363 0)
(11.0758 0.0062681 0)
(9.85014 0.0168317 0)
(9.88624 0.0495948 0)
(9.92533 0.0801295 0)
(9.96478 0.107316 0)
(10.012 0.1306 0)
(10.0695 0.149783 0)
(10.1358 0.164785 0)
(10.2081 0.175639 0)
(10.2836 0.182567 0)
(10.3609 0.185976 0)
(10.4385 0.186368 0)
(10.5155 0.184264 0)
(10.591 0.180153 0)
(10.6643 0.174486 0)
(10.7348 0.167678 0)
(10.802 0.160106 0)
(10.8655 0.152088 0)
(10.9252 0.14388 0)
(10.9809 0.13567 0)
(11.0328 0.127596 0)
(11.0808 0.119763 0)
(11.1252 0.112256 0)
(11.1661 0.105136 0)
(11.2037 0.0984345 0)
(11.2383 0.0921668 0)
(11.2702 0.086334 0)
(11.2994 0.0809298 0)
(11.3264 0.0759437 0)
(11.3513 0.0713627 0)
(11.3743 0.0671716 0)
(11.3956 0.0633524 0)
(11.4154 0.0598826 0)
(11.4339 0.0567363 0)
(11.4512 0.0538854 0)
(11.4674 0.0513014 0)
(11.4827 0.0489571 0)
(11.4971 0.0468263 0)
(11.5108 0.044885 0)
(11.5237 0.0431112 0)
(11.5361 0.0414855 0)
(11.5478 0.0399905 0)
(11.5591 0.0386101 0)
(11.5698 0.0373303 0)
(11.5802 0.0361384 0)
(11.5901 0.0350237 0)
(11.5996 0.0339768 0)
(11.6088 0.0329896 0)
(11.6176 0.0320549 0)
(11.6261 0.0311661 0)
(11.6343 0.0303172 0)
(11.6422 0.0295031 0)
(11.6498 0.0287196 0)
(11.6572 0.0279633 0)
(11.6643 0.0272317 0)
(11.6712 0.0265229 0)
(11.6778 0.025835 0)
(11.6843 0.0251666 0)
(11.6904 0.0245166 0)
(11.6964 0.0238837 0)
(11.7021 0.0232669 0)
(11.7077 0.0226654 0)
(11.713 0.0220785 0)
(11.7182 0.0215058 0)
(11.7232 0.0209471 0)
(11.728 0.0204024 0)
(11.7326 0.0198713 0)
(11.737 0.0193539 0)
(11.7413 0.0188497 0)
(11.7454 0.0183584 0)
(11.7494 0.0178796 0)
(11.7532 0.0174128 0)
(11.7569 0.0169574 0)
(11.7604 0.016513 0)
(11.7638 0.0160791 0)
(11.7671 0.0156554 0)
(11.7703 0.0152413 0)
(11.7733 0.0148365 0)
(11.7763 0.0144409 0)
(11.7791 0.0140541 0)
(11.7818 0.0136761 0)
(11.7845 0.0133067 0)
(11.787 0.0129458 0)
(11.7894 0.0125936 0)
(11.7918 0.01225 0)
(11.7941 0.011915 0)
(11.7963 0.0115887 0)
(11.7984 0.0112714 0)
(11.8004 0.0109631 0)
(11.8024 0.0106641 0)
(11.8043 0.0103746 0)
(11.8062 0.0100948 0)
(11.808 0.00982484 0)
(11.8097 0.00956515 0)
(11.8114 0.00931586 0)
(11.8131 0.00907731 0)
(11.8147 0.00884966 0)
(11.8163 0.00863342 0)
(11.8178 0.00842874 0)
(11.8193 0.00823626 0)
(11.8208 0.00805584 0)
(11.8223 0.00788807 0)
(11.8237 0.0077324 0)
(11.8251 0.00758937 0)
(11.8265 0.00745789 0)
(11.8279 0.00733833 0)
(11.8293 0.0072289 0)
(11.8307 0.00713029 0)
(11.8321 0.00703949 0)
(11.8334 0.00695865 0)
(11.8348 0.00688163 0)
(11.8361 0.00681454 0)
(11.8376 0.00674431 0)
(11.8388 0.00668657 0)
(11.8404 0.006613 0)
(11.8414 0.00656182 0)
(11.8432 0.00646925 0)
(11.844 0.00642734 0)
(11.8461 0.00628983 0)
(11.8462 0.00626993 0)
(11.8489 0.00603681 0)
(9.85009 0.00992341 0)
(9.88512 0.0292283 0)
(9.92213 0.0472017 0)
(9.95879 0.0631775 0)
(10.0029 0.0768132 0)
(10.0572 0.0880256 0)
(10.1202 0.0968282 0)
(10.1892 0.103273 0)
(10.2616 0.10749 0)
(10.3358 0.109704 0)
(10.4106 0.110204 0)
(10.4852 0.109283 0)
(10.5584 0.107199 0)
(10.6298 0.104171 0)
(10.6985 0.100391 0)
(10.7643 0.0960368 0)
(10.8267 0.0912759 0)
(10.8856 0.0862575 0)
(10.9408 0.0811038 0)
(10.9924 0.0759128 0)
(11.0404 0.0707692 0)
(11.085 0.0657482 0)
(11.1264 0.0609169 0)
(11.1647 0.0563316 0)
(11.2002 0.0520334 0)
(11.2331 0.0480472 0)
(11.2636 0.0443848 0)
(11.2919 0.0410468 0)
(11.3182 0.0380248 0)
(11.3428 0.035305 0)
(11.3657 0.0328696 0)
(11.3872 0.0306977 0)
(11.4075 0.028766 0)
(11.4266 0.0270506 0)
(11.4446 0.025528 0)
(11.4617 0.0241759 0)
(11.4781 0.0229739 0)
(11.4936 0.0219035 0)
(11.5085 0.0209478 0)
(11.5228 0.0200919 0)
(11.5365 0.0193228 0)
(11.5498 0.0186292 0)
(11.5626 0.0180009 0)
(11.5749 0.0174292 0)
(11.5869 0.0169066 0)
(11.5984 0.0164269 0)
(11.6097 0.0159846 0)
(11.6206 0.0155748 0)
(11.6312 0.0151928 0)
(11.6416 0.0148342 0)
(11.6516 0.0144954 0)
(11.6614 0.014173 0)
(11.6709 0.0138645 0)
(11.6802 0.0135674 0)
(11.6892 0.0132802 0)
(11.698 0.0130013 0)
(11.7066 0.0127298 0)
(11.7149 0.012465 0)
(11.723 0.0122063 0)
(11.731 0.0119531 0)
(11.7387 0.0117051 0)
(11.7461 0.0114618 0)
(11.7534 0.0112231 0)
(11.7605 0.0109886 0)
(11.7674 0.0107582 0)
(11.7741 0.0105316 0)
(11.7806 0.0103088 0)
(11.7869 0.0100894 0)
(11.7931 0.00987349 0)
(11.799 0.00966078 0)
(11.8048 0.00945119 0)
(11.8105 0.00924458 0)
(11.8159 0.00904084 0)
(11.8212 0.00883986 0)
(11.8263 0.00864159 0)
(11.8313 0.00844602 0)
(11.8362 0.00825313 0)
(11.8408 0.00806294 0)
(11.8454 0.00787548 0)
(11.8498 0.00769081 0)
(11.854 0.00750906 0)
(11.8581 0.00733038 0)
(11.8621 0.00715495 0)
(11.866 0.00698297 0)
(11.8697 0.00681466 0)
(11.8733 0.00665021 0)
(11.8768 0.00648983 0)
(11.8802 0.00633371 0)
(11.8834 0.00618208 0)
(11.8866 0.00603515 0)
(11.8896 0.0058932 0)
(11.8926 0.00575644 0)
(11.8954 0.00562514 0)
(11.8982 0.00549947 0)
(11.9008 0.00537968 0)
(11.9034 0.00526594 0)
(11.9059 0.00515861 0)
(11.9083 0.00505784 0)
(11.9107 0.00496394 0)
(11.9129 0.0048769 0)
(11.9152 0.00479694 0)
(11.9173 0.00472385 0)
(11.9194 0.00465779 0)
(11.9215 0.00459838 0)
(11.9235 0.00454573 0)
(11.9255 0.00449904 0)
(11.9274 0.00445852 0)
(11.9293 0.00442255 0)
(11.9312 0.00439201 0)
(11.9331 0.00436361 0)
(11.9349 0.00434029 0)
(11.9368 0.00431548 0)
(11.9385 0.0042968 0)
(11.9405 0.00427042 0)
(11.9419 0.00425443 0)
(11.9441 0.00421826 0)
(11.9452 0.00420438 0)
(11.9479 0.00414455 0)
(11.9481 0.00413646 0)
(11.9514 0.00402795 0)
(9.85006 0.00328458 0)
(9.88455 0.00965957 0)
(9.92054 0.0155909 0)
(9.95584 0.0208715 0)
(9.99843 0.0253916 0)
(10.0512 0.0291267 0)
(10.1127 0.0320871 0)
(10.1802 0.0342966 0)
(10.2513 0.0357984 0)
(10.3243 0.036662 0)
(10.3981 0.0369732 0)
(10.4718 0.0368161 0)
(10.5443 0.0362637 0)
(10.615 0.0353781 0)
(10.6832 0.034218 0)
(10.7486 0.0328433 0)
(10.8107 0.0313161 0)
(10.8693 0.0296938 0)
(10.9244 0.0280278 0)
(10.9759 0.0263624 0)
(11.024 0.0247339 0)
(11.0687 0.0231724 0)
(11.1102 0.021704 0)
(11.1487 0.0203529 0)
(11.1844 0.0191358 0)
(11.2175 0.0180581 0)
(11.2482 0.0171151 0)
(11.2767 0.0162959 0)
(11.3033 0.0155869 0)
(11.328 0.0149729 0)
(11.3511 0.0144391 0)
(11.3727 0.013971 0)
(11.393 0.0135559 0)
(11.4122 0.0131838 0)
(11.4303 0.0128471 0)
(11.4476 0.01254 0)
(11.4639 0.0122574 0)
(11.4796 0.0119949 0)
(11.4946 0.0117491 0)
(11.5089 0.0115172 0)
(11.5227 0.0112972 0)
(11.5361 0.0110876 0)
(11.5489 0.0108871 0)
(11.5614 0.0106944 0)
(11.5734 0.0105084 0)
(11.5851 0.0103284 0)
(11.5965 0.0101537 0)
(11.6075 0.0099836 0)
(11.6182 0.00981725 0)
(11.6287 0.00965379 0)
(11.6389 0.00949242 0)
(11.6488 0.00933247 0)
(11.6584 0.0091735 0)
(11.6678 0.00901525 0)
(11.677 0.00885767 0)
(11.686 0.00870084 0)
(11.6947 0.00854486 0)
(11.7032 0.00838979 0)
(11.7115 0.00823568 0)
(11.7196 0.00808259 0)
(11.7275 0.00793065 0)
(11.7351 0.00777995 0)
(11.7426 0.00763062 0)
(11.7499 0.00748274 0)
(11.757 0.00733639 0)
(11.7639 0.00719167 0)
(11.7706 0.00704867 0)
(11.7771 0.0069075 0)
(11.7835 0.00676827 0)
(11.7897 0.00663106 0)
(11.7957 0.00649593 0)
(11.8015 0.00636292 0)
(11.8072 0.00623207 0)
(11.8127 0.00610342 0)
(11.8181 0.00597701 0)
(11.8233 0.00585291 0)
(11.8284 0.00573116 0)
(11.8333 0.00561182 0)
(11.838 0.00549492 0)
(11.8427 0.00538051 0)
(11.8472 0.00526864 0)
(11.8515 0.00515934 0)
(11.8557 0.00505266 0)
(11.8598 0.00494866 0)
(11.8638 0.0048474 0)
(11.8676 0.00474894 0)
(11.8713 0.0046533 0)
(11.8749 0.00456053 0)
(11.8784 0.00447067 0)
(11.8818 0.00438379 0)
(11.8851 0.00429994 0)
(11.8882 0.00421918 0)
(11.8913 0.00414152 0)
(11.8942 0.00406698 0)
(11.8971 0.00399559 0)
(11.8999 0.00392735 0)
(11.9026 0.0038623 0)
(11.9052 0.00380041 0)
(11.9078 0.00374172 0)
(11.9102 0.00368612 0)
(11.9126 0.0036336 0)
(11.915 0.00358397 0)
(11.9173 0.00353719 0)
(11.9195 0.00349299 0)
(11.9217 0.00345138 0)
(11.9238 0.00341198 0)
(11.9259 0.00337493 0)
(11.928 0.0033395 0)
(11.93 0.0033063 0)
(11.9321 0.00327378 0)
(11.934 0.00324367 0)
(11.9361 0.00321247 0)
(11.9379 0.00318461 0)
(11.9401 0.00315235 0)
(11.9416 0.00312648 0)
(11.944 0.00308947 0)
(11.9452 0.00306688 0)
(11.948 0.00301802 0)
(11.9483 0.00300347 0)
(11.9519 0.00292808 0)
(9.85006 -0.00322888 0)
(9.88455 -0.00949815 0)
(9.92053 -0.0153332 0)
(9.95583 -0.0205266 0)
(9.99842 -0.0249645 0)
(10.0512 -0.0286157 0)
(10.1127 -0.0314829 0)
(10.1802 -0.0335834 0)
(10.2513 -0.0349579 0)
(10.3243 -0.035676 0)
(10.3982 -0.0358261 0)
(10.4718 -0.0354957 0)
(10.5443 -0.0347611 0)
(10.615 -0.033687 0)
(10.6833 -0.0323342 0)
(10.7486 -0.0307655 0)
(10.8107 -0.0290446 0)
(10.8693 -0.0272308 0)
(10.9244 -0.0253719 0)
(10.976 -0.0235107 0)
(11.024 -0.0216871 0)
(11.0687 -0.019935 0)
(11.1102 -0.0182831 0)
(11.1487 -0.0167565 0)
(11.1844 -0.0153731 0)
(11.2175 -0.0141415 0)
(11.2482 -0.0130608 0)
(11.2767 -0.0121223 0)
(11.3032 -0.0113128 0)
(11.3279 -0.0106163 0)
(11.351 -0.0100167 0)
(11.3726 -0.00949773 0)
(11.3929 -0.00904488 0)
(11.4121 -0.00864682 0)
(11.4302 -0.00829543 0)
(11.4474 -0.00798377 0)
(11.4638 -0.00770529 0)
(11.4794 -0.00745399 0)
(11.4944 -0.00722481 0)
(11.5088 -0.00701341 0)
(11.5226 -0.00681614 0)
(11.5359 -0.00662993 0)
(11.5488 -0.00645234 0)
(11.5612 -0.00628142 0)
(11.5733 -0.0061156 0)
(11.585 -0.00595353 0)
(11.5963 -0.0057942 0)
(11.6074 -0.00563685 0)
(11.6181 -0.00548117 0)
(11.6285 -0.00532708 0)
(11.6387 -0.00517465 0)
(11.6486 -0.00502388 0)
(11.6583 -0.00487476 0)
(11.6677 -0.00472721 0)
(11.6769 -0.00458107 0)
(11.6858 -0.00443614 0)
(11.6945 -0.00429226 0)
(11.7031 -0.00414926 0)
(11.7113 -0.00400701 0)
(11.7194 -0.0038654 0)
(11.7273 -0.00372442 0)
(11.735 -0.00358415 0)
(11.7424 -0.0034447 0)
(11.7497 -0.00330622 0)
(11.7568 -0.00316887 0)
(11.7637 -0.00303288 0)
(11.7704 -0.00289853 0)
(11.777 -0.00276607 0)
(11.7833 -0.00263579 0)
(11.7895 -0.00250795 0)
(11.7955 -0.00238274 0)
(11.8013 -0.00226029 0)
(11.807 -0.00214067 0)
(11.8126 -0.0020239 0)
(11.8179 -0.00190994 0)
(11.8231 -0.00179879 0)
(11.8282 -0.00169045 0)
(11.8331 -0.00158487 0)
(11.8379 -0.00148195 0)
(11.8425 -0.00138159 0)
(11.847 -0.00128372 0)
(11.8513 -0.00118834 0)
(11.8556 -0.00109548 0)
(11.8596 -0.00100515 0)
(11.8636 -0.00091731 0)
(11.8674 -0.00083195 0)
(11.8712 -0.000749019 0)
(11.8748 -0.000668458 0)
(11.8782 -0.000590206 0)
(11.8816 -0.000514232 0)
(11.8849 -0.000440498 0)
(11.888 -0.000368951 0)
(11.8911 -0.000299539 0)
(11.8941 -0.000232239 0)
(11.897 -0.000167074 0)
(11.8997 -0.000104094 0)
(11.9024 -4.34128e-05 0)
(11.9051 1.48871e-05 0)
(11.9076 7.06385e-05 0)
(11.9101 0.000123737 0)
(11.9125 0.000173958 0)
(11.9148 0.00022122 0)
(11.9171 0.000265328 0)
(11.9193 0.000306304 0)
(11.9215 0.000343977 0)
(11.9237 0.000378561 0)
(11.9258 0.000409877 0)
(11.9279 0.000438653 0)
(11.9299 0.000464377 0)
(11.932 0.000488596 0)
(11.9339 0.000509846 0)
(11.936 0.000531277 0)
(11.9378 0.000549157 0)
(11.9399 0.000570035 0)
(11.9415 0.000585474 0)
(11.9439 0.000609558 0)
(11.945 0.000623177 0)
(11.9479 0.000657682 0)
(11.9482 0.000667508 0)
(11.9517 0.000724001 0)
(9.85009 -0.00986152 0)
(9.88511 -0.0290515 0)
(9.92211 -0.0469259 0)
(9.95875 -0.0628201 0)
(10.0028 -0.0763852 0)
(10.0571 -0.0875263 0)
(10.1202 -0.0962465 0)
(10.1892 -0.102592 0)
(10.2616 -0.10669 0)
(10.3359 -0.108765 0)
(10.4107 -0.109106 0)
(10.4853 -0.108003 0)
(10.5586 -0.105719 0)
(10.6299 -0.102479 0)
(10.6987 -0.0984811 0)
(10.7644 -0.0939101 0)
(10.8269 -0.0889377 0)
(10.8857 -0.083717 0)
(10.9409 -0.0783779 0)
(10.9925 -0.0730231 0)
(11.0405 -0.0677365 0)
(11.0851 -0.062591 0)
(11.1265 -0.0576507 0)
(11.1648 -0.0529706 0)
(11.2002 -0.048592 0)
(11.2331 -0.0445384 0)
(11.2636 -0.0408198 0)
(11.2918 -0.0374341 0)
(11.3181 -0.0343708 0)
(11.3427 -0.0316151 0)
(11.3656 -0.0291491 0)
(11.3871 -0.0269515 0)
(11.4073 -0.0249985 0)
(11.4263 -0.0232655 0)
(11.4444 -0.0217286 0)
(11.4615 -0.0203653 0)
(11.4777 -0.0191553 0)
(11.4933 -0.01808 0)
(11.5082 -0.017122 0)
(11.5224 -0.0162657 0)
(11.5362 -0.0154969 0)
(11.5494 -0.0148031 0)
(11.5621 -0.014174 0)
(11.5745 -0.0136006 0)
(11.5864 -0.0130749 0)
(11.598 -0.0125901 0)
(11.6093 -0.0121405 0)
(11.6202 -0.0117211 0)
(11.6308 -0.011328 0)
(11.6411 -0.0109579 0)
(11.6511 -0.0106078 0)
(11.6609 -0.0102751 0)
(11.6704 -0.00995763 0)
(11.6797 -0.00965327 0)
(11.6887 -0.00936027 0)
(11.6975 -0.00907707 0)
(11.7061 -0.00880237 0)
(11.7144 -0.00853497 0)
(11.7226 -0.00827386 0)
(11.7305 -0.00801819 0)
(11.7382 -0.0077673 0)
(11.7457 -0.00752076 0)
(11.753 -0.00727831 0)
(11.7601 -0.00703985 0)
(11.7669 -0.00680534 0)
(11.7736 -0.00657478 0)
(11.7802 -0.00634827 0)
(11.7865 -0.00612595 0)
(11.7926 -0.00590797 0)
(11.7986 -0.00569449 0)
(11.8044 -0.00548556 0)
(11.81 -0.00528116 0)
(11.8155 -0.00508115 0)
(11.8208 -0.00488543 0)
(11.8259 -0.00469372 0)
(11.8309 -0.00450584 0)
(11.8358 -0.00432172 0)
(11.8405 -0.00414132 0)
(11.845 -0.00396457 0)
(11.8494 -0.00379138 0)
(11.8537 -0.00362166 0)
(11.8578 -0.00345534 0)
(11.8618 -0.00329238 0)
(11.8657 -0.00313285 0)
(11.8694 -0.00297688 0)
(11.873 -0.00282458 0)
(11.8765 -0.00267603 0)
(11.8799 -0.0025313 0)
(11.8832 -0.00239052 0)
(11.8864 -0.0022538 0)
(11.8894 -0.00212129 0)
(11.8924 -0.00199317 0)
(11.8952 -0.00186963 0)
(11.898 -0.00175081 0)
(11.9007 -0.00163696 0)
(11.9032 -0.00152824 0)
(11.9058 -0.00142504 0)
(11.9082 -0.00132757 0)
(11.9105 -0.0012363 0)
(11.9128 -0.00115142 0)
(11.9151 -0.00107341 0)
(11.9172 -0.00100234 0)
(11.9193 -0.000938622 0)
(11.9214 -0.00088214 0)
(11.9234 -0.00083319 0)
(11.9254 -0.000791132 0)
(11.9274 -0.000756158 0)
(11.9293 -0.000726759 0)
(11.9312 -0.000703704 0)
(11.9331 -0.000683856 0)
(11.9349 -0.000669799 0)
(11.9368 -0.000655386 0)
(11.9385 -0.000647369 0)
(11.9405 -0.000633062 0)
(11.9419 -0.000628535 0)
(11.9442 -0.00060615 0)
(11.9452 -0.000603401 0)
(11.9479 -0.000558468 0)
(11.9481 -0.000557708 0)
(11.9515 -0.000463122 0)
(9.85014 -0.0167668 0)
(9.88621 -0.0494018 0)
(9.92527 -0.0798233 0)
(9.96469 -0.106921 0)
(10.0119 -0.130132 0)
(10.0694 -0.14924 0)
(10.1358 -0.164157 0)
(10.2081 -0.174913 0)
(10.2837 -0.181732 0)
(10.361 -0.185022 0)
(10.4386 -0.185276 0)
(10.5157 -0.18301 0)
(10.5912 -0.178703 0)
(10.6645 -0.172804 0)
(10.735 -0.16573 0)
(10.8022 -0.157865 0)
(10.8657 -0.149537 0)
(10.9253 -0.14101 0)
(10.981 -0.132487 0)
(11.0328 -0.124115 0)
(11.0808 -0.116002 0)
(11.1251 -0.108229 0)
(11.166 -0.100853 0)
(11.2036 -0.0939131 0)
(11.2381 -0.0874295 0)
(11.2699 -0.0814095 0)
(11.2991 -0.0758495 0)
(11.326 -0.0707395 0)
(11.3509 -0.0660651 0)
(11.3738 -0.0618076 0)
(11.3951 -0.0579446 0)
(11.415 -0.0544503 0)
(11.4334 -0.0512963 0)
(11.4507 -0.0484527 0)
(11.467 -0.0458885 0)
(11.4823 -0.0435745 0)
(11.4967 -0.041484 0)
(11.5104 -0.0395922 0)
(11.5234 -0.0378753 0)
(11.5358 -0.0363103 0)
(11.5476 -0.0348769 0)
(11.5589 -0.0335573 0)
(11.5697 -0.0323366 0)
(11.5801 -0.0312014 0)
(11.5901 -0.0301403 0)
(11.5997 -0.029143 0)
(11.6089 -0.0282007 0)
(11.6178 -0.0273066 0)
(11.6264 -0.0264549 0)
(11.6346 -0.0256411 0)
(11.6426 -0.0248613 0)
(11.6503 -0.0241121 0)
(11.6578 -0.0233906 0)
(11.665 -0.0226941 0)
(11.672 -0.0220201 0)
(11.6787 -0.0213665 0)
(11.6852 -0.0207315 0)
(11.6914 -0.0201135 0)
(11.6975 -0.0195113 0)
(11.7033 -0.0189237 0)
(11.709 -0.0183499 0)
(11.7144 -0.0177892 0)
(11.7196 -0.0172412 0)
(11.7247 -0.0167055 0)
(11.7296 -0.0161819 0)
(11.7343 -0.0156704 0)
(11.7388 -0.0151707 0)
(11.7432 -0.0146828 0)
(11.7474 -0.0142066 0)
(11.7514 -0.0137419 0)
(11.7554 -0.0132888 0)
(11.7591 -0.012847 0)
(11.7628 -0.0124161 0)
(11.7663 -0.0119958 0)
(11.7696 -0.0115858 0)
(11.7729 -0.0111858 0)
(11.776 -0.0107953 0)
(11.779 -0.0104139 0)
(11.782 -0.0100412 0)
(11.7848 -0.00967708 0)
(11.7875 -0.00932139 0)
(11.7901 -0.00897401 0)
(11.7926 -0.00863488 0)
(11.7951 -0.00830398 0)
(11.7974 -0.00798137 0)
(11.7997 -0.0076671 0)
(11.8019 -0.00736125 0)
(11.804 -0.00706391 0)
(11.806 -0.0067752 0)
(11.808 -0.00649517 0)
(11.81 -0.00622397 0)
(11.8118 -0.00596174 0)
(11.8136 -0.00570871 0)
(11.8154 -0.00546508 0)
(11.8171 -0.00523122 0)
(11.8188 -0.0050074 0)
(11.8204 -0.00479419 0)
(11.822 -0.00459183 0)
(11.8236 -0.00440103 0)
(11.8251 -0.00422183 0)
(11.8266 -0.00405508 0)
(11.8281 -0.00390057 0)
(11.8296 -0.00375914 0)
(11.831 -0.00363003 0)
(11.8325 -0.00351375 0)
(11.8339 -0.00340854 0)
(11.8353 -0.00331506 0)
(11.8368 -0.00323022 0)
(11.8381 -0.00315608 0)
(11.8396 -0.00308651 0)
(11.8409 -0.0030274 0)
(11.8424 -0.00296597 0)
(11.8437 -0.00291714 0)
(11.8453 -0.00285345 0)
(11.8464 -0.00281143 0)
(11.8482 -0.00272953 0)
(11.849 -0.00269685 0)
(11.8512 -0.00257135 0)
(11.8513 -0.00256119 0)
(11.854 -0.00233661 0)
(9.85021 -0.0239778 0)
(9.88789 -0.0698958 0)
(9.93032 -0.111963 0)
(9.97477 -0.149387 0)
(10.0284 -0.181896 0)
(10.0936 -0.209118 0)
(10.1686 -0.230671 0)
(10.2496 -0.246471 0)
(10.3332 -0.256802 0)
(10.417 -0.262139 0)
(10.4991 -0.263007 0)
(10.5781 -0.259977 0)
(10.6529 -0.253603 0)
(10.7227 -0.244469 0)
(10.787 -0.233208 0)
(10.8456 -0.220456 0)
(10.8984 -0.206793 0)
(10.9455 -0.192713 0)
(10.9873 -0.178617 0)
(11.024 -0.164825 0)
(11.0561 -0.151578 0)
(11.0839 -0.139049 0)
(11.1079 -0.127351 0)
(11.1285 -0.116545 0)
(11.1459 -0.106654 0)
(11.1607 -0.0976761 0)
(11.173 -0.0895854 0)
(11.1832 -0.0823421 0)
(11.1916 -0.0758946 0)
(11.1984 -0.0701816 0)
(11.2038 -0.0651355 0)
(11.2079 -0.0606862 0)
(11.2111 -0.0567645 0)
(11.2133 -0.0533053 0)
(11.2148 -0.0502484 0)
(11.2156 -0.0475409 0)
(11.2158 -0.0451359 0)
(11.2155 -0.0429934 0)
(11.2148 -0.0410767 0)
(11.2136 -0.0393507 0)
(11.2122 -0.0377858 0)
(11.2105 -0.0363574 0)
(11.2085 -0.0350444 0)
(11.2064 -0.0338286 0)
(11.204 -0.0326946 0)
(11.2015 -0.03163 0)
(11.1988 -0.0306245 0)
(11.1961 -0.0296692 0)
(11.1932 -0.0287568 0)
(11.1903 -0.027881 0)
(11.1873 -0.0270369 0)
(11.1843 -0.0262203 0)
(11.1812 -0.0254279 0)
(11.178 -0.0246568 0)
(11.1749 -0.0239043 0)
(11.1718 -0.0231684 0)
(11.1686 -0.0224474 0)
(11.1654 -0.0217401 0)
(11.1623 -0.0210457 0)
(11.1592 -0.0203638 0)
(11.1561 -0.0196941 0)
(11.153 -0.0190367 0)
(11.1499 -0.0183918 0)
(11.1469 -0.01776 0)
(11.144 -0.0171419 0)
(11.141 -0.016538 0)
(11.1382 -0.0159487 0)
(11.1354 -0.0153742 0)
(11.1326 -0.0148147 0)
(11.1299 -0.0142705 0)
(11.1273 -0.0137416 0)
(11.1248 -0.0132281 0)
(11.1223 -0.0127297 0)
(11.1199 -0.0122461 0)
(11.1176 -0.0117771 0)
(11.1153 -0.0113221 0)
(11.1132 -0.0108806 0)
(11.1111 -0.010452 0)
(11.1091 -0.010036 0)
(11.1072 -0.0096322 0)
(11.1054 -0.00924054 0)
(11.1036 -0.00886104 0)
(11.102 -0.00849383 0)
(11.1004 -0.00813893 0)
(11.0989 -0.00779644 0)
(11.0975 -0.00746638 0)
(11.0962 -0.00714886 0)
(11.0949 -0.00684389 0)
(11.0938 -0.00655149 0)
(11.0927 -0.0062716 0)
(11.0917 -0.00600425 0)
(11.0908 -0.00574935 0)
(11.09 -0.00550702 0)
(11.0892 -0.0052772 0)
(11.0885 -0.00506017 0)
(11.0879 -0.00485593 0)
(11.0874 -0.00466498 0)
(11.0869 -0.00448735 0)
(11.0865 -0.00432376 0)
(11.0862 -0.00417404 0)
(11.0859 -0.00403918 0)
(11.0857 -0.00391857 0)
(11.0856 -0.00381348 0)
(11.0855 -0.00372218 0)
(11.0855 -0.00364613 0)
(11.0855 -0.00358182 0)
(11.0855 -0.00353183 0)
(11.0856 -0.00348998 0)
(11.0857 -0.00346135 0)
(11.0859 -0.00343469 0)
(11.0861 -0.0034204 0)
(11.0864 -0.00339885 0)
(11.0865 -0.00339148 0)
(11.0869 -0.00336341 0)
(11.087 -0.00335683 0)
(11.0876 -0.00330453 0)
(11.0875 -0.00329633 0)
(11.0884 -0.00318627 0)
(11.0879 -0.00318794 0)
(11.0889 -0.00294988 0)
(9.85125 -0.0406135 0)
(9.90359 -0.111792 0)
(9.96749 -0.172024 0)
(10.0326 -0.223681 0)
(10.0995 -0.267581 0)
(10.1655 -0.302924 0)
(10.2253 -0.329181 0)
(10.2736 -0.346735 0)
(10.3076 -0.356615 0)
(10.3268 -0.35987 0)
(10.3321 -0.357479 0)
(10.3248 -0.350388 0)
(10.3068 -0.339419 0)
(10.2798 -0.325367 0)
(10.2454 -0.309026 0)
(10.2053 -0.291128 0)
(10.1608 -0.272318 0)
(10.1133 -0.253131 0)
(10.0638 -0.234009 0)
(10.0134 -0.215306 0)
(9.96258 -0.197299 0)
(9.91209 -0.18019 0)
(9.86232 -0.164104 0)
(9.81359 -0.149111 0)
(9.76615 -0.135246 0)
(9.72017 -0.122513 0)
(9.67575 -0.110894 0)
(9.63295 -0.100352 0)
(9.5918 -0.0908344 0)
(9.55228 -0.0822792 0)
(9.51438 -0.074617 0)
(9.47805 -0.0677744 0)
(9.44324 -0.0616773 0)
(9.40988 -0.0562516 0)
(9.37792 -0.0514263 0)
(9.34728 -0.0471329 0)
(9.31791 -0.0433086 0)
(9.28974 -0.0398956 0)
(9.26272 -0.0368439 0)
(9.2368 -0.0341119 0)
(9.21194 -0.0316634 0)
(9.18808 -0.0294659 0)
(9.16519 -0.0274904 0)
(9.14323 -0.0257118 0)
(9.12215 -0.0241076 0)
(9.10192 -0.0226588 0)
(9.08252 -0.0213481 0)
(9.0639 -0.0201596 0)
(9.04604 -0.0190785 0)
(9.02892 -0.0180917 0)
(9.01249 -0.0171874 0)
(8.99673 -0.016355 0)
(8.98162 -0.0155858 0)
(8.96713 -0.0148718 0)
(8.95325 -0.0142065 0)
(8.93995 -0.0135843 0)
(8.9272 -0.0130002 0)
(8.91499 -0.0124501 0)
(8.90331 -0.0119306 0)
(8.89213 -0.0114387 0)
(8.88143 -0.0109722 0)
(8.87121 -0.0105294 0)
(8.86145 -0.0101087 0)
(8.85212 -0.00970919 0)
(8.84322 -0.00932988 0)
(8.83473 -0.00897013 0)
(8.82663 -0.00862948 0)
(8.81892 -0.00830751 0)
(8.81157 -0.00800348 0)
(8.80457 -0.00771644 0)
(8.7979 -0.00744524 0)
(8.79156 -0.00718875 0)
(8.78552 -0.00694588 0)
(8.77978 -0.00671553 0)
(8.77432 -0.00649655 0)
(8.76913 -0.0062879 0)
(8.7642 -0.00608879 0)
(8.75952 -0.00589856 0)
(8.75508 -0.00571661 0)
(8.75087 -0.00554245 0)
(8.74687 -0.00537571 0)
(8.74309 -0.0052161 0)
(8.7395 -0.00506338 0)
(8.73611 -0.00491741 0)
(8.73289 -0.0047781 0)
(8.72986 -0.00464538 0)
(8.72698 -0.00451923 0)
(8.72427 -0.0043996 0)
(8.72171 -0.00428648 0)
(8.71928 -0.00417979 0)
(8.71699 -0.00407952 0)
(8.71483 -0.00398557 0)
(8.71278 -0.00389796 0)
(8.71085 -0.00381657 0)
(8.70902 -0.00374149 0)
(8.70729 -0.00367264 0)