/*--------------------------------*- C++ -*----------------------------------*\
  =========                 |
  \\      /  F ield         | OpenFOAM: The Open Source CFD Toolbox
   \\    /   O peration     | Website:  https://openfoam.org
    \\  /    A nd           | Version:  7
     \\/     M anipulation  |
\*---------------------------------------------------------------------------*/
FoamFile
{
    version     2.0;
    format      ascii;
    class       volSymmTensorField;
    location    "0.285";
    object      UPrime2Mean;
}
// * * * * * * * * * * * * * * * * * * * * * * * * * * * * * * * * * * * * * //

dimensions      [0 2 -2 0 0 0 0];

internalField   nonuniform List<symmTensor> 
400
(
(3.85599e-05 9.94589e-06 0 9.74305e-06 0 0)
(2.37352e-05 5.71924e-06 0 2.05862e-06 0 0)
(1.06622e-05 1.63628e-06 0 4.27944e-07 0 0)
(5.36969e-06 4.42016e-07 0 9.19524e-08 0 0)
(3.66112e-06 1.48979e-07 0 2.55301e-08 0 0)
(3.02561e-06 6.07577e-08 0 8.431e-09 0 0)
(2.74621e-06 2.91177e-08 0 3.38075e-09 0 0)
(2.60813e-06 1.58681e-08 0 1.66719e-09 0 0)
(2.53299e-06 9.35767e-09 0 9.54518e-10 0 0)
(2.48798e-06 5.73145e-09 0 5.98536e-10 0 0)
(2.45823e-06 3.62558e-09 0 3.97681e-10 0 0)
(2.43655e-06 2.35009e-09 0 2.75903e-10 0 0)
(2.41915e-06 1.50382e-09 0 1.98772e-10 0 0)
(2.40404e-06 9.72076e-10 0 1.48749e-10 0 0)
(2.39004e-06 6.83244e-10 0 1.1633e-10 0 0)
(2.37608e-06 6.62372e-10 0 9.63053e-11 0 0)
(2.36114e-06 9.99791e-10 0 8.66938e-11 0 0)
(2.34345e-06 1.5824e-09 0 9.55793e-11 0 0)
(2.30782e-06 1.18632e-09 0 5.89328e-11 0 0)
(2.32015e-06 1.30657e-09 0 7.01798e-11 0 0)
(4.80483e-05 5.87497e-06 0 2.05715e-05 0 0)
(3.36001e-05 1.04313e-05 0 1.13081e-05 0 0)
(2.22145e-05 6.89618e-06 0 5.15821e-06 0 0)
(1.45169e-05 3.54604e-06 0 2.06252e-06 0 0)
(1.03349e-05 1.73909e-06 0 8.25173e-07 0 0)
(8.13557e-06 8.59598e-07 0 3.48725e-07 0 0)
(6.96785e-06 4.3412e-07 0 1.61064e-07 0 0)
(6.34922e-06 2.238e-07 0 8.19351e-08 0 0)
(6.02535e-06 1.16665e-07 0 4.52886e-08 0 0)
(5.85908e-06 6.06762e-08 0 2.6654e-08 0 0)
(5.77619e-06 3.10955e-08 0 1.64067e-08 0 0)
(5.7362e-06 1.5482e-08 0 1.04291e-08 0 0)
(5.71754e-06 7.42749e-09 0 6.78951e-09 0 0)
(5.70872e-06 3.50987e-09 0 4.50894e-09 0 0)
(5.70339e-06 1.81514e-09 0 3.05955e-09 0 0)
(5.69824e-06 1.43186e-09 0 2.14243e-09 0 0)
(5.69167e-06 1.91607e-09 0 1.58223e-09 0 0)
(5.68186e-06 2.91991e-09 0 1.27132e-09 0 0)
(5.65818e-06 3.87428e-09 0 1.1231e-09 0 0)
(5.66517e-06 4.49469e-09 0 1.24547e-09 0 0)
(4.83839e-05 1.99868e-06 0 2.09871e-05 0 0)
(3.12193e-05 6.78632e-06 0 1.19307e-05 0 0)
(2.23457e-05 7.10863e-06 0 7.87299e-06 0 0)
(1.69034e-05 5.32952e-06 0 4.48598e-06 0 0)
(1.32832e-05 3.469e-06 0 2.40168e-06 0 0)
(1.0827e-05 2.11555e-06 0 1.27354e-06 0 0)
(9.20888e-06 1.25133e-06 0 6.91336e-07 0 0)
(8.18374e-06 7.29332e-07 0 3.89799e-07 0 0)
(7.55531e-06 4.21146e-07 0 2.28445e-07 0 0)
(7.18014e-06 2.40882e-07 0 1.38354e-07 0 0)
(6.96155e-06 1.36039e-07 0 8.59486e-08 0 0)
(6.8375e-06 7.55307e-08 0 5.43721e-08 0 0)
(6.76909e-06 4.1145e-08 0 3.48006e-08 0 0)
(6.73229e-06 2.20353e-08 0 2.2426e-08 0 0)
(6.71276e-06 1.18826e-08 0 1.45257e-08 0 0)
(6.70216e-06 6.91495e-09 0 9.51693e-09 0 0)
(6.69566e-06 4.8936e-09 0 6.44556e-09 0 0)
(6.68949e-06 4.41595e-09 0 4.6934e-09 0 0)
(6.67802e-06 4.43002e-09 0 3.81027e-09 0 0)
(6.67258e-06 3.81654e-09 0 3.72959e-09 0 0)
(4.48302e-05 -1.3062e-07 0 2.19404e-05 0 0)
(2.75155e-05 3.19275e-06 0 1.16652e-05 0 0)
(1.93074e-05 4.92789e-06 0 8.66534e-06 0 0)
(1.54279e-05 4.97079e-06 0 5.9937e-06 0 0)
(1.30714e-05 4.08227e-06 0 3.88268e-06 0 0)
(1.12629e-05 2.99675e-06 0 2.42486e-06 0 0)
(9.83893e-06 2.06457e-06 0 1.49768e-06 0 0)
(8.76639e-06 1.37066e-06 0 9.2873e-07 0 0)
(7.99515e-06 8.89378e-07 0 5.81904e-07 0 0)
(7.46051e-06 5.68015e-07 0 3.68769e-07 0 0)
(7.10036e-06 3.5809e-07 0 2.35956e-07 0 0)
(6.86353e-06 2.22906e-07 0 1.51926e-07 0 0)
(6.7112e-06 1.36818e-07 0 9.80142e-08 0 0)
(6.6154e-06 8.26357e-08 0 6.30597e-08 0 0)
(6.55658e-06 4.90771e-08 0 4.03204e-08 0 0)
(6.52148e-06 2.87072e-08 0 2.56811e-08 0 0)
(6.5015e-06 1.66462e-08 0 1.65673e-08 0 0)
(6.49019e-06 9.60409e-09 0 1.1269e-08 0 0)
(6.48442e-06 5.22494e-09 0 8.53114e-09 0 0)
(6.46872e-06 1.59931e-09 0 7.71823e-09 0 0)
(4.64002e-05 1.54372e-07 0 2.12018e-05 0 0)
(2.73255e-05 1.1434e-06 0 1.06835e-05 0 0)
(1.77282e-05 2.83087e-06 0 8.11204e-06 0 0)
(1.3696e-05 3.71087e-06 0 6.28434e-06 0 0)
(1.1858e-05 3.69715e-06 0 4.65269e-06 0 0)
(1.06413e-05 3.18002e-06 0 3.28963e-06 0 0)
(9.63675e-06 2.50735e-06 0 2.25611e-06 0 0)
(8.78431e-06 1.8719e-06 0 1.52121e-06 0 0)
(8.08658e-06 1.34797e-06 0 1.01698e-06 0 0)
(7.54026e-06 9.46183e-07 0 6.77064e-07 0 0)
(7.12911e-06 6.50949e-07 0 4.49522e-07 0 0)
(6.83002e-06 4.39846e-07 0 2.97362e-07 0 0)
(6.61892e-06 2.91767e-07 0 1.95443e-07 0 0)
(6.47421e-06 1.89486e-07 0 1.27093e-07 0 0)
(6.37809e-06 1.19835e-07 0 8.14193e-08 0 0)
(6.31677e-06 7.30642e-08 0 5.13451e-08 0 0)
(6.28008e-06 4.20709e-08 0 3.22368e-08 0 0)
(6.26007e-06 2.17259e-08 0 2.09102e-08 0 0)
(6.25581e-06 8.3182e-09 0 1.49622e-08 0 0)
(6.22981e-06 -6.83259e-10 0 1.28371e-08 0 0)
(4.90389e-05 -4.48455e-08 0 2.33478e-05 0 0)
(2.75761e-05 1.23001e-06 0 1.07814e-05 0 0)
(1.6957e-05 1.99313e-06 0 7.86485e-06 0 0)
(1.25597e-05 2.65851e-06 0 6.23506e-06 0 0)
(1.07718e-05 2.95928e-06 0 4.91553e-06 0 0)
(9.84296e-06 2.86844e-06 0 3.75131e-06 0 0)
(9.18483e-06 2.52581e-06 0 2.77301e-06 0 0)
(8.63039e-06 2.08069e-06 0 1.99908e-06 0 0)
(8.14672e-06 1.63417e-06 0 1.41461e-06 0 0)
(7.73563e-06 1.2382e-06 0 9.87101e-07 0 0)
(7.40061e-06 9.11348e-07 0 6.80844e-07 0 0)
(7.13894e-06 6.53801e-07 0 4.64269e-07 0 0)
(6.9425e-06 4.57443e-07 0 3.12372e-07 0 0)
(6.80052e-06 3.115e-07 0 2.06573e-07 0 0)
(6.7019e-06 2.05302e-07 0 1.33622e-07 0 0)
(6.63666e-06 1.29424e-07 0 8.43054e-08 0 0)
(6.59667e-06 7.60611e-08 0 5.22426e-08 0 0)
(6.57507e-06 3.9053e-08 0 3.28475e-08 0 0)
(6.57441e-06 1.38277e-08 0 2.25134e-08 0 0)
(6.54039e-06 -2.24796e-09 0 1.8586e-08 0 0)
(4.53953e-05 -1.72655e-06 0 2.20336e-05 0 0)
(2.65883e-05 -4.41156e-07 0 1.14538e-05 0 0)
(1.6435e-05 7.87774e-07 0 8.05581e-06 0 0)
(1.19341e-05 1.62763e-06 0 6.20193e-06 0 0)
(1.00638e-05 2.12528e-06 0 4.93979e-06 0 0)
(9.21595e-06 2.30073e-06 0 3.90974e-06 0 0)
(8.76761e-06 2.22148e-06 0 3.0305e-06 0 0)
(8.47612e-06 1.98193e-06 0 2.29458e-06 0 0)
(8.24966e-06 1.66799e-06 0 1.70026e-06 0 0)
(8.05935e-06 1.34139e-06 0 1.23622e-06 0 0)
(7.89933e-06 1.03904e-06 0 8.83499e-07 0 0)
(7.76926e-06 7.78692e-07 0 6.20725e-07 0 0)
(7.66816e-06 5.65541e-07 0 4.27937e-07 0 0)
(7.59327e-06 3.97539e-07 0 2.88405e-07 0 0)
(7.54071e-06 2.69081e-07 0 1.8903e-07 0 0)
(7.50634e-06 1.73276e-07 0 1.19989e-07 0 0)
(7.48647e-06 1.03293e-07 0 7.40404e-08 0 0)
(7.47764e-06 5.31189e-08 0 4.56844e-08 0 0)
(7.48738e-06 1.81203e-08 0 3.03546e-08 0 0)
(7.45023e-06 -3.94064e-09 0 2.43473e-08 0 0)
(4.60057e-05 3.51413e-07 0 2.11412e-05 0 0)
(2.74386e-05 -6.63627e-07 0 1.04484e-05 0 0)
(1.69325e-05 9.57904e-08 0 7.67679e-06 0 0)
(1.19563e-05 8.62579e-07 0 5.98077e-06 0 0)
(9.79774e-06 1.38331e-06 0 4.81109e-06 0 0)
(8.86432e-06 1.65884e-06 0 3.88405e-06 0 0)
(8.49129e-06 1.72584e-06 0 3.09869e-06 0 0)
(8.37809e-06 1.63738e-06 0 2.42658e-06 0 0)
(8.37728e-06 1.45149e-06 0 1.86163e-06 0 0)
(8.41814e-06 1.21948e-06 0 1.39931e-06 0 0)
(8.46925e-06 9.79693e-07 0 1.03076e-06 0 0)
(8.5181e-06 7.56588e-07 0 7.43582e-07 0 0)
(8.56063e-06 5.62978e-07 0 5.24187e-07 0 0)
(8.59621e-06 4.03304e-07 0 3.59684e-07 0 0)
(8.62543e-06 2.76723e-07 0 2.3894e-07 0 0)
(8.64937e-06 1.79513e-07 0 1.52899e-07 0 0)
(8.66924e-06 1.06778e-07 0 9.44006e-08 0 0)
(8.68594e-06 5.36163e-08 0 5.76461e-08 0 0)
(8.7125e-06 1.60488e-08 0 3.75054e-08 0 0)
(8.67727e-06 -7.59047e-09 0 2.94577e-08 0 0)
(4.80081e-05 -9.49257e-07 0 2.09485e-05 0 0)
(2.92359e-05 -4.09399e-07 0 1.00125e-05 0 0)
(1.78811e-05 7.94607e-08 0 7.36896e-06 0 0)
(1.22789e-05 5.10271e-07 0 5.78527e-06 0 0)
(9.79962e-06 8.41648e-07 0 4.67425e-06 0 0)
(8.73011e-06 1.0559e-06 0 3.80251e-06 0 0)
(8.35349e-06 1.14886e-06 0 3.07726e-06 0 0)
(8.33476e-06 1.1343e-06 0 2.45843e-06 0 0)
(8.48967e-06 1.04009e-06 0 1.93018e-06 0 0)
(8.7129e-06 8.98329e-07 0 1.48572e-06 0 0)
(8.94638e-06 7.37522e-07 0 1.11943e-06 0 0)
(9.16065e-06 5.78708e-07 0 8.24126e-07 0 0)
(9.34321e-06 4.34967e-07 0 5.91201e-07 0 0)
(9.49109e-06 3.12712e-07 0 4.11533e-07 0 0)
(9.60629e-06 2.13576e-07 0 2.76427e-07 0 0)
(9.69316e-06 1.36215e-07 0 1.78184e-07 0 0)
(9.75675e-06 7.77426e-08 0 1.10257e-07 0 0)
(9.80179e-06 3.48126e-08 0 6.69789e-08 0 0)
(9.84604e-06 4.51556e-09 0 4.30058e-08 0 0)
(9.81508e-06 -1.44423e-08 0 3.33019e-08 0 0)
(4.55779e-05 1.20328e-06 0 2.22247e-05 0 0)
(2.76677e-05 5.30946e-07 0 1.06118e-05 0 0)
(1.74465e-05 2.19386e-07 0 7.61603e-06 0 0)
(1.22909e-05 2.49476e-07 0 5.84269e-06 0 0)
(9.85195e-06 3.78184e-07 0 4.64875e-06 0 0)
(8.72619e-06 4.88417e-07 0 3.7586e-06 0 0)
(8.32008e-06 5.46335e-07 0 3.0482e-06 0 0)
(8.32658e-06 5.50256e-07 0 2.45498e-06 0 0)
(8.55256e-06 5.11347e-07 0 1.94978e-06 0 0)
(8.87328e-06 4.44869e-07 0 1.52022e-06 0 0)
(9.21233e-06 3.65365e-07 0 1.1601e-06 0 0)
(9.5271e-06 2.84304e-07 0 8.6413e-07 0 0)
(9.79749e-06 2.09382e-07 0 6.2626e-07 0 0)
(1.00173e-05 1.44846e-07 0 4.39649e-07 0 0)
(1.01884e-05 9.22763e-08 0 2.97272e-07 0 0)
(1.03164e-05 5.14473e-08 0 1.92485e-07 0 0)
(1.04086e-05 2.10892e-08 0 1.19308e-07 0 0)
(1.04721e-05 -5.27737e-10 0 7.22998e-08 0 0)
(1.05273e-05 -1.51051e-08 0 4.60896e-08 0 0)
(1.0499e-05 -2.3888e-08 0 3.54017e-08 0 0)
(5.20907e-05 1.62395e-06 0 2.18319e-05 0 0)
(3.14261e-05 -3.23208e-07 0 1.08372e-05 0 0)
(1.92872e-05 -2.73607e-07 0 7.65298e-06 0 0)
(1.31567e-05 -1.11508e-07 0 5.83125e-06 0 0)
(1.0258e-05 -4.06028e-08 0 4.63684e-06 0 0)
(8.90281e-06 -2.66635e-08 0 3.75292e-06 0 0)
(8.38198e-06 -3.38706e-08 0 3.04632e-06 0 0)
(8.33588e-06 -4.37127e-08 0 2.45493e-06 0 0)
(8.54274e-06 -5.02325e-08 0 1.95096e-06 0 0)
(8.86132e-06 -5.33538e-08 0 1.52246e-06 0 0)
(9.20573e-06 -5.44888e-08 0 1.16313e-06 0 0)
(9.52819e-06 -5.47108e-08 0 8.6751e-07 0 0)
(9.80591e-06 -5.44297e-08 0 6.29532e-07 0 0)
(1.00315e-05 -5.36085e-08 0 4.4247e-07 0 0)
(1.02066e-05 -5.20361e-08 0 2.9946e-07 0 0)
(1.03368e-05 -4.95305e-08 0 1.94012e-07 0 0)
(1.04298e-05 -4.6052e-08 0 1.20253e-07 0 0)
(1.0493e-05 -4.17604e-08 0 7.28029e-08 0 0)
(1.05472e-05 -3.71132e-08 0 4.63065e-08 0 0)
(1.05172e-05 -3.34294e-08 0 3.54842e-08 0 0)
(5.11893e-05 5.20604e-07 0 2.29788e-05 0 0)
(3.19557e-05 4.87447e-07 0 1.11353e-05 0 0)
(2.00841e-05 2.82533e-07 0 7.7504e-06 0 0)
(1.36994e-05 1.87422e-08 0 5.91924e-06 0 0)
(1.05582e-05 -2.39034e-07 0 4.74164e-06 0 0)
(9.06155e-06 -4.38498e-07 0 3.84388e-06 0 0)
(8.44924e-06 -5.54326e-07 0 3.1019e-06 0 0)
(8.32104e-06 -5.89856e-07 0 2.47281e-06 0 0)
(8.44062e-06 -5.65725e-07 0 1.94012e-06 0 0)
(8.66732e-06 -5.06274e-07 0 1.49487e-06 0 0)
(8.92114e-06 -4.31702e-07 0 1.12906e-06 0 0)
(9.16004e-06 -3.55669e-07 0 8.33975e-07 0 0)
(9.36497e-06 -2.85866e-07 0 6.00423e-07 0 0)
(9.53015e-06 -2.25625e-07 0 4.19365e-07 0 0)
(9.65696e-06 -1.7553e-07 0 2.82456e-07 0 0)
(9.75024e-06 -1.347e-07 0 1.82371e-07 0 0)
(9.81609e-06 -1.01684e-07 0 1.1284e-07 0 0)
(9.86036e-06 -7.50696e-08 0 6.83482e-08 0 0)
(9.90157e-06 -5.40656e-08 0 4.35935e-08 0 0)
(9.86569e-06 -3.98296e-08 0 3.35263e-08 0 0)
(5.27171e-05 3.09586e-07 0 2.10511e-05 0 0)
(3.23018e-05 7.96184e-07 0 1.06814e-05 0 0)
(1.98145e-05 5.64908e-07 0 7.88332e-06 0 0)
(1.34587e-05 -7.84567e-11 0 6.24309e-06 0 0)
(1.04769e-05 -5.35381e-07 0 5.04172e-06 0 0)
(9.07943e-06 -8.91198e-07 0 4.04243e-06 0 0)
(8.47071e-06 -1.05183e-06 0 3.19111e-06 0 0)
(8.26313e-06 -1.05958e-06 0 2.47619e-06 0 0)
(8.24929e-06 -9.7122e-07 0 1.88949e-06 0 0)
(8.31821e-06 -8.35955e-07 0 1.41844e-06 0 0)
(8.41295e-06 -6.8815e-07 0 1.04703e-06 0 0)
(8.5062e-06 -5.48164e-07 0 7.58548e-07 0 0)
(8.5864e-06 -4.25855e-07 0 5.37545e-07 0 0)
(8.65005e-06 -3.24307e-07 0 3.70763e-07 0 0)
(8.69766e-06 -2.42744e-07 0 2.47354e-07 0 0)
(8.73156e-06 -1.78547e-07 0 1.5869e-07 0 0)
(8.75482e-06 -1.28532e-07 0 9.79478e-08 0 0)
(8.77021e-06 -8.97798e-08 0 5.95134e-08 0 0)
(8.79195e-06 -6.03219e-08 0 3.83004e-08 0 0)
(8.74903e-06 -4.07017e-08 0 2.97633e-08 0 0)
(4.93421e-05 -7.2364e-07 0 2.34012e-05 0 0)
(2.92379e-05 8.29281e-07 0 1.15934e-05 0 0)
(1.80765e-05 3.33991e-07 0 8.7136e-06 0 0)
(1.27106e-05 -5.32288e-07 0 6.899e-06 0 0)
(1.02746e-05 -1.17267e-06 0 5.45584e-06 0 0)
(9.11166e-06 -1.48613e-06 0 4.22649e-06 0 0)
(8.52281e-06 -1.53267e-06 0 3.20247e-06 0 0)
(8.20359e-06 -1.41088e-06 0 2.38182e-06 0 0)
(8.01375e-06 -1.20824e-06 0 1.74548e-06 0 0)
(7.88916e-06 -9.84913e-07 0 1.26352e-06 0 0)
(7.80087e-06 -7.75036e-07 0 9.03875e-07 0 0)
(7.73536e-06 -5.94126e-07 0 6.37947e-07 0 0)
(7.68568e-06 -4.46364e-07 0 4.42623e-07 0 0)
(7.64766e-06 -3.2994e-07 0 3.00279e-07 0 0)
(7.61857e-06 -2.40398e-07 0 1.97902e-07 0 0)
(7.5966e-06 -1.72544e-07 0 1.2602e-07 0 0)
(7.58077e-06 -1.21477e-07 0 7.76956e-08 0 0)
(7.57013e-06 -8.31365e-08 0 4.75893e-08 0 0)
(7.57375e-06 -5.46878e-08 0 3.11563e-08 0 0)
(7.52699e-06 -3.57351e-08 0 2.46598e-08 0 0)
(4.96272e-05 5.94213e-07 0 2.30745e-05 0 0)
(2.90856e-05 1.24724e-07 0 1.25048e-05 0 0)
(1.78512e-05 -1.04798e-06 0 9.52361e-06 0 0)
(1.27789e-05 -1.85156e-06 0 7.39842e-06 0 0)
(1.05659e-05 -2.19023e-06 0 5.62477e-06 0 0)
(9.42699e-06 -2.15736e-06 0 4.14258e-06 0 0)
(8.71262e-06 -1.90478e-06 0 2.97272e-06 0 0)
(8.19832e-06 -1.566e-06 0 2.09655e-06 0 0)
(7.80332e-06 -1.22696e-06 0 1.46338e-06 0 0)
(7.49532e-06 -9.29982e-07 0 1.01508e-06 0 0)
(7.25717e-06 -6.88696e-07 0 7.00489e-07 0 0)
(7.07595e-06 -5.01605e-07 0 4.80059e-07 0 0)
(6.94034e-06 -3.60948e-07 0 3.25385e-07 0 0)
(6.84037e-06 -2.57411e-07 0 2.16856e-07 0 0)
(6.76773e-06 -1.82273e-07 0 1.41175e-07 0 0)
(6.71589e-06 -1.28172e-07 0 8.93661e-08 0 0)
(6.6801e-06 -8.9267e-08 0 5.52682e-08 0 0)
(6.6564e-06 -6.11577e-08 0 3.44028e-08 0 0)
(6.64908e-06 -4.07612e-08 0 2.31571e-08 0 0)
(6.60479e-06 -2.68111e-08 0 1.88464e-08 0 0)
(4.44808e-05 -2.12176e-06 0 2.30211e-05 0 0)
(2.77078e-05 -3.1823e-06 0 1.18594e-05 0 0)
(1.8344e-05 -3.45316e-06 0 9.28908e-06 0 0)
(1.37264e-05 -3.49306e-06 0 7.10866e-06 0 0)
(1.14154e-05 -3.16334e-06 0 5.15252e-06 0 0)
(9.99886e-06 -2.59423e-06 0 3.56552e-06 0 0)
(8.98768e-06 -1.98098e-06 0 2.39785e-06 0 0)
(8.22984e-06 -1.44181e-06 0 1.59127e-06 0 0)
(7.66364e-06 -1.01698e-06 0 1.05266e-06 0 0)
(7.24833e-06 -7.0309e-07 0 6.97813e-07 0 0)
(6.94956e-06 -4.80154e-07 0 4.64045e-07 0 0)
(6.73812e-06 -3.25712e-07 0 3.08836e-07 0 0)
(6.59031e-06 -2.20451e-07 0 2.04706e-07 0 0)
(6.48785e-06 -1.49519e-07 0 1.3427e-07 0 0)
(6.41717e-06 -1.02096e-07 0 8.6594e-08 0 0)
(6.3687e-06 -7.04987e-08 0 5.47545e-08 0 0)
(6.336e-06 -4.9371e-08 0 3.42419e-08 0 0)
(6.31404e-06 -3.5001e-08 0 2.19226e-08 0 0)
(6.30363e-06 -2.47666e-08 0 1.53708e-08 0 0)
(6.26825e-06 -1.69841e-08 0 1.30188e-08 0 0)
(5.13565e-05 -1.93998e-06 0 2.23567e-05 0 0)
(3.17853e-05 -3.38789e-06 0 1.09256e-05 0 0)
(2.08891e-05 -4.55625e-06 0 8.37718e-06 0 0)
(1.53602e-05 -4.36716e-06 0 6.00899e-06 0 0)
(1.23489e-05 -3.45707e-06 0 3.97751e-06 0 0)
(1.04024e-05 -2.45292e-06 0 2.50807e-06 0 0)
(9.06236e-06 -1.63154e-06 0 1.55118e-06 0 0)
(8.1494e-06 -1.0437e-06 0 9.59188e-07 0 0)
(7.54465e-06 -6.51778e-07 0 5.99215e-07 0 0)
(7.15432e-06 -4.00901e-07 0 3.79721e-07 0 0)
(6.90744e-06 -2.44355e-07 0 2.43951e-07 0 0)
(6.75358e-06 -1.484e-07 0 1.58272e-07 0 0)
(6.6585e-06 -9.04505e-08 0 1.03072e-07 0 0)
(6.59964e-06 -5.6062e-08 0 6.69038e-08 0 0)
(6.56265e-06 -3.60612e-08 0 4.30395e-08 0 0)
(6.5386e-06 -2.46981e-08 0 2.74383e-08 0 0)
(6.52222e-06 -1.83494e-08 0 1.75813e-08 0 0)
(6.50964e-06 -1.47089e-08 0 1.17704e-08 0 0)
(6.49925e-06 -1.20908e-08 0 8.72621e-09 0 0)
(6.47669e-06 -8.92725e-09 0 7.8281e-09 0 0)
(4.59653e-05 -3.01297e-06 0 2.30456e-05 0 0)
(2.97974e-05 -5.26446e-06 0 1.16215e-05 0 0)
(2.09008e-05 -5.6777e-06 0 7.58957e-06 0 0)
(1.54543e-05 -4.34934e-06 0 4.3583e-06 0 0)
(1.19998e-05 -2.8226e-06 0 2.36612e-06 0 0)
(9.79077e-06 -1.6856e-06 0 1.2734e-06 0 0)
(8.42445e-06 -9.6174e-07 0 6.99382e-07 0 0)
(7.61811e-06 -5.32905e-07 0 3.97167e-07 0 0)
(7.16367e-06 -2.88028e-07 0 2.33784e-07 0 0)
(6.91879e-06 -1.51413e-07 0 1.42226e-07 0 0)
(6.79342e-06 -7.6758e-08 0 8.89342e-08 0 0)
(6.73348e-06 -3.69651e-08 0 5.67576e-08 0 0)
(6.70733e-06 -1.66489e-08 0 3.66765e-08 0 0)
(6.69714e-06 -7.07659e-09 0 2.38243e-08 0 0)
(6.6933e-06 -3.2552e-09 0 1.54959e-08 0 0)
(6.69084e-06 -2.44223e-09 0 1.01323e-08 0 0)
(6.68741e-06 -3.02931e-09 0 6.79517e-09 0 0)
(6.681e-06 -4.02398e-09 0 4.86441e-09 0 0)
(6.6672e-06 -4.62572e-09 0 3.87461e-09 0 0)
(6.65849e-06 -3.75483e-09 0 3.79129e-09 0 0)
(4.26385e-05 -4.03672e-06 0 1.96121e-05 0 0)
(2.9059e-05 -9.15469e-06 0 1.10955e-05 0 0)
(1.92363e-05 -6.11877e-06 0 5.09937e-06 0 0)
(1.26822e-05 -3.07502e-06 0 2.04262e-06 0 0)
(9.16767e-06 -1.45652e-06 0 8.19112e-07 0 0)
(7.36678e-06 -6.88535e-07 0 3.48192e-07 0 0)
(6.45422e-06 -3.27988e-07 0 1.62242e-07 0 0)
(6.0057e-06 -1.56147e-07 0 8.32393e-08 0 0)
(5.79649e-06 -7.27133e-08 0 4.63096e-08 0 0)
(5.70721e-06 -3.18541e-08 0 2.74113e-08 0 0)
(5.6756e-06 -1.19823e-08 0 1.69896e-08 0 0)
(5.66934e-06 -2.68138e-09 0 1.08863e-08 0 0)
(5.67218e-06 1.24676e-09 0 7.14182e-09 0 0)
(5.6766e-06 2.53695e-09 0 4.76989e-09 0 0)
(5.67914e-06 2.51429e-09 0 3.24219e-09 0 0)
(5.67838e-06 1.7893e-09 0 2.26173e-09 0 0)
(5.674e-06 6.05133e-10 0 1.65385e-09 0 0)
(5.66502e-06 -7.30131e-10 0 1.31087e-09 0 0)
(5.6414e-06 -1.72876e-09 0 1.14019e-09 0 0)
(5.64827e-06 -1.90079e-09 0 1.28194e-09 0 0)
(3.7715e-05 -9.63991e-06 0 9.58276e-06 0 0)
(2.32726e-05 -5.79883e-06 0 2.08259e-06 0 0)
(1.02262e-05 -1.65229e-06 0 4.37447e-07 0 0)
(5.0421e-06 -4.34955e-07 0 9.46035e-08 0 0)
(3.44059e-06 -1.3988e-07 0 2.64455e-08 0 0)
(2.87932e-06 -5.35504e-08 0 8.75812e-09 0 0)
(2.64899e-06 -2.39531e-08 0 3.50693e-09 0 0)
(2.54306e-06 -1.22352e-08 0 1.72161e-09 0 0)
(2.48893e-06 -6.82578e-09 0 9.80198e-10 0 0)
(2.45777e-06 -3.94882e-09 0 6.12772e-10 0 0)
(2.43709e-06 -2.2561e-09 0 4.07471e-10 0 0)
(2.42119e-06 -1.22643e-09 0 2.83477e-10 0 0)
(2.40751e-06 -5.67501e-10 0 2.05054e-10 0 0)
(2.3948e-06 -1.32716e-10 0 1.54228e-10 0 0)
(2.38233e-06 1.04103e-10 0 1.21221e-10 0 0)
(2.36935e-06 1.01271e-10 0 1.00629e-10 0 0)
(2.35506e-06 -2.48075e-10 0 9.03892e-11 0 0)
(2.3378e-06 -8.27036e-10 0 9.9185e-11 0 0)
(2.30263e-06 -4.45174e-10 0 5.97184e-11 0 0)
(2.31571e-06 -4.9376e-10 0 6.97481e-11 0 0)
)
;

boundaryField
{
    upperWall
    {
        type            calculated;
        value           uniform (0 0 0 0 0 0);
    }
    lowerWall
    {
        type            calculated;
        value           uniform (0 0 0 0 0 0);
    }
    inlet
    {
        type            calculated;
        value           nonuniform List<symmTensor> 
20
(
(9.55378e-05 4.19976e-07 6.11363e-07 9.52208e-05 8.41262e-06 9.85504e-05)
(9.36343e-05 -1.74551e-06 7.73489e-06 0.000100629 -5.78075e-06 9.28429e-05)
(0.000100077 -1.02258e-06 -4.56144e-06 9.782e-05 9.16459e-06 8.83615e-05)
(9.41828e-05 -2.82303e-06 -2.53927e-06 9.96439e-05 2.09371e-06 8.91955e-05)
(9.45988e-05 2.10754e-06 6.02014e-07 9.28938e-05 -7.81713e-06 0.00010122)
(0.000103604 -1.98824e-06 2.27853e-06 0.000102884 -4.47294e-07 0.000100304)
(9.27274e-05 -9.79169e-07 -2.0986e-06 9.05136e-05 -2.78369e-06 9.18683e-05)
(9.0713e-05 7.30343e-06 -3.51048e-06 0.000105235 3.93725e-06 0.000103354)
(9.18734e-05 -4.34003e-07 -1.98145e-06 0.000103233 -4.56653e-06 9.1524e-05)
(8.85754e-05 1.94451e-06 7.13992e-06 0.000104198 1.47386e-06 0.000101002)
(0.000100808 1.02894e-05 -1.29066e-06 9.70059e-05 -1.08755e-06 9.02572e-05)
(9.86177e-05 -5.52557e-07 5.84657e-06 0.000103661 -5.74475e-07 9.07739e-05)
(0.000100412 -2.91067e-07 -7.3413e-07 9.20478e-05 -2.09223e-06 0.000101954)
(0.000100004 -5.53142e-06 -2.21492e-06 0.000105499 1.6706e-06 9.79514e-05)
(0.000102559 -2.19632e-06 1.19293e-06 9.73282e-05 2.38458e-06 0.00010063)
(9.03443e-05 -1.90713e-07 5.80686e-06 0.000108451 -1.04795e-06 0.00010808)
(9.73125e-05 -5.52682e-06 -4.02344e-06 0.000101123 1.565e-06 9.41449e-05)
(9.2222e-05 -3.2302e-06 -2.93836e-06 0.000112922 -2.14774e-06 0.000100836)
(8.76618e-05 2.15508e-06 6.74934e-07 9.36515e-05 -1.49246e-06 9.59874e-05)
(9.50135e-05 2.72454e-06 4.10066e-06 9.60706e-05 -7.62031e-06 0.000107386)
)
;
    }
    outlet
    {
        type            calculated;
        value           nonuniform List<symmTensor> 
20
(
(2.32015e-06 1.30657e-09 0 7.01798e-11 0 0)
(5.66517e-06 4.49469e-09 0 1.24547e-09 0 0)
(6.67258e-06 3.81654e-09 0 3.72959e-09 0 0)
(6.46872e-06 1.59931e-09 0 7.71823e-09 0 0)
(6.22981e-06 -6.83259e-10 0 1.28371e-08 0 0)
(6.54039e-06 -2.24796e-09 0 1.8586e-08 0 0)
(7.45023e-06 -3.94064e-09 0 2.43473e-08 0 0)
(8.67727e-06 -7.59047e-09 0 2.94577e-08 0 0)
(9.81508e-06 -1.44423e-08 0 3.33019e-08 0 0)
(1.0499e-05 -2.3888e-08 0 3.54017e-08 0 0)
(1.05172e-05 -3.34294e-08 0 3.54842e-08 0 0)
(9.86569e-06 -3.98296e-08 0 3.35263e-08 0 0)
(8.74903e-06 -4.07017e-08 0 2.97633e-08 0 0)
(7.52699e-06 -3.57351e-08 0 2.46598e-08 0 0)
(6.60479e-06 -2.68111e-08 0 1.88464e-08 0 0)
(6.26825e-06 -1.69841e-08 0 1.30188e-08 0 0)
(6.47669e-06 -8.92725e-09 0 7.8281e-09 0 0)
(6.65849e-06 -3.75483e-09 0 3.79129e-09 0 0)
(5.64827e-06 -1.90079e-09 0 1.28194e-09 0 0)
(2.31571e-06 -4.9376e-10 0 6.97481e-11 0 0)
)
;
    }
    frontAndBack
    {
        type            empty;
    }
}


// ************************************************************************* //
