/*--------------------------------*- C++ -*----------------------------------*\
  =========                 |
  \\      /  F ield         | OpenFOAM: The Open Source CFD Toolbox
   \\    /   O peration     | Website:  https://openfoam.org
    \\  /    A nd           | Version:  7
     \\/     M anipulation  |
\*---------------------------------------------------------------------------*/
FoamFile
{
    version     2.0;
    format      ascii;
    class       volScalarField;
    location    "2.4675";
    object      nut;
}
// * * * * * * * * * * * * * * * * * * * * * * * * * * * * * * * * * * * * * //

dimensions      [0 2 -1 0 0 0 0];

internalField   nonuniform List<scalar> 
7920
(
0.00875601
0.0091251
0.00912857
0.00913292
0.00912697
0.00912771
0.00912308
0.00912405
0.00912102
0.00912217
0.00912001
0.00912108
0.00911933
0.00912012
0.00911887
0.00911929
0.00911912
0.00911755
0.00912422
0.00913452
0.00451618
0.00454389
0.00444998
0.00435801
0.00431355
0.00429617
0.00428118
0.00427668
0.00426885
0.00426719
0.00426221
0.00426137
0.0042584
0.00425814
0.00425622
0.00425591
0.00425481
0.00425372
0.00428281
0.00428444
0.00345163
0.00368653
0.00371036
0.00370752
0.00369974
0.00369783
0.003693
0.00369218
0.00368885
0.00368826
0.00368564
0.0036852
0.00368313
0.00368278
0.00368113
0.0036808
0.00367948
0.00367896
0.00367965
0.00368465
0.00332048
0.00359157
0.00364311
0.00366172
0.00366661
0.00367341
0.00367456
0.0036782
0.00367848
0.00368072
0.00368065
0.00368214
0.00368193
0.00368301
0.00368271
0.0036835
0.00368316
0.00368371
0.00368378
0.00368838
0.00330603
0.00358054
0.00363482
0.00365673
0.00366427
0.00367383
0.00367699
0.0036835
0.00368549
0.00369026
0.00369168
0.0036954
0.00369646
0.00369942
0.00370022
0.0037026
0.0037032
0.00370497
0.0037057
0.00371079
0.00330757
0.00357983
0.00363379
0.00365601
0.00366429
0.00367481
0.00367895
0.00368666
0.00368958
0.00369568
0.00369798
0.00370295
0.00370481
0.00370893
0.00371043
0.00371385
0.00371508
0.00371769
0.00371918
0.00372441
0.00330757
0.00357983
0.00363379
0.00365601
0.00366429
0.00367481
0.00367895
0.00368666
0.00368958
0.00369568
0.00369798
0.00370295
0.00370481
0.00370893
0.00371043
0.00371386
0.00371508
0.0037177
0.00371919
0.00372443
0.00330603
0.00358054
0.00363482
0.00365673
0.00366426
0.00367383
0.00367699
0.0036835
0.00368549
0.00369026
0.00369168
0.00369541
0.00369645
0.00369943
0.00370021
0.00370263
0.00370319
0.00370501
0.00370571
0.00371085
0.00332048
0.00359157
0.00364311
0.00366172
0.00366661
0.00367341
0.00367455
0.0036782
0.00367847
0.00368073
0.00368064
0.00368216
0.0036819
0.00368304
0.00368267
0.00368358
0.00368307
0.00368388
0.00368366
0.00368855
0.00345163
0.00368653
0.00371036
0.00370752
0.00369974
0.00369783
0.003693
0.00369218
0.00368885
0.00368827
0.00368563
0.00368522
0.0036831
0.00368283
0.00368104
0.00368092
0.00367926
0.0036794
0.00367923
0.00368528
0.00451618
0.00454389
0.00444998
0.00435801
0.00431354
0.00429617
0.00428117
0.00427669
0.00426884
0.00426719
0.00426219
0.00426139
0.00425838
0.00425818
0.00425614
0.00425602
0.00425456
0.00425421
0.0042815
0.00428587
0.00875601
0.0091251
0.00912857
0.00913292
0.00912697
0.00912771
0.00912308
0.00912405
0.00912101
0.00912218
0.00912
0.0091211
0.00911929
0.00912018
0.00911875
0.00911949
0.00911875
0.00911823
0.0091227
0.00913775
0.00336298
0.00377596
0.00379279
0.00376794
0.00376102
0.00374686
0.00374621
0.00373807
0.00373835
0.00373281
0.00373333
0.00372931
0.0037298
0.00372671
0.00372715
0.00372454
0.0037253
0.00372209
0.00372276
0.0037319
0.00297828
0.00348691
0.00355869
0.00356817
0.00356926
0.00356916
0.00356873
0.00356832
0.0035678
0.00356731
0.00356684
0.00356632
0.00356597
0.00356544
0.00356522
0.00356467
0.00356446
0.00356393
0.00356476
0.00356626
0.00289853
0.003413
0.00348839
0.00350359
0.00350612
0.00350968
0.0035107
0.00351314
0.00351392
0.00351575
0.00351635
0.00351768
0.0035182
0.00351914
0.00351968
0.00352021
0.00352088
0.0035209
0.00352133
0.00352783
0.00289637
0.00341095
0.00348552
0.00349994
0.00350092
0.00350293
0.00350281
0.00350395
0.00350417
0.00350531
0.00350567
0.00350671
0.00350715
0.00350805
0.00350862
0.00350918
0.00350999
0.00351011
0.00351084
0.00351506
0.00289336
0.00340759
0.00348216
0.00349694
0.00349773
0.00349945
0.00349886
0.00349964
0.0034993
0.00349999
0.00349988
0.0035005
0.00350056
0.00350116
0.00350133
0.00350187
0.00350209
0.00350257
0.00350286
0.00350731
0.00289498
0.00340934
0.00348367
0.00349835
0.00349909
0.00350079
0.00350015
0.00350088
0.00350045
0.00350105
0.0035008
0.00350132
0.00350121
0.00350167
0.00350167
0.00350207
0.00350214
0.00350249
0.00350257
0.00350667
0.00289498
0.00340934
0.00348367
0.00349835
0.00349909
0.00350079
0.00350015
0.00350088
0.00350045
0.00350105
0.0035008
0.00350132
0.00350121
0.00350168
0.00350167
0.00350208
0.00350214
0.00350249
0.00350258
0.00350666
0.00289336
0.00340759
0.00348216
0.00349694
0.00349773
0.00349945
0.00349886
0.00349964
0.0034993
0.00349999
0.00349987
0.00350051
0.00350056
0.00350117
0.00350131
0.00350189
0.00350207
0.00350259
0.00350283
0.00350731
0.00289637
0.00341095
0.00348552
0.00349994
0.00350092
0.00350293
0.00350281
0.00350396
0.00350417
0.00350532
0.00350566
0.00350673
0.00350714
0.00350809
0.00350853
0.0035093
0.00350983
0.00351022
0.00351073
0.00351517
0.00289853
0.003413
0.00348838
0.00350359
0.00350612
0.00350968
0.00351069
0.00351314
0.00351392
0.00351575
0.00351634
0.00351771
0.00351817
0.00351921
0.00351957
0.0035204
0.00352059
0.00352126
0.00352088
0.00352829
0.00297828
0.00348691
0.00355869
0.00356817
0.00356926
0.00356917
0.00356873
0.00356832
0.00356779
0.00356732
0.00356683
0.00356634
0.00356594
0.0035655
0.00356513
0.00356482
0.00356419
0.00356434
0.00356405
0.00356755
0.00336298
0.00377596
0.00379279
0.00376794
0.00376102
0.00374686
0.00374621
0.00373807
0.00373834
0.00373281
0.00373333
0.00372932
0.00372979
0.00372673
0.00372712
0.0037246
0.00372522
0.00372232
0.00372242
0.00373288
0.00083852
0.00123547
0.00129257
0.00127573
0.00123243
0.00119187
0.00115954
0.00113602
0.00111848
0.00110468
0.0010946
0.00108534
0.00107888
0.00107194
0.00106745
0.00106213
0.00105841
0.00105546
0.00104952
0.0010553
0.000356022
0.000750834
0.000881107
0.000931617
0.000948921
0.000959608
0.000964921
0.000970694
0.000973566
0.000976636
0.000977666
0.000978897
0.000978966
0.000979147
0.000978892
0.000978748
0.000978279
0.000977965
0.000977357
0.000979475
0.000307718
0.000664826
0.000783352
0.000836456
0.000852568
0.000864262
0.000866974
0.000872478
0.00087441
0.000878587
0.000880627
0.000884315
0.000886509
0.000889536
0.000891785
0.000894201
0.000896432
0.000898411
0.000899886
0.000903567
0.000316829
0.000668842
0.000784464
0.000835283
0.000851032
0.000860798
0.000862252
0.00086484
0.000864976
0.000865861
0.000866107
0.000866942
0.000867419
0.000868298
0.000869211
0.000869876
0.00087119
0.000871801
0.000872925
0.000875754
0.00031251
0.000664417
0.00077961
0.000830705
0.000846145
0.00085593
0.000857141
0.0008595
0.000859314
0.000859744
0.000859497
0.000859686
0.000859556
0.000859666
0.000859692
0.000859764
0.000859979
0.000860051
0.000860286
0.000862131
0.000314935
0.000666894
0.000782105
0.000832849
0.000848385
0.000858033
0.000859373
0.000861659
0.000861509
0.000861888
0.000861638
0.000861746
0.000861564
0.00086156
0.000861492
0.000861379
0.000861399
0.000861315
0.00086142
0.000863014
0.000314935
0.000666894
0.000782104
0.000832849
0.000848385
0.000858033
0.000859373
0.000861659
0.000861509
0.000861888
0.000861637
0.000861746
0.000861564
0.00086156
0.000861492
0.00086138
0.000861398
0.000861316
0.000861418
0.000863013
0.000312509
0.000664417
0.000779609
0.000830706
0.000846145
0.00085593
0.00085714
0.0008595
0.000859314
0.000859744
0.000859497
0.000859686
0.000859556
0.000859667
0.000859691
0.000859763
0.000859978
0.000860048
0.000860283
0.000862121
0.000316829
0.000668842
0.000784463
0.000835283
0.000851031
0.000860798
0.000862252
0.00086484
0.000864976
0.000865862
0.000866107
0.000866946
0.00086741
0.00086831
0.00086919
0.000869891
0.000871167
0.000871789
0.000872902
0.000875714
0.000307717
0.000664827
0.000783351
0.000836456
0.000852568
0.000864263
0.000866974
0.000872478
0.000874409
0.00087859
0.00088062
0.000884323
0.000886493
0.000889554
0.000891748
0.000894229
0.000896373
0.000898408
0.000899839
0.000903483
0.000356022
0.000750834
0.000881106
0.000931618
0.00094892
0.000959609
0.000964919
0.000970697
0.000973561
0.000976642
0.000977657
0.000978905
0.00097896
0.000979151
0.000978854
0.000978755
0.000978207
0.000977986
0.000977258
0.00097948
0.00083852
0.00123547
0.00129257
0.00127573
0.00123243
0.00119187
0.00115954
0.00113602
0.00111848
0.00110468
0.0010946
0.00108535
0.00107888
0.00107198
0.00106745
0.00106224
0.00105843
0.00105569
0.0010496
0.00105598
0.00083852
0.00123547
0.00129257
0.00127573
0.00123243
0.00119187
0.00115954
0.00113602
0.00111848
0.00110468
0.0010946
0.00108534
0.00107888
0.00107194
0.00106745
0.00106213
0.00105841
0.00105546
0.00104952
0.0010553
0.000356022
0.000750834
0.000881107
0.000931617
0.000948921
0.000959608
0.000964921
0.000970694
0.000973566
0.000976636
0.000977666
0.000978897
0.000978966
0.000979147
0.000978892
0.000978748
0.000978279
0.000977965
0.000977357
0.000979475
0.000307718
0.000664826
0.000783352
0.000836456
0.000852568
0.000864262
0.000866974
0.000872478
0.00087441
0.000878587
0.000880627
0.000884315
0.000886509
0.000889536
0.000891785
0.000894201
0.000896432
0.000898411
0.000899886
0.000903567
0.000316829
0.000668842
0.000784464
0.000835283
0.000851032
0.000860798
0.000862252
0.00086484
0.000864977
0.000865862
0.000866107
0.000866942
0.000867419
0.000868298
0.000869211
0.000869876
0.00087119
0.000871801
0.000872925
0.000875754
0.00031251
0.000664417
0.00077961
0.000830706
0.000846145
0.00085593
0.000857141
0.0008595
0.000859314
0.000859744
0.000859497
0.000859686
0.000859556
0.000859666
0.000859692
0.000859764
0.000859979
0.000860051
0.000860286
0.000862131
0.000314935
0.000666894
0.000782105
0.000832849
0.000848385
0.000858033
0.000859373
0.000861659
0.000861509
0.000861888
0.000861638
0.000861746
0.000861564
0.00086156
0.000861492
0.000861379
0.000861399
0.000861315
0.00086142
0.000863014
0.000314935
0.000666894
0.000782104
0.000832849
0.000848385
0.000858033
0.000859373
0.000861659
0.000861509
0.000861888
0.000861637
0.000861746
0.000861564
0.00086156
0.000861492
0.00086138
0.000861398
0.000861316
0.000861418
0.000863013
0.000312509
0.000664417
0.000779609
0.000830706
0.000846145
0.00085593
0.00085714
0.0008595
0.000859314
0.000859744
0.000859497
0.000859686
0.000859556
0.000859667
0.000859692
0.000859763
0.000859978
0.000860049
0.000860283
0.000862121
0.000316829
0.000668842
0.000784463
0.000835283
0.000851031
0.000860798
0.000862252
0.00086484
0.000864977
0.000865862
0.000866107
0.000866946
0.000867411
0.00086831
0.00086919
0.000869891
0.000871167
0.000871789
0.000872902
0.000875714
0.000307717
0.000664827
0.000783351
0.000836456
0.000852568
0.000864263
0.000866974
0.000872478
0.000874409
0.00087859
0.00088062
0.000884323
0.000886493
0.000889554
0.000891748
0.000894229
0.000896373
0.000898408
0.000899839
0.000903483
0.000356022
0.000750834
0.000881106
0.000931618
0.00094892
0.000959609
0.000964919
0.000970697
0.000973561
0.000976642
0.000977657
0.000978905
0.00097896
0.000979151
0.000978854
0.000978755
0.000978207
0.000977986
0.000977258
0.00097948
0.00083852
0.00123547
0.00129257
0.00127573
0.00123243
0.00119187
0.00115954
0.00113602
0.00111848
0.00110468
0.0010946
0.00108535
0.00107888
0.00107198
0.00106745
0.00106224
0.00105843
0.00105569
0.0010496
0.00105598
0.00336298
0.00377596
0.00379279
0.00376794
0.00376102
0.00374686
0.00374621
0.00373807
0.00373835
0.00373281
0.00373333
0.00372931
0.0037298
0.00372671
0.00372715
0.00372454
0.0037253
0.00372209
0.00372276
0.0037319
0.00297828
0.00348691
0.00355869
0.00356817
0.00356926
0.00356916
0.00356873
0.00356832
0.0035678
0.00356731
0.00356684
0.00356632
0.00356597
0.00356544
0.00356522
0.00356467
0.00356446
0.00356393
0.00356476
0.00356626
0.00289853
0.003413
0.00348839
0.00350359
0.00350612
0.00350968
0.0035107
0.00351314
0.00351392
0.00351575
0.00351635
0.00351768
0.0035182
0.00351914
0.00351968
0.00352021
0.00352088
0.0035209
0.00352133
0.00352783
0.00289637
0.00341095
0.00348552
0.00349994
0.00350092
0.00350293
0.00350281
0.00350395
0.00350417
0.00350531
0.00350567
0.00350671
0.00350715
0.00350805
0.00350862
0.00350918
0.00350999
0.00351011
0.00351084
0.00351506
0.00289336
0.00340759
0.00348216
0.00349694
0.00349773
0.00349945
0.00349886
0.00349964
0.0034993
0.00349999
0.00349988
0.0035005
0.00350056
0.00350116
0.00350133
0.00350187
0.00350209
0.00350257
0.00350286
0.00350731
0.00289498
0.00340934
0.00348367
0.00349835
0.00349909
0.00350079
0.00350015
0.00350088
0.00350045
0.00350105
0.0035008
0.00350132
0.00350121
0.00350167
0.00350167
0.00350207
0.00350214
0.00350249
0.00350257
0.00350667
0.00289498
0.00340934
0.00348367
0.00349835
0.00349909
0.00350079
0.00350015
0.00350088
0.00350045
0.00350105
0.0035008
0.00350132
0.00350121
0.00350168
0.00350167
0.00350208
0.00350214
0.00350249
0.00350258
0.00350666
0.00289336
0.00340759
0.00348216
0.00349694
0.00349773
0.00349945
0.00349886
0.00349964
0.0034993
0.00349999
0.00349987
0.00350051
0.00350056
0.00350117
0.00350131
0.00350189
0.00350207
0.00350259
0.00350283
0.00350731
0.00289637
0.00341095
0.00348552
0.00349994
0.00350092
0.00350293
0.00350281
0.00350396
0.00350417
0.00350532
0.00350566
0.00350673
0.00350714
0.00350809
0.00350853
0.0035093
0.00350983
0.00351022
0.00351073
0.00351517
0.00289853
0.003413
0.00348838
0.00350359
0.00350612
0.00350968
0.00351069
0.00351314
0.00351392
0.00351575
0.00351634
0.00351771
0.00351817
0.00351921
0.00351957
0.0035204
0.00352059
0.00352126
0.00352088
0.00352829
0.00297828
0.00348691
0.00355869
0.00356817
0.00356926
0.00356917
0.00356873
0.00356832
0.00356779
0.00356732
0.00356683
0.00356634
0.00356594
0.0035655
0.00356513
0.00356482
0.00356419
0.00356434
0.00356405
0.00356755
0.00336298
0.00377596
0.00379279
0.00376794
0.00376102
0.00374686
0.00374621
0.00373807
0.00373834
0.00373281
0.00373333
0.00372932
0.00372979
0.00372673
0.00372712
0.0037246
0.00372522
0.00372232
0.00372242
0.00373288
0.00875601
0.0091251
0.00912857
0.00913292
0.00912697
0.00912771
0.00912308
0.00912405
0.00912102
0.00912217
0.00912001
0.00912108
0.00911933
0.00912012
0.00911887
0.00911929
0.00911912
0.00911755
0.00912422
0.00913452
0.00451618
0.00454389
0.00444998
0.00435801
0.00431355
0.00429617
0.00428118
0.00427668
0.00426885
0.00426719
0.00426221
0.00426137
0.0042584
0.00425814
0.00425622
0.00425591
0.00425481
0.00425372
0.00428281
0.00428444
0.00345163
0.00368653
0.00371036
0.00370752
0.00369974
0.00369783
0.003693
0.00369218
0.00368885
0.00368826
0.00368564
0.0036852
0.00368313
0.00368278
0.00368113
0.0036808
0.00367948
0.00367896
0.00367965
0.00368465
0.00332048
0.00359157
0.00364311
0.00366172
0.00366661
0.00367341
0.00367456
0.0036782
0.00367848
0.00368072
0.00368065
0.00368214
0.00368193
0.00368301
0.00368271
0.0036835
0.00368316
0.00368371
0.00368378
0.00368838
0.00330603
0.00358054
0.00363482
0.00365673
0.00366427
0.00367383
0.00367699
0.0036835
0.00368549
0.00369026
0.00369168
0.0036954
0.00369646
0.00369942
0.00370022
0.0037026
0.0037032
0.00370497
0.0037057
0.00371079
0.00330757
0.00357983
0.00363379
0.00365601
0.00366429
0.00367481
0.00367895
0.00368666
0.00368958
0.00369568
0.00369798
0.00370295
0.00370481
0.00370893
0.00371043
0.00371385
0.00371508
0.00371769
0.00371918
0.00372441
0.00330757
0.00357983
0.00363379
0.00365601
0.00366429
0.00367481
0.00367895
0.00368666
0.00368958
0.00369568
0.00369798
0.00370295
0.00370481
0.00370893
0.00371043
0.00371386
0.00371508
0.0037177
0.00371919
0.00372443
0.00330603
0.00358054
0.00363482
0.00365673
0.00366426
0.00367383
0.00367699
0.0036835
0.00368549
0.00369026
0.00369168
0.00369541
0.00369645
0.00369943
0.00370021
0.00370263
0.00370319
0.00370501
0.00370571
0.00371085
0.00332048
0.00359157
0.00364311
0.00366172
0.00366661
0.00367341
0.00367455
0.0036782
0.00367847
0.00368073
0.00368064
0.00368216
0.0036819
0.00368304
0.00368267
0.00368358
0.00368307
0.00368388
0.00368366
0.00368855
0.00345163
0.00368653
0.00371036
0.00370752
0.00369974
0.00369783
0.003693
0.00369218
0.00368885
0.00368827
0.00368563
0.00368522
0.0036831
0.00368283
0.00368104
0.00368092
0.00367926
0.0036794
0.00367923
0.00368528
0.00451618
0.00454389
0.00444998
0.00435801
0.00431354
0.00429617
0.00428117
0.00427669
0.00426884
0.00426719
0.00426219
0.00426139
0.00425838
0.00425818
0.00425614
0.00425602
0.00425456
0.00425421
0.0042815
0.00428587
0.00875601
0.0091251
0.00912857
0.00913292
0.00912697
0.00912771
0.00912308
0.00912405
0.00912101
0.00912218
0.00912
0.0091211
0.00911929
0.00912018
0.00911875
0.00911949
0.00911875
0.00911823
0.0091227
0.00913775
0.0266115
0.0268036
0.0268981
0.0269768
0.0270378
0.0270952
0.0271428
0.0271897
0.0272306
0.0272716
0.027308
0.0273441
0.0273766
0.0274093
0.0274394
0.0274697
0.0274976
0.0275253
0.0275509
0.0275763
0.0275999
0.0276231
0.0276445
0.0276653
0.0276841
0.0277022
0.0277184
0.0277339
0.0277475
0.0277602
0.0277711
0.0277811
0.0277894
0.027797
0.0278031
0.0278086
0.0278128
0.0278165
0.0278191
0.0278214
0.0278228
0.0278241
0.0278247
0.0278254
0.0278256
0.0278259
0.0278259
0.0278261
0.0278261
0.0278262
0.0278261
0.0278262
0.0278261
0.0278263
0.0278262
0.0278263
0.0278262
0.0278263
0.0278263
0.0278264
0.0278263
0.0278264
0.0278264
0.0278264
0.0278264
0.0278265
0.0278265
0.0278265
0.0278265
0.0278266
0.0278266
0.0278266
0.0278266
0.0278267
0.0278267
0.0278268
0.0278267
0.0278268
0.0278268
0.0278268
0.0278268
0.0278268
0.0278268
0.0278268
0.0278267
0.0278268
0.0278265
0.0278267
0.0278237
0.0278221
0.0152441
0.0155242
0.0155754
0.0156218
0.0156528
0.0156874
0.0157118
0.0157404
0.0157617
0.0157867
0.0158057
0.0158278
0.0158449
0.0158648
0.0158808
0.0158992
0.0159141
0.015931
0.0159446
0.0159601
0.0159727
0.0159869
0.0159983
0.016011
0.016021
0.0160321
0.0160407
0.0160502
0.0160573
0.0160652
0.0160709
0.0160772
0.0160814
0.0160863
0.0160892
0.0160929
0.0160948
0.0160974
0.0160985
0.0161003
0.0161007
0.0161019
0.0161019
0.0161027
0.0161025
0.0161031
0.0161028
0.0161033
0.016103
0.0161034
0.0161032
0.0161036
0.0161033
0.0161037
0.0161035
0.0161038
0.0161036
0.016104
0.0161038
0.0161041
0.0161039
0.0161043
0.0161041
0.0161044
0.0161043
0.0161045
0.0161044
0.0161047
0.0161046
0.0161048
0.0161047
0.016105
0.0161049
0.0161051
0.016105
0.0161052
0.0161052
0.0161054
0.0161053
0.0161055
0.0161054
0.0161056
0.0161055
0.0161056
0.0161055
0.0161057
0.0161054
0.0161057
0.016103
0.0161016
0.0122426
0.0126408
0.0126792
0.0127163
0.0127351
0.012764
0.0127791
0.0128032
0.0128167
0.0128381
0.0128505
0.0128696
0.0128808
0.0128981
0.0129087
0.0129247
0.0129348
0.0129496
0.012959
0.0129725
0.0129812
0.0129937
0.0130017
0.013013
0.0130201
0.0130301
0.0130361
0.0130449
0.0130499
0.0130574
0.0130613
0.0130675
0.0130704
0.0130753
0.0130773
0.0130812
0.0130824
0.0130854
0.013086
0.0130882
0.0130883
0.0130899
0.0130897
0.013091
0.0130906
0.0130916
0.0130912
0.0130921
0.0130917
0.0130926
0.0130922
0.013093
0.0130926
0.0130934
0.013093
0.0130938
0.0130935
0.0130942
0.0130939
0.0130946
0.0130943
0.013095
0.0130948
0.0130954
0.0130952
0.0130958
0.0130956
0.0130962
0.013096
0.0130966
0.0130964
0.0130969
0.0130969
0.0130973
0.0130972
0.0130977
0.0130976
0.013098
0.013098
0.0130984
0.0130983
0.0130987
0.0130986
0.0130989
0.0130988
0.0130991
0.013099
0.0130993
0.0130984
0.0130946
0.0117859
0.0122798
0.0123182
0.0123514
0.0123646
0.0123911
0.0124019
0.0124242
0.0124341
0.0124544
0.012464
0.0124824
0.0124913
0.012508
0.0125165
0.0125321
0.0125404
0.0125549
0.0125628
0.0125762
0.0125835
0.0125959
0.0126028
0.0126142
0.0126204
0.0126306
0.0126359
0.012645
0.0126495
0.0126575
0.0126611
0.0126678
0.0126705
0.012676
0.0126779
0.0126823
0.0126835
0.012687
0.0126876
0.0126904
0.0126905
0.0126926
0.0126924
0.0126941
0.0126937
0.0126951
0.0126946
0.0126958
0.0126954
0.0126965
0.0126961
0.0126972
0.0126968
0.0126978
0.0126975
0.0126984
0.0126981
0.0126991
0.0126988
0.0126997
0.0126995
0.0127004
0.0127002
0.012701
0.0127008
0.0127016
0.0127015
0.0127023
0.0127022
0.0127029
0.0127028
0.0127035
0.0127034
0.0127041
0.012704
0.0127047
0.0127046
0.0127052
0.0127052
0.0127057
0.0127057
0.0127062
0.0127062
0.0127067
0.0127067
0.0127071
0.012707
0.0127074
0.0127075
0.0127028
0.0117509
0.012295
0.0123348
0.0123654
0.0123742
0.0123978
0.0124055
0.0124255
0.0124327
0.0124513
0.0124589
0.0124762
0.0124834
0.0124991
0.0125061
0.012521
0.012528
0.0125422
0.0125489
0.0125619
0.0125682
0.0125804
0.0125864
0.0125978
0.0126033
0.0126136
0.0126184
0.0126276
0.0126318
0.0126399
0.0126434
0.0126504
0.012653
0.0126588
0.0126607
0.0126655
0.0126667
0.0126706
0.0126713
0.0126744
0.0126746
0.012677
0.0126769
0.0126788
0.0126784
0.01268
0.0126796
0.012681
0.0126806
0.0126819
0.0126815
0.0126827
0.0126824
0.0126835
0.0126832
0.0126843
0.0126841
0.0126852
0.0126849
0.012686
0.0126858
0.0126868
0.0126866
0.0126876
0.0126875
0.0126884
0.0126883
0.0126892
0.0126891
0.01269
0.01269
0.0126908
0.0126907
0.0126915
0.0126915
0.0126922
0.0126923
0.0126929
0.012693
0.0126936
0.0126937
0.0126943
0.0126943
0.0126949
0.0126949
0.0126954
0.0126954
0.0126958
0.0126962
0.012691
0.0117683
0.0123417
0.0123817
0.0124093
0.0124142
0.0124343
0.012439
0.0124561
0.0124608
0.0124771
0.0124828
0.0124984
0.012504
0.0125183
0.0125239
0.0125375
0.0125434
0.0125566
0.0125623
0.0125745
0.0125798
0.0125913
0.0125966
0.0126074
0.0126123
0.0126221
0.0126264
0.0126353
0.0126391
0.0126471
0.0126503
0.0126572
0.0126597
0.0126655
0.0126673
0.0126722
0.0126734
0.0126774
0.0126781
0.0126813
0.0126816
0.0126842
0.0126841
0.0126861
0.0126858
0.0126875
0.0126871
0.0126886
0.0126882
0.0126896
0.0126892
0.0126905
0.0126902
0.0126914
0.0126911
0.0126923
0.0126921
0.0126932
0.012693
0.0126941
0.012694
0.0126951
0.0126949
0.012696
0.0126959
0.0126969
0.0126968
0.0126977
0.0126977
0.0126986
0.0126986
0.0126995
0.0126995
0.0127003
0.0127004
0.0127012
0.0127012
0.012702
0.012702
0.0127027
0.0127028
0.0127034
0.0127035
0.0127041
0.0127042
0.0127047
0.0127048
0.0127052
0.0127059
0.0127004
0.0117686
0.0123398
0.0123761
0.0123996
0.012401
0.0124172
0.0124192
0.0124331
0.0124357
0.0124494
0.0124534
0.0124669
0.012471
0.0124836
0.0124878
0.0124999
0.0125046
0.0125164
0.012521
0.012532
0.0125364
0.0125467
0.0125511
0.012561
0.0125651
0.0125741
0.0125778
0.012586
0.0125893
0.0125967
0.0125995
0.012606
0.0126081
0.0126136
0.0126152
0.0126198
0.0126209
0.0126248
0.0126255
0.0126286
0.0126288
0.0126314
0.0126313
0.0126333
0.012633
0.0126347
0.0126343
0.0126358
0.0126353
0.0126367
0.0126364
0.0126377
0.0126373
0.0126386
0.0126383
0.0126395
0.0126393
0.0126404
0.0126402
0.0126414
0.0126412
0.0126423
0.0126422
0.0126432
0.0126431
0.0126441
0.012644
0.012645
0.012645
0.0126459
0.0126459
0.0126467
0.0126468
0.0126476
0.0126476
0.0126484
0.0126485
0.0126492
0.0126493
0.01265
0.0126501
0.0126507
0.0126508
0.0126514
0.0126515
0.012652
0.0126521
0.0126525
0.0126532
0.0126478
0.0117515
0.0122872
0.0123145
0.0123324
0.0123303
0.0123429
0.0123423
0.0123535
0.0123541
0.0123655
0.0123678
0.0123792
0.0123818
0.0123924
0.0123953
0.0124057
0.0124091
0.0124192
0.0124227
0.0124321
0.0124354
0.0124444
0.0124478
0.0124563
0.0124595
0.0124673
0.0124702
0.0124774
0.01248
0.0124865
0.0124887
0.0124944
0.0124961
0.012501
0.0125022
0.0125064
0.0125072
0.0125107
0.0125112
0.012514
0.0125141
0.0125164
0.0125163
0.0125181
0.0125178
0.0125194
0.0125189
0.0125204
0.0125199
0.0125212
0.0125208
0.0125221
0.0125217
0.0125229
0.0125226
0.0125238
0.0125235
0.0125246
0.0125244
0.0125254
0.0125253
0.0125263
0.0125261
0.0125271
0.012527
0.0125279
0.0125278
0.0125287
0.0125287
0.0125295
0.0125295
0.0125303
0.0125303
0.0125311
0.0125311
0.0125318
0.0125319
0.0125326
0.0125326
0.0125333
0.0125333
0.0125339
0.012534
0.0125345
0.0125346
0.0125351
0.0125351
0.0125355
0.0125361
0.0125311
0.0117824
0.0122552
0.0122707
0.0122825
0.012278
0.0122872
0.0122847
0.0122933
0.0122925
0.0123015
0.0123024
0.0123113
0.0123126
0.012321
0.0123227
0.012331
0.0123332
0.0123413
0.0123436
0.0123511
0.0123534
0.0123606
0.0123629
0.0123698
0.012372
0.0123783
0.0123803
0.0123861
0.0123879
0.0123932
0.0123947
0.0123993
0.0124005
0.0124045
0.0124053
0.0124087
0.0124092
0.0124121
0.0124123
0.0124147
0.0124146
0.0124166
0.0124163
0.0124179
0.0124175
0.0124189
0.0124184
0.0124197
0.0124192
0.0124204
0.0124199
0.012421
0.0124207
0.0124217
0.0124214
0.0124224
0.0124221
0.012423
0.0124228
0.0124237
0.0124235
0.0124244
0.0124242
0.012425
0.0124249
0.0124257
0.0124256
0.0124263
0.0124263
0.012427
0.0124269
0.0124276
0.0124276
0.0124282
0.0124282
0.0124288
0.0124288
0.0124294
0.0124294
0.01243
0.01243
0.0124305
0.0124305
0.012431
0.012431
0.0124314
0.0124314
0.0124317
0.012432
0.0124276
0.012222
0.012578
0.012581
0.012588
0.0125826
0.012589
0.0125857
0.012592
0.0125904
0.012597
0.0125967
0.0126031
0.0126033
0.0126093
0.0126099
0.0126159
0.0126169
0.0126226
0.0126237
0.012629
0.0126302
0.0126353
0.0126365
0.0126414
0.0126426
0.012647
0.0126481
0.0126521
0.0126531
0.0126568
0.0126576
0.0126609
0.0126615
0.0126643
0.0126646
0.012667
0.0126672
0.0126693
0.0126693
0.012671
0.0126708
0.0126722
0.0126718
0.012673
0.0126726
0.0126736
0.0126732
0.0126741
0.0126737
0.0126746
0.0126742
0.012675
0.0126746
0.0126754
0.0126751
0.0126759
0.0126756
0.0126763
0.012676
0.0126767
0.0126765
0.0126772
0.012677
0.0126776
0.0126774
0.012678
0.0126779
0.0126784
0.0126783
0.0126789
0.0126787
0.0126793
0.0126792
0.0126797
0.0126796
0.01268
0.01268
0.0126804
0.0126804
0.0126808
0.0126807
0.0126811
0.012681
0.0126814
0.0126813
0.0126816
0.0126815
0.0126818
0.0126814
0.0126779
0.0151794
0.0153853
0.015384
0.0153878
0.0153842
0.0153881
0.0153859
0.0153897
0.0153888
0.0153928
0.0153927
0.0153966
0.0153967
0.0154003
0.0154008
0.0154043
0.015405
0.0154083
0.0154091
0.0154122
0.015413
0.0154159
0.0154167
0.0154195
0.0154203
0.0154228
0.0154236
0.0154259
0.0154265
0.0154286
0.0154291
0.015431
0.0154314
0.0154329
0.0154331
0.0154345
0.0154346
0.0154357
0.0154357
0.0154366
0.0154365
0.0154373
0.015437
0.0154376
0.0154374
0.0154379
0.0154376
0.0154381
0.0154378
0.0154382
0.0154379
0.0154383
0.0154381
0.0154385
0.0154383
0.0154386
0.0154384
0.0154388
0.0154386
0.0154389
0.0154388
0.0154391
0.0154389
0.0154392
0.0154391
0.0154394
0.0154393
0.0154395
0.0154394
0.0154397
0.0154396
0.0154398
0.0154397
0.01544
0.0154399
0.0154401
0.01544
0.0154402
0.0154402
0.0154403
0.0154403
0.0154404
0.0154404
0.0154405
0.0154404
0.0154406
0.0154404
0.0154406
0.0154382
0.0154371
0.0264624
0.0265193
0.0265209
0.026524
0.0265233
0.0265263
0.0265263
0.0265291
0.0265299
0.0265331
0.0265346
0.0265377
0.0265392
0.0265421
0.0265438
0.0265466
0.0265485
0.0265512
0.026553
0.0265555
0.0265572
0.0265596
0.0265613
0.0265636
0.0265651
0.0265672
0.0265686
0.0265704
0.0265717
0.0265734
0.0265745
0.0265759
0.0265768
0.026578
0.0265787
0.0265796
0.0265801
0.0265809
0.0265812
0.0265818
0.026582
0.0265824
0.0265824
0.0265827
0.0265827
0.0265829
0.0265828
0.0265829
0.0265828
0.026583
0.0265829
0.026583
0.0265829
0.026583
0.0265829
0.026583
0.026583
0.026583
0.026583
0.0265831
0.026583
0.0265831
0.026583
0.0265831
0.0265831
0.0265831
0.0265831
0.0265832
0.0265831
0.0265832
0.0265832
0.0265832
0.0265832
0.0265832
0.0265832
0.0265833
0.0265832
0.0265833
0.0265833
0.0265833
0.0265833
0.0265833
0.0265833
0.0265833
0.0265832
0.0265832
0.0265831
0.0265832
0.0265806
0.0265793
0.0121789
0.0123306
0.012375
0.0124083
0.0124362
0.0124611
0.0124826
0.0125036
0.0125218
0.0125404
0.0125563
0.0125729
0.0125871
0.0126023
0.0126154
0.0126295
0.0126415
0.0126546
0.0126656
0.0126776
0.0126877
0.0126987
0.0127077
0.0127176
0.0127255
0.0127341
0.0127408
0.0127482
0.0127538
0.0127598
0.0127642
0.012769
0.0127722
0.0127759
0.0127782
0.0127809
0.0127824
0.0127843
0.0127851
0.0127864
0.0127866
0.0127875
0.0127874
0.012788
0.0127878
0.0127882
0.012788
0.0127883
0.0127881
0.0127884
0.0127881
0.0127884
0.0127882
0.0127885
0.0127883
0.0127885
0.0127884
0.0127886
0.0127884
0.0127887
0.0127885
0.0127888
0.0127886
0.0127888
0.0127887
0.0127889
0.0127888
0.012789
0.0127889
0.0127891
0.012789
0.0127892
0.0127891
0.0127893
0.0127892
0.0127894
0.0127894
0.0127895
0.0127895
0.0127897
0.0127896
0.0127898
0.0127898
0.01279
0.01279
0.0127903
0.0127903
0.0127907
0.01279
0.0127901
0.0117425
0.012015
0.0120602
0.0120941
0.0121212
0.0121464
0.0121675
0.0121885
0.0122066
0.0122251
0.012241
0.0122574
0.0122716
0.0122866
0.0122996
0.0123136
0.0123256
0.0123384
0.0123495
0.0123613
0.0123714
0.0123822
0.0123913
0.012401
0.012409
0.0124175
0.0124243
0.0124316
0.0124373
0.0124433
0.0124478
0.0124526
0.0124559
0.0124596
0.012462
0.0124648
0.0124664
0.0124683
0.0124693
0.0124706
0.012471
0.0124718
0.012472
0.0124725
0.0124725
0.0124729
0.0124728
0.0124731
0.012473
0.0124733
0.0124731
0.0124734
0.0124733
0.0124736
0.0124735
0.0124737
0.0124736
0.0124739
0.0124738
0.012474
0.012474
0.0124742
0.0124741
0.0124743
0.0124743
0.0124745
0.0124745
0.0124747
0.0124746
0.0124748
0.0124748
0.012475
0.012475
0.0124751
0.0124751
0.0124753
0.0124753
0.0124755
0.0124755
0.0124756
0.0124756
0.0124758
0.0124758
0.012476
0.0124759
0.0124761
0.012476
0.0124764
0.0124762
0.0124765
0.0112734
0.0116644
0.0117142
0.0117457
0.0117713
0.0117947
0.0118148
0.0118342
0.0118515
0.0118687
0.0118842
0.0118996
0.0119135
0.0119274
0.0119402
0.0119533
0.0119652
0.0119773
0.0119882
0.0119993
0.0120093
0.0120195
0.0120287
0.012038
0.0120461
0.0120542
0.0120612
0.0120682
0.0120742
0.01208
0.0120849
0.0120896
0.0120933
0.0120969
0.0120997
0.0121024
0.0121044
0.0121063
0.0121075
0.0121088
0.0121095
0.0121103
0.0121107
0.0121112
0.0121113
0.0121116
0.0121117
0.0121119
0.0121119
0.0121121
0.0121121
0.0121122
0.0121122
0.0121124
0.0121124
0.0121126
0.0121126
0.0121127
0.0121127
0.0121129
0.0121129
0.0121131
0.0121131
0.0121132
0.0121132
0.0121134
0.0121134
0.0121135
0.0121136
0.0121137
0.0121137
0.0121139
0.0121139
0.012114
0.012114
0.0121142
0.0121142
0.0121143