/*--------------------------------*- C++ -*----------------------------------*\
  =========                 |
  \\      /  F ield         | OpenFOAM: The Open Source CFD Toolbox
   \\    /   O peration     | Website:  https://openfoam.org
    \\  /    A nd           | Version:  7
     \\/     M anipulation  |
\*---------------------------------------------------------------------------*/
FoamFile
{
    version     2.0;
    format      ascii;
    class       volScalarField;
    location    "3.7";
    object      k_0;
}
// * * * * * * * * * * * * * * * * * * * * * * * * * * * * * * * * * * * * * //

dimensions      [0 2 -2 0 0 0 0];

internalField   nonuniform List<scalar> 
600
(
2.17465
2.19816
1.67891
1.50701
1.40886
1.34166
1.28699
1.26261
1.22103
1.23022
0.862882
1.58634
1.62947
1.58351
1.52179
1.47804
1.43342
1.41613
1.37934
1.38124
0.143388
0.58566
0.879493
0.986945
1.03071
1.05296
1.05423
1.06041
1.05511
1.06075
0.0134747
0.0970262
0.257578
0.378747
0.469966
0.545131
0.591974
0.634158
0.659869
0.678928
0.000832137
0.00861531
0.030017
0.0711457
0.114858
0.166472
0.212163
0.255453
0.298101
0.322854
7.00809e-05
0.000440751
0.00152682
0.00430825
0.0108262
0.0191758
0.0366339
0.049675
0.0757504
0.0906743
6.99556e-05
0.00044098
0.00155774
0.00430768
0.0110131
0.0191791
0.036864
0.0495217
0.0756702
0.0898667
0.000829434
0.00861532
0.0308898
0.0700061
0.116165
0.164867
0.213582
0.253537
0.298257
0.320841
0.0134404
0.097054
0.257542
0.378449
0.470331
0.54429
0.592705
0.632679
0.659738
0.677014
0.143123
0.585873
0.879115
0.987304
1.03008
1.05343
1.05401
1.06024
1.05449
1.06049
0.862666
1.58661
1.6292
1.58426
1.5207
1.47969
1.43206
1.41749
1.3795
1.38481
2.1746
2.19845
1.67865
1.50772
1.4082
1.34293
1.28612
1.265
1.22143
1.23521
1.95899
2.27311
2.26557
2.30646
2.31866
2.32976
2.3401
2.34938
2.35803
2.36611
2.37364
2.38067
2.38723
2.39336
2.39909
2.40445
2.40946
2.41415
2.41854
2.42265
2.4265
2.43011
2.4335
2.43667
2.43966
2.44247
2.4451
2.44759
2.44992
2.45213
2.4542
2.45618
2.45801
2.45985
2.46146
2.46328
2.46459
2.46663
2.46748
2.47014
2.6921
3.20273
3.23215
3.27652
3.29585
3.31125
3.32584
3.33914
3.3515
3.36303
3.37378
3.3838
3.39317
3.40191
3.41009
3.41773
3.42487
3.43156
3.43781
3.44367
3.44916
3.45431
3.45914
3.46367
3.46792
3.47192
3.47568
3.47922
3.48254
3.48569
3.48864
3.49149
3.49412
3.4968
3.49913
3.50183
3.50373
3.50679
3.50806
3.51198
2.32839
2.88746
2.94983
2.98263
3.00043
3.01395
3.02687
3.03881
3.04993
3.06031
3.07
3.07905
3.0875
3.0954
3.10278
3.10968
3.11613
3.12216
3.12782
3.13311
3.13807
3.14272
3.14708
3.15117
3.15501
3.15863
3.16203
3.16523
3.16825
3.17112
3.17381
3.17644
3.17886
3.18136
3.18352
3.18607
3.18784
3.19076
3.19197
3.19564
1.69269
2.25504
2.34542
2.37058
2.38463
2.39492
2.40475
2.41397
2.42257
2.43062
2.43813
2.44516
2.45172
2.45785
2.46358
2.46894
2.47396
2.47865
2.48304
2.48715
2.49101
2.49462
2.49802
2.5012
2.5042
2.50702
2.50967
2.51219
2.51456
2.51683
2.51897
2.52108
2.52303
2.52506
2.52681
2.52893
2.53036
2.5328
2.53382
2.53681
1.02069
1.5718
1.69585
1.72456
1.73656
1.74414
1.75102
1.75749
1.76356
1.76924
1.77455
1.77952
1.78416
1.78849
1.79255
1.79634
1.79989
1.80322
1.80633
1.80924
1.81197
1.81454
1.81695
1.81921
1.82134
1.82335
1.82525
1.82706
1.82877
1.83043
1.83199
1.83355
1.835
1.83654
1.83784
1.83948
1.84054
1.84244
1.84325
1.84551
0.508675
1.07129
1.2392
1.28056
1.29388
1.30045
1.30572
1.3106
1.31519
1.31952
1.32359
1.3274
1.33098
1.33432
1.33745
1.34037
1.34311
1.34567
1.34806
1.35031
1.35242
1.35439
1.35625
1.358
1.35965
1.3612
1.36268
1.36408
1.36542
1.36672
1.36794
1.36918
1.37031
1.37154
1.37255
1.37388
1.37468
1.37621
1.37688
1.37866
0.510839
1.07323
1.24402
1.2857
1.29974
1.30693
1.31275
1.31815
1.32323
1.328
1.33247
1.33667
1.3406
1.34427
1.34771
1.35092
1.35392
1.35673
1.35936
1.36182
1.36413
1.36629
1.36832
1.37023
1.37203
1.37373
1.37534
1.37687
1.37831
1.37971
1.38102
1.38232
1.38352
1.38479
1.38584
1.3872
1.38802
1.38957
1.39025
1.39204
1.0259
1.57668
1.70548
1.73369
1.74649
1.75476
1.76232
1.76946
1.77615
1.78241
1.78827
1.79375
1.79886
1.80364
1.80811
1.81229
1.81619
1.81985
1.82327
1.82647
1.82947
1.83229
1.83493
1.83742
1.83976
1.84197
1.84406
1.84604
1.84792
1.84973
1.85143
1.85311
1.85465
1.85627
1.85763
1.85932
1.86041
1.86234
1.86316
1.86545
1.69889
2.26223
2.35154
2.37363
2.38641
2.39572
2.40484
2.41351
2.42165
2.4293
2.43646
2.44316
2.44942
2.45528
2.46076
2.46588
2.47067
2.47516
2.47936
2.4833
2.48699
2.49046
2.49372
2.49678
2.49967
2.5024
2.50499
2.50745
2.50978
2.51204
2.51417
2.51628
2.51823
2.52028
2.52204
2.52417
2.5256
2.52805
2.52908
2.53208
2.33322
2.89127
2.9448
2.97148
2.98516
2.99534
3.00552
3.0151
3.02411
3.03258
3.04052
3.04795
3.0549
3.0614
3.06748
3.07318
3.07851
3.08351
3.08819
3.09258
3.0967
3.10057
3.10422
3.10765
3.11089
3.11396
3.11686
3.11964
3.12228
3.12483
3.12727
3.12968
3.13194
3.13432
3.13638
3.13887
3.14058
3.14347
3.14466
3.1483
2.69068
3.19617
3.21134
3.24732
3.26027
3.27036
3.28042
3.2897
3.29843
3.30664
3.31433
3.32153
3.32827
3.33458
3.34048
3.34601
3.35119
3.35605
3.3606
3.36488
3.3689
3.37269
3.37625
3.37961
3.38279
3.3858
3.38865
3.39139
3.39399
3.39652
3.39894
3.40136
3.40362
3.40602
3.40812
3.41066
3.41244
3.41541
3.41662
3.42047
1.94704
2.25437
2.23545
2.26961
2.27605
2.28235
2.28842
2.29387
2.29903
2.30388
2.30842
2.31268
2.31667
2.32041
2.32392
2.3272
2.33028
2.33317
2.33589
2.33845
2.34086
2.34312
2.34526
2.34729
2.3492
2.35102
2.35275
2.35441
2.35599
2.35753
2.35901
2.36049
2.36189
2.36338
2.3647
2.3663
2.36745
2.36935
2.37012
2.37268
)
;

boundaryField
{
    upperWall
    {
        type            fixedValue;
        value           uniform 0;
    }
    lowerWall
    {
        type            fixedValue;
        value           uniform 0;
    }
    heatedWall
    {
        type            fixedValue;
        value           uniform 0;
    }
    inlet
    {
        type            fixedValue;
        value           uniform 2e-05;
    }
    outlet
    {
        type            inletOutlet;
        inletValue      uniform 0;
        value           nonuniform List<scalar> 
12
(
2.47014
3.51198
3.19564
2.53681
1.84551
1.37866
1.39204
1.86545
2.53208
3.1483
3.42047
2.37268
)
;
    }
    frontAndBack
    {
        type            empty;
    }
}


// ************************************************************************* //
