/*--------------------------------*- C++ -*----------------------------------*\
  =========                 |
  \\      /  F ield         | OpenFOAM: The Open Source CFD Toolbox
   \\    /   O peration     | Website:  https://openfoam.org
    \\  /    A nd           | Version:  7
     \\/     M anipulation  |
\*---------------------------------------------------------------------------*/
FoamFile
{
    version     2.0;
    format      ascii;
    class       volScalarField;
    location    "1.105";
    object      nut;
}
// * * * * * * * * * * * * * * * * * * * * * * * * * * * * * * * * * * * * * //

dimensions      [0 2 -1 0 0 0 0];

internalField   nonuniform List<scalar> 
13200
(
0.00817439
0.00840108
0.00840016
0.00840215
0.0083994
0.00840012
0.00839771
0.00839812
0.00839609
0.00839658
0.00839525
0.00839595
0.00839522
0.00839599
0.00839572
0.00839631
0.00839661
0.00839617
0.00840033
0.00840261
0.00395785
0.00377313
0.00364653
0.00359767
0.00357907
0.00357462
0.00356854
0.00356807
0.00356493
0.00356495
0.00356276
0.00356307
0.00356154
0.00356199
0.00356091
0.00356128
0.00356068
0.00356027
0.0035658
0.00356665
0.00247416
0.00246669
0.00241974
0.00238505
0.00236793
0.00236158
0.00235422
0.00235159
0.00234655
0.00234488
0.0023412
0.00234023
0.00233764
0.00233712
0.00233526
0.00233494
0.0023337
0.0023333
0.00233301
0.00233614
0.00208817
0.00220963
0.00222166
0.00222128
0.00221849
0.00221728
0.0022141
0.0022125
0.00220916
0.00220738
0.00220444
0.00220301
0.00220088
0.00219994
0.00219857
0.00219794
0.0021973
0.00219659
0.00219665
0.00219873
0.0019992
0.00216007
0.00218851
0.00219788
0.00219905
0.00220123
0.00220033
0.00220055
0.00219898
0.0021983
0.00219612
0.00219533
0.00219351
0.00219306
0.00219193
0.00219172
0.0021912
0.00219118
0.00219117
0.00219309
0.00198729
0.00215383
0.002186
0.00219784
0.00220043
0.0022042
0.00220435
0.00220579
0.00220518
0.0022055
0.00220419
0.00220391
0.00220252
0.0022024
0.00220154
0.00220164
0.00220124
0.00220153
0.00220172
0.00220366
0.00198335
0.00215018
0.00218273
0.00219521
0.00219835
0.00220287
0.00220362
0.00220606
0.00220611
0.00220721
0.00220654
0.00220689
0.00220603
0.00220636
0.00220587
0.00220636
0.0022062
0.00220678
0.0022071
0.00220938
0.00198531
0.00215071
0.00218315
0.00219574
0.00219919
0.00220412
0.00220524
0.00220827
0.00220877
0.00221055
0.00221033
0.00221115
0.00221074
0.00221148
0.00221138
0.0022122
0.00221238
0.00221318
0.00221391
0.00221602
0.00198483
0.00214958
0.00218175
0.00219419
0.00219764
0.00220264
0.00220388
0.00220712
0.00220782
0.00220995
0.00220999
0.0022111
0.00221099
0.00221201
0.00221221
0.00221337
0.00221381
0.00221484
0.00221577
0.00221807
0.00198574
0.00214989
0.00218195
0.00219435
0.00219781
0.00220283
0.00220411
0.00220742
0.0022082
0.00221044
0.00221059
0.00221185
0.00221186
0.00221303
0.00221338
0.0022147
0.00221531
0.0022164
0.00221759
0.00221981
0.00198574
0.00214989
0.00218195
0.00219435
0.00219781
0.00220283
0.00220411
0.00220742
0.0022082
0.00221044
0.00221059
0.00221185
0.00221186
0.00221303
0.00221339
0.0022147
0.00221531
0.0022164
0.0022176
0.00221982
0.00198483
0.00214958
0.00218175
0.00219419
0.00219764
0.00220264
0.00220388
0.00220712
0.00220782
0.00220995
0.00220999
0.0022111
0.00221099
0.00221201
0.00221222
0.00221337
0.00221382
0.00221484
0.0022158
0.00221808
0.00198531
0.00215071
0.00218315
0.00219574
0.00219919
0.00220412
0.00220524
0.00220827
0.00220877
0.00221055
0.00221033
0.00221116
0.00221074
0.00221149
0.00221138
0.0022122
0.00221239
0.00221317
0.00221393
0.00221603
0.00198335
0.00215018
0.00218273
0.00219521
0.00219835
0.00220288
0.00220362
0.00220606
0.0022061
0.00220722
0.00220654
0.00220689
0.00220603
0.00220637
0.00220587
0.00220637
0.0022062
0.0022068
0.00220712
0.00220942
0.00198729
0.00215383
0.002186
0.00219784
0.00220043
0.00220421
0.00220434
0.00220579
0.00220518
0.0022055
0.00220418
0.00220392
0.00220251
0.00220242
0.00220153
0.00220168
0.0022012
0.00220161
0.00220169
0.0022037
0.0019992
0.00216007
0.0021885
0.00219788
0.00219905
0.00220123
0.00220033
0.00220055
0.00219897
0.00219831
0.00219611
0.00219535
0.00219349
0.00219309
0.00219188
0.0021918
0.00219113
0.00219137
0.00219099
0.00219336
0.00208817
0.00220963
0.00222166
0.00222128
0.00221849
0.00221728
0.0022141
0.0022125
0.00220916
0.00220739
0.00220442
0.00220304
0.00220083
0.0022
0.00219847
0.00219807
0.00219708
0.00219695
0.00219618
0.00219938
0.00247416
0.00246669
0.00241974
0.00238505
0.00236793
0.00236159
0.00235422
0.00235159
0.00234654
0.00234488
0.00234119
0.00234024
0.00233761
0.00233715
0.00233519
0.00233504
0.00233353
0.00233361
0.00233244
0.00233731
0.00395785
0.00377313
0.00364653
0.00359767
0.00357907
0.00357462
0.00356854
0.00356808
0.00356493
0.00356496
0.00356275
0.00356309
0.00356152
0.00356202
0.00356086
0.00356135
0.00356053
0.00356049
0.00356511
0.00356807
0.00817439
0.00840108
0.00840016
0.00840215
0.0083994
0.00840012
0.0083977
0.00839813
0.00839609
0.00839659
0.00839524
0.00839597
0.00839519
0.00839604
0.00839563
0.00839645
0.00839637
0.00839658
0.00839938
0.00840525
0.00229652
0.00244934
0.00242585
0.00239757
0.00239313
0.00238168
0.0023818
0.00237493
0.0023757
0.00237089
0.00237175
0.00236823
0.00236899
0.00236633
0.00236694
0.00236482
0.00236535
0.00236329
0.00236364
0.00236593
0.00189608
0.00218635
0.00221804
0.00221332
0.00220777
0.00220188
0.0021987
0.00219497
0.00219302
0.0021905
0.00218929
0.00218753
0.00218679
0.00218553
0.00218508
0.00218409
0.00218374
0.00218301
0.00218232
0.00218236
0.00176096
0.00206977
0.00211926
0.00213118
0.00213497
0.00213686
0.00213692
0.00213683
0.00213612
0.00213559
0.00213493
0.00213458
0.0021343
0.00213412
0.00213414
0.002134
0.00213432
0.0021338
0.00213435
0.00213704
0.00174441
0.00205468
0.00210188
0.00211251
0.00211574
0.00211849
0.00211961
0.00212083
0.00212098
0.00212125
0.00212115
0.00212128
0.00212146
0.00212177
0.00212233
0.00212268
0.00212365
0.00212375
0.00212506
0.00212574
0.00173647
0.00204702
0.0020938
0.0021033
0.00210465
0.00210612
0.00210632
0.00210706
0.00210699
0.00210714
0.00210683
0.00210686
0.00210685
0.00210717
0.00210768
0.0021082
0.00210922
0.00210978
0.00211115
0.0021137
0.00174003
0.00205078
0.00209725
0.0021065
0.00210738
0.00210818
0.00210783
0.00210801
0.00210754
0.00210728
0.0021064
0.00210599
0.00210544
0.00210541
0.00210545
0.00210573
0.00210631
0.00210683
0.00210777
0.00210992
0.00173745
0.00204801
0.00209445
0.0021037
0.00210446
0.00210516
0.00210465
0.00210471
0.00210407
0.00210368
0.00210251
0.00210188
0.00210091
0.00210066
0.00210033
0.0021004
0.00210054
0.00210096
0.00210163
0.00210375
0.00173981
0.00205047
0.00209672
0.00210591
0.00210665
0.00210735
0.00210682
0.00210688
0.00210623
0.00210583
0.00210458
0.00210388
0.00210273
0.00210236
0.00210184
0.00210179
0.00210171
0.00210187
0.00210229
0.00210413
0.00173863
0.00204912
0.00209535
0.0021045
0.00210521
0.00210591
0.00210537
0.00210544
0.00210479
0.00210441
0.00210317
0.00210246
0.00210128
0.00210088
0.0021003
0.00210021
0.00210005
0.00210012
0.00210041
0.00210209
0.00173952
0.00205001
0.00209617
0.00210527
0.00210596
0.00210665
0.00210611
0.00210618
0.00210553
0.00210515
0.00210392
0.00210321
0.00210201
0.00210161
0.00210102
0.00210092
0.00210073
0.00210076
0.002101
0.00210259
0.00173952
0.00205001
0.00209617
0.00210527
0.00210596
0.00210665
0.00210611
0.00210618
0.00210553
0.00210515
0.00210392
0.00210321
0.00210201
0.00210161
0.00210102
0.00210092
0.00210073
0.00210076
0.002101
0.00210259
0.00173863
0.00204912
0.00209535
0.0021045
0.00210521
0.00210591
0.00210537
0.00210544
0.00210479
0.00210441
0.00210317
0.00210246
0.00210128
0.00210088
0.0021003
0.00210021
0.00210005
0.00210011
0.00210042
0.00210209
0.00173981
0.00205047
0.00209671
0.00210591
0.00210665
0.00210735
0.00210682
0.00210688
0.00210623
0.00210583
0.00210458
0.00210388
0.00210273
0.00210237
0.00210184
0.00210179
0.00210171
0.00210186
0.00210229
0.00210411
0.00173745
0.00204801
0.00209445
0.0021037
0.00210446
0.00210516
0.00210465
0.00210471
0.00210407
0.00210368
0.0021025
0.00210188
0.0021009
0.00210067
0.00210033
0.00210041
0.00210053
0.00210096
0.00210163
0.00210375
0.00174003
0.00205078
0.00209725
0.00210651
0.00210738
0.00210818
0.00210783
0.00210801
0.00210753
0.00210728
0.00210639
0.00210601
0.00210542
0.00210543
0.00210543
0.00210576
0.00210623
0.0021069
0.0021077
0.00210991
0.00173647
0.00204702
0.0020938
0.00210331
0.00210465
0.00210613
0.00210632
0.00210706
0.00210699
0.00210715
0.00210682
0.00210688
0.00210683
0.00210721
0.00210759
0.00210831
0.00210905
0.00210998
0.00211096
0.00211386
0.00174441
0.00205468
0.00210188
0.00211251
0.00211574
0.0021185
0.0021196
0.00212083
0.00212097
0.00212126
0.00212114
0.0021213
0.00212142
0.00212183
0.00212222
0.00212281
0.00212341
0.002124
0.00212459
0.00212628
0.00176096
0.00206977
0.00211925
0.00213118
0.00213497
0.00213687
0.00213692
0.00213683
0.00213612
0.0021356
0.00213492
0.00213461
0.00213427
0.00213416
0.00213407
0.00213409
0.00213416
0.0021341
0.00213383
0.00213791
0.00189608
0.00218635
0.00221804
0.00221332
0.00220777
0.00220188
0.0021987
0.00219497
0.00219302
0.00219051
0.00218928
0.00218755
0.00218677
0.00218556
0.00218504
0.00218416
0.00218363
0.00218322
0.00218195
0.00218337
0.00229652
0.00244934
0.00242585
0.00239757
0.00239313
0.00238168
0.0023818
0.00237493
0.0023757
0.00237089
0.00237175
0.00236824
0.00236899
0.00236635
0.00236692
0.00236486
0.00236532
0.00236342
0.0023635
0.00236657
0.000880074
0.00099399
0.000920498
0.000822562
0.000761339
0.000726647
0.000701898
0.000684052
0.00066904
0.000656518
0.000646039
0.000636544
0.000628934
0.000621475
0.000615708
0.000609904
0.000604778
0.000601389
0.000594671
0.000596066
0.00036
0.000575182
0.000631442
0.000641383
0.000640692
0.000637823
0.000632057
0.000626292
0.000620416
0.000615013
0.000609897
0.000605261
0.000600944
0.000597043
0.000593317
0.000590183
0.000586692
0.000584619
0.000580538
0.000580682
0.000156496
0.000355755
0.000430783
0.000463045
0.000476712
0.000487969
0.000494847
0.000502216
0.000506997
0.000512068
0.000515236
0.000518484
0.000520392
0.000522412
0.000523398
0.00052467
0.000525012
0.000525709
0.000525459
0.000526551
0.000143769
0.000324528
0.000393474
0.000425654
0.000437698
0.00044554
0.000448802
0.000452743
0.000455161
0.00045845
0.000461037
0.000464097
0.000466779
0.000469585
0.000472162
0.000474651
0.000477085
0.000479054
0.000481336
0.00048332
0.000140554
0.000316729
0.000381882
0.000414102
0.000425501
0.000432802
0.000434413
0.000436538
0.00043684
0.000437728
0.000438092
0.000439007
0.000439715
0.00044081
0.000441931
0.000443055
0.000444563
0.000445615
0.000447252
0.000448693
0.000143508
0.000321904
0.00038678
0.000418071
0.000429644
0.000436467
0.000438203
0.000439817
0.000439882
0.000440123
0.000440037
0.000440112
0.000440163
0.000440322
0.000440662
0.00044091
0.000441502
0.000441814
0.000442515
0.000443487
0.000141474
0.000318406
0.000383239
0.000414823
0.000426188
0.000433131
0.00043471
0.000436363
0.000436334
0.000436481
0.000436252
0.000436224
0.000436066
0.00043604
0.000436012
0.000436031
0.000436169
0.000436311
0.00043652
0.000437205
0.000143152
0.000321438
0.000386362
0.000417533
0.000428951
0.000435691
0.000437377
0.000438953
0.000438975
0.000439104
0.000438913
0.000438854
0.000438695
0.000438628
0.00043859
0.00043857
0.000438661
0.000438701
0.000438895
0.000439494
0.000142135
0.000319609
0.000384504
0.000415848
0.000427181
0.000433998
0.000435611
0.000437229
0.000437231
0.000437374
0.00043717
0.000437129
0.000436966
0.000436912
0.000436853
0.000436837
0.000436894
0.000436943
0.00043707
0.000437643
0.000142704
0.000320659
0.000385597
0.000416802
0.000428138
0.000434879
0.000436514
0.0004381
0.000438114
0.000438252
0.000438061
0.000438016
0.000437863
0.000437805
0.000437761
0.00043774
0.000437811
0.00043784
0.000437984
0.000438549
0.000142704
0.000320659
0.000385597
0.000416802
0.000428138
0.000434879
0.000436514
0.0004381
0.000438114
0.000438252
0.000438061
0.000438016
0.000437864
0.000437806
0.000437762
0.000437741
0.000437812
0.000437842
0.000437986
0.000438554
0.000142135
0.000319609
0.000384504
0.000415849
0.000427181
0.000433998
0.00043561
0.000437229
0.000437231
0.000437374
0.00043717
0.000437129
0.000436966
0.000436911
0.000436853
0.000436836
0.000436894
0.000436939
0.000437067
0.000437638
0.000143152
0.000321438
0.000386362
0.000417533
0.000428951
0.000435691
0.000437377
0.000438954
0.000438975
0.000439104
0.000438913
0.000438854
0.000438695
0.000438628
0.000438591
0.00043857
0.000438662
0.000438703
0.000438897
0.000439497
0.000141474
0.000318407
0.000383239
0.000414823
0.000426188
0.000433131
0.00043471
0.000436363
0.000436334
0.000436481
0.000436252
0.000436224
0.000436066
0.00043604
0.000436012
0.00043603
0.000436168
0.000436305
0.000436515
0.000437196
0.000143508
0.000321905
0.00038678
0.000418071
0.000429643
0.000436467
0.000438202
0.000439818
0.000439882
0.000440124
0.000440036
0.000440114
0.000440163
0.000440323
0.000440657
0.000440907
0.000441495
0.00044181
0.000442507
0.000443467
0.000140554
0.000316729
0.000381882
0.000414102
0.000425501
0.000432803
0.000434412
0.000436539
0.00043684
0.000437728
0.000438092
0.000439012
0.000439705
0.000440818
0.000441914
0.000443061
0.000444539
0.0004456
0.000447214
0.00044863
0.000143769
0.000324528
0.000393474
0.000425655
0.000437698
0.000445541
0.0004488
0.000452745
0.000455158
0.000458454
0.000461031
0.000464103
0.000466766
0.000469591
0.000472141
0.000474644
0.000477053
0.000479009
0.000481255
0.000483198
0.000156496
0.000355755
0.000430783
0.000463045
0.000476711
0.00048797
0.000494845
0.000502219
0.000506992
0.000512074
0.000515225
0.000518494
0.000520371
0.000522424
0.000523365
0.000524666
0.000524981
0.000525655
0.000525371
0.000526418
0.00036
0.000575182
0.000631442
0.000641384
0.000640691
0.000637823
0.000632056
0.000626294
0.000620412
0.00061502
0.000609886
0.000605276
0.00060092
0.000597081
0.000593266
0.000590266
0.000586608
0.000584699
0.000580487
0.000580822
0.000880074
0.00099399
0.000920498
0.000822562
0.000761339
0.000726648
0.000701898
0.000684054
0.00066904
0.000656525
0.000646039
0.000636564
0.000628936
0.000621527
0.000615721
0.000610031
0.000604847
0.00060166
0.000594926
0.000596873
0.000880074
0.00099399
0.000920498
0.000822562
0.000761339
0.000726647
0.000701898
0.000684052
0.00066904
0.000656518
0.000646038
0.000636544
0.000628934
0.000621475
0.000615708
0.000609904
0.000604778
0.00060139
0.000594671
0.000596066
0.00036
0.000575182
0.000631442
0.000641383
0.000640692
0.000637823
0.000632057
0.000626292
0.000620416
0.000615013
0.000609897
0.000605261
0.000600944
0.000597043
0.000593317
0.000590183
0.000586692
0.000584619
0.000580538
0.000580682
0.000156496
0.000355755
0.000430783
0.000463045
0.000476712
0.000487969
0.000494847
0.000502216
0.000506997
0.000512068
0.000515236
0.000518484
0.000520393
0.000522412
0.000523398
0.000524671
0.000525012
0.000525709
0.000525459
0.000526551
0.000143769
0.000324528
0.000393474
0.000425654
0.000437699
0.00044554
0.000448802
0.000452743
0.000455161
0.00045845
0.000461037
0.000464097
0.000466779
0.000469585
0.000472162
0.000474651
0.000477085
0.000479055
0.000481336
0.00048332
0.000140554
0.000316729
0.000381882
0.000414102
0.000425501
0.000432803
0.000434413
0.000436539
0.00043684
0.000437728
0.000438093
0.000439008
0.000439715
0.00044081
0.000441931
0.000443055
0.000444564
0.000445615
0.000447252
0.000448693
0.000143508
0.000321905
0.00038678
0.000418071
0.000429644
0.000436467
0.000438203
0.000439817
0.000439882
0.000440123
0.000440037
0.000440112
0.000440164
0.000440322
0.000440662
0.00044091
0.000441502
0.000441814
0.000442516
0.000443487
0.000141474
0.000318407
0.000383239
0.000414823
0.000426188
0.000433131
0.00043471
0.000436363
0.000436335
0.000436481
0.000436253
0.000436224
0.000436067
0.00043604
0.000436012
0.000436032
0.000436169
0.000436311
0.00043652
0.000437205
0.000143152
0.000321438
0.000386362
0.000417533
0.000428952
0.000435691
0.000437377
0.000438954
0.000438975
0.000439105
0.000438913
0.000438854
0.000438695
0.000438628
0.00043859
0.00043857
0.000438661
0.000438702
0.000438895
0.000439495
0.000142135
0.000319609
0.000384504
0.000415849
0.000427182
0.000433998
0.000435611
0.00043723
0.000437231
0.000437374
0.00043717
0.000437129
0.000436966
0.000436912
0.000436854
0.000436837
0.000436894
0.000436943
0.000437071
0.000437644
0.000142705
0.000320659
0.000385598
0.000416802
0.000428138
0.000434879
0.000436515
0.000438101
0.000438114
0.000438252
0.000438061
0.000438016
0.000437864
0.000437806
0.000437762
0.00043774
0.000437811
0.000437841
0.000437984
0.000438549
0.000142704
0.000320659
0.000385598
0.000416802
0.000428138
0.000434879
0.000436514
0.000438101
0.000438114
0.000438252
0.000438061
0.000438016
0.000437864
0.000437806
0.000437762
0.000437741
0.000437812
0.000437843
0.000437987
0.000438554
0.000142135
0.000319609
0.000384504
0.000415849
0.000427181
0.000433998
0.000435611
0.00043723
0.000437231
0.000437374
0.00043717
0.000437129
0.000436966
0.000436912
0.000436854
0.000436836
0.000436895
0.000436939
0.000437067
0.000437639
0.000143152
0.000321438
0.000386362
0.000417534
0.000428951
0.000435691
0.000437377
0.000438954
0.000438975
0.000439105
0.000438913
0.000438855
0.000438696
0.000438629
0.000438591
0.00043857
0.000438662
0.000438703
0.000438897
0.000439498
0.000141474
0.000318407
0.000383239
0.000414823
0.000426188
0.000433131
0.00043471
0.000436363
0.000436334
0.000436481
0.000436252
0.000436224
0.000436066
0.00043604
0.000436012
0.00043603
0.000436168
0.000436305
0.000436515
0.000437197
0.000143508
0.000321905
0.00038678
0.000418071
0.000429643
0.000436467
0.000438202
0.000439818
0.000439882
0.000440124
0.000440037
0.000440115
0.000440163
0.000440323
0.000440658
0.000440907
0.000441496
0.000441811
0.000442508
0.000443467
0.000140554
0.00031673
0.000381882
0.000414102
0.000425501
0.000432803
0.000434413
0.000436539
0.00043684
0.000437728
0.000438092
0.000439012
0.000439705
0.000440819
0.000441914
0.000443062
0.000444539
0.000445601
0.000447215
0.00044863
0.000143769
0.000324528
0.000393474
0.000425655
0.000437698
0.000445541
0.0004488
0.000452745
0.000455158
0.000458454
0.000461031
0.000464103
0.000466766
0.000469592
0.000472141
0.000474644
0.000477053
0.000479009
0.000481255
0.000483198
0.000156496
0.000355755
0.000430783
0.000463046
0.000476711
0.00048797
0.000494845
0.000502219
0.000506993
0.000512074
0.000515225
0.000518494
0.000520372
0.000522424
0.000523365
0.000524666
0.000524981
0.000525655
0.000525371
0.000526419
0.00036
0.000575182
0.000631442
0.000641384
0.000640692
0.000637823
0.000632056
0.000626294
0.000620412
0.00061502
0.000609887
0.000605277
0.000600921
0.000597082
0.000593266
0.000590267
0.000586608
0.000584699
0.000580487
0.000580822
0.000880074
0.00099399
0.000920498
0.000822562
0.000761339
0.000726648
0.000701898
0.000684054
0.00066904
0.000656525
0.000646039
0.000636564
0.000628937
0.000621527
0.000615721
0.000610031
0.000604847
0.00060166
0.000594926
0.000596873
0.00229652
0.00244934
0.00242585
0.00239757
0.00239313
0.00238168
0.0023818
0.00237493
0.0023757
0.00237089
0.00237175
0.00236823
0.00236899
0.00236633
0.00236694
0.00236482
0.00236535
0.00236329
0.00236364
0.00236593
0.00189608
0.00218635
0.00221804
0.00221332
0.00220777
0.00220188
0.0021987
0.00219497
0.00219302
0.0021905
0.00218929
0.00218753
0.00218679
0.00218553
0.00218508
0.00218409
0.00218374
0.00218301
0.00218232
0.00218236
0.00176096
0.00206977
0.00211926
0.00213118
0.00213497
0.00213686
0.00213692
0.00213683
0.00213612
0.00213559
0.00213493
0.00213458
0.0021343
0.00213411
0.00213414
0.002134
0.00213432
0.0021338
0.00213434
0.00213704
0.00174441
0.00205468
0.00210188
0.00211251
0.00211574
0.00211849
0.00211961
0.00212083
0.00212098
0.00212125
0.00212115
0.00212128
0.00212146
0.00212177
0.00212233
0.00212268
0.00212364
0.00212375
0.00212506
0.00212574
0.00173647
0.00204702
0.0020938
0.0021033
0.00210465
0.00210612
0.00210632
0.00210706
0.00210699
0.00210714
0.00210683
0.00210686
0.00210685
0.00210717
0.00210768
0.0021082
0.00210922
0.00210978
0.00211115
0.0021137
0.00174003
0.00205078
0.00209725
0.0021065
0.00210738
0.00210818
0.00210783
0.00210801
0.00210754
0.00210728
0.0021064
0.00210599
0.00210544
0.00210541
0.00210545
0.00210573
0.00210631
0.00210683
0.00210777
0.00210992
0.00173745
0.00204801
0.00209445
0.0021037
0.00210446
0.00210516
0.00210465
0.00210471
0.00210407
0.00210368
0.00210251
0.00210188
0.00210091
0.00210066
0.00210033
0.0021004
0.00210054
0.00210096
0.00210163
0.00210375
0.00173981
0.00205047
0.00209672
0.00210591
0.00210665
0.00210735
0.00210682
0.00210688
0.00210623
0.00210583
0.00210458
0.00210388
0.00210273
0.00210236
0.00210184
0.00210179
0.00210171
0.00210187
0.00210229
0.00210413
0.00173863
0.00204912
0.00209535
0.0021045
0.00210521
0.00210591
0.00210537
0.00210544
0.00210479
0.00210441
0.00210317
0.00210246
0.00210128
0.00210088
0.0021003
0.00210021
0.00210005
0.00210012
0.00210041
0.00210209
0.00173952
0.00205001
0.00209617
0.00210527
0.00210596
0.00210665
0.00210611
0.00210618
0.00210553
0.00210515
0.00210392
0.00210321
0.00210201
0.00210161
0.00210102
0.00210092
0.00210073
0.00210076
0.002101
0.00210259
0.00173952
0.00205001
0.00209617
0.00210527
0.00210596
0.00210665
0.00210611
0.00210618
0.00210553
0.00210515
0.00210392
0.00210321
0.00210201
0.00210161
0.00210102
0.00210092
0.00210073
0.00210076
0.002101
0.00210259
0.00173863
0.00204912
0.00209535
0.0021045
0.00210521
0.00210591
0.00210537
0.00210544
0.00210479
0.00210441
0.00210317
0.00210246
0.00210128
0.00210088
0.0021003
0.00210021
0.00210005
0.00210011
0.00210042
0.00210209
0.00173981
0.00205047
0.00209671
0.00210591
0.00210665
0.00210735
0.00210682
0.00210688
0.00210623
0.00210583
0.00210458
0.00210388
0.00210273
0.00210237
0.00210184
0.00210179
0.00210171
0.00210186
0.00210229
0.00210411
0.00173745
0.00204801
0.00209445
0.0021037
0.00210446
0.00210516
0.00210465
0.00210471
0.00210407
0.00210368
0.0021025
0.00210188
0.0021009
0.00210067
0.00210033
0.00210041
0.00210053
0.00210096
0.00210163
0.00210375
0.00174003
0.00205078
0.00209725
0.00210651
0.00210738
0.00210818
0.00210783
0.00210801
0.00210753
0.00210728
0.00210639
0.00210601
0.00210542
0.00210543
0.00210543
0.00210576
0.00210623
0.0021069
0.0021077
0.00210991
0.00173647
0.00204702
0.0020938
0.00210331
0.00210465
0.00210613
0.00210632
0.00210706
0.00210699
0.00210715
0.00210682
0.00210688
0.00210683
0.00210721
0.00210759
0.00210831
0.00210905
0.00210998
0.00211096
0.00211386
0.00174441
0.00205468
0.00210188
0.00211251
0.00211574
0.0021185
0.0021196
0.00212083
0.00212097
0.00212126
0.00212114
0.0021213
0.00212142
0.00212183
0.00212222
0.00212281
0.00212341
0.002124
0.00212459
0.00212628
0.00176096
0.00206977
0.00211925
0.00213118
0.00213497
0.00213687
0.00213692
0.00213683
0.00213612
0.0021356
0.00213492
0.00213461
0.00213427
0.00213416
0.00213408
0.00213409
0.00213416
0.0021341
0.00213384
0.00213791
0.00189608
0.00218635
0.00221804
0.00221332
0.00220777
0.00220188
0.0021987
0.00219497
0.00219302
0.00219051
0.00218928
0.00218755
0.00218677
0.00218556
0.00218504
0.00218417
0.00218363
0.00218322
0.00218195
0.00218337
0.00229652
0.00244934
0.00242585
0.00239757
0.00239313
0.00238168
0.0023818
0.00237493
0.0023757
0.00237089
0.00237175
0.00236824
0.00236899
0.00236635
0.00236692
0.00236487
0.00236532
0.00236342
0.0023635
0.00236657
0.00817439
0.00840108
0.00840016
0.00840215
0.0083994
0.00840012
0.00839771
0.00839812
0.0083961
0.00839658
0.00839525
0.00839595
0.00839522
0.00839599
0.00839572
0.00839631
0.0083966
0.00839616
0.00840033
0.00840261
0.00395785
0.00377313
0.00364653
0.00359767
0.00357907
0.00357462
0.00356854
0.00356807
0.00356493
0.00356495
0.00356276
0.00356307
0.00356154
0.00356199
0.00356091
0.00356128
0.00356068
0.00356027
0.0035658
0.00356665
0.00247416
0.00246669
0.00241974
0.00238505
0.00236793
0.00236158
0.00235422
0.00235159
0.00234655
0.00234488
0.0023412
0.00234023
0.00233764
0.00233712
0.00233526
0.00233494
0.0023337
0.0023333
0.002333
0.00233614
0.00208817
0.00220963
0.00222166
0.00222128
0.00221849
0.00221728
0.0022141
0.0022125
0.00220916
0.00220738
0.00220444
0.00220301
0.00220088
0.00219994
0.00219857
0.00219794
0.0021973
0.00219659
0.00219665
0.00219873
0.0019992
0.00216007
0.00218851
0.00219788
0.00219905
0.00220123
0.00220033
0.00220055
0.00219898
0.0021983
0.00219612
0.00219533
0.00219351
0.00219306
0.00219193
0.00219172
0.0021912
0.00219118
0.00219117
0.00219309
0.00198729
0.00215383
0.002186
0.00219784
0.00220043
0.0022042
0.00220435
0.00220579
0.00220518
0.0022055
0.00220419
0.00220391
0.00220252
0.0022024
0.00220154
0.00220164
0.00220124
0.00220153
0.00220172
0.00220366
0.00198335
0.00215018
0.00218273
0.00219521
0.00219835
0.00220287
0.00220362
0.00220606
0.00220611
0.00220721
0.00220654
0.00220689
0.00220603
0.00220636
0.00220587
0.00220636
0.0022062
0.00220678
0.0022071
0.00220938
0.00198531
0.00215071
0.00218315
0.00219574
0.00219919
0.00220412
0.00220524
0.00220827
0.00220877
0.00221055
0.00221033
0.00221115
0.00221074
0.00221148
0.00221138
0.0022122
0.00221238
0.00221318
0.00221391
0.00221602
0.00198483
0.00214958
0.00218175
0.00219419
0.00219764
0.00220264
0.00220388
0.00220712
0.00220782
0.00220995
0.00220999
0.0022111
0.00221099
0.00221201
0.00221221
0.00221337
0.00221381
0.00221484
0.00221577
0.00221807
0.00198574
0.00214989
0.00218195
0.00219435
0.00219781
0.00220283
0.00220411
0.00220742
0.0022082
0.00221044
0.00221059
0.00221185
0.00221186
0.00221303
0.00221338
0.0022147
0.00221531
0.0022164
0.00221759
0.00221981
0.00198574
0.00214989
0.00218195
0.00219435
0.00219781
0.00220283
0.00220411
0.00220742
0.0022082
0.00221044
0.00221059
0.00221185
0.00221186
0.00221303
0.00221339
0.0022147
0.00221531
0.0022164
0.0022176
0.00221982
0.00198483
0.00214958
0.00218175
0.00219419
0.00219764
0.00220264
0.00220388
0.00220712
0.00220782
0.00220995
0.00220999
0.0022111
0.00221099
0.00221201
0.00221222
0.00221337
0.00221382
0.00221483
0.0022158
0.00221809
0.00198531
0.00215071
0.00218315
0.00219574
0.00219919
0.00220412
0.00220524
0.00220827
0.00220877
0.00221055
0.00221033
0.00221116
0.00221074
0.00221148
0.00221138
0.0022122
0.00221239
0.00221317
0.00221393
0.00221603
0.00198335
0.00215018
0.00218273
0.00219521
0.00219835
0.00220288
0.00220362
0.00220606
0.0022061
0.00220722
0.00220654
0.00220689
0.00220603
0.00220637
0.00220587
0.00220637
0.0022062
0.0022068
0.00220713
0.00220942
0.00198729
0.00215383
0.002186
0.00219784
0.00220043
0.00220421
0.00220434
0.00220579
0.00220518
0.0022055
0.00220418
0.00220392
0.00220251
0.00220242
0.00220153
0.00220168
0.0022012
0.00220161
0.00220169
0.0022037
0.0019992
0.00216007
0.0021885
0.00219788
0.00219905
0.00220123
0.00220033
0.00220055
0.00219897
0.00219831
0.00219611
0.00219535
0.00219349
0.00219309
0.00219188
0.0021918
0.00219113
0.00219138
0.00219099
0.00219336
0.00208817
0.00220963
0.00222166
0.00222128
0.00221849
0.00221728
0.0022141
0.0022125
0.00220916
0.00220739
0.00220442
0.00220304
0.00220083
0.0022
0.00219847
0.00219807
0.00219708
0.00219695
0.00219618
0.00219938
0.00247416
0.00246669
0.00241974
0.00238505
0.00236793
0.00236159
0.00235422
0.00235159
0.00234654
0.00234488
0.00234119
0.00234024
0.00233761
0.00233715
0.00233519
0.00233504
0.00233353
0.00233361
0.00233244
0.00233731
0.00395785
0.00377313
0.00364653
0.00359767
0.00357907
0.00357462
0.00356854
0.00356807
0.00356493
0.00356496
0.00356275
0.00356309
0.00356152
0.00356202
0.00356086
0.00356135
0.00356053
0.00356049
0.00356511
0.00356807
0.00817439
0.00840108
0.00840016
0.00840215
0.0083994
0.00840012
0.0083977
0.00839812
0.00839609
0.00839659
0.00839524
0.00839597
0.00839519
0.00839604
0.00839563
0.00839645
0.00839637
0.00839658
0.00839939
0.00840525
0.0232823
0.0234517
0.0235556
0.0236461
0.0237212
0.0237876
0.0238372
0.0238771
0.0239061
0.023931
0.02395
0.0239664
0.0239777
0.0239866
0.0239917
0.0239956
0.0239973
0.0239988
0.0239991
0.0239997
0.0239997
0.0239999
0.0239998
0.0239999
0.0239997
0.0239998
0.0239996
0.0239997
0.0239995
0.0239995
0.0239993
0.0239993
0.0239991
0.023999
0.0239988
0.0239987
0.0239985
0.0239984
0.0239982
0.0239981
0.0239979
0.0239978
0.0239975
0.0239974
0.0239972
0.023997
0.0239968
0.0239966
0.0239964
0.0239962
0.023996
0.0239958
0.0239955
0.0239953
0.0239951
0.0239949
0.0239946
0.0239944
0.0239942
0.023994
0.0239937
0.0239935
0.0239932
0.023993
0.0239928
0.0239925
0.0239923
0.0239921
0.0239918
0.0239916
0.0239914
0.0239912
0.0239909
0.0239907
0.0239905
0.0239903
0.0239901
0.0239898
0.0239897
0.0239894
0.0239894
0.0239888
0.0239893
0.0239879
0.0239896
0.0239864
0.0239906
0.0239842
0.0239902
0.0239843
0.0131549
0.013296
0.013352
0.0134033
0.0134437
0.0134816
0.0135082
0.0135312
0.0135464
0.0135609
0.0135707
0.0135802
0.0135858
0.0135911
0.0135932
0.0135955
0.0135959
0.0135968
0.0135964
0.0135968
0.0135962
0.0135964
0.0135958
0.0135959
0.0135953
0.0135954
0.0135948
0.0135948
0.0135943
0.0135942
0.0135937
0.0135937
0.0135932
0.0135931
0.0135926
0.0135925
0.013592
0.0135919
0.0135914
0.0135912
0.0135908
0.0135906
0.0135902
0.01359
0.0135896
0.0135894
0.013589
0.0135888
0.0135884
0.0135882
0.0135878
0.0135876
0.0135872
0.0135869
0.0135866
0.0135864
0.013586
0.0135858
0.0135854
0.0135852
0.0135849
0.0135846
0.0135843
0.0135841
0.0135838
0.0135836
0.0135833
0.0135831
0.0135829
0.0135827
0.0135824
0.0135823
0.013582
0.0135819
0.0135817
0.0135815
0.0135813
0.0135812
0.013581
0.0135809
0.0135808
0.0135805
0.0135808
0.01358
0.0135809
0.0135792
0.0135816
0.013578
0.0135806
0.0135773
0.00879335
0.00896151
0.00899228
0.009025
0.00904736
0.00907308
0.00908804
0.00910395
0.00911163
0.00912157
0.00912601
0.00913275
0.00913482
0.00913866
0.00913862
0.00914031
0.0091391
0.00913971
0.00913807
0.00913823
0.00913653
0.00913651
0.00913487
0.00913475
0.0091332
0.00913302
0.00913155
0.00913133
0.00912993
0.00912967
0.00912834
0.00912805
0.00912677
0.00912646
0.00912524
0.00912491
0.00912374
0.00912339
0.00912227
0.00912191
0.00912084
0.00912046
0.00911944
0.00911906
0.00911808
0.00911769
0.00911676
0.00911637
0.00911547
0.00911509
0.00911424
0.00911385
0.00911304
0.00911267
0.0091119