/*--------------------------------*- C++ -*----------------------------------*\
  =========                 |
  \\      /  F ield         | OpenFOAM: The Open Source CFD Toolbox
   \\    /   O peration     | Website:  https://openfoam.org
    \\  /    A nd           | Version:  7
     \\/     M anipulation  |
\*---------------------------------------------------------------------------*/
FoamFile
{
    version     2.0;
    format      ascii;
    class       volScalarField;
    location    "3.15";
    object      rho_0;
}
// * * * * * * * * * * * * * * * * * * * * * * * * * * * * * * * * * * * * * //

dimensions      [1 -3 0 0 0 0 0];

internalField   nonuniform List<scalar> 
1800
(
1.22983
1.22981
1.22979
1.22978
1.22977
1.22977
1.22976
1.22976
1.22975
1.22975
1.22974
1.22974
1.22973
1.22973
1.22972
1.22972
1.22971
1.22971
1.2297
1.2297
1.22969
1.22969
1.22967
1.22969
1.22965
1.22972
1.22956
1.22989
1.22908
1.23112
1.22982
1.22982
1.2298
1.22979
1.22977
1.22977
1.22976
1.22975
1.22975
1.22974
1.22973
1.22973
1.22973
1.22972
1.22972
1.22971
1.22971
1.22971
1.2297
1.2297
1.22968
1.2297
1.22966
1.22972
1.22961
1.22977
1.22949
1.22993
1.22921
1.23031
1.22981
1.22981
1.2298
1.22979
1.22978
1.22977
1.22977
1.22976
1.22975
1.22975
1.22974
1.22974
1.22973
1.22972
1.22972
1.22972
1.22971
1.22971
1.2297
1.2297
1.22968
1.2297
1.22967
1.22969
1.22965
1.2297
1.22962
1.22971
1.22959
1.22972
1.2298
1.2298
1.22979
1.22978
1.22977
1.22977
1.22976
1.22976
1.22975
1.22975
1.22974
1.22974
1.22973
1.22973
1.22972
1.22972
1.22972
1.22971
1.22971
1.2297
1.2297
1.2297
1.22969
1.22969
1.22968
1.22968
1.22968
1.22966
1.22968
1.22964
1.22979
1.22979
1.22978
1.22977
1.22976
1.22975
1.22975
1.22974
1.22974
1.22974
1.22973
1.22973
1.22972
1.22972
1.22972
1.22971
1.22971
1.22971
1.2297
1.2297
1.2297
1.22969
1.22969
1.22969
1.22968
1.22968
1.22968
1.22967
1.22967
1.22966
1.22978
1.22978
1.22977
1.22976
1.22975
1.22974
1.22974
1.22973
1.22973
1.22972
1.22972
1.22972
1.22972
1.22971
1.22971
1.22971
1.2297
1.2297
1.2297
1.22969
1.22969
1.22969
1.22969
1.22968
1.22968
1.22968
1.22968
1.22967
1.22967
1.22967
1.22977
1.22976
1.22976
1.22975
1.22974
1.22973
1.22972
1.22972
1.22972
1.22971
1.22971
1.22971
1.22971
1.2297
1.2297
1.2297
1.22969
1.22969
1.22969
1.22969
1.22969
1.22968
1.22968
1.22968
1.22968
1.22967
1.22967
1.22967
1.22967
1.22967
1.22976
1.22975
1.22974
1.22973
1.22972
1.22972
1.22971
1.22971
1.2297
1.2297
1.2297
1.2297
1.22969
1.22969
1.22969
1.22969
1.22968
1.22968
1.22968
1.22968
1.22968
1.22967
1.22967
1.22967
1.22967
1.22967
1.22967
1.22967
1.22967
1.22966
1.22975
1.22974
1.22973
1.22972
1.22972
1.22971
1.2297
1.2297
1.22969
1.22969
1.22969
1.22969
1.22968
1.22968
1.22968
1.22968
1.22967
1.22967
1.22967
1.22967
1.22967
1.22966
1.22966
1.22966
1.22966
1.22966
1.22966
1.22966
1.22966
1.22966
1.22974
1.22974
1.22973
1.22972
1.22971
1.2297
1.22969
1.22968
1.22968
1.22968
1.22967
1.22967
1.22967
1.22966
1.22966
1.22966
1.22965
1.22965
1.22965
1.22965
1.22965
1.22964
1.22964
1.22964
1.22964
1.22964
1.22964
1.22964
1.22965
1.22964
1.22974
1.22973
1.22972
1.2297
1.22969
1.22968
1.22967
1.22967
1.22966
1.22966
1.22965
1.22965
1.22965
1.22965
1.22964
1.22964
1.22964
1.22964
1.22964
1.22964
1.22964
1.22964
1.22964
1.22964
1.22964
1.22964
1.22964
1.22964
1.22964
1.22964
1.22974
1.22972
1.2297
1.22969
1.22968
1.22967
1.22967
1.22966
1.22966
1.22966
1.22965
1.22965
1.22965
1.22964
1.22964
1.22964
1.22964
1.22964
1.22964
1.22964
1.22964
1.22964
1.22964
1.22964
1.22964
1.22964
1.22964
1.22964
1.22964
1.22965
1.21747
1.20809
1.2021
1.19738
1.19338
1.18988
1.18673
1.18389
1.18128
1.17886
1.1766
1.17448
1.17246
1.17054
1.1687
1.16693
1.16521
1.16355
1.16194
1.16038
1.15886
1.15737
1.15592
1.1545
1.15312
1.15176
1.15043
1.14913
1.14785
1.1466
1.14537
1.14416
1.14297
1.1418
1.14065
1.13952
1.13841
1.13731
1.13623
1.13517
1.13412
1.13309
1.13207
1.13106
1.13007
1.12909
1.12813
1.12718
1.12624
1.12531
1.1244
1.1235
1.12261
1.12173
1.12086
1.12001
1.11917
1.11835
1.11753
1.11673
1.11595
1.11517
1.11442
1.11367
1.11294
1.11223
1.11154
1.11086
1.11019
1.10955
1.10892
1.10831
1.10771
1.10714
1.10658
1.10605
1.10553
1.10503
1.10455
1.10408
1.10364
1.10321
1.10281
1.10242
1.10205
1.1017
1.10136
1.10105
1.10075
1.10047
1.1002
1.09995
1.09972
1.0995
1.09929
1.0991
1.09893
1.09876
1.09861
1.09847
1.09835
1.09823
1.09812
1.09803
1.09794
1.09786
1.09779
1.09773
1.09767
1.09763
1.09758
1.09755
1.09751
1.09749
1.09746
1.09745
1.09743
1.09743
1.09741
1.09742
1.22656
1.21997
1.21464
1.21027
1.2065
1.20315
1.20012
1.19734
1.19478
1.19239
1.19015
1.18803
1.18601
1.18407
1.18222
1.18043
1.1787
1.17703
1.1754
1.17382
1.17228
1.17078
1.16931
1.16787
1.16647
1.16509
1.16375
1.16243
1.16113
1.15986
1.15861
1.15738
1.15618
1.15499
1.15382
1.15268
1.15155
1.15043
1.14934
1.14826
1.14719
1.14614
1.14511
1.14408
1.14308
1.14208
1.1411
1.14013
1.13918
1.13823
1.1373
1.13639
1.13548
1.13459
1.1337
1.13284
1.13198
1.13114
1.1303
1.12949
1.12868
1.12789
1.12712
1.12635
1.12561
1.12487
1.12416
1.12346
1.12277
1.12211
1.12145
1.12082
1.12021
1.11961
1.11903
1.11847
1.11792
1.1174
1.11689
1.11641
1.11594
1.11549
1.11506
1.11465
1.11425
1.11388
1.11352
1.11318
1.11286
1.11255
1.11226
1.11199
1.11174
1.1115
1.11127
1.11106
1.11086
1.11068
1.11051
1.11036
1.11021
1.11008
1.10996
1.10984
1.10974
1.10965
1.10957
1.10949
1.10942
1.10936
1.10931
1.10926
1.10922
1.10918
1.10915
1.10913
1.1091
1.10909
1.10907
1.10906
1.22941
1.22661
1.22314
1.21978
1.21667
1.21378
1.21109
1.20858
1.20622
1.20399
1.20188
1.19985
1.19792
1.19605
1.19425
1.19251
1.19082
1.18918
1.18758
1.18602
1.1845
1.18301
1.18156
1.18014
1.17875
1.17738
1.17604
1.17473
1.17344
1.17217
1.17093
1.1697
1.1685
1.16731
1.16615
1.165
1.16386
1.16275
1.16165
1.16057
1.1595
1.15845
1.15741
1.15638
1.15537
1.15437
1.15339
1.15242
1.15145
1.15051
1.14957
1.14865
1.14773
1.14683
1.14595
1.14507
1.1442
1.14335
1.14251
1.14168
1.14087
1.14007
1.13928
1.1385
1.13774
1.13699
1.13626
1.13554
1.13484
1.13415
1.13348
1.13283
1.13219
1.13157
1.13097
1.13038
1.12982
1.12927
1.12873
1.12822
1.12772
1.12725
1.12679
1.12635
1.12593
1.12552
1.12514
1.12477
1.12442
1.12408
1.12377
1.12347
1.12319
1.12292
1.12267
1.12243
1.12221
1.122
1.12181
1.12163
1.12146
1.1213
1.12116
1.12103
1.12091
1.1208
1.12069
1.1206
1.12052
1.12044
1.12037
1.12031
1.12025
1.12021
1.12016
1.12013
1.12009
1.12006
1.12004
1.12002
1.22976
1.22919
1.22775
1.22588
1.22384
1.22177
1.21972
1.21772
1.21578
1.21389
1.21207
1.21029
1.20856
1.20688
1.20525
1.20364
1.20208
1.20055
1.19905
1.19759
1.19615
1.19474
1.19336
1.192
1.19067
1.18936
1.18807
1.18681
1.18556
1.18433
1.18313
1.18194
1.18077
1.17962
1.17848
1.17736
1.17626
1.17517
1.17409
1.17303
1.17198
1.17095
1.16993
1.16892
1.16793
1.16695
1.16598
1.16502
1.16407
1.16314
1.16221
1.1613
1.1604
1.15951
1.15863
1.15776
1.15691
1.15606
1.15522
1.1544
1.15359
1.15279
1.152
1.15122
1.15046
1.14971
1.14897
1.14825
1.14754
1.14684
1.14616
1.1455
1.14485
1.14421
1.14359
1.14299
1.1424
1.14183
1.14128
1.14074
1.14022
1.13972
1.13924
1.13877
1.13832
1.13789
1.13748
1.13708
1.1367
1.13634
1.136
1.13567
1.13536
1.13506
1.13478
1.13452
1.13427
1.13403
1.13381
1.13361
1.13341
1.13323
1.13306
1.13291
1.13276
1.13263
1.13251
1.1324
1.13229
1.1322
1.13211
1.13203
1.13196
1.1319
1.13184
1.13179
1.13174
1.1317
1.13167
1.13163
1.22967
1.22965
1.22939
1.22876
1.22784
1.22673
1.2255
1.2242
1.22286
1.22151
1.22014
1.21878
1.21742
1.21606
1.21472
1.21339
1.21207
1.21076
1.20947
1.2082
1.20694
1.20569
1.20446
1.20325
1.20205
1.20087
1.1997
1.19855
1.19741
1.19628
1.19517
1.19408
1.19299
1.19192
1.19087
1.18982
1.18879
1.18777
1.18676
1.18576
1.18478
1.1838
1.18284
1.18189
1.18095
1.18002
1.1791
1.17819
1.17728
1.17639
1.17551
1.17464
1.17378
1.17293
1.17209
1.17126
1.17044
1.16962
1.16882
1.16803
1.16724
1.16647
1.16571
1.16496
1.16422
1.16349
1.16277
1.16206
1.16137
1.16068
1.16001
1.15936
1.15871
1.15808
1.15746
1.15686
1.15627
1.1557
1.15514
1.1546
1.15407
1.15356
1.15306
1.15258
1.15212
1.15168
1.15124
1.15083
1.15043
1.15005
1.14968
1.14933
1.149
1.14868
1.14838
1.14809
1.14782
1.14756
1.14732
1.14709
1.14687
1.14667
1.14648
1.1463
1.14613
1.14598
1.14584
1.1457
1.14558
1.14547
1.14536
1.14527
1.14518
1.1451
1.14503
1.14496
1.14491
1.14485
1.14481
1.14475
1.22966
1.22964
1.22962
1.22955
1.22935
1.22901
1.22854
1.22795
1.22727
1.22652
1.22572
1.22487
1.224
1.22309
1.22217
1.22123
1.22028
1.21933
1.21836
1.2174
1.21643
1.21547
1.2145
1.21354
1.21258
1.21162
1.21067
1.20972
1.20878
1.20784
1.20691
1.20599
1.20507
1.20416
1.20326
1.20236
1.20147
1.20059
1.19971
1.19884
1.19798
1.19713
1.19629
1.19545
1.19462
1.1938
1.19298
1.19217
1.19137
1.19058
1.18979
1.18902
1.18825
1.18749
1.18673
1.18599
1.18525
1.18451
1.18379
1.18307
1.18236
1.18166
1.18097
1.18028
1.17961
1.17894
1.17828
1.17763
1.17699
1.17636
1.17574
1.17513
1.17453
1.17394
1.17336
1.1728
1.17225
1.1717
1.17117
1.17065
1.17015
1.16966
1.16918
1.16871
1.16826
1.16783
1.16741
1.167
1.1666
1.16622
1.16586
1.16551
1.16517
1.16485
1.16454
1.16425
1.16397
1.1637
1.16345
1.16321
1.16298
1.16277
1.16256
1.16237
1.1622
1.16203
1.16187
1.16173
1.1616
1.16147
1.16136
1.16125
1.16115
1.16106
1.16097
1.1609
1.16083
1.16076
1.16072
1.16064
1.22966
1.22964
1.22963
1.22961
1.22959
1.22953
1.22942
1.22925
1.22902
1.22873
1.22839
1.228
1.22756
1.22709
1.22659
1.22605
1.2255
1.22492
1.22432
1.2237
1.22308
1.22244
1.22179
1.22114
1.22047
1.2198
1.21912
1.21844
1.21775
1.21707
1.21638
1.21569
1.215
1.21431
1.21362
1.21293
1.21224
1.21155
1.21087
1.21019
1.20951
1.20884
1.20816
1.2075
1.20683
1.20618
1.20552
1.20487
1.20422
1.20358
1.20294
1.2023
1.20168
1.20105
1.20044
1.19982
1.19922
1.19861
1.19801
1.19742
1.19683
1.19625
1.19568
1.19511
1.19455
1.19399
1.19344
1.19289
1.19236
1.19182
1.1913
1.19078
1.19027
1.18977
1.18928
1.1888
1.18832
1.18786
1.1874
1.18695
1.18651
1.18608
1.18567
1.18526
1.18486
1.18448
1.18411
1.18374
1.18339
1.18305
1.18272
1.18241
1.1821
1.18181
1.18153
1.18126
1.18101
1.18076
1.18053
1.18031
1.1801
1.17989
1.17971
1.17953
1.17936
1.1792
1.17905
1.17891
1.17878
1.17866
1.17855
1.17845
1.17835
1.17826
1.17818
1.1781
1.17803
1.17796
1.17791
1.17783
1.22966
1.22964
1.22963
1.22961
1.2296
1.22958
1.22954
1.22949
1.22942
1.22931
1.22918
1.22901
1.22881
1.22858
1.22832
1.22804
1.22773
1.22739
1.22704
1.22667
1.22628
1.22588
1.22546
1.22503
1.22459
1.22413
1.22367
1.2232
1.22272
1.22224
1.22175
1.22125
1.22076
1.22025
1.21975
1.21924
1.21874
1.21823
1.21772
1.2172
1.21669
1.21619
1.21568
1.21517
1.21467
1.21416
1.21366
1.21316
1.21266
1.21216
1.21167
1.21118
1.21069
1.21021
1.20973
1.20925
1.20878
1.20831
1.20784
1.20737
1.20691
1.20645
1.206
1.20555
1.20511
1.20467
1.20423
1.2038
1.20338
1.20295
1.20254
1.20213
1.20172
1.20132
1.20093
1.20054
1.20016
1.19978
1.19941
1.19905
1.1987
1.19835
1.19801
1.19768
1.19736
1.19705
1.19674
1.19645
1.19616
1.19588
1.19561
1.19535
1.1951
1.19486
1.19463
1.1944
1.19419
1.19399
1.19379
1.19361
1.19343
1.19326
1.1931
1.19295
1.19281
1.19268
1.19255
1.19243
1.19232
1.19222
1.19212
1.19203
1.19195
1.19187
1.1918
1.19173
1.19167
1.19161
1.19157
1.1915
1.22965
1.22963
1.22962
1.22961
1.2296
1.22958
1.22956
1.22954
1.2295
1.22946
1.2294
1.22932
1.22921
1.22909
1.22895
1.22878
1.2286
1.2284
1.22818
1.22794
1.22769
1.22743
1.22716
1.22687
1.22657
1.22626
1.22594
1.22561
1.22527
1.22493
1.22459
1.22423
1.22388
1.22352
1.22315
1.22278
1.22241
1.22204
1.22167
1.22129
1.22091
1.22054
1.22016
1.21979
1.21941
1.21903
1.21866
1.21828
1.21791
1.21754
1.21717
1.2168
1.21643
1.21607
1.2157
1.21534
1.21498
1.21463
1.21427
1.21392
1.21357
1.21322
1.21288
1.21254
1.2122
1.21186
1.21153
1.2112
1.21087
1.21055
1.21023
1.20992
1.20961
1.2093
1.209
1.2087
1.20841
1.20812
1.20783
1.20755
1.20728
1.20701
1.20675
1.2065
1.20625
1.206
1.20577
1.20554
1.20532
1.2051
1.20489
1.20469
1.20449
1.2043
1.20412
1.20395
1.20378
1.20362
1.20347
1.20333
1.20319
1.20306
1.20293
1.20281
1.2027
1.2026
1.2025
1.2024
1.20231
1.20223
1.20215
1.20208
1.20201
1.20195
1.20189
1.20183
1.20179
1.20173
1.2017
1.20164
1.22965
1.22963
1.22962
1.22961
1.2296
1.22958
1.22957
1.22955
1.22953
1.2295
1.22947
1.22942
1.22936
1.22928
1.2292
1.22909
1.22898
1.22885
1.22871
1.22856
1.22839
1.22822
1.22804
1.22784
1.22764
1.22743
1.22721
1.22699
1.22676
1.22653
1.22629
1.22605
1.2258
1.22555
1.22529
1.22504
1.22478
1.22451
1.22425
1.22399
1.22372
1.22346
1.22319
1.22293
1.22266
1.22239
1.22213
1.22186
1.22159
1.22133
1.22107
1.2208
1.22054
1.22028
1.22002
1.21976
1.21951
1.21925
1.219
1.21874
1.21849
1.21825
1.218
1.21775
1.21751
1.21727
1.21703
1.21679
1.21656
1.21632
1.21609
1.21587
1.21564
1.21542
1.2152
1.21499
1.21478
1.21457
1.21436
1.21416
1.21396
1.21377
1.21358
1.21339
1.21321
1.21304
1.21287
1.2127
1.21254
1.21238
1.21223
1.21208
1.21194
1.2118
1.21167
1.21154
1.21142
1.2113
1.21119
1.21109
1.21098
1.21089
1.21079
1.21071
1.21062
1.21055
1.21047
1.2104
1.21034
1.21027
1.21021
1.21016
1.21011
1.21006
1.21001
1.20997
1.20993
1.20989
1.20986
1.20982
1.22964
1.22963
1.22962
1.22961
1.2296
1.22959
1.22957
1.22956
1.22954
1.22952
1.22949
1.22946
1.22942
1.22937
1.22931
1.22925
1.22917
1.22909
1.229
1.22891
1.22881
1.2287
1.22858
1.22846
1.22833
1.2282
1.22807
1.22793
1.22778
1.22764
1.22749
1.22734
1.22718
1.22702
1.22686
1.2267
1.22654
1.22637
1.22621
1.22604
1.22588
1.22571
1.22554
1.22537
1.22521
1.22504
1.22487
1.2247
1.22453
1.22437
1.2242
1.22403
1.22387
1.2237
1.22354
1.22337
1.22321
1.22305
1.22289
1.22273
1.22257
1.22241
1.22225
1.22209
1.22194
1.22178
1.22163
1.22148
1.22133
1.22118
1.22103
1.22089
1.22075
1.2206
1.22046
1.22033
1.22019
1.22006
1.21992
1.21979
1.21967
1.21954
1.21942
1.2193
1.21918
1.21907
1.21896
1.21885
1.21875
1.21864
1.21854
1.21845
1.21836
1.21827
1.21818
1.2181
1.21802
1.21794
1.21786
1.21779
1.21773
1.21766
1.2176
1.21754
1.21748
1.21743
1.21738
1.21733
1.21728
1.21724
1.2172
1.21716
1.21712
1.21708
1.21705
1.21702
1.21699
1.21696
1.21693
1.2169
1.22964
1.22963
1.22962
1.22961
1.2296
1.22959
1.22957
1.22956
1.22954
1.22952
1.2295
1.22948
1.22945
1.22942
1.22939
1.22935
1.22931
1.22927
1.22923
1.22918
1.22914
1.22909
1.22903
1.22898
1.22892
1.22887
1.22881
1.22875
1.22869
1.22863
1.22857
1.2285
1.22844
1.22837
1.22831
1.22824
1.22817
1.2281
1.22804
1.22797
1.2279
1.22783
1.22776
1.22769
1.22762
1.22755
1.22749
1.22742
1.22735
1.22728
1.22721
1.22714
1.22707
1.22701
1.22694
1.22687
1.2268
1.22673
1.22667
1.2266
1.22653
1.22647
1.2264
1.22634
1.22627
1.22621
1.22614
1.22608
1.22602
1.22596
1.22589
1.22583
1.22577
1.22571
1.22565
1.22559
1.22553
1.22548
1.22542
1.22536
1.22531
1.22526
1.2252
1.22515
1.2251
1.22505
1.225
1.22495
1.2249
1.22486
1.22481
1.22477
1.22472
1.22468
1.22464
1.2246
1.22456
1.22452
1.22449
1.22445
1.22442
1.22438
1.22435
1.22432
1.22429
1.22426
1.22423
1.2242
1.22418
1.22415
1.22412
1.2241
1.22408
1.22405
1.22403
1.22401
1.22399
1.22396
1.22394
1.22392
)
;

boundaryField
{
    upperWall
    {
        type            calculated;
        value           nonuniform List<scalar> 
150
(
1.22973
1.22972
1.2297
1.22968
1.22967
1.22966
1.22965
1.22965
1.22964
1.22964
1.22964
1.22963
1.22963
1.22963
1.22963
1.22963
1.22962
1.22962
1.22962
1.22962
1.22962
1.22963
1.22963
1.22963
1.22963
1.22963
1.22963
1.22963
1.22964
1.22964
1.22964
1.22963
1.22963
1.22962
1.22961
1.2296
1.22959
1.22957
1.22956
1.22954
1.22952
1.2295
1.22948
1.22946
1.22944
1.22941
1.22939
1.22937
1.22935
1.22933
1.22931
1.22929
1.22927
1.22925
1.22923
1.22921
1.22919
1.22918
1.22916
1.22914
1.22912
1.22911
1.22909
1.22907
1.22905
1.22904
1.22902
1.229
1.22899
1.22897
1.22895
1.22894
1.22892
1.2289
1.22889
1.22887
1.22885
1.22884
1.22882
1.2288
1.22879
1.22877
1.22875
1.22874
1.22872
1.2287
1.22869
1.22867
1.22865
1.22864
1.22862
1.2286
1.22859
1.22857
1.22855
1.22854
1.22852
1.2285
1.22849
1.22847
1.22845
1.22843
1.22842
1.2284
1.22838
1.22837
1.22835
1.22833
1.22832
1.2283
1.22828
1.22827
1.22825
1.22823
1.22821
1.2282
1.22818
1.22816
1.22815
1.22813
1.22811
1.2281
1.22808
1.22806
1.22804
1.22803
1.22801
1.22799
1.22798
1.22796
1.22794
1.22792
1.22791
1.22789
1.22787
1.22786
1.22784
1.22782
1.2278
1.22779
1.22777
1.22775
1.22774
1.22772
1.2277
1.22768
1.22767
1.22765
1.22763
1.22761
)
;
    }
    lowerWall
    {
        type            calculated;
        value           nonuniform List<scalar> 
30
(
1.22985
1.22984
1.22982
1.2298
1.22979
1.22978
1.22978
1.22977
1.22977
1.22976
1.22976
1.22975
1.22975
1.22974
1.22974
1.22973
1.22973
1.22972
1.22972
1.22971
1.2297
1.2297
1.22969
1.22969
1.22968
1.22967
1.22967
1.22966
1.22965
1.22964
)
;
    }
    heatedWall
    {
        type            calculated;
        value           nonuniform List<scalar> 
120
(
1.20959
1.20068
1.1947
1.18994
1.18593
1.18241
1.17927
1.17643
1.17383
1.17143
1.16919
1.16709
1.16509
1.16319
1.16137
1.15961
1.15792
1.15628
1.15469
1.15314
1.15163
1.15016
1.14873
1.14733
1.14596
1.14461
1.1433
1.14201
1.14075
1.13951
1.13829
1.1371
1.13592
1.13477
1.13363
1.13251
1.13141
1.13033
1.12926
1.12821
1.12717
1.12615
1.12514
1.12415
1.12317
1.1222
1.12124
1.1203
1.11937
1.11846
1.11755
1.11666
1.11578
1.11491
1.11406
1.11321
1.11238
1.11157
1.11076
1.10997
1.10919
1.10843
1.10768
1.10695
1.10623
1.10552
1.10483
1.10416
1.10351
1.10287
1.10225
1.10164
1.10106
1.10049
1.09994
1.09941
1.09889
1.0984
1.09792
1.09747
1.09703
1.09661
1.09621
1.09582
1.09546
1.09511
1.09478
1.09447
1.09418
1.0939
1.09364
1.09339
1.09316
1.09295
1.09274
1.09256
1.09238
1.09222
1.09208
1.09194
1.09182
1.0917
1.0916
1.09151
1.09142
1.09135
1.09128
1.09122
1.09116
1.09112
1.09108
1.09105
1.09101
1.09099
1.09097
1.09096
1.09094
1.09094
1.09092
1.09093
)
;
    }
    inlet
    {
        type            calculated;
        value           nonuniform List<scalar> 
12
(
1.22985
1.22984
1.22983
1.22981
1.2298
1.22978
1.22977
1.22975
1.22974
1.22973
1.22973
1.22973
)
;
    }
    outlet
    {
        type            calculated;
        value           nonuniform List<scalar> 
12
(
1.09741
1.10905
1.12001
1.13162
1.14474
1.16063
1.17783
1.19149
1.20163
1.20981
1.21689
1.22391
)
;
    }
    frontAndBack
    {
        type            empty;
    }
}


// ************************************************************************* //
