/*--------------------------------*- C++ -*----------------------------------*\
  =========                 |
  \\      /  F ield         | OpenFOAM: The Open Source CFD Toolbox
   \\    /   O peration     | Website:  https://openfoam.org
    \\  /    A nd           | Version:  7
     \\/     M anipulation  |
\*---------------------------------------------------------------------------*/
FoamFile
{
    version     2.0;
    format      ascii;
    class       volScalarField;
    location    "0.16";
    object      k;
}
// * * * * * * * * * * * * * * * * * * * * * * * * * * * * * * * * * * * * * //

dimensions      [0 2 -2 0 0 0 0];

internalField   nonuniform List<scalar> 
400
(
1.56144
1.42138
1.09801
0.687464
0.597455
0.786317
0.85056
0.772458
0.685716
0.671938
0.703958
0.674894
0.514153
0.374725
0.351945
0.288759
0.184744
0.125186
0.119995
0.0356012
1.61232
1.40961
1.62879
1.80134
1.52279
1.24171
0.878013
0.682429
0.622136
0.581775
0.502489
0.501586
0.48609
0.385579
0.771929
0.616328
0.162477
0.0773068
0.0490867
0.0117364
1.6355
1.60705
1.41767
1.34714
1.1791
0.922601
0.623246
0.514993
0.435879
0.349252
0.340234
0.440237
0.415478
0.473451
0.449812
0.534683
0.699891
0.0919835
0.00660592
0.00236797
1.91518
1.57014
2.12916
1.6861
1.0691
0.749522
0.552137
0.448292
0.368213
0.310224
0.313306
0.269373
0.480366
0.680367
0.382583
0.425755
0.413054
0.0540752
0.00442267
0.00083334
1.3147
1.03649
1.74062
1.43937
1.07124
0.55438
0.355912
0.293524
0.263962
0.236405
0.255706
0.292024
0.449016
0.818435
0.494533
0.464671
0.269382
0.0414857
0.00378174
0.000664678
0.79713
0.645495
0.61923
0.540764
0.411941
0.308906
0.264077
0.234991
0.218329
0.213801
0.212877
0.230098
0.359168
0.670007
0.623804
0.416758
0.254779
0.0417646
0.00572006
0.00140696
0.473604
0.548921
0.491198
0.390965
0.31364
0.260754
0.241391
0.218577
0.213813
0.204738
0.182758
0.195269
0.319395
0.512855
0.635556
0.486228
0.208675
0.0448883
0.0124717
0.00467626
0.387557
0.687771
0.5146
0.371226
0.284324
0.25333
0.240781
0.256817
0.276539
0.262644
0.225216
0.215485
0.282739
0.41618
0.582026
0.583789
0.248248
0.0572562
0.018779
0.0142867
0.489062
0.586862
0.431057
0.313669
0.262934
0.257702
0.273544
0.287958
0.375869
0.414049
0.408899
0.295197
0.289622
0.333951
0.502671
0.555247
0.260944
0.0701897
0.0327032
0.0334699
0.560858
0.615055
0.425904
0.306769
0.272907
0.295361
0.301236
0.274049
0.264469
0.285443
0.347304
0.33724
0.289434
0.304581
0.445218
0.510234
0.279668
0.0950745
0.047152
0.075968
0.612867
0.631193
0.452603
0.329639
0.287277
0.310078
0.313471
0.313943
0.328208
0.298081
0.323353
0.371419
0.295771
0.294669
0.418387
0.44501
0.26029
0.118721
0.077931
0.106345
0.682339
0.665626
0.47748
0.345293
0.288601
0.274274
0.325974
0.304075
0.387625
0.35757
0.417343
0.35815
0.265857
0.298344
0.377747
0.399461
0.2487
0.14029
0.123054
0.120459
0.672199
0.718104
0.508749
0.376344
0.311762
0.284504
0.320597
0.361762
0.422286
0.417566
0.31227
0.315931
0.310359
0.348025
0.374733
0.365661
0.244976
0.167788
0.172596
0.138719
0.699154
0.740912
0.604683
0.432363
0.341902
0.302427
0.317388
0.353924
0.381425
0.391409
0.390808
0.384811
0.396804
0.403801
0.365706
0.345039
0.263995
0.200814
0.198286
0.15465
0.862581
0.732944
0.692015
0.59683
0.446316
0.348371
0.315467
0.343048
0.361102
0.357972
0.396319
0.382166
0.408396
0.407399
0.371806
0.349376
0.29498
0.237576
0.218143
0.172731
0.90696
0.881981
0.978654
0.84761
0.722592
0.490704
0.36086
0.354785
0.37645
0.364228
0.387183
0.426384
0.422928
0.442057
0.37927
0.346702
0.310941
0.267073
0.243983
0.205444
0.902033
0.766423
0.88334
1.29562
1.53801
0.817902
0.45473
0.422384
0.395492
0.404638
0.404732
0.43534
0.430705
0.437859
0.413666
0.38824
0.324738
0.277634
0.262217
0.227625
0.810666
0.752053
0.856126
0.825219
1.54885
1.54869
0.600939
0.471758
0.429566
0.403146
0.412882
0.446522
0.438362
0.438152
0.405393
0.358692
0.328427
0.30284
0.288881
0.241543
0.878465
1.1428
1.06977
1.00211
1.09134
1.69966
0.703773
0.439303
0.487483
0.419784
0.400801
0.368709
0.354029
0.357851
0.348089
0.342907
0.342258
0.321753
0.259819
0.222692
0.458892
0.636275
0.436555
0.387265
0.625365
0.863172
0.409521
0.249149
0.327568
0.339591
0.288917
0.2549
0.232359
0.234065
0.256902
0.289931
0.291063
0.284981
0.282983
0.248378
)
;

boundaryField
{
    upperWall
    {
        type            fixedValue;
        value           uniform 0;
    }
    lowerWall
    {
        type            fixedValue;
        value           uniform 0;
    }
    inlet
    {
        type            fixedValue;
        value           uniform 2e-05;
    }
    outlet
    {
        type            inletOutlet;
        inletValue      uniform 0;
        value           nonuniform List<scalar> 
20
(
0
0
0
0
0
0
0
0
0
0
0.106345
0.120459
0.138719
0.15465
0.172731
0.205444
0.227625
0.241543
0.222692
0.248378
)
;
    }
    frontAndBack
    {
        type            empty;
    }
}


// ************************************************************************* //
