/*--------------------------------*- C++ -*----------------------------------*\
  =========                 |
  \\      /  F ield         | OpenFOAM: The Open Source CFD Toolbox
   \\    /   O peration     | Website:  https://openfoam.org
    \\  /    A nd           | Version:  7
     \\/     M anipulation  |
\*---------------------------------------------------------------------------*/
FoamFile
{
    version     2.0;
    format      ascii;
    class       volScalarField;
    location    "0.4925";
    object      k;
}
// * * * * * * * * * * * * * * * * * * * * * * * * * * * * * * * * * * * * * //

dimensions      [0 2 -2 0 0 0 0];

internalField   nonuniform List<scalar> 
7920
(
52.0317
56.4843
56.5774
56.7907
56.83
56.8887
56.7852
56.7286
56.6073
56.57
56.4992
56.4927
56.4565
56.4646
56.4567
56.4682
56.4962
56.4733
56.6273
56.7185
13.8446
14.012
13.4412
12.9158
12.6801
12.5948
12.5056
12.4674
12.405
12.3823
12.3411
12.3322
12.3112
12.3073
12.2953
12.2941
12.2928
12.2885
12.4537
12.4694
8.09159
9.22959
9.35028
9.34031
9.31468
9.32003
9.31151
9.31249
9.29584
9.28764
9.26608
9.25691
9.23582
9.22486
9.20517
9.19561
9.1826
9.17618
9.17937
9.2053
7.48991
8.76279
9.01668
9.11029
9.14157
9.18924
9.21062
9.24504
9.25254
9.267
9.2648
9.26881
9.26224
9.25766
9.24119
9.22903
9.21039
9.19817
9.18931
9.20395
7.42496
8.70967
8.97661
9.08601
9.12857
9.18845
9.22062
9.2694
9.28882
9.31879
9.32693
9.34599
9.34943
9.35696
9.35072
9.34355
9.32658
9.31231
9.3005
9.31139
7.43187
8.7063
8.97167
9.08266
9.12865
9.19295
9.23009
9.28482
9.31001
9.34665
9.36015
9.38712
9.39681
9.41273
9.41196
9.40951
9.39666
9.38225
9.37138
9.37918
7.43187
8.7063
8.97167
9.08266
9.12865
9.19295
9.23009
9.28482
9.31
9.34666
9.36015
9.38713
9.39678
9.41276
9.41193
9.40954
9.39665
9.38233
9.37142
9.37925
7.42496
8.70968
8.97661
9.08601
9.12856
9.18846
9.22061
9.26942
9.2888
9.31882
9.32691
9.34603
9.34937
9.35702
9.35058
9.34375
9.32642
9.31269
9.3005
9.31157
7.48991
8.76279
9.01667
9.11029
9.14156
9.18925
9.2106
9.24506
9.25251
9.26703
9.26473
9.2689
9.26206
9.25785
9.24084
9.22985
9.20942
9.19953
9.18836
9.20486
8.09159
9.22959
9.35027
9.34031
9.31467
9.32004
9.31148
9.31251
9.29579
9.28769
9.26597
9.25705
9.23555
9.22546
9.20433
9.19686
9.18066
9.17901
9.17673
9.20864
13.8446
14.012
13.4412
12.9158
12.6801
12.5948
12.5056
12.4674
12.4049
12.3824
12.3409
12.3324
12.3108
12.3079
12.2944
12.2959
12.2899
12.2932
12.4426
12.4814
52.0317
56.4843
56.5774
56.7907
56.83
56.8887
56.7851
56.7288
56.607
56.5706
56.4985
56.4939
56.4546
56.4678
56.4516
56.4768
56.4814
56.4982
56.5794
56.8002
7.6735
9.67012
9.77093
9.67073
9.65199
9.58322
9.56597
9.50872
9.4969
9.46025
9.45827
9.43698
9.43993
9.42688
9.43319
9.42401
9.43539
9.42138
9.43688
9.48013
6.02283
8.25312
8.60045
8.66419
8.68889
8.69988
8.69727
8.68669
8.67177
8.65908
8.64826
8.63977
8.63371
8.62817
8.62633
8.62308
8.62479
8.62333
8.6338
8.64201
5.70672
7.91289
8.26717
8.34593
8.37134
8.40503
8.423
8.44135
8.44435
8.44798
8.44526
8.44344
8.43718
8.43125
8.42423
8.41778
8.41532
8.40961
8.41059
8.43865
5.69844
7.90535
8.25601
8.32696
8.33987
8.36434
8.37932
8.40017
8.40753
8.41597
8.41699
8.41913
8.41686
8.41122
8.40093
8.38849
8.3792
8.36613
8.36472
8.37726
5.68649
7.89031
8.24096
8.31296
8.32305
8.34537
8.35762
8.37847
8.3853
8.39459
8.39582
8.40021
8.39987
8.39778
8.38807
8.37464
8.36014
8.34485
8.33489
8.34735
5.69282
7.89849
8.2483
8.31982
8.32944
8.35144
8.36331
8.38425
8.39099
8.40039
8.40164
8.40691
8.40766
8.4075
8.39968
8.38606
8.37006
8.35245
8.3399
8.34957
5.69282
7.89849
8.24829
8.31983
8.32944
8.35144
8.36331
8.38426
8.39098
8.4004
8.40164
8.40692
8.40765
8.40751
8.39966
8.38611
8.37002
8.35247
8.33988
8.34961
5.68649
7.89031
8.24096
8.31296
8.32305
8.34538
8.35761
8.37849
8.38528
8.39461
8.3958
8.40024
8.39983
8.39783
8.38793
8.37488
8.35989
8.34515
8.33472
8.34738
5.69844
7.90536
8.25601
8.32697
8.33986
8.36435
8.3793
8.4002
8.40749
8.41602
8.41694
8.41919
8.41671
8.41152
8.40044
8.3892
8.37825
8.36717
8.36371
8.37774
5.70671
7.91289
8.26717
8.34594
8.37133
8.40504
8.42297
8.44138
8.4443
8.44804
8.44514
8.44356
8.43692
8.43183
8.42337
8.41909
8.41353
8.41197
8.40779
8.44115
6.02283
8.25312
8.60045
8.6642
8.68888
8.69989
8.69726
8.68672
8.67171
8.65917
8.64812
8.64
8.63336
8.62874
8.62545
8.62434
8.6228
8.62649
8.62822
8.64989
7.6735
9.67012
9.77093
9.67073
9.65198
9.58323
9.56596
9.50875
9.49687
9.46034
9.45817
9.43718
9.43964
9.42739
9.43243
9.42538
9.43323
9.42553
9.43016
9.49193
0.477109
1.03523
1.13245
1.10302
1.02866
0.960358
0.906624
0.868265
0.841213
0.821848
0.809202
0.798845
0.792562
0.786878
0.783727
0.781805
0.779429
0.781057
0.775626
0.788562
0.0855916
0.382262
0.526985
0.589975
0.612626
0.626621
0.633296
0.639943
0.642258
0.643788
0.643261
0.642572
0.640832
0.639813
0.638433
0.637752
0.637083
0.636803
0.636799
0.640246
0.0639199
0.299594
0.416584
0.475662
0.494916
0.50918
0.51267
0.519132
0.521063
0.52515
0.526656
0.529524
0.530525
0.532019
0.532775
0.533184
0.534048
0.533949
0.534477
0.537098
0.0677819
0.303226
0.417763
0.474219
0.493046
0.505069
0.507367
0.510597
0.510713
0.511526
0.511514
0.511876
0.511758
0.511634
0.511402
0.511094
0.511236
0.510959
0.511399
0.513745
0.0659122
0.299236
0.412593
0.469013
0.487329
0.499335
0.50135
0.50438
0.504208
0.504696
0.504319
0.504302
0.50366
0.503049
0.502091
0.501245
0.500763
0.500069
0.499945
0.501766
0.0669635
0.301476
0.415255
0.471455
0.489919
0.501808
0.50398
0.506961
0.506857
0.507325
0.507006
0.506984
0.506389
0.505727
0.504715
0.503707
0.503057
0.502117
0.501908
0.503563
0.0669635
0.301476
0.415255
0.471455
0.489919
0.501808
0.50398
0.506961
0.506857
0.507325
0.507006
0.506984
0.506389
0.505729
0.504713
0.50371
0.503054
0.50212
0.501903
0.503561
0.0659121
0.299236
0.412593
0.469013
0.487328
0.499335
0.50135
0.50438
0.504208
0.504696
0.504318
0.504301
0.503658
0.503053
0.502086
0.50125
0.500757
0.50007
0.499947
0.501762
0.0677818
0.303227
0.417762
0.474219
0.493045
0.50507
0.507366
0.510598
0.510713
0.511527
0.511512
0.511876
0.511751
0.511648
0.511386
0.511104
0.511216
0.510958
0.511379
0.513711
0.0639198
0.299594
0.416583
0.475663
0.494915
0.509181
0.512668
0.519134
0.521062
0.525152
0.526651
0.529532
0.530509
0.532043
0.532744
0.533185
0.53401
0.53395
0.534437
0.537037
0.0855915
0.382262
0.526984
0.589975
0.612625
0.626623
0.633293
0.639948
0.642252
0.643793
0.643249
0.642579
0.64081
0.639857
0.638364
0.637825
0.636965
0.636888
0.636646
0.640203
0.477109
1.03523
1.13245
1.10302
1.02866
0.96036
0.906621
0.868271
0.841206
0.821865
0.809184
0.798887
0.79252
0.786977
0.783651
0.781989
0.77935
0.781541
0.775394
0.789602
0.477109
1.03523
1.13245
1.10302
1.02866
0.960358
0.906624
0.868265
0.841213
0.821849
0.809203
0.798845
0.792562
0.786879
0.783727
0.781805
0.779428
0.781057
0.775626
0.788562
0.0855916
0.382262
0.526985
0.589975
0.612626
0.626622
0.633296
0.639943
0.642258
0.643788
0.643261
0.642573
0.640833
0.639814
0.638434
0.637752
0.637083
0.636803
0.636799
0.640246
0.0639199
0.299594
0.416584
0.475663
0.494916
0.50918
0.51267
0.519132
0.521063
0.525151
0.526656
0.529524
0.530525
0.53202
0.532776
0.533184
0.534049
0.533949
0.534478
0.537098
0.067782
0.303226
0.417763
0.474219
0.493046
0.505069
0.507368
0.510597
0.510713
0.511527
0.511514
0.511876
0.511759
0.511634
0.511402
0.511095
0.511236
0.510959
0.511399
0.513745
0.0659122
0.299236
0.412594
0.469013
0.487329
0.499335
0.50135
0.50438
0.504208
0.504696
0.504319
0.504302
0.50366
0.503049
0.502091
0.501245
0.500763
0.500069
0.499946
0.501767
0.0669636
0.301476
0.415255
0.471455
0.489919
0.501808
0.50398
0.506962
0.506858
0.507325
0.507006
0.506984
0.50639
0.505727
0.504715
0.503707
0.503057
0.502117
0.501908
0.503563
0.0669635
0.301476
0.415255
0.471455
0.489919
0.501808
0.50398
0.506962
0.506858
0.507326
0.507006
0.506984
0.506389
0.505729
0.504713
0.50371
0.503054
0.50212
0.501903
0.503561
0.0659121
0.299236
0.412593
0.469014
0.487329
0.499336
0.50135
0.50438
0.504208
0.504696
0.504318
0.504302
0.503658
0.503054
0.502086
0.50125
0.500757
0.50007
0.499947
0.501762
0.0677818
0.303227
0.417763
0.47422
0.493045
0.50507
0.507367
0.510598
0.510713
0.511527
0.511513
0.511877
0.511751
0.511648
0.511386
0.511104
0.511216
0.510958
0.511379
0.513711
0.0639198
0.299594
0.416584
0.475663
0.494915
0.509181
0.512669
0.519134
0.521062
0.525152
0.526651
0.529532
0.530509
0.532043
0.532744
0.533185
0.53401
0.53395
0.534437
0.537037
0.0855916
0.382262
0.526985
0.589975
0.612625
0.626623
0.633293
0.639948
0.642252
0.643793
0.643249
0.642579
0.64081
0.639856
0.638364
0.637825
0.636965
0.636888
0.636646
0.640204
0.477109
1.03523
1.13245
1.10302
1.02866
0.960361
0.906621
0.868271
0.841205
0.821864
0.809183
0.798886
0.792519
0.786976
0.783651
0.781989
0.77935
0.781542
0.775394
0.789602
7.6735
9.67012
9.77093
9.67072
9.65198
9.58322
9.56597
9.50873
9.49691
9.46026
9.45828
9.43699
9.43993
9.42688
9.43319
9.42402
9.43539
9.42138
9.43688
9.48013
6.02283
8.25312
8.60045
8.66419
8.68889
8.69988
8.69727
8.68669
8.67177
8.65908
8.64826
8.63977
8.63372
8.62818
8.62633
8.62309
8.62479
8.62333
8.6338
8.64201
5.70672
7.91289
8.26717
8.34593
8.37134
8.40503
8.423
8.44134
8.44435
8.44798
8.44525
8.44344
8.43718
8.43125
8.42423
8.41779
8.41533
8.40962
8.4106
8.43865
5.69844
7.90535
8.25601
8.32696
8.33987
8.36434
8.37932
8.40017
8.40753
8.41597
8.41699
8.41913
8.41686
8.41122
8.40094
8.38849
8.3792
8.36613
8.36472
8.37727
5.68649
7.89031
8.24096
8.31296
8.32305
8.34537
8.35762
8.37847
8.3853
8.39459
8.39582
8.40021
8.39987
8.39778
8.38807
8.37464
8.36014
8.34485
8.33489
8.34735
5.69282
7.89849
8.2483
8.31982
8.32944
8.35144
8.36331
8.38425
8.39099
8.40039
8.40164
8.40691
8.40767
8.4075
8.39968
8.38606
8.37006
8.35245
8.3399
8.34957
5.69282
7.89849
8.24829
8.31983
8.32944
8.35144
8.36331
8.38426
8.39098
8.4004
8.40164
8.40692
8.40765
8.40751
8.39965
8.38611
8.37002
8.35247
8.33988
8.3496
5.68649
7.89031
8.24096
8.31296
8.32305
8.34538
8.35761
8.37849
8.38528
8.39461
8.3958
8.40024
8.39983
8.39783
8.38793
8.37488
8.35988
8.34514
8.33472
8.34737
5.69844
7.90536
8.25601
8.32697
8.33986
8.36435
8.3793
8.4002
8.40749
8.41602
8.41694
8.41919
8.41671
8.41152
8.40044
8.38919
8.37824
8.36716
8.3637
8.37773
5.70671
7.91289
8.26717
8.34594
8.37133
8.40505
8.42297
8.44138
8.4443
8.44804
8.44514
8.44356
8.43691
8.43182
8.42336
8.41908
8.41352
8.41196
8.40779
8.44115
6.02283
8.25312
8.60045
8.6642
8.68888
8.69989
8.69726
8.68672
8.67171
8.65917
8.64811
8.63999
8.63335
8.62873
8.62545
8.62434
8.6228
8.62649
8.62822
8.64989
7.6735
9.67012
9.77093
9.67073
9.65198
9.58324
9.56596
9.50875
9.49686
9.46033
9.45816
9.43717
9.43963
9.42739
9.43242
9.42538
9.43323
9.42553
9.43017
9.49194
52.0317
56.4843
56.5774
56.7907
56.83
56.8887
56.7852
56.7286
56.6073
56.5701
56.4992
56.4927
56.4565
56.4646
56.4567
56.4682
56.4962
56.4733
56.6273
56.7185
13.8446
14.012
13.4412
12.9158
12.6801
12.5948
12.5056
12.4674
12.405
12.3823
12.3411
12.3322
12.3112
12.3073
12.2953
12.2942
12.2928
12.2885
12.4537
12.4694
8.09159
9.22959
9.35028
9.34031
9.31468
9.32003
9.3115
9.31248
9.29584
9.28764
9.26608
9.25692
9.23583
9.22486
9.20518
9.19561
9.1826
9.17618
9.17938
9.2053
7.48991
8.76279
9.01668
9.11029
9.14157
9.18923
9.21062
9.24504
9.25253
9.26699
9.2648
9.26881
9.26224
9.25766
9.24119
9.22903
9.2104
9.19817
9.18932
9.20395
7.42496
8.70967
8.97661
9.08601
9.12857
9.18845
9.22062
9.26941
9.28882
9.31879
9.32693
9.34599
9.34942
9.35696
9.35072
9.34355
9.32658
9.31231
9.3005
9.31139
7.43187
8.7063
8.97167
9.08266
9.12865
9.19295
9.23009
9.28482
9.31001
9.34665
9.36015
9.38712
9.39681
9.41273
9.41196
9.4095
9.39665
9.38224
9.37138
9.37918
7.43187
8.7063
8.97167
9.08266
9.12865
9.19295
9.23009
9.28483
9.31
9.34666
9.36015
9.38714
9.39679
9.41276
9.41193
9.40953
9.39664
9.38232
9.37142
9.37924
7.42496
8.70968
8.97661
9.08601
9.12856
9.18846
9.22061
9.26942
9.2888
9.31882
9.32691
9.34603
9.34938
9.35703
9.35058
9.34374
9.32641
9.31269
9.30049
9.31156
7.48991
8.76279
9.01667
9.11029
9.14156
9.18925
9.2106
9.24507
9.25251
9.26703
9.26473
9.2689
9.26206
9.25784
9.24083
9.22984
9.20941
9.19953
9.18835
9.20485
8.09159
9.22959
9.35027
9.34031
9.31467
9.32004
9.31149
9.31251
9.29579
9.28769
9.26597
9.25705
9.23554
9.22545
9.20431
9.19685
9.18065
9.179
9.17673
9.20864
13.8446
14.012
13.4412
12.9158
12.6801
12.5948
12.5056
12.4674
12.4049
12.3824
12.3409
12.3324
12.3108
12.3079
12.2944
12.2959
12.2899
12.2932
12.4426
12.4814
52.0317
56.4843
56.5774
56.7907
56.83
56.8888
56.7851
56.7288
56.607
56.5705
56.4984
56.4938
56.4546
56.4677
56.4516
56.4767
56.4814
56.4982
56.5794
56.8002
144.601
146.963
148.049
148.721
149.023
149.204
149.251
149.299
149.298
149.319
149.313
149.329
149.325
149.34
149.338
149.352
149.353
149.369
149.372
149.388
149.394
149.412
149.419
149.437
149.445
149.463
149.472
149.489
149.496
149.512
149.517
149.53
149.534
149.545
149.547
149.555
149.556
149.563
149.563
149.569
149.569
149.575
149.574
149.579
149.578
149.583
149.581
149.584
149.582
149.584
149.58
149.581
149.577
149.578
149.573
149.573
149.568
149.568
149.563
149.562
149.557
149.556
149.55
149.549
149.543
149.541
149.534
149.531
149.525
149.522
149.516
149.513
149.507
149.505
149.498
149.495
149.488
149.485
149.478
149.474
149.467
149.464
149.457
149.453
149.446
149.442
149.435
149.418
149.462
149.127
47.432
49.2927
49.6346
49.8665
49.9413
50.0129
50.0119
50.0394
50.0267
50.0451
50.0338
50.0504
50.0426
50.0594
50.0552
50.073
50.0725
50.092
50.0951
50.1166
50.1233
50.1469
50.1569
50.1826
50.1954
50.2228
50.2376
50.2661
50.2823
50.3111
50.3278
50.3564
50.3731
50.401
50.4173
50.4443
50.4601
50.4862
50.5016
50.5268
50.5418
50.5663
50.5809
50.6047
50.6189
50.6417
50.6552
50.6768
50.6893
50.7097
50.7211
50.7402
50.7506
50.7685
50.7781
50.7949
50.8036
50.8195
50.8275
50.8425
50.8498
50.8638
50.8703
50.8833
50.8889
50.9009
50.9057
50.9167
50.9209
50.9312
50.9349
50.9447
50.9477
50.9568
50.9591
50.9673
50.9688
50.9761
50.9769
50.9834
50.9838
50.9896
50.9894
50.9944
50.9935
50.9975
50.9958
50.9957
51.0029
50.9005
30.5383
32.6273
32.8539
33.022
33.0544
33.1169
33.102
33.1289
33.1063
33.1249
33.1046
33.1217
33.106
33.1236
33.1126
33.1316
33.1253
33.1463
33.1445
33.1679
33.1704
33.1962
33.2028
33.2309
33.241
33.2712
33.284
33.3157
33.3305
33.3631
33.3791
33.4119
33.4286
33.4614
33.4786
33.5111
33.5286
33.5609
33.5787
33.6107
33.6289
33.6607
33.6791
33.7106
33.7291
33.76
33.7781
33.8081
33.8257
33.8546
33.8715
33.8993
33.9155
33.9423
33.9578
33.9836
33.9985
34.0233
34.0376
34.0615
34.0749
34.0978
34.1104
34.1321
34.1437
34.1641
34.1747
34.1941
34.2038
34.2223
34.2313
34.2489
34.257
34.2736
34.2806
34.296
34.3018
34.3159
34.3207
34.3337
34.3376
34.3495
34.3526
34.3633
34.3651
34.3744
34.3752
34.38
34.392
34.3293
28.2296
30.7025
30.9463
31.1186
31.148
31.2173
31.1998
31.2284
31.1994
31.217
31.1898
31.206
31.1843
31.2016
31.1855
31.2049
31.1945
31.2165
31.2116
31.2365
31.2368
31.2646
31.2697
31.3002
31.3093
31.3421
31.3543
31.3887
31.403
31.4382
31.4539
31.4894
31.5058
31.5411
31.5579
31.5929
31.6101
31.6448
31.6622
31.6967
31.7146
31.7488
31.7671
31.8011
31.8195
31.8528
31.871
31.9033
31.921
31.9522
31.9692
31.9993
32.0156
32.0446
32.0605
32.0885
32.1037
32.1308
32.1454
32.1716
32.1855
32.2107
32.2237
32.2477
32.2598
32.2825
32.2937
32.3152
32.3257
32.3464
32.3561
32.3759
32.3848
32.4036
32.4114
32.429
32.4355
32.4518
32.4574
32.4724
32.4772
32.4912
32.4951
32.5079
32.5106
32.5219
32.5237
32.5303
32.5433
32.4975
28.0089
30.6979
30.9636
31.1463
31.1748
31.2501
31.2308
31.2611
31.2275
31.2447
31.2125
31.2279
31.2017
31.2185
31.1989
31.2182
31.205
31.2275
31.2205
31.2463
31.2452
31.2743
31.2785
31.3106
31.3193
31.354
31.3661
31.4024
31.4169
31.4541
31.4699
31.5073
31.5239
31.5611
31.578
31.6148
31.632
31.6684
31.6859
31.722
31.7399
31.7758
31.794
31.8295
31.8479
31.8826
31.9007
31.9344
31.9518
31.9843
32.001
32.0322
32.0483
32.0783
32.0939
32.1228
32.1378
32.1658
32.1801
32.2071
32.2208
32.2468
32.2596
32.2844
32.2962
32.3197
32.3306
32.3529
32.3631
32.3846
32.3942
32.4148
32.4236
32.4432
32.451
32.4693
32.476
32.4929
32.4987
32.5145
32.5195
32.5342
32.5385
32.5521
32.5551
32.5673
32.5693
32.5773
32.5883
32.5496
28.0621
30.8814
31.1562
31.3378
31.361
31.4343
31.4129
31.4426
31.4064
31.4223
31.3874
31.4017
31.3731
31.3891
31.3675
31.3864
31.3716
31.3939
31.3857
31.4117
31.4097
31.4393
31.4429
31.4757
31.4841
31.5194
31.5315
31.5686
31.5831
31.6212
31.6371
31.6754
31.692
31.73
31.747
31.7846
31.8019
31.839
31.8566
31.8934
31.9114
31.9479
31.9662
32.0024
32.0208
32.0562
32.0742
32.1085
32.1259
32.1589
32.1756
32.2073
32.2233
32.2538
32.2692
32.2985
32.3134
32.3417
32.356
32.3834
32.3969
32.4232
32.4359
32.461
32.4727
32.4965
32.5073
32.5299
32.54
32.5617
32.5713
32.5922
32.601
32.6209
32.6287
32.6473
32.654
32.6713
32.6771
32.6932
32.6984
32.7134
32.7179
32.7318
32.7351
32.7477
32.7499
32.7591
32.7676
32.7351
28.0635
30.8704
31.1249
31.2865
31.2966
31.3603
31.3358
31.3637
31.3269
31.3425
31.3075
31.3216
31.293
31.3089
31.2873
31.306
31.2912
31.3134
31.3052
31.331
31.329
31.3585
31.362
31.3947
31.403
31.4383
31.4502
31.4873
31.5017
31.5396
31.5555
31.5936
31.6102
31.6481
31.6651
31.7025
31.7197
31.7568
31.7743
31.811
31.8289
31.8653
31.8836
31.9197
31.938
31.9733
31.9913
32.0255
32.0429
32.0758
32.0924
32.124
32.14
32.1703
32.1857
32.215
32.2298
32.2581
32.2723
32.2996
32.3131
32.3393
32.352
32.377
32.3887
32.4124
32.4232
32.4457
32.4558
32.4775
32.487
32.5079
32.5166
32.5365
32.5442
32.5629
32.5695
32.5867
32.5925
32.6086
32.6138
32.6288
32.6332
32.6471
32.6504
32.663
32.6651
32.6749
32.6816
32.6538
28.0116
30.6535
30.8528
30.9754
30.9663
31.0161
30.9875
31.0133
30.9781
30.9945
30.9621
30.9773
30.951
30.9676
30.9478
30.9669
30.9536
30.9758
30.9687
30.9942
30.9929
31.0217
31.0257
31.0576
31.066
31.1003
31.1122
31.1483
31.1625
31.1994
31.215
31.2521
31.2684
31.3053
31.322
31.3585
31.3755
31.4115
31.4289
31.4646
31.4824
31.5179
31.536
31.5711
31.5893
31.6238
31.6416
31.6751
31.6923
31.7245
31.7411
31.772
31.788
31.8178
31.8331
31.8619
31.8767
31.9044
31.9186
31.9454
31.959
31.9847
31.9974
32.022
32.0337
32.057
32.0678
32.09
32.1001
32.1214
32.1309
32.1514
32.1601
32.1796
32.1872
32.2054
32.212
32.2288
32.2345
32.2502
32.2552
32.2698
32.274
32.2875
32.2905
32.3027
32.3043
32.3144
32.3185
32.2942
28.2108
30.5694
30.6941
30.7714
30.746
30.7818
30.7522
30.7751
30.7442
30.7609
30.7335
30.7492
30.7273
30.7442
30.728
30.7469
30.7363
30.7579
30.7527
30.7772
30.7772
30.8045
30.8092
30.8393
30.848
30.8802
30.8921
30.9259
30.9399
30.9746
30.9898
31.0248
31.0408
31.0756
31.092
31.1265
31.1433
31.1775
31.1946
31.2285
31.2461
31.2798
31.2977
31.3312
31.3493
31.3821
31.3999
31.4319
31.4492
31.48
31.4966
31.5263
31.5424
31.571
31.5865
31.6142
31.6291
31.6559
31.6702
31.6961
31.7098
31.7346
31.7474
31.7711
31.783
31.8054
31.8164
31.8377
31.8479
31.8684
31.8779
31.8976
31.9063
31.9249
31.9325
31.9499
31.9564
31.9724
31.9779
31.9928
31.9975
32.0113
32.0152
32.0278
32.0305
32.0417
32.0429
32.0526
32.0543
32.0362
30.428
32.2843
32.3286
32.3729
32.3405
32.368
32.3414
32.3631
32.3389
32.3565
32.3359
32.3525
32.3365
32.3536
32.3424
32.3608
32.3542
32.3746
32.3725
32.3952
32.3974
32.4226
32.4287
32.4562
32.4657
32.4952
32.5074
32.5384
32.5526
32.5844
32.5998
32.6319
32.6481
32.6802
32.6968
32.7287
32.7456
32.7772
32.7946
32.8259
32.8436
32.8748
32.8928
32.9236
32.9417
32.972
32.9898
33.0192
33.0364
33.0648
33.0814
33.1087
33.1246
33.1509
33.1662
33.1915
33.2062
33.2306
33.2446
33.2681
33.2813
33.3039
33.3162
33.3376
33.349
33.3692
33.3796
33.3987
33.4083
33.4265
33.4353
33.4527
33.4606
33.477
33.4839
33.4991
33.5048
33.5187
33.5234
33.5362
33.5401
33.5518
33.5548
33.5654
33.5672
33.5765
33.5768
33.5848
33.5813
33.5653
47.0007
48.3655
48.3869
48.4243
48.4022
48.4293
48.4134
48.4349
48.4206
48.4379
48.4262
48.4422
48.4341
48.4503
48.4458
48.463
48.4621
48.4809
48.4837
48.5045
48.5107
48.5336
48.5431
48.5681
48.5803
48.6069
48.6212
48.649
48.6645
48.6927
48.7088
48.7368
48.7529
48.7802
48.796
48.8225
48.8379
48.8634
48.8784
48.9031
48.9178
48.9418
48.9562
48.9795
48.9934
49.0158
49.029
49.0503
49.0625
49.0826
49.0938
49.1126
49.1229
49.1405
49.1499
49.1664
49.1751
49.1907
49.1987
49.2134
49.2206
49.2345
49.2409
49.2538
49.2593
49.2711
49.2758
49.2868
49.2909
49.3011
49.3047
49.3144
49.3174
49.3264
49.3286
49.3367
49.3382
49.3454
49.3462
49.3526
49.3529
49.3587
49.3584
49.3634
49.3624
49.3664
49.3642
49.3681
49.3499
49.3419
142.858
143.677
143.791
143.88
143.891
143.944
143.947
143.978
143.972
143.991
143.984
143.999
143.994
144.008
144.006
144.019
144.02
144.034
144.037
144.053
144.058
144.075
144.081
144.099
144.107
144.124
144.132
144.149
144.156
144.171
144.176
144.189
144.192
144.203
144.205
144.213
144.214
144.221
144.221
144.227
144.226
144.232
144.231
144.236
144.235
144.239
144.237
144.241
144.238
144.24
144.236
144.237
144.233
144.233
144.229
144.228
144.224
144.223
144.218
144.217
144.212
144.211
144.205
144.203
144.197
144.195
144.188
144.185
144.178
144.176
144.169
144.167
144.16
144.158
144.151
144.148
144.141
144.137
144.13
144.126
144.119
144.115
144.108
144.104
144.097
144.092
144.084
144.079
144.044
144.009
30.2995
31.119
31.3435
31.4632
31.5211
31.5503
31.5587
31.5679
31.5673
31.5747
31.5739
31.5828
31.5833
31.5943
31.5969
31.6102
31.6153
31.6312
31.639
31.6575
31.668
31.689
31.702
31.725
31.7399
31.7645
31.7806
31.8057
31.8222
31.8471
31.8632
31.8872
31.9024
31.9252
31.9394
31.9609
31.9741
31.9945
32.0069
32.0263
32.0382
32.0568
32.0682
32.0861
32.0969
32.1139
32.1238
32.1396
32.1484
32.1629
32.1706
32.1838
32.1906
32.2028
32.2089
32.2202
32.2256
32.2362
32.241
32.2509
32.2552
32.2644
32.2679
32.2763
32.2792
32.2866
32.2889
32.2957
32.2975
32.3039
32.3056
32.3118
32.3131
32.319
32.3198
32.325
32.3253
32.3299
32.3299
32.3341
32.334
32.3382
32.3379
32.3421
32.3415
32.3457
32.3447
32.3477
32.3582
32.2889
28.1229
29.5146
29.7463
29.8737
29.9323
29.9653
29.9723
29.9799
29.9762
29.9787
29.9732
29.9749
29.9693
29.9708
29.9654
29.9669
29.9619
29.9635
29.9591
29.9611
29.9574
29.96
29.9572
29.9605
29.9588
29.9629
29.9623
29.9673
29.9678
29.9735
29.975
29.9814
29.9837
29.9906
29.9935
30.0008
30.0041
30.0117
30.0153
30.023
30.0269
30.0347
30.0389
30.0469
30.0514
30.0595
30.0642
30.0723
30.0771
30.0852
30.09
30.0979
30.1026
30.1104
30.1149
30.1225
30.1269
30.1342
30.1384
30.1455
30.1495
30.1564
30.1603
30.1669
30.1706
30.1768
30.1802
30.1861
30.189
30.1946
30.1972
30.2025
30.2049
30.2098
30.2119
30.2165
30.2182
30.2225
30.2237
30.2275
30.2283
30.2318
30.2322
30.2354
30.2355
30.2383
30.2381
30.2387
30.2528
30.1996
25.8879
27.7792
28.0481
28.1844
28.2545
28.2938
28.307
28.3142
28.3124
28.3121
28.3074
28.3057
28.3003
28.2983
28.2927
28.2904
28.2847
28.2822
28.2765
28.2741
28.2685
28.2661
28.2608
28.2586
28.2537
28.2519
28.2475
28.246
28.2421
28.241
28.2376
28.2369
28.2339
28.2334
28.2308
28.2305
28.2283
28.2282
28.2261
28.2262
28.2244
28.2246
28.2232
28.2236
28.2224
28.2231
28.2223
28.2232
28.2226
28.2236
28.2232
28.2243
28.2241
28.2253
28.2252
28.2264
28.2264
28.2276
28.2277
28.229
28.2292
28.2306
28.2308
28.2322
28.2325
28.2339
28.2342
28.2355
28.2356
28.2369
28.237
28.2382
28.2384
28.2396
28.2397
28.2408
28.2408
28.2419
28.2417
28.2426
28.2422
28.243
28.2425
28.2432
28.2426
28.2431
28.2425
28.2404
28.2511
28.1952
25.1448
27.2675
27.5503
27.687
27.7619
27.8074
27.8269
27.8374
27.838
27.8383
27.8348
27.833
27.8287
27.8264
27.8218
27.8192
27.8144
27.8117
27.8069
27.8041
27.7993
27.7965
27.7919
27.7893
27.785
27.7826
27.7787
27.7766
27.773
27.7712
27.768
27.7665
27.7636
27.7622
27.7595
27.7583
27.7557
27.7546
27.7522
27.7511
27.7488
27.7478
27.7457
27.7448
27.7429
27.7422
27.7406
27.7401
27.7386
27.7381
27.7368
27.7364
27.7351
27.7348
27.7336
27.7333
27.7321
27.7319
27.7308
27.7306
27.7297
27.7295
27.7287
27.7286
27.7278
27.7277
27.7269
27.7268
27.726
27.7259
27.725
27.725
27.7242
27.7242
27.7234
27.7234
27.7226
27.7225
27.7217
27.7215
27.7206
27.7204
27.7194
27.7192
27.7182
27.7179
27.717
27.7143
27.7221
27.6832
24.6992
26.9664
27.2429
27.3682
27.4383
27.485
27.507
27.5203
27.5227
27.5242
27.5217
27.5204
27.5169
27.5148
27.511
27.5086
27.5046
27.5021
27.4981
27.4956
27.4916
27.4892
27.4854
27.4831
27.4796
27.4776
27.4744
27.4728
27.47
27.4686
27.4661
27.465
27.4628
27.4619
27.4598
27.459
27.4571
27.4563
27.4545
27.4538
27.4521
27.4514
27.4498
27.4493
27.4479
27.4476
27.4463
27.4461
27.445
27.4448
27.4438
27.4436
27.4427
27.4425
27.4416
27.4415
27.4406
27.4405
27.4396
27.4395
27.4387
27.4387
27.438
27.438
27.4373
27.4373
27.4366
27.4365
27.4357
27.4356
27.4348
27.4347
27.434
27.4339
27.4332
27.4331
27.4324
27.4323
27.4314
27.4312
27.4303
27.43
27.429
27.4287
27.4277
27.4273
27.4263
27.424
27.4283
27.3934
24.6119
26.9107
27.1678
27.2726
27.3295
27.3701
27.3907
27.4037
27.4066
27.4084
27.4062
27.4051
27.4019
27.4002
27.3967
27.3948
27.3911
27.3891
27.3854
27.3834
27.3797
27.3777
27.3743
27.3724
27.3692
27.3677
27.3648
27.3636
27.3611
27.3602
27.3581
27.3574
27.3555
27.3549
27.3532
27.3528
27.3512
27.3508
27.3493
27.349
27.3476
27.3473
27.346
27.3459
27.3448
27.3447
27.3438
27.3439
27.3431
27.3432
27.3425
27.3426
27.3419
27.342
27.3414
27.3415
27.3409
27.341
27.3404
27.3405
27.3399
27.3401
27.3396
27.3398
27.3393
27.3394
27.3389
27.3389
27.3383
27.3384
27.3377
27.3378
27.3371
27.3372
27.3366
27.3366
27.336
27.3359
27.3351
27.335
27.3341
27.3339
27.333
27.3328
27.3318
27.3315
27.3304
27.329
27.3308
27.3029
24.6122
26.8983
27.1355
27.2212
27.2646
27.2976
27.3147
27.3261
27.3286
27.3301
27.3279
27.3268
27.3235
27.3219
27.3183
27.3165
27.3128
27.3108
27.307
27.305
27.3013
27.2994
27.2959
27.2941
27.2909
27.2893
27.2865
27.2852
27.2828
27.2818
27.2797
27.279
27.2771
27.2765
27.2749
27.2744
27.2728
27.2724
27.271
27.2706
27.2692
27.2689
27.2676
27.2675
27.2664
27.2663
27.2654
27.2655
27.2647
27.2648
27.2641
27.2642
27.2635
27.2636
27.263
27.2631
27.2624
27.2625
27.2619
27.2621
27.2615
27.2616
27.2611
27.2613
27.2608
27.2609
27.2604
27.2605
27.2599
27.2599
27.2592
27.2593
27.2586
27.2587
27.2581
27.2581
27.2575
27.2574
27.2566
27.2565
27.2556
27.2554
27.2545
27.2543
27.2533
27.253
27.2518
27.251
27.2511
27.2262
24.6991
26.9199
27.1343
27.2041
27.2368
27.2624
27.2747
27.2839
27.2849
27.286
27.2833
27.282
27.2785
27.2765
27.2727
27.2703
27.2663
27.2638
27.2598
27.2573
27.2533
27.251
27.2471
27.2449
27.2414
27.2395
27.2363
27.2347
27.2318
27.2305
27.228
27.227
27.2247
27.2238
27.2218
27.221
27.2191
27.2183
27.2165
27.2158
27.2141
27.2135
27.2119
27.2114
27.21
27.2096
27.2084
27.2081
27.207
27.2069
27.2058
27.2057
27.2047
27.2046
27.2037
27.2035
27.2026
27.2025
27.2016
27.2016
27.2008
27.2007
27.2
27.2
27.1993
27.1993
27.1985
27.1984
27.1977
27.1975
27.1968
27.1967
27.1959
27.1958
27.1951
27.195
27.1943
27.1941
27.1933
27.193
27.1921
27.1918
27.1909
27.1906
27.1895
27.1892
27.1878
27.1872
27.1865
27.1613
25.1246
27.1397
27.3099
27.3594
27.3807
27.3984
27.4056
27.4112
27.4103
27.4099
27.4064
27.4044
27.4001
27.3977
27.3931
27.3905
27.3858
27.383
27.3782
27.3754
27.3707
27.3679
27.3634
27.3607
27.3565
27.3541
27.3502
27.3481
27.3446
27.3428
27.3396
27.3381
27.3352
27.3338
27.3311
27.3298
27.3273
27.3261
27.3237
27.3226
27.3203
27.3193
27.3172
27.3164
27.3145
27.3138
27.3121
27.3115
27.31
27.3096
27.3082
27.3078
27.3065
27.3062
27.3049
27.3046
27.3035
27.3032
27.3021
27.3019
27.3009
27.3008
27.2999
27.2998
27.299
27.2989
27.298
27.2979
27.2971
27.2969
27.2961
27.296
27.2952
27.2951
27.2944
27.2943
27.2935
27.2934
27.2926
27.2924
27.2914
27.2912
27.2902
27.29
27.289
27.2887
27.2874
27.2871
27.2857
27.2668
25.8059
27.5004
27.6114
27.6408
27.6512
27.6615
27.6634
27.6663
27.6633
27.6625
27.6576
27.6558
27.6504
27.6482
27.6426
27.6403
27.6346
27.6321
27.6264
27.6239
27.6184
27.616
27.6107
27.6085
27.6036
27.6018
27.5974
27.5959
27.592
27.5909
27.5875
27.5868
27.5838
27.5833
27.5807
27.5804
27.5781
27.5779
27.5758
27.5758
27.574
27.5742
27.5727
27.573
27.5719
27.5725
27.5716
27.5724
27.5718
27.5727
27.5723
27.5733
27.573
27.5741
27.5739
27.575
27.5749
27.5761
27.5761
27.5774
27.5775
27.5788
27.5789
27.5803
27.5805
27.5818
27.582
27.5832
27.5834
27.5845
27.5846
27.5858
27.5858
27.587
27.587
27.5881
27.5881
27.589
27.5888
27.5897
27.5893
27.59
27.5895
27.5902
27.5895
27.5901
27.589
27.5895
27.5886
27.5673
27.8948
28.9953
29.0344
29.0452
29.0449
29.0517
29.0497
29.0538
29.0492
29.0513
29.0457
29.0472
29.0415
29.0429
29.0374
29.0388
29.0337
29.0352
29.0307
29.0326
29.0289
29.0313
29.0284
29.0316
29.0297
29.0337
29.0329
29.0377
29.038
29.0436
29.0449
29.0511
29.0531
29.0598
29.0625
29.0695
29.0726
29.0798
29.0833
29.0907
29.0944
29.102
29.106
29.1137
29.1179
29.1258
29.1302
29.1382
29.1427
29.1506
29.1552
29.1629
29.1674
29.1749
29.1793
29.1866
29.1909
29.198
29.202
29.2089
29.2129
29.2195
29.2233
29.2297
29.2333
29.2394
29.2426
29.2483
29.2512
29.2566
29.2592
29.2643
29.2666
29.2714
29.2734
29.2779
29.2796
29.2837
29.2849
29.2886
29.2893
29.2927
29.2931
29.2962
29.2962
29.299
29.2985
29.3013
29.3009
29.3019
29.8992
30.3802
30.3995
30.4003
30.4002
30.4051
30.4051
30.4114
30.41
30.4169
30.4158
30.4243
30.4246
30.4351
30.4375
30.4503
30.455
30.4703
30.4777
30.4956
30.5056
30.5259
30.5383
30.5607
30.575
30.5987
30.6143
30.6387
30.6546
30.6788
30.6943
30.7177
30.7325
30.7547
30.7685
30.7895
30.8024
30.8223
30.8344
30.8534
30.865
30.8832
30.8944
30.9119
30.9225
30.9392
30.9489
30.9644
30.973
30.9873
30.9949
31.0079
31.0146
31.0266
31.0326
31.0437
31.0491
31.0595
31.0643
31.0741
31.0782
31.0873
31.0908
31.0991
31.1019
31.1093
31.1115
31.1183
31.1201
31.1264
31.128
31.1342
31.1355
31.1412
31.142
31.1472
31.1474
31.152
31.1519
31.1561
31.1559
31.16
31.1597
31.1638
31.1632
31.1673
31.1661
31.1711
31.1654
31.1659
3.67782
3.87488
3.88069
3.87434
3.87478
3.8767
3.87995
3.8873
3.89048
3.89984
3.90224
3.91292
3.91514
3.92717
3.92985
3.94333
3.94703
3.9621
3.96721
3.98396
3.99073
4.00919
4.01769
4.03776
4.04791
4.0694
4.08096
4.10352
4.11614
4.1394
4.15275
4.17635
4.19018
4.21391
4.22805
4.25179
4.26621
4.28991
4.3046
4.32828
4.34325
4.36693
4.38212
4.40571
4.42097
4.44429
4.45938
4.48221