/*--------------------------------*- C++ -*----------------------------------*\
  =========                 |
  \\      /  F ield         | OpenFOAM: The Open Source CFD Toolbox
   \\    /   O peration     | Website:  https://openfoam.org
    \\  /    A nd           | Version:  7
     \\/     M anipulation  |
\*---------------------------------------------------------------------------*/
FoamFile
{
    version     2.0;
    format      ascii;
    class       volVectorField;
    location    "1.66";
    object      U_0;
}
// * * * * * * * * * * * * * * * * * * * * * * * * * * * * * * * * * * * * * //

dimensions      [0 1 -1 0 0 0 0];

internalField   nonuniform List<vector> 
5760
(
(2.2567 0.123118 0)
(1.31303 0.0180526 0)
(1.07312 -0.00272941 0)
(0.945216 -0.000653049 0)
(0.875112 -0.000321101 0)
(0.836954 -0.000354982 0)
(0.817973 -8.01374e-05 0)
(0.804626 0.000212526 0)
(0.790922 0.000276254 0)
(0.777763 0.000214325 0)
(0.766808 0.000166033 0)
(0.758053 0.000158331 0)
(0.750749 0.00016335 0)
(0.744399 0.000163963 0)
(0.738851 0.00016047 0)
(0.734049 0.000156895 0)
(0.729913 0.00015448 0)
(0.726341 0.000152391 0)
(0.723251 0.000149929 0)
(0.720577 0.00014694 0)
(0.718271 0.000143399 0)
(0.716294 0.000139266 0)
(0.714614 0.000134587 0)
(0.713201 0.000129547 0)
(0.712026 0.000124426 0)
(0.711061 0.000119521 0)
(0.710281 0.000115078 0)
(0.709663 0.000111228 0)
(0.709189 0.000107971 0)
(0.708845 0.00010522 0)
(0.708624 0.000102842 0)
(0.708517 0.000100717 0)
(0.708518 9.87653e-05 0)
(0.708622 9.69579e-05 0)
(0.708821 9.53084e-05 0)
(0.709108 9.38768e-05 0)
(0.709476 9.2709e-05 0)
(0.709916 9.1862e-05 0)
(0.710423 9.14578e-05 0)
(0.710987 9.15793e-05 0)
(0.711602 9.23281e-05 0)
(0.712258 9.38412e-05 0)
(0.712949 9.61515e-05 0)
(0.713668 9.92406e-05 0)
(0.714409 0.000103178 0)
(0.71517 0.000107935 0)
(0.715947 0.000113321 0)
(0.716741 0.000119192 0)
(0.717551 0.000125458 0)
(0.71838 0.00013202 0)
(0.719228 0.000138782 0)
(0.720095 0.000145551 0)
(0.720983 0.000152247 0)
(0.721892 0.000158881 0)
(0.722822 0.000165222 0)
(0.723773 0.000171356 0)
(0.724744 0.000177314 0)
(0.725732 0.000182975 0)
(0.726737 0.000188437 0)
(0.727755 0.000193665 0)
(0.728786 0.000198716 0)
(0.729828 0.000203539 0)
(0.730879 0.000208157 0)
(0.731941 0.000212656 0)
(0.733011 0.000216923 0)
(0.734091 0.000220934 0)
(0.735183 0.00022472 0)
(0.736287 0.000228263 0)
(0.737403 0.000231475 0)
(0.738535 0.000234367 0)
(0.739682 0.000236963 0)
(0.740846 0.0002392 0)
(0.742027 0.000241087 0)
(0.743225 0.00024265 0)
(0.744438 0.000243939 0)
(0.745665 0.000244866 0)
(0.746908 0.00024553 0)
(0.748161 0.000246021 0)
(0.749423 0.000246258 0)
(0.750694 0.00024634 0)
(0.75197 0.000246287 0)
(0.753251 0.000246042 0)
(0.754537 0.000245679 0)
(0.755825 0.000245229 0)
(0.757115 0.000244662 0)
(0.758408 0.000244004 0)
(0.759703 0.000243235 0)
(0.761002 0.000242344 0)
(0.762305 0.000241401 0)
(0.763612 0.000240323 0)
(0.764924 0.000239054 0)
(0.766242 0.000237685 0)
(0.767567 0.00023618 0)
(0.768897 0.000234534 0)
(0.770233 0.000232758 0)
(0.771574 0.000230839 0)
(0.772919 0.000228839 0)
(0.774264 0.000226738 0)
(0.775611 0.000224502 0)
(0.776958 0.000222222 0)
(0.778301 0.000219886 0)
(0.779641 0.00021751 0)
(0.780977 0.000215147 0)
(0.782306 0.000212812 0)
(0.783629 0.000210508 0)
(0.784945 0.000208241 0)
(0.786254 0.000206005 0)
(0.787558 0.000203793 0)
(0.788858 0.000201592 0)
(0.790155 0.000199399 0)
(0.79145 0.00019721 0)
(0.792743 0.000195048 0)
(0.794036 0.000192899 0)
(0.795327 0.000190726 0)
(0.796618 0.00018854 0)
(0.797907 0.000186326 0)
(0.799195 0.000184047 0)
(0.800481 0.0001817 0)
(0.801764 0.000179294 0)
(0.803045 0.000176847 0)
(0.804321 0.000174393 0)
(0.80559 0.000171976 0)
(0.806853 0.00016963 0)
(0.808105 0.000167378 0)
(0.809347 0.000165222 0)
(0.810577 0.000163148 0)
(0.811796 0.000161129 0)
(0.813004 0.000159131 0)
(0.814203 0.000157122 0)
(0.815395 0.000155085 0)
(0.816581 0.000153006 0)
(0.817763 0.000150883 0)
(0.818942 0.000148742 0)
(0.820117 0.000146607 0)
(0.821288 0.000144494 0)
(0.822455 0.000142413 0)
(0.823616 0.0001404 0)
(0.82477 0.000138449 0)
(0.825915 0.000136537 0)
(0.827051 0.000134679 0)
(0.828177 0.000132863 0)
(0.829293 0.000131062 0)
(0.830399 0.000129264 0)
(0.831495 0.000127464 0)
(0.832581 0.000125656 0)
(0.833658 0.000123836 0)
(0.834727 0.000121999 0)
(0.835787 0.000120151 0)
(0.836839 0.000118294 0)
(0.837884 0.000116432 0)
(0.838921 0.000114569 0)
(0.83995 0.000112707 0)
(0.840972 0.00011085 0)
(0.841985 0.000108992 0)
(0.842991 0.000107149 0)
(0.843989 0.000105315 0)
(0.844979 0.000103478 0)
(0.84596 0.000101645 0)
(0.846934 9.98206e-05 0)
(0.847899 9.80005e-05 0)
(0.848856 9.61878e-05 0)
(0.849804 9.43789e-05 0)
(0.850745 9.2572e-05 0)
(0.851676 9.07681e-05 0)
(0.8526 8.89704e-05 0)
(0.853515 8.71746e-05 0)
(0.854422 8.53862e-05 0)
(0.85532 8.36005e-05 0)
(0.85621 8.18195e-05 0)
(0.857091 8.00467e-05 0)
(0.857964 7.82826e-05 0)
(0.858828 7.65191e-05 0)
(0.859684 7.47593e-05 0)
(0.860532 7.3014e-05 0)
(0.86137 7.12782e-05 0)
(0.8622 6.95452e-05 0)
(0.863021 6.78164e-05 0)
(0.863834 6.60934e-05 0)
(0.864638 6.43896e-05 0)
(0.865433 6.26978e-05 0)
(0.866219 6.09957e-05 0)
(0.866997 5.93054e-05 0)
(0.867765 5.76387e-05 0)
(0.868525 5.59725e-05 0)
(0.869275 5.43116e-05 0)
(0.870017 5.26583e-05 0)
(0.87075 5.1023e-05 0)
(0.871474 4.93935e-05 0)
(0.872188 4.7772e-05 0)
(0.872894 4.61585e-05 0)
(0.87359 4.45591e-05 0)
(0.874277 4.29687e-05 0)
(0.874956 4.13892e-05 0)
(0.875624 3.98156e-05 0)
(0.876284 3.82534e-05 0)
(0.876935 3.67029e-05 0)
(0.877576 3.5166e-05 0)
(0.878208 3.36353e-05 0)
(0.87883 3.21111e-05 0)
(0.879444 3.05993e-05 0)
(0.880048 2.91065e-05 0)
(0.880642 2.76224e-05 0)
(0.881227 2.61371e-05 0)
(0.881803 2.46666e-05 0)
(0.882369 2.32192e-05 0)
(0.882926 2.17749e-05 0)
(0.883474 2.0336e-05 0)
(0.884012 1.89141e-05 0)
(0.88454 1.75045e-05 0)
(0.885059 1.61005e-05 0)
(0.885568 1.47146e-05 0)
(0.886068 1.33408e-05 0)
(0.886558 1.19701e-05 0)
(0.887039 1.06102e-05 0)
(0.88751 9.27264e-06 0)
(0.887972 7.93872e-06 0)
(0.888424 6.61743e-06 0)
(0.888866 5.30159e-06 0)
(0.889299 4.00962e-06 0)
(0.889722 2.72035e-06 0)
(0.890136 1.44962e-06 0)
(0.890539 1.68856e-07 0)
(0.890934 -1.06367e-06 0)
(0.891318 -2.32706e-06 0)
(0.891694 -3.52197e-06 0)
(0.892059 -4.81129e-06 0)
(0.892415 -5.91158e-06 0)
(0.892762 -7.29403e-06 0)
(0.893097 -8.15305e-06 0)
(0.893428 -9.90204e-06 0)
(0.893738 -1.00947e-05 0)
(0.89406 -1.28599e-05 0)
(0.894335 -1.14358e-05 0)
(0.894659 -1.65335e-05 0)
(0.894886 -1.17568e-05 0)
(0.895226 -2.12533e-05 0)
(0.895384 -1.05725e-05 0)
(0.895777 -2.99636e-05 0)
(0.895817 -8.07776e-06 0)
(0.896416 -4.22222e-05 0)
(3.80514 0.346947 0)
(3.11856 0.138989 0)
(2.75232 0.0362014 0)
(2.48124 0.0209744 0)
(2.30392 0.0131971 0)
(2.19627 0.00726782 0)
(2.13571 0.00477151 0)
(2.09531 0.00444921 0)
(2.05963 0.00436457 0)
(2.02665 0.00389113 0)
(1.99832 0.00330576 0)
(1.97488 0.00286368 0)
(1.95515 0.00256811 0)
(1.93804 0.00233889 0)
(1.92306 0.00213397 0)
(1.90996 0.00195037 0)
(1.89854 0.0017922 0)
(1.88855 0.00165711 0)
(1.87978 0.0015395 0)
(1.87208 0.00143459 0)
(1.86531 0.00133909 0)
(1.85939 0.00125091 0)
(1.85424 0.00116906 0)
(1.84977 0.00109343 0)
(1.84592 0.00102432 0)
(1.8426 0.000961928 0)
(1.83976 0.000906102 0)
(1.83733 0.000856215 0)
(1.83528 0.000811324 0)
(1.83355 0.000770427 0)
(1.83214 0.000732692 0)
(1.83103 0.000697587 0)
(1.83019 0.000664868 0)
(1.8296 0.00063445 0)
(1.82926 0.000606307 0)
(1.82914 0.000580465 0)
(1.82923 0.00055689 0)
(1.8295 0.000535631 0)
(1.82995 0.000516911 0)
(1.83054 0.000500918 0)
(1.83127 0.000487956 0)
(1.83212 0.000478211 0)
(1.83305 0.000471582 0)
(1.83407 0.000468044 0)
(1.83515 0.000467472 0)
(1.83629 0.000469407 0)
(1.83747 0.000473295 0)
(1.8387 0.000478668 0)
(1.83997 0.000485416 0)
(1.84129 0.000493183 0)
(1.84266 0.000501633 0)
(1.84407 0.000510484 0)
(1.84553 0.000519523 0)
(1.84704 0.000528671 0)
(1.84859 0.000537539 0)
(1.8502 0.00054624 0)
(1.85186 0.000554878 0)
(1.85357 0.000563393 0)
(1.85533 0.000571821 0)
(1.85712 0.000580033 0)
(1.85896 0.000588108 0)
(1.86083 0.000595965 0)
(1.86274 0.000603525 0)
(1.86468 0.000610825 0)
(1.86666 0.000617687 0)
(1.86868 0.000624044 0)
(1.87073 0.0006299 0)
(1.87281 0.000635207 0)
(1.87493 0.000639767 0)
(1.8771 0.000643592 0)
(1.8793 0.000646829 0)
(1.88154 0.000649374 0)
(1.88383 0.000651275 0)
(1.88616 0.000652561 0)
(1.88853 0.000653373 0)
(1.89093 0.000653747 0)
(1.89338 0.000653726 0)
(1.89585 0.000653441 0)
(1.89836 0.000652884 0)
(1.9009 0.000652101 0)
(1.90346 0.000651141 0)
(1.90605 0.000649985 0)
(1.90865 0.000648626 0)
(1.91127 0.000647084 0)
(1.91391 0.00064533 0)
(1.91657 0.000643415 0)
(1.91924 0.000641263 0)
(1.92192 0.000638826 0)
(1.92463 0.000636201 0)
(1.92734 0.0006333 0)
(1.93007 0.000630075 0)
(1.93282 0.000626619 0)
(1.93558 0.000622935 0)
(1.93835 0.000619105 0)
(1.94114 0.000615142 0)
(1.94394 0.000611037 0)
(1.94675 0.000606917 0)
(1.94957 0.000602748 0)
(1.95239 0.000598486 0)
(1.95522 0.000594261 0)
(1.95804 0.000590055 0)
(1.96087 0.000585815 0)
(1.96369 0.00058168 0)
(1.96651 0.000577641 0)
(1.96932 0.000573613 0)
(1.97212 0.000569563 0)
(1.97492 0.000565466 0)
(1.97771 0.000561278 0)
(1.98049 0.000556996 0)
(1.98328 0.000552638 0)
(1.98606 0.000548314 0)
(1.98883 0.00054405 0)
(1.99161 0.000539813 0)
(1.99438 0.000535671 0)
(1.99715 0.00053158 0)
(1.99991 0.000527489 0)
(2.00267 0.000523347 0)
(2.00543 0.000519181 0)
(2.00818 0.000515041 0)
(2.01093 0.000510936 0)
(2.01366 0.000506979 0)
(2.01639 0.000503284 0)
(2.0191 0.000499879 0)
(2.0218 0.000496749 0)
(2.02447 0.00049383 0)
(2.02713 0.000491018 0)
(2.02977 0.000488194 0)
(2.03239 0.000485249 0)
(2.035 0.000482114 0)
(2.03759 0.000478796 0)
(2.04018 0.000475294 0)
(2.04275 0.000471672 0)
(2.04531 0.000468107 0)
(2.04786 0.00046467 0)
(2.05039 0.000461397 0)
(2.05292 0.000458366 0)
(2.05543 0.000455619 0)
(2.05792 0.000453102 0)
(2.0604 0.000450775 0)
(2.06286 0.000448605 0)
(2.0653 0.000446499 0)
(2.06772 0.00044438 0)
(2.07012 0.000442215 0)
(2.0725 0.000439987 0)
(2.07487 0.000437673 0)
(2.07722 0.000435264 0)
(2.07955 0.000432774 0)
(2.08187 0.000430227 0)
(2.08417 0.000427629 0)
(2.08645 0.000425002 0)
(2.08872 0.00042237 0)
(2.09098 0.000419744 0)
(2.09322 0.000417125 0)
(2.09544 0.000414516 0)
(2.09765 0.000411943 0)
(2.09984 0.000409384 0)
(2.10202 0.000406814 0)
(2.10418 0.000404251 0)
(2.10632 0.0004017 0)
(2.10845 0.000399157 0)
(2.11056 0.000396621 0)
(2.11266 0.000394096 0)
(2.11474 0.00039155 0)
(2.1168 0.000388996 0)
(2.11885 0.000386466 0)
(2.12088 0.000383931 0)
(2.12289 0.000381405 0)
(2.12489 0.000378875 0)
(2.12687 0.000376351 0)
(2.12884 0.000373839 0)
(2.13078 0.00037134 0)
(2.13272 0.000368838 0)
(2.13463 0.000366339 0)
(2.13653 0.00036387 0)
(2.13841 0.000361417 0)
(2.14027 0.00035896 0)
(2.14212 0.000356506 0)
(2.14395 0.000354066 0)
(2.14577 0.000351661 0)
(2.14756 0.000349286 0)
(2.14934 0.000346874 0)
(2.1511 0.000344475 0)
(2.15285 0.000342139 0)
(2.15458 0.000339799 0)
(2.15629 0.000337458 0)
(2.15798 0.000335132 0)
(2.15966 0.000332842 0)
(2.16132 0.000330559 0)
(2.16296 0.000328285 0)
(2.16458 0.000326024 0)
(2.16619 0.000323794 0)
(2.16778 0.000321575 0)
(2.16935 0.000319367 0)
(2.1709 0.000317175 0)
(2.17244 0.000315004 0)
(2.17395 0.000312851 0)
(2.17545 0.00031072 0)
(2.17693 0.000308601 0)
(2.1784 0.000306487 0)
(2.17984 0.000304391 0)
(2.18127 0.000302338 0)
(2.18268 0.000300301 0)
(2.18408 0.000298252 0)
(2.18545 0.000296225 0)
(2.18681 0.000294246 0)
(2.18814 0.000292272 0)
(2.18946 0.0002903 0)
(2.19077 0.000288358 0)
(2.19205 0.00028644 0)
(2.19331 0.000284532 0)
(2.19456 0.000282652 0)
(2.19579 0.000280795 0)
(2.197 0.000278941 0)
(2.19819 0.000277099 0)
(2.19937 0.000275303 0)
(2.20052 0.000273518 0)
(2.20166 0.000271737 0)
(2.20278 0.000269979 0)
(2.20388 0.000268253 0)
(2.20496 0.00026655 0)
(2.20603 0.000264851 0)
(2.20707 0.000263164 0)
(2.2081 0.000261527 0)
(2.20911 0.000259893 0)
(2.2101 0.000258298 0)
(2.21107 0.000256629 0)
(2.21202 0.000255188 0)
(2.21296 0.000253392 0)
(2.21386 0.000252366 0)
(2.21477 0.000249909 0)
(2.21563 0.000250155 0)
(2.21653 0.000245741 0)
(2.2173 0.000249277 0)
(2.21823 0.000240125 0)
(2.21888 0.000250917 0)
(2.21987 0.000232593 0)
(2.22033 0.000257069 0)
(2.22147 0.000218016 0)
(2.22158 0.000256207 0)
(2.22321 0.000186048 0)
(4.4142 0.422947 0)
(4.2336 0.213007 0)
(3.98114 0.0754599 0)
(3.68665 0.0501934 0)
(3.45292 0.0344777 0)
(3.29776 0.0204218 0)
(3.2042 0.0132631 0)
(3.1412 0.0112101 0)
(3.08875 0.0104808 0)
(3.04163 0.00940272 0)
(3.00074 0.00813473 0)
(2.96624 0.00708905 0)
(2.93691 0.00632879 0)
(2.91141 0.00573449 0)
(2.88902 0.0052191 0)
(2.86934 0.00476336 0)
(2.85203 0.00436916 0)
(2.83677 0.00403164 0)
(2.82327 0.0037397 0)
(2.8113 0.00348227 0)
(2.80067 0.00325088 0)
(2.79126 0.00303988 0)
(2.78294 0.00284626 0)
(2.77561 0.00266902 0)
(2.76917 0.0025081 0)
(2.76352 0.00236324 0)
(2.75857 0.00223346 0)
(2.75422 0.00211697 0)
(2.75042 0.00201151 0)
(2.74711 0.00191492 0)
(2.74426 0.00182554 0)
(2.74183 0.00174241 0)
(2.73981 0.00166514 0)
(2.73816 0.00159359 0)
(2.73686 0.00152759 0)
(2.73588 0.00146693 0)
(2.73521 0.00141129 0)
(2.7348 0.00136052 0)
(2.73465 0.00131473 0)
(2.73473 0.00127411 0)
(2.735 0.00123907 0)
(2.73545 0.00120973 0)
(2.73605 0.00118587 0)
(2.73678 0.00116739 0)
(2.7376 0.00115394 0)
(2.73852 0.00114463 0)
(2.73951 0.00113855 0)
(2.74058 0.00113504 0)
(2.74172 0.00113404 0)
(2.74292 0.001135 0)
(2.74419 0.0011375 0)
(2.74553 0.00114114 0)
(2.74693 0.0011456 0)
(2.74841 0.00115071 0)
(2.74995 0.00115584 0)
(2.75157 0.00116121 0)
(2.75326 0.00116697 0)
(2.75502 0.00117303 0)
(2.75685 0.00117938 0)
(2.75874 0.00118578 0)
(2.7607 0.0011923 0)
(2.76271 0.0011988 0)
(2.76479 0.00120513 0)
(2.76692 0.00121131 0)
(2.7691 0.00121711 0)
(2.77134 0.00122244 0)
(2.77363 0.00122733 0)
(2.77598 0.0012317 0)
(2.77838 0.0012353 0)
(2.78084 0.00123815 0)
(2.78336 0.00124044 0)
(2.78594 0.0012421 0)
(2.78858 0.00124314 0)
(2.79128 0.00124363 0)
(2.79404 0.00124374 0)
(2.79685 0.00124347 0)
(2.79972 0.0012429 0)
(2.80265 0.00124217 0)
(2.80562 0.00124123 0)
(2.80863 0.00124015 0)
(2.81169 0.00123895 0)
(2.81479 0.00123757 0)
(2.81792 0.00123603 0)
(2.82108 0.00123433 0)
(2.82428 0.00123242 0)
(2.8275 0.00123038 0)
(2.83076 0.00122811 0)
(2.83403 0.00122555 0)
(2.83733 0.00122285 0)
(2.84066 0.00121986 0)
(2.84401 0.00121657 0)
(2.84739 0.00121313 0)
(2.85079 0.00120956 0)
(2.85421 0.00120593 0)
(2.85765 0.00120234 0)
(2.86111 0.00119878 0)
(2.86458 0.00119535 0)
(2.86807 0.00119198 0)
(2.87158 0.00118864 0)
(2.87509 0.00118542 0)
(2.8786 0.00118225 0)
(2.88213 0.00117911 0)
(2.88565 0.00117609 0)
(2.88917 0.00117312 0)
(2.89269 0.00117006 0)
(2.89621 0.00116685 0)
(2.89972 0.00116344 0)
(2.90323 0.00115978 0)
(2.90674 0.0011559 0)
(2.91025 0.0011519 0)
(2.91376 0.00114793 0)
(2.91727 0.00114409 0)
(2.92078 0.00114041 0)
(2.92428 0.00113697 0)
(2.92779 0.00113374 0)
(2.93129 0.00113063 0)
(2.93479 0.00112759 0)
(2.93828 0.00112463 0)
(2.94177 0.00112181 0)
(2.94526 0.00111916 0)
(2.94873 0.00111679 0)
(2.95219 0.00111483 0)
(2.95564 0.00111328 0)
(2.95907 0.00111207 0)
(2.96249 0.00111107 0)
(2.96588 0.0011101 0)
(2.96925 0.00110899 0)
(2.9726 0.00110759 0)
(2.97594 0.00110582 0)
(2.97926 0.00110376 0)
(2.98257 0.00110142 0)
(2.98587 0.00109896 0)
(2.98915 0.00109666 0)
(2.99242 0.00109463 0)
(2.99568 0.00109294 0)
(2.99891 0.0010917 0)
(3.00213 0.0010909 0)
(3.00534 0.00109045 0)
(3.00852 0.00109032 0)
(3.01168 0.00109038 0)
(3.01481 0.00109048 0)
(3.01793 0.00109051 0)
(3.02103 0.00109041 0)
(3.0241 0.00109015 0)
(3.02715 0.00108972 0)
(3.03019 0.0010891 0)
(3.03321 0.00108833 0)
(3.03621 0.00108744 0)
(3.03919 0.00108645 0)
(3.04215 0.00108539 0)
(3.0451 0.00108432 0)
(3.04803 0.00108324 0)
(3.05094 0.00108215 0)
(3.05383 0.00108107 0)
(3.05671 0.00108003 0)
(3.05956 0.00107897 0)
(3.0624 0.00107789 0)
(3.06522 0.00107681 0)
(3.06803 0.00107572 0)
(3.07081 0.00107461 0)
(3.07357 0.00107349 0)
(3.07632 0.00107237 0)
(3.07905 0.0010712 0)
(3.08176 0.00106998 0)
(3.08445 0.00106877 0)
(3.08712 0.00106756 0)
(3.08977 0.00106632 0)
(3.09241 0.00106504 0)
(3.09502 0.00106377 0)
(3.09762 0.00106249 0)
(3.1002 0.0010612 0)
(3.10276 0.00105988 0)
(3.1053 0.00105856 0)
(3.10782 0.00105725 0)
(3.11032 0.00105593 0)
(3.1128 0.00105459 0)
(3.11527 0.00105324 0)
(3.11771 0.0010519 0)
(3.12014 0.00105056 0)
(3.12254 0.00104925 0)
(3.12493 0.00104787 0)
(3.12729 0.00104648 0)
(3.12964 0.00104516 0)
(3.13196 0.00104382 0)
(3.13427 0.00104244 0)
(3.13656 0.00104107 0)
(3.13882 0.00103972 0)
(3.14107 0.00103837 0)
(3.1433 0.001037 0)
(3.1455 0.00103562 0)
(3.14769 0.00103427 0)
(3.14986 0.00103291 0)
(3.152 0.00103154 0)
(3.15413 0.00103016 0)
(3.15623 0.0010288 0)
(3.15832 0.00102745 0)
(3.16038 0.00102608 0)
(3.16243 0.00102472 0)
(3.16445 0.00102335 0)
(3.16645 0.00102197 0)
(3.16844 0.00102062 0)
(3.1704 0.00101928 0)
(3.17234 0.00101791 0)
(3.17426 0.00101653 0)
(3.17616 0.00101519 0)
(3.17804 0.00101384 0)
(3.1799 0.00101248 0)
(3.18173 0.00101112 0)
(3.18355 0.00100977 0)
(3.18535 0.00100843 0)
(3.18712 0.00100708 0)
(3.18887 0.00100575 0)
(3.19061 0.0010044 0)
(3.19232 0.00100305 0)
(3.19401 0.00100172 0)
(3.19568 0.00100041 0)
(3.19732 0.000999051 0)
(3.19895 0.000997727 0)
(3.20056 0.000996394 0)
(3.20214 0.000995104 0)
(3.2037 0.00099376 0)
(3.20524 0.000992454 0)
(3.20676 0.000991132 0)
(3.20826 0.000989873 0)
(3.20974 0.000988545 0)
(3.2112 0.000987209 0)
(3.21263 0.000986019 0)
(3.21405 0.000984526 0)
(3.21543 0.000983796 0)
(3.21682 0.000981441 0)
(3.21813 0.000982289 0)
(3.21952 0.000977418 0)
(3.22072 0.000982526 0)
(3.22216 0.000971502 0)
(3.22319 0.000986262 0)
(3.22474 0.000963321 0)
(3.22551 0.000997009 0)
(3.22729 0.000949319 0)
(3.22755 0.000995908 0)
(3.22991 0.000894872 0)
(4.59167 0.395221 0)
(4.81891 0.238558 0)
(4.80849 0.101871 0)
(4.61464 0.0790441 0)
(4.39646 0.0596812 0)
(4.23014 0.0377722 0)
(4.12014 0.0248691 0)
(4.04331 0.0201282 0)
(3.98046 0.0182242 0)
(3.92498 0.0163108 0)
(3.87658 0.0142427 0)
(3.83514 0.0124887 0)
(3.79947 0.011156 0)
(3.76827 0.0100972 0)
(3.74076 0.00918552 0)
(3.71643 0.00838334 0)
(3.69489 0.00768736 0)
(3.67577 0.00708933 0)
(3.65874 0.0065725 0)
(3.64351 0.00611889 0)
(3.62989 0.00571363 0)
(3.6177 0.00534621 0)
(3.60682 0.00501067 0)
(3.59712 0.00470451 0)
(3.5885 0.00442686 0)
(3.58085 0.00417666 0)
(3.57404 0.00395174 0)
(3.568 0.00374882 0)
(3.56263 0.00356399 0)
(3.55787 0.00339371 0)
(3.55368 0.00323545 0)
(3.55001 0.00308791 0)
(3.54684 0.00295072 0)
(3.54413 0.00282379 0)
(3.54184 0.00270689 0)
(3.53994 0.00259953 0)
(3.53841 0.00250094 0)
(3.53721 0.00241061 0)
(3.53632 0.00232834 0)
(3.53571 0.00225413 0)
(3.53536 0.00218838 0)
(3.53524 0.00213095 0)
(3.53531 0.00208137 0)
(3.53555 0.00203948 0)
(3.53593 0.00200459 0)
(3.53644 0.00197527 0)
(3.53706 0.00195026 0)
(3.53779 0.0019288 0)
(3.5386 0.00191102 0)
(3.53951 0.00189625 0)
(3.54049 0.00188402 0)
(3.54156 0.00187401 0)
(3.54271 0.00186582 0)
(3.54395 0.00185913 0)
(3.54526 0.00185318 0)
(3.54666 0.00184818 0)
(3.54815 0.00184436 0)
(3.54972 0.00184156 0)
(3.55137 0.00183964 0)
(3.55311 0.00183821 0)
(3.55492 0.00183726 0)
(3.55681 0.00183658 0)
(3.55877 0.00183592 0)
(3.56081 0.00183524 0)
(3.56291 0.00183429 0)
(3.56509 0.00183303 0)
(3.56734 0.00183154 0)
(3.56965 0.00182973 0)
(3.57203 0.00182735 0)
(3.57448 0.00182444 0)
(3.577 0.00182138 0)
(3.57959 0.00181809 0)
(3.58224 0.00181454 0)
(3.58497 0.00181085 0)
(3.58776 0.00180715 0)
(3.59062 0.00180354 0)
(3.59354 0.00179999 0)
(3.59652 0.00179652 0)
(3.59957 0.00179314 0)
(3.60267 0.0017898 0)
(3.60583 0.00178643 0)
(3.60903 0.00178303 0)
(3.61229 0.00177953 0)
(3.61559 0.00177586 0)
(3.61893 0.00177199 0)
(3.62231 0.00176803 0)
(3.62573 0.00176385 0)
(3.62918 0.00175947 0)
(3.63266 0.00175497 0)
(3.63618 0.00175027 0)
(3.63972 0.0017455 0)
(3.6433 0.00174078 0)
(3.6469 0.00173619 0)
(3.65053 0.0017319 0)
(3.65418 0.00172795 0)
(3.65786 0.00172441 0)
(3.66155 0.00172132 0)
(3.66527 0.00171858 0)
(3.669 0.00171614 0)
(3.67274 0.00171396 0)
(3.67649 0.00171193 0)
(3.68026 0.00170993 0)
(3.68403 0.00170804 0)
(3.68781 0.00170608 0)
(3.69159 0.00170381 0)
(3.69537 0.00170113 0)
(3.69916 0.00169796 0)
(3.70295 0.00169427 0)
(3.70675 0.00169014 0)
(3.71054 0.00168575 0)
(3.71434 0.00168142 0)
(3.71815 0.00167729 0)
(3.72195 0.00167345 0)
(3.72576 0.00167016 0)
(3.72956 0.00166736 0)
(3.73336 0.00166491 0)
(3.73716 0.00166279 0)
(3.74096 0.00166103 0)
(3.74475 0.00165966 0)
(3.74853 0.00165869 0)
(3.75231 0.00165823 0)
(3.75608 0.00165835 0)
(3.75984 0.00165896 0)
(3.76358 0.00165992 0)
(3.7673 0.00166098 0)
(3.77101 0.00166186 0)
(3.7747 0.00166232 0)
(3.77838 0.0016622 0)
(3.78204 0.00166145 0)
(3.78569 0.0016602 0)
(3.78932 0.0016586 0)
(3.79295 0.00165689 0)
(3.79656 0.00165549 0)
(3.80015 0.00165459 0)
(3.80374 0.00165428 0)
(3.8073 0.00165471 0)
(3.81085 0.00165582 0)
(3.81438 0.00165745 0)
(3.81788 0.00165956 0)
(3.82137 0.00166193 0)
(3.82483 0.0016643 0)
(3.82828 0.00166653 0)
(3.8317 0.00166854 0)
(3.8351 0.00167028 0)
(3.83849 0.00167174 0)
(3.84185 0.00167291 0)
(3.8452 0.00167384 0)
(3.84853 0.00167458 0)
(3.85185 0.00167518 0)
(3.85515 0.0016757 0)
(3.85843 0.00167617 0)
(3.86169 0.00167663 0)
(3.86494 0.00167707 0)
(3.86817 0.00167754 0)
(3.87139 0.00167804 0)
(3.87458 0.0016785 0)
(3.87776 0.00167895 0)
(3.88092 0.00167938 0)
(3.88406 0.00167978 0)
(3.88719 0.00168016 0)
(3.8903 0.0016805 0)
(3.89339 0.00168082 0)
(3.89646 0.00168106 0)
(3.89951 0.00168123 0)
(3.90255 0.00168139 0)
(3.90557 0.00168154 0)
(3.90857 0.00168164 0)
(3.91155 0.00168168 0)
(3.91452 0.00168171 0)
(3.91747 0.00168172 0)
(3.9204 0.0016817 0)
(3.92331 0.00168163 0)
(3.9262 0.00168154 0)
(3.92907 0.00168147 0)
(3.93193 0.00168135 0)
(3.93477 0.00168119 0)
(3.93759 0.00168103 0)
(3.94039 0.00168085 0)
(3.94317 0.00168067 0)
(3.94593 0.00168049 0)
(3.94868 0.00168023 0)
(3.9514 0.00167995 0)
(3.95411 0.00167972 0)
(3.9568 0.00167946 0)
(3.95947 0.00167915 0)
(3.96212 0.00167883 0)
(3.96475 0.00167852 0)
(3.96736 0.00167819 0)
(3.96995 0.00167783 0)
(3.97252 0.00167744 0)
(3.97507 0.00167708 0)
(3.97761 0.0016767 0)
(3.98012 0.00167627 0)
(3.98262 0.00167583 0)
(3.98509 0.0016754 0)
(3.98755 0.00167496 0)
(3.98998 0.0016745 0)
(3.9924 0.00167401 0)
(3.99479 0.00167351 0)
(3.99717 0.00167299 0)
(3.99953 0.00167249 0)
(4.00186 0.00167197 0)
(4.00418 0.00167141 0)
(4.00648 0.00167084 0)
(4.00875 0.00167029 0)
(4.01101 0.00166971 0)
(4.01325 0.00166911 0)
(4.01546 0.00166849 0)
(4.01766 0.00166788 0)
(4.01983 0.00166726 0)
(4.02199 0.00166662 0)
(4.02412 0.00166598 0)
(4.02624 0.00166531 0)
(4.02833 0.00166462 0)
(4.0304 0.00166394 0)
(4.03246 0.00166328 0)
(4.03449 0.00166253 0)
(4.0365 0.00166183 0)
(4.03849 0.00166108 0)
(4.04046 0.0016604 0)
(4.04241 0.0016596 0)
(4.04434 0.0016589 0)
(4.04625 0.00165807 0)
(4.04814 0.00165742 0)
(4.05 0.00165654 0)
(4.05185 0.00165581 0)
(4.05367 0.00165501 0)
(4.05549 0.00165416 0)
(4.05725 0.00165377 0)
(4.05905 0.00165205 0)
(4.06074 0.00165327 0)
(4.06254 0.00164891 0)
(4.06411 0.00165478 0)
(4.06597 0.00164366 0)
(4.06735 0.00166069 0)
(4.06936 0.00163603 0)
(4.07043 0.00167576 0)
(4.07275 0.00162456 0)
(4.0732 0.00167458 0)
(4.07615 0.00155044 0)
(4.5846 0.329886 0)
(5.0098 0.225752 0)
(5.22363 0.103852 0)
(5.20477 0.094236 0)
(5.08217 0.0803055 0)
(4.95792 0.054943 0)
(4.86287 0.0374419 0)
(4.79072 0.0299863 0)
(4.72954 0.0266345 0)
(4.67479 0.0237152 0)
(4.62636 0.0207941 0)
(4.5842 0.0183225 0)
(4.54734 0.016408 0)
(4.51475 0.0148688 0)
(4.48575 0.0135419 0)
(4.45991 0.0123729 0)
(4.43687 0.0113545 0)
(4.41629 0.0104754 0)
(4.39784 0.00971395 0)
(4.38124 0.00904613 0)
(4.36629 0.00845083 0)
(4.35281 0.00791252 0)
(4.34069 0.00742193 0)
(4.3298 0.00697477 0)
(4.32006 0.00656914 0)
(4.31134 0.00620297 0)
(4.30355 0.00587272 0)
(4.29659 0.00557336 0)
(4.29038 0.00529916 0)
(4.28484 0.00504507 0)
(4.27994 0.00480767 0)
(4.27562 0.00458544 0)
(4.27184 0.00437823 0)
(4.26856 0.00418625 0)
(4.26575 0.00400941 0)
(4.26335 0.00384704 0)
(4.26135 0.00369795 0)
(4.25972 0.00356119 0)
(4.25842 0.00343613 0)
(4.25744 0.00332244 0)
(4.25674 0.00322038 0)
(4.2563 0.00312939 0)
(4.25609 0.00304851 0)
(4.25609 0.00297741 0)
(4.25627 0.00291501 0)
(4.2566 0.00285923 0)
(4.25708 0.00280843 0)
(4.25769 0.00276175 0)
(4.25842 0.00271964 0)
(4.25925 0.00268142 0)
(4.26018 0.00264667 0)
(4.26121 0.00261529 0)
(4.26232 0.00258691 0)
(4.26352 0.00256114 0)
(4.26481 0.00253708 0)
(4.26618 0.002515 0)
(4.26765 0.00249517 0)
(4.2692 0.00247737 0)
(4.27083 0.00246124 0)
(4.27256 0.0024462 0)
(4.27437 0.00243209 0)
(4.27627 0.00241859 0)
(4.27825 0.00240526 0)
(4.28031 0.00239198 0)
(4.28246 0.00237851 0)
(4.28468 0.00236487 0)
(4.28699 0.0023512 0)
(4.28937 0.00233747 0)
(4.29182 0.00232347 0)
(4.29434 0.00230941 0)
(4.29694 0.0022958 0)
(4.2996 0.00228265 0)
(4.30233 0.00226998 0)
(4.30512 0.0022579 0)
(4.30798 0.00224662 0)
(4.3109 0.0022362 0)
(4.31388 0.0022265 0)
(4.31693 0.00221745 0)
(4.32004 0.00220895 0)
(4.3232 0.00220086 0)
(4.32642 0.00219299 0)
(4.3297 0.00218524 0)
(4.33303 0.00217743 0)
(4.33641 0.00216943 0)
(4.33984 0.00216121 0)
(4.34332 0.00215285 0)
(4.34684 0.00214423 0)
(4.35039 0.00213546 0)
(4.35399 0.00212664 0)
(4.35762 0.00211775 0)
(4.36128 0.00210903 0)
(4.36497 0.0021007 0)
(4.36869 0.00209297 0)
(4.37244 0.00208602 0)
(4.3762 0.00207993 0)
(4.37999 0.00207487 0)
(4.38379 0.00207076 0)
(4.38761 0.0020675 0)
(4.39144 0.00206497 0)
(4.39529 0.00206294 0)
(4.39915 0.0020612 0)
(4.40303 0.00205959 0)
(4.40691 0.00205806 0)
(4.4108 0.00205622 0)
(4.41471 0.00205377 0)
(4.41862 0.00205052 0)
(4.42254 0.00204638 0)
(4.42647 0.00204131 0)
(4.43041 0.00203546 0)
(4.43435 0.00202914 0)
(4.43831 0.00202279 0)
(4.44227 0.00201668 0)
(4.44623 0.00201108 0)
(4.45019 0.00200632 0)
(4.45415 0.00200237 0)
(4.4581 0.00199916 0)
(4.46206 0.00199672 0)
(4.466 0.00199506 0)
(4.46994 0.0019942 0)
(4.47387 0.00199414 0)
(4.4778 0.00199493 0)
(4.48171 0.0019965 0)
(4.48562 0.00199866 0)
(4.48951 0.00200108 0)
(4.49339 0.00200338 0)
(4.49726 0.00200515 0)
(4.50112 0.00200608 0)
(4.50497 0.00200599 0)
(4.50881 0.0020049 0)
(4.51264 0.00200305 0)
(4.51646 0.00200072 0)
(4.52027 0.00199832 0)
(4.52406 0.00199639 0)
(4.52785 0.00199524 0)
(4.53161 0.00199501 0)
(4.53536 0.00199587 0)
(4.5391 0.00199768 0)
(4.54281 0.00200028 0)
(4.54651 0.00200354 0)
(4.55018 0.00200714 0)
(4.55383 0.00201074 0)
(4.55747 0.00201415 0)
(4.56108 0.00201726 0)
(4.56468 0.00202 0)
(4.56826 0.00202235 0)
(4.57182 0.00202432 0)
(4.57537 0.00202596 0)
(4.5789 0.00202736 0)
(4.58242 0.00202859 0)
(4.58592 0.00202971 0)
(4.58941 0.00203079 0)
(4.59288 0.00203186 0)
(4.59634 0.00203291 0)
(4.59978 0.00203401 0)
(4.6032 0.00203516 0)
(4.60661 0.00203627 0)
(4.61 0.00203737 0)
(4.61338 0.00203846 0)
(4.61674 0.00203951 0)
(4.62008 0.00204053 0)
(4.62341 0.00204151 0)
(4.62672 0.00204246 0)
(4.63001 0.00204331 0)
(4.63329 0.00204409 0)
(4.63655 0.00204484 0)
(4.6398 0.00204559 0)
(4.64303 0.00204627 0)
(4.64624 0.00204687 0)
(4.64944 0.00204747 0)
(4.65262 0.00204804 0)
(4.65578 0.00204857 0)
(4.65893 0.00204904 0)
(4.66206 0.0020495 0)
(4.66517 0.00204997 0)
(4.66827 0.00205038 0)
(4.67135 0.00205074 0)
(4.67441 0.0020511 0)
(4.67746 0.00205144 0)
(4.68048 0.00205179 0)
(4.68349 0.00205212 0)
(4.68649 0.00205236 0)
(4.68946 0.00205258 0)
(4.69242 0.00205286 0)
(4.69537 0.0020531 0)
(4.69829 0.00205328 0)
(4.7012 0.00205345 0)
(4.70408 0.00205363 0)
(4.70695 0.00205379 0)
(4.70981 0.0020539 0)
(4.71264 0.00205399 0)
(4.71546 0.0020541 0)
(4.71826 0.0020542 0)
(4.72104 0.00205424 0)
(4.7238 0.00205427 0)
(4.72655 0.0020543 0)
(4.72928 0.00205433 0)
(4.73199 0.00205432 0)
(4.73468 0.00205428 0)
(4.73735 0.00205423 0)
(4.74 0.00205417 0)
(4.74264 0.00205412 0)
(4.74526 0.00205404 0)
(4.74785 0.00205392 0)
(4.75043 0.0020538 0)
(4.753 0.00205368 0)
(4.75554 0.00205353 0)
(4.75806 0.00205335 0)
(4.76057 0.00205317 0)
(4.76306 0.00205298 0)
(4.76552 0.00205279 0)
(4.76797 0.00205257 0)
(4.7704 0.00205235 0)
(4.77281 0.0020521 0)
(4.77521 0.00205182 0)
(4.77758 0.00205154 0)
(4.77993 0.0020513 0)
(4.78227 0.00205095 0)
(4.78459 0.00205068 0)
(4.78688 0.00205031 0)
(4.78916 0.00205006 0)
(4.79142 0.00204963 0)
(4.79366 0.00204937 0)
(4.79588 0.0020489 0)
(4.79808 0.00204871 0)
(4.80026 0.00204815 0)
(4.80243 0.00204791 0)
(4.80456 0.00204738 0)
(4.8067 0.00204713 0)
(4.80878 0.00204689 0)
(4.8109 0.00204595 0)
(4.81291 0.0020471 0)
(4.81504 0.00204382 0)
(4.81693 0.00204948 0)
(4.81913 0.00203959 0)
(4.82082 0.00205698 0)
(4.82319 0.00203327 0)
(4.82455 0.00207491 0)
(4.82729 0.00202591 0)
(4.82793 0.00207578 0)
(4.83138 0.0019373 0)
(4.55154 0.271058 0)
(5.00247 0.199412 0)
(5.31624 0.0872243 0)
(5.44092 0.089054 0)
(5.45025 0.0865683 0)
(5.41903 0.0646544 0)
(5.38233 0.0466792 0)
(5.3458 0.0383047 0)
(5.30757 0.034189 0)
(5.26872 0.0305333 0)
(5.23184 0.0268977 0)
(5.19824 0.0238018 0)
(5.16786 0.0213755 0)
(5.14029 0.019412 0)
(5.11525 0.017718 0)
(5.09258 0.0162235 0)
(5.07212 0.0149156 0)
(5.05365 0.0137809 0)
(5.03695 0.0127945 0)
(5.02182 0.0119279 0)
(5.00808 0.0111551 0)
(4.99562 0.0104563 0)
(4.98434 0.0098193 0)
(4.97415 0.00923838 0)
(4.96499 0.00871084 0)
(4.95677 0.00823378 0)
(4.94942 0.00780243 0)
(4.94286 0.00741005 0)
(4.93702 0.00704908 0)
(4.93186 0.00671289 0)
(4.92731 0.00639714 0)
(4.92333 0.00610008 0)
(4.91989 0.0058219 0)
(4.91694 0.00556331 0)
(4.91445 0.00532458 0)
(4.91236 0.00510514 0)
(4.91066 0.00490359 0)
(4.90931 0.00471866 0)
(4.90828 0.00454936 0)
(4.90756 0.00439501 0)
(4.90712 0.00425571 0)
(4.90694 0.00413039 0)
(4.907 0.00401746 0)
(4.90728 0.00391631 0)
(4.90776 0.00382537 0)
(4.90842 0.00374174 0)
(4.90924 0.00366331 0)
(4.91021 0.00358906 0)
(4.91132 0.00351973 0)
(4.91255 0.0034547 0)
(4.91389 0.00339365 0)
(4.91533 0.00333684 0)
(4.91686 0.00328404 0)
(4.91848 0.00323491 0)
(4.92018 0.0031885 0)
(4.92195 0.00314523 0)
(4.92381 0.00310549 0)
(4.92575 0.00306901 0)