/*--------------------------------*- C++ -*----------------------------------*\
  =========                 |
  \\      /  F ield         | OpenFOAM: The Open Source CFD Toolbox
   \\    /   O peration     | Website:  https://openfoam.org
    \\  /    A nd           | Version:  7
     \\/     M anipulation  |
\*---------------------------------------------------------------------------*/
FoamFile
{
    version     2.0;
    format      ascii;
    class       volScalarField;
    location    "1.3425";
    object      p_0;
}
// * * * * * * * * * * * * * * * * * * * * * * * * * * * * * * * * * * * * * //

dimensions      [1 -1 -2 0 0 0 0];

internalField   nonuniform List<scalar> 
13200
(
99655
99639
99646.1
99637.3
99643.4
99636.4
99641.5
99635.6
99639.9
99635
99638.6
99634.4
99637.4
99633.9
99636.4
99633.4
99635.6
99633
99634.9
99632.6
99640.5
99626.8
99634
99625.3
99631.4
99624.4
99629.5
99623.6
99627.9
99623
99626.6
99622.4
99625.5
99621.9
99624.5
99621.5
99623.6
99621.1
99622.7
99620.6
99647.7
99634.3
99641
99632.2
99638.3
99631.2
99636.3
99630.4
99634.7
99629.8
99633.4
99629.2
99632.2
99628.7
99631.3
99628.3
99630.4
99627.8
99629.8
99627.5
99639.6
99627.8
99634.4
99625.8
99631.9
99624.8
99630
99624.1
99628.4
99623.4
99627
99622.8
99625.9
99622.3
99624.9
99621.9
99624
99621.5
99623.1
99621.1
99645.1
99633.7
99640
99631.3
99637.3
99630.2
99635.3
99629.4
99633.7
99628.8
99632.4
99628.2
99631.2
99627.7
99630.2
99627.2
99629.4
99626.8
99628.7
99626.5
99640
99629.4
99635.5
99626.8
99632.8
99625.8
99630.9
99625
99629.3
99624.4
99628
99623.8
99626.8
99623.3
99625.8
99622.8
99624.9
99622.4
99624.1
99622.1
99643.4
99633.2
99639.2
99630.4
99636.4
99629.3
99634.4
99628.5
99632.8
99627.9
99631.5
99627.3
99630.3
99626.8
99629.3
99626.3
99628.5
99625.9
99627.8
99625.6
99640.5
99630.7
99636.6
99627.9
99633.8
99626.7
99631.8
99625.9
99630.2
99625.3
99628.9
99624.7
99627.7
99624.2
99626.7
99623.7
99625.8
99623.3
99625
99623
99642.1
99632.5
99638.3
99629.6
99635.5
99628.4
99633.5
99627.6
99631.9
99627
99630.6
99626.4
99629.4
99625.9
99628.4
99625.4
99627.6
99625
99626.9
99624.7
99641.2
99631.7
99637.5
99628.8
99634.7
99627.6
99632.7
99626.8
99631.1
99626.1
99629.7
99625.6
99628.6
99625
99627.6
99624.6
99626.7
99624.2
99625.9
99623.9
99641.2
99631.7
99637.5
99628.8
99634.7
99627.6
99632.7
99626.8
99631.1
99626.1
99629.7
99625.6
99628.6
99625
99627.6
99624.6
99626.7
99624.2
99625.9
99623.8
99642.1
99632.5
99638.3
99629.6
99635.5
99628.4
99633.5
99627.6
99631.9
99627
99630.6
99626.4
99629.4
99625.9
99628.4
99625.4
99627.6
99625
99626.9
99624.7
99640.5
99630.7
99636.6
99627.9
99633.8
99626.7
99631.8
99625.9
99630.2
99625.3
99628.9
99624.7
99627.7
99624.2
99626.7
99623.7
99625.8
99623.3
99625
99623
99643.4
99633.2
99639.2
99630.4
99636.4
99629.3
99634.4
99628.5
99632.8
99627.9
99631.5
99627.3
99630.3
99626.8
99629.3
99626.3
99628.5
99625.9
99627.8
99625.6
99640
99629.4
99635.5
99626.8
99632.8
99625.8
99630.9
99625
99629.3
99624.4
99628
99623.8
99626.8
99623.3
99625.8
99622.8
99624.9
99622.4
99624.1
99622
99645.1
99633.7
99640
99631.3
99637.3
99630.2
99635.3
99629.4
99633.7
99628.8
99632.4
99628.2
99631.2
99627.7
99630.2
99627.2
99629.4
99626.8
99628.7
99626.5
99639.6
99627.8
99634.4
99625.8
99631.9
99624.8
99630
99624.1
99628.4
99623.4
99627
99622.8
99625.9
99622.3
99624.9
99621.9
99624
99621.5
99623.1
99621.1
99647.7
99634.3
99641
99632.2
99638.3
99631.2
99636.3
99630.4
99634.7
99629.8
99633.4
99629.2
99632.2
99628.7
99631.3
99628.3
99630.4
99627.8
99629.8
99627.5
99640.5
99626.8
99634
99625.3
99631.4
99624.4
99629.5
99623.6
99627.9
99623
99626.6
99622.4
99625.5
99621.9
99624.5
99621.5
99623.6
99621.1
99622.7
99620.6
99655
99639
99646.1
99637.3
99643.4
99636.4
99641.5
99635.6
99639.9
99635
99638.6
99634.4
99637.4
99633.9
99636.4
99633.4
99635.6
99633
99634.9
99632.6
99622.3
99621.7
99618
99619
99617
99617.6
99616.2
99616.4
99615.6
99615.6
99615.1
99614.9
99614.7
99614.3
99614.4
99613.9
99614.1
99613.6
99613.9
99613.5
99633
99633.5
99629.6
99630.6
99628.5
99629.1
99627.7
99627.9
99627.1
99627.1
99626.6
99626.4
99626.2
99625.8
99625.9
99625.4
99625.6
99625.1
99625.6
99625.2
99623.5
99623.4
99619.7
99620.6
99618.6
99619.2
99617.8
99618
99617.2
99617.2
99616.7
99616.5
99616.3
99615.9
99616
99615.5
99615.7
99615.2
99615.4
99615.2
99631.2
99632.1
99628.5
99629.4
99627.2
99627.8
99626.4
99626.6
99625.8
99625.7
99625.3
99625
99624.9
99624.5
99624.5
99624.1
99624.3
99623.8
99624.3
99623.9
99624.4
99624.8
99621.2
99622.1
99619.9
99620.5
99619.2
99619.4
99618.5
99618.5
99618
99617.8
99617.6
99617.2
99617.3
99616.8
99617
99616.5
99616.7
99616.5
99629.6
99630.8
99627.2
99628.2
99626
99626.6
99625.2
99625.4
99624.5
99624.5
99624
99623.8
99623.6
99623.2
99623.3
99622.8
99623
99622.5
99623
99622.6
99625.3
99626.1
99622.6
99623.4
99621.3
99621.8
99620.4
99620.6
99619.8
99619.7
99619.3
99619
99618.8
99618.5
99618.5
99618
99618.2
99617.7
99618
99617.7
99628.3
99629.6
99626.1
99627
99624.8
99625.4
99624
99624.2
99623.3
99623.3
99622.8
99622.6
99622.4
99622
99622.1
99621.6
99621.8
99621.3
99621.7
99621.3
99626.2
99627.3
99623.8
99624.7
99622.5
99623
99621.6
99621.8
99621
99620.9
99620.5
99620.2
99620
99619.7
99619.7
99619.2
99619.5
99618.9
99619.2
99618.9
99627.2
99628.4
99624.9
99625.8
99623.6
99624.2
99622.8
99623
99622.2
99622.1
99621.6
99621.4
99621.2
99620.8
99620.9
99620.4
99620.6
99620.1
99620.5
99620.1
99627.2
99628.4
99624.9
99625.8
99623.6
99624.2
99622.8
99623
99622.2
99622.1
99621.6
99621.4
99621.2
99620.8
99620.9
99620.4
99620.6
99620.1
99620.5
99620.1
99626.2
99627.3
99623.8
99624.7
99622.5
99623
99621.6
99621.8
99621
99620.9
99620.5
99620.2
99620
99619.7
99619.7
99619.2
99619.4
99618.9
99619.2
99618.9
99628.3
99629.6
99626.1
99627
99624.8
99625.4
99624
99624.2
99623.3
99623.3
99622.8
99622.6
99622.4
99622
99622.1
99621.6
99621.8
99621.3
99621.7
99621.3
99625.3
99626.1
99622.6
99623.4
99621.3
99621.8
99620.4
99620.6
99619.8
99619.7
99619.3
99619
99618.8
99618.5
99618.5
99618
99618.2
99617.7
99618
99617.7
99629.6
99630.8
99627.2
99628.2
99626
99626.6
99625.2
99625.4
99624.5
99624.5
99624
99623.8
99623.6
99623.2
99623.3
99622.8
99623
99622.5
99623
99622.6
99624.4
99624.8
99621.2
99622.1
99619.9
99620.5
99619.2
99619.4
99618.5
99618.5
99618
99617.8
99617.6
99617.2
99617.3
99616.8
99617
99616.5
99616.7
99616.5
99631.2
99632.1
99628.5
99629.4
99627.2
99627.8
99626.4
99626.6
99625.8
99625.7
99625.3
99625
99624.9
99624.5
99624.5
99624.1
99624.3
99623.8
99624.3
99623.9
99623.5
99623.4
99619.7
99620.6
99618.6
99619.2
99617.8
99618
99617.2
99617.2
99616.7
99616.5
99616.3
99615.9
99616
99615.5
99615.7
99615.2
99615.4
99615.1
99633
99633.5
99629.6
99630.6
99628.5
99629.1
99627.7
99627.9
99627.1
99627.1
99626.6
99626.4
99626.2
99625.8
99625.9
99625.4
99625.6
99625.1
99625.5
99625.2
99622.3
99621.7
99618
99619
99617
99617.6
99616.2
99616.4
99615.6
99615.6
99615.1
99614.9
99614.7
99614.3
99614.4
99613.9
99614.1
99613.6
99613.9
99613.5
99614.5
99612.4
99611.8
99610.7
99610.6
99609.9
99609.9
99609.3
99609.3
99608.8
99608.9
99608.4
99608.4
99608
99608.1
99607.7
99607.8
99607.4
99607.5
99607.3
99614.1
99612.4
99611.8
99610.7
99610.6
99609.9
99609.9
99609.3
99609.3
99608.8
99608.8
99608.4
99608.4
99608
99608.1
99607.7
99607.8
99607.4
99607.5
99607.3
99614.1
99612.4
99611.9
99610.7
99610.6
99609.9
99609.9
99609.3
99609.3
99608.8
99608.8
99608.4
99608.4
99608
99608.1
99607.7
99607.8
99607.4
99607.5
99607.3
99613.8
99612.4
99611.9
99610.8
99610.6
99609.9
99609.9
99609.4
99609.3
99608.8
99608.8
99608.4
99608.4
99608
99608.1
99607.7
99607.8
99607.4
99607.5
99607.3
99613.8
99612.4
99611.9
99610.8
99610.6
99609.9
99609.9
99609.3
99609.3
99608.8
99608.8
99608.4
99608.4
99608
99608.1
99607.7
99607.8
99607.4
99607.5
99607.3
99613.6
99612.4
99611.9
99610.8
99610.7
99610
99609.9
99609.4
99609.3
99608.9
99608.8
99608.4
99608.4
99608
99608.1
99607.7
99607.8
99607.4
99607.5
99607.3
99613.6
99612.4
99611.9
99610.8
99610.7
99610
99609.9
99609.4
99609.3
99608.8
99608.8
99608.4
99608.4
99608
99608.1
99607.7
99607.8
99607.4
99607.5
99607.2
99613.5
99612.4
99612
99610.9
99610.7
99610
99609.9
99609.4
99609.3
99608.9
99608.9
99608.4
99608.4
99608
99608.1
99607.7
99607.8
99607.4
99607.5
99607.2
99613.5
99612.4
99612
99610.9
99610.7
99610
99609.9
99609.4
99609.3
99608.9
99608.8
99608.4
99608.4
99608
99608.1
99607.7
99607.8
99607.4
99607.5
99607.2
99613.5
99612.4
99612
99610.9
99610.7
99610
99609.9
99609.4
99609.3
99608.9
99608.8
99608.4
99608.4
99608
99608.1
99607.7
99607.8
99607.4
99607.5
99607.2
99613.5
99612.4
99612
99610.9
99610.7
99610
99609.9
99609.4
99609.3
99608.9
99608.8
99608.4
99608.4
99608
99608.1
99607.7
99607.8
99607.4
99607.5
99607.2
99613.5
99612.4
99612
99610.9
99610.7
99610
99609.9
99609.4
99609.3
99608.9
99608.8
99608.4
99608.4
99608
99608.1
99607.7
99607.8
99607.4
99607.5
99607.2
99613.5
99612.4
99612
99610.9
99610.7
99610
99609.9
99609.4
99609.3
99608.9
99608.9
99608.4
99608.4
99608
99608.1
99607.7
99607.8
99607.4
99607.5
99607.2
99613.6
99612.4
99611.9
99610.8
99610.7
99610
99609.9
99609.4
99609.3
99608.8
99608.8
99608.4
99608.4
99608
99608.1
99607.7
99607.8
99607.4
99607.5
99607.2
99613.6
99612.4
99611.9
99610.8
99610.7
99610
99609.9
99609.4
99609.3
99608.9
99608.8
99608.4
99608.4
99608
99608.1
99607.7
99607.8
99607.4
99607.5
99607.3
99613.8
99612.4
99611.9
99610.8
99610.6
99609.9
99609.9
99609.3
99609.3
99608.8
99608.8
99608.4
99608.4
99608
99608.1
99607.7
99607.8
99607.4
99607.5
99607.3
99613.8
99612.4
99611.9
99610.8
99610.6
99609.9
99609.9
99609.4
99609.3
99608.8
99608.8
99608.4
99608.4
99608
99608.1
99607.7
99607.8
99607.4
99607.5
99607.3
99614.1
99612.4
99611.9
99610.7
99610.6
99609.9
99609.9
99609.3
99609.3
99608.8
99608.8
99608.4
99608.4
99608
99608.1
99607.7
99607.8
99607.4
99607.5
99607.3
99614.1
99612.4
99611.8
99610.7
99610.6
99609.9
99609.9
99609.3
99609.3
99608.8
99608.8
99608.4
99608.4
99608
99608.1
99607.7
99607.8
99607.4
99607.5
99607.3
99614.5
99612.4
99611.8
99610.7
99610.6
99609.9
99609.9
99609.3
99609.3
99608.8
99608.9
99608.4
99608.4
99608
99608.1
99607.7
99607.8
99607.4
99607.5
99607.3
99614.5
99612.4
99611.8
99610.7
99610.6
99609.9
99609.9
99609.3
99609.3
99608.8
99608.9
99608.4
99608.4
99608
99608.1
99607.7
99607.8
99607.4
99607.5
99607.3
99614.1
99612.4
99611.8
99610.7
99610.6
99609.9
99609.9
99609.3
99609.3
99608.8
99608.8
99608.4
99608.4
99608
99608.1
99607.7
99607.8
99607.4
99607.5
99607.3
99614.1
99612.4
99611.9
99610.7
99610.6
99609.9
99609.9
99609.3
99609.3
99608.8
99608.8
99608.4
99608.4
99608
99608.1
99607.7
99607.8
99607.4
99607.5
99607.3
99613.8
99612.4
99611.9
99610.8
99610.6
99609.9
99609.9
99609.4
99609.3
99608.8
99608.8
99608.4
99608.4
99608
99608.1
99607.7
99607.8
99607.4
99607.5
99607.3
99613.8
99612.4
99611.9
99610.8
99610.6
99609.9
99609.9
99609.3
99609.3
99608.8
99608.8
99608.4
99608.4
99608
99608.1
99607.7
99607.8
99607.4
99607.5
99607.3
99613.6
99612.4
99611.9
99610.8
99610.7
99610
99609.9
99609.4
99609.3
99608.9
99608.8
99608.4
99608.4
99608
99608.1
99607.7
99607.8
99607.4
99607.5
99607.3
99613.6
99612.4
99611.9
99610.8
99610.7
99610
99609.9
99609.4
99609.3
99608.8
99608.8
99608.4
99608.4
99608
99608.1
99607.7
99607.8
99607.4
99607.5
99607.2
99613.5
99612.4
99612
99610.9
99610.7
99610
99609.9
99609.4
99609.3
99608.9
99608.9
99608.4
99608.4
99608
99608.1
99607.7
99607.8
99607.4
99607.5
99607.2
99613.5
99612.4
99612
99610.9
99610.7
99610
99609.9
99609.4
99609.3
99608.9
99608.8
99608.4
99608.4
99608
99608.1
99607.7
99607.8
99607.4
99607.5
99607.2
99613.5
99612.4
99612
99610.9
99610.7
99610
99609.9
99609.4
99609.3
99608.9
99608.8
99608.4
99608.4
99608
99608.1
99607.7
99607.8
99607.4
99607.5
99607.2
99613.5
99612.4
99612
99610.9
99610.7
99610
99609.9
99609.4
99609.3
99608.9
99608.8
99608.4
99608.4
99608
99608.1
99607.7
99607.8
99607.4
99607.5
99607.2
99613.5
99612.4
99612
99610.9
99610.7
99610
99609.9
99609.4
99609.3
99608.9
99608.8
99608.4
99608.4
99608
99608.1
99607.7
99607.8
99607.4
99607.5
99607.2
99613.5
99612.4
99612
99610.9
99610.7
99610
99609.9
99609.4
99609.3
99608.9
99608.9
99608.4
99608.4
99608
99608.1
99607.7
99607.8
99607.4
99607.5
99607.2
99613.6
99612.4
99611.9
99610.8
99610.7
99610
99609.9
99609.4
99609.3
99608.8
99608.8
99608.4
99608.4
99608
99608.1
99607.7
99607.8
99607.4
99607.5
99607.2
99613.6
99612.4
99611.9
99610.8
99610.7
99610
99609.9
99609.4
99609.3
99608.9
99608.8
99608.4
99608.4
99608
99608.1
99607.7
99607.8
99607.4
99607.5
99607.3
99613.8
99612.4
99611.9
99610.8
99610.6
99609.9
99609.9
99609.3
99609.3
99608.8
99608.8
99608.4
99608.4
99608
99608.1
99607.7
99607.8
99607.4
99607.5
99607.3
99613.8
99612.4
99611.9
99610.8
99610.6
99609.9
99609.9
99609.4
99609.3
99608.8
99608.8
99608.4
99608.4
99608
99608.1
99607.7
99607.8
99607.4
99607.5
99607.3
99614.1
99612.4
99611.9
99610.7
99610.6
99609.9
99609.9
99609.3
99609.3
99608.8
99608.8
99608.4
99608.4
99608
99608.1
99607.7
99607.8
99607.4
99607.5
99607.3
99614.1
99612.4
99611.8
99610.7
99610.6
99609.9
99609.9
99609.3
99609.3
99608.8
99608.8
99608.4
99608.4
99608
99608.1
99607.7
99607.8
99607.4
99607.5
99607.3
99614.5
99612.4
99611.8
99610.7
99610.6
99609.9
99609.9
99609.3
99609.3
99608.8
99608.9
99608.4
99608.4
99608
99608.1
99607.7
99607.8
99607.4
99607.5
99607.3
99622.3
99621.7
99618
99619
99617
99617.6
99616.2
99616.4
99615.6
99615.6
99615.1
99614.9
99614.7
99614.3
99614.4
99613.9
99614.1
99613.6
99613.9
99613.5
99633
99633.5
99629.6
99630.6
99628.5
99629.1
99627.7
99627.9
99627.1
99627.1
99626.6
99626.4
99626.2
99625.8
99625.9
99625.4
99625.6
99625.1
99625.6
99625.2
99623.5
99623.4
99619.7
99620.6
99618.6
99619.2
99617.8
99618
99617.2
99617.2
99616.7
99616.5
99616.3
99615.9
99616
99615.5
99615.7
99615.2
99615.4
99615.2
99631.2
99632.1
99628.5
99629.4
99627.2
99627.8
99626.4
99626.6
99625.8
99625.7
99625.3
99625
99624.9
99624.5
99624.5
99624.1
99624.3
99623.8
99624.3
99623.9
99624.4
99624.8
99621.2
99622.1
99619.9
99620.5
99619.2
99619.4
99618.5
99618.5
99618
99617.8
99617.6
99617.2
99617.3
99616.8
99617
99616.5
99616.7
99616.5
99629.6
99630.8
99627.2
99628.2
99626
99626.6
99625.2
99625.4
99624.5
99624.5
99624
99623.8
99623.6
99623.2
99623.3
99622.8
99623
99622.5
99623
99622.6
99625.3
99626.1
99622.6
99623.4
99621.3
99621.8
99620.4
99620.6
99619.8
99619.7
99619.3
99619
99618.8
99618.5
99618.5
99618
99618.2
99617.7
99618
99617.7
99628.3
99629.6
99626.1
99627
99624.8
99625.4
99624
99624.2
99623.3
99623.3
99622.8
99622.6
99622.4
99622
99622.1
99621.6
99621.8
99621.3
99621.7
99621.3
99626.2
99627.3
99623.8
99624.7
99622.5
99623
99621.6
99621.8
99621
99620.9
99620.5
99620.2
99620
99619.7
99619.7
99619.2
99619.5
99618.9
99619.2
99618.9
99627.2
99628.4
99624.9
99625.8
99623.6
99624.2
99622.8
99623
99622.2
99622.1
99621.6
99621.4
99621.2
99620.8
99620.9
99620.4
99620.6
99620.1
99620.5
99620.1
99627.2
99628.4
99624.9
99625.8
99623.6
99624.2
99622.8
99623
99622.2
99622.1
99621.6
99621.4
99621.2
99620.8
99620.9
99620.4
99620.6
99620.1
99620.5
99620.1
99626.2
99627.3
99623.8
99624.7
99622.5
99623
99621.6
99621.8
99621
99620.9
99620.5
99620.2
99620
99619.7
99619.7
99619.2
99619.4
99618.9
99619.2
99618.9
99628.3
99629.6
99626.1
99627
99624.8
99625.4
99624
99624.2
99623.3
99623.3
99622.8
99622.6
99622.4
99622
99622.1
99621.6
99621.8
99621.3
99621.7
99621.3
99625.3
99626.1
99622.6
99623.4
99621.3
99621.8
99620.4
99620.6
99619.8
99619.7
99619.3
99619
99618.8
99618.5
99618.5
99618
99618.2
99617.7
99618
99617.7
99629.6
99630.8
99627.2
99628.2
99626
99626.6
99625.2
99625.4
99624.5
99624.5
99624
99623.8
99623.6
99623.2
99623.3
99622.8
99623
99622.5
99623
99622.6
99624.4
99624.8
99621.2
99622.1
99619.9
99620.5
99619.2
99619.4
99618.5
99618.5
99618
99617.8
99617.6
99617.2
99617.3
99616.8
99617
99616.5
99616.7
99616.5
99631.2
99632.1
99628.5
99629.4
99627.2
99627.8
99626.4
99626.6
99625.8
99625.7
99625.3
99625
99624.9
99624.5
99624.5
99624.1
99624.3
99623.8
99624.3
99623.9
99623.5
99623.4
99619.7
99620.6
99618.6
99619.2
99617.8
99618
99617.2
99617.2
99616.7
99616.5
99616.3
99615.9
99616
99615.5
99615.7
99615.2
99615.4
99615.1
99633
99633.5
99629.6
99630.6
99628.5
99629.1
99627.7
99627.9
99627.1
99627.1
99626.6
99626.4
99626.2
99625.8
99625.9
99625.4
99625.6
99625.1
99625.5
99625.2
99622.3
99621.7
99618
99619
99617
99617.6
99616.2
99616.4
99615.6
99615.6
99615.1
99614.9
99614.7
99614.3
99614.4
99613.9
99614.1
99613.6
99613.9
99613.5
99655
99639
99646.1
99637.3
99643.4
99636.4
99641.5
99635.6
99639.9
99635
99638.6
99634.4
99637.4
99633.9
99636.4
99633.4
99635.6
99633
99634.9
99632.6
99640.5
99626.8
99634
99625.3
99631.4
99624.4
99629.5
99623.6
99627.9
99623
99626.6
99622.4
99625.5
99621.9
99624.5
99621.5
99623.6
99621.1
99622.7
99620.6
99647.7
99634.3
99641
99632.2
99638.3
99631.2
99636.3
99630.4
99634.7
99629.8
99633.4
99629.2
99632.2
99628.7
99631.3
99628.3
99630.4
99627.8
99629.8
99627.5
99639.6
99627.8
99634.4
99625.8
99631.9
99624.8
99630
99624.1
99628.4
99623.4
99627
99622.8
99625.9
99622.3
99624.9
99621.9
99624
99621.5
99623.1
99621.1
99645.1
99633.7
99640
99631.3
99637.3
99630.2
99635.3
99629.4
99633.7
99628.8
99632.4
99628.2
99631.2
99627.7
99630.2
99627.2
99629.4
99626.8
99628.7
99626.5
99640
99629.4
99635.5
99626.8
99632.8
99625.8
99630.9
99625
99629.3
99624.4
99628
99623.8
99626.8
99623.3
99625.8
99622.8
99624.9
99622.4
99624.1
99622.1
99643.4
99633.2
99639.2
99630.4
99636.4
99629.3
99634.4
99628.5
99632.8
99627.9
99631.5
99627.3
99630.3
99626.8
99629.3
99626.3
99628.5
99625.9
99627.8
99625.6
99640.5
99630.7
99636.6
99627.9
99633.8
99626.7
99631.8
99625.9
99630.2
99625.3
99628.9
99624.7
99627.7
99624.2
99626.7
99623.7
99625.8
99623.3
99625
99623
99642.1
99632.5
99638.3
99629.6
99635.5
99628.4
99633.5
99627.6
99631.9
99627
99630.6
99626.4
99629.4
99625.9
99628.4
99625.4
99627.6
99625
99626.9
99624.7
99641.2
99631.7
99637.5
99628.8
99634.7
99627.6
99632.7
99626.8
99631.1
99626.1
99629.7
99625.6
99628.6
99625
99627.6
99624.6
99626.7
99624.2
99625.9
99623.9
99641.2
99631.7
99637.5
99628.8
99634.7
99627.6
99632.7
99626.8
99631.1
99626.1
99629.7
99625.6
99628.6
99625
99627.6
99624.6
99626.7
99624.2
99625.9
99623.8
99642.1
99632.5
99638.3
99629.6
99635.5
99628.4
99633.5
99627.6
99631.9
99627
99630.6
99626.4
99629.4
99625.9
99628.4
99625.4
99627.6
99625
99626.9
99624.7
99640.5
99630.7
99636.6
99627.9
99633.8
99626.7
99631.8
99625.9
99630.2
99625.3
99628.9
99624.7
99627.7
99624.2
99626.7
99623.7
99625.8
99623.3
99625
99623
99643.4
99633.2
99639.2
99630.4
99636.4
99629.3
99634.4
99628.5
99632.8
99627.9
99631.5
99627.3
99630.3
99626.8
99629.3
99626.3
99628.5
99625.9
99627.8
99625.6
99640
99629.4
99635.5
99626.8
99632.8
99625.8
99630.9
99625
99629.3
99624.4
99628
99623.8
99626.8
99623.3
99625.8
99622.8
99624.9
99622.4
99624.1
99622
99645.1
99633.7
99640
99631.3
99637.3
99630.2
99635.3
99629.4
99633.7
99628.8
99632.4
99628.2
99631.2
99627.7
99630.2
99627.2
99629.4
99626.8
99628.7
99626.5
99639.6
99627.8
99634.4
99625.8
99631.9
99624.8
99630
99624.1
99628.4
99623.4
99627
99622.8
99625.9
99622.3
99624.9
99621.9
99624
99621.5
99623.1
99621.1
99647.7
99634.3
99641
99632.2
99638.3
99631.2
99636.3
99630.4
99634.7
99629.8
99633.4
99629.2
99632.2
99628.7
99631.3
99628.3
99630.4
99627.8
99629.8
99627.5
99640.5
99626.8
99634
99625.3
99631.4
99624.4
99629.5
99623.6
99627.9
99623
99626.6
99622.4
99625.5
99621.9
99624.5
99621.5
99623.6
99621.1
99622.7
99620.6
99655
99639
99646.1
99637.3
99643.4
99636.4
99641.5
99635.6
99639.9
99635
99638.6
99634.4
99637.4
99633.9
99636.4
99633.4
99635.6
99633
99634.9
99632.6
99652.6
99642
99646.5
99637.7
99641.6
99634.3
99637.9
99631.7
99635.1
99630
99633.3
99629
99632.3
99628.8
99632.2
99629.5
99633
99631
99634.7
99633.3
99637.3
99636.5
99640.7
99640.6
99645
99645.5
99650.2
99651.2
99656.2
99657.7
99662.9
99664.9
99670.3
99672.7
99678.3
99681.2
99687
99690.2
99696.1
99699.7
99705.8
99709.7
99715.9
99720.1
99726.4
99730.8
99737.2
99741.9
99748.4
99753.3
99759.9
99764.9
99771.6
99776.8
99783.5
99788.8
99795.6
99801.1
99807.9
99813.5
99820.3
99826.1
99832.9
99838.7
99845.6
99851.5
99858.4
99864.3
99871.2
99877.3
99884.2
99890.3
99897.1
99903.3
99910.2
99916.4
99923.3
99929.5
99936.4
99942.7
99949.6
99955.9
99962.8
99969.1
99976
99982.4
99989.3
99995.7
100003
100009
99622.4
99611.1
99615.4
99606.4
99610.3
99602.8
99606.4
99600.2
99603.5
99598.3
99601.6
99597.2
99600.5
99597
99600.4
99597.6
99601.1
99599.1
99602.8
99601.4
99605.4
99604.7
99608.8
99608.7
99613.2
99613.6
99618.3
99619.3
99624.3
99625.8
99631
99633
99638.4
99640.8
99646.4
99649.3
99655.1
99658.3
99664.2
99667.8
99673.9
99677.8
99684
99688.1
99694.5
99698.9
99705.3
99710
99716.5
99721.3
99727.9
99733
99739.6
99744.8
99751.5
99756.9
99763.6
99769.1
99775.9
99781.5
99788.4
99794.1
99800.9
99806.7
99813.6
99819.5
99826.4
99832.3
99839.2
99845.3
99852.2
99858.3
99865.1
99871.3
99878.2
99884.4
99891.3
99897.5
99904.4
99910.7
99917.6
99923.9
99930.8
99937.1
99944
99950.4
99957.3
99963.7
99970.7
99977.2
99639
99628.3
99632.8
99623.9
99627.9
99620.5
99624.1
99617.9
99621.3
99616.1
99619.4
99615.1
99618.4
99614.8
99618.2
99615.5
99619
99617
99620.7
99619.3
99623.3
99622.5
99626.7
99626.6
99631
99631.5
99636.2
99637.2
99642.2
99643.7
99648.9
99650.9
99656.3
99658.7
99664.3
99667.2
99673
99676.2
99682.1
99685.7
99691.8
99695.7
99701.9
99706.1
99712.4
99716.8
99723.2
99727.9
99734.4
99739.2
99745.8
99750.9
99757.5
99762.8
99769.5
99774.8
99781.6
99787.1
99793.9
99799.5
99806.3
99812
99818.9
99824.7
99831.6
99837.5
99844.3
99850.3
99857.2
99863.2
99870.1
99876.2
99883.1
99889.3
99896.2
99902.4
99909.3
99915.5
99922.4
99928.7
99935.5
99941.9
99948.8
99955.1
99962
99968.4
99975.3
99981.7
99988.6
99995.1
99623.3
99611.9
99616.1
99607.2
99611
99603.6
99607.2
99600.9
99604.3
99599.1
99602.3
99598
99601.3
99597.8
99601.2
99598.4
99601.9
99599.9
99603.6
99602.2
99606.2
99605.4
99609.6
99609.5
99613.9
99614.4
99619.1
99620.1
99625.1
99626.6
99631.8
99633.8
99639.2
99641.6
99647.2
99650.1
99655.9
99659.1
99665
99668.6
99674.7
99678.6
99684.8
99688.9
99695.3
99699.7
99706.1
99710.7
99717.3
99722.1
99728.7
99733.7
99740.4
99745.6
99752.3
99757.7
99764.4
99769.9
99776.7
99782.3
99789.2
99794.9
99801.7
99807.5
99814.4
99820.3
99827.2
99833.1
99840
99846.1
99853
99859.1
99865.9
99872.1
99879
99885.2
99892.1
99898.3
99905.2
99911.5
99918.4
99924.7
99931.6
99937.9
99944.8
99951.2
99958.1
99964.5
99971.5
99978
99635.4
99624.7
99629.2
99620.3
99624.2
99616.9
99620.4
99614.2
99617.6
99612.4
99615.7
99611.4
99614.7
99611.2
99614.6
99611.8
99615.3
99613.3
99617
99615.6
99619.6
99618.9
99623
99622.9
99627.4
99627.8
99632.5
99633.6
99638.5
99640
99645.2
99647.2
99652.6
99655.1
99660.7
99663.5
99669.3
99672.5
99678.5
99682.1
99688.1
99692
99698.2
99702.4
99708.7
99713.1
99719.6
99724.2
99730.7
99735.6
99742.2
99747.2
99753.9
99759.1
99765.8
99771.2
99777.9
99783.4
99790.2
99795.8
99802.6
99808.4
99815.2
99821
99827.9
99833.8
99840.7
99846.6
99853.5
99859.6
99866.5
99872.6
99879.4
99885.6
99892.5
99898.7
99905.6
99911.8
99918.7
99925
99931.9
99938.2
99945.1
99951.4
99958.3
99964.7
99971.6
99978
99985
99991.5
99625.5
99614.2
99618.5
99609.5
99613.4
99606
99609.5
99603.3
99606.7
99601.4
99604.7
99600.4
99603.7
99600.2
99603.6
99600.8
99604.3
99602.3
99606
99604.6
99608.5
99607.8
99612
99611.9
99616.3
99616.8
99621.5
99622.5
99627.4
99629
99634.2
99636.2
99641.6
99644
99649.6
99652.5
99658.2
99661.5
99667.4
99671
99677.1
99681
99687.2
99691.3
99697.7
99702.1
99708.5
99713.1
99719.7
99724.5
99731.1
99736.1
99742.8
99748
99754.7
99760.1
99766.8
99772.3
99779.1
99784.7
99791.6
99797.3
99804.1
99809.9
99816.8
99822.7
99829.6
99835.6
99842.4
99848.5
99855.4
99861.5
99868.3
99874.5
99881.4
99887.6
99894.5
99900.7
99907.6
99913.9
99920.8
99927.1
99934
99940.3
99947.2
99953.6
99960.5
99966.9
99973.9
99980.4
99633.2
99622.5
99626.9
99618
99622
99614.6
99618.2
99612
99615.3
99610.1
99613.4
99609.1
99612.4
99608.9
99612.3
99609.5
99613.1
99611
99614.7
99613.4
99617.3
99616.6
99620.8
99620.6
99625.1
99625.6
99630.2
99631.3
99636.2
99637.8
99642.9
99644.9
99650.3
99652.8
99658.4
99661.2
99667
99670.3
99676.2
99679.8
99685.8
99689.7
99695.9
99700.1
99706.4
99710.8
99717.3
99721.9
99728.4
99733.3
99739.9
99744.9
99751.6
99756.8
99763.5
99768.9
99775.6
99781.1
99787.9
99793.5
99800.4
99806.1
99812.9
99818.7
99825.6
99831.5
99838.4
99844.4
99851.2
99857.3
99864.2
99870.3
99877.2
99883.3
99890.2
99896.4
99903.3
99909.5
99916.4
99922.7
99929.6
99935.9
99942.8
99949.1
99956
99962.4
99969.3
99975.7
99982.7
99989.2
99627.6
99616.4
99620.7
99611.8
99615.6
99608.2
99611.8
99605.6
99608.9
99603.7
99607
99602.7
99606
99602.4
99605.8
99603.1
99606.6
99604.5
99608.2
99606.9
99610.8
99610.1
99614.3
99614.2
99618.6
99619.1
99623.8
99624.8
99629.7
99631.3
99636.4
99638.4
99643.8
99646.3
99651.9
99654.8
99660.5
99663.8
99669.7
99673.3
99679.3
99683.2
99689.4
99693.6
99699.9
99704.3
99710.8
99715.4
99721.9
99726.8
99733.4
99738.4
99745.1
99750.3
99757
99762.4
99769.1
99774.6
99781.4
99787
99793.8
99799.6
99806.4
99812.2
99819.1
99825
99831.9
99837.8
99844.7
99850.8
99857.6
99863.7
99870.6
99876.8
99883.7
99889.9
99896.8
99903
99909.9
99916.2
99923.1
99929.4
99936.3
99942.6
99949.5
99955.9
99962.8
99969.2
99976.2
99982.7
99631.3
99620.5
99624.9
99616
99619.9
99612.5
99616.1
99609.9
99613.3
99608.1
99611.4
99607
99610.3
99606.8
99610.2
99607.5
99611
99608.9
99612.7
99611.3
99615.2
99614.5
99618.7
99618.6
99623
99623.5
99628.2
99629.2
99634.1
99635.7
99640.8
99642.9
99648.3
99650.7
99656.3
99659.2
99664.9
99668.2
99674.1
99677.7
99683.8
99687.7
99693.9
99698
99704.4
99708.8
99715.2
99719.8
99726.4
99731.2
99737.8
99742.9
99749.5
99754.7
99761.4
99766.8
99773.6
99779.1
99785.8
99791.5
99798.3
99804
99810.8
99816.7
99823.5
99829.4
99836.3
99842.3
99849.2
99855.2
99862.1
99868.2
99875.1
99881.2
99888.1
99894.3
99901.2
99907.5
99914.3
99920.6
99927.5
99933.8
99940.7
99947
99954
99960.3
99967.2
99973.6
99980.6
99987.1
99629.5
99618.5
99622.8
99613.8
99617.7
99610.3
99613.9
99607.7
99611
99605.8
99609.1
99604.8
99608.1
99604.5
99607.9
99605.2
99608.7
99606.6
99610.3
99609
99612.9
99612.2
99616.4
99616.3
99620.7
99621.2
99625.9
99626.9
99631.8
99633.4
99638.5
99640.6
99645.9
99648.4
99654
99656.9
99662.6
99665.9
99671.8
99675.4
99681.5
99685.3
99691.6
99695.7
99702
99706.5
99712.9
99717.5
99724
99728.9
99735.5
99740.5
99747.2
99752.4
99759.1
99764.5
99771.2
99776.7
99783.5
99789.1
99796
99801.7
99808.5
99814.3
99821.2
99827.1
99834
99840
99846.8
99852.9
99859.8
99865.9
99872.8
99878.9
99885.8
99892
99898.9
99905.1
99912
99918.3
99925.2
99931.5
99938.4
99944.7
99951.6
99958
99964.9
99971.3
99978.3
99984.8
99629.5
99618.5
99622.9
99614
99617.9
99610.5
99614.1
99607.9
99611.3
99606.1
99609.3
99605
99608.3
99604.8
99608.2
99605.4
99609
99606.9
99610.6
99609.3
99613.2
99612.5
99616.7
99616.6
99621
99621.5
99626.1
99627.2
99632.1
99633.7
99638.8
99640.8
99646.2
99648.7
99654.3
99657.1
99662.9
99666.2
99672.1
99675.7
99681.7
99685.6
99691.8
99696
99702.3
99706.7
99713.2
99717.8
99724.3
99729.2
99735.8
99740.8
99747.5
99752.7
99759.4
99764.8
99771.5
99777
99783.8
99789.4
99796.2
99802
99808.8
99814.6
99821.5
99827.4
99834.3
99840.2
99847.1
99853.2
99860.1
99866.2
99873
99879.2
99886.1
99892.3
99899.2
99905.4
99912.3
99918.6
99925.5
99931.8
99938.7
99945
99951.9
99958.3
99965.2
99971.6
99978.6
99985.1
99631.3
99620.4
99624.8
99615.8
99619.7
99612.3
99615.9
99609.7
99613.1
99607.8
99611.1
99606.8
99610.1
99606.6
99610
99607.2
99610.7
99608.7
99612.4
99611
99615
99614.2
99618.4
99618.3
99622.7
99623.2
99627.9
99628.9
99633.9
99635.4
99640.6
99642.6
99648
99650.4
99656
99658.9
99664.7
99667.9
99673.8
99677.4
99683.5
99687.4
99693.6
99697.8
99704.1
99708.5
99714.9
99719.6
99726.1
99730.9
99737.5
99742.6
99749.2
99754.5
99761.2
99766.5
99773.3
99778.8
99785.6
99791.2
99798
99803.7
99810.6
99816.4
99823.3
99829.2
99836
99842
99848.9
99854.9
99861.8
99867.9
99874.8
99881
99887.8
99894.1
99900.9
99907.2
99914.1
99920.3
99927.2
99933.5
99940.4
99946.8
99953.7
99960
99967
99973.3
99980.3
99986.8
99627.6
99616.5
99620.8
99611.9
99615.8
99608.4
99612
99605.8
99609.2
99604
99607.3
99602.9
99606.2
99602.7
99606.1
99603.4
99606.9
99604.8
99608.6
99607.2
99611.1
99610.4
99614.6
99614.5
99618.9
99619.4
99624.1
99625.1
99630
99631.6
99636.7
99638.8
99644.1
99646.6
99652.2
99655.1
99660.8
99664.1
99670
99673.6
99679.7
99683.5
99689.8
99693.9
99700.2
99704.7
99711.1
99715.7
99722.2
99727.1
99733.7
99738.7
99745.4
99750.6
99757.3
99762.7
99769.4
99774.9
99781.7
99787.3
99794.2
99799.9
99806.7
99812.5
99819.4
99825.3
99832.2
99838.2
99845
99851.1
99858
99864.1
99871
99877.1
99884
99890.2
99897.1
99903.3
99910.2
99916.5
99923.4
99929.7
99936.6
99942.9
99949.8
99956.2
99963.1
99969.5
99976.5
99983
99633.2
99622.4
99626.9
99617.9
99621.8
99614.4
99618
99611.8
99615.1
99609.9
99613.2
99608.9
99612.2
99608.7
99612
99609.3
99612.8
99610.7
99614.5
99613.1
99617
99616.3
99620.5
99620.4
99624.8
99625.3
99630
99631
99635.9
99637.5
99642.6
99644.7
99650.1
99652.5
99658.1
99661
99666.7
99670
99675.9
99679.5
99685.6
99689.5
99695.7
99699.8
99706.2
99710.6
99717
99721.7
99728.2
99733
99739.6
99744.7
99751.3
99756.5
99763.2
99768.6
99775.4
99780.9
99787.6
99793.3
99800.1
99805.8
99812.7
99818.5
99825.3
99831.2
99838.1
99844.1
99851
99857
99863.9
99870
99876.9
99883
99889.9
99896.1
99903
99909.3
99916.2
99922.4
99929.3
99935.6
99942.5
99948.9
99955.8
99962.1
99969.1
99975.4
99982.4
99988.9
99625.6
99614.3
99618.6
99609.7
99613.6
99606.2
99609.8
99603.6
99607
99601.8
99605
99600.7
99604
99600.5
99603.9
99601.1
99604.7
99602.6
99606.3
99605
99608.9
99608.2
99612.4
99612.3
99616.7
99617.2
99621.8
99622.9
99627.8
99629.3
99634.5
99636.5
99641.9
99644.4
99650
99652.8
99658.6
99661.8
99667.8
99671.4
99677.4
99681.3
99687.5
99691.7
99698
99702.4
99708.9
99713.5
99720
99724.9
99731.5
99736.5
99743.2
99748.4
99755.1
99760.4
99767.2
99772.7
99779.5
99785.1
99791.9
99797.6
99804.5
99810.3
99817.2
99823.1
99829.9
99835.9
99842.8
99848.8
99855.7
99861.8
99868.7
99874.9
99881.8
99888
99894.8
99901.1
99908
99914.3
99921.1
99927.4
99934.3
99940.7
99947.6
99953.9
99960.9
99967.2
99974.2
99980.7
99635.4
99624.7
99629.1
99620.2
99624
99616.7