/*--------------------------------*- C++ -*----------------------------------*\
  =========                 |
  \\      /  F ield         | OpenFOAM: The Open Source CFD Toolbox
   \\    /   O peration     | Website:  https://openfoam.org
    \\  /    A nd           | Version:  7
     \\/     M anipulation  |
\*---------------------------------------------------------------------------*/
FoamFile
{
    version     2.0;
    format      ascii;
    class       volVectorField;
    location    "0.01";
    object      UMean;
}
// * * * * * * * * * * * * * * * * * * * * * * * * * * * * * * * * * * * * * //

dimensions      [0 1 -1 0 0 0 0];

internalField   nonuniform List<vector> 
4950
(
(4.13239 0.0115204 -27.1475)
(4.5001 -0.0102451 -27.1839)
(3.94741 -0.00762646 -27.1838)
(4.21675 -0.00885773 -27.1803)
(3.75192 -0.0089128 -27.1801)
(3.95009 -0.00897484 -27.177)
(3.55661 -0.00920259 -27.1766)
(3.69017 -0.00909567 -27.1736)
(3.3522 -0.0093219 -27.1729)
(3.44022 -0.00919412 -27.1701)
(3.15254 -0.00940066 -27.1693)
(3.19884 -0.00928252 -27.1668)
(2.94045 -0.00943553 -27.1658)
(2.93725 -0.00931966 -27.1634)
(2.72476 -0.00936787 -27.1626)
(2.68362 -0.00927527 -27.1603)
(2.50832 -0.00867623 -27.1595)
(2.43201 -0.0086144 -27.1572)
(2.26853 -0.00302282 -27.1559)
(2.17518 0.00171168 -27.1472)
(4.21123 0.0263266 -27.1586)
(4.56945 0.00441013 -27.1945)
(4.01541 0.00601872 -27.1944)
(4.29025 0.00526714 -27.1908)
(3.81833 0.00518661 -27.1906)
(4.02143 0.00524747 -27.1874)
(3.62091 0.00505751 -27.187)
(3.75803 0.0051457 -27.184)
(3.41364 0.00497303 -27.1832)
(3.50388 0.00505113 -27.1804)
(3.21043 0.00489932 -27.1795)
(3.25775 0.00496456 -27.177)
(2.99415 0.00483379 -27.1759)
(2.991 0.00489585 -27.1734)
(2.77382 0.00471303 -27.1726)
(2.73204 0.004787 -27.1702)
(2.55249 0.00422195 -27.1694)
(2.47644 0.00451925 -27.167)
(2.30909 0.00241327 -27.1656)
(2.23611 0.00556948 -27.1567)
(4.21131 0.00496387 -27.1596)
(4.57022 -0.00417628 -27.1956)
(4.01613 -0.00318816 -27.1955)
(4.2909 -0.00425648 -27.192)
(3.81881 -0.00422484 -27.1917)
(4.0219 -0.00431079 -27.1886)
(3.62134 -0.00439696 -27.1882)
(3.75845 -0.00436214 -27.1851)
(3.41405 -0.00445647 -27.1843)
(3.50427 -0.00440441 -27.1815)
(3.21081 -0.00449364 -27.1806)
(3.25811 -0.00444248 -27.1781)
(2.99449 -0.00450436 -27.1771)
(2.99127 -0.00445377 -27.1745)
(2.77409 -0.00444771 -27.1737)
(2.73191 -0.00439838 -27.1713)
(2.55245 -0.00401253 -27.1705)
(2.47387 -0.00385903 -27.1681)
(2.30769 -0.00178601 -27.1667)
(2.21544 0.000553723 -27.1579)
(4.20792 0.00785245 -27.1604)
(4.56656 0.00169357 -27.1962)
(4.01569 0.00219021 -27.1961)
(4.2902 0.0016658 -27.1925)
(3.81862 0.0016578 -27.1923)
(4.02171 0.00165556 -27.1891)
(3.62121 0.00159099 -27.1887)
(3.75835 0.00161866 -27.1856)
(3.41394 0.00155581 -27.1849)
(3.50419 0.00158319 -27.1821)
(3.21071 0.00152678 -27.1812)
(3.25806 0.00154842 -27.1786)
(2.99443 0.00150214 -27.1776)
(2.99131 0.00153023 -27.1751)
(2.7741 0.00146184 -27.1742)
(2.73246 0.0014907 -27.1718)
(2.55293 0.001326 -27.171)
(2.4775 0.00145472 -27.1686)
(2.31095 0.00105075 -27.1673)
(2.23532 0.00187025 -27.1584)
(4.20888 -5.42066e-07 -27.1598)
(4.56774 4.3512e-07 -27.1957)
(4.01613 8.45782e-07 -27.1955)
(4.2907 2.25064e-06 -27.192)
(3.81881 2.30264e-06 -27.1917)
(4.02188 2.17344e-06 -27.1886)
(3.62133 7.7343e-07 -27.1882)
(3.75844 -1.0322e-06 -27.1851)
(3.41403 -2.74218e-06 -27.1844)
(3.50426 -5.12542e-06 -27.1816)
(3.21079 -5.6943e-06 -27.1807)
(3.2581 -3.2732e-06 -27.1781)
(2.99448 -3.53779e-06 -27.1771)
(2.99126 -5.173e-06 -27.1746)
(2.77407 5.6894e-06 -27.1737)
(2.73186 8.96001e-06 -27.1714)
(2.55243 3.50792e-05 -27.1705)
(2.47377 3.23249e-05 -27.1682)
(2.30784 0.000169701 -27.1667)
(2.21684 0.000161085 -27.1579)
(4.20792 -0.00785358 -27.1604)
(4.56656 -0.00169277 -27.1962)
(4.01569 -0.00218778 -27.1961)
(4.2902 -0.00165994 -27.1925)
(3.81862 -0.00165183 -27.1923)
(4.02171 -0.0016493 -27.1891)
(3.62121 -0.00158749 -27.1887)
(3.75835 -0.00161846 -27.1856)
(3.41393 -0.00156028 -27.1849)
(3.50419 -0.00158899 -27.1821)
(3.21071 -0.00153412 -27.1812)
(3.25806 -0.00155985 -27.1786)
(2.99443 -0.00150608 -27.1776)
(2.99131 -0.00152581 -27.1751)
(2.77411 -0.00145104 -27.1742)
(2.73247 -0.00148297 -27.1718)
(2.55294 -0.0012576 -27.171)
(2.47755 -0.00138879 -27.1686)
(2.311 -0.000718795 -27.1673)
(2.23555 -0.00158116 -27.1584)
(4.21131 -0.00496476 -27.1596)
(4.57022 0.00417688 -27.1956)
(4.01613 0.00318983 -27.1955)
(4.2909 0.00426046 -27.192)
(3.81881 0.00422896 -27.1917)
(4.0219 0.00431487 -27.1886)
(3.62134 0.00439901 -27.1882)
(3.75845 0.00436138 -27.1851)
(3.41404 0.00445263 -27.1843)
(3.50427 0.00439909 -27.1815)
(3.2108 0.00448592 -27.1806)
(3.25811 0.00443404 -27.1781)
(2.9945 0.00450144 -27.1771)
(2.99128 0.00445335 -27.1745)
(2.77409 0.00445462 -27.1737)
(2.73193 0.00440864 -27.1713)
(2.55247 0.00406689 -27.1705)
(2.47397 0.00390895 -27.1681)
(2.30777 0.00205445 -27.1667)
(2.21585 -0.000308658 -27.1579)
(4.21123 -0.0263282 -27.1586)
(4.56945 -0.00440965 -27.1945)
(4.01541 -0.00601757 -27.1944)
(4.29025 -0.00526305 -27.1908)
(3.81833 -0.00518244 -27.1906)
(4.02143 -0.00524323 -27.1874)
(3.62091 -0.00505475 -27.187)
(3.75803 -0.00514466 -27.184)
(3.41364 -0.00497383 -27.1832)
(3.50388 -0.00505496 -27.1804)
(3.21043 -0.00490405 -27.1795)
(3.25775 -0.00496576 -27.177)
(2.99415 -0.00483496 -27.1759)
(2.99101 -0.00490054 -27.1734)
(2.77383 -0.00470564 -27.1726)
(2.73207 -0.00477428 -27.1702)
(2.55252 -0.00418282 -27.1694)
(2.47657 -0.00448407 -27.167)
(2.30921 -0.00221839 -27.1656)
(2.23681 -0.00540906 -27.1567)
(4.13239 -0.0115217 -27.1475)
(4.5001 0.0102453 -27.1839)
(3.94741 0.00762754 -27.1838)
(4.21676 0.00886144 -27.1803)
(3.75192 0.0089165 -27.1801)
(3.95009 0.00897906 -27.177)
(3.5566 0.009206 -27.1766)
(3.69016 0.00909865 -27.1736)
(3.3522 0.00932319 -27.1729)
(3.44021 0.00919488 -27.1702)
(3.15254 0.00940188 -27.1693)
(3.19884 0.00928161 -27.1668)
(2.94045 0.00943683 -27.1658)
(2.93726 0.00932474 -27.1634)
(2.72477 0.00937326 -27.1626)
(2.68365 0.00927657 -27.1603)
(2.50835 0.00869402 -27.1595)
(2.43216 0.0086331 -27.1572)
(2.26866 0.00311066 -27.1559)
(2.17608 -0.00168523 -27.1474)
(4.21297 0.010124 -0.000217553)
(4.54593 0.012831 -0.000552878)
(4.00421 0.00887072 -0.000465578)
(4.2714 0.00899072 -0.00062992)
(3.80694 0.00863279 -0.000592054)
(4.00638 0.00869291 -0.000694414)
(3.61034 0.00856873 -0.000682044)
(3.74568 0.0086089 -0.000744677)
(3.40405 0.00852635 -0.000744575)
(3.49352 0.00855337 -0.000779841)
(3.20188 0.00848802 -0.000787837)
(3.24898 0.00850938 -0.000804882)
(2.98671 0.00844568 -0.00081748)
(2.98348 0.00846292 -0.000813974)
(2.76755 0.0083311 -0.000829001)
(2.72559 0.00835572 -0.000807116)
(2.5476 0.00767812 -0.000824249)
(2.47074 0.0078184 -0.000778601)
(2.30576 0.00247867 -0.000785051)
(2.23061 0.00257416 -0.000689708)
(4.20326 -0.00592313 -0.000706757)
(4.55992 -0.00368123 -0.000942139)
(4.01633 -0.00599344 -0.000866373)
(4.28545 -0.00610602 -0.00102541)
(3.81952 -0.00617004 -0.000985854)
(4.01974 -0.0061758 -0.00108873)
(3.62243 -0.00617228 -0.00107409)
(3.75824 -0.00616203 -0.00113738)
(3.41548 -0.00616321 -0.00113546)
(3.50519 -0.00614962 -0.00117134)
(3.21254 -0.00615162 -0.00117787)
(3.25969 -0.006137 -0.00119514)
(2.99651 -0.00612854 -0.00120628)
(2.99315 -0.00611318 -0.00120305)
(2.77641 -0.00604032 -0.00121758)
(2.73401 -0.00602896 -0.00119581)
(2.55533 -0.00557983 -0.0012158)
(2.47635 -0.0055509 -0.00117)
(2.31142 -0.00345659 -0.00120256)
(2.21303 -0.00249757 -0.00111493)
(4.20261 0.00491074 -0.000406935)
(4.55922 0.00610855 -0.0006443)
(4.01633 0.0045192 -0.000570967)
(4.28531 0.00456622 -0.000731503)
(3.81944 0.00434493 -0.000693588)
(4.01965 0.00436977 -0.000796386)
(3.62233 0.00430575 -0.0007833)
(3.75816 0.00432132 -0.00084616)
(3.41538 0.00428065 -0.000845471)
(3.50512 0.00429253 -0.000881124)
(3.21245 0.00425932 -0.000888623)
(3.25963 0.00426768 -0.000905813)
(2.99645 0.00423581 -0.000917412)
(2.99315 0.00424534 -0.000914296)
(2.7764 0.00417029 -0.000928344)
(2.73436 0.00418434 -0.000906923)
(2.55563 0.00381105 -0.00092103)
(2.47904 0.00387278 -0.000876815)
(2.31375 0.00202011 -0.000871922)
(2.23473 0.00209701 -0.000799856)
(4.20324 -0.0018127 -0.000734197)
(4.55936 -0.00108213 -0.000931034)
(4.01575 -0.001938 -0.000861971)
(4.28537 -0.00193353 -0.00101603)
(3.81943 -0.00198928 -0.000977169)
(4.01972 -0.00199098 -0.00107958)
(3.62241 -0.00199419 -0.0010648)
(3.75822 -0.00199214 -0.00112808)
(3.41546 -0.00199467 -0.001126)
(3.50517 -0.00199127 -0.00116204)
(3.21253 -0.00199274 -0.00116839)
(3.25967 -0.0019877 -0.00118569)
(2.9965 -0.00198317 -0.00119646)
(2.99312 -0.00197678 -0.0011935)
(2.77639 -0.0019445 -0.0012081)
(2.73387 -0.00193828 -0.0011866)
(2.55521 -0.00176555 -0.00120844)
(2.47569 -0.00174369 -0.00116342)
(2.31076 -0.00111557 -0.00120607)
(2.2156 -0.00081487 -0.00113156)
(4.20295 8.91824e-08 -0.000437176)
(4.55928 3.527e-07 -0.0006463)
(4.01601 9.91827e-07 -0.000577183)
(4.28529 1.50222e-06 -0.000735381)
(3.81941 1.57974e-06 -0.000697751)
(4.01965 1.06976e-06 -0.00080053)
(3.62232 -1.77036e-07 -0.00078731)
(3.75816 -2.42631e-06 -0.000850199)
(3.41538 -4.29244e-06 -0.000849391)
(3.50512 -5.45536e-06 -0.00088515)
(3.21246 -6.47891e-06 -0.00089252)
(3.25963 -6.6865e-06 -0.00090973)
(2.99645 -4.54784e-06 -0.000921016)
(2.99317 -2.742e-06 -0.000918056)
(2.77642 3.42004e-06 -0.000931768)
(2.73442 4.06005e-06 -0.000910535)
(2.55571 3.05862e-05 -0.000923609)
(2.47928 2.80207e-05 -0.000880061)
(2.3141 0.000146497 -0.000872008)
(2.23424 0.000126376 -0.000806375)
(4.20324 0.00181234 -0.000734198)
(4.55936 0.00108297 -0.000931034)
(4.01575 0.00193995 -0.000861977)
(4.28537 0.00193672 -0.00101604)
(3.81943 0.00199243 -0.000977175)
(4.01972 0.00199341 -0.00107958)
(3.6224 0.0019935 -0.0010648)
(3.75822 0.00198819 -0.00112808)
(3.41546 0.00198662 -0.001126)
(3.50517 0.00197995 -0.00116203)
(3.21252 0.0019803 -0.00116838)
(3.25967 0.0019758 -0.00118568)
(2.9965 0.00197495 -0.00119644)
(2.99313 0.0019709 -0.00119349)
(2.77639 0.00195215 -0.00120809)
(2.73388 0.00194809 -0.0011866)
(2.55522 0.00183063 -0.00120842)
(2.47573 0.00180377 -0.00116344)
(2.3108 0.00144644 -0.00120632)
(2.21571 0.0011142 -0.00113176)
(4.20261 -0.0049109 -0.000406932)
(4.55922 -0.00610794 -0.000644298)
(4.01633 -0.00451764 -0.000570955)
(4.28531 -0.00456392 -0.000731513)
(3.81944 -0.0043427 -0.000693601)
(4.01965 -0.00436832 -0.000796397)
(3.62232 -0.00430611 -0.000783305)
(3.75816 -0.00432529 -0.00084616)
(3.41537 -0.00428738 -0.000845461)
(3.50512 -0.00430062 -0.000881101)
(3.21245 -0.00426933 -0.00088859)
(3.25963 -0.00427828 -0.000905776)
(2.99645 -0.00424287 -0.000917393)
(2.99316 -0.00424921 -0.000914283)
(2.77641 -0.00416438 -0.00092835)
(2.73438 -0.00417743 -0.000906918)
(2.55565 -0.00376141 -0.000921078)
(2.47913 -0.00382744 -0.00087684)
(2.31384 -0.00177431 -0.000871896)
(2.23526 -0.00187797 -0.000799991)
(4.20326 0.00592324 -0.000706755)
(4.55992 0.00368188 -0.000942136)
(4.01634 0.00599481 -0.000866389)
(4.28545 0.00610796 -0.00102542)
(3.81952 0.00617178 -0.000985869)
(4.01974 0.00617707 -0.00108875)
(3.62243 0.00617162 -0.00107409)
(3.75824 0.00615986 -0.00113738)
(3.41547 0.00615868 -0.00113545)
(3.50519 0.00614268 -0.00117132)
(3.21254 0.00614469 -0.00117784)
(3.25969 0.00613081 -0.0011951)
(2.99652 0.00612398 -0.00120624)
(2.99316 0.00610934 -0.00120303)
(2.77642 0.00604347 -0.00121756)
(2.73404 0.00603324 -0.00119578)
(2.55535 0.00561182 -0.00121573)
(2.47647 0.005579 -0.00117)
(2.31152 0.00364304 -0.00120292)
(2.21344 0.00262249 -0.00111532)
(4.21298 -0.0101242 -0.000217537)
(4.54593 -0.0128305 -0.000552883)
(4.00421 -0.00886995 -0.000465589)
(4.2714 -0.00898939 -0.000629951)
(3.80694 -0.00863171 -0.000592083)
(4.00637 -0.00869173 -0.000694425)
(3.61034 -0.00856955 -0.000682033)
(3.74568 -0.00860862 -0.000744654)
(3.40405 -0.00852791 -0.000744545)
(3.49352 -0.00855808 -0.000779796)
(3.20188 -0.00849089 -0.000787787)
(3.24898 -0.00851018 -0.000804829)
(2.98671 -0.00844685 -0.000817455)
(2.98349 -0.00846601 -0.000813981)
(2.76756 -0.00832965 -0.000829025)
(2.72562 -0.00835264 -0.000807142)
(2.54763 -0.00766136 -0.000824273)
(2.47089 -0.00780368 -0.000778659)
(2.30588 -0.0023548 -0.000785178)
(2.23164 -0.00247816 -0.000690116)
(4.19964 -0.0010014 -5.0437e-08)
(4.55699 -0.00159199 -5.22829e-08)
(4.01034 -0.00170261 -5.43687e-08)
(4.2821 -0.00165931 -5.89532e-08)
(3.81523 -0.00168235 -5.84297e-08)
(4.01668 -0.00165665 -5.81968e-08)
(3.61933 -0.00166397 -4.87529e-08)
(3.75572 -0.00165112 -5.51747e-08)
(3.4132 -0.00165505 -6.34397e-08)
(3.50325 -0.00164514 -5.93572e-08)
(3.2109 -0.00164706 -4.82994e-08)
(3.25832 -0.0016386 -3.54925e-08)
(2.99544 -0.00164107 -6.19422e-08)
(2.99236 -0.00163308 -8.55594e-08)
(2.77593 -0.00164402 -8.09853e-08)
(2.73398 -0.00163621 -8.25472e-08)
(2.55568 -0.00169217 -5.40293e-08)
(2.47821 -0.00168556 -5.68241e-08)
(2.31348 -0.00192337 -9.51946e-08)
(2.22771 -0.00190806 -9.55866e-08)
(4.20135 0.00128636 -4.99557e-08)
(4.5594 0.000876648 -5.20262e-08)
(4.01216 0.000814726 -5.39885e-08)
(4.28424 0.000792083 -5.8739e-08)
(3.81684 0.000783033 -5.83825e-08)
(4.01848 0.000793244 -5.81366e-08)
(3.62072 0.000782656 -4.85476e-08)
(3.75722 0.000794012 -5.45988e-08)
(3.4144 0.000785933 -6.3143e-08)
(3.50451 0.000795252 -5.94469e-08)
(3.21192 0.00079031 -4.86105e-08)
(3.25936 0.000798005 -3.53325e-08)
(2.9963 0.000798615 -6.1228e-08)
(2.99322 0.000804501 -8.53165e-08)
(2.77666 0.000816947 -8.08549e-08)
(2.73466 0.000820265 -8.22874e-08)
(2.55626 0.000884525 -5.35207e-08)
(2.47869 0.000886787 -5.55962e-08)
(2.31387 0.00119721 -9.46028e-08)
(2.22803 0.00120823 -9.57513e-08)
(4.20126 -0.0004403 -4.94381e-08)
(4.55933 -0.000693324 -5.14397e-08)
(4.01216 -0.0007551 -5.29814e-08)
(4.28423 -0.000745806 -5.79369e-08)
(3.81684 -0.000760977 -5.76236e-08)
(4.01847 -0.000749792 -5.75456e-08)
(3.62072 -0.000754888 -4.75662e-08)
(3.75722 -0.000750083 -5.3387e-08)
(3.4144 -0.000753593 -6.21051e-08)
(3.50451 -0.000749896 -5.88705e-08)
(3.21192 -0.000752209 -4.8212e-08)
(3.25936 -0.000748409 -3.45724e-08)
(2.9963 -0.000750106 -5.99109e-08)
(2.99322 -0.000745475 -8.45039e-08)
(2.77666 -0.00074982 -8.00077e-08)
(2.73471 -0.000745248 -8.15315e-08)
(2.5563 -0.000764988 -5.25804e-08)
(2.47889 -0.000760693 -5.38722e-08)
(2.31408 -0.000824994 -9.4118e-08)
(2.22877 -0.000811984 -9.59229e-08)
(4.20128 0.000385743 -4.92909e-08)
(4.55931 0.000282358 -5.09357e-08)
(4.01214 0.000256328 -5.23485e-08)
(4.28424 0.000244439 -5.73025e-08)
(3.81684 0.000239564 -5.72929e-08)
(4.01848 0.000242553 -5.73862e-08)
(3.62072 0.000237464 -4.70989e-08)
(3.75722 0.000239712 -5.25316e-08)
(3.4144 0.000235345 -6.17036e-08)
(3.50451 0.000237585 -5.90745e-08)
(3.21192 0.00023588 -4.87737e-08)
(3.25936 0.00023908 -3.45158e-08)
(2.9963 0.000241679 -5.88383e-08)
(2.99322 0.000245082 -8.42492e-08)
(2.77666 0.000253987 -7.97337e-08)
(2.73466 0.000255375 -8.10433e-08)
(2.55625 0.000299751 -5.16395e-08)
(2.47866 0.000300096 -5.19989e-08)
(2.31385 0.000507282 -9.37653e-08)
(2.22808 0.000506126 -9.67165e-08)
(4.20121 1.25348e-07 -4.93355e-08)
(4.55927 5.33085e-07 -5.08503e-08)
(4.01215 1.19897e-06 -5.18169e-08)
(4.28422 1.70968e-06 -5.71002e-08)
(3.81684 1.65543e-06 -5.7269e-08)
(4.01847 1.06624e-06 -5.73962e-08)
(3.62072 -3.77504e-07 -4.65182e-08)
(3.75722 -2.33017e-06 -5.15222e-08)
(3.41439 -4.29503e-06 -6.11421e-08)
(3.50451 -5.71705e-06 -5.92076e-08)
(3.21192 -6.41445e-06 -4.91435e-08)
(3.25937 -6.21859e-06 -3.41536e-08)
(2.99631 -4.15834e-06 -5.77385e-08)
(2.99323 -2.51574e-06 -8.41134e-08)
(2.77667 3.7612e-06 -7.93877e-08)
(2.73472 4.96396e-06 -8.07269e-08)
(2.55632 2.95404e-05 -5.09733e-08)
(2.47896 2.81248e-05 -4.99024e-08)
(2.31416 0.000139652 -9.35228e-08)
(2.22909 0.000129965 -9.79298e-08)
(4.20128 -0.000385908 -4.91434e-08)
(4.55931 -0.000281515 -5.03968e-08)
(4.01214 -0.000254252 -5.09944e-08)
(4.28424 -0.000241178 -5.62237e-08)
(3.81684 -0.00023623 -5.65785e-08)
(4.01848 -0.000240084 -5.7065e-08)
(3.62072 -0.00023778 -4.58959e-08)
(3.75722 -0.000243971 -5.0575e-08)
(3.4144 -0.000243473 -6.04273e-08)
(3.50451 -0.000248515 -5.90812e-08)
(3.21192 -0.000248218 -4.95261e-08)
(3.25936 -0.000251251 -3.40622e-08)
(2.99631 -0.000250294 -5.67248e-08)
(2.99322 -0.00025067 -8.34361e-08)
(2.77666 -0.000247823 -7.87189e-08)
(2.73467 -0.000247297 -7.99281e-08)
(2.55626 -0.000242293 -5.02817e-08)
(2.4787 -0.000245703 -4.81486e-08)
(2.31389 -0.000213485 -9.27926e-08)
(2.22823 -0.000239744 -9.82033e-08)
(4.20126 0.000440294 -4.91519e-08)
(4.55933 0.000694145 -5.0212e-08)
(4.01216 0.000756912 -5.06011e-08)
(4.28423 0.000748342 -5.61091e-08)
(3.81684 0.00076359 -5.68321e-08)
(4.01847 0.000751616 -5.72058e-08)
(3.62072 0.000754449 -4.54372e-08)
(3.75722 0.000746627 -4.964e-08)
(3.41439 0.000747008 -6.01664e-08)
(3.5045 0.000741063 -5.95205e-08)
(3.21192 0.000742261 -5.0099e-08)
(3.25937 0.000738645 -3.36686e-08)
(2.99631 0.000743437 -5.5502e-08)
(2.99323 0.000741133 -8.33985e-08)
(2.77667 0.000754936 -7.84473e-08)
(2.73472 0.000751968 -7.96911e-08)
(2.55632 0.000811286 -4.94793e-08)
(2.47897 0.000804533 -4.59557e-08)
(2.31416 0.00105941 -9.24691e-08)
(2.22918 0.00102439 -1.00331e-07)
(4.20135 -0.00128627 -4.84658e-08)
(4.5594 -0.00087584 -4.93588e-08)
(4.01216 -0.00081315 -4.94214e-08)
(4.28425 -0.0007901 -5.48947e-08)
(3.81684 -0.000781327 -5.55709e-08)
(4.01848 -0.000792166 -5.63409e-08)
(3.62072 -0.00078306 -4.4503e-08)
(3.75722 -0.000796331 -4.85681e-08)
(3.41439 -0.000790263 -5.89784e-08)
(3.5045 -0.000801048 -5.86375e-08)
(3.21192 -0.000796776 -4.96273e-08)
(3.25936 -0.000804237 -3.30561e-08)
(2.99631 -0.00080273 -5.42381e-08)
(2.99322 -0.000807145 -8.22026e-08)
(2.77666 -0.000813276 -7.72525e-08)
(2.73469 -0.000815476 -7.85289e-08)
(2.55628 -0.000853711 -4.87713e-08)
(2.4788 -0.000858737 -4.44079e-08)
(2.31397 -0.0010238 -9.13139e-08)
(2.22851 -0.00107598 -9.92501e-08)
(4.19964 0.0010012 -4.82435e-08)
(4.55699 0.00159229 -4.92066e-08)
(4.01034 0.00170325 -4.90357e-08)
(4.28211 0.00166031 -5.45912e-08)
(3.81523 0.00168312 -5.5756e-08)
(4.01668 0.00165731 -5.64804e-08)
(3.61932 0.00166406 -4.41935e-08)
(3.75572 0.00165032 -4.77664e-08)
(3.41319 0.00165347 -5.86603e-08)
(3.50325 0.00164297 -5.8893e-08)
(3.2109 0.00164462 -4.99782e-08)
(3.25833 0.00163618 -3.27634e-08)
(2.99544 0.00163916 -5.33823e-08)
(2.99237 0.00163171 -8.18525e-08)
(2.77594 0.00164498 -7.70283e-08)
(2.73401 0.00163739 -7.84199e-08)
(2.5557 0.0017046 -4.84614e-08)
(2.47835 0.00169603 -4.31342e-08)
(2.3136 0.00201649 -9.04414e-08)
(2.22858 0.00196436 -1.00074e-07)
(4.21297 0.010124 0.000217488)
(4.54593 0.012831 0.000552834)
(4.00421 0.00887066 0.000465527)
(4.2714 0.0089907 0.000629872)
(3.80694 0.00863265 0.000591996)
(4.00637 0.00869283 0.000694348)
(3.61034 0.00856855 0.000681987)
(3.74568 0.00860879 0.000744621)
(3.40405 0.00852626 0.000744502)
(3.49352 0.00855334 0.000779772)
(3.20188 0.00848797 0.000787784)
(3.24898 0.00850931 0.000804856)
(2.98671 0.00844563 0.000817419)
(2.98348 0.00846289 0.00081387)
(2.76755 0.00833106 0.000828891)
(2.72559 0.00835566 0.000806991)
(2.5476 0.00767814 0.000824158)
(2.47074 0.00781838 0.000778516)
(2.30576 0.00247867 0.000784909)
(2.23061 0.00257416 0.000689553)
(4.20326 -0.00592311 0.000706705)
(4.55992 -0.0036812 0.000942088)
(4.01633 -0.00599334 0.000866313)
(4.28545 -0.00610593 0.00102535)
(3.81952 -0.00616996 0.000985782)
(4.01974 -0.00617574 0.00108866)
(3.62243 -0.00617221 0.00107403)
(3.75824 -0.00616201 0.00113732)
(3.41548 -0.00616318 0.00113538)
(3.50519 -0.00614959 0.00117126)
(3.21254 -0.00615158 0.00117782)
(3.25969 -0.00613698 0.00119512)
(2.99651 -0.00612852 0.00120621)
(2.99315 -0.00611319 0.00120294)
(2.77641 -0.00604029 0.00121746)
(2.73401 -0.00602893 0.00119568)
(2.55532 -0.00557974 0.00121572)
(2.47635 -0.00555081 0.00116992)
(2.31142 -0.00345657 0.00120241)
(2.21303 -0.0024975 0.00111477)
(4.20261 0.00491083 0.000406884)
(4.55922 0.00610869 0.00064425)
(4.01633 0.00451937 0.00057091)
(4.28531 0.00456632 0.00073144)
(3.81944 0.00434511 0.000693517)
(4.01965 0.00436993 0.000796316)
(3.62232 0.00430601 0.000783244)
(3.75816 0.00432152 0.000846103)
(3.41538 0.00428083 0.000845393)
(3.50512 0.0042927 0.00088105)
(3.21245 0.00425949 0.000888566)
(3.25963 0.00426787 0.000905788)
(2.99645 0.00423595 0.000917347)
(2.99315 0.00424546 0.00091418)
(2.7764 0.00417043 0.000928228)
(2.73435 0.00418449 0.000906795)
(2.55563 0.00381125 0.00092095)
(2.47903 0.00387291 0.00087674)
(2.31375 0.00202022 0.00087177)
(2.23473 0.00209711 0.000799692)
(4.20324 -0.00181265 0.000734146)
(4.55936 -0.00108207 0.000930986)
(4.01575 -0.0019379 0.000861914)
(4.28537 -0.0019335 0.00101597)
(3.81943 -0.00198921 0.000977096)
(4.01971 -0.00199093 0.00107951)
(3.6224 -0.00199411 0.00106475)
(3.75822 -0.00199209 0.00112803)
(3.41546 -0.00199461 0.00112592)
(3.50517 -0.0019912 0.00116196)
(3.21252 -0.00199265 0.00116833)
(3.25967 -0.00198761 0.00118567)
(2.9965 -0.00198313 0.00119639)
(2.99312 -0.00197676 0.00119337)
(2.77639 -0.00194444 0.00120798)
(2.73387 -0.00193822 0.00118647)
(2.55521 -0.00176542 0.00120837)
(2.47569 -0.0017436 0.00116335)
(2.31076 -0.00111554 0.00120592)
(2.2156 -0.000814746 0.00113139)
(4.20295 1.61345e-07 0.000437125)
(4.55928 4.54784e-07 0.000646252)
(4.01601 1.19748e-06 0.000577127)
(4.28529 1.66173e-06 0.000735316)
(3.81941 1.83078e-06 0.000697678)
(4.01965 1.27224e-06 0.000800461)
(3.62232 1.08282e-07 0.000787259)
(3.75816 -2.23418e-06 0.000850142)
(3.41538 -4.12219e-06 0.000849309)
(3.50512 -5.3008e-06 0.000885073)
(3.21245 -6.31914e-06 0.00089246)
(3.25963 -6.51742e-06 0.000909707)
(2.99645 -4.4265e-06 0.000920947)
(2.99317 -2.63793e-06 0.000917931)
(2.77642 3.56435e-06 0.00093165)
(2.73442 4.20529e-06 0.000910408)
(2.5557 3.07899e-05 0.000923542)
(2.47927 2.81689e-05 0.000879994)
(2.3141 0.000146616 0.000871849)
(2.23424 0.000126519 0.000806204)
(4.20324 0.00181239 0.000734147)
(4.55936 0.00108305 0.000930986)
(4.01575 0.00194005 0.000861923)
(4.28537 0.00193678 0.00101597)
(3.81943 0.00199251 0.000977101)
(4.01971 0.00199347 0.00107951)
(3.6224 0.0019936 0.00106475)
(3.75822 0.00198828 0.00112803)
(3.41546 0.00198671 0.00112592)
(3.50517 0.00198006 0.00116195)
(3.21252 0.00198043 0.00116832)
(3.25967 0.00197595 0.00118565)
(2.9965 0.00197504 0.00119637)
(2.99313 0.00197097 0.00119336)
(2.77639 0.00195225 0.00120798)
(2.73388 0.00194819 0.00118647)
(2.55522 0.0018308 0.00120836)
(2.47573 0.00180388 0.00116337)
(2.3108 0.00144646 0.00120617)
(2.21571 0.00111427 0.00113158)
(4.20261 -0.00491082 0.000406882)
(4.55922 -0.00610784 0.000644251)
(4.01633 -0.00451747 0.000570902)
(4.28531 -0.00456382 0.000731446)
(3.81943 -0.00434251 0.000693527)
(4.01965 -0.00436817 0.000796328)
(3.62232 -0.00430587 0.000783259)
(3.75816 -0.00432513 0.000846105)
(3.41537 -0.00428722 0.000845376)
(3.50511 -0.00430047 0.000881022)
(3.21245 -0.00426917 0.000888529)
(3.25963 -0.00427812 0.000905754)
(2.99645 -0.00424273 0.00091732)
(2.99316 -0.00424909 0.000914149)
(2.77641 -0.00416423 0.00092823)
(2.73438 -0.0041773 0.000906791)
(2.55565 -0.00376124 0.000921024)
(2.47913 -0.00382729 0.000876781)
(2.31384 -0.00177427 0.000871732)
(2.23526 -0.00187787 0.000799814)
(4.20326 0.00592327 0.000706705)
(4.55992 0.00368192 0.00094209)
(4.01633 0.00599492 0.000866338)
(4.28545 0.0061081 0.00102535)
(3.81952 0.00617191 0.000985795)
(4.01974 0.00617719 0.00108868)
(3.62243 0.00617175 0.00107405)
(3.75824 0.00616002 0.00113733)
(3.41547 0.00615882 0.00113536)
(3.50519 0.00614283 0.00117124)
(3.21254 0.00614485 0.00117778)
(3.25969 0.00613101 0.00119508)
(2.99652 0.00612414 0.00120617)
(2.99316 0.00610948 0.00120289)
(2.77642 0.00604362 0.00121744)
(2.73404 0.00603341 0.00119566)
(2.55535 0.00561202 0.00121568)
(2.47647 0.00557914 0.00116995)
(2.31152 0.0036432 0.00120276)
(2.21344 0.00262261 0.00111514)
(4.21298 -0.0101242 0.000217499)
(4.54593 -0.0128306 0.000552832)
(4.00421 -0.00887003 0.00046553)
(4.2714 -0.00898941 0.000629871)
(3.80694 -0.00863183 0.000591996)
(4.00637 -0.00869185 0.000694351)
(3.61034 -0.00856975 0.000681989)
(3.74568 -0.00860875 0.000744598)
(3.40405 -0.00852801 0.000744454)
(3.49352 -0.00855816 0.000779711)
(3.20188 -0.00849092 0.000787721)
(3.24898 -0.00851019 0.000804807)
(2.98671 -0.0084469 0.000817377)
(2.98349 -0.00846612 0.000813836)
(2.76756 -0.00832969 0.0008289)
(2.72562 -0.00835265 0.000807012)
(2.54763 -0.00766137 0.000824226)
(2.47089 -0.00780367 0.00077861)
(2.30588 -0.00235486 0.000785009)
(2.23164 -0.00247813 0.000689929)
(4.13239 0.0115217 27.1475)
(4.5001 -0.0102449 27.1839)
(3.94741 -0.00762631 27.1838)
(4.21675 -0.00886009 27.1803)
(3.75191 -0.00891524 27.1801)
(3.95009 -0.00897822 27.177)
(3.5566 -0.00920603 27.1766)
(3.69017 -0.00909943 27.1736)
(3.3522 -0.00932565 27.1729)
(3.44021 -0.00919779 27.1702)
(3.15254 -0.00940413 27.1693)
(3.19884 -0.00928608 27.1668)
(2.94045 -0.00943967 27.1658)
(2.93725 -0.00932334 27.1634)
(2.72476 -0.00937128 27.1626)
(2.68362 -0.00927907 27.1603)
(2.50832 -0.00867973 27.1595)
(2.432 -0.0086183 27.1572)
(2.26853 -0.00302577 27.1559)
(2.17518 0.00170907 27.1472)
(4.21123 0.0263281 27.1586)
(4.56945 0.0044103 27.1945)
(4.01541 0.00601884 27.1944)
(4.29025 0.00526495 27.1908)
(3.81833 0.00518413 27.1906)
(4.02143 0.00524453 27.1874)
(3.62091 0.00505459 27.187)
(3.75803 0.00514256 27.184)
(3.41364 0.00497005 27.1832)
(3.50388 0.00504813 27.1804)
(3.21042 0.00489614 27.1795)
(3.25775 0.00496135 27.177)
(2.99415 0.00483055 27.1759)
(2.991 0.0048925 27.1734)
(2.77382 0.00470939 27.1726)
(2.73204 0.00478398 27.1702)
(2.55249 0.00421873 27.1694)
(2.47643 0.00451561 27.167)
(2.30909 0.00240973 27.1656)
(2.23611 0.00556619 27.1567)
(4.21131 0.00496472 27.1596)
(4.57022 -0.0041762 27.1956)
(4.01612 -0.00318823 27.1955)
(4.2909 -0.00425787 27.192)
(3.81881 -0.00422631 27.1917)
(4.0219 -0.004313 27.1886)
(3.62134 -0.00439916 27.1882)
(3.75845 -0.00436471 27.1851)
(3.41404 -0.00445896 27.1843)
(3.50427 -0.00440692 27.1815)
(3.2108 -0.00449594 27.1806)
(3.25811 -0.00444492 27.1781)
(2.99449 -0.00450726 27.1771)
(2.99127 -0.00445633 27.1745)
(2.77408 -0.00445025 27.1737)
(2.73191 -0.00440096 27.1713)
(2.55244 -0.00401494 27.1705)
(2.47387 -0.00386162 27.1681)
(2.30769 -0.00178835 27.1667)
(2.21544 0.000551346 27.1579)
(4.20792 0.00785346 27.1604)
(4.56656 0.00169372 27.1962)
(4.01569 0.00219019 27.1961)
(4.2902 0.00166352 27.1925)
(3.81862 0.00165563 27.1923)
(4.02171 0.00165216 27.1891)
(3.6212 0.00158763 27.1887)
(3.75834 0.00161481 27.1856)
(3.41393 0.00155199 27.1849)
(3.50419 0.00157937 27.1821)
(3.21071 0.00152305 27.1812)
(3.25805 0.00154458 27.1786)
(2.99442 0.00149804 27.1776)
(2.99131 0.00152633 27.1751)
(2.7741 0.00145809 27.1742)
(2.73246 0.00148665 27.1718)
(2.55293 0.0013223 27.171)
(2.4775 0.0014506 27.1686)
(2.31095 0.00104715 27.1673)
(2.23532 0.00186668 27.1584)
(4.20888 3.60686e-07 27.1598)
(4.56774 3.27789e-07 27.1957)
(4.01613 8.12397e-07 27.1955)
(4.2907 8.23874e-07 27.192)
(3.81881 7.89854e-07 27.1917)
(4.02188 3.15676e-07 27.1886)
(3.62132 -9.77895e-07 27.1882)
(3.75844 -2.96351e-06 27.1851)
(3.41403 -4.50873e-06 27.1844)
(3.50426 -6.95507e-06 27.1816)
(3.21079 -7.5538e-06 27.1807)
(3.2581 -5.24959e-06 27.1781)
(2.99448 -5.84223e-06 27.1771)
(2.99126 -7.25709e-06 27.1746)
(2.77407 3.40037e-06 27.1737)
(2.73186 7.04345e-06 27.1714)
(2.55243 3.28751e-05 27.1705)
(2.47377 3.00344e-05 27.1682)
(2.30784 0.000167153 27.1667)
(2.21684 0.000158916 27.1579)
(4.20792 -0.00785255 27.1604)
(4.56656 -0.0016926 27.1962)
(4.01569 -0.00218779 27.1961)
(4.2902 -0.00166223 27.1925)
(3.81862 -0.00165399 27.1923)
(4.02171 -0.00165267 27.1891)
(3.6212 -0.00159084 27.1887)
(3.75834 -0.0016223 27.1856)
(3.41393 -0.00156406 27.1849)
(3.50419 -0.00159279 27.1821)
(3.21071 -0.00153793 27.1812)
(3.25805 -0.0015637 27.1786)
(2.99442 -0.00151002 27.1776)
(2.99131 -0.00152971 27.1751)
(2.77411 -0.00145487 27.1742)
(2.73247 -0.00148697 27.1718)
(2.55294 -0.0012612 27.171)
(2.47755 -0.00139288 27.1686)
(2.31099 -0.000722275 27.1673)
(2.23555 -0.00158448 27.1584)
(4.21131 -0.00496394 27.1596)
(4.57022 0.00417703 27.1956)
(4.01613 0.00318977 27.1955)
(4.2909 0.00425898 27.192)
(3.81881 0.00422743 27.1917)
(4.0219 0.00431272 27.1886)
(3.62134 0.00439686 27.1882)
(3.75844 0.00435895 27.1851)
(3.41404 0.0044503 27.1843)
(3.50427 0.00439672 27.1815)
(3.2108 0.00448342 27.1806)
(3.25811 0.00443149 27.1781)
(2.99449 0.00449895 27.1771)
(2.99128 0.00445074 27.1745)
(2.77409 0.00445198 27.1737)
(2.73193 0.00440625 27.1713)
(2.55246 0.00406434 27.1705)
(2.47397 0.00390636 27.1681)
(2.30777 0.00205172 27.1667)
(2.21585 -0.000311246 27.1579)
(4.21123 -0.0263268 27.1586)
(4.56945 -0.00440954 27.1945)
(4.01541 -0.00601744 27.1944)
(4.29024 -0.00526508 27.1908)
(3.81833 -0.0051848 27.1906)
(4.02142 -0.00524614 27.1874)
(3.62091 -0.00505771 27.187)
(3.75802 -0.00514786 27.184)
(3.41364 -0.00497693 27.1832)
(3.50388 -0.00505803 27.1804)
(3.21042 -0.0049069 27.1795)
(3.25775 -0.0049688 27.177)
(2.99415 -0.0048388 27.1759)
(2.991 -0.0049038 27.1734)
(2.77383 -0.00470887 27.1726)
(2.73207 -0.00477748 27.1702)
(2.55251 -0.00418607 27.1694)
(2.47656 -0.00448738 27.167)
(2.30921 -0.00222143 27.1656)
(2.23681 -0.0054118 27.1567)
(4.13239 -0.0115206 27.1475)
(4.5001 0.0102456 27.1839)
(3.94741 0.00762773 27.1838)
(4.21675 0.00885932 27.1803)
(3.75191 0.00891429 27.1801)
(3.95009 0.00897607 27.177)
(3.5566 0.009203 27.1766)
(3.69016 0.00909538 27.1736)
(3.35219 0.00931993 27.1729)
(3.44021 0.00919165 27.1701)
(3.15254 0.00939856 27.1693)
(3.19884 0.00927832 27.1668)
(2.94045 0.00943367 27.1658)
(2.93725 0.00932142 27.1634)
(2.72477 0.00936984 27.1626)
(2.68365 0.00927317 27.1603)
(2.50834 0.00869106 27.1595)
(2.43216 0.00862949 27.1572)
(2.26866 0.0031077 27.1559)
(2.17608 -0.00168828 27.1474)
(1.85274 -0.0236782 -27.1443)
(1.59705 -0.0292198 -27.1388)
(1.10402 -0.0265007 -27.1318)
(0.697708 -0.0254497 -27.1229)
(0.351002 -0.0246691 -27.1167)
(0.158078 -0.0241976 -27.1128)
(0.0604452 -0.0239875 -27.1109)
(0.0209708 -0.0238972 -27.1101)
(0.00631494 -0.0238649 -27.1098)