/*--------------------------------*- C++ -*----------------------------------*\
  =========                 |
  \\      /  F ield         | OpenFOAM: The Open Source CFD Toolbox
   \\    /   O peration     | Website:  https://openfoam.org
    \\  /    A nd           | Version:  7
     \\/     M anipulation  |
\*---------------------------------------------------------------------------*/
FoamFile
{
    version     2.0;
    format      ascii;
    class       volSymmTensorField;
    location    "1.48";
    object      UPrime2Mean;
}
// * * * * * * * * * * * * * * * * * * * * * * * * * * * * * * * * * * * * * //

dimensions      [0 2 -2 0 0 0 0];

internalField   nonuniform List<symmTensor> 
13200
(
(0.0269429 -0.000454976 -0.0024845 1.78479e-05 6.10695e-05 0.000387098)
(0.0786955 0.00651991 -0.00432091 0.000707719 -0.000397415 0.000464385)
(0.0886621 0.00762793 -0.00424056 0.000999949 -0.000460698 0.000529054)
(0.107917 0.00866431 -0.00447654 0.0010603 -0.000453134 0.000532854)
(0.100439 0.00798289 -0.00415215 0.00109346 -0.000467421 0.000560168)
(0.111567 0.00843206 -0.0041981 0.00110131 -0.00045295 0.000531341)
(0.103681 0.00770214 -0.00390503 0.00110691 -0.00046181 0.00052423)
(0.111911 0.00790172 -0.00385778 0.00110577 -0.000447025 0.000480474)
(0.105338 0.00723923 -0.0036039 0.00110564 -0.000452583 0.000463715)
(0.111757 0.00732 -0.00350566 0.00110471 -0.000439749 0.000426731)
(0.106562 0.00675386 -0.00328825 0.00110298 -0.000443224 0.000415253)
(0.111651 0.0067554 -0.00316453 0.00110272 -0.00043201 0.000392299)
(0.10768 0.00627265 -0.00297829 0.00110039 -0.000432974 0.00039002)
(0.111728 0.00621324 -0.00284632 0.00110081 -0.000423113 0.000380554)
(0.108844 0.0058013 -0.00268421 0.00109797 -0.00042112 0.000384928)
(0.112044 0.00569326 -0.00256523 0.00110035 -0.000414437 0.000385171)
(0.110008 0.00529787 -0.00241579 0.00109315 -0.000406572 0.000388198)
(0.112903 0.00515384 -0.00233704 0.00110551 -0.000410189 0.000397868)
(0.109895 0.00429672 -0.00216863 0.00102008 -0.000369835 0.000383376)
(0.116296 0.00561852 -0.00176502 0.00116304 -0.000401107 0.00041457)
(0.0100699 -0.00440677 -0.000861013 0.00486868 0.00109388 0.00039818)
(0.0598276 -0.00998516 -0.00338902 0.00231186 0.000802419 0.000955242)
(0.118577 -0.00921574 -0.00492771 0.0014465 0.000627105 0.00150885)
(0.165982 -0.00902147 -0.00586037 0.00117678 0.000501716 0.00183445)
(0.188684 -0.00788485 -0.00640501 0.00114325 0.000480784 0.00213389)
(0.212141 -0.00806277 -0.00669119 0.00113139 0.000430187 0.00215876)
(0.223912 -0.00725785 -0.00689478 0.00112678 0.000415236 0.00216118)
(0.23961 -0.0073006 -0.00694947 0.00112308 0.000378024 0.00196199)
(0.247912 -0.0065956 -0.00696387 0.00112147 0.00037457 0.00180842)
(0.259731 -0.00652823 -0.00688426 0.00111969 0.000352246 0.00157388)
(0.266441 -0.00594654 -0.00676628 0.00111987 0.000357524 0.00142095)
(0.275855 -0.00580633 -0.00659329 0.00111845 0.00034462 0.00126112)
(0.281954 -0.00532309 -0.00637146 0.00111874 0.000350322 0.0011808)
(0.2898 -0.00511834 -0.00614051 0.00111766 0.00034134 0.00112521)
(0.296003 -0.00471889 -0.00582218 0.00111718 0.000340993 0.00112151)
(0.302712 -0.00440731 -0.005645 0.00111864 0.000338634 0.00116066)
(0.308605 -0.00407003 -0.00522394 0.00111249 0.00031981 0.00117929)
(0.316526 -0.00323632 -0.00529555 0.00112794 0.000338688 0.00130661)
(0.309915 -0.00265204 -0.00464657 0.00106713 0.00026506 0.00123492)
(0.331805 0.0010864 -0.00412796 0.00102186 0.000254445 0.00148852)
(0.00542834 0.000219066 0.000327262 0.00328776 0.000864714 0.00043952)
(0.0117988 -0.00319647 -0.000695653 0.00191832 0.000554125 0.00132953)
(0.0370325 -0.00506315 -0.00228442 0.00145763 0.000391996 0.00245814)
(0.0695578 -0.00348948 -0.00408229 0.0012479 0.000197733 0.00346879)
(0.104053 -0.00282446 -0.00554963 0.00112263 3.39746e-05 0.0045098)
(0.134303 -0.00148003 -0.00654735 0.0010735 -6.50971e-05 0.00512536)
(0.164147 -0.00135212 -0.00754734 0.00104983 -0.000160873 0.00553173)
(0.187908 -0.000581741 -0.0081662 0.00104185 -0.000195992 0.0054116)
(0.213305 -0.000745589 -0.00889777 0.00104332 -0.00023804 0.00513672)
(0.232081 -0.000326431 -0.00923355 0.00104509 -0.000240093 0.00456622)
(0.254029 -0.000595515 -0.0096187 0.00104764 -0.000251184 0.00402421)
(0.26937 -0.00039741 -0.00966388 0.00105046 -0.00023785 0.00342268)
(0.289024 -0.000698223 -0.00964484 0.00105193 -0.000235609 0.0029426)
(0.302202 -0.000670089 -0.0093974 0.00105409 -0.000216472 0.00255899)
(0.320641 -0.000960725 -0.00890359 0.00105452 -0.000210683 0.00228884)
(0.332875 -0.000982107 -0.00851716 0.00105675 -0.000186439 0.00223401)
(0.349273 -0.00162089 -0.00763368 0.00105805 -0.000171497 0.00213745)
(0.365962 -0.000455892 -0.00755138 0.00105839 -0.000189876 0.00242908)
(0.365205 -0.00335301 -0.00614253 0.00109064 -8.07706e-05 0.00229091)
(0.418556 0.00734551 -0.00643 0.00147387 -0.000652261 0.00287005)
(0.00680852 0.0034835 0.00081701 0.00552575 0.00113343 0.000416819)
(0.00989696 0.00389959 0.00150169 0.00440071 0.00134617 0.0013582)
(0.0170244 0.00378488 0.00204635 0.00333984 0.00136659 0.00264499)
(0.0194135 0.00144507 0.0012117 0.00228315 0.00109289 0.00385891)
(0.0296555 0.00133188 0.000875322 0.00176891 0.000888961 0.00534209)
(0.040634 0.000471464 -8.32982e-05 0.0015078 0.000649785 0.00653797)
(0.0561175 0.000949044 -0.000646754 0.00136289 0.000507481 0.00768636)
(0.0717418 0.00075173 -0.00191668 0.00127705 0.000371089 0.00815173)
(0.0892517 0.001377 -0.00284718 0.00122881 0.000332795 0.00830805)
(0.106084 0.00144316 -0.00420987 0.00119059 0.000284673 0.00784971)
(0.123708 0.00201806 -0.00500189 0.00117205 0.000291516 0.00721599)
(0.140207 0.00219151 -0.00604331 0.0011508 0.00027939 0.00631724)
(0.157236 0.00265495 -0.0064336 0.00114309 0.000296077 0.00539335)
(0.17324 0.00287397 -0.00693356 0.0011282 0.000302395 0.00451811)
(0.189685 0.00320678 -0.00669179 0.0011249 0.000298795 0.00369414)
(0.206038 0.00367649 -0.00642534 0.00111167 0.000322484 0.00318158)
(0.220536 0.00353581 -0.00557565 0.00111306 0.000282241 0.00268132)
(0.240857 0.00563342 -0.00481441 0.00111189 0.000272354 0.00270613)
(0.245729 0.00326554 -0.00359878 0.00107429 0.000285244 0.00246096)
(0.279237 0.011476 -0.00225488 0.00139342 -7.68822e-05 0.00294551)
(0.00747534 0.00199917 0.000928958 0.0020008 0.000606138 0.000405738)
(0.0146435 0.00223359 0.00222542 0.00202735 0.000580209 0.00136403)
(0.0317252 0.00188131 0.00439684 0.00211078 0.000696733 0.002643)
(0.0351209 0.00045642 0.00493599 0.0018893 0.000575058 0.00387982)
(0.0449212 -0.00156376 0.00619413 0.00156158 0.000373773 0.00537194)
(0.0467349 -0.0024281 0.00615351 0.00137251 0.000165637 0.00678698)
(0.0549628 -0.00371199 0.00662135 0.00124029 -3.7577e-05 0.00825566)
(0.0595945 -0.00399077 0.00563314 0.00116844 -0.000170256 0.0092448)
(0.0688201 -0.00476139 0.00499577 0.00112071 -0.000267839 0.00985912)
(0.0765547 -0.00481155 0.00337952 0.00109118 -0.00031197 0.0098314)
(0.0868165 -0.00531962 0.0024518 0.00107378 -0.000329758 0.00944271)
(0.0966298 -0.0053487 0.00100865 0.00106038 -0.00031486 0.00867003)
(0.107349 -0.00577805 0.000223715 0.0010536 -0.000306401 0.00769821)
(0.118536 -0.00586449 -0.000753611 0.00104342 -0.000276775 0.0066166)
(0.129421 -0.00630491 -0.00110166 0.00104569 -0.000289465 0.00548784)
(0.142048 -0.00632088 -0.00108358 0.00102586 -0.000244315 0.00450771)
(0.152749 -0.00705822 -0.000681188 0.00106006 -0.000260828 0.00363653)
(0.167426 -0.00622546 0.000472743 0.000985789 -0.000307123 0.00313371)
(0.177362 -0.00787846 0.00119348 0.00113827 -0.000155246 0.00269531)
(0.194421 -0.00518811 0.00380616 0.00139639 -0.000949367 0.00278968)
(0.00741324 0.0028852 0.000895748 0.00273642 0.000753681 0.00039206)
(0.0144435 0.00462912 0.00215649 0.00265359 0.00100932 0.00133972)
(0.0371663 0.00815917 0.00485887 0.0026019 0.00120611 0.00262862)
(0.0474109 0.00751907 0.00615425 0.00205539 0.00105184 0.00382348)
(0.0666994 0.00826794 0.00840217 0.00175917 0.00092698 0.00529912)
(0.0729685 0.0073955 0.00917016 0.00157873 0.00070965 0.00669382)
(0.0875374 0.00788662 0.0105379 0.00144825 0.000573257 0.00827524)
(0.0925135 0.00732575 0.0100829 0.00135992 0.000422522 0.00945)
(0.104884 0.00786457 0.0099703 0.00130048 0.000373067 0.0103583)
(0.110601 0.00754092 0.00848119 0.00125099 0.000312233 0.0106173)
(0.122109 0.00803368 0.00776949 0.00121962 0.000318702 0.010516)
(0.129102 0.00786036 0.00629119 0.0011873 0.000304412 0.00996363)
(0.140028 0.00828123 0.0055596 0.00117094 0.000320214 0.0091718)
(0.148201 0.0082101 0.00436916 0.00114719 0.00033029 0.00813113)
(0.158526 0.00851664 0.00381113 0.0011411 0.000323505 0.00699732)
(0.167986 0.00854841 0.00349078 0.00111539 0.000348885 0.00578904)
(0.177563 0.00873465 0.00369165 0.00112947 0.000325194 0.00474143)
(0.189015 0.00885747 0.00475651 0.00109188 0.000265325 0.00383006)
(0.197317 0.00886589 0.00546556 0.00111775 0.000380701 0.0031895)
(0.212723 0.00954558 0.00844362 0.00132746 -9.51059e-06 0.00292366)
(0.00733573 0.00100362 0.0008821 0.00062794 0.000293862 0.000387689)
(0.0132136 0.000867656 0.00199171 0.000947553 0.000230716 0.00135578)
(0.0363234 0.000974068 0.00476778 0.00124827 0.000371671 0.00263914)
(0.0491738 0.000739799 0.00629134 0.0013805 0.000376595 0.00385806)
(0.0733206 -0.000464874 0.00898064 0.00130373 0.000274613 0.0052919)
(0.0843262 -0.000872802 0.0101694 0.00123896 0.000142962 0.0067091)
(0.105593 -0.00188717 0.0120642 0.00118365 -1.83606e-05 0.00826678)
(0.115083 -0.00210383 0.0119914 0.00115308 -0.000131629 0.0095401)
(0.13425 -0.00287495 0.0122986 0.00112512 -0.000229019 0.0105207)
(0.143639 -0.00307183 0.0110347 0.00110484 -0.000280992 0.0109458)
(0.161416 -0.00369665 0.0106136 0.00109065 -0.000316467 0.010979)
(0.17121 -0.00391181 0.00928527 0.00107767 -0.000312811 0.0105884)
(0.187743 -0.00448458 0.00879944 0.0010711 -0.000312467 0.00995728)
(0.19792 -0.00476736 0.00763089 0.00105656 -0.000278678 0.00901071)
(0.213252 -0.00537945 0.00717073 0.00105959 -0.000294981 0.00798844)
(0.223627 -0.00566556 0.00658794 0.00102897 -0.000245031 0.00670861)
(0.237762 -0.0063952 0.00691271 0.00106638 -0.000287846 0.00564136)
(0.248619 -0.00688345 0.00757644 0.000961336 -0.000327045 0.00451197)
(0.25964 -0.00737117 0.00874021 0.00110858 -0.000221331 0.00373498)
(0.27598 -0.0114521 0.0115852 0.00119838 -0.000904348 0.00329099)
(0.00723753 0.0017707 0.000851981 0.00105045 0.000449916 0.000378736)
(0.0121293 0.00261794 0.00182061 0.00129258 0.000642169 0.00134894)
(0.0341251 0.00546887 0.0045057 0.00146134 0.000786587 0.0026437)
(0.0470321 0.00537102 0.00605161 0.00130492 0.000682424 0.00386858)
(0.0722055 0.00661038 0.00884592 0.00123383 0.000633939 0.00530607)
(0.0850927 0.00639295 0.010193 0.0011845 0.000511632 0.00672658)
(0.109334 0.0073453 0.0122896 0.00115222 0.000459187 0.00827748)
(0.121956 0.00721548 0.0124115 0.00112717 0.000377439 0.00956805)
(0.145653 0.00804994 0.0129376 0.00111296 0.000365823 0.0105691)
(0.158794 0.00799687 0.0118315 0.0010976 0.000328703 0.0110472)
(0.181964 0.00869662 0.0116039 0.00108981 0.000342235 0.0111397)
(0.195741 0.00869647 0.0104039 0.00107789 0.000330877 0.0108235)
(0.218166 0.00927021 0.0101266 0.00107373 0.00034688 0.010291)
(0.232416 0.00930977 0.00902556 0.00106398 0.000346697 0.00941842)
(0.253714 0.00980185 0.00872328 0.0010642 0.000347503 0.00849487)
(0.268226 0.00978097 0.00802697 0.00105086 0.000354323 0.00722912)
(0.287547 0.0104597 0.00850288 0.00106622 0.000354447 0.00617579)
(0.303533 0.0100663 0.00893225 0.00103407 0.000314305 0.00498925)
(0.31661 0.0111704 0.0104362 0.00107132 0.000381056 0.0041087)
(0.339814 0.0109712 0.0132209 0.00122726 0.000247775 0.00362186)
(0.00719523 7.52165e-05 0.000839564 0.000106853 3.68063e-05 0.00037398)
(0.0115402 -0.000340903 0.00173447 0.000534765 -7.23704e-05 0.00135358)
(0.0326726 -0.00121965 0.00435501 0.000790596 -1.6834e-05 0.00264803)
(0.045145 -0.00126142 0.00586964 0.000964358 3.49675e-05 0.00389245)
(0.0699151 -0.00233344 0.00865643 0.000999826 -2.26305e-06 0.00533022)
(0.083125 -0.00242254 0.0100337 0.00100401 -4.20214e-05 0.00676404)
(0.108039 -0.00328728 0.0121817 0.00100299 -0.00012867 0.00830872)
(0.121866 -0.00328548 0.0123773 0.00100322 -0.000179517 0.00960346)
(0.147352 -0.00395727 0.0130038 0.001003 -0.000242794 0.0106012)
(0.162462 -0.00399213 0.011995 0.00100169 -0.00027012 0.0110889)
(0.188407 -0.00455262 0.0118898 0.00100327 -0.000303986 0.0112001)
(0.204745 -0.0046358 0.0107861 0.0010025 -0.000302188 0.0109055)
(0.23083 -0.00513678 0.0106524 0.00100626 -0.000313992 0.0104225)
(0.248072 -0.00529294 0.00962123 0.00100214 -0.000287254 0.0095843)
(0.273845 -0.00584954 0.00945276 0.00100869 -0.000302141 0.0087228)
(0.291343 -0.00601562 0.00870711 0.000992404 -0.000260333 0.00748227)
(0.315811 -0.00680981 0.00932089 0.00101622 -0.000301695 0.00644561)
(0.33414 -0.00722089 0.00958918 0.000947092 -0.000313519 0.00526593)
(0.352323 -0.00791505 0.0113445 0.00103923 -0.000267453 0.00432158)
(0.377914 -0.0118021 0.0141069 0.00112608 -0.000713122 0.00385296)
(0.00716381 0.000818512 0.000821585 0.000246917 0.000195624 0.000366965)
(0.0112277 0.00135281 0.00167391 0.000657154 0.000345003 0.00134763)
(0.0319029 0.00320321 0.00424699 0.000873231 0.000391649 0.00264317)
(0.0441142 0.0031769 0.00574457 0.000938603 0.000313565 0.00389498)
(0.0685987 0.00433168 0.00851668 0.00096656 0.000308194 0.00533868)
(0.0817754 0.0042812 0.00989684 0.000969657 0.00026752 0.0067805)
(0.10669 0.00521009 0.012047 0.000974681 0.00028675 0.00832624)
(0.120834 0.00517281 0.0122596 0.00097491 0.00027415 0.00962095)
(0.146812 0.00595078 0.0129113 0.000978761 0.000301877 0.0106149)
(0.162616 0.00597084 0.0119362 0.000978604 0.000298216 0.0111008)
(0.189548 0.00663177 0.0118726 0.000982541 0.000322687 0.0112151)
(0.206942 0.00670235 0.0108085 0.000982447 0.000316634 0.0109234)
(0.234551 0.00726941 0.0107285 0.000986833 0.000333435 0.0104575)
(0.253238 0.00739033 0.00973299 0.000985791 0.000318942 0.00963156)
(0.281025 0.00795145 0.00961834 0.000991157 0.000329625 0.00879444)
(0.300327 0.00804074 0.00887379 0.000984929 0.00030881 0.00757163)
(0.327103 0.00886076 0.00954361 0.001 0.000334918 0.00653921)
(0.347651 0.00890406 0.00977615 0.000967858 0.000321743 0.00537936)
(0.368007 0.00988827 0.0116274 0.00101724 0.000330002 0.00440093)
(0.395342 0.0118362 0.0144168 0.00116006 0.000498436 0.0039583)
(0.0071638 -0.000818517 0.000821587 0.000246916 -0.000195628 0.000366966)
(0.0112277 -0.00135282 0.00167391 0.000657159 -0.000345023 0.00134764)
(0.0319029 -0.00320326 0.004247 0.000873236 -0.000391685 0.00264316)
(0.0441142 -0.00317697 0.00574455 0.000938603 -0.000313621 0.00389501)
(0.0685988 -0.00433178 0.00851672 0.000966562 -0.000308264 0.00533865)
(0.0817754 -0.00428121 0.00989678 0.000969659 -0.000267613 0.00678053)
(0.10669 -0.00521023 0.0120471 0.000974685 -0.000286853 0.00832626)
(0.120834 -0.00517274 0.0122595 0.000974903 -0.000274219 0.00962087)
(0.146813 -0.00595058 0.0129115 0.000978757 -0.000302023 0.0106152)
(0.162616 -0.0059701 0.011936 0.000978582 -0.000298174 0.0111004)
(0.189549 -0.00663044 0.0118729 0.000982503 -0.000322923 0.0112157)
(0.206944 -0.00670036 0.0108084 0.000982374 -0.00031641 0.0109228)
(0.234556 -0.00726421 0.0107287 0.000986779 -0.000333696 0.0104579)
(0.253241 -0.00738166 0.00973314 0.000985555 -0.000318716 0.00963142)
(0.281039 -0.00793891 0.00961747 0.000990972 -0.000329342 0.00879394)
(0.300342 -0.00800812 0.00887518 0.000983876 -0.000308341 0.00757283)
(0.327132 -0.00884031 0.00953776 0.0009998 -0.000333231 0.00653711)
(0.347681 -0.00880109 0.00978106 0.000963971 -0.000319019 0.00538238)
(0.368109 -0.00984702 0.0116132 0.00101619 -0.000324449 0.00439708)
(0.395374 -0.011655 0.0144337 0.00114749 -0.000491046 0.00396339)
(0.00719523 -7.52217e-05 0.000839572 0.00010685 -3.68114e-05 0.000373982)
(0.0115402 0.000340894 0.00173446 0.000534755 7.23517e-05 0.0013536)
(0.0326726 0.0012196 0.00435506 0.00079059 1.67933e-05 0.002648)
(0.045145 0.00126136 0.00586957 0.00096435 -3.50194e-05 0.00389255)
(0.0699151 0.00233334 0.0086566 0.000999819 2.18415e-06 0.00533011)
(0.0831251 0.00242252 0.0100335 0.00100399 4.19353e-05 0.00676415)
(0.108039 0.00328714 0.012182 0.00100298 0.000128554 0.00830876)
(0.121866 0.00328556 0.0123769 0.0010032 0.000179458 0.00960319)
(0.147352 0.00395743 0.0130044 0.00100298 0.000242645 0.010602)
(0.162462 0.00399282 0.0119942 0.00100166 0.00027013 0.0110876)
(0.188407 0.00455384 0.0118906 0.0010032 0.000303778 0.011202)
(0.204746 0.00463763 0.010785 0.00100245 0.000302298 0.0109033)
(0.230827 0.00514182 0.010653 0.0010061 0.000313738 0.0104244)
(0.248075 0.00530128 0.00962052 0.00100204 0.000287241 0.00958349)
(0.273841 0.00586094 0.00945177 0.00100839 0.000302324 0.00872172)
(0.291341 0.00604828 0.00870859 0.000992455 0.000260566 0.00748585)
(0.31582 0.00682713 0.00931501 0.00101572 0.0003033 0.00643944)
(0.334142 0.00732279 0.00960143 0.000949271 0.000315995 0.00527505)
(0.352341 0.0079485 0.0113171 0.00103838 0.000272794 0.00431009)
(0.37798 0.0119819 0.014149 0.00113882 0.000720063 0.00386874)
(0.00723753 -0.0017707 0.000851994 0.00105045 -0.000449929 0.00037874)
(0.0121293 -0.00261795 0.00182058 0.00129258 -0.000642176 0.00134897)
(0.034125 -0.00546892 0.00450579 0.00146134 -0.000786646 0.00264364)
(0.0470321 -0.00537108 0.00605145 0.00130491 -0.000682451 0.00386875)
(0.0722056 -0.00661046 0.00884625 0.00123383 -0.000634047 0.00530587)
(0.0850928 -0.00639296 0.0101925 0.00118448 -0.00051167 0.0067268)
(0.109334 -0.00734543 0.0122904 0.0011522 -0.000459358 0.0082775)
(0.121957 -0.00721543 0.0124103 0.00112714 -0.000377426 0.00956756)
(0.145653 -0.00804974 0.0129395 0.00111293 -0.000366066 0.0105706)
(0.158795 -0.00799613 0.0118288 0.00109752 -0.000328517 0.0110445)
(0.181964 -0.00869543 0.0116075 0.0010897 -0.000342602 0.0111438)
(0.195746 -0.00869464 0.010399 0.00107774 -0.00033036 0.0108184)
(0.218171 -0.00926552 0.0101333 0.00107339 -0.000347216 0.0102959)
(0.232428 -0.00930224 0.00901696 0.00106349 -0.000345759 0.00941513)
(0.253733 -0.00979102 0.00873363 0.00106356 -0.000347302 0.00849492)
(0.268261 -0.00975402 0.0080153 0.00104911 -0.000352791 0.00723389)
(0.287607 -0.0104408 0.00850938 0.00106506 -0.000353047 0.00616654)
(0.303605 -0.00998495 0.0089303 0.00102883 -0.000310582 0.00500378)
(0.316811 -0.011135 0.0104167 0.00106835 -0.000376016 0.00409044)
(0.339957 -0.010821 0.013273 0.00121636 -0.000237883 0.00364708)
(0.00733573 -0.00100363 0.000882117 0.000627931 -0.000293878 0.000387696)
(0.0132136 -0.000867666 0.00199166 0.000947539 -0.000230715 0.00135582)
(0.0363233 -0.00097411 0.00476794 0.00124826 -0.000371746 0.00263907)
(0.0491739 -0.00073986 0.00629105 0.00138048 -0.000376597 0.00385829)
(0.0733205 0.000464773 0.00898118 0.00130372 -0.000274759 0.00529159)
(0.0843263 0.000872756 0.0101686 0.00123893 -0.000142957 0.00670945)
(0.105593 0.00188702 0.0120657 0.00118363 1.81321e-05 0.00826666)
(0.115084 0.00210386 0.0119893 0.00115304 0.000131719 0.00953946)
(0.13425 0.00287505 0.0123019 0.00112509 0.000228736 0.0105229)
(0.143641 0.00307225 0.0110297 0.00110475 0.00028111 0.0109413)
(0.161415 0.0036976 0.0106208 0.00109058 0.000316167 0.0109864)
(0.171215 0.00391291 0.00927418 0.00107756 0.000312935 0.0105785)
(0.187739 0.00448788 0.008816 0.00107082 0.000311977 0.00996831)
(0.197936 0.00477263 0.00760645 0.00105621 0.000278647 0.00900159)
(0.21325 0.00538582 0.00720612 0.00105921 0.000294792 0.00799338)
(0.223662 0.00568656 0.00653987 0.00102828 0.000244821 0.00671145)
(0.237788 0.00639817 0.00697243 0.00106572 0.000289463 0.0056323)
(0.248702 0.006954 0.00751363 0.000961936 0.000328512 0.00452819)
(0.259747 0.00736622 0.0087963 0.00110737 0.000227158 0.00371505)
(0.276207 0.0115578 0.011566 0.00120935 0.000906639 0.00331936)
(0.00741324 -0.0028852 0.000895765 0.00273641 -0.000753707 0.000392068)
(0.0144435 -0.00462913 0.00215642 0.00265359 -0.00100929 0.00133975)
(0.0371663 -0.00815922 0.00485907 0.0026019 -0.00120622 0.00262857)
(0.0474109 -0.00751914 0.00615384 0.00205538 -0.00105178 0.00382372)
(0.0666993 -0.00826802 0.00840276 0.00175915 -0.000927193 0.00529872)
(0.0729686 -0.00739556 0.00916909 0.0015787 -0.000709517 0.00669429)
(0.0875372 -0.00788675 0.0105395 0.00144822 -0.000573641 0.00827489)
(0.092514 -0.00732586 0.0100806 0.00135986 -0.0004222 0.00944939)
(0.104884 -0.0078645 0.00997376 0.00130042 -0.000373666 0.0103609)
(0.110603 -0.00754066 0.00847589 0.00125088 -0.000311567 0.0106113)
(0.122109 -0.00803332 0.00777765 0.0012195 -0.000319642 0.0105271)
(0.129109 -0.00785979 0.00627783 0.00118718 -0.000303048 0.00994776)
(0.140032 -0.00827949 0.00558294 0.00117048 -0.000321684 0.0091919)
(0.148217 -0.0082063 0.00433112 0.00114666 -0.000327651 0.00811177)
(0.158539 -0.00851403 0.00387389 0.00114038 -0.000325885 0.0070136)
(0.168027 -0.00853466 0.00339581 0.00111368 -0.000343376 0.0057825)
(0.177605 -0.00873264 0.00382482 0.00112795 -0.000329117 0.00474115)
(0.189083 -0.00881986 0.00458285 0.00108692 -0.000256669 0.00383712)
(0.197439 -0.00887693 0.00566586 0.00111429 -0.00038497 0.00318065)
(0.212822 -0.00948334 0.00824219 0.0013206 2.57653e-05 0.00293867)
(0.00747535 -0.00199918 0.000928971 0.00200079 -0.000606158 0.000405746)
(0.0146435 -0.0022336 0.00222535 0.00202733 -0.000580181 0.00136405)
(0.0317251 -0.00188135 0.00439698 0.00211076 -0.000696834 0.00264298)
(0.0351209 -0.000456499 0.00493565 0.00188928 -0.000575 0.00388006)
(0.0449211 0.00156366 0.00619435 0.00156157 -0.000373962 0.00537152)
(0.0467347 0.00242798 0.00615299 0.00137247 -0.000165532 0.00678753)
(0.0549624 0.00371182 0.00662158 0.00124027 3.72788e-05 0.00825507)
(0.0595943 0.00399057 0.0056332 0.00116841 0.000170466 0.00924463)
(0.0688198 0.0047613 0.00499495 0.00112069 0.000267488 0.00986166)
(0.0765546 0.00481131 0.00338103 0.00109111 0.000312119 0.00982534)
(0.0868164 0.00531958 0.00244959 0.00107381 0.0003295 0.00945572)
(0.0966288 0.00534789 0.00100988 0.00106034 0.000314863 0.00865055)
(0.107347 0.00577761 0.000227462 0.00105343 0.000306005 0.00772664)
(0.118532 0.0058626 -0.000768856 0.00104321 0.000276676 0.00658532)
(0.129407 0.00630295 -0.00106247 0.00104572 0.000289297 0.0055221)
(0.142033 0.0063143 -0.00116326 0.00102552 0.00024346 0.00447893)
(0.152701 0.0070477 -0.000544261 0.00106001 0.000262544 0.0036633)
(0.167382 0.00622359 0.000266428 0.000986716 0.000302977 0.00310683)
(0.177224 0.00784854 0.00146289 0.00113819 0.000162595 0.00272164)
(0.194284 0.00526032 0.00348059 0.00140006 0.000911266 0.00277069)
(0.00680853 -0.0034835 0.000817017 0.00552573 -0.00113345 0.000416825)
(0.00989695 -0.00389961 0.00150165 0.00440071 -0.00134614 0.00135822)
(0.0170244 -0.00378493 0.00204633 0.00333984 -0.00136667 0.00264504)
(0.0194134 -0.00144516 0.00121165 0.00228313 -0.00109282 0.00385909)
(0.0296552 -0.00133198 0.00087476 0.00176889 -0.000889128 0.00534178)
(0.0406333 -0.000471622 -8.2564e-05 0.00150778 -0.00064964 0.00653853)
(0.0561166 -0.00094927 -0.000648925 0.00136287 -0.000507793 0.00768583)
(0.0717401 -0.000752127 -0.00191256 0.00127702 -0.000370765 0.00815237)
(0.0892507 -0.00137744 -0.00285493 0.00122876 -0.000333328 0.00830976)
(0.106079 -0.0014438 -0.00419695 0.00119051 -0.000284016 0.00784636)
(0.123706 -0.0020193 -0.00502275 0.00117203 -0.000292434 0.00722642)
(0.140192 -0.00219284 -0.0060127 0.00115078 -0.000278006 0.00630169)
(0.15723 -0.00265843 -0.00647628 0.00114274 -0.000297948 0.00542075)
(0.173194 -0.00287632 -0.00688051 0.00112783 -0.000298938 0.00448356)
(0.189661 -0.00321539 -0.00675394 0.00112448 -0.000303692 0.00374179)
(0.205918 -0.00368312 -0.00636929 0.00111035 -0.000313062 0.00312475)
(0.220415 -0.00355354 -0.00561983 0.00111199 -0.000295284 0.00275246)
(0.240595 -0.00564885 -0.00480298 0.00110728 -0.000251363 0.0026161)
(0.2453 -0.00332165 -0.00362898 0.00107332 -0.000319713 0.0025463)
(0.278685 -0.0114931 -0.00212138 0.00138831 0.000106212 0.00290037)
(0.00542835 -0.000219076 0.000327262 0.00328774 -0.000864716 0.000439528)
(0.0117988 0.00319644 -0.000695647 0.0019183 -0.000554116 0.00132958)
(0.0370324 0.0050631 -0.00228462 0.00145763 -0.000392035 0.00245825)
(0.0695575 0.00348942 -0.00408218 0.0012479 -0.000197731 0.00346896)
(0.104052 0.00282442 -0.00555067 0.00112263 -3.40275e-05 0.00450977)
(0.134302 0.00148 -0.00654609 0.00107348 6.50767e-05 0.00512594)
(0.164146 0.00135207 -0.00755035 0.00104981 0.000160817 0.00553177)
(0.187906 0.000581613 -0.00816116 0.00104185 0.000195918 0.00541287)
(0.213303 0.000745549 -0.00890723 0.00104333 0.000238049 0.00513763)
(0.232075 0.000326485 -0.00921833 0.00104505 0.000239853 0.00456646)
(0.254024 0.000595087 -0.00964497 0.00104775 0.000251423 0.0040286)
(0.26935 0.000397189 -0.00962396 0.00105051 0.000237235 0.00341733)
(0.289014 0.000698687 -0.00970934 0.00105184 0.000236208 0.00295619)
(0.302136 0.00066976 -0.00930555 0.00105398 0.00021499 0.00253928)
(0.320597 0.000961393 -0.00904124 0.00105472 0.000212139 0.00232348)
(0.332714 0.00097541 -0.00833756 0.00105665 0.000182496 0.00218005)
(0.349077 0.001627 -0.00787358 0.00105819 0.000175523 0.00222202)
(0.365659 0.000442896 -0.00726687 0.00105815 0.000176623 0.00230035)
(0.364561 0.00336816 -0.00652637 0.0010914 0.000100699 0.00243742)
(0.41781 -0.00724196 -0.0054565 0.00147499 0.000524128 0.0027936)
(0.0100699 0.00440674 -0.000861014 0.00486865 -0.00109388 0.000398192)
(0.0598276 0.00998517 -0.00338908 0.00231187 -0.000802437 0.000955315)
(0.118577 0.00921572 -0.00492803 0.00144651 -0.00062713 0.00150898)
(0.165982 0.00902143 -0.00586053 0.00117678 -0.000501722 0.00183461)
(0.188684 0.00788476 -0.00640575 0.00114325 -0.000480814 0.00213407)
(0.21214 0.00806266 -0.00669086 0.00113139 -0.000430195 0.00215917)
(0.223912 0.00725762 -0.00689633 0.00112678 -0.000415298 0.00216153)
(0.239609 0.00730033 -0.00694773 0.00112308 -0.000378002 0.00196275)
(0.24791 0.0065952 -0.00696793 0.00112146 -0.000374676 0.00180887)
(0.259728 0.00652753 -0.00687859 0.00111963 -0.000352132 0.00157463)
(0.266437 0.00594599 -0.00677726 0.00111994 -0.000357741 0.00142173)
(0.275843 0.00580532 -0.00657705 0.00111848 -0.000344301 0.00126093)
(0.281944 0.00531972 -0.00640019 0.00111856 -0.000350724 0.00118319)
(0.289763 0.00511498 -0.00609753 0.0011174 -0.000340318 0.00112136)
(0.295974 0.00471358 -0.00589313 0.00111713 -0.000342081 0.00113031)
(0.302622 0.00439955 -0.00554045 0.00111785 -0.000335205 0.00114385)
(0.308495 0.00405862 -0.0053839 0.00111205 -0.000323572 0.00121094)
(0.316385 0.00322399 -0.0050776 0.0011253 -0.000327576 0.00124939)
(0.309597 0.00263437 -0.00491771 0.00106837 -0.000284622 0.00132479)
(0.331897 -0.00106281 -0.00379253 0.00102127 -0.000191884 0.00139536)
(0.0269429 0.000454932 -0.00248444 1.78463e-05 -6.10659e-05 0.000387099)
(0.0786956 -0.00651993 -0.00432092 0.000707717 0.000397419 0.000464419)
(0.0886621 -0.00762796 -0.0042406 0.000999948 0.000460701 0.000529096)
(0.107917 -0.00866438 -0.00447644 0.0010603 0.000453126 0.000532894)
(0.100439 -0.00798294 -0.00415212 0.00109346 0.000467414 0.000560224)
(0.111567 -0.00843201 -0.00419803 0.0011013 0.000452944 0.000531435)
(0.103681 -0.00770207 -0.00390522 0.00110689 0.000461815 0.000524332)
(0.111911 -0.0079017 -0.0038575 0.00110576 0.000447009 0.000480602)
(0.105337 -0.00723924 -0.00360425 0.00110564 0.000452595 0.000463803)
(0.111756 -0.00731976 -0.00350474 0.00110467 0.000439688 0.000426846)
(0.106561 -0.00675421 -0.00328938 0.00110308 0.000443279 0.000415333)
(0.11165 -0.00675528 -0.0031624 0.00110276 0.000431897 0.000392353)
(0.107679 -0.00627131 -0.00298194 0.00110023 0.00043307 0.000390221)
(0.111722 -0.00621119 -0.0028408 0.00110059 0.000422753 0.000380283)
(0.108841 -0.00579982 -0.00269406 0.00109798 0.000421361 0.000385819)
(0.11203 -0.00568902 -0.0025503 0.00109982 0.000413345 0.000383382)
(0.109992 -0.00529258 -0.00244072 0.00109289 0.000407088 0.00039213)
(0.112884 -0.00514544 -0.00229872 0.00110371 0.000407205 0.000390081)
(0.109848 -0.00429438 -0.00222796 0.00102176 0.000373237 0.000398915)
(0.116249 -0.00561381 -0.00179812 0.00116434 0.0003862 0.000383752)
(0.0111829 -0.00307936 1.60295e-05 0.00210942 1.51338e-05 5.74987e-07)
(0.0997601 -0.0124563 1.05135e-05 0.00258097 1.4711e-05 4.85537e-07)
(0.150932 -0.0126764 1.02141e-05 0.00260961 2.04438e-05 5.40831e-07)
(0.215677 -0.0154884 2.91376e-05 0.00260219 1.69753e-05 4.82673e-07)
(0.209054 -0.0144719 9.65039e-06 0.00266867 2.19987e-05 5.33337e-07)
(0.249791 -0.0163932 3.22851e-05 0.00271363 1.87164e-05 4.79014e-07)
(0.235472 -0.0148871 8.68816e-06 0.00273964 2.33773e-05 5.30442e-07)
(0.267792 -0.016034 3.10192e-05 0.00274865 2.00896e-05 4.79079e-07)
(0.253187 -0.0145429 5.54115e-06 0.00275723 2.42695e-05 5.26933e-07)
(0.279729 -0.015288 2.69579e-05 0.0027595 2.11576e-05 4.7767e-07)
(0.266567 -0.0139584 1.30734e-06 0.00276323 2.48588e-05 5.20616e-07)
(0.288601 -0.0144182 2.23312e-05 0.00276344 2.19203e-05 4.73925e-07)
(0.277459 -0.0132687 -2.39144e-06 0.00276504 2.51151e-05 5.11388e-07)
(0.295838 -0.0135299 1.88783e-05 0.00276583 2.22652e-05 4.67601e-07)
(0.286911 -0.01256 -4.21174e-06 0.00276473 2.4954e-05 4.99701e-07)
(0.302201 -0.0126565 1.78965e-05 0.00277442 2.228e-05 4.59292e-07)
(0.295126 -0.0117511 -3.52386e-06 0.00274145 2.4324e-05 4.86229e-07)
(0.308982 -0.0114581 2.11484e-05 0.0028447 2.25875e-05 4.49897e-07)
(0.29482 -0.00819574 -3.90013e-06 0.00237829 2.24259e-05 4.71486e-07)
(0.305136 -0.00823161 4.02789e-05 0.00245645 2.0016e-05 4.32615e-07)
(0.00734173 0.000920792 3.03694e-05 0.000976994 -5.8523e-06 4.79122e-07)
(0.0124942 -0.0018385 3.35841e-05 0.00139635 -1.29888e-05 4.22591e-07)
(0.0389216 -0.00279278 6.59857e-05 0.00193391 -1.73413e-05 4.67099e-07)
(0.100804 0.000962993 8.45508e-05 0.00232651 -1.51118e-05 4.19478e-07)
(0.131664 0.0013558 9.1068e-05 0.00248507 -1.92985e-05 4.60209e-07)
(0.194992 0.00424746 0.000112597 0.00255468 -1.61606e-05 4.15273e-07)
(0.211531 0.00349664 0.000109764 0.00258493 -2.03571e-05 4.58655e-07)
(0.265418 0.00533508 0.000130446 0.0026117 -1.70692e-05 4.1541e-07)
(0.273623 0.00430635 0.000121316 0.00262618 -2.08901e-05 4.56716e-07)