/*--------------------------------*- C++ -*----------------------------------*\
  =========                 |
  \\      /  F ield         | OpenFOAM: The Open Source CFD Toolbox
   \\    /   O peration     | Website:  https://openfoam.org
    \\  /    A nd           | Version:  7
     \\/     M anipulation  |
\*---------------------------------------------------------------------------*/
FoamFile
{
    version     2.0;
    format      ascii;
    class       volScalarField;
    location    "1.025";
    object      alphat;
}
// * * * * * * * * * * * * * * * * * * * * * * * * * * * * * * * * * * * * * //

dimensions      [1 -1 -1 0 0 0 0];

internalField   nonuniform List<scalar> 
4950
(
0.104641
0.102167
0.1024
0.102457
0.102458
0.102463
0.102458
0.102455
0.102448
0.102442
0.102434
0.102424
0.102413
0.102399
0.102381
0.102358
0.102333
0.102291
0.102296
0.102277
0.0608415
0.0521411
0.0516128
0.0517708
0.0516423
0.0517004
0.0516522
0.0516709
0.0516515
0.0516557
0.0516477
0.0516458
0.0516439
0.0516374
0.0516414
0.0516277
0.051645
0.0516154
0.0516805
0.051673
0.0572872
0.0469372
0.0461321
0.0462592
0.0461363
0.046186
0.0461403
0.0461556
0.0461365
0.0461391
0.0461305
0.0461274
0.0461237
0.0461164
0.0461166
0.0461028
0.0461094
0.0460837
0.0460994
0.0459516
0.0575458
0.047465
0.0466687
0.0467742
0.0466727
0.0467131
0.0466732
0.0466849
0.0466678
0.046669
0.0466607
0.0466569
0.0466527
0.0466449
0.0466438
0.0466303
0.0466335
0.0466087
0.0466157
0.0464488
0.057255
0.0469149
0.0460893
0.0461999
0.0460845
0.0461268
0.0460841
0.0460968
0.0460786
0.04608
0.0460712
0.0460674
0.0460628
0.046055
0.0460536
0.0460396
0.0460419
0.0460166
0.0460252
0.0458099
0.0575458
0.047465
0.0466687
0.0467742
0.0466727
0.0467131
0.0466732
0.0466849
0.0466678
0.046669
0.0466607
0.0466569
0.0466527
0.0466449
0.0466438
0.0466303
0.0466335
0.0466086
0.0466158
0.0464485
0.0572872
0.0469372
0.0461321
0.0462592
0.0461363
0.046186
0.0461403
0.0461556
0.0461365
0.0461391
0.0461305
0.0461274
0.0461237
0.0461164
0.0461166
0.0461028
0.0461094
0.0460837
0.0460992
0.0459513
0.0608415
0.0521411
0.0516128
0.0517708
0.0516423
0.0517004
0.0516522
0.0516709
0.0516515
0.0516557
0.0516477
0.0516458
0.0516439
0.0516374
0.0516414
0.0516277
0.0516449
0.0516153
0.05168
0.0516735
0.104641
0.102167
0.1024
0.102457
0.102458
0.102463
0.102458
0.102455
0.102448
0.102442
0.102434
0.102424
0.102413
0.102399
0.102381
0.102358
0.102333
0.102291
0.102296
0.102272
0.0435715
0.0438571
0.0443086
0.0441319
0.0442751
0.0441889
0.0442433
0.0442038
0.044222
0.0442024
0.044204
0.0441918
0.0441839
0.0441733
0.0441574
0.0441451
0.0441213
0.0441041
0.0441082
0.0442513
0.0426561
0.0455411
0.0453452
0.0457397
0.045619
0.0457123
0.0456651
0.0456883
0.0456702
0.0456755
0.0456704
0.0456703
0.0456753
0.0456726
0.045694
0.045687
0.0457486
0.0457288
0.0459344
0.0459063
0.0410124
0.0444303
0.0440191
0.0446939
0.0444769
0.044649
0.0445683
0.0446159
0.0445865
0.0446001
0.0445942
0.044598
0.0446108
0.0446107
0.0446537
0.0446475
0.0447605
0.0447351
0.0450436
0.0449206
0.0421102
0.0454387
0.0453488
0.0459019
0.0458445
0.0459994
0.0459708
0.0460124
0.0459983
0.0460093
0.046006
0.0460077
0.0460159
0.0460138
0.0460415
0.0460359
0.0461079
0.0460925
0.0462786
0.0461459
0.041234
0.0445626
0.0444065
0.04506
0.044956
0.0451608
0.0451073
0.0451607
0.0451384
0.0451531
0.0451491
0.0451527
0.0451658
0.0451653
0.0452063
0.0452028
0.0452955
0.0452896
0.0454404
0.0452625
0.0421102
0.0454387
0.0453488
0.0459019
0.0458445
0.0459994
0.0459708
0.0460124
0.0459983
0.0460093
0.046006
0.0460077
0.0460159
0.0460138
0.0460415
0.0460359
0.0461079
0.0460924
0.0462789
0.0461451
0.0410124
0.0444303
0.0440191
0.0446939
0.0444769
0.044649
0.0445683
0.0446159
0.0445865
0.0446001
0.0445942
0.044598
0.0446108
0.0446107
0.0446537
0.0446475
0.0447605
0.0447348
0.0450441
0.0449195
0.0426561
0.0455411
0.0453452
0.0457397
0.045619
0.0457123
0.0456651
0.0456883
0.0456702
0.0456755
0.0456704
0.0456703
0.0456753
0.0456726
0.045694
0.045687
0.0457486
0.0457286
0.0459353
0.0459077
0.0435715
0.0438571
0.0443086
0.0441319
0.0442751
0.0441889
0.0442433
0.0442038
0.044222
0.0442024
0.044204
0.0441918
0.0441839
0.0441733
0.0441574
0.044145
0.0441213
0.044104
0.0441087
0.0442514
0.0128316
0.0137558
0.0139548
0.0138911
0.0139759
0.0139196
0.0139612
0.0139302
0.0139482
0.0139315
0.0139371
0.0139266
0.0139261
0.0139175
0.0139146
0.0139064
0.0139063
0.013894
0.0139373
0.0140785
0.0131923
0.0166472
0.0162405
0.0163257
0.0163231
0.016232
0.0162721
0.0162037
0.0162249
0.0161855
0.0161905
0.0161677
0.0161671
0.0161517
0.0161624
0.0161505
0.0162137
0.0161949
0.0164105
0.0164572
0.0121693
0.0146041
0.0141487
0.0142496
0.0142367
0.0142762
0.0142787
0.0142864
0.0142874
0.0142873
0.0142879
0.0142858
0.0142887
0.0142858
0.0142957
0.0142925
0.0143214
0.0143172
0.0143949
0.0145065
0.012345
0.0163996
0.0157457
0.0159217
0.0159531
0.0158444
0.0159102
0.015822
0.0158534
0.0158011
0.0158082
0.0157774
0.0157769
0.0157558
0.0157721
0.0157589
0.0158491
0.0158389
0.0161584
0.0161758
0.0121602
0.0150754
0.0142612
0.0143011
0.0143193
0.0143463
0.0143494
0.0143599
0.0143615
0.0143631
0.0143638
0.0143624
0.0143649
0.0143623
0.0143705
0.0143685
0.0143874
0.0143941
0.0144823
0.0145125
0.012345
0.0163996
0.0157457
0.0159217
0.0159531
0.0158444
0.0159102
0.015822
0.0158534
0.0158011
0.0158082
0.0157774
0.0157769
0.0157558
0.0157721
0.0157589
0.0158492
0.0158388
0.016159
0.0161745
0.0121693
0.0146041
0.0141487
0.0142496
0.0142367
0.0142762
0.0142787
0.0142864
0.0142874
0.0142873
0.0142879
0.0142858
0.0142887
0.0142858
0.0142958
0.0142925
0.0143216
0.0143169
0.014396
0.0145038
0.0131923
0.0166472
0.0162405
0.0163257
0.0163231
0.016232
0.0162721
0.0162037
0.0162249
0.0161855
0.0161905
0.0161677
0.0161671
0.0161517
0.0161625
0.0161505
0.0162138
0.0161947
0.0164119
0.0164538
0.0128316
0.0137558
0.0139548
0.0138911
0.0139759
0.0139196
0.0139612
0.0139302
0.0139482
0.0139315
0.0139371
0.0139266
0.0139261
0.0139175
0.0139146
0.0139064
0.0139064
0.0138939
0.0139388
0.0140729
0.0435715
0.0438571
0.0443086
0.0441319
0.0442751
0.0441889
0.0442433
0.0442038
0.044222
0.0442024
0.044204
0.0441918
0.0441839
0.0441733
0.0441574
0.0441451
0.0441213
0.0441041
0.0441082
0.0442513
0.0426561
0.0455411
0.0453452
0.0457397
0.045619
0.0457123
0.0456651
0.0456883
0.0456702
0.0456755
0.0456704
0.0456703
0.0456753
0.0456726
0.045694
0.045687
0.0457486
0.0457288
0.0459344
0.0459063
0.0410124
0.0444303
0.0440191
0.0446939
0.0444769
0.044649
0.0445683
0.0446159
0.0445865
0.0446001
0.0445942
0.044598
0.0446108
0.0446107
0.0446537
0.0446475
0.0447605
0.0447351
0.0450436
0.0449206
0.0421102
0.0454387
0.0453488
0.0459019
0.0458445
0.0459994
0.0459708
0.0460124
0.0459983
0.0460093
0.046006
0.0460077
0.0460159
0.0460138
0.0460415
0.0460359
0.0461079
0.0460925
0.0462786
0.0461459
0.041234
0.0445626
0.0444065
0.04506
0.044956
0.0451608
0.0451073
0.0451607
0.0451384
0.0451531
0.0451491
0.0451527
0.0451658
0.0451653
0.0452063
0.0452028
0.0452955
0.0452896
0.0454404
0.0452625
0.0421102
0.0454387
0.0453488
0.0459019
0.0458445
0.0459994
0.0459708
0.0460124
0.0459983
0.0460093
0.046006
0.0460077
0.0460159
0.0460138
0.0460415
0.0460359
0.0461079
0.0460924
0.0462789
0.0461451
0.0410124
0.0444303
0.0440191
0.0446939
0.0444769
0.044649
0.0445683
0.0446159
0.0445865
0.0446001
0.0445942
0.044598
0.0446108
0.0446107
0.0446537
0.0446475
0.0447605
0.0447348
0.0450441
0.0449195
0.0426561
0.0455411
0.0453452
0.0457397
0.045619
0.0457123
0.0456651
0.0456883
0.0456702
0.0456755
0.0456704
0.0456703
0.0456753
0.0456726
0.045694
0.045687
0.0457486
0.0457286
0.0459353
0.0459077
0.0435715
0.0438571
0.0443086
0.0441319
0.0442751
0.0441889
0.0442433
0.0442038
0.044222
0.0442024
0.044204
0.0441918
0.0441839
0.0441733
0.0441574
0.044145
0.0441213
0.044104
0.0441087
0.0442514
0.104641
0.102167
0.1024
0.102457
0.102458
0.102463
0.102458
0.102455
0.102448
0.102442
0.102434
0.102424
0.102413
0.102399
0.102381
0.102358
0.102333
0.102291
0.102296
0.102277
0.0608415
0.0521411
0.0516128
0.0517708
0.0516423
0.0517004
0.0516522
0.0516709
0.0516515
0.0516557
0.0516477
0.0516458
0.0516439
0.0516374
0.0516414
0.0516277
0.051645
0.0516154
0.0516805
0.051673
0.0572872
0.0469372
0.0461321
0.0462592
0.0461363
0.046186
0.0461403
0.0461556
0.0461365
0.0461391
0.0461305
0.0461274
0.0461237
0.0461164
0.0461166
0.0461028
0.0461094
0.0460837
0.0460994
0.0459516
0.0575458
0.047465
0.0466687
0.0467742
0.0466727
0.0467131
0.0466732
0.0466849
0.0466678
0.046669
0.0466607
0.0466569
0.0466527
0.0466449
0.0466438
0.0466303
0.0466335
0.0466087
0.0466157
0.0464488
0.057255
0.0469149
0.0460893
0.0461999
0.0460845
0.0461268
0.0460841
0.0460968
0.0460786
0.04608
0.0460712
0.0460674
0.0460628
0.046055
0.0460536
0.0460396
0.0460419
0.0460166
0.0460252
0.0458099
0.0575458
0.047465
0.0466687
0.0467742
0.0466727
0.0467131
0.0466732
0.0466849
0.0466678
0.046669
0.0466607
0.0466569
0.0466527
0.0466449
0.0466438
0.0466303
0.0466335
0.0466086
0.0466158
0.0464485
0.0572872
0.0469372
0.0461321
0.0462592
0.0461363
0.046186
0.0461403
0.0461556
0.0461365
0.0461391
0.0461305
0.0461274
0.0461237
0.0461164
0.0461166
0.0461028
0.0461094
0.0460837
0.0460992
0.0459513
0.0608415
0.0521411
0.0516128
0.0517708
0.0516423
0.0517004
0.0516522
0.0516709
0.0516515
0.0516557
0.0516477
0.0516458
0.0516439
0.0516374
0.0516414
0.0516277
0.0516449
0.0516153
0.05168
0.0516735
0.104641
0.102167
0.1024
0.102457
0.102458
0.102463
0.102458
0.102455
0.102448
0.102442
0.102434
0.102424
0.102413
0.102399
0.102381
0.102358
0.102333
0.102291
0.102296
0.102272
0.257141
0.256962
0.256677
0.256475
0.256338
0.256215
0.256112
0.256007
0.255911
0.255813
0.255722
0.255631
0.255544
0.255455
0.255369
0.25528
0.255191
0.255099
0.255008
0.254915
0.254823
0.25473
0.254637
0.254543
0.25445
0.254357
0.254263
0.25417
0.254077
0.253983
0.25389
0.253796
0.253703
0.253609
0.253516
0.253423
0.253329
0.253236
0.253142
0.253049
0.252955
0.252862
0.252768
0.252675
0.252581
0.252487
0.252394
0.2523
0.252207
0.252113
0.25202
0.251926
0.251832
0.251739
0.251645
0.251551
0.251458
0.251364
0.25127
0.251177
0.251083
0.250989
0.250895
0.250802
0.250708
0.250614
0.25052
0.250427
0.250333
0.250239
0.250145
0.250051
0.249957
0.249864
0.24977
0.249676
0.249582
0.249488
0.249394
0.2493
0.249206
0.249113
0.249018
0.248925
0.24883
0.248738
0.248639
0.24855
0.24841
0.248249
0.159444
0.16013
0.160087
0.159989
0.159923
0.159853
0.159792
0.159729
0.159669
0.159609
0.159552
0.159494
0.159439
0.159383
0.159328
0.159272
0.159217
0.159159
0.159102
0.159045
0.158987
0.158929
0.158871
0.158812
0.158754
0.158696
0.158638
0.15858
0.158522
0.158463
0.158405
0.158347
0.158289
0.158231
0.158172
0.158114
0.158056
0.157998
0.157939
0.157881
0.157823
0.157765
0.157706
0.157648
0.15759
0.157532
0.157473
0.157415
0.157357
0.157298
0.15724
0.157182
0.157123
0.157065
0.157007
0.156948
0.15689
0.156832
0.156773
0.156715
0.156656
0.156598
0.15654
0.156481
0.156423
0.156364
0.156306
0.156247
0.156189
0.156131
0.156072
0.156014
0.155955
0.155897
0.155838
0.15578
0.155721
0.155663
0.155604
0.155546
0.155487
0.155429
0.15537
0.155312
0.155252
0.155195
0.155133
0.155078
0.154978
0.154781
0.138993
0.140188
0.140197
0.140124
0.140074
0.140016
0.139964
0.13991
0.139858
0.139806
0.139755
0.139705
0.139656
0.139607
0.139558
0.139509
0.139459
0.139409
0.139359
0.139309
0.139258
0.139207
0.139156
0.139105
0.139055
0.139004
0.138953
0.138902
0.138851
0.1388
0.138749
0.138698
0.138647
0.138596
0.138545
0.138495
0.138444
0.138393
0.138342
0.138291
0.13824
0.138189
0.138138
0.138087
0.138036
0.137985
0.137934
0.137883
0.137832
0.137781
0.13773
0.137679
0.137628
0.137577
0.137526
0.137474
0.137423
0.137372
0.137321
0.13727
0.137219
0.137168
0.137117
0.137066
0.137015
0.136964
0.136912
0.136861
0.13681
0.136759
0.136708
0.136657
0.136606
0.136555
0.136503
0.136452
0.136401
0.13635
0.136299
0.136248
0.136196
0.136145
0.136094
0.136043
0.135991
0.135941
0.135886
0.135838
0.135767
0.135488
0.13843
0.139714
0.139727
0.13966
0.139611
0.139555
0.139504
0.139451
0.139399
0.139347
0.139297
0.139246
0.139197
0.139148
0.139099
0.13905
0.139001
0.138951
0.138901
0.13885
0.1388
0.138749
0.138699
0.138648
0.138597
0.138547
0.138496
0.138445
0.138394
0.138344
0.138293
0.138242
0.138192
0.138141
0.13809
0.138039
0.137989
0.137938
0.137887
0.137836
0.137785
0.137735
0.137684
0.137633
0.137582
0.137532
0.137481
0.13743
0.137379
0.137328
0.137277
0.137227
0.137176
0.137125
0.137074
0.137023
0.136972
0.136922
0.136871
0.13682
0.136769
0.136718
0.136667
0.136616
0.136565
0.136514
0.136463
0.136413
0.136362
0.136311
0.13626
0.136209
0.136158
0.136107
0.136056
0.136005
0.135954
0.135903
0.135852
0.135801
0.13575
0.135699
0.135648
0.135597
0.135546
0.135496
0.135441
0.135394
0.135328
0.134996
0.137416
0.138883
0.138919
0.138859
0.138814
0.13876
0.13871
0.138657
0.138606
0.138555
0.138505
0.138454
0.138405
0.138356
0.138307
0.138258
0.138209
0.138159
0.138109
0.138059
0.138009
0.137959
0.137908
0.137858
0.137808
0.137757
0.137707
0.137657
0.137606
0.137556
0.137505
0.137455
0.137404
0.137354
0.137304
0.137253
0.137203
0.137152
0.137102
0.137051
0.137001
0.13695
0.1369
0.13685
0.136799
0.136749
0.136698
0.136648
0.136597
0.136547
0.136496
0.136445
0.136395
0.136344
0.136294
0.136243
0.136193
0.136142
0.136092
0.136041
0.135991
0.13594
0.135889
0.135839
0.135788
0.135738
0.135687
0.135636
0.135586
0.135535
0.135485
0.135434
0.135383
0.135333
0.135282
0.135231
0.135181
0.13513
0.135079
0.135029
0.134978
0.134927
0.134877
0.134826
0.134775
0.134725
0.134672
0.134624
0.134563
0.13421
0.138438
0.139757
0.139792
0.139736
0.139693
0.13964
0.13959
0.139537
0.139487
0.139435
0.139385
0.139334
0.139284
0.139234
0.139185
0.139135
0.139086
0.139035
0.138985
0.138935
0.138884
0.138834
0.138783
0.138732
0.138682
0.138631
0.13858
0.13853
0.138479
0.138428
0.138377
0.138327
0.138276
0.138225
0.138175
0.138124
0.138073
0.138022
0.137972
0.137921
0.13787
0.137819
0.137768
0.137718
0.137667
0.137616
0.137565
0.137514
0.137464
0.137413
0.137362
0.137311
0.13726
0.137209
0.137159
0.137108
0.137057
0.137006
0.136955
0.136904
0.136853
0.136802
0.136752
0.136701
0.13665
0.136599
0.136548
0.136497
0.136446
0.136395
0.136344
0.136293
0.136242
0.136191
0.13614
0.136089
0.136039
0.135988
0.135937
0.135886
0.135835
0.135784
0.135733
0.135682
0.13563
0.13558
0.135526
0.135478
0.135413
0.135085
0.139009
0.140288
0.140346
0.140298
0.140259
0.140207
0.140158
0.140106
0.140056
0.140004
0.139954
0.139903
0.139853
0.139802
0.139752
0.139702
0.139652
0.139601
0.139551
0.1395
0.139449
0.139398
0.139348
0.139297
0.139246
0.139195
0.139144
0.139093
0.139042
0.138991
0.13894
0.138889
0.138838
0.138788
0.138737
0.138686
0.138635
0.138584
0.138533
0.138482
0.138431
0.13838
0.138329
0.138278
0.138227
0.138176
0.138125
0.138074
0.138023
0.137972
0.137921
0.13787
0.137819
0.137768
0.137717
0.137666
0.137615
0.137563
0.137512
0.137461
0.13741
0.137359
0.137308
0.137257
0.137206
0.137155
0.137104
0.137053
0.137001
0.13695
0.136899
0.136848
0.136797
0.136746
0.136695
0.136643
0.136592
0.136541
0.13649
0.136439
0.136388
0.136336
0.136285
0.136234
0.136182
0.136132
0.136078
0.136029
0.135962
0.13569
0.159434
0.160306
0.160357
0.160308
0.160264
0.160205
0.16015
0.160091
0.160034
0.159975
0.159918
0.159859
0.159802
0.159743
0.159686
0.159628
0.15957
0.159512
0.159454
0.159396
0.159338
0.15928
0.159222
0.159164
0.159106
0.159047
0.158989
0.158931
0.158873
0.158815
0.158757
0.158698
0.15864
0.158582
0.158524
0.158466
0.158407
0.158349
0.158291
0.158233
0.158174
0.158116
0.158058
0.158
0.157941
0.157883
0.157825
0.157767
0.157708
0.15765
0.157592
0.157533
0.157475
0.157417
0.157358
0.1573
0.157242
0.157183
0.157125
0.157067
0.157008
0.15695
0.156892
0.156833
0.156775
0.156716
0.156658
0.1566
0.156541
0.156483
0.156424
0.156366
0.156307
0.156249
0.156191
0.156132
0.156074
0.156015
0.155957
0.155898
0.15584
0.155781
0.155723
0.155664
0.155606
0.155547
0.155487
0.15543
0.155339
0.155159
0.256696
0.257058
0.257012
0.25693
0.256847
0.256753
0.256665
0.25657
0.25648
0.256385
0.256294
0.256199
0.256107
0.256012
0.255919
0.255825
0.255732
0.255638
0.255545
0.255451
0.255358
0.255265
0.255172
0.255078
0.254985
0.254892
0.254799
0.254706
0.254613
0.254519
0.254426
0.254333
0.25424
0.254147
0.254053
0.25396
0.253867
0.253774
0.25368
0.253587
0.253494
0.2534
0.253307
0.253214
0.25312
0.253027
0.252934
0.25284
0.252747
0.252653
0.25256
0.252467
0.252373
0.25228
0.252186
0.252093
0.251999
0.251906
0.251812
0.251719
0.251625
0.251532
0.251438
0.251345
0.251251
0.251158
0.251064
0.250971
0.250877
0.250783
0.25069
0.250596
0.250503
0.250409
0.250315
0.250222
0.250128
0.250034
0.249941
0.249847
0.249753
0.24966
0.249566
0.249472
0.249379
0.249285
0.249192
0.249098
0.248986
0.24887
0.122472
0.122455
0.122278
0.122179
0.1221
0.122039
0.121987
0.121936
0.12189
0.121843
0.121799
0.121755
0.121714
0.121672
0.121631
0.121589
0.121547
0.121504
0.12146
0.121416
0.121372
0.121328
0.121283
0.121239
0.121194
0.12115
0.121105
0.121061
0.121017
0.120972
0.120928
0.120883
0.120839
0.120794
0.12075
0.120705
0.12066
0.120616
0.120571
0.120527
0.120482
0.120438
0.120393
0.120349
0.120304
0.12026
0.120215
0.12017
0.120126
0.120081
0.120037
0.119992
0.119947
0.119903
0.119858
0.119814
0.119769
0.119724
0.11968
0.119635
0.119591
0.119546
0.119501
0.119457
0.119412
0.119367
0.119323
0.119278
0.119233
0.119189
0.119144
0.119099
0.119054
0.11901
0.118965
0.11892
0.118876
0.118831
0.118786
0.118742
0.118697
0.118652
0.118607
0.118563
0.118518
0.118474
0.118428
0.118387
0.118331
0.118271
0.133803
0.133959
0.134054
0.133994
0.133946
0.133889
0.133839
0.133786
0.133737
0.133686
0.133638
0.13359
0.133544
0.133497
0.133451
0.133404
0.133357
0.133309
0.133262
0.133213
0.133165
0.133116
0.133067
0.133019
0.13297
0.132921
0.132872
0.132824
0.132775
0.132726
0.132677
0.132629
0.13258
0.132531
0.132482
0.132434
0.132385
0.132336
0.132287
0.132238
0.132189
0.132141
0.132092
0.132043
0.131994
0.131945
0.131896
0.131848
0.131799
0.13175
0.131701
0.131652
0.131603
0.131554
0.131505
0.131457
0.131408
0.131359
0.13131
0.131261
0.131212
0.131163
0.131114
0.131065
0.131016
0.130967
0.130918
0.130869
0.13082
0.130771
0.130722
0.130673
0.130624
0.130575
0.130526
0.130477
0.130428
0.130379
0.13033
0.130281
0.130232
0.130183
0.130134
0.130085
0.130036
0.129988
0.129935
0.12989
0.129811
0.129665
0.132797
0.133262
0.133501
0.133468
0.133442
0.13339
0.133345
0.133293
0.133245
0.133195
0.133147
0.133099
0.133052
0.133005
0.132959
0.132912
0.132865
0.132817
0.132769
0.132721
0.132672
0.132624
0.132576
0.132527
0.132478
0.13243
0.132381
0.132333
0.132284
0.132235
0.132187
0.132138
0.13209
0.132041
0.131992
0.131944
0.131895
0.131847
0.131798
0.131749
0.131701
0.131652
0.131603
0.131555
0.131506
0.131457
0.131409
0.13136
0.131311
0.131263
0.131214
0.131165
0.131116
0.131068
0.131019
0.13097
0.130921
0.130873
0.130824
0.130775
0.130726
0.130678
0.130629
0.13058
0.130531
0.130483
0.130434
0.130385
0.130336
0.130287
0.130239
0.13019
0.130141
0.130092
0.130043
0.129995
0.129946
0.129897
0.129848
0.129799
0.12975
0.129701
0.129652
0.129604
0.129554
0.129506
0.129452
0.129408
0.12933
0.129069
0.135892
0.136464
0.136607
0.136565
0.136528
0.136474
0.136426
0.136373
0.136324
0.136272
0.136223
0.136174
0.136126
0.136077
0.13603
0.135981
0.135933
0.135884
0.135835
0.135786
0.135736
0.135687
0.135637
0.135587
0.135538
0.135488
0.135438
0.135389
0.135339
0.135289
0.135239
0.13519
0.13514
0.13509
0.13504
0.134991
0.134941
0.134891
0.134841
0.134792
0.134742
0.134692
0.134642
0.134592
0.134543
0.134493
0.134443
0.134393
0.134343
0.134294
0.134244
0.134194
0.134144
0.134094
0.134044
0.133994
0.133945
0.133895
0.133845
0.133795
0.133745
0.133695
0.133645
0.133595
0.133545
0.133495
0.133446
0.133396
0.133346
0.133296
0.133246
0.133196
0.133146
0.133096
0.133046
0.132996
0.132946
0.132896
0.132846
0.132796
0.132746
0.132696
0.132646
0.132596
0.132545
0.132496
0.132443
0.132397
0.132324
0.132005
0.134907
0.135552
0.135668
0.135627
0.13559
0.135537
0.13549
0.135437
0.135389
0.135338
0.135289
0.135239
0.135192
0.135143
0.135096
0.135047
0.134999
0.13495
0.134902
0.134852
0.134803
0.134754
0.134705
0.134655
0.134606
0.134557
0.134507
0.134458
0.134409
0.134359
0.13431
0.134261
0.134211
0.134162
0.134112
0.134063
0.134014
0.133964
0.133915
0.133865
0.133816
0.133766
0.133717
0.133667
0.133618
0.133569
0.133519
0.13347
0.13342
0.133371
0.133321
0.133272
0.133222
0.133173
0.133123
0.133074
0.133024
0.132975
0.132925
0.132876
0.132826
0.132776
0.132727
0.132677
0.132628
0.132578
0.132529
0.132479
0.132429
0.13238
0.13233
0.132281
0.132231
0.132181
0.132132
0.132082
0.132033
0.131983
0.131933
0.131884
0.131834
0.131784
0.131735
0.131685
0.131635
0.131586
0.131534
0.131487
0.131428
0.131088
0.136
0.136627
0.136786
0.136755
0.136724
0.136673
0.136626
0.136574
0.136526
0.136474
0.136425
0.136375
0.136327
0.136278
0.13623
0.13618
0.136132
0.136082
0.136033
0.135984
0.135934
0.135884
0.135835
0.135785
0.135735
0.135686
0.135636
0.135586
0.135536
0.135487
0.135437
0.135387
0.135337
0.135288
0.135238
0.135188
0.135138
0.135088
0.135039
0.134989
0.134939
0.134889
0.134839
0.134789
0.13474
0.13469
0.13464
0.13459
0.13454
0.13449
0.13444
0.134391
0.134341
0.134291
0.134241
0.134191
0.134141
0.134091
0.134041
0.133991
0.133941
0.133891
0.133842
0.133792
0.133742
0.133692
0.133642
0.133592
0.133542
0.133492
0.133442
0.133392
0.133342
0.133292
0.133242
0.133192
0.133142
0.133092
0.133042
0.132992
0.132942
0.132892
0.132842
0.132792
0.132741
0.132692
0.132639
0.132592
0.132522
0.132207
0.133104
0.133681
0.133943
0.13393
0.133914
0.133868
0.133825
0.133775
0.133728
0.133678
0.133631
0.133581
0.133534
0.133485
0.133438
0.133389
0.133342
0.133293
0.133245
0.133196
0.133148
0.133099
0.133051
0.133002
0.132953
0.132904
0.132856
0.132807
0.132758
0.13271
0.132661
0.132612
0.132564
0.132515
0.132466
0.132417
0.132369
0.13232
0.132271
0.132223
0.132174
0.132125
0.132076
0.132028
0.131979
0.13193
0.131881
0.131832
0.131784
0.131735
0.131686
0.131637
0.131588
0.13154
0.131491
0.131442
0.131393
0.131344
0.131295
0.131247
0.131198
0.131149
0.1311
0.131051
0.131002
0.130953
0.130904
0.130856
0.130807
0.130758
0.130709
0.13066
0.130611
0.130562
0.130513
0.130464
0.130415
0.130366
0.130317
0.130269
0.13022
0.130171
0.130122
0.130073
0.130023
0.129975
0.129922
0.129876
0.129804
0.129551
0.134535
0.134863
0.134983
0.134951
0.134915
0.134866
0.134819
0.134769
0.134721
0.134671
0.134623
0.134573
0.134525
0.134476
0.134428
0.134379
0.134331
0.134282
0.134234
0.134185
0.134136
0.134087
0.134038
0.133989
0.13394
0.133891
0.133842
0.133793
0.133744
0.133695
0.133646
0.133597
0.133548
0.133499
0.13345
0.133401
0.133352
0.133303
0.133254
0.133205
0.133156
0.133107
0.133058
0.133009
0.132959
0.13291
0.132861
0.132812
0.132763
0.132714
0.132665
0.132616
0.132567
0.132518
0.132468
0.132419
0.13237
0.132321
0.132272
0.132223
0.132174
0.132124
0.132075
0.132026
0.131977
0.131928
0.131878
0.131829
0.13178
0.131731
0.131682
0.131632
0.131583
0.131534
0.131485
0.131436
0.131386
0.131337
0.131288
0.131239
0.131189
0.13114
0.131091
0.131042
0.130992
0.130943
0.130892
0.130845
0.130775
0.130642
0.123844
0.124109
0.123969
0.123913
0.123851
0.123801
0.123754
0.123707
0.123663
0.123617
0.123573
0.123527
0.123483
0.123437
0.123393
0.123348
0.123303
0.123258
0.123213
0.123168
0.123124
0.123079
0.123034
0.122989
0.122944
0.122899
0.122854
0.122809
0.122764
0.122719
0.122675
0.12263
0.122585
0.12254
0.122495
0.12245
0.122405
0.12236
0.122315
0.12227
0.122225
0.12218
0.122135
0.12209
0.122045
0.122
0.121955
0.12191
0.121865
0.12182
0.121775
0.12173
0.121685
0.12164
0.121595
0.12155
0.121505
0.12146
0.121415
0.12137
0.121325
0.121279
0.121234
0.121189
0.121144
0.121099
0.121054
0.121009
0.120964
0.120919
0.120874
0.120829
0.120783
0.120738
0.120693
0.120648
0.120603
0.120558
0.120513
0.120467
0.120422
0.120377
0.120332
0.120287
0.120242
0.120197
0.120154
0.120109
0.12007
0.120031
0.0538858
0.05425
0.054204
0.0541755
0.0541429
0.0541188
0.0540959
0.0540743
0.0540536
0.0540333
0.0540136
0.0539944
0.0539758
0.0539574
0.053939
0.0539204
0.0539016
0.0538825
0.0538633
0.0538438
0.0538243
0.0538047
0.0537851
0.0537655
0.0537459
0.0537262
0.0537066
0.0536869
0.0536672
0.0536476
0.0536279
0.0536083
0.0535886
0.0535689
0.0535493
0.0535296
0.0535099
0.0534902
0.0534706
0.0534509
0.0534312
0.0534115
0.0533918
0.0533722
0.0533525
0.0533328
0.0533131
0.0532934
0.0532737
0.053254
0.0532343
0.0532146
0.0531949
0.0531752
0.0531554
0.0531357
0.053116
0.0530963
0.0530766
0.0530569
0.0530371
0.0530174
0.0529977
0.0529779
0.0529582
0.0529385
0.0529187
0.052899
0.0528793
0.0528595
0.0528398
0.05282
0.0528003
0.0527805
0.0527608
0.052741
0.0527213
0.0527015
0.0526817
0.052662
0.0526422
0.0526225
0.0526027
0.0525831
0.0525631
0.0525441
0.0525237
0.0525074
0.0524781
0.0524497
0.0633226
0.0639401
0.0639635
0.0639322
0.0638863
0.0638544
0.0638257
0.0637993
0.0637749
0.0637504
0.0637273
0.063704
0.0636818
0.0636593
0.0636373
0.0636149
0.0635926
0.0635698
0.063547
0.063524
0.063501
0.0634778
0.0634547
0.0634314
0.0634083
0.063385
0.0633619
0.0633386
0.0633154
0.0632922
0.063269
0.0632458
0.0632226
0.0631993
0.0631761
0.0631529
0.0631297
0.0631064
0.0630832
0.06306
0.0630367
0.0630135
0.0629902
0.062967
0.0629437
0.0629205
0.0628972
0.062874
0.0628507
0.0628274
0.0628042
0.0627809
0.0627576
0.0627344
0.0627111
0.0626878
0.0626645
0.0626412
0.0626179
0.0625947
0.0625714
0.0625481
0.0625248
0.0625015
0.0624782
0.0624549
0.0624316
0.0624083
0.0623849
0.0623616
0.0623383
0.062315
0.0622917
0.0622684
0.062245
0.0622217
0.0621984
0.0621751
0.0621517
0.0621284
0.062105
0.0620817
0.0620584
0.0620352
0.0620119
0.0619892
0.0619669
0.0619459
0.0619212
0.0618524
0.061728
0.062738
0.062794
0.0627669
0.0627053
0.0626697
0.0626379
0.0626109
0.0625865
0.0625622
0.0625393
0.0625162
0.0624941
0.0624717
0.0624499
0.0624277
0.0624056
0.0623832
0.0623608
0.0623381
0.0623155
0.0622927
0.06227
0.0622472
0.0622244
0.0622016
0.0621788
0.062156
0.0621332
0.0621104
0.0620876
0.0620648
0.062042
0.0620192
0.0619964
0.0619736
0.0619508
0.0619279
0.0619051
0.0618823
0.0618595
0.0618366
0.0618138
0.061791
0.0617681
0.0617453
0.0617225
0.0616996
0.0616768
0.0616539
0.0616311
0.0616082
0.0615854
0.0615625
0.0615396
0.0615168
0.0614939
0.061471
0.0614482
0.0614253
0.0614024
0.0613795
0.0613567
0.0613338
0.0613109
0.061288
0.0612651
0.0612422
0.0612193
0.0611964
0.0611735
0.0611506
0.0611277
0.0611048
0.0610819
0.061059
0.0610361
0.0610132
0.0609902
0.0609673
0.0609444
0.0609215
0.0608987
0.0608758
0.0608535
0.060831
0.0608119
0.0607907
0.0607826
0.0606691
0.0636348
0.0648594
0.0648936
0.0648619
0.0647986
0.0647616
0.0647292
0.0647012
0.064676
0.0646508
0.0646272
0.0646033
0.0645804
0.0645572
0.0645347
0.0645117
0.0644889
0.0644657
0.0644425
0.064419
0.0643957
0.0643721
0.0643486
0.064325
0.0643015
0.0642779
0.0642543
0.0642307
0.0642072
0.0641836
0.06416
0.0641364
0.0641128
0.0640892
0.0640656
0.064042
0.0640184
0.0639948
0.0639712
0.0639476
0.063924
0.0639004
0.0638767
0.0638531
0.0638295
0.0638059
0.0637823
0.0637586
0.063735
0.0637114
0.0636877
0.0636641
0.0636404
0.0636168
0.0635931
0.0635695
0.0635458
0.0635222
0.0634985
0.0634749
0.0634512
0.0634275
0.0634039
0.0633802
0.0633565
0.0633328
0.0633092
0.0632855
0.0632618
0.0632381
0.0632144
0.0631907
0.063167
0.0631433
0.0631196
0.063096
0.0630722
0.0630486
0.0630248
0.0630011
0.0629774
0.0629537
0.0629301
0.0629065
0.0628833
0.0628601
0.0628402
0.0628181
0.0628069
0.0626657
0.0628101
0.0642259
0.0642316
0.0641988
0.0641334
0.0640963
0.0640638
0.0640361
0.0640112
0.0639863
0.0639629
0.0639392
0.0639165
0.0638934
0.0638709
0.063848
0.0638253
0.0638022
0.0637793
0.063756
0.0637328
0.0637095
0.0636862
0.0636629
0.0636396
0.0636162
0.0635929
0.0635696
0.0635463
0.0635229
0.0634996
0.0634762
0.0634529
0.0634295
0.0634062
0.0633828
0.0633594
0.0633361
0.0633127
0.0632893
0.063266
0.0632426
0.0632192
0.0631958
0.0631725
0.0631491
0.0631257
0.0631023
0.0630789
0.0630555
0.0630321
0.0630087
0.0629853
0.0629619
0.0629385
0.0629151
0.0628917
0.0628683
0.0628449
0.0628215
0.062798
0.0627746
0.0627512
0.0627278
0.0627043
0.0626809
0.0626575
0.062634
0.0626106
0.0625871
0.0625637
0.0625403
0.0625168
0.0624934
0.0624699
0.0624464
0.062423
0.0623995
0.0623761
0.0623526
0.0623291
0.0623057
0.0622823
0.0622589
0.0622361
0.062213
0.062194
0.0621719
0.0621674
0.0620178
0.0636845
0.0649313
0.0649689
0.0649404
0.0648793
0.0648433
0.0648114
0.0647837
0.0647588
0.0647337
0.0647101
0.0646861
0.0646632
0.0646398
0.064617
0.0645938
0.0645709
0.0645475
0.0645243
0.0645007
0.0644773
0.0644537
0.0644302
0.0644066
0.0643831
0.0643594
0.0643359
0.0643122
0.0642887
0.064265
0.0642415
0.0642178
0.0641942
0.0641706
0.064147
0.0641234
0.0640998
0.0640761
0.0640525
0.0640289
0.0640053
0.0639816
0.063958
0.0639344
0.0639107
0.0638871
0.0638634
0.0638398
0.0638161
0.0637925
0.0637688
0.0637452
0.0637215
0.0636978
0.0636742
0.0636505
0.0636268
0.0636032
0.0635795
0.0635558
0.0635321
0.0635084
0.0634847
0.0634611
0.0634374
0.0634137
0.06339
0.0633663
0.0633426
0.0633189
0.0632952
0.0632715
0.0632477
0.063224
0.0632003
0.0631766
0.0631529
0.0631292
0.0631054
0.0630817
0.063058
0.0630343
0.0630106
0.062987
0.0629639
0.0629405
0.0629208
0.0628984
0.0628876
0.0627482
0.0618738
0.062928
0.0629835
0.0629631
0.0629053
0.0628728
0.0628429
0.0628166
0.0627925
0.0627685
0.0627457
0.0627225
0.0627001
0.0626774
0.0626552
0.0626326
0.0626102
0.0625875
0.0625649
0.0625421
0.0625194
0.0624966
0.0624738
0.0624509
0.0624281
0.0624053
0.0623824
0.0623596
0.0623367
0.0623139
0.062291
0.0622682
0.0622453
0.0622225
0.0621996
0.0621767
0.0621539
0.062131
0.0621081
0.0620852
0.0620624
0.0620395
0.0620166
0.0619937
0.0619708
0.0619479
0.0619251
0.0619022
0.0618793
0.0618564
0.0618335
0.0618106
0.0617876
0.0617647
0.0617418
0.0617189
0.061696
0.0616731
0.0616502
0.0616272
0.0616043
0.0615814
0.0615584
0.0615355
0.0615126
0.0614896
0.0614667
0.0614438
0.0614208
0.0613979
0.0613749
0.061352
0.061329
0.0613061
0.0612831