/*--------------------------------*- C++ -*----------------------------------*\
  =========                 |
  \\      /  F ield         | OpenFOAM: The Open Source CFD Toolbox
   \\    /   O peration     | Website:  https://openfoam.org
    \\  /    A nd           | Version:  7
     \\/     M anipulation  |
\*---------------------------------------------------------------------------*/
FoamFile
{
    version     2.0;
    format      ascii;
    class       volVectorField;
    location    "0.5225";
    object      U_0;
}
// * * * * * * * * * * * * * * * * * * * * * * * * * * * * * * * * * * * * * //

dimensions      [0 1 -1 0 0 0 0];

internalField   nonuniform List<vector> 
4950
(
(3.51834 0.421078 -27.0134)
(2.82131 0.152507 -27.0431)
(2.07724 0.0473626 -27.046)
(1.87749 -0.021048 -27.0556)
(1.60703 -0.0423021 -27.0571)
(1.59912 -0.0494001 -27.0658)
(1.45146 -0.0506252 -27.0681)
(1.4857 -0.0496975 -27.0747)
(1.3816 -0.0484371 -27.075)
(1.42427 -0.047203 -27.0783)
(1.3445 -0.0455053 -27.0765)
(1.38804 -0.0454071 -27.0773)
(1.32557 -0.0421575 -27.0742)
(1.36785 -0.0448856 -27.0733)
(1.31759 -0.0354612 -27.07)
(1.35838 -0.0457082 -27.0685)
(1.3155 -0.0139286 -27.0666)
(1.34508 -0.0446182 -27.0644)
(1.33591 0.0915405 -27.067)
(1.13015 0.132279 -27.0528)
(4.60694 0.548849 -27.0359)
(4.81457 0.379748 -27.0551)
(4.53674 0.291942 -27.0565)
(4.4956 0.192999 -27.0665)
(4.21506 0.136253 -27.0708)
(4.19721 0.10441 -27.084)
(3.98425 0.0845511 -27.0965)
(3.99725 0.0730543 -27.1135)
(3.83564 0.0643639 -27.1243)
(3.86543 0.0588178 -27.1335)
(3.74023 0.0533803 -27.1363)
(3.77881 0.0508582 -27.1376)
(3.67976 0.0453975 -27.1344)
(3.72438 0.0469396 -27.1293)
(3.64174 0.0359851 -27.1222)
(3.6981 0.046153 -27.1124)
(3.61711 0.0160731 -27.107)
(3.71972 0.0371128 -27.0933)
(3.59533 -0.0170817 -27.0993)
(3.95651 -0.0657261 -27.0609)
(4.72584 0.288809 -27.0374)
(5.22401 0.212423 -27.0507)
(5.35333 0.191844 -27.045)
(5.61416 0.132153 -27.0524)
(5.57786 0.0951553 -27.0505)
(5.71739 0.0694217 -27.0585)
(5.64672 0.0507785 -27.0663)
(5.74275 0.037758 -27.0869)
(5.67258 0.0277255 -27.1045)
(5.74674 0.0195926 -27.124)
(5.68394 0.0138731 -27.1336)
(5.7432 0.00763686 -27.1421)
(5.69108 0.00524197 -27.1446)
(5.73714 -0.000765323 -27.1462)
(5.7007 0.00144416 -27.1433)
(5.72484 -0.00679063 -27.1339)
(5.71707 0.00555834 -27.1231)
(5.68761 -0.00666943 -27.1024)
(5.72831 0.0341827 -27.0923)
(5.58867 0.0582899 -27.0518)
(4.7039 0.169246 -27.0462)
(5.14128 0.131686 -27.0596)
(5.37 0.124872 -27.0558)
(5.73271 0.095551 -27.0613)
(5.82028 0.0770558 -27.0595)
(6.06394 0.0648884 -27.0633)
(6.09987 0.0559748 -27.0689)
(6.27876 0.0500494 -27.0862)
(6.29514 0.0448948 -27.106)
(6.43445 0.0409962 -27.1275)
(6.44014 0.0371593 -27.1416)
(6.5524 0.0344184 -27.1513)
(6.55004 0.0307578 -27.1568)
(6.64664 0.0297403 -27.1611)
(6.6355 0.0242911 -27.1646)
(6.73006 0.0266529 -27.1614)
(6.70167 0.014574 -27.1548)
(6.82165 0.0203127 -27.1362)
(6.76354 0.00301352 -27.1178)
(6.99845 -0.0097855 -27.0734)
(4.7053 -1.22378e-07 -27.0413)
(5.13748 -2.56759e-07 -27.0533)
(5.37584 -3.59868e-07 -27.0466)
(5.75342 -1.11556e-07 -27.0525)
(5.85583 -3.41327e-07 -27.0484)
(6.11571 5.14684e-08 -27.0524)
(6.17127 -1.2592e-07 -27.0553)
(6.36958 8.34632e-07 -27.0727)
(6.40956 1.59731e-06 -27.0909)
(6.56862 3.4405e-06 -27.1138)
(6.59976 6.67147e-06 -27.1275)
(6.72748 1.26323e-05 -27.1385)
(6.75371 1.55019e-05 -27.1432)
(6.85366 5.23366e-05 -27.1488)
(6.88324 1.86895e-05 -27.1532)
(6.94785 0.000201584 -27.1537)
(6.99556 -4.34825e-06 -27.1485)
(6.99321 0.000574547 -27.1334)
(7.07298 0.000109683 -27.1127)
(6.96737 0.000847792 -27.0692)
(4.7039 -0.169246 -27.0462)
(5.14128 -0.131687 -27.0596)
(5.37 -0.124872 -27.0558)
(5.73271 -0.0955517 -27.0613)
(5.82028 -0.0770565 -27.0595)
(6.06394 -0.0648888 -27.0633)
(6.09987 -0.0559748 -27.0689)
(6.27876 -0.0500487 -27.0862)
(6.29513 -0.0448912 -27.106)
(6.43445 -0.0409923 -27.1275)
(6.44014 -0.0371451 -27.1416)
(6.55243 -0.0344048 -27.1514)
(6.55005 -0.0307205 -27.1567)
(6.6467 -0.029688 -27.1612)
(6.63554 -0.0242129 -27.1644)
(6.73019 -0.0264582 -27.1618)
(6.70186 -0.0144083 -27.1543)
(6.82194 -0.0197647 -27.1368)
(6.76404 -0.00236176 -27.1171)
(6.99923 0.0111499 -27.0741)
(4.72584 -0.288809 -27.0374)
(5.22401 -0.212423 -27.0507)
(5.35333 -0.191845 -27.045)
(5.61416 -0.132154 -27.0524)
(5.57786 -0.095156 -27.0505)
(5.71739 -0.0694217 -27.0585)
(5.64672 -0.0507788 -27.0662)
(5.74275 -0.0377568 -27.0869)
(5.67258 -0.0277232 -27.1045)
(5.74675 -0.0195879 -27.124)
(5.68394 -0.0138636 -27.1336)
(5.74325 -0.00762027 -27.1423)
(5.69108 -0.00522156 -27.1443)
(5.73728 0.000835487 -27.1466)
(5.70073 -0.00143075 -27.1426)
(5.72522 0.0070644 -27.135)
(5.71727 -0.00560672 -27.1214)
(5.6885 0.00741568 -27.105)
(5.72922 -0.0341405 -27.0886)
(5.59105 -0.0567446 -27.0567)
(4.60694 -0.548849 -27.0359)
(4.81457 -0.379749 -27.0551)
(4.53674 -0.291943 -27.0565)
(4.4956 -0.193 -27.0665)
(4.21506 -0.136253 -27.0708)
(4.19721 -0.104411 -27.084)
(3.98425 -0.0845512 -27.0965)
(3.99725 -0.0730546 -27.1135)
(3.83564 -0.064362 -27.1242)
(3.86545 -0.0588172 -27.1335)
(3.74024 -0.0533725 -27.1363)
(3.77886 -0.0508546 -27.1377)
(3.6798 -0.0453764 -27.1342)
(3.72452 -0.0469207 -27.1296)
(3.6419 -0.035939 -27.1216)
(3.6984 -0.0460689 -27.1137)
(3.61769 -0.0159716 -27.1046)
(3.72039 -0.0368595 -27.098)
(3.59679 0.017406 -27.0903)
(3.95864 0.0658941 -27.0768)
(3.51834 -0.421079 -27.0134)
(2.82131 -0.152508 -27.0431)
(2.07723 -0.0473632 -27.046)
(1.87749 0.0210475 -27.0556)
(1.60703 0.0423014 -27.0571)
(1.59912 0.0493995 -27.0658)
(1.45146 0.0506243 -27.0681)
(1.4857 0.0496972 -27.0747)
(1.3816 0.0484361 -27.075)
(1.42428 0.0472034 -27.0783)
(1.34451 0.0455035 -27.0765)
(1.38808 0.0454084 -27.0773)
(1.32559 0.042152 -27.0741)
(1.36793 0.044888 -27.0734)
(1.31768 0.035442 -27.0699)
(1.35856 0.0457089 -27.0688)
(1.31587 0.0138848 -27.066)
(1.34549 0.0446707 -27.0658)
(1.33699 -0.0914992 -27.0636)
(1.13191 -0.131448 -27.0632)
(4.50396 0.192798 0.00549437)
(3.75393 0.281981 0.00386929)
(3.16433 0.244251 0.00466566)
(2.59265 0.167756 0.00361884)
(2.33071 0.117462 0.00438668)
(2.06148 0.0838866 0.00355842)
(1.99212 0.0680157 0.00424255)
(1.85884 0.0592505 0.00353548)
(1.85115 0.0553911 0.00411878)
(1.77214 0.0533806 0.00350506)
(1.78146 0.0516853 0.00399744)
(1.73063 0.0517887 0.00346434)
(1.74582 0.0488069 0.00387873)
(1.71322 0.052119 0.00341653)
(1.73062 0.0424006 0.00376689)
(1.71276 0.0561702 0.00336711)
(1.72559 0.0153736 0.00366831)
(1.75814 0.064383 0.00331622)
(1.69408 -0.118331 0.00361424)
(2.14787 -0.162187 0.00319782)
(4.64 0.10959 0.00361179)
(4.6887 0.234374 0.00229918)
(4.84524 0.214935 0.00305268)
(4.72866 0.162718 0.002018)
(4.71843 0.107665 0.00277783)
(4.56444 0.0639101 0.00194652)
(4.53334 0.0344811 0.0026269)
(4.4087 0.0156858 0.00191831)
(4.3872 0.00341758 0.00250015)
(4.29383 -0.00452414 0.00188546)
(4.28155 -0.0101547 0.00237727)
(4.21242 -0.0152461 0.00184382)
(4.20816 -0.0166177 0.00225594)
(4.15554 -0.0229337 0.00179478)
(4.16202 -0.0169127 0.0021381)
(4.11242 -0.0306036 0.00174555)
(4.14654 -0.00835484 0.00202326)
(4.05681 -0.028449 0.00169098)
(4.1793 0.000488361 0.00188529)
(3.80302 0.0690729 0.00150885)
(4.57125 0.0614825 0.00491638)
(4.7447 0.186871 0.00369419)
(5.09427 0.218707 0.00441556)
(5.22603 0.196946 0.00336933)
(5.43565 0.167113 0.004118)
(5.4717 0.135993 0.00328147)
(5.58196 0.114253 0.00396333)
(5.579 0.097581 0.00325663)
(5.64483 0.0857898 0.00384321)
(5.63264 0.0769691 0.00323121)
(5.67629 0.0691701 0.00372806)
(5.66472 0.0638185 0.00319598)
(5.69409 0.0569909 0.00361437)
(5.68935 0.0546919 0.00315007)
(5.70357 0.0456016 0.00350429)
(5.71761 0.0484118 0.00309834)
(5.70257 0.0245107 0.00341262)
(5.7687 0.0393471 0.00304855)
(5.70752 -0.0400341 0.00339556)
(5.86551 -0.0478414 0.00300613)
(4.52886 0.0290729 0.00344491)
(4.60714 0.0722936 0.00234031)
(4.97844 0.0767668 0.00305045)
(5.16405 0.0693583 0.00202533)
(5.45684 0.0567135 0.00276913)
(5.57949 0.0442637 0.00193188)
(5.77439 0.0348785 0.00260747)
(5.85309 0.0279527 0.00189705)
(5.99242 0.0229192 0.00247795)
(6.04971 0.0191256 0.00186415)
(6.15588 0.0159897 0.0023576)
(6.19959 0.0130191 0.00182708)
(6.28459 0.0111435 0.00224151)
(6.31591 0.00781876 0.00178235)
(6.39011 0.00824031 0.00212448)
(6.39995 0.00313039 0.00173168)
(6.47898 0.00698739 0.00200188)
(6.42436 0.00268652 0.0016688)
(6.54198 0.00243358 0.00182474)
(6.26492 0.0286967 0.00150561)
(4.56105 -3.48189e-09 0.00482744)
(4.69088 1.19837e-07 0.00372389)
(5.03454 1.6276e-07 0.00442314)
(5.21097 2.91546e-07 0.00338249)
(5.49568 2.78445e-07 0.00412264)
(5.62211 3.43256e-07 0.00328184)
(5.8243 6.6626e-07 0.00396081)
(5.91493 9.49397e-07 0.00325206)
(6.06735 2.3313e-06 0.00383777)
(6.14112 2.89845e-06 0.00322557)
(6.26185 6.09629e-06 0.0037233)
(6.32575 8.4402e-06 0.00319249)
(6.42159 1.5131e-05 0.00361257)
(6.48123 2.27836e-05 0.00314932)
(6.55148 4.38424e-05 0.00350542)
(6.61807 4.82129e-05 0.00309918)
(6.65077 0.000136087 0.00341933)
(6.74532 0.000120577 0.00305194)
(6.7435 0.00042114 0.00341726)
(6.85066 0.00063999 0.0030346)
(4.52886 -0.029073 0.00344491)
(4.60714 -0.0722934 0.00234031)
(4.97844 -0.0767666 0.00305045)
(5.16405 -0.0693576 0.00202533)
(5.45684 -0.0567134 0.00276912)
(5.57949 -0.0442627 0.00193188)
(5.77439 -0.034878 0.00260747)
(5.85309 -0.0279497 0.00189706)
(5.99242 -0.0229161 0.00247795)
(6.04971 -0.0191166 0.00186415)
(6.15588 -0.0159817 0.0023576)
(6.1996 -0.0129903 0.00182708)
(6.28459 -0.0111281 0.0022415)
(6.31596 -0.0077249 0.00178236)
(6.39012 -0.00821082 0.00212445)
(6.40007 -0.00283884 0.0017317)
(6.47906 -0.00692542 0.00200181)
(6.42468 -0.00185444 0.00166878)
(6.54241 -0.00222947 0.00182486)
(6.26587 -0.0268727 0.00150549)
(4.57125 -0.0614825 0.00491638)
(4.7447 -0.186871 0.00369419)
(5.09427 -0.218707 0.00441556)
(5.22603 -0.196945 0.00336933)
(5.43565 -0.167112 0.00411799)
(5.4717 -0.135992 0.00328147)
(5.58196 -0.114252 0.00396332)
(5.57901 -0.0975794 0.00325663)
(5.64483 -0.0857855 0.00384321)
(5.63265 -0.0769642 0.00323121)
(5.67629 -0.0691586 0.00372805)
(5.66475 -0.0638033 0.003196)
(5.6941 -0.0569621 0.00361434)
(5.68945 -0.0546441 0.00315012)
(5.70364 -0.0455196 0.00350419)
(5.71787 -0.0482809 0.00309849)
(5.70283 -0.0242494 0.00341242)
(5.76934 -0.0390178 0.00304887)
(5.70833 0.0408366 0.00339546)
(5.86717 0.0486939 0.00300638)
(4.64 -0.10959 0.00361179)
(4.6887 -0.234374 0.00229918)
(4.84523 -0.214935 0.00305267)
(4.72866 -0.162717 0.002018)
(4.71843 -0.107665 0.00277783)
(4.56444 -0.0639094 0.00194652)
(4.53334 -0.0344808 0.0026269)
(4.4087 -0.0156841 0.00191832)
(4.3872 -0.00341587 0.00250015)
(4.29385 0.00452842 0.00188546)
(4.28156 0.0101594 0.00237726)
(4.21248 0.0152591 0.00184383)
(4.20818 0.0166269 0.00225592)
(4.15569 0.0229759 0.0017948)
(4.16208 0.0169238 0.00213801)
(4.11289 0.030739 0.00174565)
(4.14663 0.00833464 0.00202298)
(4.05836 0.0288723 0.00169123)
(4.1795 -0.000482117 0.00188447)
(3.80792 -0.0677116 0.00150927)
(4.50396 -0.192798 0.00549431)
(3.75393 -0.281981 0.00386924)
(3.16433 -0.244251 0.00466561)
(2.59265 -0.167756 0.00361879)
(2.33071 -0.117462 0.00438662)
(2.06148 -0.0838867 0.00355836)
(1.99212 -0.0680152 0.0042425)
(1.85884 -0.0592508 0.00353543)
(1.85115 -0.0553898 0.00411872)
(1.77216 -0.0533808 0.00350501)
(1.78148 -0.0516816 0.00399738)
(1.73067 -0.0517885 0.00346429)
(1.74586 -0.048797 0.00387865)
(1.71331 -0.052115 0.00341651)
(1.73077 -0.0423723 0.00376676)
(1.71297 -0.0561511 0.00336718)
(1.72609 -0.0152929 0.00366808)
(1.75866 -0.0643718 0.00331664)
(1.69524 0.118405 0.00361267)
(2.15013 0.161361 0.00320131)
(4.4622 0.066156 5.57934e-10)
(4.24635 0.12231 -7.19533e-11)
(3.88391 0.134062 4.60102e-10)
(3.53459 0.119811 5.07171e-10)
(3.18722 0.0952544 3.31956e-10)
(2.90407 0.0709706 -3.35357e-10)
(2.66663 0.0475507 -5.56427e-10)
(2.49026 0.0299505 -5.78534e-10)
(2.35905 0.0153525 -8.09692e-11)
(2.2649 0.00602444 4.29435e-11)
(2.20513 -0.00214853 2.62753e-10)
(2.16405 -0.00620512 4.7367e-10)
(2.14798 -0.0109307 1.19932e-09)
(2.13896 -0.0104891 1.86305e-09)
(2.14203 -0.0140862 2.35817e-09)
(2.15368 -0.00872725 2.29788e-09)
(2.1519 -0.0162323 2.20698e-09)
(2.19988 -0.00623914 1.80943e-09)
(2.15678 -0.0253737 1.61289e-09)
(2.29929 -0.044608 1.16256e-09)
(4.52019 0.0582828 -6.2869e-10)
(4.66772 0.112726 -6.06762e-11)
(4.77489 0.145706 7.08357e-10)
(4.8716 0.15728 1.0707e-09)
(4.90601 0.154236 1.11623e-09)
(4.92204 0.139815 6.83661e-10)
(4.90627 0.1215 5.44678e-10)
(4.88224 0.101175 6.55092e-10)
(4.84927 0.0839992 9.09294e-10)
(4.81301 0.0680019 7.73965e-10)
(4.7801 0.0558343 5.37281e-10)
(4.74519 0.0444796 2.46494e-10)
(4.71991 0.036982 5.03611e-10)
(4.69192 0.0298937 1.05644e-09)
(4.67769 0.0257017 1.86291e-09)
(4.65902 0.0223909 2.18753e-09)
(4.6585 0.0163415 2.18796e-09)
(4.65227 0.0221836 1.90575e-09)
(4.66 0.00522114 1.26409e-09)
(4.66899 0.0353295 1.39638e-09)
(4.50993 0.0220091 -9.59047e-10)
(4.64455 0.0567208 -8.53652e-10)
(4.77717 0.0838901 -3.74671e-10)
(4.95723 0.0984558 -5.78865e-10)
(5.11248 0.101885 -1.20369e-09)
(5.27047 0.0979431 -1.58457e-09)
(5.39815 0.0884408 -8.87432e-10)
(5.5117 0.0780245 2.45874e-10)
(5.60221 0.0670983 1.12207e-09)
(5.67754 0.0579359 1.03978e-09)
(5.73915 0.0487747 2.86217e-10)
(5.78918 0.0417745 -8.42659e-10)
(5.83129 0.0341904 -1.41585e-09)
(5.86762 0.0303141 -1.31002e-09)
(5.89711 0.0233397 -5.21354e-10)
(5.92766 0.0236485 -1.51763e-10)
(5.94935 0.0119062 -2.79435e-10)
(5.976 0.019072 -1.0149e-09)
(6.00205 -0.00517376 -1.92985e-09)
(6.01285 0.00294962 -1.5389e-09)
(4.50834 0.0176349 -9.579e-10)
(4.61868 0.0345811 -9.07377e-10)
(4.7385 0.0463359 -6.44585e-10)
(4.91349 0.0522624 -9.37759e-10)
(5.07759 0.0543528 -1.40154e-09)
(5.25639 0.0527284 -1.5744e-09)
(5.41461 0.0492811 -9.58699e-10)
(5.56565 0.0444972 -1.23835e-10)
(5.69849 0.0400626 4.57169e-10)
(5.81797 0.0356043 2.31386e-10)
(5.92653 0.0318698 -3.85883e-10)
(6.02019 0.0282701 -1.08544e-09)
(6.11006 0.025269 -1.21384e-09)
(6.1832 0.0228306 -9.433e-10)
(6.26171 0.0201707 -3.92412e-10)
(6.31537 0.0195716 -3.18915e-10)
(6.39257 0.014702 -8.10779e-10)
(6.41466 0.0192544 -1.63847e-09)
(6.50944 0.00784968 -2.56582e-09)
(6.469 0.0240875 -2.52781e-09)
(4.50901 -6.26594e-08 -9.0377e-10)
(4.63109 6.11626e-08 -9.19408e-10)
(4.75199 -2.78401e-08 -7.66933e-10)
(4.92602 1.95652e-07 -1.02412e-09)
(5.08628 5.03977e-08 -1.19575e-09)
(5.26338 3.59847e-07 -1.04512e-09)
(5.42177 4.26033e-07 -5.12636e-10)
(5.57593 1.12257e-06 -2.74368e-10)
(5.71324 1.74267e-06 -4.14472e-10)
(5.83966 3.92512e-06 -9.8408e-10)
(5.95505 4.33934e-06 -1.29587e-09)
(6.05884 1.37581e-05 -1.30895e-09)
(6.15637 8.32107e-06 -9.33112e-10)
(6.24298 4.43576e-05 -7.36393e-10)
(6.32752 2.02869e-05 -8.12858e-10)
(6.39843 0.000120582 -1.27444e-09)
(6.47812 7.31201e-05 -1.77233e-09)
(6.52191 0.000289534 -2.0713e-09)
(6.62451 0.000297633 -1.61986e-09)
(6.60653 0.000598466 -1.45739e-09)
(4.50834 -0.0176351 -8.54177e-10)
(4.61868 -0.034581 -9.38878e-10)
(4.7385 -0.0463361 -9.02128e-10)
(4.91349 -0.052262 -1.09076e-09)
(5.07759 -0.0543529 -9.47959e-10)
(5.25639 -0.0527275 -5.07853e-10)
(5.41461 -0.0492806 -1.60225e-10)
(5.56565 -0.0444947 -5.99913e-10)
(5.69849 -0.0400598 -1.47272e-09)
(5.81798 -0.035596 -2.28753e-09)
(5.92653 -0.0318629 -2.18377e-09)
(6.02019 -0.0282414 -1.46703e-09)
(6.11007 -0.0252574 -6.73633e-10)
(6.18321 -0.0227368 -6.60719e-10)
(6.26175 -0.0201483 -1.43049e-09)
(6.31541 -0.0193089 -2.3205e-09)
(6.3927 -0.0146156 -2.6522e-09)
(6.41478 -0.0186168 -2.1812e-09)
(6.50979 -0.00741512 -9.23551e-10)
(6.46939 -0.0227911 -3.71992e-10)
(4.50993 -0.0220092 -8.46597e-10)
(4.64455 -0.0567207 -1.02817e-09)
(4.77717 -0.0838902 -1.18271e-09)
(4.95723 -0.0984554 -1.3674e-09)
(5.11247 -0.101885 -9.84705e-10)
(5.27047 -0.0979423 -4.31606e-10)
(5.39815 -0.0884402 -4.20075e-10)
(5.51171 -0.0780223 -1.36991e-09)
(5.60221 -0.0670953 -2.4531e-09)
(5.67755 -0.057929 -3.07691e-09)
(5.73914 -0.0487669 -2.49954e-09)
(5.78921 -0.0417508 -1.33976e-09)
(5.83129 -0.034176 -3.87382e-10)
(5.8677 -0.0302366 -5.28943e-10)
(5.89716 -0.0233081 -1.65252e-09)
(5.92783 -0.0234376 -2.52972e-09)
(5.94957 -0.0117935 -2.80982e-09)
(5.97644 -0.0185702 -2.11727e-09)
(6.00279 0.0056501 -1.06946e-09)
(6.01398 -0.00194382 -1.47027e-09)
(4.52019 -0.0582829 -1.19237e-09)
(4.66772 -0.112726 -1.91157e-09)
(4.77489 -0.145706 -2.37264e-09)
(4.87161 -0.15728 -2.95203e-09)
(4.90601 -0.154236 -3.10492e-09)
(4.92204 -0.139814 -2.66776e-09)
(4.90627 -0.1215 -2.19099e-09)
(4.88225 -0.101173 -2.28051e-09)
(4.84926 -0.0839972 -2.55416e-09)
(4.81304 -0.0679969 -2.73664e-09)
(4.78009 -0.055829 -2.40944e-09)
(4.74526 -0.0444628 -2.15999e-09)
(4.7199 -0.0369737 -2.30187e-09)
(4.6921 -0.0298364 -3.1422e-09)
(4.67772 -0.0256922 -4.24471e-09)
(4.65949 -0.0222234 -4.84866e-09)
(4.65863 -0.016312 -5.0425e-09)
(4.6535 -0.0217748 -4.45613e-09)
(4.66051 -0.00500518 -4.32112e-09)
(4.67206 -0.0344798 -4.32879e-09)
(4.4622 -0.0661561 -1.32677e-09)
(4.24635 -0.12231 -1.0317e-09)
(3.88391 -0.134062 -1.22027e-09)
(3.53459 -0.119811 -1.42697e-09)
(3.18722 -0.0952542 -1.19346e-09)
(2.90407 -0.0709707 -3.50218e-10)
(2.66663 -0.0475501 2.14276e-10)
(2.49027 -0.0299505 1.95024e-10)
(2.35905 -0.0153509 -3.21441e-10)
(2.26492 -0.00602417 -7.67313e-10)
(2.20514 0.00215237 -1.02602e-09)
(2.1641 0.00620705 -1.46144e-09)
(2.14803 0.0109388 -2.11974e-09)
(2.13909 0.0104981 -2.93335e-09)
(2.14219 0.0141045 -3.47116e-09)
(2.15399 0.0087537 -3.57975e-09)
(2.15236 0.0162873 -3.3828e-09)
(2.20094 0.0062931 -2.88318e-09)
(2.15727 0.0255346 -2.74233e-09)
(2.30384 0.0445773 -2.0235e-09)
(4.50396 0.192798 -0.0054943)
(3.75393 0.281981 -0.00386924)
(3.16433 0.244251 -0.00466561)
(2.59265 0.167756 -0.00361879)
(2.33071 0.117462 -0.00438663)
(2.06148 0.0838866 -0.00355837)
(1.99212 0.0680157 -0.0042425)
(1.85884 0.0592505 -0.00353543)
(1.85115 0.0553911 -0.00411873)
(1.77214 0.0533806 -0.003505)
(1.78146 0.0516853 -0.00399739)
(1.73063 0.0517888 -0.00346428)
(1.74582 0.048807 -0.00387868)
(1.71322 0.0521191 -0.00341647)
(1.73062 0.0424007 -0.00376683)
(1.71276 0.0561703 -0.00336705)
(1.72559 0.0153738 -0.00366825)
(1.75814 0.0643831 -0.00331616)
(1.69408 -0.118331 -0.00361417)
(2.14787 -0.162187 -0.00319776)
(4.64 0.10959 -0.00361178)
(4.6887 0.234374 -0.00229918)
(4.84524 0.214935 -0.00305268)
(4.72866 0.162718 -0.00201801)
(4.71843 0.107665 -0.00277783)
(4.56444 0.06391 -0.00194653)
(4.53334 0.0344811 -0.0026269)
(4.4087 0.0156857 -0.00191832)
(4.3872 0.00341747 -0.00250015)
(4.29383 -0.00452427 -0.00188547)
(4.28155 -0.0101548 -0.00237727)
(4.21242 -0.0152464 -0.00184383)
(4.20816 -0.016618 -0.00225594)
(4.15554 -0.0229341 -0.00179478)
(4.16202 -0.0169133 -0.0021381)
(4.11242 -0.0306041 -0.00174555)
(4.14654 -0.00835532 -0.00202326)
(4.05681 -0.0284494 -0.00169098)
(4.1793 0.00048797 -0.00188529)
(3.80302 0.0690726 -0.00150885)
(4.57125 0.0614825 -0.00491638)
(4.7447 0.186871 -0.00369419)
(5.09427 0.218707 -0.00441557)
(5.22603 0.196946 -0.00336933)
(5.43565 0.167113 -0.004118)
(5.4717 0.135993 -0.00328148)
(5.58196 0.114253 -0.00396333)
(5.579 0.0975807 -0.00325663)
(5.64483 0.0857895 -0.00384322)
(5.63264 0.0769687 -0.00323121)
(5.67629 0.0691698 -0.00372806)
(5.66472 0.0638182 -0.00319599)
(5.69409 0.0569906 -0.00361437)
(5.68935 0.0546917 -0.00315007)
(5.70357 0.0456014 -0.00350429)
(5.71762 0.0484116 -0.00309834)
(5.70257 0.0245105 -0.00341262)
(5.7687 0.0393469 -0.00304854)
(5.70752 -0.0400343 -0.00339555)
(5.86551 -0.0478417 -0.00300613)
(4.52886 0.0290729 -0.00344491)
(4.60714 0.0722935 -0.00234032)
(4.97844 0.0767665 -0.00305045)
(5.16405 0.0693581 -0.00202533)
(5.45684 0.0567134 -0.00276913)
(5.57949 0.0442637 -0.00193189)
(5.77439 0.0348785 -0.00260747)
(5.85309 0.0279525 -0.00189706)
(5.99242 0.0229187 -0.00247795)
(6.04971 0.0191251 -0.00186415)
(6.15588 0.0159891 -0.0023576)
(6.19959 0.0130186 -0.00182708)
(6.28459 0.0111431 -0.00224152)
(6.31591 0.0078183 -0.00178235)
(6.39011 0.00823979 -0.00212448)
(6.39995 0.00312986 -0.00173168)
(6.47898 0.0069869 -0.00200188)
(6.42436 0.00268615 -0.0016688)
(6.54198 0.00243347 -0.00182474)
(6.26492 0.0286966 -0.00150561)
(4.56105 -9.02037e-08 -0.00482743)
(4.69088 -6.31391e-08 -0.0037239)
(5.03454 -9.86371e-08 -0.00442314)
(5.21097 9.74035e-09 -0.00338249)
(5.49568 3.971e-08 -0.00412264)
(5.62211 1.81702e-07 -0.00328184)
(5.8243 4.75621e-07 -0.00396082)
(5.91493 6.14666e-07 -0.00325206)
(6.06735 1.82974e-06 -0.00383777)
(6.14112 2.32209e-06 -0.00322558)
(6.26185 5.5739e-06 -0.00372331)
(6.32575 8.06672e-06 -0.00319249)
(6.42159 1.49022e-05 -0.00361257)
(6.48123 2.26447e-05 -0.00314932)
(6.55148 4.36811e-05 -0.00350542)
(6.61807 4.80704e-05 -0.00309918)
(6.65077 0.000135949 -0.00341933)
(6.74532 0.000120528 -0.00305194)
(6.7435 0.000421204 -0.00341726)
(6.85066 0.000640067 -0.00303461)
(4.52886 -0.0290731 -0.00344491)
(4.60714 -0.0722935 -0.00234032)
(4.97844 -0.0767669 -0.00305045)
(5.16405 -0.0693579 -0.00202533)
(5.45684 -0.0567136 -0.00276913)
(5.57949 -0.0442627 -0.00193189)
(5.77439 -0.0348781 -0.00260747)
(5.85309 -0.0279499 -0.00189706)
(5.99242 -0.0229166 -0.00247795)
(6.04971 -0.0191171 -0.00186415)
(6.15588 -0.0159823 -0.0023576)
(6.1996 -0.0129908 -0.00182708)
(6.28459 -0.0111285 -0.0022415)
(6.31596 -0.00772535 -0.00178236)
(6.39012 -0.00821134 -0.00212445)
(6.40007 -0.00283935 -0.0017317)
(6.47905 -0.0069259 -0.00200181)
(6.42468 -0.00185477 -0.00166878)
(6.54241 -0.00222958 -0.00182486)
(6.26587 -0.0268727 -0.00150549)
(4.57125 -0.0614826 -0.00491638)
(4.7447 -0.186871 -0.0036942)
(5.09427 -0.218707 -0.00441557)
(5.22603 -0.196946 -0.00336933)
(5.43565 -0.167113 -0.004118)
(5.4717 -0.135992 -0.00328148)
(5.58196 -0.114252 -0.00396333)
(5.57901 -0.0975797 -0.00325663)
(5.64483 -0.0857859 -0.00384321)
(5.63265 -0.0769646 -0.00323122)
(5.67629 -0.069159 -0.00372805)
(5.66475 -0.0638035 -0.003196)
(5.6941 -0.0569623 -0.00361434)
(5.68945 -0.0546443 -0.00315012)
(5.70363 -0.0455198 -0.00350419)
(5.71787 -0.0482811 -0.00309849)
(5.70283 -0.0242496 -0.00341243)
(5.76934 -0.039018 -0.00304887)
(5.70833 0.0408365 -0.00339547)
(5.86717 0.0486936 -0.00300639)
(4.64 -0.109591 -0.00361178)
(4.6887 -0.234374 -0.00229918)
(4.84523 -0.214935 -0.00305268)
(4.72866 -0.162717 -0.00201801)
(4.71843 -0.107665 -0.00277783)
(4.56444 -0.0639095 -0.00194653)
(4.53334 -0.0344808 -0.0026269)
(4.4087 -0.0156842 -0.00191832)
(4.3872 -0.00341596 -0.00250015)
(4.29385 0.00452831 -0.00188547)
(4.28156 0.0101593 -0.00237726)
(4.21248 0.0152588 -0.00184383)
(4.20818 0.0166265 -0.00225592)
(4.15569 0.0229754 -0.0017948)
(4.16208 0.0169233 -0.00213802)
(4.11289 0.0307385 -0.00174566)
(4.14663 0.00833415 -0.00202299)
(4.05835 0.0288719 -0.00169124)
(4.1795 -0.000482524 -0.00188448)
(3.80792 -0.0677119 -0.00150928)
(4.50396 -0.192798 -0.00549436)
(3.75393 -0.281981 -0.00386929)
(3.16433 -0.244251 -0.00466566)
(2.59265 -0.167756 -0.00361884)
(2.33071 -0.117462 -0.00438668)
(2.06148 -0.0838867 -0.00355842)
(1.99212 -0.0680152 -0.00424255)
(1.85884 -0.0592508 -0.00353548)
(1.85115 -0.0553898 -0.00411877)
(1.77216 -0.0533808 -0.00350506)
(1.78148 -0.0516816 -0.00399743)
(1.73067 -0.0517885 -0.00346435)
(1.74586 -0.0487969 -0.00387871)
(1.71331 -0.0521149 -0.00341656)
(1.73077 -0.0423721 -0.00376681)
(1.71297 -0.0561509 -0.00336724)
(1.72608 -0.0152928 -0.00366814)
(1.75866 -0.0643717 -0.0033167)
(1.69524 0.118406 -0.00361273)
(2.15013 0.161362 -0.00320137)
(3.51834 0.421079 27.0134)
(2.82131 0.152508 27.0431)
(2.07723 0.0473632 27.046)
(1.87749 -0.0210474 27.0556)
(1.60703 -0.0423014 27.0571)
(1.59912 -0.0493993 27.0658)
(1.45146 -0.0506244 27.0681)
(1.4857 -0.0496968 27.0747)
(1.3816 -0.0484365 27.075)
(1.42427 -0.0472025 27.0783)
(1.3445 -0.0455048 27.0765)
(1.38805 -0.0454067 27.0773)
(1.32557 -0.0421573 27.0742)
(1.36785 -0.0448854 27.0733)
(1.3176 -0.035461 27.07)
(1.35838 -0.0457081 27.0685)
(1.3155 -0.0139284 27.0666)
(1.34508 -0.0446178 27.0644)
(1.33591 0.091541 27.067)
(1.13014 0.13228 27.0528)
(4.60694 0.548849 27.0359)
(4.81457 0.379749 27.0551)
(4.53674 0.291943 27.0565)
(4.4956 0.193 27.0665)
(4.21506 0.136253 27.0708)
(4.19721 0.104411 27.084)
(3.98425 0.0845519 27.0965)
(3.99725 0.0730551 27.1135)
(3.83564 0.0643646 27.1243)
(3.86543 0.0588185 27.1335)
(3.74023 0.053381 27.1363)
(3.77881 0.0508588 27.1376)
(3.67976 0.0453981 27.1344)
(3.72438 0.0469402 27.1293)
(3.64175 0.0359857 27.1222)
(3.6981 0.0461535 27.1124)
(3.61711 0.0160737 27.107)
(3.71972 0.0371133 27.0933)
(3.59533 -0.017081 27.0993)
(3.95651 -0.0657255 27.0609)
(4.72584 0.288809 27.0374)
(5.22401 0.212423 27.0507)
(5.35333 0.191845 27.045)
(5.61416 0.132154 27.0524)
(5.57786 0.095156 27.0505)
(5.71739 0.0694225 27.0585)
(5.64672 0.0507794 27.0663)
(5.74274 0.0377588 27.0869)
(5.67258 0.0277262 27.1045)
(5.74674 0.0195932 27.124)
(5.68394 0.0138735 27.1336)
(5.7432 0.00763714 27.1421)
(5.69108 0.00524218 27.1446)
(5.73714 -0.000765191 27.1462)
(5.7007 0.00144419 27.1433)
(5.72484 -0.00679072 27.1339)
(5.71708 0.00555823 27.1231)
(5.68762 -0.00666961 27.1024)
(5.72831 0.0341827 27.0923)
(5.58867 0.0582898 27.0518)
(4.7039 0.169246 27.0462)
(5.14128 0.131687 27.0596)
(5.37 0.124872 27.0558)
(5.73271 0.0955519 27.0613)
(5.82028 0.0770568 27.0595)
(6.06394 0.0648894 27.0633)
(6.09987 0.0559758 27.0689)
(6.27876 0.0500504 27.0862)
(6.29514 0.0448957 27.106)
(6.43445 0.0409969 27.1275)
(6.44014 0.0371599 27.1416)
(6.5524 0.0344189 27.1513)
(6.55004 0.0307583 27.1568)
(6.64665 0.0297409 27.1611)
(6.6355 0.0242918 27.1646)
(6.73006 0.0266535 27.1614)
(6.70167 0.0145745 27.1548)
(6.82165 0.020313 27.1362)
(6.76354 0.00301386 27.1178)
(6.99845 -0.00978518 27.0734)
(4.7053 1.25482e-08 27.0413)
(5.13748 3.09796e-07 27.0533)
(5.37584 2.69477e-07 27.0466)
(5.75342 5.14607e-07 27.0525)
(5.85583 3.75072e-07 27.0484)
(6.11571 9.1069e-07 27.0524)
(6.17127 8.18297e-07 27.0553)
(6.36958 1.75365e-06 27.0727)
(6.40956 2.38236e-06 27.0909)
(6.56862 4.00225e-06 27.1138)
(6.59976 7.00625e-06 27.1275)
(6.72748 1.28374e-05 27.1385)
(6.75371 1.56856e-05 27.1432)
(6.85366 5.25579e-05 27.1488)
(6.88324 1.89338e-05 27.1532)
(6.94785 0.000201704 27.1537)
(6.99556 -4.35553e-06 27.1485)
(6.99321 0.000574322 27.1334)
(7.07298 0.000109486 27.1127)
(6.96736 0.000847516 27.0692)
(4.7039 -0.169246 27.0462)
(5.14128 -0.131686 27.0596)
(5.37 -0.124872 27.0558)
(5.73271 -0.0955508 27.0613)
(5.82028 -0.0770556 27.0595)
(6.06394 -0.0648878 27.0633)
(6.09987 -0.0559737 27.0689)
(6.27876 -0.0500477 27.0862)
(6.29514 -0.0448903 27.106)
(6.43445 -0.0409915 27.1275)
(6.44014 -0.0371445 27.1416)
(6.55242 -0.0344042 27.1514)
(6.55005 -0.0307199 27.1567)
(6.6467 -0.0296873 27.1612)
(6.63554 -0.0242122 27.1644)
(6.73019 -0.0264576 27.1618)
(6.70185 -0.0144078 27.1543)
(6.82194 -0.0197643 27.1368)
(6.76404 -0.00236138 27.1171)
(6.99923 0.0111503 27.0741)
(4.72584 -0.288809 27.0374)
(5.22401 -0.212423 27.0507)
(5.35333 -0.191844 27.045)
(5.61416 -0.132153 27.0524)
(5.57786 -0.0951553 27.0505)
(5.71739 -0.0694209 27.0585)
(5.64672 -0.050778 27.0662)
(5.74275 -0.0377559 27.0869)
(5.67258 -0.0277225 27.1045)
(5.74675 -0.0195874 27.124)
(5.68394 -0.0138632 27.1336)
(5.74324 -0.00761996 27.1423)
(5.69108 -0.0052213 27.1443)
(5.73728 0.000835665 27.1466)
(5.70073 -0.0014307 27.1426)
(5.72521 0.00706431 27.135)
(5.71726 -0.00560687 27.1214)
(5.6885 0.00741549 27.105)
(5.72922 -0.0341407 27.0886)
(5.59104 -0.0567447 27.0567)
(4.60694 -0.548849 27.0359)
(4.81457 -0.379748 27.0551)
(4.53674 -0.291942 27.0565)
(4.4956 -0.192999 27.0665)
(4.21506 -0.136252 27.0708)
(4.19722 -0.10441 27.084)
(3.98425 -0.0845503 27.0965)
(3.99725 -0.0730538 27.1135)
(3.83564 -0.0643612 27.1243)
(3.86545 -0.0588164 27.1335)
(3.74024 -0.0533718 27.1363)
(3.77886 -0.0508539 27.1377)
(3.67979 -0.0453757 27.1342)
(3.72451 -0.0469201 27.1296)
(3.64189 -0.0359384 27.1216)
(3.6984 -0.0460684 27.1137)
(3.61769 -0.015971 27.1046)
(3.72039 -0.0368589 27.098)
(3.59679 0.0174067 27.0903)
(3.95864 0.0658949 27.0768)
(3.51834 -0.421079 27.0134)
(2.82131 -0.152508 27.0431)
(2.07724 -0.0473627 27.046)
(1.8775 0.021048 27.0556)
(1.60704 0.0423019 27.0571)
(1.59912 0.0494002 27.0658)
(1.45146 0.050625 27.0681)
(1.4857 0.0496979 27.0747)
(1.3816 0.0484367 27.075)
(1.42428 0.0472039 27.0783)
(1.34451 0.045504 27.0765)
(1.38808 0.0454087 27.0773)
(1.32559 0.0421522 27.0741)
(1.36793 0.0448881 27.0734)
(1.31768 0.0354421 27.0699)
(1.35856 0.0457089 27.0688)
(1.31587 0.0138849 27.066)
(1.34549 0.044671 27.0658)
(1.33699 -0.0914988 27.0636)
(1.13191 -0.131448 27.0632)
(1.18497 -0.144822 -27.1189)
(1.3178 -0.141858 -27.2595)
(1.30853 -0.11293 -27.3527)
(1.36141 -0.109469 -27.4199)
(1.36562 -0.109201 -27.4596)
(1.41813 -0.109128 -27.4836)
(1.43117 -0.109445 -27.4944)
(1.48138 -0.109391 -27.5007)
(1.49748 -0.109599 -27.5027)
(1.54257 -0.109557 -27.5043)
(1.55783 -0.109728 -27.5046)
(1.59644 -0.109718 -27.5053)
(1.60894 -0.109872 -27.5053)
(1.6409 -0.109886 -27.5056)
(1.65013 -0.110023 -27.5056)
(1.67628 -0.110046 -27.5058)
(1.683 -0.110162 -27.5057)
(1.70502 -0.110181 -27.5057)
(1.71051 -0.110273 -27.5054)
(1.72993 -0.110284 -27.5053)
(1.73482 -0.110352 -27.505)
(1.7521 -0.110352 -27.5047)
(1.75603 -0.110401 -27.5043)
(1.77083 -0.110395 -27.504)
(1.77322 -0.110434 -27.5036)
(1.78525 -0.110428 -27.5032)
(1.78585 -0.110463 -27.5028)
(1.79523 -0.110462 -27.5023)
(1.79429 -0.110497 -27.5019)
(1.80167 -0.110499 -27.5015)
(1.80006 -0.110531 -27.5011)
(1.80664 -0.11053 -27.5006)
(1.80548 -0.110555 -27.5002)
(1.81232 -0.110549 -27.4997)
(1.81211 -0.110565 -27.4992)
(1.8193 -0.110556 -27.4987)
(1.81951 -0.110568 -27.4982)
(1.82623 -0.110558 -27.4977)
(1.82589 -0.11057 -27.4973)
(1.83134 -0.110564 -27.4968)
(1.83017 -0.110578 -27.4963)
(1.83456 -0.110576 -27.4958)
(1.83326 -0.110593 -27.4954)
(1.83753 -0.110593 -27.4949)
(1.83687 -0.110608 -27.4945)
(1.84156 -0.110605 -27.494)
(1.84154 -0.110614 -27.4935)
(1.84645 -0.110607 -27.493)
(1.84656 -0.110612 -27.4926)
(1.85125 -0.110605 -27.4921)
(1.85112 -0.110611 -27.4916)
(1.85525 -0.110609 -27.4911)
(1.8548 -0.110619 -27.4907)
(1.85828 -0.11062 -27.4902)
(1.85775 -0.110631 -27.4898)