/*--------------------------------*- C++ -*----------------------------------*\
  =========                 |
  \\      /  F ield         | OpenFOAM: The Open Source CFD Toolbox
   \\    /   O peration     | Website:  https://openfoam.org
    \\  /    A nd           | Version:  7
     \\/     M anipulation  |
\*---------------------------------------------------------------------------*/
FoamFile
{
    version     2.0;
    format      ascii;
    class       volScalarField;
    location    "0.1125";
    object      nut;
}
// * * * * * * * * * * * * * * * * * * * * * * * * * * * * * * * * * * * * * //

dimensions      [0 2 -1 0 0 0 0];

internalField   nonuniform List<scalar> 
1440
(
0.000134085
0.000312056
0.000498109
0.000654219
0.000777443
0.000869374
0.000933589
0.000975098
0.000998618
0.00100885
0.00100766
0.00100256
0.000991575
0.000977017
0.000960748
0.000943655
0.000926367
0.000909327
0.000892827
0.000877064
0.000862149
0.00084814
0.000835056
0.000822883
0.000811588
0.000801125
0.00079144
0.000782475
0.000774169
0.000766466
0.000759308
0.000752642
0.000746418
0.000740592
0.000735122
0.000729971
0.000725106
0.000720496
0.000716115
0.000711939
0.000707949
0.000704126
0.000700454
0.00069692
0.000693512
0.000690219
0.000687033
0.000683944
0.000680947
0.000678033
0.0006752
0.000672439
0.000669751
0.000667123
0.000664571
0.000662053
0.000659637
0.0006572
0.000654933
0.000652549
6.53619e-06
2.95887e-05
6.70259e-05
0.000115437
0.000176949
0.000240716
0.000299703
0.00035225
0.000396244
0.000432753
0.000461293
0.000483746
0.000500858
0.000513548
0.000522669
0.000529075
0.000533334
0.000536098
0.000537649
0.000538508
0.0005387
0.000538609
0.000538369
0.000537966
0.000537524
0.000537096
0.000536707
0.00053638
0.000536115
0.000535919
0.000535777
0.000535695
0.000535646
0.000535648
0.000535662
0.000535696
0.000535744
0.000535798
0.000535847
0.000535893
0.000535926
0.000535948
0.000535946
0.000535932
0.000535901
0.000535846
0.000535768
0.000535671
0.000535551
0.000535414
0.000535253
0.000535077
0.000534877
0.000534666
0.000534429
0.000534188
0.000533916
0.00053365
0.000533346
0.000533053
1.58678e-06
2.18084e-06
4.92945e-06
1.03943e-05
1.91524e-05
3.10744e-05
4.66293e-05
6.47893e-05
8.34697e-05
0.000102328
0.000120386
0.000137376
0.00015298
0.000167113
0.000179684
0.000190769
0.000200406
0.000208752
0.00021591
0.000222045
0.000227284
0.000231757
0.000235584
0.000238864
0.000241679
0.000244109
0.000246219
0.000248075
0.00024973
0.000251233
0.000252621
0.000253926
0.000255172
0.000256378
0.000257558
0.000258725
0.000259892
0.000261069
0.000262265
0.000263487
0.000264738
0.000266019
0.000267327
0.000268663
0.000270025
0.000271418
0.000272834
0.00027428
0.000275748
0.000277241
0.000278757
0.000280295
0.000281845
0.000283408
0.000284978
0.000286557
0.000288146
0.000289746
0.000291356
0.00029296
1.57741e-06
1.58214e-06
1.608e-06
1.74152e-06
2.21446e-06
3.28831e-06
5.11799e-06
7.73443e-06
1.12497e-05
1.55287e-05
2.02024e-05
2.51694e-05
3.03158e-05
3.55662e-05
4.07481e-05
4.57603e-05
5.0549e-05
5.51221e-05
5.9439e-05
6.34598e-05
6.71624e-05
7.05796e-05
7.37583e-05
7.67176e-05
7.94434e-05
8.19307e-05
8.41874e-05
8.6255e-05
8.81675e-05
8.99438e-05
9.15913e-05
9.31173e-05
9.45315e-05
9.58544e-05
9.71117e-05
9.83092e-05
9.94346e-05
0.000100479
0.000101454
0.000102383
0.000103306
0.000104237
0.000105153
0.000106021
0.000106836
0.000107632
0.000108439
0.00010926
0.000110074
0.000110859
0.000111621
0.000112383
0.000113169
0.000113989
0.000114833
0.000115666
0.000116462
0.000117216
0.00011797
0.000118762
1.57667e-06
1.57873e-06
1.58451e-06
1.59659e-06
1.61824e-06
1.65338e-06
1.71353e-06
1.82687e-06
2.03312e-06
2.38635e-06
2.96147e-06
3.61767e-06
4.3955e-06
5.3823e-06
6.47215e-06
7.5484e-06
8.60823e-06
9.73332e-06
1.09153e-05
1.20784e-05
1.3157e-05
1.41709e-05
1.51799e-05
1.62071e-05
1.72181e-05
1.81665e-05
1.90241e-05
1.98221e-05
2.06068e-05
2.14067e-05
2.21984e-05
2.29324e-05
2.3585e-05
2.41954e-05
2.48343e-05
2.55229e-05
2.61985e-05
2.67867e-05
2.72781e-05
2.77407e-05
2.82649e-05
2.8872e-05
2.94842e-05
3.00104e-05
3.04404e-05
3.08492e-05
3.1314e-05
3.18433e-05
3.23838e-05
3.2861e-05
3.32539e-05
3.35992e-05
3.39798e-05
3.4454e-05
3.50053e-05
3.55434e-05
3.59921e-05
3.63136e-05
3.65701e-05
3.68735e-05
1.5765e-06
1.578e-06
1.58271e-06
1.59407e-06
1.6103e-06
1.63256e-06
1.67522e-06
1.71755e-06
1.74761e-06
1.79687e-06
1.87266e-06
1.9359e-06
1.97429e-06
2.03329e-06
2.13672e-06
2.2375e-06
2.30658e-06
2.37931e-06
2.49303e-06
2.63404e-06
2.76008e-06
2.85778e-06
2.95478e-06
3.08304e-06
3.24009e-06
3.39377e-06
3.51306e-06
3.60681e-06
3.71196e-06
3.85399e-06
4.0179e-06
4.16253e-06
4.26211e-06
4.33902e-06
4.4464e-06
4.60704e-06
4.78159e-06
4.91361e-06
4.98964e-06
5.05267e-06
5.15883e-06
5.3203e-06
5.4933e-06
5.62871e-06
5.71537e-06
5.7887e-06
5.89151e-06
6.03636e-06
6.20051e-06
6.34556e-06
6.44685e-06
6.51474e-06
6.59118e-06
6.71479e-06
6.88635e-06
7.06833e-06
7.21803e-06
7.31534e-06
7.37602e-06
7.4376e-06
1.5765e-06
1.578e-06
1.58271e-06
1.59407e-06
1.61031e-06
1.63255e-06
1.67521e-06
1.71755e-06
1.74768e-06
1.79677e-06
1.8727e-06
1.93585e-06
1.97442e-06
2.03304e-06
2.13687e-06
2.23744e-06
2.30671e-06
2.37934e-06
2.49285e-06
2.63399e-06
2.76018e-06
2.85783e-06
2.95483e-06
3.08282e-06
3.2401e-06
3.39373e-06
3.51318e-06
3.60666e-06
3.71189e-06
3.85376e-06
4.01786e-06
4.1624e-06
4.26198e-06
4.33878e-06
4.44617e-06
4.60667e-06
4.78128e-06
4.91313e-06
4.98908e-06
5.05193e-06
5.15812e-06
5.31938e-06
5.49238e-06
5.62725e-06
5.71391e-06
5.78674e-06
5.88942e-06
6.03405e-06
6.19768e-06
6.34203e-06
6.4426e-06
6.50999e-06
6.58573e-06
6.70841e-06
6.87894e-06
7.05983e-06
7.20749e-06
7.3037e-06
7.36202e-06
7.42128e-06
1.57667e-06
1.57873e-06
1.58451e-06
1.59659e-06
1.61824e-06
1.65338e-06
1.71353e-06
1.82683e-06
2.03344e-06
2.38432e-06
2.96427e-06
3.61509e-06
4.39816e-06
5.37992e-06
6.47361e-06
7.54777e-06
8.60857e-06
9.73336e-06
1.09148e-05
1.20784e-05
1.31573e-05
1.41706e-05
1.51803e-05
1.62062e-05
1.72185e-05
1.81661e-05
1.90245e-05
1.98213e-05
2.06069e-05
2.14057e-05
2.21985e-05
2.29319e-05
2.35845e-05
2.41946e-05
2.48336e-05
2.55218e-05
2.61977e-05
2.67854e-05
2.72764e-05
2.77389e-05
2.82629e-05
2.88695e-05
2.9482e-05
3.00065e-05
3.04368e-05
3.08447e-05
3.13085e-05
3.18379e-05
3.23766e-05
3.28534e-05
3.32438e-05
3.35885e-05
3.39674e-05
3.44393e-05
3.49887e-05
3.55265e-05
3.59646e-05
3.62922e-05
3.65388e-05
3.68339e-05
1.57741e-06
1.58214e-06
1.608e-06
1.74152e-06
2.21446e-06
3.28831e-06
5.118e-06
7.73403e-06
1.12508e-05
1.55273e-05
2.0204e-05
2.51677e-05
3.03173e-05
3.55647e-05
4.07492e-05
4.57597e-05
5.05492e-05
5.5122e-05
5.94387e-05
6.34598e-05
6.71626e-05
7.0579e-05
7.37588e-05
7.67165e-05
7.94439e-05
8.19297e-05
8.41878e-05
8.62538e-05
8.81678e-05
8.99423e-05
9.15911e-05
9.31164e-05
9.45304e-05
9.58534e-05
9.71103e-05
9.83076e-05
9.94326e-05
0.000100477
0.000101451
0.000102381
0.000103302
0.000104234
0.000105149
0.000106015
0.00010683
0.000107626
0.000108429
0.000109252
0.000110062
0.000110846
0.000111606
0.000112365
0.000113148
0.000113966
0.000114805
0.000115634
0.000116423
0.000117174
0.000117918
0.000118703
1.58678e-06
2.18084e-06
4.92945e-06
1.03943e-05
1.91524e-05
3.10744e-05
4.66293e-05
6.47893e-05
8.34697e-05
0.000102328
0.000120386
0.000137376
0.000152979
0.000167113
0.000179684
0.000190769
0.000200406
0.000208752
0.00021591
0.000222045
0.000227284
0.000231756
0.000235584
0.000238864
0.000241679
0.000244108
0.000246218
0.000248074
0.00024973
0.000251232
0.00025262
0.000253925
0.000255171
0.000256376
0.000257556
0.000258723
0.000259889
0.000261066
0.000262262
0.000263484
0.000264733
0.000266014
0.00026732
0.000268655
0.000270017
0.000271407
0.000272823
0.000274268
0.000275731
0.000277224
0.000278738
0.00028027
0.000281819
0.000283376
0.000284942
0.000286516
0.000288098
0.000289692
0.000291289
0.000292887
6.53619e-06
2.95887e-05
6.70259e-05
0.000115437
0.000176949
0.000240716
0.000299703
0.00035225
0.000396244
0.000432753
0.000461293
0.000483746
0.000500858
0.000513548
0.000522669
0.000529075
0.000533334
0.000536098
0.000537649
0.000538508
0.0005387
0.000538609
0.000538369
0.000537965
0.000537524
0.000537096
0.000536707
0.00053638
0.000536114
0.000535919
0.000535776
0.000535695
0.000535645
0.000535647
0.000535661
0.000535694
0.000535742
0.000535795
0.000535845
0.00053589
0.000535923
0.000535944
0.000535941
0.000535927
0.000535896
0.000535839
0.000535761
0.000535662
0.000535542
0.000535402
0.000535242
0.000535062
0.000534863
0.000534645
0.000534411
0.00053416
0.000533894
0.000533612
0.000533317
0.000533008
0.000134085
0.000312056
0.000498109
0.000654219
0.000777443
0.000869374
0.000933589
0.000975098
0.000998618
0.00100885
0.00100766
0.00100256
0.000991575
0.000977017
0.000960748
0.000943655
0.000926367
0.000909327
0.000892827
0.000877064
0.000862149
0.000848141
0.000835057
0.000822883
0.000811588
0.000801125
0.000791441
0.000782476
0.000774171
0.000766468
0.00075931
0.000752644
0.000746421
0.000740595
0.000735126
0.000729975
0.000725111
0.000720501
0.000716121
0.000711947
0.000707958
0.000704136
0.000700466
0.000696934
0.000693529
0.000690239
0.000687055
0.00068397
0.000680976
0.000678068
0.000675239
0.000672486
0.000669803
0.000667188
0.000664637
0.000662146
0.000659714
0.000657339
0.000655017
0.000652748
0.000650399
0.000648304
0.000646259
0.000644265
0.000642311
0.000640398
0.000638521
0.000636682
0.000634877
0.000633107
0.000631371
0.000629667
0.000627995
0.000626355
0.000624745
0.000623166
0.000621617
0.000620097
0.000618605
0.000617142
0.000615706
0.000614297
0.000612915
0.000611559
0.000610229
0.000608923
0.000607642
0.000606385
0.00060515
0.000603938
0.000602748
0.000601578
0.000600428
0.000599297
0.000598184
0.000597089
0.000596009
0.000594947
0.000593897
0.000592867
0.000591846
0.000590844
0.000589849
0.000588874
0.000587902
0.000586949
0.000585998
0.000585062
0.000584134
0.000583206
0.00058231
0.000581373
0.000580532
0.000579557
0.000578811
0.000577758
0.000577155
0.000576029
0.000575523
0.00057436
0.000532737
0.000532388
0.000532016
0.000531624
0.000531216
0.000530794
0.000530361
0.000529918
0.000529467
0.000529009
0.000528545
0.000528077
0.000527604
0.000527128
0.000526649
0.000526166
0.000525682
0.000525195
0.000524706
0.000524216
0.000523724
0.00052323
0.000522734
0.000522237
0.000521738
0.000521237
0.000520735
0.000520232
0.000519727
0.000519221
0.000518715
0.000518208
0.000517702
0.000517196
0.000516692
0.000516188
0.000515686
0.000515185
0.000514687
0.000514188
0.000513693
0.000513198
0.000512707
0.000512217
0.000511733
0.000511247
0.000510773
0.000510289
0.000509827
0.000509339
0.000508895
0.000508394
0.000507979
0.000507453
0.000507073
0.000506515
0.000506175
0.000505572
0.000505256
0.000504496
0.000294564
0.000296164
0.000297758
0.000299348
0.000300932
0.000302514
0.000304085
0.00030564
0.000307183
0.000308709
0.000310214
0.000311706
0.000313186
0.000314648
0.000316092
0.000317513
0.000318924
0.000320313
0.000321673
0.000323009
0.000324326
0.000325626
0.000326893
0.000328138
0.000329355
0.000330548
0.000331704
0.00033283
0.000333936
0.000335015
0.000336065
0.000337083
0.000338079
0.000339072
0.00034004
0.000340985
0.000341938
0.000342881
0.000343817
0.000344732
0.000345648
0.000346551
0.000347446
0.000348314
0.000349194
0.000350032
0.000350879
0.00035169
0.000352529
0.000353308
0.000354103
0.000354868
0.000355608
0.00035644
0.000357039
0.000357895
0.000358439
0.000359301
0.000359727
0.000360698
0.000119622
0.000120534
0.000121455
0.000122337
0.000123167
0.000123966
0.000124782
0.000125656
0.000126583
0.000127573
0.000128556
0.000129524
0.000130462
0.000131362
0.000132266
0.000133173
0.000134125
0.000135115
0.000136138
0.000137188
0.000138246
0.000139302
0.000140328
0.000141364
0.000142372
0.000143338
0.000144296
0.000145202
0.000146104
0.00014697
0.000147754
0.000148454
0.000149168
0.000149855
0.000150486
0.000151054
0.000151582
0.000152177
0.000152764
0.000153287
0.000153825
0.000154461
0.000155123
0.000155741
0.000156608
0.000157438
0.000158441
0.000159308
0.000160368
0.000161253
0.000162352
0.000163186
0.000164321
0.000165173
0.000166126
0.000166985
0.000167719
0.000168838
0.000169378
0.000170532
3.72825e-05
3.78117e-05
3.83616e-05
3.88732e-05
3.93026e-05
3.96008e-05
3.98452e-05
4.00878e-05
4.04244e-05
4.08963e-05
4.14494e-05
4.20232e-05
4.24979e-05
4.28632e-05
4.31451e-05
4.33833e-05
4.36713e-05
4.40232e-05
4.44748e-05
4.49963e-05
4.55431e-05
4.60819e-05
4.65686e-05
4.69766e-05
4.72917e-05
4.75392e-05
4.77194e-05
4.78058e-05
4.7853e-05
4.78656e-05
4.78627e-05
4.78649e-05
4.78645e-05
4.78415e-05
4.77261e-05
4.73492e-05
4.67728e-05
4.61786e-05
4.55784e-05
4.49962e-05
4.4468e-05
4.40021e-05
4.35924e-05
4.32689e-05
4.30813e-05
4.30164e-05
4.30094e-05
4.30071e-05
4.30021e-05
4.29877e-05
4.30111e-05
4.31505e-05
4.35001e-05
4.37087e-05
4.38529e-05
4.38998e-05
4.40051e-05
4.40061e-05
4.40263e-05
4.40006e-05
7.53475e-06
7.68206e-06
7.86618e-06
8.05734e-06
8.22079e-06
8.33095e-06
8.38993e-06
8.43026e-06
8.50098e-06
8.63187e-06
8.8154e-06
9.02281e-06
9.21576e-06
9.36378e-06
9.45438e-06
9.50141e-06
9.54721e-06
9.63807e-06
9.79194e-06
9.99311e-06
1.0212e-05
1.04155e-05
1.05756e-05
1.0679e-05
1.07275e-05
1.07385e-05
1.07387e-05
1.07384e-05
1.07382e-05
1.07365e-05
1.07305e-05
1.07117e-05
1.06574e-05
1.05024e-05
1.02186e-05
9.86896e-06
9.4981e-06
9.10278e-06
8.72398e-06
8.34716e-06
8.0107e-06
7.69418e-06
7.42991e-06
7.19062e-06
7.01114e-06
6.8581e-06
6.75823e-06
6.66574e-06
6.60777e-06
6.54643e-06
6.51714e-06
6.48325e-06
6.47018e-06
6.44203e-06
6.42748e-06
6.39172e-06
6.37388e-06
6.32946e-06
6.30339e-06
6.20456e-06
7.51674e-06
7.66097e-06
7.84206e-06
8.0291e-06
8.18686e-06
8.2936e-06
8.35065e-06
8.38744e-06
8.44855e-06
8.57351e-06
8.75161e-06
8.9515e-06
9.13638e-06
9.27729e-06
9.36472e-06
9.41075e-06
9.44892e-06
9.52203e-06
9.67058e-06
9.8694e-06
1.00822e-05
1.0274e-05
1.04195e-05
1.05079e-05
1.05456e-05
1.05517e-05
1.05519e-05
1.05517e-05
1.05509e-05
1.05489e-05
1.05413e-05
1.05183e-05
1.04531e-05
1.0272e-05
9.97426e-06
9.61573e-06
9.23721e-06
8.83519e-06
8.45067e-06
8.06658e-06
7.7243e-06
7.40026e-06
7.13148e-06
6.88637e-06
6.70323e-06
6.54242e-06
6.43598e-06
6.33465e-06
6.27326e-06
6.20674e-06
6.1751e-06
6.13258e-06
6.11533e-06
6.0799e-06
6.06243e-06
6.0213e-06
6.00035e-06
5.95045e-06
5.92212e-06
5.81955e-06
3.72508e-05
3.77587e-05
3.83094e-05
3.88213e-05
3.92212e-05
3.95298e-05
3.97545e-05
3.99845e-05
4.03163e-05
4.07723e-05
4.13138e-05
4.18644e-05
4.23408e-05
4.26866e-05
4.29552e-05
4.31808e-05
4.34334e-05
4.37844e-05
4.42173e-05
4.47356e-05
4.52706e-05
4.57908e-05
4.62588e-05
4.66342e-05
4.6937e-05
4.71575e-05
4.72783e-05
4.73625e-05
4.74092e-05
4.74179e-05
4.74178e-05
4.74177e-05
4.74126e-05
4.7379e-05
4.72358e-05
4.6803e-05
4.6208e-05
4.55991e-05
4.49783e-05
4.437e-05
4.38167e-05
4.3325e-05
4.29035e-05
4.25661e-05
4.23477e-05
4.2253e-05
4.22361e-05
4.22325e-05
4.22258e-05
4.22084e-05
4.22263e-05
4.23356e-05
4.26191e-05
4.28073e-05
4.29699e-05
4.30031e-05
4.30568e-05
4.31066e-05
4.31255e-05
4.30629e-05
0.000119555
0.000120455
0.000121364
0.000122232
0.000123047
0.00012383
0.000124627
0.000125482
0.000126394
0.000127357
0.000128322
0.000129269
0.000130184
0.000131064
0.000131939
0.000132832
0.000133756
0.00013473
0.00013573
0.000136755
0.000137801
0.000138823
0.000139865
0.000140851
0.000141839
0.000142802
0.000143758
0.000144661
0.000145474
0.000146318
0.000147152
0.000147867
0.000148558
0.000149198
0.000149744
0.000150299
0.000150861
0.000151494
0.00015205
0.000152549
0.000153151
0.000153688
0.000154338
0.000155027
0.000155847
0.000156619
0.000157593
0.000158492
0.000159569
0.000160508
0.000161556
0.000162386
0.000163395
0.000164191
0.000165268
0.000166255
0.00016685
0.000167923
0.000168471
0.000169672
0.000294481
0.000296064
0.000297645
0.000299223
0.000300791
0.00030236
0.000303916
0.000305464
0.000306994
0.000308506
0.000310007
0.000311495
0.000312967
0.000314423
0.000315864
0.000317294
0.000318701
0.000320089
0.000321457
0.000322802
0.00032413
0.000325431
0.00032671
0.000327969
0.000329208
0.000330409
0.000331578
0.000332723
0.000333853
0.000334953
0.000336013
0.000337057
0.000338089
0.000339091
0.00034008
0.000341055
0.000342033
0.000343
0.000343955
0.000344903
0.00034585
0.000346773
0.000347693
0.000348577
0.000349489
0.000350364
0.00035123
0.000352059
0.000352921
0.000353733
0.000354559
0.000355341
0.000356096
0.00035696
0.000357592
0.000358477
0.00035903
0.000359912
0.00036035
0.00036135
0.000532686
0.000532353
0.000532009
0.000531654
0.00053129
0.000530918
0.000530536
0.000530148
0.000529752
0.00052935
0.000528941
0.000528527
0.000528108
0.000527684
0.000527255
0.000526823
0.000526386
0.000525946
0.000525502
0.000525056
0.000524606
0.000524153
0.000523697
0.000523238
0.000522777
0.000522312
0.000521844
0.000521374
0.000520902
0.000520427
0.000519951
0.000519474
0.000518996
0.000518517
0.000518039
0.000517561
0.000517083
0.000516605
0.000516128
0.00051565
0.000515174
0.000514697
0.000514224
0.000513748
0.00051328
0.000512806
0.000512345
0.00051187
0.000511422
0.00051094
0.000510512
0.000510014
0.000509615
0.000509092
0.000508727
0.000508167
0.000507841
0.000507238
0.000506926
0.000506167
0.00065053
0.00064836
0.000646239
0.000644163
0.000642133
0.000640147
0.000638203
0.000636301
0.000634438
0.000632615
0.000630829
0.000629081
0.000627367
0.000625689
0.000624044
0.000622431
0.000620851
0.000619301
0.000617781
0.00061629
0.000614828
0.000613394
0.000611987
0.000610606
0.000609251
0.000607921
0.000606616
0.000605334
0.000604075
0.000602839
0.000601624
0.000600429
0.000599254
0.000598098
0.00059696
0.00059584
0.000594735
0.000593649
0.000592576
0.000591522
0.000590479
0.000589455
0.000588438
0.000587443
0.000586451
0.000585481
0.00058451
0.000583561
0.000582613
0.000581675
0.000580759
0.000579816
0.000578952
0.000577977
0.000577207
0.000576161
0.000575536
0.000574413
0.000573902
0.00057273
)
;

boundaryField
{
    upperWall
    {
        type            zeroGradient;
    }
    lowerWall
    {
        type            zeroGradient;
    }
    heatedWall
    {
        type            zeroGradient;
    }
    inlet
    {
        type            zeroGradient;
    }
    outlet
    {
        type            zeroGradient;
    }
    frontAndBack
    {
        type            empty;
    }
}


// ************************************************************************* //
