/*--------------------------------*- C++ -*----------------------------------*\
  =========                 |
  \\      /  F ield         | OpenFOAM: The Open Source CFD Toolbox
   \\    /   O peration     | Website:  https://openfoam.org
    \\  /    A nd           | Version:  7
     \\/     M anipulation  |
\*---------------------------------------------------------------------------*/
FoamFile
{
    version     2.0;
    format      ascii;
    class       volScalarField;
    location    "0.06";
    object      pPrime2Mean;
}
// * * * * * * * * * * * * * * * * * * * * * * * * * * * * * * * * * * * * * //

dimensions      [2 -2 -4 0 0 0 0];

internalField   nonuniform List<scalar> 
1352
(
204016
197761
192912
188785
184980
179783
204338
197846
192956
189060
185402
182312
204591
197928
193121
189463
186491
184132
204785
198128
193390
189963
187356
185367
205052
198411
193780
190577
188268
186578
205716
199119
194692
191795
189804
188336
206316
199777
195506
192778
190884
189433
206275
200004
195907
193232
191312
189827
206236
200188
196202
193514
191522
189973
205883
200168
196239
193551
191552
189979
184306
184331
184393
184512
184670
184838
184976
185042
185004
184845
184573
184211
183796
183362
182930
182505
182075
181622
181123
180565
179952
179298
178614
177899
177157
176392
175605
174792
173940
173022
172011
170885
169634
168264
166797
165280
163775
162348
161043
159874
158826
157866
156951
156048
155129
154174
153171
152114
151000
149830
148605
147330
146004
144626
143192
141700
140156
138566
136936
135287
184119
184186
184318
184515
184749
184985
185179
185294
185295
185166
184914
184565
184158
183727
183291
182855
182415
181955
181455
180900
180292
179639
178956
178254
177528
176776
175997
175182
174314
173369
172324
171165
169885
168485
166990
165446
163917
162467
161143
159959
158899
157930
157008
156099
155175
154216
153211
152151
151033
149857
148626
147344
146012
144628
143189
141695
140151
138561
136913
135197
183598
183714
183933
184249
184620
185007
185352
185602
185712
185667
185480
185179
184797
184364
183908
183442
182965
182467
181937
181368
180757
180103
179415
178708
177988
177249
176479
175660
174769
173786
172701
171511
170210
168798
167294
165739
164192
162719
161372
160167
159090
158105
157169
156246
155307
154335
153316
152243
151112
149925
148683
147390
146048
144654
143206
141707
140157
138559
136896
135150
182600
182737
183062
183561
184176
184828
185425
185896
186194
186292
186185
185896
185473
184979
184461
183948
183437
182915
182370
181789
181159
180483
179775
179053
178326
177588
176822
176002
175101
174103
173010
171821
170534
169141
167651
166100
164548
163063
161703
160481
159383
158375
157416
156469
155507
154512
153472
152381
151235
150035
148782
147478
146122
144714
143251
141737
140175
138564
136887
135120
180553
180633
181020
181784
182831
184013
185143
186079
186708
186970
186869
186477
185910
185287
184693
184145
183627
183108
182558
181958
181301
180596
179868
179139
178416
177689
176938
176132
175245
174267
173198
172040
170785
169422
167958
166431
164903
163440
162089
160863
159750
158718
157731
156754
155761
154737
153671
152557
151392
150177
148910
147593
146223
144797
143315
141780
140198
138572
136880
135093
176606
176009
176071
177326
179446
181793
183890
185505
186487
186866
186749
186296
185677
185032
184446
183928
183445
182952
182407
181791
181108
180384
179653
178938
178239
177540
176817
176042
175191
174251
173220
172096
170871
169542
168124
166653
165186
163778
162464
161255
160139
159091
158079
157073
156051
154996
153901
152760
151574
150339
149057
147723
146334
144885
143379
141820
140215
138568
136860
135059
171803
170688
171097
173805
177227
180391
182893
184662
185699
186088
185984
185570
185012
184439
183916
183447
182994
182518
181982
181372
180699
179994
179290
178605
177936
177263
176564
175811
174985
174071
173064
171963
170767
169484
168131
166738
165352
164017
162759
161586
160487
159441
158419
157396
156349
155268
154146
152981
151772
150519
149218
147866
146452
144975
143437
141846
140212
138541
136815
135003
170297
170424
171779
174530
177723
180545
182747
184285
185171
185486
185368
184982
184476
183956
183472
183024
182584
182117
181594
181002
180352
179673
178996
178332
177677
177012
176314
175561
174738
173831
172835
171751
170586
169350
168060
166744
165437
164175
162978
161851
160782
159750
158728
157689
156620
155514
154368
153181
151954
150686
149373
148007
146574
145068
143494
141865
140196
138495
136747
134922
170618
172398
173979
176111
178650
180999
182846
184126
184851
185080
184935
184563
184093
183608
183148
182712
182280
181818
181301
180719
180085
179426
178767
178115
177463
176792
176084
175320
174489
173578
172587
171521
170387
169197
167967
166721
165489
164300
163166
162087
161050
160031
159003
157945
156852
155721
154552
153346
152104
150827
149508
148133
146685
145154
143546
141879
140171
138435
136662
134820
175494
175314
176094
177649
179663
181587
183082
184079
184610
184737
184568
184219
183788
183338
182899
182473
182039
181571
181048
180468
179843
179197
178549
177899
177239
176554
175828
175047
174201
173287
172305
171262
170166
169029
167863
166692
165540
164426
163356
162325
161317
160306
159269
158191
157072
155916
154723
153497
152242
150959
149636
148255
146792
145236
143593
141885
140137
138365
136563
134704
179931
178656
178655
179620
181014
182347
183354
183990
184295
184328
184152
183840
183457
183046
182629
182204
181756
181269
180733
180150
179532
178893
178243
177584
176907
176203
175458
174664
173816
172914
171959
170957
169915
168843
167755
166669
165600
164560
163552
162566
161583
160577
159528
158429
157284
156099
154879
153631
152363
151073
149750
148365
146889
145308
143630
141881
140093
138289
136463
134590
182457
181555
181370
181755
182399
183038
183522
183813
183928
183885
183703
183415
183059
182664
182242
181795
181318
180807
180258
179673
179059
178425
177773
177106
176419
175707
174964
174184
173362
172496
171586
170635
169652
168651
167646
166645
165657
164685
163731
162783
161820
160815
159752
158629
157457
156242
154992
153719
152437
151144
149820
148433
146948
145349
143645
141863
140045
138219
136380
134506
184083
183361
183016
183012
183217
183478
183686
183787
183771
183645
183417
183107
182737
182325
181882
181412
180916
180391
179836
179253
178645
178015
177367
176702
176018
175310
174575
173809
173008
172167
171286
170371
169433
168487
167548
166616
165687
164761
163839
162916
161966
160960
159881
158737
157545
156309
155036
153746
152453
151153
149823
148432
146943
145336
143618
141822
139990
138156
136317
134453
185488
184794
184310
184038
183930
183909
183897
183831
183686
183465
183177
182831
182437
182005
181544
181059
180550
180017
179459
178877
178272
177648
177006
176346
175665
174960
174229
173471
172685
171869
171020
170139
169239
168337
167449
166571
165688
164795
163894
162980
162031
161015
159917
158752
157540
156289
155010
153716
152419
151109
149767
148367
146878
145272
143557
141762
139932
138105
136277
134435
187307
186561
185916
185398
184994
184659
184345
184021
183676
183309
182918
182500
182055
181585
181095
180586
180059
179514
178951
178369
177770
177153
176518
175865
175190
174492
173769
173025
172268
171496
170702
169880
169028
168162
167305
166462
165619
164756
163867
162941
161962
160914
159797
158624
157405
156155
154885
153606
152313
150993
149633
148227
146746
145159
143464
141688
139876
138066
136260
134449
188375
187577
186849
186209
185644
185125
184634
184159
183692
183226
182755
182274
181780
181271
180748
180211
179659
179093
178515
177925
177323
176708
176078
175431
174770
174094
173402
172695
171968
171217
170438
169644
168846
168046
167230
166378
165506
164634
163758
162829
161821
160738
159595
158408
157193
155960
154710
153444
152157
150836
149472
148069
146606
145047
143379
141628
139836
138043
136257
134481
188756
187949
187197
186511
185880
185289
184729
184194
183677
183170
182666
182159
181644
181116
180574
180017
179445
178863
178274
177681
177085
176483
175869
175230
174562
173873
173197
172550
171881
171164
170400
169600
168781
167969
167174
166352
165476
164564
163643
162693
161682
160605
159466
158282
157072
155846
154604
153347
152065
150746
149385
147984
146530
144985
143335
141597
139817
138032
136261
134515
188886
188083
187338
186642
185984
185359
184766
184201
183660
183135
182620
182107
181589
181061
180518
179959
179385
178799
178206
177611
177017
176425
175826
175208
174568
173898
173214
172548
171860
171131
170372
169581
168766
167946
167129
166296
165423
164521
163600
162643
161629
160552
159416
158236
157030
155808
154571
153317
152037
150720
149361
147961
146507
144965
143320
141587
139811
138029
136266
134546
188882
188098
187372
186682
186020
185389
184789
184218
183670
183140
182621
182105
181586
181058
180516
179959
179388
178806
178217
177624
177030
176433
175828
175204
174559
173888
173207
172539
171851
171126
170365
169570
168752
167934
167123
166292
165420
164515
163592
162634
161620
160545
159410
158232
157027
155806
154570
153316
152037
150720
149360
147960
146505
144963
143318
141585
139811
138029
136267
134566
133566
131272
128505
125165
121119
116200
110098
102737
133323
131063
128313
124964
120910
115992
109897
102543
133282
131076
128322
124948
120874
115942
109835
102490
133220
130985
128224
124842
120760
115821
109712
102369
133178
130961
128210
124817
120721
115770
109651
102309
133133
130912
128158
124763
120665
115707
109585
102239
133074
130858
128118
124734
120637
115673
109543
102195
132991
130784
128062
124697
120612
115648
109512
102163
132889
130694
127999
124665
120600
115637
109496
102145
132771
130591
127926
124633
120596
115639
109494
102142
132658
130493
127861
124614
120608
115658
109510
102158
132580
130429
127822
124613
120636
115696
109546
102195
132544
130406
127821
124641
120687
115755
109603
102255
132548
130416
127841
124684
120748
115826
109676
102332
132589
130476
127914
124769
120843
115928
109776
102436
132652
130516
127952
124819
120904
115997
109851
102513
132740
130598
128031
124902
120989
116083
109934
102594
132797
130618
128052
124926
121018
116114
109965
102632
132874
130668
128103
124977
121069
116165
110014
102684
)
;

boundaryField
{
    inlet
    {
        type            calculated;
        value           nonuniform List<scalar> 10(204016 204338 204591 204785 205052 205716 206316 206275 206236 205883);
    }
    outlet
    {
        type            calculated;
        value           nonuniform List<scalar> 
19
(
97274
97079.4
97027.1
96912.4
96855.6
96788.9
96747.8
96716.6
96700.2
96696.9
96712.6
96747.6
96804.7
96877.5
96975.7
97049.9
97131.2
97178
97247
)
;
    }
    upperWall
    {
        type            calculated;
        value           nonuniform List<scalar> 
74
(
205883
200168
196239
193551
191552
189979
188882
188098
187372
186682
186020
185389
184789
184218
183670
183140
182621
182105
181586
181058
180516
179959
179388
178806
178217
177624
177030
176433
175828
175204
174559
173888
173207
172539
171851
171126
170365
169570
168752
167934
167123
166292
165420
164515
163592
162634
161620
160545
159410
158232
157027
155806
154570
153316
152037
150720
149360
147960
146505
144963
143318
141585
139811
138029
136267
134566
132874
130668
128103
124977
121069
116165
110014
102684
)
;
    }
    lowerWall
    {
        type            calculated;
        value           nonuniform List<scalar> 
83
(
204016
197761
192912
188785
184980
179783
184306
184119
183598
182600
180553
176606
171803
170297
170618
184306
184331
184393
184512
184670
184838
184976
185042
185004
184845
184573
184211
183796
183362
182930
182505
182075
181622
181123
180565
179952
179298
178614
177899
177157
176392
175605
174792
173940
173022
172011
170885
169634
168264
166797
165280
163775
162348
161043
159874
158826
157866
156951
156048
155129
154174
153171
152114
151000
149830
148605
147330
146004
144626
143192
141700
140156
138566
136936
135287
133566
131272
128505
125165
121119
116200
110098
102737
)
;
    }
    frontAndBack
    {
        type            empty;
    }
}


// ************************************************************************* //
