/*--------------------------------*- C++ -*----------------------------------*\
  =========                 |
  \\      /  F ield         | OpenFOAM: The Open Source CFD Toolbox
   \\    /   O peration     | Website:  https://openfoam.org
    \\  /    A nd           | Version:  7
     \\/     M anipulation  |
\*---------------------------------------------------------------------------*/
FoamFile
{
    version     2.0;
    format      ascii;
    class       volScalarField;
    location    "0.85";
    object      nut;
}
// * * * * * * * * * * * * * * * * * * * * * * * * * * * * * * * * * * * * * //

dimensions      [0 2 -1 0 0 0 0];

internalField   nonuniform List<scalar> 
1800
(
0.00126645
0.00290497
0.00336035
0.00333144
0.00319294
0.00299081
0.00282757
0.00270372
0.00261052
0.00253818
0.00247985
0.00243118
0.00238944
0.00235288
0.00232038
0.00229121
0.00226486
0.00224097
0.00221916
0.00219926
0.00218088
0.00216409
0.00214827
0.00213403
0.0021201
0.00210815
0.00209534
0.00208559
0.00207107
0.00208199
0.000226659
0.000915571
0.00160346
0.0019417
0.00209614
0.00215029
0.00216168
0.00215898
0.00215142
0.00213918
0.00212613
0.00211263
0.00209854
0.00208453
0.00207079
0.00205754
0.00204469
0.00203244
0.00202047
0.00200927
0.001998
0.00198792
0.00197701
0.00196837
0.0019573
0.0019507
0.00193898
0.00193391
0.00191931
0.00191883
2.50462e-05
0.000178579
0.000404384
0.000668948
0.000868
0.000994593
0.00107551
0.00113072
0.00117115
0.00120345
0.00123069
0.00125507
0.00127818
0.00130031
0.00132064
0.00133996
0.00135715
0.00137372
0.00138783
0.00140203
0.00141329
0.00142566
0.0014342
0.00144508
0.00145091
0.00146042
0.00146423
0.00147224
0.00147461
0.00148005
1.10861e-05
2.91549e-05
7.64271e-05
0.000145582
0.000232203
0.000311286
0.000372651
0.000422511
0.00046197
0.000495518
0.000523876
0.000549896
0.000573281
0.000596181
0.000617312
0.000638539
0.000658278
0.000678335
0.000697018
0.000716022
0.000733879
0.000752137
0.000769638
0.000787127
0.000804394
0.000820459
0.000837686
0.000851494
0.00086936
0.000880252
1.09181e-05
1.18991e-05
1.64703e-05
2.68431e-05
4.27514e-05
6.24767e-05
8.35928e-05
0.00010125
0.000119306
0.000133824
0.000148591
0.000161693
0.000175689
0.000188357
0.000201206
0.000213211
0.000226029
0.000237697
0.000250448
0.000261305
0.000273352
0.000283667
0.000295947
0.000306278
0.000318867
0.000328813
0.000341556
0.000350574
0.00036422
0.00037225
1.08937e-05
1.13461e-05
1.26372e-05
1.37818e-05
1.59025e-05
1.72404e-05
1.98326e-05
2.14372e-05
2.45049e-05
2.62546e-05
2.9524e-05
3.14212e-05
3.50707e-05
3.72205e-05
4.1312e-05
4.36464e-05
4.81226e-05
5.06511e-05
5.55082e-05
5.82861e-05
6.3132e-05
6.58509e-05
7.1062e-05
7.42184e-05
7.93334e-05
8.29321e-05
8.83653e-05
9.16793e-05
9.74879e-05
0.000100909
1.08937e-05
1.13461e-05
1.26372e-05
1.3782e-05
1.60171e-05
1.73113e-05
1.99674e-05
2.1519e-05
2.45828e-05
2.63027e-05
2.96073e-05
3.14941e-05
3.51722e-05
3.72934e-05
4.1376e-05
4.36816e-05
4.81609e-05
5.06746e-05
5.5561e-05
5.81889e-05
6.32333e-05
6.59089e-05
7.11072e-05
7.39237e-05
7.94172e-05
8.23532e-05
8.80132e-05
9.09525e-05
9.66292e-05
9.96317e-05
1.09181e-05
1.18993e-05
1.64718e-05
2.68475e-05
4.48653e-05
6.11471e-05
8.5352e-05
0.000100029
0.000120266
0.000132876
0.000149491
0.000161065
0.000176432
0.000187728
0.000201785
0.000212628
0.000226542
0.000237125
0.000250923
0.000260751
0.000273823
0.000283044
0.000296315
0.000305508
0.000318987
0.000327836
0.000341207
0.000349233
0.000362848
0.000370187
1.10863e-05
2.91585e-05
7.64351e-05
0.000145596
0.000232405
0.000311138
0.000372791
0.000422384
0.000462119
0.000495387
0.000524028
0.000549735
0.000573447
0.000595997
0.000617506
0.000638323
0.000658501
0.000678059
0.000697267
0.000715642
0.000734147
0.000751591
0.000769893
0.00078633
0.000804507
0.000819296
0.000837333
0.000849789
0.000867797
0.000877767
2.50501e-05
0.00017859
0.0004044
0.000668973
0.000868008
0.000994605
0.00107552
0.00113073
0.00117116
0.00120346
0.0012307
0.00125507
0.00127818
0.0013003
0.00132065
0.00133994
0.00135715
0.00137367
0.00138782
0.00140193
0.00141326
0.00142547
0.00143409
0.00144472
0.00145064
0.0014598
0.00146352
0.00147101
0.00147314
0.00147782
0.000226672
0.000915588
0.00160348
0.00194172
0.00209615
0.0021503
0.00216169
0.00215899
0.00215142
0.00213918
0.00212613
0.00211264
0.00209854
0.00208453
0.00207079
0.00205755
0.00204467
0.00203246
0.00202043
0.00200931
0.00199793
0.00198801
0.00197688
0.00196854
0.0019571
0.00195097
0.00193885
0.001934
0.00191909
0.00191934
0.00126645
0.00290497
0.00336034
0.00333144
0.00319294
0.0029908
0.00282757
0.00270372
0.00261052
0.00253817
0.00247984
0.00243118
0.00238944
0.00235289
0.00232038
0.00229124
0.00226488
0.00224105
0.00221922
0.00219944
0.00218101
0.00216447
0.00214853
0.00213485
0.00212064
0.00210981
0.0020965
0.00208873
0.00207424
0.00208612
0.00537552
0.00567637
0.00565583
0.00561603
0.00559131
0.00557433
0.00556332
0.00555818
0.00555867
0.0055634
0.00557103
0.00558002
0.00558932
0.00559853
0.00560753
0.00561642
0.00562529
0.00563404
0.00564247
0.00565036
0.00565761
0.00566422
0.00567031
0.00567603
0.00568153
0.00568688
0.00569216
0.00569737
0.00570254
0.00570764
0.00571268
0.00571767
0.00572259
0.00572747
0.00573229
0.00573708
0.00574182
0.00574653
0.00575121
0.00575587
0.00576049
0.00576509
0.00576967
0.00577422
0.00577875
0.00578325
0.00578773
0.00579219
0.00579663
0.00580104
0.00580544
0.0058098
0.00581415
0.00581846
0.00582275
0.00582702
0.00583126
0.00583547
0.00583965
0.0058438
0.00584793
0.00585202
0.00585608
0.00586012
0.00586412
0.00586809
0.00587204
0.00587594
0.00587982
0.00588366
0.00588746
0.00589123
0.00589497
0.00589867
0.00590234
0.00590597
0.00590956
0.00591312
0.00591664
0.00592012
0.00592357
0.00592698
0.00593036
0.0059337
0.005937
0.00594026
0.00594348
0.00594666
0.00594979
0.0059529
0.00595596
0.00595898
0.00596196
0.00596491
0.00596782
0.00597068
0.00597351
0.00597629
0.00597903
0.00598172
0.00598438
0.005987
0.00598957
0.00599211
0.00599459
0.00599704
0.00599944
0.00600181
0.00600412
0.00600641
0.00600862
0.00601084
0.00601292
0.00601512
0.00601702
0.00601928
0.00602088
0.00602338
0.00602446
0.00602761
0.00523273
0.00583714
0.00593749
0.00593076
0.00591101
0.00589502
0.0058842
0.00587713
0.00587335
0.00587223
0.00587279
0.00587406
0.0058754
0.00587647
0.00587709
0.00587744
0.00587776
0.00587814
0.00587857
0.00587893
0.00587912
0.00587908
0.00587881
0.0058784
0.00587792
0.00587745
0.00587703
0.00587668
0.0058764
0.00587618
0.00587602
0.00587593
0.00587588
0.00587589
0.00587594
0.00587603
0.00587617
0.00587636
0.00587659
0.00587686
0.00587718
0.00587754
0.00587795
0.00587839
0.00587888
0.00587941
0.00587997
0.00588058
0.00588123
0.00588191
0.00588263
0.00588339
0.00588419
0.00588502
0.00588588
0.00588678
0.00588771
0.00588867
0.00588967
0.0058907
0.00589175
0.00589284
0.00589395
0.0058951
0.00589627
0.00589747
0.0058987
0.00589995
0.00590123
0.00590254
0.00590386
0.00590521
0.00590659
0.00590798
0.0059094
0.00591083
0.00591229
0.00591377
0.00591526
0.00591678
0.00591831
0.00591986
0.00592143
0.00592301
0.00592461
0.00592623
0.00592786
0.0059295
0.00593116
0.00593283
0.00593452
0.00593621
0.00593792
0.00593963
0.00594137
0.00594311
0.00594486
0.00594662
0.00594839
0.00595017
0.00595196
0.00595375
0.00595556
0.00595737
0.00595918
0.00596101
0.00596284
0.00596468
0.00596651
0.00596839
0.00597021
0.00597212
0.00597389
0.00597589
0.00597756
0.00597974
0.00598118
0.0059837
0.00598478
0.00598794
0.00397428
0.00482902
0.00511284
0.00520041
0.00523037
0.00524632
0.00525851
0.00526789
0.00527462
0.00527923
0.00528228
0.00528406
0.00528469
0.00528456
0.00528334
0.00528114
0.00527839
0.00527534
0.00527228
0.00526935
0.00526657
0.00526387
0.00526121
0.00525851
0.00525578
0.00525302
0.00525024
0.00524749
0.00524477
0.00524209
0.00523945
0.00523687
0.00523433
0.00523184
0.00522941
0.00522702
0.00522468
0.0052224
0.00522016
0.00521798
0.00521584
0.00521376
0.00521173
0.00520975
0.00520782
0.00520594
0.00520411
0.00520233
0.0052006
0.00519893
0.0051973
0.00519573
0.0051942
0.00519273
0.00519131
0.00518993
0.00518861
0.00518734
0.00518612
0.00518494
0.00518382
0.00518275
0.00518173
0.00518075
0.00517983
0.00517895
0.00517812
0.00517734
0.00517661
0.00517593
0.00517529
0.0051747
0.00517416
0.00517367
0.00517323
0.00517283
0.00517247
0.00517217
0.00517191
0.0051717
0.00517153
0.00517141
0.00517133
0.00517129
0.0051713
0.00517136
0.00517146
0.0051716
0.00517179
0.00517202
0.00517229
0.00517261
0.00517297
0.00517337
0.00517381
0.00517429
0.00517481
0.00517538
0.00517599
0.00517663
0.00517732
0.00517805
0.00517882
0.00517963
0.00518047
0.00518136
0.00518228
0.00518326
0.00518424
0.00518531
0.00518634
0.00518752
0.00518859
0.00518992
0.00519095
0.00519248
0.00519341
0.00519523
0.00519604
0.00519832
0.00221587
0.00327648
0.0038432
0.00412037
0.00426553
0.00435455
0.00441654
0.00446067
0.00449078
0.00451015
0.00452202
0.00452904
0.00453296
0.00453503
0.00453514
0.00453436
0.00453223
0.00452914
0.00452577
0.00452252
0.00451961
0.00451707
0.00451486
0.00451283
0.00451088
0.00450892
0.00450691
0.00450485
0.00450275
0.00450063
0.00449851
0.00449639
0.0044943
0.00449224
0.0044902
0.0044882
0.00448622
0.00448428
0.00448238
0.0044805
0.00447866
0.00447686
0.00447508
0.00447335
0.00447165
0.00446998
0.00446835
0.00446676
0.0044652
0.00446368
0.00446219
0.00446074
0.00445932
0.00445794
0.0044566
0.0044553
0.00445403
0.0044528
0.00445161
0.00445045
0.00444933
0.00444825
0.0044472
0.0044462
0.00444523
0.0044443
0.0044434
0.00444254
0.00444172
0.00444093
0.00444019
0.00443948
0.00443881
0.00443818
0.00443758
0.00443702
0.0044365
0.00443602
0.00443557
0.00443517
0.0044348
0.00443446
0.00443416
0.0044339
0.00443368
0.00443349
0.00443334
0.00443323
0.00443316
0.00443312
0.00443312
0.00443315
0.00443322
0.00443332
0.00443347
0.00443364
0.00443385
0.0044341
0.00443439
0.00443471
0.00443507
0.00443546
0.00443588
0.00443634
0.00443684
0.00443737
0.00443793
0.00443855
0.00443917
0.00443987
0.00444053
0.00444134
0.00444202
0.00444295
0.00444362
0.00444471
0.00444534
0.00444662
0.00444721
0.00444883
0.000898539
0.00142933
0.00213879
0.00265335
0.00299192
0.00321661
0.00336924
0.00347268
0.00354077
0.00358379
0.00360999
0.00362571
0.00363518
0.00364107
0.00364451
0.00364621
0.00364601
0.00364506
0.00364304
0.00364084
0.00363898
0.00363763
0.00363679
0.00363635
0.00363617
0.0036361
0.003636
0.00363583
0.00363556
0.00363522
0.00363485
0.00363445
0.00363404
0.00363364
0.00363324
0.00363285
0.00363248
0.00363212
0.00363178
0.00363145
0.00363113
0.00363083
0.00363054
0.00363027
0.00363001
0.00362977
0.00362955
0.00362935
0.00362915
0.00362897
0.00362881
0.00362867
0.00362853
0.00362842
0.00362831
0.00362823
0.00362815
0.0036281
0.00362806
0.00362804
0.00362803
0.00362803
0.00362805
0.00362809
0.00362814
0.00362821
0.00362829
0.00362839
0.0036285
0.00362862
0.00362876
0.00362892
0.00362909
0.00362927
0.00362947
0.00362969
0.00362992
0.00363016
0.00363042
0.0036307
0.00363099
0.00363129
0.00363161
0.00363193
0.00363228
0.00363263
0.00363299
0.00363337
0.00363378
0.00363421
0.00363464
0.00363509
0.00363554
0.003636
0.00363649
0.00363698
0.00363749
0.003638
0.00363853
0.00363908
0.00363965
0.00364023
0.00364081
0.00364141
0.00364202
0.00364265
0.00364327
0.00364393
0.00364458
0.00364532
0.00364598
0.00364675
0.00364736
0.0036482
0.00364878
0.00364974
0.00365028
0.00365133
0.00365184
0.00365314
0.000241983
0.000402806
0.000690855
0.00107916
0.00149252
0.00184281
0.00211707
0.0023188
0.00245989
0.0025549
0.00261743
0.00265823
0.00268505
0.00270314
0.00271558
0.00272405
0.00272933
0.00273232
0.00273356
0.00273387
0.00273391
0.0027341
0.00273463
0.00273556
0.00273674
0.00273805
0.00273936
0.00274065
0.00274188
0.00274305
0.00274417
0.00274525
0.00274631
0.00274735
0.0027484
0.00274945
0.00275049
0.00275153
0.00275258
0.00275363
0.00275469
0.00275574
0.0027568
0.00275785
0.00275891
0.00275998
0.00276104
0.0027621
0.00276316
0.00276422
0.00276529
0.00276635
0.00276741
0.00276847
0.00276953
0.0027706
0.00277166
0.00277272
0.00277377
0.00277482
0.00277588
0.00277694
0.002778
0.00277905
0.0027801
0.00278114
0.00278217
0.0027832
0.00278423
0.00278526
0.00278629
0.00278732
0.00278835
0.00278937
0.00279038
0.0027914
0.00279241
0.00279341
0.00279442
0.00279541
0.0027964
0.00279739
0.00279837
0.00279934
0.00280032
0.00280129
0.00280226
0.00280323
0.00280418
0.00280511
0.00280605
0.00280698
0.00280792
0.00280886
0.00280977
0.00281068
0.00281158
0.0028125
0.00281342
0.0028143
0.00281517
0.00281604
0.00281692
0.00281779
0.00281864
0.0028195
0.00282034
0.0028212
0.00282198
0.00282282
0.00282353
0.00282443
0.00282512
0.00282608
0.00282668
0.00282765
0.00282816
0.00282916
0.00282964
0.00283084
0.000240366
0.000398595
0.000683225
0.00106701
0.00148526
0.00184112
0.00211854
0.00232142
0.00246294
0.00255846
0.00262163
0.0026631
0.00269059
0.00270931
0.00272232
0.00273133
0.00273705
0.00274035
0.00274179
0.00274217
0.00274218
0.00274231
0.00274275
0.00274359
0.0027447
0.00274594
0.0027472
0.00274844
0.00274963
0.00275075
0.00275183
0.00275288
0.0027539
0.00275492
0.00275594
0.00275695
0.00275796
0.00275898
0.00276
0.00276102
0.00276204
0.00276307
0.0027641
0.00276513
0.00276616
0.00276719
0.00276822
0.00276926
0.0027703
0.00277133
0.00277237
0.00277341
0.00277445
0.00277548
0.00277652
0.00277756
0.0027786
0.00277963
0.00278066
0.00278169
0.00278272
0.00278376
0.00278479
0.00278582
0.00278684
0.00278787
0.00278888
0.00278989
0.00279091
0.00279192
0.00279293
0.00279394
0.00279495
0.00279595
0.00279695
0.00279794
0.00279893
0.00279992
0.00280091
0.00280189
0.00280286
0.00280383
0.0028048
0.00280576
0.00280672
0.00280768
0.00280864
0.0028096
0.00281053
0.00281145
0.00281237
0.00281329
0.00281422
0.00281515
0.00281606
0.00281695
0.00281785
0.00281876
0.00281967
0.00282055
0.00282141
0.00282227
0.00282314
0.00282401
0.00282486
0.00282572
0.00282655
0.0028274
0.00282818
0.00282901
0.00282972
0.00283061
0.00283131
0.00283226
0.00283286
0.00283383
0.00283433
0.00283533
0.00283581
0.00283701
0.000897285
0.00142402
0.00212903
0.00264717
0.00299216
0.00322147
0.00337616
0.00348023
0.00354861
0.00359199
0.00361879
0.00363507
0.00364507
0.00365137
0.00365514
0.00365719
0.00365712
0.00365631
0.00365435
0.00365207
0.00365008
0.00364858
0.00364759
0.003647
0.00364669
0.00364651
0.00364632
0.00364608
0.00364577
0.00364541
0.00364502
0.00364461
0.0036442
0.00364379
0.00364339
0.003643
0.00364262
0.00364225
0.0036419
0.00364156
0.00364124
0.00364093
0.00364064
0.00364037
0.00364011
0.00363987
0.00363964
0.00363942
0.00363922
0.00363904
0.00363888
0.00363873
0.00363859
0.00363848
0.00363837
0.00363828
0.00363821
0.00363815
0.00363811
0.00363808
0.00363807
0.00363807
0.00363808
0.00363811
0.00363816
0.00363823
0.00363831
0.00363841
0.00363853
0.00363866
0.0036388
0.00363895
0.00363912
0.00363931
0.00363951
0.00363972
0.00363995
0.00364019
0.00364045
0.00364072
0.00364101
0.00364131
0.00364163
0.00364196
0.00364231
0.00364267
0.00364303
0.00364341
0.00364382
0.00364425
0.00364468
0.00364512
0.00364557
0.00364604
0.00364653
0.00364704
0.00364756
0.00364807
0.0036486
0.00364916
0.00364973
0.00365032
0.0036509
0.0036515
0.00365212
0.00365275
0.00365338
0.00365405
0.00365471
0.00365544
0.00365612
0.00365688
0.0036575
0.00365833
0.00365892
0.00365989
0.00366043
0.00366151
0.00366203
0.00366335
0.00222091
0.0032717
0.00384305
0.00412541
0.00427418
0.00436436
0.00442609
0.00446982
0.00449994
0.00451961
0.00453176
0.00453873
0.00454252
0.0045441
0.0045438
0.00454256
0.00453987
0.00453647
0.00453286
0.00452941
0.00452636
0.00452373
0.00452143
0.00451935
0.00451735
0.00451536
0.00451333
0.00451127
0.00450919
0.0045071
0.00450501
0.00450295
0.0045009
0.00449888
0.00449689
0.00449493
0.004493
0.00449111
0.00448924
0.00448741
0.00448562
0.00448385
0.00448213
0.00448043
0.00447877
0.00447715
0.00447556
0.00447401
0.00447249
0.00447101
0.00446956
0.00446815
0.00446677
0.00446544
0.00446413
0.00446286
0.00446163
0.00446044
0.00445928
0.00445816
0.00445708
0.00445603
0.00445502
0.00445405
0.00445311
0.00445221
0.00445135
0.00445052
0.00444973
0.00444898
0.00444827
0.00444759
0.00444695
0.00444635
0.00444578
0.00444525
0.00444475
0.0044443
0.00444388
0.00444349
0.00444315
0.00444284
0.00444257
0.00444233
0.00444214
0.00444197
0.00444185
0.00444176
0.0044417
0.00444169
0.00444171
0.00444176
0.00444184
0.00444197
0.00444214
0.00444233
0.00444257
0.00444284
0.00444314
0.00444348
0.00444385
0.00444426
0.0044447
0.00444518
0.00444569
0.00444624
0.00444681
0.00444744
0.00444807
0.00444878
0.00444946
0.00445027
0.00445097
0.0044519
0.00445259
0.00445369
0.00445432
0.00445562
0.00445622
0.00445786
0.0039791
0.004832
0.00512085
0.00521083
0.0052406
0.00525457
0.00526475
0.00527309
0.00527961
0.00528423
0.00528704
0.00528804
0.00528799
0.00528684
0.00528433
0.00528123
0.00527768
0.00527406
0.00527064
0.00526753
0.0052647
0.00526203
0.00525941
0.00525678
0.00525411
0.00525141
0.0052487
0.005246
0.00524334
0.00524072
0.00523815
0.00523563
0.00523316
0.00523074
0.00522836
0.00522604
0.00522377
0.00522154
0.00521937
0.00521724
0.00521517
0.00521314
0.00521117
0.00520924
0.00520736
0.00520554
0.00520377
0.00520204
0.00520037
0.00519874
0.00519717
0.00519564
0.00519417
0.00519274
0.00519137
0.00519004
0.00518877
0.00518754
0.00518636
0.00518524
0.00518416
0.00518313
0.00518214
0.00518121
0.00518033
0.00517949
0.0051787
0.00517795
0.00517726
0.00517661
0.00517601
0.00517546
0.00517495
0.00517449
0.00517408
0.00517371
0.00517339
0.00517311
0.00517288
0.00517269
0.00517255
0.00517246
0.0051724
0.0051724
0.00517243
0.00517252
0.00517264
0.00517281
0.00517302
0.00517326
0.00517355
0.00517388
0.00517426
0.00517468
0.00517514
0.00517564
0.00517618
0.00517677
0.00517739
0.00517805
0.00517875
0.00517949
0.00518027
0.00518109
0.00518194
0.00518285
0.00518378
0.00518476
0.00518575
0.00518682
0.00518785
0.00518904
0.00519011
0.00519144
0.00519248
0.005194
0.00519493
0.00519676
0.00519755
0.00519984
0.00523603
0.0058439
0.00594471
0.00593699
0.00591412
0.00589404
0.00588038
0.00587201
0.00586769
0.00586598
0.00586561
0.0058656
0.00586556
0.00586516
0.00586437
0.00586353
0.00586287
0.00586256
0.00586256
0.00586273
0.00586288
0.0058629
0.00586273
0.00586242
0.00586203
0.00586162
0.00586125
0.00586093
0.00586067
0.00586048
0.00586034
0.00586025
0.00586021
0.00586021
0.00586027
0.00586037
0.00586051
0.0058607
0.00586094
0.00586122
0.00586154
0.0058619
0.0058623
0.00586275
0.00586324
0.00586376
0.00586433
0.00586494
0.00586558
0.00586626
0.00586698
0.00586774
0.00586853
0.00586936
0.00587022
0.00587111
0.00587204
0.005873
0.00587399
0.00587502
0.00587607
0.00587715
0.00587826
0.0058794
0.00588057
0.00588176
0.00588298
0.00588423
0.0058855
0.00588679
0.00588811
0.00588945
0.00589082
0.00589221
0.00589362
0.00589505
0.0058965
0.00589797
0.00589946
0.00590096
0.00590249
0.00590403
0.00590559
0.00590717
0.00590876
0.00591036
0.00591197
0.00591361
0.00591526
0.00591693
0.00591861
0.00592029
0.00592199
0.0059237
0.00592542
0.00592716
0.00592889
0.00593064
0.00593239
0.00593416
0.00593595
0.00593773
0.00593952
0.00594132
0.00594313
0.00594495
0.00594675
0.00594859
0.00595041
0.00595229
0.00595409
0.005956
0.00595775
0.00595975
0.00596141
0.00596358
0.00596502
0.00596754
0.00596859
0.00597175
0.00536789
0.00567158
0.00564656
0.00560462
0.00557574
0.00555459
0.00554086
0.00553433
0.00553379
0.00553736
0.00554338
0.0055506
0.00555822
0.00556586
0.00557349
0.00558123
0.00558917
0.00559718
0.00560506
0.00561256
0.00561952
0.00562594
0.00563188
0.0056375
0.00564289
0.00564816
0.00565335
0.00565848
0.00566354
0.00566855
0.0056735
0.00567839
0.00568323
0.00568802
0.00569276
0.00569747
0.00570214
0.00570678
0.00571138
0.00571596
0.00572051
0.00572503
0.00572954
0.00573402
0.00573848
0.00574292
0.00574733
0.00575173
0.0057561
0.00576045
0.00576478
0.00576909
0.00577337
0.00577763
0.00578186
0.00578607
0.00579025
0.0057944
0.00579853
0.00580264
0.00580671
0.00581076
0.00581478
0.00581876
0.00582272
0.00582664
0.00583053
0.00583439
0.00583822
0.00584202
0.00584578
0.00584952
0.00585322
0.00585688
0.00586051
0.00586411
0.00586767
0.00587119
0.00587469
0.00587814
0.00588156
0.00588494
0.00588828
0.00589159
0.00589486
0.00589809
0.00590128
0.00590444
0.00590757
0.00591065
0.0059137
0.0059167
0.00591966
0.00592259
0.00592547
0.00592831
0.00593112
0.00593388
0.00593661
0.00593929
0.00594194
0.00594454
0.0059471
0.00594963
0.0059521
0.00595454
0.00595693
0.0059593
0.0059616
0.00596389
0.00596609
0.00596833
0.00597039
0.0059726
0.00597449
0.00597675
0.00597835
0.00598084
0.0059819
0.00598507
)
;

boundaryField
{
    upperWall
    {
        type            zeroGradient;
    }
    lowerWall
    {
        type            zeroGradient;
    }
    heatedWall
    {
        type            zeroGradient;
    }
    inlet
    {
        type            zeroGradient;
    }
    outlet
    {
        type            zeroGradient;
    }
    frontAndBack
    {
        type            empty;
    }
}


// ************************************************************************* //
