/*--------------------------------*- C++ -*----------------------------------*\
  =========                 |
  \\      /  F ield         | OpenFOAM: The Open Source CFD Toolbox
   \\    /   O peration     | Website:  https://openfoam.org
    \\  /    A nd           | Version:  7
     \\/     M anipulation  |
\*---------------------------------------------------------------------------*/
FoamFile
{
    version     2.0;
    format      ascii;
    class       volSymmTensorField;
    location    "0.64";
    object      UPrime2Mean;
}
// * * * * * * * * * * * * * * * * * * * * * * * * * * * * * * * * * * * * * //

dimensions      [0 2 -2 0 0 0 0];

internalField   nonuniform List<symmTensor> 
7920
(
(0.0361872 -0.0028694 -0.00384466 0.000388324 0.000453555 0.000997555)
(0.152029 0.0208471 -0.0122562 0.00368133 -0.00155258 0.00382918)
(0.227988 0.037085 -0.0188034 0.00789934 -0.00264842 0.00846548)
(0.301335 0.0479547 -0.022523 0.00988963 -0.00270259 0.0117141)
(0.311241 0.0482217 -0.0260154 0.0105824 -0.00290059 0.0130401)
(0.348467 0.0509552 -0.0275491 0.0108034 -0.0026899 0.0120185)
(0.342927 0.0487774 -0.0296375 0.0109558 -0.00287484 0.0106401)
(0.368203 0.0499942 -0.0300343 0.0109772 -0.00276078 0.00888315)
(0.360055 0.0476985 -0.0310821 0.011044 -0.0029349 0.00775921)
(0.379426 0.048289 -0.030726 0.011042 -0.00281971 0.00675232)
(0.371484 0.0461218 -0.0309326 0.0110775 -0.00289986 0.00628747)
(0.386839 0.0462577 -0.0301058 0.011069 -0.00275349 0.00585123)
(0.379925 0.0442922 -0.0297594 0.0110882 -0.00276375 0.00569757)
(0.392156 0.0441025 -0.0289117 0.0110835 -0.00262483 0.00556386)
(0.386762 0.042342 -0.0281725 0.011087 -0.00257635 0.00547218)
(0.396276 0.0418989 -0.0277955 0.011107 -0.00249274 0.00559315)
(0.392896 0.0401393 -0.0263839 0.0110074 -0.00231533 0.00534264)
(0.40052 0.0397653 -0.0273109 0.0112346 -0.00243145 0.00581394)
(0.395307 0.0342806 -0.0238636 0.00961736 -0.00168469 0.00516712)
(0.429419 0.0462957 -0.0271409 0.0119433 -0.00279448 0.00579486)
(0.0111697 0.00140634 0.000452757 0.0181016 0.00287809 0.00077473)
(0.0219505 -0.0106209 -0.00213778 0.0199701 0.00434093 0.00273707)
(0.0628352 -0.0188221 -0.00669618 0.0171281 0.00491625 0.00612862)
(0.119094 -0.0258191 -0.0127587 0.0138367 0.00434347 0.00938239)
(0.173546 -0.0251701 -0.0187477 0.012385 0.00399765 0.0118898)
(0.224494 -0.0268706 -0.0237567 0.0117347 0.00341577 0.0123449)
(0.266839 -0.024917 -0.0281896 0.0114897 0.0032014 0.0118745)
(0.304689 -0.025461 -0.0310293 0.0113363 0.00287198 0.0105732)
(0.336423 -0.0234227 -0.0334462 0.0112929 0.00283996 0.00935194)
(0.365187 -0.0233391 -0.0344864 0.0112179 0.00266683 0.00815432)
(0.389614 -0.0213684 -0.0353541 0.0112094 0.00267402 0.00727082)
(0.412232 -0.020863 -0.0352358 0.0111553 0.00254702 0.00653532)
(0.431674 -0.0190699 -0.0350838 0.0111611 0.00253541 0.00600895)
(0.450028 -0.0182905 -0.0344976 0.0111266 0.00244315 0.00565998)
(0.466387 -0.0167113 -0.033523 0.0111238 0.00237681 0.00531019)
(0.482031 -0.0155351 -0.0331525 0.0111586 0.00234771 0.00535137)
(0.495406 -0.014334 -0.031206 0.0110314 0.00214946 0.00497659)
(0.512819 -0.011353 -0.0320149 0.0112595 0.00222252 0.00546941)
(0.506719 -0.0115131 -0.0278302 0.0109084 0.00175149 0.00485002)
(0.535321 0.00355901 -0.0293646 0.010117 0.00156135 0.00560787)
(0.0150118 0.00230829 0.00165304 0.00257436 0.000863595 0.000750587)
(0.0261286 -0.00078114 0.00371217 0.00364772 0.000182158 0.00241651)
(0.0493235 -0.00658145 0.00666213 0.00591407 1.06945e-05 0.00486044)
(0.0522326 -0.00941626 0.00625526 0.00809214 -0.000154371 0.00730548)
(0.0660665 -0.0145653 0.00640232 0.00910456 -0.000675063 0.0100706)
(0.074087 -0.0148172 0.00415106 0.00964741 -0.00103741 0.0120427)
(0.0909849 -0.017893 0.00253837 0.00994459 -0.00168627 0.0134922)
(0.10747 -0.0170529 -0.000708747 0.0101275 -0.00199147 0.0137549)
(0.127938 -0.0190577 -0.00296287 0.0102808 -0.00237712 0.0134685)
(0.149387 -0.0181703 -0.00574709 0.0103965 -0.00246415 0.0124698)
(0.171029 -0.0197993 -0.00720995 0.0104947 -0.00261707 0.0113642)
(0.194156 -0.0192516 -0.00883476 0.0105809 -0.00257375 0.0100746)
(0.215079 -0.0207471 -0.00941619 0.0106473 -0.00260368 0.00888033)
(0.238222 -0.0206528 -0.0101577 0.0107 -0.00250909 0.00781331)
(0.257821 -0.0222007 -0.0100284 0.0107727 -0.0024866 0.00679679)
(0.281085 -0.0221618 -0.00994948 0.0107142 -0.00241893 0.0061985)
(0.299107 -0.0245108 -0.00917385 0.0109693 -0.0022765 0.00544406)
(0.323841 -0.0225711 -0.00856131 0.0105474 -0.00258451 0.00545335)
(0.338359 -0.026508 -0.00743923 0.0108414 -0.00181133 0.00490606)
(0.370301 -0.0185519 -0.00554525 0.0141274 -0.00444365 0.00537483)
(0.0153675 0.00653792 0.00163973 0.00808721 0.00178607 0.000705419)
(0.0301012 0.0149419 0.00411944 0.0139131 0.0034126 0.00230748)
(0.075735 0.0290527 0.00958017 0.0163777 0.00464947 0.00451555)
(0.100916 0.0310089 0.012621 0.0152349 0.00463622 0.00655532)
(0.141728 0.0362813 0.017341 0.0142207 0.00467586 0.00911839)
(0.158784 0.0349371 0.0189485 0.0134025 0.00424517 0.0113546)
(0.189482 0.0379852 0.021409 0.0128366 0.00401119 0.0136307)
(0.202843 0.0364503 0.020392 0.012376 0.00353259 0.0149644)
(0.228912 0.0390019 0.0201994 0.0120798 0.00332882 0.0157462)
(0.243306 0.0379503 0.0176924 0.0117868 0.002973 0.0155231)
(0.267691 0.040281 0.0167594 0.011623 0.00286041 0.014857)
(0.284425 0.0397649 0.0145826 0.0114289 0.00264496 0.0136968)
(0.307777 0.0418889 0.0138358 0.0113446 0.00259348 0.0123544)
(0.326945 0.0418513 0.0123911 0.0112102 0.00249375 0.0109513)
(0.348927 0.0436773 0.0119904 0.0111762 0.0024489 0.00949908)
(0.370941 0.0441453 0.0118397 0.0110802 0.00243 0.00825696)
(0.390566 0.0454529 0.0120986 0.0110802 0.00240323 0.00706779)
(0.417369 0.0465669 0.0136742 0.0110078 0.00230165 0.0062795)
(0.43253 0.047003 0.0138238 0.010998 0.00230585 0.00556639)
(0.473443 0.0514235 0.0185836 0.0121676 0.00190287 0.00543235)
(0.015224 -0.000457519 0.00162515 0.000311068 -7.96396e-05 0.00070444)
(0.0283053 -0.00432185 0.00386294 0.0033055 -0.000996648 0.00234456)
(0.0781948 -0.0116917 0.00975533 0.00579212 -0.00132994 0.00451133)
(0.113102 -0.0148783 0.0135333 0.0078125 -0.00127978 0.00646939)
(0.171349 -0.0219713 0.0198884 0.00890532 -0.00154299 0.00886814)
(0.204749 -0.0242672 0.0231161 0.00944789 -0.00163949 0.0111163)
(0.25766 -0.030144 0.0277906 0.0097641 -0.00205962 0.0135151)
(0.285939 -0.0315053 0.0283136 0.00993427 -0.00220969 0.01526)
(0.332964 -0.0360059 0.029801 0.0100859 -0.00251739 0.0164936)
(0.358578 -0.0369002 0.0280027 0.0101819 -0.00256849 0.0168006)
(0.401006 -0.0405197 0.0279041 0.0102824 -0.00273207 0.0165563)
(0.42563 -0.0412946 0.0257351 0.0103495 -0.00269402 0.0156961)
(0.464382 -0.0443517 0.0252801 0.0104391 -0.00276853 0.0145531)
(0.488785 -0.0450818 0.023337 0.0104645 -0.00265248 0.0131212)
(0.524747 -0.0480037 0.0230183 0.0106001 -0.00270403 0.0116601)
(0.548212 -0.0483225 0.0220444 0.0104542 -0.00253099 0.0100972)
(0.583033 -0.0518333 0.0229329 0.0108758 -0.0025733 0.0087668)
(0.603681 -0.0519726 0.0237131 0.0102168 -0.00260921 0.00747925)
(0.635853 -0.0539509 0.0255421 0.0110944 -0.00225712 0.00657054)
(0.662807 -0.0659964 0.0303961 0.012987 -0.00394979 0.00609762)
(0.0149909 0.00323523 0.0015625 0.00203559 0.000867653 0.0006871)
(0.0259315 0.00822495 0.00349463 0.00650881 0.0020888 0.00231832)
(0.073324 0.0197772 0.00915671 0.00924857 0.00293634 0.00449392)
(0.108778 0.0236368 0.0129724 0.0101882 0.00293295 0.0064297)
(0.170278 0.0313706 0.0195916 0.0106603 0.00314616 0.008798)
(0.20923 0.0331287 0.0232657 0.0107876 0.002993 0.0110177)
(0.270407 0.0388764 0.0285594 0.0108718 0.00311872 0.0134182)
(0.306988 0.0396745 0.0296803 0.0108557 0.00294444 0.0152343)
(0.365276 0.0441137 0.0318294 0.0108761 0.00300163 0.0165899)
(0.400031 0.0445292 0.0304745 0.0108382 0.00282076 0.0170757)
(0.454675 0.0481107 0.0308318 0.0108476 0.00283628 0.017017)
(0.487945 0.0484804 0.0288218 0.0108112 0.0026728 0.0163325)
(0.538584 0.0514898 0.0285713 0.0108302 0.00267413 0.0153396)
(0.570671 0.0518747 0.0264493 0.0107863 0.00253119 0.0139802)
(0.617294 0.054618 0.0261084 0.0108451 0.00254239 0.012582)
(0.647752 0.0546971 0.0246806 0.0107189 0.00240982 0.0109587)
(0.690412 0.0578045 0.0256768 0.0109484 0.00244852 0.0096007)
(0.719242 0.0576104 0.0260335 0.0105564 0.0023907 0.00816433)
(0.752604 0.0595263 0.0285375 0.0110543 0.00228132 0.00712593)
(0.790258 0.0667848 0.0333536 0.0126517 0.00292314 0.00657667)
(0.0149909 -0.00323526 0.0015625 0.00203558 -0.000867656 0.000687103)
(0.0259315 -0.00822491 0.00349461 0.0065088 -0.00208879 0.00231832)
(0.0733241 -0.0197773 0.00915677 0.00924856 -0.00293637 0.00449392)
(0.108778 -0.0236368 0.0129723 0.0101881 -0.00293293 0.00642972)
(0.170278 -0.0313706 0.0195919 0.0106603 -0.0031462 0.00879797)
(0.20923 -0.0331285 0.0232653 0.0107876 -0.00299296 0.0110177)
(0.270407 -0.0388766 0.0285601 0.0108718 -0.00311883 0.0134182)
(0.306988 -0.0396745 0.029679 0.0108556 -0.00294431 0.0152341)
(0.365278 -0.0441138 0.0318316 0.0108761 -0.00300187 0.0165903)
(0.40003 -0.0445279 0.0304712 0.0108381 -0.00282041 0.0170747)
(0.454679 -0.0481097 0.0308369 0.0108474 -0.00283671 0.0170185)
(0.487942 -0.0484768 0.028815 0.0108106 -0.00267187 0.0163304)
(0.5386 -0.0514853 0.0285812 0.0108297 -0.00267474 0.0153421)
(0.570662 -0.0518576 0.026437 0.0107839 -0.00252894 0.0139774)
(0.617338 -0.0546106 0.0261243 0.0108444 -0.00254324 0.0125849)
(0.647733 -0.0546351 0.0246629 0.0107091 -0.00240345 0.0109559)
(0.690493 -0.0578052 0.025694 0.0109498 -0.00245012 0.00960299)
(0.719197 -0.0574297 0.026019 0.0105269 -0.00237531 0.00816388)
(0.752693 -0.0594932 0.0285329 0.0110543 -0.00227846 0.00712311)
(0.790179 -0.066503 0.0333729 0.0125953 -0.00290184 0.00658617)
(0.015224 0.000457487 0.00162517 0.000311065 7.96377e-05 0.000704448)
(0.0283053 0.00432188 0.00386289 0.00330549 0.000996638 0.00234456)
(0.0781948 0.0116917 0.0097555 0.00579211 0.00132993 0.00451134)
(0.113102 0.0148783 0.0135329 0.00781248 0.00127976 0.00646945)
(0.171349 0.0219713 0.0198891 0.00890529 0.001543 0.00886803)
(0.204749 0.0242673 0.0231147 0.0094478 0.00163944 0.0111163)
(0.25766 0.0301438 0.0277929 0.00976402 0.00205965 0.013515)
(0.285941 0.0315052 0.0283098 0.00993422 0.00220956 0.0152593)
(0.332961 0.0360059 0.0298073 0.0100858 0.00251758 0.0164949)
(0.358583 0.0369008 0.0279931 0.0101818 0.00256805 0.0167974)
(0.400999 0.0405209 0.0279188 0.0102825 0.00273283 0.0165613)
(0.425645 0.0412964 0.0257139 0.0103496 0.0026929 0.0156887)
(0.464365 0.0443562 0.0253112 0.0104396 0.00277069 0.014563)
(0.488825 0.0450934 0.0232948 0.0104658 0.00265035 0.0131096)
(0.524717 0.0480104 0.0230773 0.010601 0.00270854 0.0116741)
(0.548301 0.0483707 0.02197 0.0104613 0.00252939 0.0100824)
(0.583033 0.0518333 0.0230254 0.0108755 0.00258132 0.00878309)
(0.60388 0.0521295 0.0236194 0.0102443 0.00261199 0.00746558)
(0.636029 0.0539763 0.0256388 0.0110963 0.00227185 0.00657795)
(0.663284 0.0662764 0.0303715 0.0130585 0.00395743 0.00610787)
(0.0153675 -0.00653795 0.00163974 0.00808718 -0.0017861 0.000705428)
(0.0301012 -0.0149419 0.00411935 0.013913 -0.00341253 0.00230746)
(0.0757351 -0.0290527 0.00958041 0.0163777 -0.00464961 0.00451558)
(0.100916 -0.0310089 0.0126205 0.0152348 -0.00463599 0.00655533)
(0.141728 -0.0362814 0.0173418 0.0142207 -0.0046762 0.00911817)
(0.158784 -0.034937 0.0189467 0.0134025 -0.00424464 0.0113544)
(0.189482 -0.0379855 0.0214117 0.0128366 -0.004012 0.0136304)
(0.202843 -0.0364505 0.0203877 0.0123759 -0.00353139 0.0149633)
(0.228913 -0.0390022 0.0202067 0.0120798 -0.00333058 0.0157482)
(0.243308 -0.0379498 0.0176817 0.0117865 -0.00297042 0.0155177)
(0.267691 -0.0402811 0.0167773 0.0116228 -0.00286391 0.0148664)
(0.284431 -0.0397638 0.0145563 0.0114281 -0.00263945 0.0136817)
(0.307782 -0.0418883 0.0138802 0.0113441 -0.00260044 0.0123771)
(0.326962 -0.0418431 0.0123249 0.0112071 -0.00248134 0.0109212)
(0.348951 -0.0436792 0.0120979 0.0111763 -0.00246358 0.00953986)
(0.370977 -0.0441153 0.0116846 0.0110693 -0.0024015 0.00820604)
(0.390643 -0.0454698 0.0123277 0.0110836 -0.00243429 0.00713215)
(0.417421 -0.0464876 0.013375 0.0109792 -0.00224404 0.00620461)
(0.432715 -0.047034 0.0142069 0.0110062 -0.00235945 0.00564577)
(0.473551 -0.0513185 0.018166 0.0121376 -0.00181713 0.00536398)
(0.0150119 -0.00230833 0.00165305 0.00257434 -0.000863605 0.000750595)
(0.0261286 0.000781163 0.0037121 0.00364769 -0.000182126 0.00241648)
(0.0493235 0.00658143 0.00666222 0.00591404 -1.07181e-05 0.00486048)
(0.0522326 0.0094162 0.00625501 0.00809212 0.000154461 0.00730535)
(0.0660665 0.0145652 0.00640231 0.00910452 0.000675064 0.0100702)
(0.0740869 0.0148172 0.0041511 0.00964731 0.00103749 0.0120424)
(0.0909846 0.0178928 0.00253786 0.0099445 0.00168635 0.0134916)
(0.10747 0.0170526 -0.000706359 0.0101275 0.00199132 0.013754)
(0.127938 0.0190572 -0.00296705 0.0102808 0.00237765 0.0134706)
(0.149385 0.0181704 -0.0057375 0.0103962 0.00246293 0.0124643)
(0.17103 0.0197985 -0.00722562 0.0104949 0.00261948 0.0113763)
(0.194147 0.0192517 -0.00880795 0.0105807 0.00256921 0.0100543)
(0.215082 0.0207459 -0.00945358 0.0106479 0.0026116 0.00891579)
(0.238198 0.0206542 -0.0101051 0.0106999 0.00249561 0.00776051)
(0.257811 0.0221994 -0.0100856 0.0107745 0.0025094 0.00687705)
(0.281036 0.0221599 -0.00988626 0.0107168 0.00238291 0.00608503)
(0.299044 0.0245084 -0.00920494 0.0109709 0.00233801 0.00559966)
(0.323763 0.0225842 -0.00854128 0.0105648 0.00248687 0.00524369)
(0.33816 0.0265146 -0.00734883 0.0108461 0.00196199 0.00515715)
(0.370105 0.0186773 -0.00560074 0.0141861 0.00410918 0.00507183)
(0.0111698 -0.0014064 0.000452764 0.0181016 -0.00287809 0.000774739)
(0.0219506 0.0106209 -0.00213776 0.0199701 -0.00434088 0.00273706)
(0.0628352 0.018822 -0.00669627 0.0171281 -0.00491631 0.00612867)
(0.119094 0.025819 -0.0127584 0.0138367 -0.00434334 0.00938221)
(0.173546 0.02517 -0.0187486 0.012385 -0.00399783 0.0118895)
(0.224494 0.0268704 -0.0237545 0.0117347 -0.00341549 0.0123448)
(0.266839 0.0249168 -0.0281936 0.0114897 -0.00320193 0.0118742)
(0.304688 0.0254603 -0.0310212 0.0113364 -0.00287121 0.0105733)
(0.336422 0.0234224 -0.0334617 0.011293 -0.0028413 0.00935392)
(0.365181 0.0233373 -0.0344591 0.0112176 -0.00266461 0.00815128)
(0.389611 0.0213675 -0.0354039 0.0112095 -0.00267741 0.00728064)
(0.412211 0.0208584 -0.0351515 0.0111549 -0.00254093 0.00651907)
(0.431665 0.0190676 -0.0352263 0.0111613 -0.00254464 0.00604091)
(0.449965 0.0182785 -0.034265 0.0111246 -0.00242581 0.00560747)
(0.466346 0.0167083 -0.0338914 0.0111249 -0.00240432 0.00539789)
(0.481896 0.0155066 -0.0325794 0.0111523 -0.00229554 0.00521222)
(0.495196 0.0143359 -0.032065 0.0110366 -0.00223648 0.00518535)
(0.512653 0.011299 -0.0307403 0.0112431 -0.00206102 0.00515953)
(0.506026 0.0115243 -0.0296975 0.0109285 -0.0020349 0.00525273)
(0.535481 -0.00345341 -0.0267211 0.0101273 -0.00115183 0.00505055)
(0.0361873 0.00286932 -0.00384456 0.000388314 -0.000453533 0.000997566)
(0.152029 -0.0208471 -0.0122561 0.00368133 0.0015526 0.00382924)
(0.227988 -0.0370851 -0.0188035 0.00789935 0.00264847 0.00846575)
(0.301336 -0.0479547 -0.0225225 0.00988963 0.00270253 0.0117144)
(0.311241 -0.0482219 -0.0260159 0.0105824 0.00290065 0.0130405)
(0.348468 -0.0509548 -0.0275484 0.0108033 0.00268984 0.0120193)
(0.342927 -0.0487774 -0.0296413 0.0109557 0.00287526 0.0106409)
(0.368203 -0.0499938 -0.0300314 0.0109771 0.00276052 0.00888418)
(0.360056 -0.0476987 -0.0310931 0.0110439 0.00293594 0.00776169)
(0.379424 -0.0482872 -0.0307123 0.0110415 0.00281841 0.00675053)
(0.371484 -0.0461223 -0.0309636 0.0110775 0.0029025 0.00629583)
(0.38683 -0.0462545 -0.0300573 0.0110684 0.0027492 0.00583894)
(0.379926 -0.0442936 -0.0298492 0.0110886 0.00277114 0.00572298)
(0.392127 -0.0440935 -0.0287619 0.0110817 0.00261159 0.00552203)
(0.386756 -0.0423462 -0.0284299 0.0110888 0.00259846 0.00554587)
(0.396208 -0.0418821 -0.0273654 0.0111032 0.00245196 0.00547033)
(0.392831 -0.0401506 -0.0270973 0.011013 0.00238586 0.00554187)
(0.400415 -0.0397449 -0.0261363 0.0112282 0.00229635 0.00550135)
(0.395005 -0.0343467 -0.0256947 0.00964044 0.00190821 0.00558384)
(0.42911 -0.0463806 -0.0245275 0.0119802 0.00231634 0.00531042)
(0.0121542 -0.000997804 6.07435e-05 0.00670688 5.88297e-05 1.59344e-06)
(0.099706 -0.0340478 -1.58443e-05 0.0158292 6.33318e-05 1.22161e-06)
(0.210663 -0.0487451 7.35153e-06 0.0182268 8.86113e-05 1.42943e-06)
(0.398091 -0.0667898 5.94657e-05 0.0178524 6.74747e-05 1.19971e-06)
(0.419183 -0.0636554 2.97208e-05 0.0182757 9.20814e-05 1.3762e-06)
(0.532178 -0.0746701 8.48895e-05 0.0189763 7.38803e-05 1.16088e-06)
(0.506244 -0.0697953 3.39616e-05 0.0195874 9.72579e-05 1.31858e-06)
(0.5894 -0.0776103 8.83362e-05 0.0200414 7.9373e-05 1.12141e-06)
(0.557596 -0.0720503 3.4785e-05 0.0203014 0.00010008 1.26236e-06)
(0.624324 -0.0774052 8.86897e-05 0.0204893 8.25882e-05 1.08546e-06)
(0.593613 -0.071994 3.53563e-05 0.0205947 0.000100736 1.20557e-06)
(0.64771 -0.0756854 8.83916e-05 0.0206876 8.41239e-05 1.04621e-06)
(0.620318 -0.0707488 3.67384e-05 0.0207368 0.00010006 1.14444e-06)
(0.664556 -0.0732722 8.99316e-05 0.0208024 8.43445e-05 1.00161e-06)
(0.641277 -0.0688497 4.11936e-05 0.0208017 9.81098e-05 1.08026e-06)
(0.678002 -0.0705974 9.63124e-05 0.0209452 8.33608e-05 9.5403e-07)
(0.657384 -0.0661656 4.98212e-05 0.0205542 9.41536e-05 1.01605e-06)
(0.690161 -0.0678757 0.00011418 0.0218122 8.26704e-05 9.05651e-07)
(0.661951 -0.0544193 5.23626e-05 0.0164755 8.31158e-05 9.57713e-07)
(0.640466 -0.0485579 0.000173888 0.0177308 6.85352e-05 8.34727e-07)
(0.0171814 0.000671878 8.10195e-05 0.0012011 -1.83007e-05 1.22023e-06)
(0.0138004 -6.18419e-05 4.5703e-05 0.00373742 -4.37461e-05 9.92406e-07)
(0.0287296 -0.00614245 0.000137599 0.00777687 -7.06133e-05 1.15873e-06)
(0.0510596 -0.000169161 0.000140044 0.011828 -6.36526e-05 9.78934e-07)
(0.0766566 -0.00300938 0.000192802 0.0149798 -8.21139e-05 1.11314e-06)
(0.131703 0.00801369 0.000205822 0.0170587 -6.45367e-05 9.34818e-07)
(0.158574 0.00435267 0.00023303 0.018144 -8.48328e-05 1.05836e-06)
(0.220624 0.0130739 0.000248271 0.0188487 -6.67538e-05 8.95379e-07)
(0.241778 0.00869801 0.000261717 0.0192569 -8.55884e-05 1.0103e-06)
(0.29944 0.0151762 0.000276399 0.0195875 -6.79084e-05 8.6245e-07)
(0.314218 0.0107714 0.000279912 0.0197992 -8.48271e-05 9.61517e-07)
(0.364229 0.0154184 0.000292979 0.0199929 -6.81347e-05 8.26244e-07)
(0.374245 0.0111822 0.000289325 0.0201073 -8.32604e-05 9.07439e-07)
(0.416835 0.0143943 0.000302036 0.0202514 -6.76011e-05 7.84974e-07)
(0.424256 0.0103706 0.000294229 0.0202778 -8.09277e-05 8.50186e-07)
(0.461468 0.0128155 0.000308776 0.0204737 -6.60055e-05 7.41931e-07)
(0.465965 0.00804555 0.000298965 0.0204086 -7.81173e-05 7.93208e-07)
(0.503308 0.0130227 0.000317123 0.0206853 -6.19853e-05 7.00647e-07)
(0.493646 0.00311421 0.000307025 0.0210604 -7.51705e-05 7.37756e-07)
(0.572988 0.0291386 0.000330385 0.0247833 -5.19215e-05 6.49634e-07)
(0.0138627 0.00381302 7.98227e-05 0.00366688 4.1693e-05 1.39426e-06)
(0.0172642 0.00738931 4.72693e-05 0.0187705 5.30382e-05 1.11934e-06)
(0.0576703 0.0295322 0.000150999 0.0259843 7.71485e-05 1.29677e-06)
(0.0530785 0.0220131 0.000106362 0.0255419 5.02862e-05 1.08167e-06)
(0.0824516 0.0315858 0.000192162 0.0243048 7.7706e-05 1.23871e-06)
(0.0745372 0.0217244 0.000160382 0.0232693 5.73121e-05 1.03757e-06)
(0.0991694 0.0287431 0.000235304 0.0225703 8.28952e-05 1.18061e-06)
(0.100789 0.0212937 0.000212029 0.0221121 6.49008e-05 1.00002e-06)
(0.126443 0.0277161 0.00027706 0.021676 8.75168e-05 1.13167e-06)
(0.136622 0.0224141 0.000258808 0.0214244 7.07607e-05 9.69373e-07)
(0.162565 0.0282569 0.000314077 0.021152 9.03085e-05 1.08322e-06)
(0.177659 0.0245458 0.000298689 0.0210248 7.43879e-05 9.35623e-07)
(0.202392 0.0296978 0.000344454 0.0208654 9.10999e-05 1.02923e-06)
(0.219944 0.0271852 0.000331547 0.020797 7.57904e-05 8.95539e-07)
(0.242723 0.0315385 0.000368878 0.020707 8.99762e-05 9.70416e-07)
(0.262524 0.0303622 0.000360012 0.02066 7.54015e-05 8.51389e-07)
(0.281749 0.0330015 0.000388917 0.0204599 8.66233e-05 9.1049e-07)
(0.307461 0.0352034 0.000388446 0.0208902 7.44983e-05 8.07098e-07)
(0.319207 0.0320206 0.000407009 0.0178837 7.79784e-05 8.56725e-07)
(0.355717 0.0431625 0.000416152 0.021844 7.41405e-05 7.61462e-07)
(0.0125199 -0.000991138 6.95656e-05 0.000736541 -2.2617e-05 1.23076e-06)
(0.0146277 -0.00060356 4.36266e-05 0.00388599 -4.32149e-05 1.02466e-06)
(0.0578473 -0.00899903 0.000134775 0.00779161 -6.99174e-05 1.18304e-06)
(0.0686522 -0.00953769 8.44406e-05 0.0114306 -6.36252e-05 9.95329e-07)
(0.125983 -0.0219662 0.000164053 0.0140257 -8.34179e-05 1.13423e-06)
(0.129327 -0.0216548 0.00011532 0.0158722 -6.8584e-05 9.52545e-07)
(0.178238 -0.0327334 0.00019462 0.0169173 -8.85251e-05 1.07849e-06)
(0.177568 -0.0310081 0.000150933 0.017658 -7.1962e-05 9.12322e-07)
(0.219565 -0.039854 0.000227216 0.018113 -8.99205e-05 1.02878e-06)
(0.21968 -0.037673 0.000189347 0.0185055 -7.27423e-05 8.78788e-07)
(0.257401 -0.0447658 0.000261443 0.018785 -8.84222e-05 9.808e-07)
(0.260377 -0.0427069 0.000229319 0.0190395 -7.16046e-05 8.44237e-07)
(0.295216 -0.0485293 0.000295832 0.019254 -8.5519e-05 9.28876e-07)
(0.301402 -0.0468876 0.000268796 0.0194067 -6.95621e-05 8.04762e-07)
(0.334023 -0.0519302 0.000328941 0.0196371 -8.23182e-05 8.72618e-07)
(0.342681 -0.0506382 0.000306548 0.019594 -6.67518e-05 7.62187e-07)
(0.374418 -0.0555933 0.000360981 0.0201697 -7.95515e-05 8.15471e-07)
(0.382917 -0.0541982 0.000340511 0.0194887 -6.16145e-05 7.20639e-07)
(0.418443 -0.0594491 0.000395035 0.0210749 -7.66335e-05 7.59238e-07)
(0.415932 -0.0623394 0.000360578 0.0239114 -5.72413e-05 6.78019e-07)
(0.0127293 0.00237643 7.36026e-05 0.00203925 3.33749e-05 1.31973e-06)
(0.0143738 0.00252488 4.74803e-05 0.0108207 4.88796e-05 1.09395e-06)
(0.0552538 0.021748 0.000144976 0.0163634 7.29925e-05 1.25854e-06)
(0.0680643 0.0221075 9.30087e-05 0.0187521 5.2943e-05 1.05212e-06)
(0.132602 0.0381789 0.000175236 0.0198221 7.74176e-05 1.2029e-06)
(0.145567 0.0359834 0.000119973 0.0203969 5.81755e-05 1.00838e-06)
(0.210067 0.0479932 0.000201677 0.0206221 8.19567e-05 1.14499e-06)
(0.221165 0.045191 0.000148632 0.0207387 6.4011e-05 9.68631e-07)
(0.281091 0.0544234 0.000228949 0.020679 8.54513e-05 1.09354e-06)
(0.291448 0.051709 0.000180979 0.0206583 6.85094e-05 9.34947e-07)
(0.34613 0.059011 0.000259457 0.0205526 8.72843e-05 1.04423e-06)
(0.356791 0.0567708 0.000218314 0.0205165 7.12681e-05 9.00832e-07)
(0.40661 0.0627203 0.00029388 0.0204365 8.75606e-05 9.91865e-07)
(0.418401 0.0610281 0.000259697 0.0203912 7.23012e-05 8.62029e-07)
(0.463567 0.0659592 0.000331073 0.0203796 8.63346e-05 9.35136e-07)
(0.477027 0.0646996 0.000302893 0.0202467 7.15659e-05 8.19421e-07)
(0.516648 0.0687932 0.000370048 0.020347 8.35262e-05 8.77012e-07)
(0.532917 0.0682744 0.000344782 0.0201805 6.93397e-05 7.76719e-07)
(0.563868 0.0682099 0.000414364 0.0190603 7.83201e-05 8.2329e-07)
(0.577413 0.0741822 0.000380743 0.0234923 7.17137e-05 7.3504e-07)
(0.0126302 -0.00167031 7.10614e-05 0.00116821 -2.74659e-05 1.2691e-06)
(0.0140867 -0.00127207 4.59153e-05 0.0062772 -4.53105e-05 1.06176e-06)
(0.0525829 -0.01478 0.000140402 0.0103572 -7.03371e-05 1.22005e-06)
(0.0648183 -0.0150747 9.09711e-05 0.0135495 -5.76077e-05 1.02209e-06)
(0.129095 -0.029276 0.000169962 0.0155795 -7.97833e-05 1.16733e-06)
(0.144666 -0.0284422 0.000114676 0.0170252 -6.32967e-05 9.79509e-07)
(0.213436 -0.0404201 0.000193512 0.0178217 -8.51116e-05 1.11102e-06)
(0.229827 -0.0389371 0.00013853 0.0183863 -6.82685e-05 9.39689e-07)
(0.297185 -0.0486672 0.000216815 0.0186924 -8.78653e-05 1.05991e-06)
(0.314151 -0.0471069 0.000165674 0.0189651 -7.10946e-05 9.05401e-07)
(0.377791 -0.0550754 0.000243221 0.0191312 -8.8138e-05 1.01075e-06)
(0.395207 -0.0537569 0.00019854 0.0192979 -7.18372e-05 8.70871e-07)
(0.454524 -0.0604116 0.000274661 0.0194289 -8.66839e-05 9.5873e-07)
(0.472402 -0.0594067 0.000237358 0.01951 -7.10531e-05 8.31972e-07)
(0.527311 -0.0651721 0.000311033 0.019697 -8.42376e-05 9.02531e-07)
(0.544933 -0.0643145 0.000280223 0.0195653 -6.88743e-05 7.8968e-07)
(0.595043 -0.0697131 0.00035155 0.0200683 -8.13078e-05 8.45204e-07)
(0.611402 -0.0693924 0.000322364 0.019434 -6.47593e-05 7.48002e-07)
(0.653844 -0.0722694 0.000398412 0.0200456 -7.76004e-05 7.9017e-07)
(0.662499 -0.0804566 0.000358242 0.023573 -6.51091e-05 7.06947e-07)
(0.0126302 0.0016703 7.10616e-05 0.0011682 2.74658e-05 1.2691e-06)
(0.0140867 0.0012721 4.5916e-05 0.00627719 4.53104e-05 1.06176e-06)
(0.0525829 0.01478 0.000140403 0.0103572 7.03372e-05 1.22005e-06)
(0.0648183 0.0150747 9.09719e-05 0.0135495 5.76077e-05 1.02209e-06)
(0.129095 0.0292759 0.000169963 0.0155795 7.97834e-05 1.16733e-06)
(0.144666 0.0284424 0.000114678 0.0170252 6.32964e-05 9.79508e-07)
(0.213435 0.0404201 0.000193514 0.0178218 8.51116e-05 1.11102e-06)
(0.229828 0.0389373 0.00013853 0.0183864 6.82681e-05 9.3969e-07)
(0.297183 0.0486675 0.000216817 0.0186925 8.78653e-05 1.05991e-06)
(0.314154 0.0471088 0.000165674 0.0189654 7.10934e-05 9.054e-07)
(0.377785 0.0550763 0.000243222 0.0191315 8.81381e-05 1.01075e-06)
(0.395216 0.0537623 0.000198526 0.019299 7.1835e-05 8.70875e-07)
(0.454509 0.0604146 0.000274663 0.0194297 8.66835e-05 9.58732e-07)
(0.472426 0.0594273 0.000237343 0.0195141 7.10465e-05 8.31964e-07)
(0.527278 0.0651805 0.000311044 0.0196988 8.42373e-05 9.02526e-07)
(0.544998 0.0643719 0.000280163 0.0195789 6.88638e-05 7.89625e-07)
(0.594996 0.0697494 0.000351565 0.0200754 8.13097e-05 8.45248e-07)
(0.611605 0.0695342 0.000322263 0.0194716 6.47598e-05 7.47871e-07)
(0.653946 0.0724016 0.000398556 0.0200731 7.76335e-05 7.90371e-07)
(0.662873 0.0807765 0.000358135 0.0236766 6.5171e-05 7.06711e-07)
(0.0127293 -0.00237644 7.36031e-05 0.00203925 -3.33749e-05 1.31973e-06)
(0.0143738 -0.00252486 4.74795e-05 0.0108208 -4.88797e-05 1.09395e-06)
(0.0552538 -0.021748 0.000144977 0.0163635 -7.29924e-05 1.25854e-06)
(0.0680642 -0.0221075 9.30094e-05 0.0187521 -5.29431e-05 1.05212e-06)
(0.132602 -0.038179 0.000175237 0.0198222 -7.74175e-05 1.2029e-06)
(0.145567 -0.0359832 0.000119974 0.0203969 -5.81759e-05 1.00838e-06)
(0.210067 -0.0479933 0.000201682 0.0206221 -8.19566e-05 1.145e-06)
(0.221165 -0.0451907 0.000148642 0.0207385 -6.40116e-05 9.6863e-07)
(0.281092 -0.0544232 0.000228955 0.020679 -8.5451e-05 1.09355e-06)
(0.291448 -0.0517071 0.000180984 0.0206577 -6.85108e-05 9.3495e-07)
(0.346132 -0.0590108 0.000259463 0.0205524 -8.72839e-05 1.04423e-06)
(0.356792 -0.0567654 0.000218335 0.0205146 -7.12705e-05 9.00828e-07)
(0.406623 -0.0627196 0.000293877 0.0204362 -8.7561e-05 9.9186e-07)
(0.4184 -0.0610089 0.000259712 0.0203853 -7.23069e-05 8.62046e-07)
(0.463612 -0.0659581 0.000331061 0.0203792 -8.63356e-05 9.35129e-07)
(0.47702 -0.0646506 0.000302956 0.0202307 -7.15739e-05 8.19485e-07)
(0.516765 -0.0687832 0.000370022 0.0203443 -8.35287e-05 8.76942e-07)
(0.532858 -0.0681723 0.000344852 0.0201477 -6.93363e-05 7.76855e-07)
(0.564066 -0.0681389 0.000414236 0.0190417 -7.82914e-05 8.23073e-07)
(0.577358 -0.0739602 0.00038072 0.0234243 -7.16402e-05 7.35229e-07)
(0.0125199 0.000991134 6.95663e-05 0.000736539 2.2617e-05 1.23076e-06)
(0.0146277 0.000603584 4.36273e-05 0.00388599 4.32149e-05 1.02466e-06)
(0.0578472 0.00899904 0.000134777 0.00779162 6.99175e-05 1.18304e-06)
(0.0686523 0.00953769 8.44426e-05 0.0114306 6.36252e-05 9.95329e-07)
(0.125982 0.0219662 0.000164055 0.0140257 8.34179e-05 1.13422e-06)
(0.129327 0.0216549 0.000115324 0.0158722 6.85839e-05 9.52544e-07)
(0.178237 0.0327335 0.000194627 0.0169173 8.85251e-05 1.07849e-06)
(0.17757 0.0310081 0.000150939 0.017658 7.19618e-05 9.12321e-07)
(0.219563 0.0398544 0.000227223 0.0181131 8.99203e-05 1.02878e-06)
(0.219685 0.037674 0.000189351 0.0185055 7.27415e-05 8.78787e-07)
(0.257396 0.0447665 0.000261448 0.0187854 8.84221e-05 9.80797e-07)
(0.260391 0.0427091 0.000229315 0.0190399 7.16028e-05 8.4424e-07)
(0.295207 0.0485317 0.000295835 0.0192551 8.5519e-05 9.28871e-07)
(0.301438 0.0468968 0.000268794 0.0194084 6.95564e-05 8.0476e-07)
(0.334007 0.0519361 0.000328936 0.0196401 8.23205e-05 8.72597e-07)
(0.342774 0.0506655 0.000306519 0.0196018 6.67424e-05 7.62151e-07)
(0.374414 0.0556157 0.00036096 0.0201803 7.956e-05 8.15466e-07)
(0.383162 0.0542881 0.000340457 0.0195206 6.16218e-05 7.20545e-07)
(0.418564 0.0595367 0.000395116 0.0211105 7.6673e-05 7.59367e-07)
(0.416499 0.0625836 0.000360509 0.0240337 5.72866e-05 6.77874e-07)
(0.0138627 -0.00381303 7.98236e-05 0.00366689 -4.1693e-05 1.39426e-06)
(0.0172642 -0.00738931 4.7269e-05 0.0187705 -5.30382e-05 1.11934e-06)
(0.0576703 -0.0295322 0.000151003 0.0259843 -7.71484e-05 1.29677e-06)
(0.0530785 -0.0220131 0.000106365 0.0255419 -5.02862e-05 1.08167e-06)
(0.0824516 -0.0315857 0.000192166 0.0243048 -7.77058e-05 1.23871e-06)
(0.0745374 -0.0217243 0.000160387 0.0232692 -5.73124e-05 1.03757e-06)
(0.0991693 -0.028743 0.000235316 0.0225703 -8.28949e-05 1.18062e-06)
(0.100789 -0.021294 0.000212045 0.0221119 -6.49014e-05 1.00002e-06)
(0.126443 -0.0277159 0.000277074 0.0216761 -8.75162e-05 1.13168e-06)
(0.136622 -0.0224144 0.000258814 0.0214238 -7.07622e-05 9.69374e-07)
(0.162565 -0.028257 0.000314095 0.0211521 -9.03073e-05 1.08322e-06)
(0.177655 -0.0245476 0.000298703 0.021023 -7.43906e-05 9.35613e-07)
(0.202392 -0.029699 0.000344466 0.0208659 -9.10985e-05 1.02923e-06)
(0.219933 -0.0271887 0.000331544 0.0207912 -7.5797e-05 8.95555e-07)
(0.242715 -0.0315456 0.000368883 0.0207089 -8.99751e-05 9.70387e-07)
(0.262501 -0.0303704 0.000360045 0.0206442 -7.54143e-05 8.51472e-07)
(0.281712 -0.0330264 0.000388898 0.0204652 -8.66225e-05 9.10336e-07)
(0.307418 -0.0352112 0.000388501 0.0208649 -7.45097e-05 8.07318e-07)
(0.319109 -0.0320686 0.000406908 0.0178927 -7.79618e-05 8.56321e-07)
(0.355601 -0.0431542 0.000416216 0.0218317 -7.41085e-05 7.61752e-07)
(0.0171814 -0.000671871 8.10203e-05 0.0012011 1.83007e-05 1.22023e-06)
(0.0138004 6.1863e-05 4.57037e-05 0.00373742 4.37461e-05 9.92403e-07)
(0.0287296 0.00614248 0.000137603 0.00777688 7.06133e-05 1.15873e-06)
(0.0510595 0.000169191 0.000140048 0.011828 6.36526e-05 9.78931e-07)