/*--------------------------------*- C++ -*----------------------------------*\
  =========                 |
  \\      /  F ield         | OpenFOAM: The Open Source CFD Toolbox
   \\    /   O peration     | Website:  https://openfoam.org
    \\  /    A nd           | Version:  7
     \\/     M anipulation  |
\*---------------------------------------------------------------------------*/
FoamFile
{
    version     2.0;
    format      ascii;
    class       volVectorField;
    location    "0.245";
    object      UMean;
}
// * * * * * * * * * * * * * * * * * * * * * * * * * * * * * * * * * * * * * //

dimensions      [0 1 -1 0 0 0 0];

internalField   nonuniform List<vector> 
4950
(
(3.57159 0.374285 -27.0305)
(3.03504 0.116251 -27.0648)
(2.43029 0.0285601 -27.0672)
(2.35115 -0.0237406 -27.0756)
(2.15445 -0.0360799 -27.0763)
(2.21178 -0.0386255 -27.0819)
(2.10469 -0.0385532 -27.0819)
(2.17756 -0.0373256 -27.0861)
(2.09765 -0.0368676 -27.0857)
(2.16346 -0.036403 -27.0887)
(2.09699 -0.0361434 -27.088)
(2.15273 -0.0367441 -27.09)
(2.09595 -0.0349341 -27.0892)
(2.14306 -0.037926 -27.0904)
(2.09361 -0.0305657 -27.0898)
(2.13463 -0.040633 -27.0905)
(2.08708 -0.0128813 -27.0906)
(2.1186 -0.0425341 -27.0898)
(2.07911 0.0707322 -27.0932)
(1.94515 0.119897 -27.0759)
(4.57993 0.487214 -27.0547)
(4.7841 0.295018 -27.0814)
(4.53087 0.203969 -27.0802)
(4.56497 0.11412 -27.0899)
(4.35461 0.0688773 -27.0939)
(4.42315 0.0455272 -27.104)
(4.28297 0.0336394 -27.1083)
(4.36947 0.0284805 -27.1168)
(4.26743 0.0257483 -27.1206)
(4.34957 0.0253601 -27.1271)
(4.26589 0.0245667 -27.1295)
(4.33724 0.0258112 -27.1333)
(4.26471 0.0236485 -27.1341)
(4.32808 0.0275065 -27.1357)
(4.26062 0.0194322 -27.1362)
(4.32721 0.0319119 -27.136)
(4.24704 0.00521965 -27.138)
(4.35836 0.0346702 -27.1341)
(4.20092 -0.0226642 -27.1423)
(4.54627 -0.0213411 -27.112)
(4.69156 0.252297 -27.0568)
(5.12156 0.156793 -27.0777)
(5.14773 0.12377 -27.0705)
(5.35146 0.0630069 -27.0769)
(5.2474 0.0294679 -27.0786)
(5.36194 0.00720922 -27.0887)
(5.24979 -0.00598532 -27.093)
(5.33833 -0.0135064 -27.1029)
(5.24188 -0.0171049 -27.1081)
(5.31768 -0.018818 -27.1176)
(5.23742 -0.0188824 -27.1227)
(5.30137 -0.0195178 -27.1299)
(5.23484 -0.018255 -27.1327)
(5.28544 -0.019647 -27.1365)
(5.23457 -0.0163329 -27.1375)
(5.26397 -0.0186223 -27.1388)
(5.24033 -0.00931458 -27.1398)
(5.21813 -0.00738342 -27.1389)
(5.24335 0.0199954 -27.1417)
(5.11239 0.0906797 -27.122)
(4.66886 0.149965 -27.0646)
(5.04772 0.102021 -27.0867)
(5.15282 0.0871621 -27.0803)
(5.42104 0.0553965 -27.0859)
(5.38189 0.0369604 -27.0879)
(5.53754 0.024711 -27.0974)
(5.45529 0.0169836 -27.1021)
(5.55708 0.0124691 -27.1114)
(5.46942 0.00989831 -27.1171)
(5.54654 0.00887018 -27.1264)
(5.46701 0.00821961 -27.1327)
(5.53226 0.00848532 -27.1405)
(5.46211 0.00758601 -27.145)
(5.52107 0.00911602 -27.1492)
(5.45621 0.00575075 -27.1511)
(5.51653 0.0110324 -27.1526)
(5.45256 -2.48841e-05 -27.1534)
(5.53412 0.0129533 -27.1535)
(5.48169 -0.00892444 -27.1542)
(5.64513 0.00470846 -27.1359)
(4.66984 -6.21155e-08 -27.0604)
(5.04649 -1.08527e-07 -27.0798)
(5.15802 -1.95425e-07 -27.0714)
(5.43507 -2.48699e-07 -27.0764)
(5.40141 -2.868e-07 -27.0772)
(5.56192 -1.91415e-07 -27.0865)
(5.48356 -1.66403e-07 -27.0904)
(5.58737 -2.352e-08 -27.0998)
(5.50196 3.75488e-08 -27.1048)
(5.57915 8.13746e-07 -27.1145)
(5.50221 2.682e-07 -27.1204)
(5.56435 4.3739e-06 -27.1289)
(5.49998 -9.53491e-07 -27.1331)
(5.54732 2.13866e-05 -27.1382)
(5.50058 -1.02216e-05 -27.1396)
(5.52117 9.33088e-05 -27.1422)
(5.51116 -3.62132e-05 -27.1421)
(5.46264 0.000353901 -27.1436)
(5.53122 9.66515e-06 -27.143)
(5.34374 0.000718402 -27.1279)
(4.66886 -0.149965 -27.0646)
(5.04772 -0.102022 -27.0867)
(5.15282 -0.0871626 -27.0803)
(5.42104 -0.0553969 -27.0859)
(5.38189 -0.0369609 -27.0879)
(5.53754 -0.0247112 -27.0974)
(5.45529 -0.0169838 -27.1021)
(5.55708 -0.012469 -27.1114)
(5.46942 -0.00989802 -27.1171)
(5.54654 -0.00886918 -27.1264)
(5.46701 -0.00821754 -27.1327)
(5.53227 -0.00848098 -27.1405)
(5.46211 -0.00757927 -27.1449)
(5.52107 -0.009095 -27.1493)
(5.45623 -0.00573192 -27.151)
(5.51654 -0.0109452 -27.1529)
(5.45265 8.83191e-05 -27.153)
(5.53417 -0.012664 -27.154)
(5.48188 0.00927405 -27.1535)
(5.64543 -0.00369715 -27.1367)
(4.69156 -0.252297 -27.0568)
(5.12156 -0.156793 -27.0777)
(5.14773 -0.123771 -27.0705)
(5.35146 -0.0630073 -27.0769)
(5.2474 -0.0294683 -27.0786)
(5.36194 -0.00720952 -27.0887)
(5.24979 0.00598513 -27.093)
(5.33833 0.0135063 -27.1029)
(5.24188 0.0171051 -27.1081)
(5.31768 0.018819 -27.1176)
(5.23742 0.0188835 -27.1227)
(5.30137 0.0195236 -27.1299)
(5.23483 0.0182555 -27.1326)
(5.28547 0.0196789 -27.1367)
(5.23457 0.0163193 -27.1372)
(5.26407 0.0187666 -27.1394)
(5.24035 0.00924716 -27.1387)
(5.21843 0.00789069 -27.1407)
(5.24363 -0.0200487 -27.1391)
(5.11346 -0.0892541 -27.1258)
(4.57993 -0.487214 -27.0547)
(4.7841 -0.295019 -27.0814)
(4.53087 -0.20397 -27.0802)
(4.56497 -0.11412 -27.0899)
(4.35461 -0.0688776 -27.0939)
(4.42315 -0.0455275 -27.104)
(4.28296 -0.0336396 -27.1083)
(4.36947 -0.0284807 -27.1168)
(4.26743 -0.0257481 -27.1206)
(4.34957 -0.0253599 -27.1271)
(4.26589 -0.0245651 -27.1295)
(4.33725 -0.0258102 -27.1333)
(4.26471 -0.0236419 -27.134)
(4.32811 -0.0274995 -27.1359)
(4.26066 -0.0194116 -27.1357)
(4.3273 -0.0318713 -27.1368)
(4.24724 -0.00515691 -27.1362)
(4.35866 -0.0344675 -27.1376)
(4.20155 0.0228804 -27.1357)
(4.54785 0.0218603 -27.1238)
(3.57159 -0.374285 -27.0305)
(3.03504 -0.116252 -27.0648)
(2.43029 -0.0285603 -27.0672)
(2.35115 0.0237405 -27.0756)
(2.15445 0.0360798 -27.0763)
(2.21178 0.0386254 -27.0819)
(2.10469 0.0385532 -27.0819)
(2.17756 0.0373256 -27.0861)
(2.09765 0.0368675 -27.0857)
(2.16346 0.0364032 -27.0887)
(2.09699 0.0361436 -27.088)
(2.15274 0.0367449 -27.09)
(2.09596 0.0349343 -27.0891)
(2.14308 0.0379298 -27.0905)
(2.09364 0.0305648 -27.0897)
(2.13471 0.0406461 -27.0908)
(2.08724 0.0128659 -27.0901)
(2.11886 0.0425863 -27.0912)
(2.07977 -0.0707861 -27.0898)
(1.94648 -0.11931 -27.0867)
(4.50298 0.155286 0.00578777)
(3.9053 0.22709 0.00429622)
(3.45409 0.182639 0.00501049)
(3.1114 0.117932 0.00405431)
(2.97363 0.0799104 0.00470422)
(2.87687 0.05824 0.00392644)
(2.86644 0.0495818 0.00447881)
(2.84318 0.0453143 0.00381165)
(2.85216 0.0437496 0.00427238)
(2.84468 0.042769 0.00369926)
(2.85032 0.0418282 0.00408134)
(2.84766 0.0421622 0.00358978)
(2.84896 0.0398681 0.00390466)
(2.84959 0.0431761 0.00348369)
(2.8469 0.0342104 0.00374201)
(2.85469 0.0481633 0.00338154)
(2.8361 0.0101697 0.00359525)
(2.89804 0.0579898 0.003283)
(2.76668 -0.0997121 0.0034913)
(3.20231 -0.12599 0.00314062)
(4.5902 0.0819161 0.00399031)
(4.64874 0.172977 0.00279216)
(4.73741 0.129502 0.00346149)
(4.67997 0.0724696 0.00251434)
(4.66947 0.0238148 0.00315717)
(4.61413 -0.00625988 0.00237669)
(4.61133 -0.0219556 0.00292715)
(4.58895 -0.02825 0.00225882)
(4.59635 -0.0302595 0.00271938)
(4.5908 -0.0302622 0.00214581)
(4.59738 -0.0294592 0.00252788)
(4.59705 -0.0296918 0.00203641)
(4.60062 -0.0275481 0.00235001)
(4.60047 -0.030374 0.00193088)
(4.60478 -0.0235472 0.00218356)
(4.59732 -0.0318302 0.00183008)
(4.61316 -0.0136322 0.00202164)
(4.56797 -0.0189172 0.00172888)
(4.62838 0.00132647 0.00183512)
(4.37415 0.10304 0.00154441)
(4.53386 0.0499239 0.00522531)
(4.69931 0.147207 0.00410703)
(4.91527 0.15194 0.00474725)
(4.99742 0.119154 0.00379369)
(5.08234 0.085444 0.00442946)
(5.08618 0.057995 0.00364777)
(5.10848 0.0411431 0.00420004)
(5.09739 0.0309344 0.00353359)
(5.10436 0.0256421 0.00399649)
(5.09885 0.0231803 0.00342383)
(5.10157 0.021752 0.0038076)
(5.10254 0.0217983 0.00331545)
(5.10099 0.0202599 0.00363219)
(5.10864 0.0224295 0.00320945)
(5.09885 0.0165813 0.00347191)
(5.12131 0.0255478 0.003107)
(5.09215 0.00091346 0.00333485)
(5.15636 0.0304499 0.00301225)
(5.10517 -0.0535435 0.00326929)
(5.23837 -0.0197849 0.00294389)
(4.49753 0.021921 0.00383105)
(4.58845 0.0541319 0.00282459)
(4.82387 0.0473266 0.00345104)
(4.94378 0.0334959 0.00251302)
(5.07768 0.0179903 0.00314214)
(5.12045 0.00620667 0.00235816)
(5.17213 -0.00150662 0.00290613)
(5.17993 -0.00583563 0.0022375)
(5.19837 -0.00810727 0.00269769)
(5.19889 -0.00912839 0.00212442)
(5.20592 -0.00942432 0.00250638)
(5.2067 -0.00971977 0.00201538)
(5.21009 -0.00916635 0.00232875)
(5.20898 -0.00992811 0.00191025)
(5.21546 -0.00806793 0.00216136)
(5.19958 -0.0095636 0.00180855)
(5.2282 -0.00544794 0.00199289)
(5.14304 -0.00165564 0.00170014)
(5.25014 -0.00212156 0.00176872)
(4.92542 0.03952 0.00151602)
(4.5252 3.84872e-08 0.00513985)
(4.66051 2.03552e-08 0.00413228)
(4.87501 6.36012e-08 0.00475063)
(4.98825 3.59011e-08 0.00380239)
(5.11332 5.09892e-08 0.00443091)
(5.15369 9.64845e-08 0.00364663)
(5.20234 1.33177e-07 0.00419741)
(5.20849 1.62416e-07 0.00353036)
(5.22442 2.63795e-07 0.00399308)
(5.22387 6.47729e-07 0.0034203)
(5.22826 8.68354e-07 0.00380413)
(5.23036 1.98973e-06 0.003312)
(5.22882 2.87608e-06 0.00362911)
(5.23655 7.959e-06 0.00320635)
(5.22773 1.14708e-05 0.00346982)
(5.24748 2.76207e-05 0.00310441)
(5.22783 5.48843e-05 0.00333624)
(5.27289 9.74615e-05 0.00301124)
(5.2696 0.000264563 0.00328109)
(5.32434 0.000429498 0.00295319)
(4.49753 -0.0219211 0.00383105)
(4.58845 -0.0541319 0.00282459)
(4.82387 -0.0473266 0.00345104)
(4.94378 -0.0334959 0.00251302)
(5.07768 -0.0179903 0.00314214)
(5.12045 -0.00620648 0.00235816)
(5.17213 0.00150683 0.00290613)
(5.17993 0.00583612 0.0022375)
(5.19837 0.0081076 0.00269769)
(5.19889 0.00913057 0.00212442)
(5.20592 0.00942454 0.00250638)
(5.2067 0.00972946 0.00201538)
(5.21009 0.00916322 0.00232875)
(5.20899 0.00997075 0.00191025)
(5.21547 0.00804896 0.00216135)
(5.19961 0.00973361 0.00180855)
(5.22821 0.00539699 0.00199284)
(5.14314 0.00220641 0.00170012)
(5.25025 0.0022073 0.00176875)
(4.92577 -0.0381131 0.00151589)
(4.53386 -0.0499239 0.00522531)
(4.69931 -0.147207 0.00410702)
(4.91527 -0.15194 0.00474725)
(4.99742 -0.119154 0.00379369)
(5.08234 -0.0854439 0.00442946)
(5.08618 -0.0579949 0.00364777)
(5.10848 -0.0411428 0.00420004)
(5.09739 -0.0309341 0.00353359)
(5.10436 -0.0256415 0.00399649)
(5.09885 -0.0231792 0.00342383)
(5.10157 -0.0217501 0.0038076)
(5.10255 -0.0217944 0.00331545)
(5.10099 -0.0202539 0.00363217)
(5.10866 -0.0224132 0.00320948)
(5.09887 -0.0165598 0.00347185)
(5.12136 -0.0254859 0.00310709)
(5.09223 -0.000821631 0.00333467)
(5.15657 -0.0302316 0.00301249)
(5.10541 0.0540109 0.00326886)
(5.23917 0.0206345 0.00294417)
(4.5902 -0.081916 0.00399031)
(4.64874 -0.172977 0.00279216)
(4.73741 -0.129502 0.00346149)
(4.67997 -0.0724696 0.00251434)
(4.66947 -0.0238148 0.00315717)
(4.61413 0.00625992 0.0023767)
(4.61133 0.0219556 0.00292716)
(4.58895 0.0282501 0.00225882)
(4.59635 0.0302598 0.00271938)
(4.5908 0.0302628 0.00214581)
(4.59738 0.0294601 0.00252788)
(4.59706 0.029695 0.00203641)
(4.60061 0.0275484 0.00235)
(4.60052 0.0303925 0.00193089)
(4.60475 0.0235367 0.00218351)
(4.5975 0.0319182 0.00183012)
(4.61307 0.0135823 0.00202147)
(4.5687 0.019268 0.00172901)
(4.62822 -0.00135718 0.0018348)
(4.3768 -0.101921 0.0015445)
(4.50298 -0.155286 0.00578777)
(3.9053 -0.22709 0.00429622)
(3.45409 -0.182639 0.00501048)
(3.1114 -0.117932 0.00405431)
(2.97363 -0.0799105 0.00470422)
(2.87687 -0.05824 0.00392643)
(2.86644 -0.0495818 0.00447881)
(2.84318 -0.0453142 0.00381164)
(2.85216 -0.0437495 0.00427238)
(2.84469 -0.042769 0.00369925)
(2.85032 -0.0418275 0.00408134)
(2.84767 -0.0421616 0.00358978)
(2.84898 -0.0398648 0.00390466)
(2.84961 -0.0431737 0.00348369)
(2.84695 -0.0341983 0.00374198)
(2.85474 -0.048145 0.00338159)
(2.83633 -0.0101299 0.00359504)
(2.8983 -0.0579521 0.00328344)
(2.76724 0.0998415 0.00348998)
(3.20464 0.125797 0.00314328)
(4.43603 0.0508638 -3.15779e-08)
(4.32245 0.0742074 -3.16669e-08)
(4.07187 0.0679755 -3.18869e-08)
(3.94329 0.0473619 -3.21448e-08)
(3.78673 0.0251196 -3.23598e-08)
(3.75468 0.00959302 -3.22828e-08)
(3.69726 -0.000724967 -3.2277e-08)
(3.72046 -0.00466358 -3.20586e-08)
(3.70283 -0.00695845 -3.21441e-08)
(3.73567 -0.00687532 -3.19795e-08)
(3.7275 -0.00767454 -3.21946e-08)
(3.75743 -0.00703516 -3.20517e-08)
(3.75208 -0.00816151 -3.23385e-08)
(3.77965 -0.00673812 -3.21855e-08)
(3.77332 -0.00952322 -3.2504e-08)
(3.80669 -0.00509994 -3.23395e-08)
(3.78174 -0.0140881 -3.26814e-08)
(3.85529 -0.00101729 -3.25109e-08)
(3.74441 -0.0271512 -3.29203e-08)
(3.95359 -0.00497817 -3.26139e-08)
(4.4987 0.0473356 -3.15423e-08)
(4.63858 0.0737032 -3.17359e-08)
(4.65982 0.0798901 -3.18767e-08)
(4.74746 0.0694953 -3.18503e-08)
(4.72962 0.0518185 -3.17282e-08)
(4.77605 0.0335798 -3.14711e-08)
(4.75289 0.0202235 -3.14741e-08)
(4.79157 0.0116729 -3.13873e-08)
(4.77873 0.007921 -3.16542e-08)
(4.81665 0.00607015 -3.16622e-08)
(4.81146 0.00606873 -3.20085e-08)
(4.84638 0.00574867 -3.19518e-08)
(4.84511 0.00630229 -3.22886e-08)
(4.87636 0.00633999 -3.2151e-08)
(4.87732 0.00578536 -3.25207e-08)
(4.90641 0.00926531 -3.2296e-08)
(4.9067 0.00214659 -3.27375e-08)
(4.93766 0.0222731 -3.24712e-08)
(4.92793 -0.00404408 -3.29898e-08)
(4.96014 0.0663528 -3.26222e-08)
(4.4896 0.0171389 -3.16054e-08)
(4.62413 0.0350843 -3.1807e-08)
(4.66241 0.0437235 -3.19912e-08)
(4.79097 0.040696 -3.20033e-08)
(4.81695 0.0305216 -3.18738e-08)
(4.89982 0.0193535 -3.15724e-08)
(4.89971 0.00949671 -3.15724e-08)
(4.95099 0.00348259 -3.15467e-08)
(4.94304 -0.000431435 -3.18932e-08)
(4.9829 -0.00196387 -3.19726e-08)
(4.97732 -0.00318917 -3.23669e-08)
(5.01301 -0.00312153 -3.23586e-08)
(5.01044 -0.00407551 -3.27261e-08)
(5.04371 -0.00276639 -3.25934e-08)
(5.0432 -0.00566263 -3.29719e-08)
(5.07372 -0.000373676 -3.27458e-08)
(5.0792 -0.0107756 -3.31772e-08)
(5.09801 0.00655622 -3.29053e-08)
(5.13514 -0.020469 -3.33988e-08)
(5.10779 0.0196749 -3.31439e-08)
(4.4874 0.0141806 -3.16028e-08)
(4.60411 0.0226614 -3.1793e-08)
(4.63696 0.0258747 -3.19073e-08)
(4.76538 0.023774 -3.19198e-08)
(4.79853 0.0190671 -3.18988e-08)
(4.89077 0.0134642 -3.17752e-08)
(4.90017 0.00883152 -3.18833e-08)
(4.95925 0.00547848 -3.18658e-08)
(4.95721 0.00366411 -3.21502e-08)
(5.00071 0.00260604 -3.21577e-08)
(4.99795 0.00228972 -3.24876e-08)
(5.0341 0.00205961 -3.24954e-08)
(5.03389 0.00205699 -3.28603e-08)
(5.0643 0.00227393 -3.29635e-08)
(5.06935 0.00162951 -3.34672e-08)
(5.08969 0.00367295 -3.29366e-08)
(5.1102 -1.5947e-05 -3.31875e-08)
(5.10115 0.00912269 -3.32386e-08)
(5.1689 -0.00131219 -3.34922e-08)
(5.08697 0.026035 -3.31757e-08)
(4.48823 4.83874e-09 -3.16407e-08)
(4.61267 8.34839e-09 -3.18113e-08)
(4.64554 -2.13511e-09 -3.19111e-08)
(4.7737 1.24984e-09 -3.19332e-08)
(4.80527 -1.48112e-08 -3.19663e-08)
(4.89735 3.51514e-08 -3.19233e-08)
(4.9066 1.82286e-08 -3.20923e-08)
(4.96562 1.51249e-07 -3.20927e-08)
(4.96291 -1.09117e-07 -3.23391e-08)
(5.00595 9.47055e-07 -3.22869e-08)
(5.00203 -7.63185e-07 -3.25578e-08)
(5.03841 4.1778e-06 -3.24591e-08)
(5.03647 -3.36312e-06 -3.27505e-08)
(5.069 1.65078e-05 -3.26511e-08)
(5.07061 -8.48087e-06 -3.3022e-08)
(5.09687 5.50728e-05 -3.27792e-08)
(5.11117 2.44301e-07 -3.30061e-08)
(5.11548 0.000160871 -3.29076e-08)
(5.18008 0.00014181 -3.33554e-08)
(5.125 0.000436251 -3.31338e-08)
(4.4874 -0.0141807 -3.16337e-08)
(4.60411 -0.0226614 -3.18001e-08)
(4.63696 -0.0258747 -3.1881e-08)
(4.76538 -0.023774 -3.19281e-08)
(4.79853 -0.0190672 -3.20207e-08)
(4.89077 -0.0134641 -3.20678e-08)
(4.90017 -0.00883151 -3.22935e-08)
(4.95925 -0.00547815 -3.23074e-08)
(4.95721 -0.00366446 -3.25104e-08)
(5.00071 -0.00260391 -3.23947e-08)
(4.99796 -0.00229197 -3.26035e-08)
(5.0341 -0.00204993 -3.24558e-08)
(5.03389 -0.00206704 -3.27224e-08)
(5.0643 -0.00223541 -3.25596e-08)
(5.06936 -0.00165892 -3.28889e-08)
(5.08969 -0.00354501 -3.27022e-08)
(5.11024 -2.06291e-05 -3.30453e-08)
(5.1012 -0.00875836 -3.28652e-08)
(5.16901 0.00151039 -3.3291e-08)
(5.08724 -0.0250921 -3.3058e-08)
(4.4896 -0.0171389 -3.16721e-08)
(4.62413 -0.0350843 -3.18019e-08)
(4.66241 -0.0437234 -3.1824e-08)
(4.79097 -0.040696 -3.18773e-08)
(4.81695 -0.0305216 -3.2098e-08)
(4.89982 -0.0193535 -3.2321e-08)
(4.89971 -0.00949666 -3.26422e-08)
(4.95099 -0.00348237 -3.26445e-08)
(4.94304 0.000431332 -3.27734e-08)
(4.9829 0.00196532 -3.25837e-08)
(4.97732 0.00318805 -3.27304e-08)
(5.01301 0.00312836 -3.25379e-08)
(5.01045 0.00406976 -3.27703e-08)
(5.04371 0.00279478 -3.2774e-08)
(5.04322 0.00564535 -3.32087e-08)
(5.07373 0.00047229 -3.27405e-08)
(5.07926 0.0107615 -3.26786e-08)
(5.09812 -0.00626076 -3.27937e-08)
(5.13534 0.0206715 -3.33081e-08)
(5.10836 -0.0188518 -3.30658e-08)
(4.4987 -0.0473357 -3.16903e-08)
(4.63858 -0.0737032 -3.1824e-08)
(4.65982 -0.0798901 -3.18925e-08)
(4.74746 -0.0694953 -3.2041e-08)
(4.72962 -0.0518185 -3.23056e-08)
(4.77605 -0.0335797 -3.2486e-08)
(4.75289 -0.0202234 -3.27541e-08)
(4.79157 -0.0116728 -3.27691e-08)
(4.77873 -0.00792102 -3.29597e-08)
(4.81665 -0.00606912 -3.28402e-08)
(4.81146 -0.00606969 -3.30336e-08)
(4.84639 -0.00574304 -3.28788e-08)
(4.8451 -0.00630881 -3.31371e-08)
(4.8764 -0.00631394 -3.29787e-08)
(4.8773 -0.00581021 -3.32938e-08)
(4.90654 -0.00916944 -3.31064e-08)
(4.90665 -0.00220015 -3.34635e-08)
(4.93809 -0.0219842 -3.32706e-08)
(4.92793 0.00410146 -3.37035e-08)
(4.9616 -0.065555 -3.34877e-08)
(4.43603 -0.0508639 -3.16306e-08)
(4.32245 -0.0742074 -3.18287e-08)
(4.07187 -0.0679755 -3.1869e-08)
(3.94329 -0.0473619 -3.17611e-08)
(3.78673 -0.0251196 -3.16818e-08)
(3.75468 -0.00959301 -3.16521e-08)
(3.69726 0.000725002 -3.19211e-08)
(3.72046 0.00466359 -3.20681e-08)
(3.70283 0.00695855 -3.24272e-08)
(3.73567 0.00687545 -3.24536e-08)
(3.7275 0.0076747 -3.2754e-08)
(3.75743 0.00703622 -3.26767e-08)
(3.75209 0.00816091 -3.29739e-08)
(3.77967 0.006745 -3.28485e-08)
(3.77333 0.00951855 -3.31675e-08)
(3.80682 0.00513178 -3.30092e-08)
(3.7817 0.0140757 -3.33546e-08)
(3.85599 0.00112774 -3.32013e-08)
(3.74399 0.0271939 -3.35989e-08)
(3.95711 0.00530803 -3.3431e-08)
(4.50298 0.155286 -0.00578782)
(3.9053 0.22709 -0.00429627)
(3.45409 0.182639 -0.00501054)
(3.1114 0.117932 -0.00405436)
(2.97363 0.0799105 -0.00470427)
(2.87687 0.05824 -0.00392649)
(2.86644 0.0495818 -0.00447886)
(2.84318 0.0453143 -0.0038117)
(2.85216 0.0437497 -0.00427243)
(2.84468 0.0427691 -0.00369931)
(2.85032 0.0418283 -0.0040814)
(2.84766 0.0421623 -0.00358984)
(2.84896 0.0398681 -0.00390471)
(2.84959 0.0431762 -0.00348374)
(2.84689 0.0342105 -0.00374207)
(2.85469 0.0481633 -0.00338159)
(2.8361 0.0101698 -0.0035953)
(2.89804 0.0579898 -0.00328305)
(2.76668 -0.099712 -0.00349135)
(3.20231 -0.12599 -0.00314067)
(4.5902 0.0819161 -0.00399037)
(4.64874 0.172977 -0.00279221)
(4.73741 0.129502 -0.00346154)
(4.67997 0.0724696 -0.0025144)
(4.66947 0.0238148 -0.00315722)
(4.61413 -0.00625987 -0.00237675)
(4.61133 -0.0219556 -0.00292721)
(4.58895 -0.02825 -0.00225887)
(4.59635 -0.0302595 -0.00271944)
(4.5908 -0.0302622 -0.00214587)
(4.59738 -0.0294593 -0.00252793)
(4.59705 -0.0296919 -0.00203647)
(4.60062 -0.0275483 -0.00235006)
(4.60047 -0.0303741 -0.00193094)
(4.60478 -0.0235473 -0.00218361)
(4.59732 -0.0318303 -0.00183014)
(4.61316 -0.0136323 -0.0020217)
(4.56797 -0.0189173 -0.00172893)
(4.62838 0.00132637 -0.00183518)
(4.37415 0.10304 -0.00154446)
(4.53386 0.0499239 -0.00522536)
(4.69931 0.147207 -0.00410708)
(4.91527 0.15194 -0.0047473)
(4.99742 0.119154 -0.00379375)
(5.08234 0.0854439 -0.00442951)
(5.08618 0.0579949 -0.00364782)
(5.10848 0.041143 -0.00420009)
(5.09739 0.0309343 -0.00353365)
(5.10436 0.0256419 -0.00399654)
(5.09885 0.0231801 -0.00342389)
(5.10157 0.0217518 -0.00380766)
(5.10254 0.0217981 -0.0033155)
(5.10099 0.0202597 -0.00363225)
(5.10864 0.0224293 -0.00320951)
(5.09885 0.0165812 -0.00347197)
(5.12131 0.0255477 -0.00310706)
(5.09215 0.000913375 -0.0033349)
(5.15636 0.0304498 -0.0030123)
(5.10517 -0.0535435 -0.00326935)
(5.23837 -0.019785 -0.00294395)
(4.49753 0.021921 -0.0038311)
(4.58845 0.0541319 -0.00282464)
(4.82387 0.0473266 -0.00345109)
(4.94378 0.0334959 -0.00251307)
(5.07768 0.0179903 -0.0031422)
(5.12045 0.0062066 -0.00235821)
(5.17213 -0.0015067 -0.00290618)
(5.17993 -0.00583573 -0.00223755)
(5.19837 -0.00810739 -0.00269774)
(5.19889 -0.00912856 -0.00212448)
(5.20592 -0.00942454 -0.00250644)
(5.2067 -0.00972002 -0.00201543)
(5.21009 -0.00916658 -0.00232881)
(5.20898 -0.00992835 -0.0019103)
(5.21546 -0.00806811 -0.00216142)
(5.19958 -0.00956379 -0.0018086)
(5.2282 -0.00544806 -0.00199294)
(5.14304 -0.00165579 -0.0017002)
(5.25014 -0.00212167 -0.00176877)
(4.92542 0.0395199 -0.00151608)
(4.5252 3.00534e-08 -0.0051399)
(4.66051 -1.44535e-08 -0.00413234)
(4.87501 1.79663e-08 -0.00475068)
(4.98825 -3.43893e-08 -0.00380244)
(5.11332 -3.29615e-08 -0.00443097)
(5.15369 -8.04812e-09 -0.00364668)
(5.20234 3.17477e-08 -0.00419747)
(5.20849 4.64293e-08 -0.00353041)
(5.22442 1.31577e-07 -0.00399314)
(5.22387 5.01469e-07 -0.00342036)
(5.22826 7.04299e-07 -0.00380419)
(5.23036 1.82792e-06 -0.00331205)
(5.22882 2.6944e-06 -0.00362917)
(5.23655 7.83121e-06 -0.00320641)
(5.22773 1.13374e-05 -0.00346987)
(5.24747 2.75398e-05 -0.00310446)
(5.22783 5.47776e-05 -0.00333629)
(5.27289 9.74046e-05 -0.00301129)
(5.2696 0.000264497 -0.00328114)
(5.32434 0.000429427 -0.00295325)
(4.49753 -0.0219211 -0.0038311)
(4.58845 -0.0541319 -0.00282464)
(4.82387 -0.0473266 -0.00345109)
(4.94378 -0.0334959 -0.00251307)
(5.07768 -0.0179903 -0.0031422)
(5.12045 -0.00620654 -0.00235821)
(5.17213 0.00150676 -0.00290618)
(5.17993 0.00583603 -0.00223755)
(5.19837 0.00810749 -0.00269774)
(5.19889 0.00913041 -0.00212448)
(5.20592 0.00942434 -0.00250643)
(5.2067 0.00972922 -0.00201544)
(5.21009 0.00916302 -0.0023288)
(5.20899 0.00997053 -0.00191031)
(5.21546 0.0080488 -0.0021614)
(5.19961 0.00973344 -0.00180861)
(5.22821 0.00539687 -0.0019929)
(5.14314 0.00220626 -0.00170018)
(5.25025 0.00220719 -0.00176881)
(4.92577 -0.0381133 -0.00151595)
(4.53386 -0.0499239 -0.00522536)
(4.69931 -0.147207 -0.00410708)
(4.91527 -0.15194 -0.0047473)
(4.99742 -0.119154 -0.00379375)
(5.08234 -0.085444 -0.00442951)
(5.08618 -0.057995 -0.00364782)
(5.10848 -0.0411429 -0.00420009)
(5.09739 -0.0309342 -0.00353365)
(5.10436 -0.0256416 -0.00399654)
(5.09885 -0.0231793 -0.00342389)
(5.10157 -0.0217503 -0.00380766)
(5.10255 -0.0217946 -0.00331551)
(5.10099 -0.0202541 -0.00363223)
(5.10866 -0.0224134 -0.00320953)
(5.09887 -0.0165599 -0.00347191)
(5.12136 -0.025486 -0.00310715)
(5.09223 -0.00082172 -0.00333473)
(5.15657 -0.0302317 -0.00301255)
(5.10541 0.0540109 -0.00326892)
(5.23917 0.0206344 -0.00294422)
(4.5902 -0.081916 -0.00399037)
(4.64874 -0.172977 -0.00279221)
(4.73741 -0.129502 -0.00346154)
(4.67997 -0.0724695 -0.0025144)
(4.66947 -0.0238147 -0.00315722)
(4.61413 0.00625997 -0.00237675)
(4.61133 0.0219557 -0.00292721)
(4.58895 0.0282501 -0.00225887)
(4.59635 0.0302598 -0.00271944)
(4.5908 0.0302628 -0.00214586)
(4.59738 0.0294601 -0.00252793)
(4.59706 0.029695 -0.00203646)
(4.60061 0.0275483 -0.00235006)
(4.60052 0.0303924 -0.00193094)
(4.60475 0.0235366 -0.00218357)
(4.5975 0.0319181 -0.00183018)
(4.61307 0.0135822 -0.00202153)
(4.5687 0.0192679 -0.00172906)
(4.62822 -0.00135726 -0.00183486)
(4.3768 -0.101922 -0.00154455)
(4.50298 -0.155286 -0.00578783)
(3.9053 -0.22709 -0.00429628)
(3.45409 -0.182639 -0.00501054)
(3.1114 -0.117932 -0.00405437)
(2.97363 -0.0799105 -0.00470428)
(2.87687 -0.0582399 -0.00392649)
(2.86644 -0.0495818 -0.00447887)
(2.84318 -0.0453142 -0.0038117)
(2.85216 -0.0437494 -0.00427244)
(2.84469 -0.042769 -0.00369931)
(2.85032 -0.0418275 -0.0040814)
(2.84767 -0.0421615 -0.00358984)
(2.84897 -0.0398647 -0.00390472)
(2.84961 -0.0431736 -0.00348375)
(2.84695 -0.0341982 -0.00374204)
(2.85474 -0.0481449 -0.00338165)
(2.83633 -0.0101298 -0.0035951)
(2.8983 -0.057952 -0.0032835)
(2.76724 0.0998416 -0.00349004)
(3.20464 0.125797 -0.00314335)
(3.57159 0.374285 27.0305)
(3.03504 0.116251 27.0648)
(2.43029 0.0285603 27.0672)
(2.35115 -0.0237405 27.0756)
(2.15445 -0.0360798 27.0763)
(2.21178 -0.0386254 27.0819)
(2.10469 -0.0385532 27.0819)
(2.17756 -0.0373256 27.0861)
(2.09765 -0.0368675 27.0857)
(2.16346 -0.036403 27.0887)
(2.09699 -0.0361434 27.088)
(2.15273 -0.0367441 27.09)
(2.09595 -0.0349342 27.0892)
(2.14306 -0.037926 27.0904)
(2.09361 -0.0305657 27.0898)
(2.13463 -0.0406331 27.0905)
(2.08708 -0.0128813 27.0906)
(2.11859 -0.0425341 27.0898)
(2.07911 0.0707323 27.0932)
(1.94515 0.119897 27.0759)
(4.57993 0.487214 27.0547)
(4.7841 0.295019 27.0814)
(4.53087 0.203969 27.0802)
(4.56497 0.11412 27.0899)
(4.35461 0.0688776 27.0939)
(4.42315 0.0455275 27.104)
(4.28296 0.0336397 27.1083)
(4.36947 0.0284808 27.1168)
(4.26743 0.0257486 27.1206)
(4.34957 0.0253603 27.1271)
(4.26589 0.0245669 27.1295)
(4.33724 0.0258114 27.1333)
(4.2647 0.0236487 27.1341)
(4.32808 0.0275066 27.1357)
(4.26062 0.0194323 27.1362)
(4.32721 0.031912 27.136)
(4.24704 0.00521973 27.138)
(4.35836 0.0346704 27.1341)
(4.20092 -0.0226641 27.1423)
(4.54627 -0.021341 27.112)
(4.69156 0.252297 27.0568)
(5.12156 0.156793 27.0777)
(5.14773 0.123771 27.0705)
(5.35146 0.0630073 27.0769)
(5.2474 0.0294683 27.0786)
(5.36194 0.0072096 27.0887)
(5.24979 -0.00598498 27.093)
(5.33833 -0.0135061 27.1029)
(5.24188 -0.0171047 27.1081)
(5.31768 -0.0188178 27.1176)
(5.23741 -0.0188823 27.1227)
(5.30136 -0.0195178 27.1299)
(5.23484 -0.0182549 27.1327)
(5.28544 -0.019647 27.1365)
(5.23457 -0.0163329 27.1375)
(5.26397 -0.0186223 27.1388)
(5.24033 -0.00931459 27.1398)
(5.21813 -0.00738348 27.1389)
(5.24334 0.0199955 27.1417)
(5.11238 0.0906796 27.122)
(4.66886 0.149965 27.0646)
(5.04772 0.102022 27.0867)
(5.15282 0.0871625 27.0803)
(5.42104 0.0553969 27.0859)
(5.38189 0.0369609 27.0879)
(5.53754 0.0247113 27.0974)
(5.45529 0.016984 27.1021)
(5.55708 0.0124693 27.1114)
(5.46942 0.00989852 27.1171)
(5.54654 0.00887036 27.1264)
(5.46701 0.0082198 27.1327)
(5.53226 0.00848546 27.1405)
(5.46211 0.00758614 27.145)
(5.52106 0.00911608 27.1492)
(5.45621 0.00575083 27.1511)
(5.51652 0.0110324 27.1526)
(5.45256 -2.48268e-05 27.1534)
(5.53412 0.0129533 27.1535)
(5.48169 -0.00892439 27.1542)
(5.64512 0.00470847 27.1359)
(4.66984 4.86867e-08 27.0604)
(5.04649 7.37018e-08 27.0798)
(5.15802 2.25623e-07 27.0714)
(5.43507 2.22944e-07 27.0764)
(5.40141 2.71843e-07 27.0772)
(5.56192 3.22187e-07 27.0865)
(5.48356 3.53757e-07 27.0904)
(5.58737 4.28284e-07 27.0998)
(5.50196 4.36777e-07 27.1048)
(5.57915 1.1199e-06 27.1145)
(5.50221 4.82355e-07 27.1204)
(5.56435 4.52469e-06 27.1289)
(5.49998 -8.73604e-07 27.1331)
(5.54731 2.1452e-05 27.1382)
(5.50058 -1.02128e-05 27.1396)
(5.52116 9.33521e-05 27.1422)
(5.51116 -3.62171e-05 27.1421)
(5.46264 0.000353927 27.1436)
(5.53122 9.63708e-06 27.143)
(5.34374 0.000718303 27.1279)
(4.66886 -0.149965 27.0646)
(5.04772 -0.102021 27.0867)
(5.15282 -0.0871622 27.0803)
(5.42104 -0.0553965 27.0859)
(5.38189 -0.0369604 27.0879)
(5.53754 -0.0247109 27.0974)
(5.45529 -0.0169834 27.1021)
(5.55708 -0.0124688 27.1114)
(5.46942 -0.00989778 27.1171)
(5.54654 -0.00886897 27.1264)
(5.46701 -0.00821733 27.1327)
(5.53227 -0.00848081 27.1405)
(5.46211 -0.00757911 27.1449)
(5.52107 -0.00909491 27.1493)
(5.45622 -0.00573182 27.151)
(5.51653 -0.0109452 27.1529)
(5.45265 8.84043e-05 27.153)
(5.53416 -0.0126639 27.154)
(5.48187 0.00927414 27.1535)
(5.64543 -0.0036971 27.1367)
(4.69156 -0.252297 27.0568)
(5.12156 -0.156793 27.0777)
(5.14773 -0.12377 27.0705)
(5.35146 -0.0630069 27.0769)
(5.2474 -0.0294678 27.0786)
(5.36194 -0.0072091 27.0887)
(5.24979 0.00598551 27.093)
(5.33833 0.0135066 27.1029)
(5.24188 0.0171054 27.1081)
(5.31768 0.0188193 27.1176)
(5.23741 0.0188837 27.1227)
(5.30137 0.0195237 27.1299)
(5.23483 0.0182556 27.1326)
(5.28547 0.019679 27.1367)
(5.23457 0.0163193 27.1372)
(5.26407 0.0187667 27.1394)
(5.24035 0.00924718 27.1387)
(5.21843 0.00789068 27.1407)
(5.24362 -0.0200487 27.1391)
(5.11346 -0.0892541 27.1258)
(4.57993 -0.487214 27.0547)
(4.7841 -0.295018 27.0814)
(4.53087 -0.203969 27.0802)
(4.56497 -0.11412 27.0899)
(4.35461 -0.0688773 27.0939)
(4.42315 -0.0455272 27.104)
(4.28297 -0.0336392 27.1083)
(4.36947 -0.0284804 27.1168)
(4.26743 -0.0257478 27.1206)
(4.34957 -0.0253597 27.1271)
(4.26589 -0.0245648 27.1295)
(4.33725 -0.02581 27.1333)
(4.26471 -0.0236417 27.134)
(4.3281 -0.0274993 27.1359)
(4.26066 -0.0194114 27.1357)
(4.32729 -0.0318711 27.1368)
(4.24724 -0.00515675 27.1362)
(4.35866 -0.0344674 27.1376)
(4.20155 0.0228806 27.1357)
(4.54785 0.0218605 27.1238)
(3.57159 -0.374285 27.0305)
(3.03504 -0.116251 27.0648)
(2.43029 -0.0285601 27.0672)
(2.35115 0.0237407 27.0756)
(2.15445 0.0360799 27.0763)
(2.21178 0.0386256 27.0819)
(2.10469 0.0385533 27.0819)
(2.17756 0.0373257 27.0861)
(2.09765 0.0368676 27.0857)
(2.16346 0.0364033 27.0887)
(2.09699 0.0361436 27.088)
(2.15274 0.036745 27.09)
(2.09596 0.0349343 27.0891)
(2.14308 0.0379298 27.0905)
(2.09364 0.0305648 27.0897)
(2.13471 0.040646 27.0908)
(2.08724 0.0128659 27.0901)
(2.11886 0.0425863 27.0912)
(2.07977 -0.0707861 27.0898)
(1.94648 -0.11931 27.0867)
(1.59447 -0.14124 -27.1296)
(1.60411 -0.141706 -27.1979)
(1.53982 -0.107777 -27.212)
(1.5659 -0.10279 -27.2154)
(1.52905 -0.101655 -27.2152)
(1.55332 -0.101154 -27.2158)
(1.52373 -0.101216 -27.2154)
(1.54554 -0.100996 -27.2156)
(1.52142 -0.10109 -27.2152)
(1.54151 -0.100926 -27.2151)
(1.5217 -0.101008 -27.2148)
(1.54055 -0.100878 -27.2145)
(1.52425 -0.100949 -27.2142)
(1.54216 -0.100842 -27.2138)
(1.52863 -0.100905 -27.2134)
(1.54563 -0.100815 -27.2129)
(1.53427 -0.100872 -27.2125)
(1.55043 -0.100794 -27.212)
(1.54094 -0.100846 -27.2116)
(1.55645 -0.100778 -27.211)
(1.54865 -0.100825 -27.2106)
(1.56362 -0.100766 -27.2099)
(1.55721 -0.10081 -27.2095)
(1.57157 -0.100757 -27.2089)
(1.56628 -0.100797 -27.2084)
(1.57999 -0.10075 -27.2077)
(1.57566 -0.100786 -27.2072)
(1.58881 -0.100742 -27.2066)
(1.58542 -0.100776 -27.2061)
(1.59814 -0.100737 -27.2054)
(1.59568 -0.100768 -27.2049)
(1.60804 -0.100733 -27.2042)
(1.60636 -0.100762 -27.2037)
(1.61825 -0.10073 -27.203)
(1.6171 -0.100756 -27.2024)
(1.62842 -0.100726 -27.2017)
(1.62773 -0.100749 -27.2012)
(1.6386 -0.100721 -27.2005)
(1.6385 -0.100742 -27.1999)
(1.64912 -0.100716 -27.1992)
(1.64965 -0.100736 -27.1986)
(1.66008 -0.100713 -27.1979)
(1.66114 -0.100732 -27.1973)
(1.67127 -0.100712 -27.1967)
(1.67265 -0.100728 -27.1961)