/*--------------------------------*- C++ -*----------------------------------*\
  =========                 |
  \\      /  F ield         | OpenFOAM: The Open Source CFD Toolbox
   \\    /   O peration     | Website:  https://openfoam.org
    \\  /    A nd           | Version:  7
     \\/     M anipulation  |
\*---------------------------------------------------------------------------*/
FoamFile
{
    version     2.0;
    format      ascii;
    class       volScalarField;
    location    "1.015";
    object      nut;
}
// * * * * * * * * * * * * * * * * * * * * * * * * * * * * * * * * * * * * * //

dimensions      [0 2 -1 0 0 0 0];

internalField   nonuniform List<scalar> 
4950
(
0.00876932
0.00934168
0.00936069
0.00936767
0.00936144
0.00936318
0.00935716
0.00935812
0.00935358
0.00935489
0.00935177
0.00935336
0.00935116
0.00935264
0.00935098
0.00935178
0.00935122
0.00934992
0.00935509
0.00937835
0.00461158
0.00491337
0.00488027
0.00478938
0.0047206
0.00468605
0.00466139
0.00465054
0.00463919
0.00463474
0.00462799
0.00462576
0.00462125
0.00461994
0.00461684
0.00461571
0.00461638
0.00461007
0.00465569
0.00466823
0.00366558
0.00406173
0.00414876
0.00417019
0.00417279
0.00417788
0.00417836
0.00418139
0.00418192
0.00418466
0.00418517
0.00418758
0.00418812
0.00419042
0.00419099
0.00419317
0.00419357
0.00419472
0.00419679
0.00420536
0.00358426
0.00397877
0.00408111
0.00412148
0.00413929
0.00415525
0.00416359
0.00417413
0.00417969
0.00418804
0.00419236
0.00419934
0.00420285
0.00420894
0.00421208
0.0042175
0.0042205
0.00422443
0.00422716
0.00423566
0.00357232
0.00397047
0.00407348
0.00411557
0.00413429
0.00415159
0.00416081
0.00417274
0.00417931
0.00418915
0.00419461
0.00420306
0.00420768
0.00421511
0.0042193
0.00422601
0.00423001
0.00423545
0.00423872
0.00424826
0.00358426
0.00397877
0.00408111
0.00412148
0.00413929
0.00415526
0.00416359
0.00417414
0.00417968
0.00418805
0.00419235
0.00419936
0.00420283
0.00420897
0.00421204
0.00421754
0.00422046
0.00422447
0.00422718
0.0042357
0.00366558
0.00406173
0.00414875
0.00417019
0.00417279
0.00417788
0.00417836
0.00418139
0.00418191
0.00418466
0.00418516
0.0041876
0.0041881
0.00419047
0.00419095
0.00419326
0.00419349
0.00419489
0.00419665
0.0042055
0.00461158
0.00491337
0.00488027
0.00478938
0.0047206
0.00468605
0.00466138
0.00465054
0.00463918
0.00463475
0.00462797
0.00462577
0.00462121
0.00461997
0.00461672
0.00461583
0.00461608
0.00461051
0.00465456
0.00466881
0.00876932
0.00934168
0.00936069
0.00936767
0.00936144
0.00936318
0.00935716
0.00935812
0.00935358
0.0093549
0.00935175
0.00935339
0.00935111
0.00935272
0.00935084
0.00935203
0.0093508
0.00935066
0.00935383
0.00938089
0.0034473
0.00414499
0.00423431
0.00421905
0.00420727
0.00418774
0.00418331
0.00417193
0.0041703
0.00416293
0.0041623
0.00415703
0.00415682
0.00415268
0.00415281
0.00414894
0.00414987
0.00414483
0.00414441
0.00416109
0.00297225
0.00376468
0.0039194
0.00395083
0.0039578
0.00396062
0.00396222
0.00396401
0.00396523
0.00396671
0.00396777
0.00396903
0.00396991
0.00397093
0.00397143
0.0039722
0.00397217
0.00397226
0.00397375
0.00397831
0.00289842
0.00368428
0.00384317
0.00388037
0.00388733
0.00389051
0.00389089
0.00389251
0.00389342
0.00389567
0.00389704
0.00389945
0.00390115
0.00390352
0.00390547
0.00390748
0.00390926
0.00391047
0.0039109
0.00391958
0.0029015
0.00368601
0.00384321
0.0038801
0.00388698
0.00388929
0.00388869
0.00388884
0.00388849
0.00388901
0.00388925
0.00389022
0.00389082
0.00389221
0.00389327
0.00389499
0.00389622
0.00389776
0.00389874
0.00390572
0.0028948
0.00367837
0.00383662
0.00387433
0.00388126
0.00388372
0.00388294
0.00388301
0.00388238
0.00388276
0.00388267
0.00388332
0.00388358
0.00388464
0.00388529
0.00388691
0.00388768
0.00388931
0.00388969
0.00389593
0.0029015
0.00368601
0.00384321
0.0038801
0.00388698
0.00388929
0.00388869
0.00388884
0.00388849
0.00388901
0.00388925
0.00389023
0.00389081
0.00389223
0.00389323
0.00389503
0.00389617
0.00389778
0.00389872
0.0039057
0.00289842
0.00368428
0.00384317
0.00388037
0.00388733
0.00389051
0.00389089
0.00389251
0.00389342
0.00389568
0.00389701
0.00389949
0.00390109
0.0039036
0.00390535
0.00390763
0.00390904
0.00391068
0.00391076
0.0039196
0.00297225
0.00376468
0.0039194
0.00395083
0.0039578
0.00396062
0.00396221
0.00396402
0.00396522
0.00396672
0.00396775
0.00396906
0.00396986
0.003971
0.00397135
0.00397232
0.00397192
0.00397255
0.00397333
0.00397893
0.0034473
0.00414499
0.00423431
0.00421905
0.00420727
0.00418774
0.00418331
0.00417193
0.0041703
0.00416294
0.00416229
0.00415704
0.00415682
0.00415271
0.00415278
0.00414903
0.00414978
0.00414515
0.00414399
0.00416206
0.000824146
0.00150676
0.0016921
0.00172168
0.0017082
0.00167839
0.00164824
0.00162338
0.00160365
0.00158738
0.00157549
0.00156461
0.00155739
0.00154951
0.00154497
0.00153905
0.00153547
0.00153242
0.00152535
0.00153682
0.000386178
0.000922052
0.00116812
0.00126975
0.00131031
0.00133048
0.00134043
0.00134918
0.00135543
0.00136198
0.00136678
0.00137162
0.00137496
0.00137834
0.00138057
0.00138271
0.00138459
0.00138528
0.00138681
0.00139085
0.000357071
0.000848181
0.0010698
0.00117236
0.00121055
0.00123193
0.00123803
0.0012447
0.00124648
0.00125048
0.00125222
0.00125591
0.00125803
0.0012615
0.0012639
0.00126695
0.00126927
0.00127201
0.00127338
0.00127854
0.00036215
0.000859154
0.00108005
0.00117901
0.00121651
0.00123576
0.00124155
0.00124603
0.0012467
0.00124815
0.00124839
0.00124913
0.00124949
0.00125023
0.00125091
0.00125145
0.00125238
0.0012528
0.00125363
0.00125714
0.000356406
0.000846773
0.00106522
0.00116643
0.0012035
0.00122419
0.00122935
0.00123451
0.00123487
0.00123623
0.00123613
0.00123668
0.00123665
0.00123709
0.0012372
0.00123766
0.00123772
0.00123803
0.00123769
0.00124043
0.00036215
0.000859154
0.00108005
0.00117901
0.00121651
0.00123576
0.00124154
0.00124603
0.0012467
0.00124815
0.00124839
0.00124913
0.00124949
0.00125023
0.0012509
0.00125146
0.00125237
0.00125279
0.00125362
0.00125712
0.000357071
0.000848182
0.0010698
0.00117236
0.00121055
0.00123194
0.00123803
0.0012447
0.00124648
0.00125048
0.00125221
0.00125592
0.001258
0.00126153
0.00126386
0.00126698
0.00126923
0.001272
0.00127335
0.00127846
0.000386178
0.000922053
0.00116812
0.00126975
0.00131031
0.00133048
0.00134043
0.00134919
0.00135543
0.00136199
0.00136676
0.00137164
0.00137493
0.00137838
0.00138051
0.00138277
0.00138448
0.00138525
0.00138675
0.00139079
0.000824146
0.00150676
0.0016921
0.00172168
0.0017082
0.00167839
0.00164824
0.00162338
0.00160365
0.00158739
0.00157549
0.00156463
0.00155738
0.00154955
0.00154496
0.00153917
0.00153544
0.00153265
0.00152538
0.00153739
0.0034473
0.00414499
0.00423431
0.00421905
0.00420727
0.00418774
0.00418331
0.00417193
0.0041703
0.00416293
0.0041623
0.00415703
0.00415682
0.00415268
0.00415281
0.00414894
0.00414987
0.00414483
0.00414441
0.00416109
0.00297225
0.00376468
0.0039194
0.00395083
0.0039578
0.00396062
0.00396222
0.00396401
0.00396523
0.00396671
0.00396777
0.00396903
0.00396991
0.00397093
0.00397143
0.0039722
0.00397217
0.00397226
0.00397375
0.00397831
0.00289842
0.00368428
0.00384317
0.00388037
0.00388733
0.00389051
0.00389089
0.00389251
0.00389342
0.00389567
0.00389704
0.00389945
0.00390115
0.00390352
0.00390547
0.00390748
0.00390926
0.00391047
0.0039109
0.00391958
0.0029015
0.00368601
0.00384321
0.0038801
0.00388698
0.00388929
0.00388869
0.00388884
0.00388849
0.00388901
0.00388925
0.00389022
0.00389082
0.00389221
0.00389327
0.00389499
0.00389622
0.00389776
0.00389874
0.00390572
0.0028948
0.00367837
0.00383662
0.00387433
0.00388126
0.00388372
0.00388294
0.00388301
0.00388238
0.00388276
0.00388267
0.00388332
0.00388358
0.00388464
0.00388529
0.00388691
0.00388768
0.00388931
0.00388969
0.00389593
0.0029015
0.00368601
0.00384321
0.0038801
0.00388698
0.00388929
0.00388869
0.00388884
0.00388849
0.00388901
0.00388925
0.00389023
0.00389081
0.00389223
0.00389323
0.00389503
0.00389617
0.00389778
0.00389872
0.0039057
0.00289842
0.00368428
0.00384317
0.00388037
0.00388733
0.00389051
0.00389089
0.00389251
0.00389342
0.00389568
0.00389701
0.00389949
0.00390109
0.0039036
0.00390535
0.00390763
0.00390905
0.00391068
0.00391076
0.0039196
0.00297225
0.00376468
0.0039194
0.00395083
0.0039578
0.00396062
0.00396221
0.00396402
0.00396522
0.00396672
0.00396775
0.00396906
0.00396986
0.003971
0.00397135
0.00397232
0.00397192
0.00397255
0.00397333
0.00397893
0.0034473
0.00414499
0.00423431
0.00421905
0.00420727
0.00418774
0.00418331
0.00417193
0.0041703
0.00416294
0.00416229
0.00415704
0.00415682
0.00415271
0.00415278
0.00414903
0.00414978
0.00414515
0.00414399
0.00416206
0.00876932
0.00934168
0.00936069
0.00936767
0.00936144
0.00936318
0.00935716
0.00935812
0.00935358
0.00935489
0.00935177
0.00935336
0.00935116
0.00935264
0.00935098
0.00935178
0.00935122
0.00934992
0.00935509
0.00937835
0.00461158
0.00491337
0.00488027
0.00478938
0.0047206
0.00468605
0.00466139
0.00465054
0.00463919
0.00463474
0.00462799
0.00462576
0.00462125
0.00461994
0.00461684
0.00461571
0.00461638
0.00461007
0.00465569
0.00466823
0.00366558
0.00406173
0.00414876
0.00417019
0.00417279
0.00417788
0.00417836
0.00418139
0.00418192
0.00418466
0.00418517
0.00418758
0.00418812
0.00419042
0.00419099
0.00419317
0.00419357
0.00419472
0.00419679
0.00420536
0.00358426
0.00397877
0.00408111
0.00412148
0.00413929
0.00415525
0.00416359
0.00417413
0.00417969
0.00418804
0.00419236
0.00419934
0.00420285
0.00420894
0.00421208
0.0042175
0.0042205
0.00422443
0.00422716
0.00423566
0.00357232
0.00397047
0.00407348
0.00411557
0.00413429
0.00415159
0.00416081
0.00417274
0.00417931
0.00418915
0.00419461
0.00420306
0.00420768
0.00421511
0.0042193
0.00422601
0.00423001
0.00423545
0.00423872
0.00424826
0.00358426
0.00397877
0.00408111
0.00412148
0.00413929
0.00415526
0.00416359
0.00417414
0.00417968
0.00418805
0.00419235
0.00419936
0.00420283
0.00420897
0.00421204
0.00421754
0.00422046
0.00422447
0.00422718
0.0042357
0.00366558
0.00406173
0.00414875
0.00417019
0.00417279
0.00417788
0.00417836
0.00418139
0.00418191
0.00418466
0.00418516
0.0041876
0.0041881
0.00419047
0.00419095
0.00419327
0.00419349
0.00419489
0.00419665
0.0042055
0.00461158
0.00491337
0.00488027
0.00478938
0.0047206
0.00468605
0.00466138
0.00465054
0.00463918
0.00463475
0.00462797
0.00462577
0.00462121
0.00461997
0.00461672
0.00461583
0.00461608
0.00461051
0.00465456
0.00466881
0.00876932
0.00934168
0.00936069
0.00936767
0.00936144
0.00936318
0.00935716
0.00935812
0.00935358
0.0093549
0.00935175
0.00935339
0.00935111
0.00935272
0.00935084
0.00935203
0.0093508
0.00935066
0.00935384
0.00938089
0.0274712
0.0276963
0.027783
0.0278584
0.0279105
0.027959
0.0279935
0.0280311
0.028062
0.0280953
0.0281201
0.0281431
0.0281569
0.028169
0.0281743
0.0281797
0.0281808
0.0281831
0.0281826
0.0281838
0.028183
0.0281838
0.028183
0.0281837
0.0281829
0.0281835
0.0281828
0.0281834
0.0281827
0.0281833
0.0281827
0.0281832
0.0281826
0.0281831
0.0281826
0.028183
0.0281825
0.0281829
0.0281825
0.0281829
0.0281825
0.0281829
0.0281825
0.0281829
0.0281826
0.0281829
0.0281826
0.0281829
0.0281827
0.028183
0.0281828
0.0281831
0.0281829
0.0281832
0.028183
0.0281833
0.0281832
0.0281834
0.0281833
0.0281836
0.0281835
0.0281838
0.0281837
0.028184
0.0281839
0.0281842
0.0281841
0.0281844
0.0281844
0.0281847
0.0281847
0.0281849
0.0281849
0.0281852
0.0281852
0.0281855
0.0281855
0.0281858
0.0281858
0.028186
0.0281861
0.0281863
0.0281864
0.0281865
0.0281867
0.0281867
0.0281867
0.028187
0.0281826
0.0281799
0.016027
0.016526
0.0165832
0.0166325
0.0166585
0.0166917
0.0167078
0.0167337
0.0167483
0.0167716
0.0167836
0.0168009
0.016807
0.0168176
0.0168191
0.0168251
0.0168243
0.0168282
0.0168266
0.0168296
0.016828
0.0168306
0.0168291
0.0168315
0.0168301
0.0168323
0.016831
0.0168331
0.016832
0.0168339
0.0168329
0.0168347
0.0168337
0.0168354
0.0168345
0.0168362
0.0168353
0.0168368
0.0168361
0.0168375
0.0168368
0.0168382
0.0168375
0.0168388
0.0168382
0.0168394
0.0168389
0.01684
0.0168395
0.0168406
0.0168402
0.0168412
0.0168408
0.0168418
0.0168414
0.0168424
0.0168421
0.0168429
0.0168427
0.0168435
0.0168433
0.0168441
0.0168439
0.0168447
0.0168445
0.0168453
0.0168451
0.0168459
0.0168458
0.0168465
0.0168464
0.0168471
0.016847
0.0168477
0.0168476
0.0168483
0.0168483
0.0168489
0.0168489
0.0168495
0.0168495
0.01685
0.0168501
0.0168506
0.0168506
0.0168511
0.0168511
0.0168518
0.016849
0.0168483
0.0134661
0.0141816
0.014241
0.0142848
0.0143025
0.0143361
0.0143462
0.01437
0.0143782
0.0144006
0.0144093
0.0144293
0.0144347
0.0144489
0.0144505
0.0144599
0.0144593
0.014466
0.0144647
0.0144702
0.0144688
0.0144739
0.0144726
0.0144773
0.0144762
0.0144807
0.0144797
0.014484
0.0144832
0.0144873
0.0144866
0.0144904
0.0144899
0.0144936
0.0144931
0.0144966
0.0144962
0.0144995
0.0144993
0.0145024
0.0145022
0.0145052
0.0145051
0.0145079
0.0145079
0.0145106
0.0145106
0.0145132
0.0145132
0.0145157
0.0145157
0.0145181
0.0145182
0.0145205
0.0145206
0.0145228
0.0145229
0.014525
0.0145252
0.0145272
0.0145274
0.0145293
0.0145295
0.0145314
0.0145316
0.0145334
0.0145337
0.0145354
0.0145356
0.0145373
0.0145376
0.0145391
0.0145394
0.014541
0.0145412
0.0145427
0.014543
0.0145444
0.0145447
0.014546
0.0145463
0.0145476
0.0145479
0.0145491
0.0145493
0.0145505
0.0145507
0.0145516
0.0145525
0.0145475
0.0131627
0.0140264
0.0141021
0.0141434
0.0141575
0.0141912
0.0141991
0.0142208
0.0142254
0.0142459
0.0142535
0.0142748
0.014281
0.0142977
0.0143002
0.0143117
0.0143118
0.0143201
0.0143192
0.014326
0.0143249
0.0143312
0.0143302
0.014336
0.0143353
0.0143409
0.0143403
0.0143456
0.0143452
0.0143503
0.01435
0.0143549
0.0143548
0.0143594
0.0143594
0.0143638
0.0143638
0.0143681
0.0143682
0.0143723
0.0143725
0.0143764
0.0143766
0.0143804
0.0143807
0.0143843
0.0143846
0.0143881
0.0143885
0.0143918
0.0143922
0.0143953
0.0143958
0.0143988
0.0143993
0.0144022
0.0144028
0.0144056
0.0144061
0.0144088
0.0144093
0.0144119
0.0144125
0.014415
0.0144156
0.014418
0.0144185
0.0144208
0.0144214
0.0144237
0.0144242
0.0144264
0.0144269
0.014429
0.0144296
0.0144316
0.0144321
0.014434
0.0144346
0.0144364
0.0144369
0.0144386
0.0144391
0.0144408
0.0144413
0.0144428
0.0144433
0.0144446
0.0144457
0.0144415
0.0131609
0.014038
0.0141116
0.0141481
0.0141578
0.0141884
0.0141938
0.0142125
0.0142141
0.0142318
0.0142378
0.0142582
0.0142641
0.0142812
0.0142839
0.0142961
0.0142963
0.0143052
0.0143045
0.0143117
0.0143108
0.0143174
0.0143166
0.0143228
0.0143222
0.0143281
0.0143277
0.0143334
0.0143331
0.0143386
0.0143384
0.0143436
0.0143436
0.0143486
0.0143487
0.0143535
0.0143537
0.0143582
0.0143585
0.0143629
0.0143632
0.0143674
0.0143678
0.0143719
0.0143723
0.0143762
0.0143767
0.0143804
0.0143809
0.0143845
0.0143851
0.0143885
0.0143891
0.0143924
0.014393
0.0143962
0.0143968
0.0143999
0.0144005
0.0144035
0.0144042
0.014407
0.0144077
0.0144104
0.0144111
0.0144137
0.0144144
0.0144169
0.0144176
0.01442
0.0144207
0.0144231
0.0144237
0.014426
0.0144267
0.0144288
0.0144295
0.0144316
0.0144322
0.0144342
0.0144348
0.0144367
0.0144373
0.0144391
0.0144396
0.0144413
0.0144419
0.0144432
0.0144454
0.0144401
0.013163
0.0140181
0.0140812
0.0141105
0.0141158
0.0141405
0.0141425
0.014157
0.0141564
0.014171
0.0141752
0.014193
0.0141976
0.0142129
0.0142148
0.0142259
0.0142258
0.014234
0.0142331
0.01424
0.0142389
0.0142452
0.0142443
0.0142502
0.0142494
0.014255
0.0142545
0.0142599
0.0142595
0.0142646
0.0142644
0.0142693
0.0142692
0.0142739
0.0142739
0.0142784
0.0142784
0.0142827
0.0142829
0.014287
0.0142873
0.0142912
0.0142915
0.0142953
0.0142956
0.0142992
0.0142996
0.0143031
0.0143035
0.0143069
0.0143073
0.0143105
0.014311
0.0143141
0.0143146
0.0143176
0.0143181
0.014321
0.0143215
0.0143243
0.0143249
0.0143275
0.0143281
0.0143306
0.0143312
0.0143337
0.0143343
0.0143366
0.0143372
0.0143395
0.0143401
0.0143423
0.0143429
0.014345
0.0143456
0.0143476
0.0143482
0.0143501
0.0143507
0.0143525
0.0143531
0.0143549
0.0143554
0.0143571
0.0143576
0.0143592
0.0143597
0.014361
0.0143621
0.0143581
0.0134598
0.014148
0.0141791
0.0141989
0.0141995
0.0142167
0.0142152
0.0142256
0.0142234
0.014235
0.0142369
0.0142507
0.014253
0.0142646
0.0142651
0.0142736
0.0142728
0.0142793
0.014278
0.0142836
0.0142822
0.0142873
0.014286
0.0142909
0.0142898
0.0142944
0.0142935
0.0142978
0.0142971
0.0143012
0.0143006
0.0143046
0.0143041
0.0143078
0.0143075
0.014311
0.0143107
0.0143141
0.0143139
0.0143171
0.014317
0.0143201
0.01432
0.0143229
0.0143229
0.0143257
0.0143257
0.0143284
0.0143285
0.0143311
0.0143312
0.0143336
0.0143338
0.0143361
0.0143363
0.0143386
0.0143388
0.0143409
0.0143411
0.0143432
0.0143435
0.0143455
0.0143457
0.0143477
0.0143479
0.0143498
0.0143501
0.0143519
0.0143522
0.0143539
0.0143542
0.0143559
0.0143562
0.0143578
0.0143581
0.0143596
0.0143599
0.0143614
0.0143617
0.0143631
0.0143634
0.0143648
0.0143651
0.0143664
0.0143666
0.0143678
0.0143681
0.014369
0.0143701
0.0143654
0.0159901
0.0164277
0.0164361
0.0164478
0.0164463
0.0164562
0.0164529
0.0164589
0.0164563
0.0164636
0.0164639
0.016472
0.0164725
0.016479
0.0164783
0.016483
0.0164816
0.0164852
0.0164835
0.0164865
0.0164848
0.0164876
0.016486
0.0164885
0.0164871
0.0164895
0.0164882
0.0164904
0.0164893
0.0164913
0.0164903
0.0164922
0.0164912
0.016493
0.0164922
0.0164939
0.0164931
0.0164947
0.0164939
0.0164954
0.0164948
0.0164962
0.0164956
0.0164969
0.0164963
0.0164976
0.0164971
0.0164983
0.0164978
0.016499
0.0164985
0.0164996
0.0164993
0.0165003
0.0164999
0.0165009
0.0165006
0.0165015
0.0165013
0.0165022
0.0165019
0.0165028
0.0165026
0.0165034
0.0165033
0.0165041
0.0165039
0.0165047
0.0165046
0.0165053
0.0165052
0.0165059
0.0165059
0.0165066
0.0165065
0.0165072
0.0165072
0.0165078
0.0165078
0.0165084
0.0165084
0.016509
0.016509
0.0165096
0.0165096
0.0165101
0.0165101
0.0165108
0.0165082
0.0165077
0.0273665
0.0274766
0.0274772
0.0274847
0.0274863
0.0274935
0.0274923
0.0274955
0.0274945
0.0274993
0.0275012
0.0275069
0.0275088
0.0275131
0.0275136
0.0275161
0.0275157
0.0275172
0.0275163
0.0275173
0.0275164
0.0275172
0.0275163
0.027517
0.0275162
0.0275169
0.0275161
0.0275167
0.027516
0.0275166
0.0275159
0.0275164
0.0275158
0.0275163
0.0275158
0.0275162
0.0275157
0.0275161
0.0275156
0.027516
0.0275156
0.0275159
0.0275155
0.0275159
0.0275155
0.0275158
0.0275155
0.0275158
0.0275155
0.0275158
0.0275155
0.0275158
0.0275155
0.0275158
0.0275155
0.0275158
0.0275156
0.0275158
0.0275156
0.0275159
0.0275157
0.0275159
0.0275158
0.027516
0.0275159
0.0275161
0.027516
0.0275162
0.0275161
0.0275163
0.0275163
0.0275165
0.0275164
0.0275166
0.0275166
0.0275168
0.0275167
0.0275169
0.0275169
0.0275171
0.027517
0.0275172
0.0275172
0.0275173
0.0275173
0.0275174
0.0275173
0.0275176
0.0275134
0.0275107
0.0134377
0.0136801
0.0137291
0.0137645
0.0137909
0.0138137
0.0138311
0.0138503
0.0138655
0.0138826
0.0138937
0.0139056
0.0139109
0.0139176
0.0139188
0.0139224
0.0139217
0.0139239
0.0139226
0.0139243
0.0139228
0.0139244
0.0139229
0.0139243
0.0139229
0.0139242
0.0139229
0.0139241
0.0139228
0.0139239
0.0139227
0.0139238
0.0139227
0.0139236
0.0139226
0.0139234
0.0139224
0.0139233
0.0139223
0.0139231
0.0139222
0.0139229
0.0139221
0.0139227
0.013922
0.0139226
0.0139219
0.0139225
0.0139218
0.0139223
0.0139217
0.0139222
0.0139217
0.0139222
0.0139216
0.0139221
0.0139216
0.0139221
0.0139216
0.013922
0.0139216
0.0139221
0.0139217
0.0139221
0.0139218
0.0139222
0.0139219
0.0139223
0.013922
0.0139224
0.0139222
0.0139226
0.0139224
0.0139228
0.0139226
0.013923
0.0139229
0.0139233
0.0139232
0.0139236
0.0139236
0.013924
0.013924
0.0139244
0.0139245
0.013925
0.0139251
0.0139261
0.0139247
0.0139257
0.0128219
0.0133152
0.0133764
0.0134134
0.0134408
0.0134652
0.0134831
0.0135021
0.0135179
0.0135353
0.0135484
0.0135613
0.0135691
0.0135768
0.0135802
0.0135846
0.0135858
0.0135885
0.0135889
0.0135909
0.0135911
0.0135929
0.013593
0.0135947
0.0135949
0.0135965
0.0135966
0.0135982
0.0135984
0.0135998
0.0136
0.0136014
0.0136016
0.013603
0.0136032
0.0136045
0.0136047
0.0136059
0.0136061
0.0136073
0.0136075
0.0136087
0.0136089
0.01361
0.0136102
0.0136113
0.0136115
0.0136125
0.0136128
0.0136137
0.013614
0.0136149
0.0136151
0.013616
0.0136163
0.0136171
0.0136174
0.0136182
0.0136184
0.0136192
0.0136194
0.0136202
0.0136204
0.0136212
0.0136214
0.0136221
0.0136223
0.013623
0.0136232
0.0136239
0.0136241
0.0136247
0.013625
0.0136256
0.0136258
0.0136264
0.0136266
0.0136272
0.0136274
0.0136279
0.0136281
0.0136287
0.0136289
0.0136294
0.0136296
0.0136301
0.0136303
0.0136307
0.0136314
0.0136318
0.0122165
0.0129115
0.0129907
0.0130259
0.0130529
0.0130768
0.0130936
0.0131092
0.0131228
0.0131381
0.0131516
0.0131648
0.0131744
0.0131828
0.0131878
0.0131922
0.0131944
0.0131968
0.0131978
0.0131994
0.0132
0.0132013
0.0132018
0.013203
0.0132035
0.0132046
0.0132051
0.0132063
0.0132067
0.0132078
0.0132083
0.0132094
0.0132099
0.0132109
0.0132114
0.0132125
0.013213
0.0132139
0.0132144
0.0132154
0.0132159
0.0132168
0.0132173
0.0132182
0.0132187
0.0132196
0.0132201
0.0132209
0.0132214
0.0132222
0.0132227
0.0132235
0.013224
0.0132247
0.0132252
0.0132259
0.0132264
0.0132271
0.0132276
0.0132283
0.0132287
0.0132294
0.0132298
0.0132305
0.0132309
0.0132315
0.0132319
0.0132325
0.0132329
0.0132335
0.0132338
0.0132344
0.0132348
0.0132353
0.0132356
0.0132362
0.0132365
0.013237
0.0132373
0.0132378
0.0132381
0.0132385
0.0132388
0.0132392
0.0132395
0.0132399
0.0132401
0.0132405
0.0132411
0.0132368
0.0120502
0.0128008
0.0128794
0.0129066
0.0129297
0.0129518
0.0129665
0.0129786
0.0129888
0.0130012
0.0130136
0.0130268
0.0130372
0.0130463
0.0130522
0.013057
0.0130596
0.013062
0.013063
0.0130643
0.0130649
0.0130658
0.0130662
0.0130671
0.0130674
0.0130683
0.0130686
0.0130694
0.0130698
0.0130706
0.0130709
0.0130717
0.013072
0.0130728
0.0130731
0.0130738
0.0130742
0.0130749
0.0130753
0.0130759
0.0130763
0.013077
0.0130773
0.013078
0.0130783
0.013079
0.0130793
0.0130799
0.0130803
0.0130809
0.0130812
0.0130818
0.0130821
0.0130827
0.013083
0.0130836
0.0130839
0.0130845
0.0130848
0.0130853
0.0130856
0.0130861
0.0130864
0.0130869
0.0130872
0.0130877
0.013088
0.0130884
0.0130887
0.0130892
0.0130894
0.0130899
0.0130901
0.0130906
0.0130908
0.0130912
0.0130915
0.0130919
0.0130921
0.0130925
0.0130927
0.013093
0.0130932
0.0130936
0.0130938
0.0130941
0.0130942
0.0130945
0.0130946
0.0130914
0.0119427
0.0127348
0.0128113
0.0128312
0.0128491
0.0128676
0.0128791
0.0128877
0.0128943
0.0129038
0.0129142
0.0129262
0.0129361
0.012945
0.0129509
0.0129558
0.0129585
0.0129608
0.0129619
0.0129632
0.0129636
0.0129645
0.0129648
0.0129656
0.0129659
0.0129666
0.0129669
0.0129677
0.0129679
0.0129687
0.0129689
0.0129696
0.0129699
0.0129706
0.0129709
0.0129715
0.0129718
0.0129725
0.0129727
0.0129734
0.0129737
0.0129743
0.0129745
0.0129751
0.0129754
0.012976
0.0129763
0.0129769
0.0129771
0.0129777
0.012978
0.0129785
0.0129788
0.0129793
0.0129796
0.0129801
0.0129803
0.0129808
0.0129811
0.0129816
0.0129818
0.0129823
0.0129825
0.012983
0.0129832
0.0129837
0.0129839
0.0129843
0.0129846
0.012985
0.0129852
0.0129856
0.0129858
0.0129862
0.0129864
0.0129868
0.012987
0.0129874
0.0129876
0.0129879
0.0129881
0.0129885
0.0129886
0.012989
0.0129891
0.0129894
0.0129896
0.0129897
0.0129903
0.0129855
0.0120502
0.0127915
0.0128572
0.0128725
0.012886
0.0129003
0.0129082
0.0129137
0.0129179
0.0129251
0.0129335
0.0129436
0.012952
0.0129599
0.012965
0.0129694
0.0129718
0.0129741
0.0129751
0.0129764
0.0129769
0.0129779
0.0129783
0.0129792
0.0129796
0.0129804
0.0129808
0.0129816
0.012982
0.0129828
0.0129831
0.0129839
0.0129843
0.0129851
0.0129854
0.0129862
0.0129866
0.0129873
0.0129877
0.0129884
0.0129887
0.0129894
0.0129898
0.0129905
0.0129908
0.0129915
0.0129919
0.0129925
0.0129929
0.0129935
0.0129938
0.0129945
0.0129948
0.0129954
0.0129958
0.0129963
0.0129967
0.0129972
0.0129976
0.0129981
0.0129984
0.012999
0.0129993
0.0129998
0.0130001
0.0130006
0.0130009
0.0130014
0.0130017
0.0130022
0.0130025
0.0130029
0.0130032
0.0130037
0.0130039
0.0130044
0.0130046
0.013005
0.0130053
0.0130057
0.0130059
0.0130063
0.0130065
0.0130069
0.0130071
0.0130075
0.0130076
0.0130079
0.013008
0.013005
0.0122115
0.0128807
0.0129328
0.012945
0.0129548
0.0129644
0.0129689
0.0129724
0.0129752
0.012981
0.0129872
0.0129951
0.0130013
0.0130074
0.0130112
0.0130149
0.0130167
0.0130189
0.0130198
0.0130214
0.013022
0.0130233
0.0130238
0.0130251
0.0130256
0.0130268
0.0130273
0.0130285
0.013029
0.0130302
0.0130307
0.0130318
0.0130323
0.0130334
0.0130339
0.013035
0.0130355
0.0130365
0.0130371
0.0130381
0.0130386
0.0130396
0.0130401
0.013041
0.0130415
0.0130425
0.013043
0.0130439
0.0130444
0.0130452
0.0130457
0.0130466
0.0130471
0.0130479
0.0130484
0.0130492
0.0130497
0.0130504
0.0130509
0.0130516
0.0130521
0.0130528
0.0130533
0.013054
0.0130544
0.0130551
0.0130555
0.0130561
0.0130565
0.0130572
0.0130576
0.0130582
0.0130586
0.0130591
0.0130595
0.0130601
0.0130604
0.013061
0.0130613
0.0130618
0.0130621
0.0130626
0.0130629
0.0130634
0.0130636
0.0130641
0.0130643
0.0130648
0.0130655
0.0130614
0.0127965
0.0132416
0.0132636
0.0132705
0.0132756
0.0132817
0.0132834
0.0132866
0.0132882
0.0132932
0.0132967
0.0133027
0.0133058
0.0133106
0.0133123
0.0133156
0.0133164
0.0133188
0.0133191
0.0133212
0.0133214
0.0133232
0.0133234
0.0133251
0.0133253
0.013327
0.0133272
0.0133288
0.013329
0.0133305
0.0133307
0.0133322
0.0133324
0.0133339
0.0133341
0.0133354
0.0133357
0.013337
0.0133372
0.0133385
0.0133387
0.0133399
0.0133402
0.0133413
0.0133416
0.0133427
0.013343
0.013344
0.0133443
0.0133453
0.0133456
0.0133465
0.0133468
0.0133477
0.013348
0.0133489
0.0133492
0.01335
0.0133503
0.0133511
0.0133514
0.0133522
0.0133524
0.0133532
0.0133534
0.0133542
0.0133544
0.0133551
0.0133554
0.013356
0.0133563
0.0133569
0.0133572
0.0133578
0.013358
0.0133587
0.0133589
0.0133595
0.0133597
0.0133603
0.0133605
0.0133611
0.0133613
0.0133619
0.013362
0.0133626
0.0133628
0.0133632
0.0133639
0.0133644
0.0133784
0.0135606
0.0135665
0.0135688
0.0135706
0.0135732
0.0135728
0.0135748
0.0135743
0.0135774
0.0135775
0.013581
0.0135808
0.0135837
0.0135828
0.0135851
0.0135838
0.0135857
0.0135842
0.0135859
0.0135844
0.013586
0.0135845
0.013586
0.0135846
0.0135859
0.0135846
0.0135858
0.0135846
0.0135857
0.0135846
0.0135856
0.0135845
0.0135855
0.0135844
0.0135853
0.0135843
0.0135852
0.0135842
0.013585
0.0135841
0.0135849
0.013584
0.0135847
0.0135839
0.0135846
0.0135838
0.0135844
0.0135838
0.0135843
0.0135837
0.0135842
0.0135836
0.0135841
0.0135835
0.013584
0.0135835
0.0135839
0.0135835
0.0135839
0.0135834
0.0135839
0.0135835
0.0135839
0.0135835
0.0135839
0.0135836
0.0135839
0.0135836
0.013584
0.0135838
0.0135841
0.0135839
0.0135843
0.0135841
0.0135844
0.0135843
0.0135847
0.0135845
0.0135849
0.0135848
0.0135853
0.0135852
0.0135857
0.0135857
0.0135863
0.0135862
0.0135872
0.0135858
0.0135868
0.00603574
0.00628086
0.00631202
0.00632763
0.00634334
0.00635687
0.00636838
0.00638219
0.0063913
0.00640438
0.00641004
0.00642078
0.00642304
0.00643146
0.00643157
0.00643852
0.00643754
0.00644367
0.00644218
0.00644782
0.00644608
0.00645133
0.00644948
0.00645437
0.00645248
0.00645703
0.00645514
0.00645937
0.00645751
0.00646143
0.00645962
0.00646326
0.00646152
0.00646489
0.00646322
0.00646635
0.00646475
0.00646766
0.00646615
0.00646885
0.00646742
0.00646994
0.00646858
0.00647093
0.00646966
0.00647185
0.00647066
0.00647271
0.00647159
0.00647351
0.00647246
0.00647426
0.00647328
0.00647498
0.00647406
0.00647567
0.00647482
0.00647634
0.00647555
0.006477
0.00647626
0.00647765
0.00647697
0.0064783
0.00647767
0.00647895
0.00647838
0.00647962
0.0064791
0.00648032
0.00647983
0.00648104
0.0064806
0.00648179
0.00648139
0.0064826
0.00648223
0.00648345
0.00648313
0.00648437
0.00648408
0.00648534
0.0064851
0.00648637
0.00648617
0.00648744
0.00648716
0.00648878
0.00648739
0.00648827
0.00578539
0.00640068
0.00647897
0.00650309
0.00651897
0.00653286
0.00654365
0.00655562
0.00656513
0.00657631
0.00658384
0.00659265
0.00659733
0.00660363
0.00660621
0.00661094
0.00661252
0.00661639
0.00661761
0.00662111
0.0066222
0.00662551
0.00662655
0.00662973
0.00663076
0.00663382
0.00663484
0.0066378
0.00663881
0.00664166
0.00664267
0.00664543
0.00664644
0.00664911
0.00665011
0.0066527
0.0066537
0.0066562
0.00665719
0.00665962
0.0066606
0.00666295
0.00666393
0.00666619
0.00666717
0.00666936
0.00667032
0.00667244
0.00667339
0.00667543
0.00667637
0.00667834
0.00667927
0.00668116
0.00668207
0.0066839
0.00668479
0.00668655
0.00668742
0.00668911
0.00668995
0.00669158
0.0066924
0.00669396
0.00669475
0.00669625
0.00669701
0.00669845
0.00669918
0.00670056
0.00670125
0.00670259
0.00670324
0.00670452
0.00670514
0.00670638
0.00670696
0.00670815
0.00670869
0.00670983
0.00671034
0.00671144
0.00671191
0.00671296
0.00671339
0.00671437
0.00671484
0.00671542
0.00671639
0.00671794
0.00520876
0.00605455
0.00618687
0.00622107
0.00623778
0.00625053
0.00625925
0.0062678
0.00627527
0.00628372
0.00629088
0.00629798
0.00630304
0.00630767
0.00631054
0.00631333
0.00631492
0.00631677
0.00631783
0.0063193
0.00632019
0.00632152
0.00632236
0.00632363
0.00632446
0.0063257
0.00632651
0.00632773
0.00632854
0.00632973
0.00633053
0.00633169
0.00633249
0.00633364
0.00633443
0.00633555
0.00633634
0.00633744
0.00633822
0.00633929
0.00634007
0.00634113
0.0063419
0.00634293
0.00634369
0.0063447
0.00634545
0.00634644
0.00634718
0.00634814
0.00634888
0.00634982
0.00635054
0.00635145
0.00635216
0.00635305
0.00635374
0.00635461
0.00635528
0.00635613
0.00635678
0.0063576
0.00635824
0.00635903
0.00635965
0.00636042
0.00636102
0.00636176
0.00636233
0.00636305
0.0063636
0.00636429
0.00636482
0.00636549
0.00636599
0.00636663
0.00636711
0.00636772
0.00636817
0.00636876
0.00636919
0.00636974
0.00637015
0.00637067
0.00637105
0.00637156
0.00637188
0.00637235
0.00637299
0.00637178
0.00499507
0.00589742
0.0060501
0.00608338
0.0060992
0.00610872
0.00611586
0.00612048
0.00612592
0.00613146
0.00613786
0.00614355
0.00614861
0.00615232
0.00615513
0.00615696
0.00615824
0.00615907
0.00615965
0.0061601
0.00616044
0.0061608
0.00616108
0.00616143
0.0061617
0.00616206
0.00616234
0.00616271
0.00616299
0.00616337
0.00616365
0.00616405
0.00616433
0.00616472
0.006165
0.0061654
0.00616568
0.00616608
0.00616637
0.00616676
0.00616705
0.00616744
0.00616773
0.00616812
0.0061684