/*--------------------------------*- C++ -*----------------------------------*\
  =========                 |
  \\      /  F ield         | OpenFOAM: The Open Source CFD Toolbox
   \\    /   O peration     | Website:  https://openfoam.org
    \\  /    A nd           | Version:  7
     \\/     M anipulation  |
\*---------------------------------------------------------------------------*/
FoamFile
{
    version     2.0;
    format      ascii;
    class       volScalarField;
    location    "0.65";
    object      k;
}
// * * * * * * * * * * * * * * * * * * * * * * * * * * * * * * * * * * * * * //

dimensions      [0 2 -2 0 0 0 0];

internalField   nonuniform List<scalar> 
1800
(
0.271848
1.43026
1.91829
1.88656
1.73479
1.52395
1.36386
1.24843
1.16512
1.10279
1.05403
1.01444
0.981331
0.952964
0.928193
0.906286
0.886758
0.869269
0.853546
0.839359
0.82656
0.814904
0.804352
0.79457
0.785674
0.777245
0.769498
0.762258
0.753335
0.761582
0.00865701
0.14145
0.434953
0.640441
0.748543
0.788181
0.797449
0.795766
0.790861
0.782707
0.773835
0.764782
0.755604
0.746667
0.73806
0.72981
0.721826
0.714175
0.706726
0.699669
0.692703
0.686341
0.679737
0.674322
0.667734
0.663616
0.656629
0.653494
0.644559
0.644869
0.000105273
0.00534654
0.0275612
0.0756663
0.128517
0.168899
0.197472
0.217983
0.233817
0.246891
0.258372
0.2688
0.27855
0.287892
0.296558
0.305002
0.312764
0.320486
0.327258
0.334166
0.339686
0.345787
0.349943
0.35543
0.358324
0.363356
0.36538
0.369749
0.371093
0.374273
2.08503e-05
0.000141891
0.000980797
0.00358123
0.00917641
0.0165754
0.0237499
0.0304166
0.0362038
0.0416365
0.0465801
0.0514798
0.0559603
0.0604451
0.0645308
0.0688026
0.0727939
0.0772044
0.0813082
0.0859257
0.0901305
0.0948794
0.0991661
0.103902
0.108289
0.112891
0.117521
0.121801
0.127043
0.13051
2.02354e-05
2.39894e-05
4.58129e-05
0.000121944
0.000305453
0.000704332
0.0011536
0.00180816
0.00235763
0.00304542
0.00366953
0.00447597
0.00528159
0.0060537
0.00685509
0.00766618
0.00852221
0.00941967
0.01036
0.0112866
0.0122944
0.0133337
0.0145226
0.0155915
0.0168993
0.0179535
0.0193605
0.0204593
0.0221542
0.0232295
2.01464e-05
2.18577e-05
2.57324e-05
3.41966e-05
4.10502e-05
5.4255e-05
6.31769e-05
8.27952e-05
0.000100343
0.000123001
0.000138643
0.000166016
0.000215928
0.000243305
0.000288077
0.000321843
0.000378306
0.000426466
0.000509679
0.000564236
0.000633273
0.000701864
0.000824472
0.000913053
0.00105462
0.00114453
0.00127404
0.00138218
0.0015851
0.00171441
2.01466e-05
2.18575e-05
2.71676e-05
3.24026e-05
4.39793e-05
5.1499e-05
6.8527e-05
7.97135e-05
0.000103158
0.000117687
0.00014838
0.000168716
0.000212511
0.000238656
0.000292361
0.000323259
0.000387891
0.000426346
0.000506917
0.000553499
0.00065031
0.000707139
0.000826933
0.000895578
0.00103784
0.00111465
0.00127131
0.00135527
0.00153004
0.00162689
2.02357e-05
2.39929e-05
4.58392e-05
0.000122092
0.000343482
0.000640834
0.00123011
0.00174406
0.00241931
0.00298726
0.00373936
0.00441764
0.00533901
0.00600129
0.0069302
0.00759316
0.00860929
0.00933271
0.0104506
0.0111829
0.0123881
0.0132135
0.0146008
0.0154402
0.0169382
0.0177458
0.0192963
0.0201557
0.0218433
0.0227503
2.08538e-05
0.000142065
0.000981719
0.00358386
0.00920325
0.0165553
0.0237851
0.0303929
0.0362466
0.0416065
0.0466279
0.0514421
0.0560188
0.0603916
0.0646041
0.0687212
0.0728925
0.0770775
0.0814366
0.0857364
0.09028
0.0946019
0.0993131
0.103489
0.108371
0.112266
0.117368
0.120866
0.126201
0.129149
0.000105471
0.00534982
0.0275715
0.0756835
0.128531
0.168917
0.19749
0.218001
0.233835
0.246904
0.258388
0.268809
0.278565
0.287896
0.296569
0.304993
0.312767
0.320454
0.327247
0.334089
0.339648
0.34562
0.349851
0.355092
0.358108
0.362741
0.364764
0.36858
0.369754
0.372232
0.00866336
0.141482
0.434995
0.640476
0.748571
0.788203
0.797467
0.79578
0.790872
0.782716
0.77384
0.764788
0.755604
0.746672
0.738051
0.72982
0.721803
0.714199
0.706677
0.699729
0.6926
0.686472
0.679548
0.674553
0.667485
0.66386
0.656454
0.653622
0.644577
0.645221
0.271849
1.43024
1.91826
1.88653
1.73476
1.52393
1.36383
1.24841
1.16511
1.10278
1.05402
1.01443
0.981329
0.952977
0.928206
0.90633
0.886798
0.869376
0.853634
0.839597
0.826745
0.815419
0.804727
0.795656
0.78643
0.779482
0.771052
0.766542
0.757329
0.767191
1.33753
1.49418
1.48557
1.46922
1.46135
1.45803
1.4584
1.46234
1.46894
1.47709
1.48636
1.49625
1.50626
1.51621
1.52612
1.53609
1.54615
1.5563
1.56652
1.57676
1.587
1.59721
1.60741
1.61759
1.62776
1.63792
1.64807
1.65823
1.6684
1.67858
1.68878
1.69899
1.70922
1.71946
1.72971
1.73998
1.75025
1.76052
1.77082
1.78113
1.79145
1.80178
1.81213
1.8225
1.83288
1.84327
1.85367
1.86408
1.8745
1.88494
1.89539
1.90585
1.91634
1.92683
1.93734
1.94787
1.95842
1.96898
1.97956
1.99016
2.00079
2.01145
2.02215
2.03288
2.04365
2.05446
2.06532
2.07623
2.08719
2.09822
2.10933
2.12052
2.13181
2.14321
2.15474
2.16641
2.17825
2.19027
2.2025
2.21497
2.22767
2.24063
2.25386
2.26734
2.28109
2.29506
2.30925
2.32361
2.3381
2.35265
2.36723
2.38175
2.39617
2.41041
2.42439
2.43805
2.45133
2.46418
2.47653
2.48835
2.49961
2.51027
2.52032
2.52975
2.53859
2.54685
2.55453
2.56167
2.56826
2.57439
2.58002
2.5853
2.59008
2.59467
2.5987
2.60287
2.60597
2.6103
2.6121
2.6172
1.2859
1.61632
1.68546
1.69107
1.69011
1.69142
1.69611
1.70472
1.71497
1.72604
1.73759
1.74933
1.76095
1.77234
1.78352
1.79461
1.80569
1.81679
1.82791
1.83902
1.85013
1.86121
1.87228
1.88335
1.89441
1.90548
1.91656
1.92764
1.93873
1.94984
1.96096
1.97209
1.98324
1.9944
2.00556
2.01673
2.0279
2.03906
2.05023
2.06139
2.07255
2.08369
2.09484
2.10597
2.11711
2.12822
2.13933
2.15041
2.16148
2.17252
2.18354
2.19454
2.20552
2.21647
2.2274
2.23829
2.24915
2.25998
2.27077
2.28151
2.29222
2.30288
2.3135
2.32407
2.3346
2.34507
2.35548
2.36584
2.37613
2.38635
2.39651
2.4066
2.41661
2.42654
2.43639
2.44614
2.4558
2.46536
2.4748
2.48412
2.49332
2.50238
2.5113
2.52007
2.52869
2.53714
2.54541
2.5535
2.5614
2.5691
2.5766
2.58389
2.59097
2.59784
2.60449
2.61094
2.61717
2.6232
2.62903
2.63467
2.64012
2.64538
2.65046
2.65539
2.66016
2.66479
2.66926
2.67364
2.67786
2.68203
2.68601
2.69002
2.69377
2.69771
2.70111
2.70524
2.70795
2.71275
2.71463
2.72024
0.728985
1.09414
1.23376
1.2801
1.2984
1.31002
1.32099
1.33261
1.34377
1.35364
1.36217
1.3698
1.37689
1.38363
1.39011
1.3964
1.40257
1.40861
1.41456
1.42043
1.42625
1.43202
1.43778
1.44353
1.44929
1.45506
1.46084
1.46664
1.47246
1.47829
1.48413
1.48998
1.49585
1.50172
1.50759
1.51348
1.51937
1.52526
1.53116
1.53705
1.54295
1.54884
1.55472
1.56059
1.56645
1.5723
1.57814
1.58397
1.58979
1.59558
1.60136
1.60711
1.61284
1.61855
1.62423
1.62988
1.6355
1.64109
1.64664
1.65217
1.65766
1.66311
1.66851
1.67388
1.6792
1.68447
1.6897
1.69489
1.70002
1.70511
1.71013
1.7151
1.72002
1.72488
1.72968
1.73441
1.73909
1.74371
1.74826
1.75275
1.75718
1.76154
1.76584
1.77008
1.77425
1.77836
1.78241
1.78641
1.79034
1.79422
1.79805
1.80182
1.80553
1.8092
1.81282
1.81639
1.81992
1.8234
1.82685
1.83024
1.8336
1.83692
1.84022
1.84347
1.84668
1.84986
1.853
1.85612
1.85918
1.86226
1.86523
1.86829
1.87112
1.87426
1.87682
1.88023
1.88227
1.88615
1.88783
1.89227
0.22088
0.492889
0.680129
0.780671
0.834722
0.86803
0.892263
0.911812
0.927363
0.93867
0.946148
0.95098
0.954352
0.957075
0.959505
0.961772
0.963913
0.965887
0.967691
0.969365
0.970941
0.972458
0.97395
0.975439
0.976937
0.978453
0.979989
0.981545
0.98312
0.98471
0.986314
0.987932
0.989564
0.99121
0.992869
0.994541
0.99623
0.997934
0.999649
1.00137
1.00311
1.00486
1.00662
1.00838
1.01015
1.01193
1.01372
1.01551
1.01732
1.01913
1.02095
1.02277
1.0246
1.02643
1.02827
1.03011
1.03195
1.0338
1.03565
1.0375
1.03936
1.04121
1.04307
1.04493
1.04679
1.04864
1.0505
1.05236
1.05422
1.05608
1.05794
1.0598
1.06165
1.0635
1.06535
1.0672
1.06905
1.0709
1.07274
1.07459
1.07643
1.07827
1.08012
1.08196
1.0838
1.08564
1.08748
1.08932
1.09116
1.09301
1.09486
1.09672
1.09857
1.10043
1.10228
1.10414
1.106
1.10786
1.10972
1.11158
1.11343
1.11529
1.11715
1.11902
1.12087
1.12273
1.12457
1.12643
1.12825
1.13012
1.13191
1.13382
1.13552
1.13754
1.13906
1.14129
1.14254
1.145
1.14614
1.14901
0.0361063
0.0921314
0.206122
0.314782
0.397607
0.457035
0.499722
0.531091
0.553948
0.569455
0.578834
0.583903
0.586453
0.587804
0.588677
0.589375
0.589991
0.59045
0.590745
0.590926
0.591
0.590993
0.590952
0.590911
0.590881
0.590867
0.590874
0.5909
0.590941
0.590994
0.591054
0.591129
0.591221
0.591323
0.591434
0.591555
0.59169
0.591844
0.59201
0.592186
0.592374
0.592575
0.592786
0.593006
0.593235
0.593477
0.593729
0.593992
0.594273
0.59457
0.594875
0.595188
0.595511
0.595845
0.596192
0.596549
0.596917
0.597294
0.597684
0.598088
0.598502
0.598926
0.59936
0.599805
0.600259
0.600723
0.601196
0.601682
0.602182
0.602691
0.603208
0.603733
0.604267
0.604812
0.60537
0.605934
0.606504
0.607086
0.607681
0.608286
0.608902
0.609526
0.610158
0.610801
0.611454
0.612114
0.61278
0.613453
0.614136
0.614836
0.615553
0.616282
0.617019
0.617761
0.61851
0.619267
0.620031
0.620804
0.621583
0.622368
0.623161
0.623961
0.624763
0.625585
0.626411
0.627244
0.628067
0.628913
0.629735
0.630608
0.631415
0.632339
0.633095
0.634102
0.634777
0.635886
0.63648
0.63766
0.63824
0.639668
0.00262686
0.00726167
0.0210908
0.0510892
0.095852
0.144231
0.189772
0.22914
0.260696
0.283886
0.299449
0.309123
0.314867
0.318304
0.32051
0.322075
0.323274
0.324178
0.324837
0.325302
0.325605
0.325793
0.325911
0.325991
0.326054
0.326114
0.326176
0.326245
0.326321
0.326408
0.326502
0.326594
0.326685
0.326782
0.326887
0.326999
0.327121
0.327246
0.327373
0.327506
0.327645
0.327792
0.327942
0.328094
0.328251
0.328411
0.328582
0.328758
0.328935
0.329112
0.329296
0.329488
0.329682
0.32988
0.330082
0.330289
0.3305
0.330716
0.330936
0.33116
0.331391
0.331625
0.331861
0.3321
0.332341
0.332589
0.332841
0.333098
0.333358
0.333619
0.333885
0.334155
0.334432
0.334711
0.334988
0.33527
0.335559
0.335853
0.336147
0.336444
0.336743
0.337047
0.337357
0.337668
0.337978
0.338296
0.338621
0.338952
0.339285
0.339617
0.339948
0.340281
0.340618
0.340961
0.341308
0.34166
0.342015
0.342375
0.342733
0.343095
0.343458
0.343828
0.344204
0.344578
0.344943
0.345324
0.345691
0.346081
0.346441
0.346852
0.347193
0.347634
0.347945
0.348422
0.348702
0.349213
0.349475
0.349997
0.350261
0.350903
0.00256118
0.00701457
0.0204218
0.0496041
0.0939675
0.14294
0.189703
0.230285
0.262714
0.286479
0.302432
0.312376
0.318313
0.321873
0.324146
0.325748
0.326962
0.327871
0.328544
0.329021
0.329335
0.329539
0.329673
0.329767
0.32985
0.329933
0.330007
0.330081
0.330173
0.330288
0.330403
0.330513
0.330617
0.330719
0.330833
0.330968
0.331112
0.331252
0.331385
0.331521
0.331673
0.331834
0.332
0.332163
0.33233
0.332504
0.332701
0.332898
0.333086
0.333268
0.333451
0.333655
0.333868
0.334081
0.334287
0.334502
0.334734
0.33497
0.335201
0.335429
0.335667
0.335911
0.336159
0.336409
0.336661
0.336927
0.337198
0.337466
0.337731
0.337997
0.338273
0.338555
0.338842
0.33913
0.33942
0.339718
0.340024
0.340332
0.340633
0.340935
0.341242
0.341557
0.34188
0.342201
0.34252
0.342849
0.343189
0.343537
0.343885
0.344228
0.344566
0.344906
0.34525
0.345598
0.345951
0.34631
0.346678
0.347051
0.347419
0.347784
0.348155
0.348543
0.34893
0.34931
0.349674
0.350059
0.350433
0.350833
0.351202
0.351623
0.351973
0.352417
0.352742
0.353218
0.353517
0.354032
0.354304
0.35484
0.355106
0.355767
0.035985
0.0911705
0.204083
0.313723
0.398567
0.460499
0.505445
0.538376
0.56211
0.578044
0.587683
0.592954
0.595649
0.597027
0.597847
0.598477
0.599025
0.599429
0.599713
0.599909
0.600013
0.600048
0.600065
0.600093
0.600131
0.600183
0.600261
0.600358
0.600455
0.60055
0.600667
0.600811
0.600978
0.601165
0.601358
0.601545
0.601737
0.601945
0.602176
0.602422
0.602667
0.602916
0.603179
0.603466
0.603767
0.604075
0.604374
0.604689
0.605023
0.605378
0.605746
0.606111
0.606486
0.606875
0.607284
0.607698
0.608112
0.608538
0.608981
0.609438
0.609899
0.610369
0.61085
0.611345
0.611852
0.612359
0.612876
0.613407
0.613951
0.614506
0.615067
0.615638
0.616218
0.616809
0.617409
0.618017
0.618629
0.619249
0.619886
0.620533
0.621189
0.621849
0.622514
0.623194
0.623888
0.624587
0.625291
0.626001
0.626722
0.627455
0.628203
0.62896
0.629728
0.630504
0.631288
0.632076
0.632867
0.633666
0.634479
0.635305
0.63613
0.636949
0.637768
0.638605
0.639451
0.640305
0.641148
0.64202
0.642858
0.64375
0.644573
0.645509
0.646294
0.647297
0.648018
0.649111
0.64974
0.650934
0.651521
0.65299
0.223197
0.491393
0.682824
0.786901
0.843852
0.879163
0.904367
0.923902
0.939092
0.950064
0.957359
0.962056
0.965238
0.967657
0.969762
0.971763
0.973691
0.975508
0.977219
0.97885
0.980421
0.981962
0.983502
0.985055
0.986628
0.988222
0.989835
0.991465
0.99311
0.994773
0.996453
0.998152
0.999865
1.00159
1.00334
1.00509
1.00685
1.00862
1.01041
1.01221
1.01401
1.01582
1.01765
1.01949
1.02133
1.02319
1.02505
1.02691
1.02878
1.03066
1.03254
1.03443
1.03633
1.03823
1.04013
1.04204
1.04394
1.04586
1.04777
1.04969
1.0516
1.05352
1.05544
1.05736
1.05928
1.0612
1.06312
1.06504
1.06695
1.06887
1.07079
1.0727
1.07462
1.07653
1.07844
1.08035
1.08226
1.08416
1.08606
1.08796
1.08985
1.09174
1.09364
1.09553
1.09743
1.09932
1.10122
1.10312
1.10502
1.10691
1.1088
1.11069
1.11258
1.11448
1.11637
1.11826
1.12016
1.12206
1.12395
1.12584
1.12773
1.12961
1.13149
1.13337
1.13523
1.1371
1.13895
1.14083
1.14266
1.14454
1.14633
1.14824
1.14995
1.15196
1.15351
1.15571
1.157
1.15943
1.16057
1.16346
0.732789
1.09837
1.24306
1.2911
1.31039
1.32148
1.33099
1.34027
1.34956
1.35815
1.36586
1.37282
1.37926
1.38538
1.39135
1.39727
1.40313
1.40893
1.41468
1.4204
1.42608
1.43175
1.43741
1.44309
1.44878
1.45448
1.4602
1.46593
1.47168
1.47744
1.48322
1.48901
1.49481
1.50062
1.50644
1.51227
1.51809
1.52392
1.52975
1.53557
1.5414
1.54722
1.55304
1.55885
1.56465
1.57044
1.57623
1.582
1.58774
1.59347
1.59919
1.60488
1.61056
1.61621
1.62183
1.62743
1.633
1.63854
1.64405
1.64952
1.65496
1.66036
1.66572
1.67105
1.67633
1.68157
1.68677
1.69191
1.697
1.70205
1.70705
1.712
1.71689
1.72173
1.72651
1.73124
1.73591
1.74052
1.74506
1.74954
1.75395
1.75831
1.76261
1.76685
1.77104
1.77516
1.77924
1.78326
1.78722
1.79111
1.79494
1.79871
1.80244
1.80611
1.80974
1.81332
1.81687
1.82037
1.82382
1.82722
1.83058
1.83392
1.83721
1.84046
1.84363
1.84678
1.8499
1.85302
1.85607
1.85914
1.86207
1.86513
1.86791
1.87105
1.87357
1.87697
1.87902
1.88283
1.88449
1.8889
1.28878
1.62286
1.69107
1.69473
1.6924
1.69038
1.69164
1.69575
1.70317
1.7123
1.72247
1.73311
1.74384
1.75453
1.76522
1.77594
1.78671
1.79751
1.80831
1.81911
1.82989
1.84066
1.85142
1.86217
1.87292
1.88368
1.89445
1.90524
1.91604
1.92685
1.93768
1.94851
1.95935
1.9702
1.98105
1.9919
2.00276
2.01363
2.0245
2.03536
2.04622
2.05708
2.06793
2.07877
2.08959
2.1004
2.1112
2.12198
2.13275
2.14351
2.15424
2.16495
2.17563
2.18629
2.19691
2.20751
2.21808
2.22861
2.2391
2.24956
2.25999
2.27037
2.28071
2.291
2.30124
2.31142
2.32155
2.33163
2.34165
2.35161
2.3615
2.37132
2.38106
2.39072
2.40031
2.4098
2.41919
2.42849
2.4377
2.44679
2.45576
2.46461
2.47331
2.48188
2.49029
2.49854
2.50662
2.51452
2.52223
2.52977
2.53713
2.5443
2.55126
2.55802
2.56457
2.57091
2.57704
2.58297
2.58872
2.59428
2.59965
2.60482
2.60983
2.61471
2.61944
2.62405
2.62848
2.6328
2.63696
2.6411
2.64503
2.64903
2.65268
2.65666
2.6599
2.6641
2.66669
2.67144
2.67334
2.67886
1.3294
1.48608
1.47171
1.4534
1.44305
1.43606
1.43296
1.43365
1.43777
1.44441
1.45255
1.46151
1.47081
1.48023
1.48979
1.49948
1.50928
1.51916
1.52908
1.539
1.54891
1.5588
1.56866
1.5785
1.58834
1.59817
1.60801
1.61786
1.62772
1.63758
1.64745
1.65733
1.66723
1.67713
1.68705
1.69699
1.70694
1.71691
1.72689
1.73688
1.74688
1.7569
1.76692
1.77695
1.78699
1.79705
1.80712
1.81721
1.82731
1.83743
1.84755
1.85768
1.86783
1.87799
1.88817
1.89836
1.90856
1.91879
1.92903
1.93931
1.9496
1.95992
1.97027
1.98065
1.99106
2.00151
2.01201
2.02256
2.03317
2.04384
2.05456
2.06537
2.07626
2.08726
2.09837
2.10961
2.12101
2.1326
2.14438
2.15636
2.16857
2.18102
2.19371
2.20664
2.2198
2.23317
2.24673
2.26045
2.27428
2.28819
2.30211
2.31598
2.32973
2.3433
2.35662
2.36964
2.38228
2.39451
2.40628
2.41754
2.42826
2.43843
2.44803
2.45707
2.46553
2.47343
2.48077
2.48761
2.49394
2.49985
2.50526
2.51039
2.51496
2.51951
2.52327
2.52751
2.53036
2.53468
2.53648
2.54139
)
;

boundaryField
{
    upperWall
    {
        type            fixedValue;
        value           uniform 0;
    }
    lowerWall
    {
        type            fixedValue;
        value           uniform 0;
    }
    heatedWall
    {
        type            fixedValue;
        value           uniform 0;
    }
    inlet
    {
        type            fixedValue;
        value           uniform 2e-05;
    }
    outlet
    {
        type            inletOutlet;
        inletValue      uniform 0;
        value           nonuniform List<scalar> 
12
(
2.6172
2.72024
1.89227
1.14901
0.639668
0.350903
0.355767
0.65299
1.16346
1.8889
2.67886
2.54139
)
;
    }
    frontAndBack
    {
        type            empty;
    }
}


// ************************************************************************* //
