/*--------------------------------*- C++ -*----------------------------------*\
  =========                 |
  \\      /  F ield         | OpenFOAM: The Open Source CFD Toolbox
   \\    /   O peration     | Website:  https://openfoam.org
    \\  /    A nd           | Version:  7
     \\/     M anipulation  |
\*---------------------------------------------------------------------------*/
FoamFile
{
    version     2.0;
    format      ascii;
    class       volScalarField;
    location    "4.45";
    object      rho_0;
}
// * * * * * * * * * * * * * * * * * * * * * * * * * * * * * * * * * * * * * //

dimensions      [1 -3 0 0 0 0 0];

internalField   nonuniform List<scalar> 
2400
(
1.22944
1.22943
1.22942
1.22941
1.2294
1.22939
1.22938
1.22938
1.22937
1.22937
1.22936
1.22936
1.22936
1.22936
1.22935
1.22935
1.22934
1.22934
1.22934
1.22933
1.22933
1.22933
1.22932
1.22932
1.22931
1.22931
1.22931
1.2293
1.2293
1.22929
1.22929
1.22929
1.22927
1.22929
1.22924
1.22933
1.22912
1.22956
1.22858
1.23076
1.22942
1.22943
1.22942
1.22941
1.2294
1.22939
1.22938
1.22938
1.22937
1.22936
1.22936
1.22935
1.22935
1.22934
1.22934
1.22934
1.22933
1.22933
1.22933
1.22932
1.22932
1.22932
1.22932
1.22931
1.22931
1.22931
1.2293
1.2293
1.22929
1.22929
1.22928
1.22929
1.22925
1.2293
1.22921
1.22934
1.22913
1.22944
1.22897
1.22963
1.22941
1.22941
1.22941
1.2294
1.22939
1.22939
1.22938
1.22937
1.22937
1.22936
1.22936
1.22935
1.22935
1.22934
1.22934
1.22934
1.22933
1.22933
1.22933
1.22932
1.22932
1.22932
1.22931
1.22931
1.22931
1.2293
1.2293
1.2293
1.22929
1.22929
1.22928
1.22928
1.22927
1.22928
1.22926
1.22927
1.22925
1.22926
1.22924
1.22924
1.22939
1.22939
1.22938
1.22938
1.22937
1.22937
1.22936
1.22935
1.22935
1.22935
1.22934
1.22934
1.22933
1.22933
1.22933
1.22933
1.22932
1.22932
1.22932
1.22931
1.22931
1.22931
1.22931
1.2293
1.2293
1.2293
1.2293
1.22929
1.22929
1.22929
1.22929
1.22928
1.22928
1.22927
1.22927
1.22927
1.22927
1.22926
1.22926
1.22925
1.22936
1.22936
1.22936
1.22935
1.22935
1.22934
1.22934
1.22933
1.22933
1.22932
1.22932
1.22931
1.22931
1.22931
1.22931
1.2293
1.2293
1.2293
1.2293
1.22929
1.22929
1.22929
1.22929
1.22928
1.22928
1.22928
1.22928
1.22928
1.22927
1.22927
1.22927
1.22927
1.22926
1.22926
1.22926
1.22926
1.22925
1.22925
1.22925
1.22924
1.22933
1.22933
1.22933
1.22932
1.22932
1.22931
1.22931
1.2293
1.2293
1.22929
1.22929
1.22929
1.22928
1.22928
1.22928
1.22928
1.22928
1.22927
1.22927
1.22927
1.22927
1.22927
1.22926
1.22926
1.22926
1.22926
1.22926
1.22926
1.22925
1.22925
1.22925
1.22925
1.22925
1.22925
1.22924
1.22924
1.22924
1.22924
1.22924
1.22924
1.22931
1.2293
1.2293
1.2293
1.22929
1.22929
1.22928
1.22927
1.22927
1.22927
1.22926
1.22926
1.22926
1.22926
1.22925
1.22925
1.22925
1.22925
1.22925
1.22925
1.22924
1.22924
1.22924
1.22924
1.22924
1.22924
1.22924
1.22923
1.22923
1.22923
1.22923
1.22923
1.22923
1.22923
1.22923
1.22923
1.22923
1.22923
1.22922
1.22922
1.22928
1.22928
1.22928
1.22927
1.22927
1.22926
1.22926
1.22925
1.22925
1.22924
1.22924
1.22924
1.22923
1.22923
1.22923
1.22923
1.22923
1.22923
1.22922
1.22922
1.22922
1.22922
1.22922
1.22922
1.22922
1.22922
1.22921
1.22921
1.22921
1.22921
1.22921
1.22921
1.22921
1.22921
1.22921
1.22921
1.22921
1.22921
1.22921
1.22921
1.22926
1.22926
1.22925
1.22925
1.22924
1.22924
1.22923
1.22923
1.22922
1.22922
1.22921
1.22921
1.22921
1.22921
1.22921
1.22921
1.22921
1.2292
1.2292
1.2292
1.2292
1.2292
1.2292
1.2292
1.2292
1.2292
1.2292
1.22919
1.22919
1.22919
1.22919
1.22919
1.22919
1.22919
1.22919
1.2292
1.2292
1.2292
1.2292
1.2292
1.22925
1.22924
1.22924
1.22923
1.22922
1.22922
1.22921
1.22921
1.2292
1.2292
1.22919
1.22919
1.22919
1.22919
1.22918
1.22918
1.22918
1.22918
1.22918
1.22918
1.22917
1.22917
1.22917
1.22917
1.22917
1.22917
1.22917
1.22917
1.22917
1.22917
1.22917
1.22917
1.22917
1.22917
1.22917
1.22917
1.22917
1.22917
1.22918
1.22918
1.22923
1.22923
1.22922
1.22921
1.22921
1.2292
1.22919
1.22918
1.22917
1.22917
1.22917
1.22916
1.22916
1.22916
1.22916
1.22916
1.22915
1.22915
1.22915
1.22915
1.22915
1.22915
1.22915
1.22915
1.22915
1.22915
1.22915
1.22915
1.22915
1.22915
1.22915
1.22915
1.22916
1.22916
1.22916
1.22916
1.22916
1.22916
1.22917
1.22917
1.22923
1.22922
1.22921
1.2292
1.22918
1.22918
1.22917
1.22917
1.22916
1.22916
1.22916
1.22916
1.22915
1.22915
1.22915
1.22915
1.22915
1.22915
1.22915
1.22915
1.22915
1.22915
1.22915
1.22915
1.22915
1.22915
1.22915
1.22915
1.22915
1.22915
1.22915
1.22915
1.22915
1.22916
1.22916
1.22916
1.22916
1.22916
1.22916
1.22917
1.21839
1.20883
1.2027
1.19787
1.19377
1.19014
1.18685
1.18383
1.18104
1.17844
1.17601
1.17372
1.17156
1.16951
1.16756
1.1657
1.16391
1.1622
1.16056
1.15897
1.15743
1.15594
1.15449
1.15308
1.1517
1.15036
1.14905
1.14776
1.1465
1.14526
1.14405
1.14286
1.14169
1.14053
1.1394
1.13828
1.13718
1.1361
1.13503
1.13397
1.13293
1.13191
1.13089
1.12989
1.12891
1.12793
1.12697
1.12602
1.12507
1.12414
1.12322
1.12231
1.12141
1.12052
1.11964
1.11877
1.1179
1.11705
1.1162
1.11536
1.11453
1.11371
1.11289
1.11209
1.11129
1.11049
1.10971
1.10893
1.10816
1.10739
1.10663
1.10588
1.10513
1.10439
1.10366
1.10293
1.10221
1.10149
1.10078
1.10007
1.09937
1.09868
1.09799
1.09731
1.09663
1.09595
1.09528
1.09462
1.09396
1.09331
1.09266
1.09201
1.09138
1.09074
1.09011
1.08948
1.08886
1.08825
1.08763
1.08703
1.08642
1.08583
1.08523
1.08464
1.08406
1.08348
1.0829
1.08233
1.08176
1.0812
1.08064
1.08009
1.07954
1.079
1.07846
1.07793
1.0774
1.07688
1.07636
1.07584
1.07534
1.07483
1.07434
1.07384
1.07336
1.07288
1.0724
1.07193
1.07147
1.07101
1.07056
1.07011
1.06967
1.06924
1.06881
1.06839
1.06797
1.06756
1.06716
1.06677
1.06638
1.066
1.06562
1.06525
1.06489
1.06453
1.06418
1.06384
1.06351
1.06318
1.06286
1.06254
1.06224
1.06193
1.06165
1.06133
1.0611
1.06075
1.06061
1.06016
1.22751
1.2222
1.2173
1.21309
1.20939
1.20606
1.20301
1.20018
1.19754
1.19506
1.19272
1.19051
1.1884
1.18639
1.18448
1.18264
1.18087
1.17917
1.17753
1.17593
1.17439
1.17289
1.17143
1.17001
1.16862
1.16726
1.16593
1.16463
1.16335
1.16209
1.16086
1.15965
1.15846
1.15729
1.15613
1.155
1.15388
1.15278
1.15169
1.15061
1.14956
1.14851
1.14748
1.14646
1.14545
1.14446
1.14348
1.14251
1.14155
1.1406
1.13966
1.13873
1.13781
1.1369
1.136
1.13511
1.13423
1.13336
1.13249
1.13164
1.13079
1.12995
1.12912
1.12829
1.12747
1.12666
1.12586
1.12507
1.12428
1.12349
1.12272
1.12195
1.12119
1.12043
1.11968
1.11894
1.1182
1.11747
1.11674
1.11602
1.1153
1.11459
1.11389
1.11319
1.11249
1.11181
1.11112
1.11044
1.10977
1.1091
1.10844
1.10778
1.10713
1.10648
1.10583
1.10519
1.10456
1.10393
1.1033
1.10268
1.10206
1.10145
1.10084
1.10024
1.09964
1.09904
1.09845
1.09787
1.09729
1.09671
1.09614
1.09557
1.09501
1.09445
1.0939
1.09335
1.09281
1.09227
1.09174
1.09121
1.09069
1.09017
1.08966
1.08915
1.08865
1.08815
1.08766
1.08718
1.0867
1.08623
1.08576
1.0853
1.08484
1.08439
1.08395
1.08351
1.08308
1.08265
1.08223
1.08182
1.08142
1.08102
1.08063
1.08024
1.07986
1.07949
1.07912
1.07876
1.07841
1.07806
1.07773
1.07739
1.07708
1.07674
1.07646
1.07611
1.07588
1.0755
1.07535
1.07487
1.22929
1.22791
1.2256
1.22299
1.22037
1.21783
1.21539
1.21305
1.21081
1.20866
1.2066
1.20462
1.20271
1.20088
1.19911
1.1974
1.19574
1.19414
1.19257
1.19106
1.18957
1.18813
1.18672
1.18533
1.18398
1.18265
1.18135
1.18007
1.17882
1.17758
1.17637
1.17517
1.17399
1.17283
1.17169
1.17056
1.16945
1.16835
1.16727
1.1662
1.16514
1.1641
1.16307
1.16205
1.16105
1.16005
1.15907
1.1581
1.15714
1.15619
1.15525
1.15431
1.15339
1.15248
1.15158
1.15068
1.1498
1.14892
1.14805
1.14719
1.14634
1.14549
1.14465
1.14382
1.143
1.14219
1.14138
1.14057
1.13978
1.13899
1.13821
1.13743
1.13666
1.1359
1.13514
1.13439
1.13365
1.13291
1.13218
1.13145
1.13072
1.13001
1.1293
1.12859
1.12789
1.12719
1.1265
1.12582
1.12513
1.12446
1.12379
1.12312
1.12246
1.1218
1.12115
1.1205
1.11986
1.11922
1.11859
1.11796
1.11733
1.11671
1.1161
1.11548
1.11488
1.11428
1.11368
1.11308
1.11249
1.11191
1.11133
1.11075
1.11018
1.10961
1.10905
1.10849
1.10794
1.10739
1.10685
1.10631
1.10578
1.10525
1.10473
1.10421
1.10369
1.10319
1.10268
1.10219
1.10169
1.10121
1.10073
1.10025
1.09978
1.09932
1.09886
1.09841
1.09796
1.09752
1.09708
1.09666
1.09623
1.09582
1.09541
1.09501
1.09461
1.09422
1.09384
1.09346
1.09309
1.09272
1.09237
1.09201
1.09168
1.09133
1.09103
1.09066
1.09041
1.09
1.08985
1.08932
1.22927
1.22918
1.22868
1.22776
1.22654
1.22515
1.22366
1.22212
1.22056
1.219
1.21744
1.21591
1.2144
1.21291
1.21145
1.21001
1.2086
1.20722
1.20585
1.20452
1.2032
1.20191
1.20063
1.19938
1.19814
1.19692
1.19572
1.19453
1.19336
1.19221
1.19107
1.18994
1.18883
1.18773
1.18665
1.18558
1.18452
1.18347
1.18243
1.18141
1.1804
1.17939
1.1784
1.17742
1.17645
1.17549
1.17454
1.17359
1.17266
1.17174
1.17082
1.16992
1.16902
1.16813
1.16725
1.16637
1.16551
1.16465
1.1638
1.16295
1.16212
1.16129
1.16047
1.15965
1.15884
1.15804
1.15724
1.15645
1.15567
1.15489
1.15412
1.15336
1.1526
1.15185
1.1511
1.15036
1.14962
1.14889
1.14816
1.14744
1.14673
1.14602
1.14531
1.14461
1.14392
1.14323
1.14254
1.14186
1.14119
1.14052
1.13985
1.13919
1.13853
1.13788
1.13723
1.13659
1.13595
1.13531
1.13468
1.13406
1.13344
1.13282
1.1322
1.1316
1.13099
1.13039
1.12979
1.1292
1.12861
1.12803
1.12745
1.12687
1.1263
1.12574
1.12517
1.12462
1.12406
1.12351
1.12297
1.12243
1.12189
1.12136
1.12083
1.12031
1.11979
1.11928
1.11877
1.11827
1.11777
1.11728
1.11679
1.11631
1.11583
1.11536
1.11489
1.11443
1.11398
1.11353
1.11308
1.11264
1.11221
1.11178
1.11136
1.11094
1.11053
1.11013
1.10973
1.10934
1.10896
1.10857
1.10821
1.10783
1.10749
1.10711
1.1068
1.10641
1.10615
1.10571
1.10556
1.10499
1.22923
1.22922
1.22919
1.22906
1.22879
1.22836
1.22779
1.2271
1.22632
1.22546
1.22455
1.2236
1.22263
1.22163
1.22062
1.2196
1.21858
1.21755
1.21652
1.21548
1.21445
1.21343
1.2124
1.21138
1.21037
1.20936
1.20835
1.20735
1.20636
1.20538
1.2044
1.20342
1.20246
1.2015
1.20054
1.1996
1.19866
1.19773
1.19681
1.19589
1.19498
1.19408
1.19318
1.19229
1.19141
1.19053
1.18966
1.1888
1.18794
1.18709
1.18625
1.18541
1.18458
1.18376
1.18294
1.18213
1.18132
1.18052
1.17973
1.17894
1.17816
1.17738
1.17661
1.17584
1.17508
1.17432
1.17357
1.17283
1.17209
1.17135
1.17062
1.1699
1.16918
1.16846
1.16775
1.16705
1.16635
1.16565
1.16496
1.16428
1.16359
1.16292
1.16224
1.16157
1.16091
1.16025
1.1596
1.15894
1.1583
1.15765
1.15702
1.15638
1.15575
1.15512
1.1545
1.15388
1.15327
1.15266
1.15205
1.15145
1.15085
1.15026
1.14967
1.14908
1.1485
1.14792
1.14734
1.14677
1.1462
1.14564
1.14508
1.14452
1.14397
1.14342
1.14287
1.14233
1.14179
1.14126
1.14073
1.1402
1.13968
1.13916
1.13865
1.13814
1.13764
1.13713
1.13664
1.13614
1.13566
1.13517
1.13469
1.13422
1.13375
1.13328
1.13282
1.13236
1.13191
1.13147
1.13102
1.13059
1.13016
1.12973
1.12931
1.12889
1.12848
1.12807
1.12768
1.12728
1.12689
1.1265
1.12614
1.12575
1.1254
1.12502
1.1247
1.12429
1.12404
1.12358
1.12342
1.12284
1.22923
1.22921
1.2292
1.22919
1.22916
1.22911
1.22902
1.22888
1.22867
1.22841
1.22809
1.22771
1.22729
1.22682
1.22632
1.22578
1.22521
1.22462
1.22401
1.22338
1.22274
1.22208
1.22141
1.22073
1.22004
1.21935
1.21865
1.21794
1.21723
1.21652
1.2158
1.21508
1.21436
1.21364
1.21291
1.21219
1.21147
1.21075
1.21002
1.2093
1.20858
1.20786
1.20715
1.20643
1.20572
1.20501
1.2043
1.20359
1.20289
1.20218
1.20148
1.20079
1.20009
1.1994
1.19871
1.19803
1.19735
1.19667
1.19599
1.19532
1.19465
1.19398
1.19332
1.19266
1.192
1.19135
1.1907
1.19005
1.18941
1.18877
1.18813
1.1875
1.18687
1.18624
1.18561
1.18499
1.18438
1.18376
1.18315
1.18255
1.18194
1.18134
1.18074
1.18015
1.17956
1.17897
1.17839
1.17781
1.17723
1.17666
1.17608
1.17552
1.17495
1.17439
1.17383
1.17328
1.17273
1.17218
1.17163
1.17109
1.17055
1.17002
1.16948
1.16895
1.16843
1.1679
1.16738
1.16687
1.16635
1.16584
1.16533
1.16483
1.16433
1.16383
1.16333
1.16284
1.16235
1.16186
1.16138
1.1609
1.16043
1.15995
1.15948
1.15902
1.15855
1.15809
1.15764
1.15719
1.15674
1.15629
1.15585
1.15541
1.15497
1.15454
1.15411
1.15369
1.15327
1.15285
1.15244
1.15203
1.15163
1.15123
1.15084
1.15044
1.15006
1.14967
1.1493
1.14892
1.14856
1.14818
1.14783
1.14747
1.14714
1.14676
1.14646
1.14607
1.14582
1.14537
1.14523
1.14466
1.22922
1.22921
1.2292
1.22919
1.22918
1.22917
1.22916
1.22914
1.22911
1.22906
1.229
1.22891
1.2288
1.22867
1.2285
1.22832
1.2281
1.22787
1.22761
1.22733
1.22703
1.22672
1.22639
1.22604
1.22568
1.22531
1.22493
1.22453
1.22413
1.22371
1.22329
1.22286
1.22242
1.22197
1.22152
1.22107
1.2206
1.22013
1.21966
1.21919
1.21871
1.21822
1.21773
1.21724
1.21675
1.21625
1.21576
1.21526
1.21476
1.21426
1.21375
1.21325
1.21274
1.21224
1.21173
1.21122
1.21072
1.21021
1.2097
1.2092
1.20869
1.20818
1.20768
1.20718
1.20667
1.20617
1.20567
1.20517
1.20467
1.20417
1.20367
1.20318
1.20268
1.20219
1.2017
1.20121
1.20072
1.20024
1.19975
1.19927
1.19879
1.19831
1.19783
1.19736
1.19688
1.19641
1.19594
1.19547
1.19501
1.19455
1.19408
1.19362
1.19317
1.19271
1.19226
1.19181
1.19136
1.19091
1.19047
1.19003
1.18958
1.18915
1.18871
1.18828
1.18785
1.18742
1.18699
1.18657
1.18614
1.18572
1.1853
1.18489
1.18447
1.18406
1.18365
1.18325
1.18284
1.18244
1.18204
1.18164
1.18125
1.18086
1.18047
1.18008
1.17969
1.17931
1.17893
1.17855
1.17817
1.1778
1.17743
1.17706
1.1767
1.17633
1.17598
1.17562
1.17526
1.17491
1.17456
1.17422
1.17388
1.17354
1.1732
1.17287
1.17254
1.17221
1.17189
1.17157
1.17125
1.17094
1.17063
1.17032
1.17003
1.16971
1.16945
1.16911
1.16889
1.1685
1.16838
1.16788
1.22921
1.2292
1.22919
1.22918
1.22917
1.22917
1.22916
1.22915
1.22914
1.22912
1.22911
1.22908
1.22905
1.22901
1.22896
1.2289
1.22882
1.22873
1.22863
1.22852
1.22839
1.22825
1.2281
1.22793
1.22775
1.22756
1.22736
1.22715
1.22693
1.2267
1.22647
1.22622
1.22596
1.2257
1.22543
1.22515
1.22486
1.22457
1.22427
1.22397
1.22366
1.22335
1.22303
1.2227
1.22238
1.22204
1.22171
1.22137
1.22103
1.22068
1.22033
1.21998
1.21963
1.21927
1.21891
1.21855
1.21819
1.21783
1.21746
1.2171
1.21673
1.21636
1.216
1.21563
1.21526
1.21489
1.21452
1.21415
1.21378
1.2134
1.21303
1.21266
1.21229
1.21192
1.21155
1.21119
1.21082
1.21045
1.21008
1.20972
1.20935
1.20899
1.20862
1.20826
1.2079
1.20754
1.20718
1.20682
1.20646
1.2061
1.20575
1.20539
1.20504
1.20469
1.20434
1.20399
1.20364
1.2033
1.20295
1.20261
1.20227
1.20193
1.20159
1.20125
1.20091
1.20058
1.20025
1.19991
1.19958
1.19926
1.19893
1.1986
1.19828
1.19796
1.19764
1.19732
1.197
1.19668
1.19637
1.19606
1.19575
1.19544
1.19513
1.19482
1.19452
1.19422
1.19392
1.19362
1.19332
1.19302
1.19273
1.19244
1.19215
1.19186
1.19158
1.19129
1.19101
1.19073
1.19045
1.19018
1.18991
1.18963
1.18937
1.1891
1.18884
1.18857
1.18832
1.18806
1.18781
1.18755
1.18731
1.18705
1.18682
1.18656
1.18635
1.18608
1.18591
1.18559
1.18549
1.18509
1.2292
1.22919
1.22918
1.22917
1.22917
1.22916
1.22915
1.22915
1.22914
1.22913
1.22912
1.22911
1.22909
1.22908
1.22905
1.22903
1.22899
1.22895
1.22891
1.22885
1.22879
1.22872
1.22864
1.22855
1.22846
1.22835
1.22824
1.22812
1.22799
1.22786
1.22771
1.22756
1.22741
1.22724
1.22707
1.2269
1.22671
1.22652
1.22633
1.22613
1.22593
1.22572
1.2255
1.22529
1.22506
1.22484
1.22461
1.22437
1.22414
1.2239
1.22365
1.22341
1.22316
1.22291
1.22265
1.2224
1.22214
1.22188
1.22162
1.22136
1.22109
1.22083
1.22056
1.2203
1.22003
1.21976
1.21949
1.21922
1.21895
1.21868
1.21841
1.21813
1.21786
1.21759
1.21732
1.21704
1.21677
1.2165
1.21623
1.21596
1.21569
1.21541
1.21514
1.21487
1.2146
1.21433
1.21407
1.2138
1.21353
1.21326
1.213
1.21273
1.21247
1.2122
1.21194
1.21168
1.21142
1.21116
1.2109
1.21064
1.21038
1.21012
1.20987
1.20961
1.20936
1.20911
1.20886
1.2086
1.20835
1.20811
1.20786
1.20761
1.20737
1.20712
1.20688
1.20664
1.2064
1.20616
1.20592
1.20568
1.20544
1.20521
1.20497
1.20474
1.20451
1.20428
1.20405
1.20382
1.20359
1.20337
1.20315
1.20292
1.2027
1.20248
1.20226
1.20205
1.20183
1.20162
1.20141
1.20119
1.20099
1.20078
1.20057
1.20037
1.20017
1.19996
1.19977
1.19957
1.19937
1.19918
1.19899
1.1988
1.19862
1.19842
1.19826
1.19804
1.19791
1.19767
1.19759
1.19728
1.22918
1.22917
1.22917
1.22916
1.22916
1.22916
1.22915
1.22915
1.22914
1.22913
1.22913
1.22912
1.22911
1.22909
1.22908
1.22906
1.22904
1.22902
1.22899
1.22896
1.22892
1.22888
1.22884
1.22878
1.22873
1.22866
1.2286
1.22852
1.22844
1.22836
1.22827
1.22818
1.22808
1.22797
1.22786
1.22775
1.22763
1.22751
1.22738
1.22725
1.22711
1.22698
1.22683
1.22669
1.22654
1.22639
1.22623
1.22608
1.22592
1.22575
1.22559
1.22542
1.22525
1.22508
1.22491
1.22473
1.22455
1.22438
1.2242
1.22402
1.22383
1.22365
1.22347
1.22328
1.22309
1.22291
1.22272
1.22253
1.22234
1.22215
1.22196
1.22177
1.22158
1.22139
1.2212
1.22101
1.22082
1.22063
1.22044
1.22025
1.22006
1.21987
1.21968
1.21948
1.21929
1.2191
1.21892
1.21873
1.21854
1.21835
1.21816
1.21797
1.21779
1.2176
1.21741
1.21723
1.21704
1.21686
1.21667
1.21649
1.21631
1.21612
1.21594
1.21576
1.21558
1.2154
1.21522
1.21504
1.21486
1.21469
1.21451
1.21433
1.21416
1.21398
1.21381
1.21364
1.21347
1.21329
1.21312
1.21295
1.21279
1.21262
1.21245
1.21228
1.21212
1.21195
1.21179
1.21163
1.21146
1.2113
1.21114
1.21098
1.21082
1.21067
1.21051
1.21035
1.2102
1.21005
1.20989
1.20974
1.20959
1.20944
1.20929
1.20915
1.209
1.20886
1.20871
1.20857
1.20843
1.20829
1.20816
1.20802
1.20789
1.20774
1.20763
1.20748
1.20738
1.2072
1.20714
1.20693
1.22917
1.22917
1.22916
1.22916
1.22916
1.22916
1.22915
1.22915
1.22914
1.22914
1.22913
1.22912
1.22911
1.2291
1.22909
1.22907
1.22906
1.22904
1.22902
1.229
1.22898
1.22895
1.22892
1.22889
1.22885
1.22881
1.22877
1.22872
1.22867
1.22862
1.22857
1.22851
1.22845
1.22838
1.22832
1.22825
1.22817
1.2281
1.22802
1.22794
1.22786
1.22777
1.22769
1.2276
1.2275
1.22741
1.22732
1.22722
1.22712
1.22702
1.22692
1.22682
1.22671
1.22661
1.2265
1.22639
1.22628
1.22617
1.22606
1.22595
1.22584
1.22572
1.22561
1.2255
1.22538
1.22526
1.22515
1.22503
1.22491
1.2248
1.22468
1.22456
1.22444
1.22432
1.22421
1.22409
1.22397
1.22385
1.22373
1.22361
1.22349
1.22337
1.22325
1.22314
1.22302
1.2229
1.22278
1.22266
1.22254
1.22243
1.22231
1.22219
1.22207
1.22196
1.22184
1.22172
1.22161
1.22149
1.22138
1.22126
1.22115
1.22103
1.22092
1.2208
1.22069
1.22058
1.22046
1.22035
1.22024
1.22013
1.22002
1.21991
1.2198
1.21969
1.21958
1.21947
1.21936
1.21925
1.21915
1.21904
1.21893
1.21883
1.21872
1.21861
1.21851
1.21841
1.2183
1.2182
1.2181
1.21799
1.21789
1.21779
1.21769
1.21759
1.21749
1.21739
1.2173
1.2172
1.2171
1.21701
1.21691
1.21682
1.21672
1.21663
1.21654
1.21644
1.21635
1.21626
1.21617
1.21608
1.216
1.21591
1.21583
1.21574
1.21566
1.21557
1.2155
1.21539
1.21535
1.21522
1.22917
1.22916
1.22916
1.22916
1.22916
1.22916
1.22915
1.22915
1.22914
1.22914
1.22913
1.22912
1.22911
1.2291
1.22909
1.22908
1.22906
1.22905
1.22904
1.22902
1.229
1.22899
1.22897
1.22895
1.22893
1.22891
1.22888
1.22886
1.22884
1.22881
1.22878
1.22876
1.22873
1.2287
1.22867
1.22864
1.22861
1.22858
1.22854
1.22851
1.22847
1.22844
1.2284
1.22837
1.22833
1.22829
1.22825
1.22821
1.22817
1.22813
1.22809
1.22805
1.22801
1.22796
1.22792
1.22788
1.22783
1.22779
1.22775
1.2277
1.22766
1.22761
1.22756
1.22752
1.22747
1.22743
1.22738
1.22733
1.22729
1.22724
1.22719
1.22715
1.2271
1.22705
1.22701
1.22696
1.22691
1.22686
1.22682
1.22677
1.22672
1.22668
1.22663
1.22658
1.22653
1.22649
1.22644
1.22639
1.22634
1.2263
1.22625
1.2262
1.22616
1.22611
1.22606
1.22602
1.22597
1.22592
1.22588
1.22583
1.22579
1.22574
1.22569
1.22565
1.2256
1.22556
1.22551
1.22547
1.22542
1.22538
1.22533
1.22529
1.22524
1.2252
1.22515
1.22511
1.22507
1.22502
1.22498
1.22494
1.22489
1.22485
1.22481
1.22476
1.22472
1.22468
1.22464
1.22459
1.22455
1.22451
1.22447
1.22443
1.22439
1.22434
1.2243
1.22426
1.22422
1.22418
1.22414
1.2241
1.22406
1.22402
1.22399
1.22395
1.22391
1.22387
1.22383
1.22379
1.22376
1.22372
1.22368
1.22365
1.22361
1.22357
1.22354
1.2235
1.22347
1.22343
1.22341
1.22335
)
;

boundaryField
{
    upperWall
    {
        type            calculated;
        value           nonuniform List<scalar> 
200
(
1.22921
1.2292
1.22919
1.22918
1.22917
1.22916
1.22915
1.22915
1.22914
1.22914
1.22914
1.22913
1.22913
1.22913
1.22913
1.22913
1.22913
1.22912
1.22912
1.22912
1.22912
1.22912
1.22913
1.22913
1.22913
1.22913
1.22913
1.22913
1.22913
1.22913
1.22914
1.22914
1.22914
1.22914
1.22914
1.22915
1.22915
1.22915
1.22915
1.22916
1.22916
1.22916
1.22916
1.22916
1.22916
1.22916
1.22916
1.22916
1.22915
1.22915
1.22914
1.22913
1.22912
1.22911
1.2291
1.22909
1.22908
1.22906
1.22905
1.22904
1.22902
1.22901
1.229
1.22898
1.22897
1.22896
1.22895
1.22893
1.22892
1.22891
1.2289
1.22888
1.22887
1.22886
1.22885
1.22884
1.22883
1.22882
1.22881
1.2288
1.22879
1.22878
1.22877
1.22876
1.22875
1.22874
1.22873
1.22872
1.22871
1.2287
1.22869
1.22868
1.22867
1.22866
1.22865
1.22864
1.22863
1.22862
1.22861
1.2286
1.22859
1.22858
1.22857
1.22856
1.22855
1.22854
1.22853
1.22852
1.22851
1.2285
1.22849
1.22848
1.22847
1.22846
1.22845
1.22844
1.22843
1.22842
1.22841
1.2284
1.22839
1.22838
1.22837
1.22836
1.22835
1.22834
1.22833
1.22832
1.22831
1.2283
1.22829
1.22828
1.22827
1.22826
1.22825
1.22824
1.22823
1.22822
1.22821
1.22821
1.2282
1.22819
1.22818
1.22817
1.22816
1.22815
1.22814
1.22813
1.22812
1.22811
1.2281
1.22809
1.22808
1.22807
1.22806
1.22805
1.22804
1.22803
1.22802
1.22801
1.228
1.22799
1.22798
1.22797
1.22796
1.22795
1.22794
1.22793
1.22792
1.22791
1.2279
1.22789
1.22788
1.22787
1.22786
1.22785
1.22784
1.22783
1.22782
1.22781
1.2278
1.22779
1.22778
1.22776
1.22775
1.22774
1.22773
1.22772
1.22771
1.2277
1.22769
1.22768
1.22767
1.22766
1.22765
1.22764
1.22763
1.22762
1.22761
1.2276
)
;
    }
    lowerWall
    {
        type            calculated;
        value           nonuniform List<scalar> 
40
(
1.22946
1.22946
1.22945
1.22944
1.22943
1.22942
1.22941
1.22941
1.2294
1.2294
1.22939
1.22939
1.22938
1.22938
1.22938
1.22937
1.22937
1.22937
1.22936
1.22936
1.22935
1.22935
1.22934
1.22934
1.22933
1.22933
1.22932
1.22932
1.22931
1.22931
1.2293
1.2293
1.22929
1.22929
1.22928
1.22928
1.22927
1.22927
1.22926
1.22925
)
;
    }
    heatedWall
    {
        type            calculated;
        value           nonuniform List<scalar> 
160
(
1.20876
1.19982
1.19372
1.18885
1.18471
1.18103
1.17771
1.17468
1.17187
1.16926
1.16682
1.16453
1.16237
1.16033
1.15838
1.15653
1.15476
1.15307
1.15144
1.14986
1.14834
1.14687
1.14544
1.14404
1.14268
1.14136
1.14006
1.13879
1.13755
1.13633
1.13513
1.13395
1.1328
1.13166
1.13054
1.12944
1.12835
1.12728
1.12623
1.12519
1.12416
1.12315
1.12215
1.12117
1.12019
1.11923
1.11828
1.11734
1.11641
1.11549
1.11458
1.11369
1.1128
1.11192
1.11105
1.11019
1.10934
1.10849
1.10766
1.10683
1.10601
1.1052
1.10439
1.1036
1.10281
1.10203
1.10125
1.10048
1.09972
1.09897
1.09822
1.09747
1.09674
1.09601
1.09528
1.09457
1.09385
1.09315
1.09244
1.09175
1.09106
1.09037
1.08969
1.08902
1.08835
1.08768
1.08702
1.08637
1.08572
1.08508
1.08444
1.0838
1.08317
1.08254
1.08192
1.0813
1.08069
1.08008
1.07948
1.07888
1.07828
1.07769
1.07711
1.07653
1.07595
1.07538
1.07481
1.07425
1.07369
1.07313
1.07258
1.07204
1.0715
1.07096
1.07043
1.0699
1.06938
1.06887
1.06835
1.06785
1.06735
1.06685
1.06636
1.06587
1.06539
1.06492
1.06445
1.06399
1.06353
1.06308
1.06263
1.06219
1.06176
1.06133
1.06091
1.06049
1.06008
1.05968
1.05929
1.0589
1.05851
1.05813
1.05776
1.0574
1.05704
1.05669
1.05635
1.05601
1.05568
1.05536
1.05504
1.05473
1.05443
1.05412
1.05386
1.05354
1.05332
1.05297
1.05283
1.05239
)
;
    }
    inlet
    {
        type            calculated;
        value           nonuniform List<scalar> 
12
(
1.22946
1.22945
1.22943
1.2294
1.22937
1.22934
1.2293
1.22927
1.22924
1.22922
1.22921
1.22921
)
;
    }
    outlet
    {
        type            calculated;
        value           nonuniform List<scalar> 
12
(
1.06016
1.07486
1.08932
1.10499
1.12284
1.14466
1.16788
1.18508
1.19728
1.20692
1.21521
1.22335
)
;
    }
    frontAndBack
    {
        type            empty;
    }
}


// ************************************************************************* //
