/*--------------------------------*- C++ -*----------------------------------*\
  =========                 |
  \\      /  F ield         | OpenFOAM: The Open Source CFD Toolbox
   \\    /   O peration     | Website:  https://openfoam.org
    \\  /    A nd           | Version:  7
     \\/     M anipulation  |
\*---------------------------------------------------------------------------*/
FoamFile
{
    version     2.0;
    format      ascii;
    class       surfaceScalarField;
    location    "0.0275";
    object      phi;
}
// * * * * * * * * * * * * * * * * * * * * * * * * * * * * * * * * * * * * * //

dimensions      [1 0 -1 0 0 0 0];

internalField   nonuniform List<scalar> 
2748
(
0.00998427
4.81661e-05
0.00985317
0.000131583
0.00965135
0.000202283
0.00939087
0.000260932
0.009085
0.000306296
0.00874773
0.000337668
0.00839199
0.000356111
0.00802873
0.0003636
0.00766644
0.000362595
0.00731179
0.000354916
0.00696959
0.00034242
0.00664298
0.000326784
0.00633437
0.000308743
0.00604522
0.000289231
0.00577623
0.00026903
0.00552754
0.000248688
0.00529889
0.000228624
0.00508971
0.000209154
0.00489917
0.000190513
0.00472631
0.00017287
0.00457004
0.000156333
0.00442921
0.00014097
0.00430266
0.000126809
0.0041892
0.000113848
0.00408767
0.000102059
0.00399695
9.13982e-05
0.00391595
8.18047e-05
0.00384366
7.32091e-05
0.00377912
6.55363e-05
0.00372141
5.87083e-05
0.00366971
5.26495e-05
0.00362328
4.72644e-05
0.00358151
4.24293e-05
0.00354374
3.8202e-05
0.0035094
3.45068e-05
0.00347804
3.12597e-05
0.0034493
2.84123e-05
0.00342286
2.59284e-05
0.00339848
2.37734e-05
0.003376
2.19157e-05
0.00335526
2.03275e-05
0.00333615
1.89823e-05
0.00331855
1.78523e-05
0.00330232
1.69073e-05
0.0032873
1.61158e-05
0.00327332
1.54447e-05
0.00326017
1.48606e-05
0.00324762
1.43311e-05
0.00323544
1.38278e-05
0.00322342
1.33298e-05
0.00321141
1.2824e-05
0.0031993
1.23045e-05
0.00318702
1.17719e-05
0.00317457
1.1236e-05
0.00316205
1.07174e-05
0.00314969
1.02465e-05
0.00313778
9.85847e-06
0.00312663
9.58386e-06
0.00311647
9.43944e-06
0.00310741
9.42326e-06
0.00309938
9.51524e-06
0.0030922
9.68122e-06
0.00308558
9.87984e-06
0.00307921
1.00689e-05
0.00307278
1.02099e-05
0.00306607
1.02777e-05
0.00305893
1.02681e-05
0.00305132
1.01819e-05
0.00304331
1.0011e-05
0.00303504
9.77526e-06
0.00302666
9.49619e-06
0.00301831
9.19654e-06
0.00301012
8.89685e-06
0.00300216
8.61153e-06
0.00299447
8.34921e-06
0.00298706
8.1139e-06
0.00297992
7.90628e-06
0.00297303
7.72466e-06
0.00296635
7.56617e-06
0.00295985
7.42739e-06
0.00295352
7.30499e-06
0.00294732
7.19569e-06
0.00294123
7.09659e-06
0.00293524
7.00484e-06
0.00292933
6.91796e-06
0.0029235
6.8336e-06
0.00291774
6.74988e-06
0.00291205
6.66533e-06
0.00290642
6.57925e-06
0.00290085
6.49139e-06
0.00289535
6.40222e-06
0.00288991
6.31235e-06
0.00288453
6.22269e-06
0.00287922
6.13399e-06
0.00287396
6.04703e-06
0.00286877
5.96237e-06
0.00286363
5.88038e-06
0.00285855
5.80127e-06
0.00285353
5.72486e-06
0.00284856
5.6513e-06
0.00284365
5.57996e-06
0.0028388
5.51134e-06
0.002834
5.4441e-06
0.00282926
5.37958e-06
0.00282458
5.31503e-06
0.00281996
5.25384e-06
0.00281539
5.19061e-06
0.00281089
5.13334e-06
0.00280645
5.07086e-06
0.00280206
5.02036e-06
0.00279774
4.95711e-06
0.00279346
4.91767e-06
0.00278925
4.8454e-06
0.00278507
4.82089e-06
0.002781
4.71562e-06
0.00277693
4.70818e-06
0.00277304
4.52601e-06
0.00276911
4.55342e-06
0.00276544
4.29706e-06
4.42345e-06
0.0100508
2.91369e-05
0.0100953
8.75467e-05
0.0101568
0.000141241
0.010229
0.000189215
0.0103038
0.000231942
0.0103735
0.000268384
0.0104325
0.000297445
0.0104777
0.000318833
0.0105075
0.000333045
0.0105219
0.000340819
0.0105216
0.000343007
0.0105081
0.000340548
0.0104828
0.000334211
0.0104475
0.000324748
0.0104038
0.000312898
0.0103532
0.000299322
0.0102973
0.000284592
0.0102374
0.000269192
0.0101744
0.00025352
0.0101093
0.000237908
0.010043
0.000222617
0.00997615
0.000207856
0.00990917
0.000193778
0.00984253
0.000180484
0.00977657
0.000168042
0.00971154
0.000156483
0.00964763
0.000145809
0.00958497
0.000136004
0.00952367
0.000127032
0.00946378
0.000118848
0.00940533
0.000111396
0.00934834
0.000104617
0.00929273
9.84532e-05
0.00923851
9.28799e-05
0.00918567
8.78557e-05
0.00913414
8.33218e-05
0.00908389
7.92278e-05
0.00903487
7.55356e-05
0.00898703
7.22128e-05
0.00894032
6.92276e-05
0.00889471
6.6549e-05
0.00885017
6.41459e-05
0.00880666
6.19864e-05
0.00876418
6.0037e-05
0.0087227
5.82632e-05
0.00868222
5.663e-05
0.00864271
5.51038e-05
0.00860415
5.3654e-05
0.0085665
5.22553e-05
0.00852973
5.089e-05
0.00849379
4.95474e-05
0.00845861
4.82238e-05
0.00842413
4.6923e-05
0.0083903
4.56571e-05
0.00835704
4.44459e-05
0.00832433
4.33139e-05
0.00829211
4.22855e-05
0.00826041
4.13786e-05
0.00822923
4.05989e-05
0.00819862
3.99384e-05
0.00816862
3.93761e-05
0.00813926
3.88817e-05
0.00811057
3.84214e-05
0.00808257
3.79619e-05
0.00805525
3.74741e-05
0.00802858
3.694e-05
0.00800255
3.63498e-05
0.00797712
3.56954e-05
0.00795228
3.49755e-05
0.00792801
3.42032e-05
0.00790429
3.33957e-05
0.00788113
3.25708e-05
0.00785853
3.17462e-05
0.0078365
3.09367e-05
0.00781505
3.01534e-05
0.00779417
2.94036e-05
0.00777388
2.86919e-05
0.00775416
2.80198e-05
0.007735
2.73873e-05
0.0077164
2.67924e-05
0.00769833
2.62326e-05
0.00768078
2.57045e-05
0.00766373
2.52052e-05
0.00764716
2.47313e-05
0.00763103
2.42797e-05
0.00761534
2.38476e-05
0.00760004
2.34324e-05
0.00758512
2.30318e-05
0.00757054
2.2644e-05
0.00755628
2.22674e-05
0.00754231
2.19013e-05
0.00752861
2.15445e-05
0.00751514
2.1197e-05
0.0075019
2.08579e-05
0.00748885
2.0527e-05
0.007476
2.02035e-05
0.00746331
1.98869e-05
0.00745078
1.95757e-05
0.00743839
1.92689e-05
0.00742614
1.89647e-05
0.00741402
1.86624e-05
0.00740202
1.83603e-05
0.00739015
1.80591e-05
0.00737844
1.77574e-05
0.00736688
1.74581e-05
0.00735549
1.71585e-05
0.00734427
1.68655e-05
0.00733322
1.65724e-05
0.00732232
1.62942e-05
0.0073116
1.60131e-05
0.00730103
1.57618e-05
0.00729067
1.54937e-05
0.00728045
1.52801e-05
0.00727052
1.5008e-05
0.00726069
1.48367e-05
0.00725125
1.45052e-05
0.00724181
1.437e-05
0.007233
1.38443e-05
0.00722402
1.37692e-05
1.30483e-05
0.0100398
2.0642e-05
0.0100657
6.21211e-05
0.0101061
0.000101315
0.0101597
0.000136123
0.0102254
0.000166651
0.0103014
0.000192767
0.0103852
0.000214015
0.0104742
0.000230227
0.0105659
0.000241681
0.0106581
0.000248898
0.010749
0.000252399
0.0108371
0.000252707
0.0109212
0.000250328
0.0110004
0.0002457
0.0110742
0.000239252
0.0111423
0.000231375
0.0112046
0.000222447
0.011261
0.000212802
0.0113119
0.000202723
0.0113574
0.000192456
0.0113978
0.000182206
0.0114335
0.000172144
0.0114648
0.000162411
0.0114922
0.000153113
0.0115159
0.00014432
0.0115362
0.000136077
0.0115536
0.000128405
0.0115683
0.000121307
0.0115805
0.000114773
0.0115906
0.00010878
0.0115988
0.0001033
0.0116051
9.83027e-05
0.0116099
9.37552e-05
0.0116133
8.96265e-05
0.0116155
8.58921e-05
0.0116165
8.25229e-05
0.0116165
7.94862e-05
0.0116156
7.67534e-05
0.0116139
7.43008e-05
0.0116115
7.21063e-05
0.0116084
7.01473e-05
0.0116047
6.83998e-05
0.0116004
6.68389e-05
0.0115957
6.54379e-05
0.0115905
6.4169e-05
0.0115849
6.30042e-05
0.0115789
6.1916e-05
0.0115726
6.08801e-05
0.0115659
5.98756e-05
0.0115588
5.88891e-05
0.0115514
5.79125e-05
0.0115436
5.69437e-05
0.0115356
5.59878e-05
0.0115272
5.50561e-05
0.0115185
5.41655e-05
0.0115094
5.33357e-05
0.0115001
5.25854e-05
0.0114905
5.19286e-05
0.0114807
5.13699e-05
0.0114706
5.09035e-05
0.0114603
5.05132e-05
0.0114497
5.01752e-05
0.0114389
4.98613e-05
0.0114279
4.95433e-05
0.0114167
4.9195e-05
0.0114052
4.87954e-05
0.0113935
4.83314e-05
0.0113816
4.77972e-05
0.0113695
4.71924e-05
0.0113572
4.65248e-05
0.0113447
4.58092e-05
0.011332
4.50622e-05
0.0113192
4.43004e-05
0.0113063
4.35384e-05
0.0112932
4.2789e-05
0.01128
4.20612e-05
0.0112667
4.13618e-05
0.0112534
4.06941e-05
0.01124
4.00599e-05
0.0112266
3.94585e-05
0.0112131
3.88886e-05
0.0111997
3.83479e-05
0.0111862
3.78341e-05
0.0111728
3.73443e-05
0.0111594
3.68759e-05
0.0111461
3.64253e-05
0.0111329
3.59903e-05
0.0111197
3.55679e-05
0.0111067
3.51564e-05
0.0110937
3.47537e-05
0.011081
3.43589e-05
0.0110683
3.39697e-05
0.0110559
3.35859e-05
0.0110436
3.32053e-05
0.0110315
3.2828e-05
0.0110196
3.24518e-05
0.011008
3.2077e-05
0.0109966
3.17004e-05
0.0109854
3.13228e-05
0.0109745
3.09398e-05
0.0109638
3.05546e-05
0.0109534
3.0161e-05
0.0109432
2.97675e-05
0.0109332
2.93633e-05
0.0109235
2.89664e-05
0.010914
2.85555e-05
0.0109047
2.8167e-05
0.0108957
2.77554e-05
0.0108868
2.73951e-05
0.010878
2.69865e-05
0.0108694
2.66818e-05
0.010861
2.62655e-05
0.0108525
2.6051e-05
0.0108443
2.55811e-05
0.0108359
2.55026e-05
0.0108278
2.48663e-05
0.0108193
2.49921e-05
0.0108112
2.39398e-05
0.0108026
2.43202e-05
2.25164e-05
0.0100383
1.33457e-05
0.0100609
3.99881e-05
0.0100972
6.55329e-05
0.0101452
8.85357e-05
0.0102037
0.000108627
0.0102711
0.000125769
0.0103457
0.000139823
0.0104256
0.000150677
0.0105092
0.000158433
0.010595
0.000163383
0.0106818
0.000165873
0.0107685
0.000166252
0.0108542
0.000164856
0.0109381
0.000161985
0.0110196
0.000157911
0.0110982
0.000152895
0.0111736
0.000147182
0.0112454
0.000140997
0.0113137
0.000134527
0.0113782
0.000127928
0.0114391
0.000121335
0.0114964
0.000114851
0.0115502
0.000108566
0.0116008
0.000102565
0.0116481
9.68868e-05
0.0116926
9.15594e-05
0.0117344
8.65983e-05
0.0117737
8.20058e-05
0.0118106
7.77729e-05
0.0118455
7.38864e-05
0.0118785
7.03297e-05
0.0119098
6.70848e-05
0.0119394
6.41314e-05
0.0119677
6.14501e-05
0.0119947
5.90258e-05
0.0120205
5.68432e-05
0.0120453
5.48845e-05
0.0120692
5.31314e-05
0.0120922
5.15682e-05
0.0121145
5.01805e-05
0.0121361
4.89536e-05
0.0121571
4.78718e-05
0.0121776
4.69178e-05
0.0121975
4.60734e-05
0.012217
4.53193e-05
0.0122361
4.46359e-05
0.0122548
4.40041e-05
0.0122731
4.34066e-05
0.012291
4.28291e-05
0.0123086
4.22621e-05
0.0123257
4.17002e-05
0.0123425
4.11431e-05
0.012359
4.05949e-05
0.012375
4.00644e-05
0.0123907
3.9564e-05
0.012406
3.91076e-05
0.0124211
3.87086e-05
0.0124358
3.83769e-05
0.0124502
3.81163e-05
0.0124643
3.7923e-05
0.0124781
3.77858e-05
0.0124917
3.76869e-05
0.012505
3.76049e-05
0.012518
3.75171e-05
0.0125307
3.74021e-05
0.0125431
3.7242e-05
0.0125552
3.70262e-05
0.0125669
3.67504e-05
0.0125783
3.6414e-05
0.0125893
3.60212e-05
0.0125999
3.55832e-05
0.0126101
3.51132e-05
0.0126199
3.46253e-05
0.0126294
3.41317e-05
0.0126385
3.36439e-05
0.0126471
3.31707e-05
0.0126555
3.27186e-05
0.0126634
3.22918e-05
0.012671
3.18929e-05
0.0126782
3.1522e-05
0.0126851
3.1179e-05
0.0126916
3.08622e-05
0.0126978
3.05699e-05
0.0127037
3.02994e-05
0.0127093
3.00483e-05
0.0127146
2.98133e-05
0.0127196
2.95919e-05
0.0127243
2.93808e-05
0.0127288
2.91782e-05
0.012733
2.89811e-05
0.0127371
2.87882e-05
0.0127409
2.85965e-05
0.0127446
2.84049e-05
0.0127481
2.82105e-05
0.0127516
2.80128e-05
0.0127549
2.78089e-05
0.0127582
2.75987e-05
0.0127615
2.73787e-05
0.0127647
2.71501e-05
0.012768
2.69082e-05
0.0127713
2.66574e-05
0.0127747
2.63912e-05
0.0127781
2.61195e-05
0.0127817
2.58319e-05
0.0127854
2.55475e-05
0.0127892
2.52458e-05
0.0127932
2.49642e-05
0.0127973
2.46594e-05
0.0128016
2.4404e-05
0.012806
2.41052e-05
0.0128105
2.39054e-05
0.0128152
2.36092e-05
0.01282
2.34977e-05
0.0128249
2.31707e-05
0.01283
2.31851e-05
0.012835
2.27384e-05
0.0128402
2.29197e-05
0.0128453
2.21538e-05
0.0128506
2.25148e-05
2.11319e-05
0.0100376
6.55822e-06
0.0100585
1.96014e-05
0.0100923
3.21681e-05
0.0101377
4.35982e-05
0.0101932
5.35914e-05
0.0102573
6.21013e-05
0.0103284
6.9112e-05
0.0104048
7.45823e-05
0.010485
7.85358e-05
0.0105676
8.10912e-05
0.0106514
8.24161e-05
0.0107352
8.26851e-05
0.0108182
8.20643e-05
0.0108997
8.07032e-05
0.010979
7.87382e-05
0.0110557
7.62985e-05
0.0111295
7.35067e-05
0.0112001
7.0479e-05
0.0112674
6.73081e-05
0.0113312
6.40714e-05
0.0113918
6.08335e-05
0.0114489
5.76472e-05
0.0115029
5.45585e-05
0.0115539
5.16042e-05
0.0116019
4.88046e-05
0.0116473
4.6172e-05
0.0116901
4.37152e-05
0.0117306
4.14382e-05
0.0117691
3.93288e-05
0.0118056
3.73826e-05
0.0118403
3.55927e-05
0.0118735
3.39508e-05
0.0119052
3.2449e-05
0.0119357
3.10803e-05
0.011965
2.98391e-05
0.0119933
2.87205e-05
0.0120206
2.77181e-05
0.0120472
2.68247e-05
0.012073
2.60331e-05
0.0120982
2.53369e-05
0.0121229
2.47288e-05
0.012147
2.42009e-05
0.0121707
2.37436e-05
0.012194
2.33465e-05
0.012217
2.2998e-05
0.0122397
2.26861e-05
0.012262
2.23987e-05
0.0122842
2.21251e-05
0.012306
2.18569e-05
0.0123276
2.15884e-05
0.0123489
2.13174e-05
0.01237
2.1045e-05
0.0123909
2.07754e-05
0.0124115
2.05156e-05
0.0124319
2.02749e-05
0.0124521
2.00636e-05
0.012472
1.98912e-05
0.0124918
1.97645e-05
0.0125114
1.9686e-05
0.0125308
1.96527e-05
0.0125501
1.96559e-05
0.0125692
1.96827e-05
0.0125882
1.97169e-05
0.012607
1.97414e-05
0.0126256
1.97405e-05
0.0126441
1.97014e-05
0.0126623
1.96163e-05
0.0126803
1.94815e-05
0.0126981
1.92967e-05
0.0127156
1.90651e-05
0.0127329
1.87946e-05
0.0127498
1.84959e-05
0.0127665
1.818e-05
0.0127829
1.78577e-05
0.012799
1.75383e-05
0.0128149
1.72297e-05
0.0128304
1.6938e-05
0.0128456
1.66677e-05
0.0128606
1.64217e-05
0.0128753
1.62014e-05
0.0128897
1.60068e-05
0.0129038
1.58369e-05
0.0129177
1.56899e-05
0.0129312
1.55638e-05
0.0129446
1.54563e-05
0.0129577
1.53648e-05
0.0129705
1.52865e-05
0.0129831
1.52183e-05
0.0129956
1.51572e-05
0.0130078
1.51004e-05
0.0130198
1.50453e-05
0.0130317
1.49894e-05
0.0130434
1.49302e-05
0.0130551
1.48653e-05
0.0130666
1.47922e-05
0.013078
1.47084e-05
0.0130894
1.46124e-05
0.0131008
1.4502e-05
0.0131122
1.43771e-05
0.0131236
1.42357e-05
0.0131351
1.40795e-05
0.0131466
1.39064e-05
0.0131583
1.37214e-05
0.01317
1.35217e-05
0.0131819
1.3318e-05
0.013194
1.31046e-05
0.0132062
1.29004e-05
0.0132186
1.26906e-05
0.0132312
1.25084e-05
0.0132439
1.23186e-05
0.0132569
1.2182e-05
0.01327
1.20226e-05
0.0132833
1.1953e-05
0.0132968
1.18193e-05
0.0133105
1.18306e-05
0.0133242
1.1688e-05
0.0133382
1.17728e-05
0.0133521
1.15294e-05
0.0133663
1.1647e-05
1.12326e-05
0.0100373
7.8463e-10
0.0100574
2.12892e-09
0.01009
3.55479e-09
0.0101341
5.1574e-09
0.0101881
6.92137e-09
0.0102506
9.71559e-09
0.0103201
1.49695e-08
0.010395
2.40124e-08
0.0104738
3.73945e-08
0.0105551
5.51974e-08
0.0106378
7.75568e-08
0.0107206
1.04973e-07
0.0108027
1.37855e-07
0.0108834
1.76117e-07
0.0109621
2.19684e-07
0.0110383
2.68702e-07
0.0111116
3.22945e-07
0.0111817
3.81377e-07
0.0112487
4.42637e-07
0.0113122
5.05749e-07
0.0113725
5.69936e-07
0.0114295
6.3386e-07
0.0114834
6.95331e-07
0.0115342
7.5196e-07
0.0115821
8.01689e-07
0.0116274
8.42958e-07
0.0116702
8.74045e-07
0.0117108
8.92635e-07
0.0117492
8.97039e-07
0.0117857
8.87179e-07
0.0118204
8.63894e-07
0.0118536
8.28777e-07
0.0118853
7.84245e-07
0.0119157
7.33458e-07
0.011945
6.80681e-07
0.0119733
6.31027e-07
0.0120006
5.89232e-07
0.0120271
5.58606e-07
0.0120529
5.4123e-07
0.0120781
5.38583e-07
0.0121026
5.51585e-07
0.0121267
5.80208e-07
0.0121504
6.22975e-07
0.0121737
6.76766e-07
0.0121966
7.37011e-07
0.0122192
7.98346e-07
0.0122415
8.55323e-07
0.0122636
9.03196e-07
0.0122854
9.38466e-07
0.0123069
9.59455e-07
0.0123282
9.66638e-07
0.0123493
9.62717e-07
0.0123702
9.52461e-07
0.0123908
9.42412e-07
0.0124113
9.40277e-07
0.0124315
9.54013e-07
0.0124515
9.9063e-07
0.0124714
1.05494e-06
0.0124911
1.1484e-06
0.0125107
1.26847e-06
0.0125301
1.40855e-06
0.0125493
1.55885e-06
0.0125684
1.70754e-06
0.0125873
1.84223e-06
0.0126061
1.95152e-06
0.0126247
2.02619e-06
0.012643
2.05983e-06
0.0126612
2.04941e-06
0.0126791
1.9951e-06
0.0126968
1.90012e-06
0.0127143
1.77077e-06
0.0127315
1.6156e-06
0.0127485
1.44399e-06
0.0127652
1.26505e-06
0.0127817
1.08716e-06
0.0127978
9.17672e-07
0.0128138
7.62604e-07
0.0128294
6.26449e-07
0.0128448
5.12227e-07
0.0128599
4.21636e-07
0.0128748
3.55168e-07
0.0128894
3.12308e-07
0.0129038
2.91723e-07
0.0129179
2.91444e-07
0.0129317
3.09098e-07
0.0129454
3.41996e-07
0.0129588
3.87214e-07
0.012972
4.41659e-07
0.0129851
5.02096e-07
0.0129979
5.65224e-07
0.0130106
6.27755e-07
0.0130232
6.86457e-07
0.0130356
7.38203e-07
0.013048
7.79992e-07
0.0130603
8.0898e-07
0.0130725
8.22565e-07
0.0130847
8.18462e-07
0.0130969
7.94833e-07
0.0131091
7.50414e-07
0.0131214
6.84742e-07
0.0131338
5.98048e-07
0.0131463
4.9173e-07
0.0131588
3.67775e-07
0.0131716
2.29769e-07
0.0131845
8.14089e-08
0.0131976
-7.12245e-08
0.0132108
-2.24133e-07
0.0132243
-3.68553e-07
0.013238
-5.02556e-07
0.0132519
-6.13796e-07
0.013266
-7.07193e-07
0.0132803
-7.6252e-07
0.0132949
-8.01076e-07
0.0133095
-7.83285e-07
0.0133245
-7.66414e-07
0.0133395
-6.63767e-07
0.0133548
-6.10486e-07
0.01337
-4.09697e-07
0.0133854
-3.66326e-07
-3.41666e-08
0.0100373
-6.55659e-06
0.0100574
-1.95969e-05
0.01009
-3.21607e-05
0.0101341
-4.35882e-05
0.0101881
-5.35792e-05
0.0102506
-6.20848e-05
0.0103201
-6.90856e-05
0.010395
-7.45381e-05
0.0104738
-7.84652e-05
0.0105552
-8.09853e-05
0.0106378
-8.22656e-05
0.0107206
-8.24799e-05
0.0108028
-8.17935e-05
0.0108835
-8.03553e-05
0.0109622
-7.83023e-05
0.0110383
-7.57643e-05
0.0111116
-7.28641e-05
0.0111818
-6.9719e-05
0.0112487
-6.6424e-05
0.0113123
-6.3059e-05
0.0113726
-5.96913e-05
0.0114296
-5.63765e-05
0.0114834
-5.3163e-05
0.0115342
-5.00925e-05
0.0115822
-4.71904e-05
0.0116274
-4.44732e-05
0.0116702
-4.1953e-05
0.0117107
-3.96382e-05
0.0117491
-3.75197e-05
0.0117856
-3.55931e-05
0.0118203
-3.38507e-05
0.0118535
-3.22815e-05
0.0118852
-3.08728e-05
0.0119156
-2.96105e-05
0.0119449
-2.84795e-05
0.0119732
-2.7464e-05
0.0120005
-2.65487e-05
0.0120271
-2.57198e-05
0.0120529
-2.49653e-05
0.012078
-2.42751e-05
0.0121026
-2.36403e-05
0.0121267
-2.30531e-05
0.0121504
-2.2507e-05
0.0121737
-2.19979e-05
0.0121966
-2.1524e-05
0.0122192
-2.10842e-05
0.0122415
-2.06782e-05
0.0122636
-2.03054e-05
0.0122853
-1.99649e-05
0.0123069
-1.96549e-05
0.0123282
-1.93723e-05
0.0123493
-1.91125e-05
0.0123701
-1.88697e-05
0.0123908
-1.86371e-05
0.0124112
-1.84079e-05
0.0124315
-1.81754e-05
0.0124516
-1.79338e-05
0.0124715
-1.76793e-05
0.0124912
-1.7411e-05
0.0125107
-1.71309e-05
0.0125301
-1.68441e-05
0.0125494
-1.65581e-05
0.0125684
-1.62818e-05
0.0125873
-1.60245e-05
0.012606
-1.57948e-05
0.0126246
-1.55998e-05
0.0126429
-1.54445e-05
0.012661
-1.53311e-05
0.0126789
-1.52586e-05
0.0126966
-1.52235e-05
0.012714
-1.52203e-05
0.0127312
-1.52414e-05
0.0127482
-1.52786e-05
0.0127649
-1.53234e-05
0.0127813
-1.53677e-05
0.0127975
-1.54046e-05
0.0128134
-1.54279e-05
0.0128291
-1.54333e-05
0.0128445
-1.54177e-05
0.0128597
-1.53792e-05
0.0128745
-1.53171e-05
0.0128892
-1.52317e-05
0.0129035
-1.51241e-05
0.0129177
-1.49962e-05
0.0129316
-1.48505e-05
0.0129452
-1.46901e-05
0.0129587
-1.45181e-05
0.0129719
-1.43378e-05
0.0129849
-1.41527e-05
0.0129978
-1.39663e-05
0.0130105
-1.37828e-05
0.013023
-1.36061e-05
0.0130355
-1.34403e-05
0.0130478
-1.32888e-05
0.01306
-1.31553e-05
0.0130722
-1.30423e-05
0.0130844
-1.2953e-05
0.0130966
-1.28891e-05
0.0131088
-1.28531e-05
0.0131211
-1.28441e-05
0.0131334
-1.28634e-05
0.0131459
-1.29062e-05
0.0131585
-1.29734e-05
0.0131712
-1.30551e-05
0.0131841
-1.31544e-05
0.0131972
-1.32533e-05
0.0132105
-1.33623e-05
0.0132239
-1.34489e-05
0.0132377
-1.35419e-05
0.0132516
-1.35812e-05
0.0132657
-1.36364e-05
0.0132801
-1.35916e-05
0.0132947
-1.36013e-05
0.0133094
-1.34327e-05
0.0133244
-1.34097e-05
0.0133395
-1.30586e-05
0.0133548
-1.30339e-05
0.0133701
-1.23801e-05
0.0133855
-1.24021e-05
-1.13248e-05
0.0100376
-1.33444e-05
0.0100585
-3.99832e-05
0.0100923
-6.55235e-05
0.0101377
-8.85261e-05
0.0101932
-0.00010862
0.0102573
-0.000125761
0.0103284
-0.000139807
0.0104048
-0.000150644
0.0104851
-0.000158375
0.0105677
-0.000163292
0.0106514
-0.000165738
0.0107353
-0.000166062
0.0108183
-0.000164601
0.0108998
-0.000161651
0.0109791
-0.000157487
0.0110559
-0.00015237
0.0111296
-0.000146548
0.0112002
-0.000140243
0.0112675
-0.000133644
0.0113314
-0.000126913
0.0113919
-0.000120184
0.0114491
-0.000113567
0.011503
-0.000107152
0.0115539
-0.000101027
0.011602
-9.52385e-05
0.0116473
-8.98199e-05
0.0116901
-8.4791e-05
0.0117306
-8.01581e-05
0.0117689
-7.59149e-05
0.0118054
-7.20495e-05
0.0118401
-6.85452e-05
0.0118732
-6.53808e-05
0.0119049
-6.25317e-05
0.0119354
-5.99711e-05
0.0119647
-5.76711e-05
0.011993
-5.56041e-05
0.0120204
-5.37437e-05
0.012047
-5.20651e-05
0.0120729
-5.0546e-05
0.0120981
-4.91675e-05
0.0121228
-4.79128e-05
0.012147
-4.67658e-05
0.0121707
-4.57126e-05
0.0121941
-4.47425e-05
0.012217
-4.38472e-05
0.0122397
-4.30204e-05
0.012262
-4.22561e-05
0.0122841
-4.15493e-05
0.0123059
-4.0895e-05
0.0123275
-4.02883e-05
0.0123488
-3.97237e-05
0.0123699
-3.91944e-05
0.0123907
-3.86933e-05
0.0124114
-3.82131e-05
0.0124318
-3.77468e-05
0.012452
-3.72879e-05
0.0124721
-3.68315e-05
0.0124919
-3.6374e-05
0.0125116
-3.59147e-05
0.0125311
-3.54554e-05
0.0125504
-3.50002e-05
0.0125695
-3.45552e-05
0.0125885
-3.41276e-05
0.0126072
-3.37248e-05
0.0126257
-3.33537e-05
0.012644
-3.30197e-05
0.0126621
-3.27263e-05
0.01268
-3.24744e-05
0.0126977
-3.22627e-05
0.0127151
-3.20869e-05
0.0127323
-3.19419e-05
0.0127492
-3.18199e-05
0.0127659
-3.17131e-05
0.0127823
-3.16129e-05
0.0127985
-3.15116e-05
0.0128143
-3.14019e-05
0.01283
-3.12784e-05
0.0128453
-3.11363e-05
0.0128603
-3.09727e-05
0.0128751
-3.07853e-05
0.0128896
-3.05738e-05
0.0129038
-3.0338e-05
0.0129177
-3.00797e-05
0.0129314
-2.98006e-05
0.0129448
-2.95039e-05
0.0129579
-2.9192e-05
0.0129708
-2.88688e-05
0.0129835
-2.85375e-05
0.0129959
-2.82029e-05
0.0130081
-2.78688e-05
0.0130202
-2.75404e-05
0.0130321
-2.72214e-05
0.0130438
-2.69171e-05
0.0130554
-2.66306e-05
0.0130669
-2.63675e-05
0.0130784
-2.61304e-05
0.0130898
-2.59241e-05
0.0131011
-2.57491e-05
0.0131125
-2.56094e-05
0.0131239
-2.55017e-05
0.0131353
-2.54297e-05
0.0131469
-2.53848e-05
0.0131585
-2.53725e-05
0.0131703
-2.5375e-05
0.0131822
-2.54038e-05
0.0131942
-2.54258e-05
0.0132065
-2.54688e-05
0.0132189
-2.5472e-05
0.0132316
-2.55015e-05
0.0132444
-2.54406e-05
0.0132574
-2.54382e-05
0.0132706
-2.52611e-05
0.013284
-2.52293e-05
0.0132975
-2.48667e-05
0.0133113
-2.4842e-05
0.0133251
-2.41804e-05
0.0133392
-2.42443e-05
0.0133531
-2.30553e-05
0.0133674
-2.33199e-05
-2.1254e-05
0.0100383
-2.0643e-05
0.010061
-6.21156e-05
0.0100972
-0.000101301
0.0101452
-0.000136114
0.0102037
-0.000166653
0.0102711
-0.000192772
0.0103457
-0.000214015
0.0104256
-0.000230213
0.0105092
-0.000241645
0.0105951
-0.00024883
0.0106819
-0.00025229
0.0107686
-0.000252546
0.0108544
-0.0002501
0.0109383
-0.000245389
0.0110198
-0.000238847
0.0110984
-0.000230866
0.0111738
-0.000221823
0.0112457
-0.000212052
0.0113139
-0.000201839
0.0113785
-0.000191431
0.0114394
-0.000181038
0.0114966
-0.000170834
0.0115504
-0.000160961
0.0116009
-0.000151531
0.0116482
-0.000142621
0.0116926
-0.000134281
0.0117343
-0.000126537
0.0117736
-0.000119397
0.0118105
-0.000112854
0.0118453
-0.00010689
0.0118783
-0.000101475
0.0119095
-9.65772e-05
0.0119392
-9.21572e-05
0.0119675
-8.81739e-05
0.0119945
-8.45852e-05
0.0120204
-8.13497e-05
0.0120453
-7.84285e-05
0.0120692
-7.57854e-05
0.0120924
-7.33883e-05
0.0121148
-7.12101e-05
0.0121365
-6.9224e-05
0.0121576
-6.74043e-05
0.0121781
-6.57296e-05
0.0121982
-6.41832e-05
0.0122177
-6.27513e-05
0.0122368
-6.14219e-05
0.0122555
-6.01845e-05
0.0122738
-5.90297e-05
0.0122918
-5.79483e-05
0.0123093
-5.69326e-05
0.0123265
-5.59745e-05
0.0123434
-5.50655e-05
0.0123599
-5.41971e-05
0.0123761
-5.33609e-05
0.012392
-5.25496e-05
0.0124076
-5.17565e-05
0.0124229
-5.09765e-05
0.0124379
-5.02067e-05
0.0124526
-4.94462e-05
0.012467
-4.86965e-05
0.0124811
-4.79612e-05
0.0124948
-4.72457e-05
0.0125083
-4.65556e-05
0.0125215
-4.58967e-05
0.0125344
-4.5274e-05
0.0125469
-4.46912e-05
0.0125591
-4.41508e-05
0.012571
-4.36526e-05
0.0125825
-4.31942e-05
0.0125937
-4.27711e-05
0.0126045
-4.23776e-05
0.012615
-4.20061e-05
0.0126251
-4.16488e-05
0.0126349
-4.12976e-05
0.0126443
-4.09451e-05
0.0126533
-4.05845e-05
0.0126619
-4.02109e-05
0.0126701
-3.98198e-05
0.012678
-3.94089e-05
0.0126855
-3.89763e-05
0.0126926
-3.85219e-05
0.0126993
-3.80461e-05
0.0127058
-3.7551e-05
0.0127118
-3.70386e-05
0.0127176
-3.65124e-05
0.012723
-3.59751e-05
0.0127281
-3.54309e-05
0.012733
-3.48833e-05
0.0127376
-3.43371e-05
0.0127419
-3.37964e-05
0.0127461
-3.32667e-05
0.01275
-3.27517e-05
0.0127538
-3.22569e-05
0.0127574
-3.17857e-05
0.0127609
-3.13434e-05
0.0127644
-3.09329e-05
0.0127677
-3.0559e-05
0.0127711
-3.02222e-05
0.0127744
-2.99257e-05
0.0127777
-2.96664e-05
0.012781
-2.94468e-05
0.0127844
-2.92585e-05
0.0127879
-2.91057e-05
0.0127914
-2.89709e-05
0.0127951
-2.8864e-05
0.0127989
-2.87523e-05
0.0128027
-2.86622e-05
0.0128068
-2.85322e-05
0.0128109
-2.84292e-05
0.0128152
-2.82331e-05
0.0128195
-2.80996e-05
0.012824
-2.77824e-05
0.0128287
-2.76255e-05
0.0128334
-2.71103e-05
0.0128382
-2.69767e-05
0.0128431
-2.61303e-05
0.0128481
-2.61296e-05
0.012853
-2.46783e-05
0.0128581
-2.49555e-05
-2.25139e-05
0.0100398
-2.91434e-05
0.0100657
-8.75349e-05
0.0101061
-0.00014122
0.0101597
-0.00018921
0.0102254
-0.000231952
0.0103014
-0.000268397
0.0103853
-0.000297449
0.0104742
-0.000318821
0.0105659
-0.000333011
0.0106582
-0.000340756
0.010749
-0.000342908
0.0108372
-0.000340401
0.0109213
-0.000334003
0.0110005
-0.000324465
0.0110744
-0.000312529
0.0111425
-0.000298856
0.0112048
-0.000284019
0.0112613
-0.000268502
0.0113122
-0.000252705
0.0113578
-0.000236963
0.0113983
-0.00022154
0.0114341
-0.000206648
0.0114656
-0.000192442
0.0114931
-0.00017903
0.0115169
-0.000166484
0.0115374
-0.00015484
0.0115549
-0.000144106
0.0115698
-0.00013427
0.0115822
-0.000125299
0.0115925
-0.000117151
0.0116008
-0.000109775
0.0116074
-0.000103115
0.0116125
-9.71097e-05
0.0116161
-9.16994e-05
0.0116185
-8.68238e-05
0.0116198
-8.24254e-05
0.01162
-7.84479e-05
0.0116194
-7.48416e-05
0.0116179
-7.15732e-05
0.0116157
-6.86077e-05
0.0116128
-6.59038e-05
0.0116094
-6.3427e-05
0.0116054
-6.11502e-05
0.0116009
-5.90511e-05
0.011596
-5.71104e-05
0.0115906
-5.5311e-05
0.0115849
-5.36384e-05
0.0115788
-5.20796e-05
0.0115724
-5.06221e-05
0.0115656
-4.92539e-05
0.0115586
-4.79652e-05
0.0115512
-4.67457e-05
0.0115437
-4.55856e-05
0.0115358
-4.44758e-05
0.0115277
-4.34081e-05
0.0115194
-4.23759e-05
0.0115108
-4.1374e-05
0.011502
-4.03992e-05
0.011493
-3.94503e-05
0.0114838
-3.85277e-05
0.0114743
-3.76339e-05
0.0114647
-3.67726e-05
0.0114548
-3.59481e-05
0.0114447
-3.5163e-05
0.0114345
-3.4419e-05
0.011424
-3.37185e-05
0.0114133
-3.30623e-05
0.0114023
-3.24494e-05
0.0113912
-3.18766e-05
0.0113798
-3.13393e-05
0.0113682
-3.08319e-05
0.0113564
-3.03478e-05
0.0113444
-2.98805e-05
0.0113321
-2.94232e-05
0.0113197
-2.89701e-05
0.011307
-2.85158e-05
0.0112942
-2.80566e-05
0.0112812
-2.75894e-05
0.0112681
-2.71127e-05
0.0112548
-2.66255e-05
0.0112415
-2.61283e-05
0.011228
-2.56218e-05
0.0112146
-2.5108e-05
0.0112011
-2.45889e-05
0.0111876
-2.40671e-05
0.0111742
-2.35453e-05
0.0111609
-2.30267e-05
0.0111476
-2.25141e-05
0.0111345
-2.20109e-05
0.0111214
-2.152e-05
0.0111086
-2.10452e-05
0.0110959
-2.05893e-05
0.0110835
-2.01559e-05
0.0110712
-1.97478e-05
0.0110592
-1.93682e-05
0.0110474
-1.90191e-05
0.0110358
-1.87029e-05
0.0110244
-1.84204e-05
0.0110133
-1.81722e-05
0.0110024
-1.79569e-05
0.0109917
-1.77729e-05
0.0109812
-1.76168e-05
0.010971
-1.74858e-05
0.0109608
-1.73737e-05
0.0109509
-1.72769e-05
0.0109411
-1.71851e-05
0.0109314
-1.70961e-05
0.0109218
-1.69934e-05
0.0109123
-1.68831e-05
0.010903
-1.67375e-05
0.0108936
-1.65842e-05
0.0108844
-1.63668e-05
0.0108752
-1.61623e-05
0.0108661
-1.58403e-05
0.0108569
-1.55916e-05
0.0108479
-1.51038e-05
0.0108387
-1.48337e-05
0.0108299
-1.40371e-05
0.0108206
-1.38511e-05
-1.26914e-05
0.0100507
-4.80567e-05
0.010095
-0.000131412
0.0101564
-0.000202136
0.0102285
-0.000260828
0.0103032
-0.000306222
0.0103728
-0.000337615
0.0104318
-0.000356068
0.0104769
-0.000363569
0.0105068
-0.000362571
0.0105213
-0.000354893
0.010521
-0.000342406
0.0105077
-0.000326766
0.0104826
-0.000308709
0.0104475
-0.000289177
0.010404
-0.000268944
0.0103539
-0.00024856
0.0102984
-0.000228444
0.0102389
-0.000208914
0.0101764
-0.000190204
0.010112
-0.000172486
0.0100464
-0.000155871
0.00998015
-0.000140428
0.0099139
-0.000126186
0.00984803
-0.000113146
0.00978284
-0.000101286
0.00971859
-9.05626e-05
0.00965545
-8.09205e-05
0.00959353
-7.22931e-05
0.00953293
-6.4608e-05
0.00947369
-5.77898e-05
0.00941583
-5.1762e-05
0.00935936
-4.64491e-05
0.00930426
-4.1779e-05
0.00925052
-3.76818e-05
0.00919812
-3.4093e-05
0.00914702
-3.09529e-05
0.00909721
-2.82006e-05
0.00904861
-2.577e-05
0.00900123
-2.36556e-05
0.00895502
-2.18222e-05
0.00890996
-2.02197e-05
0.00886601
-1.88178e-05
0.00882314
-1.75915e-05
0.00878134
-1.65183e-05
0.00874055
-1.55786e-05
0.00870077
-1.47554e-05
0.00866195
-1.40343e-05
0.00862406
-1.34023e-05
0.00858707
-1.28471e-05
0.00855096
-1.23577e-05
0.00851567
-1.19242e-05
0.00848119
-1.15373e-05
0.00844748
-1.11884e-05
0.00841451
-1.087e-05
0.00838225
-1.05755e-05
0.00835069
-1.02997e-05
0.0083198
-1.00387e-05
0.00828956
-9.79023e-06
0.00825995
-9.55312e-06
0.00823096
-9.32755e-06
0.00820257
-9.11463e-06
0.00817476
-8.91642e-06
0.00814751
-8.73679e-06
0.00812081
-8.57619e-06
0.00809463
-8.43166e-06
0.00806896
-8.30614e-06
0.00804378
-8.19974e-06
0.00801907
-8.11109e-06
0.00799483
-8.03783e-06
0.00797104
-7.97687e-06
0.00794768
-7.92467e-06
0.00792477
-7.87736e-06
0.00790229
-7.83112e-06
0.00788025
-7.78235e-06
0.00785866
-7.72799e-06
0.00783752
-7.66561e-06
0.00781683
-7.59355e-06
0.00779662
-7.5109e-06
0.00777689
-7.41753e-06
0.00775764
-7.3138e-06
0.00773889
-7.20065e-06
0.00772064
-7.07923e-06
0.00770289
-6.95101e-06
0.00768565
-6.81749e-06
0.0076689
-6.68034e-06
0.00765265
-6.54106e-06
0.00763688
-6.40124e-06
0.00762157
-6.26221e-06
0.00760671
-6.12537e-06
0.00759226
-5.99187e-06
0.00757821
-5.86296e-06
0.00756452
-5.73969e-06
0.00755116
-5.62313e-06
0.0075381
-5.51418e-06
0.00752529
-5.41374e-06
0.00751271
-5.32259e-06
0.0075003
-5.24137e-06
0.00748805
-5.17062e-06
0.00747589
-5.11037e-06
0.0074638
-5.06082e-06
0.00745173
-5.02117e-06
0.00743966
-4.99155e-06
0.00742756
-4.97008e-06
0.00741544
-4.95695e-06
0.00740329
-4.94826e-06
0.00739112
-4.94482e-06
0.00737892
-4.93982e-06
0.00736671
-4.93705e-06
0.00735448