/*--------------------------------*- C++ -*----------------------------------*\
  =========                 |
  \\      /  F ield         | OpenFOAM: The Open Source CFD Toolbox
   \\    /   O peration     | Website:  https://openfoam.org
    \\  /    A nd           | Version:  7
     \\/     M anipulation  |
\*---------------------------------------------------------------------------*/
FoamFile
{
    version     2.0;
    format      ascii;
    class       volVectorField;
    location    "0.17";
    object      U_0;
}
// * * * * * * * * * * * * * * * * * * * * * * * * * * * * * * * * * * * * * //

dimensions      [0 1 -1 0 0 0 0];

internalField   nonuniform List<vector> 
7920
(
(2.97968 0.10337 -32.3304)
(2.25592 -0.458732 -32.3609)
(1.63468 -0.612519 -32.3538)
(1.62374 -0.66922 -32.3888)
(1.49861 -0.688698 -32.411)
(1.65467 -0.696759 -32.4491)
(1.64992 -0.702009 -32.4617)
(1.82619 -0.702722 -32.4808)
(1.8435 -0.704788 -32.4808)
(2.00098 -0.704208 -32.4884)
(2.0256 -0.705305 -32.4845)
(2.16813 -0.704488 -32.4882)
(2.1994 -0.705131 -32.4844)
(2.32988 -0.704608 -32.4867)
(2.36452 -0.704635 -32.4839)
(2.48595 -0.705397 -32.4842)
(2.51436 -0.701763 -32.4849)
(2.63288 -0.709942 -32.4778)
(2.64594 -0.656206 -32.4925)
(2.58902 -0.64347 -32.4485)
(4.46313 0.966537 -32.3919)
(4.50076 0.874242 -32.4223)
(3.94373 0.820386 -32.4145)
(3.90301 0.748895 -32.4335)
(3.65206 0.714478 -32.4472)
(3.8433 0.697761 -32.48)
(3.79668 0.69118 -32.5009)
(4.03509 0.691099 -32.5268)
(4.02608 0.693026 -32.5372)
(4.23492 0.694365 -32.5477)
(4.23787 0.695104 -32.5484)
(4.4251 0.695199 -32.5513)
(4.44073 0.695361 -32.5494)
(4.61189 0.695663 -32.5501)
(4.63472 0.694909 -32.5489)
(4.798 0.698297 -32.5471)
(4.80553 0.692545 -32.5503)
(5.00628 0.705258 -32.5399)
(4.91184 0.694168 -32.5584)
(5.34469 0.717495 -32.5011)
(4.80097 0.191274 -32.3989)
(5.42092 -0.225814 -32.4263)
(5.37482 -0.368546 -32.4144)
(5.58864 -0.502062 -32.4241)
(5.46364 -0.595342 -32.4171)
(5.66119 -0.655912 -32.4329)
(5.61008 -0.683465 -32.4475)
(5.81765 -0.689384 -32.4823)
(5.80562 -0.688937 -32.505)
(5.99964 -0.687737 -32.5288)
(6.00662 -0.687485 -32.5358)
(6.18409 -0.687356 -32.5437)
(6.20315 -0.687424 -32.5425)
(6.36601 -0.687059 -32.5446)
(6.39261 -0.68824 -32.5434)
(6.54312 -0.683757 -32.5423)
(6.57449 -0.693233 -32.545)
(6.70413 -0.671263 -32.5376)
(6.74682 -0.683655 -32.5489)
(6.82011 -0.654193 -32.5052)
(4.80072 0.647008 -32.4085)
(5.44277 0.750381 -32.4352)
(5.64966 0.8012 -32.4259)
(6.05955 0.761536 -32.4337)
(6.08326 0.724647 -32.4208)
(6.33268 0.696266 -32.4255)
(6.31146 0.684186 -32.4328)
(6.51416 0.678784 -32.4661)
(6.51222 0.678853 -32.4942)
(6.69944 0.678555 -32.5248)
(6.71329 0.679039 -32.538)
(6.88382 0.678418 -32.5489)
(6.90675 0.678686 -32.5497)
(7.06388 0.678709 -32.5522)
(7.09111 0.677988 -32.5513)
(7.24074 0.681137 -32.5507)
(7.26457 0.676991 -32.5519)
(7.42025 0.685095 -32.5482)
(7.43128 0.687863 -32.5529)
(7.65279 0.739307 -32.517)
(4.79281 -0.0897768 -32.4075)
(5.40088 -0.385628 -32.4332)
(5.66915 -0.473373 -32.4231)
(6.14735 -0.547659 -32.4313)
(6.23545 -0.604861 -32.4154)
(6.51606 -0.646169 -32.4166)
(6.51112 -0.668917 -32.4196)
(6.71378 -0.675284 -32.4515)
(6.71369 -0.676198 -32.4801)
(6.89781 -0.675696 -32.5132)
(6.91339 -0.67581 -32.5281)
(7.0815 -0.675637 -32.5409)
(7.10598 -0.676046 -32.542)
(7.2596 -0.675076 -32.5453)
(7.29213 -0.677564 -32.5437)
(7.42807 -0.670703 -32.5446)
(7.4812 -0.683683 -32.5438)
(7.57216 -0.657071 -32.5433)
(7.6894 -0.690803 -32.5437)
(7.70009 -0.679121 -32.5137)
(4.78042 0.351507 -32.4112)
(5.34253 0.556607 -32.4373)
(5.62128 0.635116 -32.4276)
(6.11878 0.654432 -32.4358)
(6.2306 0.664527 -32.4192)
(6.52905 0.669716 -32.4196)
(6.53705 0.674139 -32.4216)
(6.74734 0.674477 -32.4531)
(6.75321 0.674295 -32.4817)
(6.94003 0.673329 -32.5152)
(6.95762 0.673275 -32.5305)
(7.1259 0.672679 -32.5437)
(7.15095 0.672919 -32.5449)
(7.30404 0.672449 -32.5485)
(7.33699 0.673154 -32.5466)
(7.47229 0.671133 -32.548)
(7.52513 0.67589 -32.5465)
(7.62267 0.665945 -32.5471)
(7.73413 0.688979 -32.5462)
(7.78482 0.715942 -32.5177)
(4.78042 -0.351511 -32.4112)
(5.34253 -0.556612 -32.4373)
(5.62128 -0.635121 -32.4276)
(6.11878 -0.654436 -32.4358)
(6.2306 -0.664531 -32.4192)
(6.52905 -0.669721 -32.4196)
(6.53705 -0.674144 -32.4216)
(6.74734 -0.674483 -32.4531)
(6.75321 -0.674299 -32.4817)
(6.94003 -0.673333 -32.5152)
(6.95763 -0.673276 -32.5305)
(7.12589 -0.672677 -32.5437)
(7.15097 -0.672918 -32.5449)
(7.30399 -0.672418 -32.5486)
(7.3371 -0.673164 -32.5466)
(7.47216 -0.670977 -32.5481)
(7.52531 -0.675961 -32.5464)
(7.62233 -0.665398 -32.5473)
(7.73424 -0.688983 -32.546)
(7.78403 -0.714956 -32.518)
(4.79281 0.0897727 -32.4075)
(5.40088 0.385624 -32.4332)
(5.66915 0.473368 -32.4231)
(6.14735 0.547655 -32.4313)
(6.23545 0.604856 -32.4154)
(6.51606 0.646164 -32.4166)
(6.51112 0.668912 -32.4196)
(6.71378 0.675278 -32.4515)
(6.71369 0.676195 -32.4801)
(6.89782 0.675691 -32.5132)
(6.91338 0.675811 -32.5281)
(7.08151 0.675633 -32.5409)
(7.10596 0.676057 -32.5419)
(7.25965 0.675087 -32.5454)
(7.29205 0.677579 -32.5435)
(7.42822 0.670793 -32.545)
(7.48113 0.683665 -32.5432)
(7.57257 0.657619 -32.5441)
(7.6895 0.690887 -32.5427)
(7.70136 0.680375 -32.5149)
(4.80072 -0.647013 -32.4085)
(5.44277 -0.750386 -32.4352)
(5.64966 -0.801205 -32.4259)
(6.05955 -0.761541 -32.4337)
(6.08326 -0.724651 -32.4208)
(6.33268 -0.69627 -32.4255)
(6.31146 -0.684192 -32.4328)
(6.51415 -0.678789 -32.4661)
(6.51222 -0.678858 -32.4942)
(6.69943 -0.678558 -32.5248)
(6.7133 -0.679043 -32.5379)
(6.88381 -0.678415 -32.549)
(6.90677 -0.678691 -32.5496)
(7.06388 -0.678672 -32.5524)
(7.09118 -0.67801 -32.5508)
(7.24072 -0.680925 -32.5517)
(7.26476 -0.677093 -32.5504)
(7.42014 -0.684592 -32.5506)
(7.43164 -0.688026 -32.5497)
(7.65256 -0.738744 -32.5211)
(4.80097 -0.191278 -32.3989)
(5.42092 0.225809 -32.4263)
(5.37482 0.368542 -32.4144)
(5.58864 0.502058 -32.4241)
(5.46364 0.595337 -32.4171)
(5.66119 0.655907 -32.4329)
(5.61007 0.683461 -32.4475)
(5.81764 0.689377 -32.4823)
(5.80562 0.688934 -32.505)
(5.99965 0.687731 -32.5288)
(6.00661 0.687488 -32.5358)
(6.18412 0.687346 -32.5437)
(6.20313 0.687443 -32.5424)
(6.36611 0.687042 -32.545)
(6.39251 0.688289 -32.5426)
(6.54345 0.683747 -32.544)
(6.57431 0.693289 -32.542)
(6.70512 0.671617 -32.5427)
(6.74678 0.683829 -32.5411)
(6.82314 0.655425 -32.5166)
(4.46313 -0.966542 -32.3919)
(4.50076 -0.874247 -32.4223)
(3.94373 -0.820391 -32.4145)
(3.90301 -0.7489 -32.4335)
(3.65206 -0.714483 -32.4472)
(3.8433 -0.697765 -32.48)
(3.79668 -0.691186 -32.5009)
(4.03509 -0.691102 -32.5268)
(4.02608 -0.693031 -32.5372)
(4.23492 -0.694367 -32.5477)
(4.23788 -0.695111 -32.5484)
(4.42511 -0.695195 -32.5513)
(4.44074 -0.695375 -32.5493)
(4.61193 -0.695634 -32.5503)
(4.63475 -0.694942 -32.5483)
(4.79815 -0.698168 -32.5487)
(4.80567 -0.692645 -32.5468)
(5.00668 -0.704977 -32.5469)
(4.91237 -0.694514 -32.5449)
(5.34578 -0.717823 -32.5249)
(2.97968 -0.103375 -32.3304)
(2.25592 0.458727 -32.3609)
(1.63468 0.612514 -32.3538)
(1.62374 0.669215 -32.3888)
(1.49861 0.688693 -32.411)
(1.65467 0.696754 -32.4491)
(1.64992 0.702005 -32.4617)
(1.82619 0.702715 -32.4808)
(1.8435 0.704784 -32.4808)
(2.00098 0.704201 -32.4884)
(2.0256 0.705306 -32.4845)
(2.16814 0.704475 -32.4882)
(2.1994 0.705145 -32.4844)
(2.32992 0.70457 -32.4868)
(2.3645 0.704684 -32.4835)
(2.4861 0.705285 -32.4851)
(2.51437 0.7019 -32.4824)
(2.63339 0.709828 -32.4834)
(2.6461 0.656756 -32.4806)
(2.59143 0.644432 -32.4737)
(4.37789 0.565487 0.00780809)
(3.24209 0.846498 0.00535032)
(2.58314 0.867393 0.0066334)
(2.15057 0.853184 0.00515612)
(2.16448 0.862256 0.00631524)
(2.13916 0.880341 0.00515251)
(2.29733 0.893021 0.00614065)
(2.34343 0.901148 0.00518218)
(2.49076 0.904188 0.00600217)
(2.54896 0.906272 0.00521155)
(2.67831 0.906326 0.00589525)
(2.74475 0.906929 0.00525909)
(2.86113 0.906635 0.00583055)
(2.93227 0.907134 0.00533447)
(3.03859 0.906334 0.00581137)
(3.11162 0.909461 0.00544443)
(3.20298 0.899048 0.00584212)
(3.31133 0.930031 0.00559486)
(3.27425 0.811375 0.00595816)
(3.86521 0.843012 0.0057246)
(4.8106 -0.100519 0.00523331)
(4.77979 -0.275906 0.00321191)
(4.79399 -0.481534 0.00452157)
(4.53524 -0.663644 0.00307343)
(4.54471 -0.779201 0.00423563)
(4.46842 -0.845348 0.00308489)
(4.60097 -0.87341 0.00407878)
(4.63325 -0.884442 0.00312413)
(4.78373 -0.886947 0.00394687)
(4.84298 -0.888372 0.00315697)
(4.97892 -0.888154 0.00384056)
(5.04809 -0.888777 0.00320439)
(5.17087 -0.888287 0.00377555)
(5.24501 -0.889095 0.00327945)
(5.3582 -0.888211 0.00375601)
(5.43276 -0.889585 0.00339008)
(5.53876 -0.889927 0.00378235)
(5.6055 -0.885251 0.00354501)
(5.7308 -0.900926 0.00384362)
(5.59245 -0.87043 0.00368317)
(4.68677 0.432743 0.00653227)
(4.99184 0.869832 0.00458453)
(5.40577 0.965085 0.00577518)
(5.44466 0.944578 0.00428396)
(5.60292 0.911745 0.00541521)
(5.59251 0.890627 0.00424451)
(5.73541 0.880709 0.00522752)
(5.7737 0.880002 0.00427478)
(5.91851 0.878895 0.00509559)
(5.97977 0.880493 0.00430716)
(6.11175 0.880034 0.00499199)
(6.18184 0.88077 0.00435647)
(6.30017 0.880402 0.00492854)
(6.37617 0.880688 0.00443197)
(6.48014 0.880193 0.00490992)
(6.56729 0.882708 0.00454129)
(6.6404 0.874508 0.00494208)
(6.77312 0.89495 0.00469187)
(6.76567 0.828676 0.0050527)
(7.02166 0.917917 0.00485405)
(4.62427 -0.202948 0.005354)
(4.86121 -0.396763 0.0036257)
(5.39638 -0.518131 0.00481883)
(5.59735 -0.638528 0.0033602)
(5.8885 -0.733331 0.00449954)
(5.95712 -0.802969 0.00333968)
(6.1293 -0.840808 0.00432824)
(6.17723 -0.86003 0.00336968)
(6.32041 -0.866344 0.00419362)
(6.3811 -0.86897 0.00340638)
(6.51035 -0.869023 0.00409222)
(6.57987 -0.869591 0.00345773)
(6.6968 -0.86939 0.00402995)
(6.77119 -0.869216 0.00353421)
(6.87762 -0.870912 0.00401109)
(6.95235 -0.865659 0.00364547)
(7.0569 -0.878687 0.00403778)
(7.10262 -0.851397 0.00379616)
(7.25903 -0.899353 0.00409094)
(7.10485 -0.878846 0.00394543)
(4.63764 0.33965 0.00600707)
(4.85419 0.686422 0.00431716)
(5.37122 0.801595 0.00546349)
(5.59829 0.840148 0.00399003)
(5.92607 0.851936 0.00511393)
(6.02526 0.858214 0.00394229)
(6.21734 0.860827 0.00492186)
(6.27743 0.864552 0.00396445)
(6.42577 0.865007 0.0047852)
(6.48938 0.865836 0.00399791)
(6.6194 0.864963 0.00468418)
(6.68957 0.865395 0.00405008)
(6.80603 0.864945 0.00462281)
(6.88066 0.86515 0.00412687)
(6.98596 0.865087 0.00460438)
(7.06173 0.86498 0.00423601)
(7.1611 0.863583 0.00463388)
(7.22474 0.865819 0.00438511)
(7.34922 0.852647 0.00472536)
(7.34586 0.926177 0.00454133)
(4.63193 -0.268927 0.00563614)
(4.82499 -0.537934 0.00401083)
(5.33624 -0.65229 0.00515571)
(5.56736 -0.728953 0.00368984)
(5.90965 -0.780848 0.00481337)
(6.02332 -0.819479 0.00364332)
(6.22665 -0.841043 0.00462458)
(6.29361 -0.854092 0.00366489)
(6.44578 -0.858794 0.00448703)
(6.51108 -0.861223 0.00370007)
(6.64159 -0.86109 0.00438654)
(6.71173 -0.861656 0.00375274)
(6.82831 -0.861418 0.00432538)
(6.90218 -0.861168 0.00382976)
(7.00954 -0.862636 0.00430671)
(7.07982 -0.858048 0.00394064)
(7.19247 -0.866959 0.00433465)
(7.22477 -0.848474 0.00408898)
(7.40114 -0.877317 0.00440202)
(7.27906 -0.904663 0.00423799)
(4.63193 0.268927 0.00563614)
(4.82499 0.537935 0.00401083)
(5.33624 0.652291 0.00515571)
(5.56736 0.728953 0.00368985)
(5.90965 0.780848 0.00481337)
(6.02332 0.819479 0.00364333)
(6.22665 0.841044 0.0046246)
(6.29361 0.854093 0.00366491)
(6.44578 0.858797 0.00448704)
(6.51109 0.861225 0.00370006)
(6.64159 0.861096 0.00438654)
(6.71174 0.86166 0.00375272)
(6.82829 0.861428 0.00432539)
(6.90223 0.861193 0.00382964)
(7.00945 0.86266 0.00430674)
(7.07999 0.858157 0.00394008)
(7.1923 0.867025 0.00433491)
(7.22524 0.848875 0.00408857)
(7.4011 0.877639 0.00440334)
(7.28006 0.905802 0.0042377)
(4.63764 -0.33965 0.00600708)
(4.85419 -0.686421 0.00431717)
(5.37122 -0.801594 0.00546349)
(5.59829 -0.840147 0.00399003)
(5.92607 -0.851935 0.00511394)
(6.02526 -0.858214 0.0039423)
(6.21734 -0.860826 0.00492186)
(6.27743 -0.86455 0.00396447)
(6.42577 -0.865004 0.00478518)
(6.48938 -0.865832 0.00399792)
(6.6194 -0.86496 0.00468419)
(6.68956 -0.865385 0.00405012)
(6.80605 -0.864944 0.0046228)
(6.88062 -0.865109 0.00412702)
(6.98606 -0.865092 0.00460429)
(7.06161 -0.864832 0.00423646)
(7.16132 -0.863585 0.00463347)
(7.2244 -0.865456 0.00438546)
(7.34949 -0.852417 0.0047239)
(7.34516 -0.925392 0.00454105)
(4.62427 0.202948 0.00535401)
(4.86121 0.396764 0.00362571)
(5.39638 0.518132 0.00481884)
(5.59735 0.638529 0.00336021)
(5.8885 0.733331 0.00449955)
(5.95712 0.802969 0.00333969)
(6.1293 0.840809 0.00432826)
(6.17723 0.860031 0.0033697)
(6.32041 0.866347 0.00419363)
(6.38111 0.86897 0.00340638)
(6.51035 0.869031 0.00409223)
(6.57988 0.869589 0.00345776)
(6.69677 0.869411 0.00402995)
(6.77126 0.869218 0.00353415)
(6.87754 0.870965 0.00401105)
(6.9526 0.865705 0.00364502)
(7.05673 0.878831 0.00403778)
(7.10335 0.851733 0.00379593)
(7.25898 0.899767 0.00409179)
(7.10678 0.880238 0.00394491)
(4.68677 -0.432742 0.00653228)
(4.99184 -0.869831 0.00458455)
(5.40577 -0.965085 0.0057752)
(5.44466 -0.944577 0.00428397)
(5.60292 -0.911745 0.00541522)
(5.59251 -0.890626 0.00424452)
(5.73541 -0.880709 0.00522752)
(5.7737 -0.880001 0.00427482)
(5.91852 -0.878893 0.00509559)
(5.97977 -0.880489 0.00430718)
(6.11175 -0.880034 0.00499199)
(6.18185 -0.88076 0.00435648)
(6.30018 -0.880408 0.00492852)
(6.37619 -0.880645 0.00443212)
(6.48017 -0.880222 0.00490976)
(6.56739 -0.882553 0.00454183)
(6.64044 -0.874592 0.00494133)
(6.77344 -0.89465 0.0046927)
(6.76579 -0.828694 0.0050504)
(7.02249 -0.917695 0.00485465)
(4.8106 0.100519 0.00523332)
(4.77979 0.275907 0.00321192)
(4.79399 0.481535 0.00452158)
(4.53524 0.663645 0.00307344)
(4.54471 0.779202 0.00423564)
(4.46842 0.845349 0.0030849)
(4.60097 0.873411 0.00407878)
(4.63325 0.884442 0.00312414)
(4.78373 0.886949 0.00394688)
(4.84299 0.88837 0.00315697)
(4.97892 0.888161 0.00384058)
(5.04812 0.888769 0.00320437)
(5.17085 0.888314 0.00377561)
(5.24511 0.889068 0.00327934)
(5.3581 0.888289 0.00375608)
(5.43321 0.889522 0.00338983)
(5.53834 0.890138 0.00378194)
(5.60719 0.885321 0.00354558)
(5.72955 0.901498 0.00384254)
(5.59853 0.871625 0.00368469)
(4.37789 -0.565488 0.00780812)
(3.24209 -0.846498 0.00535035)
(2.58314 -0.867393 0.00663343)
(2.15057 -0.853184 0.00515615)
(2.16448 -0.862255 0.00631526)
(2.13916 -0.880341 0.00515255)
(2.29733 -0.893021 0.00614069)
(2.34343 -0.901147 0.00518221)
(2.49076 -0.904188 0.00600218)
(2.54896 -0.906268 0.00521157)
(2.67831 -0.90633 0.00589529)
(2.74476 -0.906918 0.00525908)
(2.86113 -0.906653 0.00583063)
(2.93231 -0.907093 0.00533443)
(3.03861 -0.906396 0.00581143)
(3.11178 -0.909337 0.00544458)
(3.203 -0.899244 0.00584132)
(3.312 -0.929848 0.00559652)
(3.27401 -0.812097 0.00595364)
(3.86793 -0.844067 0.00573169)
(4.42852 0.0975159 0.00181818)
(4.13557 0.145632 0.00236971)
(3.72277 0.149539 0.0014144)
(3.44658 0.131956 0.00196207)
(3.31421 0.117931 0.00143417)
(3.33806 0.117683 0.0018486)
(3.41807 0.123851 0.00150336)
(3.53316 0.131085 0.00177365)
(3.64479 0.134969 0.00155364)
(3.75986 0.137012 0.00172681)
(3.86997 0.137397 0.00160436)
(3.98022 0.137638 0.00171467)
(4.08816 0.137567 0.00166495)
(4.19546 0.137474 0.00173734)
(4.29831 0.137414 0.00174253)
(4.41094 0.138293 0.00179441)
(4.48321 0.134464 0.00184609)
(4.65363 0.144322 0.00188585)
(4.59207 0.125437 0.00195543)
(4.94077 0.150742 0.00208966)
(4.59281 0.0869072 0.00360595)
(4.84765 0.117082 0.00433588)
(4.98734 0.105212 0.00337344)
(5.09531 0.0471483 0.00389306)
(5.15964 -0.0240382 0.00333645)
(5.25127 -0.0815375 0.0037375)
(5.34376 -0.114847 0.00338902)
(5.4577 -0.130514 0.00366273)
(5.57033 -0.13585 0.00344576)
(5.68988 -0.137531 0.00362083)
(5.80582 -0.137668 0.00349881)
(5.9231 -0.137697 0.00360981)
(6.03754 -0.137783 0.00355992)
(6.15215 -0.136918 0.00363234)
(6.26184 -0.139435 0.0036384)
(6.37974 -0.132434 0.00368869)
(6.46901 -0.146273 0.00374541)
(6.61741 -0.119041 0.00377913)
(6.63801 -0.152577 0.00389237)
(6.85959 -0.0919785 0.00402351)
(4.5662 0.0449368 0.00217505)
(4.82375 0.108431 0.00278851)
(5.05699 0.150206 0.00185806)
(5.29446 0.155091 0.00238406)
(5.454 0.144165 0.00183919)
(5.59559 0.137641 0.00224989)
(5.70728 0.136677 0.0019088)
(5.82824 0.138539 0.00218203)
(5.94301 0.139514 0.00196557)
(6.06432 0.140099 0.0021404)
(6.18086 0.140004 0.00201921)
(6.29935 0.13999 0.00213005)
(6.41349 0.139804 0.00208082)
(6.52957 0.140225 0.00215321)
(6.6391 0.138333 0.002159)
(6.75457 0.144001 0.00221228)
(6.85826 0.130535 0.00226107)
(6.97027 0.158574 0.00231374)
(7.07869 0.11791 0.00236089)
(7.16742 0.186709 0.00250865)
(4.56256 0.0431492 0.00319059)
(4.78658 0.0488732 0.00391364)
(5.01365 0.0392374 0.00300836)
(5.26572 0.00351544 0.0035376)
(5.45227 -0.0429505 0.00297404)
(5.62095 -0.085331 0.00336929)
(5.75222 -0.114004 0.0030161)
(5.88401 -0.12993 0.00328606)
(6.00305 -0.136833 0.00306948)
(6.12537 -0.139376 0.00324455)
(6.24184 -0.139993 0.00312401)
(6.35985 -0.139951 0.00323558)
(6.47425 -0.140323 0.00318642)
(6.58873 -0.138951 0.00325902)
(6.7017 -0.142187 0.00326489)
(6.80852 -0.134544 0.00331621)
(6.93038 -0.148404 0.00336909)
(7.00637 -0.1236 0.00341654)
(7.17728 -0.151909 0.00351966)
(7.17123 -0.106754 0.00363921)
(4.56406 0.0162834 0.00249196)
(4.78684 0.0543678 0.00316929)
(5.00531 0.0855448 0.00227288)
(5.25381 0.103155 0.00279416)
(5.44347 0.11372 0.00223171)
(5.61837 0.124053 0.00263016)
(5.75484 0.132477 0.0022803)
(5.89025 0.138189 0.00255064)
(6.01132 0.140535 0.00233342)
(6.13486 0.14133 0.0025089)
(6.25183 0.141275 0.0023885)
(6.37021 0.141132 0.00250006)
(6.48459 0.14107 0.00245124)
(6.59917 0.141016 0.00252383)
(6.71243 0.140462 0.00252971)
(6.81808 0.142541 0.0025834)
(6.94335 0.136832 0.00263179)
(7.01304 0.149873 0.00268878)
(7.1983 0.131194 0.00274602)
(7.18259 0.167557 0.00287529)
(4.56289 0.0115662 0.00282399)
(4.77886 -0.00451017 0.0035305)
(4.99504 -0.0242738 0.00264218)
(5.2419 -0.0503702 0.00316928)
(5.43305 -0.0782066 0.00260441)
(5.61147 -0.104187 0.00300026)
(5.75183 -0.122868 0.00264745)
(5.89003 -0.133993 0.00291703)
(6.01262 -0.138958 0.00269982)
(6.13672 -0.140796 0.002875)
(6.25385 -0.141187 0.00275486)
(6.37213 -0.141082 0.00286664)
(6.48666 -0.141303 0.00281768)
(6.60078 -0.140456 0.00289036)
(6.71496 -0.142029 0.0028961)
(6.81868 -0.138807 0.00294889)
(6.94753 -0.143519 0.00299883)
(7.01132 -0.136686 0.00305331)
(7.20543 -0.142229 0.00313439)
(7.17992 -0.137679 0.00324833)
(4.56289 -0.0115661 0.00282398)
(4.77886 0.00451077 0.0035305)
(4.99504 0.0242746 0.00264218)
(5.2419 0.0503709 0.00316928)
(5.43305 0.0782071 0.00260441)
(5.61147 0.104187 0.00300026)
(5.75183 0.122869 0.00264745)
(5.89003 0.133994 0.00291704)
(6.01262 0.138959 0.00269983)
(6.13672 0.140798 0.00287501)
(6.25385 0.141189 0.00275485)
(6.37214 0.141088 0.00286665)
(6.48665 0.141303 0.00281766)
(6.60079 0.140481 0.00289039)
(6.71495 0.142019 0.00289601)
(6.81871 0.138913 0.00294897)
(6.94751 0.143486 0.00299841)
(7.01138 0.137041 0.00305359)
(7.20548 0.142309 0.00313288)
(7.18008 0.138512 0.00324858)
(4.56406 -0.0162832 0.00249196)
(4.78684 -0.0543672 0.00316929)
(5.00531 -0.085544 0.00227288)
(5.25381 -0.103154 0.00279416)
(5.44347 -0.113719 0.00223171)
(5.61837 -0.124052 0.00263016)
(5.75484 -0.132476 0.00228031)
(5.89025 -0.138188 0.00255064)
(6.01132 -0.140534 0.00233342)
(6.13486 -0.141327 0.0025089)
(6.25183 -0.141274 0.00238851)
(6.3702 -0.141126 0.00250006)
(6.4846 -0.141073 0.00245126)
(6.59916 -0.140989 0.00252382)
(6.71247 -0.140476 0.00252975)
(6.81805 -0.142436 0.00258331)
(6.94342 -0.136876 0.00263211)
(7.01302 -0.149535 0.00268847)
(7.19838 -0.131144 0.00274727)
(7.18267 -0.166785 0.00287481)
(4.56256 -0.0431492 0.00319059)
(4.78658 -0.0488726 0.00391364)
(5.01365 -0.0392366 0.00300836)
(5.26572 -0.00351471 0.00353761)
(5.45227 0.042951 0.00297404)
(5.62095 0.0853315 0.00336929)
(5.75222 0.114005 0.0030161)
(5.88401 0.129931 0.00328607)
(6.00305 0.136835 0.00306947)
(6.12537 0.139377 0.00324456)
(6.24184 0.139996 0.00312401)
(6.35986 0.139954 0.00323563)
(6.47425 0.140326 0.00318639)
(6.58874 0.138969 0.00325905)
(6.70171 0.142184 0.00326476)
(6.80856 0.134637 0.00331627)
(6.93042 0.148374 0.0033686)
(7.0065 0.123944 0.00341681)
(7.17743 0.151969 0.00351798)
(7.17167 0.107616 0.00363929)
(4.5662 -0.0449367 0.00217505)
(4.82375 -0.10843 0.0027885)
(5.05699 -0.150205 0.00185806)
(5.29446 -0.15509 0.00238406)
(5.454 -0.144165 0.00183919)
(5.59559 -0.13764 0.00224989)
(5.70728 -0.136676 0.0019088)
(5.82824 -0.138538 0.00218203)
(5.94301 -0.139513 0.00196557)
(6.06432 -0.140097 0.00214039)
(6.18086 -0.140003 0.00201921)
(6.29935 -0.139985 0.00213002)
(6.4135 -0.139807 0.00208083)
(6.52958 -0.140203 0.0021532)
(6.63912 -0.138349 0.002159)
(6.75462 -0.143912 0.00221225)
(6.85827 -0.130592 0.00226111)
(6.97048 -0.158283 0.00231367)
(7.07873 -0.117931 0.00236132)
(7.16806 -0.186063 0.00250847)
(4.59281 -0.0869074 0.00360595)
(4.84766 -0.117081 0.00433587)
(4.98734 -0.105211 0.00337343)
(5.09531 -0.0471474 0.00389305)
(5.15964 0.0240391 0.00333644)
(5.25127 0.0815382 0.0037375)
(5.34376 0.114847 0.00338901)
(5.4577 0.130514 0.00366272)
(5.57033 0.135851 0.00344576)
(5.68988 0.137531 0.00362082)
(5.80582 0.137671 0.0034988)
(5.92312 0.137696 0.00360981)
(6.0375 0.137791 0.0035599)
(6.15225 0.13692 0.00363236)
(6.26167 0.139448 0.0036382)
(6.38017 0.132478 0.00368902)
(6.46848 0.146275 0.00374434)
(6.61862 0.119265 0.00378053)
(6.63705 0.152659 0.00388916)
(6.86248 0.0926749 0.00402621)
(4.42852 -0.0975166 0.00181818)
(4.13558 -0.145633 0.00236971)
(3.72277 -0.149539 0.0014144)
(3.44658 -0.131956 0.00196207)
(3.31421 -0.117931 0.00143416)
(3.33806 -0.117683 0.0018486)
(3.41807 -0.123851 0.00150336)
(3.53316 -0.131085 0.00177364)
(3.64479 -0.134969 0.00155363)
(3.75987 -0.137011 0.00172679)
(3.86996 -0.137399 0.00160437)
(3.98024 -0.137634 0.00171464)
(4.08813 -0.137571 0.00166498)
(4.19558 -0.137464 0.00173726)
(4.2981 -0.137427 0.00174255)
(4.41154 -0.138259 0.00179445)
(4.48232 -0.134512 0.00184552)
(4.6557 -0.144227 0.00188687)
(4.5896 -0.125526 0.00195323)
(4.94708 -0.150637 0.00209277)
(4.42852 0.097516 -0.00181788)
(4.13557 0.145633 -0.00236941)
(3.72277 0.149539 -0.0014141)
(3.44658 0.131956 -0.00196177)
(3.31421 0.117931 -0.00143387)
(3.33806 0.117684 -0.0018483)
(3.41807 0.123851 -0.00150306)
(3.53316 0.131086 -0.00177334)
(3.64479 0.134969 -0.00155333)
(3.75986 0.137012 -0.0017265)
(3.86997 0.137397 -0.00160407)
(3.98022 0.137638 -0.00171438)
(4.08816 0.137567 -0.00166466)
(4.19546 0.137474 -0.00173706)
(4.29831 0.137414 -0.00174226)
(4.41094 0.138293 -0.00179414)
(4.48321 0.134464 -0.00184583)
(4.65363 0.144322 -0.0018856)
(4.59207 0.125438 -0.00195519)
(4.94077 0.150742 -0.00208943)
(4.59281 0.0869073 -0.00360565)
(4.84765 0.117082 -0.00433557)
(4.98734 0.105212 -0.00337313)
(5.09531 0.0471481 -0.00389276)
(5.15964 -0.0240384 -0.00333614)
(5.25127 -0.0815376 -0.0037372)
(5.34376 -0.114847 -0.00338871)
(5.4577 -0.130514 -0.00366243)
(5.57033 -0.13585 -0.00344546)
(5.68988 -0.137531 -0.00362053)
(5.80582 -0.137668 -0.00349851)
(5.9231 -0.137697 -0.00360952)
(6.03754 -0.137783 -0.00355963)
(6.15215 -0.136918 -0.00363205)
(6.26184 -0.139435 -0.00363812)
(6.37974 -0.132435 -0.00368842)
(6.46901 -0.146273 -0.00374515)
(6.61741 -0.119041 -0.00377888)
(6.63801 -0.152577 -0.00389213)
(6.85959 -0.0919787 -0.00402328)
(4.5662 0.0449368 -0.00217475)
(4.82375 0.108431 -0.00278821)
(5.05699 0.150206 -0.00185776)
(5.29446 0.155091 -0.00238376)
(5.454 0.144165 -0.00183889)
(5.59559 0.137641 -0.00224959)
(5.70728 0.136677 -0.0019085)
(5.82824 0.138539 -0.00218174)
(5.94301 0.139514 -0.00196527)
(6.06432 0.140099 -0.00214011)
(6.18086 0.140004 -0.00201892)
(6.29935 0.13999 -0.00212976)
(6.41349 0.139804 -0.00208054)
(6.52957 0.140226 -0.00215293)
(6.6391 0.138334 -0.00215873)
(6.75457 0.144001 -0.00221201)
(6.85826 0.130535 -0.00226081)
(6.97027 0.158574 -0.00231349)
(7.07869 0.11791 -0.00236065)
(7.16742 0.186709 -0.00250842)
(4.56256 0.0431493 -0.00319029)
(4.78658 0.0488733 -0.00391334)
(5.01365 0.0392374 -0.00300806)
(5.26572 0.00351545 -0.00353731)
(5.45227 -0.0429503 -0.00297374)
(5.62095 -0.0853308 -0.00336899)
(5.75222 -0.114004 -0.0030158)
(5.88401 -0.12993 -0.00328577)
(6.00305 -0.136833 -0.00306918)
(6.12537 -0.139376 -0.00324426)
(6.24184 -0.139993 -0.00312372)
(6.35985 -0.139951 -0.0032353)
(6.47425 -0.140323 -0.00318614)
(6.58873 -0.138952 -0.00325874)
(6.7017 -0.142187 -0.00326462)
(6.80852 -0.134544 -0.00331594)
(6.93038 -0.148404 -0.00336883)
(7.00637 -0.1236 -0.00341629)
(7.17728 -0.151909 -0.00351942)
(7.17123 -0.106754 -0.00363897)
(4.56406 0.0162834 -0.00249166)
(4.78684 0.0543679 -0.00316899)
(5.00531 0.0855448 -0.00227258)
(5.25381 0.103155 -0.00279386)
(5.44347 0.11372 -0.00223141)
(5.61837 0.124053 -0.00262986)
(5.75484 0.132477 -0.00228001)
(5.89025 0.138189 -0.00255035)
(6.01132 0.140535 -0.00233312)
(6.13486 0.14133 -0.00250861)
(6.25183 0.141275 -0.00238821)
(6.37021 0.141132 -0.00249977)
(6.48459 0.141071 -0.00245096)
(6.59917 0.141017 -0.00252355)
(6.71243 0.140462 -0.00252943)
(6.81808 0.142541 -0.00258313)
(6.94335 0.136832 -0.00263153)
(7.01304 0.149873 -0.00268853)
(7.1983 0.131194 -0.00274578)
(7.18259 0.167557 -0.00287506)
(4.56289 0.0115662 -0.00282369)
(4.77886 -0.00451016 -0.0035302)
(4.99504 -0.0242738 -0.00264188)
(5.2419 -0.0503702 -0.00316898)
(5.43305 -0.0782064 -0.00260411)
(5.61147 -0.104187 -0.00299996)
(5.75183 -0.122868 -0.00264715)
(5.89003 -0.133993 -0.00291674)
(6.01262 -0.138958 -0.00269953)
(6.13672 -0.140796 -0.00287471)
(6.25385 -0.141188 -0.00275457)
(6.37213 -0.141082 -0.00286635)
(6.48666 -0.141303 -0.0028174)
(6.60078 -0.140456 -0.00289009)
(6.71496 -0.142029 -0.00289583)
(6.81868 -0.138807 -0.00294863)
(6.94753 -0.143519 -0.00299858)
(7.01132 -0.136686 -0.00305306)
(7.20543 -0.142229 -0.00313415)
(7.17992 -0.137679 -0.0032481)
(4.56289 -0.0115661 -0.00282369)
(4.77886 0.00451078 -0.0035302)
(4.99504 0.0242746 -0.00264188)
(5.2419 0.050371 -0.00316898)
(5.43305 0.0782074 -0.00260411)
(5.61147 0.104188 -0.00299996)
(5.75183 0.122869 -0.00264715)
(5.89003 0.133994 -0.00291673)
(6.01262 0.138959 -0.00269953)
(6.13672 0.140798 -0.00287472)
(6.25385 0.141189 -0.00275456)
(6.37214 0.141088 -0.00286636)
(6.48665 0.141303 -0.00281737)
(6.60079 0.140482 -0.00289011)
(6.71495 0.142019 -0.00289574)
(6.81871 0.138913 -0.00294871)
(6.94751 0.143486 -0.00299815)
(7.01138 0.137041 -0.00305334)
(7.20548 0.142309 -0.00313264)
(7.18008 0.138512 -0.00324834)
(4.56406 -0.0162832 -0.00249166)
(4.78684 -0.0543672 -0.00316899)
(5.00531 -0.085544 -0.00227258)
(5.25381 -0.103154 -0.00279386)
(5.44347 -0.113719 -0.00223141)
(5.61837 -0.124052 -0.00262986)
(5.75484 -0.132476 -0.00228)
(5.89025 -0.138189 -0.00255034)
(6.01132 -0.140534 -0.00233313)
(6.13486 -0.141328 -0.00250861)
(6.25183 -0.141274 -0.00238822)
(6.3702 -0.141126 -0.00249977)
(6.4846 -0.141073 -0.00245098)
(6.59916 -0.140989 -0.00252354)
(6.71247 -0.140476 -0.00252948)
(6.81805 -0.142436 -0.00258304)
(6.94342 -0.136876 -0.00263185)
(7.01302 -0.149535 -0.00268822)
(7.19838 -0.131144 -0.00274703)
(7.18267 -0.166785 -0.00287458)
(4.56256 -0.0431492 -0.00319029)
(4.78658 -0.0488727 -0.00391334)
(5.01365 -0.0392366 -0.00300806)
(5.26572 -0.00351463 -0.00353731)
(5.45227 0.0429513 -0.00297374)
(5.62095 0.0853318 -0.00336899)
(5.75222 0.114005 -0.0030158)
(5.88401 0.129931 -0.00328576)
(6.00305 0.136835 -0.00306918)
(6.12537 0.139377 -0.00324427)
(6.24184 0.139996 -0.00312372)
(6.35986 0.139954 -0.00323534)
(6.47425 0.140326 -0.00318611)
(6.58874 0.138969 -0.00325877)
(6.70171 0.142184 -0.00326449)
(6.80856 0.134637 -0.00331601)
(6.93042 0.148374 -0.00336834)
(7.0065 0.123944 -0.00341656)
(7.17743 0.151969 -0.00351775)
(7.17167 0.107616 -0.00363906)
(4.5662 -0.0449367 -0.00217475)
(4.82375 -0.10843 -0.00278821)
(5.05699 -0.150205 -0.00185776)
(5.29447 -0.15509 -0.00238376)
(5.454 -0.144165 -0.00183889)
(5.59559 -0.13764 -0.00224959)
(5.70728 -0.136676 -0.0019085)
(5.82824 -0.138538 -0.00218173)
(5.94301 -0.139513 -0.00196528)
(6.06432 -0.140097 -0.0021401)
(6.18086 -0.140004 -0.00201892)
(6.29935 -0.139985 -0.00212973)
(6.4135 -0.139807 -0.00208055)
(6.52958 -0.140203 -0.00215293)
(6.63911 -0.138349 -0.00215873)
(6.75462 -0.143912 -0.00221199)
(6.85827 -0.130592 -0.00226086)
(6.97048 -0.158283 -0.00231342)
(7.07873 -0.117931 -0.00236108)
(7.16806 -0.186063 -0.00250824)
(4.59281 -0.0869074 -0.00360565)
(4.84766 -0.117081 -0.00433558)
(4.98734 -0.105211 -0.00337314)
(5.09531 -0.0471475 -0.00389276)
(5.15964 0.024039 -0.00333615)
(5.25127 0.0815383 -0.0037372)
(5.34376 0.114848 -0.00338872)
(5.4577 0.130515 -0.00366243)
(5.57033 0.135852 -0.00344547)
(5.68988 0.137531 -0.00362053)
(5.80582 0.137671 -0.00349851)
(5.92312 0.137696 -0.00360952)
(6.0375 0.137791 -0.00355962)
(6.15225 0.13692 -0.00363209)
(6.26167 0.139448 -0.00363793)
(6.38017 0.132478 -0.00368876)
(6.46848 0.146275 -0.00374409)
(6.61862 0.119265 -0.00378029)
(6.63705 0.152659 -0.00388893)
(6.86248 0.0926751 -0.00402598)
(4.42852 -0.0975166 -0.00181789)
(4.13558 -0.145633 -0.00236941)
(3.72277 -0.149539 -0.0014141)
(3.44658 -0.131956 -0.00196177)
(3.31421 -0.117931 -0.00143387)
(3.33806 -0.117683 -0.0018483)
(3.41807 -0.123851 -0.00150306)
(3.53316 -0.131085 -0.00177335)
(3.64479 -0.134969 -0.00155335)
(3.75987 -0.137011 -0.00172651)
(3.86996 -0.137399 -0.00160408)
(3.98024 -0.137634 -0.00171435)
(4.08813 -0.137572 -0.0016647)
(4.19558 -0.137465 -0.00173699)
(4.2981 -0.137427 -0.00174228)
(4.41154 -0.138259 -0.00179419)
(4.48232 -0.134512 -0.00184527)
(4.6557 -0.144227 -0.00188662)
(4.5896 -0.125526 -0.001953)
(4.94708 -0.150637 -0.00209255)
(4.37789 0.565487 -0.00780793)
(3.24209 0.846498 -0.00535015)
(2.58314 0.867393 -0.00663323)
(2.15057 0.853184 -0.00515594)
(2.16449 0.862255 -0.00631506)
(2.13916 0.880341 -0.00515234)
(2.29733 0.893021 -0.00614047)
(2.34343 0.901149 -0.00518199)
(2.49076 0.904188 -0.00600195)
(2.54896 0.906272 -0.00521135)
(2.67831 0.906326 -0.00589506)
(2.74475 0.906929 -0.00525889)
(2.86113 0.906635 -0.00583036)
(2.93227 0.907134 -0.00533427)