/*--------------------------------*- C++ -*----------------------------------*\
  =========                 |
  \\      /  F ield         | OpenFOAM: The Open Source CFD Toolbox
   \\    /   O peration     | Website:  https://openfoam.org
    \\  /    A nd           | Version:  7
     \\/     M anipulation  |
\*---------------------------------------------------------------------------*/
FoamFile
{
    version     2.0;
    format      ascii;
    class       surfaceScalarField;
    location    "0.1475";
    object      phi_0;
}
// * * * * * * * * * * * * * * * * * * * * * * * * * * * * * * * * * * * * * //

dimensions      [1 0 -1 0 0 0 0];

internalField   nonuniform List<scalar> 
2748
(
1.07456e-05
5.1851e-08
1.06019e-05
1.43672e-07
1.03808e-05
2.21103e-07
1.00964e-05
2.84411e-07
9.76315e-06
3.33279e-07
9.39601e-06
3.67145e-07
9.00896e-06
3.87044e-07
8.61399e-06
3.9497e-07
8.22036e-06
3.93635e-07
7.8353e-06
3.8506e-07
7.46406e-06
3.71238e-07
7.10998e-06
3.5408e-07
6.77579e-06
3.34191e-07
6.46332e-06
3.12467e-07
6.17291e-06
2.90409e-07
5.90458e-06
2.68335e-07
5.65793e-06
2.46647e-07
5.43225e-06
2.25679e-07
5.22658e-06
2.05671e-07
5.03979e-06
1.86791e-07
4.87066e-06
1.69134e-07
4.7179e-06
1.52758e-07
4.58023e-06
1.37672e-07
4.45636e-06
1.23865e-07
4.34506e-06
1.113e-07
4.24514e-06
9.99248e-08
4.15546e-06
8.96753e-08
4.07498e-06
8.04793e-08
4.00272e-06
7.22601e-08
3.93778e-06
6.49391e-08
3.87934e-06
5.84378e-08
3.82667e-06
5.26798e-08
3.77907e-06
4.75919e-08
3.73597e-06
4.31051e-08
3.69681e-06
3.91551e-08
3.66113e-06
3.56822e-08
3.6285e-06
3.26321e-08
3.59854e-06
2.99552e-08
3.57094e-06
2.76069e-08
3.54539e-06
2.55471e-08
3.52165e-06
2.37401e-08
3.4995e-06
2.21543e-08
3.47873e-06
2.07615e-08
3.4592e-06
1.95371e-08
3.44074e-06
1.84596e-08
3.42323e-06
1.75105e-08
3.40655e-06
1.66744e-08
3.39062e-06
1.59371e-08
3.37533e-06
1.52856e-08
3.36062e-06
1.47079e-08
3.34643e-06
1.41936e-08
3.33269e-06
1.37339e-08
3.31937e-06
1.33212e-08
3.30642e-06
1.29489e-08
3.29381e-06
1.26113e-08
3.28151e-06
1.23035e-08
3.26949e-06
1.20209e-08
3.25773e-06
1.176e-08
3.24621e-06
1.15173e-08
3.23492e-06
1.12904e-08
3.22384e-06
1.10771e-08
3.21297e-06
1.08755e-08
3.20228e-06
1.0684e-08
3.19178e-06
1.05014e-08
3.18146e-06
1.03264e-08
3.1713e-06
1.01582e-08
3.1613e-06
9.99582e-09
3.15146e-06
9.83863e-09
3.14178e-06
9.68599e-09
3.13224e-06
9.53735e-09
3.12285e-06
9.39228e-09
3.1136e-06
9.2504e-09
3.10449e-06
9.11145e-09
3.09551e-06
8.97516e-09
3.08667e-06
8.84132e-09
3.07796e-06
8.70968e-09
3.06938e-06
8.58012e-09
3.06093e-06
8.45249e-09
3.0526e-06
8.32683e-09
3.0444e-06
8.20309e-09
3.03632e-06
8.08132e-09
3.02835e-06
7.96135e-09
3.02051e-06
7.8431e-09
3.01279e-06
7.72638e-09
3.00517e-06
7.61128e-09
2.99768e-06
7.49785e-09
2.99029e-06
7.38632e-09
2.98301e-06
7.27666e-09
2.97584e-06
7.16883e-09
2.96878e-06
7.06247e-09
2.96182e-06
6.95746e-09
2.95497e-06
6.85371e-09
2.94822e-06
6.75158e-09
2.94157e-06
6.65131e-09
2.93501e-06
6.55314e-09
2.92856e-06
6.4569e-09
2.9222e-06
6.36215e-09
2.91593e-06
6.26849e-09
2.90975e-06
6.17539e-09
2.90367e-06
6.08341e-09
2.89768e-06
5.99223e-09
2.89177e-06
5.90369e-09
2.88596e-06
5.81628e-09
2.88022e-06
5.73296e-09
2.87457e-06
5.64873e-09
2.86901e-06
5.56951e-09
2.86352e-06
5.48401e-09
2.85811e-06
5.40665e-09
2.8528e-06
5.31377e-09
2.84756e-06
5.23938e-09
2.84243e-06
5.13224e-09
2.83736e-06
5.06798e-09
2.83243e-06
4.93453e-09
2.82753e-06
4.89434e-09
2.82282e-06
4.70842e-09
2.81811e-06
4.71439e-09
2.81368e-06
4.43079e-09
2.80915e-06
4.52937e-09
2.80502e-06
4.1297e-09
4.51222e-09
1.08174e-05
3.17212e-08
1.08654e-05
9.57137e-08
1.09322e-05
1.54293e-07
1.10102e-05
2.06412e-07
1.10909e-05
2.52553e-07
1.11661e-05
2.91917e-07
1.12298e-05
3.23413e-07
1.12781e-05
3.46604e-07
1.13098e-05
3.61962e-07
1.13245e-05
3.70337e-07
1.13231e-05
3.72677e-07
1.13072e-05
3.70004e-07
1.12782e-05
3.63129e-07
1.12378e-05
3.52884e-07
1.11881e-05
3.40162e-07
1.11307e-05
3.25644e-07
1.10675e-05
3.09914e-07
1.09997e-05
2.93479e-07
1.09286e-05
2.76772e-07
1.08552e-05
2.60147e-07
1.07805e-05
2.43876e-07
1.07051e-05
2.28176e-07
1.06295e-05
2.13191e-07
1.05544e-05
1.99026e-07
1.04799e-05
1.85748e-07
1.04065e-05
1.73388e-07
1.03342e-05
1.61954e-07
1.02632e-05
1.51432e-07
1.01937e-05
1.4179e-07
1.01257e-05
1.32987e-07
1.00591e-05
1.24972e-07
9.99412e-06
1.1769e-07
9.93062e-06
1.11085e-07
9.86863e-06
1.05098e-07
9.80811e-06
9.96735e-08
9.74904e-06
9.47579e-08
9.69137e-06
9.02997e-08
9.63507e-06
8.62514e-08
9.58011e-06
8.25689e-08
9.52645e-06
7.92121e-08
9.47404e-06
7.61445e-08
9.42286e-06
7.33332e-08
9.37287e-06
7.0749e-08
9.32405e-06
6.83652e-08
9.27635e-06
6.61592e-08
9.22974e-06
6.41127e-08
9.18421e-06
6.22125e-08
9.1397e-06
6.04424e-08
9.0962e-06
5.87872e-08
9.05367e-06
5.72333e-08
9.0121e-06
5.57692e-08
8.97145e-06
5.43851e-08
8.9317e-06
5.30722e-08
8.89282e-06
5.18229e-08
8.8548e-06
5.06309e-08
8.81762e-06
4.949e-08
8.78124e-06
4.83953e-08
8.74566e-06
4.73421e-08
8.71085e-06
4.63265e-08
8.6768e-06
4.53454e-08
8.64348e-06
4.43962e-08
8.61088e-06
4.34766e-08
8.57898e-06
4.25845e-08
8.54776e-06
4.17183e-08
8.51721e-06
4.08765e-08
8.48731e-06
4.00576e-08
8.45804e-06
3.92606e-08
8.4294e-06
3.84845e-08
8.40136e-06
3.77284e-08
8.3739e-06
3.69912e-08
8.34702e-06
3.62724e-08
8.3207e-06
3.55711e-08
8.29493e-06
3.48869e-08
8.26968e-06
3.42191e-08
8.24496e-06
3.35673e-08
8.22073e-06
3.29309e-08
8.19701e-06
3.23095e-08
8.17375e-06
3.17028e-08
8.15097e-06
3.11104e-08
8.12864e-06
3.05321e-08
8.10676e-06
2.99676e-08
8.0853e-06
2.94164e-08
8.06427e-06
2.88784e-08
8.04364e-06
2.8353e-08
8.02341e-06
2.78402e-08
8.00357e-06
2.73395e-08
7.9841e-06
2.6851e-08
7.96501e-06
2.63743e-08
7.94627e-06
2.59093e-08
7.92787e-06
2.54553e-08
7.90982e-06
2.50122e-08
7.89209e-06
2.45793e-08
7.87469e-06
2.4157e-08
7.85759e-06
2.37448e-08
7.8408e-06
2.33431e-08
7.82431e-06
2.2951e-08
7.8081e-06
2.25685e-08
7.79218e-06
2.21945e-08
7.77652e-06
2.18291e-08
7.76114e-06
2.14713e-08
7.74601e-06
2.11221e-08
7.73113e-06
2.07807e-08
7.7165e-06
2.04482e-08
7.70211e-06
2.01232e-08
7.68795e-06
1.98063e-08
7.67402e-06
1.94947e-08
7.66032e-06
1.91894e-08
7.64684e-06
1.88865e-08
7.63356e-06
1.85887e-08
7.62051e-06
1.82899e-08
7.60765e-06
1.79975e-08
7.59502e-06
1.76977e-08
7.58254e-06
1.74095e-08
7.57034e-06
1.7097e-08
7.55824e-06
1.68108e-08
7.5465e-06
1.64528e-08
7.53476e-06
1.61674e-08
7.52361e-06
1.56847e-08
7.51229e-06
1.54485e-08
1.49063e-08
1.08062e-05
2.26746e-08
1.08337e-05
6.82548e-08
1.08773e-05
1.10676e-07
1.09352e-05
1.48514e-07
1.10062e-05
1.81578e-07
1.10883e-05
2.09766e-07
1.1179e-05
2.32754e-07
1.12752e-05
2.50358e-07
1.13744e-05
2.62808e-07
1.1474e-05
2.70671e-07
1.15722e-05
2.74551e-07
1.16671e-05
2.75029e-07
1.17576e-05
2.72657e-07
1.18426e-05
2.67856e-07
1.19218e-05
2.6105e-07
1.19947e-05
2.52696e-07
1.20614e-05
2.4321e-07
1.21219e-05
2.32958e-07
1.21764e-05
2.22273e-07
1.22252e-05
2.11419e-07
1.22684e-05
2.0061e-07
1.23066e-05
1.90016e-07
1.234e-05
1.79769e-07
1.23691e-05
1.69966e-07
1.23941e-05
1.60678e-07
1.24156e-05
1.51951e-07
1.24337e-05
1.43811e-07
1.24489e-05
1.36267e-07
1.24614e-05
1.29311e-07
1.24714e-05
1.22925e-07
1.24793e-05
1.17084e-07
1.24852e-05
1.11756e-07
1.24894e-05
1.06907e-07
1.2492e-05
1.025e-07
1.24932e-05
9.84994e-08
1.24931e-05
9.48678e-08
1.24918e-05
9.15705e-08
1.24895e-05
8.85738e-08
1.24862e-05
8.58468e-08
1.24821e-05
8.33603e-08
1.24771e-05
8.1088e-08
1.24714e-05
7.90056e-08
1.24651e-05
7.70917e-08
1.24581e-05
7.53264e-08
1.24506e-05
7.36902e-08
1.24426e-05
7.21671e-08
1.2434e-05
7.07583e-08
1.2425e-05
6.94464e-08
1.24156e-05
6.82194e-08
1.24057e-05
6.70667e-08
1.23955e-05
6.59794e-08
1.2385e-05
6.49491e-08
1.23741e-05
6.39689e-08
1.23629e-05
6.30325e-08
1.23514e-05
6.21349e-08
1.23396e-05
6.12714e-08
1.23275e-05
6.04375e-08
1.23153e-05
5.96285e-08
1.23027e-05
5.88419e-08
1.229e-05
5.80754e-08
1.22771e-05
5.73274e-08
1.2264e-05
5.65959e-08
1.22507e-05
5.58798e-08
1.22372e-05
5.51776e-08
1.22236e-05
5.44885e-08
1.22098e-05
5.38115e-08
1.21959e-05
5.31462e-08
1.21819e-05
5.24917e-08
1.21678e-05
5.18476e-08
1.21536e-05
5.1213e-08
1.21393e-05
5.05879e-08
1.21249e-05
4.99715e-08
1.21104e-05
4.93637e-08
1.20959e-05
4.87642e-08
1.20813e-05
4.81728e-08
1.20666e-05
4.75891e-08
1.20519e-05
4.70134e-08
1.20372e-05
4.6445e-08
1.20224e-05
4.58844e-08
1.20076e-05
4.5331e-08
1.19928e-05
4.47853e-08
1.19779e-05
4.42467e-08
1.19631e-05
4.37156e-08
1.19483e-05
4.31913e-08
1.19334e-05
4.26744e-08
1.19186e-05
4.21643e-08
1.19038e-05
4.16616e-08
1.1889e-05
4.11656e-08
1.18742e-05
4.06769e-08
1.18595e-05
4.01947e-08
1.18448e-05
3.97194e-08
1.18301e-05
3.92503e-08
1.18155e-05
3.87881e-08
1.18009e-05
3.83319e-08
1.17864e-05
3.78829e-08
1.17719e-05
3.74397e-08
1.17574e-05
3.70035e-08
1.17431e-05
3.6572e-08
1.17287e-05
3.61472e-08
1.17145e-05
3.57262e-08
1.17003e-05
3.53127e-08
1.16862e-05
3.4902e-08
1.16721e-05
3.45009e-08
1.16581e-05
3.40998e-08
1.16442e-05
3.37111e-08
1.16304e-05
3.33156e-08
1.16167e-05
3.29384e-08
1.1603e-05
3.25408e-08
1.15894e-05
3.21769e-08
1.15759e-05
3.17656e-08
1.15625e-05
3.14237e-08
1.15492e-05
3.09788e-08
1.1536e-05
3.06795e-08
1.15229e-05
3.01584e-08
1.15098e-05
2.99427e-08
1.1497e-05
2.92549e-08
1.14839e-05
2.91973e-08
1.14715e-05
2.81339e-08
1.14587e-05
2.82745e-08
2.65644e-08
1.08051e-05
1.47121e-08
1.08294e-05
4.39246e-08
1.08684e-05
7.16408e-08
1.09203e-05
9.66298e-08
1.09834e-05
1.18459e-07
1.10562e-05
1.37035e-07
1.11366e-05
1.5227e-07
1.12229e-05
1.64087e-07
1.13131e-05
1.72572e-07
1.14058e-05
1.78037e-07
1.14995e-05
1.80859e-07
1.15931e-05
1.81425e-07
1.16856e-05
1.80089e-07
1.17764e-05
1.77144e-07
1.18645e-05
1.7288e-07
1.19496e-05
1.67601e-07
1.20313e-05
1.61578e-07
1.21092e-05
1.55021e-07
1.21832e-05
1.48227e-07
1.22533e-05
1.41342e-07
1.23194e-05
1.34496e-07
1.23817e-05
1.2779e-07
1.24401e-05
1.21296e-07
1.2495e-05
1.1507e-07
1.25465e-05
1.09155e-07
1.25949e-05
1.03586e-07
1.26403e-05
9.83807e-08
1.26831e-05
9.35462e-08
1.27233e-05
8.90795e-08
1.27612e-05
8.49704e-08
1.27971e-05
8.12045e-08
1.28311e-05
7.77634e-08
1.28634e-05
7.4627e-08
1.28941e-05
7.17732e-08
1.29234e-05
6.91798e-08
1.29515e-05
6.68246e-08
1.29784e-05
6.46862e-08
1.30042e-05
6.27438e-08
1.30291e-05
6.09782e-08
1.30531e-05
5.93711e-08
1.30762e-05
5.79062e-08
1.30987e-05
5.65682e-08
1.31204e-05
5.53435e-08
1.31415e-05
5.42195e-08
1.3162e-05
5.31851e-08
1.3182e-05
5.22321e-08
1.32014e-05
5.13553e-08
1.32203e-05
5.05466e-08
1.32387e-05
4.97978e-08
1.32567e-05
4.91014e-08
1.32742e-05
4.84513e-08
1.32913e-05
4.78416e-08
1.3308e-05
4.72676e-08
1.33243e-05
4.67249e-08
1.33402e-05
4.621e-08
1.33558e-05
4.57203e-08
1.3371e-05
4.52527e-08
1.33858e-05
4.48006e-08
1.34003e-05
4.43636e-08
1.34144e-05
4.39402e-08
1.34282e-05
4.35289e-08
1.34417e-05
4.31284e-08
1.34548e-05
4.27379e-08
1.34676e-05
4.23561e-08
1.34801e-05
4.19825e-08
1.34923e-05
4.16165e-08
1.35042e-05
4.12579e-08
1.35158e-05
4.09059e-08
1.35271e-05
4.05601e-08
1.35381e-05
4.02199e-08
1.35488e-05
3.9885e-08
1.35592e-05
3.95548e-08
1.35694e-05
3.92293e-08
1.35792e-05
3.89079e-08
1.35888e-05
3.85908e-08
1.35981e-05
3.82775e-08
1.36071e-05
3.79682e-08
1.36159e-05
3.76625e-08
1.36245e-05
3.73606e-08
1.36327e-05
3.7062e-08
1.36407e-05
3.67673e-08
1.36485e-05
3.64758e-08
1.3656e-05
3.6188e-08
1.36633e-05
3.59034e-08
1.36704e-05
3.56224e-08
1.36772e-05
3.53444e-08
1.36838e-05
3.50699e-08
1.36902e-05
3.47985e-08
1.36963e-05
3.45307e-08
1.37022e-05
3.42657e-08
1.37079e-05
3.40041e-08
1.37135e-05
3.3745e-08
1.37187e-05
3.34893e-08
1.37238e-05
3.32361e-08
1.37287e-05
3.29863e-08
1.37334e-05
3.27388e-08
1.3738e-05
3.24947e-08
1.37423e-05
3.22519e-08
1.37464e-05
3.20127e-08
1.37504e-05
3.17739e-08
1.37541e-05
3.15394e-08
1.37577e-05
3.1304e-08
1.37612e-05
3.10749e-08
1.37644e-05
3.08417e-08
1.37675e-05
3.06184e-08
1.37704e-05
3.03836e-08
1.37732e-05
3.01665e-08
1.37758e-05
2.99229e-08
1.37783e-05
2.97149e-08
1.37806e-05
2.94513e-08
1.37828e-05
2.92623e-08
1.37848e-05
2.89584e-08
1.37867e-05
2.88105e-08
1.37884e-05
2.8426e-08
1.379e-05
2.83589e-08
1.37914e-05
2.78095e-08
1.37927e-05
2.78846e-08
1.37939e-05
2.70042e-08
1.37948e-05
2.73186e-08
2.56619e-08
1.08045e-05
7.24114e-09
1.08269e-05
2.15824e-08
1.08632e-05
3.52943e-08
1.09121e-05
4.776e-08
1.09719e-05
5.86731e-08
1.10409e-05
6.79571e-08
1.11176e-05
7.56117e-08
1.12001e-05
8.1621e-08
1.12866e-05
8.59998e-08
1.13758e-05
8.88779e-08
1.14662e-05
9.04337e-08
1.15568e-05
9.08595e-08
1.16465e-05
9.03317e-08
1.17347e-05
8.90074e-08
1.18205e-05
8.70309e-08
1.19036e-05
8.45412e-08
1.19835e-05
8.16906e-08
1.20599e-05
7.86032e-08
1.21327e-05
7.53928e-08
1.22019e-05
7.21384e-08
1.22675e-05
6.89017e-08
1.23296e-05
6.57497e-08
1.23882e-05
6.26793e-08
1.24435e-05
5.9708e-08
1.24958e-05
5.68626e-08
1.25453e-05
5.41701e-08
1.2592e-05
5.16394e-08
1.26363e-05
4.92731e-08
1.26783e-05
4.7071e-08
1.27182e-05
4.50307e-08
1.27563e-05
4.31475e-08
1.27926e-05
4.14145e-08
1.28274e-05
3.98234e-08
1.28608e-05
3.83649e-08
1.2893e-05
3.70294e-08
1.2924e-05
3.58074e-08
1.2954e-05
3.46893e-08
1.29831e-05
3.3666e-08
1.30113e-05
3.27289e-08
1.30388e-05
3.18698e-08
1.30657e-05
3.10815e-08
1.30919e-05
3.03574e-08
1.31175e-05
2.96916e-08
1.31427e-05
2.9079e-08
1.31673e-05
2.8515e-08
1.31916e-05
2.79955e-08
1.32154e-05
2.75174e-08
1.32389e-05
2.70776e-08
1.3262e-05
2.66724e-08
1.32848e-05
2.6298e-08
1.33073e-05
2.59509e-08
1.33295e-05
2.56281e-08
1.33515e-05
2.53268e-08
1.33731e-05
2.50447e-08
1.33946e-05
2.47795e-08
1.34158e-05
2.45294e-08
1.34367e-05
2.42921e-08
1.34575e-05
2.40647e-08
1.3478e-05
2.38463e-08
1.34983e-05
2.3636e-08
1.35184e-05
2.34329e-08
1.35383e-05
2.32363e-08
1.3558e-05
2.30455e-08
1.35774e-05
2.28598e-08
1.35968e-05
2.26785e-08
1.36159e-05
2.25013e-08
1.36348e-05
2.23288e-08
1.36535e-05
2.21603e-08
1.36721e-05
2.19954e-08
1.36905e-05
2.18336e-08
1.37087e-05
2.16747e-08
1.37267e-05
2.15184e-08
1.37446e-05
2.13644e-08
1.37623e-05
2.12125e-08
1.37798e-05
2.10627e-08
1.37972e-05
2.09148e-08
1.38144e-05
2.07687e-08
1.38314e-05
2.06244e-08
1.38483e-05
2.04818e-08
1.3865e-05
2.03409e-08
1.38816e-05
2.02018e-08
1.3898e-05
2.00642e-08
1.39143e-05
1.99284e-08
1.39304e-05
1.97942e-08
1.39463e-05
1.96616e-08
1.39621e-05
1.95305e-08
1.39778e-05
1.94011e-08
1.39933e-05
1.92733e-08
1.40087e-05
1.91471e-08
1.4024e-05
1.90224e-08
1.40391e-05
1.88991e-08
1.4054e-05
1.87773e-08
1.40689e-05
1.86569e-08
1.40836e-05
1.85378e-08
1.40981e-05
1.84201e-08
1.41126e-05
1.83036e-08
1.41269e-05
1.81885e-08
1.41411e-05
1.8074e-08
1.41551e-05
1.7961e-08
1.4169e-05
1.7848e-08
1.41828e-05
1.77368e-08
1.41965e-05
1.76248e-08
1.42101e-05
1.75154e-08
1.42235e-05
1.74037e-08
1.42368e-05
1.72962e-08
1.425e-05
1.71823e-08
1.42631e-05
1.70763e-08
1.42761e-05
1.69564e-08
1.4289e-05
1.68526e-08
1.43017e-05
1.67208e-08
1.43143e-05
1.66237e-08
1.43268e-05
1.64709e-08
1.43392e-05
1.63901e-08
1.43515e-05
1.61986e-08
1.43637e-05
1.61503e-08
1.43756e-05
1.58835e-08
1.43876e-05
1.58862e-08
1.43991e-05
1.54591e-08
1.4411e-05
1.54935e-08
1.47624e-08
1.08042e-05
5.99546e-11
1.08256e-05
1.79196e-10
1.08606e-05
2.94619e-10
1.0908e-05
4.02755e-10
1.09661e-05
5.02531e-10
1.10335e-05
5.969e-10
1.11084e-05
6.91717e-10
1.11892e-05
7.9321e-10
1.12743e-05
9.06534e-10
1.13622e-05
1.03491e-09
1.14514e-05
1.17837e-09
1.1541e-05
1.3386e-09
1.16298e-05
1.51773e-09
1.17171e-05
1.71283e-09
1.18022e-05
1.92183e-09
1.18846e-05
2.14513e-09
1.19639e-05
2.39519e-09
1.20398e-05
2.67084e-09
1.21122e-05
2.95409e-09
1.21811e-05
3.25072e-09
1.22465e-05
3.55497e-09
1.23084e-05
3.85448e-09
1.23669e-05
4.13041e-09
1.24223e-05
4.36829e-09
1.24746e-05
4.55329e-09
1.2524e-05
4.72657e-09
1.25708e-05
4.87358e-09
1.26151e-05
4.98818e-09
1.26571e-05
5.07005e-09
1.2697e-05
5.12068e-09
1.2735e-05
5.14216e-09
1.27712e-05
5.13694e-09
1.2806e-05
5.10777e-09
1.28393e-05
5.05771e-09
1.28713e-05
4.98993e-09
1.29022e-05
4.90752e-09
1.29321e-05
4.8133e-09
1.2961e-05
4.70985e-09
1.29892e-05
4.59946e-09
1.30166e-05
4.48438e-09
1.30433e-05
4.36698e-09
1.30694e-05
4.24969e-09
1.30949e-05
4.13468e-09
1.312e-05
4.02371e-09
1.31446e-05
3.9182e-09
1.31688e-05
3.81934e-09
1.31926e-05
3.72826e-09
1.3216e-05
3.64584e-09
1.32391e-05
3.57235e-09
1.32619e-05
3.5075e-09
1.32844e-05
3.4507e-09
1.33066e-05
3.40132e-09
1.33286e-05
3.35874e-09
1.33503e-05
3.32226e-09
1.33718e-05
3.29105e-09
1.3393e-05
3.26444e-09
1.34141e-05
3.24174e-09
1.34349e-05
3.22222e-09
1.34556e-05
3.20525e-09
1.3476e-05
3.19038e-09
1.34963e-05
3.17729e-09
1.35164e-05
3.16565e-09
1.35362e-05
3.15517e-09
1.3556e-05
3.14561e-09
1.35755e-05
3.13679e-09
1.35949e-05
3.12875e-09
1.36141e-05
3.12166e-09
1.36331e-05
3.11535e-09
1.3652e-05
3.10958e-09
1.36707e-05
3.10409e-09
1.36893e-05
3.09865e-09
1.37077e-05
3.09309e-09
1.3726e-05
3.08728e-09
1.37441e-05
3.08112e-09
1.37621e-05
3.07457e-09
1.378e-05
3.06759e-09
1.37977e-05
3.06015e-09
1.38153e-05
3.05225e-09
1.38327e-05
3.04388e-09
1.385e-05
3.03507e-09
1.38672e-05
3.02583e-09
1.38842e-05
3.01618e-09
1.39012e-05
3.00613e-09
1.3918e-05
2.99568e-09
1.39346e-05
2.98486e-09
1.39512e-05
2.97368e-09
1.39676e-05
2.96215e-09
1.39839e-05
2.95029e-09
1.40002e-05
2.93811e-09
1.40163e-05
2.92559e-09
1.40322e-05
2.91273e-09
1.40481e-05
2.89949e-09
1.40639e-05
2.88587e-09
1.40796e-05
2.87185e-09
1.40951e-05
2.85744e-09
1.41106e-05
2.84258e-09
1.41259e-05
2.82725e-09
1.41412e-05
2.81132e-09
1.41564e-05
2.79476e-09
1.41714e-05
2.77739e-09
1.41864e-05
2.75929e-09
1.42013e-05
2.74023e-09
1.42161e-05
2.7204e-09
1.42308e-05
2.69934e-09
1.42454e-05
2.6773e-09
1.42599e-05
2.65338e-09
1.42744e-05
2.62817e-09
1.42888e-05
2.60013e-09
1.4303e-05
2.5709e-09
1.43172e-05
2.53787e-09
1.43313e-05
2.50486e-09
1.43453e-05
2.46669e-09
1.43593e-05
2.43152e-09
1.43731e-05
2.38838e-09
1.43869e-05
2.35416e-09
1.44005e-05
2.30503e-09
1.44141e-05
2.27597e-09
1.44273e-05
2.21175e-09
1.44406e-05
2.1869e-09
2.1078e-09
1.08042e-05
-7.11834e-09
1.08256e-05
-2.12168e-08
1.08606e-05
-3.46961e-08
1.09079e-05
-4.69473e-08
1.09661e-05
-5.76649e-08
1.10335e-05
-6.67656e-08
1.11084e-05
-7.42364e-08
1.11892e-05
-8.00479e-08
1.12743e-05
-8.42033e-08
1.13622e-05
-8.68254e-08
1.14515e-05
-8.80902e-08
1.1541e-05
-8.81896e-08
1.16298e-05
-8.73014e-08
1.17171e-05
-8.55869e-08
1.18022e-05
-8.3193e-08
1.18846e-05
-8.02618e-08
1.1964e-05
-7.6922e-08
1.20399e-05
-7.33036e-08
1.21124e-05
-6.95182e-08
1.21813e-05
-6.56516e-08
1.22467e-05
-6.17942e-08
1.23085e-05
-5.80162e-08
1.2367e-05
-5.43832e-08
1.24223e-05
-5.09334e-08
1.24746e-05
-4.76803e-08
1.25239e-05
-4.4635e-08
1.25706e-05
-4.18121e-08
1.26148e-05
-3.92203e-08
1.26568e-05
-3.68598e-08
1.26966e-05
-3.47254e-08
1.27346e-05
-3.28071e-08
1.27708e-05
-3.10926e-08
1.28055e-05
-2.95675e-08
1.28387e-05
-2.82162e-08
1.28707e-05
-2.70226e-08
1.29016e-05
-2.59709e-08
1.29315e-05
-2.50459e-08
1.29604e-05
-2.42336e-08
1.29886e-05
-2.35211e-08
1.30159e-05
-2.28959e-08
1.30426e-05
-2.23457e-08
1.30688e-05
-2.1859e-08
1.30943e-05
-2.14255e-08
1.31194e-05
-2.10367e-08
1.3144e-05
-2.06851e-08
1.31682e-05
-2.03643e-08
1.3192e-05
-2.00687e-08
1.32154e-05
-1.97936e-08
1.32385e-05
-1.95348e-08
1.32613e-05
-1.92895e-08
1.32838e-05
-1.90554e-08
1.3306e-05
-1.88306e-08
1.3328e-05
-1.86135e-08
1.33497e-05
-1.84029e-08
1.33712e-05
-1.81988e-08
1.33925e-05
-1.80004e-08
1.34135e-05
-1.78069e-08
1.34344e-05
-1.76176e-08
1.3455e-05
-1.74322e-08
1.34755e-05
-1.72508e-08
1.34957e-05
-1.70733e-08
1.35158e-05
-1.68993e-08
1.35357e-05
-1.67289e-08
1.35554e-05
-1.65618e-08
1.35749e-05
-1.63979e-08
1.35943e-05
-1.62368e-08
1.36135e-05
-1.60784e-08
1.36325e-05
-1.59223e-08
1.36514e-05
-1.57687e-08
1.36701e-05
-1.56178e-08
1.36887e-05
-1.54696e-08
1.37071e-05
-1.53242e-08
1.37254e-05
-1.51816e-08
1.37435e-05
-1.50419e-08
1.37615e-05
-1.4905e-08
1.37793e-05
-1.4771e-08
1.3797e-05
-1.46397e-08
1.38146e-05
-1.45111e-08
1.3832e-05
-1.43852e-08
1.38493e-05
-1.42619e-08
1.38665e-05
-1.41413e-08
1.38835e-05
-1.40231e-08
1.39004e-05
-1.39074e-08
1.39172e-05
-1.37941e-08
1.39339e-05
-1.36832e-08
1.39504e-05
-1.35747e-08
1.39668e-05
-1.34685e-08
1.39832e-05
-1.33645e-08
1.39994e-05
-1.32627e-08
1.40154e-05
-1.31632e-08
1.40314e-05
-1.30659e-08
1.40473e-05
-1.29707e-08
1.40631e-05
-1.28777e-08
1.40787e-05
-1.27868e-08
1.40943e-05
-1.26982e-08
1.41097e-05
-1.26116e-08
1.41251e-05
-1.25273e-08
1.41403e-05
-1.2445e-08
1.41555e-05
-1.23653e-08
1.41706e-05
-1.22874e-08
1.41855e-05
-1.22126e-08
1.42004e-05
-1.2139e-08
1.42152e-05
-1.20695e-08
1.42299e-05
-1.20001e-08
1.42445e-05
-1.19367e-08
1.4259e-05
-1.1871e-08
1.42735e-05
-1.18154e-08
1.42878e-05
-1.1752e-08
1.43021e-05
-1.17069e-08
1.43163e-05
-1.1642e-08
1.43304e-05
-1.16111e-08
1.43444e-05
-1.15355e-08
1.43584e-05
-1.15255e-08
1.43722e-05
-1.14211e-08
1.4386e-05
-1.14434e-08
1.43996e-05
-1.12746e-08
1.44132e-05
-1.13396e-08
1.44264e-05
-1.10236e-08
1.44397e-05
-1.11033e-08
-1.05583e-08
1.08045e-05
-1.45812e-08
1.08268e-05
-4.35349e-08
1.08631e-05
-7.10133e-08
1.0912e-05
-9.57923e-08
1.09718e-05
-1.17438e-07
1.10408e-05
-1.35846e-07
1.11175e-05
-1.50915e-07
1.12e-05
-1.62552e-07
1.12866e-05
-1.7083e-07
1.13759e-05
-1.76046e-07
1.14664e-05
-1.78573e-07
1.1557e-05
-1.78801e-07
1.16468e-05
-1.77089e-07
1.17349e-05
-1.73744e-07
1.18208e-05
-1.69059e-07
1.19038e-05
-1.63322e-07
1.19837e-05
-1.56809e-07
1.20602e-05
-1.49765e-07
1.21331e-05
-1.42392e-07
1.22023e-05
-1.34859e-07
1.22678e-05
-1.27367e-07
1.23299e-05
-1.20034e-07
1.23884e-05
-1.12964e-07
1.24437e-05
-1.06225e-07
1.24959e-05
-9.98698e-08
1.25452e-05
-9.39297e-08
1.25918e-05
-8.84246e-08
1.2636e-05
-8.33611e-08
1.26778e-05
-7.87355e-08
1.27176e-05
-7.45343e-08
1.27556e-05
-7.07384e-08
1.27918e-05
-6.73229e-08
1.28265e-05
-6.42608e-08
1.28598e-05
-6.1523e-08
1.28919e-05
-5.90806e-08
1.29228e-05
-5.69047e-08
1.29527e-05
-5.49679e-08
1.29817e-05
-5.32447e-08
1.30099e-05
-5.17129e-08
1.30374e-05
-5.03495e-08
1.30642e-05
-4.9132e-08
1.30903e-05
-4.80398e-08
1.3116e-05
-4.70551e-08
1.31411e-05
-4.61624e-08
1.31658e-05
-4.53484e-08
1.319e-05
-4.46012e-08
1.32138e-05
-4.39114e-08
1.32373e-05
-4.32698e-08
1.32605e-05
-4.26692e-08
1.32833e-05
-4.21034e-08
1.33058e-05
-4.15676e-08
1.3328e-05
-4.10572e-08
1.335e-05
-4.05688e-08
1.33717e-05
-4.00994e-08
1.33931e-05
-3.96472e-08
1.34143e-05
-3.92099e-08
1.34353e-05
-3.87865e-08
1.34561e-05
-3.8374e-08
1.34766e-05
-3.79718e-08
1.34969e-05
-3.75791e-08
1.3517e-05
-3.71955e-08
1.3537e-05
-3.68201e-08
1.35567e-05
-3.64525e-08
1.35762e-05
-3.60921e-08
1.35956e-05
-3.57385e-08
1.36147e-05
-3.5391e-08
1.36337e-05
-3.50491e-08
1.36525e-05
-3.47122e-08
1.36711e-05
-3.43807e-08
1.36895e-05
-3.40543e-08
1.37078e-05
-3.37333e-08
1.37259e-05
-3.34174e-08
1.37438e-05
-3.31069e-08
1.37616e-05
-3.28013e-08
1.37792e-05
-3.25009e-08
1.37966e-05
-3.22053e-08
1.38139e-05
-3.19146e-08
1.3831e-05
-3.16285e-08
1.3848e-05
-3.13472e-08
1.38648e-05
-3.10702e-08
1.38814e-05
-3.07979e-08
1.38979e-05
-3.05298e-08
1.39143e-05
-3.02661e-08
1.39305e-05
-3.00065e-08
1.39466e-05
-2.97512e-08
1.39625e-05
-2.94997e-08
1.39783e-05
-2.92525e-08
1.39939e-05
-2.9009e-08
1.40094e-05
-2.87696e-08
1.40248e-05
-2.85338e-08
1.404e-05
-2.83021e-08
1.40551e-05
-2.80738e-08
1.40701e-05
-2.78495e-08
1.40849e-05
-2.76285e-08
1.40997e-05
-2.74117e-08
1.41142e-05
-2.71979e-08
1.41287e-05
-2.69884e-08
1.4143e-05
-2.67817e-08
1.41573e-05
-2.65797e-08
1.41714e-05
-2.63799e-08
1.41853e-05
-2.61856e-08
1.41992e-05
-2.59924e-08
1.42129e-05
-2.58065e-08
1.42265e-05
-2.56191e-08
1.424e-05
-2.54427e-08
1.42534e-05
-2.52595e-08
1.42667e-05
-2.50953e-08
1.42799e-05
-2.49123e-08
1.42929e-05
-2.47651e-08
1.43059e-05
-2.45732e-08
1.43187e-05
-2.44523e-08
1.43314e-05
-2.42317e-08
1.4344e-05
-2.41549e-08
1.43565e-05
-2.38653e-08
1.43689e-05
-2.38671e-08
1.4381e-05
-2.34277e-08
1.43933e-05
-2.35629e-08
1.44051e-05
-2.28074e-08
1.44171e-05
-2.31313e-08
-2.16959e-08
1.0805e-05
-2.25334e-08
1.08293e-05
-6.78193e-08
1.08683e-05
-1.09996e-07
1.09202e-05
-1.47631e-07
1.09832e-05
-1.8053e-07
1.1056e-05
-2.08576e-07
1.11365e-05
-2.31421e-07
1.12228e-05
-2.48866e-07
1.13131e-05
-2.61136e-07
1.14058e-05
-2.68778e-07
1.14996e-05
-2.72385e-07
1.15934e-05
-2.72535e-07
1.16861e-05
-2.69768e-07
1.17768e-05
-2.6453e-07
1.18651e-05
-2.57266e-07
1.19501e-05
-2.48419e-07
1.20317e-05
-2.38404e-07
1.21096e-05
-2.27585e-07
1.21835e-05
-2.16283e-07
1.22534e-05
-2.04781e-07
1.23193e-05
-1.93325e-07
1.23814e-05
-1.82112e-07
1.24397e-05
-1.71294e-07
1.24945e-05
-1.60984e-07
1.25459e-05
-1.51261e-07
1.25941e-05
-1.42175e-07
1.26395e-05
-1.33755e-07
1.26821e-05
-1.26005e-07
1.27223e-05
-1.18918e-07
1.27602e-05
-1.1247e-07
1.27961e-05
-1.06632e-07
1.28302e-05
-1.01364e-07
1.28625e-05
-9.66241e-08
1.28934e-05
-9.2368e-08
1.29228e-05
-8.85506e-08
1.29511e-05
-8.51291e-08
1.29782e-05
-8.20627e-08
1.30042e-05
-7.93145e-08
1.30294e-05
-7.68516e-08
1.30537e-05
-7.46377e-08
1.30772e-05
-7.26388e-08
1.31e-05
-7.08252e-08
1.31221e-05
-6.91723e-08
1.31436e-05
-6.76582e-08
1.31645e-05
-6.62624e-08
1.31848e-05
-6.49673e-08
1.32047e-05
-6.37601e-08
1.32241e-05
-6.26272e-08
1.32429e-05
-6.15591e-08
1.32614e-05
-6.05468e-08
1.32794e-05
-5.95829e-08
1.3297e-05
-5.86607e-08
1.33142e-05
-5.77749e-08
1.3331e-05
-5.69208e-08
1.33475e-05
-5.60949e-08
1.33636e-05
-5.52938e-08
1.33793e-05
-5.45149e-08
1.33947e-05
-5.37555e-08
1.34097e-05
-5.30138e-08
1.34244e-05
-5.22882e-08
1.34388e-05
-5.15781e-08
1.34529e-05
-5.08822e-08
1.34666e-05
-5.02e-08
1.34801e-05
-4.95304e-08
1.34932e-05
-4.88726e-08
1.3506e-05
-4.82252e-08
1.35186e-05
-4.75875e-08
1.35308e-05
-4.69591e-08
1.35428e-05
-4.63405e-08
1.35544e-05
-4.5731e-08
1.35658e-05
-4.51311e-08
1.3577e-05
-4.45405e-08
1.35878e-05
-4.39594e-08
1.35984e-05
-4.33871e-08
1.36087e-05
-4.28239e-08
1.36188e-05
-4.22693e-08
1.36286e-05
-4.17234e-08
1.36382e-05
-4.11858e-08
1.36475e-05
-4.06567e-08
1.36565e-05
-4.01356e-08
1.36654e-05
-3.96228e-08
1.36739e-05
-3.91177e-08
1.36823e-05
-3.86208e-08
1.36904e-05
-3.81314e-08
1.36983e-05
-3.76499e-08
1.3706e-05
-3.71758e-08
1.37135e-05
-3.67095e-08
1.37207e-05
-3.62502e-08
1.37277e-05
-3.57987e-08
1.37345e-05
-3.5354e-08
1.37412e-05
-3.49169e-08
1.37476e-05
-3.44865e-08
1.37538e-05
-3.40637e-08
1.37598e-05
-3.36473e-08
1.37656e-05
-3.32384e-08
1.37713e-05
-3.28357e-08
1.37767e-05
-3.24407e-08
1.3782e-05
-3.20514e-08
1.37871e-05
-3.16701e-08
1.3792e-05
-3.12941e-08
1.37967e-05
-3.09265e-08
1.38013e-05
-3.05632e-08
1.38057e-05
-3.02098e-08
1.381e-05
-2.98582e-08
1.3814e-05
-2.95199e-08
1.38179e-05
-2.91783e-08
1.38217e-05
-2.8857e-08
1.38253e-05
-2.85213e-08
1.38288e-05
-2.8221e-08
1.38321e-05
-2.78819e-08
1.38352e-05
-2.7611e-08
1.38383e-05
-2.7248e-08
1.38411e-05
-2.70235e-08
1.38439e-05
-2.65933e-08
1.38464e-05
-2.64509e-08
1.38489e-05
-2.58641e-08
1.38512e-05
-2.58731e-08
1.38533e-05
-2.49388e-08
1.38553e-05
-2.51486e-08
-2.35374e-08
1.08062e-05
-3.1561e-08
1.08336e-05
-9.52138e-08
1.08771e-05
-1.53523e-07
1.09349e-05
-2.05443e-07
1.10058e-05
-2.51424e-07
1.10879e-05
-2.90642e-07
1.11784e-05
-3.21974e-07
1.12746e-05
-3.44991e-07
1.13736e-05
-3.6017e-07
1.14732e-05
-3.68337e-07
1.15712e-05
-3.70465e-07
1.16663e-05
-3.67558e-07
1.17569e-05
-3.60443e-07
1.18423e-05
-3.49921e-07
1.19219e-05
-3.36786e-07
1.19952e-05
-3.21761e-07
1.20623e-05
-3.05476e-07
1.21231e-05
-2.8846e-07
1.2178e-05
-2.71157e-07
1.22272e-05
-2.53934e-07
1.22709e-05
-2.37085e-07
1.23097e-05
-2.20845e-07
1.23437e-05
-2.05381e-07
1.23736e-05
-1.90808e-07
1.23995e-05
-1.77198e-07
1.24219e-05
-1.64588e-07
1.24411e-05
-1.52981e-07
1.24575e-05
-1.4236e-07
1.24713e-05
-1.32691e-07
1.24827e-05
-1.23925e-07
1.24921e-05
-1.16006e-07
1.24996e-05
-1.0887e-07
1.25054e-05
-1.02452e-07
1.25098e-05
-9.66862e-08
1.25127e-05
-9.1505e-08
1.25144e-05
-8.68443e-08
1.2515e-05
-8.26502e-08
1.25146e-05
-7.88886e-08
1.25132e-05
-7.55068e-08
1.25111e-05
-7.24511e-08
1.25081e-05
-6.96778e-08
1.25044e-05
-6.71509e-08
1.25001e-05
-6.48392e-08
1.24951e-05
-6.27151e-08
1.24896e-05
-6.07555e-08
1.24836e-05
-5.89382e-08
1.24771e-05
-5.72398e-08
1.24701e-05
-5.56485e-08
1.24627e-05
-5.41517e-08
1.24549e-05
-5.2738e-08
1.24467e-05
-5.13979e-08
1.24382e-05
-5.0123e-08
1.24293e-05
-4.89065e-08
1.24201e-05
-4.77423e-08
1.24107e-05
-4.66254e-08
1.24009e-05
-4.55514e-08
1.23909e-05
-4.45165e-08
1.23807e-05
-4.35173e-08
1.23702e-05
-4.25511e-08
1.23595e-05
-4.16156e-08
1.23487e-05
-4.07089e-08
1.23376e-05
-3.98295e-08
1.23264e-05
-3.89766e-08
1.2315e-05
-3.81493e-08
1.23035e-05
-3.73456e-08
1.22918e-05
-3.65612e-08
1.228e-05
-3.57962e-08
1.22681e-05
-3.50507e-08
1.22561e-05
-3.43244e-08
1.2244e-05
-3.36162e-08
1.22318e-05
-3.29262e-08
1.22195e-05
-3.22542e-08
1.22071e-05
-3.15997e-08
1.21947e-05
-3.0962e-08
1.21822e-05
-3.03408e-08
1.21697e-05
-2.97354e-08
1.21571e-05
-2.91455e-08
1.21445e-05
-2.85706e-08
1.21319e-05
-2.80105e-08
1.21192e-05
-2.74646e-08
1.21065e-05
-2.69327e-08
1.20938e-05
-2.64143e-08
1.20811e-05
-2.59093e-08
1.20684e-05
-2.5417e-08
1.20557e-05
-2.49376e-08
1.2043e-05
-2.44704e-08
1.20303e-05
-2.40153e-08
1.20176e-05
-2.35719e-08
1.20049e-05
-2.31402e-08
1.19923e-05
-2.27195e-08
1.19797e-05
-2.231e-08
1.19671e-05
-2.1911e-08
1.19546e-05
-2.15228e-08
1.19421e-05
-2.11445e-08
1.19296e-05
-2.07766e-08
1.19172e-05
-2.04182e-08
1.19048e-05
-2.00697e-08
1.18925e-05
-1.97303e-08
1.18802e-05
-1.94005e-08
1.1868e-05
-1.90792e-08
1.18558e-05
-1.87673e-08
1.18437e-05
-1.84634e-08
1.18317e-05
-1.81688e-08
1.18197e-05
-1.78813e-08
1.18078e-05
-1.76034e-08
1.1796e-05
-1.73314e-08
1.17842e-05
-1.70695e-08
1.17725e-05
-1.68113e-08
1.17608e-05
-1.65647e-08
1.17492e-05
-1.63172e-08
1.17377e-05
-1.60841e-08
1.17263e-05
-1.58413e-08
1.17149e-05
-1.56184e-08
1.17037e-05
-1.53673e-08
1.16924e-05
-1.51479e-08
1.16814e-05
-1.48589e-08
1.16701e-05
-1.46287e-08
1.16594e-05
-1.42332e-08
1.16483e-05
-1.40122e-08
-1.35319e-08
1.08171e-05
-5.13794e-08
1.08644e-05
-1.42533e-07
1.09304e-05
-2.19516e-07
1.10075e-05
-2.82568e-07
1.10874e-05
-3.31303e-07
1.11619e-05
-3.65144e-07
1.1225e-05
-3.85041e-07
1.1273e-05
-3.93042e-07
1.13047e-05
-3.9179e-07
1.13196e-05
-3.83293e-07
1.13188e-05
-3.69627e-07
1.13038e-05
-3.5254e-07
1.12761e-05
-3.3283e-07
1.12377e-05
-3.11527e-07
1.11904e-05
-2.89462e-07
1.11359e-05
-2.6724e-07
1.10757e-05