/*--------------------------------*- C++ -*----------------------------------*\
  =========                 |
  \\      /  F ield         | OpenFOAM: The Open Source CFD Toolbox
   \\    /   O peration     | Website:  https://openfoam.org
    \\  /    A nd           | Version:  7
     \\/     M anipulation  |
\*---------------------------------------------------------------------------*/
FoamFile
{
    version     2.0;
    format      ascii;
    class       volScalarField;
    location    "1.46";
    object      T;
}
// * * * * * * * * * * * * * * * * * * * * * * * * * * * * * * * * * * * * * //

dimensions      [0 0 0 1 0 0 0];

internalField   nonuniform List<scalar> 
13200
(
282.994
283.119
283.13
283.158
283.141
283.153
283.136
283.143
283.129
283.134
283.126
283.133
283.13
283.137
283.138
283.143
283.149
283.143
283.166
283.111
282.89
283.057
283.119
283.181
283.158
283.172
283.138
283.137
283.107
283.106
283.09
283.098
283.098
283.11
283.123
283.129
283.159
283.132
283.224
282.994
282.795
282.917
282.968
283.084
283.054
283.088
283.022
283.021
282.952
282.944
282.896
282.902
282.891
282.911
282.934
282.946
283.012
282.963
283.148
282.818
282.794
282.872
282.919
283.034
283.033
283.065
283.014
282.997
282.926
282.884
282.818
282.783
282.761
282.754
282.783
282.783
282.874
282.827
283.033
282.81
282.769
282.827
282.836
282.952
282.942
282.987
282.932
282.929
282.852
282.812
282.721
282.669
282.608
282.585
282.584
282.584
282.648
282.641
282.784
282.722
282.784
282.845
282.852
282.959
282.953
282.996
282.947
282.946
282.879
282.842
282.75
282.685
282.604
282.561
282.534
282.526
282.556
282.568
282.657
282.675
282.77
282.831
282.825
282.936
282.92
282.965
282.909
282.913
282.845
282.818
282.724
282.66
282.563
282.513
282.463
282.452
282.452
282.47
282.52
282.561
282.778
282.85
282.845
282.958
282.94
282.985
282.928
282.932
282.865
282.841
282.748
282.687
282.584
282.53
282.469
282.454
282.441
282.453
282.487
282.521
282.771
282.84
282.833
282.946
282.926
282.971
282.912
282.916
282.848
282.826
282.734
282.673
282.568
282.512
282.448
282.43
282.412
282.418
282.447
282.468
282.774
282.846
282.839
282.953
282.933
282.978
282.918
282.922
282.854
282.833
282.74
282.68
282.575
282.518
282.453
282.433
282.415
282.417
282.446
282.459
282.774
282.846
282.839
282.953
282.933
282.978
282.918
282.922
282.854
282.833
282.74
282.68
282.575
282.518
282.453
282.433
282.416
282.417
282.447
282.458
282.771
282.84
282.833
282.946
282.926
282.971
282.912
282.916
282.848
282.826
282.734
282.673
282.568
282.512
282.448
282.429
282.413
282.417
282.449
282.465
282.778
282.85
282.845
282.958
282.94
282.985
282.927
282.932
282.865
282.842
282.748
282.687
282.583
282.53
282.468
282.454
282.441
282.452
282.49
282.517
282.77
282.831
282.825
282.936
282.92
282.965
282.909
282.913
282.845
282.818
282.723
282.661
282.562
282.515
282.461
282.454
282.449
282.472
282.518
282.56
282.784
282.845
282.852
282.96
282.953
282.996
282.946
282.946
282.878
282.843
282.749
282.688
282.601
282.565
282.528
282.533
282.546
282.58
282.64
282.693
282.769
282.827
282.836
282.952
282.942
282.987
282.931
282.929
282.851
282.813
282.719
282.672
282.604
282.592
282.574
282.599
282.625
282.673
282.735
282.787
282.794
282.872
282.919
283.034
283.033
283.065
283.013
282.998
282.925
282.885
282.816
282.787
282.756
282.762
282.771
282.803
282.841
282.882
282.939
282.965
282.795
282.917
282.967
283.084
283.054
283.088
283.022
283.022
282.952
282.945
282.894
282.904
282.887
282.917
282.923
282.963
282.983
283.016
283.042
283.052
282.89
283.057
283.119
283.181
283.158
283.173
283.138
283.137
283.107
283.106
283.089
283.099
283.096
283.113
283.118
283.137
283.145
283.158
283.167
283.167
282.994
283.119
283.13
283.158
283.141
283.153
283.136
283.143
283.129
283.135
283.126
283.134
283.129
283.138
283.137
283.145
283.145
283.151
283.151
283.153
283.251
283.297
283.382
283.36
283.398
283.356
283.375
283.336
283.349
283.322
283.34
283.324
283.347
283.336
283.361
283.345
283.378
283.336
283.425
283.154
283.216
283.278
283.406
283.432
283.48
283.443
283.437
283.381
283.361
283.319
283.322
283.306
283.335
283.332
283.382
283.365
283.448
283.352
283.571
283.106
283.252
283.297
283.459
283.492
283.578
283.537
283.549
283.469
283.444
283.359
283.346
283.295
283.323
283.303
283.373
283.35
283.475
283.372
283.637
283.247
283.224
283.26
283.402
283.443
283.521
283.499
283.508
283.445
283.407
283.317
283.266
283.197
283.187
283.158
283.206
283.193
283.304
283.259
283.458
283.291
283.251
283.28
283.436
283.462
283.552
283.522
283.547
283.484
283.463
283.364
283.31
283.213
283.185
283.13
283.154
283.136
283.213
283.213
283.344
283.328
283.232
283.255
283.403
283.428
283.511
283.481
283.503
283.445
283.428
283.337
283.277
283.174
283.125
283.062
283.057
283.039
283.075
283.099
283.176
283.234
283.249
283.271
283.43
283.447
283.535
283.497
283.524
283.464
283.454
283.365
283.308
283.202
283.146
283.076
283.058
283.034
283.049
283.07
283.126
283.195
283.239
283.251
283.411
283.424
283.512
283.471
283.497
283.437
283.428
283.34
283.284
283.178
283.118
283.046
283.022
282.994
282.999
283.012
283.058
283.118
283.246
283.263
283.425
283.437
283.525
283.484
283.51
283.449
283.44
283.353
283.297
283.191
283.13
283.058
283.032
283.001
283.004
283.009
283.053
283.103
283.243
283.257
283.418
283.43
283.518
283.476
283.502
283.441
283.431
283.344
283.288
283.182
283.121
283.049
283.022
282.99
282.993
282.994
283.037
283.081
283.243
283.257
283.418
283.43
283.518
283.476
283.502
283.441
283.431
283.344
283.288
283.182
283.121
283.049
283.022
282.99
282.994
282.993
283.038
283.08
283.246
283.263
283.424
283.437
283.525
283.484
283.51
283.449
283.44
283.353
283.297
283.191
283.13
283.058
283.032
283
283.005
283.007
283.055
283.1
283.239
283.251
283.411
283.424
283.512
283.471
283.497
283.437
283.428
283.34
283.284
283.178
283.118
283.047
283.022
282.993
283
283.01
283.06
283.114
283.249
283.271
283.43
283.447
283.535
283.497
283.523
283.465
283.454
283.366
283.308
283.203
283.145
283.078
283.056
283.035
283.048
283.07
283.126
283.193
283.232
283.255
283.403
283.429
283.511
283.481
283.502
283.446
283.427
283.338
283.275
283.176
283.122
283.066
283.052
283.045
283.067
283.108
283.165
283.244
283.251
283.28
283.435
283.463
283.552
283.523
283.547
283.485
283.462
283.366
283.307
283.216
283.18
283.138
283.144
283.15
283.193
283.241
283.306
283.377
283.224
283.26
283.402
283.444
283.521
283.5
283.507
283.446
283.405
283.319
283.263
283.201
283.181
283.169
283.19
283.217
283.268
283.316
283.372
283.42
283.252
283.297
283.459
283.492
283.578
283.537
283.548
283.469
283.443
283.361
283.343
283.3
283.316
283.314
283.356
283.377
283.429
283.45
283.494
283.502
283.216
283.278
283.406
283.432
283.48
283.443
283.437
283.381
283.361
283.32
283.32
283.309
283.33
283.34
283.37
283.385
283.412
283.418
283.438
283.428
283.251
283.297
283.382
283.36
283.398
283.357
283.375
283.336
283.349
283.322
283.34
283.325
283.346
283.339
283.357
283.352
283.366
283.359
283.37
283.357
283.186
283.26
283.319
283.334
283.326
283.299
283.277
283.255
283.248
283.244
283.257
283.263
283.287
283.284
283.317
283.279
283.352
283.204
283.522
282.655
283.181
283.26
283.35
283.406
283.424
283.399
283.349
283.275
283.21
283.151
283.141
283.132
283.191
283.193
283.307
283.236
283.44
283.158
283.639
282.836
283.181
283.254
283.344
283.409
283.442
283.435
283.41
283.35
283.278
283.181
283.119
283.052
283.062
283.039
283.138
283.122
283.307
283.216
283.487
283.231
283.181
283.254
283.342
283.406
283.438
283.435
283.419
283.377
283.32
283.229
283.146
283.058
283.019
282.978
283.001
283.009
283.098
283.149
283.273
283.321
283.181
283.255
283.344
283.407
283.439
283.435
283.42
283.385
283.334
283.252
283.163
283.076
283.016
282.975
282.956
282.965
282.99
283.067
283.14
283.257
283.181
283.255
283.344
283.407
283.436
283.432
283.416
283.383
283.331
283.252
283.161
283.076
283.01
282.972
282.94
282.943
282.95
283.012
283.08
283.185
283.181
283.255
283.346
283.408
283.437
283.432
283.416
283.383
283.331
283.252
283.16
283.076
283.01
282.971
282.94
282.937
282.944
282.99
283.063
283.152
283.181
283.255
283.346
283.408
283.436
283.431
283.414
283.381
283.327
283.247
283.155
283.072
283.006
282.967
282.937
282.93
282.94
282.978
283.056
283.135
283.181
283.255
283.346
283.408
283.437
283.432
283.415
283.381
283.327
283.247
283.155
283.071
283.006
282.966
282.938
282.929
282.942
282.976
283.057
283.133
283.181
283.255
283.346
283.408
283.436
283.431
283.414
283.381
283.326
283.245
283.153
283.069
283.005
282.965
282.937
282.928
282.941
282.975
283.056
283.131
283.181
283.255
283.346
283.408
283.436
283.431
283.414
283.381
283.326
283.245
283.153
283.069
283.005
282.965
282.937
282.928
282.942
282.975
283.056
283.131
283.181
283.255
283.346
283.408
283.437
283.432
283.415
283.381
283.327
283.246
283.155
283.071
283.006
282.966
282.938
282.929
282.942
282.976
283.057
283.132
283.181
283.255
283.346
283.408
283.436
283.431
283.414
283.381
283.327
283.247
283.155
283.071
283.006
282.966
282.938
282.929
282.941
282.976
283.058
283.133
283.181
283.255
283.346
283.408
283.437
283.433
283.416
283.383
283.331
283.252
283.16
283.076
283.01
282.971
282.941
282.935
282.946
282.987
283.067
283.146
283.181
283.255
283.344
283.407
283.436
283.432
283.415
283.383
283.331
283.252
283.16
283.076
283.01
282.971
282.941
282.942
282.953
283.007
283.086
283.175
283.181
283.255
283.344
283.408
283.438
283.435
283.419
283.386
283.333
283.253
283.162
283.078
283.015
282.977
282.954
282.966
282.99
283.066
283.143
283.249
283.181
283.254
283.342
283.406
283.437
283.435
283.418
283.379
283.317
283.232
283.142
283.064
283.012
282.987
282.989
283.024
283.08
283.17
283.248
283.348
283.181
283.254
283.344
283.409
283.441
283.436
283.408
283.352
283.275
283.186
283.112
283.062
283.047
283.061
283.106
283.167
283.244
283.304
283.366
283.391
283.181
283.26
283.35
283.406
283.424
283.399
283.348
283.276
283.207
283.155
283.135
283.142
283.174
283.219
283.265
283.303
283.332
283.333
283.349
283.305
283.186
283.26
283.319
283.334
283.325
283.299
283.277
283.256
283.248
283.245
283.255
283.266
283.282
283.293
283.302
283.305
283.305
283.299
283.298
283.281
283.186
283.26
283.319
283.334
283.326
283.299
283.278
283.255
283.248
283.244
283.257
283.263
283.287
283.284
283.317
283.279
283.352
283.204
283.522
282.655
283.181
283.26
283.35
283.406
283.424
283.399
283.349
283.275
283.21
283.151
283.141
283.132
283.191
283.193
283.307
283.236
283.44
283.158
283.638
282.836
283.181
283.254
283.344
283.409
283.442
283.435
283.41
283.35
283.278
283.181
283.119
283.052
283.062
283.039
283.138
283.122
283.307
283.216
283.487
283.231
283.181
283.254
283.342
283.406
283.438
283.435
283.419
283.377
283.32
283.229
283.146
283.058
283.019
282.978
283.001
283.009
283.098
283.149
283.273
283.321
283.181
283.255
283.344
283.407
283.439
283.435
283.42
283.385
283.334
283.252
283.163
283.076
283.016
282.975
282.956
282.965
282.99
283.067
283.14
283.257
283.181
283.255
283.344
283.407
283.436
283.432
283.416
283.383
283.331
283.252
283.161
283.076
283.01
282.972
282.94
282.943
282.95
283.012
283.08
283.185
283.181
283.255
283.346
283.408
283.437
283.432
283.416
283.383
283.331
283.252
283.16
283.076
283.01
282.971
282.94
282.937
282.944
282.99
283.063
283.152
283.181
283.255
283.346
283.408
283.436
283.431
283.414
283.381
283.327
283.247
283.155
283.072
283.006
282.967
282.937
282.93
282.94
282.978
283.056
283.135
283.181
283.255
283.346
283.408
283.437
283.432
283.415
283.381
283.327
283.247
283.155
283.071
283.006
282.966
282.938
282.929
282.942
282.976
283.057
283.133
283.181
283.255
283.346
283.408
283.436
283.431
283.414
283.381
283.326
283.245
283.153
283.069
283.005
282.965
282.937
282.928
282.941
282.975
283.056
283.131
283.181
283.255
283.346
283.408
283.436
283.431
283.414
283.381
283.326
283.245
283.153
283.069
283.005
282.965
282.937
282.928
282.942
282.975
283.056
283.131
283.181
283.255
283.346
283.408
283.437
283.432
283.415
283.381
283.327
283.246
283.155
283.071
283.006
282.966
282.938
282.929
282.942
282.976
283.057
283.132
283.181
283.255
283.346
283.408
283.436
283.431
283.414
283.381
283.327
283.247
283.155
283.071
283.006
282.966
282.938
282.929
282.941
282.976
283.058
283.133
283.181
283.255
283.346
283.408
283.437
283.433
283.416
283.383
283.331
283.252
283.16
283.076
283.01
282.971
282.941
282.935
282.946
282.987
283.067
283.146
283.181
283.255
283.344
283.407
283.436
283.432
283.415
283.383
283.331
283.252
283.16
283.076
283.01
282.971
282.941
282.942
282.953
283.007
283.086
283.175
283.181
283.255
283.344
283.408
283.438
283.435
283.419
283.386
283.333
283.253
283.162
283.078
283.015
282.977
282.954
282.966
282.99
283.066
283.143
283.249
283.181
283.254
283.342
283.406
283.437
283.435
283.418
283.379
283.317
283.232
283.142
283.064
283.012
282.987
282.989
283.024
283.08
283.17
283.248
283.348
283.181
283.254
283.344
283.409
283.441
283.436
283.408
283.352
283.275
283.186
283.112
283.062
283.047
283.061
283.106
283.167
283.244
283.304
283.366
283.391
283.181
283.26
283.35
283.406
283.424
283.399
283.348
283.276
283.207
283.155
283.135
283.142
283.174
283.219
283.265
283.303
283.332
283.333
283.349
283.305
283.186
283.26
283.319
283.334
283.325
283.299
283.277
283.256
283.248
283.245
283.255
283.266
283.282
283.293
283.302
283.305
283.305
283.299
283.298
283.281
283.251
283.297
283.382
283.36
283.398
283.357
283.375
283.336
283.349
283.322
283.34
283.324
283.347
283.336
283.361
283.345
283.378
283.336
283.425
283.154
283.216
283.278
283.406
283.432
283.48
283.443
283.437
283.381
283.361
283.319
283.322
283.306
283.335
283.332
283.382
283.365
283.448
283.352
283.571
283.106
283.252
283.297
283.459
283.492
283.578
283.537
283.549
283.469
283.444
283.359
283.346
283.295
283.323
283.303
283.373
283.35
283.475
283.372
283.636
283.247
283.224
283.26
283.402
283.443
283.521
283.499
283.508
283.445
283.407
283.317
283.266
283.197
283.187
283.158
283.206
283.193
283.304
283.259
283.458
283.291
283.251
283.28
283.436
283.462
283.552
283.522
283.547
283.484
283.463
283.364
283.31
283.213
283.185
283.13
283.154
283.136
283.213
283.213
283.344
283.328
283.232
283.255
283.403
283.428
283.511
283.481
283.502
283.445
283.428
283.337
283.277
283.174
283.125
283.062
283.057
283.039
283.075
283.099
283.176
283.234
283.249
283.271
283.43
283.447
283.535
283.497
283.524
283.464
283.454
283.365
283.308
283.202
283.146
283.076
283.058
283.034
283.049
283.07
283.126
283.195
283.239
283.251
283.411
283.424
283.512
283.471
283.497
283.437
283.428
283.34
283.284
283.178
283.118
283.046
283.022
282.994
282.999
283.012
283.058
283.118
283.246
283.263
283.425
283.437
283.525
283.484
283.51
283.449
283.44
283.353
283.297
283.191
283.13
283.058
283.032
283.001
283.004
283.009
283.053
283.103
283.243
283.257
283.418
283.43
283.518
283.476
283.502
283.441
283.431
283.344
283.288
283.182
283.121
283.049
283.022
282.99
282.993
282.994
283.037
283.081
283.243
283.257
283.418
283.43
283.518
283.476
283.502
283.441
283.431
283.344
283.288
283.182
283.121
283.049
283.022
282.99
282.994
282.993
283.038
283.08
283.246
283.263
283.424
283.437
283.525
283.484
283.51
283.449
283.44
283.353
283.297
283.191
283.13
283.058
283.032
283
283.005
283.007
283.055
283.1
283.239
283.251
283.411
283.424
283.512
283.471
283.497
283.437
283.428
283.34
283.284
283.178
283.118
283.047
283.022
282.993
283
283.01
283.06
283.114
283.249
283.271
283.43
283.447
283.535
283.497
283.523
283.465
283.454
283.366
283.308
283.203
283.145
283.078
283.056
283.035
283.048
283.07
283.126
283.193
283.232
283.255
283.403
283.429
283.511
283.481
283.502
283.446
283.427
283.338
283.275
283.176
283.122
283.066
283.052
283.045
283.067
283.108
283.165
283.244
283.251
283.28
283.435
283.463
283.552
283.523
283.547
283.485
283.462
283.366
283.307
283.216
283.18
283.138
283.144
283.15
283.193
283.241
283.306
283.377
283.224
283.26
283.402
283.444
283.521
283.5
283.507
283.446
283.405
283.319
283.263
283.201
283.181
283.169
283.19
283.217
283.268
283.316
283.372
283.42
283.252
283.297
283.459
283.492
283.578
283.537
283.548
283.47
283.443
283.361
283.343
283.3
283.316
283.314
283.356
283.377
283.429
283.451
283.494
283.502
283.216
283.278
283.406
283.432
283.48
283.443
283.437
283.381
283.361
283.32
283.32
283.309
283.33
283.34
283.37
283.385
283.412
283.418
283.438
283.428
283.251
283.297
283.382
283.36
283.398
283.357
283.375
283.336
283.349
283.322
283.34
283.325
283.346
283.339
283.357
283.352
283.366
283.359
283.37
283.357
282.994
283.119
283.13
283.158
283.141
283.153
283.136
283.143
283.129
283.134
283.126
283.133
283.13
283.137
283.138
283.143
283.149
283.143
283.166
283.111
282.89
283.057
283.119
283.181
283.158
283.172
283.138
283.137
283.107
283.106
283.09
283.098
283.098
283.11
283.123
283.129
283.159
283.132
283.224
282.994
282.795
282.917
282.968
283.084
283.054
283.088
283.022
283.021
282.952
282.944
282.896
282.902
282.891
282.911
282.934
282.946
283.012
282.963
283.148
282.818
282.794
282.872
282.919
283.034
283.033
283.065
283.014
282.997
282.926
282.884
282.818
282.784
282.761
282.754
282.783
282.783
282.874
282.827
283.033
282.81
282.769
282.827
282.836
282.952
282.942
282.987
282.932
282.929
282.852
282.812
282.721
282.669
282.608
282.585
282.584
282.584
282.648
282.641
282.784
282.722
282.784
282.845
282.852
282.959
282.953
282.996
282.947
282.946
282.879
282.842
282.75
282.685
282.604
282.561
282.534
282.526
282.556
282.568
282.657
282.675
282.77
282.831
282.825
282.936
282.92
282.965
282.909
282.913
282.845
282.818
282.724
282.66
282.563
282.513
282.463
282.452
282.452
282.47
282.52
282.561
282.778
282.85
282.845
282.958
282.94
282.985
282.928
282.932
282.865
282.841
282.748
282.687
282.584
282.53
282.469
282.454
282.441
282.453
282.487
282.521
282.771
282.84
282.833
282.946
282.926
282.971
282.912
282.916
282.848
282.826
282.734
282.673
282.568
282.512
282.448
282.43
282.412
282.418
282.447
282.468
282.774
282.846
282.839
282.953
282.933
282.978
282.918
282.922
282.854
282.832
282.74
282.68
282.575
282.518
282.453
282.433
282.415
282.417
282.446
282.459
282.774
282.846
282.839
282.953
282.933
282.978
282.918
282.922
282.854
282.833
282.74
282.68
282.575
282.518
282.453
282.433
282.416
282.417
282.447
282.458
282.771
282.84
282.833
282.946
282.926
282.971
282.912
282.916
282.848
282.826
282.733
282.673
282.568
282.512
282.448
282.429
282.413
282.417
282.449
282.465
282.778
282.85
282.845
282.958
282.94
282.985
282.927
282.932
282.865
282.842
282.748
282.687
282.583
282.53
282.468
282.454
282.441
282.452
282.49
282.517
282.77
282.831
282.825
282.936
282.92
282.965
282.909
282.913
282.845
282.818
282.723
282.661
282.562
282.515
282.461
282.454
282.449
282.472
282.518
282.56
282.784
282.845
282.852
282.96
282.953
282.996
282.946
282.946
282.878
282.843
282.749
282.688
282.601
282.565
282.528
282.533
282.546
282.58
282.641
282.693
282.769
282.827
282.836
282.952
282.942
282.987
282.931
282.929
282.851
282.813
282.719
282.672
282.604
282.591
282.574
282.599
282.625
282.674
282.735
282.787
282.794
282.872
282.919
283.034
283.033
283.065
283.013
282.998
282.925
282.885
282.816
282.787
282.756
282.762
282.771
282.803
282.841
282.882
282.939
282.966
282.795
282.917
282.967
283.084
283.054
283.088
283.022
283.022
282.952
282.945
282.894
282.904
282.887
282.917
282.923
282.963
282.983
283.016
283.043
283.052
282.89
283.057
283.119
283.181
283.158
283.173
283.138
283.137
283.107
283.106
283.089
283.099
283.096
283.113
283.118
283.137
283.145
283.158
283.167
283.167
282.994
283.119
283.13
283.158
283.141
283.153
283.136
283.143
283.128
283.135
283.126
283.133
283.129
283.138
283.137
283.145
283.145
283.151
283.151
283.153
286.109
288.101
289.468
290.635
291.605
292.46
293.163
293.788
294.332
294.84
295.282
295.666
295.967
296.21
296.397
296.557
296.692
296.812
296.91
296.99
297.049
297.092
297.119
297.138
297.148
297.154
297.157
297.159
297.16
297.16
297.16
297.16
297.16
297.16
297.159
297.159
297.158
297.158
297.157
297.157
297.156
297.155
297.155
297.154
297.153
297.152
297.152
297.151
297.15
297.149
297.148
297.147
297.146
297.145
297.144
297.143
297.142
297.141
297.14
297.139
297.138
297.136
297.135
297.134
297.133
297.131
297.13
297.129
297.127
297.126
297.125
297.123
297.122
297.12
297.118
297.116
297.115
297.113
297.112
297.108
297.109
297.102
297.107
297.095
297.105
297.088
297.1
297.085
297.087
297.077
285.466
287.409
288.752
289.9
290.863
291.717
292.423
293.047
293.589
294.094
294.536
294.924
295.232
295.48
295.67
295.832
295.968
296.09
296.19
296.273
296.335
296.38
296.409
296.429
296.44
296.447
296.45
296.453
296.453
296.454
296.454
296.454
296.453
296.453
296.453
296.452
296.452
296.451
296.451
296.45
296.449
296.449
296.448
296.447
296.447
296.446
296.445
296.444
296.443
296.442
296.442
296.441
296.44
296.439
296.438
296.437
296.436
296.435
296.434
296.432
296.431
296.43
296.429
296.428
296.427
296.425
296.424
296.423
296.421
296.42
296.418
296.417
296.415
296.414
296.412
296.41
296.409
296.407
296.406
296.402
296.403
296.397
296.401
296.39
296.4
296.383
296.394
296.38
296.38
296.371
284.551
286.321
287.578
288.669
289.604
290.456
291.165
291.788
292.319
292.816
293.259
293.658
293.982
294.245
294.445
294.613
294.752
294.878
294.985
295.076
295.146
295.199
295.234
295.258
295.272
295.281
295.285
295.288
295.289
295.29
295.29
295.29
295.29
295.29
295.29
295.289
295.289
295.289
295.288
295.288
295.287
295.287
295.286
295.285
295.285
295.284
295.283
295.282
295.282
295.281
295.28
295.279
295.278
295.277
295.276
295.275
295.274
295.273
295.272
295.271
295.27
295.269
295.268
295.267
295.266
295.264
295.263
295.262
295.261
295.259
295.258
295.256
295.255
295.253
295.252
295.25
295.249
295.246
295.246
295.242
295.243
295.236
295.241
295.23
295.238
295.223
295.233
295.221
295.217
295.208
283.774
285.206
286.293
287.259
288.128
288.956
289.666
290.28
290.791
291.265
291.7
292.111
292.46
292.746
292.962
293.137
293.281
293.412
293.529
293.632
293.715
293.78
293.825
293.856
293.876
293.888
293.894
293.898
293.9
293.901
293.901
293.902
293.901
293.901
293.901
293.901
293.9
293.9
293.899
293.899
293.898
293.898
293.897
293.897
293.896
293.895
293.895
293.894
293.893
293.892
293.892
293.891
293.89
293.889
293.888
293.887
293.887
293.886
293.885
293.884
293.883
293.882
293.881
293.879
293.878
293.877
293.876
293.875
293.874
293.872
293.871
293.87
293.868
293.867
293.865
293.863
293.862
293.86
293.86
293.856
293.857
293.851
293.855
293.845
293.852
293.839
293.846
293.837
293.831
293.823
283.235
284.287
285.134
285.924
286.679
287.46
288.157
288.758
289.239
289.677
290.091
290.506
290.877
291.191
291.426
291.61
291.758
291.895
292.02
292.138
292.236
292.317
292.375
292.417
292.443
292.46
292.469
292.475
292.477
292.479
292.479
292.48
292.48
292.48
292.48
292.479
292.479
292.479
292.478
292.478
292.478
292.477
292.477
292.476
292.475
292.475
292.474
292.474
292.473
292.472
292.472
292.471
292.47
292.469
292.468
292.468
292.467
292.466
292.465
292.464
292.463
292.462
292.461
292.46
292.459
292.458
292.457
292.456
292.454
292.453
292.452
292.45
292.449
292.448
292.446
292.445
292.444
292.441
292.441
292.437
292.438
292.432
292.435
292.427
292.432
292.422
292.426
292.42
292.411
292.403
282.988
283.725
284.329
284.907
285.514
286.214
286.883
287.461
287.904
288.291
288.669
289.072
289.458
289.793
290.047
290.238
290.387
290.524
290.656
290.785
290.899
290.995
291.067
291.119
291.153
291.175
291.187
291.194
291.198
291.2
291.201
291.201
291.201
291.201
291.201
291.201
291.2
291.2
291.199
291.199
291.199
291.198
291.198
291.197
291.196
291.196
291.195
291.195
291.194
291.193
291.193
291.192
291.191
291.19
291.19
291.189
291.188
291.187
291.186
291.185
291.185
291.184
291.183
291.182
291.181
291.18
291.179
291.177
291.176
291.175
291.174
291.173
291.171
291.17
291.169
291.167
291.166
291.164
291.163
291.16
291.161
291.156
291.158
291.151
291.155
291.147
291.148
291.145
291.137
291.13
282.825
283.372
283.762
284.138
284.581
285.183
285.805
286.355
286.755
287.088
287.415
287.795
288.181
288.532
288.799
288.996
289.142
289.278
289.412
289.549
289.676
289.786
289.871
289.934
289.975
290.002
290.018
290.028
290.032
290.035
290.036
290.037
290.037
290.037
290.037
290.036
290.036
290.036
290.035
290.035
290.035
290.034
290.034
290.033
290.033
290.032
290.032
290.031
290.03
290.03
290.029
290.028
290.028
290.027
290.026
290.026
290.025
290.024
290.023
290.022
290.022
290.021
290.02
290.019
290.018
290.017
290.016
290.015
290.014
290.013
290.011
290.01
290.009
290.008
290.006
290.005
290.004
290.002
290.001
289.998
289.998
289.994
289.995
289.99
289.991
289.986
289.985
289.983
289.975
289.969
282.768
283.214
283.446
283.643
283.928
284.419
284.983
285.493
285.848
286.119
286.39
286.732
287.108
287.461
287.735
287.93
288.071
288.2
288.332
288.473
288.608
288.729
288.825
288.896
288.944
288.976
288.995
289.006
289.011
289.014
289.015
289.016
289.016
289.016
289.016
289.015
289.015
289.015
289.014
289.014
289.013
289.013
289.012
289.012
289.011
289.011
289.01
289.01
289.009
289.008
289.008
289.007
289.006
289.006
289.005
289.004
289.004
289.003
289.002
289.001
289
289
288.999
288.998
288.997
288.996
288.995
288.994
288.993
288.992
288.991
288.99
288.989
288.987
288.986
288.985
288.984
288.982
288.981
288.978
288.979
288.975
288.976
288.971
288.972
288.968
288.966
288.965
288.959
288.954
282.722
283.121
283.247
283.308
283.454
283.846
284.345
284.811
285.116
285.33
285.544
285.844
286.198
286.545
286.815
287.004
287.137
287.256
287.383
287.524
287.664
287.791
287.895
287.973
288.026
288.061
288.082
288.094
288.1
288.104
288.105
288.106
288.106
288.106
288.106
288.106
288.105
288.105
288.104
288.104
288.104
288.103
288.103
288.102
288.102
288.101
288.101
288.1
288.1
288.099
288.098
288.098
288.097
288.097
288.096
288.095
288.094
288.094
288.093
288.092
288.092
288.091
288.09
288.089
288.088
288.087
288.086
288.085
288.084
288.083
288.082
288.081
288.08
288.079
288.078
288.076
288.075
288.074
288.073
288.07
288.07
288.067
288.067
288.063
288.063
288.06
288.058
288.057
288.051
288.048
282.714
283.094
283.154
283.117
283.158
283.464
283.898
284.313
284.565
284.724
284.885
285.142
285.469
285.796
286.053
286.229
286.348
286.456
286.575
286.712
286.852
286.981
287.087
287.168
287.223
287.259
287.281
287.294
287.301
287.304
287.305
287.306
287.306
287.306
287.305
287.305
287.305
287.304
287.304
287.303
287.303
287.302
287.302
287.301
287.301
287.3
287.3
287.299
287.299
287.298
287.297
287.297
287.296
287.296
287.295
287.294
287.294
287.293
287.292
287.292
287.291
287.29
287.289
287.289
287.288
287.287
287.286
287.285
287.284
287.283
287.282
287.281
287.28
287.279
287.278
287.277
287.276
287.274
287.273
287.271
287.271
287.268
287.268
287.265
287.264
287.262
287.26
287.259
287.255
287.253
282.719
283.085
283.102
283.002
282.975
283.216
283.588
283.946
284.145
284.254
284.371
284.591
284.886
285.187
285.421
285.578
285.682
285.778
285.889
286.019
286.155
286.281
286.386
286.465
286.52
286.556
286.577
286.59
286.597
286.6
286.601
286.602
286.602
286.602
286.601
286.601
286.6
286.6
286.599
286.599
286.598
286.598
286.598
286.597
286.597
286.596
286.595
286.595
286.594
286.594
286.593
286.593
286.592
286.592
286.591
286.59
286.59
286.589
286.588
286.588
286.587
286.586
286.585
286.585
286.584
286.583
286.582
286.581
286.581
286.58
286.579
286.578
286.577
286.576
286.575
286.573
286.572
286.571
286.57
286.568
286.567
286.565
286.564
286.562
286.561
286.559
286.557
286.556
286.552
286.552
282.736
283.083
283.068
282.934
282.874
283.069
283.386
283.682
283.828
283.895
283.979
284.169
284.43
284.698
284.902
285.036
285.124
285.209
285.311
285.434
285.562
285.681
285.78
285.855
285.906
285.94
285.96
285.972
285.978
285.982
285.983
285.983
285.983
285.983
285.983
285.983
285.982
285.982
285.981
285.981
285.981
285.98
285.98
285.979
285.979
285.978
285.978
285.977
285.977
285.976
285.976
285.975
285.975
285.974
285.973
285.973
285.972
285.971
285.971
285.97
285.969
285.969
285.968
285.967
285.966
285.966
285.965
285.964
285.963
285.962
285.961
285.96
285.959
285.958
285.957
285.956
285.955
285.953
285.952
285.95
285.949
285.947
285.946
285.944
285.943
285.941
285.938
285.937
285.933
285.933
282.787
283.101
283.06
282.912
282.848
283.012
283.279
283.511
283.607
283.64
283.704
283.867
284.095
284.323
284.492
284.6
284.672
284.746
284.838
284.95
285.067
285.175
285.264
285.33
285.376
285.406
285.423
285.434
285.439
285.442
285.443
285.443
285.443
285.442
285.442
285.442
285.441
285.441
285.44
285.44
285.439
285.439
285.438
285.438
285.437
285.437
285.436
285.436
285.435
285.434
285.434
285.433
285.433
285.432
285.431
285.431
285.43
285.429
285.429
285.428
285.427
285.426
285.426
285.425
285.424
285.423
285.422
285.421
285.42
285.419
285.418
285.417
285.416
285.415
285.414
285.413
285.412
285.41
285.409
285.408
285.406
285.405
285.403
285.402
285.4
285.398
285.396
285.394
285.391
285.392
282.83
283.093
283.029
282.891
282.839
282.99
283.206
283.379
283.431
283.446
283.498
283.642
283.835
284.022
284.154
284.237
284.294
284.359
284.442
284.542
284.645
284.739
284.814
284.871
284.909
284.933
284.948
284.956
284.961
284.963
284.963
284.964
284.963
284.963
284.963
284.962
284.962
284.961
284.961
284.96
284.96
284.959
284.959
284.958
284.958
284.957
284.956
284.956
284.955
284.954
284.954
284.953
284.952
284.952
284.951
284.95
284.95
284.949
284.948
284.947
284.946
284.945
284.945
284.944
284.943
284.942
284.941
284.94
284.939
284.938
284.936
284.935
284.934
284.933
284.932
284.93
284.929
284.927
284.926
284.924
284.923
284.921
284.92
284.918
284.916
284.914
284.911
284.909
284.906
284.907
282.924
283.119
283.041
282.922
282.895
283.029
283.196
283.312
283.332
283.336
283.383
283.507
283.663
283.807
283.903
283.963
284.007
284.062
284.134
284.22
284.305
284.382
284.443
284.487
284.517
284.536
284.546
284.553
284.555
284.557
284.557
284.557
284.557
284.556
284.556
284.555
284.554
284.554
284.553
284.552
284.552
284.551
284.55
284.55
284.549
284.548
284.547
284.547
284.546
284.545
284.544
284.543
284.542
284.542
284.541