/*--------------------------------*- C++ -*----------------------------------*\
  =========                 |
  \\      /  F ield         | OpenFOAM: The Open Source CFD Toolbox
   \\    /   O peration     | Website:  https://openfoam.org
    \\  /    A nd           | Version:  7
     \\/     M anipulation  |
\*---------------------------------------------------------------------------*/
FoamFile
{
    version     2.0;
    format      ascii;
    class       volScalarField;
    location    "0.6";
    object      alphat;
}
// * * * * * * * * * * * * * * * * * * * * * * * * * * * * * * * * * * * * * //

dimensions      [1 -1 -1 0 0 0 0];

internalField   nonuniform List<scalar> 
6000
(
0.000142898
0.000332359
0.000539563
0.000733838
0.00090525
0.00105377
0.00118146
0.00128773
0.00137369
0.00144074
0.00149247
0.00153022
0.0015575
0.00157414
0.00158498
0.00158768
0.00158654
0.00158306
0.00157558
0.00156565
0.00155421
0.00154163
0.00152822
0.00151421
0.00149987
0.00148543
0.00147107
0.00145686
0.00144279
0.00142885
0.00141509
0.00140164
0.00138859
0.00137605
0.00136401
0.00135247
0.0013414
0.00133077
0.00132055
0.00131073
0.00130132
0.00129231
0.00128372
0.00127552
0.00126767
0.00126017
0.00125303
0.00124625
0.00123984
0.00123376
0.00122797
0.00122243
0.00121713
0.00121204
0.00120716
0.00120248
0.00119799
0.00119368
0.00118956
0.0011856
0.0011818
0.00117815
0.00117464
0.00117125
0.00116798
0.00116482
0.00116175
0.00115879
0.00115592
0.00115316
0.00115049
0.00114792
0.00114543
0.00114302
0.00114069
0.00113843
0.00113624
0.00113412
0.00113206
0.00113006
0.00112811
0.00112619
0.0011243
0.00112244
0.00112061
0.00111879
0.00111704
0.00111526
0.00111361
0.00111184
0.00111033
0.00110851
0.00110722
0.00110522
0.00110414
0.00110199
0.00110075
0.00109887
0.0010954
0.00110159
8.32473e-06
2.0615e-05
4.52519e-05
8.00673e-05
0.000125775
0.000177718
0.000235268
0.000294483
0.000353406
0.000407726
0.000458073
0.000503771
0.000546052
0.000583532
0.000616519
0.000644465
0.00066797
0.00068811
0.000705266
0.000719717
0.000731668
0.000741363
0.000749103
0.000755228
0.000760042
0.000763867
0.000766885
0.000769202
0.000770837
0.000771956
0.000772587
0.000773015
0.000773233
0.000773136
0.000772969
0.000772746
0.000772458
0.000772244
0.000772166
0.000772138
0.000772076
0.000772
0.000771905
0.000771809
0.00077176
0.000771786
0.000771891
0.00077207
0.000772322
0.00077265
0.000773049
0.000773502
0.000773987
0.000774492
0.000775013
0.000775552
0.000776107
0.000776671
0.000777237
0.000777799
0.000778354
0.000778899
0.000779437
0.000779975
0.000780512
0.000781041
0.000781546
0.000782018
0.000782461
0.000782897
0.000783349
0.00078382
0.000784281
0.000784685
0.000784996
0.000785212
0.000785363
0.000785503
0.000785678
0.000785911
0.000786204
0.000786529
0.000786859
0.000787171
0.000787448
0.000787685
0.000787863
0.000787994
0.000788088
0.000788149
0.000788157
0.000788174
0.000788125
0.000788124
0.000788031
0.00078804
0.000787874
0.000787899
0.000787509
0.000787949
7.34014e-06
7.3693e-06
7.5821e-06
8.47754e-06
1.08975e-05
1.53979e-05
2.22261e-05
3.13716e-05
4.34529e-05
5.66279e-05
7.06182e-05
8.50529e-05
0.000100363
0.000116327
0.000132524
0.000148187
0.000162887
0.000176735
0.000190089
0.000203107
0.000215659
0.000227406
0.000238089
0.000247703
0.000256437
0.000264578
0.000272307
0.000279569
0.000286204
0.000292092
0.000297271
0.000301903
0.000306158
0.000310091
0.000313716
0.000316966
0.000319854
0.000322411
0.000324749
0.000326917
0.00032897
0.00033086
0.000332573
0.000334047
0.000335333
0.000336443
0.000337481
0.00033845
0.000339428
0.000340377
0.000341346
0.000342273
0.000343214
0.000344108
0.000345039
0.000345937
0.000346895
0.000347812
0.000348782
0.0003497
0.000350669
0.000351604
0.000352597
0.000353576
0.000354626
0.000355656
0.000356773
0.000357836
0.000359
0.000360099
0.000361331
0.000362498
0.000363818
0.000365034
0.000366405
0.000367614
0.000368989
0.000370163
0.000371542
0.000372701
0.000374142
0.000375362
0.000376936
0.000378264
0.000379977
0.000381355
0.000383136
0.000384483
0.000386278
0.000387568
0.000389396
0.000390663
0.000392578
0.000393859
0.000395897
0.000397198
0.000399378
0.000400713
0.000403088
0.000404576
7.33872e-06
7.34375e-06
7.34721e-06
7.35227e-06
7.36597e-06
7.40297e-06
7.49505e-06
7.70418e-06
8.17482e-06
8.91782e-06
1.03587e-05
1.1762e-05
1.41909e-05
1.64878e-05
1.98626e-05
2.31497e-05
2.69076e-05
3.0298e-05
3.40653e-05
3.78286e-05
4.21349e-05
4.63238e-05
5.05834e-05
5.43978e-05
5.81735e-05
6.17057e-05
6.54921e-05
6.92264e-05
7.30894e-05
7.65807e-05
7.98852e-05
8.27532e-05
8.5615e-05
8.83354e-05
9.12325e-05
9.395e-05
9.66391e-05
9.89459e-05
0.000101157
0.000103084
0.000105101
0.000106979
0.000108964
0.000110696
0.00011239
0.000113745
0.000115099
0.000116236
0.000117525
0.000118699
0.000120042
0.000121186
0.000122388
0.000123307
0.000124307
0.000125112
0.000126109
0.000126958
0.00012798
0.000128781
0.000129682
0.000130328
0.000131087
0.000131641
0.000132394
0.000132984
0.000133793
0.000134382
0.000135132
0.00013561
0.000136269
0.000136695
0.000137377
0.000137851
0.000138596
0.000139082
0.000139801
0.000140193
0.000140816
0.000141133
0.000141762
0.000142135
0.000142876
0.000143329
0.000144116
0.000144548
0.000145296
0.000145684
0.000146422
0.00014681
0.000147596
0.000148023
0.000148848
0.000149269
0.000150098
0.000150544
0.00015143
0.000151942
0.000152965
0.000153586
7.33825e-06
7.34234e-06
7.34462e-06
7.34742e-06
7.35364e-06
7.36106e-06
7.37619e-06
7.388e-06
7.41242e-06
7.43125e-06
7.47132e-06
7.50377e-06
7.57367e-06
7.6352e-06
7.77078e-06
7.88681e-06
8.13047e-06
8.30664e-06
8.66282e-06
8.91864e-06
9.43541e-06
9.82418e-06
1.04919e-05
1.09651e-05
1.16835e-05
1.22012e-05
1.29266e-05
1.35469e-05
1.44604e-05
1.52456e-05
1.61127e-05
1.67081e-05
1.74213e-05
1.80586e-05
1.89294e-05
1.97046e-05
2.05853e-05
2.12792e-05
2.20218e-05
2.25934e-05
2.32672e-05
2.38691e-05
2.46255e-05
2.5295e-05
2.60176e-05
2.65549e-05
2.70916e-05
2.74931e-05
2.80163e-05
2.85348e-05
2.92057e-05
2.97812e-05
3.03684e-05
3.07861e-05
3.12499e-05
3.16328e-05
3.21307e-05
3.25724e-05
3.3129e-05
3.36153e-05
3.41611e-05
3.4549e-05
3.49373e-05
3.52016e-05
3.55896e-05
3.5965e-05
3.64826e-05
3.69028e-05
3.73525e-05
3.76472e-05
3.79867e-05
3.82211e-05
3.8564e-05
3.88572e-05
3.92933e-05
3.96684e-05
4.01194e-05
4.04048e-05
4.06897e-05
4.08299e-05
4.10724e-05
4.1301e-05
4.17401e-05
4.21139e-05
4.25709e-05
4.28397e-05
4.31443e-05
4.3292e-05
4.35461e-05
4.37097e-05
4.40647e-05
4.43481e-05
4.48018e-05
4.50737e-05
4.54536e-05
4.56389e-05
4.59795e-05
4.61768e-05
4.65844e-05
4.68733e-05
7.33787e-06
7.34166e-06
7.34354e-06
7.34551e-06
7.35023e-06
7.35682e-06
7.37025e-06
7.38026e-06
7.40088e-06
7.41441e-06
7.44127e-06
7.45845e-06
7.49145e-06
7.51138e-06
7.54394e-06
7.56749e-06
7.60831e-06
7.63125e-06
7.66506e-06
7.68947e-06
7.7338e-06
7.76137e-06
7.79557e-06
7.82126e-06
7.86672e-06
7.89869e-06
7.9321e-06
7.95628e-06
8.003e-06
8.04935e-06
8.09532e-06
8.11799e-06
8.14837e-06
8.18759e-06
8.24639e-06
8.29082e-06
8.33364e-06
8.36953e-06
8.4188e-06
8.46095e-06
8.50288e-06
8.53457e-06
8.58219e-06
8.64165e-06
8.71539e-06
8.77107e-06
8.80699e-06
8.82415e-06
8.85655e-06
8.90975e-06
8.98101e-06
9.03998e-06
9.08674e-06
9.12117e-06
9.16396e-06
9.21026e-06
9.25862e-06
9.30094e-06
9.35385e-06
9.4218e-06
9.50087e-06
9.56415e-06
9.60249e-06
9.62283e-06
9.6551e-06
9.71332e-06
9.79555e-06
9.87452e-06
9.94156e-06
9.98848e-06
1.00276e-05
1.00611e-05
1.01026e-05
1.01535e-05
1.02231e-05
1.0302e-05
1.03834e-05
1.04469e-05
1.049e-05
1.0513e-05
1.05371e-05
1.0576e-05
1.06439e-05
1.07328e-05
1.08314e-05
1.09172e-05
1.09804e-05
1.10135e-05
1.10339e-05
1.10548e-05
1.11058e-05
1.11837e-05
1.1292e-05
1.13704e-05
1.14501e-05
1.14888e-05
1.15448e-05
1.15826e-05
1.16454e-05
1.17506e-05
7.33787e-06
7.34168e-06
7.34357e-06
7.34555e-06
7.35026e-06
7.35685e-06
7.37029e-06
7.3803e-06
7.4009e-06
7.4145e-06
7.44118e-06
7.45855e-06
7.4914e-06
7.51159e-06
7.54386e-06
7.56762e-06
7.6083e-06
7.63139e-06
7.66492e-06
7.68962e-06
7.73366e-06
7.76144e-06
7.79538e-06
7.82123e-06
7.86662e-06
7.89863e-06
7.93168e-06
7.95607e-06
8.00279e-06
8.04935e-06
8.09486e-06
8.11735e-06
8.1477e-06
8.18751e-06
8.24598e-06
8.29048e-06
8.33282e-06
8.36898e-06
8.41807e-06
8.46051e-06
8.50213e-06
8.53403e-06
8.58153e-06
8.64108e-06
8.71458e-06
8.77038e-06
8.80592e-06
8.82313e-06
8.85557e-06
8.90912e-06
8.98e-06
9.03914e-06
9.08544e-06
9.11999e-06
9.16233e-06
9.20881e-06
9.25679e-06
9.29915e-06
9.35154e-06
9.41952e-06
9.49819e-06
9.56123e-06
9.59881e-06
9.61888e-06
9.65081e-06
9.70891e-06
9.7903e-06
9.86896e-06
9.93513e-06
9.98167e-06
1.00197e-05
1.00527e-05
1.00927e-05
1.01427e-05
1.02107e-05
1.02886e-05
1.03682e-05
1.04306e-05
1.04716e-05
1.0493e-05
1.0515e-05
1.05521e-05
1.06173e-05
1.07033e-05
1.07978e-05
1.08797e-05
1.09387e-05
1.09706e-05
1.09876e-05
1.10046e-05
1.10455e-05
1.11193e-05
1.122e-05
1.12921e-05
1.13613e-05
1.13941e-05
1.14412e-05
1.1473e-05
1.15309e-05
1.16149e-05
7.33827e-06
7.34242e-06
7.34472e-06
7.34751e-06
7.35373e-06
7.36116e-06
7.3763e-06
7.38812e-06
7.41252e-06
7.43133e-06
7.47135e-06
7.50373e-06
7.57336e-06
7.63474e-06
7.77007e-06
7.88593e-06
8.1294e-06
8.30529e-06
8.66118e-06
8.91654e-06
9.43037e-06
9.82289e-06
1.04857e-05
1.09632e-05
1.1677e-05
1.21973e-05
1.29183e-05
1.35436e-05
1.44536e-05
1.52427e-05
1.61053e-05
1.67039e-05
1.74136e-05
1.80547e-05
1.8922e-05
1.97005e-05
2.05778e-05
2.1275e-05
2.20148e-05
2.259e-05
2.32609e-05
2.38659e-05
2.46195e-05
2.52915e-05
2.60105e-05
2.65513e-05
2.70838e-05
2.74898e-05
2.80085e-05
2.85323e-05
2.91977e-05
2.97786e-05
3.03593e-05
3.07827e-05
3.12394e-05
3.16284e-05
3.21191e-05
3.25668e-05
3.31161e-05
3.36077e-05
3.41463e-05
3.45392e-05
3.49197e-05
3.5189e-05
3.55695e-05
3.59491e-05
3.64595e-05
3.68839e-05
3.73261e-05
3.76243e-05
3.79549e-05
3.81932e-05
3.85259e-05
3.88206e-05
3.92487e-05
3.9623e-05
4.00666e-05
4.03517e-05
4.06271e-05
4.07625e-05
4.09978e-05
4.1225e-05
4.16507e-05
4.20205e-05
4.24648e-05
4.27281e-05
4.30163e-05
4.31552e-05
4.3392e-05
4.3548e-05
4.38849e-05
4.41563e-05
4.4584e-05
4.48436e-05
4.51948e-05
4.53636e-05
4.56722e-05
4.58512e-05
4.62302e-05
4.64928e-05
7.33873e-06
7.34388e-06
7.34735e-06
7.3524e-06
7.36603e-06
7.40283e-06
7.4945e-06
7.70284e-06
8.17218e-06
8.91354e-06
1.03529e-05
1.17541e-05
1.41718e-05
1.64793e-05
1.98472e-05
2.31412e-05
2.68953e-05
3.02884e-05
3.40537e-05
3.78178e-05
4.21212e-05
4.63096e-05
5.05669e-05
5.43817e-05
5.81576e-05
6.16911e-05
6.54785e-05
6.92136e-05
7.30766e-05
7.65677e-05
7.98727e-05
8.27403e-05
8.56034e-05
8.83234e-05
9.12216e-05
9.39386e-05
9.66287e-05
9.89355e-05
0.000101148
0.000103075
0.000105093
0.00010697
0.000108956
0.000110686
0.000112381
0.000113736
0.00011509
0.000116227
0.000117516
0.00011869
0.000120032
0.000121178
0.000122376
0.000123298
0.000124293
0.000125101
0.000126093
0.000126945
0.000127962
0.000128764
0.000129661
0.000130306
0.000131062
0.000131616
0.000132364
0.000132954
0.000133758
0.000134345
0.00013509
0.000135566
0.000136219
0.000136641
0.000137315
0.000137785
0.000138521
0.000139003
0.000139711
0.000140098
0.000140709
0.000141018
0.000141632
0.000141996
0.000142719
0.000143161
0.000143926
0.000144345
0.000145067
0.000145439
0.000146146
0.000146515
0.000147263
0.000147667
0.000148446
0.000148838
0.000149614
0.000150027
0.000150849
0.000151322
0.000152275
0.000152851
7.34018e-06
7.36904e-06
7.58003e-06
8.47124e-06
1.08852e-05
1.53802e-05
2.22058e-05
3.13466e-05
4.34276e-05
5.66029e-05
7.05933e-05
8.5026e-05
0.000100334
0.000116298
0.000132497
0.000148163
0.000162868
0.000176718
0.000190072
0.000203089
0.00021564
0.000227386
0.000238069
0.000247683
0.00025642
0.000264562
0.000272292
0.000279555
0.000286192
0.000292079
0.000297259
0.000301891
0.000306147
0.00031008
0.000313707
0.000316956
0.000319846
0.000322401
0.000324742
0.000326908
0.000328963
0.000330851
0.000332565
0.000334037
0.000335326
0.000336432
0.000337473
0.000338439
0.00033942
0.000340365
0.000341336
0.00034226
0.000343202
0.000344094
0.000345023
0.00034592
0.000346875
0.000347792
0.00034876
0.000349674
0.000350644
0.000351571
0.000352568
0.000353536
0.00035459
0.000355608
0.000356729
0.000357778
0.000358948
0.000360027
0.000361268
0.000362411
0.000363741
0.000364928
0.000366312
0.000367487
0.000368876
0.000370011
0.000371406
0.000372518
0.000373977
0.000375141
0.000376736
0.000377998
0.000379734
0.000381037
0.000382842
0.000384102
0.000385922
0.000387111
0.000388965
0.000390118
0.000392055
0.00039321
0.000395256
0.000396432
0.000398581
0.000399814
0.000402103
0.000403511
8.3047e-06
2.0567e-05
4.51955e-05
8.00084e-05
0.000125719
0.000177666
0.000235219
0.000294437
0.000353365
0.000407688
0.000458037
0.000503736
0.000546019
0.000583502
0.000616494
0.000644445
0.000667953
0.000688095
0.000705252
0.000719703
0.000731655
0.000741351
0.000749092
0.000755218
0.000760035
0.000763861
0.000766879
0.000769197
0.000770833
0.000771953
0.000772584
0.000773012
0.000773231
0.000773134
0.000772967
0.000772744
0.000772457
0.000772242
0.000772163
0.000772135
0.000772074
0.000771997
0.000771902
0.000771806
0.000771756
0.000771781
0.000771885
0.000772064
0.000772316
0.000772643
0.000773041
0.000773493
0.000773977
0.000774481
0.000775002
0.000775539
0.000776093
0.000776655
0.00077722
0.000777781
0.000778334
0.000778877
0.000779414
0.000779949
0.000780483
0.000781009
0.000781512
0.000781981
0.000782419
0.000782851
0.000783299
0.000783765
0.000784221
0.000784619
0.000784924
0.000785132
0.000785275
0.000785407
0.00078557
0.000785794
0.000786074
0.000786388
0.000786703
0.000787002
0.000787267
0.000787476
0.000787635
0.000787756
0.000787825
0.000787864
0.000787837
0.000787831
0.000787745
0.000787712
0.000787574
0.000787532
0.000787311
0.000787244
0.00078672
0.000787055
0.000142894
0.000332366
0.000539577
0.000733855
0.00090527
0.0010538
0.00118149
0.00128777
0.00137372
0.00144078
0.00149251
0.00153026
0.00155755
0.00157418
0.00158502
0.00158772
0.00158659
0.00158311
0.00157562
0.0015657
0.00155425
0.00154167
0.00152826
0.00151426
0.00149991
0.00148547
0.00147111
0.0014569
0.00144282
0.00142888
0.00141512
0.00140166
0.00138862
0.00137607
0.00136403
0.00135249
0.00134142
0.00133078
0.00132057
0.00131075
0.00130133
0.00129233
0.00128374
0.00127553
0.00126768
0.00126018
0.00125304
0.00124627
0.00123986
0.00123378
0.00122799
0.00122246
0.00121716
0.00121207
0.0012072
0.00120252
0.00119803
0.00119373
0.00118961
0.00118565
0.00118186
0.00117822
0.00117472
0.00117134
0.00116807
0.00116492
0.00116186
0.00115891
0.00115606
0.00115331
0.00115065
0.00114809
0.00114562
0.00114323
0.00114092
0.00113868
0.00113652
0.00113443
0.0011324
0.00113043
0.00112851
0.00112663
0.00112478
0.00112297
0.00112119
0.00111944
0.00111774
0.00111604
0.00111444
0.00111278
0.00111132
0.00110966
0.00110839
0.00110661
0.00110559
0.00110355
0.00110258
0.00110058
0.00109765
0.00110266
0.00293233
0.00329298
0.00336312
0.00335533
0.00333779
0.00331536
0.00329478
0.00327674
0.00325962
0.00324264
0.00322637
0.00321137
0.00319792
0.00318598
0.0031753
0.00316556
0.00315657
0.00314838
0.00314119
0.00313528
0.00313089
0.00312773
0.00312602
0.00312548
0.00312587
0.00312703
0.00312881
0.00313105
0.00313359
0.00313626
0.00313892
0.00314148
0.00314387
0.0031461
0.0031482
0.00315021
0.00315214
0.00315405
0.00315594
0.00315783
0.00315973
0.00316167
0.00316367
0.00316576
0.00316798
0.00317037
0.00317296
0.00317577
0.00317881
0.00318207
0.00318556
0.00318929
0.00319327
0.00319752
0.00320205
0.00320686
0.00321194
0.00321728
0.00322285
0.00322862
0.00323459
0.00324072
0.003247
0.00325339
0.00325988
0.00326643
0.00327301
0.0032796
0.00328617
0.00329272
0.00329922
0.00330567
0.00331206
0.00331838
0.00332464
0.00333082
0.00333695
0.00334301
0.00334899
0.00335492
0.00336077
0.00336655
0.00337226
0.00337792
0.00338352
0.00338907
0.00339455
0.00339997
0.00340534
0.00341064
0.00341589
0.00342109
0.00342623
0.00343132
0.00343635
0.00344133
0.00344626
0.00345114
0.00345598
0.00346077
0.00346551
0.00347019
0.00347483
0.00347941
0.00348394
0.00348843
0.00349288
0.00349729
0.00350166
0.003506
0.00351029
0.00351454
0.00351874
0.00352288
0.00352698
0.00353103
0.00353505
0.00353905
0.00354303
0.00354698
0.0035509
0.00355478
0.00355861
0.00356239
0.00356614
0.00356985
0.00357352
0.00357717
0.00358078
0.00358437
0.00358793
0.00359146
0.00359496
0.00359843
0.00360187
0.00360527
0.00360864
0.00361199
0.0036153
0.00361859
0.00362186
0.0036251
0.00362831
0.00363148
0.00363463
0.00363776
0.00364086
0.00364394
0.003647
0.00365004
0.00365305
0.00365602
0.00365897
0.00366189
0.00366479
0.00366766
0.00367052
0.00367336
0.0036762
0.00367902
0.00368181
0.00368458
0.00368729
0.00368998
0.00369265
0.00369531
0.00369797
0.00370062
0.00370325
0.00370585
0.00370841
0.00371094
0.00371346
0.00371596
0.00371847
0.00372096
0.00372344
0.00372589
0.00372831
0.00373069
0.00373305
0.0037354
0.00373775
0.0037401
0.00374244
0.00374477
0.00374706
0.00374933
0.00375157
0.00375378
0.00375599
0.00375818
0.00376038
0.00376257
0.00376474
0.0037669
0.00376904
0.00377116
0.00377325
0.00377533
0.0037774
0.00377946
0.0037815
0.00378353
0.00378553
0.00378753
0.0037895
0.00379146
0.00379341
0.00379535
0.00379728
0.00379921
0.00380113
0.00380302
0.0038049
0.00380676
0.0038086
0.00381044
0.00381226
0.0038141
0.0038159
0.0038177
0.00381946
0.00382122
0.00382296
0.00382469
0.00382641
0.00382812
0.00382983
0.00383154
0.00383322
0.00383489
0.00383653
0.00383816
0.00383979
0.0038414
0.003843
0.0038446
0.0038462
0.00384779
0.00384936
0.00385092
0.00385246
0.003854
0.00385552
0.00385704
0.00385853
0.00386002
0.00386148
0.00386296
0.00386441
0.00386586
0.00386731
0.00386875
0.00387017
0.00387158
0.003873
0.0038744
0.00387578
0.00387713
0.00387848
0.0038798
0.00388113
0.00388245
0.00388378
0.0038851
0.00388642
0.00388771
0.00388899
0.00389025
0.00389151
0.00389277
0.00389403
0.00389529
0.00389654
0.00389775
0.00389895
0.00390013
0.0039013
0.00390248
0.00390366
0.00390485
0.003906
0.00390714
0.00390826
0.00390937
0.00391047
0.00391159
0.0039127
0.0039138
0.00391489
0.00391596
0.00391702
0.00391808
0.00391913
0.00392018
0.00392122
0.00392225
0.00392327
0.00392428
0.00392528
0.00392627
0.00392725
0.00392822
0.00392917
0.00393011
0.00393105
0.00393197
0.00393289
0.00393381
0.00393473
0.00393564
0.00393655
0.00393745
0.00393834
0.00393922
0.00394009
0.00394095
0.0039418
0.00394264
0.00394348
0.0039443
0.00394511
0.00394591
0.00394669
0.00394748
0.00394827
0.00394907
0.00394987
0.00395064
0.0039514
0.00395213
0.00395285
0.00395357
0.00395428
0.003955
0.00395573
0.00395644
0.00395714
0.00395783
0.00395852
0.00395921
0.00395989
0.00396056
0.00396122
0.00396186
0.00396249
0.0039631
0.0039637
0.00396431
0.0039649
0.00396549
0.00396608
0.00396666
0.00396724
0.00396782
0.00396839
0.00396894
0.00396948
0.00397002
0.00397055
0.00397108
0.0039716
0.00397211
0.00397261
0.0039731
0.0039736
0.00397409
0.00397457
0.00397503
0.00397546
0.00397589
0.0039763
0.00397674
0.00397718
0.00397761
0.00397804
0.00397845
0.00397885
0.00397924
0.00397962
0.00398
0.00398036
0.00398072
0.00398103
0.00398132
0.00398156
0.00398176
0.00398185
0.00398193
0.00398176
0.00398163
0.00398082
0.00398034
0.00397836
0.00397667
0.00397237
0.00396968
0.00394467
0.00396708
0.00176043
0.0021806
0.00244399
0.00259037
0.0026598
0.00268791
0.00268745
0.00267957
0.00266659
0.00264812
0.00262814
0.00260793
0.00258835
0.00256991
0.00255278
0.0025369
0.00252206
0.00250804
0.00249475
0.00248223
0.00247062
0.00246003
0.00245048
0.00244185
0.00243399
0.00242672
0.00241991
0.00241346
0.0024073
0.00240137
0.00239561
0.00239
0.00238448
0.00237903
0.00237365
0.00236832
0.00236308
0.00235793
0.00235292
0.00234807
0.0023434
0.00233893
0.00233467
0.00233062
0.00232679
0.00232319
0.00231982
0.0023167
0.00231382
0.00231117
0.00230876
0.00230656
0.00230459
0.00230282
0.00230127
0.00229993
0.00229878
0.00229783
0.00229706
0.00229645
0.002296
0.00229569
0.0022955
0.00229543
0.00229546
0.00229557
0.00229575
0.00229598
0.00229627
0.00229658
0.00229693
0.00229731
0.0022977
0.0022981
0.00229853
0.00229897
0.00229942
0.00229989
0.00230038
0.00230088
0.0023014
0.00230193
0.00230247
0.00230303
0.0023036
0.00230419
0.00230479
0.00230541
0.00230604
0.00230668
0.00230733
0.002308
0.00230869
0.00230939
0.0023101
0.00231082
0.00231155
0.0023123
0.00231306
0.00231383
0.00231462
0.00231542
0.00231623
0.00231705
0.00231788
0.00231872
0.00231957
0.00232043
0.0023213
0.00232218
0.00232308
0.002324
0.00232492
0.00232585
0.00232679
0.00232772
0.00232867
0.00232963
0.0023306
0.00233159
0.00233259
0.0023336
0.00233462
0.00233564
0.00233667
0.00233771
0.00233876
0.00233981
0.00234087
0.00234194
0.00234301
0.0023441
0.0023452
0.00234631
0.00234742
0.00234854
0.00234967
0.0023508
0.00235194
0.00235308
0.00235424
0.0023554
0.00235657
0.00235775
0.00235893
0.00236011
0.0023613
0.0023625
0.00236371
0.00236492
0.00236615
0.00236737
0.0023686
0.00236984
0.00237108
0.00237232
0.00237356
0.00237481
0.00237607
0.00237735
0.00237863
0.00237991
0.0023812
0.00238249
0.00238377
0.00238506
0.00238635
0.00238766
0.00238897
0.00239029
0.00239161
0.00239293
0.00239425
0.00239557
0.00239689
0.00239824
0.00239958
0.00240093
0.00240228
0.00240363
0.00240498
0.00240632
0.00240767
0.00240903
0.0024104
0.00241177
0.00241315
0.00241453
0.0024159
0.00241727
0.00241865
0.00242002
0.0024214
0.00242279
0.00242418
0.00242557
0.00242696
0.00242836
0.00242976
0.00243115
0.00243255
0.00243395
0.00243535
0.00243675
0.00243815
0.00243955
0.00244097
0.00244236
0.00244376
0.00244517
0.00244657
0.00244798
0.0024494
0.00245081
0.00245222
0.00245363
0.00245503
0.00245644
0.00245785
0.00245926
0.00246067
0.00246209
0.00246351
0.00246491
0.00246632
0.00246773
0.00246913
0.00247055
0.00247195
0.00247336
0.00247477
0.00247618
0.0024776
0.002479
0.00248039
0.00248179
0.00248319
0.0024846
0.002486
0.00248741
0.00248881
0.00249021
0.00249161
0.00249301
0.00249441
0.0024958
0.0024972
0.00249859
0.00249997
0.00250136
0.00250275
0.00250414
0.00250552
0.0025069
0.00250829
0.00250967
0.00251105
0.00251244
0.00251382
0.0025152
0.00251657
0.00251793
0.00251929
0.00252066
0.00252202
0.00252338
0.00252475
0.00252611
0.00252747
0.00252882
0.00253016
0.00253151
0.00253286
0.00253421
0.00253557
0.00253692
0.00253826
0.00253959
0.00254092
0.00254224
0.00254357
0.0025449
0.00254624
0.00254756
0.00254888
0.00255019
0.00255149
0.0025528
0.00255411
0.00255542
0.00255673
0.00255803
0.00255932
0.00256061
0.0025619
0.00256319
0.00256448
0.00256577
0.00256705
0.00256832
0.0025696
0.00257087
0.00257214
0.0025734
0.00257466
0.00257592
0.00257717
0.00257841
0.00257966
0.0025809
0.00258214
0.00258338
0.00258461
0.00258584
0.00258707
0.0025883
0.00258953
0.00259075
0.00259197
0.00259318
0.00259438
0.00259559
0.00259679
0.00259798
0.00259917
0.00260036
0.00260154
0.00260273
0.00260392
0.00260512
0.0026063
0.00260748
0.00260864
0.00260978
0.00261095
0.0026121
0.00261325
0.00261442
0.00261558
0.00261673
0.00261787
0.00261901
0.00262016
0.0026213
0.00262244
0.00262357
0.0026247
0.00262583
0.00262695
0.00262807
0.00262919
0.0026303
0.00263141
0.00263252
0.00263362
0.00263473
0.00263584
0.00263695
0.00263805
0.00263915
0.00264024
0.00264134
0.00264243
0.00264352
0.00264461
0.00264569
0.00264677
0.00264786
0.00264895
0.00265003
0.0026511
0.00265215
0.00265321
0.00265426
0.00265532
0.00265638
0.00265744
0.00265849
0.00265954
0.00266057
0.0026616
0.00266262
0.00266364
0.00266465
0.00266564
0.00266663
0.00266756
0.00266851
0.00266937
0.00267028
0.002671
0.00267194
0.00267229
0.00267334
0.00267286
0.00267459
0.00267077
0.00267575
0.00266582
0.00268156
0.000835402
0.000987466
0.00115927
0.00132562
0.00147177
0.00159356
0.00168816
0.00176175
0.0018204
0.00186689
0.0019029
0.00192979
0.00194919
0.00196296
0.00197295
0.00198065
0.00198689
0.00199189
0.00199541
0.0019974
0.00199758
0.00199653
0.00199516
0.00199319
0.00199121
0.00198942
0.00198779
0.00198629
0.00198489
0.00198362
0.00198244
0.0019814
0.00198068
0.00198009
0.00197962
0.00197921
0.00197881
0.00197838
0.00197793
0.00197746
0.00197701
0.00197659
0.00197623
0.00197593
0.00197569
0.0019755
0.00197536
0.00197526
0.0019752
0.00197516
0.00197514
0.00197512
0.00197509
0.00197503
0.0019749
0.00197472
0.0019745
0.00197423
0.00197393
0.00197359
0.00197324
0.00197288
0.00197254
0.00197222
0.00197193
0.00197169
0.00197148
0.00197131
0.00197117
0.00197107
0.001971
0.00197095
0.00197091
0.00197088
0.00197086
0.00197086
0.00197086
0.00197087
0.00197089
0.00197092
0.00197096
0.001971
0.00197105
0.0019711
0.00197117
0.00197124
0.00197133
0.00197142
0.00197151
0.00197162
0.00197173
0.00197186
0.00197199
0.00197213
0.00197228
0.00197243
0.00197259
0.00197276
0.00197294
0.00197312
0.00197332
0.00197353
0.00197374
0.00197396
0.00197418
0.00197441
0.00197464
0.00197489
0.00197514
0.0019754
0.00197567
0.00197595
0.00197624
0.00197653
0.00197682
0.00197712
0.00197743
0.00197774
0.00197806
0.00197839
0.00197874
0.00197909
0.00197945
0.00197981
0.00198018
0.00198055
0.00198093
0.00198132
0.00198171
0.0019821
0.00198251
0.00198292
0.00198334
0.00198377
0.00198421
0.00198465
0.00198509
0.00198554
0.00198599
0.00198646
0.00198693
0.0019874
0.00198788
0.00198837
0.00198886
0.00198936
0.00198987
0.00199038
0.00199089
0.00199142
0.00199195
0.00199248
0.00199302
0.00199357
0.00199411
0.00199466
0.00199522
0.00199578
0.00199635
0.00199693
0.00199753
0.00199812
0.00199872
0.00199931
0.00199991
0.00200051
0.00200112
0.00200173
0.00200236
0.002003
0.00200363
0.00200427
0.0020049
0.00200554
0.00200618
0.00200683
0.0020075
0.00200817
0.00200884
0.00200951
0.00201019
0.00201086
0.00201154
0.00201222
0.00201291
0.00201361
0.00201432
0.00201503
0.00201573
0.00201644
0.00201714
0.00201786
0.00201857
0.0020193
0.00202003
0.00202077
0.00202151
0.00202225
0.00202299
0.00202374
0.00202448
0.00202523
0.00202599
0.00202674
0.00202751
0.00202827
0.00202903
0.00202979
0.00203056
0.00203133
0.0020321
0.00203289
0.00203367
0.00203446
0.00203525
0.00203604
0.00203683
0.00203762
0.00203842
0.00203922
0.00204002
0.00204083
0.00204163
0.00204244
0.00204324
0.00204405
0.00204486
0.00204568
0.0020465
0.00204732
0.00204814
0.00204896
0.00204978
0.00205061
0.00205143
0.00205226
0.00205308
0.00205391
0.00205474
0.00205558
0.00205642
0.00205726
0.0020581
0.00205894
0.00205979
0.00206063
0.00206147
0.00206231
0.00206316
0.00206399
0.00206484
0.0020657
0.00206655
0.0020674
0.00206825
0.0020691
0.00206995
0.00207081
0.00207167
0.00207253
0.00207339
0.00207424
0.00207509
0.00207595
0.0020768
0.00207766
0.00207853
0.00207939
0.00208025
0.00208111
0.00208197
0.00208283
0.00208369
0.00208456
0.00208543
0.0020863
0.00208716
0.00208803
0.00208889
0.00208975
0.00209061
0.00209148
0.00209235
0.00209322
0.00209408
0.00209494
0.0020958
0.00209667
0.00209753
0.00209839
0.00209926
0.00210012
0.00210099
0.00210185
0.00210272
0.00210359
0.00210446
0.00210532
0.00210618
0.00210704
0.0021079
0.00210877
0.00210964
0.00211051
0.00211137
0.00211222
0.00211308
0.00211393
0.00211478
0.00211564
0.00211649
0.00211735
0.00211821
0.00211907
0.00211992
0.00212078
0.00212163
0.00212249
0.00212335
0.0021242
0.00212505
0.0021259
0.00212675
0.00212759
0.00212844
0.00212928
0.00213012
0.00213097
0.00213181
0.00213266
0.00213351
0.00213435
0.00213519
0.00213602
0.00213685
0.00213769
0.00213852
0.00213936
0.0021402
0.00214104
0.00214187
0.0021427
0.00214354
0.00214437
0.0021452
0.00214602
0.00214685
0.00214767
0.0021485
0.00214932
0.00215014
0.00215095
0.00215176
0.00215258
0.0021534
0.00215421
0.00215503
0.00215584
0.00215665
0.00215745
0.00215827
0.00215907
0.00215988
0.00216069
0.00216149
0.00216229
0.00216308
0.00216389
0.00216469
0.00216549
0.00216628
0.00216706
0.00216783
0.00216861
0.00216938
0.00217017
0.00217094
0.00217173
0.0021725
0.00217328
0.00217403
0.00217481
0.00217554
0.00217633
0.00217705
0.00217785
0.00217853
0.00217934
0.00217998
0.00218079
0.00218142
0.00218228
0.00218289
0.00218377
0.00218437
0.00218558
0.00218534
0.00218788
0.0021876
0.00219326
0.000307595
0.000338548
0.000380213
0.000432035
0.00049445
0.000563592
0.000631819
0.000696882
0.00076127
0.000826413
0.000891161
0.00095321
0.00101074
0.00106285
0.00110955
0.00115159
0.00119001
0.00122574
0.00125902
0.00128947
0.00131642
0.00133955
0.00135902
0.00137542
0.00138957
0.00140217
0.00141371
0.00142446
0.00143456
0.0014441
0.00145318
0.00146196
0.00147062
0.00147931
0.00148813
0.00149708
0.00150609
0.00151504
0.00152383
0.0015324
0.00154069
0.00154869
0.00155643
0.00156391
0.00157116
0.00157818
0.00158497
0.0015915
0.00159775
0.0016037
0.00160934
0.00161464
0.00161959
0.00162416
0.00162834
0.00163213
0.00163553
0.00163856
0.00164122
0.00164355
0.00164556
0.00164728
0.00164875
0.00165002
0.00165113
0.00165213
0.00165307
0.00165399
0.00165491
0.00165586
0.00165682
0.00165782
0.00165884
0.00165987
0.00166092
0.00166198
0.00166305
0.00166413
0.00166521
0.0016663
0.0016674
0.00166849
0.00166958
0.00167068
0.00167178
0.00167289
0.001674
0.00167511
0.00167623
0.00167734
0.00167846
0.00167959
0.00168072
0.00168185
0.00168299
0.00168412
0.00168525
0.00168639
0.00168753
0.00168868
0.00168983
0.00169098
0.00169214
0.0016933
0.00169446
0.00169561
0.00169677
0.00169793
0.0016991
0.00170027
0.00170144
0.00170262
0.0017038
0.00170497
0.00170615
0.00170732
0.0017085
0.00170968
0.00171086
0.00171205
0.00171324
0.00171444
0.00171563
0.00171683
0.00171802
0.00171922
0.00172041
0.00172161
0.00172281
0.001724
0.0017252
0.00172641
0.00172761
0.00172882
0.00173003
0.00173124
0.00173244
0.00173365
0.00173486
0.00173607
0.00173728
0.00173849
0.00173971
0.00174092
0.00174213
0.00174334
0.00174455
0.00174577
0.00174698
0.0017482
0.00174942
0.00175063
0.00175185
0.00175307
0.00175428
0.00175549
0.0017567
0.00175792
0.00175913
0.00176035
0.00176158
0.0017628
0.00176402
0.00176524
0.00176645
0.00176766
0.00176887
0.00177009
0.00177131
0.00177254
0.00177375
0.00177497
0.00177618
0.00177738
0.00177859
0.00177981
0.00178103
0.00178225
0.00178347
0.00178468
0.00178589
0.00178709
0.0017883
0.0017895
0.00179071
0.00179192
0.00179314
0.00179435
0.00179556
0.00179677
0.00179796
0.00179916
0.00180036
0.00180156
0.00180276
0.00180397
0.00180518
0.00180638