/*--------------------------------*- C++ -*----------------------------------*\
  =========                 |
  \\      /  F ield         | OpenFOAM: The Open Source CFD Toolbox
   \\    /   O peration     | Website:  https://openfoam.org
    \\  /    A nd           | Version:  7
     \\/     M anipulation  |
\*---------------------------------------------------------------------------*/
FoamFile
{
    version     2.0;
    format      ascii;
    class       volScalarField;
    location    "1.35";
    object      T;
}
// * * * * * * * * * * * * * * * * * * * * * * * * * * * * * * * * * * * * * //

dimensions      [0 0 0 1 0 0 0];

internalField   nonuniform List<scalar> 
3600
(
283.146
283.136
283.131
283.129
283.123
283.109
283.094
283.085
283.083
283.086
283.091
283.096
283.101
283.107
283.112
283.118
283.123
283.129
283.136
283.143
283.149
283.154
283.157
283.16
283.162
283.164
283.165
283.166
283.166
283.166
283.166
283.165
283.164
283.163
283.162
283.16
283.158
283.156
283.154
283.151
283.149
283.147
283.145
283.143
283.141
283.139
283.138
283.136
283.135
283.133
283.134
283.131
283.135
283.127
283.144
283.112
283.177
283.054
283.296
282.836
283.146
283.136
283.129
283.127
283.122
283.109
283.09
283.072
283.06
283.055
283.056
283.06
283.067
283.074
283.082
283.09
283.099
283.108
283.117
283.126
283.136
283.145
283.156
283.168
283.178
283.187
283.195
283.202
283.21
283.221
283.233
283.245
283.255
283.263
283.268
283.27
283.269
283.265
283.261
283.255
283.249
283.242
283.234
283.225
283.216
283.207
283.199
283.191
283.184
283.174
283.166
283.153
283.147
283.131
283.132
283.112
283.127
283.096
283.132
283.081
283.146
283.136
283.129
283.127
283.122
283.11
283.091
283.072
283.058
283.051
283.05
283.053
283.059
283.066
283.073
283.081
283.088
283.096
283.104
283.113
283.123
283.131
283.139
283.148
283.158
283.169
283.181
283.192
283.201
283.207
283.213
283.219
283.228
283.24
283.255
283.272
283.287
283.3
283.31
283.315
283.316
283.314
283.31
283.305
283.298
283.29
283.28
283.27
283.261
283.252
283.243
283.233
283.223
283.211
283.197
283.184
283.171
283.163
283.151
283.15
283.146
283.136
283.129
283.127
283.122
283.11
283.091
283.071
283.058
283.051
283.05
283.053
283.059
283.066
283.073
283.08
283.087
283.095
283.103
283.112
283.121
283.129
283.137
283.144
283.152
283.163
283.176
283.188
283.198
283.204
283.208
283.211
283.215
283.224
283.237
283.254
283.273
283.291
283.307
283.319
283.327
283.33
283.329
283.326
283.322
283.317
283.311
283.302
283.293
283.283
283.273
283.265
283.258
283.251
283.241
283.232
283.216
283.203
283.189
283.175
283.146
283.136
283.129
283.127
283.122
283.11
283.091
283.072
283.058
283.051
283.05
283.054
283.059
283.066
283.074
283.081
283.088
283.095
283.104
283.113
283.122
283.13
283.137
283.144
283.153
283.164
283.177
283.189
283.199
283.205
283.208
283.21
283.215
283.224
283.237
283.254
283.273
283.292
283.309
283.321
283.328
283.331
283.331
283.328
283.324
283.32
283.314
283.306
283.296
283.286
283.276
283.268
283.262
283.256
283.248
283.239
283.225
283.21
283.196
283.178
283.146
283.136
283.129
283.127
283.122
283.11
283.091
283.072
283.058
283.051
283.051
283.054
283.059
283.066
283.074
283.081
283.088
283.096
283.104
283.114
283.123
283.131
283.138
283.145
283.153
283.165
283.178
283.19
283.2
283.205
283.208
283.211
283.216
283.225
283.239
283.256
283.276
283.294
283.311
283.323
283.33
283.332
283.331
283.329
283.325
283.32
283.314
283.306
283.296
283.286
283.276
283.269
283.262
283.257
283.249
283.24
283.225
283.21
283.196
283.178
283.146
283.136
283.129
283.127
283.122
283.11
283.091
283.072
283.058
283.051
283.051
283.054
283.059
283.066
283.074
283.081
283.088
283.096
283.104
283.114
283.123
283.131
283.138
283.145
283.153
283.165
283.178
283.19
283.2
283.205
283.208
283.211
283.216
283.225
283.239
283.256
283.276
283.295
283.311
283.323
283.33
283.332
283.332
283.329
283.325
283.321
283.315
283.307
283.297
283.286
283.277
283.269
283.263
283.258
283.249
283.24
283.225
283.21
283.196
283.179
283.146
283.136
283.129
283.127
283.122
283.11
283.091
283.072
283.058
283.051
283.05
283.054
283.059
283.066
283.074
283.081
283.088
283.095
283.104
283.113
283.123
283.131
283.138
283.144
283.153
283.164
283.177
283.189
283.199
283.205
283.208
283.211
283.215
283.224
283.238
283.255
283.274
283.293
283.309
283.322
283.329
283.332
283.332
283.329
283.326
283.321
283.315
283.307
283.298
283.287
283.278
283.27
283.263
283.258
283.25
283.241
283.227
283.212
283.198
283.18
283.146
283.136
283.129
283.127
283.122
283.11
283.091
283.072
283.058
283.051
283.05
283.053
283.059
283.066
283.073
283.08
283.087
283.095
283.103
283.113
283.122
283.13
283.137
283.144
283.152
283.163
283.176
283.188
283.198
283.205
283.208
283.211
283.216
283.225
283.238
283.255
283.274
283.292
283.308
283.321
283.328
283.331
283.33
283.328
283.324
283.319
283.313
283.305
283.295
283.285
283.276
283.268
283.26
283.254
283.244
283.234
283.22
283.206
283.192
283.178
283.146
283.136
283.129
283.127
283.122
283.11
283.091
283.072
283.058
283.051
283.05
283.053
283.059
283.066
283.073
283.081
283.088
283.096
283.105
283.114
283.124
283.132
283.14
283.148
283.158
283.17
283.182
283.193
283.201
283.208
283.213
283.22
283.229
283.242
283.257
283.273
283.289
283.302
283.311
283.316
283.318
283.316
283.313
283.307
283.301
283.293
283.283
283.273
283.264
283.255
283.246
283.237
283.226
283.214
283.201
283.188
283.176
283.167
283.156
283.152
283.146
283.136
283.129
283.127
283.122
283.109
283.091
283.073
283.06
283.055
283.056
283.061
283.067
283.075
283.082
283.091
283.099
283.108
283.118
283.127
283.136
283.146
283.157
283.168
283.179
283.188
283.195
283.203
283.211
283.222
283.234
283.246
283.256
283.264
283.269
283.271
283.27
283.267
283.263
283.257
283.251
283.244
283.236
283.227
283.218
283.21
283.202
283.194
283.187
283.178
283.169
283.159
283.148
283.139
283.131
283.125
283.12
283.117
283.115
283.114
283.146
283.137
283.131
283.129
283.123
283.109
283.094
283.085
283.084
283.086
283.091
283.096
283.102
283.107
283.113
283.118
283.123
283.129
283.136
283.143
283.149
283.154
283.157
283.16
283.162
283.164
283.165
283.166
283.167
283.167
283.167
283.166
283.165
283.164
283.163
283.161
283.159
283.157
283.155
283.153
283.151
283.149
283.147
283.145
283.143
283.142
283.14
283.139
283.138
283.137
283.136
283.136
283.136
283.136
283.136
283.138
283.138
283.141
283.139
283.146
285.072
287.336
288.874
290.059
291.065
291.961
292.784
293.546
294.257
294.927
295.562
296.168
296.748
297.306
297.844
298.363
298.867
299.356
299.831
300.291
300.737
301.168
301.586
301.991
302.382
302.761
303.127
303.482
303.825
304.159
304.482
304.795
305.099
305.393
305.677
305.952
306.217
306.472
306.716
306.949
307.172
307.384
307.584
307.774
307.952
308.12
308.277
308.423
308.56
308.687
308.806
308.916
309.018
309.113
309.202
309.285
309.362
309.433
309.5
309.562
309.621
309.675
309.725
309.772
309.814
309.853
309.889
309.921
309.95
309.975
309.997
310.017
310.035
310.05
310.063
310.075
310.086
310.096
310.105
310.114
310.122
310.13
310.139
310.147
310.154
310.161
310.167
310.173
310.179
310.183
310.186
310.188
310.189
310.19
310.189
310.188
310.185
310.183
310.18
310.176
310.172
310.168
310.164
310.159
310.155
310.15
310.145
310.14
310.136
310.131
310.126
310.121
310.117
310.112
310.107
310.103
310.098
310.093
310.089
310.084
310.08
310.075
310.07
310.066
310.061
310.057
310.052
310.047
310.043
310.038
310.034
310.029
310.025
310.02
310.016
310.011
310.007
310.002
309.998
309.993
309.989
309.985
309.98
309.975
309.971
309.966
309.961
309.957
309.952
309.947
309.943
309.938
309.933
309.928
309.923
309.919
309.914
309.909
309.904
309.899
309.895
309.89
309.885
309.88
309.874
309.87
309.865
309.86
309.855
309.849
309.844
309.84
309.835
309.83
309.824
309.819
309.814
309.809
309.804
309.799
309.794
309.788
309.783
309.778
309.773
309.768
309.763
309.758
309.752
309.747
309.742
309.737
309.732
309.727
309.722
309.717
309.712
309.706
309.701
309.696
309.691
309.686
309.68
309.675
309.67
309.665
309.66
309.655
309.65
309.645
309.64
309.635
309.63
309.625
309.62
309.615
309.61
309.605
309.6
309.596
309.591
309.586
309.581
309.576
309.571
309.566
309.561
309.556
309.552
309.547
309.542
309.537
309.533
309.527
309.524
309.518
309.515
309.508
309.506
309.497
283.221
283.934
284.803
285.655
286.444
287.176
287.865
288.516
289.132
289.716
290.271
290.801
291.309
291.799
292.273
292.733
293.181
293.62
294.049
294.471
294.884
295.288
295.683
296.067
296.442
296.806
297.16
297.502
297.833
298.154
298.465
298.766
299.058
299.342
299.617
299.885
300.145
300.398
300.643
300.881
301.11
301.332
301.545
301.75
301.945
302.131
302.308
302.474
302.631
302.779
302.916
303.045
303.164
303.275
303.379
303.475
303.565
303.649
303.727
303.801
303.871
303.938
304.001
304.06
304.117
304.17
304.221
304.269
304.313
304.354
304.391
304.424
304.454
304.48
304.502
304.522
304.539
304.553
304.566
304.577
304.587
304.596
304.606
304.616
304.626
304.636
304.647
304.658
304.669
304.68
304.69
304.7
304.708
304.716
304.722
304.727
304.73
304.733
304.734
304.735
304.734
304.733
304.732
304.73
304.728
304.726
304.723
304.721
304.718
304.715
304.712
304.709
304.706
304.704
304.701
304.698
304.695
304.692
304.689
304.686
304.684
304.681
304.678
304.675
304.672
304.669
304.666
304.663
304.661
304.658
304.655
304.652
304.649
304.646
304.644
304.641
304.638
304.635
304.633
304.63
304.627
304.624
304.621
304.618
304.615
304.613
304.61
304.606
304.603
304.6
304.597
304.594
304.591
304.588
304.585
304.582
304.579
304.575
304.572
304.569
304.566
304.562
304.559
304.556
304.552
304.549
304.545
304.542
304.539
304.535
304.532
304.528
304.525
304.522
304.518
304.515
304.511
304.508
304.504
304.501
304.497
304.494
304.49
304.487
304.483
304.48
304.476
304.473
304.469
304.466
304.462
304.459
304.455
304.452
304.449
304.445
304.442
304.438
304.434
304.431
304.428
304.424
304.42
304.417
304.414
304.41
304.407
304.403
304.4
304.397
304.393
304.39
304.386
304.383
304.38
304.376
304.373
304.37
304.366
304.363
304.36
304.357
304.353
304.35
304.347
304.344
304.34
304.337
304.334
304.331
304.328
304.324
304.322
304.318
304.316
304.312
304.31
304.305
304.304
304.298
283.108
283.125
283.288
283.579
283.946
284.351
284.775
285.207
285.64
286.067
286.482
286.881
287.267
287.64
288.003
288.357
288.703
289.044
289.382
289.72
290.059
290.399
290.738
291.076
291.41
291.741
292.065
292.383
292.691
292.989
293.278
293.556
293.824
294.084
294.335
294.579
294.817
295.048
295.275
295.498
295.718
295.934
296.147
296.356
296.561
296.761
296.956
297.144
297.325
297.497
297.661
297.814
297.958
298.092
298.217
298.332
298.438
298.536
298.627
298.712
298.793
298.87
298.944
299.016
299.086
299.155
299.223
299.29
299.356
299.419
299.479
299.535
299.587
299.635
299.677
299.713
299.744
299.769
299.789
299.805
299.817
299.827
299.835
299.843
299.85
299.859
299.87
299.883
299.898
299.914
299.932
299.951
299.97
299.989
300.006
300.021
300.035
300.046
300.055
300.063
300.068
300.072
300.075
300.076
300.077
300.077
300.077
300.076
300.075
300.074
300.072
300.07
300.069
300.067
300.065
300.063
300.061
300.06
300.058
300.056
300.054
300.053
300.051
300.049
300.047
300.046
300.044
300.042
300.04
300.039
300.037
300.035
300.033
300.032
300.03
300.029
300.027
300.025
300.023
300.022
300.02
300.018
300.017
300.015
300.013
300.011
300.01
300.008
300.006
300.004
300.002
300
299.998
299.996
299.994
299.993
299.991
299.989
299.987
299.984
299.982
299.98
299.978
299.976
299.974
299.972
299.97
299.967
299.965
299.963
299.961
299.959
299.956
299.954
299.952
299.95
299.948
299.946
299.943
299.941
299.939
299.936
299.934
299.932
299.93
299.927
299.925
299.923
299.921
299.918
299.916
299.914
299.912
299.91
299.907
299.905
299.903
299.901
299.898
299.896
299.894
299.892
299.889
299.887
299.885
299.883
299.881
299.878
299.876
299.874
299.872
299.87
299.868
299.866
299.864
299.862
299.86
299.857
299.855
299.854
299.852
299.849
299.847
299.845
299.844
299.842
299.839
299.837
299.836
299.834
299.832
299.83
299.828
299.826
299.824
299.822
299.821
299.818
299.818
299.814
283.165
283.11
283.054
283.053
283.118
283.235
283.388
283.572
283.785
284.022
284.27
284.516
284.752
284.98
285.203
285.422
285.635
285.843
286.048
286.256
286.472
286.698
286.935
287.181
287.434
287.694
287.959
288.228
288.496
288.76
289.016
289.262
289.498
289.725
289.941
290.149
290.347
290.536
290.72
290.899
291.078
291.258
291.439
291.621
291.806
291.993
292.183
292.375
292.566
292.756
292.941
293.119
293.288
293.448
293.598
293.736
293.863
293.977
294.08
294.174
294.26
294.34
294.415
294.489
294.561
294.634
294.709
294.787
294.867
294.95
295.034
295.118
295.2
295.279
295.353
295.42
295.479
295.53
295.571
295.603
295.627
295.642
295.652
295.656
295.658
295.659
295.662
295.667
295.678
295.692
295.712
295.737
295.766
295.797
295.829
295.861
295.891
295.918
295.942
295.963
295.98
295.994
296.006
296.014
296.021
296.026
296.029
296.032
296.034
296.035
296.036
296.036
296.036
296.036
296.036
296.036
296.035
296.035
296.035
296.034
296.034
296.033
296.033
296.033
296.032
296.032
296.032
296.031
296.031
296.031
296.03
296.03
296.029
296.029
296.029
296.029
296.028
296.028
296.027
296.027
296.027
296.026
296.026
296.025
296.025
296.025
296.024
296.024
296.023
296.023
296.022
296.022
296.021
296.02
296.02
296.019
296.019
296.018
296.017
296.016
296.016
296.015
296.014
296.013
296.012
296.011
296.01
296.01
296.009
296.008
296.007
296.006
296.005
296.004
296.003
296.002
296.001
296
295.999
295.998
295.997
295.996
295.995
295.994
295.993
295.992
295.991
295.99
295.989
295.988
295.987
295.986
295.985
295.984
295.983
295.982
295.98
295.979
295.978
295.977
295.976
295.975
295.974
295.973
295.972
295.971
295.97
295.969
295.968
295.967
295.966
295.965
295.963
295.963
295.962
295.961
295.96
295.958
295.958
295.957
295.956
295.955
295.954
295.953
295.952
295.951
295.95
295.949
295.948
295.947
295.946
295.945
295.944
295.943
295.943
295.942
295.941
295.94
295.94
295.938
283.175
283.131
283.056
283
282.988
283.011
283.048
283.093
283.158
283.252
283.373
283.502
283.622
283.727
283.824
283.92
284.014
284.101
284.177
284.246
284.317
284.402
284.505
284.626
284.762
284.913
285.078
285.26
285.458
285.668
285.879
286.086
286.283
286.471
286.649
286.818
286.974
287.116
287.244
287.36
287.471
287.581
287.695
287.813
287.937
288.069
288.21
288.363
288.529
288.705
288.886
289.069
289.25
289.425
289.593
289.752
289.899
290.03
290.145
290.243
290.327
290.4
290.465
290.523
290.579
290.634
290.692
290.756
290.828
290.909
291
291.097
291.2
291.306
291.411
291.513
291.609
291.697
291.773
291.837
291.886
291.92
291.941
291.95
291.948
291.94
291.928
291.917
291.909
291.908
291.916
291.933
291.96
291.996
292.039
292.086
292.134
292.182
292.227
292.267
292.303
292.333
292.359
292.379
292.396
292.408
292.419
292.427
292.433
292.438
292.441
292.444
292.447
292.449
292.451
292.452
292.453
292.455
292.456
292.457
292.458
292.459
292.46
292.461
292.462
292.463
292.463
292.464
292.465
292.466
292.467
292.468
292.469
292.47
292.471
292.472
292.473
292.474
292.475
292.476
292.477
292.478
292.479
292.479
292.48
292.481
292.482
292.483
292.484
292.484
292.485
292.486
292.487
292.487
292.488
292.488
292.489
292.49
292.49
292.49
292.491
292.492
292.492
292.492
292.493
292.493
292.493
292.494
292.494
292.494
292.494
292.495
292.495
292.495
292.495
292.495
292.496
292.496
292.496
292.496
292.496
292.496
292.496
292.496
292.497
292.497
292.497
292.497
292.497
292.497
292.497
292.497
292.497
292.497
292.497
292.497
292.497
292.497
292.497
292.498
292.498
292.497
292.497
292.497
292.498
292.498
292.497
292.497
292.497
292.497
292.497
292.497
292.497
292.497
292.497
292.497
292.497
292.497
292.497
292.497
292.497
292.497
292.497
292.497
292.497
292.497
292.497
292.496
292.496
292.496
292.496
292.496
292.496
292.496
292.496
292.496
292.496
292.496
292.496
292.496
283.176
283.133
283.058
282.999
282.982
282.997
283.021
283.039
283.063
283.109
283.184
283.27
283.343
283.39
283.418
283.439
283.462
283.479
283.479
283.455
283.416
283.379
283.359
283.362
283.383
283.417
283.466
283.535
283.633
283.76
283.907
284.061
284.21
284.349
284.48
284.604
284.718
284.816
284.893
284.947
284.984
285.012
285.039
285.07
285.108
285.152
285.208
285.28
285.375
285.493
285.631
285.783
285.942
286.103
286.262
286.417
286.565
286.699
286.815
286.909
286.983
287.038
287.078
287.108
287.13
287.149
287.168
287.193
287.228
287.276
287.342
287.424
287.521
287.629
287.745
287.864
287.984
288.099
288.206
288.299
288.377
288.436
288.475
288.495
288.497
288.484
288.46
288.431
288.401
288.376
288.36
288.357
288.368
288.395
288.436
288.488
288.547
288.61
288.673
288.733
288.788
288.836
288.877
288.912
288.94
288.962
288.98
288.995
289.006
289.015
289.022
289.028
289.032
289.036
289.04
289.043
289.045
289.047
289.05
289.052
289.054
289.056
289.058
289.06
289.062
289.063
289.065
289.067
289.069
289.071
289.073
289.075
289.076
289.078
289.08
289.082
289.084
289.086
289.087
289.089
289.091
289.093
289.095
289.097
289.098
289.1
289.102
289.104
289.105
289.107
289.109
289.11
289.112
289.113
289.115
289.116
289.118
289.119
289.12
289.122
289.123
289.125
289.126
289.127
289.128
289.13
289.131
289.132
289.133
289.134
289.135
289.136
289.137
289.139
289.14
289.141
289.142
289.143
289.144
289.145
289.146
289.147
289.147
289.148
289.149
289.15
289.151
289.152
289.153
289.154
289.155
289.156
289.156
289.157
289.158
289.159
289.16
289.161
289.161
289.162
289.163
289.164
289.165
289.165
289.166
289.167
289.168
289.168
289.169
289.17
289.171
289.171
289.172
289.173
289.173
289.174
289.175
289.175
289.176
289.177
289.177
289.178
289.178
289.179
289.18
289.181
289.181
289.182
289.182
289.183
289.184
289.184
289.184
289.185
289.186
289.186
289.187
289.187
289.188
289.189
283.177
283.134
283.058
283
282.983
282.999
283.022
283.04
283.062
283.107
283.178
283.258
283.323
283.359
283.372
283.376
283.378
283.37
283.342
283.287
283.214
283.139
283.08
283.04
283.017
283.005
283.005
283.024
283.071
283.145
283.238
283.337
283.43
283.513
283.588
283.655
283.712
283.753
283.773
283.771
283.751
283.723
283.694
283.67
283.652
283.642
283.644
283.663
283.705
283.771
283.859
283.961
284.071
284.184
284.297
284.407
284.51
284.601
284.675
284.73
284.764
284.782
284.787
284.782
284.772
284.759
284.749
284.745
284.753
284.777
284.819
284.879
284.954
285.042
285.138
285.24
285.342
285.442
285.533
285.613
285.677
285.724
285.752
285.762
285.755
285.734
285.704
285.669
285.634
285.605
285.585
285.579
285.588
285.613
285.653
285.703
285.761
285.823
285.885
285.944
285.998
286.045
286.086
286.12
286.148
286.171
286.188
286.203
286.214
286.223
286.23
286.236
286.241
286.245
286.248
286.252
286.254
286.257
286.259
286.262
286.264
286.266
286.268
286.27
286.272
286.274
286.276
286.278
286.28
286.283
286.285
286.287
286.289
286.291
286.293
286.295
286.297
286.299
286.301
286.303
286.305
286.307
286.309
286.311
286.313
286.315
286.317
286.319
286.321
286.323
286.324
286.326
286.328
286.33
286.331
286.333
286.335
286.337
286.338
286.34
286.341
286.343
286.344
286.346
286.347
286.349
286.35
286.352
286.353
286.354
286.356
286.357
286.358
286.36
286.361
286.362
286.364
286.365
286.366
286.367
286.369
286.37
286.371
286.372
286.373
286.374
286.375
286.377
286.378
286.379
286.38
286.381
286.382
286.383
286.384
286.385
286.386
286.387
286.388
286.389
286.391
286.391
286.392
286.393
286.394
286.395
286.396
286.397
286.398
286.399
286.4
286.401
286.402
286.403
286.404
286.405
286.405
286.406
286.407
286.408
286.409
286.41
286.41
286.411
286.412
286.413
286.414
286.415
286.415
286.416
286.417
286.418
286.418
286.419
286.42
286.421
286.421
286.422
286.422
286.424
283.177
283.134
283.059
283.003
282.989
283.005
283.029
283.054
283.089
283.143
283.213
283.28
283.326
283.347
283.35
283.342
283.326
283.296
283.249
283.189
283.127
283.075
283.039
283.018
283.009
283.012
283.028
283.06
283.106
283.163
283.222
283.275
283.319
283.354
283.38
283.398
283.405
283.398
283.379
283.349
283.316
283.283
283.255
283.233
283.219
283.215
283.223
283.246
283.284
283.335
283.395
283.46
283.526
283.59
283.651
283.706
283.752
283.786
283.808
283.817
283.816
283.808
283.795
283.78
283.765
283.754
283.749
283.754
283.77
283.799
283.84
283.891
283.951
284.015
284.082
284.148
284.211
284.268
284.315
284.352
284.376
284.389
284.39
284.381
284.364
284.342
284.319
284.298
284.282
284.274
284.276
284.289
284.313
284.346
284.386
284.431
284.478
284.524
284.568
284.608
284.643
284.673
284.699
284.719
284.736
284.749
284.76
284.768
284.775
284.781
284.785
284.789
284.792
284.795
284.798
284.8
284.802
284.804
284.806
284.808
284.81
284.811
284.813
284.815
284.817
284.819
284.821
284.822
284.824
284.826
284.828
284.83
284.831
284.833
284.835
284.837
284.839
284.84
284.842
284.844
284.846
284.848
284.849
284.851
284.853
284.854
284.856
284.858
284.859
284.861
284.862
284.864
284.866
284.867
284.868
284.87
284.871
284.873
284.874
284.875
284.877
284.878
284.879
284.881
284.882
284.883
284.885
284.886
284.887
284.888
284.889
284.89
284.891
284.892
284.893
284.895
284.896
284.896
284.898
284.899
284.9
284.901
284.901
284.902
284.903
284.904
284.905
284.906
284.907
284.908
284.909
284.91
284.91
284.911
284.912
284.913
284.914
284.915
284.915
284.916
284.917
284.918
284.919
284.919
284.92
284.921
284.922
284.922
284.923
284.924
284.925
284.925
284.926
284.927
284.928
284.928
284.929
284.93
284.93
284.931
284.932
284.932
284.933
284.934
284.934
284.935
284.935
284.936
284.937
284.937
284.938
284.938
284.939
284.939
284.94
284.941
284.941
284.942
284.942
284.943
283.169
283.116
283.052
283.02
283.025
283.051
283.084
283.122
283.167
283.218
283.265
283.296
283.309
283.304
283.289
283.266
283.236
283.2
283.16
283.123
283.094
283.077
283.071
283.075
283.087
283.106
283.132
283.162
283.194
283.225
283.249
283.267
283.277
283.281
283.279
283.27
283.256
283.237
283.215
283.192
283.173
283.158
283.148
283.145
283.148
283.158
283.176
283.201
283.232
283.265
283.3
283.333
283.364
283.391
283.413
283.43
283.44
283.443
283.441
283.434
283.425
283.415
283.406
283.4
283.397
283.4
283.409
283.426
283.449
283.478
283.512
283.549
283.587
283.625
283.661
283.693
283.72
283.741
283.756
283.763
283.765
283.761
283.754
283.744
283.733
283.724
283.718
283.717
283.721
283.732
283.748
283.77
283.797
283.827
283.858
283.889
283.919
283.946
283.971
283.992
284.011
284.026
284.038
284.048
284.056
284.063
284.068
284.072
284.076
284.079
284.081
284.083
284.085
284.087
284.089
284.091
284.092
284.093
284.095
284.096
284.098
284.099
284.101
284.102
284.104
284.105
284.106
284.108
284.109
284.111
284.113
284.114
284.115
284.117
284.118
284.12
284.121
284.122
284.124
284.125
284.127
284.128
284.129
284.131
284.132
284.134
284.135
284.136
284.137
284.139
284.14
284.141
284.142
284.143
284.144
284.146
284.147
284.148
284.149
284.15
284.151
284.152
284.153
284.154
284.155
284.156
284.157
284.158
284.158
284.159
284.16
284.161
284.162
284.162
284.163
284.164
284.165
284.165
284.166
284.167
284.167
284.168
284.169
284.169
284.17
284.17
284.171
284.171
284.172
284.173
284.173
284.174
284.174
284.175
284.175
284.176
284.176
284.177
284.177
284.178
284.179
284.179
284.179
284.18
284.181
284.181
284.181
284.182
284.182
284.183
284.183
284.184
284.184
284.184
284.185
284.185
284.186
284.186
284.186
284.187
284.187
284.188
284.188
284.188
284.189
284.189
284.189
284.19
284.19
284.19
284.191
284.191
284.191
284.192
284.192
284.192
284.192
284.193
284.193
284.194
283.125
283.083
283.068
283.078
283.102
283.131
283.162
283.194
283.224
283.247
283.26
283.261
283.251
283.234
283.214
283.191
283.168
283.147
283.13
283.121
283.119
283.123
283.132
283.145
283.161
283.177
283.194
283.208
283.219
283.226
283.229
283.227
283.222
283.214
283.204
283.193
283.181
283.17
283.16
283.153
283.149
283.148
283.151
283.158
283.168
283.18
283.195
283.21
283.226
283.242
283.255
283.266
283.274
283.28
283.283
283.283
283.281
283.276
283.271
283.266
283.263
283.261
283.262
283.265
283.272
283.282
283.295
283.311
283.33
283.349
283.369
283.388
283.406
283.421
283.434
283.444
283.451
283.455
283.455
283.454
283.451
283.448
283.446
283.444
283.444
283.447
283.453
283.462
283.475
283.49
283.506
283.525
283.544
283.563
283.581
283.598
283.613
283.626
283.637
283.647
283.655
283.661
283.666
283.671
283.674
283.677
283.679
283.681
283.683
283.684
283.686
283.687
283.688
283.689
283.69
283.691
283.692
283.693
283.694
283.696
283.697
283.698
283.699
283.7
283.701
283.702
283.703
283.704
283.705
283.707
283.708
283.709
283.71
283.711
283.712
283.713
283.714
283.715
283.716
283.717
283.719
283.72
283.721
283.721
283.723
283.724
283.725
283.726
283.726
283.727
283.728
283.729
283.73
283.731
283.732
283.732
283.733
283.734
283.735
283.735
283.736
283.737
283.738
283.738
283.739
283.739
283.74
283.741
283.741
283.742
283.742
283.743
283.743
283.743
283.744
283.744
283.745
283.745
283.745
283.746
283.746
283.746
283.747
283.747
283.747
283.748
283.748
283.748
283.748
283.749
283.749
283.749
283.749
283.75
283.75
283.75
283.75
283.75
283.751
283.751
283.751
283.751
283.752
283.752
283.752
283.752
283.752
283.753
283.753
283.753
283.753
283.753
283.753
283.754
283.754
283.754
283.754
283.754
283.754
283.754
283.755
283.755
283.755
283.755
283.755
283.755
283.755
283.755
283.755
283.755
283.755
283.755
283.755
283.756
283.756
283.756
283.756
283.756
283.756
283.756
283.119
283.119
283.122
283.133
283.148
283.166
283.183
283.198
283.208
283.21
283.206
283.197
283.185
283.171
283.159
283.148
283.14
283.135
283.135
283.138
283.144
283.152
283.161
283.169
283.177
283.184
283.188
283.19
283.19
283.187
283.184
283.178
283.173
283.166
283.161
283.155
283.151
283.149
283.148
283.148
283.151
283.154
283.159
283.166
283.172
283.179
283.185
283.191
283.196
283.2
283.203
283.204
283.204
283.203
283.201
283.199
283.197
283.195
283.193
283.193
283.194
283.197
283.202
283.207
283.214
283.222
283.231
283.241
283.25
283.259
283.266
283.273
283.278
283.282
283.285
283.286
283.287
283.286
283.286
283.285
283.285
283.286
283.288
283.291
283.296
283.302
283.31
283.319
283.329
283.339
283.349
283.359
283.369
283.378
283.386
283.393
283.399
283.405
283.409
283.412
283.415
283.418
283.42
283.422
283.423
283.424
283.425
283.426
283.427
283.428
283.428
283.429
283.43
283.431
283.431
283.432
283.433
283.433
283.434
283.435
283.436
283.437
283.437
283.438
283.439
283.44
283.441
283.442
283.442
283.443
283.444
283.445
283.446
283.447
283.448
283.449
283.449
283.45
283.451
283.452
283.452
283.453
283.454
283.455
283.455
283.456
283.457
283.458
283.458
283.459
283.46
283.461
283.461
283.462
283.462
283.463
283.463
283.464
283.464
283.465
283.465
283.466
283.466
283.467
283.467
283.467
283.468
283.468
283.469
283.469
283.469
283.469
283.469
283.47
283.47
283.47
283.47
283.47
283.47
283.471
283.471
283.471
283.471
283.471
283.471
283.471
283.471
283.471
283.471
283.472
283.472
283.472
283.472
283.472
283.472
283.472
283.472
283.472
283.472
283.472
283.472
283.472
283.472
283.472
283.472
283.472
283.472
283.472
283.472
283.472
283.472
283.472
283.472
283.472
283.472
283.472
283.472
283.472
283.472
283.472
283.472
283.472
283.472
283.472
283.472
283.472
283.471
283.471
283.471
283.471
283.471
283.471
283.471
283.471
283.471
283.471
283.471
283.471
283.471
283.471
283.136
283.128
283.129
283.133
283.138
283.144
283.148
283.151
283.151
283.149
283.145
283.141
283.137
283.133
283.13
283.128
283.127
283.128
283.13
283.132
283.135
283.138
283.141
283.143
283.144
283.145
283.145
283.144
283.143
283.141
283.139
283.137
283.135
283.133
283.132
283.131
283.131
283.131
283.132
283.133
283.134
283.136
283.138
283.14
283.141
283.143
283.144
283.145
283.146
283.146
283.146
283.145
283.145
283.144
283.143
283.143
283.142
283.142
283.142
283.143
283.144
283.146
283.149
283.151
283.153
283.156
283.159
283.161
283.164
283.166
283.167
283.168
283.169
283.17
283.17
283.17
283.17
283.17
283.17
283.17
283.171
283.172
283.174
283.176
283.178
283.181
283.184
283.187
283.191
283.194
283.197
283.2
283.203
283.205
283.208
283.209
283.211
283.212
283.213
283.214
283.215
283.216
283.216
283.217
283.217
283.218
283.218
283.219
283.219
283.22
283.22
283.22
283.221
283.221
283.222
283.222
283.222
283.223
283.223
283.224
283.225
283.225
283.226
283.226
283.227
283.228
283.228
283.229
283.229
283.23
283.231
283.231
283.232
283.233
283.233
283.234
283.235
283.235
283.236
283.236
283.237
283.238
283.238
283.239
283.24
283.24
283.241
283.242
283.242
283.243
283.243
283.244
283.244
283.245
283.245
283.246
283.246
283.246
283.247
283.247
283.248
283.248
283.248
283.249
283.249
283.249
283.25
283.25
283.25
283.25
283.25
283.251
283.251
283.251
283.251
283.251
283.251
283.251
283.251
283.251
283.252
283.252
283.252
283.252
283.252
283.252
283.252
283.252
283.252
283.252
283.252
283.252
283.252
283.252
283.252
283.252
283.252
283.252
283.252
283.252
283.252
283.252
283.252
283.252
283.252
283.252
283.252
283.252
283.252
283.252
283.252
283.252
283.252
283.252
283.252
283.252
283.252
283.252
283.252
283.252
283.252
283.252
283.252
283.252
283.252
283.252
283.252
283.252
283.252
283.252
283.252
283.252
283.251
283.251
283.252
283.252
283.251
283.251
283.251
283.251
)
;

boundaryField
{
    upperWall
    {
        type            fixedValue;
        value           uniform 283.15;
    }
    lowerWall
    {
        type            fixedValue;
        value           uniform 283.15;
    }
    heatedWall
    {
        type            externalWallHeatFluxTemperature;
        mode            power;
        kappaMethod     fluidThermo;
        kappa           none;
        alphaAni        Anialpha;
        Q               5040;
        qr              none;
        refValue        nonuniform List<scalar> 
240
(
288.089
290.158
291.694
292.906
293.948
294.875
295.726
296.514
297.251
297.943
298.599
299.224
299.822
300.396
300.949
301.482
301.998
302.498
302.983
303.452
303.907
304.346
304.771
305.182
305.579
305.963
306.335
306.694
307.042
307.379
307.705
308.021
308.327
308.623
308.909
309.185
309.451
309.706
309.95
310.184
310.407
310.618
310.818