/*--------------------------------*- C++ -*----------------------------------*\
  =========                 |
  \\      /  F ield         | OpenFOAM: The Open Source CFD Toolbox
   \\    /   O peration     | Website:  https://openfoam.org
    \\  /    A nd           | Version:  7
     \\/     M anipulation  |
\*---------------------------------------------------------------------------*/
FoamFile
{
    version     2.0;
    format      ascii;
    class       volScalarField;
    location    "0.6325";
    object      alphat;
}
// * * * * * * * * * * * * * * * * * * * * * * * * * * * * * * * * * * * * * //

dimensions      [1 -1 -1 0 0 0 0];

internalField   nonuniform List<scalar> 
7920
(
0.0106891
0.011133
0.011137
0.0111378
0.0111309
0.0111288
0.0111241
0.0111237
0.0111214
0.011122
0.0111209
0.0111219
0.0111213
0.0111221
0.0111215
0.0111216
0.0111214
0.0111194
0.0111255
0.011141
0.00551377
0.00554673
0.00543303
0.00531965
0.00526657
0.00524504
0.00522766
0.00522184
0.00521276
0.00521032
0.00520468
0.00520314
0.00519901
0.00519795
0.00519504
0.00519461
0.00519289
0.00519238
0.00522694
0.00523328
0.00421495
0.004502
0.0045323
0.00452803
0.00451968
0.00451718
0.00451258
0.00451137
0.0045084
0.00450735
0.00450517
0.00450427
0.00450218
0.00450127
0.00449918
0.0044986
0.00449661
0.0044966
0.00449611
0.00450442
0.00405409
0.00438543
0.00444974
0.00447131
0.00447853
0.00448668
0.00448992
0.004494
0.00449547
0.00449809
0.00449878
0.00450082
0.0045009
0.00450258
0.00450176
0.00450289
0.00450179
0.00450262
0.00450224
0.00450779
0.0040369
0.00437236
0.00444037
0.00446578
0.00447651
0.00448796
0.00449397
0.00450154
0.00450529
0.00451093
0.00451363
0.00451828
0.00452038
0.00452431
0.00452524
0.00452794
0.00452828
0.00453
0.00453102
0.00453593
0.00403861
0.00437114
0.00443875
0.00446447
0.00447613
0.00448874
0.0044959
0.00450508
0.00450996
0.00451719
0.00452097
0.00452712
0.0045304
0.00453569
0.00453778
0.00454155
0.00454286
0.00454533
0.00454744
0.00455231
0.00403861
0.00437114
0.00443875
0.00446447
0.00447613
0.00448874
0.0044959
0.00450508
0.00450996
0.00451719
0.00452098
0.00452712
0.0045304
0.00453569
0.00453777
0.00454155
0.00454286
0.00454535
0.00454744
0.00455234
0.0040369
0.00437236
0.00444037
0.00446578
0.00447651
0.00448796
0.00449397
0.00450154
0.0045053
0.00451093
0.00451364
0.00451827
0.00452038
0.00452431
0.00452524
0.00452795
0.00452829
0.00453002
0.00453106
0.004536
0.00405409
0.00438543
0.00444974
0.00447131
0.00447853
0.00448668
0.00448992
0.004494
0.00449547
0.00449809
0.00449879
0.00450081
0.00450093
0.00450257
0.00450177
0.00450288
0.00450189
0.00450257
0.00450239
0.00450763
0.00421495
0.004502
0.0045323
0.00452803
0.00451968
0.00451718
0.00451258
0.00451137
0.0045084
0.00450735
0.00450518
0.00450426
0.0045022
0.00450124
0.00449923
0.00449853
0.00449668
0.0044965
0.0044965
0.00450383
0.00551377
0.00554672
0.00543303
0.00531965
0.00526657
0.00524504
0.00522766
0.00522184
0.00521276
0.00521032
0.00520468
0.00520314
0.00519901
0.00519793
0.00519505
0.00519455
0.00519292
0.0051923
0.00522686
0.00523213
0.0106891
0.011133
0.011137
0.0111378
0.0111309
0.0111288
0.0111241
0.0111237
0.0111213
0.011122
0.0111209
0.0111219
0.0111213
0.0111222
0.0111214
0.0111218
0.0111211
0.0111197
0.0111248
0.0111419
0.00409903
0.00460299
0.00462224
0.00459341
0.00458431
0.00456816
0.00456667
0.00455748
0.00455717
0.00455095
0.0045511
0.00454664
0.00454691
0.00454361
0.00454391
0.00454132
0.00454186
0.00453913
0.00453821
0.00455473
0.00363077
0.00425144
0.00433769
0.00434997
0.00435143
0.0043528
0.00435246
0.00435282
0.00435218
0.00435184
0.0043509
0.00435011
0.00434898
0.00434821
0.00434724
0.00434708
0.00434596
0.00434698
0.00434582
0.00435286
0.00353255
0.00416042
0.00425055
0.00426973
0.00427221
0.00427756
0.00427886
0.00428264
0.00428346
0.00428645
0.0042869
0.00428895
0.00428885
0.00428999
0.00428969
0.00429052
0.00429019
0.00429105
0.00428986
0.00429977
0.00353042
0.00415882
0.00424832
0.00426643
0.00426736
0.00427061
0.00427037
0.00427267
0.00427269
0.00427469
0.004275
0.00427676
0.00427694
0.00427813
0.00427824
0.00427895
0.00427928
0.00427946
0.00427972
0.00428469
0.00352635
0.00415424
0.00424358
0.00426226
0.00426288
0.00426596
0.00426489
0.00426681
0.00426607
0.00426762
0.00426731
0.00426849
0.00426818
0.00426932
0.00426896
0.00426982
0.00426959
0.00427028
0.00427025
0.00427479
0.0035285
0.00415672
0.00424579
0.00426439
0.00426498
0.00426808
0.00426693
0.00426882
0.00426796
0.00426943
0.00426896
0.00426995
0.00426944
0.00427041
0.0042699
0.00427072
0.00427032
0.00427099
0.00427087
0.00427485
0.0035285
0.00415672
0.00424579
0.00426439
0.00426498
0.00426808
0.00426693
0.00426882
0.00426796
0.00426943
0.00426896
0.00426995
0.00426944
0.00427041
0.00426989
0.00427072
0.00427032
0.004271
0.00427086
0.00427486
0.00352635
0.00415424
0.00424358
0.00426226
0.00426288
0.00426596
0.00426489
0.00426681
0.00426607
0.00426762
0.00426732
0.00426849
0.00426818
0.00426933
0.00426894
0.00426984
0.00426957
0.00427029
0.00427023
0.0042748
0.00353042
0.00415882
0.00424832
0.00426643
0.00426736
0.00427061
0.00427037
0.00427267
0.0042727
0.00427469
0.00427501
0.00427676
0.00427693
0.00427815
0.00427821
0.00427898
0.00427923
0.00427948
0.0042798
0.00428453
0.00353255
0.00416042
0.00425055
0.00426973
0.00427221
0.00427756
0.00427886
0.00428263
0.00428347
0.00428645
0.00428691
0.00428895
0.00428885
0.00428998
0.00428968
0.00429052
0.00429021
0.00429092
0.00429009
0.00429916
0.00363077
0.00425144
0.00433769
0.00434997
0.00435143
0.0043528
0.00435247
0.00435281
0.00435218
0.00435184
0.00435091
0.00435009
0.00434901
0.00434816
0.00434734
0.00434692
0.00434615
0.00434664
0.00434643
0.00435151
0.00409903
0.00460299
0.00462224
0.00459341
0.00458431
0.00456816
0.00456667
0.00455747
0.00455717
0.00455095
0.0045511
0.00454664
0.00454692
0.0045436
0.00454394
0.00454128
0.00454198
0.00453896
0.00453887
0.00455278
0.00102205
0.00150745
0.00157906
0.00156039
0.00151004
0.00146243
0.00142377
0.00139603
0.00137512
0.00135937
0.00134794
0.00133824
0.00133165
0.00132533
0.00132119
0.00131748
0.00131401
0.00131428
0.0013073
0.00132115
0.000434413
0.000915363
0.00107423
0.00113631
0.00115818
0.00117203
0.00117902
0.00118653
0.00119042
0.00119434
0.00119548
0.0011965
0.00119599
0.00119578
0.00119489
0.00119474
0.00119374
0.00119397
0.00119309
0.00119726
0.000375971
0.000810778
0.00095495
0.00101981
0.00103998
0.00105473
0.00105842
0.00106537
0.00106795
0.00107333
0.00107597
0.00108024
0.00108247
0.00108542
0.00108748
0.00108946
0.00109143
0.0010925
0.00109354
0.00109708
0.00038717
0.000815818
0.000956386
0.00101842
0.00103812
0.0010505
0.00105258
0.001056
0.00105637
0.00105779
0.00105828
0.00105952
0.00105993
0.00106066
0.00106132
0.00106171
0.00106276
0.00106282
0.00106364
0.00106602
0.00038199
0.000810423
0.0009505
0.00101285
0.00103218
0.00104458
0.00104636
0.0010495
0.0010495
0.00105031
0.00105025
0.00105061
0.0010503
0.00105033
0.00105008
0.00104988
0.00104994
0.00104963
0.00104963
0.00105102
0.000384925
0.000813442
0.000953522
0.00101545
0.0010349
0.00104714
0.00104905
0.00105214
0.00105216
0.00105291
0.00105283
0.00105307
0.00105271
0.00105261
0.00105225
0.00105194
0.00105182
0.00105141
0.00105131
0.00105251
0.000384925
0.000813442
0.000953522
0.00101545
0.0010349
0.00104714
0.00104905
0.00105214
0.00105216
0.00105291
0.00105283
0.00105307
0.00105271
0.00105261
0.00105225
0.00105194
0.00105182
0.00105141
0.0010513
0.00105251
0.00038199
0.000810423
0.0009505
0.00101285
0.00103218
0.00104458
0.00104636
0.0010495
0.0010495
0.00105031
0.00105025
0.00105061
0.0010503
0.00105033
0.00105007
0.00104989
0.00104993
0.00104964
0.00104961
0.00105103
0.000387169
0.000815818
0.000956386
0.00101842
0.00103812
0.0010505
0.00105258
0.001056
0.00105637
0.00105779
0.00105828
0.00105952
0.00105992
0.00106067
0.0010613
0.00106172
0.00106274
0.00106282
0.00106361
0.00106601
0.000375971
0.000810778
0.00095495
0.00101981
0.00103998
0.00105473
0.00105842
0.00106537
0.00106796
0.00107332
0.00107597
0.00108024
0.00108247
0.00108541
0.00108747
0.00108945
0.00109143
0.00109243
0.00109357
0.0010969
0.000434413
0.000915363
0.00107423
0.00113631
0.00115819
0.00117203
0.00117902
0.00118653
0.00119042
0.00119433
0.00119549
0.00119648
0.00119602
0.00119571
0.00119496
0.00119459
0.00119388
0.00119375
0.00119343
0.00119651
0.00102205
0.00150745
0.00157906
0.00156039
0.00151004
0.00146243
0.00142377
0.00139603
0.00137512
0.00135937
0.00134795
0.00133825
0.00133166
0.00132534
0.00132124
0.00131747
0.00131428
0.00131401
0.00130839
0.00131978
0.00102205
0.00150745
0.00157906
0.00156039
0.00151004
0.00146243
0.00142377
0.00139603
0.00137512
0.00135937
0.00134794
0.00133824
0.00133165
0.00132533
0.00132119
0.00131748
0.00131401
0.00131428
0.0013073
0.00132115
0.000434413
0.000915363
0.00107423
0.00113631
0.00115818
0.00117203
0.00117902
0.00118653
0.00119042
0.00119434
0.00119548
0.0011965
0.00119599
0.00119578
0.00119489
0.00119474
0.00119374
0.00119397
0.00119309
0.00119726
0.000375971
0.000810778
0.00095495
0.00101981
0.00103998
0.00105473
0.00105842
0.00106537
0.00106795
0.00107333
0.00107597
0.00108024
0.00108247
0.00108542
0.00108748
0.00108946
0.00109143
0.0010925
0.00109354
0.00109708
0.00038717
0.000815818
0.000956386
0.00101842
0.00103812
0.0010505
0.00105258
0.001056
0.00105637
0.00105779
0.00105828
0.00105952
0.00105993
0.00106066
0.00106132
0.00106171
0.00106276
0.00106282
0.00106364
0.00106602
0.00038199
0.000810423
0.000950501
0.00101285
0.00103218
0.00104458
0.00104636
0.0010495
0.0010495
0.00105031
0.00105025
0.00105061
0.0010503
0.00105033
0.00105008
0.00104988
0.00104994
0.00104963
0.00104963
0.00105102
0.000384925
0.000813442
0.000953522
0.00101545
0.0010349
0.00104714
0.00104905
0.00105214
0.00105216
0.00105291
0.00105283
0.00105307
0.00105271
0.00105261
0.00105225
0.00105194
0.00105182
0.00105141
0.00105131
0.00105251
0.000384925
0.000813442
0.000953522
0.00101545
0.0010349
0.00104714
0.00104905
0.00105214
0.00105216
0.00105291
0.00105283
0.00105307
0.00105271
0.00105261
0.00105225
0.00105194
0.00105182
0.00105141
0.0010513
0.00105251
0.00038199
0.000810423
0.0009505
0.00101285
0.00103218
0.00104458
0.00104636
0.0010495
0.0010495
0.00105031
0.00105025
0.00105061
0.0010503
0.00105033
0.00105007
0.00104989
0.00104993
0.00104964
0.00104961
0.00105103
0.000387169
0.000815818
0.000956386
0.00101842
0.00103812
0.0010505
0.00105258
0.001056
0.00105637
0.00105779
0.00105828
0.00105952
0.00105992
0.00106067
0.0010613
0.00106172
0.00106274
0.00106282
0.00106361
0.00106601
0.000375971
0.000810778
0.00095495
0.00101981
0.00103998
0.00105473
0.00105842
0.00106537
0.00106796
0.00107332
0.00107597
0.00108024
0.00108247
0.00108541
0.00108747
0.00108945
0.00109143
0.00109243
0.00109357
0.0010969
0.000434413
0.000915363
0.00107423
0.00113631
0.00115819
0.00117203
0.00117902
0.00118653
0.00119042
0.00119433
0.00119549
0.00119648
0.00119602
0.00119571
0.00119496
0.00119459
0.00119388
0.00119375
0.00119343
0.00119651
0.00102205
0.00150745
0.00157906
0.00156039
0.00151004
0.00146243
0.00142377
0.00139603
0.00137512
0.00135937
0.00134795
0.00133825
0.00133166
0.00132534
0.00132124
0.00131747
0.00131428
0.00131401
0.00130839
0.00131978
0.00409903
0.00460299
0.00462224
0.00459341
0.00458431
0.00456816
0.00456667
0.00455747
0.00455717
0.00455095
0.0045511
0.00454664
0.00454691
0.00454361
0.00454391
0.00454132
0.00454186
0.00453913
0.00453821
0.00455473
0.00363077
0.00425144
0.00433769
0.00434997
0.00435143
0.0043528
0.00435246
0.00435281
0.00435217
0.00435184
0.0043509
0.0043501
0.00434898
0.00434821
0.00434724
0.00434708
0.00434596
0.00434697
0.00434582
0.00435286
0.00353255
0.00416042
0.00425055
0.00426973
0.00427221
0.00427756
0.00427886
0.00428264
0.00428346
0.00428645
0.0042869
0.00428895
0.00428885
0.00428998
0.00428969
0.00429052
0.00429019
0.00429104
0.00428986
0.00429977
0.00353042
0.00415882
0.00424832
0.00426643
0.00426736
0.00427061
0.00427037
0.00427267
0.00427269
0.00427469
0.004275
0.00427676
0.00427694
0.00427813
0.00427824
0.00427895
0.00427928
0.00427946
0.00427972
0.00428469
0.00352635
0.00415424
0.00424358
0.00426226
0.00426288
0.00426596
0.00426489
0.00426681
0.00426607
0.00426762
0.00426731
0.00426849
0.00426818
0.00426932
0.00426896
0.00426982
0.00426959
0.00427028
0.00427025
0.00427479
0.0035285
0.00415672
0.00424579
0.00426439
0.00426498
0.00426808
0.00426693
0.00426882
0.00426796
0.00426943
0.00426896
0.00426995
0.00426944
0.00427041
0.00426989
0.00427072
0.00427032
0.00427099
0.00427087
0.00427485
0.0035285
0.00415672
0.00424579
0.00426439
0.00426498
0.00426808
0.00426693
0.00426882
0.00426796
0.00426943
0.00426896
0.00426995
0.00426944
0.00427041
0.00426989
0.00427072
0.00427032
0.004271
0.00427086
0.00427486
0.00352635
0.00415424
0.00424358
0.00426226
0.00426288
0.00426596
0.00426489
0.00426681
0.00426607
0.00426762
0.00426732
0.00426849
0.00426818
0.00426933
0.00426894
0.00426984
0.00426957
0.0042703
0.00427023
0.0042748
0.00353042
0.00415882
0.00424832
0.00426643
0.00426736
0.00427061
0.00427037
0.00427267
0.0042727
0.00427469
0.00427501
0.00427676
0.00427693
0.00427815
0.00427821
0.00427898
0.00427924
0.00427948
0.00427981
0.00428453
0.00353255
0.00416042
0.00425055
0.00426973
0.00427221
0.00427756
0.00427886
0.00428263
0.00428347
0.00428645
0.00428691
0.00428895
0.00428885
0.00428999
0.00428969
0.00429052
0.00429021
0.00429092
0.00429009
0.00429916
0.00363077
0.00425144
0.00433769
0.00434997
0.00435143
0.0043528
0.00435247
0.00435281
0.00435218
0.00435184
0.00435091
0.00435009
0.00434901
0.00434816
0.00434734
0.00434692
0.00434615
0.00434664
0.00434643
0.00435151
0.00409903
0.00460299
0.00462224
0.00459341
0.00458431
0.00456816
0.00456667
0.00455747
0.00455717
0.00455095
0.0045511
0.00454664
0.00454692
0.0045436
0.00454394
0.00454128
0.00454198
0.00453896
0.00453887
0.00455278
0.0106891
0.011133
0.011137
0.0111378
0.0111309
0.0111288
0.0111241
0.0111237
0.0111214
0.011122
0.0111209
0.0111219
0.0111213
0.0111221
0.0111215
0.0111216
0.0111214
0.0111194
0.0111255
0.011141
0.00551377
0.00554673
0.00543303
0.00531965
0.00526657
0.00524504
0.00522766
0.00522184
0.00521276
0.00521032
0.00520468
0.00520314
0.00519901
0.00519795
0.00519504
0.00519461
0.00519289
0.00519238
0.00522694
0.00523328
0.00421495
0.004502
0.0045323
0.00452803
0.00451968
0.00451718
0.00451258
0.00451137
0.0045084
0.00450735
0.00450517
0.00450427
0.00450218
0.00450127
0.00449918
0.0044986
0.00449661
0.0044966
0.00449611
0.00450442
0.00405409
0.00438543
0.00444974
0.00447131
0.00447853
0.00448668
0.00448992
0.004494
0.00449547
0.00449809
0.00449878
0.00450082
0.0045009
0.00450258
0.00450176
0.00450289
0.00450179
0.00450262
0.00450224
0.00450779
0.0040369
0.00437236
0.00444037
0.00446578
0.00447651
0.00448796
0.00449397
0.00450154
0.00450529
0.00451093
0.00451363
0.00451828
0.00452038
0.00452431
0.00452524
0.00452794
0.00452828
0.00453
0.00453102
0.00453593
0.00403861
0.00437114
0.00443875
0.00446447
0.00447613
0.00448874
0.0044959
0.00450508
0.00450996
0.00451719
0.00452097
0.00452712
0.0045304
0.00453569
0.00453778
0.00454155
0.00454286
0.00454533
0.00454744
0.00455231
0.00403861
0.00437114
0.00443875
0.00446447
0.00447613
0.00448874
0.0044959
0.00450508
0.00450996
0.00451719
0.00452098
0.00452712
0.0045304
0.00453569
0.00453777
0.00454155
0.00454286
0.00454535
0.00454744
0.00455234
0.0040369
0.00437236
0.00444037
0.00446578
0.00447651
0.00448796
0.00449397
0.00450154
0.0045053
0.00451093
0.00451364
0.00451828
0.00452038
0.00452431
0.00452524
0.00452795
0.00452829
0.00453002
0.00453106
0.004536
0.00405409
0.00438543
0.00444974
0.00447131
0.00447853
0.00448668
0.00448992
0.004494
0.00449547
0.00449809
0.00449879
0.00450081
0.00450093
0.00450257
0.00450177
0.00450288
0.00450189
0.00450257
0.00450239
0.00450763
0.00421495
0.004502
0.0045323
0.00452803
0.00451968
0.00451718
0.00451258
0.00451137
0.0045084
0.00450735
0.00450518
0.00450426
0.0045022
0.00450124
0.00449923
0.00449853
0.00449668
0.0044965
0.0044965
0.00450383
0.00551377
0.00554672
0.00543303
0.00531965
0.00526657
0.00524504
0.00522766
0.00522184
0.00521276
0.00521032
0.00520468
0.00520314
0.00519901
0.00519793
0.00519505
0.00519455
0.00519292
0.0051923
0.00522686
0.00523213
0.0106891
0.011133
0.011137
0.0111378
0.0111309
0.0111288
0.0111241
0.0111237
0.0111214
0.011122
0.0111209
0.0111219
0.0111213
0.0111222
0.0111214
0.0111218
0.0111211
0.0111197
0.0111248
0.0111419
0.0322468
0.0323026
0.0323009
0.0322978
0.0322958
0.0322944
0.0322935
0.0322924
0.0322916
0.0322905
0.0322898
0.0322885
0.0322879
0.0322867
0.0322862
0.0322851
0.0322847
0.0322837
0.0322833
0.0322823
0.032282
0.0322811
0.0322809
0.0322802
0.03228
0.0322794
0.0322793
0.0322789
0.0322789
0.0322787
0.0322788
0.0322787
0.0322791
0.0322792
0.0322798
0.0322803
0.0322813
0.0322821
0.0322834
0.0322847
0.0322864
0.0322882
0.0322903
0.0322926
0.0322953
0.0322982
0.0323015
0.032305
0.0323089
0.0323129
0.0323172
0.0323217
0.0323263
0.032331
0.032336
0.0323408
0.0323459
0.0323508
0.032356
0.0323608
0.0323659
0.0323706
0.0323755
0.03238
0.0323847
0.0323889
0.0323935
0.0323977
0.0324021
0.0324063
0.0324108
0.0324152
0.0324197
0.0324242
0.0324288
0.0324333
0.032438
0.0324424
0.032447
0.0324513
0.0324558
0.03246
0.0324644
0.0324685
0.032473
0.0324772
0.0324815
0.0324861
0.0324872
0.0324911
0.0185205
0.0187744
0.0187744
0.0187757
0.0187687
0.0187691
0.018764
0.0187653
0.0187622
0.0187639
0.0187619
0.0187635
0.0187621
0.0187637
0.0187626
0.0187642
0.0187634
0.0187649
0.0187643
0.0187658
0.0187654
0.0187669
0.0187666
0.0187682
0.0187681
0.0187696
0.0187697
0.0187713
0.0187715
0.0187731
0.0187734
0.0187752
0.0187757
0.0187775
0.0187782
0.0187801
0.018781
0.0187832
0.0187843
0.0187866
0.0187879
0.0187904
0.018792
0.0187947
0.0187965
0.0187994
0.0188015
0.0188046
0.0188068
0.0188101
0.0188125
0.0188158
0.0188183
0.0188215
0.018824
0.0188272
0.0188296
0.0188326
0.0188349
0.0188377
0.0188399
0.0188425
0.0188445
0.0188469
0.0188488
0.018851
0.0188528
0.0188549
0.0188566
0.0188588
0.0188605
0.0188628
0.0188646
0.018867
0.0188689
0.0188713
0.0188733
0.0188757
0.0188778
0.01888
0.0188822
0.0188844
0.0188866
0.0188889
0.018891
0.0188935
0.0188956
0.0188984
0.0188983
0.0188987
0.0149251
0.0153692
0.0153763
0.0153829
0.0153734
0.0153776
0.0153706
0.0153756
0.0153714
0.0153764
0.015374
0.0153791
0.0153776
0.0153826
0.0153818
0.0153867
0.0153863
0.0153912
0.0153912
0.015396
0.0153964
0.0154011
0.0154018
0.0154066
0.0154076
0.0154124
0.0154136
0.0154184
0.0154198
0.0154246
0.0154263
0.0154311
0.015433
0.0154379
0.01544
0.015445
0.0154472
0.0154523
0.0154548
0.01546
0.0154627
0.0154679
0.0154707
0.015476
0.0154791
0.0154844
0.0154876
0.0154929
0.0154962
0.0155015
0.0155048
0.0155099
0.0155131
0.0155181
0.0155211
0.0155258
0.0155287
0.0155331
0.0155358
0.0155398
0.0155423
0.015546
0.0155482
0.0155516
0.0155536
0.0155568
0.0155586
0.0155616
0.0155633
0.0155662
0.015568
0.0155708
0.0155726
0.0155754
0.0155772
0.01558
0.0155818
0.0155844
0.0155863
0.0155888
0.0155906
0.0155931
0.015595
0.0155974
0.0155992
0.0156018
0.0156037
0.0156064
0.0156082
0.0156055
0.0143873
0.0149747
0.0149988
0.0150124
0.0150038
0.015012
0.0150049
0.015013
0.0150087
0.0150161
0.015014
0.0150212
0.0150204
0.0150276
0.0150275
0.0150346
0.0150351
0.0150422
0.0150432
0.0150503
0.0150517
0.0150588
0.0150605
0.0150676
0.0150697
0.0150768
0.0150792
0.0150864
0.015089
0.0150962
0.0150991
0.0151063
0.0151094
0.0151167
0.01512
0.0151273
0.0151309
0.0151382
0.015142
0.0151493
0.0151533
0.0151606
0.0151647
0.015172
0.0151762
0.0151835
0.0151877
0.0151949
0.0151992
0.0152061
0.0152103
0.015217
0.015221
0.0152273
0.0152311
0.015237
0.0152405
0.015246
0.0152491
0.0152542
0.0152571
0.0152617
0.0152643
0.0152685
0.0152708
0.0152747
0.0152768
0.0152805
0.0152825
0.015286
0.015288
0.0152914
0.0152935
0.0152968
0.0152988
0.0153021
0.0153041
0.0153072
0.0153092
0.0153122
0.0153142
0.0153171
0.015319
0.0153219
0.0153239
0.0153268
0.0153288
0.0153318
0.0153344
0.0153307
0.014356
0.01502
0.0150605
0.0150815
0.0150751
0.0150865
0.0150798
0.0150898
0.0150856
0.0150944
0.0150925
0.015101
0.0151005
0.015109
0.0151094
0.0151179
0.015119
0.0151275
0.0151291
0.0151376
0.0151397
0.0151482
0.0151507
0.0151592
0.0151621
0.0151707
0.0151738
0.0151825
0.0151859
0.0151946
0.0151983
0.0152069
0.0152109
0.0152196
0.0152238
0.0152325
0.0152369
0.0152456
0.0152503
0.0152589
0.0152637
0.0152724
0.0152773
0.0152858
0.0152908
0.0152992
0.0153042
0.0153125
0.0153174
0.0153254
0.0153301
0.0153377
0.0153422
0.0153494
0.0153536
0.0153602
0.0153641
0.0153702
0.0153737
0.0153793
0.0153824
0.0153875
0.0153903
0.0153949
0.0153974
0.0154016
0.0154039
0.0154079
0.01541
0.0154138
0.015416
0.0154197
0.0154218
0.0154254
0.0154276
0.015431
0.0154332
0.0154365
0.0154386
0.0154418
0.0154439
0.0154469
0.015449
0.0154521
0.0154542
0.0154572
0.0154595
0.0154625
0.0154658
0.015462
0.014378
0.0150848
0.0151353
0.0151613
0.0151571
0.0151706
0.0151646
0.0151758
0.0151717
0.0151813
0.0151795
0.0151886
0.0151883
0.0151975
0.0151981
0.0152073
0.0152087
0.0152178
0.0152198
0.015229
0.0152314
0.0152406
0.0152435
0.0152528
0.015256
0.0152653
0.0152689
0.0152782
0.0152821
0.0152915
0.0152956
0.015305
0.0153094
0.0153188
0.0153234
0.0153328
0.0153377
0.0153471
0.0153522
0.0153615
0.0153667
0.015376
0.0153813
0.0153904
0.0153958
0.0154048
0.0154102
0.015419
0.0154243
0.0154328
0.0154378
0.0154459
0.0154507
0.0154583
0.0154627
0.0154697
0.0154738
0.0154802
0.0154839
0.0154897
0.015493
0.0154983
0.0155012
0.0155061
0.0155087
0.0155131
0.0155155
0.0155196
0.0155219
0.0155258
0.0155281
0.0155319
0.0155341
0.0155379
0.0155401
0.0155437
0.0155459
0.0155494
0.0155515
0.0155548
0.015557
0.0155601
0.0155623
0.0155654
0.0155676
0.0155708
0.0155732
0.0155761
0.0155798
0.0155756
0.0143782
0.0150854
0.0151367
0.0151635
0.0151599
0.0151736
0.0151681
0.0151793
0.0151755
0.0151851
0.0151833
0.0151925
0.0151922
0.0152014
0.015202
0.0152112
0.0152126
0.0152218
0.0152238
0.015233
0.0152354
0.0152447
0.0152476
0.0152568
0.0152601
0.0152694
0.015273
0.0152824
0.0152863
0.0152957
0.0152998
0.0153092
0.0153136
0.0153231
0.0153277
0.0153372
0.015342
0.0153515
0.0153565
0.0153659
0.0153712
0.0153804
0.0153858
0.0153949
0.0154004
0.0154094
0.0154148
0.0154236
0.0154289
0.0154374
0.0154425
0.0154506
0.0154554
0.0154629
0.0154674
0.0154744
0.0154785
0.015485
0.0154886
0.0154945
0.0154978
0.0155032
0.0155061
0.0155109
0.0155135
0.015518
0.0155204
0.0155245
0.0155268
0.0155308
0.015533
0.0155369
0.0155391
0.0155428
0.0155451
0.0155487
0.0155509
0.0155544
0.0155565
0.0155598
0.015562
0.0155652
0.0155673
0.0155705
0.0155727
0.0155759
0.0155783
0.0155812
0.0155848
0.0155808
0.0143568
0.0150224
0.0150646
0.0150873
0.0150827
0.0150944
0.0150892
0.0150991
0.0150955
0.0151044
0.0151027
0.0151113
0.0151108
0.0151194
0.0151198
0.0151284
0.0151295
0.015138
0.0151397
0.0151483
0.0151504
0.015159
0.0151615
0.0151701
0.015173
0.0151817
0.0151849
0.0151936
0.0151971
0.0152058
0.0152096
0.0152183
0.0152223
0.0152311
0.0152353
0.0152441
0.0152486
0.0152574
0.0152621
0.0152708
0.0152756
0.0152843
0.0152893
0.0152979
0.015303
0.0153114
0.0153165
0.0153248
0.0153298
0.0153378
0.0153426
0.0153503
0.0153549
0.0153621
0.0153663
0.015373
0.0153769
0.0153831
0.0153866
0.0153923
0.0153954
0.0154006
0.0154034
0.015408
0.0154106
0.0154149
0.0154172
0.0154212
0.0154234
0.0154272
0.0154294
0.0154331
0.0154353
0.0154389
0.0154411
0.0154446
0.0154467
0.0154501
0.0154522
0.0154554
0.0154575
0.0154606
0.0154627
0.0154658
0.0154679
0.015471
0.0154733
0.0154762
0.0154796
0.015476
0.0143881
0.0149775
0.0150039
0.0150197
0.0150134
0.0150221
0.0150169
0.0150249
0.0150215
0.015029
0.0150271
0.0150345
0.0150337
0.015041
0.0150409
0.0150482
0.0150487
0.015056
0.015057
0.0150642
0.0150656
0.0150729
0.0150747
0.0150819
0.0150841
0.0150913
0.0150938
0.015101
0.0151038
0.0151111
0.015114
0.0151213
0.0151245
0.0151319
0.0151353
0.0151427
0.0151464
0.0151538
0.0151577
0.0151651
0.0151692
0.0151766
0.0151808
0.0151882
0.0151925
0.0151999
0.0152042
0.0152115
0.0152158
0.0152229
0.0152272
0.015234
0.015238
0.0152445
0.0152483
0.0152543
0.0152579
0.0152635
0.0152667
0.0152718
0.0152748
0.0152795
0.0152821
0.0152864
0.0152888
0.0152927
0.0152949
0.0152986
0.0153007
0.0153043
0.0153064
0.0153099
0.0153119
0.0153153
0.0153174
0.0153207
0.0153228
0.015326
0.015328
0.015331
0.0153331
0.015336
0.015338
0.0153409
0.0153429
0.0153458
0.0153479
0.0153507
0.0153535
0.0153501
0.0149238
0.0153685
0.0153772
0.015385
0.0153778
0.0153828
0.0153775
0.0153826
0.0153792
0.0153845
0.0153822
0.0153874
0.015386
0.0153911
0.0153903
0.0153953
0.015395
0.0154
0.0154001
0.015405
0.0154054
0.0154103
0.015411
0.0154159
0.0154169
0.0154219
0.0154231
0.0154281
0.0154296
0.0154345
0.0154362
0.0154413
0.0154432
0.0154482
0.0154504
0.0154555
0.0154579
0.0154631
0.0154657
0.015471
0.0154737
0.0154791
0.015482
0.0154875
0.0154906
0.015496
0.0154993
0.0155048
0.0155081
0.0155136
0.0155169
0.0155222
0.0155255
0.0155306
0.0155337
0.0155385
0.0155415
0.015546
0.0155487
0.0155529
0.0155554
0.0155593
0.0155615
0.0155651
0.0155671
0.0155704
0.0155723
0.0155753
0.0155772
0.0155801
0.0155819
0.0155849
0.0155867
0.0155896
0.0155915
0.0155943
0.0155962
0.015599
0.0156008
0.0156035
0.0156053
0.0156079
0.0156098
0.0156123
0.0156142
0.0156168
0.0156187
0.0156214
0.0156232
0.015621
0.018518
0.018772
0.0187726
0.0187749
0.0187694
0.0187708
0.0187668
0.0187686
0.0187659
0.0187677
0.0187658
0.0187676
0.0187661
0.0187678
0.0187667
0.0187684
0.0187675
0.0187692
0.0187685
0.0187701
0.0187697
0.0187713
0.018771
0.0187726
0.0187725
0.0187742
0.0187742
0.0187759
0.0187761
0.0187779
0.0187782
0.01878
0.0187805
0.0187824
0.0187831
0.0187852
0.0187861
0.0187883
0.0187894
0.0187918
0.0187932
0.0187957
0.0187973
0.0188001
0.0188019
0.0188049
0.018807
0.0188102
0.0188125
0.0188158
0.0188183
0.0188216
0.0188241
0.0188275
0.01883
0.0188332
0.0188357
0.0188387
0.0188411
0.018844
0.0188462
0.0188489
0.0188509
0.0188534
0.0188553
0.0188576
0.0188594
0.0188616
0.0188633
0.0188655
0.0188673
0.0188696
0.0188715
0.0188738
0.0188759
0.0188782
0.0188803
0.0188827
0.0188848
0.0188871
0.0188892
0.0188915
0.0188937
0.018896
0.0188982
0.0189006
0.0189029
0.0189055
0.0189054
0.0189062
0.0322756
0.0323373
0.0323387
0.0323392
0.0323398
0.0323405
0.0323406
0.0323402
0.0323398
0.0323389
0.0323383
0.0323372
0.0323366
0.0323355
0.0323349
0.0323339
0.0323334
0.0323325
0.0323321
0.0323312
0.0323308
0.03233
0.0323297
0.0323291
0.0323289
0.0323283
0.0323283
0.0323279
0.0323279
0.0323277
0.0323279
0.0323278
0.0323282
0.0323284
0.0323291
0.0323296
0.0323306
0.0323315
0.0323328
0.0323342
0.032336
0.0323379
0.0323401
0.0323425
0.0323453
0.0323484
0.0323518
0.0323555
0.0323595
0.0323637
0.0323682
0.0323729
0.0323778
0.0323827
0.0323878
0.0323929
0.0323982
0.0324034
0.0324087
0.0324138
0.0324191
0.032424
0.0324292
0.0324338
0.0324387
0.0324432
0.0324479
0.0324523
0.0324569
0.0324613
0.0324659
0.0324704
0.0324751
0.0324797
0.0324845
0.0324891
0.0324939
0.0324984
0.0325031
0.0325075
0.0325122
0.0325164
0.032521
0.0325252
0.0325297
0.0325341
0.0325386
0.0325431
0.0325448
0.0325484
0.0147191
0.0148158
0.0148127
0.014809
0.0148063
0.0148049
0.0148034
0.0148033
0.0148023
0.0148027
0.0148018
0.0148024
0.0148016
0.0148022
0.0148015
0.0148022
0.0148015
0.0148023
0.0148017
0.0148024
0.0148019
0.0148027
0.0148022
0.0148031
0.0148027
0.0148036
0.0148033
0.0148042
0.0148041
0.014805
0.0148049
0.0148059
0.014806
0.014807
0.0148072
0.0148083
0.0148086
0.0148099
0.0148103
0.0148116
0.0148122
0.0148137
0.0148144
0.014816
0.0148168
0.0148185
0.0148196
0.0148214
0.0148225
0.0148244
0.0148256
0.0148275
0.0148287
0.0148305
0.0148318
0.0148335
0.0148347
0.0148363
0.0148375
0.014839
0.0148401
0.0148414
0.0148424
0.0148437
0.0148447
0.0148458
0.0148468
0.014848
0.0148489
0.0148502
0.0148513
0.0148526
0.0148538
0.0148553
0.0148567
0.0148582
0.0148597
0.0148613
0.0148628
0.0148643
0.0148659
0.0148675
0.0148691
0.0148708
0.0148725
0.0148745
0.014876
0.0148786
0.0148791
0.0148812
0.0142562
0.0145263
0.0145315
0.0145308
0.0145283
0.0145275
0.0145261
0.0145265
0.0145262
0.0145273
0.0145274
0.0145287
0.014529
0.0145303
0.0145307
0.014532
0.0145324
0.0145338
0.0145342
0.0145356
0.014536
0.0145374
0.014538
0.0145394
0.01454
0.0145415
0.0145422
0.0145437
0.0145445
0.0145461
0.014547
0.0145487
0.0145497
0.0145515
0.0145527
0.0145547
0.014556
0.0145582
0.0145598
0.0145621
0.014564
0.0145665
0.0145686
0.0145714
0.0145738
0.0145769
0.0145796
0.014583
0.0145859
0.0145895
0.0145927
0.0145964
0.0145997
0.0146035
0.0146069
0.0146107
0.0146141
0.0146178
0.0146211
0.0146247
0.0146278
0.0146312
0.0146342
0.0146374
0.0146402
0.0146432
0.0146458
0.0146486
0.0146511
0.0146539
0.0146563
0.014659
0.0146614
0.0146641
0.0146665
0.0146692
0.0146715
0.0146741
0.0146763
0.0146788
0.0146809
0.0146833
0.0146854
0.0146877
0.0146896
0.0146922
0.0146937
0.0146967
0.0146982
0.014701
0.0137103
0.0141549
0.0141786
0.0141821
0.0141816
0.0141813
0.0141806
0.0141807
0.0141809
0.0141815
0.0141822
0.0141831
0.0141839
0.0141849
0.0141858
0.0141869
0.0141878
0.0141889
0.0141898
0.0141909
0.0141918
0.014193
0.0141939
0.0141951
0.0141961
0.0141974
0.0141984
0.0141998
0.0142009
0.0142023
0.0142035
0.014205
0.0142063
0.0142079
0.0142093
0.0142111
0.0142127
0.0142147
0.0142165
0.0142187
0.0142208
0.0142232
0.0142255
0.0142282
0.0142308
0.0142338
0.0142367
0.01424
0.0142432
0.0142467
0.0142502
0.0142539
0.0142575
0.0142614
0.0142651
0.014269
0.0142728
0.0142767
0.0142805
0.0142843
0.0142879
0.0142916
0.0142951
0.0142986
0.014302
0.0143053
0.0143085
0.0143117
0.0143148
0.0143179
0.0143209
0.014324
0.014327
0.0143301
0.014333
0.014336
0.0143388
0.0143417
0.0143444
0.0143472
0.0143498
0.0143524
0.0143548
0.0143574
0.0143595
0.0143622
0.014364
0.0143669
0.0143687
0.0143655
0.0135326
0.01407
0.0141073
0.0141142
0.0141153
0.0141156
0.014115
0.0141148
0.0141147
0.0141148
0.0141153
0.0141157
0.0141164
0.0141169
0.0141177
0.0141183
0.0141191
0.0141197
0.0141205
0.0141212
0.014122
0.0141227
0.0141235
0.0141242
0.014125
0.0141258
0.0141267
0.0141276
0.0141285
0.0141295
0.0141305
0.0141315