/*--------------------------------*- C++ -*----------------------------------*\
  =========                 |
  \\      /  F ield         | OpenFOAM: The Open Source CFD Toolbox
   \\    /   O peration     | Website:  https://openfoam.org
    \\  /    A nd           | Version:  7
     \\/     M anipulation  |
\*---------------------------------------------------------------------------*/
FoamFile
{
    version     2.0;
    format      ascii;
    class       volScalarField;
    location    "0.0075";
    object      rho_0;
}
// * * * * * * * * * * * * * * * * * * * * * * * * * * * * * * * * * * * * * //

dimensions      [1 -3 0 0 0 0 0];

internalField   nonuniform List<scalar> 
1440
(
1.16087
1.15573
1.15067
1.14717
1.14532
1.14282
1.13814
1.13267
1.12844
1.12525
1.12097
1.11403
1.10498
1.09579
1.08836
1.08363
1.08138
1.08078
1.08102
1.0815
1.0819
1.08216
1.08232
1.08241
1.08244
1.08245
1.08244
1.08241
1.08238
1.08236
1.08232
1.08229
1.08226
1.08222
1.08219
1.08216
1.08212
1.08209
1.08206
1.08202
1.08198
1.08196
1.08195
1.08193
1.08192
1.0819
1.08187
1.08185
1.08182
1.08179
1.08178
1.08178
1.08178
1.08178
1.08176
1.08177
1.08179
1.0818
1.08181
1.08181
1.08182
1.08185
1.08189
1.08193
1.08198
1.08202
1.08206
1.08211
1.08216
1.0822
1.08227
1.08233
1.0824
1.08247
1.08254
1.08263
1.08272
1.08282
1.08291
1.08299
1.08309
1.0832
1.0833
1.0834
1.0835
1.08361
1.08374
1.08387
1.084
1.08413
1.08425
1.08438
1.08451
1.08463
1.08478
1.08492
1.08506
1.08523
1.08537
1.08551
1.0857
1.08588
1.08605
1.0862
1.08637
1.08652
1.08669
1.08685
1.08703
1.08724
1.08743
1.08764
1.08785
1.08797
1.08816
1.08835
1.08855
1.08864
1.08897
1.08905
1.16441
1.16658
1.16851
1.17127
1.17541
1.17941
1.18133
1.18113
1.18066
1.18141
1.18287
1.18321
1.18115
1.17708
1.17239
1.16853
1.16624
1.16538
1.16543
1.16588
1.16637
1.16672
1.16694
1.16709
1.16716
1.1672
1.16726
1.16729
1.16732
1.16737
1.16741
1.16744
1.1675
1.16755
1.16759
1.16765
1.16769
1.16773
1.1678
1.16786
1.1679
1.16793
1.16798
1.16805
1.16813
1.16822
1.1683
1.16837
1.16845
1.16853
1.16859
1.16866
1.16876
1.16886
1.16895
1.16905
1.16914
1.16925
1.16937
1.16948
1.16957
1.16968
1.1698
1.16994
1.17008
1.17021
1.17036
1.17052
1.17066
1.1708
1.17096
1.17113
1.17128
1.17143
1.17159
1.17178
1.17197
1.17216
1.17235
1.17254
1.17272
1.17291
1.17312
1.17334
1.17353
1.17373
1.17394
1.17418
1.17441
1.17463
1.17485
1.17508
1.17533
1.17555
1.17578
1.17604
1.17628
1.17652
1.17677
1.17701
1.17727
1.17755
1.17782
1.17812
1.17837
1.17865
1.17889
1.17914
1.17945
1.17972
1.18002
1.18038
1.18066
1.18095
1.18127
1.18153
1.18183
1.18207
1.18243
1.18265
1.16418
1.1659
1.16758
1.17038
1.17487
1.17944
1.18189
1.18209
1.18201
1.18332
1.18551
1.18656
1.18502
1.18112
1.17636
1.17232
1.16981
1.1688
1.16878
1.1692
1.16967
1.17004
1.17028
1.1704
1.17047
1.17049
1.17051
1.17052
1.17053
1.17054
1.17055
1.17056
1.17058
1.17059
1.1706
1.17062
1.17064
1.17066
1.17068
1.1707
1.17072
1.17074
1.17077
1.1708
1.17083
1.17086
1.17089
1.17093
1.17097
1.17101
1.17105
1.1711
1.17115
1.17121
1.17127
1.17133
1.17139
1.17146
1.17153
1.17161
1.17169
1.17178
1.17187
1.17196
1.17206
1.17216
1.17227
1.17238
1.17249
1.17261
1.17274
1.17286
1.17299
1.17313
1.17327
1.17341
1.17356
1.17371
1.17387
1.17402
1.17419
1.17435
1.17452
1.1747
1.17487
1.17505
1.17524
1.17542
1.17561
1.1758
1.176
1.1762
1.1764
1.17661
1.17682
1.17703
1.17724
1.17746
1.17768
1.17791
1.17814
1.17837
1.1786
1.17883
1.17907
1.17931
1.17956
1.17981
1.18006
1.18032
1.18057
1.18083
1.18109
1.18135
1.18164
1.18187
1.18222
1.1824
1.1828
1.18296
1.16417
1.16589
1.16754
1.17034
1.17485
1.17939
1.18175
1.18188
1.18185
1.18326
1.18548
1.18644
1.18474
1.18069
1.17585
1.17177
1.16924
1.16822
1.1682
1.16861
1.16909
1.16946
1.16969
1.16981
1.16988
1.1699
1.16992
1.16993
1.16994
1.16995
1.16996
1.16997
1.16998
1.16999
1.17
1.17002
1.17003
1.17005
1.17007
1.17009
1.17011
1.17013
1.17015
1.17018
1.1702
1.17023
1.17027
1.1703
1.17034
1.17038
1.17042
1.17047
1.17052
1.17057
1.17062
1.17068
1.17075
1.17081
1.17088
1.17096
1.17104
1.17112
1.17121
1.1713
1.17139
1.17149
1.1716
1.17171
1.17182
1.17194
1.17206
1.17218
1.17231
1.17244
1.17258
1.17272
1.17287
1.17302
1.17317
1.17333
1.17349
1.17365
1.17382
1.17399
1.17416
1.17434
1.17452
1.1747
1.17489
1.17508
1.17528
1.17547
1.17567
1.17588
1.17608
1.17629
1.17651
1.17672
1.17694
1.17716
1.17739
1.17762
1.17785
1.17808
1.17832
1.17856
1.1788
1.17905
1.1793
1.17955
1.1798
1.18006
1.18032
1.18058
1.18086
1.18109
1.18144
1.18161
1.18201
1.18217
1.16417
1.16588
1.16754
1.17034
1.17486
1.17939
1.18173
1.18186
1.18185
1.18327
1.18548
1.18642
1.18468
1.18059
1.17571
1.1716
1.16905
1.16801
1.16797
1.16837
1.16884
1.16921
1.16944
1.16956
1.16963
1.16965
1.16967
1.16968
1.16969
1.1697
1.16971
1.16972
1.16973
1.16974
1.16975
1.16977
1.16978
1.1698
1.16982
1.16984
1.16986
1.16988
1.1699
1.16993
1.16996
1.16999
1.17002
1.17005
1.17009
1.17013
1.17017
1.17022
1.17027
1.17032
1.17037
1.17043
1.1705
1.17056
1.17064
1.17071
1.17079
1.17087
1.17096
1.17105
1.17115
1.17125
1.17135
1.17146
1.17157
1.17169
1.17181
1.17193
1.17206
1.1722
1.17233
1.17248
1.17262
1.17277
1.17292
1.17308
1.17324
1.1734
1.17357
1.17374
1.17391
1.17409
1.17427
1.17446
1.17465
1.17484
1.17503
1.17523
1.17543
1.17563
1.17584
1.17605
1.17626
1.17648
1.17669
1.17692
1.17714
1.17737
1.1776
1.17784
1.17807
1.17831
1.17856
1.1788
1.17905
1.1793
1.17956
1.17981
1.18008
1.18033
1.18061
1.18085
1.18119
1.18136
1.18176
1.18193
1.16416
1.16588
1.16753
1.17034
1.17487
1.1794
1.18173
1.18185
1.18185
1.18329
1.1855
1.18641
1.18463
1.18051
1.17561
1.17149
1.16894
1.1679
1.16786
1.16826
1.16873
1.16909
1.16932
1.16945
1.16951
1.16954
1.16955
1.16956
1.16957
1.16958
1.16959
1.1696
1.16961
1.16962
1.16964
1.16965
1.16967
1.16968
1.1697
1.16972
1.16974
1.16976
1.16979
1.16981
1.16984
1.16987
1.1699
1.16994
1.16997
1.17001
1.17006
1.1701
1.17015
1.1702
1.17026
1.17032
1.17038
1.17045
1.17052
1.17059
1.17067
1.17076
1.17084
1.17093
1.17103
1.17113
1.17123
1.17134
1.17145
1.17157
1.17169
1.17182
1.17195
1.17208
1.17222
1.17236
1.1725
1.17265
1.17281
1.17296
1.17312
1.17329
1.17345
1.17362
1.1738
1.17398
1.17416
1.17434
1.17453
1.17472
1.17491
1.17511
1.17531
1.17551
1.17572
1.17593
1.17614
1.17636
1.17658
1.1768
1.17703
1.17725
1.17748
1.17772
1.17796
1.1782
1.17844
1.17868
1.17893
1.17919
1.17944
1.1797
1.17996
1.18021
1.1805
1.18073
1.18107
1.18124
1.18164
1.18181
1.16416
1.16588
1.16753
1.17034
1.17487
1.1794
1.18173
1.18185
1.18184
1.18329
1.1855
1.1864
1.18462
1.18049
1.17559
1.17146
1.16891
1.16786
1.16782
1.16821
1.16868
1.16904
1.16927
1.1694
1.16946
1.16949
1.1695
1.16951
1.16952
1.16953
1.16954
1.16955
1.16956
1.16957
1.16959
1.1696
1.16961
1.16963
1.16965
1.16967
1.16969
1.16971
1.16973
1.16976
1.16979
1.16982
1.16985
1.16988
1.16992
1.16996
1.17
1.17005
1.1701
1.17015
1.17021
1.17027
1.17033
1.1704
1.17047
1.17054
1.17062
1.1707
1.17079
1.17088
1.17098
1.17108
1.17118
1.17129
1.1714
1.17152
1.17164
1.17177
1.1719
1.17203
1.17217
1.17231
1.17245
1.1726
1.17275
1.17291
1.17307
1.17324
1.1734
1.17357
1.17375
1.17393
1.17411
1.17429
1.17448
1.17467
1.17486
1.17506
1.17526
1.17546
1.17567
1.17588
1.17609
1.17631
1.17653
1.17675
1.17697
1.1772
1.17743
1.17767
1.1779
1.17814
1.17839
1.17863
1.17888
1.17913
1.17939
1.17964
1.17991
1.18016
1.18045
1.18068
1.18102
1.18119
1.18159
1.18176
1.16417
1.16588
1.16754
1.17034
1.17486
1.17939
1.18173
1.18185
1.18184
1.18327
1.18548
1.18641
1.18463
1.18051
1.1756
1.17147
1.1689
1.16785
1.1678
1.16819
1.16866
1.16902
1.16925
1.16937
1.16943
1.16946
1.16948
1.16949
1.1695
1.16951
1.16952
1.16953
1.16954
1.16955
1.16956
1.16958
1.16959
1.16961
1.16963
1.16965
1.16967
1.16969
1.16971
1.16974
1.16977
1.1698
1.16983
1.16986
1.1699
1.16994
1.16998
1.17003
1.17008
1.17013
1.17019
1.17025
1.17031
1.17038
1.17045
1.17052
1.1706
1.17068
1.17077
1.17086
1.17096
1.17106
1.17116
1.17127
1.17138
1.1715
1.17162
1.17175
1.17187
1.17201
1.17215
1.17229
1.17243
1.17258
1.17273
1.17289
1.17305
1.17321
1.17338
1.17355
1.17373
1.1739
1.17408
1.17427
1.17446
1.17465
1.17484
1.17504
1.17524
1.17544
1.17565
1.17586
1.17607
1.17629
1.17651
1.17673
1.17695
1.17718
1.17741
1.17765
1.17788
1.17812
1.17837
1.17861
1.17886
1.17911
1.17937
1.17962
1.17989
1.18014
1.18043
1.18066
1.181
1.18117
1.18157
1.18174
1.16417
1.16588
1.16754
1.17033
1.17485
1.17938
1.18173
1.18186
1.18183
1.18326
1.18547
1.18641
1.18466
1.18055
1.17564
1.1715
1.16892
1.16785
1.16779
1.16819
1.16865
1.16901
1.16924
1.16936
1.16942
1.16945
1.16947
1.16948
1.16949
1.1695
1.16951
1.16952
1.16953
1.16954
1.16955
1.16957
1.16958
1.1696
1.16962
1.16964
1.16966
1.16968
1.1697
1.16973
1.16976
1.16979
1.16982
1.16985
1.16989
1.16993
1.16997
1.17002
1.17007
1.17012
1.17018
1.17024
1.1703
1.17037
1.17044
1.17051
1.17059
1.17067
1.17076
1.17085
1.17095
1.17105
1.17115
1.17126
1.17137
1.17149
1.17161
1.17174
1.17187
1.172
1.17214
1.17228
1.17242
1.17257
1.17272
1.17288
1.17304
1.1732
1.17337
1.17354
1.17372
1.17389
1.17408
1.17426
1.17445
1.17464
1.17483
1.17503
1.17523
1.17543
1.17564
1.17585
1.17606
1.17628
1.1765
1.17672
1.17694
1.17717
1.1774
1.17764
1.17787
1.17811
1.17836
1.1786
1.17885
1.1791
1.17936
1.17961
1.17988
1.18013
1.18042
1.18065
1.18099
1.18116
1.18156
1.18173
1.16418
1.16589
1.16755
1.17033
1.1748
1.17933
1.18174
1.18189
1.18182
1.18318
1.1854
1.18642
1.18475
1.18069
1.17577
1.1716
1.16898
1.16789
1.1678
1.16818
1.16864
1.16899
1.16922
1.16935
1.16941
1.16944
1.16946
1.16947
1.16948
1.16949
1.1695
1.16951
1.16952
1.16953
1.16955
1.16956
1.16957
1.16959
1.16961
1.16963
1.16965
1.16967
1.16969
1.16972
1.16975
1.16978
1.16981
1.16984
1.16988
1.16992
1.16996
1.17001
1.17006
1.17011
1.17017
1.17023
1.17029
1.17036
1.17043
1.1705
1.17058
1.17067
1.17075
1.17084
1.17094
1.17104
1.17114
1.17125
1.17137
1.17148
1.1716
1.17173
1.17186
1.17199
1.17213
1.17227
1.17242
1.17256
1.17272
1.17287
1.17303
1.1732
1.17337
1.17354
1.17371
1.17389
1.17407
1.17425
1.17444
1.17463
1.17483
1.17502
1.17522
1.17543
1.17563
1.17584
1.17606
1.17627
1.17649
1.17671
1.17694
1.17717
1.1774
1.17763
1.17787
1.17811
1.17835
1.1786
1.17885
1.1791
1.17935
1.17961
1.17987
1.18013
1.18041
1.18064
1.18098
1.18116
1.18155
1.18173
1.16419
1.16589
1.16757
1.17038
1.17481
1.17927
1.18167
1.1819
1.18189
1.18322
1.18532
1.18621
1.18449
1.18046
1.17565
1.17159
1.16907
1.16802
1.16794
1.16831
1.16874
1.16909
1.16931
1.16943
1.16949
1.16952
1.16953
1.16954
1.16955
1.16956
1.16957
1.16958
1.16959
1.1696
1.16962
1.16963
1.16964
1.16966
1.16968
1.1697
1.16972
1.16974
1.16976
1.16979
1.16981
1.16984
1.16987
1.16991
1.16995
1.16999
1.17003
1.17007
1.17012
1.17017
1.17023
1.17029
1.17035
1.17042
1.17049
1.17056
1.17064
1.17072
1.17081
1.1709
1.171
1.1711
1.1712
1.17131
1.17142
1.17154
1.17166
1.17178
1.17191
1.17204
1.17218
1.17232
1.17247
1.17262
1.17277
1.17293
1.17308
1.17325
1.17341
1.17359
1.17376
1.17394
1.17412
1.1743
1.17449
1.17468
1.17487
1.17507
1.17527
1.17547
1.17568
1.17589
1.1761
1.17632
1.17653
1.17676
1.17698
1.17721
1.17744
1.17767
1.17791
1.17815
1.17839
1.17864
1.17889
1.17914
1.17939
1.17965
1.17991
1.18016
1.18045
1.18068
1.18102
1.18119
1.18159
1.18176
1.16421
1.16583
1.1676
1.17062
1.17476
1.17805
1.17931
1.17962
1.18059
1.18213
1.18272
1.18125
1.17803
1.17431
1.17131
1.16957
1.16898
1.16908
1.16946
1.16983
1.17009
1.17025
1.17032
1.17035
1.17036
1.17036
1.17036
1.17036
1.17036
1.17036
1.17036
1.17036
1.17037
1.17037
1.17037
1.17038
1.17038
1.17039
1.17041
1.17041
1.17042
1.17044
1.17046
1.17047
1.17049
1.17051
1.17054
1.17057
1.17059
1.17062
1.17066
1.1707
1.17074
1.17078
1.17083
1.17088
1.17094
1.171
1.17107
1.17113
1.1712
1.17128
1.17136
1.17145
1.17153
1.17163
1.17173
1.17183
1.17193
1.17204
1.17216
1.17228
1.17241
1.17253
1.17267
1.1728
1.17294
1.17308
1.17323
1.17338
1.17354
1.1737
1.17386
1.17403
1.1742
1.17437
1.17455
1.17473
1.17491
1.1751
1.17529
1.17548
1.17568
1.17588
1.17609
1.1763
1.17651
1.17672
1.17694
1.17716
1.17738
1.17761
1.17784
1.17807
1.17831
1.17854
1.17879
1.17903
1.17928
1.17953
1.17978
1.18004
1.1803
1.18056
1.18083
1.18109
1.18139
1.18161
1.18199
1.18217
)
;

boundaryField
{
    upperWall
    {
        type            calculated;
        value           nonuniform List<scalar> 
120
(
1.16337
1.16335
1.16335
1.16334
1.16332
1.1633
1.16327
1.16325
1.16324
1.16323
1.16321
1.16318
1.16316
1.16316
1.16316
1.16318
1.1632
1.16321
1.16323
1.16324
1.16325
1.16326
1.16327
1.16328
1.16329
1.1633
1.16331
1.16332
1.16334
1.16335
1.16337
1.16338
1.1634
1.16342
1.16344
1.16346
1.16348
1.1635
1.16353
1.16355
1.16358
1.16361
1.16364
1.16368
1.16371
1.16375
1.1638
1.16384
1.16389
1.16394
1.16399
1.16405
1.16412
1.16418
1.16425
1.16433
1.16441
1.16449
1.16458
1.16467
1.16477
1.16487
1.16498
1.16509
1.16521
1.16534
1.16546
1.1656
1.16574
1.16588
1.16603
1.16618
1.16634
1.16651
1.16668
1.16685
1.16703
1.16721
1.1674
1.16759
1.16779
1.16799
1.16819
1.1684
1.16862
1.16883
1.16906
1.16928
1.16951
1.16975
1.16998
1.17022
1.17047
1.17072
1.17097
1.17123
1.17149
1.17175
1.17202
1.17229
1.17257
1.17285
1.17313
1.17342
1.17371
1.174
1.1743
1.1746
1.1749
1.17521
1.17552
1.17584
1.17615
1.17648
1.1768
1.17713
1.17746
1.17779
1.17813
1.17848
)
;
    }
    lowerWall
    {
        type            calculated;
        value           nonuniform List<scalar> 
120
(
0.653796
0.853375
0.949127
0.98089
0.991072
0.991821
0.987732
0.983066
0.980023
0.978605
0.975724
0.97081
0.963327
0.95558
0.950183
0.947067
0.945499
0.945976
0.946904
0.947515
0.948662
0.950168
0.950341
0.950672
0.951899
0.952524
0.952789
0.953746
0.954308
0.954585
0.955509
0.955882
0.956089
0.95703
0.957543
0.957791
0.958695
0.95908
0.95923
0.959915
0.961251
0.962386
0.96257
0.962541
0.962565
0.962679
0.963456
0.964068
0.964276
0.964858
0.966139
0.966533
0.966359
0.966489
0.967209
0.968225
0.968736
0.968649
0.968792
0.969341
0.970827
0.971191
0.971099
0.97132
0.972258
0.972708
0.9728
0.973114
0.974186
0.974332
0.97443
0.974944
0.976457
0.976823
0.976786
0.976999
0.977835
0.978649
0.978945
0.979413
0.980479
0.980708
0.980707
0.980949
0.981939
0.982619
0.982659
0.982872
0.983541
0.98452
0.984725
0.984886
0.985268
0.986225
0.98641
0.986688
0.987593
0.988181
0.988551
0.989141
0.989859
0.990173
0.99013
0.990374
0.991371
0.991997
0.992465
0.992925
0.992975
0.993306
0.993822
0.993986
0.994355
0.995264
0.995616
0.995873
0.996575
0.997577
0.997941
0.997975
)
;
    }
    inlet
    {
        type            calculated;
        value           nonuniform List<scalar> 
12
(
1.16338
1.16335
1.16334
1.16333
1.16333
1.16332
1.16332
1.16332
1.16333
1.16334
1.16334
1.16337
)
;
    }
    outlet
    {
        type            calculated;
        value           nonuniform List<scalar> 
12
(
1.0893
1.18285
1.18312
1.18233
1.18208
1.18197
1.18192
1.1819
1.18189
1.18189
1.18192
1.18233
)
;
    }
    frontAndBack
    {
        type            empty;
    }
}


// ************************************************************************* //
