/*--------------------------------*- C++ -*----------------------------------*\
  =========                 |
  \\      /  F ield         | OpenFOAM: The Open Source CFD Toolbox
   \\    /   O peration     | Website:  https://openfoam.org
    \\  /    A nd           | Version:  7
     \\/     M anipulation  |
\*---------------------------------------------------------------------------*/
FoamFile
{
    version     2.0;
    format      ascii;
    class       volScalarField;
    location    "0.0525";
    object      k;
}
// * * * * * * * * * * * * * * * * * * * * * * * * * * * * * * * * * * * * * //

dimensions      [0 2 -2 0 0 0 0];

internalField   nonuniform List<scalar> 
27000
(
420.697
348.896
342.326
344.518
345.991
348.154
349.911
351.853
353.613
355.356
356.953
358.461
359.854
361.188
362.489
363.797
365.11
366.389
367.578
368.64
369.548
370.309
371.016
371.81
372.712
373.567
374.272
374.967
375.689
376.182
376.386
376.704
377.631
378.659
379.031
378.725
378.759
379.973
381.406
381.701
249.941
165.125
153.59
153.766
154.277
155.02
155.554
156.089
156.526
156.932
157.277
157.586
157.849
158.081
158.282
158.46
158.624
158.785
158.951
159.127
159.315
159.511
159.715
159.923
160.131
160.343
160.549
160.759
160.973
161.151
161.309
161.403
161.565
161.712
161.872
161.996
162.019
162.212
162.512
162.801
246.739
162.769
151.029
151.494
151.925
152.81
153.389
154.066
154.614
155.164
155.643
156.096
156.499
156.868
157.198
157.501
157.777
158.035
158.281
158.52
158.754
158.99
159.24
159.501
159.756
160.015
160.283
160.566
160.837
161.051
161.268
161.469
161.716
161.803
161.873
161.947
161.973
162.199
162.193
162.106
248.18
163.662
152.389
152.664
153.309
154.158
154.809
155.454
155.995
156.495
156.924
157.306
157.633
157.916
158.157
158.363
158.538
158.689
158.822
158.945
159.061
159.178
159.298
159.426
159.562
159.705
159.851
159.999
160.15
160.292
160.411
160.5
160.582
160.633
160.665
160.651
160.573
160.555
160.523
160.443
247.629
163.139
151.832
152.241
153.004
153.974
154.742
155.509
156.168
156.787
157.331
157.826
158.264
158.654
158.998
159.302
159.572
159.815
160.036
160.243
160.439
160.631
160.826
161.024
161.224
161.427
161.637
161.846
162.046
162.23
162.402
162.555
162.681
162.754
162.801
162.829
162.833
162.849
162.779
162.671
247.647
163.16
151.861
152.258
153.031
154
154.767
155.534
156.194
156.814
157.36
157.856
158.295
158.686
159.031
159.337
159.609
159.854
160.078
160.287
160.486
160.681
160.879
161.08
161.282
161.484
161.696
161.911
162.113
162.294
162.467
162.626
162.773
162.837
162.872
162.916
162.905
162.939
162.886
162.707
248.15
163.629
152.36
152.643
153.289
154.136
154.785
155.427
155.966
156.464
156.893
157.274
157.603
157.889
158.132
158.34
158.517
158.671
158.808
158.933
159.054
159.175
159.3
159.432
159.574
159.725
159.878
160.032
160.191
160.345
160.48
160.573
160.671
160.736
160.783
160.809
160.713
160.673
160.71
160.62
246.752
162.798
151.049
151.523
151.964
152.856
153.443
154.127
154.685
155.245
155.736
156.202
156.621
157.009
157.361
157.688
157.991
158.277
158.551
158.819
159.085
159.354
159.633
159.922
160.215
160.515
160.819
161.117
161.425
161.698
161.968
162.158
162.406
162.56
162.716
162.87
162.795
162.952
163.075
163.036
249.917
165.095
153.667
153.916
154.559
155.413
156.077
156.734
157.3
157.833
158.309
158.747
159.141
159.5
159.824
160.121
160.396
160.658
160.909
161.162
161.43
161.707
161.969
162.23
162.529
162.845
163.095
163.279
163.543
163.861
164.097
164.086
164.133
164.44
164.853
164.981
164.645
164.563
165.108
165.941
423.889
353.14
349.394
353.779
357.544
361.58
365.004
368.334
371.283
373.999
376.401
378.545
380.422
382.067
383.5
384.757
385.857
386.814
387.652
388.412
389.096
389.668
390.156
390.685
391.261
391.688
391.905
392.243
392.905
393.381
393.26
393.005
393.616
394.798
395.115
394.127
393.226
394.344
396.687
397.565
122.481
147.641
149.521
150.732
151.448
152.329
153.156
153.998
154.815
155.598
156.344
157.046
157.718
158.376
159.047
159.742
160.458
161.162
161.811
162.372
162.835
163.219
163.583
163.995
164.465
164.925
165.318
165.648
165.922
166.129
166.306
166.576
166.985
167.379
167.581
167.649
167.85
168.277
168.652
168.707
120.709
148.432
150.468
151.808
152.366
153.082
153.608
154.121
154.56
154.962
155.313
155.622
155.893
156.129
156.336
156.522
156.697
156.87
157.048
157.236
157.436
157.643
157.856
158.074
158.295
158.52
158.735
158.951
159.173
159.359
159.523
159.616
159.791
159.952
160.128
160.243
160.247
160.475
160.788
161.088
119.358
146.986
148.397
150.028
150.461
151.3
151.855
152.472
152.991
153.49
153.939
154.355
154.732
155.077
155.393
155.683
155.951
156.202
156.445
156.68
156.912
157.148
157.403
157.667
157.92
158.177
158.45
158.74
159.004
159.205
159.424
159.647
159.894
159.955
159.997
160.088
160.179
160.408
160.358
160.235
120.281
147.802
149.963
151.407
152.079
152.906
153.536
154.144
154.661
155.126
155.53
155.881
156.184
156.442
156.661
156.845
157.001
157.134
157.252
157.361
157.466
157.571
157.682
157.803
157.932
158.065
158.201
158.343
158.491
158.625
158.729
158.813
158.896
158.947
158.961
158.925
158.844
158.84
158.809
158.712
119.917
147.393
149.371
150.94
151.718
152.659
153.41
154.135
154.77
155.351
155.867
156.328
156.738
157.1
157.419
157.701
157.95
158.174
158.379
158.57
158.752
158.932
159.115
159.303
159.493
159.684
159.883
160.083
160.274
160.446
160.607
160.753
160.87
160.93
160.961
160.98
160.989
161.003
160.92
160.788
119.914
147.38
149.376
150.934
151.726
152.666
153.417
154.144
154.781
155.363
155.881
156.344
156.754
157.118
157.439
157.722
157.974
158.2
158.407
158.601
158.786
158.968
159.154
159.345
159.536
159.727
159.929
160.135
160.327
160.495
160.657
160.809
160.947
160.999
161.015
161.049
161.046
161.078
161.008
160.798
120.283
147.801
149.957
151.407
152.077
152.901
153.527
154.132
154.647
155.11
155.512
155.863
156.167
156.426
156.646
156.833
156.991
157.128
157.249
157.362
157.471
157.581
157.697
157.821
157.956
158.097
158.241
158.389
158.545
158.693
158.811
158.896
158.996
159.063
159.098
159.099
158.99
158.973
159.012
158.902
119.349
146.977
148.383
150.034
150.47
151.316
151.879
152.504
153.034
153.546
154.007
154.437
154.83
155.194
155.531
155.845
156.138
156.418
156.689
156.954
157.217
157.487
157.771
158.063
158.353
158.651
158.962
159.27
159.572
159.828
160.098
160.318
160.572
160.698
160.822
160.983
160.981
161.164
161.221
161.13
120.682
148.435
150.597
152.036
152.729
153.562
154.218
154.852
155.414
155.931
156.402
156.832
157.224
157.58
157.906
158.205
158.486
158.756
159.017
159.28
159.56
159.848
160.121
160.395
160.706
161.033
161.29
161.483
161.76
162.085
162.32
162.307
162.376
162.697
163.107
163.228
162.867
162.834
163.416
164.226
123.229
150.03
153.564
156.191
158.223
160.217
162.026
163.681
165.189
166.534
167.738
168.792
169.72
170.528
171.238
171.86
172.405
172.876
173.284
173.639
173.94
174.182
174.393
174.614
174.826
174.966
175.053
175.204
175.42
175.53
175.477
175.49
175.772
176.109
176.099
175.784
175.724
176.234
176.874
176.891
1.33928
3.32397
3.98373
4.23215
4.32696
4.37306
4.40876
4.43375
4.45868
4.47855
4.49781
4.51393
4.52922
4.54287
4.55613
4.56875
4.58106
4.59246
4.60258
4.61098
4.61767
4.6231
4.62819
4.63377
4.63973
4.64503
4.64883
4.65106
4.65194
4.65192
4.65178
4.65285
4.6564
4.66026
4.66241
4.66357
4.66638
4.67174
4.67633
4.6771
0.851142
5.19903
5.75099
6.44685
6.51072
6.58662
6.6194
6.61614
6.61495
6.59768
6.58026
6.55179
6.52986
6.50529
6.48606
6.46804
6.45391
6.44145
6.43174
6.42404
6.41894
6.4169
6.4174
6.41968
6.42114
6.42054
6.41811
6.41692
6.41615
6.41543
6.41389
6.41365
6.4154
6.41351
6.4118
6.40866
6.41273
6.42621
6.43238
6.4338
0.808784
3.93827
3.95277
4.10697
4.07793
4.08399
4.09894
4.11944
4.1374
4.15319
4.16685
4.17839
4.1884
4.19695
4.20453
4.21125
4.21741
4.22313
4.22861
4.23392
4.2392
4.24473
4.25067
4.25668
4.26247
4.2683
4.27419
4.27981
4.28401
4.2875
4.29127
4.29522
4.29714
4.2963
4.2957
4.29623
4.29885
4.30008
4.29693
4.29509
0.805895
4.5937
4.85336
5.46322
5.52607
5.61742
5.66062
5.66755
5.67946
5.67094
5.66334
5.64489
5.62921
5.60882
5.5916
5.57344
5.55759
5.5423
5.52894
5.51702
5.50726
5.49944
5.49347
5.48841
5.48358
5.4783
5.47294
5.46776
5.46373
5.46073
5.45704
5.45164
5.44392
5.43766
5.43353
5.42855
5.42126
5.41171
5.40455
5.4031
0.800863
4.29748
4.33724
4.76377
4.83131
4.9204
4.96012
4.96414
4.97303
4.96333
4.95422
4.93346
4.91596
4.89359
4.87482
4.85563
4.83941
4.82426
4.81134
4.79982
4.79029
4.78262
4.7771
4.77317
4.77007
4.76692
4.76318
4.7584
4.75317
4.74916
4.74675
4.74379
4.73746
4.73022
4.72566
4.72402
4.72082
4.71155
4.70016
4.69658
0.800821
4.2852
4.32145
4.74331
4.81101
4.89951
4.93847
4.94148
4.94837
4.93743
4.9265
4.90301
4.88335
4.85885
4.83799
4.81678
4.79867
4.7819
4.76773
4.75543
4.74556
4.73779
4.73204
4.7274
4.72319
4.71909
4.7154
4.71155
4.70752
4.704
4.70156
4.69888
4.69268
4.68481
4.6784
4.6772
4.67567
4.66866
4.6553
4.64586
0.805943
4.60538
4.87036
5.48541
5.54877
5.64087
5.68512
5.69317
5.70693
5.69955
5.69351
5.67732
5.66328
5.64439
5.62848
5.61149
5.59669
5.58236
5.56984
5.55856
5.54917
5.54139
5.53522
5.53004
5.52554
5.52117
5.51668
5.51184
5.50731
5.50406
5.50052
5.49522
5.48776
5.48153
5.47959
5.47609
5.46831
5.45764
5.44997
5.45045
0.815286
3.92292
3.94482
4.09426
4.07324
4.08173
4.09969
4.12066
4.13887
4.15481
4.16855
4.18008
4.19006
4.19859
4.20618
4.21294
4.2192
4.22509
4.23083
4.2365
4.24225
4.24826
4.25461
4.26109
4.26751
4.27403
4.28055
4.28691
4.29231
4.29708
4.30152
4.3057
4.30879
4.30937
4.31031
4.31107
4.31245
4.31469
4.31313
4.31252
0.853974
5.21263
5.77465
6.47622
6.54792
6.63032
6.67198
6.67442
6.68065
6.66882
6.65796
6.63557
6.61932
6.60005
6.58568
6.57204
6.56194
6.55328
6.54724
6.54342
6.54248
6.54307
6.54556
6.5501
6.55498
6.55831
6.55967
6.56147
6.56515
6.56725
6.56621
6.56227
6.56437
6.56888
6.57247
6.56725
6.5635
6.57383
6.59095
6.59974
1.34305
3.36509
4.06358
4.34672
4.47306
4.54585
4.60439
4.64782
4.68786
4.71967
4.74837
4.7716
4.79195
4.80861
4.82289
4.83464
4.84454
4.85262
4.85939
4.86496
4.86938
4.87272
4.87554
4.87809
4.87967
4.87979
4.8793
4.87928
4.87917
4.87697
4.87297
4.87145
4.87313
4.87431
4.87144
4.86645
4.86704
4.87483
4.88063
4.87755
0.0100604
0.0727729
0.152904
0.255501
0.336297
0.403846
0.453494
0.489675
0.51544
0.53317
0.545757
0.554312
0.560483
0.564733
0.567879
0.570129
0.571872
0.573198
0.574274
0.575123
0.575812
0.576354
0.576783
0.577113
0.57733
0.577383
0.577375
0.577308
0.577052
0.576621
0.576122
0.575584
0.574982
0.574321
0.573613
0.572941
0.572321
0.571611
0.570691
0.569648
0.00156816
0.0366764
0.0614853
0.113057
0.141512
0.171442
0.190062
0.205445
0.215523
0.222877
0.227719
0.230825
0.232771
0.233834
0.234408
0.234608
0.234572
0.234449
0.234252
0.234049
0.233874
0.233725
0.233584
0.233413
0.233192
0.232936
0.232698
0.232506
0.23236
0.232248
0.232161
0.232073
0.231966
0.231895
0.231919
0.232088
0.232284
0.232361
0.232409
0.232591
0.00118659
0.0253236
0.0397484
0.0703381
0.0849431
0.103281
0.114074
0.124483
0.131511
0.137443
0.141708
0.145046
0.147506
0.149372
0.15077
0.151818
0.152612
0.153205
0.153652
0.153993
0.154249
0.154463
0.154623
0.15469
0.154695
0.154685
0.154653
0.154561
0.154424
0.154284
0.154147
0.153982
0.153759
0.15353
0.153374
0.153286
0.153156
0.1529
0.152611
0.152447
0.00142418
0.0319099
0.0513061
0.0931632
0.115229
0.140671
0.156129
0.16952
0.178293
0.18493
0.189391
0.192373
0.194297
0.19539
0.196008
0.196197
0.196144
0.195988
0.195703
0.195375
0.195046
0.194719
0.194389
0.194034
0.193648
0.193242
0.192842
0.192466
0.192121
0.191786
0.191431
0.191045
0.190664
0.190341
0.190064
0.189772
0.189431
0.189089
0.188843
0.188688
0.00127801
0.0287544
0.0452266
0.081055
0.0987983
0.121469
0.134953
0.14727
0.155344
0.16169
0.166015
0.169031
0.17099
0.17222
0.172905
0.173279
0.173276
0.173198
0.17302
0.172754
0.17247
0.172179
0.171888
0.171584
0.171258
0.170899
0.170516
0.170125
0.16975
0.169404
0.169064
0.168702
0.168327
0.167984
0.167689
0.167394
0.167043
0.166658
0.166342
0.166136
0.00127016
0.0285968
0.0449752
0.0806043
0.0982139
0.12078
0.134179
0.146434
0.154445
0.160725
0.165009
0.16795
0.169862
0.171012
0.171663
0.171941
0.171912
0.171799
0.171564
0.171269
0.170962
0.170647
0.170329
0.169993
0.169639
0.169271
0.168902
0.168535
0.16818
0.167839
0.167494
0.167123
0.166737
0.166387
0.166095
0.165818
0.165484
0.165091
0.164733
0.164495
0.0014308
0.0320586
0.051583
0.0936984
0.115935
0.141514
0.157079
0.170549
0.179396
0.186106
0.190616
0.193672
0.195646
0.196814
0.197463
0.19774
0.19771
0.197593
0.197352
0.197054
0.196744
0.196426
0.196103
0.195762
0.195402
0.195025
0.194639
0.194255
0.193888
0.193539
0.19318
0.192799
0.192431
0.192127
0.191875
0.191588
0.191231
0.190876
0.19065
0.190547
0.0011934
0.0252123
0.0395744
0.0700094
0.0845962
0.102927
0.113754
0.124189
0.131237
0.137178
0.141445
0.144778
0.14723
0.149083
0.150466
0.151498
0.152276
0.152849
0.153282
0.153607
0.153854
0.154062
0.154219
0.154289
0.154297
0.154291
0.154268
0.154196
0.154074
0.153949
0.153828
0.153686
0.153483
0.153264
0.153108
0.15303
0.152929
0.152685
0.152404
0.152256
0.00157727
0.0368301
0.0618152
0.113738
0.142435
0.172677
0.191533
0.207241
0.21751
0.225128
0.230173
0.233523
0.235641
0.236913
0.237609
0.237955
0.238038
0.238
0.237905
0.237797
0.23771
0.237629
0.237557
0.23747
0.237351
0.237208
0.237067
0.236949
0.23685
0.236758
0.236677
0.236614
0.236583
0.236581
0.236646
0.236773
0.236907
0.23702
0.237139
0.23733
0.010067
0.0731396
0.153576
0.257258
0.338813
0.407279
0.457551
0.494316
0.520511
0.538605
0.551472
0.560244
0.566574
0.57093
0.574136
0.576396
0.578113
0.579383
0.580385
0.581158
0.581768
0.582227
0.582571
0.582752
0.58278
0.582761
0.582683
0.582447
0.582043
0.581519
0.580921
0.580293
0.579614
0.578821
0.577954
0.577138
0.576406
0.57562
0.574616
0.573445
0.00635812
0.0335472
0.088872
0.154269
0.217424
0.274611
0.32475
0.365312
0.396724
0.419578
0.436322
0.448334
0.457196
0.46354
0.468109
0.471273
0.473483
0.474989
0.476055
0.476781
0.477298
0.477634
0.477859
0.477918
0.477918
0.477902
0.47781
0.477618
0.47739
0.477129
0.476828
0.476499
0.476149
0.475799
0.475446
0.475091
0.474745
0.474419
0.474119
0.473828
2.32535e-05
0.000103168
0.000317836
0.000892758
0.00160052
0.00280291
0.00409818
0.00571996
0.00741483
0.00916908
0.0108155
0.0123606
0.0138209
0.0152577
0.0166486
0.0179346
0.0190524
0.0199988
0.0208078
0.0215467
0.0222702
0.0229959
0.0236943
0.0242996
0.024769
0.0250846
0.0252477
0.0252962
0.0252988
0.0252986
0.0252984
0.025295
0.0252878
0.0252663
0.0252048
0.0250858
0.0249457
0.024787
0.0246007
0.0243765
2.10113e-05
5.82826e-05
0.000133016
0.000342694
0.00050579
0.000846535
0.00112454
0.00149811
0.00183392
0.00222846
0.00260858
0.00297831
0.00331737
0.00366064
0.00401226
0.00436206
0.00468311
0.00496154
0.0052033
0.00543305
0.00567718
0.00594383
0.00621487
0.00645789
0.00664117
0.00674592
0.00678
0.00678206
0.00678145
0.00678121
0.00677994
0.00677807
0.00677356
0.00676454
0.00674554
0.00671948
0.00669034
0.00665869
0.00662479
0.00658879
2.12177e-05
6.76927e-05
0.000162919
0.0004333
0.000655156
0.00111452
0.00149997
0.00201092
0.00246791
0.00297907
0.00347446
0.00395882
0.00439247
0.00481064
0.00522607
0.00563613
0.00601185
0.00633716
0.00661258
0.00686137
0.00711401
0.00738672
0.00766781
0.00792153
0.00810655
0.00820132
0.00822371
0.00822384
0.00822292
0.00822046
0.00821413
0.00819948
0.00817472
0.00814383
0.00810922
0.00807316
0.00803673
0.00800073
0.00796519
0.00792864
2.10879e-05
6.3073e-05
0.000147732
0.000386112
0.000575241
0.000971231
0.00129844
0.00174161
0.0021366
0.00258578
0.0030219
0.00345049
0.00383304
0.00420745
0.00458363
0.00495656
0.00529629
0.00558835
0.00583662
0.00606542
0.00630281
0.00656125
0.00682553
0.00705861
0.00722136
0.00729781
0.00731234
0.00731219
0.00731138
0.00730839
0.00730191
0.00728705
0.00726043
0.0072276
0.00719087
0.00715216
0.00711302
0.00707541
0.00703813
0.00700068
2.10804e-05
6.28223e-05
0.000146981
0.000383974
0.000571916
0.000965536
0.00129071
0.00173159
0.00212403
0.00257027
0.00300503
0.00343044
0.00381045
0.00418252
0.00455685
0.00492738
0.00526467
0.00555457
0.00580067
0.00602741
0.0062631
0.00652018
0.00678285
0.00701361
0.0071736
0.00724808
0.00726197
0.0072618
0.00726094
0.00725776
0.0072508
0.00723466
0.00720711
0.00717347
0.00713633
0.00709709
0.00705746
0.00701929
0.00698193
0.00694438
2.12243e-05
6.7943e-05
0.000163713
0.000435711
0.000659064
0.00112146
0.0015095
0.00202357
0.00248359
0.0029985
0.00349602
0.0039842
0.00442099
0.00484208
0.00525981
0.0056728
0.00605136
0.00637912
0.00665692
0.00690794
0.00716226
0.00743627
0.00771909
0.0079753
0.00816292
0.00825944
0.00828258
0.00828273
0.00828173
0.00827939
0.00827344
0.00826007
0.00823588
0.00820565
0.00817176
0.00813629
0.00809982
0.00806432
0.00802889
0.00799277
2.10171e-05
5.81338e-05
0.000132527
0.00034118
0.000503617
0.000843177
0.00112039
0.00149278
0.00182854
0.00222263
0.00260192
0.00297218
0.00331155
0.00365397
0.00400502
0.00435538
0.00467677
0.0049549
0.0051959
0.00542537
0.00566931
0.0059357
0.00620694
0.00644997
0.0066332
0.00673839
0.00677302
0.00677521
0.00677458
0.00677436
0.00677315
0.00677141
0.00676701
0.00675808
0.00673958
0.00671393
0.0066845
0.00665322
0.00661997
0.00658472
2.32633e-05
0.000103461
0.000318855
0.000897331
0.00160562
0.00281199
0.00411223
0.00574297
0.00744327
0.00920425
0.0108563
0.0124129
0.013881
0.0153259
0.0167249
0.0180192
0.0191437
0.0200926
0.0209082
0.0216515
0.0223808
0.0231065
0.0238069
0.0244156
0.0248914
0.0252122
0.0253754
0.0254403
0.0254487
0.0254487
0.0254487
0.0254475
0.0254445
0.0254292
0.0253752
0.0252528
0.0251048
0.0249374
0.0247461
0.0245216
0.00635814
0.0335488
0.0888733
0.154292
0.217453
0.274647
0.324794
0.365364
0.396785
0.419647
0.436398
0.448417
0.45728
0.46363
0.468201
0.471364
0.473576
0.47508
0.476142
0.476865
0.477382
0.477709
0.477929
0.477985
0.477985
0.477969
0.477876
0.47768
0.477447
0.477182
0.476879
0.476548
0.476193
0.475836
0.475477
0.475116
0.474764
0.474433
0.474128
0.473832
0.00635559
0.0334287
0.0886136
0.153645
0.215685
0.272215
0.321562
0.36184
0.392721
0.415281
0.431594
0.443335
0.451886
0.457983
0.462285
0.46519
0.467132
0.468394
0.469196
0.469649
0.469962
0.470006
0.469977
0.469897
0.469684
0.469369
0.469026
0.468648
0.468232
0.467783
0.467308
0.466813
0.466305
0.465797
0.465299
0.464817
0.464361
0.463939
0.463545
0.463168
2.18477e-05
4.65742e-05
0.000144497
0.00037251
0.00081568
0.00143064
0.00224362
0.00326305
0.00443624
0.00565085
0.00681115
0.00790475
0.00898893
0.0101052
0.011229
0.0122813
0.0131994
0.0139763
0.0146537
0.0152998
0.015968
0.016661
0.017336
0.0179263
0.0183817
0.0186795
0.0188249
0.0188623
0.0188633
0.0188624
0.0188608
0.0188528
0.0188297
0.0187646
0.0186225
0.0184425
0.0182338
0.0179965
0.0177289
0.0174282
1.9962e-05
1.99873e-05
2.01367e-05
2.06545e-05
2.17259e-05
2.40376e-05
2.75589e-05
3.30326e-05
3.96529e-05
5.03042e-05
6.34161e-05
7.64706e-05
8.91502e-05
0.000105583
0.000128233
0.000154951
0.000180485
0.000201585
0.000219956
0.000241275
0.000270587
0.000308358
0.000350095
0.00038909
0.000419371
0.000437773
0.00044518
0.000446212
0.000446212
0.000446203
0.000446
0.000445404
0.000443324
0.000437562
0.000428234
0.000417377
0.000405579
0.000393073
0.000379961
0.000366376
1.99613e-05
1.99874e-05
2.01189e-05
2.06197e-05
2.14049e-05
2.32222e-05
2.53504e-05
2.90735e-05
3.23512e-05
3.77216e-05
4.45338e-05
5.17851e-05
5.81686e-05
6.55206e-05
7.52429e-05
8.70158e-05
9.85362e-05
0.000108194
0.000116425
0.000125631
0.00013811
0.000154154
0.000171541
0.000186782
0.000197118
0.000201922
0.000202866
0.000202866
0.000202845
0.000202663
0.000202066
0.000200592
0.000198792
0.000196932
0.000195062
0.000193225
0.000191404
0.000189597
0.000187792
0.000185922
1.9961e-05
1.99827e-05
2.00973e-05
2.05408e-05
2.12231e-05
2.28048e-05
2.46428e-05
2.7815e-05
3.06051e-05
3.53071e-05
4.12133e-05
4.73846e-05
5.27823e-05
5.92095e-05
6.78452e-05
7.81604e-05
8.80055e-05
9.61008e-05
0.000103135
0.000111388
0.000122752
0.00013715
0.00015228
0.000164949
0.000172936
0.000176145
0.000176585
0.000176553
0.000176458
0.000176022
0.000174796
0.000172928
0.000171006
0.000169141
0.000167294
0.000165466
0.000163672
0.000161977
0.000160283
0.000158569
1.9961e-05
1.99824e-05
2.00962e-05
2.05368e-05
2.1215e-05
2.27858e-05
2.46139e-05
2.77737e-05
3.05341e-05
3.52075e-05
4.11031e-05
4.7227e-05
5.2572e-05
5.89684e-05
6.75663e-05
7.78291e-05
8.76119e-05
9.56408e-05
0.000102616
0.000110813
0.000122132
0.000136474
0.000151513
0.000164061
0.000171924
0.000175046
0.000175461
0.000175426
0.000175325
0.000174872
0.0001736
0.000171698
0.000169754
0.000167851
0.00016598
0.000164123
0.000162311
0.000160596
0.000158906
0.000157185
1.99614e-05
1.99877e-05
2.01201e-05
2.06239e-05
2.14141e-05
2.32447e-05
2.53841e-05
2.91269e-05
3.24365e-05
3.78423e-05
4.46759e-05
5.19879e-05
5.8428e-05
6.58293e-05
7.5597e-05
8.74347e-05
9.90375e-05
0.000108777
0.000117087
0.000126353
0.000138883
0.000155006
0.000172503
0.000187885
0.000198358
0.00020325
0.000204222
0.000204222
0.000204204
0.000204039
0.000203492
0.000202105
0.000200301
0.000198459
0.000196627
0.00019483
0.00019301
0.000191218
0.000189386
0.000187516
1.9962e-05
1.99871e-05
2.0136e-05
2.06521e-05
2.17204e-05
2.40318e-05
2.75254e-05
3.30035e-05
3.96339e-05
5.02253e-05
6.33177e-05
7.64221e-05
8.90971e-05
0.000105459
0.000128124
0.000154882
0.000180378
0.000201443
0.000219838
0.000241129
0.000270337
0.000308046
0.000349832
0.000388788
0.00041893
0.00043734
0.0004449
0.000445987
0.000445986
0.000445974
0.000445788
0.000445232
0.000443193
0.000437362
0.000427849
0.000416812
0.000404802
0.000392178
0.000379069
0.000365514
2.1848e-05
4.65758e-05
0.000144499
0.000372559
0.000815747
0.00143024
0.00224276
0.00326291
0.00443631
0.00564938
0.00680985
0.00790493
0.00898975
0.0101055
0.0112306
0.0122852
0.013203
0.0139782
0.0146559
0.0153027
0.0159686
0.0166595
0.0173329
0.0179243
0.0183766
0.0186713
0.018822
0.0188661
0.018868
0.0188677
0.0188671
0.0188613
0.0188415
0.018777
0.0186288
0.01844
0.0182214
0.0179757
0.0177032
0.0174005
0.00635558
0.0334282
0.0886122
0.153645
0.215686
0.272216
0.321562
0.36184
0.392722
0.415281
0.431595
0.443336
0.451888
0.457985
0.462287
0.465194
0.467137
0.468397
0.469199
0.469651
0.469963
0.470005
0.469975
0.469894
0.46968
0.469366
0.469025
0.468648
0.468235
0.467787
0.467314
0.46682
0.466312
0.465803
0.465303
0.464819
0.46436
0.463935
0.46354
0.463163
0.00635605
0.0334167
0.0885834
0.153467
0.21536
0.271779
0.320915
0.360999
0.391597
0.413944
0.430001
0.441553
0.449873
0.455788
0.459878
0.462591
0.464355
0.465442
0.466026
0.466393
0.466422
0.466366
0.466239
0.46596
0.465559
0.465113
0.464629
0.464108
0.463553
0.462967
0.462358
0.46173
0.461095
0.460466
0.45985
0.459257
0.458692
0.458165
0.457661
0.457191
2.18395e-05
4.65403e-05
0.000144365
0.000372003
0.000813968
0.00142758
0.00224129
0.00325803
0.00442542
0.00563355
0.00678602
0.00787269
0.00894918
0.0100601
0.0111758
0.0122165
0.0131226
0.0138855
0.014551
0.0151922
0.0158558
0.0165435
0.017209
0.0177865
0.0182274
0.0185071
0.0186348
0.0186617
0.0186618
0.0186609
0.0186572
0.0186445
0.0186078
0.0185096
0.0183467
0.0181513
0.0179285
0.0176785
0.0174002
0.0170913
1.99831e-05
1.9933e-05
1.99598e-05
2.01035e-05
2.05246e-05
2.14206e-05
2.31743e-05
2.61636e-05
3.04858e-05
3.68424e-05
4.48973e-05
5.30152e-05
6.12272e-05
7.2152e-05
8.76033e-05
0.000105853
0.000123073
0.000136943
0.000149092
0.000163894
0.000184863
0.000211989
0.000241723
0.000269134
0.000290106
0.000302652
0.000307584
0.000308233
0.000308228
0.000308205
0.000307817
0.000306475
0.000302302
0.000294286
0.00028476
0.000274103
0.000262716
0.000250839
0.000238607
0.000226109
1.99754e-05
1.9936e-05
1.99001e-05
1.98601e-05
1.9804e-05
1.97643e-05
1.9752e-05
1.97391e-05
1.9714e-05
1.97157e-05
1.97284e-05
1.97626e-05
1.9811e-05
1.9868e-05
1.99837e-05
2.01713e-05
2.03567e-05
2.04863e-05
2.06102e-05
2.08583e-05
2.12923e-05
2.17786e-05
2.21365e-05
2.22671e-05
2.22446e-05
2.19467e-05
2.06381e-05
1.71039e-05
1.34818e-05
1.05892e-05
8.44216e-06
6.93729e-06
5.92449e-06
5.25513e-06
4.80687e-06
4.49205e-06
4.25447e-06
4.06063e-06
3.8911e-06
3.73427e-06
1.99749e-05
1.99368e-05
1.98998e-05
1.98592e-05
1.98042e-05
1.97628e-05
1.97463e-05
1.97323e-05
1.96994e-05
1.96711e-05
1.967e-05
1.96755e-05
1.96908e-05
1.97129e-05
1.97549e-05
1.98264e-05
1.98961e-05
1.99465e-05
2.0012e-05
2.01499e-05
2.03473e-05
2.05264e-05
2.06165e-05
2.06219e-05
2.05349e-05
2.00717e-05
1.83647e-05
1.45263e-05
1.0906e-05
7.99629e-06
5.8526e-06
4.381e-06
3.43111e-06
2.84818e-06
2.50282e-06
2.30212e-06
2.18488e-06
2.11465e-06
2.0679e-06
2.03229e-06
1.99749e-05
1.99368e-05
1.98998e-05
1.98592e-05
1.98042e-05
1.97628e-05
1.97462e-05
1.97322e-05
1.96992e-05
1.96706e-05
1.96695e-05
1.96749e-05
1.96899e-05
1.97118e-05
1.97532e-05
1.98242e-05
1.98934e-05
1.99435e-05
2.00084e-05
2.01452e-05
2.03418e-05
2.05197e-05
2.06087e-05
2.06137e-05
2.05261e-05
2.00617e-05
1.83517e-05
1.4512e-05
1.08917e-05
7.98192e-06
5.83784e-06
4.36597e-06
3.41581e-06
2.83221e-06
2.48645e-06
2.28527e-06
2.16779e-06
2.09728e-06
2.05069e-06
2.01504e-06
1.99754e-05
1.9936e-05
1.99001e-05
1.98601e-05
1.9804e-05
1.97643e-05
1.9752e-05
1.97392e-05
1.97144e-05
1.97161e-05
1.97289e-05
1.97635e-05
1.98123e-05
1.98695e-05
1.99858e-05
2.01742e-05
2.03603e-05
2.04903e-05
2.06149e-05
2.08642e-05
2.12987e-05
2.17868e-05
2.21465e-05
2.22778e-05
2.22553e-05
2.19581e-05
2.06516e-05
1.71213e-05
1.34997e-05
1.06078e-05
8.46159e-06
6.95832e-06
5.94549e-06
5.275e-06
4.82533e-06
4.50932e-06
4.2703e-06
4.07608e-06
3.90581e-06
3.74902e-06
1.99831e-05
1.9933e-05
1.99598e-05
2.01035e-05
2.05245e-05
2.1421e-05
2.31645e-05
2.61704e-05
3.04942e-05
3.68197e-05
4.48765e-05
5.30325e-05
6.12285e-05
7.21367e-05
8.76321e-05
0.000105906
0.000123082
0.00013695
0.000149146
0.000163932
0.00018481
0.000211927
0.000241715
0.000269073
0.000289939
0.000302501
0.000307519
0.000308192
0.000308188
0.000308172
0.000307817
0.000306554
0.000302536
0.000294379
0.000284645
0.000273805
0.000262277
0.000250349
0.000238104
0.000225595
2.18397e-05
4.65416e-05
0.000144365
0.000372043
0.000814073
0.00142692
0.00224041
0.0032578
0.00442517
0.00563228
0.00678457
0.00787276
0.00894946
0.0100598
0.011177
0.0122197
0.013125
0.0138866
0.0145529
0.0151943
0.0158554
0.0165399
0.0172058
0.0177826
0.0182204
0.0184992
0.0186308
0.0186614
0.0186617
0.0186609
0.018659
0.01865
0.0186179
0.0185212
0.0183499
0.0181462
0.0179153
0.0176598
0.0173777
0.0170662
0.00635606
0.0334172
0.0885857
0.153468
0.21536
0.271779
0.320915
0.360999
0.391596
0.413944
0.43
0.441553
0.449873
0.455789
0.45988
0.462594
0.464358
0.465444
0.466028
0.466394
0.46642
0.466365
0.466236
0.465955
0.465554
0.465109
0.464627
0.464106
0.463552
0.462969
0.462362
0.461737
0.461103
0.460473
0.459856
0.459261
0.458693
0.458165
0.45766
0.457188
0.0063561
0.0334061
0.0885606
0.153384
0.215202
0.271515
0.320541
0.360498
0.39095
0.413162
0.429071
0.440499
0.44868
0.454476
0.458437
0.461033
0.462687
0.463643
0.464143
0.464347
0.464312
0.464199
0.46395
0.463526
0.463034
0.462502
0.461926
0.461308
0.460656
0.459979
0.459281
0.458566
0.457844
0.457129
0.456427
0.455751
0.455108
0.454501
0.453918
0.453369
2.18397e-05
4.65455e-05
0.000144403
0.000372473
0.000813996
0.00142747
0.00224169
0.00325871
0.00442598
0.00563365
0.00678368
0.00786953
0.00894515
0.0100557
0.0111696
0.012208
0.0131105
0.0138682
0.014531
0.0151715
0.0158348
0.0165216
0.0171842
0.0177569
0.0181909
0.0184613
0.0185803
0.0186027
0.0186026
0.0186019
0.018597
0.0185819
0.01854
0.0184295
0.0182567
0.0180553
0.0178268
0.0175693
0.0172834
0.0169662
1.9983e-05
1.99314e-05
1.99577e-05
2.01004e-05
2.05195e-05
2.14116e-05
2.31597e-05
2.6138e-05
3.04617e-05
3.68145e-05
4.48232e-05
5.29005e-05
6.10872e-05
7.20222e-05
8.74618e-05
0.000105642
0.000122699
0.000136369
0.000148439
0.000163284
0.000184308
0.000211402
0.000240922
0.000267932
0.000288389
0.000300425
0.000305
0.000305549
0.000305538
0.000305502
0.000305059
0.000303569
0.000299027
0.00029067
0.000280853
0.000270039
0.00025853
0.000246502
0.000234128
0.000221491
1.99754e-05
1.99349e-05
1.98993e-05
1.98541e-05
1.97989e-05
1.97533e-05
1.97263e-05
1.97068e-05
1.96697e-05
1.96221e-05
1.96006e-05
1.95919e-05
1.95942e-05
1.96037e-05
1.96256e-05
1.96741e-05
1.97333e-05
1.97799e-05
1.98279e-05
1.99238e-05
2.01211e-05
2.03268e-05
2.04485e-05
2.04672e-05
2.0391e-05
1.99359e-05
1.81993e-05
1.4339e-05
1.07549e-05
7.89748e-06
5.79641e-06
4.34055e-06
3.37189e-06
2.74019e-06
2.32475e-06
2.03973e-06
1.83002e-06
1.66242e-06
1.5186e-06
1.3887e-06
1.99753e-05
1.99349e-05
1.98992e-05
1.98543e-05
1.97981e-05
1.97518e-05
1.97249e-05
1.96994e-05
1.96557e-05
1.95993e-05
1.95507e-05
1.95197e-05
1.94993e-05
1.94749e-05
1.94383e-05
1.9392e-05
1.93467e-05
1.93125e-05
1.92938e-05
1.92868e-05
1.92836e-05
1.92775e-05
1.92591e-05
1.91953e-05
1.89802e-05
1.82827e-05
1.60343e-05
1.20839e-05
8.50625e-06
5.6503e-06
3.56395e-06
2.14826e-06
1.24688e-06
7.04151e-07
3.93208e-07
2.22883e-07
1.33423e-07
8.82791e-08
6.63519e-08
5.61143e-08
1.99753e-05
1.99349e-05
1.98992e-05
1.98543e-05
1.97981e-05
1.97518e-05
1.97249e-05
1.96994e-05
1.96557e-05
1.95993e-05
1.95507e-05
1.95197e-05
1.94993e-05
1.94749e-05
1.94383e-05
1.9392e-05
1.93466e-05
1.93125e-05
1.92938e-05
1.92868e-05
1.92836e-05
1.92775e-05
1.92591e-05
1.91952e-05
1.89802e-05
1.82826e-05
1.60343e-05
1.20839e-05
8.50619e-06
5.65023e-06
3.56388e-06
2.14818e-06
1.24679e-06
7.04042e-07
3.93083e-07
2.22739e-07
1.33265e-07
8.81081e-08
6.61782e-08
5.59445e-08
1.99754e-05
1.99349e-05
1.98993e-05
1.98541e-05
1.97989e-05
1.97534e-05
1.97262e-05
1.97068e-05
1.96698e-05
1.9622e-05
1.96005e-05
1.95919e-05
1.95942e-05
1.96037e-05
1.96257e-05
1.96743e-05
1.97335e-05
1.97802e-05
1.98282e-05
1.99239e-05
2.0121e-05
2.03266e-05
2.0448e-05
2.04665e-05
2.03899e-05
1.99346e-05
1.81984e-05
1.43388e-05
1.07555e-05
7.89928e-06
5.79869e-06
4.34223e-06
3.37274e-06
2.74087e-06
2.32444e-06
2.03739e-06
1.82528e-06
1.6562e-06
1.51252e-06
1.38374e-06
1.9983e-05
1.99314e-05
1.99577e-05
2.01003e-05
2.05194e-05
2.14124e-05
2.31487e-05
2.6147e-05