/*--------------------------------*- C++ -*----------------------------------*\
  =========                 |
  \\      /  F ield         | OpenFOAM: The Open Source CFD Toolbox
   \\    /   O peration     | Website:  https://openfoam.org
    \\  /    A nd           | Version:  7
     \\/     M anipulation  |
\*---------------------------------------------------------------------------*/
FoamFile
{
    version     2.0;
    format      ascii;
    class       volScalarField;
    location    "0.0525";
    object      T;
}
// * * * * * * * * * * * * * * * * * * * * * * * * * * * * * * * * * * * * * //

dimensions      [0 0 0 1 0 0 0];

internalField   nonuniform List<scalar> 
27000
(
265.162
262.699
262.656
263.498
264.009
264.716
265.324
265.99
266.61
267.227
267.802
268.349
268.864
269.37
269.883
270.423
270.986
271.553
272.084
272.549
272.933
273.246
273.532
273.851
274.221
274.598
274.931
275.213
275.441
275.604
275.738
275.942
276.264
276.584
276.752
276.807
276.967
277.314
277.627
277.67
266.177
263.071
263.758
264.447
265.127
265.681
266.194
266.634
267.033
267.381
267.691
267.959
268.191
268.387
268.552
268.693
268.818
268.935
269.053
269.179
269.314
269.455
269.6
269.756
269.914
270.068
270.225
270.399
270.567
270.697
270.807
270.926
271.042
271.133
271.203
271.309
271.429
271.556
271.724
271.87
265.298
262.728
262.966
263.903
264.548
265.272
265.884
266.485
267.023
267.53
267.989
268.412
268.795
269.142
269.455
269.739
269.997
270.233
270.455
270.667
270.874
271.078
271.288
271.509
271.733
271.956
272.185
272.427
272.66
272.864
273.057
273.258
273.45
273.553
273.631
273.74
273.822
273.919
273.928
273.876
265.85
262.785
263.565
264.364
265.163
265.836
266.468
267.021
267.527
267.974
268.376
268.73
269.042
269.312
269.546
269.746
269.918
270.067
270.198
270.316
270.428
270.537
270.649
270.763
270.886
271.017
271.153
271.286
271.42
271.559
271.686
271.785
271.859
271.913
271.967
272.008
271.979
271.923
271.882
271.829
265.585
262.703
263.321
264.221
265.125
265.919
266.674
267.346
267.968
268.527
269.036
269.493
269.903
270.267
270.591
270.877
271.131
271.358
271.563
271.753
271.933
272.108
272.28
272.455
272.635
272.818
273.002
273.186
273.372
273.55
273.71
273.856
273.983
274.079
274.152
274.197
274.209
274.214
274.195
274.152
265.598
262.702
263.336
264.226
265.136
265.927
266.68
267.35
267.971
268.531
269.041
269.499
269.911
270.278
270.605
270.894
271.152
271.382
271.592
271.786
271.97
272.148
272.324
272.504
272.688
272.873
273.059
273.248
273.438
273.617
273.777
273.923
274.064
274.166
274.23
274.283
274.288
274.3
274.316
274.245
265.842
262.778
263.561
264.361
265.161
265.835
266.468
267.02
267.526
267.972
268.373
268.726
269.037
269.307
269.541
269.742
269.915
270.064
270.197
270.317
270.431
270.544
270.658
270.777
270.902
271.039
271.181
271.319
271.458
271.604
271.743
271.853
271.939
272.001
272.059
272.136
272.119
272.029
272.036
272.024
265.309
262.729
262.973
263.913
264.564
265.294
265.912
266.52
267.068
267.585
268.057
268.495
268.894
269.261
269.596
269.904
270.186
270.449
270.698
270.937
271.172
271.407
271.645
271.889
272.142
272.404
272.664
272.923
273.179
273.432
273.677
273.889
274.076
274.207
274.363
274.552
274.598
274.614
274.683
274.745
266.142
263.052
263.826
264.582
265.356
265.996
266.609
267.143
267.644
268.092
268.507
268.88
269.219
269.521
269.791
270.033
270.253
270.458
270.652
270.843
271.045
271.256
271.454
271.649
271.874
272.12
272.325
272.477
272.657
272.902
273.107
273.166
273.165
273.326
273.625
273.802
273.682
273.496
273.761
274.357
266.026
265.024
266.481
268.538
270.185
271.823
273.251
274.58
275.756
276.813
277.741
278.555
279.261
279.873
280.404
280.869
281.275
281.626
281.928
282.192
282.417
282.596
282.746
282.904
283.066
283.175
283.23
283.326
283.493
283.594
283.543
283.509
283.705
283.993
284.017
283.743
283.613
283.982
284.538
284.62
290.953
289.466
289.524
288.967
288.985
288.889
289.053
289.231
289.534
289.849
290.196
290.524
290.855
291.199
291.599
292.074
292.618
293.182
293.699
294.118
294.429
294.674
294.941
295.306
295.766
296.24
296.633
296.882
296.99
297.068
297.285
297.689
298.104
298.344
298.469
298.729
299.162
299.47
299.419
299.163
289.646
288.075
287.035
285.921
285.083
284.301
283.673
283.119
282.661
282.26
281.912
281.596
281.306
281.039
280.804
280.612
280.479
280.411
280.401
280.432
280.476
280.511
280.542
280.598
280.693
280.818
280.967
281.141
281.283
281.315
281.284
281.363
281.61
281.826
281.827
281.77
281.987
282.469
282.797
282.642
290.571
288.815
288.451
287.425
286.916
286.273
285.832
285.395
285.057
284.751
284.501
284.279
284.089
283.918
283.766
283.63
283.511
283.413
283.339
283.291
283.272
283.279
283.308
283.358
283.429
283.514
283.604
283.703
283.811
283.907
283.969
284.01
284.056
284.098
284.107
284.066
284.021
284.072
284.143
284.176
289.984
288.501
287.396
286.217
285.277
284.384
283.632
282.948
282.353
281.813
281.33
280.885
280.476
280.093
279.735
279.399
279.087
278.799
278.539
278.306
278.104
277.934
277.794
277.683
277.603
277.55
277.515
277.489
277.464
277.434
277.393
277.342
277.276
277.19
277.082
276.956
276.828
276.719
276.614
276.506
290.243
288.69
287.862
286.711
285.784
284.891
284.127
283.432
282.824
282.273
281.781
281.331
280.92
280.54
280.188
279.862
279.56
279.284
279.035
278.816
278.628
278.471
278.346
278.25
278.181
278.135
278.104
278.084
278.069
278.052
278.021
277.974
277.907
277.825
277.724
277.598
277.456
277.32
277.196
277.088
290.232
288.69
287.843
286.7
285.761
284.869
284.108
283.415
282.808
282.261
281.771
281.325
280.918
280.543
280.196
279.874
279.579
279.308
279.066
278.853
278.67
278.52
278.4
278.31
278.247
278.207
278.183
278.168
278.159
278.146
278.119
278.075
278.015
277.936
277.839
277.72
277.575
277.444
277.328
277.214
289.993
288.512
287.406
286.225
285.284
284.389
283.636
282.95
282.354
281.816
281.335
280.895
280.492
280.118
279.77
279.445
279.145
278.87
278.623
278.404
278.217
278.063
277.94
277.846
277.781
277.743
277.722
277.712
277.705
277.693
277.671
277.642
277.597
277.526
277.43
277.317
277.199
277.103
277.032
276.938
290.563
288.81
288.437
287.402
286.887
286.246
285.816
285.4
285.096
284.834
284.638
284.479
284.357
284.259
284.182
284.121
284.077
284.05
284.043
284.057
284.095
284.158
284.239
284.339
284.46
284.596
284.729
284.863
285.003
285.133
285.228
285.291
285.36
285.43
285.468
285.443
285.371
285.412
285.541
285.597
289.67
288.088
287.072
285.992
285.239
284.578
284.119
283.773
283.556
283.42
283.352
283.322
283.314
283.316
283.327
283.351
283.393
283.458
283.546
283.653
283.77
283.879
283.983
284.102
284.233
284.336
284.414
284.523
284.656
284.704
284.644
284.653
284.861
285.08
285.015
284.764
284.799
285.301
285.803
285.697
290.976
289.542
289.923
289.725
290.256
290.708
291.484
292.271
293.178
294.056
294.919
295.696
296.395
297.004
297.543
298.02
298.447
298.82
299.14
299.403
299.61
299.776
299.931
300.086
300.22
300.318
300.412
300.518
300.581
300.574
300.595
300.754
300.949
300.981
300.852
300.859
301.177
301.525
301.504
301.097
290.012
289.981
289.981
289.966
289.964
289.964
289.971
289.98
289.989
289.993
289.987
289.967
289.932
289.884
289.83
289.781
289.749
289.744
289.772
289.834
289.923
290.029
290.143
290.26
290.37
290.455
290.511
290.538
290.528
290.461
290.365
290.317
290.356
290.427
290.473
290.562
290.806
291.157
291.384
291.347
290.003
289.956
289.89
289.769
289.626
289.457
289.27
289.068
288.852
288.623
288.379
288.122
287.849
287.563
287.267
286.967
286.671
286.386
286.123
285.887
285.681
285.504
285.351
285.219
285.105
285.001
284.899
284.8
284.701
284.583
284.428
284.249
284.085
283.949
283.803
283.624
283.473
283.44
283.503
283.537
290.013
289.976
289.954
289.898
289.841
289.773
289.699
289.616
289.522
289.417
289.297
289.162
289.011
288.844
288.666
288.478
288.287
288.097
287.916
287.748
287.6
287.474
287.372
287.293
287.234
287.191
287.156
287.122
287.08
287.024
286.948
286.846
286.717
286.565
286.397
286.217
286.033
285.86
285.707
285.592
290.001
289.972
289.923
289.825
289.707
289.564
289.401
289.22
289.021
288.805
288.57
288.318
288.048
287.763
287.465
287.16
286.852
286.547
286.252
285.972
285.712
285.477
285.266
285.08
284.916
284.769
284.635
284.506
284.373
284.229
284.067
283.883
283.676
283.449
283.201
282.935
282.664
282.404
282.164
281.948
290.005
289.977
289.939
289.864
289.772
289.658
289.526
289.377
289.21
289.026
288.823
288.601
288.361
288.104
287.833
287.553
287.269
286.987
286.713
286.454
286.215
285.998
285.806
285.638
285.492
285.363
285.245
285.129
285.009
284.877
284.726
284.55
284.349
284.123
283.878
283.619
283.352
283.089
282.843
282.625
290.005
289.977
289.938
289.863
289.771
289.657
289.524
289.376
289.209
289.026
288.823
288.602
288.363
288.107
287.838
287.559
287.277
286.997
286.726
286.469
286.231
286.017
285.827
285.662
285.519
285.393
285.277
285.164
285.047
284.918
284.77
284.598
284.399
284.175
283.933
283.676
283.412
283.152
282.908
282.692
290.001
289.973
289.923
289.826
289.708
289.565
289.401
289.219
289.019
288.802
288.566
288.313
288.042
287.757
287.459
287.153
286.845
286.541
286.247
285.969
285.711
285.478
285.271
285.088
284.929
284.787
284.658
284.533
284.407
284.269
284.113
283.936
283.738
283.519
283.28
283.022
282.755
282.501
282.271
282.065
290.013
289.976
289.954
289.897
289.84
289.771
289.697
289.615
289.523
289.42
289.305
289.176
289.033
288.877
288.711
288.538
288.362
288.191
288.029
287.882
287.755
287.652
287.574
287.52
287.488
287.472
287.464
287.458
287.447
287.42
287.371
287.298
287.197
287.073
286.933
286.775
286.606
286.452
286.325
286.23
290.004
289.956
289.892
289.772
289.633
289.472
289.299
289.118
288.932
288.742
288.548
288.349
288.145
287.936
287.725
287.514
287.31
287.118
286.946
286.799
286.682
286.592
286.528
286.486
286.464
286.449
286.428
286.4
286.369
286.321
286.229
286.1
285.982
285.901
285.809
285.655
285.497
285.462
285.57
285.674
290.013
289.981
289.985
289.983
290.002
290.032
290.081
290.143
290.217
290.295
290.376
290.452
290.522
290.584
290.643
290.703
290.771
290.854
290.956
291.082
291.23
291.392
291.561
291.732
291.886
292.003
292.081
292.133
292.155
292.123
292.055
292.025
292.075
292.145
292.162
292.188
292.361
292.667
292.883
292.837
289.992
289.982
289.982
289.991
290.01
290.037
290.07
290.105
290.137
290.163
290.177
290.178
290.162
290.129
290.083
290.028
289.968
289.913
289.869
289.842
289.84
289.864
289.916
289.989
290.078
290.172
290.259
290.324
290.356
290.346
290.294
290.2
290.073
289.931
289.793
289.68
289.612
289.606
289.673
289.807
289.992
289.982
289.982
289.99
290.006
290.029
290.056
290.083
290.106
290.121
290.124
290.113
290.085
290.039
289.979
289.907
289.828
289.748
289.672
289.607
289.558
289.529
289.52
289.532
289.561
289.601
289.645
289.683
289.707
289.709
289.682
289.621
289.526
289.403
289.257
289.1
288.941
288.794
288.675
288.596
289.992
289.982
289.982
289.99
290.008
290.034
290.064
290.096
290.125
290.148
290.159
290.157
290.138
290.104
290.055
289.995
289.929
289.862
289.801
289.752
289.719
289.707
289.716
289.747
289.796
289.857
289.922
289.982
290.029
290.053
290.048
290.007
289.931
289.823
289.69
289.54
289.385
289.238
289.113
289.026
289.992
289.982
289.982
289.99
290.007
290.031
290.06
290.089
290.114
290.132
290.138
290.129
290.103
290.061
290.003
289.933
289.856
289.777
289.703
289.641
289.594
289.567
289.561
289.576
289.61
289.655
289.703
289.747
289.777
289.785
289.761
289.702
289.606
289.478
289.323
289.15
288.971
288.799
288.651
288.54
289.992
289.982
289.982
289.99
290.008
290.033
290.062
290.093
290.12
290.14
290.148
290.142
290.119
290.079
290.025
289.958
289.884
289.809
289.739
289.681
289.639
289.617
289.617
289.638
289.677
289.728
289.783
289.833
289.868
289.881
289.862
289.806
289.713
289.587
289.435
289.264
289.087
288.918
288.774
288.668
289.992
289.982
289.982
289.99
290.008
290.033
290.062
290.093
290.12
290.14
290.148
290.142
290.119
290.079
290.025
289.958
289.885
289.81
289.74
289.682
289.64
289.618
289.618
289.64
289.68
289.731
289.786
289.836
289.872
289.885
289.867
289.812
289.719
289.593
289.441
289.271
289.094
288.925
288.781
288.676
289.992
289.982
289.982
289.99
290.007
290.031
290.06
290.089
290.114
290.132
290.138
290.129
290.103
290.061
290.003
289.933
289.855
289.776
289.702
289.638
289.591
289.564
289.558
289.574
289.607
289.652
289.701
289.745
289.775
289.783
289.76
289.701
289.606
289.477
289.323
289.15
288.97
288.799
288.65
288.539
289.992
289.982
289.982
289.99
290.008
290.034
290.064
290.096
290.125
290.148
290.159
290.157
290.139
290.105
290.056
289.997
289.931
289.864
289.803
289.755
289.723
289.712
289.723
289.756
289.807
289.87
289.938
290.001
290.051
290.08
290.078
290.041
289.968
289.864
289.734
289.587
289.434
289.29
289.168
289.083
289.992
289.982
289.982
289.99
290.006
290.029
290.056
290.083
290.107
290.123
290.128
290.118
290.092
290.049
289.992
289.924
289.849
289.773
289.702
289.643
289.601
289.58
289.58
289.602
289.642
289.694
289.75
289.802
289.841
289.858
289.845
289.799
289.719
289.609
289.477
289.331
289.183
289.048
288.941
288.874
289.992
289.982
289.982
289.991
290.01
290.036
290.069
290.104
290.136
290.163
290.179
290.183
290.171
290.145
290.107
290.06
290.011
289.966
289.933
289.918
289.926
289.96
290.02
290.1
290.194
290.293
290.385
290.456
290.497
290.501
290.464
290.39
290.289
290.174
290.064
289.974
289.925
289.936
290.012
290.144
289.992
289.982
289.982
289.991
290.01
290.037
290.071
290.106
290.14
290.167
290.184
290.186
290.173
290.143
290.1
290.046
289.989
289.934
289.89
289.862
289.857
289.878
289.926
289.997
290.084
290.179
290.271
290.345
290.386
290.388
290.348
290.264
290.139
289.986
289.828
289.686
289.578
289.516
289.521
289.605
289.992
289.982
289.981
289.99
290.009
290.035
290.068
290.102
290.135
290.162
290.179
290.183
290.172
290.146
290.106
290.056
290.001
289.946
289.899
289.865
289.849
289.855
289.884
289.935
290.004
290.085
290.169
290.247
290.31
290.348
290.353
290.323
290.256
290.16
290.04
289.907
289.773
289.655
289.568
289.524
289.992
289.982
289.981
289.99
290.009
290.035
290.068
290.103
290.136
290.163
290.18
290.184
290.172
290.146
290.106
290.056
290
289.945
289.898
289.864
289.849
289.856
289.886
289.94
290.012
290.096
290.183
290.263
290.329
290.368
290.373
290.34
290.271
290.171
290.047
289.907
289.766
289.643
289.556
289.513
289.992
289.982
289.981
289.99
290.009
290.035
290.068
290.103
290.136
290.163
290.18
290.184
290.173
290.146
290.106
290.055
289.999
289.944
289.896
289.862
289.847
289.854
289.885
289.939
290.012
290.096
290.183
290.264
290.33
290.369
290.372
290.337
290.266
290.163
290.034
289.89
289.744
289.619
289.529
289.485
289.992
289.982
289.981
289.99
290.009
290.035
290.068
290.103
290.136
290.163
290.18
290.184
290.173
290.146
290.106
290.055
289.999
289.944
289.896
289.862
289.847
289.854
289.885
289.94
290.013
290.098
290.186
290.268
290.334
290.373
290.377
290.341
290.27
290.166
290.036
289.89
289.744
289.618
289.528
289.484
289.992
289.982
289.981
289.99
290.009
290.035
290.068
290.103
290.136
290.163
290.18
290.184
290.173
290.146
290.106
290.055
289.999
289.944
289.896
289.862
289.847
289.854
289.885
289.94
290.013
290.098
290.186
290.268
290.334
290.373
290.377
290.342
290.27
290.166
290.037
289.89
289.744
289.617
289.527
289.483
289.992
289.982
289.981
289.99
290.009
290.035
290.068
290.103
290.136
290.163
290.18
290.184
290.173
290.146
290.106
290.055
289.999
289.944
289.896
289.862
289.847
289.853
289.884
289.938
290.012
290.096
290.183
290.264
290.33
290.369
290.373
290.338
290.267
290.164
290.035
289.889
289.744
289.618
289.527
289.483
289.992
289.982
289.981
289.99
290.009
290.035
290.068
290.103
290.136
290.163
290.18
290.184
290.173
290.146
290.106
290.056
290
289.945
289.897
289.863
289.848
289.855
289.885
289.939
290.012
290.096
290.183
290.264
290.33
290.37
290.375
290.342
290.273
290.173
290.049
289.908
289.766
289.642
289.554
289.51
289.992
289.982
289.981
289.99
290.009
290.035
290.068
290.103
290.136
290.163
290.18
290.184
290.173
290.146
290.106
290.056
290.001
289.946
289.898
289.863
289.847
289.853
289.881
289.933
290.003
290.085
290.17
290.249
290.313
290.353
290.36
290.33
290.264
290.168
290.048
289.914
289.778
289.659
289.571
289.526
289.992
289.982
289.982
289.991
290.01
290.037
290.07
290.104
290.137
290.164
290.18
290.182
290.169
290.14
290.098
290.047
289.992
289.94
289.898
289.873
289.869
289.89
289.936
290.004
290.086
290.174
290.259
290.326
290.364
290.364
290.326
290.249
290.135
289.997
289.855
289.73
289.635
289.587
289.597
289.678
289.992
289.982
289.982
289.991
290.01
290.038
290.071
290.107
290.141
290.168
290.185
290.187
290.173
290.143
290.098
290.044
289.985
289.931
289.887
289.86
289.857
289.882
289.934
290.009
290.099
290.198
290.29
290.361
290.398
290.394
290.346
290.251
290.114
289.953
289.791
289.65
289.544
289.493
289.516
289.627
289.992
289.982
289.982
289.99
290.009
290.036
290.068
290.103
290.136
290.163
290.18
290.183
290.172
290.145
290.104
290.053
289.998
289.943
289.897
289.864
289.851
289.86
289.893
289.949
290.023
290.107
290.194
290.274
290.336
290.37
290.369
290.331
290.257
290.153
290.026
289.888
289.754
289.643
289.571
289.545
289.992
289.982
289.982
289.99
290.009
290.036
290.068
290.103
290.137
290.164
290.181
290.184
290.172
290.145
290.104
290.053
289.997
289.942
289.895
289.863
289.849
289.859
289.893
289.95
290.026
290.112
290.2
290.281
290.345
290.379
290.377
290.336
290.259
290.152
290.02
289.875
289.735
289.621
289.548
289.52
289.992
289.982
289.982
289.991
290.009
290.036
290.069
290.104
290.137
290.164
290.181
290.184
290.172
290.145
290.104
290.053
289.996
289.941
289.894
289.862
289.849
289.858
289.893
289.951
290.027
290.114
290.203
290.285
290.349
290.383
290.38
290.338
290.26
290.151
290.016
289.868
289.726
289.611
289.536
289.509
289.992
289.982
289.982
289.991
290.009
290.036
290.069
290.104
290.137
290.164
290.181
290.184
290.172
290.145
290.104
290.053
289.996
289.941
289.894
289.861
289.848
289.858
289.893
289.951
290.028
290.115
290.204
290.286
290.35
290.384
290.381
290.339
290.261
290.151
290.015
289.866
289.723
289.607
289.532
289.504
289.992
289.982
289.982
289.991
290.009
290.036
290.069
290.104
290.137
290.164
290.181
290.184
290.172
290.145
290.104
290.053
289.996
289.941
289.894
289.861
289.848
289.858
289.893
289.951
290.028
290.115
290.204
290.286
290.35
290.385
290.381
290.339
290.261
290.151
290.015
289.866
289.723
289.607
289.532
289.504
289.992
289.982
289.982
289.991
290.009
290.036
290.069
290.104
290.137
290.164
290.181
290.184
290.172
290.145
290.104
290.053
289.996
289.941
289.894
289.862
289.848
289.858
289.893
289.951
290.027
290.114
290.203
290.285
290.349
290.384
290.381
290.339
290.261
290.152
290.017
289.868
289.726
289.61
289.535
289.507
289.992
289.982
289.982
289.99
290.009
290.036
290.068
290.103
290.137
290.164
290.181
290.184
290.172
290.145
290.104
290.053
289.997
289.942
289.895
289.862
289.849
289.858
289.892
289.95
290.026
290.112
290.2
290.282
290.345
290.38
290.378
290.337
290.261
290.154
290.021
289.875
289.735
289.62
289.546
289.517
289.992
289.982
289.982
289.99
290.009
290.036
290.068
290.103
290.136
290.163
290.18
290.184
290.172
290.145
290.105
290.054
289.998
289.943
289.896
289.863
289.849
289.858
289.891
289.947
290.021
290.106
290.194
290.274
290.337
290.372
290.372
290.335
290.261
290.157
290.03
289.891
289.755
289.643
289.568
289.54
289.992
289.982
289.982
289.991
290.01
290.037
290.07
290.105
290.139
290.165
290.181
290.183
290.169
290.14
290.097
290.044
289.989
289.937
289.895
289.871
289.869
289.893
289.943
290.013
290.098
290.189
290.273
290.338
290.37
290.364
290.318
290.229
290.104
289.958
289.813
289.687
289.596
289.555
289.581
289.683
289.992
289.983
289.982
289.991
290.01
290.038
290.072
290.108
290.142
290.169
290.186
290.187
290.173
290.142
290.097
290.042
289.983
289.929
289.885
289.859
289.857
289.885
289.939
290.016
290.109
290.209
290.301
290.37
290.403
290.395
290.341
290.238
290.093
289.927
289.765
289.625
289.524
289.482
289.523
289.654
289.992
289.982
289.982
289.991
290.009
290.036
290.069
290.104
290.137
290.164
290.181
290.184
290.172
290.144
290.103
290.052
289.996
289.941
289.895
289.863
289.851
289.861
289.896
289.954
290.03
290.116
290.203
290.282
290.343
290.374
290.368
290.325
290.245
290.136
290.005
289.864
289.731
289.625
289.56
289.543
289.992
289.982
289.982
289.991
290.009
290.036
290.069
290.104
290.137
290.164
290.181
290.184
290.172
290.144
290.103
290.052
289.995
289.94
289.894
289.862
289.85
289.861
289.897
289.956
290.033
290.12
290.209
290.29
290.351
290.381
290.374
290.329
290.248
290.135
289.999
289.852
289.715
289.607
289.54
289.521
289.992
289.982
289.982
289.991
290.009
290.036
290.069
290.104
290.137
290.164
290.181
290.184
290.172
290.144
290.103
290.051
289.995
289.94
289.893
289.861
289.849
289.86
289.897
289.957
290.034
290.122
290.211
290.292
290.354
290.384
290.377
290.33
290.248
290.134
289.996
289.846
289.707
289.598
289.531
289.511
289.992
289.982
289.982
289.991
290.009
290.036
290.069
290.104
290.137
290.164
290.181
290.184
290.172
290.144
290.103
290.051
289.995
289.94
289.893
289.861
289.849
289.86
289.897
289.957
290.034
290.122
290.212
290.293
290.355
290.385
290.378
290.331
290.249
290.134
289.995
289.845
289.705
289.595
289.527
289.508
289.992
289.982
289.982
289.991
290.009
290.036
290.069
290.104
290.137
290.164
290.181
290.184
290.172
290.144
290.103
290.051
289.995
289.94
289.893
289.861
289.849
289.86
289.897
289.957
290.034
290.122
290.212
290.293
290.355
290.386
290.378
290.331
290.249
290.135
289.995
289.845
289.705
289.595
289.527
289.507
289.992
289.982
289.982
289.991
290.009
290.036
290.069
290.104
290.137
290.164
290.181
290.184
290.172
290.144
290.103
290.052
289.995
289.94
289.893
289.861
289.849
289.86
289.897
289.956
290.034
290.122
290.211
290.292
290.354
290.385
290.377
290.331
290.249
290.135
289.996
289.847
289.707
289.598
289.53
289.51
289.992
289.982
289.982
289.991
290.009
290.036
290.069
290.104
290.137
290.164
290.181
290.184
290.172
290.145
290.103
290.052
289.995
289.94
289.894
289.862
289.849
289.86
289.896
289.956
290.033
290.12
290.209
290.29
290.351
290.382
290.375
290.33
290.249
290.137
290
289.853
289.715
289.606
289.539
289.519
289.992
289.982
289.982
289.991
290.009
290.036
290.069
290.104
290.137
290.164
290.181
290.184
290.172
290.145
290.104
290.053
289.996
289.941
289.895
289.862
289.849
289.86
289.895
289.953
290.029
290.115
290.203
290.282
290.344
290.376
290.371
290.328
290.249
290.14
290.009
289.868
289.733
289.626
289.558
289.539
289.992
289.983
289.982
289.991
290.01
290.038
290.071
290.106
290.139
290.166
290.181
290.183
290.169
290.139
290.096
290.043
289.987
289.935
289.894
289.87
289.87
289.896
289.948
290.02
290.107
290.199
290.283
290.345
290.374
290.364
290.312
290.216
290.085
289.935
289.79
289.666
289.579
289.547
289.589
289.709
289.992
289.983
289.982
289.991
290.011
290.038
290.072
290.108
290.142
290.17
290.186
290.188
290.173
290.142
290.097
290.041
289.982
289.927
289.884
289.858
289.858
289.886
289.942
290.02
290.114
290.215
290.307
290.375
290.406
290.394
290.336
290.228
290.08
289.912
289.75
289.611
289.514
289.48
289.532
289.674
289.992
289.982
289.982
289.991
290.009
290.036
290.069
290.104
290.137
290.164
290.181
290.184
290.172
290.144
290.103
290.052
289.995
289.94
289.894
289.863
289.851
289.862
289.899
289.958
290.035
290.121
290.209
290.288
290.347
290.375
290.367
290.32
290.238
290.126
289.992
289.851
289.719
289.617
289.556
289.546
289.992
289.982
289.982
289.991
290.009
290.036
290.069
290.104
290.138
290.165
290.181
290.185
290.172
290.144
290.103
290.051
289.994
289.939
289.893
289.862
289.85
289.862
289.899
289.96
290.038
290.125
290.214
290.294
290.354
290.382
290.373
290.324
290.24
290.125
289.987
289.839
289.704
289.6
289.538
289.524
289.992
289.982
289.982
289.991
290.009
290.036
290.069
290.104
290.138
290.165
290.182
290.185
290.172
290.144
290.103
290.051
289.994
289.939
289.893
289.861
289.85
289.862
289.899
289.96
290.039
290.127
290.216
290.297
290.357
290.385
290.375
290.326
290.241
290.124
289.983
289.834
289.698
289.592
289.529
289.515
289.992
289.982
289.982
289.991
290.009
290.036
290.069
290.104
290.138
290.165
290.182
290.185
290.172
290.144
290.103
290.051
289.994
289.939
289.893
289.861
289.849
289.862
289.899
289.96
290.039
290.127
290.216
290.297
290.358
290.386
290.375
290.326
290.241
290.124
289.983
289.833
289.696
289.59
289.526
289.512
289.992
289.982
289.982
289.991
290.009
290.036
290.069
290.104
290.138
290.165
290.182
290.185
290.172
290.144
290.103
290.051
289.994
289.939
289.893
289.861
289.849
289.862
289.899
289.96
290.039
290.127
290.216
290.297
290.358
290.386
290.376
290.327
290.242
290.124
289.983
289.833
289.696
289.59
289.526
289.512
289.992
289.982
289.982
289.991
290.009
290.036
290.069
290.104
290.138
290.165
290.182
290.185
290.172
290.144
290.103
290.051
289.994
289.939
289.893
289.861
289.85
289.862
289.899
289.96
290.038
290.127
290.216
290.297
290.357
290.385
290.375
290.326
290.242
290.125
289.984
289.835
289.698
289.592
289.529
289.514
289.992
289.982
289.982
289.991
290.009
290.036
290.069
290.104
290.138
290.165
290.181
290.185
290.172
290.144
290.103
290.051
289.994
289.939
289.893
289.862
289.85
289.862
289.899
289.959
290.037
290.125
290.214
290.294
290.354
290.383
290.374
290.325
290.242
290.127
289.988
289.841
289.705
289.6
289.537
289.522
289.992
289.982
289.982
289.991
290.009
290.036
290.069
290.104
290.137
290.164
290.181
290.184
290.172
290.145
290.103
290.052
289.995
289.94
289.894
289.862
289.85
289.861
289.897
289.956
290.033
290.12
290.208
290.287
290.347
290.377
290.37
290.324
290.242
290.13
289.997
289.855
289.722
289.618
289.555
289.542
289.992
289.983
289.982
289.991
290.01
290.038
290.071
290.106
290.14
290.166
290.182
290.183
290.169
290.139
290.095
290.042
289.986
289.934
289.893
289.87
289.871
289.898
289.951
290.024
290.112
290.205
290.289
290.349
290.375
290.363
290.307
290.208
290.073
289.921
289.776
289.654
289.571
289.547
289.598
289.728
289.992
289.983
289.982
289.992
290.011
290.038
290.072
290.108
290.142
290.17
290.186
290.188
290.173
290.142
290.097
290.041
289.982
289.927
289.883
289.858
289.859
289.888
289.944
290.023
290.118
290.219
290.311
290.378
290.407
290.394
290.333
290.222
290.071
289.903
289.74
289.603
289.509
289.481
289.54
289.69
289.992
289.982
289.982
289.991
290.009
290.036
290.069
290.104
290.137
290.164
290.181
290.184
290.172
290.144
290.103
290.051
289.995
289.94
289.894
289.863
289.851
289.863
289.9
289.96
290.038
290.125
290.213
290.291
290.349
290.376
290.366
290.318
290.233
290.119
289.984
289.843
289.713
289.612
289.555
289.549
289.992
289.982
289.982
289.991
290.009
290.036
290.069
290.105
290.138
290.165
290.182
290.185
290.172
290.144
290.103
290.051
289.994
289.939
289.893
289.862
289.851
289.863
289.901
289.962
290.041
290.129
290.218
290.297
290.356
290.383
290.371
290.321
290.235
290.118
289.979
289.832
289.698
289.596
289.537
289.528
289.992
289.982
289.982
289.991
290.009
290.037
290.069
290.105
290.138
290.165
290.182
290.185
290.172
290.144
290.102
290.051
289.994
289.939
289.892
289.861
289.85
289.863
289.901
289.963
290.042
290.13
290.219
290.3
290.359
290.385
290.373
290.323
290.236
290.118
289.976
289.827
289.692
289.589
289.529
289.519
289.992
289.982
289.982
289.991
290.009
290.037
290.069
290.105
290.138
290.165
290.182
290.185
290.172
290.144
290.102
290.051
289.994
289.939
289.892
289.861
289.85
289.863
289.901
289.963
290.042
290.13
290.22
290.3
290.359
290.386
290.374
290.323
290.237
290.118
289.975
289.826
289.69
289.587
289.526
289.516
289.992
289.982
289.982
289.991
290.009
290.037
290.069
290.105
290.138
290.165
290.182
290.185
290.172
290.144
290.103
290.051
289.994
289.939
289.892
289.861
289.85
289.863
289.901
289.963
290.042
290.13
290.22
290.3
290.359
290.386
290.374
290.323
290.237
290.118
289.975
289.826
289.69
289.587
289.526
289.516
289.992
289.982
289.982
289.991
290.009
290.037
290.069
290.105
290.138
290.165
290.182
290.185
290.172
290.144
290.103
290.051
289.994
289.939
289.892
289.861
289.85
289.863
289.901
289.963
290.041
290.13
290.219
290.3
290.359
290.385
290.374
290.323
290.237
290.118
289.976
289.827
289.692
289.589
289.529
289.518
289.992
289.982
289.982
289.991
290.009
290.036
290.069
290.105
290.138
290.165
290.182
290.185
290.172
290.144
290.103
290.051
289.994
289.939
289.893
289.862
289.85
289.863
289.901
289.962
290.04
290.128
290.217
290.297
290.356
290.383
290.372
290.322
290.237
290.12
289.98
289.833
289.699
289.596
289.536
289.526
289.992
289.982
289.982
289.991
290.009
290.036
290.069
290.104
290.138
290.165
290.181
290.185
290.172
290.145
290.103
290.052
289.995
289.94
289.894
289.862
289.85
289.862
289.899
289.959
290.036
290.124
290.212
290.291
290.349
290.378
290.369
290.321
290.237
290.124
289.989
289.847
289.715
289.613
289.554
289.545
289.992
289.983
289.982
289.992
290.011
290.038
290.071
290.107
290.14
290.166
290.182
290.183
290.169
290.139
290.095
290.042
289.986
289.934
289.893
289.87
289.871
289.9
289.953
290.027
290.115
290.208
290.292
290.351
290.376
290.362
290.304
290.202
290.065
289.913
289.768
289.648
289.568
289.548
289.605
289.742
289.992
289.983
289.982
289.992
290.011
290.039
290.072
290.108
290.143
290.17
290.186
290.188
290.173
290.142
290.097
290.041
289.982
289.927
289.883
289.858
289.859
289.889
289.946
290.025
290.121
290.222
290.314
290.379
290.408
290.393
290.33
290.218
290.066
289.896
289.735
289.599
289.507
289.482
289.546
289.701
289.992
289.982
289.982
289.991
290.009
290.036
290.069
290.104
290.138
290.165
290.181
290.184
290.172
290.144
290.103
290.051
289.995
289.94
289.894
289.863
289.852
289.864
289.902
289.962
290.04
290.127
290.215
290.293
290.351
290.377
290.366
290.316
290.23
290.115
289.979
289.838
289.708
289.61
289.555
289.552
289.992
289.982
289.982
289.991
290.01
290.037
290.069
290.105
290.138
290.165
290.182
290.185
290.172
290.144
290.102
290.051
289.994
289.939
289.893
289.862
289.851
289.864
289.902
289.964
290.043
290.131
290.22
290.3
290.358