/*--------------------------------*- C++ -*----------------------------------*\
  =========                 |
  \\      /  F ield         | OpenFOAM: The Open Source CFD Toolbox
   \\    /   O peration     | Website:  https://openfoam.org
    \\  /    A nd           | Version:  7
     \\/     M anipulation  |
\*---------------------------------------------------------------------------*/
FoamFile
{
    version     2.0;
    format      ascii;
    class       volScalarField;
    location    "0.02";
    object      k;
}
// * * * * * * * * * * * * * * * * * * * * * * * * * * * * * * * * * * * * * //

dimensions      [0 2 -2 0 0 0 0];

internalField   nonuniform List<scalar> 
8640
(
20.7558
18.5558
17.3988
17.2312
17.1686
17.1654
17.1364
17.143
17.1304
17.1397
17.1291
17.1375
17.1281
17.135
17.1269
17.1328
17.1256
17.1305
17.1243
17.1283
17.1231
17.1265
17.1222
17.1251
17.1217
17.1317
17.1322
17.128
17.136
17.1414
17.134
17.1351
17.127
17.1333
17.1348
17.1308
17.1385
17.1417
17.1336
17.1402
17.1424
17.1406
17.1413
17.1413
17.141
17.1411
17.1402
17.1396
17.1375
17.1363
17.1343
17.1329
17.1312
17.1298
17.1291
17.127
17.1251
17.1189
17.1114
17.2255
6.34656
3.12475
1.43017
1.01746
0.946827
0.926282
0.915735
0.913568
0.909521
0.9103
0.908589
0.90972
0.908237
0.909174
0.907884
0.908666
0.907549
0.908183
0.907216
0.907726
0.90691
0.907325
0.906643
0.90698
0.90648
0.906919
0.906656
0.90693
0.906781
0.907455
0.907532
0.907418
0.906966
0.906981
0.906802
0.906893
0.906729
0.906802
0.906498
0.906652
0.906668
0.906611
0.906372
0.906332
0.905915
0.905809
0.90539
0.905056
0.904608
0.904243
0.903789
0.903415
0.902988
0.902096
0.902233
0.901644
0.916756
0.924187
0.97086
1.11254
5.93925
2.84018
1.13672
0.769482
0.705023
0.699254
0.694122
0.694558
0.692733
0.693879
0.692391
0.693358
0.692042
0.692844
0.691695
0.692355
0.691361
0.691897
0.691036
0.691463
0.690734
0.691078
0.690461
0.690734
0.690271
0.690527
0.690176
0.690379
0.690129
0.690308
0.690275
0.690439
0.690236
0.690347
0.690106
0.690173
0.689921
0.689958
0.689904
0.689906
0.689587
0.689549
0.689184
0.689063
0.688679
0.688392
0.688003
0.687674
0.687284
0.686959
0.686562
0.686228
0.685832
0.685508
0.685074
0.684769
0.68434
0.684094
0.684068
0.684092
5.94077
2.82715
1.13058
0.768016
0.704659
0.699097
0.694044
0.694485
0.692667
0.693815
0.692333
0.6933
0.691987
0.692788
0.691641
0.692299
0.691307
0.691841
0.690981
0.691407
0.690678
0.691021
0.690405
0.690677
0.690215
0.69047
0.69012
0.690322
0.690073
0.690252
0.690219
0.690383
0.690181
0.690292
0.690051
0.690119
0.689867
0.689904
0.689851
0.689853
0.689534
0.689496
0.689131
0.68901
0.688627
0.688341
0.687952
0.687623
0.687234
0.686906
0.68651
0.686167
0.685782
0.685437
0.685064
0.684701
0.684396
0.683841
0.683549
0.681313
5.93997
2.82662
1.13042
0.767729
0.704293
0.698737
0.693693
0.694157
0.692354
0.693511
0.69203
0.692998
0.691685
0.692487
0.691339
0.691999
0.691006
0.691541
0.690681
0.691108
0.690379
0.690723
0.690107
0.69038
0.689917
0.690173
0.689822
0.690024
0.689775
0.689953
0.689919
0.690083
0.689881
0.689992
0.68975
0.689818
0.689565
0.689603
0.689555
0.689557
0.689231
0.689193
0.688827
0.688705
0.688323
0.688036
0.687646
0.687319
0.686929
0.686604
0.686209
0.685872
0.685487
0.685142
0.684752
0.684405
0.68406
0.683621
0.683331
0.681436
5.94138
2.82478
1.12958
0.767626
0.704423
0.698888
0.693857
0.694313
0.692507
0.69366
0.69218
0.693149
0.691836
0.692639
0.691491
0.692151
0.691159
0.691694
0.690834
0.69126
0.690531
0.690875
0.690259
0.690531
0.690068
0.690324
0.689973
0.690175
0.689926
0.690104
0.690071
0.690234
0.690033
0.690143
0.689902
0.68997
0.689717
0.689755
0.689707
0.68971
0.689383
0.689346
0.68898
0.688859
0.688475
0.688189
0.6878
0.687471
0.687083
0.686756
0.686363
0.686022
0.685642
0.685298
0.68493
0.684573
0.684281
0.683796
0.683532
0.681488
5.94138
2.82478
1.12958
0.767626
0.704423
0.698888
0.693857
0.694313
0.692507
0.69366
0.69218
0.693149
0.691836
0.692639
0.691491
0.692151
0.691159
0.691694
0.690834
0.69126
0.690531
0.690875
0.690258
0.690531
0.690068
0.690324
0.689973
0.690175
0.689926
0.690104
0.690071
0.690234
0.690033
0.690143
0.689902
0.68997
0.689717
0.689755
0.689707
0.68971
0.689383
0.689346
0.68898
0.688858
0.688477
0.688189
0.6878
0.687472
0.687083
0.686756
0.686363
0.686022
0.685642
0.685298
0.68493
0.684573
0.684282
0.683796
0.683531
0.681486
5.93997
2.82662
1.13042
0.767729
0.704293
0.698737
0.693693
0.694157
0.692355
0.693511
0.69203
0.692998
0.691685
0.692487
0.691339
0.691999
0.691006
0.691541
0.690681
0.691108
0.690379
0.690723
0.690107
0.69038
0.689917
0.690173
0.689822
0.690024
0.689775
0.689953
0.689919
0.690083
0.689881
0.689992
0.68975
0.689818
0.689565
0.689602
0.689555
0.689557
0.689231
0.689193
0.688828
0.688706
0.688322
0.688035
0.687646
0.687318
0.686929
0.686604
0.686209
0.685872
0.685487
0.685143
0.684755
0.684409
0.684064
0.683628
0.683338
0.681442
5.94077
2.82715
1.13058
0.768016
0.704659
0.699097
0.694044
0.694484
0.692667
0.693815
0.692333
0.6933
0.691987
0.692788
0.691641
0.692299
0.691307
0.691841
0.690981
0.691407
0.690679
0.691021
0.690405
0.690677
0.690215
0.69047
0.69012
0.690322
0.690073
0.690252
0.690219
0.690383
0.690181
0.690292
0.690051
0.690119
0.689867
0.689904
0.689851
0.689853
0.689534
0.689496
0.689132
0.68901
0.688627
0.688341
0.687952
0.687623
0.687234
0.686907
0.686511
0.686169
0.685783
0.685438
0.685064
0.684702
0.684398
0.683845
0.683553
0.681316
5.93925
2.84018
1.13672
0.769482
0.705023
0.699254
0.694122
0.694558
0.692733
0.693879
0.692391
0.693357
0.692041
0.692844
0.691694
0.692355
0.691361
0.691897
0.691036
0.691463
0.690734
0.691078
0.690461
0.690734
0.690271
0.690527
0.690176
0.690378
0.690129
0.690308
0.690274
0.690438
0.690236
0.690347
0.690105
0.690173
0.689921
0.689958
0.689904
0.689906
0.689587
0.689549
0.689184
0.689063
0.688679
0.688392
0.688003
0.687674
0.687284
0.68696
0.686563
0.686229
0.685832
0.685509
0.685076
0.684773
0.684344
0.6841
0.684071
0.684084
6.34656
3.12474
1.43016
1.01745
0.946818
0.926274
0.915725
0.91356
0.909518
0.910297
0.908587
0.909718
0.908234
0.909172
0.907882
0.908663
0.907546
0.908181
0.907214
0.907724
0.906908
0.907323
0.906636
0.90697
0.906473
0.906915
0.906653
0.906896
0.906725
0.907435
0.907513
0.907403
0.906982
0.906989
0.906801
0.90689
0.906726
0.906799
0.906498
0.906653
0.906667
0.90661
0.906372
0.906331
0.905912
0.905806
0.905387
0.905054
0.904607
0.904241
0.903787
0.903414
0.902984
0.902156
0.902274
0.901576
0.916579
0.923867
0.970407
1.11182
20.7558
18.5558
17.3988
17.2313
17.1686
17.1654
17.1364
17.143
17.1304
17.1397
17.1291
17.1375
17.1281
17.135
17.1269
17.1328
17.1256
17.1305
17.1243
17.1283
17.1231
17.1265
17.1222
17.1251
17.1217
17.1317
17.1322
17.128
17.136
17.1414
17.134
17.1352
17.127
17.1336
17.1352
17.1309
17.1386
17.1418
17.1338
17.1404
17.1425
17.1407
17.1413
17.1413
17.1409
17.141
17.1401
17.1396
17.1375
17.1363
17.1343
17.1329
17.1312
17.1298
17.1291
17.1271
17.1252
17.1191
17.1111
17.2267
0.603259
0.862625
0.880557
0.88037
0.876929
0.877526
0.875319
0.876382
0.874338
0.875381
0.873386
0.874293
0.872379
0.873124
0.871343
0.871938
0.870297
0.870744
0.869409
0.869822
0.868549
0.868807
0.867643
0.86783
0.867206
0.867473
0.866868
0.867045
0.866367
0.86652
0.865807
0.865884
0.865137
0.865158
0.864582
0.864483
0.863844
0.863602
0.862845
0.862522
0.861807
0.861334
0.860594
0.860039
0.859273
0.858683
0.857925
0.857299
0.856545
0.855893
0.855158
0.854466
0.853775
0.853001
0.852402
0.851353
0.850661
0.849098
0.844364
0.851451
0.393913
0.602148
0.631369
0.633236
0.632945
0.632575
0.632197
0.631478
0.631273
0.630838
0.630774
0.630594
0.630698
0.630598
0.632298
0.63298
0.632766
0.632273
0.632877
0.633224
0.633029
0.63261
0.632922
0.633014
0.63161
0.632592
0.633257
0.631609
0.632692
0.633172
0.631734
0.632695
0.633487
0.633048
0.63307
0.632057
0.633147
0.633663
0.632232
0.633276
0.633916
0.632501
0.63345
0.634206
0.633465
0.633781
0.633846
0.63318
0.63398
0.634183
0.633577
0.633537
0.633233
0.633224
0.633024
0.633732
0.633917
0.633831
0.633778
0.633495
0.392788
0.599486
0.629364
0.631439
0.631254
0.630899
0.630566
0.629809
0.629662
0.629271
0.62926
0.629165
0.629322
0.629223
0.630921
0.631599
0.631385
0.63089
0.631516
0.631874
0.631681
0.631264
0.631663
0.631954
0.6319
0.631828
0.630443
0.631301
0.631987
0.630429
0.631434
0.631848
0.630504
0.631573
0.632214
0.630705
0.6318
0.632362
0.63094
0.631985
0.632629
0.631207
0.632191
0.632794
0.631535
0.632534
0.632926
0.631529
0.632537
0.632906
0.632305
0.632257
0.63178
0.632361
0.63253
0.632339
0.631754
0.632162
0.632243
0.631171
0.392388
0.599681
0.629926
0.632031
0.631844
0.63149
0.631144
0.630393
0.630226
0.62981
0.629782
0.629662
0.629812
0.629712
0.631411
0.632088
0.631874
0.631377
0.632004
0.632361
0.632168
0.63175
0.632149
0.632435
0.632382
0.63231
0.630921
0.631786
0.632472
0.630909
0.631923
0.632339
0.630985
0.632055
0.632697
0.631187
0.632283
0.632845
0.631421
0.632468
0.633112
0.631691
0.632678
0.63326
0.631991
0.632993
0.633405
0.632011
0.633022
0.633391
0.632795
0.632747
0.632272
0.632667
0.632906
0.632542
0.632659
0.632766
0.63259
0.632007
0.392597
0.599505
0.629581
0.631651
0.63146
0.631086
0.630753
0.630006
0.629854
0.629453
0.629438
0.629336
0.629491
0.629393
0.631053
0.631706
0.631491
0.630996
0.631672
0.632015
0.63184
0.63147
0.631846
0.632122
0.632068
0.631996
0.630608
0.631473
0.63216
0.630597
0.631607
0.63202
0.63067
0.631742
0.632384
0.630874
0.631969
0.632531
0.631108
0.632146
0.632818
0.632255
0.632216
0.631409
0.63248
0.633052
0.632962
0.632777
0.633007
0.633102
0.632483
0.632433
0.631951
0.632612
0.632803
0.632242
0.632401
0.632529
0.632271
0.631614
0.392479
0.599597
0.629773
0.631851
0.631661
0.631296
0.630955
0.630199
0.63004
0.629636
0.629612
0.629501
0.629654
0.629555
0.631265
0.63195
0.631737
0.631241
0.631858
0.632209
0.632015
0.631596
0.631995
0.632281
0.632228
0.632155
0.630767
0.631633
0.63232
0.630756
0.631766
0.632179
0.630829
0.631901
0.632543
0.631033
0.632128
0.632691
0.631267
0.632313
0.632957
0.631538
0.632523
0.633101
0.631836
0.632837
0.633248
0.631857
0.632865
0.633234
0.632645
0.632596
0.632111
0.632798
0.633003
0.632373
0.632603
0.632762
0.632523
0.63187
0.392479
0.599597
0.629773
0.631851
0.631661
0.631296
0.630955
0.630199
0.63004
0.629636
0.629612
0.629501
0.629654
0.629555
0.631257
0.631938
0.631724
0.631227
0.63185
0.632206
0.632013
0.631596
0.631995
0.632281
0.632228
0.632155
0.630767
0.631632
0.632318
0.630755
0.631769
0.632185
0.630831
0.631901
0.632543
0.631033
0.632128
0.632691
0.631267
0.632305
0.632978
0.632415
0.632375
0.631567
0.632638
0.633211
0.633122
0.632941
0.633169
0.633263
0.632656
0.632605
0.632114
0.632798
0.633004
0.63238
0.632612
0.632772
0.632532
0.631867
0.392597
0.599506
0.629581
0.631652
0.63146
0.631086
0.630751
0.629998
0.629848
0.629454
0.629438
0.629336
0.629491
0.629393
0.631091
0.631769
0.631556
0.631061
0.631687
0.632045
0.631852
0.631435
0.631834
0.632121
0.632067
0.631995
0.630608
0.631476
0.632157
0.630582
0.631628
0.632077
0.630686
0.631745
0.632389
0.630876
0.63197
0.632532
0.631108
0.632154
0.632798
0.631378
0.632366
0.632938
0.631666
0.632664
0.633075
0.631688
0.6327
0.63307
0.63249
0.63244
0.631939
0.632608
0.6328
0.632232
0.632399
0.632531
0.632269
0.631606
0.392388
0.599682
0.629927
0.632031
0.631844
0.63149
0.631144
0.630393
0.630226
0.62981
0.629782
0.629662
0.629812
0.629712
0.631415
0.632094
0.63188
0.631384
0.632007
0.632362
0.632169
0.63175
0.632149
0.632435
0.632382
0.63231
0.630921
0.631784
0.632469
0.630906
0.631924
0.632343
0.630985
0.632055
0.632697
0.631187
0.632283
0.632846
0.631421
0.632467
0.633112
0.631689
0.632678
0.633263
0.631992
0.632996
0.633406
0.63201
0.633021
0.633391
0.632795
0.632747
0.632272
0.632666
0.632908
0.632543
0.632659
0.632766
0.63259
0.632007
0.392788
0.599486
0.629364
0.63144
0.631254
0.630899
0.630566
0.629809
0.629663
0.629271
0.62926
0.629165
0.629322
0.629223
0.630857
0.631513
0.631291
0.630772
0.631474
0.631837
0.631664
0.631298
0.631674
0.631955
0.631901
0.631829
0.630443
0.631299
0.631985
0.630428
0.63144
0.631859
0.630508
0.631574
0.632214
0.630705
0.6318
0.632362
0.63094
0.631985
0.63263
0.631208
0.632202
0.63276
0.631475
0.632478
0.632912
0.631524
0.632535
0.632905
0.632304
0.632256
0.631779
0.63236
0.63253
0.632338
0.631751
0.632167
0.632254
0.631168
0.393913
0.602148
0.631369
0.633237
0.632945
0.632575
0.632198
0.631478
0.631273
0.630838
0.630774
0.630594
0.630698
0.630599
0.632321
0.633018
0.632804
0.63231
0.632896
0.633229
0.633033
0.632611
0.632922
0.633014
0.63161
0.632594
0.633252
0.631601
0.632693
0.633184
0.631738
0.632693
0.63348
0.633041
0.633063
0.632053
0.633145
0.633663
0.632232
0.633276
0.633916
0.632501
0.63345
0.634205
0.633463
0.63378
0.633845
0.633178
0.633978
0.634182
0.633576
0.633524
0.633009
0.633404
0.633595
0.633267
0.63346
0.633648
0.633478
0.63357
0.603258
0.862625
0.880558
0.880372
0.87693
0.877526
0.875319
0.876382
0.874338
0.875382
0.873386
0.874293
0.872379
0.873124
0.871342
0.871937
0.870296
0.870744
0.869409
0.869823
0.86855
0.868808
0.867651
0.86784
0.867218
0.867484
0.866872
0.867047
0.866369
0.866521
0.865808
0.865883
0.865118
0.865141
0.864585
0.864485
0.863847
0.863604
0.862848
0.862525
0.861809
0.861335
0.860595
0.86004
0.859273
0.858683
0.857926
0.857301
0.856546
0.855895
0.85516
0.854468
0.853777
0.853005
0.852405
0.851359
0.850666
0.849105
0.844318
0.851517
0.0067302
0.01289
0.01269
0.0131512
0.0125234
0.0129059
0.0123724
0.0127057
0.0122332
0.0125059
0.0120834
0.0122986
0.0119208
0.0120848
0.0117478
0.0118678
0.0115686
0.0116522
0.0113899
0.0114455
0.0112142
0.0112461
0.0110532
0.0110704
0.0108951
0.0109005
0.0107387
0.0107347
0.010587
0.0105748
0.0104406
0.0104194
0.0102958
0.0102654
0.0101495
0.0101089
0.0100004
0.00995046
0.00984786
0.009789
0.00969203
0.00962649
0.00953432
0.00946425
0.00937634
0.00930329
0.00921946
0.00914437
0.00906487
0.00898824
0.00891386
0.00883589
0.00876779
0.00868947
0.00862873
0.00855137
0.00849522
0.00842464
0.00835414
0.0083131
0.000191887
0.000383933
0.000397414
0.000409196
0.000401473
0.000409132
0.00040285
0.000407676
0.000402898
0.000406454
0.000403111
0.000405728
0.00040344
0.000406203
0.00040727
0.00040895
0.000406598
0.000407838
0.000408448
0.000409195
0.000408042
0.000409219
0.000410528
0.000410655
0.000408519
0.000410735
0.000412046
0.000410402
0.000412415
0.000414209
0.000412503
0.000414763
0.000417926
0.000418745
0.000418697
0.000417865
0.000420385
0.000422795
0.000421644
0.000424578
0.000427448
0.000426811
0.000429505
0.000434036
0.000435619
0.000438053
0.000440067
0.000442026
0.000444866
0.000448085
0.000449683
0.000452908
0.000455245
0.000458998
0.000461805
0.000466861
0.000468367
0.000470581
0.000467258
0.000466694
0.000179389
0.000358291
0.000372242
0.000394771
0.000382738
0.000392896
0.000382297
0.000389834
0.000382192
0.000388097
0.000382695
0.000387172
0.000383337
0.000387077
0.000386046
0.000389242
0.000386932
0.000388578
0.000387931
0.000390148
0.000389464
0.000391361
0.00039246
0.000393628
0.000392835
0.000393994
0.000393323
0.000396046
0.000397882
0.00039706
0.000399291
0.000401619
0.000400714
0.0004037
0.000406204
0.000405656
0.000408597
0.000411714
0.000411243
0.000414661
0.000419053
0.000419655
0.000422385
0.000426954
0.000428181
0.00043208
0.000435751
0.000437916
0.000441922
0.000446474
0.000449053
0.00045358
0.000456664
0.000462443
0.000465794
0.000471914
0.000472917
0.000478605
0.000478032
0.000483238
0.000185579
0.000371401
0.000386367
0.000417008
0.000408132
0.000419098
0.000408947
0.000416432
0.000409115
0.000414796
0.000409702
0.000413886
0.000410352
0.000413423
0.000412445
0.00041558
0.000413804
0.000415184
0.000414835
0.000416787
0.000416204
0.000417896
0.000419103
0.000420135
0.000419507
0.000420449
0.000419608
0.000422305
0.000424196
0.000423127
0.000425461
0.000427795
0.000426743
0.000429814
0.000432393
0.000431671
0.000434736
0.000437953
0.000437323
0.000440865
0.000445477
0.000445946
0.000448702
0.000453469
0.000454621
0.000458677
0.000462445
0.000464541
0.000468662
0.000473283
0.000475941
0.000480457
0.000483948
0.000489199
0.000493894
0.000499201
0.000505443
0.000510621
0.00052109
0.000524832
0.000180944
0.00036231
0.000376137
0.000402055
0.000390134
0.000401778
0.000390303
0.000398935
0.000390515
0.000397216
0.000391269
0.000396256
0.000392118
0.000395835
0.000394373
0.000397867
0.000395787
0.000397484
0.000396967
0.000399113
0.000398448
0.000400341
0.000401321
0.000402626
0.000402094
0.000403045
0.000402289
0.000405012
0.000406889
0.000405973
0.000408245
0.000410584
0.000409626
0.000412645
0.000415194
0.000414587
0.000417572
0.000420737
0.000420215
0.000423654
0.00042814
0.00043022
0.000432509
0.000434556
0.000438142
0.000442031
0.000444796
0.000448159
0.000451465
0.000455756
0.000458306
0.000462812
0.000465987
0.000471749
0.000475496
0.000480959
0.000484279
0.000490501
0.000493098
0.000496847
0.000182981
0.000366663
0.00038083
0.00040928
0.000398699
0.000410325
0.000399547
0.000407727
0.000400013
0.000406181
0.000400803
0.000405313
0.000401582
0.000404871
0.000403724
0.000407
0.000405151
0.000406649
0.000406186
0.000408185
0.000407567
0.000409303
0.00041036
0.000411874
0.000411591
0.000412255
0.000411123
0.000413757
0.000415613
0.000414599
0.000416883
0.000419203
0.000418196
0.000421244
0.000423822
0.000423157
0.000426182
0.00042938
0.000428807
0.000432291
0.000436915
0.000437661
0.000440503
0.000444872
0.000446025
0.000450035
0.000453756
0.000455883
0.000459971
0.000464545
0.000467179
0.000471665
0.000475017
0.000480689
0.000485064
0.000490123
0.000495313
0.000500618
0.000507746
0.000510682
0.000182981
0.000366662
0.00038083
0.00040928
0.000398701
0.000410327
0.000399553
0.000407732
0.000400019
0.000406186
0.000400805
0.000405314
0.000401582
0.00040487
0.000403711
0.000406983
0.000405134
0.00040663
0.000406169
0.000408171
0.00040756
0.000409302
0.00041035
0.000412148
0.000412202
0.000412631
0.000411149
0.000413757
0.000415611
0.000414596
0.000416886
0.00041921
0.000418198
0.000421245
0.000423821
0.000423156
0.000426182
0.000429379
0.000428806
0.000432286
0.000436834
0.000438915
0.000441208
0.000443248
0.000446869
0.000450797
0.000453569
0.00045695
0.000460281
0.000464582
0.00046719
0.000471674
0.000475021
0.000480691
0.000485071
0.000490141
0.00049534
0.000500652
0.000507757
0.000510692
0.000180945
0.00036231
0.000376138
0.000402055
0.000390131
0.000401775
0.000390293
0.000398923
0.000390504
0.00039721
0.000391266
0.000396253
0.000392117
0.000395849
0.000394456
0.000397972
0.000395877
0.000397567
0.000396985
0.000399142
0.00039847
0.000400318
0.000401337
0.000402599
0.000402028
0.000403018
0.000402287
0.000405018
0.000406886
0.000405952
0.000408274
0.000410664
0.000409651
0.000412651
0.000415203
0.000414592
0.000417575
0.000420738
0.000420216
0.000423675
0.000428169
0.000428783
0.00043155
0.00043609
0.000437315
0.000441307
0.000444959
0.000447111
0.000451158
0.000455712
0.000458313
0.000462822
0.000465966
0.000471735
0.00047548
0.00048093
0.000484265
0.000490477
0.000493078
0.000496786
0.000185577
0.000371401
0.000386367
0.000417008
0.000408134
0.0004191
0.000408954
0.000416437
0.00040912
0.0004148
0.000409703
0.000413886
0.000410352
0.000413423
0.000412451
0.000415588
0.000413817
0.000415198
0.000414846
0.000416795
0.000416207
0.000417896
0.000419088
0.000420168
0.000419566
0.000420476
0.000419613
0.000422304
0.000424193
0.000423124
0.000425464
0.000427803
0.000426746
0.000429815
0.000432394
0.000431673
0.000434737
0.000437954
0.000437324
0.000440865
0.000445477
0.000445944
0.000448701
0.00045347
0.000454629
0.000458694
0.000462445
0.000464538
0.000468661
0.000473283
0.000475941
0.000480453
0.000483942
0.000489192
0.000493892
0.000499195
0.00050543
0.000510604
0.000521059
0.000524802
0.000179389
0.000358292
0.000372242
0.00039477
0.000382735
0.000392892
0.000382288
0.000389827
0.000382184
0.00038809
0.000382692
0.00038717
0.000383336
0.000386986
0.000385776
0.000389003
0.000386791
0.000389161
0.000389121
0.000390765
0.000389534
0.000391396
0.000392475
0.000393625
0.000392834
0.000393995
0.000393324
0.000396047
0.000397882
0.000397061
0.000399301
0.000401637
0.000400723
0.000403704
0.000406206
0.000405658
0.000408599
0.000411715
0.000411243
0.000414661
0.000419055
0.000419656
0.000422402
0.000426917
0.000428048
0.000431906
0.000435721
0.000437907
0.000441916
0.000446467
0.000449046
0.000453571
0.000456653
0.00046243
0.000465776
0.000471885
0.000472878
0.000478551
0.000477998
0.000483164
0.000191886
0.00038393
0.000397409
0.000409191
0.00040147
0.000409133
0.000402853
0.000407677
0.000402899
0.000406454
0.000403111
0.000405728
0.00040344
0.000406199
0.000407304
0.000409004
0.000406656
0.000407872
0.000408202
0.000408931
0.00040802
0.000409222
0.000410533
0.000410659
0.000408521
0.000410737
0.000412036
0.000410392
0.000412422
0.000414228
0.000412511
0.000414759
0.000417902
0.000418739
0.000418692
0.00041785
0.000420374
0.000422786
0.000421628
0.000424597
0.000427324
0.000426641
0.000429446
0.000434076
0.000435613
0.000438051
0.000440086
0.000442029
0.000444863
0.000448079
0.000449677
0.000452897
0.000455187
0.000459095
0.000462124
0.000466517
0.000467917
0.000470293
0.00046695
0.000466638
0.00673021
0.01289
0.01269
0.0131512
0.0125234
0.0129059
0.0123724
0.0127057
0.0122332
0.0125058
0.0120834
0.0122986
0.0119208
0.0120848
0.0117478
0.0118678
0.0115686
0.0116522
0.0113899
0.0114455
0.0112142
0.0112461
0.0110532
0.0110704
0.0108951
0.0109005
0.0107387
0.0107347
0.010587
0.0105748
0.0104406
0.0104194
0.0102958
0.0102654
0.0101495
0.0101089
0.0100004
0.00995046
0.00984785
0.00978899
0.00969203
0.00962649
0.00953433
0.00946427
0.00937636
0.00930333
0.0092195
0.00914445
0.00906493
0.00898835
0.00891393
0.00883606
0.00876789
0.00868978
0.00862894
0.00855195
0.00849565
0.00842569
0.00835473
0.00831542
0.0067302
0.01289
0.01269
0.0131512
0.0125234
0.0129059
0.0123724
0.0127057
0.0122332
0.0125058
0.0120834
0.0122986
0.0119208
0.0120847
0.0117478
0.0118678
0.0115686
0.0116522
0.0113899
0.0114455
0.0112141
0.0112461
0.0110532
0.0110704
0.010895
0.0109005
0.0107386
0.0107347
0.0105869
0.0105748
0.0104406
0.0104194
0.0102958
0.0102654
0.0101495
0.0101089
0.0100004
0.00995045
0.00984784
0.00978898
0.00969202
0.00962647
0.00953431
0.00946424
0.00937633
0.00930327
0.00921944
0.00914436
0.00906486
0.00898822
0.00891384
0.00883587
0.00876777
0.00868946
0.00862871
0.00855135
0.00849521
0.00842462
0.00835413
0.0083131
0.000191889
0.000383936
0.000397415
0.000409198
0.000401474
0.000409133
0.000402852
0.000407678
0.0004029
0.000406457
0.000403114
0.000405731
0.000403443
0.000406205
0.000407275
0.000408959
0.0004066
0.000407846
0.000408495
0.000409241
0.000408049
0.000409219
0.000410528
0.000410655
0.000408517
0.000410733
0.000412049
0.000410399
0.000412413
0.000414217
0.000412504
0.000414771
0.000417888
0.000418783
0.000418759
0.000417819
0.000420368
0.00042279
0.000421633
0.000424599
0.00042733
0.000426652
0.000429456
0.000434087
0.000435644
0.000438044
0.000440042
0.000442023
0.000444868
0.000448098
0.000449695
0.000452915
0.000455247
0.000458998
0.000461808
0.000466865
0.000468373
0.000470585
0.000467261
0.000466695
0.000179381
0.000358292
0.000372239
0.000394773
0.000382737
0.000392897
0.000382297
0.000389836
0.000382194
0.000388101
0.000382696
0.000387173
0.000383338
0.00038708
0.000386046
0.000389241
0.000386922
0.000388705
0.000388104
0.000390194
0.000389466
0.000391359
0.000392455
0.000393624
0.000392828
0.000393989
0.000393318
0.000396038
0.000397879
0.000397055
0.000399288
0.000401625
0.000400715
0.000403696
0.000406205
0.000405657
0.000408596
0.000411719
0.000411246
0.000414662
0.00041906
0.000419662
0.000422394
0.000426946
0.000428128
0.000432001
0.000435744
0.000437923
0.000441928
0.00044648
0.000449064
0.000453593
0.000456677
0.000462439
0.000465787
0.000471909
0.000472907
0.000478615
0.000478059
0.000483254
0.00018558
0.000371403
0.000386369
0.000417013
0.000408136
0.000419102
0.000408951
0.000416437
0.000409121
0.000414802
0.000409708
0.000413892
0.000410358
0.000413423
0.000412381
0.000415488
0.000413698
0.000415927
0.000416733
0.000418001
0.000416351
0.000417946
0.000419047
0.000420302
0.000419833
0.000420615
0.000419631
0.0004223
0.000424194
0.000423124
0.00042546
0.000427803
0.000426744
0.00042981
0.000432394
0.000431672
0.000434735
0.000437959
0.000437328
0.000440868
0.00044548
0.00044594
0.000448694
0.000453458
0.000454595
0.000458654
0.00046245
0.000464536
0.000468647
0.000473285
0.000475945
0.000480464
0.000483957
0.000489202
0.000493896
0.000499205
0.000505448
0.000510625
0.000521094
0.000524838
0.000180944
0.000362312
0.00037614
0.00040206
0.00039014
0.000401782
0.000390307
0.000398939
0.00039052
0.000397222
0.000391274
0.000396262
0.000392123
0.000395839
0.000394374
0.00039787
0.000395788
0.000397485
0.000396966
0.000399115
0.000398446
0.000400339
0.000401318
0.000402604
0.000402059
0.000403025
0.00040228
0.000405002
0.000406883
0.000405967
0.000408241
0.000410589
0.000409626
0.00041264
0.000415195
0.000414587
0.00041757
0.000420741
0.000420218
0.000423675
0.000428172
0.000428783
0.000431544
0.000436107
0.000437345
0.000441346
0.00044499
0.000447128
0.000451167
0.000455725
0.000458313
0.00046282
0.000465992
0.000471752
0.000475497
0.000480972
0.000484274
0.000490488
0.00049309
0.000496843
0.000182983
0.000366665
0.000380831
0.000409284
0.000398703
0.000410329
0.000399551
0.000407731
0.000400018
0.000406186
0.000400809
0.000405318
0.000401587
0.000404878
0.000403766
0.000407066
0.000405192
0.000406683
0.000406224
0.000408221
0.000407588
0.000409316
0.00041036
0.000411862
0.000411567
0.000412238
0.000411119
0.000413751
0.000415611
0.000414595
0.000416878
0.000419204
0.000418195
0.000421241
0.000423823
0.000423157
0.00042618
0.000429385
0.000428812
0.000432297
0.000436912
0.000437632
0.000440464
0.000444868
0.000446009
0.000450009
0.000453755
0.000455887
0.000459973
0.00046455
0.000467181
0.000471668
0.000475025
0.000480694
0.000485071
0.000490128
0.000495316
0.000500622
0.000507752
0.000510688
0.000182982
0.000366665
0.000380831
0.000409284
0.000398704
0.000410331
0.000399557
0.000407737
0.000400024
0.000406191
0.000400811
0.00040532
0.000401587
0.000404878
0.000403766
0.000407067
0.000405193
0.000406682
0.000406222
0.000408219
0.000407588
0.000409315
0.00041036
0.000411854
0.000411551
0.000412229
0.000411117
0.000413749
0.000415608
0.000414592
0.000416885
0.000419218
0.0004182
0.00042125
0.000423851
0.00042321
0.000425877
0.000430379
0.000432079
0.000434722
0.00043683
0.000439241
0.000440075
0.000443255
0.000447435
0.000449345
0.000453042
0.000457312
0.000459839
0.000463939
0.000467143
0.000471735
0.000475315
0.000480869
0.000485212
0.000490318
0.000495512
0.000500802
0.000507908
0.000510738
0.000180945
0.000362312
0.00037614
0.00040206
0.000390136
0.000401779
0.000390297
0.000398928
0.000390509
0.000397215
0.00039127
0.000396259
0.000392122
0.000395874
0.000394547
0.000398079
0.000395964
0.000397649
0.00039702
0.000399152
0.000398475
0.000400317
0.000401323
0.000402596
0.000402031
0.000403013
0.00040228
0.000405004
0.000406886
0.000405969
0.000408244
0.000410592
0.000409629
0.000412651
0.000415225
0.000414641
0.000417276
0.000421719
0.000423414
0.000425997
0.000427993
0.000430376
0.000431619
0.00043506
0.00043875
0.000440618
0.000444284
0.000448513
0.000451028
0.000455122
0.000458255
0.000462865
0.000466294
0.000471835
0.000475525
0.000481039
0.000484401
0.000490622
0.000493202
0.000496854
0.000185579
0.000371403
0.000386369
0.000417013
0.000408138
0.000419104
0.000408958
0.000416443
0.000409125
0.000414806
0.000409709
0.000413892
0.000410358
0.000413422
0.000412375
0.000415478
0.00041371
0.000415324
0.000415084
0.000416801
0.00041618
0.000417918
0.00041905
0.000420304
0.000419825
0.00042061
0.000419631
0.000422298
0.00042419
0.000423114
0.00042546
0.000427813
0.000426734
0.000429809
0.000432427
0.000431728
0.000434425
0.000438981
0.000440646
0.000443293
0.000445414
0.000447879
0.000448819
0.000452091
0.00045611
0.000457981
0.000461711
0.000466001
0.000468516
0.00047265
0.000475912
0.000480534
0.000484185
0.000489768
0.000494466
0.000499526
0.000505914
0.000511124
0.000521545
0.000524976
0.000179382
0.000358292
0.000372239
0.000394772
0.000382735
0.000392893
0.000382289
0.000389829
0.000382186
0.000388094
0.000382693
0.000387172
0.000383337
0.00038711
0.00038613
0.000389323
0.000386976
0.000388614
0.000387942
0.000390146
0.000389462
0.000391362
0.000392456
0.000393606
0.000392735
0.000393898
0.000393306
0.000396037
0.000397878
0.000397056
0.000399294
0.000401635
0.00040072
0.000403707
0.000406234
0.000405709
0.000408309
0.00041268
0.000414347
0.000416896
0.000418979
0.000421373
0.000422327
0.000425507
0.000429518
0.000431377
0.000435003
0.000439239
0.000441786
0.000445885
0.000448958
0.000453737
0.000457257
0.00046259
0.000465818
0.000472037
0.000473769
0.000479111
0.000477752
0.0004832
0.000191887
0.000383932
0.00039741
0.000409194
0.000401471
0.000409134
0.000402855
0.000407679
0.000402901
0.000406457
0.000403114
0.000405731
0.000403442
0.000406202
0.000407307
0.000409008
0.000406655
0.000407874
0.000408254
0.000408988
0.000408023
0.000409221
0.000410532
0.000410659
0.000408519
0.000410733
0.00041203
0.000410384
0.000412413
0.000414227
0.000412509
0.000414754
0.000417904
0.000418738
0.000418691
0.000417851
0.000420371
0.000422788
0.000421643
0.000424591
0.000427442
0.000426799
0.00042959
0.000433953
0.00043408
0.000436972
0.000440344
0.000441235
0.00044432
0.000448041
0.000449675
0.000452903
0.000455196
0.000459092
0.000462122
0.000466529
0.000467937
0.000470306
0.000466958
0.000466642
0.0067302
0.01289
0.01269
0.0131512
0.0125234
0.0129059
0.0123724
0.0127057
0.0122332
0.0125058
0.0120834
0.0122986
0.0119208
0.0120847
0.0117478
0.0118678
0.0115686
0.0116522
0.0113899
0.0114455
0.0112141
0.0112461
0.0110532
0.0110704
0.010895
0.0109005
0.0107386
0.0107346
0.0105869
0.0105748
0.0104406
0.0104193
0.0102958
0.0102654
0.0101494
0.0101089
0.0100004
0.00995044
0.00984783
0.00978897
0.009692
0.00962647
0.00953431
0.00946425
0.00937634
0.00930331
0.00921949
0.00914443
0.00906491
0.00898833
0.00891391