/*--------------------------------*- C++ -*----------------------------------*\
  =========                 |
  \\      /  F ield         | OpenFOAM: The Open Source CFD Toolbox
   \\    /   O peration     | Website:  https://openfoam.org
    \\  /    A nd           | Version:  7
     \\/     M anipulation  |
\*---------------------------------------------------------------------------*/
FoamFile
{
    version     2.0;
    format      ascii;
    class       surfaceScalarField;
    location    "4.1";
    object      phi;
}
// * * * * * * * * * * * * * * * * * * * * * * * * * * * * * * * * * * * * * //

dimensions      [1 0 -1 0 0 0 0];

internalField   nonuniform List<scalar> 
10108
(
0.0137764
4.61255e-05
0.0136456
0.000130818
0.0134405
0.00020509
0.0131718
0.000268805
0.0128504
0.00032145
0.0124883
0.000362153
0.0120975
0.000390842
0.0116888
0.00040877
0.0112714
0.000417481
0.0108526
0.000418811
0.0104384
0.000414221
0.0100336
0.000404832
0.00964139
0.000392246
0.00926426
0.000377147
0.00890419
0.000360099
0.00856238
0.000341836
0.00823954
0.000322859
0.00793599
0.000303564
0.00765173
0.000284269
0.00738652
0.000265223
0.0071399
0.000246627
0.00691126
0.000228635
0.00669989
0.000211366
0.00650497
0.000194911
0.00632563
0.000179327
0.00616095
0.000164655
0.00601001
0.000150912
0.00587188
0.000138099
0.00574564
0.000126207
0.00563038
0.000115216
0.00552524
0.000105097
0.00542937
9.58133e-05
0.00534198
8.73256e-05
0.00526233
7.95898e-05
0.0051897
7.25598e-05
0.00512343
6.61875e-05
0.00506292
6.04261e-05
0.00500761
5.52284e-05
0.00495696
5.05486e-05
0.00491052
4.63434e-05
0.00486784
4.25707e-05
0.00482853
3.91911e-05
0.00479225
3.61579e-05
0.00475872
3.34056e-05
0.00472761
3.09775e-05
0.00469864
2.88278e-05
0.00467158
2.69126e-05
0.00464622
2.52055e-05
0.00462238
2.36841e-05
0.00459989
2.23281e-05
0.0045786
2.11188e-05
0.00455839
2.004e-05
0.00453913
1.90772e-05
0.00452073
1.82166e-05
0.00450309
1.7446e-05
0.00448613
1.67564e-05
0.00446979
1.61397e-05
0.004454
1.55882e-05
0.00443869
1.50958e-05
0.00442382
1.46554e-05
0.00440933
1.42626e-05
0.00439519
1.39126e-05
0.00438136
1.36018e-05
0.0043678
1.33279e-05
0.00435448
1.30856e-05
0.00434136
1.28805e-05
0.00432841
1.26964e-05
0.0043156
1.25642e-05
0.00430293
1.24256e-05
0.00429028
1.23966e-05
0.00427776
1.22681e-05
0.00426505
1.24497e-05
0.00425261
1.21838e-05
0.00423942
1.29279e-05
0.00422736
1.1796e-05
0.00421291
1.41912e-05
0.0042042
8.45465e-06
0.00418763
1.63086e-05
0.00419946
-1.20995e-05
2.08377e-05
0.00417835
0.01384
2.86147e-05
0.0138838
8.70211e-05
0.0139473
0.00014164
0.0140247
0.000191435
0.0141095
0.000236733
0.0141947
0.000277048
0.0142741
0.000311458
0.0143435
0.000339446
0.0144
0.000361035
0.0144422
0.00037662
0.0144697
0.000386748
0.0144827
0.000391969
0.014482
0.000392969
0.0144688
0.000390352
0.0144443
0.000384631
0.0144098
0.000376336
0.0143667
0.000365972
0.0143163
0.000353998
0.0142598
0.000340819
0.0141982
0.000326785
0.0141327
0.000312202
0.014064
0.000297336
0.0139929
0.000282415
0.0139202
0.000267633
0.0138464
0.000253146
0.0137719
0.000239083
0.0136973
0.000225539
0.0136228
0.000212586
0.0135487
0.000200277
0.0134752
0.000188647
0.0134025
0.000177714
0.0133308
0.000167482
0.0132602
0.000157944
0.0131906
0.000149084
0.0131222
0.00014088
0.013055
0.000133302
0.012989
0.000126317
0.0129243
0.000119891
0.0128607
0.000113986
0.0127984
0.000108567
0.0127373
0.000103595
0.0126773
9.9033e-05
0.0126185
9.48436e-05
0.0125608
9.09945e-05
0.0125042
8.74686e-05
0.0124486
8.42387e-05
0.0123941
8.12716e-05
0.0123406
7.85386e-05
0.0122882
7.60152e-05
0.0122366
7.36811e-05
0.0121861
7.15172e-05
0.0121364
6.95075e-05
0.0120877
6.76384e-05
0.0120398
6.58946e-05
0.0119928
6.42574e-05
0.0119466
6.27218e-05
0.0119013
6.12785e-05
0.0118568
5.99197e-05
0.011813
5.86386e-05
0.01177
5.74289e-05
0.0117278
5.62857e-05
0.0116862
5.5205e-05
0.0116454
5.41834e-05
0.0116053
5.32187e-05
0.0115659
5.23083e-05
0.011527
5.14539e-05
0.0114889
5.06506e-05
0.0114513
4.9912e-05
0.0114142
4.92179e-05
0.0113777
4.86218e-05
0.0113417
4.80412e-05
0.0113062
4.76587e-05
0.011271
4.71634e-05
0.0112365
4.71406e-05
0.0112016
4.65078e-05
0.0111683
4.71709e-05
0.0111307
4.58658e-05
0.0110974
4.9316e-05
0.011037
4.80852e-05
5.76532e-05
0.0109999
0.0138304
2.06594e-05
0.0138551
6.23081e-05
0.013895
0.000101783
0.0139486
0.000137975
0.0140148
0.000170574
0.0140925
0.000199428
0.0141798
0.000224249
0.0142745
0.000244789
0.0143745
0.000261063
0.0144778
0.00027332
0.0145826
0.00028195
0.0146873
0.000287344
0.0147905
0.000289864
0.014891
0.000289896
0.0149879
0.000287773
0.0150804
0.000283787
0.0151681
0.000278232
0.0152508
0.000271393
0.0153281
0.000263529
0.0154001
0.000254873
0.0154666
0.000245637
0.0155279
0.000236019
0.0155841
0.000226192
0.0156355
0.000216307
0.0156821
0.000206486
0.0157244
0.000196838
0.0157625
0.000187445
0.0157966
0.000178378
0.0158272
0.000169687
0.0158544
0.000161414
0.0158784
0.000153584
0.0158997
0.000146214
0.0159182
0.000139309
0.0159344
0.000132867
0.0159484
0.00012688
0.0159603
0.000121334
0.0159703
0.000116209
0.0159786
0.000111486
0.0159853
0.00010714
0.0159906
0.000103149
0.0159946
9.94872e-05
0.0159974
9.61295e-05
0.0159991
9.30518e-05
0.0159997
9.02319e-05
0.0159994
8.7648e-05
0.0159982
8.52832e-05
0.0159962
8.31166e-05
0.0159935
8.11285e-05
0.0159901
7.9299e-05
0.015986
7.76128e-05
0.0159813
7.60548e-05
0.015976
7.46135e-05
0.0159701
7.3276e-05
0.0159638
7.20302e-05
0.015957
7.08661e-05
0.0159497
6.97795e-05
0.015942
6.8762e-05
0.0159339
6.78093e-05
0.0159254
6.69149e-05
0.0159166
6.60756e-05
0.0159073
6.52865e-05
0.0158978
6.45461e-05
0.0158879
6.38517e-05
0.0158777
6.32028e-05
0.0158671
6.25997e-05
0.0158563
6.20409e-05
0.0158452
6.15335e-05
0.0158338
6.10703e-05
0.0158221
6.06753e-05
0.0158101
6.0322e-05
0.0157978
6.0081e-05
0.0157854
5.98641e-05
0.0157724
5.98689e-05
0.0157595
5.9822e-05
0.0157454
6.03268e-05
0.0157316
6.0665e-05
0.0157143
6.29336e-05
0.015699
6.44232e-05
0.0156752
7.1605e-05
7.39947e-05
0.0156586
0.0138297
1.3433e-05
0.0138519
4.01481e-05
0.0138878
6.58557e-05
0.0139362
8.96563e-05
0.0139957
0.000111133
0.0140651
0.000130123
0.0141429
0.00014651
0.0142276
0.000160175
0.0143176
0.000171091
0.0144115
0.000179372
0.0145083
0.000185248
0.0146067
0.000188979
0.0147058
0.000190804
0.0148048
0.000190967
0.0149029
0.000189694
0.0149995
0.000187189
0.0150941
0.000183645
0.0151862
0.000179252
0.0152756
0.000174184
0.0153619
0.000168594
0.015445
0.000162608
0.0155246
0.000156379
0.0156007
0.000150019
0.0156734
0.000143625
0.0157426
0.000137276
0.0158085
0.000131038
0.0158709
0.000124963
0.0159302
0.000119095
0.0159864
0.000113467
0.0160396
0.000108106
0.0160901
0.000103029
0.016138
9.82473e-05
0.0161835
9.37657e-05
0.0162268
8.95838e-05
0.0162679
8.56964e-05
0.0163071
8.20952e-05
0.0163444
7.87686e-05
0.0163801
7.57039e-05
0.0164142
7.28867e-05
0.016447
7.03021e-05
0.0164784
6.79344e-05
0.0165087
6.57683e-05
0.0165378
6.37879e-05
0.0165659
6.19785e-05
0.0165931
6.0326e-05
0.0166194
5.88187e-05
0.016645
5.74445e-05
0.0166698
5.61908e-05
0.0166939
5.5045e-05
0.0167174
5.39964e-05
0.0167402
5.30352e-05
0.0167625
5.21532e-05
0.0167842
5.13421e-05
0.0168054
5.05955e-05
0.0168262
4.99073e-05
0.0168465
4.92733e-05
0.0168664
4.8689e-05
0.0168858
4.81508e-05
0.0169048
4.76556e-05
0.0169235
4.72005e-05
0.0169417
4.67841e-05
0.0169596
4.64041e-05
0.0169772
4.60618e-05
0.0169944
4.57542e-05
0.0170113
4.54879e-05
0.0170279
4.52541e-05
0.0170441
4.50728e-05
0.01706
4.49183e-05
0.0170756
4.48434e-05
0.0170909
4.47736e-05
0.0171058
4.48548e-05
0.0171205
4.4882e-05
0.0171349
4.52518e-05
0.017149
4.54258e-05
0.0171626
4.64883e-05
0.017176
4.70067e-05
0.0171889
4.98048e-05
0.0172021
5.09264e-05
0.0172157
5.7814e-05
5.93529e-05
0.0172301
0.0138293
6.58778e-06
0.0138498
1.96719e-05
0.0138833
3.2336e-05
0.0139289
4.41336e-05
0.0139853
5.48073e-05
0.0140513
6.42437e-05
0.0141255
7.2401e-05
0.0142064
7.92458e-05
0.0142928
8.47472e-05
0.0143833
8.89481e-05
0.0144766
9.19508e-05
0.0145718
9.38772e-05
0.0146678
9.485e-05
0.0147638
9.49852e-05
0.0148591
9.43973e-05
0.0149531
9.31892e-05
0.0150453
9.14607e-05
0.0151353
8.93037e-05
0.0152227
8.68057e-05
0.0153073
8.40407e-05
0.0153888
8.1081e-05
0.0154671
7.79991e-05
0.0155423
7.48514e-05
0.0156142
7.16848e-05
0.015683
6.85453e-05
0.0157486
6.54579e-05
0.0158111
6.24478e-05
0.0158706
5.95346e-05
0.0159273
5.67358e-05
0.0159813
5.40639e-05
0.0160327
5.15295e-05
0.0160818
4.91386e-05
0.0161286
4.68953e-05
0.0161734
4.47998e-05
0.0162162
4.28511e-05
0.0162571
4.10451e-05
0.0162964
3.93771e-05
0.0163342
3.78407e-05
0.0163705
3.64293e-05
0.0164056
3.51352e-05
0.0164395
3.39512e-05
0.0164723
3.28689e-05
0.016504
3.18811e-05
0.0165349
3.09799e-05
0.0165649
3.0159e-05
0.0165942
2.94118e-05
0.0166228
2.87328e-05
0.0166507
2.81155e-05
0.0166781
2.75541e-05
0.0167049
2.70428e-05
0.0167312
2.65773e-05
0.016757
2.61531e-05
0.0167824
2.57671e-05
0.0168073
2.5416e-05
0.0168319
2.50974e-05
0.0168562
2.48087e-05
0.0168801
2.45486e-05
0.0169037
2.43152e-05
0.0169271
2.41081e-05
0.0169501
2.39257e-05
0.0169729
2.37689e-05
0.0169954
2.36362e-05
0.0170177
2.35308e-05
0.0170398
2.34495e-05
0.0170616
2.34004e-05
0.0170833
2.33751e-05
0.0171047
2.33925e-05
0.017126
2.34298e-05
0.017147
2.35317e-05
0.0171679
2.36385e-05
0.0171886
2.38619e-05
0.0172092
2.40517e-05
0.0172297
2.44933e-05
0.0172501
2.4818e-05
0.0172706
2.5729e-05
0.017291
2.62837e-05
0.0173124
2.81797e-05
0.017334
2.90816e-05
0.0173585
3.30188e-05
3.43016e-05
0.0173833
0.013829
1.61165e-12
0.0138487
2.54447e-11
0.0138811
6.77118e-11
0.0139253
7.68744e-11
0.0139802
9.81444e-11
0.0140445
1.36551e-10
0.014117
1.70744e-10
0.0141963
2.14421e-10
0.014281
2.63756e-10
0.01437
3.1315e-10
0.014462
3.91599e-10
0.0145559
5.12471e-10
0.0146508
6.62739e-10
0.0147459
8.17591e-10
0.0148403
9.79264e-10
0.0149334
1.16075e-09
0.0150249
1.37922e-09
0.0151143
1.6411e-09
0.0152011
1.95504e-09
0.0152852
2.32676e-09
0.0153662
2.76746e-09
0.0154442
3.28324e-09
0.015519
3.88501e-09
0.0155907
4.57584e-09
0.0156593
5.37108e-09
0.0157247
6.27737e-09
0.0157872
7.32633e-09
0.0158467
8.52615e-09
0.0159033
9.91462e-09
0.0159573
1.1505e-08
0.0160088
1.33376e-08
0.0160579
1.54329e-08
0.0161047
1.78358e-08
0.0161495
2.05777e-08
0.0161922
2.37146e-08
0.0162332
2.72951e-08
0.0162724
3.13918e-08
0.0163101
3.60721e-08
0.0163464
4.14245e-08
0.0163814
4.75352e-08
0.0164152
5.45134e-08
0.0164479
6.24734e-08
0.0164795
7.15581e-08
0.0165103
8.1923e-08
0.0165402
9.37549e-08
0.0165694
1.07257e-07
0.0165979
1.22663e-07
0.0166257
1.40227e-07
0.016653
1.60236e-07
0.0166797
1.83013e-07
0.0167059
2.08923e-07
0.0167316
2.38376e-07
0.0167569
2.71836e-07
0.0167818
3.09842e-07
0.0168063
3.52977e-07
0.0168305
4.0193e-07
0.0168544
4.57484e-07
0.016878
5.20585e-07
0.0169013
5.92192e-07
0.0169243
6.73505e-07
0.0169471
7.65674e-07
0.0169696
8.70304e-07
0.0169919
9.88751e-07
0.017014
1.12324e-06
0.0170359
1.27524e-06
0.0170576
1.44795e-06
0.0170791
1.64263e-06
0.0171005
1.86411e-06
0.0171216
2.11271e-06
0.0171426
2.3961e-06
0.0171635
2.71168e-06
0.0171842
3.07217e-06
0.017205
3.46742e-06
0.0172256
3.92024e-06
0.0172467
4.40423e-06
0.0172677
4.95975e-06
0.0172901
5.52062e-06
0.0173128
6.16387e-06
0.0173388
6.75392e-06
7.48053e-06
0.0173654
0.013829
-6.5878e-06
0.0138487
-1.96719e-05
0.0138811
-3.2336e-05
0.0139253
-4.41335e-05
0.0139802
-5.48072e-05
0.0140445
-6.42435e-05
0.014117
-7.24007e-05
0.0141963
-7.92454e-05
0.014281
-8.47467e-05
0.01437
-8.89475e-05
0.014462
-9.19501e-05
0.0145559
-9.38762e-05
0.0146508
-9.48487e-05
0.0147459
-9.49837e-05
0.0148403
-9.43953e-05
0.0149334
-9.31869e-05
0.0150249
-9.14579e-05
0.0151143
-8.93004e-05
0.0152011
-8.68018e-05
0.0152852
-8.40361e-05
0.0153662
-8.10756e-05
0.0154442
-7.79926e-05
0.015519
-7.48437e-05
0.0155907
-7.16758e-05
0.0156593
-6.85346e-05
0.0157247
-6.54455e-05
0.0157872
-6.24333e-05
0.0158467
-5.95177e-05
0.0159033
-5.67162e-05
0.0159573
-5.40412e-05
0.0160088
-5.15031e-05
0.0160579
-4.9108e-05
0.0161047
-4.686e-05
0.0161495
-4.47591e-05
0.0161922
-4.28042e-05
0.0162332
-4.09911e-05
0.0162724
-3.9315e-05
0.0163101
-3.77693e-05
0.0163464
-3.63473e-05
0.0163814
-3.50411e-05
0.0164152
-3.38433e-05
0.0164479
-3.27453e-05
0.0164796
-3.17394e-05
0.0165103
-3.08177e-05
0.0165402
-2.99734e-05
0.0165694
-2.91995e-05
0.0165979
-2.84899e-05
0.0166258
-2.78378e-05
0.016653
-2.72368e-05
0.0166797
-2.66804e-05
0.0167059
-2.61635e-05
0.0167317
-2.56809e-05
0.016757
-2.52285e-05
0.0167819
-2.48021e-05
0.0168064
-2.4398e-05
0.0168306
-2.40123e-05
0.0168545
-2.3642e-05
0.0168781
-2.32835e-05
0.0169014
-2.29344e-05
0.0169244
-2.25908e-05
0.0169472
-2.22513e-05
0.0169697
-2.19111e-05
0.0169921
-2.15708e-05
0.0170142
-2.12227e-05
0.0170361
-2.08722e-05
0.0170578
-2.05041e-05
0.0170794
-2.01355e-05
0.0171007
-1.97328e-05
0.0171219
-1.93421e-05
0.0171429
-1.8885e-05
0.0171639
-1.84828e-05
0.0171846
-1.79522e-05
0.0172055
-1.76098e-05
0.0172262
-1.70239e-05
0.0172473
-1.69733e-05
0.0172684
-1.63942e-05
0.0172908
-1.71696e-05
0.0173134
-1.67361e-05
0.0173395
-1.95279e-05
-1.92786e-05
0.017366
0.0138293
-1.34331e-05
0.0138498
-4.01481e-05
0.0138833
-6.58557e-05
0.0139289
-8.96563e-05
0.0139853
-0.000111133
0.0140513
-0.000130123
0.0141255
-0.000146509
0.0142064
-0.000160175
0.0142928
-0.000171091
0.0143833
-0.000179372
0.0144766
-0.000185247
0.0145718
-0.000188978
0.0146678
-0.000190803
0.0147638
-0.000190965
0.0148591
-0.000189693
0.0149531
-0.000187187
0.0150453
-0.000183643
0.0151353
-0.000179249
0.0152227
-0.00017418
0.0153073
-0.00016859
0.0153888
-0.000162603
0.0154672
-0.000156373
0.0155423
-0.000150012
0.0156142
-0.000143616
0.015683
-0.000137266
0.0157486
-0.000131026
0.0158111
-0.00012495
0.0158706
-0.000119079
0.0159273
-0.000113448
0.0159813
-0.000108084
0.0160327
-0.000103003
0.0160818
-9.82178e-05
0.0161286
-9.37315e-05
0.0161734
-8.95444e-05
0.0162162
-8.56509e-05
0.0162572
-8.20428e-05
0.0162965
-7.87084e-05
0.0163342
-7.56347e-05
0.0163706
-7.28072e-05
0.0164056
-7.02109e-05
0.0164395
-6.78298e-05
0.0164723
-6.56483e-05
0.0165041
-6.36505e-05
0.0165349
-6.18211e-05
0.016565
-6.01459e-05
0.0165942
-5.86126e-05
0.0166228
-5.72087e-05
0.0166508
-5.59212e-05
0.0166782
-5.47369e-05
0.016705
-5.36444e-05
0.0167313
-5.26332e-05
0.0167571
-5.16943e-05
0.0167825
-5.08185e-05
0.0168075
-4.99985e-05
0.0168321
-4.92273e-05
0.0168564
-4.8499e-05
0.0168803
-4.78076e-05
0.016904
-4.71478e-05
0.0169273
-4.65144e-05
0.0169504
-4.59025e-05
0.0169732
-4.53082e-05
0.0169958
-4.47263e-05
0.0170182
-4.41556e-05
0.0170403
-4.35882e-05
0.0170622
-4.30289e-05
0.017084
-4.2461e-05
0.0171055
-4.19048e-05
0.0171268
-4.13204e-05
0.017148
-4.07678e-05
0.017169
-4.01449e-05
0.0171899
-3.96197e-05
0.0172106
-3.89323e-05
0.0172313
-3.85415e-05
0.0172518
-3.77902e-05
0.0172725
-3.79187e-05
0.017293
-3.72332e-05
0.0173146
-3.895e-05
0.0173361
-3.85694e-05
0.0173608
-4.44075e-05
-4.4189e-05
0.0173854
0.0138297
-2.06593e-05
0.0138519
-6.23081e-05
0.0138878
-0.000101783
0.0139362
-0.000137975
0.0139957
-0.000170574
0.0140651
-0.000199428
0.0141429
-0.000224248
0.0142276
-0.000244788
0.0143176
-0.000261062
0.0144115
-0.00027332
0.0145083
-0.000281949
0.0146067
-0.000287343
0.0147058
-0.000289863
0.0148048
-0.000289895
0.0149029
-0.000287771
0.0149995
-0.000283786
0.0150941
-0.00027823
0.0151862
-0.00027139
0.0152756
-0.000263525
0.0153619
-0.000254869
0.015445
-0.000245632
0.0155246
-0.000236014
0.0156007
-0.000226186
0.0156734
-0.000216299
0.0157426
-0.000206477
0.0158085
-0.000196826
0.0158709
-0.000187432
0.0159302
-0.000178363
0.0159864
-0.00016967
0.0160396
-0.000161394
0.0160901
-0.00015356
0.016138
-0.000146186
0.0161835
-0.000139277
0.0162268
-0.00013283
0.0162679
-0.000126838
0.0163071
-0.000121285
0.0163445
-0.000116153
0.0163801
-0.000111421
0.0164143
-0.000107066
0.016447
-0.000103064
0.0164785
-9.93895e-05
0.0165087
-9.60176e-05
0.0165379
-9.29238e-05
0.016566
-9.00853e-05
0.0165932
-8.74804e-05
0.0166195
-8.50914e-05
0.0166451
-8.28973e-05
0.0166699
-8.08779e-05
0.0166941
-7.90127e-05
0.0167176
-7.7286e-05
0.0167404
-7.56818e-05
0.0167627
-7.41879e-05
0.0167845
-7.27904e-05
0.0168058
-7.14766e-05
0.0168266
-7.02364e-05
0.0168469
-6.90631e-05
0.0168669
-6.79472e-05
0.0168864
-6.68827e-05
0.0169055
-6.58616e-05
0.0169243
-6.48785e-05
0.0169426
-6.39265e-05
0.0169607
-6.30011e-05
0.0169784
-6.20979e-05
0.0169958
-6.12113e-05
0.0170129
-6.03409e-05
0.0170297
-5.94768e-05
0.0170461
-5.86283e-05
0.0170623
-5.77723e-05
0.0170783
-5.69442e-05
0.0170939
-5.60831e-05
0.0171093
-5.52952e-05
0.0171246
-5.44127e-05
0.0171395
-5.37334e-05
0.0171543
-5.27932e-05
0.0171685
-5.24631e-05
0.0171826
-5.15383e-05
0.0171962
-5.28335e-05
0.0172101
-5.26785e-05
0.0172244
-5.89449e-05
-5.9017e-05
0.0172389
0.0138304
-2.86147e-05
0.0138551
-8.70211e-05
0.013895
-0.00014164
0.0139486
-0.000191435
0.0140148
-0.000236733
0.0140925
-0.000277048
0.0141798
-0.000311458
0.0142745
-0.000339446
0.0143745
-0.000361034
0.0144778
-0.00037662
0.0145826
-0.000386747
0.0146873
-0.000391968
0.0147905
-0.000392968
0.014891
-0.000390351
0.0149879
-0.00038463
0.0150804
-0.000376334
0.0151682
-0.00036597
0.0152508
-0.000353996
0.0153281
-0.000340817
0.0154001
-0.000326782
0.0154666
-0.000312198
0.0155279
-0.000297331
0.0155841
-0.000282409
0.0156355
-0.000267627
0.0156821
-0.000253138
0.0157244
-0.000239074
0.0157625
-0.000225528
0.0157967
-0.000212573
0.0158272
-0.000200263
0.0158544
-0.00018863
0.0158785
-0.000177694
0.0158997
-0.000167459
0.0159183
-0.000157917
0.0159345
-0.000149054
0.0159484
-0.000140845
0.0159603
-0.000133262
0.0159704
-0.000126271
0.0159787
-0.000119838
0.0159854
-0.000113926
0.0159907
-0.000108498
0.0159948
-0.000103516
0.0159976
-9.89433e-05
0.0159993
-9.47413e-05
0.0159999
-9.08778e-05
0.0159996
-8.73353e-05
0.0159985
-8.40865e-05
0.0159966
-8.1098e-05
0.0159939
-7.83406e-05
0.0159905
-7.57896e-05
0.0159865
-7.34241e-05
0.0159819
-7.12246e-05
0.0159767
-6.91742e-05
0.0159709
-6.72585e-05
0.0159647
-6.54629e-05
0.0159581
-6.37675e-05
0.015951
-6.21657e-05
0.0159434
-6.06472e-05
0.0159356
-5.92033e-05
0.0159273
-5.7826e-05
0.0159187
-5.65068e-05
0.0159098
-5.52405e-05
0.0159006
-5.40194e-05
0.0158911
-5.28405e-05
0.0158813
-5.16955e-05
0.0158714
-5.05851e-05
0.0158611
-4.94988e-05
0.0158507
-4.84425e-05
0.0158401
-4.74041e-05
0.0158293
-4.63927e-05
0.0158184
-4.54045e-05
0.0158072
-4.44316e-05
0.0157961
-4.35218e-05
0.0157847
-4.25523e-05
0.0157734
-4.1775e-05
0.0157612
-4.05727e-05
0.0157495
-4.00349e-05
0.0157346
-3.81757e-05
0.0157214
-3.97578e-05
0.0157004
-3.8217e-05
-4.39461e-05
0.0156851
0.01384
-4.61255e-05
0.0138838
-0.000130818
0.0139473
-0.00020509
0.0140247
-0.000268805
0.0141095
-0.000321449
0.0141947
-0.000362153
0.0142741
-0.000390842
0.0143435
-0.00040877
0.0144
-0.00041748
0.0144422
-0.000418811
0.0144697
-0.000414221
0.0144827
-0.000404832
0.014482
-0.000392246
0.0144688
-0.000377146
0.0144443
-0.000360098
0.0144098
-0.000341835
0.0143667
-0.000322858
0.0143163
-0.000303563
0.0142598
-0.000284267
0.0141982
-0.000265221
0.0141327
-0.000246625
0.014064
-0.000228632
0.0139929
-0.000211363
0.0139202
-0.000194907
0.0138464
-0.000179322
0.013772
-0.00016465
0.0136973
-0.000150906
0.0136228
-0.000138092
0.0135487
-0.000126199
0.0134752
-0.000115207
0.0134026
-0.000105086
0.0133309
-9.58009e-05
0.0132602
-8.73114e-05
0.0131907
-7.95735e-05
0.0131223
-7.25411e-05
0.0130551
-6.61661e-05
0.0129892
-6.04016e-05
0.0129244
-5.52005e-05
0.0128609
-5.05168e-05
0.0127986
-4.6307e-05
0.0127376
-4.25293e-05
0.0126777
-3.91439e-05
0.0126189
-3.61045e-05
0.0125612
-3.33453e-05
0.0125047
-3.09082e-05
0.0124492
-2.87488e-05
0.0123948
-2.68228e-05
0.0123414
-2.51034e-05
0.012289
-2.3568e-05
0.0122376
-2.2196e-05
0.0121872
-2.09688e-05
0.0121377
-1.98696e-05
0.0120891
-1.88837e-05
0.0120415
-1.79972e-05
0.0119947
-1.71974e-05
0.0119488
-1.64749e-05
0.0119038
-1.58208e-05
0.0118596
-1.5227e-05
0.0118163
-1.46868e-05
0.0117737
-1.41922e-05
0.011732
-1.37385e-05
0.0116911
-1.33192e-05
0.0116509
-1.29308e-05
0.0116116
-1.2568e-05
0.011573
-1.22276e-05
0.0115352
-1.1908e-05
0.0114981
-1.1601e-05
0.0114617
-1.13194e-05
0.0114261
-1.10295e-05
0.0113913
-1.08009e-05
0.0113571
-1.04935e-05
0.0113237
-1.03942e-05
0.0112908
-9.937e-06
0.011259
-1.02364e-05
0.0112271
-8.92559e-06
0.0111973
-1.04643e-05
0.0111634
-4.58068e-06
0.0111341
-1.06469e-05
0.0110768
1.87728e-05
-1.08815e-05
0.0110435
0.0137764
0.0136456
0.0134405
0.0131718
0.0128504
0.0124883
0.0120975
0.0116888
0.0112714
0.0108526
0.0104384
0.0100336
0.00964139
0.00926427
0.00890419
0.00856238
0.00823954
0.007936
0.00765174
0.00738653
0.00713991
0.00691128
0.00669991
0.00650499
0.00632565
0.00616098
0.00601005
0.00587193
0.0057457
0.00563045
0.00552531
0.00542946
0.00534209
0.00526245
0.00518983
0.00512359
0.0050631
0.00500781
0.0049572
0.00491079
0.00486816
0.0048289
0.00479267
0.0047592
0.00472816
0.00469927
0.0046723
0.00464704
0.00462332
0.00460096
0.00457982
0.00455978
0.00454071
0.00452253
0.00450514
0.00448847
0.00447244
0.00445701
0.00444211
0.0044277
0.00441374
0.0044002
0.00438704
0.00437423
0.00436177
0.00434962
0.00433777
0.00432621
0.00431493
0.00430388
0.00429313
0.00428248
0.00427228
0.00426179
0.0042526
0.00424187
0.00423703
0.00422612
0.00424463
0.00423349
0.00402316
0.000154475
0.00396004
6.24691e-05
0.00389007
6.9343e-05
0.00381782
7.16757e-05
0.0037516
6.56898e-05
0.00369243
5.87216e-05
0.00364
5.20436e-05
0.00359297
4.67328e-05
0.00354958
4.31723e-05
0.00350886
4.06049e-05
0.0034706
3.82432e-05
0.00343476
3.59241e-05
0.00340118
3.37645e-05
0.00336964
3.18363e-05
0.00333993
3.01071e-05
0.00331192
2.85165e-05
0.0032855
2.70315e-05
0.00326057
2.56429e-05
0.00323702
2.43473e-05
0.00321478
2.31383e-05
0.00319375
2.20132e-05
0.00317385
2.09661e-05
0.003155
1.99885e-05
0.00313712
1.90741e-05
0.00312015
1.82194e-05
0.00310402
1.74208e-05
0.00308867
1.66747e-05
0.00307404
1.5977e-05
0.00306008
1.53244e-05
0.00304672
1.47137e-05
0.00303393
1.41416e-05
0.00302165
1.36049e-05
0.00300984
1.31004e-05
0.00299846
1.26254e-05
0.00298747
1.21802e-05
0.00297684
1.1762e-05
0.00296652
1.13672e-05
0.0029565
1.09947e-05
0.00294674
1.0643e-05
0.00293721
1.03103e-05
0.00292789
9.99801e-06
0.00291877
9.70373e-06
0.00290981
9.42477e-06
0.002901
9.16063e-06
0.00289232
8.9102e-06
0.00288377
8.67253e-06
0.00287533
8.44645e-06
0.002867
8.2308e-06
0.00285876
8.02545e-06
0.00285061
7.82863e-06
0.00284255
7.64163e-06
0.00283457
7.4628e-06
0.00282668
7.28875e-06
0.00281887
7.1194e-06
0.00281115
6.95524e-06
0.00280353
6.79575e-06
0.002796
6.64027e-06
0.00278858
6.48823e-06
0.00278127
6.33907e-06
0.00277407
6.19241e-06
0.00276699
6.0478e-06
0.00276004
5.90497e-06
0.00275323
5.76387e-06
0.00274656
5.62409e-06
0.00274005
5.48624e-06
0.00273369
5.34997e-06
0.00272749
5.21425e-06
0.00272146
5.07922e-06
0.0027156
4.94546e-06
0.00270992
4.81313e-06
0.00270442
4.68234e-06
0.0026991
4.55312e-06
0.00269396
4.42543e-06
0.00268901
4.29964e-06
0.00268424
4.17617e-06
0.00267964
4.05525e-06
0.00267523
3.93692e-06
0.00267099
3.82119e-06
0.00266692
3.70838e-06
0.00266301
3.59882e-06
0.00265926
3.49262e-06
0.00265566
3.38989e-06
0.00265221
3.29078e-06
0.00264888
3.1955e-06
0.00264569
3.10418e-06
0.00264261
3.01683e-06
0.00263965
2.93348e-06
0.00263678
2.85423e-06
0.002634
2.77909e-06
0.00263131
2.70798e-06
0.00262869
2.64085e-06
0.00262613
2.5776e-06
0.00262363
2.51813e-06
0.00262118
2.46228e-06
0.00261878
2.40989e-06
0.00261641
2.36077e-06
0.00261407
2.31471e-06
0.00261175
2.27147e-06
0.00260946
2.2308e-06
0.00260718
2.19244e-06
0.00260492
2.15613e-06
0.00260267
2.1216e-06
0.00260044
2.08855e-06
0.00259821
2.05673e-06
0.002596
2.02586e-06
0.00259381
1.99567e-06
0.00259163
1.96591e-06
0.00258948
1.93634e-06
0.00258734
1.90672e-06
0.00258524
1.87685e-06
0.00258316
1.84655e-06
0.00258112
1.81564e-06
0.00257912
1.784e-06
0.00257717
1.75152e-06
0.00257527
1.7181e-06
0.00257343
1.68369e-06
0.00257165
1.64828e-06
0.00256993
1.61184e-06
0.00256829
1.57442e-06
0.00256672
1.53606e-06
0.00256524
1.49683e-06
0.00256383
1.45683e-06
0.00256252
1.41617e-06
0.00256129
1.37501e-06
0.00256015
1.3335e-06
0.00255911
1.29181e-06
0.00255816
1.25013e-06
0.0025573
1.20865e-06
0.00255653
1.16757e-06
0.00255586
1.12708e-06
0.00255527
1.08739e-06
0.00255476
1.04869e-06
0.00255433
1.0112e-06
0.00255398
9.75058e-07
0.0025537
9.40503e-07
0.00255349
9.07678e-07
0.00255334
8.76717e-07
0.00255324
8.47787e-07
0.00255319
8.20981e-07
0.00255318
7.96405e-07
0.0025532
7.74121e-07
0.00255325
7.54169e-07
0.00255332
7.36617e-07
0.00255339
7.21463e-07
0.00255348
7.08687e-07
0.00255356
6.98261e-07
0.00255363
6.90142e-07
0.00255369
6.84247e-07
0.00255372
6.8048e-07
0.00255373
6.78749e-07
0.00255371
6.78926e-07
0.00255364
6.80872e-07
0.00255354
6.84446e-07
0.00255339
6.89492e-07
0.00255319
6.95846e-07
0.00255294
7.0334e-07
0.00255264
7.118e-07
0.00255228
7.21079e-07
0.00255187
7.30938e-07
0.0025514
7.41296e-07
0.00255088
7.5192e-07
0.00255029
7.6268e-07
0.00254966
7.7354e-07
0.00254897
7.8411e-07
0.00254822
7.94461e-07
0.00254743
8.04515e-07
0.00254659
8.14047e-07
0.00254571
8.22948e-07
0.00254478
8.31283e-07
0.00254381
8.38978e-07
0.00254281
8.45878e-07
0.00254178
8.51997e-07
0.00254071
8.57324e-07
0.00253962
8.61878e-07
0.0025385
8.65676e-07
0.00253737
8.6856e-07
0.00253621
8.70733e-07
0.00253504
8.72262e-07
0.00253386
8.72884e-07
0.00253267
8.72921e-07
0.00253147
8.72371e-07
0.00253026
8.71184e-07
0.00252905
8.69388e-07
0.00252785
8.67162e-07
0.00252664
8.64473e-07
0.00252543
8.61179e-07
0.00252423
8.5766e-07
0.00252303
8.53661e-07
0.00252184
8.49379e-07
0.00252065
8.44749e-07
0.00251948
8.39766e-07
0.00251831
8.345e-07
0.00251715
8.28938e-07
0.00251601
8.23097e-07
0.00251488
8.17036e-07
0.00251377
8.10617e-07
0.00251267
8.03848e-07
0.00251159
7.96891e-07
0.00251052
7.89572e-07
0.00250948
7.81938e-07
0.00250845
7.74046e-07
0.00250745
7.65836e-07
0.00250647
7.57245e-07
0.00250552
7.48389e-07
0.00250459
7.3926e-07
0.00250368
7.29823e-07
0.00250281
7.20103e-07
0.00250196
7.10134e-07
0.00250115
7.00055e-07
0.00250037
6.89759e-07
0.00249962
6.79358e-07
0.0024989
6.68985e-07
0.00249821
6.58606e-07
0.00249756
6.48274e-07
0.00249694
6.38199e-07
0.00249635
6.28409e-07
0.00249579
6.18872e-07
0.00249527
6.0995e-07
0.00249477
6.01518e-07
0.0024943
5.93733e-07
0.00249386
5.86802e-07
0.00249344
5.8058e-07
0.00249304
5.75598e-07
0.00249266
5.71552e-07
0.0024923
5.68587e-07
0.00249195
5.67073e-07
0.0024916
5.66896e-07
0.00249126
5.68139e-07
0.00249092
5.70854e-07
0.00249057
5.75183e-07
0.00249022
5.81095e-07
0.00248986
5.8864e-07
0.00248947
5.97943e-07
0.00248907
6.08892e-07
0.00248863
6.2145e-07
0.00248817
6.35729e-07
0.00248768
6.51616e-07
0.00248714
6.69068e-07
0.00248656
6.8793e-07
0.00248594
7.08199e-07
0.00248527
7.29909e-07
0.00248455
7.52676e-07
0.00248377
7.76348e-07
0.00248294
8.01116e-07
0.00248205
8.26497e-07
0.00248111
8.52416e-07
0.00248011
8.78701e-07
0.00247905
9.05237e-07
0.00247794
9.31658e-07
0.00247678
9.57709e-07
0.00247557
9.8346e-07
0.00247431
1.00851e-06
0.002473
1.0326e-06
0.00247166
1.05551e-06
0.00247029
1.07717e-06
0.00246888
1.09737e-06
0.00246746
1.11581e-06
0.00246603
1.13216e-06
0.00246458
1.1467e-06
0.00246314
1.1589e-06
0.00246171
1.16854e-06
0.0024603
1.17597e-06
0.00245892
1.18071e-06
0.00245758
1.18264e-06
0.00245628
1.18209e-06
0.00245504
1.17868e-06
0.00245386
1.17255e-06
0.00245277
1.16378e-06
0.00245175
1.15233e-06
0.00245083
1.13834e-06
0.00245001
1.12196e-06
0.00244931
1.10326e-06
0.00244872
1.08251e-06
0.00244826
1.05987e-06
0.00244793
1.03556e-06
0.00244773
1.00983e-06
0.00244768
9.82965e-07
0.00244777
9.55283e-07
0.00244801
9.27081e-07
0.0024484
8.98667e-07
0.00244895
8.70376e-07
0.00244964
8.42566e-07
0.00245048
8.15596e-07
0.00245147
7.89813e-07
0.00245261
7.65559e-07
0.00245388
7.4318e-07
0.00245529
7.23016e-07
0.00245682
7.05403e-07
0.00245848
6.9066e-07
0.00246025
6.79096e-07
0.00246212
6.71001e-07
0.00246408
6.6665e-07
0.00246612
6.66301e-07
0.00246824
6.70189e-07
0.00247041
6.78531e-07
0.00247262
6.91517e-07
0.00247487
7.09316e-07
0.00247714
7.32064e-07
0.0024794
7.59877e-07
0.00248166
7.92831e-07
0.00248389
8.30979e-07
0.00248609
8.74332e-07
0.00248823
9.22875e-07
0.0024903
9.76542e-07
0.00249228
1.03525e-06
0.00249418
1.09885e-06
0.00249596
1.16718e-06
0.00249762
1.24004e-06
0.00249915
1.31718e-06
0.00250053
1.39831e-06
0.00250176
1.48314e-06
0.00250283
1.57133e-06
0.00250372
1.66252e-06
0.00250444
1.75632e-06
0.00250498
1.85234e-06
0.00250532
1.95016e-06
0.00250548
2.04937e-06
0.00250544
2.14951e-06
0.00250521
2.25017e-06
0.00250479
2.3509e-06
0.00250417
2.45129e-06
0.00250337
2.55088e-06
0.00250238
2.64931e-06
0.00250121
2.74613e-06
0.00249987
2.84101e-06
0.00249837
2.93356e-06
0.0024967
3.02348e-06
0.00249489
3.11046e-06
0.00249294
3.19424e-06
0.00249086
3.27459e-06
0.00248867
3.35128e-06
0.00248636
3.42421e-06
0.00248397
3.49305e-06
0.00248149
3.55792e-06
0.00247894
3.6183e-06
0.00247633
3.67464e-06
0.00247368
3.72598e-06
0.002471
3.77336e-06
0.0024683
3.81497e-06
0.0024656
3.85285e-06
0.0024629
3.88397e-06
0.00246024
3.91217e-06
0.00245761
3.93247e-06
0.00245504
3.9514e-06
0.00245254
3.96075e-06
0.00245012
3.9703e-06
0.0024478
3.9684e-06
0.00244559
3.96937e-06
0.00244349
3.95826e-06
0.00244153
3.95028e-06
0.00243971
3.93368e-06
0.00243804
3.91047e-06
0.00243653
3.89554e-06
0.00243521
3.84045e-06
0.00243404
3.83926e-06
0.00243316
3.70157e-06
0.00243242
3.7135e-06
0.00243223
3.32704e-06
0.00243224
3.26775e-06
1.94195e-06
0.0107778
0.000375745
0.0105003
0.000339139
0.0102898
0.000279068
0.0101079
0.000252882
0.00994436
0.000228583
0.00980023
0.000202289
0.00967408
0.000177714
0.00956183
0.0001586
0.00945948
0.000145229
0.00936445
0.00013545
0.00927544
0.000127173
0.00919175
0.00011965
0.00911282
0.000112851
0.00903816
0.000106766
0.00896741
0.000101251
0.00890028
9.615e-05
0.00883655
9.13781e-05
0.00877601
8.6908e-05
0.00871847
8.2726e-05
0.00866374
7.88104e-05
0.00861163
7.51536e-05
0.00856197
7.17394e-05
0.00851461
6.85447e-05
0.0084694
6.55516e-05
0.00842619
6.27477e-05
0.00838486
6.01208e-05
0.00834528
5.76583e-05
0.00830734
5.53479e-05