/*--------------------------------*- C++ -*----------------------------------*\
  =========                 |
  \\      /  F ield         | OpenFOAM: The Open Source CFD Toolbox
   \\    /   O peration     | Website:  https://openfoam.org
    \\  /    A nd           | Version:  7
     \\/     M anipulation  |
\*---------------------------------------------------------------------------*/
FoamFile
{
    version     2.0;
    format      ascii;
    class       volScalarField;
    location    "0.9875";
    object      pPrime2Mean;
}
// * * * * * * * * * * * * * * * * * * * * * * * * * * * * * * * * * * * * * //

dimensions      [2 -2 -4 0 0 0 0];

internalField   nonuniform List<scalar> 
1440
(
87110.9
86515.2
86078.6
85759.1
85470.8
85173.6
84861.6
84543.4
84227.2
83913.7
83597.7
83274.3
82942.1
82601.5
82252.6
81895.1
81529
81154.8
80773.5
80385.6
79991.5
79591.5
79185.6
78773.9
78356.1
77932.2
77502.2
77066.2
76624.2
76176.5
75723.1
75264.3
74800.3
74331.3
73857.5
73378.9
72895.8
72408.1
71916.1
71419.8
70919.3
70414.7
69906
69393.4
68876.9
68356.5
67832.5
67304.7
66773.4
66238.6
65700.3
65158.6
64613.5
64065.2
63513.7
62959.1
62401.4
61840.7
61277
60710.5
60141.2
59569.1
58994.4
58417
57837.1
57254.7
56669.8
56082.6
55493
54901.2
54307.2
53711.1
53112.9
52512.6
51910.5
51306.4
50700.4
50092.7
49483.3
48872.2
48259.5
47645.3
47029.5
46412.4
45793.9
45174.1
44553
43930.8
43307.5
42683.2
42057.9
41431.7
40804.6
40176.7
39548
38918.6
38288.4
37657.5
37025.8
36393.3
35759.8
35125.5
34490.2
33853.9
33216.8
32578.8
31940.1
31301.1
30662
30023.4
29385.8
28749.9
28116.6
27486.6
26860.8
26240.3
25626
25018.9
24419.7
23830.9
87122
86528.4
86093.7
85774.9
85487.5
85191.1
84878.3
84557
84236.6
83919.7
83601.5
83276.7
82943.4
82601.8
82252.3
81894.4
81528.1
81153.8
80772.4
80384.4
79990.4
79590.5
79184.7
78772.9
78355
77931
77500.9
77064.7
76622.5
76174.7
75721.2
75262.4
74798.4
74329.4
73855.6
73377.1
72894
72406.4
71914.5
71418.2
70917.7
70413.1
69904.5
69391.9
68875.4
68355.1
67831.1
67303.4
66772.1
66237.2
65699
65157.3
64612.3
64064
63512.5
62957.9
62400.2
61839.5
61275.8
60709.3
60140
59567.9
58993.2
58415.8
57835.9
57253.5
56668.6
56081.4
55491.9
54900.1
54306.1
53709.9
53111.7
52511.5
51909.3
51305.2
50699.3
50091.6
49482.2
48871.1
48258.4
47644.2
47028.4
46411.3
45792.8
45173
44551.9
43929.7
43306.4
42682.1
42056.8
41430.5
40803.5
40175.6
39546.9
38917.5
38287.3
37656.4
37024.7
36392.2
35758.7
35124.4
34489.1
33852.8
33215.7
32577.7
31939
31300
30660.9
30022.3
29384.7
28748.8
28115.5
27485.5
26859.8
26239.3
25624.9
25017.8
24418.5
23829.4
87129.5
86536.5
86102.5
85784.3
85497.7
85202.1
84888.9
84565.1
84240.9
83920.2
83598.7
83270.7
82934.4
82590.5
82239.6
81881.6
81516
81142.9
80762.7
80375.9
79982.7
79583.3
79177.7
78766
78348.2
77924.3
77494.4
77058.6
76617
76169.7
75716.8
75258.6
74795.1
74326.6
73853.2
73375
72892.2
72404.8
71913
71416.9
70916.6
70412.1
69903.5
69391
68874.6
68354.3
67830.4
67302.7
66771.4
66236.6
65698.4
65156.7
64611.7
64063.4
63511.9
62957.3
62399.6
61838.9
61275.3
60708.7
60139.4
59567.3
58992.6
58415.2
57835.3
57252.9
56668
56080.8
55491.2
54899.4
54305.4
53709.3
53111
52510.8
51908.6
51304.5
50698.6
50090.9
49481.5
48870.4
48257.7
47643.4
47027.7
46410.5
45792
45172.2
44551.2
43929
43305.7
42681.3
42056
41429.8
40802.7
40174.8
39546.1
38916.7
38286.6
37655.6
37023.9
36391.4
35758
35123.6
34488.3
33852.1
33214.9
32576.9
31938.2
31299.2
30660.1
30021.5
29383.9
28748.1
28114.7
27484.7
26859
26238.5
25624.2
25017
24417.6
23828.6
87135.4
86542.6
86109.3
85791.7
85505.4
85209.9
84895.9
84570.4
84243.7
83920.4
83596.7
83267
82929.4
82584.6
82233.4
81875.6
81510.5
81138
80758.3
80371.8
79979
79579.8
79174.4
78762.8
78345.1
77921.3
77491.6
77056
76614.5
76167.3
75714.6
75256.5
74793.1
74324.8
73851.4
73373.3
72890.6
72403.3
71911.6
71415.5
70915.2
70410.8
69902.3
69389.8
68873.4
68353.2
67829.2
67301.5
66770.3
66235.5
65697.2
65155.5
64610.5
64062.2
63510.8
62956.2
62398.5
61837.8
61274.2
60707.6
60138.3
59566.3
58991.5
58414.2
57834.2
57251.8
56667
56079.7
55490.2
54898.4
54304.4
53708.2
53110
52509.8
51907.6
51303.5
50697.6
50089.9
49480.5
48869.4
48256.7
47642.5
47026.7
46409.6
45791.1
45171.3
44550.3
43928
43304.7
42680.4
42055.1
41428.9
40801.8
40173.9
39545.3
38915.9
38285.7
37654.8
37023.1
36390.5
35757.1
35122.8
34487.5
33851.2
33214
32576.1
31937.4
31298.4
30659.3
30020.7
29383.1
28747.3
28113.9
27483.9
26858.2
26237.7
25623.3
25016.1
24416.7
23827.5
87139.5
86546.9
86113.8
85796.5
85510.3
85214.5
84900
84573.5
84245.4
83920.7
83595.7
83265
82926.5
82581.1
82229.5
81871.5
81506.4
81134.1
80754.6
80368.4
79975.7
79576.7
79171.4
78759.8
78342.1
77918.3
77488.5
77052.8
76611.4
76164.3
75711.7
75253.8
74790.6
74322.4
73849.3
73371.4
72888.8
72401.6
71910
71414.1
70913.9
70409.5
69901
69388.6
68872.2
68352.1
67828.1
67300.5
66769.3
66234.5
65696.3
65154.6
64609.6
64061.4
63509.9
62955.3
62397.7
61837
61273.4
60706.9
60137.6
59565.5
58990.8
58413.4
57833.5
57251.1
56666.2
56079
55489.5
54897.7
54303.7
53707.5
53109.3
52509.1
51906.9
51302.8
50696.9
50089.2
49479.8
48868.7
48256
47641.8
47026
46408.9
45790.4
45170.6
44549.5
43927.3
43304
42679.7
42054.4
41428.2
40801.1
40173.2
39544.6
38915.2
38285
37654.1
37022.4
36389.8
35756.4
35122.1
34486.8
33850.5
33213.4
32575.4
31936.7
31297.7
30658.6
30020
29382.5
28746.6
28113.2
27483.2
26857.5
26237
25622.7
25015.4
24416
23826.7
87141.5
86549
86116
85798.8
85512.5
85216.5
84901.8
84574.9
84246.3
83920.8
83595.2
83264
82925.1
82579.3
82227.4
81869.3
81504.3
81132.1
80752.7
80366.6
79974
79575
79169.6
78758.1
78340.4
77916.7
77487
77051.5
76610.2
76163.2
75710.7
75252.9
74789.8
74321.7
73848.6
73370.7
72888.1
72401
71909.4
71413.5
70913.3
70408.9
69900.4
69388
68871.7
68351.5
67827.5
67299.9
66768.7
66233.9
65695.7
65154
64609
64060.8
63509.3
62954.7
62397.1
61836.4
61272.8
60706.3
60137
59564.9
58990.2
58412.8
57832.9
57250.5
56665.6
56078.4
55488.8
54897
54303
53706.9
53108.7
52508.5
51906.3
51302.2
50696.3
50088.6
49479.1
48868.1
48255.4
47641.1
47025.4
46408.3
45789.8
45170
44548.9
43926.7
43303.4
42679.1
42053.8
41427.6
40800.5
40172.6
39544
38914.6
38284.4
37653.5
37021.8
36389.2
35755.8
35121.5
34486.2
33850
33212.8
32574.8
31936.2
31297.1
30658.1
30019.5
29381.9
28746
28112.7
27482.7
26857
26236.4
25622.1
25014.8
24415.4
23826.1
87141.4
86548.8
86115.8
85798.6
85512.3
85216.3
84901.6
84574.6
84246
83920.6
83595
83263.7
82924.8
82579
82227.2
81869.1
81504.1
81131.8
80752.5
80366.4
79973.8
79574.8
79169.4
78757.8
78340.1
77916.3
77486.6
77051.1
76609.7
76162.7
75710.2
75252.4
74789.3
74321.1
73848
73370.1
72887.6
72400.4
71908.8
71412.9
70912.7
70408.3
69899.9
69387.4
68871.1
68350.9
67827
67299.4
66768.1
66233.4
65695.1
65153.5
64608.5
64060.3
63508.8
62954.2
62396.6
61835.9
61272.3
60705.8
60136.5
59564.4
58989.7
58412.3
57832.4
57250
56665.1
56077.9
55488.3
54896.5
54302.5
53706.4
53108.2
52508
51905.8
51301.7
50695.8
50088.1
49478.7
48867.6
48254.9
47640.6
47024.9
46407.8
45789.3
45169.5
44548.5
43926.3
43303
42678.6
42053.3
41427.1
40800
40172.2
39543.5
38914.1
38283.9
37653
37021.3
36388.8
35755.4
35121
34485.8
33849.5
33212.3
32574.4
31935.7
31296.7
30657.6
30019
29381.4
28745.6
28112.2
27482.2
26856.5
26236
25621.7
25014.4
24415
23825.6
87139
86546.4
86113.3
85796
85509.7
85213.9
84899.3
84572.7
84244.7
83919.9
83594.9
83264.2
82925.8
82580.4
82228.8
81870.8
81505.7
81133.4
80753.9
80367.7
79975
79575.9
79170.6
78758.9
78341.1
77917.3
77487.5
77051.7
76610.3
76163.2
75710.5
75252.6
74789.4
74321.2
73848
73370.1
72887.5
72400.3
71908.7
71412.7
70912.5
70408.1
69899.6
69387.2
68870.8
68350.6
67826.7
67299.1
66767.9
66233.1
65694.8
65153.2
64608.2
64060
63508.5
62953.9
62396.3
61835.6
61272
60705.5
60136.2
59564.1
58989.4
58412
57832.1
57249.7
56664.8
56077.6
55488
54896.2
54302.2
53706.1
53107.9
52507.7
51905.5
51301.4
50695.5
50087.8
49478.4
48867.3
48254.6
47640.3
47024.6
46407.5
45789
45169.2
44548.1
43925.9
43302.6
42678.3
42053
41426.8
40799.7
40171.8
39543.2
38913.8
38283.6
37652.7
37021
36388.5
35755.1
35120.7
34485.4
33849.2
33212
32574
31935.4
31296.4
30657.3
30018.7
29381.1
28745.3
28111.9
27481.9
26856.2
26235.7
25621.4
25014.1
24414.7
23825.5
87134.6
86541.9
86108.5
85790.8
85504.4
85208.8
84894.8
84569.1
84242.4
83919.1
83595.4
83265.7
82928.1
82583.4
82232.3
81874.5
81509.5
81137
80757.2
80370.7
79977.7
79578.3
79172.8
78761
78343.2
77919.4
77489.6
77053.8
76612.3
76165.1
75712.3
75254.2
74790.8
74322.4
73849.1
73371
72888.2
72400.9
71909.2
71413.1
70912.8
70408.4
69899.8
69387.4
68871
68350.7
67826.8
67299.1
66767.9
66233.1
65694.8
65153.1
64608.2
64059.9
63508.4
62953.8
62396.1
61835.5
61271.8
60705.3
60136
59563.9
58989.2
58411.8
57831.9
57249.5
56664.6
56077.4
55487.8
54896
54302
53705.9
53107.7
52507.5
51905.3
51301.2
50695.3
50087.6
49478.1
48867
48254.3
47640.1
47024.4
46407.2
45788.7
45168.9
44547.9
43925.7
43302.4
42678.1
42052.8
41426.6
40799.5
40171.6
39543
38913.6
38283.4
37652.5
37020.8
36388.3
35754.8
35120.5
34485.2
33849
33211.8
32573.8
31935.2
31296.2
30657.1
30018.5
29380.9
28745.1
28111.7
27481.7
26856
26235.5
25621.2
25014
24414.6
23825.5
87128.5
86535.4
86101.4
85783.1
85496.3
85200.6
84887.2
84563.3
84239
83918.2
83596.7
83268.8
82932.6
82588.8
82238.2
81880.3
81514.9
81141.9
80761.7
80374.8
79981.4
79581.8
79176
78764
78346
77922
77492
77056.1
76614.3
76166.9
75714
75255.6
74792.1
74323.5
73850
73371.8
72888.9
72401.5
71909.7
71413.5
70913.2
70408.6
69900.1
69387.5
68871.1
68350.9
67826.9
67299.2
66767.9
66233.2
65694.9
65153.2
64608.2
64060
63508.5
62953.9
62396.2
61835.5
61271.9
60705.4
60136
59564
58989.2
58411.8
57831.9
57249.5
56664.6
56077.4
55487.8
54896
54302
53705.9
53107.7
52507.4
51905.2
51301.1
50695.2
50087.5
49478.1
48867
48254.3
47640.1
47024.3
46407.2
45788.7
45168.9
44547.9
43925.7
43302.4
42678
42052.7
41426.5
40799.4
40171.6
39542.9
38913.5
38283.3
37652.4
37020.7
36388.2
35754.8
35120.4
34485.2
33848.9
33211.7
32573.8
31935.1
31296.1
30657
30018.4
29380.8
28745
28111.6
27481.6
26855.9
26235.4
25621.1
25014
24414.6
23825.6
87120.8
86527.1
86092.2
85773.3
85485.7
85189.2
84876.3
84554.8
84234.1
83917
83598.8
83273.8
82940.4
82598.9
82249.5
81891.8
81525.8
81151.7
80770.3
80382.3
79988.1
79588
79181.8
78769.8
78351.7
77927.5
77497.3
77061
76618.8
76170.9
75717.4
75258.6
74794.5
74325.5
73851.6
73373.1
72890
72402.4
71910.4
71414.1
70913.6
70409
69900.4
69387.8
68871.3
68351
67827
67299.3
66768
66233.2
65694.9
65153.2
64608.2
64059.9
63508.5
62953.8
62396.1
61835.5
61271.8
60705.3
60136
59563.9
58989.1
58411.8
57831.8
57249.4
56664.5
56077.3
55487.8
54896
54302
53705.8
53107.6
52507.4
51905.2
51301.1
50695.2
50087.5
49478.1
48867
48254.3
47640
47024.3
46407.2
45788.7
45168.9
44547.8
43925.6
43302.3
42678
42052.7
41426.5
40799.4
40171.5
39542.9
38913.5
38283.3
37652.4
37020.7
36388.2
35754.8
35120.4
34485.2
33848.9
33211.8
32573.8
31935.1
31296.1
30657
30018.4
29380.8
28745
28111.6
27481.6
26855.9
26235.4
25621.1
25014
24414.7
23825.8
87109.6
86513.7
86076.9
85757
85468.5
85171.1
84858.9
84540.6
84224.4
83911
83595
83271.6
82939.5
82599.1
82250.3
81892.9
81526.8
81152.7
80771.3
80383.2
79988.8
79588.4
79182.2
78770.1
78352
77927.9
77497.7
77061.6
76619.5
76171.6
75718.2
75259.3
74795.2
74326.1
73852.2
73373.6
72890.4
72402.7
71910.6
71414.3
70913.8
70409.2
69900.5
69387.9
68871.3
68351
67826.9
67299.2
66767.9
66233.1
65694.8
65153.1
64608
64059.7
63508.3
62953.6
62395.9
61835.2
61271.6
60705.1
60135.7
59563.7
58988.9
58411.5
57831.6
57249.2
56664.3
56077.1
55487.5
54895.7
54301.7
53705.6
53107.4
52507.1
51904.9
51300.9
50694.9
50087.2
49477.8
48866.7
48254
47639.8
47024.1
46406.9
45788.4
45168.6
44547.6
43925.4
43302.1
42677.8
42052.5
41426.3
40799.2
40171.4
39542.7
38913.3
38283.2
37652.3
37020.6
36388
35754.6
35120.3
34485
33848.8
33211.6
32573.6
31935
31296
30656.9
30018.3
29380.7
28744.9
28111.5
27481.5
26855.8
26235.3
25621.1
25014
24414.8
23826.2
)
;

boundaryField
{
    upperWall
    {
        type            calculated;
        value           nonuniform List<scalar> 
120
(
87109.6
86513.7
86076.9
85757
85468.5
85171.1
84858.9
84540.6
84224.4
83911
83595
83271.6
82939.5
82599.1
82250.3
81892.9
81526.8
81152.7
80771.3
80383.2
79988.8
79588.4
79182.2
78770.1
78352
77927.9
77497.7
77061.6
76619.5
76171.6
75718.2
75259.3
74795.2
74326.1
73852.2
73373.6
72890.4
72402.7
71910.6
71414.3
70913.8
70409.2
69900.5
69387.9
68871.3
68351
67826.9
67299.2
66767.9
66233.1
65694.8
65153.1
64608
64059.7
63508.3
62953.6
62395.9
61835.2
61271.6
60705.1
60135.7
59563.7
58988.9
58411.5
57831.6
57249.2
56664.3
56077.1
55487.5
54895.7
54301.7
53705.6
53107.4
52507.1
51904.9
51300.9
50694.9
50087.2
49477.8
48866.7
48254
47639.8
47024.1
46406.9
45788.4
45168.6
44547.6
43925.4
43302.1
42677.8
42052.5
41426.3
40799.2
40171.4
39542.7
38913.3
38283.2
37652.3
37020.6
36388
35754.6
35120.3
34485
33848.8
33211.6
32573.6
31935
31296
30656.9
30018.3
29380.7
28744.9
28111.5
27481.5
26855.8
26235.3
25621.1
25014
24414.8
23826.2
)
;
    }
    lowerWall
    {
        type            calculated;
        value           nonuniform List<scalar> 
120
(
87110.9
86515.2
86078.6
85759.1
85470.8
85173.6
84861.6
84543.4
84227.2
83913.7
83597.7
83274.3
82942.1
82601.5
82252.6
81895.1
81529
81154.8
80773.5
80385.6
79991.5
79591.5
79185.6
78773.9
78356.1
77932.2
77502.2
77066.2
76624.2
76176.5
75723.1
75264.3
74800.3
74331.3
73857.5
73378.9
72895.8
72408.1
71916.1
71419.8
70919.3
70414.7
69906
69393.4
68876.9
68356.5
67832.5
67304.7
66773.4
66238.6
65700.3
65158.6
64613.5
64065.2
63513.7
62959.1
62401.4
61840.7
61277
60710.5
60141.2
59569.1
58994.4
58417
57837.1
57254.7
56669.8
56082.6
55493
54901.2
54307.2
53711.1
53112.9
52512.6
51910.5
51306.4
50700.4
50092.7
49483.3
48872.2
48259.5
47645.3
47029.5
46412.4
45793.9
45174.1
44553
43930.8
43307.5
42683.2
42057.9
41431.7
40804.6
40176.7
39548
38918.6
38288.4
37657.5
37025.8
36393.3
35759.8
35125.5
34490.2
33853.9
33216.8
32578.8
31940.1
31301.1
30662
30023.4
29385.8
28749.9
28116.6
27486.6
26860.8
26240.3
25626
25018.9
24419.7
23830.9
)
;
    }
    inlet
    {
        type            calculated;
        value           nonuniform List<scalar> 
12
(
87110.9
87122
87129.5
87135.4
87139.5
87141.5
87141.4
87139
87134.6
87128.5
87120.8
87109.6
)
;
    }
    outlet
    {
        type            calculated;
        value           nonuniform List<scalar> 
12
(
23529.7
23528
23527.2
23526.1
23525.3
23524.7
23524.3
23524.1
23524.1
23524.3
23524.5
23525.2
)
;
    }
    frontAndBack
    {
        type            empty;
    }
}


// ************************************************************************* //
