/*--------------------------------*- C++ -*----------------------------------*\
  =========                 |
  \\      /  F ield         | OpenFOAM: The Open Source CFD Toolbox
   \\    /   O peration     | Website:  https://openfoam.org
    \\  /    A nd           | Version:  7
     \\/     M anipulation  |
\*---------------------------------------------------------------------------*/
FoamFile
{
    version     2.0;
    format      ascii;
    class       surfaceScalarField;
    location    "3.65";
    object      phi;
}
// * * * * * * * * * * * * * * * * * * * * * * * * * * * * * * * * * * * * * //

dimensions      [1 0 -1 0 0 0 0];

internalField   nonuniform List<scalar> 
5048
(
0.0134217
0.000408985
0.012416
0.00100594
0.0111321
0.00128422
0.00981879
0.00131364
0.00862491
0.00119419
0.0076136
0.00101162
0.00680193
0.000811989
0.00617655
0.000625703
0.00570798
0.000468889
0.00536332
0.000344993
0.00511199
0.000251672
0.00492837
0.000183962
0.0047924
0.000136324
0.0046893
0.000103453
0.00460871
8.09554e-05
0.00454274
6.63324e-05
0.00448663
5.64689e-05
0.00443722
4.97787e-05
0.00439244
4.51481e-05
0.00435099
4.18234e-05
0.00431195
3.94035e-05
0.00427502
3.72933e-05
0.00423987
3.55142e-05
0.00420628
3.39409e-05
0.00417411
3.25052e-05
0.0041433
3.1144e-05
0.00411375
2.98732e-05
0.00408541
2.86459e-05
0.00405819
2.75056e-05
0.00403205
2.64151e-05
0.0040069
2.53946e-05
0.00398261
2.45186e-05
0.00395929
2.35128e-05
0.00393628
2.31819e-05
0.00391487
2.15411e-05
0.00389147
2.35032e-05
0.0038748
1.67459e-05
0.00384609
2.87296e-05
0.00387228
-2.61834e-05
5.68905e-05
0.00381531
0.0139795
0.000260088
0.0142556
0.000730145
0.0144754
0.00106471
0.014554
0.0012353
0.0144879
0.00126062
0.0143129
0.00118698
0.0140695
0.00105568
0.0137939
0.00090166
0.0135119
0.000751209
0.0132383
0.000618924
0.0129802
0.000510094
0.0127405
0.000424052
0.0125195
0.000357639
0.0123164
0.000306953
0.0121293
0.000268356
0.0119571
0.000238909
0.011798
0.000215931
0.0116507
0.000197517
0.0115139
0.000182313
0.0113866
0.000169426
0.0112682
0.000158225
0.0111576
0.000148194
0.0110544
0.000139138
0.0109577
0.00013092
0.0108672
0.000123373
0.0107822
0.000116447
0.0107024
0.000110024
0.0106272
0.000104159
0.0105563
9.86607e-05
0.0104892
9.3785e-05
0.0104258
8.90261e-05
0.0103653
8.52479e-05
0.0103082
8.08323e-05
0.0102528
7.8739e-05
0.0102011
7.33496e-05
0.0101496
7.50919e-05
0.0101028
6.36064e-05
0.010055
7.65435e-05
0.00998602
4.27942e-05
9.80917e-05
0.00994476
0.01391
0.000180669
0.0141314
0.000509028
0.0144445
0.000751877
0.014793
0.000887156
0.0151258
0.000928082
0.0154113
0.000901799
0.0156352
0.000832139
0.0157984
0.000738821
0.0159095
0.0006404
0.0159793
0.000549464
0.0160175
0.000472258
0.0160322
0.000409713
0.0160297
0.000360406
0.0160148
0.000322209
0.0159907
0.000292818
0.0159599
0.000270149
0.0159239
0.000252325
0.0158838
0.000237958
0.0158405
0.000225922
0.0157948
0.000215518
0.0157471
0.000206261
0.0156979
0.000197814
0.0156474
0.000189963
0.015596
0.000182634
0.0155441
0.000175692
0.0154917
0.000169166
0.0154391
0.000162897
0.0153865
0.000157076
0.0153341
0.000151373
0.0152818
0.000146326
0.01523
0.00014107
0.0151784
0.000137044
0.0151275
0.000131901
0.0150769
0.000129505
0.015027
0.000123436
0.014978
0.000124135
0.0149271
0.000114603
0.0148803
0.000123321
0.0148127
0.000110452
0.000139806
0.0147709
0.0138973
0.000113926
0.0140825
0.000324073
0.0143503
0.00048439
0.0146617
0.000576065
0.0149847
0.000605416
0.0152968
0.000590007
0.0155825
0.000546747
0.0158328
0.000488917
0.0160463
0.000427192
0.016227
0.000369082
0.0163795
0.000320148
0.0165091
0.000280409
0.0166209
0.000248955
0.0167189
0.000224616
0.016806
0.000206055
0.0168846
0.000191948
0.0169562
0.000181089
0.017022
0.000172534
0.0170827
0.000165548
0.0171389
0.000159653
0.0171911
0.000154511
0.0172393
0.000149913
0.017284
0.000145676
0.0173252
0.000141766
0.0173631
0.000138066
0.017398
0.000134643
0.0174299
0.000131322
0.0174589
0.000128334
0.0174853
0.000125322
0.017509
0.000122852
0.0175302
0.000120095
0.0175491
0.000118347
0.0175655
0.000115704
0.0175802
0.000114997
0.0175916
0.000112116
0.017603
0.000112905
0.0176076
0.000109989
0.0176172
0.000113827
0.0176095
0.000118106
0.000129057
0.0176202
0.0138894
5.50969e-05
0.0140561
0.000157617
0.0143034
0.000237398
0.0145955
0.000284304
0.0149016
0.000299559
0.0151997
0.000292281
0.0154754
0.000271345
0.0157214
0.000243258
0.0159361
0.000212811
0.0161213
0.000184238
0.0162818
0.00015995
0.0164223
0.000140272
0.016547
0.000124621
0.0166596
0.000112368
0.016763
0.000103047
0.0168593
9.59837e-05
0.0169502
9.05668e-05
0.0170368
8.63199e-05
0.0171198
8.28895e-05
0.0171998
8.0031e-05
0.0172771
7.75716e-05
0.017352
7.54066e-05
0.0174246
7.34392e-05
0.017495
7.16573e-05
0.0175634
6.99937e-05
0.0176299
6.8503e-05
0.0176945
6.70755e-05
0.0177572
6.58696e-05
0.0178182
6.46631e-05
0.0178775
6.3812e-05
0.017935
6.28469e-05
0.017991
6.24967e-05
0.0180451
6.18033e-05
0.0180982
6.21143e-05
0.0181486
6.17756e-05
0.0181988
6.28538e-05
0.0182451
6.37436e-05
0.0182929
6.60258e-05
0.0183378
7.32282e-05
7.67383e-05
0.01839
0.0138856
-4.49948e-11
0.0140435
2.0135e-10
0.0142812
2.44675e-10
0.0145658
6.43553e-10
0.0148657
6.34635e-10
0.0151583
1.31804e-09
0.01543
1.72105e-09
0.0156736
2.5176e-09
0.0158867
3.40513e-09
0.0160713
4.8555e-09
0.0162315
6.58407e-09
0.0163722
9.24005e-09
0.0164971
1.24442e-08
0.0166098
1.71572e-08
0.0167132
2.3067e-08
0.0168095
3.14763e-08
0.0169004
4.21699e-08
0.0169871
5.70363e-08
0.0170702
7.58734e-08
0.0171505
1.02035e-07
0.0172283
1.34938e-07
0.0173039
1.81011e-07
0.0173775
2.37868e-07
0.0174492
3.18551e-07
0.0175191
4.15336e-07
0.0175874
5.56257e-07
0.017654
7.19175e-07
0.0177192
9.65629e-07
0.017783
1.23635e-06
0.0178454
1.6678e-06
0.0179063
2.10843e-06
0.0179662
2.86654e-06
0.0180246
3.57115e-06
0.018082
4.91107e-06
0.0181379
5.99804e-06
0.0181925
8.33606e-06
0.0182465
9.8293e-06
0.0182989
1.36673e-05
0.018357
1.50468e-05
2.04596e-05
0.0184132
0.0138856
-5.5097e-05
0.0140435
-0.000157617
0.0142812
-0.000237397
0.0145658
-0.000284302
0.0148657
-0.000299558
0.0151583
-0.000292277
0.01543
-0.000271342
0.0156736
-0.000243253
0.0158867
-0.000212804
0.0160713
-0.000184228
0.0162315
-0.000159937
0.0163722
-0.000140254
0.0164971
-0.000124596
0.0166098
-0.000112334
0.0167132
-0.000103001
0.0168095
-9.59215e-05
0.0169004
-9.04834e-05
0.0169871
-8.62071e-05
0.0170703
-8.27394e-05
0.0171505
-7.98292e-05
0.0172284
-7.73044e-05
0.0173039
-7.50484e-05
0.0173775
-7.2968e-05
0.0174492
-7.10267e-05
0.0175191
-6.91705e-05
0.0175874
-6.74015e-05
0.0176541
-6.56496e-05
0.0177193
-6.39569e-05
0.0177831
-6.22115e-05
0.0178455
-6.05072e-05
0.0179065
-5.86666e-05
0.0179664
-5.68143e-05
0.0180249
-5.4728e-05
0.0180823
-5.23724e-05
0.0181384
-4.99075e-05
0.0181931
-4.62561e-05
0.0182472
-4.42504e-05
0.0182995
-3.86412e-05
0.0183577
-4.31405e-05
-3.51399e-05
0.0184132
0.0138894
-0.000113926
0.0140561
-0.000324072
0.0143034
-0.00048439
0.0145955
-0.000576064
0.0149016
-0.000605415
0.0151997
-0.000590004
0.0154754
-0.000546743
0.0157214
-0.000488912
0.0159361
-0.000427185
0.0161213
-0.000369073
0.0162818
-0.000320135
0.0164223
-0.000280392
0.016547
-0.000248931
0.0166596
-0.000224584
0.016763
-0.000206011
0.0168593
-0.000191888
0.0169502
-0.000181008
0.0170368
-0.000172426
0.0171198
-0.000165403
0.0171998
-0.000159459
0.0172771
-0.000154252
0.017352
-0.000149568
0.0174246
-0.000145221
0.0174951
-0.000141159
0.0175635
-0.000137272
0.0176301
-0.000133584
0.0176947
-0.000129948
0.0177575
-0.000126497
0.0178186
-0.000122964
0.017878
-0.000119682
0.0179357
-0.000116086
0.017992
-0.000112903
0.0180464
-0.000108949
0.0180998
-0.000105667
0.0181509
-0.000100855
0.0182016
-9.69016e-05
0.0182489
-9.14089e-05
0.0182971
-8.68227e-05
0.0183429
-8.89653e-05
-8.62439e-05
0.0183939
0.0138973
-0.000180669
0.0140825
-0.000509028
0.0143503
-0.000751876
0.0146617
-0.000887155
0.0149847
-0.00092808
0.0152968
-0.000901797
0.0155825
-0.000832136
0.0158328
-0.000738818
0.0160463
-0.000640393
0.016227
-0.000549456
0.0163795
-0.000472246
0.0165091
-0.000409697
0.0166209
-0.000360384
0.0167189
-0.00032218
0.016806
-0.000292778
0.0168846
-0.000270095
0.0169562
-0.000252252
0.017022
-0.00023786
0.0170828
-0.000225792
0.017139
-0.000215344
0.0171912
-0.000206031
0.0172395
-0.000197507
0.0172842
-0.000189561
0.0173254
-0.000182096
0.0173635
-0.000174996
0.0173985
-0.000168233
0.0174305
-0.0001617
0.0174598
-0.000155466
0.0174865
-0.000149333
0.0175106
-0.000143563
0.0175324
-0.000137627
0.017552
-0.000132324
0.0175694
-0.00012615
0.0175854
-0.000121449
0.0175986
-0.000113941
0.017612
-0.000110262
0.0176197
-9.8996e-05
0.017632
-9.90619e-05
0.0176278
-8.47974e-05
-9.76653e-05
0.0176391
0.01391
-0.000260088
0.0141314
-0.000730145
0.0144445
-0.00106471
0.014793
-0.0012353
0.0151258
-0.00126062
0.0154113
-0.00118697
0.0156352
-0.00105568
0.0157984
-0.000901657
0.0159095
-0.000751204
0.0159793
-0.000618917
0.0160175
-0.000510085
0.0160322
-0.000424039
0.0160298
-0.000357622
0.0160149
-0.000306931
0.0159908
-0.000268326
0.0159599
-0.000238869
0.0159239
-0.000215877
0.0158839
-0.000197445
0.0158407
-0.000182218
0.015795
-0.000169299
0.0157474
-0.00015806
0.0156982
-0.000147971
0.0156479
-0.000138851
0.0155966
-0.000130533
0.0155449
-0.000122881
0.0154927
-0.000115779
0.0154405
-0.000109186
0.0153884
-0.000103011
0.0153366
-9.72492e-05
0.0152851
-9.18179e-05
0.0152344
-8.66734e-05
0.0151842
-8.18837e-05
0.0151352
-7.6972e-05
0.0150869
-7.29773e-05
0.0150402
-6.71372e-05
0.0149951
-6.50675e-05
0.0149497
-5.35508e-05
0.0149087
-5.80282e-05
0.0148485
-2.46166e-05
-5.74927e-05
0.0148083
0.0139795
-0.000408985
0.0142556
-0.00100594
0.0144754
-0.00128421
0.014554
-0.00131364
0.0144879
-0.00119419
0.0143129
-0.00101162
0.0140695
-0.000811988
0.0137939
-0.000625701
0.0135119
-0.000468887
0.0132383
-0.00034499
0.0129802
-0.000251668
0.0127405
-0.000183956
0.0125195
-0.000136316
0.0123164
-0.000103442
0.0121294
-8.09409e-05
0.0119572
-6.63134e-05
0.0117981
-5.64431e-05
0.0116508
-4.97452e-05
0.0115141
-4.5103e-05
0.0113869
-4.17659e-05
0.0112685
-3.93266e-05
0.0111581
-3.71921e-05
0.011055
-3.53809e-05
0.0109586
-3.37664e-05
0.0108683
-3.22779e-05
0.0107837
-3.08437e-05
0.0107043
-2.94882e-05
0.0106297
-2.81312e-05
0.0105596
-2.68597e-05
0.0104936
-2.55343e-05
0.0104315
-2.43249e-05
0.0103729
-2.30101e-05
0.0103179
-2.17776e-05
0.0102656
-2.05902e-05
0.0102175
-1.88383e-05
0.0101715
-1.90149e-05
0.0101306
-1.25598e-05
0.0100926
-2.00818e-05
0.0100321
3.58869e-05
-3.14061e-05
0.010006
0.0134217
0.012416
0.0111321
0.00981879
0.00862491
0.0076136
0.00680193
0.00617655
0.00570799
0.00536334
0.00511201
0.0049284
0.00479243
0.00468934
0.00460876
0.00454281
0.00448673
0.00443736
0.00439262
0.00435123
0.00431227
0.00427544
0.00424042
0.004207
0.00417507
0.00414456
0.00411539
0.00408756
0.00406099
0.00403573
0.00401165
0.00398887
0.00396729
0.00394686
0.00392816
0.00390925
0.00389676
0.00387671
0.00391258
0.00388112
0.00367347
0.000140901
0.00361504
5.71851e-05
0.00352656
8.67853e-05
0.00344636
7.80416e-05
0.00338505
5.87136e-05
0.003336
4.60906e-05
0.00329202
4.07587e-05
0.00325129
3.73678e-05
0.0032142
3.37275e-05
0.00318096
3.00514e-05
0.00315128
2.6801e-05
0.00312491
2.39744e-05
0.00310172
2.14049e-05
0.0030816
1.90592e-05
0.0030644
1.69511e-05
0.00304996
1.50511e-05
0.00303815
1.32909e-05
0.00302878
1.16901e-05
0.0030216
1.02602e-05
0.00301634
8.99492e-06
0.0030127
7.88913e-06
0.00301036
6.93861e-06
0.00300898
6.1358e-06
0.00300823
5.47288e-06
0.00300778
4.94047e-06
0.00300734
4.5266e-06
0.00300663
4.21791e-06
0.00300542
3.99996e-06
0.00300354
3.85757e-06
0.00300085
3.77522e-06
0.00299729
3.73744e-06
0.00299282
3.72924e-06
0.00298749
3.73657e-06
0.00298138
3.74668e-06
0.00297461
3.74851e-06
0.00296734
3.73297e-06
0.00295974
3.69316e-06
0.00295201
3.62449e-06
0.00294435
3.52468e-06
0.00293694
3.39371e-06
0.00292998
3.23359e-06
0.00292359
3.0481e-06
0.00291792
2.84245e-06
0.00291304
2.62291e-06
0.00290902
2.3964e-06
0.00290587
2.17007e-06
0.00290356
1.95096e-06
0.00290206
1.74558e-06
0.00290129
1.55967e-06
0.00290114
1.39795e-06
0.00290149
1.26392e-06
0.00290222
1.15978e-06
0.00290319
1.08637e-06
0.00290427
1.04319e-06
0.00290534
1.02849e-06
0.00290627
1.03939e-06
0.00290699
1.07205e-06
0.0029074
1.12191e-06
0.00290746
1.18391e-06
0.00290713
1.25278e-06
0.0029064
1.32331e-06
0.00290529
1.39056e-06
0.00290384
1.45015e-06
0.00290208
1.4984e-06
0.00290008
1.53246e-06
0.00289792
1.55044e-06
0.00289566
1.55138e-06
0.00289337
1.53527e-06
0.00289113
1.50298e-06
0.00288901
1.45607e-06
0.00288706
1.39683e-06
0.00288531
1.32797e-06
0.0028838
1.25253e-06
0.00288255
1.17364e-06
0.00288156
1.09444e-06
0.00288082
1.01794e-06
0.00288031
9.46631e-07
0.00288
8.82755e-07
0.00287985
8.2794e-07
0.00287983
7.83188e-07
0.00287989
7.49059e-07
0.00287999
7.25504e-07
0.0028801
7.12077e-07
0.00288016
7.07954e-07
0.00288015
7.12056e-07
0.00288005
7.23101e-07
0.00287983
7.3975e-07
0.00287947
7.60593e-07
0.00287896
7.84277e-07
0.0028783
8.09544e-07
0.00287749
8.3517e-07
0.00287654
8.60213e-07
0.00287544
8.83885e-07
0.00287421
9.05564e-07
0.00287287
9.25007e-07
0.00287142
9.42145e-07
0.0028699
9.57057e-07
0.00286829
9.70108e-07
0.00286663
9.81756e-07
0.00286493
9.92413e-07
0.00286319
1.00252e-06
0.00286143
1.01246e-06
0.00285965
1.02247e-06
0.00285787
1.03257e-06
0.00285609
1.04271e-06
0.00285433
1.05259e-06
0.0028526
1.06184e-06
0.00285092
1.06999e-06
0.00284929
1.07647e-06
0.00284774
1.08081e-06
0.00284629
1.08257e-06
0.00284496
1.08142e-06
0.00284376
1.07721e-06
0.00284272
1.07001e-06
0.00284186
1.06004e-06
0.00284119
1.04782e-06
0.00284072
1.03408e-06
0.00284047
1.0197e-06
0.00284043
1.00588e-06
0.00284061
9.9385e-07
0.00284099
9.84997e-07
0.00284158
9.8078e-07
0.00284234
9.82577e-07
0.00284325
9.91703e-07
0.0028443
1.00935e-06
0.00284544
1.0365e-06
0.00284665
1.07395e-06
0.00284789
1.12225e-06
0.00284912
1.18169e-06
0.00285032
1.25234e-06
0.00285144
1.33399e-06
0.00285246
1.4262e-06
0.00285335
1.52828e-06
0.00285409
1.63935e-06
0.00285465
1.7583e-06
0.00285503
1.88394e-06
0.00285522
2.01497e-06
0.0028552
2.1501e-06
0.00285499
2.28809e-06
0.00285458
2.42783e-06
0.00285399
2.56833e-06
0.00285322
2.70877e-06
0.00285231
2.84846e-06
0.00285125
2.98684e-06
0.00285007
3.1234e-06
0.00284879
3.25776e-06
0.00284743
3.3895e-06
0.00284602
3.5183e-06
0.00284459
3.64375e-06
0.00284314
3.76563e-06
0.00284173
3.88352e-06
0.00284036
3.99735e-06
0.00283908
4.10669e-06
0.0028379
4.21174e-06
0.00283686
4.31206e-06
0.00283599
4.40827e-06
0.0028353
4.49985e-06
0.00283483
4.58806e-06
0.0028346
4.67207e-06
0.00283462
4.75407e-06
0.00283491
4.83258e-06
0.00283548
4.91113e-06
0.00283632
4.98718e-06
0.00283745
5.06595e-06
0.00283885
5.14361e-06
0.00284051
5.22679e-06
0.00284241
5.31125e-06
0.00284453
5.40212e-06
0.00284684
5.50006e-06
0.00284931
5.59851e-06
0.00285189
5.72069e-06
0.00285458
5.81749e-06
0.00285726
5.98682e-06
0.00286001
6.0516e-06
0.00286258
6.32018e-06
0.00286528
6.27705e-06
0.00286749
6.7604e-06
0.00287008
6.44468e-06
0.0028717
7.31927e-06
6.68636e-06
0.0095874
0.000497645
0.0093646
0.000278811
0.00918672
0.000262954
0.00902159
0.000240967
0.00888282
0.000194818
0.00876734
0.000158534
0.00866663
0.000138146
0.00857638
0.000124156
0.00849533
0.000111318
0.00842274
9.93494e-05
0.00835784
8.87435e-05
0.00829991
7.94341e-05
0.00824837
7.11112e-05
0.00820275
6.35915e-05
0.00816261
5.68532e-05
0.00812748
5.08241e-05
0.00809702
4.53067e-05
0.0080708
4.03163e-05
0.0080484
3.58611e-05
0.00802935
3.19092e-05
0.0080132
2.84337e-05
0.00799947
2.54096e-05
0.00798769
2.28057e-05
0.00797742
2.05923e-05
0.00796823
1.87384e-05
0.00795972
1.72091e-05
0.00795154
1.59683e-05
0.0079434
1.49791e-05
0.00793503
1.42041e-05
0.00792626
1.36067e-05
0.00791697
1.31509e-05
0.00790708
1.28024e-05
0.00789659
1.25294e-05
0.00788555
1.23027e-05
0.00787404
1.20968e-05
0.00786221
1.189e-05
0.00785019
1.16649e-05
0.00783817
1.14086e-05
0.00782633
1.11127e-05
0.00781484
1.07732e-05
0.00780386
1.03902e-05
0.00779354
9.9673e-06
0.00778401
9.51125e-06
0.00777533
9.0311e-06
0.00776757
8.53753e-06
0.00776074
8.04215e-06
0.00775483
7.55679e-06
0.00774979
7.09281e-06
0.00774554
6.66057e-06
0.00774199
6.26891e-06
0.00773902
5.92481e-06
0.00773651
5.63312e-06
0.00773433
5.39641e-06
0.00773234
5.21495e-06
0.00773042
5.08673e-06
0.00772846
5.00772e-06
0.00772637
4.97205e-06
0.00772406
4.97239e-06
0.00772147
5.00034e-06
0.00771858
5.04693e-06
0.00771537
5.10302e-06
0.00771184
5.1598e-06
0.00770803
5.20921e-06
0.00770398
5.24424e-06
0.00769974
5.25928e-06
0.00769537
5.25025e-06
0.00769096
5.21473e-06
0.00768656
5.15191e-06
0.00768224
5.06255e-06
0.00767806
4.94872e-06
0.00767408
4.81394e-06
0.00767033
4.66243e-06
0.00766685
4.49917e-06
0.00766364
4.32938e-06
0.00766072
4.15854e-06
0.00765806
3.99181e-06
0.00765566
3.83373e-06
0.00765349
3.68849e-06
0.0076515
3.55897e-06
0.00764966
3.44741e-06
0.00764792
3.35493e-06
0.00764625
3.28183e-06
0.00764461
3.22752e-06
0.00764295
3.1908e-06
0.00764124
3.16991e-06
0.00763946
3.16273e-06
0.00763758
3.16694e-06
0.00763558
3.18e-06
0.00763346
3.19951e-06
0.00763121
3.223e-06
0.00762882
3.24814e-06
0.0076263
3.27305e-06
0.00762367
3.29592e-06
0.00762091
3.31543e-06
0.00761806
3.33086e-06
0.00761513
3.34172e-06
0.00761213
3.34794e-06
0.00760907
3.35013e-06
0.00760598
3.34873e-06
0.00760285
3.34464e-06
0.00759972
3.33858e-06
0.00759658
3.33137e-06
0.00759345
3.32348e-06
0.00759034
3.31525e-06
0.00758727
3.30673e-06
0.00758423
3.29765e-06
0.00758125
3.28757e-06
0.00757835
3.27584e-06
0.00757553
3.26166e-06
0.00757281
3.24439e-06
0.00757022
3.22329e-06
0.00756777
3.19795e-06
0.00756548
3.16808e-06
0.00756337
3.13393e-06
0.00756147
3.09573e-06
0.00755977
3.05457e-06
0.0075583
3.01149e-06
0.00755706
2.96814e-06
0.00755607
2.92647e-06
0.0075553
2.88857e-06
0.00755476
2.85686e-06
0.00755444
2.83376e-06
0.00755431
2.82167e-06
0.00755436
2.82287e-06
0.00755456
2.83942e-06
0.00755488
2.87306e-06
0.00755528
2.92518e-06
0.00755574
2.99677e-06
0.00755621
3.08837e-06
0.00755667
3.20009e-06
0.00755708
3.33158e-06
0.00755742
3.48207e-06
0.00755765
3.65034e-06
0.00755776
3.83479e-06
0.00755772
4.03349e-06
0.00755753
4.24427e-06
0.00755717
4.46478e-06
0.00755665
4.69266e-06
0.00755595
4.92561e-06
0.0075551
5.16151e-06
0.0075541
5.39842e-06
0.00755296
5.63472e-06
0.0075517
5.86899e-06
0.00755034
6.10009e-06
0.0075489
6.32696e-06
0.0075474
6.5488e-06
0.00754586
6.76473e-06
0.00754431
6.97413e-06
0.00754278
7.1762e-06
0.00754129
7.37052e-06
0.00753987
7.5563e-06
0.00753856
7.73348e-06
0.00753737
7.90129e-06
0.00753635
8.06027e-06
0.00753552
8.20964e-06
0.00753491
8.35088e-06
0.00753454
8.48293e-06
0.00753445
8.60873e-06
0.00753465
8.72638e-06
0.00753517
8.84094e-06
0.007536
8.94877e-06
0.00753718
9.0582e-06
0.00753869
9.16238e-06
0.00754054
9.27443e-06
0.00754272
9.38254e-06
0.00754522
9.50602e-06
0.00754801
9.62692e-06
0.00755108
9.76946e-06
0.00755439
9.91373e-06
0.00755791
1.00777e-05
0.0075616
1.02615e-05
0.00756544
1.04339e-05
0.00756934
1.06944e-05
0.00757333
1.08247e-05
0.00757724
1.12506e-05
0.00758125
1.12072e-05
0.00758494
1.20015e-05
0.00758889
1.15058e-05
0.00759215
1.29645e-05
1.18084e-05
0.0144085
0.000859557
0.01406
0.00062615
0.01381
0.00051131
0.0136023
0.000446375
0.0134314
0.000362937
0.0132896
0.00029716
0.0131676
0.000256661
0.0130599
0.000228268
0.0129638
0.000203778
0.0128777
0.000181953
0.0128005
0.000162796
0.0127314
0.000145931
0.0126696
0.000130929
0.0126146
0.000117433
0.0125658
0.000105348
0.0125228
9.45722e-05
0.0124849
8.47723e-05
0.0124518
7.59517e-05
0.0124229
6.80988e-05
0.0123978
6.11442e-05
0.0123758
5.50288e-05
0.0123566
4.96963e-05
0.0123395
4.50816e-05
0.0123241
4.11253e-05
0.0123099
3.77684e-05
0.0122966
3.49486e-05
0.0122837
3.26043e-05
0.012271
3.06744e-05
0.0122582
2.90992e-05
0.0122452
2.78212e-05
0.0122317
2.67851e-05
0.0122177
2.59391e-05
0.0122032
2.5235e-05
0.0121882
2.46294e-05
0.0121729
2.40838e-05
0.0121574
2.35653e-05
0.0121417
2.30472e-05
0.0121261
2.25089e-05
0.0121108
2.1936e-05
0.0120959
2.13203e-05
0.0120816
2.06592e-05
0.012068
1.9955e-05
0.0120553
1.92145e-05
0.0120434
1.84477e-05
0.0120326
1.76673e-05
0.0120227
1.68873e-05
0.0120138
1.61223e-05
0.0120058
1.53867e-05
0.0119987
1.46937e-05
0.0119923
1.40548e-05
0.0119865
1.34794e-05
0.0119813
1.29739e-05
0.0119764
1.25423e-05
0.0119717
1.21851e-05
0.0119671
1.19004e-05
0.0119626
1.16834e-05
0.0119579
1.15266e-05
0.0119531
1.1421e-05
0.0119481
1.13558e-05
0.0119428
1.13193e-05
0.0119372
1.12998e-05
0.0119313
1.12855e-05
0.0119252
1.12658e-05
0.0119189
1.12313e-05
0.0119124
1.11743e-05
0.0119059
1.10891e-05
0.0118993
1.09723e-05
0.0118928
1.08223e-05
0.0118865
1.06398e-05
0.0118803
1.04274e-05
0.0118743
1.01892e-05
0.0118686
9.93059e-06
0.0118631
9.65791e-06
0.011858
9.37799e-06
0.0118532
9.09781e-06
0.0118487
8.82414e-06
0.0118445
8.56304e-06
0.0118405
8.31979e-06
0.0118367
8.09846e-06
0.0118331
7.90191e-06
0.0118296
7.73175e-06
0.0118262
7.58837e-06
0.0118228
7.47113e-06
0.0118195
7.37848e-06
0.0118161
7.30818e-06
0.0118127
7.25749e-06
0.0118092
7.22335e-06
0.0118056
7.20249e-06
0.0118019
7.19162e-06
0.011798
7.18747e-06
0.0117941
7.18692e-06
0.0117901
7.18722e-06
0.0117859
7.18595e-06
0.0117817
7.18119e-06
0.0117774
7.17166e-06
0.011773
7.15661e-06
0.0117685
7.13588e-06
0.0117641
7.10981e-06
0.0117596
7.07912e-06
0.011755
7.04474e-06
0.0117505
7.00762e-06
0.011746
6.96868e-06
0.0117416
6.9286e-06
0.0117371
6.88778e-06
0.0117327
6.84626e-06
0.0117284
6.80375e-06
0.0117241
6.75963e-06
0.0117199
6.71307e-06
0.0117158
6.66307e-06
0.0117118
6.60871e-06
0.011708
6.54909e-06
0.0117043
6.48364e-06
0.0117008
6.41204e-06
0.0116975
6.33455e-06
0.0116943
6.25173e-06
0.0116915
6.16484e-06
0.0116888
6.07555e-06
0.0116864
5.98606e-06
0.0116843
5.89899e-06
0.0116824
5.81729e-06
0.0116807
5.74415e-06
0.0116793
5.68288e-06
0.0116781
5.63671e-06
0.011677
5.60871e-06
0.0116762
5.60164e-06
0.0116754
5.61786e-06
0.0116748
5.65923e-06
0.0116743
5.72706e-06
0.0116738
5.82205e-06
0.0116733
5.94429e-06
0.0116727
6.09327e-06
0.0116721
6.26788e-06
0.0116714
6.46643e-06
0.0116707
6.68673e-06
0.0116697
6.92613e-06
0.0116687
7.1817e-06
0.0116675
7.45028e-06
0.0116662
7.72867e-06
0.0116647
8.01373e-06
0.0116631
8.30254e-06
0.0116614
8.59242e-06
0.0116596
8.88107e-06
0.0116577
9.16646e-06
0.0116557
9.44694e-06
0.0116536
9.721e-06
0.0116515
9.98746e-06
0.0116495
1.02451e-05
0.0116474
1.0493e-05
0.0116454
1.073e-05
0.0116435
1.09555e-05
0.0116417
1.11683e-05
0.01164
1.13685e-05
0.0116385
1.15548e-05
0.0116372
1.17281e-05
0.0116361
1.18872e-05
0.0116353
1.20344e-05
0.0116347
1.2168e-05
0.0116345
1.22925e-05
0.0116346
1.24049e-05
0.0116351
1.25131e-05
0.0116359
1.26112e-05
0.0116371
1.27122e-05
0.0116387
1.28047e-05
0.0116407
1.29101e-05
0.011643
1.30076e-05
0.0116457
1.31307e-05
0.0116487
1.32448e-05
0.0116521
1.33981e-05
0.0116558
1.35416e-05
0.0116597
1.37317e-05
0.0116638
1.39226e-05
0.0116681
1.41384e-05
0.0116726
1.44189e-05
0.0116771
1.46046e-05
0.0116817
1.50756e-05
0.0116863
1.50836e-05
0.0116908
1.59743e-05
0.0116954
1.54943e-05
0.0116997
1.71406e-05
1.58207e-05
0.017649
0.000830233
0.0175414
0.000732696
0.0173974
0.000653583
0.0172458
0.000595754
0.0171072
0.000498785
0.0169885
0.000412645
0.0168887
0.000352937
0.0168039
0.000309316
0.0167307
0.00027316
0.0166666
0.000242427
0.0166099
0.000216304
0.0165593
0.000193738
0.0165143
0.000173934
0.0164741
0.000156295
0.0164385
0.000140633
0.016407
0.000126786
0.0163791
0.00011427
0.0163546
0.000103082
0.0163331
9.31759e-05
0.016314
8.44402e-05
0.0162971
7.67836e-05
0.0162819
7.01186e-05
0.016268
6.4349e-05
0.0162551
5.93918e-05
0.0162429
5.51668e-05
0.0162308
5.15929e-05
0.0162188
4.85927e-05
0.0162066
4.6091e-05
0.0161939
4.4016e-05
0.0161806
4.22993e-05
0.0161666
4.08761e-05
0.016152
3.96856e-05
0.0161367
3.86717e-05
0.0161208
3.77836e-05
0.0161045
3.69765e-05
0.0160877
3.62117e-05
0.0160709
3.54573e-05
0.016054
3.46886e-05
0.0160373
3.3888e-05
0.016021
3.30445e-05
0.0160053
3.21539e-05
0.0159902
3.12178e-05
0.015976
3.02426e-05
0.0159627
2.92391e-05
0.0159503
2.82207e-05
0.015939
2.72029e-05
0.0159285
2.62022e-05
0.015919
2.52348e-05
0.0159103
2.43157e-05
0.0159024
2.34583e-05
0.0158951
2.26734e-05
0.0158882
2.19692e-05
0.0158818
2.13502e-05
0.0158756
2.0818e-05
0.0158695
2.03707e-05
0.0158634
2.00032e-05
0.0158572
1.97077e-05
0.0158509
1.94741e-05
0.0158443
1.92903e-05
0.0158375
1.91432e-05
0.0158304
1.90194e-05
0.015823
1.89054e-05
0.0158154
1.87889e-05
0.0158076
1.86588e-05
0.0157997
1.85062e-05
0.0157918
1.83242e-05
0.0157838
1.81084e-05
0.0157759
1.78569e-05
0.0157681
1.75701e-05
0.0157605
1.72508e-05
0.0157531
1.69034e-05
0.0157461
1.6534e-05
0.0157393
1.61499e-05
0.0157328
1.57587e-05
0.0157267
1.53686e-05
0.0157209
1.49874e-05
0.0157153
1.46219e-05
0.01571
1.42785e-05
0.015705
1.39618e-05
0.0157001
1.36752e-05
0.0156953
1.34206e-05
0.0156907
1.31985e-05
0.0156861
1.30082e-05
0.0156815
1.2848e-05
0.0156769
1.27153e-05
0.0156722
1.26069e-05
0.0156675
1.25194e-05
0.0156627
1.24489e-05
0.0156578
1.23915e-05
0.0156528
1.23435e-05
0.0156477
1.23011e-05
0.0156424
1.22611e-05
0.0156371
1.22204e-05
0.0156317
1.21767e-05
0.0156263
1.21284e-05
0.0156207
1.20744e-05
0.0156152
1.20143e-05
0.0156096
1.19483e-05
0.015604
1.18772e-05
0.0155983
1.1802e-05
0.0155927
1.17235e-05
0.0155871
1.16428e-05
0.0155816
1.15607e-05
0.015576
1.14776e-05
0.0155706
1.13935e-05
0.0155651
1.1308e-05
0.0155598
1.12203e-05
0.0155545
1.11296e-05
0.0155494
1.10346e-05
0.0155444
1.09343e-05
0.0155395
1.08275e-05
0.0155347
1.07136e-05
0.0155302
1.05922e-05
0.0155259
1.04636e-05
0.0155217
1.03286e-05
0.0155178
1.01886e-05
0.0155142
1.00456e-05
0.0155107
9.90236e-06
0.0155076
9.76202e-06
0.0155047
9.62813e-06
0.015502
9.50455e-06
0.0154996
9.39523e-06
0.0154974
9.30405e-06
0.0154954
9.23467e-06
0.0154936
9.19037e-06
0.0154919
9.17397e-06
0.0154903
9.18766e-06
0.0154888
9.23298e-06
0.0154873
9.31073e-06
0.0154859
9.42098e-06
0.0154844
9.56302e-06
0.0154829
9.73545e-06
0.0154813
9.93618e-06
0.0154796
1.01625e-05
0.0154778
1.04112e-05
0.0154758
1.06787e-05
0.0154738
1.09612e-05
0.0154716
1.12549e-05
0.0154692
1.15561e-05
0.0154668
1.18611e-05
0.0154642
1.21668e-05
0.0154615
1.24703e-05
0.0154588
1.27691e-05
0.015456
1.30612e-05
0.0154532
1.33445e-05
0.0154503
1.36178e-05
0.0154475
1.38793e-05
0.0154447
1.41281e-05
0.015442
1.43626e-05
0.0154394
1.45822e-05
0.0154369
1.47853e-05
0.0154346
1.49721e-05
0.0154325
1.51408e-05
0.0154306
1.52927e-05
0.0154289
1.54261e-05
0.0154275
1.55442e-05
0.0154265
1.56445e-05
0.0154258
1.57332e-05
0.0154254
1.5806e-05
0.0154255
1.58734e-05
0.0154259
1.59275e-05
0.0154267
1.59853e-05
0.015428
1.60319e-05
0.0154297
1.60951e-05
0.0154317
1.61476e-05
0.0154342
1.62329e-05
0.0154371
1.63055e-05
0.0154403
1.64292e-05
0.0154438
1.65368e-05
0.0154477
1.67089e-05
0.0154518
1.68712e-05
0.0154561
1.70837e-05
0.0154606
1.73424e-05
0.0154652
1.75441e-05
0.0154699
1.79941e-05
0.0154747
1.80495e-05
0.0154795
1.89026e-05
0.0154842
1.85218e-05
0.0154889
2.01e-05
1.89298e-05
0.0187437
0.000476024
0.0190092
0.000466114
0.0192074
0.000453736
0.0193569
0.000444058
0.0194524
0.000400478
0.0195053
0.00035652
0.0195324
0.000322248
0.0195457
0.000292257
0.019552
0.000263073
0.019555
0.000235661
0.0195571
0.000210938
0.019559
0.000188957
0.0195612
0.000169546
0.0195638
0.000152385
0.0195666
0.000137447
0.0195695
0.00012457
0.0195723
0.00011311
0.019575
0.000103076
0.0195774
9.43341e-05
0.0195795
8.67214e-05
0.0195812
8.01148e-05
0.0195823
7.44021e-05
0.0195828
6.94727e-05
0.0195826
6.52426e-05
0.0195814
6.16353e-05
0.0195793
5.85768e-05
0.019576
5.60003e-05
0.0195716
5.38417e-05
0.0195659
5.20403e-05
0.0195589
5.05386e-05
0.0195507
4.92812e-05
0.0195412
4.8216e-05
0.0195307
4.72941e-05
0.0195192
4.64706e-05
0.0195068
4.57053e-05
0.0194938
4.49633e-05
0.0194804
4.42156e-05
0.0194667
4.34397e-05
0.0194531
4.26192e-05
0.0194396
4.17446e-05
0.0194265
4.08125e-05
0.0194139
3.9825e-05
0.019402
3.87895e-05
0.0193909
3.77172e-05
0.0193806
3.66226e-05
0.0193711
3.5522e-05
0.0193625
3.44327e-05
0.0193547
3.3372e-05
0.0193477
3.23562e-05
0.0193413
3.13996e-05
0.0193354
3.05144e-05
0.0193299
2.97095e-05
0.0193248
2.89908e-05
0.0193198
2.83604e-05
0.0193148
2.78174e-05
0.0193098
2.73571e-05
0.0193047
2.69721e-05
0.0192993
2.66525e-05
0.0192936
2.63862e-05
0.0192876
2.61599e-05
0.0192813
2.59598e-05
0.0192748
2.5772e-05
0.0192679
2.55836e-05
0.0192608
2.53831e-05
0.0192535
2.51608e-05
0.0192462
2.49094e-05
0.0192388
2.46239e-05
0.0192314
2.43022e-05
0.0192241
2.39445e-05
0.019217
2.35532e-05
0.0192101
2.3133e-05
0.0192034
2.26902e-05
0.0191971
2.22321e-05
0.019191
2.1767e-05
0.0191852
2.13033e-05
0.0191797
2.08493e-05
0.0191744
2.04125e-05
0.0191694
1.99995e-05
0.0191646
1.96154e-05
0.0191599
1.92639e-05
0.0191554
1.89473e-05
0.019151
1.86661e-05
0.0191465
1.84197e-05
0.0191421
1.82064e-05
0.0191376
1.80235e-05
0.0191331
1.78678e-05
0.0191285
1.77356e-05
0.0191238
1.76227e-05
0.019119
1.75252e-05
0.019114
1.7439e-05
0.019109
1.736e-05
0.0191038
1.72846e-05
0.0190985
1.72095e-05
0.0190931
1.71322e-05
0.0190876
1.70505e-05
0.0190821
1.69633e-05
0.0190765
1.687e-05
0.0190709
1.67706e-05
0.0190652
1.66657e-05
0.0190596
1.65563e-05
0.0190539
1.64431e-05
0.0190482
1.63273e-05
0.0190426
1.62095e-05
0.019037
1.60901e-05
0.0190314
1.59691e-05
0.0190259
1.5846e-05
0.0190204
1.57202e-05
0.019015
1.55905e-05
0.0190098
1.54557e-05
0.0190046
1.53147e-05
0.0189995
1.51664e-05
0.0189947
1.50099e-05
0.0189899
1.48451e-05
0.0189854
1.46721e-05
0.0189811
1.44918e-05
0.018977
1.4306e-05
0.0189732
1.41167e-05
0.0189696
1.39271e-05
0.0189662
1.37405e-05
0.0189631
1.3561e-05
0.0189602
1.33928e-05
0.0189575
1.32403e-05
0.018955
1.31076e-05
0.0189528
1.29988e-05
0.0189506
1.29176e-05
0.0189487
1.28669e-05
0.0189468
1.28493e-05
0.018945
1.28663e-05
0.0189432
1.29188e-05
0.0189414
1.30069e-05
0.0189396
1.31297e-05
0.0189377
1.32857e-05
0.0189358
1.34723e-05
0.0189337
1.36866e-05
0.0189315
1.39249e-05
0.0189292
1.41833e-05
0.0189267
1.44574e-05
0.0189241
1.47431e-05
0.0189214
1.50361e-05
0.0189185
1.53326e-05
0.0189155