/*--------------------------------*- C++ -*----------------------------------*\
  =========                 |
  \\      /  F ield         | OpenFOAM: The Open Source CFD Toolbox
   \\    /   O peration     | Website:  https://openfoam.org
    \\  /    A nd           | Version:  7
     \\/     M anipulation  |
\*---------------------------------------------------------------------------*/
FoamFile
{
    version     2.0;
    format      ascii;
    class       volScalarField;
    location    "0.3";
    object      pPrime2Mean;
}
// * * * * * * * * * * * * * * * * * * * * * * * * * * * * * * * * * * * * * //

dimensions      [2 -2 -4 0 0 0 0];

internalField   nonuniform List<scalar> 
400
(
37540.7
37495.4
37449.1
37415
37380.7
37341.2
37298.3
37254.2
37208.9
37161.7
37112.1
37059.6
37004.2
36946.6
36888.3
36831.5
36778.4
36730.9
36689.5
36662.2
37468.4
37444.6
37417.4
37393.5
37365.9
37332.2
37294.6
37254.9
37213.4
37169.3
37121.8
37070.4
37015
36956.4
36896.1
36836.2
36779.3
36727.4
36675.5
36642.1
37422.4
37417.8
37403.3
37383.6
37359.3
37330.7
37299
37265
37228.4
37188.2
37143.1
37092.7
37036.6
36975.7
36911.7
36846.8
36784.4
36726.2
36668.2
36629
37393.7
37396
37388
37372.1
37351.6
37327.7
37300.9
37271.5
37238.8
37201.8
37159.2
37110
37054
36991.8
36925.2
36856.6
36789.7
36726.7
36664.7
36622.4
37373.5
37377.9
37374.2
37362.5
37345.8
37325.7
37302.8
37276.9
37247.4
37213
37172.3
37124.2
37068.2
37005
36936.4
36864.9
36794.3
36727.5
36662.3
36617.9
37358.6
37364.2
37363.6
37355.2
37341.3
37324.1
37304.2
37281
37253.9
37221.4
37181.9
37134.3
37078.2
37014.1
36943.8
36870.1
36796.7
36727.1
36659.6
36614.1
37347.8
37354.2
37355.4
37349.2
37337.6
37322.6
37304.9
37283.8
37258.4
37227.2
37188.5
37141.2
37084.8
37019.9
36948.3
36872.9
36797.6
36726.1
36657.1
36611.1
37340.1
37347
37349.3
37344.6
37334.6
37321.2
37305
37285.5
37261.3
37230.9
37192.7
37145.5
37088.7
37023.2
36950.7
36874.1
36797.5
36724.7
36654.8
36608.5
37334.9
37342
37345
37341.2
37332.2
37319.9
37304.7
37286.1
37262.6
37232.8
37194.8
37147.6
37090.7
37024.7
36951.6
36874.2
36796.9
36723.3
36652.8
36606.3
37331.8
37339.1
37342.4
37339
37330.5
37318.7
37304
37285.7
37262.6
37233
37195.3
37148.1
37091.1
37024.9
36951.6
36873.9
36796.1
36722.2
36651.3
36604.6
37330.6
37337.9
37341.3
37337.9
37329.4
37317.5
37302.8
37284.6
37261.5
37231.9
37194.1
37147.1
37090.1
37024.1
36950.9
36873.3
36795.5
36721.5
36650.3
36603.3
37331.5
37338.7
37341.7
37337.9
37328.9
37316.5
37301.3
37282.6
37259.1
37229.3
37191.5
37144.6
37087.9
37022.4
36949.6
36872.5
36795.2
36721.4
36650.1
36602.8
37334.5
37341.4
37343.7
37339.1
37329
37315.6
37299.3
37279.7
37255.5
37225.2
37187.3
37140.4
37084.2
37019.4
36947.5
36871.4
36795
36721.9
36650.9
36603.5
37340
37346.4
37347.6
37341.4
37329.8
37314.7
37296.9
37275.8
37250.4
37219.4
37181.1
37134.3
37078.7
37014.8
36944.2
36869.6
36794.8
36723.1
36653
36605.7
37348.6
37354.2
37353.6
37345.2
37331.3
37314
37293.9
37270.8
37243.7
37211.5
37172.5
37125.8
37070.7
37007.9
36939
36866.6
36794.2
36724.9
36656.5
36609.9
37361.2
37365.6
37362
37350.4
37333.5
37313.3
37290.3
37264.5
37235.1
37201.1
37161.1
37114
37059.4
36998
36931.4
36861.8
36792.8
36727.1
36661.5
36616.4
37379.3
37381.6
37373.7
37357.8
37337.1
37313.1
37286.2
37256.8
37224.4
37187.9
37146.2
37098.3
37044.1
36984.3
36920.3
36854.5
36790
36729
36667.5
36625.3
37405.9
37401.5
37387.1
37367.3
37342.7
37313.9
37282.1
37248.1
37211.8
37172.2
37128.4
37079.6
37025.9
36968
36907.4
36846.2
36787.1
36732
36675.5
36637.5
37449.7
37426.5
37399.7
37375.6
37347.5
37313.5
37275.8
37236.2
37195.1
37151.8
37105.8
37056.6
37004.1
36949.1
36892.9
36837.4
36784.7
36736.8
36687.7
36656.9
37519
37475.3
37430.1
37395.9
37361.1
37321.3
37278.3
37234.3
37189.5
37143.4
37095.5
37045.5
36993.3
36939.8
36886
36834.1
36785.6
36742.5
36705
36680.8
)
;

boundaryField
{
    upperWall
    {
        type            calculated;
        value           nonuniform List<scalar> 
20
(
37519
37475.3
37430.1
37395.9
37361.1
37321.3
37278.3
37234.3
37189.5
37143.4
37095.5
37045.5
36993.3
36939.8
36886
36834.1
36785.6
36742.5
36705
36680.8
)
;
    }
    lowerWall
    {
        type            calculated;
        value           nonuniform List<scalar> 
20
(
37540.7
37495.4
37449.1
37415
37380.7
37341.2
37298.3
37254.2
37208.9
37161.7
37112.1
37059.6
37004.2
36946.6
36888.3
36831.5
36778.4
36730.9
36689.5
36662.2
)
;
    }
    inlet
    {
        type            calculated;
        value           nonuniform List<scalar> 
20
(
37540.7
37468.4
37422.4
37393.7
37373.5
37358.6
37347.8
37340.1
37334.9
37331.8
37330.6
37331.5
37334.5
37340
37348.6
37361.2
37379.3
37405.9
37449.7
37519
)
;
    }
    outlet
    {
        type            calculated;
        value           nonuniform List<scalar> 
20
(
36651.6
36631.6
36618.6
36611.9
36607.5
36603.7
36600.6
36598.1
36595.9
36594.2
36592.9
36592.4
36593.1
36595.3
36599.5
36606.1
36614.9
36627.1
36646.6
36670.6
)
;
    }
    frontAndBack
    {
        type            empty;
    }
}


// ************************************************************************* //
