/*--------------------------------*- C++ -*----------------------------------*\
  =========                 |
  \\      /  F ield         | OpenFOAM: The Open Source CFD Toolbox
   \\    /   O peration     | Website:  https://openfoam.org
    \\  /    A nd           | Version:  7
     \\/     M anipulation  |
\*---------------------------------------------------------------------------*/
FoamFile
{
    version     2.0;
    format      ascii;
    class       volVectorField;
    location    "0.82";
    object      U_0;
}
// * * * * * * * * * * * * * * * * * * * * * * * * * * * * * * * * * * * * * //

dimensions      [0 1 -1 0 0 0 0];

internalField   nonuniform List<vector> 
4950
(
(3.5104 0.420512 -27.0308)
(2.7977 0.150411 -27.0717)
(2.04116 0.0444474 -27.0773)
(1.82989 -0.0243377 -27.0883)
(1.54999 -0.0456225 -27.0896)
(1.53129 -0.052566 -27.0957)
(1.37406 -0.0535403 -27.0943)
(1.39709 -0.0523426 -27.0972)
(1.28277 -0.0508847 -27.0944)
(1.3139 -0.0494499 -27.0956)
(1.22333 -0.0475865 -27.0925)
(1.25485 -0.0472757 -27.0929)
(1.18089 -0.0440104 -27.0903)
(1.21053 -0.0468094 -27.0908)
(1.1484 -0.0378272 -27.0894)
(1.17546 -0.0479697 -27.0902)
(1.12055 -0.0161395 -27.0906)
(1.13417 -0.0455109 -27.0905)
(1.10999 0.0955713 -27.0943)
(0.880381 0.12361 -27.0841)
(4.60027 0.549434 -27.0561)
(4.78979 0.379483 -27.0893)
(4.49356 0.290744 -27.0946)
(4.43257 0.190941 -27.1085)
(4.1339 0.134002 -27.1174)
(4.09663 0.102082 -27.1296)
(3.86534 0.0822364 -27.1344)
(3.85904 0.070691 -27.139)
(3.67892 0.0619716 -27.1382)
(3.68973 0.0564077 -27.1376)
(3.54587 0.0510433 -27.1332)
(3.56533 0.0485653 -27.1294)
(3.44702 0.0432323 -27.1237)
(3.4719 0.0446252 -27.1193)
(3.36981 0.0340432 -27.1158)
(3.40498 0.0439915 -27.1126)
(3.30445 0.014931 -27.1145)
(3.38102 0.035129 -27.1095)
(3.24206 -0.0211579 -27.1224)
(3.5803 -0.0771018 -27.0919)
(4.71975 0.289136 -27.0577)
(5.20197 0.212378 -27.0855)
(5.31524 0.191358 -27.0825)
(5.55731 0.131016 -27.0926)
(5.50357 0.0936564 -27.0974)
(5.62426 0.0677943 -27.1115)
(5.53513 0.0492227 -27.1177)
(5.61092 0.0363713 -27.1266)
(5.52082 0.0264266 -27.1266)
(5.57446 0.0184056 -27.1291)
(5.49193 0.0128189 -27.1254)
(5.53128 0.00680985 -27.1236)
(5.45944 0.00460167 -27.1163)
(5.48573 -0.00132093 -27.1092)
(5.42926 0.00119557 -27.0997)
(5.43455 -0.0070599 -27.0907)
(5.4068 0.00674247 -27.0857)
(5.35926 -0.00582534 -27.0778)
(5.3783 0.0389374 -27.0817)
(5.21346 0.0536699 -27.0565)
(4.69783 0.169419 -27.0666)
(5.11923 0.131759 -27.0944)
(5.33288 0.124772 -27.093)
(5.67769 0.0951438 -27.1001)
(5.74857 0.0765351 -27.1053)
(5.97387 0.0642974 -27.1173)
(5.99201 0.055378 -27.1254)
(6.15117 0.0494446 -27.1335)
(6.14806 0.0442786 -27.1355)
(6.26693 0.0403598 -27.137)
(6.25319 0.0365626 -27.1354)
(6.34602 0.0338914 -27.1342)
(6.3249 0.0303683 -27.1297)
(6.40236 0.0293685 -27.1228)
(6.37202 0.0241912 -27.113)
(6.44851 0.026492 -27.1007)
(6.40162 0.0151967 -27.0914)
(6.50904 0.0207212 -27.0796)
(6.43312 0.00362912 -27.0773)
(6.66611 -0.0115053 -27.0481)
(4.6991 -1.68901e-08 -27.0617)
(5.1154 8.7852e-08 -27.0883)
(5.33887 -6.36601e-08 -27.0837)
(5.69883 1.85781e-07 -27.0913)
(5.7849 -1.64492e-08 -27.0939)
(6.02707 6.78599e-07 -27.1067)
(6.06533 5.44165e-07 -27.1127)
(6.24436 1.86855e-06 -27.1221)
(6.26494 2.39165e-06 -27.1225)
(6.40359 4.75555e-06 -27.1251)
(6.41512 7.79438e-06 -27.1225)
(6.52341 1.50506e-05 -27.1226)
(6.53067 1.9306e-05 -27.118)
(6.61171 5.66984e-05 -27.1129)
(6.62149 3.42176e-05 -27.1027)
(6.66841 0.000208821 -27.0909)
(6.69658 4.77504e-05 -27.0797)
(6.68208 0.00062252 -27.0679)
(6.74273 0.000201795 -27.0627)
(6.62672 0.000988424 -27.0347)
(4.69783 -0.169419 -27.0666)
(5.11923 -0.131759 -27.0944)
(5.33288 -0.124772 -27.093)
(5.67769 -0.0951436 -27.1001)
(5.74857 -0.0765349 -27.1053)
(5.97387 -0.0642965 -27.1173)
(5.99201 -0.0553765 -27.1253)
(6.15117 -0.0494421 -27.1335)
(6.14806 -0.0442732 -27.1355)
(6.26694 -0.040354 -27.1371)
(6.25319 -0.0365458 -27.1354)
(6.34604 -0.0338743 -27.1342)
(6.32491 -0.0303247 -27.1296)
(6.40242 -0.0293041 -27.123)
(6.37208 -0.0240962 -27.1128)
(6.44865 -0.0262627 -27.101)
(6.40186 -0.0149834 -27.091)
(6.50937 -0.0200749 -27.0802)
(6.43375 -0.00285409 -27.0765)
(6.66698 0.0130758 -27.049)
(4.71975 -0.289136 -27.0577)
(5.20198 -0.212378 -27.0855)
(5.31524 -0.191358 -27.0825)
(5.55731 -0.131016 -27.0926)
(5.50357 -0.0936564 -27.0973)
(5.62426 -0.0677932 -27.1116)
(5.53513 -0.0492218 -27.1177)
(5.61093 -0.0363684 -27.1267)
(5.52082 -0.0264231 -27.1266)
(5.57448 -0.0183987 -27.1291)
(5.49193 -0.012808 -27.1254)
(5.53133 -0.00678904 -27.1238)
(5.45945 -0.00457681 -27.1162)
(5.48588 0.00139614 -27.1095)
(5.42933 -0.00116178 -27.0992)
(5.43493 0.00733287 -27.0916)
(5.40711 -0.00672203 -27.0842)
(5.36021 0.0066182 -27.0802)
(5.37949 -0.0387292 -27.078)
(5.21623 -0.0519603 -27.0617)
(4.60027 -0.549434 -27.0561)
(4.78979 -0.379483 -27.0893)
(4.49356 -0.290744 -27.0946)
(4.43257 -0.190941 -27.1085)
(4.1339 -0.134002 -27.1174)
(4.09663 -0.102081 -27.1296)
(3.86534 -0.0822354 -27.1344)
(3.85905 -0.0706903 -27.1391)
(3.67893 -0.0619683 -27.1382)
(3.68975 -0.0564061 -27.1376)
(3.54588 -0.0510337 -27.1331)
(3.56539 -0.0485599 -27.1295)
(3.44707 -0.0432078 -27.1235)
(3.47205 -0.0445987 -27.1196)
(3.36999 -0.0339888 -27.1153)
(3.40533 -0.0438826 -27.1136)
(3.30514 -0.0148055 -27.1125)
(3.38179 -0.0348168 -27.1135)
(3.24394 0.0215907 -27.1141)
(3.58251 0.0772959 -27.1078)
(3.5104 -0.420512 -27.0308)
(2.7977 -0.150411 -27.0717)
(2.04116 -0.0444474 -27.0773)
(1.82989 0.0243377 -27.0883)
(1.54999 0.0456224 -27.0896)
(1.5313 0.0525662 -27.0957)
(1.37407 0.0535402 -27.0943)
(1.39709 0.0523432 -27.0972)
(1.28278 0.0508843 -27.0944)
(1.31391 0.049451 -27.0956)
(1.22335 0.0475847 -27.0925)
(1.25488 0.0472775 -27.093)
(1.18092 0.044007 -27.0903)
(1.21062 0.046815 -27.0909)
(1.14851 0.0378144 -27.0893)
(1.17567 0.0479805 -27.0905)
(1.12097 0.0161088 -27.09)
(1.13467 0.0455433 -27.0917)
(1.11126 -0.0955064 -27.0916)
(0.882455 -0.122906 -27.0927)
(4.49658 0.192891 0.00506513)
(3.72661 0.281689 0.00343542)
(3.12 0.243419 0.00423203)
(2.52984 0.166457 0.00318324)
(2.25427 0.116045 0.00394876)
(1.96898 0.0824074 0.0031171)
(1.88736 0.0664409 0.00379644)
(1.73778 0.057565 0.00308627)
(1.71732 0.0536362 0.003665)
(1.62114 0.0515728 0.00304805)
(1.6168 0.0499334 0.00353713)
(1.54719 0.0500711 0.00300166)
(1.54709 0.0472819 0.00341579)
(1.49397 0.0505239 0.00295256)
(1.49524 0.0410988 0.00330481)
(1.45502 0.0541835 0.00290437)
(1.45323 0.0140051 0.00320842)
(1.4573 0.0600221 0.00285683)
(1.39259 -0.131051 0.0031563)
(1.82043 -0.173617 0.00275309)
(4.63331 0.110015 0.00317994)
(4.66289 0.235068 0.00186251)
(4.80204 0.21527 0.00261702)
(4.66402 0.162129 0.00158073)
(4.63609 0.106237 0.00233982)
(4.46093 0.0621426 0.0015053)
(4.41179 0.0328763 0.00218129)
(4.26517 0.0143771 0.00146897)
(4.22535 0.00239246 0.00204605)
(4.10991 -0.00524587 0.00142775)
(4.07936 -0.0104712 0.0019151)
(3.98767 -0.0151261 0.0013793)
(3.96452 -0.0161955 0.00179086)
(3.88846 -0.0222785 0.00133014)
(3.87511 -0.0159907 0.00167555)
(3.80042 -0.0297076 0.00128316)
(3.81286 -0.00583738 0.00156316)
(3.69251 -0.028357 0.00123198)
(3.79085 0.0081667 0.00142541)
(3.35817 0.0657941 0.00105344)
(4.56455 0.0616368 0.00448643)
(4.72013 0.187442 0.00326087)
(5.05464 0.219373 0.00398323)
(5.167 0.197198 0.00293579)
(5.35986 0.166919 0.0036838)
(5.37489 0.135454 0.00284412)
(5.46669 0.113636 0.00352161)
(5.4414 0.09692 0.0028106)
(5.48817 0.0851745 0.00339187)
(5.45396 0.0763932 0.00277532)
(5.47934 0.0689321 0.00326642)
(5.44665 0.0639245 0.00273009)
(5.45822 0.0577028 0.00314566)
(5.43267 0.0556666 0.00268057)
(5.42941 0.0474166 0.00303632)
(5.42355 0.0500538 0.00263189)
(5.39147 0.0285205 0.00294923)
(5.44046 0.0412295 0.00258766)
(5.35714 -0.0364666 0.00293752)
(5.50888 -0.0479387 0.00255547)
(4.52198 0.0291676 0.00301279)
(4.58209 0.0725428 0.00190393)
(4.93873 0.0770321 0.00261546)
(5.10589 0.0694164 0.0015888)
(5.38319 0.0565057 0.00233139)
(5.48623 0.0439019 0.00149033)
(5.66364 0.0345377 0.00216233)
(5.72082 0.0276735 0.00144913)
(5.84117 0.0227147 0.00202699)
(5.87669 0.0189849 0.00141016)
(5.96437 0.0160155 0.00189861)
(5.98756 0.0132522 0.00136378)
(6.05473 0.0116548 0.00177523)
(6.06668 0.00855901 0.00131532)
(6.12334 0.00934209 0.00165916)
(6.11674 0.004286 0.00126785)
(6.17853 0.00943426 0.00153978)
(6.11468 0.0042021 0.00120762)
(6.21036 0.00649699 0.0013629)
(5.92813 0.0306695 0.00104518)
(4.55428 -2.93006e-08 0.00439733)
(4.66601 7.1206e-08 0.00329058)
(4.99492 -2.04013e-08 0.00399099)
(5.15284 1.64895e-07 0.00294911)
(5.42196 1.32394e-07 0.00368824)
(5.52856 4.94568e-07 0.0028439)
(5.71326 7.54186e-07 0.00351875)
(5.78242 1.14991e-06 0.00280645)
(5.91609 2.50912e-06 0.00338798)
(5.96829 2.94584e-06 0.00277184)
(6.07081 7.2931e-06 0.00326373)
(6.11451 9.30748e-06 0.00272781)
(6.19298 1.88979e-05 0.00314418)
(6.23351 2.86049e-05 0.0026793)
(6.28706 5.05451e-05 0.00303668)
(6.33719 7.27457e-05 0.00263202)
(6.3549 0.000157493 0.00295442)
(6.44177 0.000182852 0.00258913)
(6.42154 0.00054198 0.00295615)
(6.53615 0.00077376 0.00257889)
(4.52198 -0.0291677 0.00301279)
(4.58209 -0.0725426 0.00190393)
(4.93873 -0.0770323 0.00261546)
(5.10589 -0.0694159 0.0015888)
(5.38319 -0.0565057 0.00233139)
(5.48623 -0.0439004 0.00149033)
(5.66364 -0.034537 0.00216233)
(5.72082 -0.0276697 0.00144913)
(5.84117 -0.0227116 0.00202699)
(5.87669 -0.0189748 0.00141016)
(5.96437 -0.0160056 0.00189861)
(5.98758 -0.0132207 0.00136378)
(6.05473 -0.011631 0.00177522)
(6.06673 -0.00845527 0.00131532)
(6.12336 -0.00929038 0.00165913)
(6.11687 -0.00396431 0.00126785)
(6.17866 -0.00929701 0.00153972)
(6.11504 -0.00330727 0.00120756)
(6.21091 -0.00607522 0.001363)
(5.92922 -0.0286263 0.00104501)
(4.56455 -0.0616368 0.00448643)
(4.72013 -0.187442 0.00326087)
(5.05464 -0.219372 0.00398323)
(5.167 -0.197198 0.00293579)
(5.35986 -0.166919 0.00368379)
(5.3749 -0.135453 0.00284413)
(5.46669 -0.113635 0.00352161)
(5.44141 -0.0969181 0.0028106)
(5.48816 -0.0851699 0.00339187)
(5.45397 -0.0763881 0.00277532)
(5.47934 -0.0689184 0.00326642)
(5.44669 -0.0639076 0.00273011)
(5.45824 -0.0576672 0.00314563)
(5.43278 -0.0556093 0.00268061)
(5.42951 -0.0473223 0.00303624)
(5.42382 -0.0498848 0.002632)
(5.39184 -0.0282289 0.00294902)
(5.44117 -0.0408207 0.0025879)
(5.35824 0.037436 0.002937)
(5.51087 0.0489432 0.00255554)
(4.63331 -0.110015 0.00317994)
(4.66289 -0.235068 0.00186251)
(4.80204 -0.21527 0.00261702)
(4.66403 -0.162129 0.00158073)
(4.63609 -0.106237 0.00233982)
(4.46093 -0.0621418 0.0015053)
(4.41179 -0.0328758 0.00218129)
(4.26518 -0.0143751 0.00146898)
(4.22535 -0.00239067 0.00204604)
(4.10993 0.00525101 0.00142776)
(4.07936 0.0104766 0.00191509)
(3.98773 0.0151414 0.00137931)
(3.96454 0.0162072 0.00179084)
(3.88864 0.0223272 0.00133016)
(3.87522 0.0160112 0.00167549)
(3.80091 0.029855 0.0012832)
(3.81316 0.00587177 0.001563)
(3.69408 0.0287843 0.00123205)
(3.79156 -0.00796654 0.0014252)
(3.36348 -0.0644472 0.00105351)
(4.49658 -0.192891 0.00506514)
(3.72661 -0.281689 0.00343543)
(3.12 -0.243419 0.00423204)
(2.52984 -0.166457 0.00318325)
(2.25427 -0.116045 0.00394877)
(1.96898 -0.0824075 0.00311711)
(1.88736 -0.0664403 0.00379645)
(1.73778 -0.0575653 0.00308629)
(1.71733 -0.0536346 0.00366501)
(1.62116 -0.0515733 0.00304807)
(1.61682 -0.0499288 0.00353713)
(1.54724 -0.0500712 0.00300168)
(1.54715 -0.0472701 0.00341578)
(1.49408 -0.0505194 0.0029526)
(1.49542 -0.0410686 0.00330474)
(1.45528 -0.0541583 0.00290451)
(1.45381 -0.0139378 0.0032082)
(1.45795 -0.0599917 0.0028572)
(1.39403 0.131054 0.00315523)
(1.82281 0.172782 0.00275551)
(4.45462 0.0664088 -1.48229e-08)
(4.21811 0.122529 -1.4749e-08)
(3.83758 0.13431 -1.49378e-08)
(3.46624 0.119731 -1.51374e-08)
(3.10059 0.0948953 -1.51848e-08)
(2.79717 0.0701908 -1.49868e-08)
(2.54325 0.0468648 -1.47968e-08)
(2.34768 0.0292911 -1.46355e-08)
(2.19997 0.0149546 -1.4593e-08)
(2.0859 0.0059478 -1.43765e-08)
(2.00674 -0.00141508 -1.40988e-08)
(1.93956 -0.00468594 -1.38307e-08)
(1.89716 -0.0087521 -1.38046e-08)
(1.85528 -0.00828937 -1.393e-08)
(1.82967 -0.0123806 -1.41493e-08)
(1.80614 -0.00795626 -1.44094e-08)
(1.77947 -0.0166317 -1.46771e-08)
(1.78851 -0.00776058 -1.50136e-08)
(1.73109 -0.0286603 -1.52731e-08)
(1.82866 -0.0558168 -1.55688e-08)
(4.51315 0.0585315 -1.45467e-08)
(4.64085 0.113184 -1.45197e-08)
(4.73133 0.146515 -1.45046e-08)
(4.80721 0.15804 -1.44347e-08)
(4.82375 0.154589 -1.43685e-08)
(4.81797 0.139628 -1.42831e-08)
(4.78253 0.121096 -1.44976e-08)
(4.73596 0.10067 -1.48378e-08)
(4.68317 0.083702 -1.51391e-08)
(4.62498 0.0682516 -1.50532e-08)
(4.57243 0.057548 -1.47492e-08)
(4.51495 0.0476816 -1.43829e-08)
(4.46906 0.0419507 -1.42197e-08)
(4.4162 0.0354337 -1.43237e-08)
(4.37965 0.0325432 -1.45658e-08)
(4.33129 0.0285354 -1.48444e-08)
(4.30602 0.0250485 -1.49444e-08)
(4.26 0.0277969 -1.50581e-08)
(4.24332 0.0149919 -1.51369e-08)
(4.1981 0.0348966 -1.53091e-08)
(4.50284 0.0221217 -1.45228e-08)
(4.61779 0.0569975 -1.45774e-08)
(4.73455 0.0844701 -1.47424e-08)
(4.89533 0.0991153 -1.46647e-08)
(5.0346 0.102449 -1.43153e-08)
(5.17238 0.098145 -1.38939e-08)
(5.28126 0.0885548 -1.39491e-08)
(5.37267 0.0779775 -1.43185e-08)
(5.443 0.0671374 -1.48235e-08)
(5.49667 0.058223 -1.50738e-08)
(5.53927 0.0501803 -1.50798e-08)
(5.57001 0.0444316 -1.49174e-08)
(5.59501 0.0386247 -1.4857e-08)
(5.6142 0.0355863 -1.50773e-08)
(5.62728 0.0300409 -1.54895e-08)
(5.64316 0.0302139 -1.57865e-08)
(5.6471 0.0209871 -1.56983e-08)
(5.6632 0.0266028 -1.54519e-08)
(5.6645 0.00585618 -1.49774e-08)
(5.67089 0.00817867 -1.49581e-08)
(4.50123 0.0177068 -1.45076e-08)
(4.59182 0.0347186 -1.45583e-08)
(4.69564 0.0466039 -1.46702e-08)
(4.85143 0.0525567 -1.45864e-08)
(4.99992 0.0545849 -1.43638e-08)
(5.15912 0.0528158 -1.41353e-08)
(5.29914 0.0493177 -1.42299e-08)
(5.42874 0.0444799 -1.44752e-08)
(5.54178 0.0400948 -1.47609e-08)
(5.64011 0.0357669 -1.48061e-08)
(5.72973 0.032573 -1.47086e-08)
(5.80524 0.02958 -1.45766e-08)
(5.87882 0.0274937 -1.46436e-08)
(5.93802 0.0255892 -1.49176e-08)
(6.00238 0.0237762 -1.53674e-08)
(6.04716 0.0233468 -1.56705e-08)
(6.11098 0.0198558 -1.57333e-08)
(6.13249 0.0237564 -1.5568e-08)
(6.20996 0.0142157 -1.52347e-08)
(6.17798 0.0284325 -1.50541e-08)
(4.50189 -4.98961e-08 -1.45289e-08)
(4.60425 1.29397e-07 -1.45617e-08)
(4.7092 -9.45621e-08 -1.46301e-08)
(4.86399 2.79134e-07 -1.45288e-08)
(5.00858 9.45693e-09 -1.44252e-08)
(5.1661 6.82394e-07 -1.43933e-08)
(5.30631 6.3812e-07 -1.46021e-08)
(5.43909 1.61725e-06 -1.47489e-08)
(5.55668 2.59189e-06 -1.48203e-08)
(5.66207 4.56032e-06 -1.46897e-08)
(5.75869 7.08782e-06 -1.46307e-08)
(5.84431 1.55996e-05 -1.46772e-08)
(5.92569 1.49103e-05 -1.48931e-08)
(5.99825 5.23074e-05 -1.51198e-08)
(6.06936 3.08492e-05 -1.51955e-08)
(6.13168 0.000148517 -1.51083e-08)
(6.20015 9.58377e-05 -1.4951e-08)
(6.24411 0.000344834 -1.48325e-08)
(6.33258 0.000376131 -1.48712e-08)
(6.32405 0.00069933 -1.50595e-08)
(4.50123 -0.0177069 -1.45263e-08)
(4.59182 -0.0347184 -1.45454e-08)
(4.69564 -0.0466042 -1.45551e-08)
(4.85143 -0.052556 -1.44587e-08)
(4.99992 -0.054585 -1.44877e-08)
(5.15912 -0.0528143 -1.46739e-08)
(5.29914 -0.0493168 -1.49693e-08)
(5.42874 -0.0444761 -1.49971e-08)
(5.54178 -0.0400907 -1.48343e-08)
(5.64011 -0.0357567 -1.45523e-08)
(5.72974 -0.0325615 -1.4563e-08)
(5.80525 -0.0295469 -1.47947e-08)
(5.87884 -0.0274698 -1.51214e-08)
(5.93804 -0.0254805 -1.52133e-08)
(6.00243 -0.0237303 -1.48642e-08)
(6.04721 -0.0230372 -1.43974e-08)
(6.11114 -0.0197114 -1.40975e-08)
(6.13263 -0.023027 -1.41142e-08)
(6.21041 -0.0136026 -1.45654e-08)
(6.17846 -0.0269581 -1.50405e-08)
(4.50284 -0.0221217 -1.45365e-08)
(4.6178 -0.0569973 -1.4524e-08)
(4.73455 -0.0844702 -1.44917e-08)
(4.89533 -0.0991149 -1.44167e-08)
(5.0346 -0.102449 -1.46365e-08)
(5.17238 -0.0981437 -1.50065e-08)
(5.28125 -0.0885537 -1.52722e-08)
(5.37268 -0.0779744 -1.50719e-08)
(5.44299 -0.0671329 -1.46767e-08)
(5.49668 -0.0582148 -1.42819e-08)
(5.53926 -0.0501676 -1.43061e-08)
(5.57005 -0.0444047 -1.45908e-08)
(5.59502 -0.0385981 -1.49331e-08)
(5.6143 -0.0354961 -1.48869e-08)
(5.62736 -0.0299892 -1.44947e-08)
(5.64337 -0.0299571 -1.41025e-08)
(5.64742 -0.0208329 -1.41318e-08)
(5.66371 -0.0260151 -1.43656e-08)
(5.66549 -0.00524231 -1.50209e-08)
(5.67229 -0.00705266 -1.50689e-08)
(4.51315 -0.0585315 -1.44966e-08)
(4.64085 -0.113184 -1.45481e-08)
(4.73133 -0.146515 -1.4674e-08)
(4.80722 -0.158039 -1.46669e-08)
(4.82375 -0.154589 -1.46952e-08)
(4.81797 -0.139627 -1.47215e-08)
(4.78252 -0.121095 -1.46848e-08)
(4.73597 -0.100667 -1.44034e-08)
(4.68316 -0.083699 -1.42196e-08)
(4.62502 -0.0682454 -1.42701e-08)
(4.57242 -0.0575399 -1.46876e-08)
(4.51503 -0.0476614 -1.51487e-08)
(4.46906 -0.0419355 -1.54541e-08)
(4.41641 -0.0353667 -1.54169e-08)
(4.37974 -0.0325192 -1.52008e-08)
(4.3318 -0.0283446 -1.49994e-08)
(4.30637 -0.0249801 -1.49378e-08)
(4.26129 -0.0273557 -1.48321e-08)
(4.24433 -0.0146699 -1.49448e-08)
(4.20155 -0.0340636 -1.43577e-08)
(4.45462 -0.0664088 -1.44799e-08)
(4.21811 -0.122529 -1.45932e-08)
(3.83758 -0.13431 -1.45427e-08)
(3.46624 -0.119731 -1.42343e-08)
(3.1006 -0.094895 -1.41145e-08)
(2.79718 -0.0701908 -1.41994e-08)
(2.54325 -0.0468639 -1.45261e-08)
(2.34769 -0.0292912 -1.47568e-08)
(2.19998 -0.0149523 -1.50256e-08)
(2.08592 -0.0059478 -1.53053e-08)
(2.00676 0.00142071 -1.5696e-08)
(1.93963 0.004688 -1.59548e-08)
(1.89722 0.00876282 -1.60268e-08)
(1.85545 0.0083016 -1.59295e-08)
(1.82989 0.0124 -1.57427e-08)
(1.80652 0.00799522 -1.55677e-08)
(1.78013 0.0166828 -1.52899e-08)
(1.78959 0.00782981 -1.50422e-08)
(1.73225 0.0288455 -1.47642e-08)
(1.83304 0.0556857 -1.4549e-08)
(4.49658 0.192891 -0.00506516)
(3.72661 0.281689 -0.00343546)
(3.12 0.243419 -0.00423206)
(2.52984 0.166457 -0.00318327)
(2.25427 0.116045 -0.0039488)
(1.96898 0.0824074 -0.00311714)
(1.88736 0.0664409 -0.00379648)
(1.73778 0.057565 -0.00308631)
(1.71732 0.0536363 -0.00366504)
(1.62114 0.0515729 -0.00304809)
(1.6168 0.0499335 -0.00353716)
(1.54719 0.0500712 -0.0030017)
(1.54709 0.0472819 -0.00341583)
(1.49397 0.050524 -0.00295259)
(1.49524 0.0410988 -0.00330484)
(1.45502 0.0541835 -0.00290441)
(1.45323 0.0140051 -0.00320846)
(1.4573 0.0600221 -0.00285686)
(1.39259 -0.131051 -0.00315634)
(1.82043 -0.173617 -0.00275313)
(4.63331 0.110015 -0.00317997)
(4.66289 0.235068 -0.00186253)
(4.80204 0.21527 -0.00261704)
(4.66402 0.162129 -0.00158075)
(4.63609 0.106237 -0.00233985)
(4.46093 0.0621426 -0.00150532)
(4.41179 0.0328762 -0.00218131)
(4.26517 0.014377 -0.001469)
(4.22535 0.00239239 -0.00204607)
(4.10991 -0.00524597 -0.00142778)
(4.07936 -0.0104714 -0.00191512)
(3.98767 -0.0151263 -0.00137932)
(3.96452 -0.0161957 -0.00179089)
(3.88846 -0.0222787 -0.00133016)
(3.87511 -0.0159909 -0.00167557)
(3.80042 -0.0297077 -0.00128318)
(3.81286 -0.00583743 -0.00156318)
(3.69251 -0.0283569 -0.001232)
(3.79085 0.00816679 -0.00142543)
(3.35816 0.0657942 -0.00105347)
(4.56455 0.0616368 -0.00448645)
(4.72013 0.187442 -0.00326089)
(5.05464 0.219373 -0.00398325)
(5.167 0.197198 -0.00293582)
(5.35986 0.166919 -0.00368382)
(5.37489 0.135454 -0.00284415)
(5.46669 0.113636 -0.00352163)
(5.4414 0.0969199 -0.00281063)
(5.48817 0.0851745 -0.0033919)
(5.45396 0.0763933 -0.00277534)
(5.47934 0.0689322 -0.00326645)
(5.44665 0.0639246 -0.00273012)
(5.45822 0.0577029 -0.00314568)
(5.43267 0.0556667 -0.0026806)
(5.42941 0.0474167 -0.00303634)
(5.42355 0.0500539 -0.00263191)
(5.39147 0.0285206 -0.00294925)
(5.44046 0.0412296 -0.00258769)
(5.35714 -0.0364666 -0.00293754)
(5.50888 -0.0479388 -0.0025555)
(4.52198 0.0291676 -0.00301281)
(4.58209 0.0725428 -0.00190395)
(4.93873 0.0770322 -0.00261549)
(5.10589 0.0694165 -0.00158883)
(5.38319 0.0565057 -0.00233142)
(5.48623 0.0439019 -0.00149035)
(5.66364 0.0345376 -0.00216235)
(5.72082 0.0276734 -0.00144915)
(5.84117 0.0227146 -0.00202702)
(5.87669 0.0189848 -0.00141019)
(5.96437 0.0160154 -0.00189863)
(5.98756 0.0132521 -0.0013638)
(6.05473 0.0116547 -0.00177526)
(6.06668 0.00855898 -0.00131534)
(6.12334 0.00934215 -0.00165919)
(6.11674 0.00428616 -0.00126788)
(6.17853 0.00943447 -0.0015398)
(6.11468 0.00420233 -0.00120765)
(6.21036 0.00649715 -0.00136292)
(5.92813 0.0306696 -0.0010452)
(4.55428 -2.64934e-08 -0.00439735)
(4.66601 7.35097e-08 -0.00329061)
(4.99492 -5.28125e-09 -0.00399102)
(5.15284 1.8292e-07 -0.00294913)
(5.42196 1.13993e-07 -0.00368826)
(5.52856 4.15542e-07 -0.00284393)
(5.71326 6.43505e-07 -0.00351878)
(5.78242 1.07193e-06 -0.00280647)
(5.91609 2.49599e-06 -0.003388)
(5.96829 2.99499e-06 -0.00277187)
(6.07081 7.36684e-06 -0.00326376)
(6.11451 9.38118e-06 -0.00272783)
(6.19298 1.89712e-05 -0.00314421)
(6.23351 2.86989e-05 -0.00267932)
(6.28706 5.07043e-05 -0.0030367)
(6.33719 7.29511e-05 -0.00263204)
(6.3549 0.000157722 -0.00295444)
(6.44177 0.000183035 -0.00258916)
(6.42154 0.000542089 -0.00295618)
(6.53615 0.000773745 -0.00257891)
(4.52198 -0.0291677 -0.00301281)
(4.58209 -0.0725426 -0.00190395)
(4.93873 -0.0770322 -0.00261549)
(5.10589 -0.0694159 -0.00158883)
(5.38319 -0.0565057 -0.00233141)
(5.48623 -0.0439005 -0.00149035)
(5.66364 -0.0345371 -0.00216235)
(5.72082 -0.0276698 -0.00144915)
(5.84117 -0.0227117 -0.00202702)
(5.87669 -0.0189749 -0.00141019)
(5.96437 -0.0160057 -0.00189863)
(5.98757 -0.0132208 -0.0013638)
(6.05473 -0.011631 -0.00177525)
(6.06673 -0.0084553 -0.00131534)
(6.12336 -0.0092903 -0.00165916)
(6.11687 -0.00396414 -0.00126788)
(6.17866 -0.0092968 -0.00153974)
(6.11504 -0.00330704 -0.00120759)
(6.21091 -0.00607507 -0.00136302)
(5.92922 -0.0286261 -0.00104504)
(4.56455 -0.0616368 -0.00448645)
(4.72013 -0.187442 -0.0032609)
(5.05464 -0.219373 -0.00398325)
(5.167 -0.197198 -0.00293582)
(5.35986 -0.166919 -0.00368382)
(5.3749 -0.135453 -0.00284415)
(5.46669 -0.113635 -0.00352163)
(5.44141 -0.0969181 -0.00281063)
(5.48816 -0.0851698 -0.00339189)
(5.45397 -0.0763881 -0.00277535)
(5.47934 -0.0689183 -0.00326644)
(5.44669 -0.0639075 -0.00273013)
(5.45824 -0.0576671 -0.00314566)
(5.43278 -0.0556092 -0.00268063)
(5.42951 -0.0473222 -0.00303627)
(5.42382 -0.0498846 -0.00263203)
(5.39184 -0.0282289 -0.00294905)
(5.44117 -0.0408206 -0.00258793)
(5.35824 0.037436 -0.00293703)
(5.51088 0.0489431 -0.00255556)
(4.63331 -0.110015 -0.00317997)
(4.66289 -0.235068 -0.00186253)
(4.80204 -0.21527 -0.00261704)
(4.66403 -0.162129 -0.00158075)
(4.63609 -0.106237 -0.00233985)
(4.46093 -0.0621417 -0.00150532)
(4.41179 -0.0328758 -0.00218131)
(4.26518 -0.0143751 -0.001469)
(4.22535 -0.0023907 -0.00204607)
(4.10993 0.00525094 -0.00142778)
(4.07936 0.0104765 -0.00191511)
(3.98773 0.0151412 -0.00137933)
(3.96454 0.016207 -0.00179087)
(3.88863 0.022327 -0.00133019)
(3.87522 0.016011 -0.00167552)
(3.80091 0.0298549 -0.00128323)
(3.81316 0.00587173 -0.00156303)
(3.69408 0.0287843 -0.00123208)
(3.79156 -0.00796647 -0.00142522)
(3.36348 -0.064447 -0.00105354)
(4.49658 -0.192891 -0.00506515)
(3.72661 -0.281689 -0.00343545)
(3.12 -0.243419 -0.00423205)
(2.52984 -0.166457 -0.00318326)
(2.25427 -0.116045 -0.00394879)
(1.96898 -0.0824075 -0.00311713)
(1.88736 -0.0664403 -0.00379647)
(1.73778 -0.0575653 -0.0030863)
(1.71733 -0.0536346 -0.00366503)
(1.62116 -0.0515733 -0.00304808)
(1.61682 -0.0499288 -0.00353715)
(1.54724 -0.0500712 -0.0030017)
(1.54715 -0.04727 -0.0034158)
(1.49408 -0.0505193 -0.00295262)
(1.49542 -0.0410685 -0.00330476)
(1.45528 -0.0541583 -0.00290453)
(1.45381 -0.0139378 -0.00320821)
(1.45795 -0.0599917 -0.00285721)
(1.39403 0.131054 -0.00315525)
(1.82281 0.172782 -0.00275553)
(3.5104 0.420512 27.0308)
(2.7977 0.150411 27.0717)
(2.04116 0.0444474 27.0773)
(1.82989 -0.0243377 27.0883)
(1.54999 -0.0456225 27.0896)
(1.53129 -0.052566 27.0957)
(1.37406 -0.0535404 27.0943)
(1.39709 -0.0523427 27.0972)
(1.28277 -0.0508849 27.0945)
(1.3139 -0.0494501 27.0956)
(1.22333 -0.0475867 27.0925)
(1.25485 -0.047276 27.0929)
(1.18089 -0.0440107 27.0903)
(1.21053 -0.0468096 27.0908)
(1.1484 -0.0378273 27.0894)
(1.17546 -0.0479698 27.0902)
(1.12055 -0.0161396 27.0906)
(1.13417 -0.0455109 27.0905)
(1.10999 0.0955713 27.0943)
(0.880381 0.12361 27.0841)
(4.60027 0.549434 27.0561)
(4.78979 0.379483 27.0893)
(4.49356 0.290744 27.0946)
(4.43257 0.190941 27.1085)
(4.1339 0.134002 27.1174)
(4.09663 0.102082 27.1296)
(3.86534 0.0822364 27.1344)
(3.85904 0.0706909 27.139)
(3.67893 0.0619715 27.1382)
(3.68974 0.0564076 27.1376)
(3.54587 0.0510431 27.1332)
(3.56533 0.0485652 27.1294)
(3.44702 0.0432321 27.1237)
(3.4719 0.0446251 27.1193)
(3.36981 0.0340431 27.1158)
(3.40498 0.0439913 27.1126)
(3.30445 0.0149308 27.1145)
(3.38102 0.0351289 27.1095)
(3.24206 -0.0211581 27.1224)
(3.5803 -0.0771019 27.0919)
(4.71975 0.289136 27.0577)
(5.20197 0.212378 27.0855)
(5.31524 0.191358 27.0825)
(5.55731 0.131016 27.0926)
(5.50357 0.0936565 27.0974)
(5.62426 0.0677943 27.1115)
(5.53513 0.0492225 27.1177)
(5.61092 0.036371 27.1266)
(5.52082 0.0264263 27.1266)
(5.57446 0.0184053 27.1291)
(5.49193 0.0128186 27.1254)
(5.53128 0.00680943 27.1236)
(5.45944 0.00460124 27.1163)
(5.48573 -0.00132135 27.1092)
(5.42926 0.00119517 27.0997)
(5.43455 -0.00706024 27.0907)
(5.4068 0.00674222 27.0857)
(5.35926 -0.00582556 27.0778)
(5.37829 0.0389372 27.0817)
(5.21346 0.0536698 27.0565)
(4.69783 0.169419 27.0666)
(5.11923 0.131759 27.0944)
(5.33288 0.124772 27.093)
(5.67769 0.0951439 27.1001)
(5.74857 0.0765352 27.1053)
(5.97387 0.0642974 27.1173)
(5.99201 0.0553779 27.1254)
(6.15117 0.0494444 27.1335)
(6.14806 0.0442783 27.1355)
(6.26693 0.0403595 27.137)
(6.25319 0.0365623 27.1354)
(6.34602 0.0338912 27.1342)
(6.3249 0.0303681 27.1297)
(6.40236 0.0293683 27.1228)
(6.37202 0.024191 27.113)
(6.44851 0.0264918 27.1007)
(6.40162 0.0151964 27.0914)
(6.50904 0.0207209 27.0796)
(6.43311 0.0036289 27.0773)
(6.66611 -0.0115056 27.0481)
(4.6991 -1.23834e-08 27.0617)
(5.1154 8.34392e-08 27.0883)
(5.33887 -1.68478e-08 27.0837)
(5.69883 2.95297e-07 27.0913)
(5.7849 8.38137e-08 27.0939)
(6.02707 6.76342e-07 27.1067)
(6.06533 3.96717e-07 27.1127)
(6.24436 1.57802e-06 27.1221)
(6.26494 1.99922e-06 27.1225)
(6.40359 4.32074e-06 27.1251)
(6.41512 7.35405e-06 27.1225)
(6.52341 1.4619e-05 27.1226)
(6.53067 1.88654e-05 27.118)
(6.61171 5.62412e-05 27.1129)
(6.62149 3.37118e-05 27.1027)
(6.66841 0.000208356 27.0909)
(6.69658 4.73031e-05 27.0797)
(6.68208 0.000622153 27.0679)
(6.74273 0.000201563 27.0627)
(6.62672 0.000988224 27.0347)
(4.69783 -0.169419 27.0666)
(5.11923 -0.131759 27.0944)
(5.33288 -0.124772 27.093)
(5.67769 -0.0951435 27.1001)
(5.74857 -0.0765349 27.1053)
(5.97387 -0.0642966 27.1173)
(5.99201 -0.0553766 27.1253)
(6.15117 -0.0494424 27.1335)
(6.14806 -0.0442735 27.1355)
(6.26694 -0.0403543 27.1371)
(6.25319 -0.036546 27.1354)
(6.34604 -0.0338744 27.1342)
(6.32491 -0.0303249 27.1296)
(6.40242 -0.0293043 27.123)
(6.37208 -0.0240965 27.1128)
(6.44865 -0.0262629 27.101)
(6.40185 -0.0149836 27.0909)
(6.50937 -0.0200751 27.0802)
(6.43375 -0.00285429 27.0765)
(6.66697 0.0130755 27.049)
(4.71975 -0.289136 27.0577)
(5.20198 -0.212378 27.0855)
(5.31524 -0.191358 27.0825)
(5.55731 -0.131016 27.0926)
(5.50357 -0.0936563 27.0973)
(5.62426 -0.0677932 27.1116)
(5.53513 -0.0492219 27.1177)
(5.61093 -0.0363686 27.1267)
(5.52082 -0.0264234 27.1266)
(5.57447 -0.0183991 27.1291)
(5.49193 -0.0128083 27.1254)
(5.53133 -0.00678943 27.1238)
(5.45945 -0.00457723 27.1162)
(5.48587 0.00139572 27.1095)
(5.42933 -0.00116219 27.0992)
(5.43493 0.00733254 27.0916)
(5.40711 -0.00672237 27.0842)
(5.36021 0.00661802 27.0802)
(5.37948 -0.0387294 27.078)
(5.21623 -0.0519604 27.0617)
(4.60027 -0.549434 27.0561)
(4.78979 -0.379483 27.0893)
(4.49356 -0.290744 27.0946)
(4.43257 -0.190941 27.1085)
(4.1339 -0.134002 27.1174)
(4.09663 -0.102081 27.1296)
(3.86534 -0.0822354 27.1344)
(3.85905 -0.0706903 27.1391)
(3.67893 -0.0619684 27.1382)
(3.68975 -0.0564062 27.1376)
(3.54588 -0.0510339 27.1331)
(3.56538 -0.0485601 27.1295)
(3.44707 -0.0432079 27.1235)
(3.47205 -0.0445988 27.1196)
(3.36999 -0.0339889 27.1153)
(3.40533 -0.0438828 27.1136)
(3.30514 -0.0148055 27.1125)
(3.38179 -0.0348169 27.1135)
(3.24394 0.0215906 27.1141)
(3.58251 0.0772959 27.1078)
(3.5104 -0.420512 27.0308)
(2.7977 -0.150411 27.0717)
(2.04116 -0.0444474 27.0773)
(1.82989 0.0243378 27.0883)
(1.54999 0.0456224 27.0896)
(1.53129 0.0525663 27.0957)
(1.37407 0.0535402 27.0943)
(1.39709 0.0523432 27.0972)
(1.28278 0.0508842 27.0944)
(1.31391 0.0494509 27.0956)
(1.22335 0.0475846 27.0925)
(1.25488 0.0472773 27.093)
(1.18092 0.0440067 27.0903)
(1.21062 0.0468148 27.0909)
(1.14851 0.0378142 27.0893)
(1.17567 0.0479804 27.0905)
(1.12097 0.0161087 27.09)
(1.13467 0.0455433 27.0917)
(1.11126 -0.0955063 27.0916)
(0.882455 -0.122906 27.0927)
(1.01827 -0.158458 -27.1663)
(1.1284 -0.146275 -27.293)
(1.09053 -0.115367 -27.3619)
(1.11016 -0.111906 -27.4156)
(1.08125 -0.111772 -27.4642)
(1.09704 -0.112105 -27.5151)
(1.07515 -0.112868 -27.5597)
(1.08854 -0.113177 -27.5971)
(1.07138 -0.113609 -27.6231)
(1.08294 -0.11367 -27.6412)
(1.0693 -0.113849 -27.6519)
(1.07972 -0.113791 -27.6586)
(1.06893 -0.113859 -27.662)
(1.07876 -0.11377 -27.664)
(1.07043 -0.113797 -27.6648)
(1.08008 -0.11371 -27.6653)
(1.07393 -0.113722 -27.6653)
(1.08372 -0.113645 -27.6653)
(1.07959 -0.113649 -27.6652)
(1.08974 -0.113579 -27.6651)
(1.0875 -0.113577 -27.6649)
(1.09819 -0.113514 -27.6647)
(1.09773 -0.113507 -27.6645)
(1.10901 -0.113446 -27.6643)
(1.11017 -0.113435 -27.664)
(1.12203 -0.113378 -27.6637)
(1.12458 -0.113363 -27.6634)
(1.13691 -0.113308 -27.6631)
(1.14063 -0.113291 -27.6627)
(1.15326 -0.113238 -27.6624)
(1.15785 -0.113221 -27.662)
(1.17059 -0.113171 -27.6616)
(1.17572 -0.113155 -27.6612)
(1.18828 -0.11311 -27.6608)
(1.19359 -0.113095 -27.6603)
(1.20565 -0.113055 -27.6599)
(1.21078 -0.113044 -27.6595)
(1.22208 -0.11301 -27.659)
(1.22675 -0.113002 -27.6586)
(1.23711 -0.112975 -27.6582)
(1.24117 -0.112972 -27.6577)
(1.25054 -0.112951 -27.6573)
(1.25398 -0.112951 -27.6569)
(1.26242 -0.112935 -27.6564)
(1.26532 -0.112939 -27.656)
(1.27293 -0.112928 -27.6556)
(1.27542 -0.112934 -27.6552)
(1.28237 -0.112925 -27.6547)
(1.2846 -0.112932 -27.6543)
(1.29108 -0.112925 -27.6539)
(1.2932 -0.112931 -27.6535)