/*--------------------------------*- C++ -*----------------------------------*\
  =========                 |
  \\      /  F ield         | OpenFOAM: The Open Source CFD Toolbox
   \\    /   O peration     | Website:  https://openfoam.org
    \\  /    A nd           | Version:  7
     \\/     M anipulation  |
\*---------------------------------------------------------------------------*/
FoamFile
{
    version     2.0;
    format      ascii;
    class       volScalarField;
    location    "0.1625";
    object      k_0;
}
// * * * * * * * * * * * * * * * * * * * * * * * * * * * * * * * * * * * * * //

dimensions      [0 2 -2 0 0 0 0];

internalField   nonuniform List<scalar> 
7920
(
52.0164
56.4568
56.4775
56.6106
56.6336
56.766
56.7752
56.8633
56.854
56.9016
56.8802
56.9111
56.8915
56.9162
56.9016
56.9212
56.9189
56.9093
57.0046
57.1016
13.8392
14.0098
13.4189
12.8337
12.5487
12.4776
12.4661
12.4881
12.4855
12.4986
12.4917
12.5
12.4931
12.4999
12.494
12.501
12.4949
12.5021
12.6336
12.7293
8.08769
9.23009
9.33601
9.30984
9.25374
9.25136
9.24974
9.26823
9.27194
9.28482
9.2817
9.28774
9.28276
9.28704
9.28244
9.28637
9.282
9.2873
9.29042
9.32783
7.48615
8.75991
9.01017
9.09428
9.10377
9.12481
9.12837
9.1515
9.15785
9.17378
9.17215
9.17888
9.17434
9.17843
9.17412
9.1772
9.1747
9.17579
9.17979
9.19858
7.42185
8.70498
8.97179
9.07463
9.09413
9.12308
9.12852
9.15296
9.15989
9.17705
9.17582
9.18293
9.17833
9.18268
9.17795
9.1812
9.17907
9.17703
9.18391
9.20075
7.42903
8.70115
8.96691
9.07215
9.09529
9.12764
9.13449
9.16071
9.16835
9.18622
9.18514
9.1924
9.18782
9.19214
9.18759
9.19048
9.18945
9.18608
9.19582
9.20859
7.42903
8.70115
8.96691
9.07215
9.09529
9.12764
9.13449
9.16071
9.16835
9.18622
9.18514
9.1924
9.18782
9.19214
9.18758
9.19051
9.18941
9.18616
9.19574
9.20868
7.42185
8.70498
8.97179
9.07463
9.09413
9.12308
9.12852
9.15296
9.15989
9.17705
9.17582
9.18294
9.17832
9.1827
9.17791
9.1813
9.17886
9.17736
9.18375
9.20102
7.48615
8.75991
9.01017
9.09428
9.10377
9.12481
9.12837
9.1515
9.15785
9.17378
9.17215
9.17889
9.17432
9.17849
9.17399
9.17748
9.17424
9.17646
9.17924
9.19943
8.08769
9.23009
9.33601
9.30985
9.25374
9.25136
9.24974
9.26822
9.27194
9.28482
9.28169
9.28775
9.28273
9.28713
9.28222
9.28687
9.28102
9.28918
9.28779
9.33032
13.8392
14.0098
13.4189
12.8337
12.5487
12.4776
12.4661
12.4881
12.4855
12.4986
12.4917
12.5
12.493
12.5
12.4937
12.5017
12.4933
12.5051
12.6249
12.7387
52.0164
56.4568
56.4775
56.6106
56.6336
56.766
56.7751
56.8633
56.854
56.9016
56.8802
56.9111
56.8914
56.9166
56.9004
56.9244
56.9109
56.9269
56.9671
57.1723
7.67505
9.66694
9.75556
9.6574
9.66249
9.63734
9.6644
9.6499
9.66863
9.65521
9.66805
9.65733
9.66696
9.65872
9.66651
9.65945
9.66703
9.65904
9.65433
9.72379
6.02039
8.2482
8.58239
8.62427
8.63003
8.64037
8.6488
8.65815
8.66248
8.66519
8.66597
8.66613
8.66624
8.66591
8.666
8.66554
8.66534
8.66538
8.67071
8.68007
5.70226
7.90561
8.25501
8.32332
8.33204
8.35147
8.36324
8.38355
8.39099
8.4005
8.4012
8.40403
8.40324
8.40453
8.40402
8.40427
8.40502
8.40227
8.40521
8.42634
5.6933
7.89727
8.24538
8.3113
8.31457
8.32774
8.33713
8.35845
8.36835
8.38071
8.38256
8.3864
8.38569
8.38712
8.38658
8.38701
8.38807
8.38744
8.38974
8.41003
5.68161
7.88162
8.23044
8.29791
8.30021
8.3122
8.32111
8.34353
8.35406
8.36746
8.36955
8.37387
8.37302
8.37473
8.37388
8.37483
8.37428
8.37428
8.37452
8.3956
5.6881
7.88983
8.2379
8.3047
8.30658
8.31807
8.32657
8.34851
8.35892
8.37246
8.37462
8.37903
8.37817
8.37993
8.37901
8.38019
8.37977
8.38039
8.38068
8.40221
5.6881
7.88983
8.2379
8.3047
8.30658
8.31807
8.32657
8.34851
8.35892
8.37246
8.37462
8.37903
8.37816
8.37993
8.37899
8.3802
8.37973
8.38046
8.38061
8.40223
5.68161
7.88162
8.23044
8.29791
8.30021
8.3122
8.32111
8.34353
8.35406
8.36746
8.36955
8.37387
8.37302
8.37475
8.37384
8.37493
8.37412
8.37459
8.3743
8.39581
5.6933
7.89727
8.24538
8.3113
8.31457
8.32774
8.33713
8.35845
8.36835
8.38071
8.38256
8.38641
8.38567
8.38717
8.38646
8.38733
8.38749
8.38804
8.38916
8.41075
5.70226
7.90561
8.25501
8.32332
8.33204
8.35147
8.36323
8.38355
8.39099
8.4005
8.40119
8.40404
8.40321
8.40461
8.40382
8.40479
8.40406
8.40383
8.40341
8.42835
6.02039
8.2482
8.58239
8.62426
8.63003
8.64036
8.64879
8.65815
8.66248
8.6652
8.66597
8.66614
8.66622
8.66598
8.66582
8.66597
8.66423
8.66778
8.66683
8.68549
7.67505
9.66694
9.75555
9.65739
9.66248
9.63734
9.66439
9.6499
9.66863
9.65521
9.66805
9.65734
9.66695
9.65877
9.66639
9.65987
9.66602
9.66187
9.64863
9.73412
0.486466
1.00679
1.09118
1.07975
1.05681
1.052
1.05018
1.05364
1.05609
1.06084
1.0636
1.068
1.07102
1.07541
1.07819
1.08396
1.08301
1.09597
1.07495
1.11154
0.106367
0.373684
0.473231
0.495076
0.492582
0.489319
0.485556
0.48582
0.485512
0.486043
0.485927
0.486276
0.486274
0.486575
0.486683
0.487207
0.487135
0.489702
0.48951
0.495717
0.0807091
0.300205
0.384728
0.416824
0.42058
0.424622
0.423924
0.425144
0.424568
0.425116
0.424564
0.424746
0.424376
0.424421
0.424287
0.424287
0.424325
0.424233
0.424347
0.426555
0.083467
0.303894
0.388906
0.421667
0.426845
0.43109
0.430782
0.431862
0.431472
0.431876
0.431435
0.431493
0.431224
0.431196
0.431072
0.430878
0.430853
0.430505
0.43065
0.432768
0.0818556
0.300023
0.383845
0.416457
0.421083
0.425206
0.424743
0.425888
0.425444
0.425913
0.425416
0.425499
0.425191
0.425181
0.425011
0.424937
0.424887
0.424729
0.42456
0.426617
0.0827907
0.302117
0.386475
0.419096
0.423989
0.428133
0.427761
0.428865
0.428463
0.428895
0.428435
0.428499
0.428211
0.428186
0.428033
0.427893
0.427843
0.42754
0.42758
0.429627
0.0827907
0.302117
0.386475
0.419096
0.423989
0.428133
0.427761
0.428865
0.428463
0.428895
0.428435
0.428499
0.428211
0.428186
0.428032
0.427895
0.427843
0.427543
0.427577
0.429625
0.0818556
0.300023
0.383845
0.416457
0.421083
0.425206
0.424743
0.425888
0.425444
0.425913
0.425416
0.425499
0.42519
0.425181
0.425012
0.424937
0.424885
0.42473
0.42456
0.426615
0.083467
0.303894
0.388906
0.421667
0.426845
0.43109
0.430782
0.431862
0.431472
0.431876
0.431435
0.431493
0.431224
0.431197
0.431069
0.430884
0.430848
0.430515
0.430644
0.432767
0.0807091
0.300205
0.384728
0.416824
0.42058
0.424622
0.423924
0.425144
0.424568
0.425116
0.424564
0.424746
0.424376
0.424422
0.424269
0.424289
0.424333
0.424263
0.424323
0.426538
0.106367
0.373684
0.473231
0.495076
0.492582
0.489318
0.485556
0.48582
0.485512
0.486044
0.485927
0.486276
0.486274
0.486576
0.486675
0.4872
0.487101
0.489709
0.489401
0.495617
0.486466
1.00679
1.09118
1.07975
1.05681
1.052
1.05018
1.05364
1.05609
1.06084
1.0636
1.06801
1.07102
1.07543
1.07818
1.08403
1.08291
1.09631
1.07463
1.11227
0.486466
1.00679
1.09118
1.07975
1.05681
1.052
1.05018
1.05364
1.05609
1.06084
1.0636
1.068
1.07102
1.07541
1.07819
1.08396
1.08301
1.09597
1.07495
1.11154
0.106367
0.373684
0.473231
0.495076
0.492582
0.489319
0.485556
0.485821
0.485512
0.486044
0.485927
0.486277
0.486275
0.486575
0.486683
0.487207
0.487135
0.489703
0.48951
0.495718
0.0807092
0.300205
0.384728
0.416825
0.42058
0.424623
0.423925
0.425144
0.424569
0.425116
0.424565
0.424746
0.424376
0.424422
0.424288
0.424288
0.424325
0.424233
0.424347
0.426555
0.083467
0.303894
0.388906
0.421667
0.426846
0.43109
0.430782
0.431863
0.431472
0.431877
0.431436
0.431493
0.431225
0.431197
0.431072
0.430878
0.430853
0.430504
0.430649
0.432768
0.0818557
0.300023
0.383845
0.416457
0.421083
0.425207
0.424744
0.425888
0.425445
0.425913
0.425417
0.4255
0.425191
0.425181
0.425012
0.424938
0.424888
0.424729
0.42456
0.426617
0.0827907
0.302117
0.386475
0.419096
0.423989
0.428133
0.427762
0.428866
0.428464
0.428895
0.428436
0.4285
0.428211
0.428186
0.428033
0.427894
0.427843
0.42754
0.427579
0.429627
0.0827907
0.302117
0.386475
0.419096
0.423989
0.428133
0.427762
0.428866
0.428464
0.428895
0.428436
0.4285
0.428211
0.428186
0.428032
0.427895
0.427843
0.427543
0.427576
0.429626
0.0818557
0.300023
0.383845
0.416457
0.421083
0.425207
0.424744
0.425888
0.425445
0.425913
0.425417
0.4255
0.425191
0.425181
0.425012
0.424937
0.424885
0.424731
0.42456
0.426616
0.083467
0.303894
0.388906
0.421667
0.426846
0.43109
0.430782
0.431863
0.431472
0.431877
0.431436
0.431494
0.431224
0.431197
0.431069
0.430885
0.430849
0.430516
0.430644
0.432768
0.0807092
0.300205
0.384728
0.416825
0.420581
0.424623
0.423925
0.425144
0.424569
0.425116
0.424565
0.424746
0.424376
0.424423
0.424269
0.42429
0.424333
0.424263
0.424323
0.426539
0.106367
0.373684
0.473231
0.495077
0.492582
0.489319
0.485556
0.485821
0.485512
0.486044
0.485927
0.486276
0.486274
0.486576
0.486675
0.4872
0.487101
0.489709
0.489401
0.495617
0.486466
1.00679
1.09118
1.07975
1.05681
1.052
1.05018
1.05364
1.05609
1.06084
1.0636
1.068
1.07102
1.07543
1.07818
1.08403
1.08291
1.09631
1.07463
1.11227
7.67505
9.66694
9.75556
9.6574
9.66248
9.63734
9.66439
9.64989
9.66863
9.65521
9.66806
9.65733
9.66696
9.65872
9.66652
9.65946
9.66704
9.65905
9.65433
9.7238
6.02039
8.2482
8.58239
8.62426
8.63003
8.64037
8.64879
8.65815
8.66248
8.66519
8.66597
8.66614
8.66624
8.66591
8.666
8.66554
8.66535
8.66538
8.67071
8.68008
5.70226
7.90561
8.25501
8.32332
8.33204
8.35147
8.36323
8.38355
8.39099
8.4005
8.4012
8.40403
8.40324
8.40453
8.40402
8.40427
8.40502
8.40227
8.40521
8.42634
5.6933
7.89727
8.24538
8.3113
8.31457
8.32774
8.33713
8.35845
8.36835
8.38071
8.38256
8.3864
8.38569
8.38712
8.38658
8.38701
8.38807
8.38744
8.38974
8.41003
5.68161
7.88162
8.23044
8.29791
8.30021
8.3122
8.32111
8.34353
8.35406
8.36746
8.36955
8.37387
8.37302
8.37473
8.37388
8.37483
8.37428
8.37428
8.37452
8.3956
5.6881
7.88983
8.2379
8.3047
8.30658
8.31807
8.32657
8.34851
8.35892
8.37246
8.37462
8.37903
8.37817
8.37993
8.37901
8.38018
8.37977
8.38038
8.38068
8.40221
5.6881
7.88983
8.2379
8.3047
8.30658
8.31807
8.32657
8.34851
8.35892
8.37246
8.37462
8.37903
8.37816
8.37993
8.37899
8.3802
8.37973
8.38046
8.38061
8.40223
5.68161
7.88162
8.23044
8.29791
8.30021
8.3122
8.32111
8.34353
8.35406
8.36746
8.36955
8.37387
8.37302
8.37475
8.37384
8.37493
8.37412
8.37458
8.37429
8.39581
5.6933
7.89727
8.24538
8.3113
8.31457
8.32774
8.33713
8.35845
8.36835
8.38071
8.38256
8.38641
8.38567
8.38717
8.38646
8.38733
8.38749
8.38804
8.38916
8.41075
5.70226
7.90561
8.25501
8.32332
8.33204
8.35147
8.36324
8.38356
8.39099
8.4005
8.40119
8.40404
8.40321
8.40461
8.40382
8.40479
8.40406
8.40383
8.4034
8.42835
6.02039
8.2482
8.58239
8.62426
8.63003
8.64037
8.6488
8.65815
8.66248
8.6652
8.66596
8.66614
8.66622
8.66598
8.66582
8.66596
8.66423
8.66777
8.66683
8.68548
7.67505
9.66694
9.75556
9.6574
9.66249
9.63735
9.6644
9.6499
9.66863
9.65521
9.66805
9.65733
9.66695
9.65877
9.66639
9.65987
9.66602
9.66187
9.64863
9.73411
52.0164
56.4568
56.4775
56.6106
56.6336
56.766
56.7751
56.8633
56.854
56.9016
56.8802
56.9111
56.8915
56.9162
56.9016
56.9212
56.919
56.9093
57.0046
57.1016
13.8392
14.0098
13.4189
12.8337
12.5487
12.4776
12.4661
12.4881
12.4855
12.4986
12.4917
12.5
12.4931
12.4999
12.494
12.501
12.4949
12.5021
12.6337
12.7293
8.08769
9.23009
9.33601
9.30984
9.25373
9.25136
9.24974
9.26822
9.27194
9.28481
9.2817
9.28774
9.28276
9.28704
9.28244
9.28637
9.282
9.28729
9.29042
9.32783
7.48615
8.75991
9.01017
9.09428
9.10377
9.12481
9.12837
9.1515
9.15785
9.17378
9.17215
9.17888
9.17434
9.17843
9.17412
9.1772
9.1747
9.17579
9.17979
9.19858
7.42185
8.70498
8.97179
9.07463
9.09413
9.12308
9.12852
9.15296
9.15989
9.17705
9.17582
9.18293
9.17833
9.18268
9.17795
9.1812
9.17907
9.17703
9.1839
9.20075
7.42903
8.70115
8.96691
9.07215
9.09529
9.12764
9.13449
9.16071
9.16835
9.18622
9.18514
9.1924
9.18782
9.19213
9.18759
9.19048
9.18945
9.18608
9.19582
9.20859
7.42903
8.70115
8.96691
9.07215
9.09529
9.12764
9.13449
9.16071
9.16835
9.18622
9.18514
9.1924
9.18782
9.19214
9.18758
9.19051
9.18941
9.18616
9.19574
9.20868
7.42185
8.70498
8.97179
9.07463
9.09413
9.12308
9.12852
9.15296
9.15989
9.17705
9.17582
9.18294
9.17832
9.1827
9.17791
9.1813
9.17885
9.17736
9.18375
9.20102
7.48615
8.75991
9.01017
9.09428
9.10377
9.12481
9.12837
9.1515
9.15785
9.17378
9.17215
9.17889
9.17432
9.17849
9.17399
9.17748
9.17424
9.17646
9.17924
9.19942
8.08769
9.23009
9.33601
9.30984
9.25373
9.25136
9.24974
9.26823
9.27194
9.28482
9.28169
9.28775
9.28273
9.28713
9.28221
9.28687
9.28102
9.28918
9.28778
9.33031
13.8392
14.0098
13.4189
12.8337
12.5487
12.4776
12.4661
12.4881
12.4855
12.4986
12.4917
12.5
12.493
12.5
12.4937
12.5017
12.4933
12.505
12.6249
12.7387
52.0164
56.4568
56.4775
56.6106
56.6336
56.766
56.7752
56.8633
56.8541
56.9016
56.8802
56.9111
56.8914
56.9166
56.9004
56.9244
56.9109
56.9269
56.9671
57.1723
145.002
146.587
146.728
146.812
146.825
146.91
146.952
147.056
147.124
147.245
147.33
147.456
147.538
147.646
147.703
147.773
147.791
147.82
147.806
147.809
147.781
147.78
147.762
147.775
147.772
147.796
147.797
147.813
147.801
147.796
147.767
147.753
147.725
147.718
147.701
147.707
147.698
147.702
147.685
147.675
147.651
147.64
147.62
147.617
147.604
147.608
147.597
147.592
147.573
147.562
147.546
147.545
147.533
147.533
147.523
147.519
147.507
147.499
147.484
147.484
147.476
147.477
147.466
147.456
147.443
147.442
147.436
147.438
147.426
147.419
147.411
147.407
147.398
147.395
147.38
147.372
147.365
147.358
147.347
147.34
147.324
147.32
147.315
147.307
147.298
147.291
147.276
147.276
147.25
147.186
47.5882
49.3456
49.3689
49.4282
49.4296
49.4998
49.5231
49.6078
49.6535
49.7555
49.8213
49.9374
50.0154
50.1369
50.216
50.331
50.4003
50.5006
50.5562
50.6417
50.6869
50.7647
50.808
50.8864
50.9327
51.0127
51.0593
51.1345
51.1734
51.2363
51.2642
51.3172
51.3397
51.3899
51.4133
51.4649
51.4893
51.5375
51.5563
51.5956
51.6082
51.6425
51.6532
51.6871
51.6992
51.7333
51.7443
51.7725
51.7783
51.8017
51.8065
51.8305
51.836
51.8593
51.8642
51.884
51.8864
51.9023
51.903
51.9202
51.9227
51.9391
51.9394
51.9506
51.9497
51.9623
51.9625
51.9749
51.973
51.9815
51.9798
51.9879
51.9853
51.9929
51.9884
51.9948
51.9922
51.997
51.9934
51.9983
51.9937
51.9999
51.998
52.0016
51.9985
52.0022
51.9977
52.0046
51.9892
51.9672
30.717
32.8129
32.8545
32.9294
32.9224
33.0019
33.0186
33.113
33.1532
33.2645
33.3248
33.4499
33.5227
33.6533
33.7284
33.8543
33.9225
34.0373
34.0962
34.2009
34.2547
34.3566
34.4131
34.5193
34.5819
34.6915
34.7559
34.8616
34.9193
35.0139
35.0626
35.149
35.1947
35.2803
35.3282
35.4156
35.4646
35.5477
35.5905
35.664
35.7008
35.7695
35.8048
35.873
35.9092
35.9765
36.0104
36.07
36.0976
36.1517
36.1782
36.2324
36.2586
36.3105
36.3347
36.3816
36.4023
36.4442
36.4625
36.5049
36.524
36.564
36.5793
36.6124
36.6261
36.6602
36.6742
36.7067
36.717
36.744
36.7542
36.78
36.7884
36.8124
36.8175
36.839
36.8457
36.8645
36.8691
36.8868
36.8892
36.9075
36.9122
36.9264
36.9289
36.9421
36.9423
36.9573
36.9602
36.9346
28.4148
30.8686
30.9748
31.0686
31.0583
31.147
31.1639
31.27
31.3128
31.4376
31.5023
31.6418
31.7194
31.8646
31.9438
32.0832
32.1543
32.2808
32.3413
32.4567
32.5115
32.6237
32.6819
32.7989
32.864
32.9849
33.0521
33.1687
33.2288
33.3333
33.3841
33.48
33.5282
33.6236
33.6748
33.7728
33.8257
33.9191
33.9657
34.0489
34.0896
34.1679
34.2075
34.2859
34.3271
34.4048
34.4438
34.5132
34.5458
34.6094
34.6413
34.7055
34.7372
34.7991
34.829
34.8854
34.9116
34.9626
34.9864
35.0383
35.0631
35.1123
35.1329
35.1745
35.1935
35.2362
35.2555
35.2965
35.3116
35.3464
35.3614
35.3946
35.4076
35.4387
35.4477
35.476
35.4867
35.5117
35.5199
35.5436
35.5489
35.5732
35.5811
35.6004
35.6056
35.6237
35.6263
35.6456
35.6552
35.6304
28.1677
30.7756
30.9318
31.0393
31.026
31.121
31.1378
31.2516
31.2961
31.4297
31.4973
31.6463
31.7274
31.8819
31.9644
32.1123
32.1857
32.3196
32.3814
32.503
32.5585
32.6766
32.7354
32.8582
32.9241
33.0507
33.1186
33.2403
33.3006
33.4091
33.4593
33.5587
33.6061
33.7048
33.7555
33.8566
33.9091
34.0054
34.0511
34.1366
34.1762
34.2566
34.2952
34.3756
34.4161
34.4959
34.5341
34.6052
34.6369
34.702
34.7331
34.7989
34.8302
34.8935
34.923
34.9808
35.0066
35.0589
35.0824
35.1357
35.1605
35.2111
35.2317
35.2744
35.2935
35.3375
35.3572
35.3995
35.4149
35.4508
35.4663
35.5008
35.5142
35.5467
35.5559
35.5857
35.5969
35.6232
35.6319
35.657
35.6629
35.6887
35.6973
35.718
35.7239
35.7435
35.7468
35.7668
35.7806
35.7504
28.1877
30.8953
31.0708
31.1839
31.169
31.2659
31.2823
31.3985
31.4434
31.58
31.6487
31.8012
31.8836
32.0416
32.1251
32.2763
32.3503
32.487
32.5489
32.6728
32.7281
32.8481
32.9068
33.0315
33.0973
33.2258
33.2935
33.4167
33.4765
33.5861
33.6354
33.7355
33.782
33.8812
33.9309
34.0326
34.0841
34.1806
34.2252
34.3107
34.349
34.4292
34.4665
34.5466
34.5859
34.6653
34.7023
34.7729
34.8032
34.8677
34.8976
34.9628
34.9928
35.0556
35.0839
35.141
35.1656
35.2171
35.2395
35.2922
35.316
35.3659
35.3855
35.4275
35.4458
35.4892
35.5081
35.5499
35.5645
35.6
35.6148
35.6489
35.6618
35.6939
35.7027
35.7321
35.743
35.7691
35.7776
35.8025
35.8082
35.8341
35.8426
35.8634
35.8694
35.8891
35.8927
35.9127
35.9278
35.8976
28.1866
30.8871
31.0591
31.1715
31.1565
31.2533
31.2696
31.3858
31.4306
31.5672
31.6358
31.7882
31.8706
32.0285
32.112
32.2631
32.3371
32.4737
32.5355
32.6594
32.7147
32.8347
32.8933
33.018
33.0838
33.2121
33.2798
33.403
33.4627
33.5723
33.6216
33.7216
33.768
33.8672
33.9169
34.0185
34.07
34.1665
34.211
34.2965
34.3347
34.4148
34.4521
34.5322
34.5714
34.6508
34.6878
34.7583
34.7886
34.8531
34.8828
34.948
34.978
35.0407
35.069
35.1261
35.1507
35.2022
35.2245
35.2772
35.3009
35.3508
35.3704
35.4123
35.4306
35.474
35.4928
35.5346
35.5492
35.5846
35.5995
35.6335
35.6463
35.6784
35.6872
35.7166
35.7275
35.7535
35.762
35.7869
35.7926
35.8185
35.827
35.8477
35.8537
35.8734
35.877
35.8969
35.9121
35.8825
28.1611
30.7445
30.8895
30.9937
30.98
31.0749
31.0916
31.2053
31.2497
31.3831
31.4506
31.5994
31.6804
31.8346
31.917
32.0647
32.1379
32.2717
32.3333
32.4548
32.5102
32.628
32.6868
32.8094
32.8752
33.0016
33.0693
33.1908
33.251
33.3594
33.4095
33.5087
33.556
33.6545
33.7051
33.8061
33.8585
33.9545
34.0002
34.0855
34.125
34.2052
34.2438
34.324
34.3645
34.444
34.4822
34.5531
34.5847
34.6497
34.6807
34.7464
34.7775
34.8408
34.8702
34.9279
34.9536
35.0057
35.0292
35.0824
35.1071
35.1575
35.178
35.2206
35.2397
35.2836
35.3032
35.3455
35.3607
35.3966
35.412
35.4465
35.4598
35.4922
35.5014
35.5311
35.5422
35.5685
35.5771
35.6022
35.608
35.6338
35.6423
35.663
35.6689
35.6884
35.6917
35.7119
35.7249
35.696
28.3883
30.7837
30.8696
30.9591
30.9483
31.0367
31.0534
31.1591
31.2017
31.3261
31.3904
31.5295
31.6067
31.7514
31.8303
31.9692
32.04
32.1662
32.2264
32.3414
32.396
32.5079
32.5659
32.6826
32.7473
32.8679
32.9348
33.0511
33.111
33.2152
33.2657
33.3614
33.4094
33.5045
33.5556
33.6532
33.7059
33.7991
33.8454
33.9285
33.9689
34.0471
34.0865
34.1647
34.2057
34.2832
34.322
34.3913
34.4237
34.4872
34.5189
34.5829
34.6145
34.6762
34.706
34.7622
34.7883
34.8392
34.8629
34.9147
34.9394
34.9884
35.009
35.0504
35.0694
35.112
35.1312
35.1721
35.1871
35.2218
35.2368
35.2699
35.2828
35.3139
35.3227
35.3511
35.3616
35.3866
35.3947
35.4184
35.4237
35.4479
35.4557
35.4749
35.4802
35.4982
35.5007
35.5201
35.529
35.5071
30.6175
32.5964
32.6088
32.6772
32.6706
32.7495
32.7659
32.8596
32.8992
33.0098
33.0694
33.1936
33.2657
33.3955
33.4699
33.595
33.6626
33.7767
33.835
33.9392
33.9925
34.0939
34.15
34.2556
34.3178
34.4269
34.4908
34.596
34.6534
34.7475
34.796
34.8821
34.9276
35.0128
35.0605
35.1476
35.1964
35.2792
35.3218
35.3951
35.4318
35.5003
35.5355
35.6036
35.6397
35.7068
35.7406
35.8001
35.8277
35.8816
35.9081
35.9623
35.9883
36.0402
36.0644
36.1113
36.1319
36.1738
36.1921
36.2346
36.2536
36.2936
36.309
36.3421
36.3559
36.3899
36.4039
36.4364
36.4468
36.4738
36.4841
36.5098
36.5183
36.5423
36.5474
36.569
36.5756
36.5944
36.5991
36.6168
36.6191
36.6374
36.6421
36.6563
36.6588
36.672
36.6721
36.6874
36.6893
36.6667
47.2331
48.7322
48.7087
48.7616
48.763
48.8325
48.8552
48.9389
48.9838
49.0846
49.1493
49.2642
49.341
49.461
49.539
49.6526
49.7212
49.8204
49.8755
49.9604
50.0053
50.0827
50.1259
50.2039
50.25
50.3296
50.376
50.4509
50.4897
50.5524
50.5804
50.6333
50.656
50.7062
50.7296
50.7811
50.8056
50.8537
50.8726
50.9119
50.9247
50.959
50.9698
51.0038
51.0159
51.0501
51.0611
51.0893
51.0952
51.1186
51.1235
51.1476
51.1531
51.1763
51.1812
51.2011
51.2034
51.2193
51.22
51.2372
51.2396
51.2559
51.2561
51.2673
51.2664
51.2788
51.279
51.2913
51.2893
51.2978
51.296
51.3039
51.3013
51.3088
51.3042
51.3105
51.3078
51.3126
51.3089
51.3137
51.309
51.3151
51.313
51.3165
51.3132
51.3168
51.3122
51.3192
51.3032
51.2851
143.53
144.306
144.309
144.378
144.391
144.474
144.515
144.616
144.683
144.802
144.885
145.009
145.09
145.196
145.252
145.322
145.34
145.369
145.355
145.358
145.332
145.331
145.312
145.325
145.322
145.345
145.346
145.362
145.349
145.344
145.316
145.302
145.273
145.267
145.249
145.254
145.245
145.249
145.231
145.221
145.197
145.187
145.166
145.163
145.15
145.153
145.142
145.136
145.116
145.106
145.089
145.088
145.075
145.075
145.064
145.059
145.047
145.039
145.023
145.022
145.014
145.014
145.003
144.992
144.98
144.978
144.97
144.972
144.96
144.952
144.943
144.939
144.93
144.926
144.91
144.902
144.894
144.886
144.875
144.867
144.851
144.846
144.841
144.833
144.823
144.815
144.8
144.799
144.775
144.717
30.4273
31.1515
31.1931
31.2285
31.2604
31.3136
31.3614
31.4369
31.5039
31.6011
31.6843
31.7957
31.885
31.9971
32.0785
32.1765
32.2382
32.314
32.3546
32.4116
32.4389
32.4886
32.5152
32.5686
32.6003
32.657
32.6889
32.7395
32.7609
32.7964
32.8045
32.8297
32.8336
32.8587
32.8661
32.8955
32.9057
32.9319
32.9355
32.9517
32.9488
32.9613
32.9581
32.9729
32.9731
32.9898
32.9897
33
32.994
33
32.9944
33.0038
33.0003
33.0098
33.0063
33.0125
33.0068
33.0099
33.0029
33.0092
33.0055
33.0119
33.006
33.0065
32.9996
33.0036
32.9993
33.0044
32.9979
32.9982
32.9926
32.9939
32.988
32.9897
32.9813
32.9813
32.9761
32.9755
32.9692
32.9693
32.9616
32.9635
32.9605
32.9606
32.9563
32.9579
32.9518
32.9589
32.953
32.9443
27.951
29.4587
29.5087
29.5169
29.51
29.5154
29.509
29.5161
29.5123
29.5233
29.5244
29.5411
29.5484
29.5715
29.5852
29.6139
29.6321
29.6638
29.6834
29.7153
29.7339
29.7644
29.7818
29.812
29.8304
29.8622
29.8833
29.9176
29.9408
29.9754
29.9976
30.03
30.0498
30.0801
30.0986
30.1285
30.1482
30.179
30.1992
30.2288
30.2471
30.2742
30.2903
30.3155
30.3309
30.3559
30.372
30.3965
30.4111
30.433
30.4454
30.4659
30.4778
30.4975
30.5094
30.5283
30.5391
30.5564
30.565
30.5806
30.5893
30.6048
30.6135
30.6274
30.6338
30.6464
30.6525
30.665
30.6711
30.682
30.6867
30.697
30.7011
30.7109
30.7147
30.7229
30.7264
30.7345
30.737
30.7446
30.7464
30.7527
30.755
30.7614
30.7624
30.7685
30.7684
30.7735
30.7764
30.7778
25.7744
27.7128
27.8248
27.8336
27.8254
27.8229
27.8135
27.8104
27.8012
27.799
27.7915
27.7918
27.7872
27.7907
27.7896
27.7962
27.7977
27.8057
27.8078
27.8156
27.8169
27.8234
27.8238
27.8303
27.8317
27.8397
27.8437
27.8542
27.8604
27.872
27.8781
27.8887
27.8937
27.9035
27.9083
27.9188
27.9254
27.9375
27.9455
27.9577
27.9648
27.9761
27.9823
27.993
27.9995
28.0109
28.019
28.0309
28.0383
28.049
28.0553
28.0656
28.0723
28.0827
28.0898
28.1003
28.1072
28.1169
28.1224
28.1314
28.1374
28.1469
28.1534
28.1619
28.1666
28.1746
28.1795
28.1878
28.1931
28.2002
28.2045
28.2116
28.2155
28.2224
28.2261
28.2317
28.2352
28.2411
28.2437
28.2492
28.2511
28.2554
28.258
28.2625
28.2638
28.268
28.2682
28.2708
28.274
28.2467
25.2983
27.2803
27.4019
27.4107
27.4024
27.3989
27.3897
27.3854
27.3765
27.373
27.3657
27.3643
27.3598
27.3613
27.3599
27.3639
27.3647
27.3697
27.3707
27.375
27.3747
27.3773
27.3757
27.3778
27.3768
27.3802
27.3813
27.3868
27.3899
27.3961
27.3987
27.4038
27.405
27.409
27.4099
27.4144
27.4169
27.4231
27.4268
27.4328
27.4357
27.4409
27.4428
27.4474
27.4496
27.455
27.4587
27.4647
27.4679
27.4728
27.4749
27.4796
27.4822
27.4871
27.4903
27.4955
27.4985
27.5032
27.505
27.509
27.5115
27.5163
27.5194
27.5235
27.525
27.5287
27.5306
27.5348
27.5373
27.5406
27.5423
27.5457
27.5472
27.5507
27.5521
27.5546
27.5561
27.5589
27.5598
27.5624
27.5628
27.5645
27.5658
27.5679
27.5681
27.57
27.5693
27.5701
27.572
27.5469
25.0554
27.0632
27.1914
27.2046
27.1961
27.1929
27.1835
27.1793
27.1704
27.1669
27.1599
27.1585
27.1543
27.1556
27.1547
27.1586
27.1598
27.1648
27.1662
27.1705
27.1706
27.1732
27.172
27.174
27.1734
27.1766
27.178
27.1833
27.1865
27.1925
27.1951
27.1999
27.2011
27.2048
27.2056
27.2096
27.212
27.2176
27.221
27.2265
27.229
27.2335
27.2351
27.239
27.2407
27.2453
27.2485
27.2537
27.2563
27.2603
27.2618
27.2656
27.2675
27.2715
27.2739
27.2782
27.2805
27.2842
27.2852
27.2883
27.29
27.2938
27.2962
27.2993
27.3001
27.3028
27.304
27.3072
27.309
27.3113
27.3123
27.3148
27.3157
27.3183
27.3191
27.3207
27.3216
27.3236
27.324
27.3259
27.3258
27.3268
27.3276
27.329
27.3288
27.3301
27.3292
27.3292
27.3306
27.3009
25.0737
27.0598
27.1798
27.1913
27.1824
27.179
27.1695
27.1648
27.1558
27.152
27.145
27.1434
27.1394
27.1408
27.14
27.144
27.1454
27.1505
27.1522
27.1567
27.157
27.1598
27.1588
27.161
27.1606
27.1641
27.1657
27.1712
27.1747
27.1809
27.1838
27.1887
27.1901
27.194
27.195
27.1991
27.2016
27.2074
27.2109
27.2165
27.2191
27.2237
27.2253
27.2293
27.2311
27.2357
27.2389
27.2441
27.2467
27.2508
27.2522
27.256
27.2578
27.2618
27.2642
27.2684
27.2706
27.2742
27.2752
27.2782
27.2798
27.2835
27.2858
27.2887
27.2894
27.292
27.2931
27.2962
27.2978
27.3
27.3009
27.3032
27.304
27.3064
27.3071
27.3085
27.3094
27.3112
27.3115
27.3132
27.313
27.3138
27.3145
27.3158
27.3156
27.3167
27.3158
27.3157
27.3171
27.2877
25.0717
27.0515
27.1681
27.1788
27.1698
27.1665
27.157
27.1523
27.1433
27.1395
27.1325
27.1309
27.1269
27.1282
27.1274
27.1314
27.1329
27.1379
27.1396
27.144
27.1444
27.1471
27.1462
27.1484
27.148
27.1514
27.1531
27.1586
27.162
27.1682
27.1711
27.176
27.1774
27.1813
27.1822
27.1864
27.1889
27.1946
27.1982
27.2038
27.2064
27.211
27.2126
27.2165
27.2183
27.2229
27.2261
27.2313
27.2339
27.2379
27.2394
27.2432
27.245
27.2489
27.2513
27.2555
27.2577
27.2613
27.2623
27.2653
27.2668
27.2706
27.2728
27.2757
27.2764
27.279
27.2801
27.2832
27.2848
27.287
27.2879
27.2902
27.2909
27.2934
27.2941
27.2955
27.2963
27.2981
27.2984
27.3001
27.2999
27.3007
27.3014
27.3027
27.3024
27.3036
27.3026
27.3025
27.3039
27.2745
25.0489
27.0331
27.1518
27.1621
27.1533
27.1501
27.1408
27.1365
27.1277
27.1241
27.1172
27.1158
27.1117
27.113
27.112
27.116
27.1172
27.1221
27.1236
27.1279
27.128
27.1306
27.1294
27.1314
27.1307
27.134
27.1354
27.1407
27.1438
27.1498
27.1524
27.1572
27.1584
27.162
27.1628
27.1668
27.1692
27.1747
27.1781
27.1836
27.1861
27.1906
27.1921
27.196
27.1976
27.2023
27.2054
27.2106
27.2131
27.2171
27.2185
27.2224
27.2242
27.2282
27.2306
27.2348
27.237
27.2407
27.2417
27.2448
27.2464
27.2502
27.2526
27.2556
27.2564
27.259
27.2602
27.2634
27.2651
27.2675
27.2684
27.2709
27.2717
27.2743
27.2751
27.2766
27.2776
27.2795
27.2799
27.2817
27.2816
27.2826
27.2833
27.2847
27.2845
27.2858
27.2849
27.2848
27.2862
27.2567
25.2727
27.2018
27.304
27.31
27.3015
27.298
27.2888
27.2844
27.2755
27.272
27.2648
27.2634
27.2589
27.2603
27.2589
27.2629
27.2636
27.2686
27.2696
27.2738
27.2735
27.276
27.2744
27.2765
27.2755
27.2788
27.2799
27.2854
27.2884
27.2945
27.2971
27.3021
27.3033
27.3073
27.3081
27.3125
27.315
27.3211
27.3247
27.3307
27.3335
27.3386
27.3405
27.345
27.3472
27.3525
27.3561
27.3621
27.3652
27.3701
27.3721
27.3768
27.3793
27.3841
27.3872
27.3924
27.3954
27.4
27.4017
27.4057
27.4081
27.4129
27.4159
27.4199
27.4214
27.4251
27.4269
27.4311
27.4335
27.4368
27.4384
27.4418
27.4433
27.4467
27.4481
27.4505
27.452
27.4547
27.4556
27.4582
27.4585
27.4602
27.4614
27.4634
27.4636
27.4655
27.4648
27.4655
27.4669
27.4422
25.7002
27.5413
27.6277
27.6324
27.6241
27.6216
27.6124
27.6093
27.6002
27.5981
27.5907
27.591
27.5865
27.5901
27.589
27.5956
27.597
27.605
27.6071
27.6148
27.6161
27.6225
27.6229
27.6293
27.6307
27.6386
27.6425
27.6529
27.6591
27.6705
27.6765
27.687
27.6919
27.7016
27.7064
27.7166
27.7231
27.7352
27.743
27.7551
27.7621
27.7732
27.7794
27.79
27.7964
27.8077
27.8156
27.8274
27.8347
27.8452
27.8514
27.8616
27.8682
27.8784
27.8855
27.8958
27.9026
27.9122
27.9176
27.9264
27.9323
27.9417
27.9481
27.9565
27.9612
27.969
27.9738
27.982
27.9872
27.9942
27.9984
28.0054
28.0092
28.0161
28.0196
28.0252
28.0286
28.0343
28.0369
28.0423
28.0441
28.0483
28.0508
28.0552
28.0565
28.0606
28.0607
28.0632
28.0666
28.0401
27.7662
29.1258
29.1474
29.1526
29.1459
29.1514
29.145
29.1521
29.1484
29.1593
29.1603
29.1769
29.1841
29.207
29.2204
29.2488
29.2667
29.298
29.3173
29.3488
29.3671
29.3972
29.4144
29.4442
29.4623
29.4939
29.5147
29.5487
29.5715
29.6058
29.6277
29.6598
29.6793
29.7093
29.7277
29.7573
29.7769
29.8074
29.8274
29.8567
29.8748
29.9017
29.9177
29.9428
29.958
29.9829
29.9988
30.0231
30.0376
30.0594
30.0717
30.092
30.1039
30.1235
30.1353
30.1541
30.1648
30.1819
30.1905
30.206
30.2146
30.2301
30.2387
30.2525
30.2588
30.2713
30.2774
30.2898
30.2959
30.3066
30.3114
30.3216
30.3256
30.3353
30.339
30.3472
30.3506
30.3586
30.361
30.3685
30.3702
30.3764
30.3787
30.385
30.3859
30.3919
30.3917
30.3969
30.3993
30.4023
30.094
30.645
30.6598
30.6928
30.7243
30.7766
30.8233
30.8975
30.9631
31.0586
31.1402
31.2498
31.3375
31.4479
31.528
31.6247
31.6856
31.7607
31.8009
31.8576
31.8849
31.9343
31.9608
32.0138
32.0454
32.1017
32.1333
32.1836
32.205
32.2405
32.2488
32.2741
32.2782
32.3034
32.3109
32.3403
32.3505
32.3767
32.3805
32.3968
32.3941
32.4068
32.4038
32.4186
32.419
32.4357
32.4356
32.446
32.4402
32.4463
32.4408
32.4502
32.4468
32.4564
32.4528
32.4592
32.4535
32.4567
32.4497
32.456
32.4523
32.4586
32.4528
32.4533
32.4465
32.4505
32.4461
32.4512
32.4447
32.445
32.4393
32.4407
32.4347
32.4364
32.428
32.428
32.4228
32.4221
32.4158
32.4159
32.4081
32.41
32.4069
32.407
32.4025
32.404
32.3979
32.4051
32.3984
32.3929
3.95633
4.13522
4.14463
4.17666
4.20802
4.25343
4.2918
4.35218
4.40154
4.47759
4.53776
4.62668
4.69377
4.78934
4.85685
4.95126
5.01288
5.10092
5.15492
5.23691
5.28647
5.36726
5.41828
5.5028
5.55771
5.6452
5.70083
5.78555
5.83567
5.91216
5.95516
6.02569
6.06608
6.13587
6.17751
6.2485
6.29026
6.35751
6.39388
6.45364
6.48497
6.54063
6.57023
6.62506
6.65465
6.7081
6.73496
6.78198
6.80362
6.84601
6.8663
6.90829
6.92769
6.96746
6.98475
7.02013
7.03416
7.06534
7.07734
7.10857
7.12058
7.14938
7.15808
7.18149
7.18884
7.21247
7.21965
7.24181