/*--------------------------------*- C++ -*----------------------------------*\
  =========                 |
  \\      /  F ield         | OpenFOAM: The Open Source CFD Toolbox
   \\    /   O peration     | Website:  https://openfoam.org
    \\  /    A nd           | Version:  7
     \\/     M anipulation  |
\*---------------------------------------------------------------------------*/
FoamFile
{
    version     2.0;
    format      ascii;
    class       volScalarField;
    location    "0.45";
    object      nut;
}
// * * * * * * * * * * * * * * * * * * * * * * * * * * * * * * * * * * * * * //

dimensions      [0 2 -1 0 0 0 0];

internalField   nonuniform List<scalar> 
15000
(
1.91057e-05
4.64698e-05
6.8202e-05
0.000101378
0.000134912
0.000150512
0.000172306
0.000206447
0.000230017
0.000249125
0.000271775
0.000294857
0.00031499
0.000333467
0.000351835
0.000369554
0.000385793
0.000400727
0.000414871
0.000428293
0.000440756
0.000452165
0.000462658
0.000472397
0.00048143
0.000489724
0.000497272
0.000504136
0.000510399
0.000516113
0.000521296
0.000525962
0.000530148
0.000533904
0.000537269
0.000540267
0.000542919
0.000545248
0.00054729
0.000549064
0.0005506
0.000551901
0.000553002
0.000553904
0.000554647
0.000555213
0.000555658
0.000555941
0.000556138
0.00055618
0.000556143
0.000556041
0.000555837
0.000555555
0.000555203
0.000554787
0.000554315
0.000553794
0.00055323
0.000552623
0.000551973
0.000551281
0.000550553
0.000549798
0.000549026
0.000548243
0.000547448
0.000546638
0.000545808
0.000544953
0.000544074
0.000543177
0.000542266
0.000541349
0.00054043
0.000539511
0.000538592
0.000537671
0.000536745
0.000535814
0.000534876
0.00053393
0.000532978
0.00053202
0.000531058
0.000530091
0.000529121
0.00052815
0.000527178
0.000526205
0.000525233
0.00052426
0.000523289
0.000522318
0.000521349
0.00052038
0.000519413
0.000518448
0.000517484
0.000516523
0.000515563
0.000514605
0.000513649
0.000512696
0.000511745
0.000510796
0.000509849
0.000508905
0.000507963
0.000507025
0.000506089
0.000505155
0.000504224
0.000503296
0.000502371
0.000501449
0.000500529
0.000499612
0.000498698
0.000497787
0.000496879
0.000495975
0.000495073
0.000494173
0.000493276
0.000492383
0.000491495
0.00049061
0.000489729
0.000488848
0.000487969
0.00048709
0.000486214
0.000485343
0.000484481
0.000483627
0.000482779
0.000481936
0.000481092
0.000480247
0.000479401
0.000478555
0.000477712
0.000476874
0.000476041
0.000475213
0.000474388
0.000473566
0.000472745
0.000471926
0.00047111
0.000470298
0.000469491
0.000468691
0.000467897
0.000467108
0.000466324
0.000465544
0.000464767
0.000463993
0.000463223
0.000462458
0.000461698
0.000460945
0.000460199
0.000459459
0.000458727
0.000458
0.000457279
0.000456564
0.000455853
0.000455147
0.000454445
0.000453746
0.000453051
0.00045236
0.000451673
0.00045099
0.00045031
0.000449634
0.000448961
0.000448291
0.000447625
0.000446963
0.000446306
0.000445654
0.000445007
0.000444364
0.000443725
0.000443089
0.000442456
0.000441827
0.000441202
0.000440582
0.000439968
0.00043936
0.000438759
0.000438165
0.000437577
0.000436997
0.000436423
0.000435856
0.000435296
0.000434743
0.000434197
0.000433658
0.000433127
0.000432603
0.000432086
0.000431575
0.00043107
0.000430568
0.000430072
0.000429579
0.00042909
0.000428605
0.000428124
0.000427647
0.000427176
0.000426709
0.000426249
0.000425794
0.000425345
0.000424904
0.000424469
0.000424042
0.000423621
0.000423206
0.000422798
0.000422396
0.000422001
0.000421611
0.00042123
0.000420852
0.000420487
0.000420117
0.000419765
0.000419396
0.000419056
0.000418681
0.000418357
0.000417963
0.00041766
0.000417231
0.000416943
0.000416466
0.000416146
0.000415663
0.000415101
0.000416318
3.76277e-06
3.82463e-06
4.07516e-06
4.86675e-06
6.35192e-06
7.6358e-06
9.71859e-06
1.37049e-05
1.70755e-05
1.93519e-05
2.23926e-05
2.8028e-05
3.33773e-05
3.64499e-05
4.01966e-05
4.60604e-05
5.18291e-05
5.64058e-05
6.08339e-05
6.60608e-05
7.16666e-05
7.69162e-05
8.17838e-05
8.6673e-05
9.17371e-05
9.67844e-05
0.000101639
0.000106314
0.000110901
0.000115425
0.000119846
0.000124129
0.000128267
0.000132267
0.000136139
0.000139882
0.000143499
0.000146979
0.000150322
0.000153529
0.000156608
0.000159563
0.000162399
0.00016511
0.000167703
0.000170178
0.000172542
0.000174797
0.000176948
0.000179
0.000180953
0.000182811
0.000184576
0.000186253
0.000187847
0.000189363
0.000190801
0.000192164
0.000193453
0.000194674
0.00019583
0.000196924
0.000197959
0.000198934
0.000199849
0.000200705
0.000201507
0.000202262
0.000202979
0.000203666
0.000204331
0.000204975
0.000205598
0.000206198
0.000206773
0.00020732
0.000207836
0.000208319
0.000208769
0.000209187
0.000209577
0.00020994
0.000210278
0.000210594
0.00021089
0.000211171
0.000211442
0.000211703
0.000211953
0.000212193
0.00021242
0.000212635
0.000212837
0.000213027
0.000213205
0.000213372
0.000213529
0.000213677
0.000213817
0.000213949
0.000214075
0.000214196
0.000214311
0.000214422
0.00021453
0.000214634
0.000214735
0.000214834
0.00021493
0.000215025
0.000215119
0.000215212
0.000215303
0.000215395
0.000215486
0.000215577
0.000215668
0.000215759
0.000215851
0.000215943
0.000216036
0.00021613
0.000216225
0.000216322
0.000216419
0.000216518
0.000216619
0.000216721
0.000216824
0.00021693
0.000217038
0.000217149
0.000217261
0.000217374
0.000217488
0.000217603
0.000217721
0.000217842
0.000217968
0.000218099
0.000218237
0.00021838
0.000218526
0.000218674
0.000218823
0.00021897
0.000219117
0.000219263
0.00021941
0.000219556
0.000219704
0.000219851
0.000219999
0.000220147
0.000220294
0.000220442
0.000220591
0.000220742
0.000220895
0.000221048
0.000221202
0.000221356
0.000221509
0.000221662
0.000221814
0.000221968
0.000222123
0.00022228
0.00022244
0.000222603
0.000222767
0.00022293
0.000223093
0.000223253
0.000223412
0.000223571
0.000223731
0.000223895
0.000224063
0.000224236
0.000224414
0.000224597
0.000224783
0.000224973
0.000225167
0.000225366
0.000225569
0.000225778
0.000225993
0.000226213
0.000226435
0.000226655
0.000226871
0.000227079
0.000227279
0.000227468
0.000227649
0.000227826
0.000228004
0.000228185
0.000228367
0.000228548
0.000228731
0.000228916
0.000229102
0.000229288
0.000229474
0.000229659
0.000229841
0.000230021
0.000230197
0.000230371
0.000230542
0.000230711
0.000230878
0.000231044
0.000231209
0.000231374
0.000231534
0.000231695
0.000231849
0.000232005
0.000232154
0.000232307
0.000232453
0.000232606
0.000232747
0.000232895
0.000233026
0.000233165
0.000233282
0.000233411
0.000233516
0.000233642
0.000233744
0.000233875
0.000233979
0.000234119
0.000234224
0.000234372
0.000234472
0.000234623
0.000234713
0.000234863
0.000234941
0.000235088
0.000235155
0.000235303
0.000235355
0.000235489
3.75966e-06
3.75827e-06
3.75762e-06
3.75644e-06
3.75653e-06
3.75724e-06
3.75997e-06
3.76917e-06
3.788e-06
3.80669e-06
3.83857e-06
3.91438e-06
4.05113e-06
4.15278e-06
4.26396e-06
4.48494e-06
4.87688e-06
5.21908e-06
5.46723e-06
5.81602e-06
6.48009e-06
7.16966e-06
7.59406e-06
8.06319e-06
8.89004e-06
9.7624e-06
1.04249e-05
1.10709e-05
1.1935e-05
1.29008e-05
1.37563e-05
1.45429e-05
1.54316e-05
1.64298e-05
1.74006e-05
1.82955e-05
1.92067e-05
2.01963e-05
2.12116e-05
2.21822e-05
2.31214e-05
2.40857e-05
2.50856e-05
2.60801e-05
2.70452e-05
2.79986e-05
2.89634e-05
2.99318e-05
3.08863e-05
3.18259e-05
3.27621e-05
3.36965e-05
3.46186e-05
3.55222e-05
3.64152e-05
3.73063e-05
3.81907e-05
3.90589e-05
3.99088e-05
4.07469e-05
4.15776e-05
4.23974e-05
4.32014e-05
4.39895e-05
4.47663e-05
4.55335e-05
4.62881e-05
4.70275e-05
4.77522e-05
4.84646e-05
4.91653e-05
4.98532e-05
5.05284e-05
5.11933e-05
5.18502e-05
5.24991e-05
5.31381e-05
5.37669e-05
5.43865e-05
5.49973e-05
5.55987e-05
5.61894e-05
5.67694e-05
5.73407e-05
5.79047e-05
5.84608e-05
5.9007e-05
5.95424e-05
6.00678e-05
6.05834e-05
6.10884e-05
6.15811e-05
6.20604e-05
6.2527e-05
6.29828e-05
6.34281e-05
6.38621e-05
6.42847e-05
6.46966e-05
6.50984e-05
6.54912e-05
6.58753e-05
6.62504e-05
6.66167e-05
6.69746e-05
6.73244e-05
6.76668e-05
6.80016e-05
6.83293e-05
6.865e-05
6.89637e-05
6.9271e-05
6.95717e-05
6.98662e-05
7.0155e-05
7.04381e-05
7.07155e-05
7.09873e-05
7.12534e-05
7.15147e-05
7.17709e-05
7.20224e-05
7.22693e-05
7.25113e-05
7.27486e-05
7.29818e-05
7.32108e-05
7.34359e-05
7.36572e-05
7.38743e-05
7.40871e-05
7.42967e-05
7.45027e-05
7.47053e-05
7.49049e-05
7.51007e-05
7.52932e-05
7.54832e-05
7.56705e-05
7.58549e-05
7.60368e-05
7.6216e-05
7.63922e-05
7.65657e-05
7.67373e-05
7.69062e-05
7.70716e-05
7.72347e-05
7.7395e-05
7.75514e-05
7.77056e-05
7.78572e-05
7.8006e-05
7.81526e-05
7.82962e-05
7.8436e-05
7.85727e-05
7.8705e-05
7.88338e-05
7.89611e-05
7.90857e-05
7.92081e-05
7.93285e-05
7.94453e-05
7.95585e-05
7.96675e-05
7.97724e-05
7.98749e-05
7.9975e-05
8.0074e-05
8.01739e-05
8.02739e-05
8.03736e-05
8.04718e-05
8.05662e-05
8.06558e-05
8.07408e-05
8.0821e-05
8.08983e-05
8.09749e-05
8.10524e-05
8.11325e-05
8.12154e-05
8.13007e-05
8.13889e-05
8.14794e-05
8.15696e-05
8.16588e-05
8.1747e-05
8.18344e-05
8.1923e-05
8.20168e-05
8.21192e-05
8.22328e-05
8.23573e-05
8.24878e-05
8.2616e-05
8.27349e-05
8.28386e-05
8.29226e-05
8.29862e-05
8.3033e-05
8.30661e-05
8.30887e-05
8.31057e-05
8.31216e-05
8.31383e-05
8.31575e-05
8.31822e-05
8.32141e-05
8.3251e-05
8.32915e-05
8.33365e-05
8.33861e-05
8.34372e-05
8.34882e-05
8.35401e-05
8.35939e-05
8.36463e-05
8.3696e-05
8.37441e-05
8.37932e-05
8.38403e-05
8.38841e-05
8.39247e-05
8.39661e-05
8.40067e-05
8.40448e-05
8.40784e-05
8.41112e-05
8.41448e-05
8.4177e-05
8.42074e-05
8.42312e-05
8.42596e-05
8.42812e-05
8.43136e-05
8.43333e-05
8.43652e-05
8.43843e-05
8.4423e-05
8.44491e-05
8.45035e-05
8.45385e-05
8.46064e-05
8.46485e-05
8.47335e-05
8.47893e-05
8.49032e-05
8.49815e-05
3.7595e-06
3.75843e-06
3.75729e-06
3.75637e-06
3.75547e-06
3.75427e-06
3.75311e-06
3.75238e-06
3.7516e-06
3.75038e-06
3.74926e-06
3.74877e-06
3.74836e-06
3.74735e-06
3.74648e-06
3.74644e-06
3.7467e-06
3.74734e-06
3.74792e-06
3.74889e-06
3.75097e-06
3.75559e-06
3.75925e-06
3.76268e-06
3.76961e-06
3.78282e-06
3.79433e-06
3.8026e-06
3.8157e-06
3.84211e-06
3.87071e-06
3.88925e-06
3.90973e-06
3.95361e-06
4.00166e-06
4.04096e-06
4.07891e-06
4.13148e-06
4.20491e-06
4.27602e-06
4.33499e-06
4.39857e-06
4.49072e-06
4.59457e-06
4.68085e-06
4.76424e-06
4.87177e-06
4.99378e-06
5.11206e-06
5.21964e-06
5.33902e-06
5.47982e-06
5.62183e-06
5.75124e-06
5.88294e-06
6.03498e-06
6.19497e-06
6.34825e-06
6.49711e-06
6.65072e-06
6.81688e-06
6.99135e-06
7.15862e-06
7.31717e-06
7.48543e-06
7.66684e-06
7.84754e-06
8.02061e-06
8.19081e-06
8.37025e-06
8.55928e-06
8.744e-06
8.91915e-06
9.09464e-06
9.28272e-06
9.47936e-06
9.66789e-06
9.84786e-06
1.00341e-05
1.02318e-05
1.04325e-05
1.06254e-05
1.08095e-05
1.0998e-05
1.11992e-05
1.14018e-05
1.15938e-05
1.17799e-05
1.19718e-05
1.2171e-05
1.2371e-05
1.25637e-05
1.27488e-05
1.29358e-05
1.31298e-05
1.33223e-05
1.35085e-05
1.36909e-05
1.38727e-05
1.40558e-05
1.42392e-05
1.44197e-05
1.45964e-05
1.47715e-05
1.49466e-05
1.51214e-05
1.52946e-05
1.54652e-05
1.56339e-05
1.58014e-05
1.59684e-05
1.61353e-05
1.63002e-05
1.64619e-05
1.66217e-05
1.67822e-05
1.69442e-05
1.71036e-05
1.72584e-05
1.74116e-05
1.75655e-05
1.77206e-05
1.7876e-05
1.80269e-05
1.81731e-05
1.83194e-05
1.84689e-05
1.86188e-05
1.87659e-05
1.89081e-05
1.90484e-05
1.91908e-05
1.93344e-05
1.94761e-05
1.9615e-05
1.97511e-05
1.98871e-05
2.00241e-05
2.01608e-05
2.02944e-05
2.0426e-05
2.0558e-05
2.06898e-05
2.08199e-05
2.09492e-05
2.10773e-05
2.12021e-05
2.13268e-05
2.14533e-05
2.15772e-05
2.16978e-05
2.18177e-05
2.19375e-05
2.20553e-05
2.21719e-05
2.22877e-05
2.24022e-05
2.25134e-05
2.26237e-05
2.27338e-05
2.28428e-05
2.29489e-05
2.30545e-05
2.31581e-05
2.32601e-05
2.33599e-05
2.34601e-05
2.35593e-05
2.36543e-05
2.37469e-05
2.38396e-05
2.39333e-05
2.40251e-05
2.41166e-05
2.42077e-05
2.42948e-05
2.43794e-05
2.4464e-05
2.45471e-05
2.46269e-05
2.47046e-05
2.47825e-05
2.486e-05
2.49365e-05
2.50176e-05
2.51025e-05
2.51841e-05
2.52603e-05
2.53349e-05
2.54105e-05
2.54869e-05
2.55634e-05
2.56392e-05
2.57171e-05
2.57987e-05
2.58842e-05
2.59728e-05
2.60602e-05
2.61421e-05
2.6217e-05
2.62857e-05
2.63465e-05
2.64e-05
2.64491e-05
2.64944e-05
2.65336e-05
2.65689e-05
2.66036e-05
2.66404e-05
2.66781e-05
2.6717e-05
2.67552e-05
2.67955e-05
2.68354e-05
2.68776e-05
2.69176e-05
2.69628e-05
2.7005e-05
2.70498e-05
2.70893e-05
2.71323e-05
2.71695e-05
2.72107e-05
2.7249e-05
2.72931e-05
2.73279e-05
2.73642e-05
2.73941e-05
2.74332e-05
2.74651e-05
2.75024e-05
2.7529e-05
2.75643e-05
2.75895e-05
2.76247e-05
2.76476e-05
2.76835e-05
2.77062e-05
2.77426e-05
2.77615e-05
2.77949e-05
2.78131e-05
2.785e-05
2.78734e-05
2.79184e-05
2.79422e-05
2.79885e-05
2.80138e-05
2.80656e-05
2.80961e-05
3.75946e-06
3.7584e-06
3.75733e-06
3.75627e-06
3.75523e-06
3.7542e-06
3.75318e-06
3.75217e-06
3.75119e-06
3.75025e-06
3.74932e-06
3.74838e-06
3.74749e-06
3.74667e-06
3.74586e-06
3.74502e-06
3.74422e-06
3.74352e-06
3.74286e-06
3.74214e-06
3.74143e-06
3.74083e-06
3.7403e-06
3.73973e-06
3.73918e-06
3.73868e-06
3.73817e-06
3.73769e-06
3.73736e-06
3.7371e-06
3.73669e-06
3.73621e-06
3.73591e-06
3.73585e-06
3.73583e-06
3.73571e-06
3.73551e-06
3.7355e-06
3.73556e-06
3.73577e-06
3.7361e-06
3.73634e-06
3.73672e-06
3.73736e-06
3.73789e-06
3.73833e-06
3.73929e-06
3.74051e-06
3.74185e-06
3.74279e-06
3.74366e-06
3.74548e-06
3.74793e-06
3.74966e-06
3.75102e-06
3.75369e-06
3.75671e-06
3.75929e-06
3.762e-06
3.76464e-06
3.76799e-06
3.77302e-06
3.77749e-06
3.78039e-06
3.78434e-06
3.78988e-06
3.79555e-06
3.80073e-06
3.80523e-06
3.81087e-06
3.81886e-06
3.82709e-06
3.83346e-06
3.83881e-06
3.84647e-06
3.85697e-06
3.86594e-06
3.87204e-06
3.87902e-06
3.88956e-06
3.90226e-06
3.91342e-06
3.92134e-06
3.93059e-06
3.94476e-06
3.96017e-06
3.97197e-06
3.98208e-06
3.99487e-06
4.01097e-06
4.02801e-06
4.04264e-06
4.05538e-06
4.07044e-06
4.08908e-06
4.10713e-06
4.12327e-06
4.13954e-06
4.15695e-06
4.17556e-06
4.19448e-06
4.21301e-06
4.23151e-06
4.25041e-06
4.26971e-06
4.28929e-06
4.30947e-06
4.33012e-06
4.3504e-06
4.37017e-06
4.39053e-06
4.41246e-06
4.4351e-06
4.45631e-06
4.47613e-06
4.49745e-06
4.52181e-06
4.54616e-06
4.56786e-06
4.58822e-06
4.61029e-06
4.63553e-06
4.66208e-06
4.68577e-06
4.70634e-06
4.72827e-06
4.75459e-06
4.78259e-06
4.80803e-06
4.83013e-06
4.8526e-06
4.87885e-06
4.90738e-06
4.93426e-06
4.95842e-06
4.98196e-06
5.00788e-06
5.03645e-06
5.06478e-06
5.09038e-06
5.11497e-06
5.14149e-06
5.1698e-06
5.19794e-06
5.22541e-06
5.25217e-06
5.27831e-06
5.30568e-06
5.33473e-06
5.3629e-06
5.38945e-06
5.41657e-06
5.44496e-06
5.4732e-06
5.50102e-06
5.52871e-06
5.55608e-06
5.58293e-06
5.61035e-06
5.6386e-06
5.66711e-06
5.69501e-06
5.72232e-06
5.74862e-06
5.77447e-06
5.80096e-06
5.82924e-06
5.8578e-06
5.88466e-06
5.91018e-06
5.93595e-06
5.96262e-06
5.98967e-06
6.01673e-06
6.04298e-06
6.06743e-06
6.09187e-06
6.11837e-06
6.14648e-06
6.17391e-06
6.19945e-06
6.223e-06
6.24558e-06
6.26949e-06
6.29715e-06
6.32638e-06
6.35271e-06
6.3753e-06
6.39846e-06
6.42522e-06
6.45544e-06
6.48453e-06
6.51145e-06
6.53535e-06
6.56135e-06
6.58875e-06
6.62021e-06
6.64942e-06
6.67734e-06
6.70042e-06
6.72392e-06
6.74559e-06
6.76945e-06
6.79113e-06
6.81346e-06
6.83053e-06
6.84836e-06
6.86389e-06
6.88359e-06
6.9017e-06
6.92241e-06
6.93975e-06
6.95901e-06
6.97501e-06
6.99355e-06
7.01079e-06
7.03248e-06
7.05175e-06
7.07302e-06
7.08827e-06
7.10682e-06
7.12178e-06
7.14395e-06
7.1627e-06
7.18493e-06
7.19967e-06
7.21711e-06
7.23033e-06
7.25173e-06
7.26906e-06
7.29112e-06
7.30548e-06
7.3233e-06
7.33628e-06
7.35452e-06
7.37044e-06
7.39104e-06
7.40758e-06
7.42782e-06
7.4409e-06
7.45738e-06
7.47056e-06
7.49012e-06
7.5082e-06
7.53489e-06
7.54908e-06
7.57288e-06
7.58564e-06
7.6099e-06
7.62591e-06
3.75946e-06
3.75839e-06
3.75732e-06
3.75624e-06
3.75519e-06
3.75417e-06
3.75312e-06
3.75209e-06
3.75111e-06
3.75017e-06
3.7492e-06
3.74824e-06
3.74734e-06
3.74651e-06
3.74566e-06
3.74479e-06
3.74397e-06
3.74323e-06
3.74253e-06
3.7418e-06
3.74104e-06
3.74037e-06
3.73979e-06
3.73924e-06
3.73862e-06
3.73797e-06
3.73739e-06
3.73694e-06
3.73652e-06
3.73603e-06
3.73546e-06
3.73493e-06
3.73454e-06
3.73425e-06
3.73393e-06
3.73349e-06
3.733e-06
3.73259e-06
3.73235e-06
3.73219e-06
3.73196e-06
3.73158e-06
3.73114e-06
3.7308e-06
3.73062e-06
3.73054e-06
3.73042e-06
3.73016e-06
3.7298e-06
3.72945e-06
3.72921e-06
3.7291e-06
3.72905e-06
3.72899e-06
3.72886e-06
3.72858e-06
3.72828e-06
3.72803e-06
3.72787e-06
3.72778e-06
3.72776e-06
3.72775e-06
3.72773e-06
3.72768e-06
3.7275e-06
3.72729e-06
3.72716e-06
3.7271e-06
3.72709e-06
3.72709e-06
3.72712e-06
3.72724e-06
3.72738e-06
3.72745e-06
3.72748e-06
3.72748e-06
3.72743e-06
3.72716e-06
3.72662e-06
3.72622e-06
3.72596e-06
3.72581e-06
3.72574e-06
3.72572e-06
3.72573e-06
3.72575e-06
3.7258e-06
3.72584e-06
3.72591e-06
3.72605e-06
3.72638e-06
3.72673e-06
3.7271e-06
3.72757e-06
3.72816e-06
3.72874e-06
3.72928e-06
3.72981e-06
3.73038e-06
3.73097e-06
3.73154e-06
3.73208e-06
3.73261e-06
3.73311e-06
3.73361e-06
3.73409e-06
3.73457e-06
3.73504e-06
3.73549e-06
3.73589e-06
3.73628e-06
3.73669e-06
3.73712e-06
3.73751e-06
3.73782e-06
3.73814e-06
3.73855e-06
3.73896e-06
3.73928e-06
3.73952e-06
3.73979e-06
3.74017e-06
3.7406e-06
3.74092e-06
3.7411e-06
3.74131e-06
3.74167e-06
3.7421e-06
3.74244e-06
3.74265e-06
3.74287e-06
3.74321e-06
3.74363e-06
3.74397e-06
3.74421e-06
3.74443e-06
3.74475e-06
3.74518e-06
3.74558e-06
3.74587e-06
3.74612e-06
3.74643e-06
3.74682e-06
3.74722e-06
3.74759e-06
3.74794e-06
3.74829e-06
3.74869e-06
3.74913e-06
3.74954e-06
3.74991e-06
3.75029e-06
3.75072e-06
3.75117e-06
3.75161e-06
3.75203e-06
3.75244e-06
3.75285e-06
3.75328e-06
3.75374e-06
3.75421e-06
3.75465e-06
3.75506e-06
3.75544e-06
3.75583e-06
3.75627e-06
3.75678e-06
3.75729e-06
3.75774e-06
3.75813e-06
3.75851e-06
3.75891e-06
3.75934e-06
3.75978e-06
3.76021e-06
3.76063e-06
3.76108e-06
3.76159e-06
3.76213e-06
3.76261e-06
3.76301e-06
3.76332e-06
3.76364e-06
3.76403e-06
3.76453e-06
3.76511e-06
3.76567e-06
3.76619e-06
3.76673e-06
3.7673e-06
3.7679e-06
3.7685e-06
3.76906e-06
3.76963e-06
3.77022e-06
3.77085e-06
3.77148e-06
3.77201e-06
3.77242e-06
3.77268e-06
3.77281e-06
3.77288e-06
3.77293e-06
3.77302e-06
3.77321e-06
3.77373e-06
3.77526e-06
3.77925e-06
3.78388e-06
3.78843e-06
3.79274e-06
3.79669e-06
3.80022e-06
3.8033e-06
3.80595e-06
3.80821e-06
3.81011e-06
3.81166e-06
3.81289e-06
3.81383e-06
3.81451e-06
3.81498e-06
3.81529e-06
3.81546e-06
3.81554e-06
3.81556e-06
3.81555e-06
3.81553e-06
3.81542e-06
3.8152e-06
3.81503e-06
3.81487e-06
3.81469e-06
3.81453e-06
3.81441e-06
3.81435e-06
3.81431e-06
3.81431e-06
3.81433e-06
3.81436e-06
3.81444e-06
3.81453e-06
3.81472e-06
3.81489e-06
3.81526e-06
3.81552e-06
3.81606e-06
3.81641e-06
3.81714e-06
3.81761e-06
3.75946e-06
3.75839e-06
3.75732e-06
3.75624e-06
3.75519e-06
3.75417e-06
3.75312e-06
3.75209e-06
3.75111e-06
3.75017e-06
3.7492e-06
3.74824e-06
3.74734e-06
3.74651e-06
3.74566e-06
3.74479e-06
3.74397e-06
3.74323e-06
3.74253e-06
3.7418e-06
3.74104e-06
3.74037e-06
3.73979e-06
3.73924e-06
3.73862e-06
3.73797e-06
3.73739e-06
3.73694e-06
3.73652e-06
3.73603e-06
3.73546e-06
3.73493e-06
3.73454e-06
3.73425e-06
3.73393e-06
3.73349e-06
3.733e-06
3.7326e-06
3.73235e-06
3.73219e-06
3.73196e-06
3.73158e-06
3.73114e-06
3.7308e-06
3.73062e-06
3.73054e-06
3.73042e-06
3.73016e-06
3.7298e-06
3.72945e-06
3.72921e-06
3.72909e-06
3.72905e-06
3.72899e-06
3.72886e-06
3.72858e-06
3.72828e-06
3.72803e-06
3.72787e-06
3.72778e-06
3.72776e-06
3.72775e-06
3.72773e-06
3.72768e-06
3.7275e-06
3.72729e-06
3.72716e-06
3.7271e-06
3.72709e-06
3.72709e-06
3.72712e-06
3.72724e-06
3.72737e-06
3.72745e-06
3.72748e-06
3.72748e-06
3.72743e-06
3.72716e-06
3.72662e-06
3.72622e-06
3.72595e-06
3.7258e-06
3.72574e-06
3.72572e-06
3.72572e-06
3.72575e-06
3.7258e-06
3.72584e-06
3.7259e-06
3.72605e-06
3.72638e-06
3.72673e-06
3.7271e-06
3.72758e-06
3.72816e-06
3.72874e-06
3.72928e-06
3.72981e-06
3.73038e-06
3.73097e-06
3.73154e-06
3.73209e-06
3.73261e-06
3.73311e-06
3.73361e-06
3.73409e-06
3.73457e-06
3.73504e-06
3.73549e-06
3.73589e-06
3.73628e-06
3.73669e-06
3.73712e-06
3.73751e-06
3.73782e-06
3.73814e-06
3.73855e-06
3.73896e-06
3.73928e-06
3.73952e-06
3.73979e-06
3.74017e-06
3.7406e-06
3.74092e-06
3.7411e-06
3.74131e-06
3.74167e-06
3.7421e-06
3.74244e-06
3.74265e-06
3.74287e-06
3.74321e-06
3.74363e-06
3.74397e-06
3.74421e-06
3.74442e-06
3.74475e-06
3.74518e-06
3.74558e-06
3.74587e-06
3.74612e-06
3.74643e-06
3.74682e-06
3.74722e-06
3.74759e-06
3.74794e-06
3.74828e-06
3.74868e-06
3.74912e-06
3.74953e-06
3.7499e-06
3.75028e-06
3.75071e-06
3.75116e-06
3.75159e-06
3.75202e-06
3.75243e-06
3.75284e-06
3.75327e-06
3.75373e-06
3.75419e-06
3.75463e-06
3.75503e-06
3.75541e-06
3.7558e-06
3.75624e-06
3.75674e-06
3.75725e-06
3.7577e-06
3.75809e-06
3.75846e-06
3.75886e-06
3.75928e-06
3.75972e-06
3.76015e-06
3.76057e-06
3.76101e-06
3.76152e-06
3.76204e-06
3.76252e-06
3.76291e-06
3.76323e-06
3.76353e-06
3.76391e-06
3.76441e-06
3.76498e-06
3.76553e-06
3.76604e-06
3.76656e-06
3.76712e-06
3.76771e-06
3.76829e-06
3.76885e-06
3.7694e-06
3.76999e-06
3.77061e-06
3.77121e-06
3.77173e-06
3.77212e-06
3.77236e-06
3.77248e-06
3.77253e-06
3.77257e-06
3.77265e-06
3.77282e-06
3.7733e-06
3.77474e-06
3.77864e-06
3.78329e-06
3.78781e-06
3.7921e-06
3.79603e-06
3.79952e-06
3.80257e-06
3.80518e-06
3.80739e-06
3.80925e-06
3.81076e-06
3.81195e-06
3.81283e-06
3.81345e-06
3.81384e-06
3.81405e-06
3.81414e-06
3.81416e-06
3.81415e-06
3.81412e-06
3.81401e-06
3.81375e-06
3.81343e-06
3.81316e-06
3.81288e-06
3.81261e-06
3.81234e-06
3.8121e-06
3.8119e-06
3.81174e-06
3.81161e-06
3.81145e-06
3.81134e-06
3.81127e-06
3.81119e-06
3.8112e-06
3.81123e-06
3.81133e-06
3.81145e-06
3.81172e-06
3.81193e-06
3.81234e-06
3.81265e-06
3.75947e-06
3.7584e-06
3.75733e-06
3.75627e-06
3.75523e-06
3.7542e-06
3.75318e-06
3.75216e-06
3.75119e-06
3.75025e-06
3.74932e-06
3.74838e-06
3.74749e-06
3.74667e-06
3.74586e-06
3.74502e-06
3.74422e-06
3.74352e-06
3.74286e-06
3.74214e-06
3.74142e-06
3.74083e-06
3.74029e-06
3.73973e-06
3.73918e-06
3.73868e-06
3.73817e-06
3.73769e-06
3.73736e-06
3.7371e-06
3.73669e-06
3.73621e-06
3.73591e-06
3.73585e-06
3.73583e-06
3.73571e-06
3.7355e-06
3.7355e-06
3.73556e-06
3.73577e-06
3.7361e-06
3.73634e-06
3.73672e-06
3.73736e-06
3.73789e-06
3.73833e-06
3.73929e-06
3.74051e-06
3.74186e-06
3.74279e-06
3.74367e-06
3.74548e-06
3.74793e-06
3.74966e-06
3.75102e-06
3.7537e-06
3.75671e-06
3.75929e-06
3.76201e-06
3.76463e-06
3.768e-06
3.77303e-06
3.7775e-06
3.78039e-06
3.78435e-06
3.78987e-06
3.79555e-06
3.80074e-06
3.80523e-06
3.81089e-06
3.81888e-06
3.82709e-06
3.83349e-06
3.83882e-06
3.84649e-06
3.85698e-06
3.86595e-06
3.87202e-06
3.87904e-06
3.88953e-06
3.90228e-06
3.91341e-06
3.92136e-06
3.93059e-06
3.9448e-06
3.96019e-06
3.97199e-06
3.98211e-06
3.9949e-06
4.011e-06
4.02804e-06
4.04267e-06
4.05539e-06
4.07048e-06
4.08911e-06
4.10714e-06
4.1233e-06
4.13955e-06
4.15696e-06
4.1756e-06
4.1945e-06
4.21304e-06
4.23153e-06
4.25043e-06
4.26974e-06
4.2893e-06
4.30951e-06
4.33014e-06
4.3504e-06
4.3702e-06
4.39053e-06
4.41248e-06
4.43512e-06
4.45634e-06
4.47613e-06
4.49746e-06
4.52183e-06
4.54617e-06
4.56786e-06
4.58825e-06
4.61029e-06
4.63553e-06
4.66208e-06
4.68577e-06
4.7063e-06
4.72828e-06
4.75459e-06
4.78256e-06
4.80803e-06
4.83009e-06
4.85255e-06
4.87885e-06
4.90733e-06
4.93422e-06
4.9584e-06
4.98191e-06
5.0078e-06
5.03641e-06
5.06471e-06
5.0903e-06
5.11489e-06
5.14142e-06
5.1697e-06
5.19781e-06
5.2253e-06
5.25205e-06
5.27813e-06
5.30552e-06
5.33461e-06
5.36269e-06
5.38924e-06
5.41638e-06
5.44471e-06
5.47291e-06
5.50075e-06
5.52843e-06
5.55574e-06
5.5826e-06
5.60997e-06
5.63824e-06
5.66665e-06
5.69458e-06
5.72179e-06
5.74814e-06
5.77388e-06
5.80035e-06
5.82864e-06
5.85712e-06
5.88393e-06
5.90936e-06
5.93516e-06
5.96175e-06
5.98868e-06
6.0158e-06
6.04195e-06
6.06628e-06
6.0907e-06
6.11714e-06
6.14515e-06
6.17242e-06
6.19793e-06
6.22146e-06
6.24386e-06
6.26768e-06
6.29538e-06
6.32447e-06
6.35061e-06
6.37312e-06
6.39613e-06
6.42279e-06
6.45272e-06
6.48178e-06
6.50838e-06
6.53236e-06
6.55786e-06
6.58546e-06
6.61648e-06
6.64583e-06
6.67321e-06
6.6964e-06
6.71955e-06
6.74106e-06
6.76448e-06
6.78624e-06
6.80791e-06
6.825e-06
6.84218e-06
6.85768e-06
6.87683e-06
6.8948e-06
6.91489e-06
6.93206e-06
6.95083e-06
6.96649e-06
6.98451e-06
7.00129e-06
7.02265e-06
7.04138e-06
7.06188e-06
7.07705e-06
7.0945e-06
7.10948e-06
7.13028e-06
7.14904e-06
7.17022e-06
7.18435e-06
7.20082e-06
7.21375e-06
7.23372e-06
7.25072e-06
7.27145e-06
7.28526e-06
7.30165e-06
7.31408e-06
7.33075e-06
7.34604e-06
7.36498e-06
7.38075e-06
7.39925e-06
7.41141e-06
7.42623e-06
7.43802e-06
7.45601e-06
7.47272e-06
7.49748e-06
7.51054e-06
7.5319e-06
7.54326e-06
7.5657e-06
7.57977e-06
3.7595e-06
3.75843e-06
3.75729e-06
3.75637e-06
3.75547e-06
3.75427e-06
3.75311e-06
3.75238e-06
3.7516e-06
3.75038e-06
3.74926e-06
3.74877e-06
3.74835e-06
3.74735e-06
3.74648e-06
3.74644e-06
3.7467e-06
3.74734e-06
3.74793e-06
3.74889e-06
3.75097e-06
3.75559e-06
3.75926e-06
3.76269e-06
3.76962e-06
3.78283e-06
3.79435e-06
3.80262e-06
3.81573e-06
3.84212e-06
3.87074e-06
3.88928e-06
3.90977e-06
3.95367e-06
4.00165e-06
4.04104e-06
4.07892e-06
4.13156e-06
4.20498e-06
4.27604e-06
4.3351e-06
4.39862e-06
4.49084e-06
4.59466e-06
4.68087e-06
4.76434e-06
4.87184e-06
4.99387e-06
5.11219e-06
5.21968e-06
5.33913e-06
5.47989e-06
5.62193e-06
5.75138e-06
5.88304e-06
6.03514e-06
6.19507e-06
6.3483e-06
6.49721e-06
6.65083e-06
6.81703e-06
6.99156e-06
7.15878e-06
7.31728e-06
7.48555e-06
7.66688e-06
7.84761e-06
8.02073e-06
8.19095e-06
8.3705e-06
8.55958e-06
8.74424e-06
8.91939e-06
9.09473e-06
9.28274e-06
9.47929e-06
9.66779e-06
9.84769e-06
1.0034e-05
1.02317e-05
1.04325e-05
1.06255e-05
1.08096e-05
1.09982e-05
1.11994e-05
1.1402e-05
1.15941e-05
1.17802e-05
1.19721e-05
1.21712e-05
1.23712e-05
1.25638e-05
1.27489e-05
1.2936e-05
1.31299e-05
1.33225e-05
1.35086e-05
1.36911e-05
1.38727e-05
1.40559e-05
1.42393e-05
1.44198e-05
1.45965e-05
1.47715e-05
1.49466e-05
1.51215e-05
1.52946e-05
1.54653e-05
1.5634e-05
1.58014e-05
1.59684e-05
1.61353e-05
1.63002e-05
1.64619e-05
1.66216e-05
1.67822e-05
1.69442e-05
1.71036e-05
1.72584e-05
1.74116e-05
1.75654e-05
1.77206e-05
1.78759e-05
1.80269e-05
1.81729e-05
1.83194e-05
1.84688e-05
1.86187e-05
1.87659e-05
1.89079e-05
1.90482e-05
1.91907e-05
1.93342e-05
1.9476e-05
1.96149e-05
1.97509e-05
1.98868e-05
2.00239e-05
2.01605e-05
2.02941e-05
2.04257e-05
2.05577e-05
2.06895e-05
2.08194e-05
2.09487e-05
2.10769e-05
2.12015e-05
2.13263e-05
2.14528e-05
2.15765e-05
2.16971e-05
2.1817e-05
2.19367e-05
2.20544e-05
2.2171e-05
2.22868e-05
2.24012e-05
2.25124e-05
2.26224e-05
2.27328e-05
2.28412e-05
2.29478e-05
2.30528e-05
2.31568e-05
2.32584e-05
2.33581e-05
2.34584e-05
2.35573e-05
2.36522e-05
2.37445e-05
2.38374e-05
2.39308e-05
2.40223e-05
2.41141e-05
2.42048e-05
2.42917e-05
2.43762e-05
2.44605e-05
2.45436e-05
2.46229e-05
2.47004e-05
2.47785e-05
2.48555e-05
2.49317e-05
2.5013e-05
2.50975e-05
2.51785e-05
2.52547e-05
2.53288e-05
2.5404e-05
2.54801e-05
2.55561e-05
2.56317e-05
2.57092e-05
2.57905e-05
2.58755e-05
2.59639e-05
2.60511e-05
2.61321e-05
2.62069e-05
2.62751e-05
2.6335e-05
2.63879e-05
2.64368e-05
2.6481e-05
2.65194e-05
2.65545e-05
2.65881e-05
2.66239e-05
2.66615e-05
2.66991e-05
2.67362e-05
2.67759e-05
2.68155e-05
2.6855e-05
2.68953e-05
2.69391e-05
2.69803e-05
2.70228e-05
2.70624e-05
2.71037e-05
2.71392e-05
2.71785e-05
2.72167e-05
2.72581e-05
2.72914e-05
2.73257e-05
2.73549e-05
2.73908e-05
2.74214e-05
2.74561e-05
2.74817e-05
2.75132e-05
2.75369e-05
2.75688e-05
2.75905e-05
2.76221e-05
2.76429e-05
2.76754e-05
2.76924e-05
2.77211e-05
2.77368e-05
2.77689e-05
2.779e-05
2.78295e-05
2.78503e-05
2.78906e-05
2.79128e-05
2.79584e-05
2.79856e-05
3.75966e-06
3.75827e-06
3.75762e-06
3.75644e-06
3.75653e-06
3.75725e-06
3.75999e-06
3.76919e-06
3.78804e-06
3.80675e-06
3.83865e-06
3.91451e-06
4.05129e-06
4.15296e-06
4.26418e-06
4.48521e-06
4.8772e-06
5.21939e-06
5.46757e-06
5.81641e-06
6.48053e-06
7.17007e-06
7.59445e-06
8.06362e-06
8.89054e-06
9.7629e-06
1.04254e-05
1.10713e-05
1.19354e-05
1.29012e-05
1.37567e-05
1.45433e-05
1.5432e-05
1.64302e-05
1.7401e-05
1.8296e-05
1.92072e-05
2.01968e-05
2.12121e-05
2.21826e-05
2.31218e-05
2.40861e-05
2.5086e-05
2.60803e-05
2.70454e-05
2.79988e-05
2.89636e-05
2.9932e-05
3.08865e-05
3.18261e-05
3.27622e-05
3.36967e-05
3.46188e-05
3.55225e-05
3.64155e-05
3.73065e-05
3.81909e-05
3.9059e-05
3.9909e-05
4.07472e-05
4.1578e-05
4.23979e-05
4.32018e-05
4.39898e-05
4.47665e-05
4.55337e-05
4.62884e-05
4.70279e-05
4.77527e-05
4.84652e-05
4.91659e-05
4.98537e-05
5.05287e-05
5.11932e-05
5.18499e-05
5.24988e-05
5.31377e-05
5.37666e-05
5.43862e-05
5.49971e-05
5.55985e-05
5.61894e-05
5.67694e-05
5.73408e-05
5.7905e-05
5.84612e-05
5.90074e-05
5.95429e-05
6.00683e-05
6.0584e-05
6.1089e-05
6.15817e-05
6.20608e-05
6.25274e-05
6.29832e-05
6.34285e-05
6.38624e-05
6.4285e-05
6.46968e-05
6.50986e-05
6.54914e-05
6.58754e-05
6.62505e-05
6.66168e-05
6.69746e-05
6.73245e-05
6.76669e-05
6.80017e-05
6.83294e-05
6.86501e-05
6.89638e-05
6.9271e-05
6.95717e-05
6.98662e-05
7.0155e-05
7.0438e-05
7.07155e-05
7.09872e-05
7.12534e-05
7.15146e-05
7.17708e-05
7.20222e-05
7.22692e-05
7.25111e-05
7.27484e-05
7.29816e-05
7.32107e-05
7.34357e-05
7.36571e-05
7.3874e-05
7.40869e-05
7.42965e-05
7.45024e-05
7.4705e-05
7.49046e-05
7.51004e-05
7.52929e-05
7.54828e-05
7.567e-05
7.58544e-05
7.60363e-05
7.62155e-05
7.63916e-05
7.6565e-05
7.67366e-05
7.69054e-05
7.70707e-05
7.72338e-05
7.73939e-05
7.75503e-05
7.77044e-05
7.78559e-05
7.80046e-05
7.81512e-05
7.82945e-05
7.84343e-05
7.8571e-05
7.87029e-05
7.88318e-05
7.8959e-05
7.90833e-05
7.92057e-05
7.93258e-05
7.94425e-05
7.95556e-05
7.96642e-05
7.9769e-05
7.98714e-05
7.99711e-05
8.00701e-05
8.01697e-05
8.02693e-05
8.03689e-05
8.04668e-05
8.05608e-05
8.06502e-05
8.07347e-05
8.08145e-05
8.08916e-05
8.09678e-05
8.10449e-05
8.11248e-05
8.12072e-05
8.12919e-05
8.13798e-05
8.14697e-05
8.15592e-05
8.16478e-05
8.17354e-05
8.18221e-05
8.19103e-05
8.20035e-05
8.21052e-05
8.2218e-05
8.23421e-05
8.24717e-05
8.25989e-05
8.27171e-05
8.28198e-05
8.29025e-05
8.29651e-05
8.30109e-05
8.30427e-05
8.30638e-05
8.30797e-05
8.30945e-05
8.31095e-05
8.3127e-05
8.31506e-05
8.31811e-05
8.3216e-05
8.32545e-05
8.32981e-05