/*--------------------------------*- C++ -*----------------------------------*\
  =========                 |
  \\      /  F ield         | OpenFOAM: The Open Source CFD Toolbox
   \\    /   O peration     | Website:  https://openfoam.org
    \\  /    A nd           | Version:  7
     \\/     M anipulation  |
\*---------------------------------------------------------------------------*/
FoamFile
{
    version     2.0;
    format      ascii;
    class       volScalarField;
    location    "0.21";
    object      k;
}
// * * * * * * * * * * * * * * * * * * * * * * * * * * * * * * * * * * * * * //

dimensions      [0 2 -2 0 0 0 0];

internalField   nonuniform List<scalar> 
1352
(
8.06126
9.56591
8.30885
6.34463
5.13202
4.3554
1.06473
3.1119
3.89177
3.87609
3.73261
3.54103
0.0326226
0.239618
0.524406
0.705929
0.764542
0.792342
0.000396138
0.00835281
0.0273431
0.068247
0.0873457
0.101279
2.43922e-05
0.000183601
0.000751407
0.00273154
0.00399235
0.00577904
2.05191e-05
3.95518e-05
0.000108605
0.000209317
0.000511112
0.000517282
0.000170407
0.00283006
0.0103998
0.0161758
0.0272423
0.0323812
0.0232058
0.162797
0.369472
0.503265
0.58673
0.635485
0.997825
2.74732
3.52473
3.61653
3.55322
3.40717
7.78764
8.90151
7.6884
5.90242
4.69859
4.01404
0.0090956
0.0295738
0.0359614
0.0383819
0.0409319
0.0424039
0.0446602
0.0479125
0.0514682
0.0576125
0.0646045
0.0703458
0.0733883
0.0733107
0.0712065
0.0640066
0.0563462
0.0572052
0.061766
0.0727116
0.0873767
0.103886
0.126793
0.146902
0.151111
0.14877
0.137646
0.118065
0.108151
0.113087
0.125955
0.148176
0.173329
0.183096
0.165908
0.128688
0.14317
0.64439
1.57484
2.1195
2.31079
2.33575
2.11225
1.79682
1.42314
1.11901
0.8526
0.659559
0.545647
0.489675
0.47264
0.526792
0.665913
0.877349
1.07359
1.15182
1.15605
1.07362
0.758711
0.429586
0.0475416
0.0467619
0.0376875
0.0273637
0.0216256
0.0185729
0.0166538
0.0157991
0.0150268
0.0144514
0.0145541
0.0162043
0.0189872
0.0237325
0.0259227
0.0265184
0.0283825
0.0328852
0.0368912
0.0390886
0.0388678
0.0377414
0.0384019
0.0408212
0.0458042
0.051754
0.0546742
0.0576257
0.0644633
0.0792453
0.105454
0.137218
0.168772
0.184183
0.216221
0.522668
0.92339
1.09052
1.21497
1.10304
0.908625
0.763523
0.694075
0.675965
0.7299
0.754569
0.770295
0.777786
0.759558
0.719353
0.67537
0.631828
0.593579
0.562087
0.528302
0.516684
0.502713
0.48968
0.462707
0.36442
0.0773812
0.0401886
0.0215011
0.0174426
0.0157359
0.01476
0.0145589
0.0150628
0.0159368
0.016894
0.0187233
0.0217281
0.0273149
0.034001
0.0480536
0.0694911
0.082748
0.0880642
0.0886196
0.0876484
0.0845478
0.0807274
0.0753998
0.067334
0.0656888
0.0693267
0.08449
0.122564
0.196662
0.276207
0.343067
0.376555
0.381963
0.412961
0.5329
0.722487
0.812632
0.805192
0.689769
0.653656
0.644075
0.69057
0.764792
0.816398
0.852706
0.86613
0.868104
0.853013
0.819297
0.759992
0.686642
0.628952
0.57839
0.544899
0.516102
0.437472
0.36404
0.365085
0.39779
0.371503
0.0483124
0.0217901
0.0182403
0.0180186
0.0180628
0.0182473
0.0212997
0.0267003
0.0320711
0.0378283
0.0452938
0.0536209
0.0642534
0.0770963
0.0880044
0.0953147
0.100393
0.103102
0.104215
0.103676
0.102562
0.100814
0.100238
0.101555
0.111028
0.147149
0.224369
0.293689
0.328581
0.344491
0.350945
0.361669
0.384866
0.430052
0.511235
0.568757
0.571156
0.576906
0.567554
0.595743
0.647218
0.712688
0.772533
0.809157
0.821284
0.813148
0.775097
0.730125
0.686245
0.62746
0.53191
0.467042
0.437523
0.411177
0.399772
0.380304
0.348266
0.3516
0.396736
0.392407
0.0242673
0.0216846
0.021886
0.0223819
0.0230087
0.0244525
0.0279881
0.0329917
0.039047
0.0462154
0.054242
0.0628247
0.070933
0.0779839
0.083657
0.0880438
0.0902477
0.0916728
0.0936471
0.0969996
0.102728
0.111759
0.126095
0.147264
0.17623
0.210125
0.243077
0.267567
0.284015
0.305239
0.3244
0.34717
0.379952
0.425421
0.481459
0.524515
0.549304
0.573342
0.586333
0.626016
0.70569
0.759171
0.774537
0.773704
0.764213
0.737288
0.670255
0.575089
0.498341
0.436656
0.35862
0.294807
0.288108
0.305576
0.319599
0.307504
0.29084
0.299286
0.371318
0.397812
0.0180738
0.0239991
0.0247413
0.0243817
0.025357
0.0275846
0.0312676
0.036841
0.044602
0.054715
0.0662952
0.0776929
0.0870204
0.0956866
0.106459
0.118793
0.130154
0.139125
0.145997
0.152694
0.162875
0.178634
0.199114
0.222606
0.247793
0.270226
0.291657
0.316611
0.350424
0.39004
0.426807
0.461285
0.494666
0.534034
0.581403
0.626865
0.673096
0.731221
0.791626
0.844033
0.847111
0.820729
0.765982
0.689906
0.628103
0.5624
0.476021
0.377267
0.286966
0.206297
0.155258
0.141374
0.147963
0.173316
0.227742
0.239221
0.227593
0.227646
0.295954
0.379027
0.0235461
0.0232127
0.0247792
0.0275743
0.031742
0.0377848
0.0451355
0.0539223
0.0645695
0.0773038
0.0923208
0.107807
0.121718
0.134638
0.149596
0.173054
0.211191
0.265149
0.320445
0.361641
0.399099
0.449087
0.510089
0.571879
0.614601
0.62836
0.581863
0.513938
0.499069
0.56382
0.655841
0.729678
0.778813
0.809582
0.835615
0.863953
0.899576
0.916737
0.916052
0.884019
0.785514
0.673759
0.544863
0.425414
0.334674
0.259917
0.192139
0.131711
0.0959268
0.07661
0.0783191
0.09023
0.110322
0.141319
0.18675
0.204812
0.196169
0.179133
0.199989
0.316754
0.0722241
0.0626348
0.0767132
0.0917344
0.118587
0.155482
0.200851
0.255087
0.315679
0.37605
0.423825
0.449627
0.453226
0.430345
0.386758
0.343701
0.319916
0.328524
0.379233
0.457822
0.566808
0.691111
0.814347
0.922686
1.00446
1.05922
1.07571
1.0255
0.848798
0.705789
0.681477
0.718578
0.803698
0.874417
0.919606
0.932245
0.92796
0.889708
0.826391
0.723133
0.554956
0.372605
0.241238
0.157907
0.108285
0.079743
0.0624625
0.0524181
0.0510078
0.0548905
0.0675941
0.110093
0.157916
0.165881
0.183167
0.191991
0.187397
0.152794
0.15075
0.209626
0.600998
0.523639
0.492301
0.482894
0.498069
0.552952
0.641089
0.757421
0.883991
1.00534
1.09136
1.14029
1.15301
1.14463
1.09962
0.993652
0.848084
0.700042
0.617047
0.608383
0.633552
0.719509
0.833864
0.944976
1.01939
1.05973
1.09338
1.11773
1.11878
1.07993
0.8696
0.762142
0.759139
0.780625
0.798287
0.79285
0.753222
0.705389
0.653572
0.539228
0.379422
0.229846
0.130595
0.0829732
0.0591091
0.0478728
0.043651
0.0440084
0.0475493
0.064407
0.11513
0.248079
0.298343
0.287196
0.239439
0.21353
0.195323
0.14078
0.11953
0.134282
2.9829
2.38187
2.03726
1.81213
1.66331
1.584
1.55568
1.54308
1.52751
1.49765
1.46172
1.42229
1.3887
1.36377
1.35208
1.34473
1.33505
1.31604
1.26075
1.1526
1.07142
1.0468
1.0477
1.04319
1.01956
0.942858
0.842218
0.825262
0.853174
1.00504
1.04976
1.02036
0.916695
0.836189
0.783402
0.742839
0.709616
0.66159
0.585177
0.416247
0.227254
0.11919
0.0749186
0.0564346
0.0473758
0.042995
0.0428713
0.0457399
0.0640266
0.133401
0.319208
0.508378
0.520785
0.486953
0.377071
0.288741
0.223485
0.148984
0.111862
0.112358
3.11791
2.77576
2.5017
2.27937
2.09171
1.92848
1.77752
1.63141
1.49126
1.35151
1.22117
1.09844
1.00236
0.927471
0.88508
0.884649
0.898589
0.937297
0.998357
1.02464
1.02354
1.01369
0.981051
0.912547
0.765309
0.629455
0.51029
0.392583
0.360497
0.373498
0.421054
0.582681
0.700954
0.715622
0.704975
0.676627
0.619265
0.510415
0.323243
0.171553
0.0935345
0.0617893
0.053661
0.0500082
0.046597
0.046922
0.0501105
0.0668763
0.143052
0.382821
0.705995
0.807856
0.789756
0.722312
0.552405
0.392029
0.269291
0.166153
0.115223
0.110402
0.755302
0.704564
0.655117
0.608348
0.565784
0.525842
0.486959
0.44626
0.402962
0.357593
0.31413
0.273298
0.2423
0.216512
0.203477
0.203706
0.207778
0.218015
0.234494
0.266399
0.286415
0.286137
0.275924
0.245009
0.198183
0.150623
0.114719
0.0897507
0.0771331
0.0771964
0.0819119
0.0990937
0.134771
0.20898
0.227971
0.21872
0.186741
0.128018
0.0818605
0.0547555
0.0469622
0.0473117
0.0506798
0.0593868
0.0659507
0.0733347
0.0903012
0.157095
0.428916
0.84867
0.954732
0.938478
0.893108
0.800932
0.633879
0.467333
0.319668
0.194543
0.125151
0.111098
0.0981488
0.0908592
0.0829702
0.07502
0.067742
0.0611854
0.0552231
0.0498336
0.0446188
0.0394823
0.0348362
0.030711
0.0267482
0.0243519
0.0241244
0.0247204
0.025836
0.0276648
0.0309436
0.0346453
0.0367741
0.0374363
0.0358985
0.0318454
0.0266668
0.0213914
0.0171986
0.0158852
0.0154812
0.0153171
0.0156536
0.0168604
0.0197301
0.0268728
0.0286121
0.0281334
0.0278227
0.0291756
0.031371
0.0352768
0.042951
0.0598226
0.0944603
0.12123
0.137143
0.155223
0.20591
0.427772
0.970081
1.04256
1.00988
0.936489
0.844642
0.753467
0.612761
0.4608
0.31677
0.196721
0.129344
0.109337
0.00562509
0.00508129
0.00450107
0.00393278
0.0034114
0.00297195
0.00263523
0.00241959
0.00233097
0.00230436
0.00230799
0.00233777
0.00242687
0.00256016
0.00278164
0.00315389
0.00372612
0.00443247
0.00499033
0.00529928
0.00545701
0.0055527
0.00562454
0.0057106
0.00588711
0.00627139
0.00680172
0.00832672
0.00996009
0.0107974
0.0109547
0.0105932
0.00981196
0.00976922
0.0100858
0.0113947
0.0168632
0.0285554
0.0464256
0.0705057
0.111352
0.183483
0.242212
0.279226
0.303029
0.340402
0.50003
1.02663
1.17594
1.05602
0.835325
0.751514
0.710827
0.64101
0.543204
0.425633
0.304671
0.205818
0.146264
0.121102
0.000782437
0.000974126
0.00119973
0.00141229
0.00160934
0.00179901
0.00201024
0.0022154
0.00242857
0.00274627
0.00323666
0.00388427
0.00472338
0.00565343
0.00657804
0.00738205
0.0081671
0.00901069
0.00989568
0.0108356
0.0117031
0.0121753
0.0122699
0.0128798
0.0160542
0.0199864
0.0247649
0.0311701
0.0366587
0.0386202
0.0384572
0.0377585
0.037053
0.0370367
0.0400763
0.051654
0.0901188
0.149877
0.221917
0.326189
0.450551
0.595534
0.665333
0.706339
0.730687
0.796484
1.071
1.3255
1.0404
0.616243
0.561872
0.613915
0.606331
0.56525
0.50164
0.416028
0.333283
0.27245
0.204605
0.173132
0.0393577
0.044308
0.0485143
0.05199
0.0547066
0.0565346
0.057552
0.0581378
0.0586891
0.0604892
0.0639651
0.0694208
0.0760079
0.0830187
0.0886479
0.0924846
0.0952621
0.0986268
0.103738
0.110566
0.118486
0.125232
0.13196
0.14269
0.158817
0.177352
0.19699
0.216715
0.230314
0.236696
0.237745
0.238334
0.243534
0.261582
0.321966
0.398552
0.589037
0.805956
1.03821
1.28339
1.44869
1.4542
1.40982
1.34877
1.31684
1.30366
1.17166
0.593261
0.465833
0.476686
0.464025
0.457774
0.483406
0.493921
0.46856
0.426185
0.36669
0.29521
0.249953
0.262202
0.666954
0.679315
0.67915
0.675602
0.669401
0.660041
0.645572
0.632765
0.623706
0.621011
0.622925
0.629871
0.639188
0.650463
0.6595
0.668607
0.678677
0.694545
0.717172
0.744561
0.77905
0.818896
0.870866
0.929979
0.99501
1.05555
1.10125
1.13808
1.15291
1.16959
1.18622
1.21268
1.28971
1.37074
1.52995
1.7416
1.86521
1.95083
1.95446
1.89853
1.72602
1.55272
1.42863
1.20644
0.814613
0.685944
0.471071
0.318396
0.423453
0.541699
0.505288
0.423285
0.394631
0.408689
0.419684
0.397202
0.346968
0.324196
0.349406
0.467142
3.10238
2.8343
2.62449
2.46184
2.34112
2.25389
2.19358
2.15381
2.13108
2.11949
2.11944
2.12338
2.1305
2.14116
2.15516
2.17128
2.19019
2.20965
2.2316
2.25573
2.28129
2.30681
2.3303
2.34673
2.35278
2.34966
2.33654
2.32168
2.31215
2.31118
2.31556
2.32612
2.33869
2.33329
2.28555
2.14708
1.92426
1.64332
1.35459
1.11419
0.925016
0.815514
0.723409
0.499805
0.293191
0.274585
0.252064
0.259553
0.356572
0.616038
0.812142
0.873088
0.672641
0.459669
0.343536
0.318372
0.328053
0.407368
0.594026
0.705427
3.05797
2.73719
2.57642
2.49121
2.44492
2.41866
2.40186
2.38871
2.37639
2.3627
2.34664
2.32811
2.30767
2.28646
2.26561
2.24487
2.22317
2.19818
2.16729
2.12813
2.07861
2.01802
1.94795
1.87245
1.79803
1.73182
1.68067
1.64892
1.63792
1.64115
1.64828
1.64496
1.60741
1.50611
1.32161
1.0591
0.778223
0.549313
0.394669
0.293767
0.229546
0.207707
0.19319
0.150625
0.132185
0.179538
0.328875
0.566849
0.62041
0.373017
0.386596
1.02238
1.61983
1.67502
0.88485
0.318258
0.17903
0.281855
0.449122
0.484258
0.278952
0.264045
0.333619
0.545214
1.11987
3.64695
7.34819
6.00153
0.270246
0.265708
0.314209
0.432297
0.558188
1.20542
4.65294
5.61878
0.291236
0.286685
0.3179
0.348964
0.364126
0.428868
1.38206
3.35521
0.316393
0.306555
0.352329
0.344088
0.325379
0.296012
0.430639
1.56102
0.353201
0.315227
0.350761
0.344808
0.275387
0.246919
0.278523
0.769946
0.373686
0.332655
0.331636
0.320668
0.247313
0.223345
0.245614
0.473755
0.353031
0.33627
0.310841
0.270805
0.21676
0.2123
0.237348
0.363704
0.301324
0.30807
0.279906
0.226756
0.200442
0.207629
0.246336
0.330336
0.205497
0.239279
0.21966
0.197766
0.193509
0.209279
0.276899
0.324139
0.145212
0.18734
0.191043
0.191769
0.196344
0.216636
0.317587
0.34826
0.120668
0.169092
0.204271
0.205943
0.207048
0.219776
0.34998
0.393819
0.117539
0.168521
0.203375
0.198779
0.189029
0.208513
0.410601
0.471108
0.113114
0.158446
0.168278
0.15802
0.154418
0.200021
0.512707
0.595697
0.119463
0.136388
0.148411
0.146593
0.148666
0.235347
0.582414
0.742984
0.157081
0.167753
0.223378
0.227198
0.237885
0.400482
0.602777
0.872063
0.265069
0.331782
0.412886
0.461405
0.728826
0.858455
0.571086
1.04727
0.535839
0.638901
0.73129
0.977313
1.79479
1.66942
0.555661
1.32671
0.79068
0.980415
1.16165
1.52721
2.4463
2.23742
0.568929
1.41048
0.621964
0.887254
0.996534
1.09277
1.53459
1.53576
0.460141
0.81506
)
;

boundaryField
{
    inlet
    {
        type            fixedValue;
        value           uniform 2e-05;
    }
    outlet
    {
        type            inletOutlet;
        inletValue      uniform 0;
        value           nonuniform List<scalar> 
19
(
6.00153
5.61878
3.35521
1.56102
0.769946
0.473755
0.363704
0.330336
0.324139
0.34826
0.393819
0.471108
0.595697
0.742984
0.872063
1.04727
1.32671
1.41048
0.81506
)
;
    }
    upperWall
    {
        type            fixedValue;
        value           uniform 0;
    }
    lowerWall
    {
        type            fixedValue;
        value           uniform 0;
    }
    frontAndBack
    {
        type            empty;
    }
}


// ************************************************************************* //
