/*--------------------------------*- C++ -*----------------------------------*\
  =========                 |
  \\      /  F ield         | OpenFOAM: The Open Source CFD Toolbox
   \\    /   O peration     | Website:  https://openfoam.org
    \\  /    A nd           | Version:  7
     \\/     M anipulation  |
\*---------------------------------------------------------------------------*/
FoamFile
{
    version     2.0;
    format      ascii;
    class       volScalarField;
    location    "1.5";
    object      k;
}
// * * * * * * * * * * * * * * * * * * * * * * * * * * * * * * * * * * * * * //

dimensions      [0 2 -2 0 0 0 0];

internalField   nonuniform List<scalar> 
1800
(
0.272334
1.43145
1.91327
1.87942
1.7243
1.51171
1.35003
1.23269
1.14761
1.08359
1.03331
0.992204
0.957504
0.927529
0.901179
0.877801
0.856868
0.838047
0.820983
0.805525
0.791326
0.778432
0.76634
0.755502
0.744877
0.735882
0.726055
0.718961
0.708095
0.715185
0.00872827
0.142126
0.435995
0.639109
0.745496
0.784717
0.793739
0.791932
0.786694
0.777929
0.768583
0.758827
0.748926
0.739249
0.729906
0.721007
0.712461
0.704402
0.696575
0.689323
0.682045
0.675645
0.668663
0.66333
0.65623
0.652313
0.644773
0.641673
0.632283
0.632418
0.000106556
0.00540365
0.0277316
0.0757968
0.127857
0.167997
0.196649
0.217443
0.233487
0.246754
0.258222
0.268895
0.278998
0.288729
0.297793
0.306542
0.314466
0.322219
0.328935
0.335762
0.341233
0.347282
0.351493
0.356942
0.359936
0.364859
0.36688
0.371088
0.372285
0.375029
2.08584e-05
0.00014387
0.000989811
0.00358875
0.00914103
0.0164433
0.0236057
0.0303061
0.036281
0.0418128
0.0468513
0.0516987
0.0562569
0.0608214
0.0652015
0.0696791
0.0740065
0.0784725
0.082813
0.0872982
0.0917003
0.0961918
0.100697
0.105129
0.109796
0.114028
0.118944
0.122747
0.128002
0.13116
2.02309e-05
2.39719e-05
4.58627e-05
0.000121786
0.000323438
0.000648488
0.00120542
0.00172599
0.00241515
0.00302311
0.00379595
0.0044732
0.00531988
0.00605935
0.00698405
0.00778073
0.00877638
0.00961813
0.0106815
0.0115649
0.0127033
0.013629
0.0148484
0.015816
0.0171351
0.0181366
0.0195833
0.0205847
0.0221953
0.0231672
2.01416e-05
2.18053e-05
2.6971e-05
3.20881e-05
4.30803e-05
5.05651e-05
6.7123e-05
7.82358e-05
0.000101924
0.000117158
0.000149284
0.000169702
0.000212482
0.000239145
0.000294771
0.000328541
0.000398574
0.000439958
0.0005253
0.000574825
0.000676566
0.000734973
0.000854279
0.000922608
0.00105863
0.00114208
0.00129614
0.00139294
0.00157012
0.00167853
2.01415e-05
2.18055e-05
2.69709e-05
3.20864e-05
4.3404e-05
5.07618e-05
6.76053e-05
7.85135e-05
0.000102346
0.000117395
0.000149669
0.000169901
0.000212839
0.000239301
0.000295071
0.000328614
0.000398771
0.000439897
0.000525343
0.000574541
0.000676291
0.000734191
0.000853273
0.00092053
0.00105796
0.00113526
0.00129182
0.00137914
0.00155424
0.00165475
2.02307e-05
2.39702e-05
4.58442e-05
0.000121718
0.0003401
0.000633362
0.00123482
0.00169545
0.00244491
0.00299154
0.00382642
0.00444037
0.00535129
0.00602526
0.00701584
0.00774503
0.0088082
0.009581
0.010713
0.0115259
0.0127325
0.0135864
0.0148716
0.0157666
0.0171437
0.0180736
0.0195591
0.0204938
0.0220993
0.0230221
2.08567e-05
0.000143783
0.000989356
0.00358753
0.0091466
0.0164312
0.0236124
0.0302899
0.0362905
0.0417922
0.046865
0.0516727
0.0562758
0.060788
0.0652267
0.0696362
0.0740393
0.078417
0.0828534
0.0872248
0.0917458
0.0960927
0.100739
0.104992
0.109812
0.113834
0.118883
0.122465
0.127741
0.130745
0.000106455
0.00540202
0.0277265
0.07579
0.127848
0.167988
0.19664
0.217434
0.233478
0.246745
0.258214
0.268885
0.27899
0.288716
0.297785
0.306525
0.314459
0.322193
0.328926
0.33572
0.341219
0.34721
0.351464
0.35682
0.359861
0.364669
0.366669
0.370726
0.371865
0.374385
0.00872499
0.14211
0.435975
0.639092
0.745482
0.784707
0.793731
0.791926
0.786689
0.777924
0.768579
0.758825
0.748922
0.739249
0.729901
0.72101
0.712453
0.704413
0.696559
0.689346
0.682015
0.675689
0.668614
0.6634
0.656176
0.652386
0.644744
0.64173
0.632317
0.632581
0.272334
1.43146
1.91329
1.87944
1.72431
1.51173
1.35004
1.2327
1.14762
1.0836
1.03332
0.992215
0.957515
0.927545
0.901192
0.877826
0.856887
0.838093
0.821013
0.805615
0.791379
0.778613
0.766437
0.755862
0.745068
0.73658
0.726465
0.720217
0.709324
0.716766
1.25809
1.39853
1.38001
1.35272
1.33406
1.31939
1.30819
1.30038
1.29539
1.29236
1.29066
1.28989
1.28966
1.28971
1.28991
1.29011
1.29026
1.29033
1.29032
1.29025
1.29014
1.29
1.28985
1.28969
1.2895
1.28929
1.28905
1.28879
1.28849
1.28819
1.28788
1.28759
1.2873
1.28702
1.28674
1.28645
1.28615
1.28583
1.2855
1.28517
1.28483
1.28451
1.2842
1.2839
1.28361
1.28332
1.28302
1.28271
1.28239
1.28207
1.28174
1.28141
1.28108
1.28076
1.28045
1.28014
1.27984
1.27955
1.27927
1.27899
1.27872
1.27845
1.27819
1.27793
1.27768
1.27743
1.27719
1.27695
1.27672
1.27649
1.27626
1.27604
1.27583
1.27562
1.27541
1.27521
1.27502
1.27483
1.27464
1.27446
1.27428
1.2741
1.27393
1.27377
1.27361
1.27345
1.2733
1.27315
1.27301
1.27287
1.27273
1.2726
1.27248
1.27236
1.27224
1.27213
1.27203
1.27194
1.27185
1.27177
1.2717
1.27164
1.27159
1.27155
1.27152
1.27151
1.27151
1.27153
1.27155
1.2716
1.27166
1.27175
1.27183
1.27198
1.27207
1.27229
1.27238
1.27271
1.27277
1.27322
1.24732
1.55086
1.60595
1.60211
1.59179
1.58303
1.57733
1.57412
1.57289
1.57287
1.57339
1.57441
1.57548
1.57654
1.57754
1.57844
1.57923
1.57992
1.58052
1.58105
1.58153
1.58198
1.58241
1.58282
1.58322
1.5836
1.58397
1.58432
1.58465
1.58496
1.58527
1.58557
1.58587
1.58617
1.58647
1.58677
1.58706
1.58735
1.58762
1.58788
1.58813
1.58839
1.58864
1.5889
1.58917
1.58943
1.58969
1.58995
1.59019
1.59043
1.59065
1.59088
1.5911
1.59133
1.59156
1.59179
1.59202
1.59226
1.59251
1.59275
1.593
1.59325
1.59351
1.59376
1.59402
1.59428
1.59454
1.59481
1.59507
1.59534
1.59561
1.59588
1.59616
1.59644
1.59672
1.597
1.59728
1.59757
1.59785
1.59814
1.59844
1.59873
1.59903
1.59933
1.59963
1.59993
1.60024
1.60055
1.60086
1.60117
1.60148
1.6018
1.60212
1.60245
1.60277
1.6031
1.60343
1.60376
1.6041
1.60444
1.60478
1.60512
1.60547
1.60581
1.60616
1.60652
1.60687
1.60723
1.60758
1.60795
1.60831
1.60869
1.60903
1.60944
1.60975
1.61021
1.61047
1.61101
1.6112
1.61183
0.726461
1.07378
1.20921
1.25414
1.27078
1.27966
1.28654
1.29261
1.29811
1.30282
1.30665
1.30967
1.31196
1.31368
1.31501
1.31608
1.31699
1.31779
1.31854
1.31924
1.31991
1.32054
1.32116
1.32176
1.32236
1.32297
1.32359
1.32422
1.32485
1.32549
1.32611
1.32672
1.32731
1.32789
1.32845
1.32902
1.32959
1.33017
1.33075
1.33133
1.33191
1.33247
1.33301
1.33354
1.33406
1.33458
1.3351
1.33562
1.33614
1.33666
1.33718
1.33769
1.3382
1.33871
1.33921
1.3397
1.3402
1.34069
1.34117
1.34166
1.34214
1.34262
1.3431
1.34358
1.34405
1.34453
1.345
1.34547
1.34595
1.34642
1.34688
1.34735
1.34782
1.34828
1.34874
1.3492
1.34966
1.35012
1.35057
1.35102
1.35148
1.35193
1.35237
1.35282
1.35326
1.3537
1.35415
1.35458
1.35502
1.35545
1.35588
1.35631
1.35674
1.35717
1.35759
1.35801
1.35843
1.35884
1.35925
1.35966
1.36007
1.36047
1.36088
1.36128
1.36167
1.36206
1.36245
1.36284
1.36322
1.36361
1.36398
1.36437
1.36472
1.36512
1.36544
1.36587
1.36613
1.36662
1.36682
1.36739
0.224176
0.492761
0.68389
0.789639
0.847936
0.883828
0.908603
0.926806
0.940465
0.950539
0.957755
0.962741
0.96604
0.968151
0.969483
0.970352
0.970978
0.971496
0.971979
0.972462
0.972947
0.973429
0.973904
0.974372
0.97484
0.975322
0.97583
0.976372
0.976946
0.977542
0.978143
0.978734
0.979301
0.979841
0.980361
0.980873
0.981391
0.981926
0.982482
0.983053
0.983626
0.984188
0.984729
0.985245
0.98574
0.986223
0.986702
0.987186
0.987679
0.988182
0.988692
0.989204
0.989715
0.99022
0.990717
0.991206
0.991687
0.99216
0.992626
0.993087
0.993544
0.993997
0.994447
0.994893
0.995337
0.995778
0.996217
0.996653
0.997087
0.997519
0.997947
0.998374
0.998798
0.999219
0.999638
1.00005
1.00047
1.00088
1.00129
1.00169
1.00209
1.00249
1.00289
1.00328
1.00367
1.00406
1.00445
1.00483
1.00521
1.00558
1.00596
1.00633
1.00669
1.00706
1.00742
1.00778
1.00813
1.00848
1.00883
1.00917
1.00951
1.00985
1.01018
1.01051
1.01084
1.01117
1.01149
1.01181
1.01212
1.01243
1.01273
1.01305
1.01333
1.01365
1.0139
1.01425
1.01446
1.01484
1.01501
1.01546
0.0363742
0.0931822
0.210325
0.326247
0.415556
0.479474
0.52431
0.55563
0.577456
0.592502
0.602664
0.609323
0.613501
0.615981
0.617357
0.618062
0.61841
0.618593
0.618724
0.618863
0.619025
0.619206
0.619397
0.619592
0.619789
0.619998
0.620231
0.6205
0.620808
0.621152
0.621518
0.621888
0.622246
0.622582
0.622895
0.623193
0.62349
0.6238
0.624134
0.624491
0.624863
0.625237
0.625598
0.625938
0.626256
0.626556
0.626849
0.627145
0.62745
0.627769
0.6281
0.628439
0.628781
0.629122
0.629457
0.629785
0.630105
0.630418
0.630724
0.631024
0.631321
0.631613
0.631903
0.63219
0.632474
0.632756
0.633036
0.633313
0.633589
0.633864
0.634138
0.63441
0.634681
0.634952
0.635221
0.635488
0.635754
0.636018
0.636279
0.636539
0.636797
0.637053
0.637307
0.63756
0.63781
0.638058
0.638303
0.638547
0.63879
0.639031
0.639271
0.63951
0.639747
0.639983
0.640217
0.64045
0.64068
0.640907
0.641132
0.641355
0.641574
0.641792
0.642007
0.642222
0.642435
0.642648
0.642856
0.643066
0.643268
0.643476
0.643669
0.643879
0.644059
0.644276
0.644437
0.64467
0.644804
0.645051
0.64517
0.645466
0.00259948
0.0072875
0.0217539
0.0536223
0.102949
0.155616
0.203281
0.242255
0.272153
0.294127
0.309775
0.320603
0.32787
0.332587
0.335537
0.337301
0.338323
0.338894
0.339204
0.339385
0.339497
0.339567
0.339618
0.339659
0.33969
0.339718
0.339757
0.339818
0.339909
0.340031
0.340177
0.340335
0.340492
0.340636
0.340764
0.34088
0.340991
0.341107
0.341237
0.341387
0.341553
0.341725
0.341893
0.342048
0.342188
0.342314
0.342431
0.342548
0.342671
0.342804
0.342947
0.343099
0.343256
0.343415
0.343571
0.343723
0.34387
0.344012
0.344149
0.344281
0.34441
0.344537
0.344662
0.344787
0.344912
0.345037
0.345163
0.345289
0.345414
0.345539
0.345663
0.345786
0.345908
0.346029
0.346149
0.346268
0.346387
0.346506
0.346625
0.346744
0.346863
0.346981
0.347099
0.347217
0.347335
0.347454
0.347572
0.34769
0.347807
0.347923
0.348038
0.348152
0.348265
0.348376
0.348487
0.348597
0.348706
0.348816
0.348925
0.349035
0.349146
0.349257
0.349366
0.349475
0.349581
0.349688
0.349791
0.349898
0.349997
0.350106
0.350201
0.350314
0.350402
0.350521
0.350598
0.350725
0.350793
0.350925
0.35099
0.35115
0.00258102
0.00721961
0.0215774
0.0533117
0.102796
0.155618
0.203432
0.242574
0.272634
0.294764
0.310543
0.321478
0.328839
0.33364
0.336669
0.338506
0.339595
0.340232
0.340606
0.340849
0.341025
0.341159
0.341269
0.341363
0.341441
0.341513
0.341593
0.341693
0.341821
0.34198
0.342162
0.342355
0.342544
0.342717
0.342868
0.343003
0.343129
0.343258
0.343401
0.343566
0.343746
0.343933
0.344115
0.344283
0.344431
0.344561
0.344679
0.344794
0.344914
0.345042
0.34518
0.345327
0.34548
0.345636
0.34579
0.34594
0.346086
0.346227
0.346363
0.346494
0.346623
0.346749
0.346874
0.346998
0.347122
0.347247
0.347372
0.347498
0.347623
0.347748
0.347872
0.347995
0.348116
0.348237
0.348356
0.348475
0.348593
0.34871
0.348828
0.348946
0.349065
0.349183
0.349302
0.34942
0.349539
0.349658
0.349776
0.349894
0.350011
0.350127
0.350241
0.350355
0.350467
0.350578
0.350688
0.350797
0.350906
0.351014
0.351123
0.351234
0.351345
0.351456
0.351565
0.351673
0.351779
0.351885
0.351988
0.352094
0.352193
0.352301
0.352396
0.352508
0.352595
0.352714
0.352791
0.352917
0.352984
0.353116
0.35318
0.353341
0.0363218
0.0928852
0.209655
0.326088
0.416022
0.480355
0.525497
0.557086
0.579129
0.594322
0.604586
0.611327
0.615586
0.618146
0.619599
0.620375
0.620784
0.621024
0.621211
0.621403
0.621617
0.62185
0.622089
0.622329
0.622567
0.622812
0.623078
0.623377
0.623713
0.624083
0.624475
0.62487
0.62525
0.625603
0.62593
0.626238
0.626542
0.626857
0.627196
0.627559
0.627938
0.628318
0.628686
0.62903
0.629349
0.629648
0.629938
0.630227
0.630525
0.630836
0.63116
0.631492
0.631828
0.632163
0.632494
0.632818
0.633135
0.633445
0.633748
0.634046
0.634341
0.634631
0.634919
0.635204
0.635487
0.635767
0.636044
0.63632
0.636594
0.636867
0.637138
0.637409
0.637679
0.637948
0.638216
0.638482
0.638748
0.639011
0.639273
0.639532
0.639789
0.640044
0.640296
0.640547
0.640795
0.641041
0.641286
0.641529
0.64177
0.64201
0.642248
0.642485
0.642721
0.642955
0.643188
0.64342
0.643649
0.643877
0.6441
0.644321
0.644539
0.644754
0.644968
0.645182
0.645393
0.645604
0.645811
0.64602
0.646221
0.646428
0.64662
0.646829
0.647008
0.647225
0.647385
0.647617
0.647752
0.648
0.648119
0.648414
0.224729
0.492079
0.684101
0.790769
0.849595
0.885744
0.910678
0.928988
0.942644
0.952673
0.959802
0.964696
0.967918
0.969958
0.971224
0.972024
0.972577
0.97302
0.973426
0.973828
0.974235
0.974643
0.975049
0.975458
0.975876
0.976313
0.976779
0.977277
0.977804
0.978351
0.978901
0.979442
0.979965
0.980467
0.980956
0.981442
0.981936
0.982449
0.982979
0.983522
0.984066
0.9846
0.985115
0.98561
0.98609
0.986563
0.987038
0.98752
0.988014
0.988518
0.989029
0.989541
0.990051
0.990555
0.99105
0.991537
0.992015
0.992485
0.992949
0.993407
0.993861
0.994311
0.994758
0.995202
0.995644
0.996083
0.996519
0.996953
0.997384
0.997813
0.99824
0.998664
0.999086
0.999506
0.999923
1.00034
1.00075
1.00116
1.00156
1.00197
1.00237
1.00277
1.00316
1.00355
1.00394
1.00433
1.00471
1.00509
1.00547
1.00584
1.00622
1.00658
1.00695
1.00731
1.00767
1.00803
1.00838
1.00873
1.00908
1.00942
1.00976
1.01009
1.01043
1.01076
1.01108
1.01141
1.01172
1.01204
1.01235
1.01267
1.01297
1.01328
1.01356
1.01389
1.01414
1.01448
1.01469
1.01507
1.01524
1.01569
0.727277
1.07432
1.21085
1.25608
1.27261
1.28134
1.28805
1.29392
1.29912
1.30356
1.30708
1.30982
1.31186
1.31335
1.31446
1.31531
1.31601
1.31661
1.31714
1.31764
1.3181
1.31854
1.31898
1.31942
1.31988
1.32036
1.32086
1.32138
1.3219
1.32241
1.32291
1.32341
1.3239
1.32438
1.32488
1.32539
1.32592
1.32645
1.32698
1.32751
1.32803
1.32853
1.32903
1.32952
1.33002
1.33053
1.33104
1.33157
1.3321
1.33264
1.33317
1.33369
1.33421
1.33473
1.33523
1.33573
1.33622
1.33671
1.3372
1.33768
1.33817
1.33865
1.33912
1.3396
1.34008
1.34055
1.34103
1.3415
1.34197
1.34244
1.34291
1.34337
1.34384
1.3443
1.34476
1.34522
1.34568
1.34614
1.34659
1.34704
1.34749
1.34794
1.34839
1.34884
1.34928
1.34972
1.35016
1.3506
1.35104
1.35147
1.3519
1.35233
1.35276
1.35318
1.3536
1.35402
1.35444
1.35485
1.35527
1.35568
1.35608
1.35649
1.35689
1.35729
1.35769
1.35808
1.35847
1.35886
1.35924
1.35963
1.36
1.36039
1.36073
1.36114
1.36145
1.36189
1.36214
1.36263
1.36284
1.36341
1.24797
1.55248
1.6072
1.60285
1.59176
1.58248
1.57632
1.57264
1.57087
1.5704
1.57052
1.57105
1.57177
1.57247
1.57313
1.57371
1.5742
1.57459
1.5749
1.57514
1.57534
1.57551
1.57568
1.57587
1.57606
1.57626
1.57646
1.57664
1.57681
1.57696
1.57711
1.57726
1.57743
1.57761
1.57783
1.57805
1.57829
1.57851
1.57872
1.57892
1.57912
1.57931
1.57951
1.57973
1.57997
1.58023
1.58049
1.58076
1.58103
1.58129
1.58155
1.5818
1.58204
1.58228
1.58252
1.58277
1.58301
1.58326
1.58351
1.58376
1.58402
1.58428
1.58454
1.5848
1.58506
1.58533
1.5856
1.58586
1.58614
1.58641
1.58668
1.58696
1.58724
1.58752
1.58781
1.58809
1.58838
1.58867
1.58896
1.58926
1.58955
1.58985
1.59015
1.59045
1.59076
1.59106
1.59137
1.59168
1.592
1.59231
1.59263
1.59295
1.59328
1.59361
1.59394
1.59427
1.5946
1.59494
1.59528
1.59562
1.59596
1.5963
1.59665
1.597
1.59735
1.59771
1.59807
1.59843
1.59879
1.59916
1.59951
1.59989
1.60024
1.60065
1.60097
1.60143
1.60168
1.60223
1.60242
1.60306
1.25656
1.39768
1.37764
1.34979
1.33045
1.31522
1.30352
1.29527
1.28981
1.28639
1.28432
1.2832
1.28264
1.28239
1.28228
1.28219
1.28206
1.28187
1.2816
1.28129
1.28094
1.28058
1.28022
1.27985
1.27948
1.2791
1.2787
1.27828
1.27785
1.2774
1.27697
1.27655
1.27616
1.27579
1.27543
1.27508
1.27472
1.27435
1.27397
1.27359
1.27321
1.27284
1.2725
1.27217
1.27187
1.27157
1.27127
1.27098
1.27067
1.27036
1.27005
1.26974
1.26943
1.26912
1.26883
1.26853
1.26825
1.26797
1.2677
1.26744
1.26718
1.26692
1.26667
1.26643
1.26619
1.26595
1.26572
1.26549
1.26527
1.26505
1.26484
1.26463
1.26443
1.26423
1.26403
1.26384
1.26366
1.26347
1.2633
1.26312
1.26296
1.26279
1.26263
1.26248
1.26232
1.26218
1.26203
1.26189
1.26176
1.26163
1.2615
1.26138
1.26127
1.26116
1.26105
1.26095
1.26086
1.26077
1.26069
1.26062
1.26056
1.26051
1.26047
1.26044
1.26042
1.26041
1.26041
1.26044
1.26047
1.26053
1.26059
1.26068
1.26077
1.26092
1.26102
1.26124
1.26133
1.26166
1.26172
1.26217
)
;

boundaryField
{
    upperWall
    {
        type            fixedValue;
        value           uniform 0;
    }
    lowerWall
    {
        type            fixedValue;
        value           uniform 0;
    }
    heatedWall
    {
        type            fixedValue;
        value           uniform 0;
    }
    inlet
    {
        type            fixedValue;
        value           uniform 2e-05;
    }
    outlet
    {
        type            inletOutlet;
        inletValue      uniform 0;
        value           nonuniform List<scalar> 
12
(
1.27322
1.61183
1.36739
1.01546
0.645466
0.35115
0.353341
0.648414
1.01569
1.36341
1.60306
1.26217
)
;
    }
    frontAndBack
    {
        type            empty;
    }
}


// ************************************************************************* //
