/*--------------------------------*- C++ -*----------------------------------*\
  =========                 |
  \\      /  F ield         | OpenFOAM: The Open Source CFD Toolbox
   \\    /   O peration     | Website:  https://openfoam.org
    \\  /    A nd           | Version:  7
     \\/     M anipulation  |
\*---------------------------------------------------------------------------*/
FoamFile
{
    version     2.0;
    format      ascii;
    class       volScalarField;
    location    "2.8";
    object      alphat;
}
// * * * * * * * * * * * * * * * * * * * * * * * * * * * * * * * * * * * * * //

dimensions      [1 -1 -1 0 0 0 0];

internalField   nonuniform List<scalar> 
1800
(
0.00155755
0.0035709
0.00412868
0.0040921
0.00391987
0.00367051
0.00346892
0.00331512
0.00319899
0.00310871
0.00303592
0.00297516
0.00292293
0.00287705
0.00283615
0.00279934
0.00276601
0.00273564
0.00270789
0.00268238
0.00265892
0.00263714
0.00261698
0.00259813
0.00258034
0.002564
0.00254743
0.00253399
0.0025137
0.00252976
0.000278973
0.00112536
0.00197089
0.00238649
0.00257738
0.0026442
0.00265921
0.00265614
0.00264732
0.00263257
0.0026167
0.00260009
0.0025831
0.00256635
0.00255007
0.00253442
0.00251934
0.00250494
0.002491
0.00247782
0.00246479
0.00245291
0.00244041
0.00243025
0.00241751
0.00240989
0.0023959
0.00239069
0.00237197
0.00237367
3.08578e-05
0.000219479
0.000497154
0.000821944
0.00106759
0.00122361
0.00132363
0.00139167
0.00144198
0.00148233
0.00151633
0.00154724
0.00157593
0.00160313
0.00162801
0.00165174
0.00167289
0.00169345
0.00171094
0.00172872
0.00174262
0.00175819
0.00176858
0.00178255
0.00178971
0.00180231
0.00180718
0.00181811
0.00182111
0.00182894
1.36366e-05
3.58345e-05
9.39741e-05
0.000178945
0.000285381
0.000383174
0.000458575
0.000519788
0.00056825
0.000610369
0.000645629
0.000678614
0.000707381
0.000736009
0.00076141
0.000787715
0.000811073
0.000835992
0.000857974
0.000881939
0.000902922
0.000926028
0.00094631
0.000968356
0.00098835
0.00100879
0.00102918
0.00104701
0.00106887
0.00108296
1.34276e-05
1.46189e-05
2.02287e-05
3.29751e-05
5.2064e-05
7.88927e-05
0.000101604
0.000125764
0.000145185
0.000165403
0.000182584
0.000200588
0.000216483
0.000233121
0.0002482
0.000263824
0.0002783
0.0002931
0.000307162
0.000321305
0.000335169
0.000348773
0.000362669
0.000375779
0.000389994
0.000402517
0.000417474
0.000429058
0.000445473
0.000455798
1.33992e-05
1.39461e-05
1.55167e-05
1.69268e-05
1.94973e-05
2.12301e-05
2.44126e-05
2.6416e-05
3.00992e-05
3.23593e-05
3.65725e-05
3.91159e-05
4.38863e-05
4.66813e-05
5.19472e-05
5.49445e-05
6.06157e-05
6.37736e-05
6.97712e-05
7.30633e-05
7.93012e-05
8.27914e-05
8.9169e-05
9.29505e-05
9.94454e-05
0.000103461
0.000110179
0.000114339
0.000121476
0.000125743
1.33991e-05
1.39467e-05
1.55164e-05
1.69239e-05
1.96816e-05
2.12791e-05
2.45688e-05
2.64562e-05
3.01953e-05
3.23731e-05
3.6635e-05
3.91097e-05
4.3926e-05
4.66615e-05
5.19695e-05
5.49129e-05
6.06196e-05
6.3726e-05
6.97551e-05
7.29939e-05
7.92885e-05
8.26378e-05
8.91541e-05
9.2598e-05
9.93031e-05
0.000102822
0.000109669
0.000113215
0.000120126
0.000123749
1.34278e-05
1.4616e-05
2.02014e-05
3.29113e-05
5.50417e-05
7.50952e-05
0.000105213
0.000122564
0.000147695
0.000162933
0.000184581
0.000198465
0.000218213
0.000231211
0.000249749
0.000262036
0.000279708
0.000291399
0.000308455
0.000319649
0.000336295
0.000347078
0.000363495
0.000373924
0.000390253
0.000400285
0.000416608
0.000426001
0.000442323
0.000451154
1.3633e-05
3.57621e-05
9.38322e-05
0.000178745
0.000285542
0.000382641
0.000458675
0.000519303
0.000568407
0.000609871
0.000645835
0.000678061
0.000707665
0.000735372
0.00076178
0.000786965
0.000811549
0.000835092
0.000858559
0.000880819
0.000903568
0.000924582
0.000946886
0.000966434
0.000988547
0.00100617
0.0010283
0.0010433
0.00106536
0.00107753
3.07494e-05
0.000219266
0.000496881
0.000821766
0.00106741
0.00122347
0.0013235
0.00139157
0.0014419
0.00148225
0.00151627
0.00154716
0.00157587
0.00160303
0.00162796
0.00165163
0.00167285
0.00169328
0.00171089
0.00172843
0.00174253
0.00175767
0.00176838
0.00178164
0.00178916
0.00180083
0.00180564
0.00181525
0.00181801
0.00182398
0.00027859
0.00112499
0.00197075
0.00238646
0.0025774
0.00264427
0.0026593
0.00265625
0.00264744
0.00263271
0.00261683
0.00260023
0.00258323
0.0025665
0.00255019
0.00253458
0.00251944
0.00250513
0.00249104
0.00247805
0.00246473
0.00245324
0.00244023
0.0024307
0.00241729
0.00241029
0.00239605
0.0023905
0.00237292
0.00237353
0.00155768
0.00357129
0.00412912
0.00409254
0.00392029
0.0036709
0.00346929
0.00331547
0.00319932
0.00310902
0.00303622
0.00297546
0.00292321
0.00287734
0.00283643
0.00279966
0.00276629
0.00273602
0.00270821
0.00268295
0.00265935
0.00263814
0.00261766
0.00260001
0.00258163
0.0025676
0.00255019
0.0025403
0.00252145
0.00253568
0.00645195
0.00675463
0.00669561
0.00661212
0.00655382
0.00650824
0.00647261
0.00644642
0.00642767
0.00641502
0.00640617
0.00640029
0.00639603
0.00639283
0.00639024
0.00638798
0.00638588
0.00638385
0.00638186
0.00637988
0.00637792
0.00637598
0.00637408
0.00637221
0.0063704
0.00636863
0.00636691
0.00636523
0.00636361
0.00636204
0.00636051
0.00635903
0.0063576
0.00635622
0.00635487
0.00635357
0.0063523
0.00635106
0.00634985
0.00634867
0.00634753
0.00634641
0.00634532
0.00634426
0.00634323
0.00634223
0.00634126
0.00634031
0.0063394
0.00633852
0.00633767
0.00633685
0.00633607
0.00633534
0.00633465
0.00633401
0.00633341
0.00633287
0.00633238
0.00633194
0.00633157
0.00633125
0.006331
0.00633082
0.00633071
0.00633068
0.00633072
0.00633083
0.00633102
0.00633129
0.00633164
0.00633206
0.00633257
0.00633315
0.00633382
0.00633457
0.0063354
0.00633631
0.0063373
0.00633836
0.0063395
0.00634072
0.006342
0.00634336
0.00634479
0.00634628
0.00634784
0.00634947
0.00635115
0.0063529
0.0063547
0.00635655
0.00635845
0.0063604
0.00636239
0.00636443
0.00636651
0.00636863
0.00637078
0.00637296
0.00637518
0.00637742
0.00637968
0.00638197
0.00638428
0.00638661
0.00638895
0.00639132
0.00639367
0.0063961
0.00639845
0.00640095
0.00640323
0.00640588
0.00640799
0.00641091
0.00641265
0.00641612
0.00641724
0.00642161
0.00643677
0.00713715
0.00724084
0.00721234
0.00717501
0.00714203
0.00711804
0.00710166
0.00708937
0.00708163
0.00707619
0.00707213
0.00706882
0.00706593
0.00706325
0.00706068
0.00705816
0.00705568
0.00705323
0.00705082
0.00704846
0.00704616
0.00704391
0.00704174
0.00703963
0.0070376
0.00703563
0.00703373
0.00703188
0.0070301
0.00702837
0.00702669
0.00702507
0.00702349
0.00702197
0.00702049
0.00701905
0.00701764
0.00701628
0.00701494
0.00701364
0.00701238
0.00701114
0.00700994
0.00700877
0.00700763
0.00700653
0.00700546
0.00700442
0.00700342
0.00700245
0.00700152
0.00700063
0.00699979
0.006999
0.00699826
0.00699757
0.00699694
0.00699636
0.00699585
0.0069954
0.00699502
0.00699471
0.00699448
0.00699432
0.00699424
0.00699425
0.00699434
0.00699451
0.00699477
0.00699512
0.00699555
0.00699607
0.00699668
0.00699738
0.00699817
0.00699905
0.00700002
0.00700108
0.00700222
0.00700345
0.00700476
0.00700616
0.00700763
0.00700918
0.00701081
0.00701251
0.00701428
0.00701612
0.00701803
0.00702001
0.00702204
0.00702413
0.00702627
0.00702847
0.00703071
0.007033
0.00703534
0.00703771
0.00704013
0.00704258
0.00704506
0.00704757
0.00705011
0.00705266
0.00705525
0.00705784
0.00706048
0.00706309
0.00706579
0.00706838
0.00707118
0.0070737
0.00707666
0.00707898
0.00708228
0.00708416
0.00708805
0.00708944
0.00709408
0.00491734
0.00596349
0.00630469
0.00640367
0.0064321
0.00644213
0.00644853
0.00645445
0.00645905
0.00646261
0.00646468
0.00646529
0.00646466
0.00646312
0.00646096
0.00645844
0.00645572
0.00645295
0.0064502
0.00644752
0.00644493
0.00644245
0.00644009
0.00643783
0.00643569
0.00643365
0.00643169
0.00642982
0.00642803
0.0064263
0.00642464
0.00642303
0.00642147
0.00641997
0.00641852
0.00641711
0.00641575
0.00641442
0.00641313
0.00641187
0.00641064
0.00640945
0.00640828
0.00640714
0.00640604
0.00640497
0.00640393
0.00640292
0.00640194
0.006401
0.00640009
0.00639921
0.00639837
0.00639758
0.00639683
0.00639612
0.00639547
0.00639486
0.00639432
0.00639383
0.00639339
0.00639302
0.00639272
0.00639248
0.00639231
0.00639222
0.0063922
0.00639226
0.00639239
0.00639261
0.0063929
0.00639328
0.00639373
0.00639427
0.00639489
0.00639559
0.00639637
0.00639724
0.00639819
0.00639922
0.00640032
0.0064015
0.00640276
0.00640409
0.00640549
0.00640696
0.00640851
0.00641011
0.00641179
0.00641352
0.00641532
0.00641717
0.00641907
0.00642102
0.00642302
0.00642507
0.00642716
0.00642929
0.00643146
0.00643367
0.00643591
0.00643818
0.00644047
0.0064428
0.00644514
0.00644752
0.00644989
0.00645231
0.0064547
0.00645718
0.00645955
0.00646213
0.00646443
0.00646716
0.00646928
0.00647232
0.00647405
0.00647757
0.00647899
0.00648315
0.00273269
0.00405543
0.00475766
0.00509779
0.00527059
0.00537066
0.00543634
0.00548267
0.0055152
0.00553733
0.00555139
0.00555939
0.00556305
0.00556376
0.00556262
0.00556038
0.00555758
0.00555455
0.00555151
0.00554855
0.00554574
0.00554311
0.00554064
0.00553834
0.00553618
0.00553416
0.00553226
0.00553046
0.00552874
0.0055271
0.00552553
0.00552402
0.00552255
0.00552114
0.00551978
0.00551846
0.00551718
0.00551595
0.00551475
0.00551358
0.00551244
0.00551132
0.00551024
0.00550919
0.00550816
0.00550717
0.0055062
0.00550527
0.00550437
0.0055035
0.00550266
0.00550185
0.00550107
0.00550033
0.00549963
0.00549898
0.00549836
0.0054978
0.00549729
0.00549682
0.00549642
0.00549606
0.00549576
0.00549552
0.00549534
0.00549523
0.00549518
0.0054952
0.00549529
0.00549545
0.00549568
0.00549598
0.00549635
0.00549679
0.00549731
0.00549789
0.00549854
0.00549927
0.00550007
0.00550094
0.00550188
0.00550288
0.00550395
0.00550508
0.00550628
0.00550754
0.00550885
0.00551022
0.00551165
0.00551314
0.00551468
0.00551626
0.0055179
0.00551958
0.00552129
0.00552305
0.00552485
0.00552668
0.00552855
0.00553045
0.00553238
0.00553433
0.00553631
0.00553832
0.00554034
0.00554239
0.00554444
0.00554653
0.00554859
0.00555074
0.00555278
0.00555502
0.00555698
0.00555937
0.00556117
0.00556383
0.00556532
0.00556831
0.00556963
0.00557321
0.00110384
0.00176837
0.00265144
0.00328946
0.00370153
0.00396759
0.00414222
0.0042586
0.00433602
0.00438667
0.00441874
0.00443794
0.00444841
0.00445314
0.00445424
0.00445317
0.00445089
0.00444803
0.00444496
0.00444192
0.00443901
0.00443629
0.00443376
0.00443142
0.00442926
0.00442725
0.00442538
0.00442363
0.00442197
0.00442039
0.00441887
0.00441742
0.00441602
0.00441466
0.00441335
0.00441208
0.00441086
0.00440968
0.00440853
0.00440742
0.00440634
0.00440529
0.00440426
0.00440326
0.00440229
0.00440135
0.00440044
0.00439956
0.00439871
0.00439789
0.0043971
0.00439634
0.00439561
0.00439491
0.00439425
0.00439362
0.00439304
0.0043925
0.00439201
0.00439156
0.00439116
0.00439081
0.00439051
0.00439026
0.00439006
0.00438991
0.00438983
0.0043898
0.00438983
0.00438992
0.00439007
0.00439028
0.00439055
0.00439088
0.00439127
0.00439172
0.00439222
0.00439279
0.00439341
0.0043941
0.00439484
0.00439564
0.00439649
0.00439739
0.00439834
0.00439935
0.0044004
0.00440149
0.00440264
0.00440382
0.00440506
0.00440633
0.00440764
0.00440898
0.00441036
0.00441178
0.00441322
0.00441469
0.00441618
0.00441771
0.00441926
0.00442083
0.00442242
0.00442404
0.00442566
0.00442731
0.00442895
0.00443065
0.00443229
0.00443403
0.00443565
0.00443748
0.00443902
0.00444099
0.00444238
0.00444456
0.00444575
0.00444812
0.00444922
0.00445212
0.000300195
0.000499777
0.000858214
0.00134244
0.00185099
0.00227194
0.00259519
0.00283197
0.00299977
0.00311567
0.0031939
0.00324545
0.00327844
0.00329875
0.00331054
0.00331676
0.0033194
0.00331984
0.00331898
0.00331743
0.00331555
0.00331357
0.00331162
0.00330978
0.00330808
0.00330653
0.00330512
0.00330384
0.00330267
0.00330161
0.00330064
0.00329973
0.0032989
0.00329812
0.00329739
0.00329669
0.00329603
0.0032954
0.0032948
0.00329422
0.00329367
0.00329313
0.00329261
0.00329211
0.00329162
0.00329116
0.00329071
0.00329029
0.00328988
0.0032895
0.00328913
0.00328878
0.00328845
0.00328814
0.00328785
0.00328759
0.00328735
0.00328714
0.00328696
0.00328681
0.00328669
0.00328659
0.00328653
0.0032865
0.00328651
0.00328655
0.00328662
0.00328673
0.00328689
0.00328708
0.00328731
0.00328758
0.00328788
0.00328823
0.00328861
0.00328903
0.00328949
0.00328998
0.00329052
0.0032911
0.00329171
0.00329236
0.00329305
0.00329377
0.00329453
0.00329531
0.00329613
0.00329699
0.00329787
0.00329878
0.00329973
0.0033007
0.0033017
0.00330272
0.00330377
0.00330484
0.00330592
0.00330703
0.00330816
0.00330931
0.00331047
0.00331166
0.00331285
0.00331407
0.00331528
0.00331654
0.00331775
0.00331905
0.00332025
0.0033216
0.00332275
0.0033242
0.00332527
0.00332683
0.0033278
0.00332949
0.00333036
0.00333213
0.00333298
0.00333518
0.000297059
0.000489644
0.000842573
0.00132333
0.00184109
0.00227076
0.00260136
0.00284415
0.00301702
0.00313731
0.00321946
0.0032746
0.00331099
0.00333459
0.00334958
0.00335891
0.0033646
0.00336801
0.00337004
0.00337129
0.00337213
0.00337279
0.00337339
0.00337403
0.00337472
0.00337548
0.00337631
0.0033772
0.00337813
0.00337911
0.00338011
0.00338113
0.00338216
0.00338319
0.00338423
0.00338526
0.00338628
0.00338729
0.00338829
0.00338927
0.00339025
0.0033912
0.00339215
0.00339308
0.00339399
0.0033949
0.00339579
0.00339668
0.00339755
0.00339841
0.00339927
0.00340011
0.00340094
0.00340175
0.00340256
0.00340336
0.00340415
0.00340494
0.00340572
0.00340649
0.00340726
0.00340803
0.00340879
0.00340954
0.00341029
0.00341104
0.0034118
0.00341255
0.00341331
0.00341408
0.00341484
0.00341562
0.0034164
0.00341719
0.00341799
0.00341879
0.00341961
0.00342044
0.00342128
0.00342214
0.00342302
0.00342391
0.00342481
0.00342573
0.00342667
0.00342762
0.00342859
0.00342957
0.00343058
0.0034316
0.00343264
0.0034337
0.00343478
0.00343587
0.00343698
0.00343811
0.00343924
0.0034404
0.00344157
0.00344275
0.00344395
0.00344516
0.00344638
0.00344763
0.00344886
0.00345013
0.00345137
0.00345268
0.00345389
0.00345527
0.00345644
0.0034579
0.00345899
0.00346058
0.00346155
0.00346328
0.00346414
0.00346595
0.00346681
0.00346905
0.00109892
0.00175398
0.00263276
0.00328635
0.00371374
0.00399243
0.00417778
0.00430332
0.00438895
0.00444703
0.00448586
0.00451139
0.00452789
0.00453841
0.00454508
0.00454938
0.00455227
0.0045544
0.00455614
0.00455773
0.0045593
0.00456089
0.00456255
0.00456426
0.00456601
0.00456781
0.00456963
0.00457146
0.00457329
0.0045751
0.00457689
0.00457866
0.0045804
0.00458211
0.0045838
0.00458547
0.00458711
0.00458874
0.00459034
0.00459192
0.00459348
0.00459501
0.00459652
0.004598
0.00459947
0.00460092
0.00460235
0.00460377
0.00460517
0.00460655
0.00460791
0.00460926
0.00461059
0.0046119
0.00461319
0.00461447
0.00461574
0.004617
0.00461825
0.00461949
0.00462072
0.00462193
0.00462314
0.00462434
0.00462554
0.00462673
0.00462791
0.0046291
0.00463029
0.00463149
0.00463268
0.00463388
0.00463509
0.00463629
0.00463751
0.00463873
0.00463996
0.00464121
0.00464247
0.00464375
0.00464504
0.00464635
0.00464767
0.004649
0.00465036
0.00465173
0.00465311
0.00465452
0.00465595
0.00465739
0.00465886
0.00466035
0.00466185
0.00466337
0.00466491
0.00466647
0.00466804
0.00466963
0.00467124
0.00467286
0.0046745
0.00467615
0.00467781
0.0046795
0.00468118
0.00468289
0.00468458
0.00468632
0.00468801
0.0046898
0.00469146
0.00469333
0.00469491
0.00469692
0.00469834
0.00470058
0.00470179
0.00470422
0.00470536
0.00470832
0.00273923
0.00404529
0.00477016
0.00513114
0.00532031
0.00543365
0.00551085
0.00556709
0.00560875
0.00563909
0.00566065
0.00567563
0.00568586
0.0056928
0.00569758
0.00570098
0.00570358
0.00570572
0.00570764
0.00570946
0.00571128
0.00571311
0.00571497
0.00571687
0.00571881
0.00572077
0.00572274
0.00572472
0.0057267
0.00572867
0.00573063
0.00573257
0.00573449
0.00573639
0.00573827
0.00574014
0.00574199
0.00574383
0.00574564
0.00574743
0.00574921
0.00575096
0.00575269
0.0057544
0.0057561
0.00575778
0.00575945
0.00576111
0.00576275
0.00576437
0.00576598
0.00576758
0.00576916
0.00577073
0.00577228
0.00577383
0.00577538
0.00577692
0.00577845
0.00577998
0.0057815
0.00578302
0.00578454
0.00578605
0.00578756
0.00578908
0.0057906
0.00579213
0.00579366
0.0057952
0.00579675
0.00579831
0.00579988
0.00580146
0.00580304
0.00580465
0.00580627
0.0058079
0.00580955
0.00581123
0.00581292
0.00581463
0.00581635
0.0058181
0.00581986
0.00582164
0.00582345
0.00582527
0.00582712
0.00582899
0.00583088
0.0058328
0.00583473
0.00583668
0.00583864
0.00584063
0.00584263
0.00584465
0.00584669
0.00584875
0.00585082
0.00585291
0.00585501
0.00585713
0.00585925
0.00586139
0.00586352
0.00586569
0.00586782
0.00587004
0.00587214
0.00587443
0.00587645
0.0058789
0.00588074
0.00588347
0.00588499
0.00588806
0.00588942
0.00589307
0.00492666
0.00598746
0.00635936
0.0064798
0.00652399
0.00654726
0.00656539
0.00658145
0.00659589
0.00660819
0.00661834
0.00662655
0.00663306
0.00663823
0.0066424
0.00664587
0.00664887
0.00665156
0.00665406
0.00665644
0.00665876
0.00666104
0.0066633
0.00666555
0.0066678
0.00667005
0.0066723
0.00667454
0.00667677
0.00667898
0.00668118
0.00668337
0.00668554
0.0066877
0.00668985
0.00669198
0.0066941
0.0066962
0.00669828
0.00670035
0.00670239
0.00670442
0.00670642
0.00670842
0.0067104
0.00671236
0.00671432
0.00671626
0.00671819
0.0067201
0.006722
0.00672389
0.00672577
0.00672764
0.0067295
0.00673136
0.00673322
0.00673507
0.00673692
0.00673877
0.00674062
0.00674246
0.00674431
0.00674616
0.00674801
0.00674987
0.00675174
0.00675362
0.0067555
0.0067574
0.00675931
0.00676123
0.00676316
0.0067651
0.00676706
0.00676903
0.00677102
0.00677303
0.00677506
0.00677711
0.00677917
0.00678126
0.00678336
0.00678548
0.00678762
0.00678978
0.00679196
0.00679417
0.00679639
0.00679864
0.0068009
0.00680319
0.00680549
0.00680781
0.00681015
0.0068125
0.00681488
0.00681726
0.00681967
0.00682209
0.00682453
0.00682698
0.00682944
0.00683192
0.0068344
0.0068369
0.00683939
0.00684191
0.0068444
0.00684697
0.00684942
0.00685207
0.00685445
0.00685726
0.00685943
0.00686255
0.00686433
0.00686793
0.0068694
0.00687364
0.00646173
0.0072103
0.00734244
0.0073347
0.00731154
0.00729142
0.00727891
0.00727238
0.0072707
0.0072717
0.00727458
0.00727853
0.00728271
0.00728687
0.00729083
0.00729455
0.00729804
0.00730131
0.00730442
0.00730738
0.00731022
0.00731299
0.00731569
0.00731835
0.00732097
0.00732356
0.00732613
0.00732868
0.00733121
0.00733372
0.00733621
0.00733868
0.00734114
0.00734359
0.00734602
0.00734844
0.00735085
0.00735324
0.00735561
0.00735797
0.0073603
0.00736263
0.00736493
0.00736723
0.0073695
0.00737177
0.00737403
0.00737627
0.0073785
0.00738072
0.00738293
0.00738512
0.00738731
0.00738949
0.00739166
0.00739384
0.00739601
0.00739818
0.00740035
0.00740252
0.00740468
0.00740685
0.00740902
0.0074112
0.00741338
0.00741557
0.00741777
0.00741998
0.0074222
0.00742443
0.00742666
0.00742891
0.00743117
0.00743345
0.00743573
0.00743804
0.00744036
0.00744269
0.00744505
0.00744742
0.0074498
0.0074522
0.00745462
0.00745705
0.0074595
0.00746197
0.00746446
0.00746696
0.00746949
0.00747203
0.00747458
0.00747716
0.00747974
0.00748234
0.00748496
0.00748759
0.00749023
0.00749289
0.00749557
0.00749825
0.00750095
0.00750366
0.00750638
0.0075091
0.00751183
0.00751458
0.00751731
0.00752009
0.00752281
0.00752563
0.00752833
0.00753121
0.00753383
0.00753687
0.00753928
0.00754265
0.00754461
0.00754857
0.00755003
0.00755475
0.00649902
0.00685836
0.00681753
0.00675082
0.00670465
0.00666937
0.00664323
0.00662574
0.00661554
0.0066105
0.00660914
0.00661006
0.00661236
0.00661533
0.00661856
0.00662184
0.00662504
0.00662812
0.00663107
0.00663388
0.00663659
0.0066392
0.00664175
0.00664424
0.0066467
0.00664912
0.00665152
0.0066539
0.00665627
0.00665862
0.00666096
0.00666329
0.00666561
0.00666791
0.00667021
0.0066725
0.00667479
0.00667705
0.00667931
0.00668155
0.00668378
0.00668599
0.0066882
0.00669039
0.00669257
0.00669474
0.0066969
0.00669905
0.00670119
0.00670332
0.00670544
0.00670755
0.00670965
0.00671175
0.00671385
0.00671594
0.00671803
0.00672013
0.00672222
0.00672431
0.0067264
0.00672849
0.00673059
0.00673269
0.00673479
0.00673691
0.00673903
0.00674116
0.00674329
0.00674543
0.00674759
0.00674975
0.00675191
0.00675409
0.00675628
0.00675848
0.00676069
0.00676292
0.00676515
0.0067674
0.00676966
0.00677193
0.00677421
0.0067765
0.0067788
0.00678111
0.00678344
0.00678578
0.00678813
0.00679049
0.00679286
0.00679524
0.00679763
0.00680003
0.00680244
0.00680486
0.00680729
0.00680972
0.00681217
0.00681462
0.00681708
0.00681955
0.00682202
0.0068245
0.00682698
0.00682947
0.00683195
0.00683445
0.00683692
0.00683946
0.00684191
0.0068445
0.00684687
0.0068496
0.00685179
0.00685479
0.00685659
0.00686014
0.00686132
0.00686577
)
;

boundaryField
{
    upperWall
    {
        type            zeroGradient;
    }
    lowerWall
    {
        type            zeroGradient;
    }
    heatedWall
    {
        type            zeroGradient;
    }
    inlet
    {
        type            zeroGradient;
    }
    outlet
    {
        type            zeroGradient;
    }
    frontAndBack
    {
        type            empty;
    }
}


// ************************************************************************* //
