/*--------------------------------*- C++ -*----------------------------------*\
  =========                 |
  \\      /  F ield         | OpenFOAM: The Open Source CFD Toolbox
   \\    /   O peration     | Website:  https://openfoam.org
    \\  /    A nd           | Version:  7
     \\/     M anipulation  |
\*---------------------------------------------------------------------------*/
FoamFile
{
    version     2.0;
    format      ascii;
    class       surfaceScalarField;
    location    "0.9675";
    object      phi_0;
}
// * * * * * * * * * * * * * * * * * * * * * * * * * * * * * * * * * * * * * //

dimensions      [1 0 -1 0 0 0 0];

internalField   nonuniform List<scalar> 
3120
(
2.10842e-08
3.05171e-08
9.71242e-09
1.13636e-08
4.77556e-09
4.92405e-09
2.44603e-09
2.31449e-09
1.25112e-09
1.17903e-09
5.80364e-10
6.54869e-10
1.73418e-10
3.91426e-10
-9.23931e-11
2.50807e-10
-2.79083e-10
1.72292e-10
-4.18648e-10
1.25825e-10
-5.27308e-10
9.55908e-11
-6.13788e-10
7.40564e-11
-6.83644e-10
5.80335e-11
-7.4014e-10
4.52281e-11
-7.8494e-10
3.40407e-11
-8.19589e-10
2.43578e-11
-8.45157e-10
1.57073e-11
-8.62919e-10
8.30168e-12
-8.7328e-10
1.27473e-12
-8.77024e-10
-4.99019e-12
-8.74925e-10
-1.04969e-11
-8.67422e-10
-1.55817e-11
-8.55043e-10
-2.01524e-11
-8.38119e-10
-2.44102e-11
-8.17003e-10
-2.83345e-11
-7.92024e-10
-3.19577e-11
-7.63325e-10
-3.54645e-11
-7.30996e-10
-3.8917e-11
-6.94971e-10
-4.24652e-11
-6.55087e-10
-4.61769e-11
-6.10864e-10
-5.03037e-11
-5.61323e-10
-5.51929e-11
-5.04601e-10
-6.14865e-11
-4.37318e-10
-7.04648e-11
-3.53269e-10
-8.5259e-11
-2.43131e-10
-1.11384e-10
-8.89544e-11
-1.63764e-10
1.63394e-10
-2.78247e-10
6.80588e-10
-5.31143e-10
-1.3466e-09
4.15031e-08
4.13781e-08
2.92597e-08
2.35942e-08
1.96269e-08
1.45402e-08
1.29624e-08
8.96069e-09
8.53211e-09
5.59111e-09
5.61027e-09
3.55931e-09
3.66231e-09
2.32285e-09
2.33414e-09
1.56322e-09
1.40304e-09
1.08839e-09
7.33561e-10
7.81081e-10
2.42197e-10
5.73498e-10
-1.24615e-10
4.28136e-10
-3.99042e-10
3.20396e-10
-6.03538e-10
2.38266e-10
-7.54008e-10
1.73602e-10
-8.61113e-10
1.21056e-10
-9.33141e-10
7.7786e-11
-9.75466e-10
4.10978e-11
-9.93153e-10
9.82286e-12
-9.89718e-10
-1.72001e-11
-9.68423e-10
-4.02211e-11
-9.31801e-10
-6.03049e-11
-8.81898e-10
-7.78456e-11
-8.20504e-10
-9.33015e-11
-7.49057e-10
-1.07005e-10
-6.68693e-10
-1.19296e-10
-5.8044e-10
-1.30472e-10
-4.85114e-10
-1.40812e-10
-3.83234e-10
-1.5076e-10
-2.75242e-10
-1.60435e-10
-1.61152e-10
-1.70459e-10
-4.04255e-11
-1.81596e-10
8.83229e-11
-1.95111e-10
2.27684e-10
-2.13242e-10
3.8158e-10
-2.40568e-10
5.54637e-10
-2.84985e-10
7.47789e-10
-3.62865e-10
9.49015e-10
-5.02073e-10
1.11358e-09
-7.13961e-10
-9.49725e-10
5.67225e-08
4.52868e-08
4.45677e-08
3.57252e-08
3.33194e-08
2.57643e-08
2.43522e-08
1.79061e-08
1.76408e-08
1.22831e-08
1.27766e-08
8.4059e-09
9.28062e-09
5.80254e-09
6.75017e-09
4.07821e-09
4.89391e-09
2.92996e-09
3.51374e-09
2.14732e-09
2.47647e-09
1.59762e-09
1.69235e-09
1.19985e-09
1.09735e-09
9.03656e-10
6.46812e-10
6.77668e-10
3.09084e-10
5.00732e-10
6.06944e-11
3.59331e-10
-1.15375e-10
2.44179e-10
-2.32157e-10
1.48602e-10
-3.00241e-10
6.89942e-11
-3.27488e-10
1.47418e-12
-3.20478e-10
-5.54826e-11
-2.84723e-10
-1.04006e-10
-2.24631e-10
-1.45594e-10
-1.43814e-10
-1.81498e-10
-4.52416e-11
-2.12697e-10
6.86227e-11
-2.40043e-10
1.95712e-10
-2.64235e-10
3.3432e-10
-2.85917e-10
4.82743e-10
-3.05534e-10
6.40052e-10
-3.23967e-10
8.05362e-10
-3.41832e-10
9.78167e-10
-3.60168e-10
1.15842e-09
-3.80509e-10
1.34662e-09
-4.05404e-10
1.54283e-09
-4.389e-10
1.7456e-09
-4.88133e-10
1.94509e-09
-5.63955e-10
2.11183e-09
-6.79497e-10
2.19241e-09
-8.19297e-10
-9.24852e-10
5.9545e-08
5.27131e-08
5.10431e-08
4.41997e-08
4.21954e-08
3.45873e-08
3.38204e-08
2.62593e-08
2.66109e-08
1.94733e-08
2.07775e-08
1.42221e-08
1.62029e-08
1.03612e-08
1.26538e-08
7.61205e-09
9.90469e-09
5.66454e-09
7.77332e-09
4.26491e-09
6.11942e-09
3.23853e-09
4.83542e-09
2.47164e-09
3.83889e-09
1.88868e-09
3.06752e-09
1.43813e-09
2.47421e-09
1.08367e-09
2.02359e-09
8.00065e-10
1.68857e-09
5.69739e-10
1.44807e-09
3.80015e-10
1.28573e-09
2.22599e-10
1.18738e-09
9.14053e-11
1.14345e-09
-1.96706e-11
1.14471e-09
-1.13097e-10
1.18397e-09
-1.9241e-10
1.25536e-09
-2.60174e-10
1.35399e-09
-3.18376e-10
1.47582e-09
-3.68677e-10
1.61742e-09
-4.12435e-10
1.77587e-09
-4.50783e-10
1.94875e-09
-4.8469e-10
2.1338e-09
-5.15158e-10
2.32912e-09
-5.43155e-10
2.53302e-09
-5.6986e-10
2.74399e-09
-5.96828e-10
2.96036e-09
-6.26264e-10
3.17976e-09
-6.61343e-10
3.39715e-09
-7.06682e-10
3.60134e-09
-7.68086e-10
3.77012e-09
-8.5011e-10
3.88224e-09
-9.39509e-10
-1.00051e-09
5.73842e-08
5.07324e-08
5.44234e-08
4.71388e-08
4.83307e-08
4.06581e-08
4.13602e-08
3.32092e-08
3.46092e-08
2.62058e-08
2.861e-08
2.02047e-08
2.3514e-08
1.54416e-08
1.9286e-08
1.18248e-08
1.5829e-08
9.10696e-09
1.30325e-08
7.0475e-09
1.07886e-08
5.46935e-09
8.99839e-09
4.24965e-09
7.57582e-09
3.2998e-09
6.44989e-09
2.55326e-09
5.5637e-09
1.95962e-09
4.87244e-09
1.48156e-09
4.3409e-09
1.09194e-09
3.94074e-09
7.71215e-10
3.64953e-09
5.05179e-10
3.44925e-09
2.83365e-10
3.32387e-09
9.76688e-11
3.26254e-09
-5.95293e-11
3.25457e-09
-1.9194e-10
3.2916e-09
-3.04449e-10
3.36671e-09
-4.00477e-10
3.47409e-09
-4.8282e-10
3.60887e-09
-5.53744e-10
3.76684e-09
-6.15099e-10
3.94439e-09
-6.68409e-10
4.13824e-09
-7.15033e-10
4.3454e-09
-7.56212e-10
4.56303e-09
-7.93221e-10
4.78826e-09
-8.27488e-10
5.01786e-09
-8.60734e-10
5.24769e-09
-8.95048e-10
5.47162e-09
-9.33013e-10
5.68003e-09
-9.7724e-10
5.85905e-09
-1.02891e-09
5.99997e-09
-1.08081e-09
-1.11436e-09
6.28724e-08
5.58382e-08
5.7814e-08
5.21739e-08
5.25958e-08
4.58544e-08
4.69412e-08
3.88441e-08
4.11713e-08
3.19582e-08
3.56313e-08
2.57288e-08
3.05482e-08
2.05092e-08
2.60412e-08
1.63166e-08
2.21529e-08
1.29804e-08
1.88714e-08
1.0315e-08
1.61474e-08
8.18017e-09
1.39124e-08
6.4725e-09
1.20929e-08
5.10792e-09
1.06207e-08
4.01481e-09
9.43665e-09
3.13353e-09
8.49174e-09
2.41685e-09
7.74566e-09
1.82881e-09
7.16545e-09
1.34259e-09
6.72397e-09
9.38139e-10
6.39889e-09
6.00223e-10
6.17172e-09
3.16882e-10
6.02572e-09
7.87772e-11
5.94956e-09
-1.23225e-10
5.93217e-09
-2.94255e-10
5.96432e-09
-4.39573e-10
6.03849e-09
-5.63696e-10
6.14831e-09
-6.70034e-10
6.28829e-09
-7.61334e-10
6.45363e-09
-8.39817e-10
6.64002e-09
-9.07329e-10
6.84348e-09
-9.65434e-10
7.06018e-09
-1.01553e-09
7.28623e-09
-1.05894e-09
7.5174e-09
-1.09695e-09
7.74872e-09
-1.13081e-09
7.97398e-09
-1.16176e-09
8.18529e-09
-1.19079e-09
8.37361e-09
-1.21815e-09
8.53412e-09
-1.24135e-09
-1.25373e-09
6.09113e-08
5.81777e-08
5.76282e-08
5.54347e-08
5.43749e-08
4.90872e-08
5.05574e-08
4.26433e-08
4.621e-08
3.62892e-08
4.15629e-08
3.03605e-08
3.69051e-08
2.51516e-08
3.2484e-08
2.07223e-08
2.84643e-08
1.6985e-08
2.49279e-08
1.38371e-08
2.18908e-08
1.12042e-08
1.93259e-08
9.0253e-09
1.71848e-08
7.23775e-09
1.54129e-08
5.77627e-09
1.39572e-08
4.57924e-09
1.27707e-08
3.59388e-09
1.18127e-08
2.77786e-09
1.10482e-08
2.09833e-09
1.0448e-08
1.53004e-09
9.98683e-09
1.05325e-09
9.64363e-09
6.52231e-10
9.40062e-09
3.14171e-10
9.24047e-09
2.95502e-11
9.15373e-09
-2.14657e-10
9.12784e-09
-4.20577e-10
9.1538e-09
-5.96301e-10
9.22385e-09
-7.4649e-10
9.33127e-09
-8.74933e-10
9.47018e-09
-9.84695e-10
9.63531e-09
-1.07824e-09
9.82181e-09
-1.15754e-09
1.00251e-08
-1.22423e-09
1.02404e-08
-1.27962e-09
1.04632e-08
-1.32475e-09
1.06881e-08
-1.36039e-09
1.09092e-08
-1.38701e-09
1.11199e-08
-1.40489e-09
1.13136e-08
-1.41427e-09
1.14863e-08
-1.41559e-09
-1.41082e-09
5.48082e-08
5.57021e-08
5.58945e-08
5.43272e-08
5.51957e-08
4.9767e-08
5.321e-08
4.46121e-08
5.01985e-08
3.9285e-08
4.64812e-08
3.40624e-08
4.24219e-08
2.91952e-08
3.83348e-08
2.47936e-08
3.44452e-08
2.08594e-08
3.08899e-08
1.73783e-08
2.7733e-08
1.43481e-08
2.49874e-08
1.1759e-08
2.26349e-08
9.57929e-09
2.06417e-08
7.75917e-09
1.89687e-08
6.24257e-09
1.75766e-08
4.97669e-09
1.6429e-08
3.91658e-09
1.5493e-08
3.02583e-09
1.47394e-08
2.27548e-09
1.41424e-08
1.64227e-09
1.36797e-08
1.10721e-09
1.33317e-08
6.54623e-10
1.30828e-08
2.71119e-10
1.29161e-08
-5.50577e-11
1.28218e-08
-3.33125e-10
1.27889e-08
-5.69917e-10
1.28081e-08
-7.72071e-10
1.28718e-08
-9.44696e-10
1.2973e-08
-1.09182e-09
1.31058e-08
-1.21664e-09
1.32644e-08
-1.32168e-09
1.34438e-08
-1.40891e-09
1.36389e-08
-1.4798e-09
1.38446e-08
-1.53536e-09
1.40557e-08
-1.57617e-09
1.42667e-08
-1.60242e-09
1.4472e-08
-1.61411e-09
1.4666e-08
-1.61164e-09
1.48447e-08
-1.59711e-09
-1.57863e-09
6.00592e-08
5.97188e-08
5.86245e-08
5.57407e-08
5.74401e-08
5.09326e-08
5.5781e-08
4.62541e-08
5.34071e-08
4.16426e-08
5.03979e-08
3.70556e-08
4.69797e-08
3.25973e-08
4.33981e-08
2.83593e-08
3.98569e-08
2.43854e-08
3.6501e-08
2.07203e-08
3.34193e-08
1.74172e-08
3.06557e-08
1.4511e-08
2.82218e-08
1.20025e-08
2.61083e-08
9.86258e-09
2.42944e-08
8.04696e-09
2.27537e-08
6.50844e-09
2.14578e-08
5.20375e-09
2.03793e-08
4.09606e-09
1.94918e-08
3.15486e-09
1.87714e-08
2.35486e-09
1.81962e-08
1.6748e-09
1.77468e-08
1.09655e-09
1.74063e-08
6.04478e-10
1.71586e-08
1.85615e-10
1.69911e-08
-1.72416e-10
1.68935e-08
-4.78893e-10
1.68553e-08
-7.40151e-10
1.68679e-08
-9.63345e-10
1.69238e-08
-1.15349e-09
1.70162e-08
-1.3146e-09
1.7139e-08
-1.44983e-09
1.72866e-08
-1.56164e-09
1.74536e-08
-1.65181e-09
1.76351e-08
-1.72157e-09
1.78259e-08
-1.77155e-09
1.80211e-08
-1.80193e-09
1.82157e-08
-1.81274e-09
1.84048e-08
-1.80448e-09
1.85843e-08
-1.77997e-09
-1.75132e-09
6.17664e-08
5.79459e-08
6.08258e-08
5.66607e-08
5.92835e-08
5.24561e-08
5.75957e-08
4.79243e-08
5.56243e-08
4.35971e-08
5.32585e-08
3.94049e-08
5.05382e-08
3.53013e-08
4.75911e-08
3.12905e-08
4.45634e-08
2.73984e-08
4.15827e-08
2.36875e-08
3.8746e-08
2.02416e-08
3.61182e-08
1.71276e-08
3.37358e-08
1.43744e-08
3.16133e-08
1.19753e-08
2.97492e-08
9.9018e-09
2.8132e-08
8.11677e-09
2.67446e-08
6.58265e-09
2.55672e-08
5.26533e-09
2.45789e-08
4.13516e-09
2.37595e-08
3.16662e-09
2.30893e-08
2.3375e-09
2.25502e-08
1.62828e-09
2.21257e-08
1.02175e-09
2.18016e-08
5.02826e-10
2.15632e-08
5.91785e-11
2.14006e-08
-3.22786e-10
2.13032e-08
-6.49013e-10
2.12619e-08
-9.28059e-10
2.12687e-08
-1.16602e-09
2.13164e-08
-1.36778e-09
2.13986e-08
-1.53722e-09
2.15093e-08
-1.67736e-09
2.16432e-08
-1.79048e-09
2.17952e-08
-1.87817e-09
2.19606e-08
-1.94136e-09
2.2135e-08
-1.98048e-09
2.2314e-08
-1.9957e-09
2.24934e-08
-1.9876e-09
2.26691e-08
-1.95907e-09
-1.92422e-09
6.21671e-08
5.80775e-08
6.18818e-08
5.69262e-08
6.03262e-08
5.39931e-08
5.86612e-08
4.95717e-08
5.70412e-08
4.52002e-08
5.52704e-08
4.11592e-08
5.32405e-08
3.73153e-08
5.09682e-08
3.35476e-08
4.85349e-08
2.98174e-08
4.60387e-08
2.61706e-08
4.35709e-08
2.26975e-08
4.12053e-08
1.94823e-08
3.89947e-08
1.65748e-08
3.69718e-08
1.39886e-08
3.51522e-08
1.17123e-08
3.35391e-08
9.72115e-09
3.21271e-08
7.98625e-09
3.09056e-08
6.47879e-09
2.98607e-08
5.1722e-09
2.89772e-08
4.04248e-09
2.82394e-08
3.0679e-09
2.76318e-08
2.22862e-09
2.71398e-08
1.5066e-09
2.67499e-08
8.8583e-10
2.64503e-08
3.52082e-10
2.62282e-08
-1.07215e-10
2.60754e-08
-5.02438e-10
2.59823e-08
-8.40947e-10
2.59408e-08
-1.13021e-09
2.59435e-08
-1.37593e-09
2.59839e-08
-1.58273e-09
2.60559e-08
-1.7543e-09
2.61543e-08
-1.89349e-09
2.62741e-08
-2.00241e-09
2.6411e-08
-2.08248e-09
2.6561e-08
-2.13452e-09
2.67206e-08
-2.15905e-09
2.68862e-08
-2.15676e-09
2.7054e-08
-2.13017e-09
-2.09359e-09
5.99098e-08
5.4e-08
6.07971e-08
5.60196e-08
5.98529e-08
5.49193e-08
5.87972e-08
5.06104e-08
5.7781e-08
4.62e-08
5.66402e-08
4.22843e-08
5.52629e-08
3.86773e-08
5.36358e-08
3.51602e-08
5.1804e-08
3.16357e-08
4.98373e-08
2.81248e-08
4.78117e-08
2.47116e-08
4.57983e-08
2.14851e-08
4.38557e-08
1.85074e-08
4.20273e-08
1.58075e-08
4.03412e-08
1.33894e-08
3.88126e-08
1.12412e-08
3.74466e-08
9.3439e-09
3.62418e-08
7.67559e-09
3.51919e-08
6.21443e-09
3.42874e-08
4.93939e-09
3.35175e-08
3.83043e-09
3.28704e-08
2.86847e-09
3.23344e-08
2.03555e-09
3.18982e-08
1.31514e-09
3.15511e-08
6.92421e-10
3.12823e-08
1.55148e-10
3.10834e-08
-3.09713e-10
3.09457e-08
-7.09267e-10
3.08614e-08
-1.05156e-09
3.08232e-08
-1.3431e-09
3.08245e-08
-1.58921e-09
3.08597e-08
-1.79425e-09
3.09233e-08
-1.96172e-09
3.1011e-08
-2.09435e-09
3.11186e-08
-2.19417e-09
3.12428e-08
-2.26258e-09
3.13807e-08
-2.30054e-09
3.15296e-08
-2.30902e-09
3.16863e-08
-2.29001e-09
-2.25657e-09
6.1299e-08
6.09514e-08
5.86998e-08
5.86013e-08
5.84647e-08
5.51375e-08
5.84468e-08
5.06123e-08
5.8194e-08
4.64373e-08
5.76421e-08
4.28213e-08
5.68099e-08
3.94951e-08
5.57337e-08
3.62227e-08
5.44506e-08
3.29059e-08
5.30037e-08
2.95597e-08
5.14457e-08
2.62585e-08
4.98345e-08
2.30859e-08
4.82252e-08
2.01069e-08
4.66641e-08
1.73593e-08
4.51857e-08
1.48588e-08
4.38133e-08
1.26051e-08
4.25604e-08
1.05885e-08
4.14332e-08
8.7949e-09
4.04321e-08
7.2078e-09
3.95539e-08
5.81012e-09
3.87925e-08
4.58439e-09
3.81407e-08
3.51311e-09
3.75901e-08
2.57912e-09
3.71322e-08
1.76618e-09
3.67584e-08
1.05951e-09
3.6461e-08
4.46091e-10
3.62301e-08
-8.49869e-11
3.60602e-08
-5.45313e-10
3.59432e-08
-9.4021e-10
3.58723e-08
-1.27766e-09
3.58416e-08
-1.5635e-09
3.58452e-08
-1.8027e-09
3.58784e-08
-1.99944e-09
3.5937e-08
-2.15712e-09
3.60173e-08
-2.27846e-09
3.61166e-08
-2.36555e-09
3.62326e-08
-2.41997e-09
3.63635e-08
-2.44309e-09
3.6507e-08
-2.43654e-09
-2.41112e-09
5.65621e-08
6.20573e-08
5.75454e-08
5.76017e-08
5.86277e-08
5.40398e-08
5.91246e-08
5.01006e-08
5.90666e-08
4.64808e-08
5.86849e-08
4.31889e-08
5.81256e-08
4.00408e-08
5.74299e-08
3.69053e-08
5.65929e-08
3.37305e-08
5.56116e-08
3.05294e-08
5.45039e-08
2.73553e-08
5.33058e-08
2.42738e-08
5.20612e-08
2.13417e-08
5.08125e-08
1.85987e-08
4.95951e-08
1.60673e-08
4.84357e-08
1.37559e-08
4.73528e-08
1.16632e-08
4.63578e-08
9.78192e-09
4.54568e-08
8.10112e-09
4.46515e-08
6.60787e-09
4.39409e-08
5.28769e-09
4.33217e-08
4.12514e-09
4.27894e-08
3.10439e-09
4.23387e-08
2.21006e-09
4.19637e-08
1.42782e-09
4.16583e-08
7.45034e-10
4.14155e-08
1.51635e-10
4.12297e-08
-3.65421e-10
4.10942e-08
-8.10443e-10
4.10032e-08
-1.19196e-09
4.09508e-08
-1.51622e-09
4.0932e-08
-1.78872e-09
4.09424e-08
-2.01425e-09
4.0978e-08
-2.19693e-09
4.10359e-08
-2.34021e-09
4.11136e-08
-2.44694e-09
4.12097e-08
-2.51942e-09
4.13232e-08
-2.55965e-09
4.1453e-08
-2.56914e-09
-2.55615e-09
6.10853e-08
6.25703e-08
6.05388e-08
5.81338e-08
6.07578e-08
5.38065e-08
6.06255e-08
5.02189e-08
6.01827e-08
4.691e-08
5.96868e-08
4.36714e-08
5.92408e-08
4.04738e-08
5.88135e-08
3.73201e-08
5.83341e-08
3.41981e-08
5.77511e-08
3.11011e-08
5.70498e-08
2.80459e-08
5.62449e-08
2.50686e-08
5.53663e-08
2.22105e-08
5.44482e-08
1.95075e-08
5.3522e-08
1.69846e-08
5.26136e-08
1.46558e-08
5.17429e-08
1.25257e-08
5.09241e-08
1.05928e-08
5.01667e-08
8.85083e-09
4.94763e-08
7.29071e-09
4.88558e-08
5.90086e-09
4.83058e-08
4.66799e-09
4.78253e-08
3.57789e-09
4.74121e-08
2.61638e-09
4.70631e-08
1.77015e-09
4.67745e-08
1.0273e-09
4.65424e-08
3.77525e-10
4.636e-08
-1.89025e-10
4.62238e-08
-6.79811e-10
4.6128e-08
-1.10162e-09
4.60679e-08
-1.46118e-09
4.60388e-08
-1.76443e-09
4.60369e-08
-2.01673e-09
4.60586e-08
-2.22284e-09
4.61015e-08
-2.38698e-09
4.61638e-08
-2.51276e-09
4.62444e-08
-2.60332e-09
4.63432e-08
-2.66141e-09
4.64601e-08
-2.68885e-09
-2.69158e-09
5.89644e-08
5.89512e-08
6.06484e-08
5.64365e-08
6.12306e-08
5.3211e-08
6.10932e-08
5.03431e-08
6.06807e-08
4.73095e-08
6.03175e-08
4.40219e-08
6.00863e-08
4.06925e-08
5.99293e-08
3.74651e-08
5.97585e-08
3.43575e-08
5.9511e-08
3.13376e-08
5.91609e-08
2.83855e-08
5.87104e-08
2.5509e-08
5.81774e-08
2.27338e-08
5.75859e-08
2.00898e-08
5.696e-08
1.76016e-08
5.63215e-08
1.52857e-08
5.56887e-08
1.31503e-08
5.50761e-08
1.11974e-08
5.44948e-08
9.42442e-09
5.39528e-08
7.82517e-09
5.34557e-08
6.39055e-09
5.30073e-08
5.10922e-09
5.26096e-08
3.96858e-09
5.22633e-08
2.95584e-09
5.19679e-08
2.05894e-09
5.17217e-08
1.26705e-09
5.15223e-08
5.70776e-10
5.13655e-08
-3.8078e-11
5.1248e-08
-5.68024e-10
5.11655e-08
-1.02448e-09
5.11138e-08
-1.41453e-09
5.10889e-08
-1.74438e-09
5.10876e-08
-2.01983e-09
5.11068e-08
-2.24628e-09
5.11446e-08
-2.42864e-09
5.11996e-08
-2.57132e-09
5.12713e-08
-2.67827e-09
5.13601e-08
-2.75313e-09
5.14669e-08
-2.79835e-09
-2.81846e-09
5.60178e-08
5.3689e-08
5.8964e-08
5.34776e-08
6.01515e-08
5.20108e-08
6.0537e-08
4.99452e-08
6.0611e-08
4.72232e-08
6.06504e-08
4.39704e-08
6.07396e-08
4.05916e-08
6.08549e-08
3.73384e-08
6.09453e-08
3.4256e-08
6.09719e-08
3.13004e-08
6.09157e-08
2.84313e-08
6.07743e-08
2.56405e-08
6.05551e-08
2.29434e-08
6.02713e-08
2.03644e-08
5.99381e-08
1.79259e-08
5.95714e-08
1.56439e-08
5.9186e-08
1.35274e-08
5.8795e-08
1.15803e-08
5.84096e-08
9.80205e-09
5.80388e-08
8.18838e-09
5.769e-08
6.73199e-09
5.73689e-08
5.42307e-09
5.70801e-08
4.25045e-09
5.68263e-08
3.20273e-09
5.66095e-08
2.26924e-09
5.64296e-08
1.4405e-09
5.6286e-08
7.08275e-10
5.6176e-08
6.60159e-11
5.60975e-08
-4.95115e-10
5.60468e-08
-9.79199e-10
5.60208e-08
-1.39354e-09
5.6016e-08
-1.74442e-09
5.60297e-08
-2.03803e-09
5.60595e-08
-2.2803e-09
5.61038e-08
-2.47678e-09
5.61616e-08
-2.63264e-09
5.62327e-08
-2.75263e-09
5.63179e-08
-2.84128e-09
5.64188e-08
-2.90194e-09
-2.93885e-09
6.36707e-08
5.68156e-08
6.17876e-08
5.53485e-08
6.10098e-08
5.27767e-08
6.07422e-08
5.02011e-08
6.07943e-08
4.71595e-08
6.10249e-08
4.37284e-08
6.13317e-08
4.02736e-08
6.16508e-08
3.70083e-08
6.19457e-08
3.39503e-08
6.21955e-08
3.10401e-08
6.23875e-08
2.82291e-08
6.25148e-08
2.55033e-08
6.25754e-08
2.28733e-08
6.25722e-08
2.03583e-08
6.25125e-08
1.79768e-08
6.24059e-08
1.57418e-08
6.22636e-08
1.36615e-08
6.20963e-08
1.17395e-08
6.19142e-08
9.97631e-09
6.17264e-08
8.36857e-09
6.15409e-08
6.91e-09
6.13649e-08
5.59188e-09
6.12042e-08
4.40415e-09
6.10634e-08
3.3367e-09
6.09458e-08
2.38027e-09
6.08531e-08
1.52688e-09
6.07855e-08
7.69789e-10
6.07427e-08
1.02943e-10
6.07219e-08
-4.79885e-10
6.07212e-08
-9.83877e-10
6.07379e-08
-1.41534e-09
6.07693e-08
-1.78066e-09
6.08131e-08
-2.08632e-09
6.08673e-08
-2.33869e-09
6.09306e-08
-2.54392e-09
6.10022e-08
-2.70784e-09
6.10822e-08
-2.83594e-09
6.11716e-08
-2.9336e-09
6.12722e-08
-3.00516e-09
-3.05572e-09
6.21302e-08
5.37492e-08
6.19874e-08
5.548e-08
6.11163e-08
5.36368e-08
6.07313e-08
5.05751e-08
6.08707e-08
4.70092e-08
6.1284e-08
4.33043e-08
6.17845e-08
3.97623e-08
6.22901e-08
3.64921e-08
6.27756e-08
3.34543e-08
6.32316e-08
3.05738e-08
6.36482e-08
2.78024e-08
6.40149e-08
2.51268e-08
6.43234e-08
2.25553e-08
6.45703e-08
2.01022e-08
6.47573e-08
1.77809e-08
6.48898e-08
1.56006e-08
6.49756e-08
1.35673e-08
6.50232e-08
1.16838e-08
6.50414e-08
9.95029e-09
6.50384e-08
8.36385e-09
6.50224e-08
6.91854e-09
6.50009e-08
5.60618e-09
6.49805e-08
4.41754e-09
6.49668e-08
3.34364e-09
6.49639e-08
2.37658e-09
6.49746e-08
1.50987e-09
6.50002e-08
7.38183e-10
6.50406e-08
5.67595e-11
6.50944e-08
-5.39301e-10
6.51601e-08
-1.05488e-09
6.52355e-08
-1.49578e-09
6.53183e-08
-1.86831e-09
6.54066e-08
-2.17914e-09
6.54987e-08
-2.43503e-09
6.55935e-08
-2.64262e-09
6.56904e-08
-2.80832e-09
6.57894e-08
-2.93823e-09
6.58914e-08
-3.03851e-09
6.5998e-08
-3.1144e-09
-3.17264e-09
5.84719e-08
5.00527e-08
5.96046e-08
5.43373e-08
5.97288e-08
5.35024e-08
6.00116e-08
5.02822e-08
6.05904e-08
4.64202e-08
6.13132e-08
4.25712e-08
6.20577e-08
3.90074e-08
6.27807e-08
3.57588e-08
6.34767e-08
3.27481e-08
6.4144e-08
2.98964e-08
6.47749e-08
2.71616e-08
6.53583e-08
2.45338e-08
6.5885e-08
2.20191e-08
6.63502e-08
1.96278e-08
6.6754e-08
1.73682e-08
6.70996e-08
1.52463e-08
6.73926e-08
1.32658e-08
6.76396e-08
1.14287e-08
6.78475e-08
9.73445e-09
6.80238e-08
8.1799e-09
6.81759e-08
6.75896e-09
6.83112e-08
5.46362e-09
6.84365e-08
4.28519e-09
6.85578e-08
3.21563e-09
6.86795e-08
2.24831e-09
6.8805e-08
1.37817e-09
6.89358e-08
6.01356e-10
6.90725e-08
-8.57047e-11
6.92142e-08
-6.86592e-10
6.93598e-08
-1.2057e-09
6.95073e-08
-1.64834e-09
6.96548e-08
-2.02066e-09
6.98006e-08
-2.32945e-09
6.99431e-08
-2.58174e-09
7.00812e-08
-2.78459e-09
7.02141e-08
-2.94488e-09
7.03418e-08
-3.06922e-09
7.04647e-08
-3.16435e-09
7.05838e-08
-3.23623e-09
-3.29333e-09
5.55853e-08
5.6524e-08
5.56585e-08
5.42553e-08
5.71188e-08
5.2033e-08
5.85745e-08
4.88172e-08
5.99043e-08
4.50808e-08
6.1098e-08
4.13676e-08
6.2176e-08
3.79195e-08
6.31713e-08
3.47535e-08
6.41086e-08
3.18009e-08
6.49968e-08
2.89982e-08
6.58342e-08
2.63145e-08
6.66148e-08
2.37437e-08
6.73335e-08
2.1291e-08
6.79886e-08
1.89635e-08
6.85813e-08
1.67666e-08
6.91147e-08
1.47043e-08
6.9593e-08
1.27791e-08
7.00212e-08
1.09923e-08
7.04048e-08
9.34283e-09
7.07502e-08
7.82678e-09
7.10641e-08
6.4376e-09
7.13533e-08
5.16712e-09
7.16245e-08
4.00701e-09
7.18833e-08
2.95003e-09
7.21344e-08
1.99073e-09
7.2381e-08
1.12541e-09
7.26248e-08
3.51496e-10
7.28666e-08
-3.33189e-10
7.31058e-08
-9.31285e-10
7.33413e-08
-1.44642e-09
7.35714e-08
-1.88344e-09
7.37942e-08
-2.2483e-09
7.40081e-08
-2.54779e-09
7.42113e-08
-2.78917e-09
7.44026e-08
-2.97979e-09
7.45809e-08
-3.12688e-09
7.47458e-08
-3.23744e-09
7.4897e-08
-3.31856e-09
7.50348e-08
-3.37671e-09
-3.42114e-09
5.115e-08
5.41532e-08
5.34924e-08
5.19057e-08
5.57335e-08
4.97838e-08
5.7686e-08
4.6856e-08
5.93972e-08
4.33604e-08
6.09185e-08
3.98368e-08
6.22912e-08
3.65372e-08
6.3553e-08
3.34819e-08
6.47298e-08
3.06142e-08
6.58335e-08
2.78848e-08
6.68668e-08
2.52715e-08
6.78295e-08
2.27714e-08
6.87225e-08
2.03887e-08
6.95481e-08
1.81287e-08
7.03098e-08
1.59959e-08
7.10114e-08
1.39939e-08
7.16567e-08
1.21253e-08
7.22497e-08
1.03911e-08
7.2795e-08
8.78951e-09
7.32981e-08
7.31589e-09
7.37652e-08
5.96304e-09
7.42025e-08
4.72256e-09
7.46161e-08
3.58639e-09
7.50114e-08
2.54805e-09
7.53925e-08
1.60316e-09
7.57625e-08
7.49257e-10
7.6123e-08
-1.49693e-11
7.64746e-08
-6.90475e-10
7.68168e-08
-1.27899e-09
7.71486e-08
-1.78336e-09
7.74681e-08
-2.20794e-09
7.77735e-08
-2.55843e-09
7.80628e-08
-2.84157e-09
7.83341e-08
-3.06473e-09
7.85859e-08
-3.23546e-09
7.88166e-08
-3.36123e-09
7.90251e-08
-3.44926e-09
7.92102e-08
-3.50675e-09
7.93713e-08
-3.54052e-09
-3.55836e-09
5.16637e-08
5.15195e-08
5.40289e-08
4.95346e-08
5.58647e-08
4.79406e-08
5.75878e-08
4.51248e-08
5.9293e-08
4.16464e-08
6.09409e-08
3.81797e-08
6.25008e-08
3.49678e-08
6.39706e-08
3.20025e-08
6.53566e-08
2.92186e-08
6.66611e-08
2.65705e-08
6.78839e-08
2.40391e-08
6.90256e-08
2.16202e-08
7.00893e-08
1.93156e-08
7.10799e-08
1.71289e-08
7.20028e-08
1.50642e-08
7.28624e-08
1.31255e-08
7.36631e-08
1.13162e-08
7.4409e-08
9.63695e-09
7.51047e-08
8.08578e-09
7.57556e-08
6.65727e-09
7.63674e-08
5.34371e-09
7.69461e-08
4.13662e-09
7.74971e-08
3.02833e-09
7.80254e-08
2.01311e-09
7.85345e-08
1.08763e-09
7.9027e-08
2.5059e-10
7.95043e-08
-4.98199e-10
7.99668e-08
-1.15863e-09
8.04139e-08
-1.73148e-09
8.08442e-08
-2.2189e-09
8.1256e-08
-2.62468e-09
8.16471e-08
-2.95423e-09
8.20153e-08
-3.21418e-09
8.23583e-08
-3.4119e-09
8.26739e-08
-3.55507e-09
8.29604e-08
-3.65126e-09
8.32155e-08
-3.70777e-09
8.34374e-08
-3.7316e-09
8.3624e-08
-3.72992e-09
-3.70543e-09
5.68831e-08
5.11372e-08
5.64908e-08
4.99215e-08
5.69051e-08
4.75194e-08
5.80214e-08
4.40005e-08
5.95106e-08
4.01486e-08
6.11325e-08
3.65487e-08
6.27744e-08
3.33166e-08
6.43926e-08
3.03747e-08
6.59635e-08
2.76381e-08
6.74673e-08
2.5057e-08
6.88897e-08
2.26071e-08
7.02241e-08
2.02764e-08
7.1471e-08
1.80594e-08
7.2635e-08
1.59557e-08
7.37224e-08
1.39678e-08
7.47392e-08
1.21e-08
7.56911e-08
1.03557e-08
7.65838e-08
8.73598e-09
7.74229e-08
7.23858e-09
7.82146e-08
5.85787e-09
7.89646e-08
4.58612e-09
7.96789e-08
3.41514e-09
8.03623e-08
2.33792e-09
8.10191e-08
1.34964e-09
8.16523e-08
4.47961e-10
8.22641e-08
-3.6735e-10
8.28554e-08
-1.0954e-09
8.34264e-08
-1.73518e-09
8.39761e-08
-2.28657e-09
8.4503e-08
-2.75102e-09
8.50052e-08
-3.13179e-09
8.54803e-08
-3.43393e-09
8.59256e-08
-3.66388e-09
8.63385e-08
-3.82899e-09
8.67165e-08
-3.93696e-09
8.7057e-08
-3.99535e-09
8.73573e-08
-4.0114e-09
8.76142e-08
-3.99155e-09
8.78251e-08
-3.94354e-09
-3.86006e-09
6.06486e-08
5.80986e-08
5.81075e-08
5.24562e-08
5.77248e-08
4.78947e-08
5.84941e-08
4.3223e-08
5.97958e-08
3.88381e-08
6.13462e-08
3.49891e-08
6.30315e-08
3.16219e-08
6.47856e-08
2.8611e-08
6.65499e-08
2.5864e-08
6.82735e-08
2.33238e-08
6.99204e-08
2.09506e-08
7.14717e-08
1.87155e-08
7.29222e-08
1.65996e-08
7.42749e-08
1.45938e-08
7.55368e-08
1.26969e-08
7.67161e-08
1.09119e-08
7.78211e-08
9.24214e-09
7.88599e-08
7.68889e-09
7.98402e-08
6.25019e-09
8.07694e-08
4.92092e-09
8.16539e-08
3.69406e-09
8.24995e-08
2.56232e-09
8.33107e-08
1.51971e-09
8.40912e-08
5.62494e-10
8.48433e-08
-3.10634e-10
8.55688e-08
-1.09891e-09
8.6268e-08
-1.80053e-09
8.69409e-08
-2.41361e-09
8.75862e-08
-2.93728e-09
8.82024e-08
-3.3723e-09
8.87872e-08
-3.72143e-09
8.93379e-08
-3.98933e-09
8.98519e-08
-4.18227e-09
9.03263e-08
-4.30748e-09
9.07581e-08
-4.37265e-09
9.11444e-08
-4.38523e-09
9.1482e-08
-4.35227e-09
9.17667e-08
-4.27928e-09
9.19954e-08
-4.17502e-09
-4.01622e-09
5.96711e-08
5.86024e-08
5.83118e-08
5.38081e-08
5.81455e-08
4.8053e-08
5.88213e-08
4.25386e-08
5.99946e-08
3.76558e-08
6.15134e-08
3.34609e-08
6.32843e-08
2.98413e-08
6.5213e-08
2.66725e-08
6.7203e-08
2.38642e-08
6.91729e-08
2.13442e-08
7.10665e-08
1.90473e-08
7.28537e-08
1.69188e-08
7.45237e-08
1.49201e-08
7.6078e-08
1.30302e-08
7.75244e-08
1.12414e-08
7.88737e-08
9.55387e-09
8.01369e-08
7.97027e-09
8.13252e-08
6.49232e-09
8.24483e-08
5.11897e-09
8.3515e-08
3.84641e-09
8.45324e-08
2.66911e-09
8.55062e-08
1.58128e-09
8.64406e-08
5.78382e-10
8.73385e-08
-3.42122e-10
8.82019e-08
-1.18041e-09
8.90317e-08
-1.93486e-09
8.98282e-08
-2.60283e-09
9.05907e-08
-3.18173e-09
9.13181e-08
-3.67002e-09
9.20086e-08
-4.0679e-09
9.266e-08
-4.37767e-09
9.32698e-08
-4.60369e-09
9.38352e-08
-4.75201e-09
9.43534e-08
-4.82982e-09
9.48217e-08
-4.84472e-09
9.52368e-08
-4.80398e-09
9.55957e-08
-4.7144e-09
9.58935e-08
-4.58009e-09
9.61274e-08
-4.41159e-09
-4.16335e-09
5.02525e-08
5.64179e-08
5.36852e-08
5.03671e-08
5.60139e-08
4.57155e-08
5.78711e-08
4.06723e-08
5.96567e-08
3.58607e-08
6.15542e-08
3.15537e-08
6.36232e-08
2.77624e-08
6.58268e-08
2.44591e-08
6.8084e-08
2.1597e-08
7.03142e-08
1.9104e-08
7.24585e-08
1.68932e-08
7.44833e-08
1.48843e-08
7.63756e-08
1.30183e-08
7.81361e-08
1.12604e-08
7.97733e-08
9.59518e-09
8.12992e-08
8.01909e-09
8.27272e-08
6.53366e-09
8.40701e-08
5.14103e-09
8.53394e-08
3.84155e-09
8.65446e-08
2.63336e-09
8.76932e-08
1.51299e-09
8.87906e-08
4.76616e-10
8.98406e-08
-4.78622e-10
9.08457e-08
-1.35384e-09
9.18071e-08
-2.14822e-09
9.27254e-08
-2.85928e-09
9.36004e-08
-3.48374e-09
9.44316e-08
-4.01847e-09
9.52177e-08
-4.46145e-09
9.59572e-08
-4.81248e-09
9.66483e-08
-5.07356e-09
9.72889e-08
-5.24886e-09
9.78769e-08
-5.34432e-09
9.84101e-08
-5.36709e-09
9.88863e-08
-5.32472e-09
9.9303e-08
-5.22421e-09
9.96574e-08
-5.07208e-09
9.9945e-08
-4.87064e-09
1.00164e-07
-4.63299e-09
-4.28581e-09
5.23309e-08
5.2099e-08
5.40042e-08
4.86841e-08
5.56832e-08
4.40269e-08
5.7679e-08
3.86667e-08
5.98008e-08
3.37289e-08
6.20455e-08
2.92989e-08
6.44211e-08
2.53766e-08
6.68939e-08
2.1976e-08
6.93982e-08
1.90826e-08
7.18636e-08
1.66285e-08
7.42359e-08
1.4511e-08
7.64819e-08
1.26285e-08
7.85873e-08
1.09033e-08
8.05511e-08
9.28718e-09
8.23806e-08
7.75656e-09
8.40873e-08
6.30343e-09
8.56846e-08
4.92766e-09
8.71855e-08
3.63168e-09
8.86017e-08
2.41726e-09
8.99425e-08
1.28472e-09
9.12152e-08
2.32718e-10
9.24249e-08
-7.40391e-10
9.35749e-08
-1.63564e-09
9.46672e-08
-2.45284e-09
9.57027e-08
-3.19014e-09
9.66818e-08
-3.84442e-09
9.76041e-08
-4.41194e-09
9.84693e-08
-4.88928e-09
9.92768e-08
-5.27419e-09
1.00026e-07
-5.56637e-09
1.00715e-07
-5.76773e-09
1.01344e-07
-5.88244e-09
1.01912e-07
-5.91649e-09
1.02418e-07
-5.87705e-09
1.02861e-07
-5.77165e-09
1.0324e-07
-5.60698e-09
1.03554e-07
-5.38919e-09
1.03799e-07
-5.11858e-09
1.03975e-07
-4.81124e-09
-4.36312e-09
5.97537e-08
5.96927e-08
5.65879e-08
5.18397e-08
5.70769e-08
4.35277e-08
5.88043e-08
3.6929e-08
6.0975e-08
3.15476e-08
6.33702e-08
2.68931e-08
6.59265e-08
2.28098e-08
6.85879e-08
1.9304e-08
7.12838e-08
1.63763e-08
7.39445e-08
1.39574e-08
7.65161e-08
1.19292e-08
7.8964e-08
1.01707e-08
8.12707e-08
8.58678e-09
8.34317e-08
7.11673e-09
8.54507e-08
5.72825e-09
8.73366e-08
4.40848e-09
8.91005e-08
3.15508e-09
9.07536e-08
1.97016e-09
9.23063e-08
8.56349e-10
9.37673e-08
-1.84162e-10
9.51431e-08
-1.15072e-09
9.64385e-08
-2.043e-09
9.76563e-08
-2.8605e-09
9.87985e-08
-3.60175e-09
9.9866e-08
-4.26408e-09
1.00859e-07
-4.8439e-09
1.01779e-07
-5.33729e-09
1.02625e-07
-5.74084e-09
1.03398e-07
-6.05247e-09
1.04098e-07
-6.27206e-09
1.04728e-07
-6.40179e-09
1.05287e-07
-6.44605e-09
1.05777e-07
-6.41103e-09
1.062e-07
-6.30398e-09
1.06557e-07
-6.13239e-09
1.06849e-07
-5.90263e-09
1.07077e-07
-5.62037e-09
1.0724e-07
-5.28389e-09
1.07338e-07
-4.91208e-09
-4.37153e-09
5.66364e-08
5.98012e-08
5.70559e-08
5.14097e-08
5.84293e-08
4.21434e-08
6.039e-08
3.49573e-08
6.26996e-08
2.92268e-08
6.52596e-08
2.4322e-08
6.80076e-08
2.00507e-08
7.08695e-08
1.64311e-08
7.37654e-08
1.34696e-08
7.66249e-08
1.10873e-08
7.93948e-08
9.14885e-09
8.20404e-08
7.51496e-09
8.45417e-08
6.07556e-09
8.68906e-08
4.75817e-09
8.9087e-08
3.52253e-09
9.11358e-08
2.35059e-09
9.30448e-08
1.23722e-09
9.48224e-08
1.84066e-10
9.64779e-08
-8.07377e-10
9.80183e-08
-1.73245e-09
9.94497e-08
-2.58977e-09
1.00777e-07
-3.3775e-09
1.02003e-07
-4.09381e-09
1.03131e-07
-4.73623e-09
1.04162e-07
-5.30148e-09
1.05098e-07
-5.78578e-09
1.0594e-07
-6.18532e-09
1.0669e-07
-6.49709e-09
1.07352e-07
-6.71953e-09
1.07928e-07
-6.85312e-09
1.08422e-07
-6.90056e-09
1.08838e-07
-6.86669e-09
1.09181e-07
-6.75796e-09
1.09455e-07
-6.58172e-09
1.09664e-07
-6.34534e-09
1.09813e-07
-6.05479e-09
1.09904e-07
-5.71514e-09
1.09941e-07
-5.32302e-09
1.09925e-07
-4.89879e-09
-4.28707e-09
6.34608e-08
6.25102e-08
6.1009e-08
5.38499e-08
6.09569e-08
4.21836e-08
6.24125e-08
3.34898e-08
6.47175e-08
2.691e-08
6.75098e-08
2.15179e-08
7.0562e-08
1.69869e-08
7.37239e-08
1.32578e-08
7.68927e-08
1.02897e-08
7.99971e-08
7.97201e-09
8.29885e-08
6.1468e-09
8.5835e-08
4.6581e-09
8.85174e-08
3.38305e-09
9.10271e-08
2.23877e-09
9.33616e-08
1.17852e-09
9.55233e-08
1.79709e-10
9.75186e-08
-7.66939e-10
9.93542e-08
-1.6601e-09
1.01037e-07
-2.49829e-09
1.02574e-07
-3.27798e-09
1.03973e-07
-3.99645e-09
1.0524e-07
-4.65107e-09
1.06378e-07
-5.23905e-09