/*--------------------------------*- C++ -*----------------------------------*\
  =========                 |
  \\      /  F ield         | OpenFOAM: The Open Source CFD Toolbox
   \\    /   O peration     | Website:  https://openfoam.org
    \\  /    A nd           | Version:  7
     \\/     M anipulation  |
\*---------------------------------------------------------------------------*/
FoamFile
{
    version     2.0;
    format      ascii;
    class       volScalarField;
    location    "0.45";
    object      nut;
}
// * * * * * * * * * * * * * * * * * * * * * * * * * * * * * * * * * * * * * //

dimensions      [0 2 -1 0 0 0 0];

internalField   nonuniform List<scalar> 
5280
(
0.000180501
0.000418602
0.000673425
0.000897132
0.00108444
0.00123257
0.00134523
0.00142604
0.00148195
0.00151553
0.0015348
0.00153789
0.00153452
0.00152567
0.00151023
0.00149166
0.00147117
0.00144963
0.00142769
0.0014058
0.00138429
0.00136341
0.00134328
0.00132402
0.00130567
0.00128825
0.00127177
0.00125623
0.00124158
0.00122779
0.00121482
0.00120262
0.00119115
0.00118036
0.00117021
0.00116063
0.0011516
0.00114307
0.001135
0.00112736
0.00112011
0.00111324
0.00110669
0.00110044
0.00109447
0.00108876
0.00108327
0.001078
0.00107293
0.00106804
0.00106332
0.00105875
0.00105433
0.00105003
0.00104585
0.00104178
0.00103781
0.00103393
0.00103014
0.00102643
0.00102282
0.00101928
0.00101583
0.00101245
0.00100915
0.00100592
0.00100276
0.000999653
0.000996631
0.000993633
0.000990756
0.0009878
0.000985121
0.000982064
0.000979729
0.000976289
0.00097435
0.000970291
0.000967541
0.000972639
9.74073e-06
3.48969e-05
7.81497e-05
0.000136137
0.000211018
0.000292596
0.000373544
0.000447816
0.000515409
0.000573765
0.000623971
0.000665316
0.000698545
0.000725144
0.00074595
0.0007621
0.000774473
0.000783691
0.000790318
0.000794873
0.000797898
0.000799834
0.00080105
0.000801722
0.000802095
0.000802086
0.000802005
0.000801824
0.000801556
0.000801339
0.000801148
0.000801038
0.00080105
0.000801115
0.000801263
0.000801505
0.000801812
0.000802178
0.000802593
0.000803048
0.000803533
0.000804037
0.000804552
0.000805071
0.000805587
0.000806092
0.000806578
0.000807038
0.000807471
0.000807876
0.000808256
0.000808608
0.000808931
0.000809221
0.000809479
0.000809704
0.000809906
0.000810088
0.000810244
0.000810386
0.000810511
0.000810597
0.000810671
0.000810707
0.000810703
0.000810683
0.000810629
0.000810565
0.000810431
0.000810332
0.000810136
0.000810022
0.000809792
0.000809679
0.000809425
0.000809323
0.000809004
0.000808871
0.000808153
0.000808815
6.64949e-06
6.80995e-06
8.06737e-06
1.21634e-05
2.03043e-05
3.2454e-05
4.89327e-05
6.89452e-05
9.10685e-05
0.000114193
0.00013772
0.000161077
0.000183411
0.000204191
0.000223248
0.000240706
0.000256724
0.000271275
0.00028432
0.000295819
0.000305886
0.000314683
0.000322414
0.000329213
0.000335205
0.000340466
0.000345082
0.000349154
0.000352749
0.000355954
0.000358819
0.000361391
0.000363711
0.000365817
0.000367744
0.000369525
0.00037119
0.000372763
0.00037428
0.000375759
0.000377238
0.000378703
0.000380189
0.000381658
0.000383165
0.000384663
0.000386237
0.000387798
0.000389457
0.000391066
0.000392783
0.000394404
0.000396172
0.000397821
0.000399673
0.000401384
0.000403338
0.000405121
0.000407161
0.000408985
0.000411077
0.000412905
0.000415025
0.000416855
0.000419007
0.000420853
0.000423055
0.000424913
0.000427185
0.000429035
0.000431374
0.000433194
0.000435602
0.000437378
0.00043986
0.000441572
0.000444147
0.000445797
0.000448588
0.000450377
6.6468e-06
6.64785e-06
6.65452e-06
6.68451e-06
6.79737e-06
7.13775e-06
7.96803e-06
9.58084e-06
1.2219e-05
1.59699e-05
2.04907e-05
2.57349e-05
3.15805e-05
3.77049e-05
4.38397e-05
4.99465e-05
5.61185e-05
6.23367e-05
6.84537e-05
7.42837e-05
7.97671e-05
8.49545e-05
8.98864e-05
9.45462e-05
9.88953e-05
0.000102957
0.000106774
0.000110377
0.000113751
0.000116882
0.000119794
0.000122525
0.000125117
0.000127546
0.000129809
0.000131855
0.000133752
0.00013546
0.000137108
0.000138598
0.000140096
0.000141422
0.000142798
0.000143957
0.000145213
0.000146215
0.000147379
0.000148287
0.00014944
0.000150327
0.000151473
0.000152269
0.000153334
0.000154025
0.000155075
0.000155764
0.000156843
0.000157523
0.000158587
0.000159227
0.000160286
0.000160933
0.000162034
0.000162678
0.000163757
0.000164356
0.000165463
0.000166115
0.000167306
0.000167965
0.000169136
0.00016974
0.000170924
0.000171556
0.000172843
0.000173543
0.000174957
0.000175716
0.00017729
0.00017819
6.64517e-06
6.64517e-06
6.64738e-06
6.65402e-06
6.66758e-06
6.69516e-06
6.72216e-06
6.76955e-06
6.85778e-06
6.95717e-06
7.14686e-06
7.44436e-06
7.78581e-06
8.3453e-06
9.1132e-06
9.88858e-06
1.06992e-05
1.17417e-05
1.29928e-05
1.42291e-05
1.53625e-05
1.65233e-05
1.78107e-05
1.91388e-05
2.03566e-05
2.14569e-05
2.25725e-05
2.37797e-05
2.50026e-05
2.60975e-05
2.70724e-05
2.80257e-05
2.90784e-05
3.01448e-05
3.11628e-05
3.20061e-05
3.28101e-05
3.3552e-05
3.43931e-05
3.51542e-05
3.59272e-05
3.65357e-05
3.72101e-05
3.78358e-05
3.85899e-05
3.91917e-05
3.97844e-05
4.02094e-05
4.07885e-05
4.1379e-05
4.21148e-05
4.2663e-05
4.319e-05
4.35372e-05
4.40494e-05
4.45696e-05
4.52586e-05
4.57506e-05
4.62162e-05
4.65023e-05
4.6976e-05
4.74571e-05
4.81151e-05
4.8579e-05
4.90323e-05
4.92833e-05
4.97165e-05
5.01477e-05
5.08078e-05
5.13061e-05
5.1826e-05
5.20795e-05
5.2427e-05
5.26463e-05
5.31669e-05
5.35728e-05
5.4269e-05
5.46001e-05
5.52602e-05
5.56035e-05
6.64505e-06
6.64358e-06
6.64532e-06
6.651e-06
6.66412e-06
6.68115e-06
6.7149e-06
6.75529e-06
6.78615e-06
6.8302e-06
6.89883e-06
6.95598e-06
6.99486e-06
7.05521e-06
7.13818e-06
7.2005e-06
7.2389e-06
7.29919e-06
7.39537e-06
7.48402e-06
7.53438e-06
7.57758e-06
7.66148e-06
7.77947e-06
7.8775e-06
7.93004e-06
7.97744e-06
8.0755e-06
8.21153e-06
8.31925e-06
8.37706e-06
8.42994e-06
8.53131e-06
8.67078e-06
8.80123e-06
8.88666e-06
8.95032e-06
9.02759e-06
9.14386e-06
9.26771e-06
9.36971e-06
9.43312e-06
9.4957e-06
9.58605e-06
9.71164e-06
9.82929e-06
9.91228e-06
9.95837e-06
1.00101e-05
1.00988e-05
1.02315e-05
1.03689e-05
1.04716e-05
1.05243e-05
1.05631e-05
1.06392e-05
1.07798e-05
1.09064e-05
1.10015e-05
1.10521e-05
1.11196e-05
1.12114e-05
1.13487e-05
1.1471e-05
1.15802e-05
1.16371e-05
1.17002e-05
1.17658e-05
1.18974e-05
1.20361e-05
1.21922e-05
1.22862e-05
1.23719e-05
1.24164e-05
1.25018e-05
1.25831e-05
1.27671e-05
1.28782e-05
1.30575e-05
1.31481e-05
6.64505e-06
6.64358e-06
6.64532e-06
6.651e-06
6.6641e-06
6.68119e-06
6.71486e-06
6.75525e-06
6.78619e-06
6.83024e-06
6.89881e-06
6.95595e-06
6.99489e-06
7.05521e-06
7.13816e-06
7.20049e-06
7.2389e-06
7.29922e-06
7.39543e-06
7.48402e-06
7.53433e-06
7.57752e-06
7.66153e-06
7.77947e-06
7.87739e-06
7.92981e-06
7.97738e-06
8.07546e-06
8.21152e-06
8.31929e-06
8.3771e-06
8.4297e-06
8.53121e-06
8.67096e-06
8.80104e-06
8.88664e-06
8.94956e-06
9.02741e-06
9.14313e-06
9.26707e-06
9.36851e-06
9.43174e-06
9.49427e-06
9.58471e-06
9.70974e-06
9.82683e-06
9.90882e-06
9.95456e-06
1.0006e-05
1.00946e-05
1.02264e-05
1.03625e-05
1.04638e-05
1.05157e-05
1.05534e-05
1.06279e-05
1.07651e-05
1.08909e-05
1.0981e-05
1.10312e-05
1.10926e-05
1.11844e-05
1.13134e-05
1.14345e-05
1.15307e-05
1.15852e-05
1.1637e-05
1.17004e-05
1.18128e-05
1.19429e-05
1.20781e-05
1.21637e-05
1.22222e-05
1.22497e-05
1.23016e-05
1.23634e-05
1.25121e-05
1.25841e-05
1.27125e-05
1.27716e-05
6.64517e-06
6.64517e-06
6.64738e-06
6.65402e-06
6.66758e-06
6.69516e-06
6.72215e-06
6.76955e-06
6.85776e-06
6.95716e-06
7.14697e-06
7.44412e-06
7.7866e-06
8.34487e-06
9.11255e-06
9.88817e-06
1.06991e-05
1.17423e-05
1.29934e-05
1.42291e-05
1.53626e-05
1.65223e-05
1.78109e-05
1.9138e-05
2.03564e-05
2.14547e-05
2.25725e-05
2.37784e-05
2.5004e-05
2.60963e-05
2.70725e-05
2.80242e-05
2.90781e-05
3.01467e-05
3.11602e-05
3.2009e-05
3.28032e-05
3.35544e-05
3.43866e-05
3.51534e-05
3.59221e-05
3.65308e-05
3.72042e-05
3.78307e-05
3.85797e-05
3.91841e-05
3.97699e-05
4.01981e-05
4.07708e-05
4.13659e-05
4.20932e-05
4.26434e-05
4.31615e-05
4.35108e-05
4.40126e-05
4.45364e-05
4.52099e-05
4.57035e-05
4.61538e-05
4.64406e-05
4.68952e-05
4.73772e-05
4.80127e-05
4.84725e-05
4.88968e-05
4.91404e-05
4.95391e-05
4.99622e-05
5.05831e-05
5.10656e-05
5.15288e-05
5.17486e-05
5.20221e-05
5.22029e-05
5.26569e-05
5.30197e-05
5.36005e-05
5.38596e-05
5.43759e-05
5.46308e-05
6.64681e-06
6.64785e-06
6.65452e-06
6.68451e-06
6.79737e-06
7.13773e-06
7.96794e-06
9.58063e-06
1.22181e-05
1.59695e-05
2.04912e-05
2.57358e-05
3.15821e-05
3.7704e-05
4.38374e-05
4.99448e-05
5.61189e-05
6.23381e-05
6.84547e-05
7.42837e-05
7.97673e-05
8.49539e-05
8.98861e-05
9.45446e-05
9.88945e-05
0.000102955
0.000106774
0.000110376
0.000113752
0.000116881
0.000119794
0.000122524
0.000125117
0.000127544
0.000129809
0.000131853
0.000133751
0.000135457
0.000137105
0.000138593
0.000140091
0.000141415
0.000142791
0.000143946
0.000145201
0.0001462
0.000147361
0.000148269
0.000149413
0.000150304
0.000151436
0.000152238
0.000153285
0.000153981
0.000155013
0.000155704
0.000156763
0.000157443
0.000158484
0.000159116
0.000160154
0.000160788
0.000161856
0.000162487
0.000163528
0.000164103
0.000165158
0.000165782
0.000166907
0.000167526
0.000168608
0.000169155
0.000170223
0.000170781
0.000171925
0.000172526
0.00017374
0.000174367
0.000175683
0.000176413
6.64949e-06
6.80995e-06
8.06743e-06
1.21637e-05
2.03045e-05
3.24539e-05
4.89324e-05
6.89444e-05
9.10668e-05
0.000114192
0.000137721
0.000161079
0.000183412
0.00020419
0.000223247
0.000240706
0.000256724
0.000271276
0.000284321
0.000295819
0.000305886
0.000314683
0.000322415
0.000329214
0.000335206
0.000340466
0.000345083
0.000349154
0.000352749
0.000355953
0.000358819
0.00036139
0.000363711
0.000365816
0.000367744
0.000369523
0.000371189
0.000372759
0.000374278
0.000375753
0.000377233
0.000378693
0.00038018
0.000381642
0.000383152
0.000384642
0.000386218
0.00038777
0.000389431
0.000391029
0.000392742
0.000394354
0.000396116
0.000397754
0.000399598
0.000401297
0.000403241
0.000405005
0.000407033
0.000408831
0.000410909
0.0004127
0.000414807
0.000416584
0.000418723
0.000420501
0.000422681
0.000424457
0.000426694
0.00042844
0.00043073
0.00043242
0.000434757
0.000436373
0.000438748
0.000440265
0.000442673
0.000444095
0.000446618
0.000448174
9.74039e-06
3.48968e-05
7.81507e-05
0.000136139
0.000211021
0.000292598
0.000373545
0.000447816
0.00051541
0.000573766
0.000623973
0.000665317
0.000698546
0.000725146
0.000745954
0.000762104
0.000774476
0.000783693
0.00079032
0.000794874
0.000797901
0.000799837
0.000801054
0.000801726
0.000802097
0.000802089
0.000802007
0.000801825
0.000801557
0.00080134
0.000801149
0.000801039
0.000801052
0.000801116
0.000801264
0.000801504
0.000801811
0.000802177
0.000802591
0.000803044
0.000803527
0.000804029
0.000804543
0.00080506
0.000805574
0.000806078
0.000806562
0.00080702
0.000807449
0.00080785
0.000808225
0.000808573
0.00080889
0.000809176
0.000809428
0.000809644
0.00080984
0.00081001
0.000810154
0.000810289
0.000810392
0.000810469
0.000810528
0.00081053
0.000810516
0.000810476
0.000810384
0.000810294
0.000810112
0.000809982
0.000809727
0.000809574
0.000809266
0.0008091
0.000808744
0.000808566
0.000808106
0.000807849
0.000806886
0.000807369
0.000180501
0.000418601
0.000673426
0.000897133
0.00108444
0.00123257
0.00134523
0.00142604
0.00148195
0.00151553
0.0015348
0.00153789
0.00153452
0.00152567
0.00151023
0.00149166
0.00147117
0.00144963
0.00142769
0.0014058
0.00138429
0.00136341
0.00134329
0.00132402
0.00130567
0.00128825
0.00127177
0.00125623
0.00124158
0.0012278
0.00121482
0.00120262
0.00119116
0.00118037
0.00117021
0.00116064
0.00115161
0.00114308
0.00113501
0.00112737
0.00112013
0.00111326
0.00110671
0.00110047
0.00109451
0.0010888
0.00108332
0.00107806
0.00107299
0.00106811
0.0010634
0.00105885
0.00105444
0.00105016
0.001046
0.00104195
0.001038
0.00103415
0.00103039
0.00102672
0.00102315
0.00101966
0.00101626
0.00101295
0.00100971
0.00100656
0.00100349
0.0010005
0.000997587
0.000994751
0.000991995
0.000989276
0.000986719
0.00098402
0.000981772
0.000978876
0.000977008
0.00097377
0.000970763
0.000976537
0.00235187
0.00257698
0.00262872
0.00262595
0.00261099
0.00258682
0.00256525
0.00254828
0.00253578
0.00252591
0.00251709
0.00250864
0.00250051
0.00249262
0.00248462
0.00247603
0.0024665
0.00245596
0.00244464
0.00243285
0.00242082
0.00240869
0.00239647
0.0023842
0.00237196
0.00235986
0.00234802
0.00233657
0.0023256
0.00231515
0.00230523
0.00229583
0.00228694
0.00227859
0.00227077
0.00226351
0.00225682
0.00225066
0.00224502
0.00223981
0.00223497
0.00223041
0.00222606
0.00222183
0.00221767
0.00221353
0.00220939
0.00220522
0.00220101
0.00219677
0.00219249
0.00218817
0.00218381
0.00217943
0.00217502
0.00217059
0.00216613
0.00216166
0.00215716
0.00215266
0.00214814
0.00214362
0.00213909
0.00213455
0.00213002
0.00212548
0.00212094
0.00211642
0.0021119
0.00210738
0.00210288
0.0020984
0.00209393
0.00208948
0.00208504
0.00208063
0.00207624
0.00207188
0.00206754
0.00206323
0.00205895
0.0020547
0.00205048
0.00204629
0.00204214
0.00203802
0.00203394
0.00202989
0.00202588
0.00202191
0.00201798
0.00201408
0.00201023
0.00200641
0.00200264
0.0019989
0.00199521
0.00199156
0.00198795
0.00198438
0.00198085
0.00197736
0.00197392
0.00197052
0.00196716
0.00196384
0.00196057
0.00195734
0.00195415
0.001951
0.0019479
0.00194483
0.00194182
0.00193884
0.00193591
0.00193301
0.00193017
0.00192736
0.0019246
0.00192188
0.0019192
0.00191657
0.00191398
0.00191143
0.00190892
0.00190646
0.00190404
0.00190166
0.00189932
0.00189703
0.00189478
0.00189257
0.0018904
0.00188827
0.00188619
0.00188414
0.00188213
0.00188016
0.00187824
0.00187635
0.00187449
0.00187268
0.0018709
0.00186915
0.00186744
0.00186577
0.00186412
0.00186251
0.00186093
0.00185938
0.00185786
0.00185637
0.00185491
0.00185347
0.00185206
0.00185067
0.00184931
0.00184797
0.00184665
0.00184536
0.00184408
0.00184282
0.00184159
0.00184037
0.00183916
0.00183798
0.00183681
0.00183565
0.00183451
0.00183338
0.00183227
0.00183117
0.00183009
0.00182901
0.00182795
0.0018269
0.00182587
0.00182484
0.00182383
0.00182282
0.00182183
0.00182085
0.00181988
0.00181892
0.00181797
0.00181703
0.0018161
0.00181519
0.00181428
0.00181338
0.0018125
0.00181163
0.00181077
0.00180992
0.00180908
0.00180825
0.00180744
0.00180663
0.00180584
0.00180506
0.00180429
0.00180354
0.0018028
0.00180207
0.00180135
0.00180064
0.00179994
0.00179926
0.00179859
0.00179794
0.0017973
0.00179667
0.00179606
0.00179545
0.00179486
0.00179428
0.00179372
0.00179317
0.00179263
0.0017921
0.00179159
0.00179109
0.0017906
0.00179012
0.00178966
0.00178921
0.00178877
0.00178834
0.00178793
0.00178753
0.00178713
0.00178676
0.00178639
0.00178603
0.00178569
0.00178535
0.00178503
0.00178472
0.00178442
0.00178413
0.00178385
0.00178358
0.00178332
0.00178307
0.00178283
0.0017826
0.00178238
0.00178217
0.00178197
0.00178178
0.0017816
0.00178143
0.00178126
0.00178111
0.00178097
0.00178083
0.0017807
0.00178059
0.00178048
0.00178038
0.00178029
0.0017802
0.00178013
0.00178006
0.00178001
0.00177996
0.00177992
0.00177989
0.00177986
0.00177985
0.00177984
0.00177984
0.00177985
0.00177987
0.0017799
0.00177993
0.00177997
0.00178002
0.00178008
0.00178014
0.00178022
0.0017803
0.00178039
0.00178048
0.00178059
0.0017807
0.00178082
0.00178095
0.00178109
0.00178123
0.00178138
0.00178154
0.00178171
0.00178189
0.00178207
0.00178226
0.00178246
0.00178267
0.00178288
0.00178311
0.00178334
0.00178358
0.00178383
0.00178408
0.00178435
0.00178462
0.00178491
0.0017852
0.00178549
0.0017858
0.00178612
0.00178645
0.00178678
0.00178713
0.00178748
0.00178785
0.00178822
0.00178861
0.00178901
0.00178942
0.00178984
0.00179027
0.00179072
0.00179117
0.00179164
0.00179213
0.00179263
0.00179314
0.00179367
0.00179421
0.00179477
0.00179534
0.00179592
0.00179652
0.00179714
0.00179777
0.00179841
0.00179907
0.00179974
0.00180042
0.00180112
0.00180182
0.00180254
0.00180325
0.00180401
0.00180471
0.0018055
0.00180618
0.00180701
0.00180765
0.00180854
0.00180911
0.00181006
0.00181055
0.00181155
0.00181208
0.0018124
0.00180977
0.00177507
0.00148979
0.00174965
0.0021066
0.00230133
0.0023967
0.00244159
0.00245905
0.00246248
0.00246071
0.00245687
0.00245304
0.00244972
0.0024468
0.00244433
0.00244241
0.00244103
0.00243996
0.00243884
0.00243734
0.00243538
0.00243309
0.00243071
0.00242841
0.00242623
0.00242411
0.00242201
0.00241991
0.00241789
0.00241604
0.00241446
0.00241324
0.00241241
0.002412
0.00241195
0.00241231
0.00241318
0.00241441
0.00241605
0.00241809
0.00242051
0.00242328
0.00242636
0.00242967
0.00243316
0.00243678
0.00244047
0.0024442
0.00244795
0.0024517
0.00245544
0.00245917
0.00246289
0.00246659
0.00247028
0.00247396
0.00247763
0.00248129
0.00248494
0.00248857
0.0024922
0.00249581
0.00249941
0.002503
0.00250658
0.00251015
0.00251371
0.00251725
0.00252079
0.00252431
0.00252781
0.00253131
0.00253479
0.00253826
0.00254171
0.00254515
0.00254858
0.00255199
0.00255539
0.00255878
0.00256215
0.0025655
0.00256884
0.00257217
0.00257548
0.00257877
0.00258205
0.00258531
0.00258856
0.00259179
0.00259501
0.0025982
0.00260139
0.00260455
0.0026077
0.00261083
0.00261394
0.00261704
0.00262012
0.00262318
0.00262622
0.00262925
0.00263225
0.00263524
0.00263822
0.00264117
0.00264411
0.00264703
0.00264993
0.00265281
0.00265568
0.00265853
0.00266136
0.00266417
0.00266697
0.00266974
0.0026725
0.00267525
0.00267797
0.00268068
0.00268338
0.00268606
0.00268872
0.00269136
0.00269399
0.0026966
0.0026992
0.00270178
0.00270435
0.0027069
0.00270944
0.00271196
0.00271447
0.00271697
0.00271945
0.00272192
0.00272438
0.00272682
0.00272925
0.00273167
0.00273408
0.00273648
0.00273887
0.00274125
0.00274361
0.00274597
0.00274832
0.00275066
0.00275298
0.0027553
0.00275762
0.00275992
0.00276221
0.0027645
0.00276678
0.00276905
0.00277132
0.00277358
0.00277583
0.00277808
0.00278031
0.00278255
0.00278477
0.00278699
0.00278921
0.00279142
0.00279362
0.00279582
0.00279801
0.0028002
0.00280238
0.00280456
0.00280673
0.0028089
0.00281106
0.00281321
0.00281537
0.00281751
0.00281965
0.00282178
0.00282391
0.00282604
0.00282815
0.00283027
0.00283237
0.00283447
0.00283657
0.00283866
0.00284074
0.00284282
0.00284489
0.00284695
0.00284901
0.00285106
0.00285311
0.00285514
0.00285718
0.0028592
0.00286122
0.00286323
0.00286524
0.00286724
0.00286922
0.00287121
0.00287319
0.00287516
0.00287713
0.00287908
0.00288103
0.00288297
0.0028849
0.00288683
0.00288875
0.00289066
0.00289257
0.00289447
0.00289637
0.00289826
0.00290014
0.00290201
0.00290388
0.00290574
0.0029076
0.00290944
0.00291129
0.00291312
0.00291495
0.00291678
0.0029186
0.00292041
0.00292222
0.00292402
0.00292581
0.0029276
0.00292939
0.00293117
0.00293294
0.00293471
0.00293647
0.00293823
0.00293998
0.00294173
0.00294348
0.00294522
0.00294695
0.00294868
0.00295041
0.00295213
0.00295385
0.00295556
0.00295727
0.00295897
0.00296067
0.00296237
0.00296406
0.00296574
0.00296743
0.00296911
0.00297078
0.00297245
0.00297412
0.00297578
0.00297744
0.00297909
0.00298074
0.00298239
0.00298403
0.00298567
0.0029873
0.00298893
0.00299056
0.00299218
0.0029938
0.00299542
0.00299703
0.00299863
0.00300023
0.00300183
0.00300342
0.00300501
0.00300659
0.00300817
0.00300975
0.00301132
0.00301289
0.00301446
0.00301601
0.00301757
0.00301912
0.00302067
0.00302221
0.00302375
0.00302528
0.00302682
0.00302834
0.00302987
0.00303139
0.0030329
0.00303441
0.00303592
0.00303742
0.00303892
0.00304042
0.00304191
0.0030434
0.00304488
0.00304636
0.00304783
0.00304931
0.00305077
0.00305223
0.00305369
0.00305514
0.00305659
0.00305804
0.00305947
0.00306091
0.00306234
0.00306376
0.00306517
0.00306658
0.00306798
0.00306938
0.00307078
0.00307216
0.00307354
0.00307491
0.00307628
0.00307763
0.00307898
0.00308033
0.00308166
0.00308299
0.00308431
0.00308563
0.00308693
0.00308823
0.00308952
0.0030908
0.00309208
0.00309335
0.0030946
0.00309587
0.0030971
0.00309836
0.00309957
0.00310082
0.00310201
0.00310327
0.00310441
0.0031057
0.00310678
0.0031081
0.00310914
0.00311044
0.00311153
0.00311268
0.00311409
0.0031147
0.00311657
0.0031179
0.00311551
0.000891974
0.00107666
0.00125288
0.00141036
0.00154345
0.00165043
0.00172947
0.00178288
0.00181751
0.0018408
0.00185772
0.0018704
0.00187968
0.00188651
0.00189222
0.00189807
0.00190466
0.00191173
0.00191864
0.00192484
0.00193027
0.00193527
0.00194028
0.00194553
0.00195097
0.0019564
0.00196154
0.00196626
0.00197058
0.00197461
0.00197853
0.00198245
0.0019864
0.00199035
0.00199423
0.00199794
0.00200145
0.00200477
0.00200798
0.00201119
0.0020145
0.00201798
0.00202167
0.00202557
0.00202965
0.00203387
0.00203818
0.00204256
0.00204696
0.00205139
0.00205583
0.00206027
0.00206471
0.00206915
0.0020736
0.00207805
0.00208251
0.00208696
0.00209143
0.00209589
0.00210036
0.00210483
0.00210931
0.00211379
0.00211827
0.00212276
0.00212725
0.00213174
0.00213623
0.00214072
0.00214522
0.00214971
0.00215421
0.00215871
0.00216321
0.0021677
0.0021722
0.0021767
0.0021812
0.00218569
0.00219019
0.00219468
0.00219918
0.00220367
0.00220815
0.00221264
0.00221712
0.0022216
0.00222608
0.00223055
0.00223502
0.00223948
0.00224394
0.00224839
0.00225284
0.00225729
0.00226173
0.00226616
0.00227059
0.00227501
0.00227942
0.00228383
0.00228823
0.00229262
0.00229701
0.00230139
0.00230576
0.00231012
0.00231447
0.00231882
0.00232316
0.00232749
0.00233181
0.00233612
0.00234042
0.00234472
0.002349
0.00235328
0.00235754
0.0023618
0.00236605
0.00237029
0.00237452
0.00237874
0.00238295
0.00238715
0.00239134
0.00239552
0.00239969
0.00240385
0.00240801
0.00241215
0.00241629
0.00242041
0.00242453
0.00242863
0.00243273
0.00243682
0.0024409
0.00244497
0.00244903
0.00245309
0.00245713
0.00246117
0.0024652
0.00246922
0.00247323
0.00247723
0.00248123
0.00248521
0.00248919
0.00249316
0.00249713
0.00250108
0.00250503
0.00250897
0.0025129
0.00251683
0.00252075
0.00252466
0.00252856
0.00253245
0.00253634
0.00254022
0.00254409
0.00254796
0.00255181
0.00255566
0.0025595
0.00256334
0.00256716
0.00257098
0.00257479
0.00257859
0.00258238
0.00258616
0.00258994
0.00259371
0.00259746
0.00260121
0.00260495
0.00260868
0.00261241
0.00261612
0.00261982
0.00262352
0.0026272
0.00263087
0.00263454
0.0026382
0.00264184
0.00264547
0.00264909
0.00265271
0.00265631
0.0026599
0.00266348
0.00266705
0.00267061
0.00267416
0.0026777
0.00268122
0.00268474
0.00268824
0.00269173
0.00269522
0.00269869
0.00270215
0.00270559
0.00270902
0.00271244
0.00271585
0.00271924
0.00272263
0.00272601
0.00272937
0.00273273
0.00273607
0.0027394
0.00274272
0.00274602
0.00274932
0.0027526
0.00275587
0.00275913
0.00276237
0.00276561
0.00276884
0.00277205
0.00277525
0.00277844
0.00278162
0.00278479
0.00278794
0.00279109
0.00279422
0.00279734
0.00280045
0.00280355
0.00280664
0.00280972
0.00281278
0.00281584
0.00281888
0.00282192
0.00282494
0.00282795
0.00283095
0.00283394
0.00283692
0.00283989
0.00284285
0.00284579
0.00284873
0.00285165
0.00285456
0.00285746
0.00286035
0.00286323
0.0028661
0.00286896
0.00287181
0.00287465
0.00287747
0.00288028
0.00288309
0.00288588
0.00288866
0.00289142
0.00289418
0.00289693
0.00289967
0.0029024
0.00290511
0.00290781
0.00291051
0.00291319
0.00291586
0.00291852
0.00292116
0.00292379
0.00292641
0.00292903
0.00293163
0.00293422
0.0029368
0.00293937
0.00294193
0.00294447
0.002947
0.00294953
0.00295204
0.00295454
0.00295703
0.00295951
0.00296198
0.00296443
0.00296688
0.00296931
0.00297173
0.00297414
0.00297654
0.00297894
0.00298131
0.00298368
0.00298604
0.00298838
0.00299072
0.00299304
0.00299535
0.00299765
0.00299994
0.00300222
0.00300448
0.00300674
0.00300898
0.00301122
0.00301344
0.00301565
0.00301784
0.00302003
0.0030222
0.00302436
0.00302651
0.00302866
0.00303078
0.0030329
0.003035
0.00303708
0.00303916
0.00304122
0.00304327
0.00304531
0.00304733
0.00304935
0.00305135
0.00305333
0.0030553
0.00305727
0.0030592
0.00306114
0.00306305
0.00306494
0.00306684
0.00306869
0.00307058
0.00307239
0.00307426
0.00307599
0.00307792
0.00307949
0.00308154
0.00308292
0.00308507
0.00308633
0.00308834
0.0030901
0.00309121
0.00309421
0.00309535
0.000340603
0.000384944
0.000447608
0.000514585
0.000590881
0.00067918
0.000767197
0.000842249
0.000901304
0.000948593
0.000989076
0.00102511
0.00105693
0.00108437
0.00110804
0.00112941
0.00115022
0.00117151
0.00119333
0.00121495
0.00123553
0.00125475
0.00127283
0.00129026
0.00130742
0.00132443
0.00134105
0.00135688
0.00137163
0.00138519
0.00139765
0.00140919
0.00141998
0.00143013
0.00143964
0.0014484
0.00145628
0.00146315
0.00146897
0.00147385
0.00147795
0.0014815
0.00148473
0.00148782
0.00149091
0.00149405
0.00149729
0.00150061
0.00150401
0.00150745
0.00151093
0.00151442
0.00151794
0.00152146
0.00152499
0.00152853
0.00153208
0.00153564
0.00153921
0.00154279
0.00154638
0.00154998
0.00155359
0.00155721
0.00156084
0.00156448
0.00156812
0.00157178
0.00157545
0.00157912
0.00158281
0.0015865
0.0015902
0.00159391
0.00159763
0.00160135
0.00160508
0.00160882
0.00161257
0.00161632
0.00162008
0.00162384
0.00162761
0.00163139
0.00163517
0.00163896
0.00164275
0.00164655
0.00165036
0.00165416
0.00165797
0.00166179
0.00166561
0.00166943
0.00167326
0.00167709
0.00168092
0.00168476
0.0016886
0.00169244
0.00169628
0.00170013
0.00170398
0.00170783
0.00171168
0.00171553
0.00171938
0.00172324
0.00172709
0.00173095
0.00173481
0.00173866
0.00174252
0.00174638
0.00175024
0.0017541
0.00175796
0.00176181
0.00176567
0.00176953
0.00177339
0.00177724
0.0017811
0.00178496
0.00178881
0.00179266
0.00179652
0.00180037
0.00180422
0.00180807
0.00181192
0.00181577
0.00181962
0.00182346
0.00182731
0.00183116
0.001835
0.00183884
0.00184268
0.00184652
0.00185036
0.0018542
0.00185804
0.00186187
0.00186571
0.00186954
0.00187337
0.0018772
0.00188103
0.00188486
0.00188868
0.00189251
0.00189633
0.00190016
0.00190398
0.0019078
0.00191162
0.00191543
0.00191925
0.00192306
0.00192687
0.00193068
0.00193449
0.0019383
0.0019421
0.00194591
0.00194971
0.0019535
0.0019573
0.00196109
0.00196488
0.00196867
0.00197246
0.00197624
0.00198002
0.0019838
0.00198757
0.00199135
0.00199511
0.00199888
0.00200264
0.00200639
0.00201014
0.00201389
0.00201763
0.00202137
0.00202511
0.00202883
0.00203255
0.00203627
0.00203999
0.0020437
0.0020474
0.00205109
0.00205478
0.00205846
0.00206214
0.00206581
0.00206947
0.00207313
0.00207678
0.00208043
0.00208406
0.00208768
0.0020913
0.00209492
0.00209853
0.00210214
0.00210573
0.00210932
0.00211289
0.00211645
0.00212001
0.00212356
0.0021271
0.00213063
0.00213416
0.00213768
0.0021412
0.0021447
0.0021482
0.00215168
0.00215516
0.00215862
0.00216208
0.00216553
0.00216898
0.00217241
0.00217584
0.00217925
0.00218266
0.00218606
0.00218945
0.00219283
0.0021962
0.00219957
0.00220292
0.00220627
0.0022096
0.00221293
0.00221625
0.00221956
0.00222286
0.00222615
0.00222943
0.0022327
0.00223597
0.00223922
0.00224247
0.00224571
0.00224894
0.00225216
0.00225537
0.00225857
0.00226176
0.00226494
0.00226811
0.00227127
0.00227442
0.00227756
0.00228069
0.00228382
0.00228693
0.00229004
0.00229313
0.00229621
0.00229928
0.00230235
0.0023054
0.00230844
0.00231147
0.00231449
0.00231751
0.00232051
0.00232351
0.00232649
0.00232946
0.00233242
0.00233537
0.00233831
0.00234124
0.00234415
0.00234706
0.00234995
0.00235284
0.00235572
0.00235859
0.00236145
0.00236429
0.00236712
0.00236994
0.00237275
0.00237555
0.00237834
0.00238112
0.00238389
0.00238664
0.00238939
0.00239212
0.00239484
0.00239755
0.00240025
0.00240294
0.00240562
0.00240829
0.00241095
0.00241359
0.00241623
0.00241885
0.00242146
0.00242406
0.00242665
0.00242922
0.00243179
0.00243434
0.00243688
0.00243941
0.00244193
0.00244444
0.00244693
0.00244941
0.00245188
0.00245433
0.00245678
0.00245921
0.00246164
0.00246405
0.00246644
0.00246883
0.00247119
0.00247355
0.00247589
0.00247822
0.00248054
0.00248285
0.00248514
0.00248741
0.00248969
0.00249192
0.0024942
0.00249637
0.00249866
0.00250076
0.00250305
0.00250508
0.0025074
0.00250934
0.00251173
0.00251353
0.002516
0.00251766
0.00252018
0.00252179
0.00252418
0.00252604
0.00252779
0.00253047
0.00253178
0.00253463
0.002537
0.000104867
0.000114116
0.000128394
0.000142381
0.000156573
0.000180588
0.000214839
0.000247233
0.000272483
0.000293933
0.000315906
0.000338764
0.000360993
0.000382047
0.000402222
0.000421888
0.000441614
0.00046235
0.000485003
0.000509577
0.000535078
0.000560351
0.000584774
0.000608378
0.000631559
0.000654753
0.000678147
0.000701586
0.000724702
0.00074707
0.000768297
0.000788108
0.000806414
0.000823331
0.000839089
0.00085386
0.000867655
0.000880317
0.000891612
0.000901344
0.00090944
0.00091598
0.000921168
0.000925291
0.000928654
0.000931529
0.000934131
0.000936613
0.000939067
0.000941545
0.000944067
0.000946639
0.000949257
0.000951911
0.000954596
0.000957304
0.00096003
0.000962771
0.000965524
0.000968288
0.000971062
0.000973846
0.000976639
0.000979439
0.000982249
0.000985066
0.000987891
0.000990724
0.000993564
0.000996412
0.000999266
0.00100213
0.00100499
0.00100787
0.00101075
0.00101364
0.00101653
0.00101943
0.00102233
0.00102524
0.00102816
0.00103108
0.00103401
0.00103694
0.00103987
0.00104281
0.00104576
0.00104871
0.00105166
0.00105462
0.00105758
0.00106055
0.00106352
0.0010665
0.00106947
0.00107246
0.00107544
0.00107843
0.00108142
0.00108441
0.00108741
0.00109041
0.00109341
0.00109642
0.00109942
0.00110243
0.00110544
0.00110846
0.00111147
0.00111449
0.00111751
0.00112053
0.00112356
0.00112658
0.00112961
0.00113264
0.00113567
0.0011387
0.00114173
0.00114476
0.0011478
0.00115083
0.00115387
0.00115691
0.00115995
0.00116299
0.00116603
0.00116907
0.00117212
0.00117516
0.00117821
0.00118125
0.0011843
0.00118735
0.0011904
0.00119345
0.0011965
0.00119955
0.0012026
0.00120565
0.0012087
0.00121176
0.00121481
0.00121786
0.00122092
0.00122397
0.00122703
0.00123009
0.00123314
0.0012362
0.00123926
0.00124231
0.00124537
0.00124843
0.00125149
0.00125455
0.0012576
0.00126066
0.00126372
0.00126678
0.00126984
0.0012729
0.00127595
0.00127901
0.00128207
0.00128512
0.00128818
0.00129123
0.00129429
0.00129734
0.00130039
0.00130344
0.00130649
0.00130954
0.00131259
0.00131564
0.00131868
0.00132172
0.00132477
0.0013278
0.00133084
0.00133388
0.00133691
0.00133994
0.00134297
0.001346
0.00134902
0.00135204
0.00135506
0.00135807
0.00136108
0.00136409
0.0013671
0.0013701
0.0013731
0.00137609
0.00137908
0.00138207
0.00138506
0.00138804
0.00139101
0.00139399
0.00139695
0.00139991
0.00140287