/*--------------------------------*- C++ -*----------------------------------*\
  =========                 |
  \\      /  F ield         | OpenFOAM: The Open Source CFD Toolbox
   \\    /   O peration     | Website:  https://openfoam.org
    \\  /    A nd           | Version:  7
     \\/     M anipulation  |
\*---------------------------------------------------------------------------*/
FoamFile
{
    version     2.0;
    format      ascii;
    class       volVectorField;
    location    "0.435";
    object      U;
}
// * * * * * * * * * * * * * * * * * * * * * * * * * * * * * * * * * * * * * //

dimensions      [0 1 -1 0 0 0 0];

internalField   nonuniform List<vector> 
2400
(
(0.0868186 0.010756 0)
(0.0780308 0.0108874 0)
(0.0609624 0.00686075 0)
(0.048177 0.00394289 0)
(0.0396174 0.0021594 0)
(0.0337253 0.00114693 0)
(0.0296636 0.000605182 0)
(0.026844 0.000327769 0)
(0.0248379 0.000189161 0)
(0.0233638 0.000119463 0)
(0.0222447 8.29085e-05 0)
(0.0213696 6.2301e-05 0)
(0.0206678 4.96144e-05 0)
(0.0200929 4.11099e-05 0)
(0.0196136 3.50119e-05 0)
(0.0192077 3.04353e-05 0)
(0.0188594 2.68971e-05 0)
(0.0185568 2.41028e-05 0)
(0.0182913 2.18558e-05 0)
(0.0180558 2.0017e-05 0)
(0.0178452 1.8485e-05 0)
(0.0176554 1.71849e-05 0)
(0.017483 1.6061e-05 0)
(0.0173256 1.50728e-05 0)
(0.0171811 1.419e-05 0)
(0.0170478 1.33904e-05 0)
(0.0169243 1.26574e-05 0)
(0.0168096 1.19793e-05 0)
(0.0167028 1.13471e-05 0)
(0.016603 1.07544e-05 0)
(0.0165096 1.01962e-05 0)
(0.0164221 9.66881e-06 0)
(0.01634 9.16948e-06 0)
(0.0162628 8.6959e-06 0)
(0.0161902 8.24632e-06 0)
(0.0161219 7.81917e-06 0)
(0.0160576 7.41333e-06 0)
(0.0159969 7.02753e-06 0)
(0.0159398 6.6608e-06 0)
(0.0158859 6.31225e-06 0)
(0.015835 5.98099e-06 0)
(0.015787 5.66625e-06 0)
(0.0157417 5.36718e-06 0)
(0.0156989 5.08329e-06 0)
(0.0156586 4.81367e-06 0)
(0.0156205 4.55772e-06 0)
(0.0155845 4.31476e-06 0)
(0.0155505 4.08425e-06 0)
(0.0155184 3.86555e-06 0)
(0.015488 3.65812e-06 0)
(0.0154594 3.46137e-06 0)
(0.0154324 3.27497e-06 0)
(0.0154068 3.09822e-06 0)
(0.0153827 2.9307e-06 0)
(0.0153599 2.77196e-06 0)
(0.0153384 2.62158e-06 0)
(0.015318 2.47918e-06 0)
(0.0152988 2.34432e-06 0)
(0.0152807 2.21663e-06 0)
(0.0152636 2.09578e-06 0)
(0.0152474 1.98142e-06 0)
(0.0152321 1.87324e-06 0)
(0.0152177 1.77093e-06 0)
(0.015204 1.6742e-06 0)
(0.0151912 1.58278e-06 0)
(0.015179 1.4964e-06 0)
(0.0151675 1.41484e-06 0)
(0.0151567 1.33785e-06 0)
(0.0151465 1.26519e-06 0)
(0.0151368 1.19665e-06 0)
(0.0151277 1.13203e-06 0)
(0.0151191 1.07107e-06 0)
(0.0151109 1.01359e-06 0)
(0.0151033 9.59351e-07 0)
(0.0150961 9.08162e-07 0)
(0.0150892 8.59735e-07 0)
(0.0150828 8.13895e-07 0)
(0.0150768 7.70367e-07 0)
(0.0150711 7.28934e-07 0)
(0.0150658 6.89329e-07 0)
(0.0150609 6.5134e-07 0)
(0.0150562 6.14707e-07 0)
(0.0150519 5.79257e-07 0)
(0.0150478 5.44744e-07 0)
(0.0150441 5.1102e-07 0)
(0.0150407 4.77942e-07 0)
(0.0150375 4.45365e-07 0)
(0.0150346 4.13303e-07 0)
(0.015032 3.81623e-07 0)
(0.0150296 3.50422e-07 0)
(0.0150275 3.19734e-07 0)
(0.0150256 2.89646e-07 0)
(0.0150239 2.60309e-07 0)
(0.0150224 2.31864e-07 0)
(0.0150212 2.04485e-07 0)
(0.0150201 1.78382e-07 0)
(0.0150192 1.53741e-07 0)
(0.0150184 1.30705e-07 0)
(0.0150178 1.0945e-07 0)
(0.0150172 9.01074e-08 0)
(0.0150168 7.27805e-08 0)
(0.0150165 5.74994e-08 0)
(0.0150163 4.42426e-08 0)
(0.0150161 3.30084e-08 0)
(0.015016 2.36913e-08 0)
(0.0150159 1.61737e-08 0)
(0.0150159 1.0331e-08 0)
(0.0150158 5.94831e-09 0)
(0.0150158 2.80938e-09 0)
(0.0150158 7.47301e-10 0)
(0.0150158 -4.97279e-10 0)
(0.0150158 -1.11425e-09 0)
(0.0150158 -1.27495e-09 0)
(0.0150158 -1.13174e-09 0)
(0.0150158 -8.50232e-10 0)
(0.0150158 -5.27784e-10 0)
(0.0150158 -2.87795e-10 0)
(0.0150157 -1.59024e-10 0)
(0.0150157 -3.91031e-10 0)
(0.0150157 1.31621e-09 0)
(0.101022 0.0154713 0)
(0.104979 0.0219323 0)
(0.101988 0.0203216 0)
(0.0956698 0.016427 0)
(0.088655 0.0123106 0)
(0.0819427 0.00888514 0)
(0.0760075 0.00634386 0)
(0.0710218 0.00456499 0)
(0.0669337 0.00335127 0)
(0.063607 0.00252523 0)
(0.0608974 0.00195477 0)
(0.0586777 0.00155121 0)
(0.0568435 0.00125795 0)
(0.0553126 0.00103934 0)
(0.0540215 0.000872654 0)
(0.0529214 0.000743119 0)
(0.0519745 0.000640817 0)
(0.0511519 0.000558891 0)
(0.0504307 0.000492458 0)
(0.0497932 0.000437956 0)
(0.0492252 0.00039274 0)
(0.0487156 0.000354815 0)
(0.0482553 0.000322662 0)
(0.0478372 0.000295113 0)
(0.0474553 0.000271268 0)
(0.047105 0.000250425 0)
(0.0467822 0.000232037 0)
(0.0464839 0.000215675 0)
(0.0462072 0.000200999 0)
(0.0459499 0.000187742 0)
(0.0457101 0.000175689 0)
(0.0454862 0.000164669 0)
(0.0452768 0.000154544 0)
(0.0450806 0.000145201 0)
(0.0448966 0.000136549 0)
(0.0447239 0.00012851 0)
(0.0445615 0.000121021 0)
(0.0444089 0.000114029 0)
(0.0442653 0.000107488 0)
(0.0441301 0.000101359 0)
(0.0440027 9.56086e-05 0)
(0.0438828 9.02068e-05 0)
(0.0437697 8.51278e-05 0)
(0.043663 8.03483e-05 0)
(0.0435625 7.58477e-05 0)
(0.0434676 7.16072e-05 0)
(0.0433782 6.76099e-05 0)
(0.0432938 6.38404e-05 0)
(0.0432141 6.02846e-05 0)
(0.0431389 5.69293e-05 0)
(0.043068 5.37625e-05 0)
(0.043001 5.07732e-05 0)
(0.0429378 4.79509e-05 0)
(0.0428782 4.52859e-05 0)
(0.0428219 4.27693e-05 0)
(0.0427687 4.03926e-05 0)
(0.0427185 3.81479e-05 0)
(0.0426711 3.60277e-05 0)
(0.0426264 3.40251e-05 0)
(0.0425841 3.21335e-05 0)
(0.0425443 3.03468e-05 0)
(0.0425066 2.86589e-05 0)
(0.0424711 2.70644e-05 0)
(0.0424376 2.55581e-05 0)
(0.0424059 2.4135e-05 0)
(0.042376 2.27902e-05 0)
(0.0423478 2.15191e-05 0)
(0.0423211 2.03175e-05 0)
(0.042296 1.9181e-05 0)
(0.0422723 1.81056e-05 0)
(0.0422499 1.70872e-05 0)
(0.0422288 1.6122e-05 0)
(0.0422089 1.5206e-05 0)
(0.0421902 1.43357e-05 0)
(0.0421725 1.35074e-05 0)
(0.0421559 1.27176e-05 0)
(0.0421403 1.19628e-05 0)
(0.0421256 1.124e-05 0)
(0.0421118 1.0546e-05 0)
(0.042099 9.87801e-06 0)
(0.0420869 9.23362e-06 0)
(0.0420757 8.61065e-06 0)
(0.0420653 8.00724e-06 0)
(0.0420557 7.42206e-06 0)
(0.0420468 6.85413e-06 0)
(0.0420386 6.30302e-06 0)
(0.0420311 5.76863e-06 0)
(0.0420243 5.25132e-06 0)
(0.0420181 4.75202e-06 0)
(0.0420126 4.27179e-06 0)
(0.0420076 3.81206e-06 0)
(0.0420032 3.37445e-06 0)
(0.0419994 2.96066e-06 0)
(0.0419961 2.57236e-06 0)
(0.0419932 2.21119e-06 0)
(0.0419908 1.87849e-06 0)
(0.0419887 1.57525e-06 0)
(0.041987 1.30221e-06 0)
(0.0419856 1.05955e-06 0)
(0.0419845 8.46986e-07 0)
(0.0419837 6.63735e-07 0)
(0.041983 5.08568e-07 0)
(0.0419825 3.79942e-07 0)
(0.0419822 2.75655e-07 0)
(0.0419819 1.93413e-07 0)
(0.0419818 1.30737e-07 0)
(0.0419817 8.48109e-08 0)
(0.0419816 5.29707e-08 0)
(0.0419816 3.2575e-08 0)
(0.0419815 2.10371e-08 0)
(0.0419815 1.6063e-08 0)
(0.0419815 1.55609e-08 0)
(0.0419815 1.77715e-08 0)
(0.0419815 2.11163e-08 0)
(0.0419815 2.44018e-08 0)
(0.0419814 2.6575e-08 0)
(0.0419814 2.70701e-08 0)
(0.0419814 2.53892e-08 0)
(0.0419813 2.1415e-08 0)
(0.0419813 1.8567e-08 0)
(0.100793 0.00702472 0)
(0.106916 0.0150514 0)
(0.110854 0.0180723 0)
(0.111758 0.0179975 0)
(0.110399 0.016233 0)
(0.107609 0.0138258 0)
(0.104101 0.0114095 0)
(0.100408 0.00926833 0)
(0.0968544 0.00748767 0)
(0.0935972 0.00605859 0)
(0.0906943 0.00493251 0)
(0.0881474 0.00405122 0)
(0.0859304 0.00336119 0)
(0.0840054 0.00281836 0)
(0.0823327 0.00238833 0)
(0.0808748 0.00204487 0)
(0.0795987 0.00176817 0)
(0.0784759 0.00154329 0)
(0.0774827 0.00135889 0)
(0.0765991 0.00120635 0)
(0.0758086 0.00107901 0)
(0.0750976 0.000971773 0)
(0.0744546 0.000880642 0)
(0.0738705 0.000802506 0)
(0.0733375 0.000734921 0)
(0.072849 0.000675959 0)
(0.0723997 0.000624093 0)
(0.0719852 0.000578111 0)
(0.0716016 0.000537045 0)
(0.0712456 0.000500121 0)
(0.0709146 0.000466714 0)
(0.0706061 0.000436319 0)
(0.0703181 0.000408528 0)
(0.0700489 0.000383003 0)
(0.0697969 0.000359469 0)
(0.0695608 0.000337696 0)
(0.0693393 0.000317493 0)
(0.0691313 0.000298699 0)
(0.0689358 0.000281177 0)
(0.0687521 0.000264809 0)
(0.0685793 0.000249496 0)
(0.0684167 0.000235149 0)
(0.0682636 0.000221692 0)
(0.0681194 0.000209056 0)
(0.0679835 0.000197181 0)
(0.0678555 0.000186013 0)
(0.0677348 0.000175503 0)
(0.0676211 0.000165608 0)
(0.0675138 0.000156287 0)
(0.0674127 0.000147504 0)
(0.0673173 0.000139224 0)
(0.0672273 0.000131417 0)
(0.0671424 0.000124054 0)
(0.0670623 0.000117108 0)
(0.0669868 0.000110554 0)
(0.0669155 0.00010437 0)
(0.0668482 9.85339e-05 0)
(0.0667848 9.30253e-05 0)
(0.0667249 8.78256e-05 0)
(0.0666683 8.29169e-05 0)
(0.066615 7.82825e-05 0)
(0.0665646 7.39067e-05 0)
(0.0665171 6.97745e-05 0)
(0.0664723 6.5872e-05 0)
(0.06643 6.21857e-05 0)
(0.0663901 5.87029e-05 0)
(0.0663524 5.54113e-05 0)
(0.0663168 5.22992e-05 0)
(0.0662833 4.93554e-05 0)
(0.0662517 4.6569e-05 0)
(0.0662218 4.39293e-05 0)
(0.0661937 4.14263e-05 0)
(0.0661672 3.90498e-05 0)
(0.0661422 3.67903e-05 0)
(0.0661187 3.46382e-05 0)
(0.0660966 3.25847e-05 0)
(0.0660759 3.06211e-05 0)
(0.0660564 2.87393e-05 0)
(0.0660381 2.69318e-05 0)
(0.066021 2.51917e-05 0)
(0.066005 2.35129e-05 0)
(0.0659902 2.18901e-05 0)
(0.0659763 2.03193e-05 0)
(0.0659635 1.87973e-05 0)
(0.0659517 1.7322e-05 0)
(0.0659409 1.58926e-05 0)
(0.065931 1.45094e-05 0)
(0.065922 1.31736e-05 0)
(0.0659138 1.18875e-05 0)
(0.0659065 1.06541e-05 0)
(0.0658999 9.47714e-06 0)
(0.0658941 8.36067e-06 0)
(0.065889 7.30883e-06 0)
(0.0658846 6.32569e-06 0)
(0.0658808 5.41496e-06 0)
(0.0658776 4.57961e-06 0)
(0.0658749 3.82181e-06 0)
(0.0658727 3.14273e-06 0)
(0.0658708 2.54229e-06 0)
(0.0658694 2.01935e-06 0)
(0.0658682 1.5714e-06 0)
(0.0658674 1.19482e-06 0)
(0.0658667 8.84803e-07 0)
(0.0658663 6.35848e-07 0)
(0.0658659 4.41652e-07 0)
(0.0658657 2.95437e-07 0)
(0.0658656 1.90234e-07 0)
(0.0658655 1.19082e-07 0)
(0.0658655 7.52535e-08 0)
(0.0658654 5.23709e-08 0)
(0.0658654 4.47325e-08 0)
(0.0658654 4.71899e-08 0)
(0.0658654 5.5335e-08 0)
(0.0658654 6.55596e-08 0)
(0.0658653 7.49031e-08 0)
(0.0658653 8.11786e-08 0)
(0.0658652 8.26381e-08 0)
(0.0658652 7.82889e-08 0)
(0.0658651 6.73747e-08 0)
(0.0658651 5.18772e-08 0)
(0.100343 0.00454342 0)
(0.104278 0.0109541 0)
(0.108895 0.0146133 0)
(0.1126 0.0160997 0)
(0.114884 0.016019 0)
(0.115786 0.0149693 0)
(0.115573 0.0134475 0)
(0.114585 0.0117851 0)
(0.113125 0.0101729 0)
(0.111427 0.00870761 0)
(0.109649 0.00742712 0)
(0.107895 0.00633475 0)
(0.106225 0.00541626 0)
(0.104669 0.00465021 0)
(0.10324 0.00401371 0)
(0.101938 0.0034853 0)
(0.100758 0.00304602 0)
(0.0996884 0.00267975 0)
(0.0987207 0.00237309 0)
(0.0978439 0.00211503 0)
(0.097048 0.00189662 0)
(0.0963238 0.00171061 0)
(0.0956632 0.00155111 0)
(0.0950589 0.00141341 0)
(0.0945045 0.00129368 0)
(0.0939946 0.00118883 0)
(0.0935244 0.00109638 0)
(0.0930897 0.00101431 0)
(0.0926871 0.000940972 0)
(0.0923132 0.000875051 0)
(0.0919656 0.000815459 0)
(0.0916417 0.000761308 0)
(0.0913395 0.000711871 0)
(0.0910571 0.000666546 0)
(0.0907931 0.000624833 0)
(0.0905458 0.000586317 0)
(0.0903141 0.000550647 0)
(0.0900967 0.000517528 0)
(0.0898927 0.000486707 0)
(0.0897011 0.000457969 0)
(0.0895211 0.000431128 0)
(0.0893518 0.000406021 0)
(0.0891926 0.000382506 0)
(0.0890428 0.000360459 0)
(0.0889017 0.000339767 0)
(0.088769 0.000320332 0)
(0.0886439 0.000302065 0)
(0.0885261 0.000284885 0)
(0.0884152 0.000268718 0)
(0.0883106 0.000253498 0)
(0.088212 0.000239165 0)
(0.0881191 0.000225661 0)
(0.0880315 0.000212935 0)
(0.087949 0.00020094 0)
(0.0878711 0.00018963 0)
(0.0877977 0.000178965 0)
(0.0877284 0.000168906 0)
(0.0876631 0.000159417 0)
(0.0876015 0.000150465 0)
(0.0875434 0.000142018 0)
(0.0874885 0.000134047 0)
(0.0874368 0.000126523 0)
(0.0873881 0.000119421 0)
(0.087342 0.000112716 0)
(0.0872986 0.000106385 0)
(0.0872577 0.000100404 0)
(0.087219 9.47536e-05 0)
(0.0871826 8.9412e-05 0)
(0.0871482 8.43601e-05 0)
(0.0871158 7.95789e-05 0)
(0.0870853 7.50503e-05 0)
(0.0870565 7.07565e-05 0)
(0.0870293 6.66803e-05 0)
(0.0870038 6.28053e-05 0)
(0.0869797 5.91154e-05 0)
(0.0869571 5.55953e-05 0)
(0.0869358 5.22304e-05 0)
(0.0869159 4.90068e-05 0)
(0.0868972 4.59117e-05 0)
(0.0868797 4.29337e-05 0)
(0.0868633 4.00622e-05 0)
(0.0868481 3.72885e-05 0)
(0.0868339 3.46053e-05 0)
(0.0868207 3.20073e-05 0)
(0.0868086 2.94909e-05 0)
(0.0867974 2.70544e-05 0)
(0.0867872 2.4698e-05 0)
(0.0867778 2.24237e-05 0)
(0.0867693 2.02349e-05 0)
(0.0867617 1.81367e-05 0)
(0.0867549 1.6135e-05 0)
(0.0867488 1.42362e-05 0)
(0.0867434 1.24474e-05 0)
(0.0867388 1.07753e-05 0)
(0.0867347 9.22576e-06 0)
(0.0867313 7.80403e-06 0)
(0.0867283 6.5137e-06 0)
(0.0867259 5.35673e-06 0)
(0.0867239 4.33325e-06 0)
(0.0867223 3.44119e-06 0)
(0.0867211 2.67652e-06 0)
(0.0867201 2.03325e-06 0)
(0.0867194 1.50352e-06 0)
(0.0867188 1.07799e-06 0)
(0.0867184 7.45993e-07 0)
(0.0867182 4.96198e-07 0)
(0.086718 3.16768e-07 0)
(0.0867179 1.95829e-07 0)
(0.0867179 1.21856e-07 0)
(0.0867179 8.40873e-08 0)
(0.0867178 7.26057e-08 0)
(0.0867178 7.86621e-08 0)
(0.0867178 9.46684e-08 0)
(0.0867178 1.14393e-07 0)
(0.0867178 1.32761e-07 0)
(0.0867177 1.45912e-07 0)
(0.0867177 1.5096e-07 0)
(0.0867176 1.45769e-07 0)
(0.0867176 1.29235e-07 0)
(0.0867175 9.69486e-08 0)
(0.100133 0.00265569 0)
(0.102448 0.00721817 0)
(0.105947 0.0104763 0)
(0.109672 0.0124281 0)
(0.112983 0.0132624 0)
(0.115586 0.0132436 0)
(0.11741 0.0126536 0)
(0.118521 0.0117331 0)
(0.119046 0.0106592 0)
(0.119124 0.00955086 0)
(0.118882 0.00848189 0)
(0.118424 0.00749345 0)
(0.117831 0.00660431 0)
(0.117162 0.00581899 0)
(0.11646 0.00513377 0)
(0.115754 0.00454051 0)
(0.115063 0.00402922 0)
(0.114398 0.0035895 0)
(0.113766 0.00321141 0)
(0.113171 0.00288587 0)
(0.112612 0.00260489 0)
(0.11209 0.0023615 0)
(0.111604 0.00214981 0)
(0.111151 0.00196479 0)
(0.110729 0.00180226 0)
(0.110337 0.00165872 0)
(0.109971 0.00153125 0)
(0.109631 0.00141746 0)
(0.109314 0.00131532 0)
(0.109018 0.0012232 0)
(0.108742 0.0011397 0)
(0.108484 0.00106368 0)
(0.108243 0.0009942 0)
(0.108017 0.000930447 0)
(0.107806 0.000871754 0)
(0.107608 0.000817556 0)
(0.107422 0.000767374 0)
(0.107248 0.000720798 0)
(0.107084 0.000677477 0)
(0.106931 0.00063711 0)
(0.106787 0.000599434 0)
(0.106652 0.000564218 0)
(0.106524 0.000531261 0)
(0.106405 0.000500385 0)
(0.106292 0.000471431 0)
(0.106186 0.000444257 0)
(0.106087 0.000418735 0)
(0.105993 0.000394749 0)
(0.105905 0.000372196 0)
(0.105821 0.000350978 0)
(0.105743 0.00033101 0)
(0.105669 0.00031221 0)
(0.1056 0.000294504 0)
(0.105535 0.000277824 0)
(0.105473 0.000262107 0)
(0.105415 0.000247294 0)
(0.10536 0.00023333 0)
(0.105308 0.000220164 0)
(0.10526 0.000207748 0)
(0.105214 0.000196039 0)
(0.10517 0.000184993 0)
(0.10513 0.000174572 0)
(0.105091 0.000164739 0)
(0.105055 0.000155458 0)
(0.105021 0.000146697 0)
(0.104988 0.000138425 0)
(0.104958 0.00013061 0)
(0.104929 0.000123226 0)
(0.104902 0.000116244 0)
(0.104877 0.000109638 0)
(0.104853 0.000103383 0)
(0.10483 9.74539e-05 0)
(0.104809 9.1828e-05 0)
(0.104789 8.64821e-05 0)
(0.10477 8.13943e-05 0)
(0.104752 7.65433e-05 0)
(0.104735 7.19092e-05 0)
(0.10472 6.74731e-05 0)
(0.104705 6.32173e-05 0)
(0.104691 5.91257e-05 0)
(0.104678 5.5184e-05 0)
(0.104666 5.13798e-05 0)
(0.104655 4.77027e-05 0)
(0.104645 4.41449e-05 0)
(0.104635 4.07009e-05 0)
(0.104626 3.73677e-05 0)
(0.104618 3.41449e-05 0)
(0.10461 3.10344e-05 0)
(0.104603 2.80402e-05 0)
(0.104597 2.51683e-05 0)
(0.104591 2.24262e-05 0)
(0.104586 1.98223e-05 0)
(0.104582 1.73658e-05 0)
(0.104578 1.50654e-05 0)
(0.104575 1.29296e-05 0)
(0.104572 1.09652e-05 0)
(0.104569 9.17779e-06 0)
(0.104567 7.57041e-06 0)
(0.104565 6.14379e-06 0)
(0.104564 4.89595e-06 0)
(0.104563 3.82211e-06 0)
(0.104562 2.91483e-06 0)
(0.104561 2.16409e-06 0)
(0.104561 1.55775e-06 0)
(0.10456 1.08198e-06 0)
(0.10456 7.21491e-07 0)
(0.10456 4.60414e-07 0)
(0.10456 2.82589e-07 0)
(0.10456 1.72217e-07 0)
(0.10456 1.14252e-07 0)
(0.10456 9.49116e-08 0)
(0.104559 1.01815e-07 0)
(0.104559 1.2428e-07 0)
(0.104559 1.53335e-07 0)
(0.104559 1.81684e-07 0)
(0.104559 2.03584e-07 0)
(0.104559 2.14815e-07 0)
(0.104559 2.11573e-07 0)
(0.104559 1.93458e-07 0)
(0.104559 1.45744e-07 0)
(0.100072 0.00171596 0)
(0.101465 0.00486536 0)
(0.103896 0.00736068 0)
(0.106887 0.00909694 0)
(0.109985 0.01012 0)
(0.112896 0.0105386 0)
(0.115455 0.0104918 0)
(0.117592 0.0101195 0)
(0.119302 0.00954118 0)
(0.12062 0.00884991 0)
(0.121598 0.00811359 0)
(0.122295 0.00737897 0)
(0.122765 0.00667593 0)
(0.123059 0.0060217 0)
(0.123217 0.00542457 0)
(0.123273 0.00488685 0)
(0.123255 0.00440708 0)
(0.123184 0.00398158 0)
(0.123076 0.00360558 0)
(0.122943 0.00327387 0)
(0.122794 0.00298125 0)
(0.122637 0.00272284 0)
(0.122476 0.00249417 0)
(0.122315 0.00229125 0)
(0.122157 0.00211059 0)
(0.122003 0.00194914 0)
(0.121855 0.0018043 0)
(0.121712 0.00167385 0)
(0.121576 0.00155588 0)
(0.121447 0.00144878 0)
(0.121325 0.00135119 0)
(0.121209 0.00126195 0)
(0.1211 0.00118008 0)
(0.120997 0.00110473 0)
(0.1209 0.0010352 0)
(0.120809 0.000970878 0)
(0.120723 0.000911233 0)
(0.120642 0.000855816 0)
(0.120567 0.000804234 0)
(0.120495 0.000756143 0)
(0.120428 0.000711243 0)
(0.120365 0.00066927 0)
(0.120306 0.00062999 0)
(0.120251 0.000593193 0)
(0.120199 0.000558693 0)
(0.12015 0.000526323 0)
(0.120103 0.00049593 0)
(0.12006 0.000467377 0)
(0.120019 0.000440539 0)
(0.119981 0.000415301 0)
(0.119945 0.000391558 0)
(0.119911 0.000369214 0)
(0.119879 0.00034818 0)
(0.119849 0.000328373 0)
(0.119821 0.000309717 0)
(0.119795 0.000292141 0)
(0.11977 0.000275579 0)
(0.119746 0.00025997 0)
(0.119724 0.000245257 0)
(0.119703 0.000231384 0)
(0.119684 0.000218303 0)
(0.119665 0.000205967 0)
(0.119648 0.000194329 0)
(0.119631 0.000183349 0)
(0.119616 0.000172987 0)
(0.119601 0.000163206 0)
(0.119588 0.000153969 0)
(0.119575 0.000145243 0)
(0.119562 0.000136996 0)
(0.119551 0.000129195 0)
(0.11954 0.000121811 0)
(0.11953 0.000114816 0)
(0.119521 0.000108181 0)
(0.119512 0.00010188 0)
(0.119503 9.58861e-05 0)
(0.119495 9.01757e-05 0)
(0.119488 8.47248e-05 0)
(0.11948 7.95113e-05 0)
(0.119474 7.45142e-05 0)
(0.119468 6.97147e-05 0)
(0.119462 6.50956e-05 0)
(0.119456 6.06417e-05 0)
(0.119451 5.63404e-05 0)
(0.119446 5.21819e-05 0)
(0.119442 4.81588e-05 0)
(0.119438 4.42668e-05 0)
(0.119434 4.05043e-05 0)
(0.11943 3.68722e-05 0)
(0.119427 3.33744e-05 0)
(0.119424 3.00168e-05 0)
(0.119421 2.68072e-05 0)
(0.119418 2.37548e-05 0)
(0.119416 2.08695e-05 0)
(0.119414 1.81614e-05 0)
(0.119412 1.56402e-05 0)
(0.119411 1.33143e-05 0)
(0.119409 1.11903e-05 0)
(0.119408 9.27266e-06 0)
(0.119407 7.56322e-06 0)
(0.119406 6.06061e-06 0)
(0.119405 4.76048e-06 0)
(0.119405 3.65532e-06 0)
(0.119404 2.73458e-06 0)
(0.119404 1.98516e-06 0)
(0.119404 1.39175e-06 0)
(0.119403 9.37305e-07 0)
(0.119403 6.03653e-07 0)
(0.119403 3.72214e-07 0)
(0.119403 2.24638e-07 0)
(0.119403 1.43169e-07 0)
(0.119403 1.11248e-07 0)
(0.119403 1.13948e-07 0)
(0.119403 1.38131e-07 0)
(0.119403 1.72699e-07 0)
(0.119403 2.08488e-07 0)
(0.119403 2.38123e-07 0)
(0.119403 2.56184e-07 0)
(0.119403 2.57079e-07 0)
(0.119403 2.41737e-07 0)
(0.119403 1.84844e-07 0)
(0.100047 0.00112219 0)
(0.100972 0.00326163 0)
(0.102703 0.00506044 0)
(0.105008 0.0064062 0)
(0.107601 0.00730087 0)
(0.110267 0.00779573 0)
(0.112857 0.00796248 0)
(0.115272 0.00787871 0)
(0.117455 0.0076168 0)
(0.119385 0.00723811 0)
(0.121061 0.00679134 0)
(0.122499 0.00631322 0)
(0.123721 0.00583015 0)
(0.124752 0.00535999 0)
(0.125619 0.00491402 0)
(0.126347 0.00449857 0)
(0.126957 0.00411648 0)
(0.127468 0.00376821 0)
(0.127899 0.00345268 0)
(0.128262 0.0031679 0)
(0.128569 0.0029114 0)
(0.128832 0.00268053 0)
(0.129056 0.00247264 0)
(0.12925 0.00228522 0)
(0.129419 0.00211593 0)
(0.129566 0.00196269 0)
(0.129696 0.00182361 0)
(0.129811 0.00169704 0)
(0.129914 0.00158153 0)
(0.130007 0.00147582 0)
(0.130091 0.00137882 0)
(0.130167 0.00128959 0)
(0.130237 0.00120729 0)
(0.130301 0.00113122 0)
(0.13036 0.00106076 0)
(0.130415 0.000995365 0)
(0.130466 0.000934572 0)
(0.130514 0.000877966 0)
(0.130558 0.000825184 0)
(0.1306 0.000775906 0)
(0.130639 0.000729846 0)
(0.130676 0.000686751 0)
(0.130711 0.000646394 0)
(0.130743 0.000608571 0)
(0.130774 0.000573097 0)
(0.130803 0.000539806 0)
(0.13083 0.000508545 0)
(0.130856 0.000479176 0)
(0.13088 0.000451572 0)
(0.130903 0.000425617 0)
(0.130925 0.000401203 0)
(0.130946 0.000378232 0)
(0.130965 0.000356612 0)
(0.130984 0.000336258 0)
(0.131001 0.000317092 0)
(0.131018 0.00029904 0)
(0.131033 0.000282034 0)
(0.131048 0.000266011 0)
(0.131062 0.000250912 0)
(0.131075 0.000236679 0)
(0.131088 0.000223262 0)
(0.131099 0.000210612 0)
(0.131111 0.000198682 0)
(0.131121 0.000187429 0)
(0.131131 0.000176812 0)
(0.13114 0.000166792 0)
(0.131149 0.000157333 0)
(0.131158 0.0001484 0)
(0.131166 0.000139958 0)
(0.131173 0.000131977 0)
(0.13118 0.000124425 0)
(0.131187 0.000117273 0)
(0.131193 0.000110493 0)
(0.131199 0.000104056 0)
(0.131205 9.79384e-05 0)
(0.13121 9.21133e-05 0)
(0.131215 8.6557e-05 0)
(0.13122 8.12471e-05 0)
(0.131224 7.61622e-05 0)
(0.131228 7.12828e-05 0)
(0.131232 6.65911e-05 0)
(0.131235 6.20715e-05 0)
(0.131238 5.77106e-05 0)
(0.131241 5.34976e-05 0)
(0.131244 4.94242e-05 0)
(0.131246 4.5485e-05 0)
(0.131248 4.16776e-05 0)
(0.13125 3.80018e-05 0)
(0.131252 3.44603e-05 0)
(0.131254 3.10583e-05 0)
(0.131255 2.78025e-05 0)
(0.131256 2.47015e-05 0)
(0.131257 2.17649e-05 0)
(0.131258 1.90023e-05 0)
(0.131258 1.64233e-05 0)
(0.131259 1.40367e-05 0)
(0.131259 1.18496e-05 0)
(0.131259 9.86715e-06 0)
(0.131259 8.09194e-06 0)
(0.131259 6.52372e-06 0)
(0.131259 5.15921e-06 0)
(0.131259 3.99199e-06 0)
(0.131259 3.01268e-06 0)
(0.131259 2.20912e-06 0)
(0.131259 1.56674e-06 0)
(0.131259 1.06913e-06 0)
(0.131259 6.98556e-07 0)
(0.131259 4.36613e-07 0)
(0.131259 2.64721e-07 0)
(0.131259 1.6495e-07 0)
(0.131259 1.20186e-07 0)
(0.131259 1.14845e-07 0)
(0.131259 1.35075e-07 0)
(0.131259 1.6892e-07 0)
(0.131259 2.06497e-07 0)
(0.131259 2.39527e-07 0)
(0.131259 2.62045e-07 0)
(0.131259 2.67228e-07 0)
(0.131259 2.57234e-07 0)
(0.131259 2.00246e-07 0)
(0.100036 0.000715001 0)
(0.100718 0.00209929 0)
(0.10204 0.00330216 0)
(0.103877 0.00423964 0)
(0.106044 0.00489978 0)
(0.108385 0.00530775 0)
(0.110782 0.00550291 0)
(0.113147 0.00552911 0)
(0.115415 0.00542887 0)
(0.117545 0.00523963 0)
(0.119516 0.00499227 0)
(0.121318 0.00471111 0)
(0.122952 0.00441446 0)
(0.124426 0.00411555 0)
(0.12575 0.00382348 0)
(0.126939 0.00354416 0)
(0.128005 0.00328107 0)
(0.128961 0.00303594 0)
(0.12982 0.00280929 0)
(0.130594 0.0026008 0)
(0.131293 0.00240965 0)
(0.131926 0.00223472 0)
(0.132501 0.00207476 0)
(0.133025 0.00192846 0)
(0.133503 0.00179457 0)
(0.133943 0.00167188 0)
(0.134346 0.0015593 0)
(0.134719 0.0014558 0)
(0.135063 0.0013605 0)
(0.135382 0.00127259 0)
(0.135678 0.00119133 0)
(0.135954 0.00111611 0)
(0.136211 0.00104635 0)
(0.13645 0.000981559 0)
(0.136675 0.000921294 0)
(0.136884 0.000865166 0)
(0.137081 0.000812826 0)
(0.137265 0.000763965 0)
(0.137438 0.000718304 0)
(0.137601 0.000675597 0)
(0.137753 0.000635619 0)
(0.137897 0.000598167 0)
(0.138032 0.000563059 0)
(0.138159 0.000530129 0)
(0.138279 0.000499225 0)
(0.138391 0.000470207 0)
(0.138498 0.000442949 0)
(0.138598 0.000417334 0)
(0.138692 0.000393254 0)
(0.138781 0.00037061 0)
(0.138865 0.00034931 0)
(0.138944 0.000329268 0)
(0.139018 0.000310406 0)
(0.139088 0.000292651 0)
(0.139155 0.000275933 0)
(0.139217 0.000260189 0)
(0.139276 0.00024536 0)
(0.139332 0.00023139 0)
(0.139385 0.000218227 0)
(0.139434 0.000205823 0)
(0.139481 0.000194131 0)
(0.139525 0.00018311 0)
(0.139567 0.000172718 0)
(0.139606 0.000162917 0)
(0.139643 0.000153673 0)
(0.139678 0.00014495 0)
(0.139711 0.000136717 0)
(0.139742 0.000128943 0)
(0.139772 0.000121599 0)
(0.139799 0.000114657 0)
(0.139825 0.00010809 0)
(0.13985 0.000101874 0)
(0.139873 9.5982e-05 0)
(0.139895 9.03921e-05 0)
(0.139916 8.5081e-05 0)
(0.139935 8.00269e-05 0)
(0.139953 7.52093e-05 0)
(0.13997 7.06082e-05 0)
(0.139986 6.62055e-05 0)
(0.140001 6.19839e-05 0)
(0.140015 5.7928e-05 0)
(0.140028 5.40239e-05 0)
(0.140041 5.02597e-05 0)
(0.140052 4.66256e-05 0)
(0.140062 4.31138e-05 0)
(0.140072 3.9719e-05 0)
(0.140081 3.64383e-05 0)
(0.140089 3.3271e-05 0)
(0.140096 3.02184e-05 0)
(0.140102 2.72843e-05 0)
(0.140108 2.44738e-05 0)
(0.140113 2.17937e-05 0)
(0.140118 1.92516e-05 0)
(0.140122 1.68557e-05 0)
(0.140125 1.4614e-05 0)
(0.140128 1.25341e-05 0)
(0.14013 1.06222e-05 0)
(0.140132 8.88338e-06 0)
(0.140134 7.32029e-06 0)
(0.140135 5.93357e-06 0)
(0.140136 4.72114e-06 0)
(0.140137 3.67838e-06 0)
(0.140138 2.79812e-06 0)
(0.140138 2.07072e-06 0)
(0.140138 1.48445e-06 0)
(0.140139 1.02583e-06 0)
(0.140139 6.80092e-07 0)
(0.140139 4.3171e-07 0)
(0.140139 2.6489e-07 0)
(0.140139 1.64058e-07 0)
(0.140139 1.14436e-07 0)
(0.140139 1.02223e-07 0)
(0.140139 1.15162e-07 0)
(0.140139 1.42381e-07 0)
(0.140139 1.74889e-07 0)
(0.140139 2.0499e-07 0)
(0.140139 2.2712e-07 0)
(0.140139 2.34437e-07 0)
(0.140139 2.29757e-07 0)
(0.140139 1.81839e-07 0)
(0.10003 0.000399589 0)
(0.100588 0.00117888 0)
(0.101688 0.00186829 0)
(0.103251 0.00241826 0)
(0.105145 0.002817 0)
(0.107247 0.00307571 0)
(0.109459 0.00321462 0)
(0.111705 0.00325693 0)
(0.113925 0.00322547 0)
(0.116076 0.00314061 0)
(0.118128 0.00301937 0)
(0.120065 0.00287526 0)
(0.121878 0.00271869 0)
(0.123565 0.00255731 0)
(0.125129 0.00239656 0)
(0.126574 0.00224015 0)
(0.127907 0.00209046 0)
(0.129137 0.00194887 0)
(0.130271 0.00181607 0)
(0.131318 0.00169224 0)
(0.132284 0.00157722 0)
(0.133178 0.00147067 0)
(0.134005 0.00137208 0)
(0.134772 0.00128094 0)
(0.135484 0.00119666 0)
(0.136145 0.0011187 0)
(0.136761 0.00104654 0)
(0.137335 0.000979669 0)
(0.13787 0.000917648 0)
(0.138371 0.000860058 0)
(0.138838 0.000806521 0)
(0.139276 0.000756699 0)
(0.139686 0.000710283 0)
(0.14007 0.000666999 0)
(0.14043 0.000626597 0)
(0.140769 0.000588851 0)
(0.141086 0.00055356 0)
(0.141385 0.000520539 0)
(0.141665 0.000489621 0)
(0.141929 0.000460655 0)
(0.142177 0.000433502 0)
(0.14241 0.000408035 0)
(0.142629 0.000384138 0)
(0.142836 0.000361705 0)
(0.143031 0.000340639 0)
(0.143214 0.000320848 0)
(0.143387 0.000302249 0)
(0.143549 0.000284766 0)
(0.143703 0.000268326 0)
(0.143847 0.000252863 0)
(0.143983 0.000238317 0)
(0.144112 0.000224629 0)
(0.144233 0.000211746 0)
(0.144347 0.000199619 0)
(0.144454 0.0001882 0)
(0.144556 0.000177448 0)
(0.144651 0.000167321 0)
(0.144741 0.000157781 0)
(0.144826 0.000148793 0)
(0.144907 0.000140324 0)
(0.144982 0.000132342 0)
(0.145054 0.000124819 0)
(0.145121 0.000117726 0)
(0.145184 0.000111038 0)
(0.145244 0.00010473 0)
(0.145301 9.87785e-05 0)
(0.145354 9.31621e-05 0)
(0.145404 8.78597e-05 0)
(0.145452 8.28513e-05 0)
(0.145497 7.81181e-05 0)
(0.145539 7.36416e-05 0)
(0.145578 6.94047e-05 0)
(0.145616 6.53904e-05 0)
(0.145651 6.15828e-05 0)
(0.145684 5.79663e-05 0)
(0.145716 5.45262e-05 0)
(0.145745 5.12484e-05 0)
(0.145773 4.81196e-05 0)
(0.145798 4.51271e-05 0)
(0.145823 4.22595e-05 0)
(0.145845 3.95059e-05 0)
(0.145867 3.68568e-05 0)
(0.145886 3.43041e-05 0)
(0.145905 3.18408e-05 0)
(0.145922 2.94613e-05 0)
(0.145937 2.71619e-05 0)
(0.145952 2.49401e-05 0)
(0.145965 2.27951e-05 0)
(0.145977 2.07274e-05 0)
(0.145988 1.87392e-05 0)
(0.145997 1.68336e-05 0)
(0.146006 1.50149e-05 0)
(0.146014 1.3288e-05 0)
(0.146021 1.16582e-05 0)
(0.146026 1.01309e-05 0)
(0.146031 8.71119e-06 0)
(0.146036 7.4034e-06 0)
(0.146039 6.21107e-06 0)
(0.146042 5.13629e-06 0)
(0.146045 4.17982e-06 0)
(0.146047 3.3407e-06 0)
(0.146048 2.61612e-06 0)
(0.14605 2.00179e-06 0)
(0.14605 1.49154e-06 0)
(0.146051 1.07787e-06 0)
(0.146052 7.51971e-07 0)
(0.146052 5.04119e-07 0)
(0.146052 3.24041e-07 0)
(0.146052 2.01123e-07 0)
(0.146052 1.24823e-07 0)
(0.146052 8.50764e-08 0)
(0.146052 7.24871e-08 0)
(0.146052 7.85058e-08 0)
(0.146052 9.55692e-08 0)
(0.146052 1.1731e-07 0)
(0.146052 1.38222e-07 0)
(0.146052 1.54406e-07 0)
(0.146053 1.60653e-07 0)
(0.146053 1.59334e-07 0)
(0.146053 1.27655e-07 0)
(0.100027 0.000128761 0)
(0.100533 0.00038057 0)
(0.101534 0.000605104 0)
(0.102974 0.000786157 0)
(0.104739 0.000919111 0)
(0.106721 0.00100705 0)
(0.108832 0.00105625 0)
(0.111002 0.00107402 0)
(0.113173 0.00106763 0)
(0.115304 0.00104361 0)
(0.117365 0.0010074 0)
(0.119337 0.000963344 0)
(0.121208 0.000914773 0)
(0.122973 0.000864167 0)
(0.124631 0.000813301 0)
(0.126183 0.000763396 0)
(0.127633 0.000715258 0)
(0.128987 0.000669383 0)
(0.13025 0.000626039 0)
(0.131427 0.000585335 0)
(0.132525 0.000547269 0)
(0.13355 0.000511768 0)
(0.134506 0.000478717 0)
(0.135399 0.000447975 0)
(0.136233 0.000419392 0)
(0.137013 0.000392813 0)
(0.137743 0.000368089 0)
(0.138426 0.00034508 0)
(0.139066 0.000323651 0)
(0.139666 0.00030368 0)
(0.140228 0.000285054 0)
(0.140756 0.000267669 0)
(0.141251 0.000251431 0)
(0.141717 0.000236253 0)
(0.142154 0.000222058 0)
(0.142564 0.000208772 0)
(0.14295 0.000196331 0)
(0.143313 0.000184675 0)
(0.143655 0.000173749 0)
(0.143976 0.000163503 0)
(0.144278 0.000153889 0)
(0.144563 0.000144867 0)
(0.144831 0.000136396 0)
(0.145083 0.00012844 0)
(0.14532 0.000120965 0)
(0.145544 0.000113941 0)
(0.145755 0.000107337 0)
(0.145953 0.000101129 0)
(0.14614 9.52902e-05 0)
(0.146316 8.97978e-05 0)
(0.146482 8.46302e-05 0)
(0.146639 7.97672e-05 0)
(0.146787 7.51901e-05 0)
(0.146926 7.08813e-05 0)
(0.147057 6.68244e-05 0)
(0.14718 6.30041e-05 0)
(0.147297 5.94061e-05 0)
(0.147407 5.60168e-05 0)
(0.147511 5.28237e-05 0)
(0.147608 4.98151e-05 0)
(0.1477 4.69797e-05 0)
(0.147787 4.43073e-05 0)
(0.147869 4.17879e-05 0)
(0.147947 3.94125e-05 0)
(0.14802 3.71721e-05 0)
(0.148089 3.50586e-05 0)
(0.148153 3.30642e-05 0)
(0.148215 3.11814e-05 0)
(0.148272 2.94032e-05 0)
(0.148327 2.77228e-05 0)
(0.148378 2.61338e-05 0)
(0.148426 2.46299e-05 0)
(0.148472 2.32053e-05 0)
(0.148515 2.18542e-05 0)
(0.148555 2.05712e-05 0)
(0.148593 1.93509e-05 0)
(0.148629 1.81886e-05 0)
(0.148663 1.70793e-05 0)
(0.148694 1.60186e-05 0)
(0.148724 1.50025e-05 0)
(0.148752 1.40271e-05 0)
(0.148777 1.3089e-05 0)
(0.148801 1.21853e-05 0)
(0.148824 1.13134e-05 0)
(0.148845 1.04714e-05 0)
(0.148864 9.65785e-06 0)
(0.148881 8.87187e-06 0)
(0.148897 8.11303e-06 0)
(0.148912 7.38152e-06 0)
(0.148926 6.678e-06 0)
(0.148938 6.00352e-06 0)
(0.148948 5.35951e-06 0)
(0.148958 4.74765e-06 0)
(0.148966 4.16983e-06 0)