/*--------------------------------*- C++ -*----------------------------------*\
  =========                 |
  \\      /  F ield         | OpenFOAM: The Open Source CFD Toolbox
   \\    /   O peration     | Website:  https://openfoam.org
    \\  /    A nd           | Version:  7
     \\/     M anipulation  |
\*---------------------------------------------------------------------------*/
FoamFile
{
    version     2.0;
    format      ascii;
    class       volScalarField;
    location    "0.13";
    object      k;
}
// * * * * * * * * * * * * * * * * * * * * * * * * * * * * * * * * * * * * * //

dimensions      [0 2 -2 0 0 0 0];

internalField   nonuniform List<scalar> 
1440
(
0.145223
0.78784
2.00069
3.46371
4.90282
6.1574
7.13128
7.83174
8.25904
8.50392
8.54031
8.49836
8.38809
8.20308
7.98911
7.76111
7.52971
7.30187
7.08241
6.87398
6.67822
6.49583
6.32681
6.17083
6.02728
5.89541
5.7744
5.6634
5.56157
5.46809
5.38222
5.30322
5.23046
5.16331
5.10124
5.04374
4.99037
4.94073
4.89446
4.85125
4.81082
4.77291
4.73729
4.70375
4.67211
4.64219
4.61385
4.58696
4.56141
4.53709
4.51392
4.49182
4.47069
4.45047
4.43108
4.41248
4.39462
4.37747
4.36098
4.34513
4.32989
4.31521
4.30105
4.2874
4.27424
4.26154
4.24929
4.23749
4.22612
4.21515
4.20457
4.19435
4.18449
4.17499
4.16582
4.15701
4.14853
4.14039
4.13257
4.12506
4.11783
4.11086
4.10416
4.09773
4.09156
4.08566
4.08003
4.07466
4.06953
4.06463
4.05992
4.05541
4.05107
4.04695
4.04302
4.03935
4.03587
4.03263
4.02956
4.02666
4.02391
4.02127
4.01885
4.01647
4.01448
4.01234
4.01087
4.00886
4.00785
4.00581
4.00496
4.00295
4.00219
4.00019
3.99964
3.99812
3.99773
3.9978
3.99699
4.00002
0.000406494
0.00758969
0.0379857
0.111145
0.259215
0.476973
0.734562
1.01263
1.2797
1.52597
1.73613
1.90788
2.04621
2.15043
2.22763
2.2801
2.31623
2.3356
2.34768
2.34775
2.34541
2.3397
2.33068
2.32035
2.30944
2.29846
2.28773
2.27747
2.26779
2.25876
2.25038
2.24265
2.23551
2.22893
2.22283
2.21717
2.21189
2.20692
2.20223
2.19775
2.19346
2.18933
2.18533
2.18145
2.17765
2.17394
2.17029
2.1667
2.16315
2.15963
2.15615
2.15271
2.14931
2.14595
2.14262
2.13933
2.13607
2.13283
2.12962
2.12644
2.12329
2.12019
2.11712
2.1141
2.11111
2.10815
2.10522
2.10232
2.09946
2.09664
2.09387
2.09113
2.08843
2.08576
2.08312
2.08051
2.07793
2.07538
2.07287
2.0704
2.06798
2.06561
2.06327
2.06096
2.05868
2.05642
2.0542
2.052
2.04986
2.04776
2.04571
2.0437
2.04172
2.03974
2.03779
2.03583
2.03391
2.032
2.03016
2.02833
2.02658
2.02483
2.02312
2.02144
2.01974
2.01815
2.0165
2.01513
2.0136
2.01256
2.01118
2.01045
2.00913
2.00848
2.00708
2.0064
2.00465
2.00386
2.00201
1.99956
2.0351e-05
4.07471e-05
0.000212645
0.000930458
0.00311809
0.00812795
0.0183092
0.0347539
0.0577709
0.0863902
0.119904
0.156009
0.193787
0.231158
0.267518
0.30147
0.332991
0.361336
0.386792
0.409147
0.428639
0.445526
0.460026
0.472412
0.482965
0.491946
0.499602
0.506143
0.511758
0.516606
0.520834
0.524565
0.527915
0.530979
0.53384
0.536566
0.539208
0.541808
0.544398
0.547004
0.549647
0.55235
0.55513
0.558001
0.560971
0.564046
0.567222
0.570493
0.573863
0.577325
0.58088
0.584531
0.588274
0.592099
0.596003
0.599972
0.604005
0.608092
0.612235
0.616419
0.620652
0.624917
0.629211
0.633537
0.637874
0.642219
0.646566
0.650909
0.655254
0.659588
0.66392
0.668231
0.672521
0.676764
0.680981
0.685149
0.689298
0.693403
0.697495
0.701539
0.705547
0.70949
0.713378
0.71721
0.720961
0.724688
0.728339
0.731999
0.735536
0.739116
0.742517
0.745978
0.749211
0.752551
0.75563
0.758872
0.761811
0.76497
0.767783
0.770854
0.773495
0.776416
0.778846
0.781634
0.783901
0.786617
0.788778
0.791482
0.79355
0.796253
0.798177
0.800818
0.802556
0.805155
0.806673
0.809169
0.810452
0.812836
0.813894
0.816318
2.00288e-05
2.01573e-05
2.08892e-05
2.48189e-05
4.10594e-05
9.17428e-05
0.000223377
0.00050669
0.00108658
0.00201866
0.00345105
0.00536401
0.00782466
0.010769
0.0141768
0.0179404
0.0219959
0.0262551
0.0306565
0.0351187
0.0395643
0.0439325
0.0481899
0.0523128
0.0562821
0.0600728
0.0636736
0.0670878
0.0703296
0.073404
0.0763056
0.0790243
0.0815656
0.0839507
0.0862033
0.0883426
0.0903733
0.0922983
0.0941172
0.0958414
0.0974777
0.0990415
0.100538
0.101974
0.103351
0.104679
0.105977
0.107254
0.108513
0.109745
0.110937
0.11209
0.113224
0.114357
0.115502
0.116652
0.117794
0.118918
0.12004
0.121167
0.122321
0.123491
0.124657
0.12581
0.126943
0.128093
0.12927
0.130499
0.131765
0.133034
0.134282
0.135503
0.13672
0.137939
0.139243
0.140553
0.141946
0.14329
0.144683
0.145965
0.14734
0.148631
0.150069
0.15142
0.152955
0.154361
0.155897
0.157276
0.158805
0.160177
0.161675
0.163116
0.164632
0.166166
0.167668
0.169299
0.170824
0.172484
0.174003
0.175683
0.177195
0.178863
0.180316
0.181923
0.183255
0.184783
0.186063
0.187547
0.188767
0.190216
0.191427
0.192742
0.1939
0.195197
0.19633
0.197572
0.198537
0.199837
0.200521
0.201989
2.00071e-05
2.0064e-05
2.02209e-05
2.05496e-05
2.11255e-05
2.20879e-05
2.37971e-05
2.72144e-05
3.46819e-05
4.72984e-05
7.25201e-05
0.00011279
0.000171178
0.000253116
0.000365228
0.000506766
0.000673844
0.000866959
0.00109296
0.00135125
0.0016334
0.00193005
0.00224155
0.00257322
0.00292678
0.00329287
0.00366063
0.00402779
0.00440305
0.00479334
0.00519446
0.00559307
0.00597916
0.00635644
0.00673454
0.00712458
0.00752244
0.00791914
0.0083011
0.00867002
0.00903477
0.00940894
0.00979208
0.0101694
0.0105295
0.010866
0.0112062
0.0115615
0.0119382
0.0123159
0.0126668
0.0129857
0.0132927
0.0136115
0.0139638
0.0143204
0.0146726
0.0149853
0.0152778
0.0155832
0.0159147
0.0162673
0.0166256
0.016938
0.0172175
0.017472
0.0177449
0.0180705
0.0184381
0.0188062
0.0191535
0.0194347
0.019684
0.0199238
0.020177
0.0204715
0.020835
0.0212071
0.0215886
0.0219113
0.0221728
0.0223916
0.0226105
0.0228477
0.0231693
0.0235309
0.0239292
0.0243174
0.0246613
0.0249431
0.0251853
0.0254042
0.025628
0.0259046
0.0262228
0.0265929
0.0270132
0.0274398
0.0278397
0.0282357
0.0285753
0.0288629
0.0290942
0.0292665
0.0294045
0.029509
0.0295616
0.0295868
0.029609
0.0296075
0.0296202
0.0296286
0.0296262
0.0296114
0.0295645
0.0293699
0.0292123
0.0288474
0.0286489
0.028082
2.00025e-05
2.00417e-05
2.01639e-05
2.04247e-05
2.09559e-05
2.1458e-05
2.24679e-05
2.37722e-05
2.49463e-05
2.59436e-05
2.78707e-05
3.03546e-05
3.22351e-05
3.3885e-05
3.67272e-05
4.09765e-05
4.52716e-05
4.89945e-05
5.3522e-05
6.01336e-05
6.83815e-05
7.66419e-05
8.44387e-05
9.31133e-05
0.000104247
0.000117467
0.00013089
0.000143376
0.000156048
0.000170977
0.000188801
0.000207881
0.000225847
0.000242283
0.000258907
0.000278612
0.00030167
0.000326057
0.0003483
0.000367978
0.000387857
0.00041159
0.000439736
0.000468493
0.000493767
0.000514817
0.000536638
0.000563585
0.00059683
0.000631609
0.000661644
0.000685787
0.000708524
0.000735732
0.000770577
0.000808865
0.000845199
0.000874325
0.0008995
0.000927826
0.000963497
0.00100544
0.00104869
0.00108589
0.00111569
0.00114039
0.00116766
0.00120427
0.00125149
0.00130382
0.00135345
0.0013927
0.00142125
0.00144455
0.00146971
0.00150635
0.00155661
0.0016159
0.00167718
0.00172855
0.00176699
0.00179397
0.00181642
0.00184142
0.00187918
0.00193164
0.00199923
0.00207161
0.00213709
0.00218564
0.00221748
0.00223869
0.0022603
0.00228948
0.00233749
0.00240135
0.00248245
0.00256898
0.00264887
0.00271739
0.00276307
0.00278977
0.00279799
0.00279749
0.00279858
0.00279969
0.00279967
0.00279964
0.00279914
0.00279785
0.00279341
0.0027773
0.00274854
0.00266837
0.00260959
0.00248375
0.00241935
0.00228829
0.00222312
0.00205795
2.0002e-05
2.00411e-05
2.01646e-05
2.04606e-05
2.09062e-05
2.14804e-05
2.25624e-05
2.38518e-05
2.47682e-05
2.59951e-05
2.81617e-05
3.03365e-05
3.17303e-05
3.33556e-05
3.63418e-05
3.99187e-05
4.27099e-05
4.50235e-05
4.8296e-05
5.29743e-05
5.78405e-05
6.17047e-05
6.49314e-05
6.87993e-05
7.38776e-05
7.93132e-05
8.38469e-05
8.71772e-05
9.03775e-05
9.47188e-05
0.000100193
0.000105431
0.000109143
0.000111625
0.000114504
0.000119057
0.000124845
0.000130189
0.000133869
0.000136429
0.000139578
0.000144485
0.000150721
0.000156705
0.000161164
0.000164201
0.000167182
0.000171932
0.000179175
0.000187323
0.000193641
0.000197428
0.000200252
0.00020468
0.000211672
0.000219873
0.000227504
0.000233429
0.000238114
0.000243002
0.000249351
0.000257605
0.000266736
0.000274867
0.000280746
0.000284861
0.000289309
0.000295907
0.000305367
0.000316551
0.000327243
0.000335814
0.000341586
0.000345626
0.000349772
0.000356131
0.000365711
0.000378189
0.000392215
0.000404816
0.000413974
0.000419332
0.000423404
0.000427883
0.000435526
0.000447718
0.000463621
0.000479955
0.000494071
0.000503861
0.00051044
0.000515774
0.000522424
0.000532557
0.000546701
0.000564008
0.000582657
0.00060079
0.000615414
0.000625349
0.000630147
0.000631765
0.000631762
0.000632077
0.000632227
0.000632192
0.000632117
0.000631445
0.000629224
0.00062228
0.000604614
0.000573425
0.000543873
0.000505541
0.000475757
0.000436863
0.000412807
0.000376345
0.000360249
0.000323732
2.00058e-05
2.0058e-05
2.02064e-05
2.0527e-05
2.10766e-05
2.20155e-05
2.36082e-05
2.68345e-05
3.30641e-05
4.52449e-05
6.80723e-05
0.000103091
0.000152542
0.000223691
0.000319221
0.000434244
0.000564161
0.000713758
0.000886123
0.001077
0.00127489
0.00147302
0.00167583
0.00188838
0.00210829
0.00232505
0.00253343
0.00273489
0.00293757
0.00314555
0.00335423
0.00355483
0.00374148
0.00391957
0.00409811
0.00428595
0.004482
0.00467403
0.00485018
0.00501487
0.00518276
0.00536431
0.00555691
0.00574262
0.00590779
0.00606042
0.00622216
0.00640757
0.00661008
0.00681001
0.00697891
0.00712903
0.00727702
0.00744947
0.00764906
0.00784733
0.00803191
0.00819467
0.00835169
0.00852397
0.00871128
0.00891346
0.00911451
0.00929872
0.00945538
0.00959773
0.00976198
0.00995277
0.0101782
0.0104139
0.0106222
0.010803
0.0109466
0.0110866
0.0112429
0.0114363
0.0116784
0.0119364
0.0121875
0.0124039
0.0125694
0.0127159
0.0128604
0.0130425
0.0132639
0.0135281
0.0138012
0.0140629
0.0142958
0.0144938
0.0146623
0.0148498
0.0150389
0.0152586
0.0155296
0.0158157
0.0161047
0.0164048
0.0166769
0.0169258
0.0171548
0.0173398
0.0174688
0.0175864
0.0176644
0.0177249
0.0177636
0.0177695
0.0177662
0.0177698
0.0177706
0.0177549
0.0176865
0.0174535
0.0172421
0.0169294
0.0167659
0.0164422
0.0163162
0.0160193
2.00248e-05
2.01447e-05
2.08054e-05
2.4377e-05
3.92904e-05
8.63012e-05
0.000208347
0.000476339
0.00100197
0.00190541
0.00322356
0.00501719
0.00726866
0.00997035
0.0130402
0.0164059
0.019971
0.0236804
0.0274548
0.031224
0.034911
0.0384684
0.0418797
0.0451376
0.0482303
0.0511379
0.0538616
0.0564136
0.0588146
0.0610763
0.0631955
0.0651689
0.0670104
0.068749
0.0704063
0.0720013
0.0735401
0.0750186
0.076434
0.0777975
0.0791256
0.0804325
0.0817179
0.082984
0.0842242
0.0854548
0.0866908
0.0879486
0.0892244
0.0904975
0.0917424
0.0929684
0.0942127
0.0954939
0.0968157
0.0981574
0.0994952
0.100843
0.102206
0.103598
0.105042
0.106496
0.107965
0.109447
0.110917
0.112427
0.113998
0.115608
0.11728
0.118974
0.120629
0.122292
0.123947
0.125657
0.127428
0.129294
0.1312
0.133116
0.134993
0.136898
0.138753
0.14067
0.142644
0.144697
0.146777
0.148932
0.151077
0.153206
0.155343
0.157476
0.159647
0.16181
0.164065
0.166307
0.168708
0.171007
0.173447
0.175758
0.178241
0.180665
0.182977
0.185514
0.187627
0.190225
0.192233
0.194815
0.196763
0.199147
0.200918
0.203295
0.204882
0.207245
0.208805
0.211124
0.212667
0.215135
0.216526
0.218913
0.220209
0.223367
2.02621e-05
3.81508e-05
0.000194743
0.000866631
0.00294307
0.00774169
0.0174073
0.0335698
0.0556481
0.0836775
0.115848
0.150896
0.187003
0.222974
0.257456
0.289894
0.319583
0.346477
0.370334
0.391382
0.409687
0.425538
0.439207
0.450993
0.461151
0.469972
0.477664
0.484463
0.490522
0.496024
0.501088
0.505852
0.510419
0.514876
0.519295
0.523738
0.528241
0.532841
0.53756
0.542418
0.547429
0.552608
0.557961
0.563496
0.569208
0.575104
0.581162
0.587383
0.593753
0.600265
0.60691
0.613693
0.620595
0.627611
0.634731
0.641944
0.649241
0.656614
0.664047
0.671539
0.679071
0.686648
0.694263
0.701903
0.709566
0.717235
0.724899
0.732553
0.740203
0.747833
0.755451
0.763045
0.770602
0.778124
0.7856
0.793027
0.8004
0.807737
0.815015
0.822238
0.829395
0.836491
0.843516
0.850479
0.857356
0.864172
0.870919
0.877584
0.884179
0.890701
0.897136
0.9035
0.909773
0.915951
0.922058
0.92808
0.933996
0.939869
0.945541
0.951271
0.956707
0.962314
0.967496
0.972947
0.977925
0.983224
0.987994
0.993179
0.997713
1.00287
1.00719
1.0123
1.01638
1.02156
1.02533
1.03059
1.0339
1.03929
1.042
1.04821
0.000343377
0.00701786
0.0360869
0.107195
0.252051
0.466201
0.721638
0.99647
1.2609
1.50438
1.70958
1.88005
2.01509
2.11812
2.19344
2.24717
2.28295
2.30642
2.31918
2.32639
2.32725
2.32626
2.32376
2.32
2.31593
2.31215
2.3087
2.30599
2.30374
2.30241
2.3014
2.30138
2.30162
2.30222
2.3033
2.30467
2.30625
2.30798
2.30981
2.31168
2.31356
2.3154
2.31718
2.31887
2.32044
2.32189
2.32319
2.32435
2.32534
2.32619
2.32685
2.32739
2.32772
2.32796
2.32796
2.32787
2.32766
2.32728
2.32677
2.32613
2.32538
2.32451
2.32353
2.32246
2.32128
2.32002
2.31867
2.31724
2.31574
2.31417
2.31254
2.31085
2.3091
2.3073
2.30545
2.30356
2.30163
2.29967
2.29767
2.29563
2.29357
2.29148
2.28937
2.28724
2.28509
2.28292
2.28074
2.27854
2.27633
2.27411
2.27189
2.26965
2.26741
2.26515
2.2629
2.26064
2.25838
2.25611
2.25385
2.25157
2.24932
2.24704
2.24481
2.24253
2.24033
2.23806
2.23591
2.23362
2.23156
2.22925
2.22731
2.22492
2.22314
2.22062
2.21903
2.21632
2.21488
2.21196
2.21047
2.20664
0.144671
0.781831
1.99538
3.44695
4.86719
6.08406
7.01456
7.65339
8.02825
8.19653
8.17838
8.09762
7.92431
7.69639
7.44586
7.18746
6.93125
6.68387
6.44932
6.22993
6.02662
5.83954
5.66827
5.512
5.3697
5.24025
5.12249
5.0153
4.91757
4.82829
4.74649
4.67133
4.60202
4.53787
4.47827
4.42267
4.37061
4.32167
4.27549
4.23177
4.19023
4.15065
4.11282
4.07658
4.04178
4.00829
3.97601
3.94485
3.91473
3.88558
3.85733
3.82995
3.80338
3.77758
3.75251
3.72816
3.70448
3.68145
3.65905
3.63725
3.61603
3.59538
3.57527
3.55569
3.53662
3.51804
3.49994
3.48231
3.46513
3.44839
3.43206
3.41616
3.40065
3.38553
3.37078
3.3564
3.34238
3.32869
3.31535
3.30233
3.28962
3.27723
3.26512
3.25331
3.24178
3.23052
3.21953
3.20879
3.1983
3.18805
3.17803
3.16825
3.15868
3.14933
3.14019
3.13127
3.12253
3.11402
3.10566
3.09754
3.08954
3.08181
3.07414
3.06679
3.0594
3.05242
3.04528
3.03865
3.03173
3.02542
3.01873
3.01264
3.00628
3.00022
2.99446
2.98808
2.98339
2.97636
2.97297
2.96541
)
;

boundaryField
{
    upperWall
    {
        type            fixedValue;
        value           uniform 0;
    }
    lowerWall
    {
        type            fixedValue;
        value           uniform 0;
    }
    inlet
    {
        type            fixedValue;
        value           uniform 2e-05;
    }
    outlet
    {
        type            inletOutlet;
        inletValue      uniform 0;
        value           nonuniform List<scalar> 
12
(
4.00002
1.99956
0.816318
0.201989
0.028082
0.00205795
0.000323732
0.0160193
0.223367
1.04821
2.20664
2.96541
)
;
    }
    frontAndBack
    {
        type            empty;
    }
}


// ************************************************************************* //
