/*--------------------------------*- C++ -*----------------------------------*\
  =========                 |
  \\      /  F ield         | OpenFOAM: The Open Source CFD Toolbox
   \\    /   O peration     | Website:  https://openfoam.org
    \\  /    A nd           | Version:  7
     \\/     M anipulation  |
\*---------------------------------------------------------------------------*/
FoamFile
{
    version     2.0;
    format      ascii;
    class       volScalarField;
    location    "2.13";
    object      rho_0;
}
// * * * * * * * * * * * * * * * * * * * * * * * * * * * * * * * * * * * * * //

dimensions      [1 -3 0 0 0 0 0];

internalField   nonuniform List<scalar> 
7920
(
1.23331
1.23307
1.23364
1.23333
1.23384
1.23352
1.23378
1.23342
1.23357
1.2333
1.23345
1.23326
1.23335
1.23323
1.23322
1.23325
1.23306
1.2334
1.23267
1.23401
1.2329
1.2327
1.23305
1.23283
1.23321
1.23307
1.23328
1.23308
1.23315
1.23298
1.23303
1.23292
1.23293
1.23287
1.23279
1.23287
1.2326
1.23302
1.23216
1.23369
1.23314
1.23291
1.23334
1.23301
1.23341
1.23321
1.23354
1.23336
1.23358
1.2334
1.23353
1.23337
1.2334
1.23329
1.23322
1.23321
1.23298
1.2332
1.23265
1.23336
1.23294
1.23271
1.23304
1.23272
1.23301
1.23281
1.23307
1.23295
1.23315
1.23306
1.23319
1.2331
1.23313
1.23305
1.23298
1.23293
1.23277
1.23279
1.23253
1.23266
1.23308
1.23281
1.23322
1.23284
1.23318
1.23293
1.23323
1.23306
1.23331
1.23319
1.23338
1.23328
1.23339
1.23327
1.23329
1.23316
1.23311
1.23297
1.23289
1.23275
1.23302
1.23272
1.23312
1.23272
1.23306
1.2328
1.23309
1.23291
1.23316
1.23304
1.23324
1.23313
1.23327
1.23315
1.2332
1.23305
1.23304
1.23287
1.23282
1.23262
1.23303
1.23272
1.23312
1.23272
1.23306
1.2328
1.23309
1.23291
1.23316
1.23304
1.23324
1.23313
1.23327
1.23315
1.2332
1.23305
1.23304
1.23287
1.23282
1.23263
1.23308
1.23281
1.23322
1.23284
1.23318
1.23293
1.23323
1.23306
1.23331
1.23319
1.23338
1.23327
1.23339
1.23326
1.2333
1.23314
1.23313
1.23295
1.23291
1.23273
1.23294
1.23271
1.23304
1.23272
1.23301
1.23281
1.23307
1.23295
1.23316
1.23305
1.23319
1.23309
1.23315
1.23303
1.23301
1.23288
1.23283
1.2327
1.23264
1.23253
1.23314
1.23291
1.23334
1.23301
1.23341
1.2332
1.23354
1.23336
1.23359
1.2334
1.23354
1.23335
1.23343
1.23325
1.23328
1.23311
1.23312
1.23298
1.23298
1.23288
1.2329
1.2327
1.23305
1.23283
1.23321
1.23306
1.23328
1.23308
1.23316
1.23297
1.23304
1.2329
1.23295
1.23283
1.23286
1.23276
1.23279
1.2327
1.23273
1.23268
1.23331
1.23307
1.23364
1.23333
1.23384
1.23352
1.23379
1.23341
1.23357
1.23329
1.23346
1.23325
1.23337
1.23319
1.23328
1.23315
1.23322
1.23311
1.23319
1.23308
1.2306
1.23071
1.23023
1.23069
1.2305
1.23092
1.23064
1.23084
1.23054
1.23073
1.23054
1.23075
1.23055
1.23076
1.23051
1.23086
1.2304
1.23118
1.22983
1.23247
1.23098
1.23115
1.23086
1.23108
1.23101
1.23128
1.23126
1.2314
1.23132
1.23139
1.23129
1.23136
1.23124
1.23134
1.23114
1.23139
1.23099
1.23161
1.23063
1.23228
1.23067
1.2309
1.23047
1.23074
1.23051
1.23081
1.23071
1.23098
1.23089
1.23108
1.23097
1.23111
1.23097
1.23109
1.23089
1.23106
1.23076
1.23111
1.23056
1.23129
1.23088
1.23114
1.23078
1.23103
1.23084
1.23109
1.23101
1.23125
1.23122
1.23141
1.23139
1.23152
1.23147
1.23153
1.23143
1.23148
1.23133
1.23139
1.2312
1.23132
1.23072
1.23102
1.23059
1.23089
1.23064
1.23093
1.2308
1.23106
1.23099
1.23122
1.23118
1.23135
1.2313
1.23139
1.23131
1.23135
1.23124
1.23124
1.23113
1.23111
1.23078
1.23113
1.2307
1.23102
1.23077
1.23107
1.23093
1.2312
1.23112
1.23135
1.23132
1.23149
1.23145
1.23155
1.23148
1.23151
1.23143
1.23141
1.23133
1.23128
1.23078
1.23113
1.2307
1.23102
1.23077
1.23107
1.23093
1.2312
1.23112
1.23135
1.23132
1.23149
1.23145
1.23155
1.23149
1.23151
1.23144
1.23141
1.23133
1.23128
1.23072
1.23102
1.23059
1.23089
1.23064
1.23093
1.2308
1.23106
1.231
1.23122
1.23119
1.23135
1.23131
1.23139
1.23132
1.23134
1.23126
1.23123
1.23114
1.2311
1.23088
1.23114
1.23078
1.23103
1.23084
1.23109
1.23101
1.23125
1.23123
1.23141
1.2314
1.23151
1.23148
1.23151
1.23146
1.23144
1.23138
1.23133
1.23128
1.23122
1.23067
1.2309
1.23047
1.23074
1.23051
1.23081
1.23071
1.23097
1.23089
1.23108
1.23099
1.23109
1.231
1.23105
1.23095
1.23097
1.23089
1.23091
1.23085
1.23088
1.23098
1.23115
1.23086
1.23108
1.23102
1.23128
1.23126
1.2314
1.23133
1.23138
1.2313
1.23133
1.23127
1.23129
1.23123
1.23124
1.23122
1.23123
1.23123
1.23128
1.2306
1.23071
1.23023
1.23069
1.2305
1.23091
1.23064
1.23083
1.23054
1.23072
1.23056
1.23073
1.23059
1.2307
1.2306
1.23071
1.23065
1.23074
1.23071
1.23082
1.23087
1.2308
1.23069
1.23074
1.2308
1.23101
1.23103
1.23095
1.23068
1.23065
1.23061
1.23078
1.23064
1.23083
1.23046
1.23103
1.23014
1.23167
1.22915
1.23337
1.23087
1.23083
1.23076
1.23077
1.23079
1.23089
1.23097
1.23108
1.23107
1.2311
1.231
1.23103
1.23085
1.23097
1.23065
1.23098
1.23041
1.2312
1.23011
1.23167
1.23087
1.23082
1.23075
1.23076
1.23076
1.23083
1.23088
1.23098
1.23103
1.23112
1.23111
1.23116
1.23107
1.23108
1.23091
1.23095
1.23072
1.23083
1.23055
1.23077
1.23087
1.23082
1.23077
1.23078
1.23079
1.23085
1.2309
1.23099
1.23106
1.23115
1.23119
1.23124
1.23122
1.23121
1.23115
1.23109
1.231
1.2309
1.23083
1.2307
1.23087
1.23082
1.23076
1.23077
1.23078
1.23084
1.23089
1.23097
1.23104
1.23112
1.23118
1.23122
1.23123
1.23121
1.23118
1.23111
1.23105
1.23094
1.23087
1.23073
1.23086
1.23083
1.23076
1.23078
1.23079
1.23086
1.2309
1.23099
1.23106
1.23114
1.2312
1.23124
1.23125
1.23124
1.23121
1.23115
1.23109
1.23099
1.23091
1.2308
1.23086
1.23083
1.23076
1.23078
1.23079
1.23086
1.2309
1.23099
1.23106
1.23114
1.2312
1.23124
1.23125
1.23124
1.23121
1.23115
1.23109
1.231
1.23091
1.23081
1.23087
1.23082
1.23076
1.23077
1.23078
1.23084
1.23089
1.23097
1.23104
1.23112
1.23118
1.23122
1.23123
1.23121
1.23118
1.23112
1.23105
1.23095
1.23086
1.23075
1.23087
1.23082
1.23077
1.23078
1.23079
1.23085
1.2309
1.23099
1.23106
1.23114
1.23119
1.23123
1.23123
1.2312
1.23115
1.23108
1.231
1.2309
1.23082
1.23071
1.23087
1.23082
1.23075
1.23076
1.23076
1.23083
1.23088
1.23097
1.23104
1.23111
1.23113
1.23114
1.2311
1.23105
1.23097
1.23089
1.2308
1.23072
1.23067
1.23062
1.23087
1.23083
1.23076
1.23077
1.23079
1.23089
1.23098
1.23107
1.23109
1.23108
1.23103
1.23099
1.23092
1.23087
1.2308
1.23076
1.23073
1.23074
1.23075
1.23079
1.23087
1.2308
1.23069
1.23074
1.2308
1.23101
1.23103
1.23094
1.2307
1.23063
1.23064
1.23073
1.23071
1.2307
1.23066
1.23069
1.2307
1.23074
1.23074
1.23075
1.23087
1.2308
1.23069
1.23074
1.2308
1.23101
1.23103
1.23095
1.23068
1.23065
1.23061
1.23078
1.23064
1.23083
1.23046
1.23103
1.23014
1.23167
1.22915
1.23337
1.23087
1.23083
1.23076
1.23077
1.23079
1.23089
1.23097
1.23108
1.23107
1.2311
1.231
1.23103
1.23085
1.23097
1.23065
1.23098
1.23041
1.2312
1.23011
1.23167
1.23087
1.23082
1.23075
1.23076
1.23076
1.23083
1.23088
1.23098
1.23103
1.23112
1.23111
1.23116
1.23107
1.23108
1.23091
1.23095
1.23072
1.23083
1.23055
1.23077
1.23087
1.23082
1.23077
1.23078
1.23079
1.23085
1.2309
1.23099
1.23106
1.23115
1.23119
1.23124
1.23122
1.23121
1.23115
1.23109
1.231
1.2309
1.23083
1.2307
1.23087
1.23082
1.23076
1.23077
1.23078
1.23084
1.23089
1.23097
1.23104
1.23112
1.23118
1.23122
1.23123
1.23121
1.23118
1.23111
1.23105
1.23094
1.23087
1.23073
1.23086
1.23083
1.23076
1.23078
1.23079
1.23086
1.2309
1.23099
1.23106
1.23114
1.2312
1.23124
1.23125
1.23124
1.23121
1.23115
1.23109
1.23099
1.23091
1.2308
1.23086
1.23083
1.23076
1.23078
1.23079
1.23086
1.2309
1.23099
1.23106
1.23114
1.2312
1.23124
1.23125
1.23124
1.23121
1.23115
1.23109
1.231
1.23091
1.23081
1.23087
1.23082
1.23076
1.23077
1.23078
1.23084
1.23089
1.23097
1.23104
1.23112
1.23118
1.23122
1.23123
1.23121
1.23118
1.23112
1.23105
1.23095
1.23086
1.23075
1.23087
1.23082
1.23077
1.23078
1.23079
1.23085
1.2309
1.23099
1.23106
1.23114
1.23119
1.23123
1.23123
1.2312
1.23115
1.23108
1.231
1.2309
1.23082
1.23071
1.23087
1.23082
1.23075
1.23076
1.23076
1.23083
1.23088
1.23097
1.23104
1.23111
1.23113
1.23114
1.2311
1.23105
1.23097
1.23089
1.2308
1.23072
1.23067
1.23062
1.23087
1.23083
1.23076
1.23077
1.23079
1.23089
1.23098
1.23107
1.23109
1.23108
1.23103
1.23099
1.23092
1.23087
1.2308
1.23076
1.23073
1.23074
1.23075
1.23079
1.23087
1.2308
1.23069
1.23074
1.2308
1.23101
1.23103
1.23094
1.2307
1.23063
1.23064
1.23073
1.23071
1.2307
1.23066
1.23069
1.2307
1.23074
1.23074
1.23075
1.2306
1.23071
1.23023
1.23069
1.2305
1.23092
1.23064
1.23084
1.23054
1.23073
1.23054
1.23075
1.23055
1.23076
1.23051
1.23086
1.2304
1.23118
1.22983
1.23247
1.23098
1.23115
1.23086
1.23108
1.23101
1.23128
1.23126
1.2314
1.23132
1.23139
1.23129
1.23136
1.23124
1.23134
1.23114
1.23139
1.23099
1.23161
1.23063
1.23228
1.23067
1.2309
1.23047
1.23074
1.23051
1.23081
1.23071
1.23098
1.23089
1.23108
1.23097
1.23111
1.23097
1.23109
1.23089
1.23106
1.23076
1.23111
1.23056
1.23129
1.23088
1.23114
1.23078
1.23103
1.23084
1.23109
1.23101
1.23125
1.23122
1.23141
1.23139
1.23152
1.23147
1.23153
1.23143
1.23148
1.23133
1.23139
1.2312
1.23132
1.23072
1.23102
1.23059
1.23089
1.23064
1.23093
1.2308
1.23106
1.23099
1.23122
1.23118
1.23135
1.2313
1.23139
1.23131
1.23135
1.23124
1.23124
1.23113
1.23111
1.23078
1.23113
1.2307
1.23102
1.23077
1.23107
1.23093
1.2312
1.23112
1.23135
1.23132
1.23149
1.23145
1.23155
1.23148
1.23151
1.23143
1.23141
1.23133
1.23128
1.23078
1.23113
1.2307
1.23102
1.23077
1.23107
1.23093
1.2312
1.23112
1.23135
1.23132
1.23149
1.23145
1.23155
1.23149
1.23151
1.23144
1.23141
1.23133
1.23128
1.23072
1.23102
1.23059
1.23089
1.23064
1.23093
1.2308
1.23106
1.231
1.23122
1.23119
1.23135
1.23131
1.23139
1.23132
1.23134
1.23126
1.23123
1.23114
1.2311
1.23088
1.23114
1.23078
1.23103
1.23084
1.23109
1.23101
1.23125
1.23123
1.23141
1.2314
1.23151
1.23148
1.23151
1.23146
1.23144
1.23138
1.23133
1.23128
1.23122
1.23067
1.2309
1.23047
1.23074
1.23051
1.23081
1.23071
1.23097
1.23089
1.23108
1.23099
1.23109
1.231
1.23105
1.23095
1.23097
1.23089
1.23091
1.23085
1.23088
1.23098
1.23115
1.23086
1.23108
1.23102
1.23128
1.23126
1.2314
1.23133
1.23138
1.2313
1.23133
1.23127
1.23129
1.23123
1.23124
1.23122
1.23123
1.23123
1.23128
1.2306
1.23071
1.23023
1.23069
1.2305
1.23091
1.23064
1.23083
1.23054
1.23072
1.23056
1.23073
1.23059
1.2307
1.2306
1.23071
1.23065
1.23074
1.23071
1.23082
1.23331
1.23307
1.23364
1.23333
1.23384
1.23352
1.23378
1.23342
1.23357
1.2333
1.23345
1.23326
1.23335
1.23323
1.23322
1.23325
1.23306
1.2334
1.23267
1.23401
1.2329
1.2327
1.23305
1.23283
1.23321
1.23307
1.23328
1.23308
1.23315
1.23298
1.23303
1.23292
1.23293
1.23287
1.23279
1.23287
1.2326
1.23302
1.23216
1.23369
1.23314
1.23291
1.23334
1.23301
1.23341
1.23321
1.23354
1.23336
1.23358
1.2334
1.23353
1.23337
1.2334
1.23329
1.23322
1.23321
1.23298
1.2332
1.23265
1.23336
1.23294
1.23271
1.23304
1.23272
1.23301
1.23281
1.23307
1.23295
1.23315
1.23306
1.23319
1.2331
1.23313
1.23305
1.23298
1.23293
1.23277
1.23279
1.23253
1.23266
1.23308
1.23281
1.23322
1.23284
1.23318
1.23293
1.23323
1.23306
1.23331
1.23319
1.23338
1.23328
1.23339
1.23327
1.23329
1.23316
1.23311
1.23297
1.23289
1.23275
1.23302
1.23272
1.23312
1.23272
1.23306
1.2328
1.23309
1.23291
1.23316
1.23304
1.23324
1.23313
1.23327
1.23315
1.2332
1.23305
1.23304
1.23287
1.23282
1.23262
1.23303
1.23272
1.23312
1.23272
1.23306
1.2328
1.23309
1.23291
1.23316
1.23304
1.23324
1.23313
1.23327
1.23315
1.2332
1.23305
1.23304
1.23287
1.23282
1.23263
1.23308
1.23281
1.23322
1.23284
1.23318
1.23293
1.23323
1.23306
1.23331
1.23319
1.23338
1.23327
1.23339
1.23326
1.2333
1.23314
1.23313
1.23295
1.23291
1.23273
1.23294
1.23271
1.23304
1.23272
1.23301
1.23281
1.23307
1.23295
1.23316
1.23305
1.23319
1.23309
1.23315
1.23303
1.23301
1.23288
1.23283
1.2327
1.23264
1.23253
1.23314
1.23291
1.23334
1.23301
1.23341
1.2332
1.23354
1.23336
1.23359
1.2334
1.23354
1.23335
1.23343
1.23325
1.23328
1.23311
1.23312
1.23298
1.23298
1.23288
1.2329
1.2327
1.23305
1.23283
1.23321
1.23306
1.23328
1.23308
1.23316
1.23297
1.23304
1.2329
1.23295
1.23283
1.23286
1.23276
1.23279
1.2327
1.23273
1.23268
1.23331
1.23307
1.23364
1.23333
1.23384
1.23352
1.23379
1.23341
1.23357
1.23329
1.23346
1.23325
1.23337
1.23319
1.23328
1.23315
1.23322
1.23311
1.23319
1.23308
1.22402
1.21711
1.21272
1.209
1.2061
1.20342
1.20123
1.1991
1.19724
1.19537
1.19372
1.19207
1.19061
1.18913
1.18778
1.18641
1.18515
1.18388
1.18274
1.18158
1.18054
1.17949
1.17855
1.17762
1.17681
1.17602
1.17536
1.17473
1.17421
1.17374
1.17337
1.17304
1.17281
1.1726
1.17247
1.17234
1.17227
1.17219
1.17215
1.17209
1.17207
1.17202
1.17199
1.17195
1.17193
1.17189
1.17187
1.17183
1.1718
1.17176
1.17174
1.1717
1.17168
1.17164
1.17162
1.17158
1.17156
1.17152
1.1715
1.17146
1.17144
1.1714
1.17138
1.17134
1.17132
1.17128
1.17126
1.17122
1.1712
1.17117
1.17114
1.17111
1.17108
1.17105
1.17102
1.17099
1.17097
1.17094
1.17091
1.17088
1.17085
1.17082
1.1708
1.17077
1.17075
1.17072
1.1707
1.17067
1.17065
1.17064
1.22714
1.22077
1.21654
1.21292
1.21003
1.20737
1.20518
1.20307
1.20122
1.19936
1.19771
1.19605
1.19459
1.1931
1.19176
1.19038
1.18911
1.18784
1.18668
1.18551
1.18445
1.18339
1.18243
1.18148
1.18065
1.17984
1.17915
1.17849
1.17795
1.17745
1.17706
1.17671
1.17646
1.17623
1.17608
1.17595
1.17587
1.17578
1.17574
1.17568
1.17565
1.1756
1.17558
1.17553
1.17551
1.17547
1.17545
1.17541
1.17539
1.17535
1.17532
1.17528
1.17526
1.17522
1.1752
1.17516
1.17514
1.1751
1.17508
1.17504
1.17502
1.17498
1.17496
1.17492
1.1749
1.17487
1.17484
1.17481
1.17478
1.17475
1.17472
1.17469
1.17466
1.17463
1.17461
1.17458
1.17455
1.17452
1.17449
1.17446
1.17444
1.17441
1.17438
1.17435
1.17433
1.1743
1.17428
1.17424
1.17424
1.17422
1.23082
1.22616
1.22261
1.21932
1.21661
1.21403
1.2119
1.20985
1.20808
1.20626
1.20463
1.20298
1.20152
1.20004
1.19871
1.19734
1.19607
1.19478
1.1936
1.19241
1.19133
1.19025
1.18925
1.18827
1.18739
1.18653
1.18579
1.18508
1.18449
1.18393
1.18349
1.18309
1.18279
1.18252
1.18234
1.18218
1.18208
1.18198
1.18193
1.18186
1.18183
1.18178
1.18175
1.18171
1.18169
1.18164
1.18162
1.18158
1.18156
1.18152
1.1815
1.18146
1.18143
1.1814
1.18137
1.18134
1.18131
1.18128
1.18125
1.18122
1.18119
1.18116
1.18113
1.1811
1.18107
1.18104
1.18101
1.18098
1.18095
1.18092
1.1809
1.18086
1.18084
1.18081
1.18078
1.18075
1.18072
1.18069
1.18067
1.18063
1.18061
1.18058
1.18055
1.18052
1.1805
1.18047
1.18045
1.18042
1.18042
1.18041
1.23189
1.2292
1.22674
1.22414
1.22183
1.2195
1.21754
1.21566
1.21404
1.21236
1.21081
1.20922
1.20779
1.20636
1.20507
1.20374
1.20249
1.20121
1.20003
1.19883
1.19774
1.19664
1.19562
1.19459
1.19367
1.19276
1.19196
1.1912
1.19054
1.18993
1.18942
1.18896
1.18861
1.1883
1.18807
1.18788
1.18776
1.18764
1.18757
1.1875
1.18746
1.18741
1.18738
1.18734
1.18731
1.18727
1.18725
1.18721
1.18719
1.18715
1.18712
1.18708
1.18706
1.18702
1.187
1.18696
1.18694
1.1869
1.18688
1.18684
1.18682
1.18678
1.18676
1.18672
1.1867
1.18666
1.18664
1.1866
1.18658
1.18655
1.18652
1.18649
1.18646
1.18643
1.1864
1.18637
1.18635
1.18631
1.18629
1.18626
1.18623
1.1862
1.18618
1.18614
1.18612
1.18609
1.18607
1.18604
1.18603
1.18602
1.23257
1.23115
1.22977
1.22791
1.22614
1.22416
1.22247
1.22081
1.2194
1.2179
1.2165
1.215
1.21365
1.21229
1.21107
1.20979
1.2086
1.20734
1.20617
1.20498
1.20389
1.20278
1.20175
1.20071
1.19975
1.1988
1.19796
1.19715
1.19644
1.19578
1.19523
1.19471
1.19431
1.19396
1.1937
1.19348
1.19333
1.1932
1.19312
1.19304
1.193
1.19294
1.19291
1.19286
1.19284
1.1928
1.19278
1.19274
1.19271
1.19267
1.19265
1.19261
1.19259
1.19255
1.19253
1.19249
1.19246
1.19243
1.1924
1.19237
1.19234
1.19231
1.19228
1.19225
1.19222
1.19219
1.19216
1.19213
1.1921
1.19207
1.19204
1.19201
1.19199
1.19195
1.19193
1.1919
1.19187
1.19184
1.19181
1.19178
1.19176
1.19173
1.1917
1.19167
1.19165
1.19162
1.1916
1.19156
1.19155
1.19154
1.23249
1.2317
1.23109
1.22989
1.22865
1.22708
1.22571
1.22435
1.22319
1.22192
1.22069
1.21934
1.21811
1.21685
1.21572
1.21453
1.2134
1.21219
1.21106
1.2099
1.20883
1.20773
1.20671
1.20565
1.20468
1.20371
1.20285
1.20201
1.20129
1.2006
1.20001
1.19947
1.19905
1.19867
1.19839
1.19815
1.19799
1.19785
1.19776
1.19768
1.19763
1.19757
1.19754
1.1975
1.19747
1.19743
1.19741
1.19737
1.19734
1.1973
1.19728
1.19724
1.19722
1.19718
1.19716
1.19712
1.1971
1.19706
1.19703
1.197
1.19697
1.19694
1.19691
1.19688
1.19685
1.19682
1.19679
1.19676
1.19673
1.1967
1.19667
1.19664
1.19661
1.19658
1.19656
1.19652
1.1965
1.19647
1.19644
1.19641
1.19638
1.19635
1.19633
1.19629
1.19627
1.19624
1.19621
1.19619
1.19616
1.19615
1.23247
1.23197
1.2318
1.23107
1.23026
1.22906
1.22801
1.22693
1.22602
1.22496
1.22391
1.22272
1.22161
1.22047
1.21944
1.21834
1.21727
1.21613
1.21504
1.21392
1.21288
1.2118
1.21079
1.20975
1.20878
1.20782
1.20695
1.20612
1.20539
1.20469
1.20411
1.20357
1.20314
1.20276
1.20248
1.20224
1.20208
1.20194
1.20185
1.20177
1.20172
1.20166
1.20163
1.20159
1.20156
1.20152
1.2015
1.20146
1.20143
1.20139
1.20137
1.20133
1.20131
1.20127
1.20124
1.20121
1.20118
1.20115
1.20112
1.20109
1.20106
1.20103
1.201
1.20097
1.20094
1.20091
1.20088
1.20085
1.20082
1.20079
1.20076
1.20073
1.2007
1.20067
1.20064
1.20061
1.20058
1.20055
1.20052
1.20049
1.20047
1.20044
1.20041
1.20038
1.20035
1.20032
1.2003
1.20027
1.20024
1.20022
1.23261
1.23225
1.23228
1.23181
1.23129
1.23039
1.22964
1.22879
1.22808
1.22718
1.22629
1.22524
1.22427
1.22323
1.22229
1.22126
1.22026
1.21917
1.21814
1.21705
1.21604
1.21499
1.214
1.21298
1.21203
1.21109
1.21025
1.20943
1.20873
1.20806
1.2075
1.20699
1.20658
1.20622
1.20596
1.20573
1.20559
1.20545
1.20538
1.20529
1.20525
1.20519
1.20516
1.20512
1.20509
1.20505
1.20503
1.20499
1.20496
1.20492
1.2049
1.20486
1.20484
1.2048
1.20478
1.20474
1.20471
1.20468
1.20465
1.20462
1.20459
1.20456
1.20453
1.2045
1.20447
1.20444
1.20441
1.20438
1.20435
1.20432
1.20429
1.20426
1.20423
1.2042
1.20417
1.20414
1.20411
1.20408
1.20406
1.20402
1.204
1.20397
1.20394
1.20391
1.20389
1.20386
1.20383
1.20381
1.20378
1.20376
1.23239
1.23214
1.23222
1.2319
1.23155
1.23089
1.23037
1.22972
1.22916
1.22839
1.22762
1.2267
1.22585
1.22491
1.22404
1.22307
1.22212
1.22109
1.2201
1.21906
1.21808
1.21705
1.21609
1.2151
1.21419
1.21329
1.21249
1.21172
1.21106
1.21043
1.20992
1.20945
1.2091
1.20878
1.20855
1.20835
1.20823
1.20811
1.20804
1.20797
1.20793
1.20788
1.20785
1.2078
1.20778
1.20774
1.20772
1.20767
1.20765
1.20761
1.20759
1.20755
1.20753
1.20749
1.20746
1.20743
1.2074
1.20736
1.20734
1.2073
1.20728
1.20724
1.20722
1.20718
1.20716
1.20712
1.2071
1.20706
1.20704
1.207
1.20698
1.20694
1.20692
1.20688
1.20686
1.20683
1.2068
1.20677
1.20674
1.20671
1.20668
1.20665
1.20662
1.20659
1.20657
1.20654
1.20651
1.20649
1.20646
1.20643
1.2329
1.23265
1.23273
1.2324
1.23216
1.23165
1.23128
1.23073
1.23025
1.22954
1.22886
1.22802
1.22726
1.22638
1.22556
1.22462
1.2237
1.2227
1.22175
1.22073
1.21978
1.21877
1.21784
1.21688
1.21601
1.21516
1.21441
1.2137
1.21309
1.21253
1.21208
1.21167
1.21136
1.21109
1.21091
1.21074
1.21064
1.21054
1.21049
1.21042
1.21039
1.21034
1.21031
1.21027
1.21024
1.2102
1.21018
1.21014
1.21011
1.21007
1.21005
1.21001
1.20999
1.20995
1.20992
1.20989
1.20986
1.20983
1.2098
1.20976
1.20974
1.2097
1.20968
1.20964
1.20962
1.20958
1.20956
1.20952
1.2095
1.20946
1.20944
1.2094
1.20938
1.20935
1.20932
1.20929
1.20926
1.20923
1.2092
1.20917
1.20914
1.20911
1.20909
1.20906
1.20903
1.209
1.20898
1.20895
1.20893
1.2089
1.23258
1.23235
1.23239
1.23208
1.2319
1.23149
1.23121
1.23072
1.23027
1.22959
1.22896
1.22818
1.22746
1.22663
1.22582
1.22489
1.224
1.22302
1.22209
1.2211
1.22016
1.21917
1.21826
1.21733
1.21651
1.2157
1.215
1.21433
1.21378
1.21326
1.21286
1.2125
1.21224
1.21201
1.21186
1.21172
1.21164
1.21156
1.21151
1.21145
1.21142
1.21137
1.21135
1.21131
1.21128
1.21124
1.21122
1.21118
1.21115
1.21111
1.21109
1.21105
1.21103
1.21099
1.21097
1.21093
1.2109
1.21087
1.21084
1.21081
1.21078
1.21074
1.21072
1.21068
1.21066
1.21062
1.2106
1.21056
1.21054
1.2105
1.21048
1.21045
1.21042
1.21039
1.21036
1.21033
1.2103
1.21027
1.21024
1.21021
1.21018
1.21015
1.21013
1.2101
1.21007
1.21004
1.21002
1.20999
1.20997
1.20994
1.2333
1.23306
1.23308
1.23275
1.23259
1.23221
1.23195
1.23147
1.23102
1.23035
1.22973
1.22896
1.22826
1.22743
1.22663
1.2257
1.22481
1.22384
1.22291
1.22192
1.22099
1.22001
1.21911
1.2182
1.21739
1.2166
1.21592
1.21527
1.21474
1.21425
1.21388
1.21354
1.2133
1.21309
1.21295
1.21282
1.21275
1.21267
1.21263
1.21257
1.21254
1.21249
1.21247
1.21242
1.2124
1.21236
1.21234
1.2123
1.21227
1.21223
1.21221
1.21217
1.21215
1.21211
1.21208
1.21205
1.21202
1.21199
1.21196
1.21192
1.2119
1.21186
1.21184
1.2118
1.21178
1.21174
1.21172
1.21168
1.21166
1.21162
1.2116
1.21156
1.21154
1.21151
1.21148
1.21145
1.21142
1.21139
1.21136
1.21133
1.2113
1.21127
1.21125
1.21122
1.21119
1.21116
1.21114
1.21111
1.21109
1.21106
1.22043
1.21299
1.20834
1.20471
1.20172
1.19913
1.1969
1.19482
1.19294
1.19111
1.18945
1.18784
1.18638
1.18492
1.18357
1.18222
1.18097
1.17972
1.17858
1.17744
1.1764
1.17537
1.17443
1.17352
1.17272
1.17195
1.1713
1.17068
1.17018
1.16972
1.16936
1.16904
1.16882
1.16862
1.16849
1.16837
1.1683
1.16823
1.16819
1.16813
1.16811
1.16806
1.16804
1.16799
1.16797
1.16793
1.16791
1.16787
1.16785
1.16781
1.16779
1.16775
1.16773
1.16769
1.16766
1.16763
1.1676
1.16757
1.16754
1.16751
1.16748
1.16745
1.16742
1.16739
1.16736
1.16733
1.16731
1.16727
1.16725
1.16721
1.16719
1.16716
1.16713
1.1671
1.16707
1.16704
1.16701
1.16698
1.16695
1.16692
1.16689
1.16687
1.16683
1.16681
1.16677
1.16675
1.16671
1.16668
1.16663
1.1666
1.22656
1.22035
1.21598
1.21241
1.20945
1.20684
1.20461
1.20253
1.20066
1.19883
1.19715
1.19552
1.19404
1.19257
1.19121
1.18984
1.18858
1.18731
1.18614
1.18498
1.18392
1.18286
1.1819
1.18095
1.18012
1.17931
1.17862
1.17796
1.17742
1.17692
1.17653
1.17618
1.17592
1.17569
1.17555
1.17541
1.17533
1.17524
1.1752
1.17514
1.17511
1.17506
1.17504
1.175
1.17498
1.17493
1.17491
1.17487
1.17485
1.17481
1.17479
1.17475
1.17473
1.17469
1.17467
1.17463
1.17461
1.17457
1.17454
1.17451
1.17448
1.17445
1.17442
1.17439
1.17437
1.17433
1.17431
1.17427
1.17425
1.17421
1.17419
1.17416
1.17413
1.1741
1.17407
1.17404
1.17401
1.17398
1.17395
1.17392
1.17389
1.17386
1.17383
1.17381
1.17377
1.17375
1.17371
1.17369
1.17363
1.17361
1.22918
1.22516
1.22163
1.21853
1.21579
1.2133
1.21114
1.20915
1.20736
1.20559
1.20395
1.20232
1.20085
1.19939
1.19805
1.19669
1.19542
1.19414
1.19296
1.19178
1.19069
1.18961
1.18861
1.18763
1.18674
1.18588
1.18513
1.18442
1.18382
1.18326
1.18281
1.1824
1.18209
1.18182
1.18164
1.18147
1.18137
1.18127
1.18121
1.18115
1.18111
1.18106
1.18104
1.18099
1.18097
1.18093
1.18091
1.18087
1.18085
1.18081
1.18078
1.18075
1.18072
1.18068
1.18066
1.18062
1.1806
1.18056
1.18054
1.1805
1.18048
1.18044
1.18042
1.18038
1.18036
1.18033
1.1803
1.18027
1.18024
1.18021
1.18018
1.18015
1.18012
1.18009
1.18006
1.18003
1.18
1.17997
1.17994
1.17991
1.17989
1.17986
1.17983
1.1798
1.17976
1.17973
1.1797
1.17967
1.17962
1.1796
1.23087
1.22882
1.22654
1.22418
1.2219
1.21968
1.21771
1.21589
1.21426
1.21262
1.21106
1.20949
1.20805
1.20663
1.20533
1.20401
1.20276
1.20148
1.20029
1.1991
1.198
1.1969
1.19588
1.19485
1.19392
1.193
1.19219
1.19142
1.19076
1.19013
1.18962
1.18914
1.18878
1.18846
1.18823
1.18802
1.18789
1.18777
1.1877
1.18763
1.18759
1.18754
1.18751
1.18746
1.18744
1.1874
1.18738
1.18734
1.18731
1.18728
1.18725
1.18721
1.18719
1.18715
1.18713
1.18709
1.18707
1.18703
1.18701
1.18697
1.18695
1.18691
1.18689
1.18685
1.18683
1.18679
1.18677
1.18673
1.18671
1.18667
1.18665
1.18662
1.18659
1.18656
1.18653
1.1865
1.18647
1.18644
1.18641
1.18638
1.18635
1.18632
1.18629
1.18626
1.18623
1.1862
1.18617
1.18614
1.1861
1.18607
1.23091
1.23012
1.22893
1.22746
1.22577
1.22397
1.22231
1.22074
1.21935
1.21792
1.21652
1.21506
1.2137
1.21236
1.21114
1.20989
1.20869
1.20745
1.20628
1.20509
1.204
1.2029
1.20186
1.20082
1.19985
1.1989
1.19804
1.19722
1.19651
1.19583
1.19527
1.19474
1.19433
1.19396
1.19369
1.19345
1.1933
1.19316
1.19308
1.193
1.19295
1.19289
1.19287
1.19282
1.1928
1.19275
1.19273
1.19269
1.19267
1.19263
1.19261
1.19257
1.19254
1.19251
1.19248
1.19245
1.19242
1.19238
1.19236
1.19232
1.1923
1.19226
1.19224
1.1922
1.19218
1.19215
1.19212
1.19209
1.19206
1.19203
1.192
1.19197
1.19194
1.19191
1.19188
1.19185
1.19182
1.19179
1.19176
1.19173
1.1917
1.19167
1.19164
1.19161
1.19158
1.19155
1.19151
1.19149
1.19145
1.19142
1.23111
1.23091
1.23046
1.22968
1.22856
1.22719
1.22588
1.2246
1.22348
1.22227
1.22107
1.21975
1.21852
1.21728
1.21615
1.21498
1.21386
1.21266
1.21153
1.21038
1.2093
1.20821
1.20718
1.20613
1.20515
1.20418
1.2033
1.20245
1.20171
1.201
1.20041
1.19985
1.19941
1.19901
1.19872
1.19846
1.19829
1.19814
1.19805
1.19796
1.19792
1.19786
1.19783
1.19778
1.19776
1.19771
1.19769
1.19765
1.19763
1.19759
1.19757
1.19753
1.1975
1.19747
1.19744
1.1974
1.19738
1.19734
1.19732
1.19728
1.19726
1.19722
1.1972
1.19716
1.19714
1.1971
1.19708
1.19704
1.19702
1.19698
1.19696
1.19693
1.1969
1.19687
1.19684
1.19681
1.19678
1.19675
1.19672
1.19669
1.19666
1.19663
1.1966
1.19657
1.19654
1.19651
1.19648
1.19645
1.19641
1.19638
1.23109
1.23112
1.23105
1.23071
1.23001
1.22903
1.22806
1.22708
1.22622
1.22524
1.22423
1.22308
1.22199
1.22088
1.21986
1.21878
1.21773
1.21661
1.21553
1.21441
1.21337
1.2123
1.21129
1.21025
1.20928
1.20831
1.20743
1.20658
1.20584
1.20513
1.20453
1.20398
1.20353
1.20313
1.20284
1.20258
1.20242
1.20226
1.20217
1.20209
1.20204
1.20198
1.20195
1.2019
1.20188
1.20183
1.20181
1.20177
1.20175
1.20171
1.20169
1.20165
1.20162
1.20159
1.20156
1.20152
1.2015
1.20146
1.20144
1.2014
1.20138
1.20134
1.20132
1.20128
1.20126
1.20122
1.2012
1.20116
1.20114
1.2011
1.20108
1.20104
1.20102
1.20099
1.20096
1.20093
1.2009
1.20087
1.20084
1.20081
1.20078
1.20075
1.20072
1.20069
1.20066
1.20063
1.2006
1.20057
1.20053
1.2005
1.23092
1.23103
1.23112
1.23099
1.23056
1.22987
1.22919
1.22848
1.22783
1.22704
1.2262
1.22522
1.22427
1.22328
1.22237
1.22137
1.2204
1.21933
1.21831
1.21725
1.21624
1.2152
1.21422
1.2132
1.21225
1.21131
1.21046
1.20964
1.20892
1.20824
1.20767
1.20714
1.20672
1.20635
1.20607
1.20584
1.20568
1.20554
1.20546
1.20538
1.20533
1.20527
1.20525
1.2052
1.20518
1.20513
1.20511
1.20507
1.20505
1.20501
1.20499
1.20495
1.20492
1.20489
1.20486
1.20482
1.2048
1.20476
1.20474
1.2047
1.20468
1.20464
1.20462
1.20458
1.20456
1.20452
1.2045
1.20446
1.20444
1.2044
1.20438
1.20434
1.20432
1.20428
1.20426
1.20422
1.2042
1.20416
1.20414
1.20411
1.20408
1.20405
1.20401
1.20399
1.20395
1.20392
1.20389
1.20386
1.20382
1.20378
1.23121
1.23132
1.23145
1.23135
1.23106
1.23057
1.2301
1.22957
1.22905
1.22838
1.22765
1.22679
1.22597
1.22508
1.22423
1.2233
1.22237
1.22136
1.22038
1.21936
1.21839
1.21738
1.21642
1.21543
1.21452
1.21361
1.21281
1.21203
1.21136
1.21073
1.21021
1.20973
1.20936
1.20903
1.20879
1.20859
1.20846
1.20834
1.20827
1.20819
1.20815
1.2081
1.20807
1.20802
1.208
1.20796
1.20794
1.2079
1.20787
1.20783
1.20781
1.20777
1.20775
1.20771
1.20769
1.20765
1.20762
1.20759
1.20756
1.20753
1.2075
1.20747
1.20744
1.20741
1.20738
1.20735
1.20732
1.20729
1.20726
1.20723
1.2072
1.20717
1.20714
1.20711
1.20708
1.20705
1.20702
1.20699
1.20696
1.20693
1.2069
1.20687
1.20684
1.20681
1.20678
1.20675
1.20671
1.20669
1.20665
1.20662
1.23079
1.23092
1.231
1.23091
1.2307
1.23036
1.23003
1.22962
1.22917
1.22857
1.22792
1.22716
1.22642
1.2256
1.2248
1.22389
1.223
1.22203
1.22109
1.2201
1.21915
1.21816
1.21723
1.21628
1.21541
1.21456
1.21381
1.21309
1.21248
1.21191
1.21145
1.21103
1.21072
1.21044
1.21026
1.21009
1.20998
1.20988
1.20982
1.20976
1.20972
1.20967
1.20965
1.2096
1.20958
1.20954
1.20952
1.20948
1.20945
1.20942
1.20939
1.20935
1.20933
1.20929
1.20927
1.20923
1.20921
1.20917
1.20914
1.20911
1.20908
1.20905
1.20902
1.20899
1.20896
1.20893
1.2089
1.20887
1.20884
1.20881
1.20878
1.20875
1.20872
1.20869
1.20866
1.20863
1.2086
1.20857
1.20854
1.20851
1.20848
1.20845
1.20842
1.20839
1.20836
1.20833
1.20829
1.20826
1.20822
1.20819
1.23135
1.2314
1.23143
1.23129
1.23113
1.23085
1.2306
1.23021
1.22978
1.22919
1.22858
1.22786
1.22716
1.22636
1.22558
1.22469
1.22381
1.22285
1.22193
1.22095
1.22002
1.21905
1.21814
1.21722
1.2164
1.21559
1.21489
1.21422
1.21367
1.21316
1.21275
1.21239
1.21213
1.2119
1.21175
1.21161
1.21153
1.21144
1.2114
1.21134
1.21131
1.21126
1.21124
1.21119
1.21117
1.21113
1.21111
1.21106
1.21104
1.211
1.21098
1.21094
1.21092
1.21088
1.21085
1.21082
1.21079
1.21076
1.21073
1.21069
1.21067
1.21063
1.21061
1.21057
1.21055
1.21051
1.21049
1.21045
1.21043
1.21039
1.21037
1.21033
1.21031
1.21028
1.21025
1.21022
1.21019
1.21016
1.21013
1.2101
1.21007
1.21004
1.21001
1.20998
1.20995
1.20992
1.20988
1.20985
1.20981
1.20978
1.23056
1.23061
1.23059
1.23047
1.23031
1.23009
1.22985
1.22947
1.22903
1.22845
1.22786
1.22716
1.22647
1.22569
1.2249
1.22401
1.22314
1.22219
1.22128
1.22031
1.21938
1.21842
1.21753
1.21663
1.21583
1.21505
1.21439
1.21375
1.21323
1.21276
1.21239
1.21206
1.21183
1.21163
1.2115
1.21137
1.2113
1.21123
1.21119
1.21113
1.2111
1.21106
1.21103
1.21099
1.21097
1.21093
1.21091
1.21087
1.21084
1.2108
1.21078
1.21074
1.21072
1.21068
1.21066
1.21062
1.21059
1.21056
1.21053
1.2105
1.21047
1.21044
1.21041
1.21037
1.21035
1.21031
1.21029
1.21025
1.21023
1.21019
1.21017
1.21014
1.21011
1.21008
1.21005
1.21002
1.20999
1.20996
1.20993
1.2099
1.20987
1.20984
1.20981
1.20978
1.20974
1.20971
1.20968
1.20965
1.20961
1.20957
1.21797
1.20839
1.20299
1.19903
1.19587
1.19318
1.19087
1.18873
1.18679
1.18494
1.18326
1.18165
1.18017
1.17871
1.17735
1.176
1.17475
1.17352
1.17238
1.17126
1.17024
1.16923
1.16831
1.16743
1.16666
1.16592
1.1653
1.16472
1.16424
1.16381
1.16349
1.1632
1.163
1.16282
1.16271
1.1626
1.16254
1.16247
1.16244
1.16239
1.16236
1.16232
1.1623
1.16226
1.16224
1.1622
1.16217
1.16214
1.16211
1.16208
1.16205
1.16202
1.16199
1.16196
1.16193
1.1619
1.16187
1.16184
1.16181
1.16178
1.16175
1.16172
1.1617
1.16166
1.16164
1.1616
1.16158
1.16155
1.16152
1.16149
1.16146
1.16143
1.1614
1.16137
1.16135
1.16132
1.16129
1.16126
1.16123
1.1612
1.16117
1.16114
1.16111
1.16109
1.16106
1.16103
1.16099
1.16097
1.16092
1.16088
1.22732
1.22046
1.21541
1.21148
1.20827
1.20551
1.20315
1.20099
1.19903
1.19715
1.19542
1.19375
1.19224
1.19075
1.18936
1.18798
1.18669
1.18541
1.18424
1.18307
1.18201
1.18095
1.17999
1.17905
1.17822