/*--------------------------------*- C++ -*----------------------------------*\
  =========                 |
  \\      /  F ield         | OpenFOAM: The Open Source CFD Toolbox
   \\    /   O peration     | Website:  https://openfoam.org
    \\  /    A nd           | Version:  7
     \\/     M anipulation  |
\*---------------------------------------------------------------------------*/
FoamFile
{
    version     2.0;
    format      ascii;
    class       surfaceScalarField;
    location    "0.905";
    object      phi_0;
}
// * * * * * * * * * * * * * * * * * * * * * * * * * * * * * * * * * * * * * //

dimensions      [1 0 -1 0 0 0 0];

internalField   nonuniform List<scalar> 
36620
(
0.000466805
0.00091215
8.00512e-06
0.000261405
0.000204102
4.31486e-06
0.000186915
7.05703e-05
6.89515e-06
0.000163119
2.22005e-05
4.54504e-06
0.000149903
9.65e-06
6.50069e-06
0.000141863
6.30116e-06
4.66101e-06
0.000135784
2.77784e-06
6.21598e-06
0.000131136
2.81616e-06
4.74816e-06
0.000127286
7.9503e-07
5.98058e-06
0.000124163
1.25488e-06
4.80392e-06
0.000121466
-1.33437e-07
5.77716e-06
0.000119193
3.96058e-07
4.83279e-06
0.00011718
-6.18483e-07
5.59684e-06
0.000115447
-1.35924e-07
4.83966e-06
0.00011385
-8.63184e-07
5.43369e-06
0.00011255
-5.55036e-07
4.82881e-06
0.000110977
-7.39214e-07
5.28396e-06
0.000110056
-9.16555e-07
4.80393e-06
9.85938e-05
9.25096e-06
5.17382e-06
3.20661e-06
4.69829e-06
9.36555e-05
0.00100562
0.0012914
1.936e-06
0.000747971
0.000466273
-1.46095e-06
0.00059672
0.000223556
1.19237e-06
0.000532438
9.04386e-05
-1.12555e-06
0.000494965
4.90392e-05
8.58158e-07
0.000472252
3.27226e-05
-9.77937e-07
0.000454016
2.31236e-05
5.86842e-07
0.000441186
1.92258e-05
-8.8529e-07
0.000429464
1.48785e-05
3.51534e-07
0.000421054
1.32448e-05
-8.29943e-07
0.000412829
1.0731e-05
1.46572e-07
0.000406916
9.93139e-06
-8.01306e-07
0.000400861
8.31948e-06
-3.44379e-08
0.00039653
7.86098e-06
-7.9434e-07
0.000391923
6.82822e-06
-1.98485e-07
0.000388794
6.26407e-06
-8.04068e-07
0.000385646
5.64325e-06
-3.53755e-07
0.000383462
4.95155e-06
-8.24476e-07
0.000398521
-2.41876e-06
-5.47536e-07
-1.03405e-05
-9.66605e-07
0.000415888
0.00139743
0.00127493
5.98065e-06
0.00128852
0.000575498
2.78417e-06
0.00115963
0.000350028
5.29328e-06
0.0010756
0.000174199
2.94379e-06
0.00101708
0.000105225
4.89919e-06
0.000977649
7.15829e-05
3.05009e-06
0.000946373
5.21778e-05
4.60744e-06
0.000923347
4.1452e-05
3.13403e-06
0.00090302
3.31732e-05
4.36947e-06
0.000887659
2.78151e-05
3.18847e-06
0.00087326
2.34425e-05
4.16415e-06
0.000862283
2.02478e-05
3.21648e-06
0.000851603
1.76435e-05
3.9827e-06
0.000843498
1.5431e-05
3.22304e-06
0.000835322
1.39254e-05
3.81903e-06
0.000829457
1.16833e-05
3.212e-06
0.000821969
1.22385e-05
3.67193e-06
0.000818681
7.80413e-06
3.18588e-06
0.00080266
1.27194e-05
3.59756e-06
8.72193e-06
3.10759e-06
0.00078318
0.00155106
0.00110853
2.18251e-06
0.00157456
0.000556026
-8.86574e-07
0.00153578
0.000390091
1.59435e-06
0.00149322
0.000220108
-7.21322e-07
0.00145289
0.000146787
1.26351e-06
0.00142062
0.000106836
-5.69947e-07
0.00139173
8.23672e-05
9.98565e-07
0.0013683
6.75203e-05
-4.71759e-07
0.00134661
5.61865e-05
7.6716e-07
0.00132896
4.79896e-05
-4.13724e-07
0.0013124
4.164e-05
5.6361e-07
0.00129898
3.63921e-05
-3.84018e-07
0.00128629
3.23924e-05
3.8326e-07
0.00127588
2.87677e-05
-3.76729e-07
0.00126631
2.59178e-05
2.18758e-07
0.00125769
2.34382e-05
-3.87417e-07
0.00125221
2.04682e-05
6.17086e-08
0.00124307
2.01884e-05
-4.11591e-07
0.00124959
9.14653e-06
-1.49263e-07
1.11927e-05
-5.35671e-07
0.00125042
0.00158998
0.00090033
5.14396e-06
0.0016771
0.000469765
2.29174e-06
0.00170375
0.000361666
4.68328e-06
0.00170581
0.000218312
2.36163e-06
0.00169585
0.000154913
4.32029e-06
0.0016843
0.000118348
2.47578e-06
0.00167011
9.48631e-05
4.03634e-06
0.00165725
7.99954e-05
2.5641e-06
0.00164352
6.81308e-05
3.80055e-06
0.00163164
5.92077e-05
2.61971e-06
0.00161966
5.20425e-05
3.59546e-06
0.00160958
4.59896e-05
2.64829e-06
0.00159966
4.12044e-05
3.41504e-06
0.00159136
3.68429e-05
2.65595e-06
0.00158327
3.33121e-05
3.25188e-06
0.00157665
3.00903e-05
2.64467e-06
0.00156955
2.72815e-05
3.10504e-06
0.00156432
2.57404e-05
2.61776e-06
0.00155415
1.92489e-05
3.0344e-06
2.85585e-05
2.546e-06
0.00153721
0.00158128
0.000703252
2.64477e-06
0.00168327
0.000371119
-1.8057e-07
0.0017437
0.000301985
2.16041e-06
0.00177565
0.00018915
-1.62113e-07
0.00179139
0.000139851
1.80212e-06
0.00180149
0.000110736
-3.77938e-08
0.00180547
9.17555e-05
1.52766e-06
0.0018079
7.97463e-05
5.60572e-08
0.001807
6.97688e-05
1.29395e-06
0.00180582
6.21694e-05
1.12418e-07
0.00180295
5.57317e-05
1.08858e-06
0.00180056
5.02766e-05
1.41109e-07
0.00179742
4.5644e-05
9.08376e-07
0.00179479
4.16638e-05
1.49331e-07
0.00179208
3.77269e-05
7.44681e-07
0.00178925
3.53671e-05
1.38037e-07
0.00178828
3.04121e-05
5.87418e-07
0.00178508
3.17787e-05
1.09779e-07
0.00178811
1.88958e-05
3.83223e-07
2.89829e-05
8.09655e-09
0.00179081
0.00157058
0.000515047
4.51697e-06
0.00167141
0.000271603
1.84989e-06
0.00174325
0.000228908
4.14673e-06
0.00178799
0.000145189
1.83842e-06
0.00181711
0.000109415
3.79311e-06
0.00184013
8.82164e-05
1.95132e-06
0.00185635
7.44461e-05
3.51487e-06
0.00187043
6.59032e-05
2.04422e-06
0.00188037
5.86066e-05
3.28222e-06
0.00188921
5.30926e-05
2.10173e-06
0.00189549
4.82195e-05
3.07756e-06
0.00190148
4.41185e-05
2.1308e-06
0.00190592
4.04517e-05
2.89813e-06
0.00191038
3.73537e-05
2.14017e-06
0.00191364
3.41184e-05
2.73638e-06
0.00191723
3.21432e-05
2.12916e-06
0.00191928
2.84165e-05
2.58835e-06
0.00192265
2.91938e-05
2.09988e-06
0.00192146
2.06509e-05
2.50074e-06
3.24528e-05
2.03085e-06
0.00191919
0.00156006
0.000338761
3.08627e-06
0.00165576
0.000178638
4.22179e-07
0.00173124
0.000153643
2.68568e-06
0.00178063
9.8047e-05
3.67373e-07
0.00181544
7.47515e-05
2.31898e-06
0.00184472
6.09106e-05
4.75598e-07
0.00186752
5.20376e-05
2.03925e-06
0.00188845
4.67038e-05
5.6678e-07
0.00190522
4.20989e-05
1.80416e-06
0.00192086
3.86916e-05
6.21967e-07
0.00193372
3.55739e-05
1.59714e-06
0.00194612
3.29961e-05
6.49308e-07
0.00195671
3.05506e-05
1.41628e-06
0.00196706
2.86321e-05
6.57872e-07
0.00197604
2.62369e-05
1.25331e-06
0.00198462
2.53572e-05
6.4631e-07
0.0019927
2.18043e-05
1.09702e-06
0.00200032
2.3754e-05
6.15411e-07
0.00200795
1.51522e-05
9.15378e-07
2.41194e-05
5.30072e-07
0.00201901
0.00155414
0.000167513
3.98724e-06
0.00164639
8.8145e-05
1.40368e-06
0.00172252
7.67672e-05
3.64786e-06
0.00177288
4.89461e-05
1.34273e-06
0.00180943
3.73744e-05
3.2927e-06
0.00184082
3.05212e-05
1.45078e-06
0.0018661
2.6172e-05
3.01506e-06
0.00188995
2.36115e-05
1.54421e-06
0.00190994
2.13923e-05
2.78267e-06
0.0019291
1.97842e-05
1.60185e-06
0.0019456
1.82907e-05
2.57768e-06
0.0019618
1.70761e-05
1.63077e-06
0.00197615
1.59008e-05
2.39833e-06
0.00199042
1.49984e-05
1.64076e-06
0.00200292
1.38387e-05
2.23721e-06
0.00201561
1.34679e-05
1.62989e-06
0.00202604
1.18049e-05
2.08693e-06
0.00203792
1.30141e-05
1.59847e-06
0.00204503
9.07886e-06
1.9703e-06
1.52962e-05
1.52788e-06
0.00205559
0.00155086
9.27122e-11
3.52416e-06
0.00164122
-2.82581e-10
9.40708e-07
0.00171771
-1.16803e-09
3.17374e-06
0.0017684
-9.96702e-10
8.62946e-07
0.00180543
-1.46188e-09
2.81046e-06
0.00183743
-8.09049e-11
9.66982e-07
0.00186351
-4.19274e-10
2.53059e-06
0.00188836
2.42318e-09
1.05856e-06
0.00190952
2.88019e-09
2.29637e-06
0.00193003
7.60598e-09
1.11463e-06
0.001948
1.42653e-08
2.08995e-06
0.00196582
2.34404e-08
1.14246e-06
0.00198186
4.39619e-08
1.90963e-06
0.0019979
8.51915e-08
1.15183e-06
0.00201224
9.61578e-08
1.74768e-06
0.00202666
3.19229e-07
1.14078e-06
0.0020392
1.72205e-07
1.59406e-06
0.00205281
1.00397e-06
1.10946e-06
0.00206289
5.4612e-07
1.44328e-06
2.24774e-06
1.03449e-06
0.00207817
0.00155086
-0.000167513
3.52416e-06
0.00164122
-8.81456e-05
9.40709e-07
0.00171771
-7.67695e-05
3.17374e-06
0.0017684
-4.89481e-05
8.62946e-07
0.00180543
-3.73773e-05
2.81046e-06
0.00183743
-3.05214e-05
9.6698e-07
0.00186351
-2.61728e-05
2.53059e-06
0.00188836
-2.36069e-05
1.05856e-06
0.00190952
-2.13866e-05
2.29637e-06
0.00193003
-1.97698e-05
1.1146e-06
0.00194801
-1.82621e-05
2.08994e-06
0.00196582
-1.7032e-05
1.14239e-06
0.00198187
-1.58121e-05
1.9096e-06
0.00199791
-1.48366e-05
1.15158e-06
0.00201225
-1.36443e-05
1.74761e-06
0.00202669
-1.28468e-05
1.13999e-06
0.00203923
-1.14598e-05
1.59402e-06
0.00205286
-1.10218e-05
1.1073e-06
0.00206296
-8.00816e-06
1.44398e-06
-1.07514e-05
1.03068e-06
0.00207819
0.00155414
-0.000338761
3.98724e-06
0.00164639
-0.000178639
1.40368e-06
0.00172252
-0.000153645
3.64786e-06
0.00177288
-9.8049e-05
1.34273e-06
0.00180943
-7.47545e-05
3.2927e-06
0.00184082
-6.09108e-05
1.45079e-06
0.0018661
-5.20385e-05
3.01506e-06
0.00188995
-4.6699e-05
1.54422e-06
0.00190994
-4.20934e-05
2.78267e-06
0.0019291
-3.86767e-05
1.60187e-06
0.0019456
-3.55461e-05
2.57769e-06
0.0019618
-3.29507e-05
1.63084e-06
0.00197615
-3.04646e-05
2.39835e-06
0.00199042
-2.84679e-05
1.64102e-06
0.00200293
-2.60493e-05
2.23725e-06
0.00201561
-2.47393e-05
1.63068e-06
0.00202606
-2.14777e-05
2.08692e-06
0.00203798
-2.17941e-05
1.60053e-06
0.00204516
-1.41534e-05
1.96966e-06
-1.97536e-05
1.53116e-06
0.00205589
0.00156006
-0.000515047
3.08627e-06
0.00165576
-0.000271604
4.22179e-07
0.00173124
-0.00022891
2.68568e-06
0.00178063
-0.000145192
3.67373e-07
0.00181544
-0.000109418
2.31898e-06
0.00184472
-8.82167e-05
4.75597e-07
0.00186752
-7.4447e-05
2.03925e-06
0.00188845
-6.58987e-05
5.66774e-07
0.00190522
-5.86014e-05
1.80416e-06
0.00192086
-5.30788e-05
6.21949e-07
0.00193372
-4.81926e-05
1.59714e-06
0.00194612
-4.40775e-05
6.49241e-07
0.00195672
-4.03681e-05
1.41627e-06
0.00196708
-3.72042e-05
6.57658e-07
0.00197607
-3.39362e-05
1.25326e-06
0.00198469
-3.1565e-05
6.45652e-07
0.00199279
-2.81087e-05
1.09703e-06
0.00200049
-2.73131e-05
6.13538e-07
0.00200822
-1.97602e-05
9.16455e-07
-2.81902e-05
5.26547e-07
0.00201939
0.00157058
-0.000703252
4.51697e-06
0.00167141
-0.00037112
1.84989e-06
0.00174325
-0.000301987
4.14673e-06
0.001788
-0.000189152
1.83842e-06
0.00181711
-0.000139854
3.79311e-06
0.00184013
-0.000110737
1.95132e-06
0.00185635
-9.17564e-05
3.51487e-06
0.00187043
-7.97421e-05
2.04422e-06
0.00188037
-6.9764e-05
3.28222e-06
0.00188921
-6.21564e-05
2.10175e-06
0.00189549
-5.57066e-05
3.07756e-06
0.00190148
-5.02376e-05
2.13086e-06
0.00190593
-4.55669e-05
2.89814e-06
0.0019104
-4.1522e-05
2.14039e-06
0.00191368
-3.75623e-05
2.7364e-06
0.00191731
-3.48235e-05
2.12987e-06
0.00191941
-3.01545e-05
2.58828e-06
0.00192288
-3.00127e-05
2.10166e-06
0.00192189
-1.82003e-05
2.50006e-06
-2.51458e-05
2.0334e-06
0.00192004
0.00158128
-0.00090033
2.64477e-06
0.00168327
-0.000469766
-1.8057e-07
0.0017437
-0.000361668
2.16041e-06
0.00177565
-0.000218314
-1.62112e-07
0.00179139
-0.000154916
1.80213e-06
0.00180149
-0.000118348
-3.77952e-08
0.00180547
-9.4864e-05
1.52766e-06
0.00180791
-7.99923e-05
5.60554e-08
0.001807
-6.81265e-05
1.29395e-06
0.00180582
-5.91976e-05
1.12403e-07
0.00180295
-5.20196e-05
1.08858e-06
0.00180058
-4.59596e-05
1.41052e-07
0.00179744
-4.1134e-05
9.08372e-07
0.00179485
-3.673e-05
1.49159e-07
0.00179215
-3.3164e-05
7.44655e-07
0.00178941
-2.96319e-05
1.37513e-07
0.00178848
-2.70653e-05
5.87483e-07
0.00178549
-2.41893e-05
1.08234e-07
0.00178871
-1.87421e-05
3.84802e-07
-2.51024e-05
4.67909e-09
0.00179179
0.00158998
-0.00110853
5.14396e-06
0.0016771
-0.000556027
2.29174e-06
0.00170375
-0.000390093
4.68328e-06
0.00170581
-0.00022011
2.36163e-06
0.00169585
-0.000146789
4.32029e-06
0.0016843
-0.000106837
2.47578e-06
0.00167011
-8.23683e-05
4.03634e-06
0.00165725
-6.75185e-05
2.5641e-06
0.00164353
-5.61833e-05
3.80055e-06
0.00163165
-4.79825e-05
2.61973e-06
0.00161967
-4.1621e-05
3.59546e-06
0.0016096
-3.637e-05
2.64833e-06
0.00159969
-3.23335e-05
3.41505e-06
0.00159142
-2.86817e-05
2.65613e-06
0.00158335
-2.57957e-05
3.25188e-06
0.00157684
-2.3079e-05
2.64526e-06
0.0015698
-2.03172e-05
3.10496e-06
0.00156485
-1.89238e-05
2.61915e-06
0.00155498
-8.92939e-06
3.03376e-06
-8.59863e-06
2.54783e-06
0.00153887
0.00155106
-0.00127493
2.18251e-06
0.00157456
-0.000575498
-8.86574e-07
0.00153578
-0.000350029
1.59435e-06
0.00149322
-0.0001742
-7.21321e-07
0.00145289
-0.000105227
1.26351e-06
0.00142062
-7.15842e-05
-5.69947e-07
0.00139173
-5.21792e-05
9.98568e-07
0.0013683
-4.1452e-05
-4.7176e-07
0.00134661
-3.31715e-05
7.67167e-07
0.00132897
-2.78121e-05
-4.13738e-07
0.00131242
-2.34292e-05
5.63619e-07
0.001299
-2.02375e-05
-3.84066e-07
0.00128633
-1.76004e-05
3.83271e-07
0.00127596
-1.53866e-05
-3.76866e-07
0.00126643
-1.38321e-05
2.18765e-07
0.00125795
-1.14717e-05
-3.87802e-07
0.00125249
-1.21132e-05
6.18491e-08
0.00124381
-6.99907e-06
-4.12782e-07
0.00125042
-1.25717e-05
-1.47137e-07
-6.85325e-06
-5.39076e-07
0.00125194
0.00139743
-0.0012914
5.98065e-06
0.00128852
-0.000466273
2.78417e-06
0.00115963
-0.000223556
5.29328e-06
0.0010756
-9.04399e-05
2.94379e-06
0.00101708
-4.90407e-05
4.89919e-06
0.000977648
-3.2724e-05
3.05009e-06
0.000946373
-2.31251e-05
4.60744e-06
0.000923348
-1.92267e-05
3.13403e-06
0.000903024
-1.48784e-05
4.36946e-06
0.000887666
-1.3244e-05
3.18848e-06
0.000873275
-1.07247e-05
4.16415e-06
0.000862305
-9.92677e-06
3.21651e-06
0.000851646
-8.2977e-06
3.98272e-06
0.000843565
-7.8397e-06
3.22317e-06
0.000835432
-6.78095e-06
3.81902e-06
0.000829685
-6.16657e-06
3.21246e-06
0.000822257
-5.58497e-06
3.67185e-06
0.00081938
-4.55421e-06
3.1868e-06
0.0008036
2.33664e-06
3.59716e-06
1.10751e-05
3.10828e-06
0.000785195
0.00100562
-0.00091215
1.936e-06
0.000747971
-0.000204102
-1.46095e-06
0.00059672
-7.05707e-05
1.19237e-06
0.000532437
-2.22012e-05
-1.12555e-06
0.000494964
-9.65087e-06
8.58158e-07
0.000472252
-6.30214e-06
-9.77938e-07
0.000454017
-2.7789e-06
5.86842e-07
0.000441187
-2.81707e-06
-8.85293e-07
0.000429467
-7.9553e-07
3.51537e-07
0.000421059
-1.25523e-06
-8.29952e-07
0.00041284
1.34862e-07
1.46581e-07
0.000406932
-3.95523e-07
-8.01333e-07
0.000400893
6.24439e-07
-3.44243e-08
0.00039658
1.40121e-07
-7.94414e-07
0.000392005
8.77021e-07
-1.98464e-07
0.000388952
5.78856e-07
-8.04286e-07
0.000385838
7.60349e-07
-3.53562e-07
0.000383954
1.01903e-06
-8.25296e-07
0.00039879
-9.10795e-06
-5.45582e-07
-2.91281e-06
-9.69245e-07
0.000416552
0.000466805
8.00512e-06
0.000261405
4.31486e-06
0.000186915
6.89515e-06
0.000163119
4.54504e-06
0.000149902
6.50069e-06
0.000141863
4.66101e-06
0.000135784
6.21598e-06
0.000131137
4.74816e-06
0.000127287
5.98058e-06
0.000124165
4.80393e-06
0.00012147
5.77716e-06
0.000119199
4.83281e-06
0.000117192
5.59683e-06
0.000115463
4.83976e-06
0.000113881
5.43362e-06
0.000112605
4.82914e-06
0.000111053
5.28374e-06
0.000110235
4.80467e-06
9.89176e-05
5.17323e-06
4.70055e-06
9.42578e-05
0.000888489
0.000504173
1.8704e-06
0.000531092
0.000362343
2.41098e-06
0.00037975
0.000159679
1.51155e-06
0.000322467
6.26042e-05
2.1138e-06
0.000295379
3.48825e-05
1.55994e-06
0.000276627
2.43206e-05
1.91735e-06
0.000264318
1.97973e-05
1.54163e-06
0.000253488
1.66409e-05
1.75736e-06
0.000246079
1.47045e-05
1.52849e-06
0.000238886
1.32092e-05
1.65336e-06
0.000233887
1.21404e-05
1.52413e-06
0.000228739
1.13009e-05
1.58631e-06
0.000225103
1.06262e-05
1.52544e-06
0.000221274
1.00501e-05
1.54431e-06
0.000218425
9.67448e-06
1.53217e-06
0.00021568
8.96833e-06
1.5207e-06
0.000213777
8.549e-06
1.54517e-06
0.00021007
9.89216e-06
1.50922e-06
0.000253981
-3.74175e-05
1.55755e-06
-2.35295e-05
1.54984e-06
0.000283563
0.00137755
0.00051022
5.06031e-06
0.00119638
0.000539531
5.61795e-06
0.00102998
0.000325376
4.77735e-06
0.00091545
0.000173404
5.31305e-06
0.000843214
0.000105774
4.80753e-06
0.000793064
7.08726e-05
5.12484e-06
0.000758795
5.23056e-05
4.7848e-06
0.000731111
4.08836e-05
4.97685e-06
0.000710929
3.29312e-05
4.77139e-06
0.000693091
2.78722e-05
4.8764e-06
0.000679696
2.35209e-05
4.76561e-06
0.000667213
2.08436e-05
4.80807e-06
0.000657652
1.81116e-05
4.76445e-06
0.000648556
1.6347e-05
4.76354e-06
0.000641227
1.4813e-05
4.76895e-06
0.00063475
1.26669e-05
4.73742e-06
0.000627843
1.30641e-05
4.7823e-06
0.000626044
8.83865e-06
4.72194e-06
0.000591842
-5.93445e-06
4.82882e-06
1.15432e-05
4.78865e-06
0.00055366
0.00148472
0.000415793
2.28961e-06
0.00148774
0.000539448
2.96595e-06
0.00142193
0.000397442
1.90814e-06
0.00134408
0.000254178
2.6667e-06
0.00127972
0.000175571
1.98018e-06
0.00122702
0.000126545
2.48809e-06
0.00118697
9.72447e-05
1.99094e-06
0.0011531
7.7726e-05
2.3341e-06
0.00112682
6.37652e-05
1.99993e-06
0.00110357
5.43414e-05
2.22592e-06
0.00108518
4.64293e-05
2.01427e-06
0.00106835
4.12075e-05
2.15174e-06
0.00105485
3.61479e-05
2.03227e-06
0.00104219
3.27982e-05
2.10273e-06
0.00103204
2.94799e-05
2.05231e-06
0.00102185
2.67741e-05
2.07475e-06
0.00101615
2.31525e-05
2.07612e-06
0.00100417
2.4667e-05
2.06478e-06
0.00101895
-1.64991e-05
2.06905e-06
6.55715e-06
2.10824e-06
0.00102756
0.00146483
0.00033522
4.64462e-06
0.00154127
0.000459984
5.26467e-06
0.00156738
0.000371344
4.44673e-06
0.00155618
0.000262301
4.98032e-06
0.00153473
0.000196335
4.46347e-06
0.00150787
0.00015048
4.78729e-06
0.0014833
0.000120653
4.44158e-06
0.0014589
9.91337e-05
4.63828e-06
0.00143826
8.27753e-05
4.42848e-06
0.00141864
7.10767e-05
4.53706e-06
0.00140241
6.09952e-05
4.42291e-06
0.00138706
5.40216e-05
4.46857e-06
0.00137435
4.72786e-05
4.42259e-06
0.00136232
4.2599e-05
4.42355e-06
0.00135215
3.8162e-05
4.42577e-06
0.00134293
3.40432e-05
4.39468e-06
0.00133346
3.11531e-05
4.43734e-06
0.00132768
2.85543e-05
4.38096e-06
0.0013044
4.99128e-06
4.49541e-06
3.43496e-05
4.44933e-06
0.00127442
0.0014591
0.000265196
2.69456e-06
0.00154679
0.000374349
3.36712e-06
0.001604
0.000319309
2.37092e-06
0.00163002
0.00023819
3.05576e-06
0.00164288
0.000187895
2.41273e-06
0.00164464
0.000150803
2.86522e-06
0.0016431
0.000126143
2.42128e-06
0.00163685
0.00010737
2.71442e-06
0.00163036
9.26232e-05
2.4267e-06
0.00162192
8.14749e-05
2.60874e-06
0.00161454
7.16102e-05
2.435e-06
0.00160642
6.44569e-05
2.53767e-06
0.00159962
5.73945e-05
2.44751e-06
0.00159238
5.24762e-05
2.49263e-06
0.00158678
4.71691e-05
2.46187e-06
0.00158009
4.37018e-05
2.46458e-06
0.00157737
3.74519e-05
2.47713e-06
0.00156971
3.94297e-05
2.45403e-06
0.00157301
5.30384e-06
2.46243e-06
3.26931e-05
2.5012e-06
0.00157771
0.00144264
0.000207629
4.2742e-06
0.00152492
0.00029009
4.92501e-06
0.00159418
0.000250959
4.10854e-06
0.00163856
0.000191589
4.64982e-06
0.00167179
0.000154861
4.12228e-06
0.00169304
0.00012754
4.46011e-06
0.00170955
0.000109423
4.1086e-06
0.00171948
9.53521e-05
4.31413e-06
0.00172724
8.40265e-05
4.09757e-06
0.00173127
7.52442e-05
4.21126e-06
0.0017347
6.71736e-05
4.09176e-06
0.00173608
6.12095e-05
4.14224e-06
0.00173749
5.50848e-05
4.09347e-06
0.00173767
5.07413e-05
4.09903e-06
0.001738
4.59989e-05
4.09891e-06
0.00173793
4.25434e-05
4.07095e-06
0.00173683
3.79334e-05
4.11095e-06
0.00173753
3.78789e-05
4.06082e-06
0.00172636
1.58378e-05
4.1705e-06
4.40074e-05
4.12736e-06
0.0017141
0.00144439
0.000151346
3.04394e-06
0.00152141
0.000214343
3.71321e-06
0.00158775
0.000188822
2.79519e-06
0.00163464
0.000145722
3.40995e-06
0.00167373
0.000119264
2.80509e-06
0.00170299
9.9511e-05
3.21288e-06
0.00172872
8.68057e-05
2.80242e-06
0.00174827
7.69649e-05
3.06219e-06
0.00176563
6.91192e-05
2.79909e-06
0.00177892
6.29738e-05
2.95465e-06
0.0017911
5.72184e-05
2.79964e-06
0.00180072
5.29447e-05
2.88317e-06
0.0018098
4.83488e-05
2.80794e-06
0.00181697
4.52289e-05
2.83914e-06
0.0018241
4.12305e-05
2.81883e-06
0.00182934
3.92374e-05
2.81107e-06
0.00183611
3.37533e-05
2.83141e-06
0.00184003
3.63446e-05
2.80322e-06
0.00184536
1.3388e-05
2.82768e-06
3.54175e-05
2.85819e-06
0.00185639
0.001437
0.000100162
3.94615e-06
0.00150992
0.000140369
4.6127e-06
0.00157673
0.000123751
3.78675e-06
0.00162527
9.58155e-05
4.33591e-06
0.00166699
7.8569e-05
3.79417e-06
0.00169949
6.58385e-05
4.14509e-06
0.00172918
5.77784e-05
3.78466e-06
0.00175328
5.16261e-05
3.99991e-06
0.00177564
4.67508e-05
3.77543e-06
0.00179422
4.29821e-05
3.89574e-06
0.00181181
3.93869e-05
3.77021e-06
0.0018269
3.67664e-05
3.82642e-06
0.00184131
3.38285e-05
3.77365e-06
0.00185388
3.18821e-05
3.78369e-06
0.00186569
2.93021e-05
3.7799e-06
0.00187646
2.79248e-05
3.75536e-06
0.00188548
2.48033e-05
3.79187e-06
0.0018957
2.60424e-05
3.7483e-06
0.00189618
1.32104e-05
3.84245e-06
3.07403e-05
3.81352e-06
0.00190088
0.00143814
4.93055e-05
3.35154e-06
0.00150907
6.99462e-05
4.02545e-06
0.00157386
6.23017e-05
3.15341e-06
0.00162148
4.8399e-05
3.73263e-06
0.00166288
3.9818e-05
3.15359e-06
0.0016957
3.34303e-05
3.53519e-06
0.0017263
2.94476e-05
3.14643e-06
0.00175184
2.64343e-05
3.38589e-06
0.00177611
2.40908e-05
3.13918e-06
0.00179698
2.2297e-05
3.27849e-06
0.00181714
2.0586e-05
3.136e-06
0.00183506
1.93665e-05
3.20732e-06
0.00185245
1.79452e-05
3.14178e-06
0.00186805
1.70981e-05
3.16357e-06
0.00188309
1.57404e-05
3.14983e-06
0.00189667
1.53864e-05
3.13474e-06
0.00190982
1.3301e-05
3.16091e-06
0.00192246
1.49033e-05
3.12868e-06
0.0019308
6.89174e-06
3.17521e-06
1.60825e-05
3.18802e-06
0.00194712
0.00143585
-2.09835e-10
3.64439e-06
0.00150555
-5.75296e-11
4.31749e-06
0.00157039
-2.3775e-10
3.47379e-06
0.00161821
7.07761e-10
4.03436e-06
0.00165988
5.09197e-10
3.47569e-06
0.00169293
1.95701e-09
3.84026e-06
0.00172384
1.3532e-09
3.46752e-06
0.00174982
4.05186e-09
3.69343e-06
0.00177471
4.70965e-09
3.45914e-06
0.00179637
1.15139e-08
3.58767e-06
0.00181751
1.49775e-08
3.45471e-06
0.00183656
3.52907e-08
3.51759e-06
0.00185516
3.89353e-08
3.45931e-06
0.00187217
1.09137e-07
3.47445e-06
0.00188847
1.09985e-07
3.46612e-06
0.00190377
3.13683e-07
3.44552e-06
0.00191756
3.43955e-07
3.47736e-06
0.00193227
8.71354e-07
3.43931e-06
0.0019393
1.01563e-06
3.51155e-06
2.39287e-06
3.50119e-06
0.00195386
0.00143585
-4.93059e-05
3.64439e-06
0.00150555
-6.99463e-05
4.31749e-06
0.00157039
-6.23021e-05
3.47379e-06
0.00161821
-4.83975e-05
4.03436e-06
0.00165988
-3.9817e-05
3.47569e-06
0.00169293
-3.34263e-05
3.84026e-06
0.00172384
-2.94449e-05
3.46752e-06
0.00174982
-2.6426e-05
3.69343e-06
0.00177471
-2.40815e-05
3.45914e-06
0.00179637
-2.22733e-05
3.58768e-06
0.0018175
-2.05565e-05
3.45471e-06
0.00183655
-1.92938e-05
3.51763e-06
0.00185516
-1.78686e-05
3.45932e-06
0.00187216
-1.68741e-05
3.47459e-06
0.00188847
-1.55251e-05
3.46616e-06
0.00190375
-1.47445e-05
3.44595e-06
0.00191756
-1.26285e-05
3.47742e-06
0.00193226
-1.316e-05
3.44052e-06
0.00193939
-4.94718e-06
3.5112e-06
-1.14809e-05
3.50307e-06
0.00195412
0.00143814
-0.000100162
3.35154e-06
0.00150907
-0.000140369
4.02545e-06
0.00157386
-0.000123752
3.15341e-06
0.00162148
-9.58141e-05
3.73263e-06
0.00166288
-7.8568e-05
3.15359e-06
0.0016957
-6.58346e-05
3.53519e-06
0.0017263
-5.77757e-05
3.14643e-06
0.00175184
-5.16181e-05
3.38589e-06
0.00177611
-4.67415e-05
3.13918e-06
0.00179698
-4.29595e-05
3.27848e-06
0.00181715
-3.93573e-05
3.136e-06
0.00183507
-3.66976e-05
3.20728e-06
0.00185245
-3.37522e-05
3.14176e-06
0.00186807
-3.16689e-05
3.16343e-06
0.00188311
-2.90878e-05
3.14979e-06
0.00189672
-2.73137e-05
3.13431e-06
0.00190988
-2.41339e-05
3.16083e-06
0.00192256
-2.43489e-05
3.1275e-06
0.00193088
-1.12439e-05
3.17545e-06
-2.60336e-05
3.18622e-06
0.00194711
0.001437
-0.000151347
3.94615e-06
0.00150992
-0.000214343
4.6127e-06
0.00157673
-0.000188823
3.78675e-06
0.00162527
-0.000145721
4.33592e-06
0.00166699
-0.000119263
3.79417e-06
0.00169949
-9.95071e-05
4.14509e-06
0.00172918
-8.68031e-05
3.78466e-06
0.00175328
-7.69569e-05
3.99991e-06
0.00177564
-6.91101e-05
3.77543e-06
0.00179422
-6.29515e-05
3.89575e-06
0.00181181
-5.71898e-05
3.7702e-06
0.00182691
-5.28766e-05
3.82646e-06
0.00184132
-4.82761e-05
3.77366e-06
0.00185388
-4.50175e-05
3.78381e-06
0.0018657
-4.10295e-05
3.7799e-06
0.00187648
-3.86334e-05
3.7557e-06
0.00188555
-3.31278e-05
3.79182e-06
0.00189583
-3.47115e-05
3.74932e-06
0.00189649
-1.16097e-05
3.84175e-06
-3.10203e-05
3.81498e-06
0.0019015
0.00144439
-0.000207629
3.04394e-06
0.00152141
-0.00029009
3.71321e-06
0.00158775
-0.00025096
2.79519e-06
0.00163464
-0.000191588
3.40995e-06
0.00167373
-0.00015486
2.80509e-06
0.00170299
-0.000127537
3.21288e-06
0.00172872
-0.000109421
2.80242e-06
0.00174828
-9.53446e-05
3.06218e-06
0.00176563
-8.40176e-05
2.79909e-06
0.00177892
-7.5224e-05
2.95464e-06
0.00179111
-6.71459e-05
2.79963e-06
0.00180073
-6.11485e-05
2.88313e-06
0.00180982
-5.50151e-05
2.80792e-06
0.001817
-5.05497e-05
2.83902e-06
0.00182414
-4.58086e-05
2.8188e-06
0.00182945
-4.19975e-05
2.81068e-06
0.00183624
-3.73391e-05
2.83133e-06
0.0018403
-3.63787e-05
2.80218e-06
0.00184569
-1.41257e-05
2.82794e-06
-3.9657e-05
2.85661e-06
0.00185677
0.00144264
-0.000265197
4.2742e-06
0.00152492
-0.000374349
4.92501e-06
0.00159418
-0.000319309
4.10854e-06
0.00163857
-0.000238189
4.64982e-06
0.00167179
-0.000187894
4.12228e-06
0.00169304
-0.0001508
4.46011e-06
0.00170955
-0.00012614
4.1086e-06
0.00171948
-0.000107362
4.31414e-06
0.00172724
-9.26148e-05
4.09756e-06
0.00173128
-8.14568e-05
4.21126e-06
0.0017347
-7.15847e-05
4.09175e-06
0.0017361
-6.44023e-05
4.14227e-06
0.00173751
-5.73319e-05
4.09346e-06
0.0017377
-5.23023e-05
4.09912e-06
0.00173806
-4.7004e-05
4.09888e-06
0.00173803
-4.32034e-05
4.07122e-06
0.00173703
-3.695e-05
4.1108e-06
0.00173789
-3.8089e-05
4.06165e-06
0.00172707
-3.94016e-06
4.16939e-06
-2.89531e-05
4.12858e-06
0.00171541
0.0014591
-0.000335221
2.69456e-06
0.00154679
-0.000459984
3.36712e-06
0.001604
-0.000371345
2.37092e-06
0.00163002
-0.0002623
3.05576e-06
0.00164288
-0.000196334
2.41273e-06
0.00164464
-0.000150477
2.86522e-06
0.0016431
-0.00012065
2.42128e-06
0.00163685
-9.91279e-05
2.71442e-06
0.00163036
-8.27677e-05
2.4267e-06
0.00162193
-7.10629e-05
2.60873e-06
0.00161455
-6.09725e-05
2.43499e-06
0.00160645
-5.39803e-05
2.53764e-06
0.00159965
-4.72227e-05
2.44749e-06
0.00159245
-4.24644e-05
2.49254e-06
0.00158687
-3.80161e-05
2.46183e-06
0.0015803
-3.36573e-05
2.46429e-06
0.00157763
-3.07066e-05
2.47702e-06
0.00157025
-2.7494e-05
2.45327e-06
0.00157371
-3.78987e-06
2.46284e-06
-3.09655e-05
2.49983e-06
0.00157876
0.00146483
-0.000415793
4.64462e-06
0.00154127
-0.000539448
5.26467e-06
0.00156738
-0.000397442
4.44673e-06
0.00155618
-0.000254177
4.98032e-06
0.00153473
-0.000175571
4.46347e-06
0.00150787
-0.000126543
4.78729e-06
0.0014833
-9.72427e-05
4.44158e-06
0.0014589
-7.7722e-05
4.63828e-06
0.00143826
-6.37593e-05
4.42848e-06
0.00141865
-5.4332e-05
4.53707e-06
0.00140242
-4.64117e-05
4.42291e-06
0.00138709
-4.11786e-05
4.46858e-06
0.00137438
-3.61042e-05
4.42258e-06
0.0013624
-3.27018e-05
4.42361e-06
0.00135226
-2.93694e-05
4.42573e-06
0.00134314
-2.64935e-05
4.39489e-06
0.00133381
-2.28413e-05
4.43711e-06
0.00132832
-2.38944e-05
4.38168e-06
0.0013056
1.7154e-05
4.49391e-06
-4.33716e-06
4.45038e-06
0.00127675
0.00148472
-0.00051022
2.28961e-06
0.00148774
-0.000539531
2.96595e-06
0.00142193
-0.000325376
1.90814e-06
0.00134408
-0.000173404
2.6667e-06
0.00127972
-0.000105773
1.98018e-06
0.00122702
-7.08719e-05
2.48809e-06
0.00118697
-5.23049e-05
1.99094e-06
0.00115311
-4.0882e-05
2.3341e-06
0.00112682
-3.2928e-05
1.99993e-06
0.00110358
-2.78678e-05
2.22591e-06
0.00108519
-2.35099e-05
2.01427e-06
0.00106838
-2.08289e-05
2.15172e-06
0.00105489
-1.80832e-05
2.03227e-06
0.00104228
-1.62964e-05
2.10262e-06
0.00103216
-1.47397e-05
2.05234e-06
0.00102212
-1.25272e-05
2.07451e-06
0.00101649
-1.28355e-05
2.07606e-06
0.00100492
-8.46333e-06
2.06439e-06
0.00101984
6.45571e-06
2.06926e-06
-1.00556e-05
2.10738e-06
0.00102913
0.00137755
-0.000504173
5.06031e-06
0.00119638
-0.000362343
5.61795e-06
0.00102998
-0.000159679
4.77735e-06
0.00091545
-6.26046e-05
5.31305e-06
0.000843214
-3.4883e-05
4.80752e-06
0.000793065
-2.43211e-05
5.12484e-06
0.000758797
-1.97977e-05
4.7848e-06
0.000731114
-1.6641e-05
4.97685e-06
0.000710934
-1.47039e-05
4.77138e-06
0.0006931
-1.32081e-05
4.8764e-06
0.000679712
-1.21368e-05
4.7656e-06
0.000667237
-1.12959e-05
4.80808e-06
0.000657694
-1.06167e-05
4.76445e-06
0.000648632
-1.00323e-05
4.76355e-06
0.000641348
-9.65027e-06
4.76895e-06
0.000634965
-8.91782e-06
4.73745e-06
0.000628215
-8.48724e-06
4.78219e-06
0.000626623
-9.71633e-06
4.72237e-06
0.000593305
3.70601e-05
4.82746e-06
2.35647e-05
4.78988e-06
0.000556513
0.000888489
1.8704e-06
0.000531092
2.41098e-06
0.00037975
1.51155e-06
0.000322467
2.1138e-06
0.000295379
1.55994e-06
0.000276627
1.91735e-06
0.000264319
1.54163e-06
0.00025349
1.75736e-06
0.000246082
1.52849e-06
0.00023889
1.65336e-06
0.000233895
1.52413e-06
0.000228752
1.58629e-06
0.000225127
1.52545e-06
0.000221315
1.54425e-06
0.00021849
1.5322e-06
0.000215798
1.52055e-06
0.000213954
1.54524e-06
0.000210429
1.50891e-06
0.000253982
1.5577e-06
1.54899e-06
0.000283558
0.0010754
0.000312911
1.56073e-12
0.000787999
0.000292853
1.23991e-12
0.000587173
0.000205205
1.14693e-12
0.000481498
0.000110516
1.16743e-12
0.000432025
5.36708e-05
1.14632e-12
0.000409601
2.69344e-05
1.27056e-12
0.000396782
1.69506e-05
1.31617e-12
0.000388114
1.30446e-05
1.35432e-12
0.000380703
1.15997e-05
1.15721e-12
0.000374699
1.03565e-05
1.19192e-12
0.000369446
9.50672e-06
1.06647e-12
0.000365228
8.54794e-06
1.05857e-12
0.000361784
7.71066e-06
7.55954e-13
0.000358969
7.08465e-06
7.70016e-13
0.000356919
6.28496e-06
8.27168e-13
0.000355104
6.01162e-06
1.35131e-12
0.000354291
5.02091e-06
1.58199e-12
0.000351541
6.89514e-06
1.9349e-12
0.00035637
-6.23191e-07
1.84101e-12
8.76146e-06
1.98168e-12
0.000351852
0.00142394
0.000280506
1.55298e-12
0.00138506
0.000340444
1.40724e-12
0.00130061
0.000297276
1.29072e-12
0.0012172
0.000201849
1.16645e-12
0.00114775
0.0001304
7.77396e-13
0.00109348
8.86355e-05
3.2113e-13
0.00104997
6.74258e-05
2.20916e-13
0.00101493
5.52147e-05
6.00325e-13
0.000985826
4.76919e-05
7.82487e-13
0.000961886
4.15187e-05
8.67963e-13
0.000941872
3.67751e-05
7.86983e-13
0.000925244
3.26011e-05
9.8312e-13
0.000911424
2.90052e-05
7.83041e-13
0.000899643
2.63763e-05
5.02092e-13
0.000889938
2.34973e-05
-8.07296e-14
0.000881349
2.20088e-05
-2.04054e-13
0.000874313
1.94504e-05
-3.7464e-13
0.000866884
2.15667e-05
-1.98401e-13
0.000862422
1.11259e-05
-4.60897e-13
2.97111e-05
-4.11519e-13
0.00084871
0.00144175
0.000227522
1.457e-12
0.00149689