/*--------------------------------*- C++ -*----------------------------------*\
  =========                 |
  \\      /  F ield         | OpenFOAM: The Open Source CFD Toolbox
   \\    /   O peration     | Website:  https://openfoam.org
    \\  /    A nd           | Version:  7
     \\/     M anipulation  |
\*---------------------------------------------------------------------------*/
FoamFile
{
    version     2.0;
    format      ascii;
    class       surfaceScalarField;
    location    "2.2";
    object      phi;
}
// * * * * * * * * * * * * * * * * * * * * * * * * * * * * * * * * * * * * * //

dimensions      [1 0 -1 0 0 0 0];

internalField   nonuniform List<scalar> 
3438
(
0.0128007
0.000981626
0.010805
0.00194363
0.00884052
0.00191226
0.0072881
0.00150015
0.00620563
0.00103029
0.00551147
0.000642201
0.00507982
0.000380024
0.00481199
0.000216633
0.00464077
0.000120533
0.00452282
6.79318e-05
0.00443383
3.96593e-05
0.0043606
2.46601e-05
0.00429628
1.65056e-05
0.00423766
1.1548e-05
0.00418343
7.99551e-06
0.00413299
5.10334e-06
0.00408602
2.62776e-06
0.00404226
5.07828e-07
0.00400155
-1.40804e-06
0.00396361
-2.92713e-06
0.00392832
-4.21472e-06
0.00389524
-5.10849e-06
0.00386435
-6.02314e-06
0.00383487
-6.17081e-06
0.00380757
-7.03663e-06
0.00378038
-5.84129e-06
0.00375823
-9.54106e-06
0.00373142
-3.19074e-06
0.00375781
-5.48732e-05
1.47015e-05
0.00371624
0.0141772
0.000590082
0.0145256
0.0015466
0.0145156
0.00187356
0.0142128
0.00175425
0.0137677
0.00142678
0.0132997
0.00106184
0.0128646
0.00076702
0.0124785
0.000555085
0.0121425
0.000409162
0.011852
0.000311759
0.0115999
0.000245762
0.0113799
0.000199339
0.0111863
0.000165434
0.0110148
0.000139198
0.010862
0.000117797
0.0107249
0.000100032
0.0106013
8.49167e-05
0.0104892
7.23782e-05
0.0103873
6.13713e-05
0.0102936
5.27108e-05
0.010208
4.4586e-05
0.010128
3.92971e-05
0.010055
3.25166e-05
0.00998442
3.11479e-05
0.00992221
2.31271e-05
0.00985673
2.88275e-05
0.00980659
1.10779e-05
0.00973882
3.6474e-05
0.0096842
-2.68717e-05
7.01525e-05
0.00960345
0.0140689
0.000313455
0.014567
0.00100672
0.0151129
0.00128569
0.0155535
0.00127189
0.0158407
0.00109791
0.0159931
0.000867977
0.0160518
0.000667204
0.0160494
0.000516553
0.0160097
0.000408193
0.0159475
0.000333892
0.0158719
0.000281891
0.0157878
0.000244523
0.015699
0.000215988
0.0156075
0.000193061
0.0155149
0.000173519
0.0154223
0.000156588
0.0153307
0.000141369
0.0152404
0.000128284
0.0151523
0.000116016
0.0150663
0.000106217
0.0149833
9.60044e-05
0.0149024
8.96609e-05
0.0148255
7.98486e-05
0.0147496
7.85274e-05
0.0146793
6.59474e-05
0.0146075
7.42923e-05
0.0145435
4.9795e-05
0.0144755
8.04032e-05
0.0144037
2.19497e-05
0.000118271
0.014334
0.0140024
0.000113065
0.0144139
0.000562968
0.0149195
0.000747859
0.0154156
0.000743735
0.0158411
0.000640631
0.0161762
0.000501168
0.0164365
0.000375432
0.0166403
0.000281475
0.0168024
0.000215003
0.016936
0.000169699
0.0170487
0.000138952
0.0171451
0.000118403
0.0172285
0.000103269
0.0173007
9.20578e-05
0.0173629
8.30845e-05
0.0174161
7.57944e-05
0.0174611
6.94136e-05
0.0174986
6.44656e-05
0.0175293
5.96409e-05
0.0175538
5.67622e-05
0.0175729
5.27629e-05
0.0175868
5.23589e-05
0.0175962
4.77906e-05
0.0176014
5.13707e-05
0.0176025
4.38001e-05
0.0176015
5.51635e-05
0.0175934
3.86584e-05
0.0175896
6.57511e-05
0.0175585
3.5443e-05
0.000102292
0.0175579
0.0139854
-5.85827e-05
0.0143627
0.000165148
0.0148314
0.000258789
0.0152955
0.000259506
0.0157051
0.000211135
0.0160434
0.000143156
0.0163182
8.1044e-05
0.0165447
3.53182e-05
0.0167367
3.58992e-06
0.0169051
-1.74e-05
0.017057
-3.18619e-05
0.0171965
-4.00568e-05
0.0173272
-4.59235e-05
0.0174505
-4.93901e-05
0.0175674
-5.16046e-05
0.0176785
-5.27362e-05
0.0177842
-5.32766e-05
0.0178849
-5.28691e-05
0.0179807
-5.24225e-05
0.0180723
-5.05692e-05
0.0181592
-4.95133e-05
0.0182427
-4.5909e-05
0.0183213
-4.51426e-05
0.0183977
-3.88124e-05
0.0184677
-3.94969e-05
0.0185383
-2.79369e-05
0.0185978
-3.283e-05
0.0186641
-1.20894e-05
0.0187099
-2.11401e-05
1.98155e-05
0.0187821
0.0139712
-0.000202614
0.0143307
-0.000201584
0.014784
-0.000201528
0.0152378
-0.000201061
0.0156426
-0.000200291
0.0159786
-0.000199277
0.0162512
-0.000198087
0.0164766
-0.000196574
0.0166686
-0.000194867
0.0168366
-0.000192459
0.0169884
-0.000190206
0.017129
-0.000187026
0.017261
-0.000184215
0.0173864
-0.000181079
0.0175063
-0.000177614
0.0176214
-0.000173813
0.017732
-0.000169769
0.0178388
-0.000165375
0.0179418
-0.000160971
0.0180417
-0.000155941
0.0181379
-0.000150916
0.0182322
-0.00014537
0.0183224
-0.000140241
0.0184121
-0.000133337
0.0184962
-0.000128113
0.0185824
-0.000118452
0.0186591
-0.000113531
0.0187418
-9.88486e-05
0.0188132
-9.64747e-05
-7.36023e-05
0.0189033
0.0139712
-0.000332907
0.0143308
-0.000554511
0.0147842
-0.000648049
0.015238
-0.000647901
0.0156429
-0.000598084
0.0159789
-0.000528137
0.0162516
-0.000463698
0.016477
-0.000415051
0.016669
-0.000379992
0.0168371
-0.000353981
0.0169889
-0.000335465
0.0171295
-0.000321365
0.0172616
-0.000310173
0.0173871
-0.000300477
0.017507
-0.000291603
0.0176222
-0.000283153
0.0177328
-0.00027476
0.0178397
-0.000266695
0.0179426
-0.000258509
0.0180426
-0.000250701
0.018139
-0.000242309
0.0182332
-0.000234719
0.0183235
-0.000225815
0.0184134
-0.000218609
0.0184977
-0.000207883
0.018584
-0.000200452
0.0186609
-0.000186164
0.0187436
-0.000177614
0.0188151
-0.000164008
-0.000158746
0.0189044
0.0139854
-0.000463895
0.014363
-0.000911945
0.0148319
-0.00109671
0.0152962
-0.00109194
0.0157058
-0.000987538
0.0160442
-0.000846337
0.0163191
-0.000718438
0.0165459
-0.000621876
0.016738
-0.00055235
0.0169065
-0.000503116
0.0170584
-0.000468224
0.0171983
-0.000442514
0.0173291
-0.000422523
0.0174525
-0.000405828
0.0175696
-0.000390869
0.0176808
-0.000377006
0.0177866
-0.000363639
0.0178874
-0.000351038
0.0179834
-0.000338428
0.0180751
-0.000326764
0.0181623
-0.000314268
0.0182459
-0.000303787
0.0183249
-0.000290601
0.0184018
-0.000281742
0.0184725
-0.000265388
0.0185439
-0.000259185
0.0186048
-0.000234873
0.0186725
-0.000233743
0.0187201
-0.000200334
-0.000217967
0.0187901
0.0140024
-0.000599869
0.0144143
-0.00129166
0.0149202
-0.00157041
0.0154166
-0.00155616
0.0158422
-0.00138115
0.0161776
-0.0011498
0.0164381
-0.000947209
0.0166421
-0.000794421
0.0168045
-0.00068353
0.0169383
-0.000606133
0.0170511
-0.000550667
0.0171478
-0.000509321
0.0172315
-0.000476759
0.017304
-0.000449362
0.0173664
-0.00042499
0.0174198
-0.000402683
0.0174651
-0.000381842
0.0175028
-0.000362414
0.0175339
-0.000343874
0.0175587
-0.000326677
0.0175783
-0.000309675
0.0175927
-0.000294789
0.0176031
-0.000278411
0.0176094
-0.000266123
0.0176125
-0.00024754
0.0176133
-0.000239856
0.017609
-0.000211366
0.0176081
-0.000214465
0.0175829
-0.000157605
-0.000198244
0.0175794
0.0140693
-0.00079263
0.0145675
-0.00174795
0.0151139
-0.00207479
0.0155548
-0.00195524
0.0158423
-0.00162708
0.015995
-0.0012611
0.0160539
-0.000964965
0.0160518
-0.000751478
0.0160125
-0.000603779
0.0159506
-0.00050416
0.0158752
-0.000435727
0.0157915
-0.000386573
0.015703
-0.000349848
0.0156119
-0.000320482
0.0155197
-0.000295715
0.0154274
-0.000274182
0.0153361
-0.000255136
0.0152462
-0.000238096
0.0151586
-0.000222696
0.0150732
-0.000208734
0.0149909
-0.000195892
0.014911
-0.000184433
0.0148354
-0.000173256
0.0147615
-0.000163769
0.0146937
-0.00015231
0.0146258
-0.000145777
0.0145668
-0.000127387
0.0145064
-0.000130194
0.0144431
-7.17087e-05
-0.000115323
0.014381
0.0141774
-0.00108639
0.0145263
-0.00204795
0.0145168
-0.00201642
0.0142144
-0.00160418
0.0137696
-0.00113394
0.0133019
-0.000745317
0.0128671
-0.000482436
0.0124813
-0.000318228
0.0121458
-0.000221199
0.0118556
-0.000167441
0.0116038
-0.000137904
0.0113841
-0.00012153
0.0111909
-0.000111918
0.0110198
-0.000105383
0.0108673
-0.000100092
0.0107307
-9.53014e-05
0.0106075
-9.07797e-05
0.010496
-8.63828e-05
0.0103945
-8.21635e-05
0.0103017
-7.79929e-05
0.0102166
-7.41161e-05
0.0101381
-7.02924e-05
0.010066
-6.68153e-05
0.00999851
-6.3051e-05
0.00993792
-5.97931e-05
0.00987881
-5.61396e-05
0.00983125
-5.06855e-05
0.00977795
-4.91139e-05
0.00973042
1.90073e-06
-5.05852e-05
0.00969025
0.0128011
0.0108056
0.00884149
0.00728946
0.00620733
0.00551348
0.00508214
0.00481468
0.00464392
0.00452634
0.00443766
0.00436474
0.00430079
0.00424261
0.0041888
0.00413876
0.0040922
0.00404892
0.00400869
0.00397137
0.00393665
0.00390456
0.00387469
0.00384726
0.00382174
0.00379837
0.00377894
0.00375961
0.00378972
0.003766
0.00360967
2.12111e-05
0.00354256
1.92771e-06
0.00347339
2.30923e-05
0.00343212
1.10349e-05
0.00340125
1.66893e-05
0.00337556
2.34503e-05
0.00335577
2.63083e-05
0.00334169
2.79739e-05
0.00333183
2.85542e-05
0.00332536
2.85928e-05
0.00332102
2.75939e-05
0.00331794
2.66605e-05
0.00331577
2.51962e-05
0.00331417
2.36775e-05
0.00331292
2.18506e-05
0.00331164
1.95519e-05
0.00331051
1.76563e-05
0.00330943
1.57819e-05
0.0033083
1.37095e-05
0.00330714
1.17983e-05
0.003306
1.02075e-05
0.00330487
8.77139e-06
0.00330378
7.46458e-06
0.00330266
6.13104e-06
0.00330152
4.90324e-06
0.00330039
3.99153e-06
0.00329933
3.43555e-06
0.00329832
2.96216e-06
0.00329731
2.49775e-06
0.00329635
2.17941e-06
0.00329541
1.91997e-06
0.00329451
1.74636e-06
0.00329363
1.62878e-06
0.00329276
1.54906e-06
0.00329194
1.56131e-06
0.00329118
1.57862e-06
0.00329043
1.45357e-06
0.00328966
1.27274e-06
0.00328894
1.31501e-06
0.0032883
1.5368e-06
0.0032877
1.7521e-06
0.00328716
1.94865e-06
0.00328666
2.11348e-06
0.00328619
2.22114e-06
0.00328577
2.33199e-06
0.0032854
2.45464e-06
0.00328507
2.5562e-06
0.00328479
2.72215e-06
0.00328461
2.97276e-06
0.00328449
3.1674e-06
0.00328442
3.26097e-06
0.0032844
3.37125e-06
0.00328445
3.56101e-06
0.00328456
3.76678e-06
0.00328473
3.98099e-06
0.00328495
4.23592e-06
0.00328524
4.49166e-06
0.00328558
4.74851e-06
0.003286
5.00926e-06
0.00328647
5.20886e-06
0.00328698
5.38622e-06
0.00328756
5.63952e-06
0.00328821
5.91965e-06
0.0032889
6.13495e-06
0.00328964
6.31988e-06
0.00329042
6.52741e-06
0.00329125
6.72908e-06
0.00329212
6.91357e-06
0.00329303
7.10249e-06
0.00329398
7.28115e-06
0.00329497
7.45365e-06
0.003296
7.64537e-06
0.00329708
7.80538e-06
0.00329818
7.88638e-06
0.0032993
7.95494e-06
0.00330045
8.06054e-06
0.00330163
8.15772e-06
0.00330283
8.22747e-06
0.00330405
8.28903e-06
0.00330528
8.33275e-06
0.00330653
8.35651e-06
0.0033078
8.37469e-06
0.00330908
8.37824e-06
0.00331037
8.36729e-06
0.00331169
8.37102e-06
0.00331302
8.38491e-06
0.00331437
8.36872e-06
0.00331571
8.32491e-06
0.00331707
8.29228e-06
0.00331843
8.28785e-06
0.0033198
8.31814e-06
0.00332117
8.37759e-06
0.00332256
8.42334e-06
0.00332394
8.43247e-06
0.00332532
8.43429e-06
0.00332671
8.43763e-06
0.00332809
8.42921e-06
0.00332947
8.43857e-06
0.00333087
8.48543e-06
0.00333227
8.52143e-06
0.00333367
8.51617e-06
0.00333506
8.49156e-06
0.00333646
8.4602e-06
0.00333785
8.42528e-06
0.00333925
8.41293e-06
0.00334065
8.40884e-06
0.00334205
8.41057e-06
0.00334346
8.43303e-06
0.00334487
8.50341e-06
0.00334631
8.52027e-06
0.00334772
8.52844e-06
0.00334916
8.48074e-06
0.00335056
8.546e-06
0.00335205
8.47753e-06
0.00335341
8.62274e-06
0.00335498
8.41609e-06
0.00335624
8.72132e-06
0.00335798
8.2678e-06
0.00335902
8.98712e-06
8.22239e-06
0.00930162
0.000241189
0.00911273
0.000128358
0.00896513
0.000126825
0.00886394
8.38287e-05
0.00879293
7.41949e-05
0.00873833
7.5845e-05
0.0086972
7.3556e-05
0.00866807
7.02301e-05
0.00864796
6.63165e-05
0.0086344
6.29927e-05
0.008625
5.91009e-05
0.00861826
5.58014e-05
0.00861333
5.20231e-05
0.0086095
4.84656e-05
0.00860631
4.45794e-05
0.00860325
3.99201e-05
0.00860041
3.61241e-05
0.00859765
3.24006e-05
0.00859488
2.83416e-05
0.00859211
2.46079e-05
0.0085894
2.1493e-05
0.00858673
1.86685e-05
0.0085841
1.61115e-05
0.00858149
1.34882e-05
0.00857888
1.10458e-05
0.0085763
9.22322e-06
0.00857383
8.08152e-06
0.00857144
7.10176e-06
0.00856911
6.14899e-06
0.00856688
5.47919e-06
0.00856473
4.92363e-06
0.00856266
4.54707e-06
0.00856065
4.26499e-06
0.00855869
4.06707e-06
0.0085568
4.04379e-06
0.008555
4.02548e-06
0.00855324
3.72199e-06
0.00855151
3.30387e-06
0.00854988
3.32089e-06
0.00854838
3.68972e-06
0.008547
4.04697e-06
0.00854573
4.36823e-06
0.00854457
4.62588e-06
0.0085435
4.76663e-06
0.00854254
4.90646e-06
0.00854169
5.06173e-06
0.00854095
5.16843e-06
0.00854034
5.39611e-06
0.0085399
5.78837e-06
0.00853963
6.07313e-06
0.0085395
6.16351e-06
0.00853953
6.29017e-06
0.00853973
6.57502e-06
0.00854008
6.89193e-06
0.00854058
7.22407e-06
0.00854122
7.63346e-06
0.00854201
8.04176e-06
0.00854294
8.45073e-06
0.00854404
8.86848e-06
0.00854529
9.17011e-06
0.00854669
9.43347e-06
0.00854825
9.85182e-06
0.00854998
1.0329e-05
0.00855185
1.06842e-05
0.00855383
1.09826e-05
0.00855595
1.13259e-05
0.00855817
1.16573e-05
0.00856051
1.1955e-05
0.00856295
1.22627e-05
0.0085655
1.25534e-05
0.00856816
1.28367e-05
0.00857094
1.31635e-05
0.00857383
1.34349e-05
0.0085768
1.35575e-05
0.00857985
1.36598e-05
0.00858297
1.38372e-05
0.00858617
1.39995e-05
0.00858941
1.41087e-05
0.0085927
1.4202e-05
0.00859605
1.42605e-05
0.00859944
1.42805e-05
0.00860287
1.42912e-05
0.00860636
1.42755e-05
0.00860988
1.4234e-05
0.00861345
1.4224e-05
0.00861707
1.4237e-05
0.00862072
1.41941e-05
0.0086244
1.40997e-05
0.0086281
1.40292e-05
0.00863182
1.40154e-05
0.00863555
1.40707e-05
0.00863931
1.41841e-05
0.00864307
1.42715e-05
0.00864684
1.42878e-05
0.00865061
1.42902e-05
0.00865439
1.4296e-05
0.00865816
1.42787e-05
0.00866193
1.42961e-05
0.00866572
1.43869e-05
0.00866951
1.44568e-05
0.00867329
1.44457e-05
0.00867708
1.43973e-05
0.00868087
1.43352e-05
0.00868465
1.4267e-05
0.00868844
1.42416e-05
0.00869223
1.42344e-05
0.00869601
1.42353e-05
0.00869981
1.42816e-05
0.00870361
1.44147e-05
0.00870743
1.4454e-05
0.00871122
1.44601e-05
0.00871504
1.43814e-05
0.00871884
1.44872e-05
0.00872269
1.43848e-05
0.00872647
1.46222e-05
0.00873037
1.42844e-05
0.00873407
1.47859e-05
0.00873809
1.40421e-05
0.00874164
1.52503e-05
1.38875e-05
0.0138372
0.000668566
0.013525
0.000387313
0.0133241
0.000290095
0.0131913
0.00019322
0.0131038
0.000150416
0.0130416
0.000136358
0.0129972
0.000123587
0.0129667
0.000112334
0.0129459
0.000102551
0.0129315
9.55319e-05
0.0129214
8.8737e-05
0.012914
8.29837e-05
0.0129083
7.70533e-05
0.0129035
7.16491e-05
0.0128993
6.5971e-05
0.0128952
5.92508e-05
0.0128913
5.37881e-05
0.0128873
4.84161e-05
0.0128834
4.26183e-05
0.0128796
3.72854e-05
0.0128758
3.28191e-05
0.0128721
2.87632e-05
0.0128685
2.50903e-05
0.0128649
2.13152e-05
0.0128614
1.77662e-05
0.0128579
1.5112e-05
0.0128545
1.34106e-05
0.0128512
1.19303e-05
0.012848
1.05091e-05
0.0128449
9.48639e-06
0.012842
8.63591e-06
0.0128392
8.04497e-06
0.0128364
7.58159e-06
0.0128338
7.24499e-06
0.0128312
7.16187e-06
0.0128287
7.07897e-06
0.0128262
6.57488e-06
0.0128238
5.90169e-06
0.0128215
5.85004e-06
0.0128194
6.30344e-06
0.0128174
6.74263e-06
0.0128156
7.13279e-06
0.0128139
7.43114e-06
0.0128124
7.55619e-06
0.012811
7.67055e-06
0.0128097
7.79628e-06
0.0128086
7.84167e-06
0.0128076
8.05262e-06
0.0128068
8.49691e-06
0.0128063
8.78917e-06
0.012806
8.80738e-06
0.0128059
8.88282e-06
0.0128061
9.18917e-06
0.0128065
9.54271e-06
0.0128071
9.91619e-06
0.0128079
1.03965e-05
0.0128089
1.08705e-05
0.0128102
1.13421e-05
0.0128116
1.18266e-05
0.0128133
1.21485e-05
0.0128152
1.24224e-05
0.0128174
1.29273e-05
0.0128198
1.35253e-05
0.0128224
1.39553e-05
0.0128253
1.43076e-05
0.0128283
1.47248e-05
0.0128315
1.51236e-05
0.0128349
1.5473e-05
0.0128384
1.58374e-05
0.0128421
1.61806e-05
0.012846
1.6519e-05
0.01285
1.69277e-05
0.0128543
1.72659e-05
0.0128586
1.73989e-05
0.0128631
1.75088e-05
0.0128678
1.77296e-05
0.0128726
1.79305e-05
0.0128774
1.80556e-05
0.0128823
1.81573e-05
0.0128873
1.82087e-05
0.0128924
1.82055e-05
0.0128976
1.81905e-05
0.0129028
1.81404e-05
0.0129081
1.80567e-05
0.0129134
1.80218e-05
0.0129189
1.80238e-05
0.0129244
1.79498e-05
0.0129299
1.78054e-05
0.0129355
1.76979e-05
0.0129412
1.76738e-05
0.0129468
1.77501e-05
0.0129525
1.79109e-05
0.0129582
1.80354e-05
0.012964
1.80585e-05
0.0129697
1.80623e-05
0.0129754
1.80713e-05
0.0129812
1.80473e-05
0.0129869
1.80729e-05
0.0129926
1.82035e-05
0.0129984
1.83045e-05
0.0130041
1.82892e-05
0.0130099
1.82211e-05
0.0130156
1.81325e-05
0.0130214
1.80368e-05
0.0130271
1.79999e-05
0.0130329
1.79926e-05
0.0130386
1.79911e-05
0.0130443
1.80635e-05
0.0130501
1.8247e-05
0.0130558
1.83165e-05
0.0130616
1.83081e-05
0.0130673
1.82241e-05
0.0130731
1.83351e-05
0.0130789
1.82517e-05
0.0130846
1.84983e-05
0.0130904
1.81575e-05
0.0130961
1.86604e-05
0.0131019
1.79286e-05
0.0131077
1.91821e-05
1.76446e-05
0.0173664
0.000807323
0.0170903
0.000623358
0.0168979
0.000454479
0.0167754
0.000299572
0.0167042
0.000213671
0.0166621
0.000177701
0.0166369
0.000153529
0.0166214
0.000137102
0.0166114
0.000124686
0.0166045
0.000116585
0.0165993
0.000109402
0.016595
0.000103089
0.016591
9.64362e-05
0.0165871
9.02464e-05
0.0165832
8.36061e-05
0.016579
7.55237e-05
0.0165747
6.88723e-05
0.0165704
6.22391e-05
0.016566
5.50971e-05
0.0165617
4.85033e-05
0.0165575
4.29545e-05
0.0165535
3.79206e-05
0.0165497
3.33289e-05
0.0165459
2.86276e-05
0.0165422
2.41784e-05
0.0165384
2.08594e-05
0.0165348
1.86829e-05
0.0165312
1.67684e-05
0.0165277
1.49491e-05
0.0165242
1.36112e-05
0.016521
1.24953e-05
0.0165179
1.17114e-05
0.0165149
1.1068e-05
0.0165121
1.06112e-05
0.0165093
1.04647e-05
0.0165066
1.03162e-05
0.0165038
9.6318e-06
0.0165011
8.72908e-06
0.0164985
8.59368e-06
0.016496
9.08378e-06
0.0164936
9.55763e-06
0.0164915
9.9741e-06
0.0164895
1.02778e-05
0.0164877
1.03621e-05
0.0164861
1.04247e-05
0.0164846
1.04902e-05
0.0164832
1.0443e-05
0.016482
1.05901e-05
0.016481
1.10208e-05
0.0164802
1.12611e-05
0.0164796
1.11631e-05
0.0164793
1.11405e-05
0.0164793
1.14095e-05
0.0164797
1.17396e-05
0.0164803
1.20935e-05
0.0164812
1.25767e-05
0.0164823
1.30463e-05
0.0164836
1.35077e-05
0.0164852
1.39825e-05
0.0164871
1.42565e-05
0.0164892
1.44757e-05
0.0164916
1.49903e-05
0.0164944
1.56305e-05
0.0164975
1.60707e-05
0.0165009
1.64202e-05
0.0165045
1.68527e-05
0.0165084
1.72619e-05
0.0165125
1.76079e-05
0.0165168
1.7972e-05
0.0165213
1.83116e-05
0.016526
1.86497e-05
0.0165309
1.90829e-05
0.0165361
1.94384e-05
0.0165415
1.95487e-05
0.0165472
1.96381e-05
0.016553
1.98711e-05
0.016559
2.00827e-05
0.0165651
2.02013e-05
0.0165714
2.02909e-05
0.0165777
2.03175e-05
0.0165841
2.0276e-05
0.0165906
2.0221e-05
0.0165973
2.01247e-05
0.016604
1.99899e-05
0.0166108
1.99197e-05
0.0166177
1.98999e-05
0.0166247
1.97905e-05
0.0166318
1.95978e-05
0.016639
1.94546e-05
0.0166463
1.94178e-05
0.0166535
1.95081e-05
0.0166609
1.9705e-05
0.0166683
1.98584e-05
0.0166757
1.98871e-05
0.0166831
1.98924e-05
0.0166905
1.99049e-05
0.0166979
1.98764e-05
0.0167053
1.99096e-05
0.0167128
2.00731e-05
0.0167202
2.02003e-05
0.0167277
2.01827e-05
0.0167351
2.01003e-05
0.0167425
1.99916e-05
0.0167499
1.98756e-05
0.0167574
1.98302e-05
0.0167648
1.9825e-05
0.0167722
1.98213e-05
0.0167796
1.99178e-05
0.0167871
2.01396e-05
0.0167945
2.02398e-05
0.0168019
2.02129e-05
0.0168093
2.01382e-05
0.0168168
2.02354e-05
0.0168242
2.01984e-05
0.0168317
2.04055e-05
0.016839
2.01397e-05
0.0168465
2.05237e-05
0.0168539
1.99859e-05
0.0168614
2.09966e-05
1.96196e-05
0.0192214
0.000335308
0.0194186
0.000401885
0.0194935
0.000363104
0.0195084
0.000276505
0.0195151
0.000202996
0.0195298
0.000163129
0.0195478
0.000139157
0.0195639
0.000127204
0.0195756
0.000120716
0.0195828
0.000118715
0.0195862
0.000116306
0.0195868
0.000112964
0.0195856
0.000107839
0.0195833
0.000102332
0.0195803
9.57635e-05
0.0195768
8.70956e-05
0.019573
7.97591e-05
0.0195692
7.22853e-05
0.0195653
6.42002e-05
0.0195616
5.67216e-05
0.019558
5.03769e-05
0.0195547
4.46544e-05
0.0195517
3.94032e-05
0.0195487
3.40552e-05
0.0195459
2.89981e-05
0.019543
2.52326e-05
0.0195401
2.27576e-05
0.0195372
2.05434e-05
0.0195342
1.84596e-05
0.0195314
1.68933e-05
0.0195286
1.55944e-05
0.019526
1.46637e-05
0.0195236
1.38839e-05
0.0195213
1.33406e-05
0.0195191
1.31561e-05
0.0195169
1.29709e-05
0.0195146
1.21704e-05
0.0195123
1.11134e-05
0.0195099
1.09162e-05
0.0195077
1.14194e-05
0.0195055
1.19003e-05
0.0195036
1.2317e-05
0.0195018
1.26071e-05
0.0195003
1.2647e-05
0.0194989
1.26574e-05
0.0194976
1.26635e-05
0.0194964
1.25308e-05
0.0194953
1.26061e-05
0.0194944
1.29925e-05
0.0194936
1.31562e-05
0.019493
1.29325e-05
0.0194927
1.27935e-05
0.0194927
1.29868e-05
0.0194931
1.32513e-05
0.0194939
1.35436e-05
0.0194949
1.3981e-05
0.0194961
1.43992e-05
0.0194976
1.48026e-05
0.0194993
1.52167e-05
0.0195013
1.54e-05
0.0195035
1.55214e-05
0.0195061
1.59813e-05
0.019509
1.659e-05
0.0195124
1.698e-05
0.0195161
1.72744e-05
0.0195201
1.76682e-05
0.0195245
1.8038e-05
0.0195291
1.83364e-05
0.0195339
1.86548e-05
0.0195389
1.89455e-05
0.0195441
1.92362e-05
0.0195496
1.96395e-05
0.0195554
1.99622e-05
0.0195615
2.00159e-05
0.0195679
2.00548e-05
0.0195746
2.02644e-05
0.0195815
2.04559e-05
0.0195886
2.05461e-05
0.0195958
2.06055e-05
0.0196032
2.05941e-05
0.0196106
2.05056e-05
0.0196182
2.04022e-05
0.0196258
2.02535e-05
0.0196336
2.00632e-05
0.0196415
1.99492e-05
0.0196495
1.98965e-05
0.0196577
1.97468e-05
0.019666
1.95074e-05
0.0196744
1.93286e-05
0.0196829
1.92742e-05
0.0196915
1.9367e-05
0.0197001
1.95837e-05
0.0197088
1.97534e-05
0.0197176
1.97835e-05
0.0197263
1.97887e-05
0.0197351
1.98033e-05
0.0197439
1.97719e-05
0.0197527
1.98105e-05
0.0197615
1.99972e-05
0.0197703
2.01432e-05
0.0197791
2.0125e-05
0.0197879
2.0034e-05
0.0197967
1.99128e-05
0.0198055
1.97842e-05
0.0198143
1.97341e-05
0.0198231
1.97317e-05
0.0198319
1.97272e-05
0.0198407
1.98418e-05
0.0198495
2.00899e-05
0.0198583
2.02141e-05
0.0198671
2.01722e-05
0.0198759
2.01115e-05
0.0198847
2.01894e-05
0.0198934
2.02045e-05
0.0199023
2.03525e-05
0.019911
2.01942e-05
0.0199199
2.04103e-05
0.0199285
2.01373e-05
0.0199376
2.07485e-05
1.97773e-05
0.0195828
-0.000355253
0.0201535
-0.000176053
0.0206513
-0.000138783
0.0210158
-8.85298e-05
0.021253
-3.41682e-05
0.0214027
1.45652e-05
0.0214912
5.27929e-05
0.0215395
8.15764e-05
0.0215627
0.000100279
0.0215714
0.000113576
0.0215721
0.000119659
0.0215689
0.000120291
0.0215642
0.000116582
0.0215592
0.000111261
0.0215545
0.000104195
0.0215503
9.45964e-05
0.0215466
8.62908e-05
0.0215434
7.78416e-05
0.0215406
6.88774e-05
0.0215383
6.06336e-05
0.0215364
5.36804e-05
0.0215349
4.74725e-05
0.0215338
4.18235e-05
0.0215329
3.61336e-05
0.0215321
3.08066e-05
0.0215313
2.68626e-05
0.0215304
2.43095e-05
0.0215292
2.20063e-05
0.021528
1.98469e-05
0.0215267
1.82142e-05
0.0215254
1.68645e-05
0.0215243
1.58882e-05
0.0215233
1.50443e-05
0.0215225
1.44785e-05
0.0215217
1.42997e-05
0.0215208
1.41253e-05
0.0215199
1.33013e-05
0.0215188
1.21986e-05
0.0215176
1.19871e-05
0.0215164
1.24969e-05
0.0215152
1.29721e-05
0.0215142
1.33744e-05
0.0215134
1.36415e-05
0.0215128
1.36443e-05
0.0215124
1.36148e-05
0.0215121
1.35784e-05
0.0215118
1.33897e-05
0.0215116
1.34103e-05
0.0215113
1.37473e-05
0.0215112
1.38389e-05
0.0215112
1.35126e-05
0.0215114
1.32683e-05
0.021512
1.33706e-05
0.0215129
1.35476e-05
0.0215141
1.37554e-05
0.0215157
1.41177e-05
0.0215175
1.44595e-05
0.0215194
1.47829e-05
0.0215216
1.51132e-05
0.0215239
1.51948e-05
0.0215264
1.52056e-05
0.0215293
1.55705e-05
0.0215326
1.60934e-05
0.0215362
1.639e-05
0.0215403
1.65925e-05
0.0215447
1.69068e-05
0.0215495
1.72016e-05
0.0215545
1.74248e-05
0.0215598
1.76704e-05
0.0215652
1.78864e-05
0.0215708
1.81015e-05
0.0215767
1.84359e-05
0.0215829
1.86886e-05
0.0215895
1.86635e-05
0.0215964
1.86303e-05
0.0216036
1.87857e-05
0.021611
1.89301e-05
0.0216188
1.89748e-05
0.0216266
1.89922e-05
0.0216346
1.89379e-05
0.0216428
1.88037e-05
0.021651
1.86543e-05
0.0216593
1.84576e-05
0.0216677
1.82177e-05
0.0216763
1.80598e-05
0.021685
1.79693e-05
0.0216939
1.77803e-05
0.0217029
1.75009e-05
0.0217121
1.72897e-05
0.0217214
1.72137e-05
0.0217308
1.72968e-05
0.0217403
1.75139e-05
0.0217498
1.76848e-05
0.0217594
1.77112e-05
0.0217691
1.77137e-05
0.0217787
1.77277e-05
0.0217884
1.76942e-05
0.0217981
1.77351e-05
0.0218078
1.79327e-05
0.0218175
1.80877e-05
0.0218272
1.80703e-05
0.0218369
1.79763e-05
0.0218466
1.78512e-05
0.0218563
1.77175e-05
0.021866
1.76674e-05
0.0218757
1.76667e-05
0.0218854
1.76641e-05
0.0218951
1.7787e-05
0.0219048
1.80491e-05
0.0219145
1.81856e-05
0.0219242
1.81362e-05
0.0219339
1.80888e-05
0.0219436
1.8147e-05
0.0219533
1.82103e-05
0.021963
1.82923e-05
0.0219726
1.82494e-05
0.0219824
1.82901e-05
0.0219919
1.82867e-05
0.0220019
1.84384e-05
1.80212e-05
0.0195846
-0.00102429
0.0201572
-0.000738599
0.0206571
-0.000630679
0.0210215
-0.000446761
0.0212614
-0.000270348
0.0214146
-0.000137052
0.0215075
-3.99046e-05
0.02156
2.78274e-05
0.0215873
7.06673e-05
0.0215997
9.84471e-05
0.021604
0.000112673
0.0216042
0.000117251
0.0216026
0.000115442
0.0216007
0.000110806
0.0215989
0.000103837
0.0215975
9.40663e-05
0.0215965
8.54367e-05
0.0215958
7.66567e-05
0.0215956
6.74636e-05
0.0215957
5.90564e-05
0.0215962
5.2002e-05
0.021597
4.5787e-05
0.0215981
4.01529e-05
0.0215994
3.45533e-05
0.0216007
2.93671e-05
0.021602
2.55455e-05
0.021603
2.31128e-05
0.0216038
2.09266e-05
0.0216044
1.88703e-05
0.021605
1.73157e-05
0.0216055
1.60465e-05
0.0216061
1.51088e-05
0.0216069
1.42834e-05
0.0216077
1.37415e-05
0.0216086
1.35986e-05
0.0216094
1.34632e-05
0.02161
1.26862e-05
0.0216105
1.1628e-05
0.0216109
1.14275e-05
0.0216112
1.19158e-05
0.0216115
1.23575e-05
0.021612
1.27217e-05
0.0216127
1.29514e-05
0.0216136
1.29219e-05
0.0216146
1.28612e-05
0.0216157
1.27926e-05
0.0216168
1.25706e-05
0.0216178
1.25453e-05
0.0216189
1.28198e-05
0.02162
1.28432e-05
0.0216212
1.24474e-05
0.0216227
1.21252e-05
0.0216244
1.21401e-05
0.0216264
1.22289e-05
0.0216287
1.23504e-05
0.0216313
1.26266e-05
0.021634
1.28836e-05
0.0216369
1.31209e-05
0.0216399
1.33611e-05
0.021643
1.33517e-05
0.0216463
1.32673e-05
0.0216499
1.3527e-05
0.0216537
1.39417e-05
0.021658
1.41375e-05
0.0216627
1.4247e-05
0.0216676
1.44732e-05
0.0216729
1.46864e-05
0.0216784
1.48328e-05
0.021684
1.50026e-05
0.0216898
1.51423e-05
0.0216958
1.52794e-05
0.021702
1.5533e-05
0.0217085
1.5708e-05
0.0217153
1.5614e-05
0.0217224
1.55183e-05
0.0217298
1.56153e-05
0.0217375
1.57092e-05
0.0217454
1.57117e-05
0.0217534
1.56926e-05
0.0217616
1.56062e-05
0.0217698
1.54428e-05
0.0217781
1.52652e-05
0.0217865
1.50411e-05
0.021795
1.47749e-05
0.0218037
1.45901e-05
0.0218125
1.44734e-05
0.0218214
1.42624e-05
0.0218305
1.39659e-05
0.0218397
1.37398e-05
0.021849
1.36497e-05
0.0218584
1.37189e-05
0.0218679
1.39227e-05
0.0218775
1.40837e-05
0.0218871
1.41051e-05
0.0218968
1.41048e-05
0.0219065
1.41173e-05
0.0219162
1.4084e-05
0.0219259
1.41243e-05
0.0219356
1.43192e-05
0.0219454
1.44725e-05
0.0219551
1.4457e-05
0.0219648
1.43664e-05
0.0219746
1.42459e-05
0.0219843
1.41165e-05
0.021994
1.40695e-05
0.0220037
1.40707e-05
0.0220135
1.40699e-05
0.0220232
1.41932e-05
0.0220329
1.44505e-05
0.0220426
1.45906e-05
0.0220523
1.45358e-05
0.0220621
1.45064e-05
0.0220718
1.45386e-05
0.0220815
1.46493e-05
0.0220912
1.46549e-05
0.0221009
1.47379e-05
0.0221107
1.45882e-05
0.0221202
1.48748e-05
0.0221303
1.45283e-05
1.47361e-05
0.0192318
-0.00143313
0.0194372
-0.000917594
0.0195242
-0.000698632
0.0195445
-0.000454658
0.0195558
-0.000275037
0.0195772
-0.000157178
0.0196044
-6.92974e-05
0.0196307
-3.81263e-06
0.0196531
4.08218e-05
0.0196709
7.16923e-05
0.0196847
8.96204e-05
0.0196952
9.69804e-05
0.0197035
9.80063e-05
0.01971
9.56186e-05
0.0197153
9.044e-05
0.0197199
8.23047e-05
0.0197239
7.49414e-05
0.0197274
6.72444e-05
0.0197306
5.90398e-05
0.0197338
5.15156e-05
0.019737
4.51915e-05
0.0197401
3.96413e-05
0.0197433
3.45938e-05
0.0197465
2.95889e-05
0.0197496
2.49903e-05
0.0197525
2.1594e-05
0.0197551
1.94572e-05
0.0197576
1.75519e-05
0.0197599
1.57356e-05
0.0197622
1.43833e-05
0.0197645
1.32808e-05
0.0197668
1.24643e-05
0.0197692
1.17329e-05
0.0197716
1.12585e-05
0.019774
1.11687e-05
0.0197762
1.1078e-05
0.0197784
1.03972e-05
0.0197804
9.45562e-06
0.0197823
9.27953e-06
0.0197843
9.71558e-06
0.0197862
1.0103e-05
0.0197883
1.04191e-05
0.0197905
1.06141e-05
0.0197929
1.05745e-05
0.0197953
1.0505e-05
0.0197977
1.04248e-05
0.0198002
1.01994e-05
0.0198026
1.01441e-05
0.019805
1.03521e-05
0.0198074
1.03265e-05
0.01981
9.91686e-06
0.0198127
9.57274e-06
0.0198157
9.53548e-06
0.0198189
9.56716e-06
0.0198222
9.63039e-06
0.0198258
9.83435e-06
0.0198294
1.00191e-05
0.0198331
1.01826e-05
0.0198369
1.03446e-05
0.0198407
1.02763e-05
0.0198448
1.01377e-05
0.0198491
1.03117e-05
0.0198536
1.06292e-05
0.0198584
1.07523e-05
0.0198635
1.08017e-05
0.0198688
1.09611e-05
0.0198743
1.11107e-05
0.01988
1.11999e-05
0.0198857
1.13093e-05
0.0198916
1.13897e-05
0.0198976
1.14671e-05
0.0199039
1.16513e-05
0.0199103
1.1767e-05
0.019917
1.16426e-05
0.019924
1.15218e-05
0.0199312
1.15813e-05
0.0199385
1.16421e-05
0.019946
1.16228e-05
0.0199536
1.15857e-05
0.0199613
1.14884e-05
0.019969
1.13216e-05
0.0199768
1.1142e-05
0.0199847
1.09204e-05
0.0199926
1.06612e-05
0.0200007
1.04774e-05
0.0200089
1.03571e-05
0.0200171
1.01532e-05
0.0200255
9.87376e-06
0.020034
9.66043e-06
0.0200426
9.57257e-06
0.0200513
9.63084e-06
0.02006
9.81276e-06
0.0200688
9.95712e-06
0.0200776
9.97571e-06
0.0200865
9.97544e-06
0.0200953
9.9873e-06
0.0201042
9.95791e-06
0.0201131
9.99569e-06
0.0201219
1.01741e-05
0.0201308
1.03149e-05
0.0201397
1.03023e-05
0.0201486
1.02222e-05
0.0201574
1.01144e-05
0.0201663
9.99941e-06
0.0201752
9.95784e-06
0.0201841
9.96234e-06
0.0201929
9.96129e-06
0.0202018
1.00785e-05
0.0202107
1.03086e-05
0.0202195
1.04462e-05
0.0202284
1.03848e-05
0.0202372
1.03809e-05
0.0202461
1.03791e-05
0.020255
1.05341e-05
0.0202639
1.04574e-05
0.0202727
1.06681e-05
0.0202816
1.03247e-05
0.0202903
1.09063e-05
0.0202995
1.00858e-05
1.08572e-05
0.0173932
-0.00119428
0.0171453
-0.000629152
0.0169713
-0.000496231
0.0168567
-0.000322384
0.0167919
-0.000201642
0.0167586
-0.000122973
0.0167442
-5.96457e-05
0.0167409
-9.66472e-06
0.016744
2.56238e-05
0.0167504
5.08543e-05
0.0167583
6.63395e-05
0.0167666
7.29478e-05
0.0167746
7.49775e-05
0.0167821
7.39467e-05
0.0167888
7.03765e-05
0.016795
6.4242e-05
0.0168006
5.86336e-05
0.0168056
5.2609e-05
0.0168104
4.60743e-05
0.0168149
4.00433e-05