/*--------------------------------*- C++ -*----------------------------------*\
  =========                 |
  \\      /  F ield         | OpenFOAM: The Open Source CFD Toolbox
   \\    /   O peration     | Website:  https://openfoam.org
    \\  /    A nd           | Version:  7
     \\/     M anipulation  |
\*---------------------------------------------------------------------------*/
FoamFile
{
    version     2.0;
    format      ascii;
    class       volScalarField;
    location    "0.15";
    object      rho;
}
// * * * * * * * * * * * * * * * * * * * * * * * * * * * * * * * * * * * * * //

dimensions      [1 -3 0 0 0 0 0];

internalField   nonuniform List<scalar> 
1440
(
1.19878
1.19685
1.19489
1.19287
1.19079
1.18864
1.18642
1.18412
1.18174
1.17929
1.17675
1.17414
1.17146
1.16871
1.1659
1.16304
1.16013
1.15719
1.15424
1.15126
1.14829
1.14533
1.14238
1.13946
1.13657
1.13372
1.13092
1.12816
1.12546
1.12281
1.12021
1.11767
1.11519
1.11276
1.11038
1.10806
1.10578
1.10355
1.10137
1.09923
1.09714
1.09508
1.09307
1.09108
1.08913
1.08722
1.08533
1.08348
1.08166
1.07986
1.07808
1.07633
1.0746
1.07289
1.0712
1.06954
1.0679
1.06627
1.06466
1.06306
1.06148
1.05991
1.05837
1.05684
1.05532
1.05382
1.05233
1.05085
1.04938
1.04793
1.04649
1.04506
1.04364
1.04223
1.04084
1.03945
1.03808
1.03672
1.03537
1.03402
1.03268
1.03135
1.03004
1.02874
1.02745
1.02617
1.02489
1.02361
1.02235
1.02109
1.01985
1.01862
1.0174
1.01619
1.01497
1.01376
1.01255
1.01136
1.01018
1.00901
1.00785
1.0067
1.00554
1.00438
1.00322
1.00206
1.00093
0.99983
0.998771
0.997757
0.996788
0.995845
0.99495
0.994029
0.993191
0.992227
0.991488
0.990387
0.989896
0.98845
1.19975
1.19986
1.19994
1.19994
1.19986
1.19968
1.1994
1.19902
1.19855
1.198
1.19737
1.19668
1.19592
1.19511
1.19426
1.19337
1.19244
1.19149
1.19051
1.18951
1.18849
1.18747
1.18643
1.18539
1.18433
1.18328
1.18222
1.18115
1.18008
1.17901
1.17794
1.17686
1.17578
1.1747
1.17361
1.17252
1.17143
1.17033
1.16923
1.16812
1.16701
1.1659
1.16478
1.16366
1.16254
1.16141
1.16028
1.15915
1.15801
1.15688
1.15574
1.1546
1.15346
1.15232
1.15117
1.15003
1.14888
1.14774
1.1466
1.14545
1.14431
1.14317
1.14202
1.14089
1.13975
1.13861
1.13748
1.13635
1.13522
1.1341
1.13298
1.13186
1.13074
1.12963
1.12852
1.12742
1.12631
1.12522
1.12412
1.12303
1.12194
1.12086
1.11978
1.1187
1.11763
1.11657
1.1155
1.11445
1.11339
1.11234
1.1113
1.11026
1.10922
1.10819
1.10716
1.10614
1.10512
1.1041
1.10309
1.10208
1.10107
1.10007
1.09908
1.09809
1.0971
1.09611
1.09513
1.09416
1.09319
1.09222
1.09128
1.09031
1.08941
1.08842
1.0876
1.08655
1.08587
1.08467
1.08426
1.08274
1.19969
1.19969
1.19969
1.19968
1.19969
1.19969
1.19969
1.19969
1.19968
1.19966
1.19963
1.19958
1.19952
1.19944
1.19935
1.19924
1.19912
1.19898
1.19883
1.19868
1.19851
1.19833
1.19814
1.19794
1.19774
1.19753
1.19731
1.19709
1.19687
1.19663
1.19639
1.19615
1.1959
1.19565
1.19539
1.19513
1.19486
1.19458
1.1943
1.19401
1.19371
1.19341
1.19311
1.1928
1.19248
1.19215
1.19182
1.19148
1.19113
1.19078
1.19042
1.19006
1.18969
1.18931
1.18893
1.18854
1.18815
1.18775
1.18734
1.18693
1.18651
1.18609
1.18566
1.18522
1.18478
1.18434
1.18389
1.18343
1.18297
1.1825
1.18203
1.18155
1.18107
1.18058
1.18009
1.1796
1.1791
1.17859
1.17809
1.17757
1.17706
1.17654
1.17602
1.17549
1.17497
1.17443
1.1739
1.17336
1.17282
1.17228
1.17173
1.17118
1.17063
1.17008
1.16952
1.16896
1.1684
1.16783
1.16726
1.16669
1.16612
1.16554
1.16496
1.16438
1.1638
1.16322
1.16264
1.16205
1.16147
1.16088
1.16031
1.1597
1.15914
1.15851
1.15799
1.1573
1.15687
1.15607
1.15581
1.15477
1.19968
1.19967
1.19967
1.19966
1.19966
1.19965
1.19964
1.19963
1.19962
1.19961
1.1996
1.19959
1.19958
1.19957
1.19955
1.19954
1.19953
1.19952
1.19951
1.19949
1.19948
1.19946
1.19945
1.19943
1.19941
1.19939
1.19937
1.19935
1.19933
1.1993
1.19928
1.19925
1.19923
1.1992
1.19917
1.19915
1.19912
1.19908
1.19905
1.19902
1.19898
1.19895
1.19891
1.19887
1.19883
1.19878
1.19874
1.19869
1.19864
1.19859
1.19854
1.19849
1.19843
1.19838
1.19832
1.19826
1.19819
1.19813
1.19806
1.198
1.19793
1.19786
1.19778
1.19771
1.19763
1.19755
1.19747
1.19738
1.1973
1.19721
1.19712
1.19703
1.19693
1.19683
1.19673
1.19663
1.19652
1.19641
1.1963
1.19619
1.19607
1.19596
1.19584
1.19571
1.19559
1.19546
1.19534
1.19521
1.19508
1.19494
1.19481
1.19467
1.19453
1.19439
1.19424
1.1941
1.19395
1.19379
1.19364
1.19348
1.19332
1.19315
1.19299
1.19282
1.19265
1.19247
1.19229
1.19211
1.19193
1.19175
1.19157
1.19137
1.19119
1.19098
1.19082
1.19059
1.19045
1.19018
1.19009
1.18974
1.19967
1.19967
1.19967
1.19966
1.19965
1.19964
1.19963
1.19962
1.19961
1.1996
1.19959
1.19957
1.19956
1.19955
1.19954
1.19952
1.19951
1.1995
1.19949
1.19948
1.19947
1.19946
1.19945
1.19944
1.19943
1.19943
1.19942
1.19941
1.1994
1.1994
1.19939
1.19939
1.19938
1.19938
1.19937
1.19937
1.19936
1.19936
1.19935
1.19935
1.19934
1.19934
1.19934
1.19933
1.19933
1.19932
1.19932
1.19931
1.1993
1.1993
1.19929
1.19929
1.19928
1.19927
1.19927
1.19926
1.19926
1.19925
1.19924
1.19924
1.19923
1.19923
1.19922
1.19921
1.19921
1.1992
1.19919
1.19919
1.19918
1.19917
1.19916
1.19916
1.19915
1.19914
1.19913
1.19912
1.1991
1.19909
1.19908
1.19907
1.19906
1.19904
1.19903
1.19902
1.199
1.19899
1.19898
1.19896
1.19895
1.19894
1.19893
1.19891
1.1989
1.19889
1.19887
1.19886
1.19884
1.19883
1.19881
1.19879
1.19878
1.19876
1.19874
1.19872
1.19869
1.19867
1.19864
1.19862
1.19859
1.19857
1.19854
1.19851
1.19849
1.19846
1.19843
1.1984
1.19838
1.19835
1.19833
1.19829
1.19967
1.19967
1.19966
1.19966
1.19965
1.19964
1.19963
1.19962
1.19961
1.1996
1.19958
1.19957
1.19956
1.19955
1.19953
1.19952
1.19951
1.1995
1.19949
1.19948
1.19946
1.19945
1.19945
1.19944
1.19943
1.19942
1.19941
1.1994
1.1994
1.19939
1.19938
1.19938
1.19937
1.19937
1.19936
1.19936
1.19935
1.19935
1.19934
1.19934
1.19934
1.19933
1.19933
1.19932
1.19932
1.19932
1.19931
1.19931
1.1993
1.1993
1.19929
1.19929
1.19929
1.19928
1.19928
1.19927
1.19927
1.19927
1.19926
1.19926
1.19926
1.19925
1.19925
1.19925
1.19925
1.19925
1.19924
1.19924
1.19924
1.19924
1.19923
1.19923
1.19923
1.19922
1.19922
1.19921
1.19921
1.19921
1.1992
1.1992
1.19919
1.19919
1.19918
1.19918
1.19917
1.19917
1.19917
1.19917
1.19916
1.19916
1.19916
1.19916
1.19916
1.19916
1.19916
1.19916
1.19916
1.19916
1.19916
1.19916
1.19915
1.19915
1.19915
1.19914
1.19914
1.19913
1.19912
1.19912
1.19911
1.1991
1.1991
1.19909
1.19909
1.19908
1.19908
1.19907
1.19907
1.19907
1.19906
1.19907
1.19967
1.19967
1.19966
1.19966
1.19965
1.19964
1.19963
1.19962
1.19961
1.1996
1.19958
1.19957
1.19956
1.19955
1.19953
1.19952
1.19951
1.1995
1.19949
1.19948
1.19946
1.19945
1.19944
1.19944
1.19943
1.19942
1.19941
1.1994
1.1994
1.19939
1.19938
1.19938
1.19937
1.19937
1.19936
1.19936
1.19935
1.19935
1.19934
1.19934
1.19934
1.19933
1.19933
1.19932
1.19932
1.19932
1.19931
1.19931
1.1993
1.1993
1.19929
1.19929
1.19928
1.19928
1.19928
1.19927
1.19927
1.19926
1.19926
1.19926
1.19925
1.19925
1.19925
1.19925
1.19924
1.19924
1.19924
1.19924
1.19924
1.19923
1.19923
1.19923
1.19922
1.19922
1.19922
1.19921
1.19921
1.1992
1.1992
1.19919
1.19919
1.19918
1.19918
1.19918
1.19917
1.19917
1.19917
1.19916
1.19916
1.19916
1.19916
1.19916
1.19916
1.19916
1.19916
1.19916
1.19916
1.19916
1.19916
1.19916
1.19915
1.19915
1.19915
1.19914
1.19914
1.19913
1.19913
1.19912
1.19911
1.19911
1.1991
1.1991
1.19909
1.19909
1.19908
1.19908
1.19908
1.19908
1.19907
1.19908
1.19967
1.19967
1.19967
1.19966
1.19965
1.19964
1.19963
1.19962
1.19961
1.1996
1.19959
1.19957
1.19956
1.19955
1.19953
1.19952
1.19951
1.1995
1.19949
1.19948
1.19947
1.19946
1.19945
1.19944
1.19943
1.19942
1.19941
1.1994
1.1994
1.19939
1.19938
1.19938
1.19937
1.19937
1.19936
1.19936
1.19935
1.19935
1.19935
1.19934
1.19934
1.19933
1.19933
1.19933
1.19932
1.19932
1.19931
1.19931
1.1993
1.1993
1.19929
1.19929
1.19929
1.19928
1.19928
1.19927
1.19927
1.19927
1.19926
1.19926
1.19926
1.19925
1.19925
1.19925
1.19925
1.19924
1.19924
1.19924
1.19924
1.19923
1.19923
1.19923
1.19922
1.19922
1.19922
1.19921
1.19921
1.1992
1.1992
1.19919
1.19919
1.19918
1.19918
1.19918
1.19917
1.19917
1.19917
1.19916
1.19916
1.19916
1.19916
1.19916
1.19916
1.19916
1.19916
1.19916
1.19916
1.19915
1.19915
1.19915
1.19915
1.19915
1.19914
1.19914
1.19913
1.19913
1.19912
1.19912
1.19911
1.1991
1.1991
1.19909
1.19909
1.19908
1.19908
1.19908
1.19907
1.19907
1.19907
1.19907
1.19968
1.19967
1.19967
1.19966
1.19966
1.19965
1.19964
1.19962
1.19961
1.1996
1.19959
1.19957
1.19956
1.19955
1.19954
1.19952
1.19951
1.1995
1.19949
1.19948
1.19947
1.19946
1.19945
1.19944
1.19943
1.19942
1.19941
1.19941
1.1994
1.19939
1.19938
1.19938
1.19937
1.19937
1.19936
1.19936
1.19935
1.19935
1.19934
1.19934
1.19933
1.19933
1.19933
1.19932
1.19932
1.19931
1.19931
1.1993
1.1993
1.19929
1.19929
1.19928
1.19928
1.19927
1.19927
1.19926
1.19926
1.19925
1.19925
1.19924
1.19924
1.19924
1.19923
1.19923
1.19923
1.19922
1.19922
1.19922
1.19921
1.19921
1.19921
1.1992
1.1992
1.19919
1.19919
1.19918
1.19918
1.19917
1.19917
1.19916
1.19916
1.19915
1.19915
1.19914
1.19914
1.19913
1.19913
1.19913
1.19912
1.19912
1.19912
1.19912
1.19911
1.19911
1.19911
1.19911
1.19911
1.1991
1.1991
1.1991
1.19909
1.19909
1.19908
1.19908
1.19907
1.19907
1.19906
1.19905
1.19905
1.19904
1.19903
1.19903
1.19902
1.19902
1.19901
1.19901
1.19901
1.19901
1.199
1.19901
1.19969
1.19969
1.19968
1.19967
1.19966
1.19965
1.19964
1.19963
1.19962
1.19961
1.19959
1.19958
1.19956
1.19955
1.19954
1.19952
1.19951
1.1995
1.19948
1.19947
1.19946
1.19944
1.19943
1.19942
1.19941
1.1994
1.19939
1.19938
1.19937
1.19936
1.19935
1.19934
1.19933
1.19933
1.19932
1.19931
1.19931
1.1993
1.19929
1.19928
1.19928
1.19927
1.19926
1.19926
1.19925
1.19924
1.19924
1.19923
1.19922
1.19922
1.19921
1.1992
1.1992
1.19919
1.19918
1.19918
1.19917
1.19917
1.19916
1.19916
1.19915
1.19915
1.19914
1.19914
1.19913
1.19913
1.19912
1.19911
1.19911
1.1991
1.1991
1.19909
1.19909
1.19908
1.19907
1.19907
1.19906
1.19906
1.19905
1.19905
1.19904
1.19904
1.19903
1.19903
1.19902
1.19902
1.19902
1.19901
1.19901
1.19901
1.199
1.199
1.199
1.19899
1.19899
1.19898
1.19898
1.19897
1.19897
1.19896
1.19896
1.19895
1.19895
1.19894
1.19893
1.19893
1.19892
1.19892
1.19891
1.19891
1.19891
1.19891
1.19891
1.1989
1.1989
1.1989
1.1989
1.1989
1.1989
1.1989
1.19969
1.19969
1.19969
1.19968
1.19967
1.19966
1.19965
1.19963
1.19961
1.19959
1.19957
1.19955
1.19952
1.1995
1.19948
1.19946
1.19944
1.19942
1.1994
1.19938
1.19936
1.19934
1.19933
1.19932
1.1993
1.19929
1.19928
1.19927
1.19926
1.19925
1.19924
1.19923
1.19922
1.19921
1.1992
1.1992
1.19919
1.19918
1.19918
1.19917
1.19916
1.19916
1.19915
1.19914
1.19914
1.19913
1.19912
1.19912
1.19911
1.19911
1.1991
1.1991
1.19909
1.19909
1.19909
1.19908
1.19908
1.19907
1.19907
1.19906
1.19906
1.19906
1.19905
1.19905
1.19904
1.19904
1.19903
1.19903
1.19902
1.19902
1.19902
1.19901
1.19901
1.19901
1.199
1.199
1.199
1.19899
1.19899
1.19899
1.19898
1.19898
1.19897
1.19897
1.19896
1.19896
1.19896
1.19895
1.19895
1.19895
1.19894
1.19894
1.19894
1.19893
1.19893
1.19893
1.19892
1.19892
1.19892
1.19891
1.19891
1.1989
1.1989
1.19889
1.19889
1.19889
1.19888
1.19888
1.19888
1.19888
1.19888
1.19887
1.19887
1.19887
1.19886
1.19886
1.19886
1.19885
1.19885
1.19884
1.19972
1.19971
1.19969
1.19966
1.19963
1.1996
1.19957
1.19953
1.1995
1.19948
1.19945
1.19943
1.19941
1.19939
1.19937
1.19936
1.19935
1.19933
1.19932
1.19931
1.19931
1.1993
1.19929
1.19929
1.19928
1.19927
1.19927
1.19926
1.19925
1.19925
1.19924
1.19924
1.19923
1.19923
1.19922
1.19921
1.19921
1.1992
1.1992
1.19919
1.19918
1.19918
1.19917
1.19917
1.19916
1.19916
1.19915
1.19915
1.19914
1.19913
1.19913
1.19912
1.19912
1.19911
1.19911
1.1991
1.1991
1.19909
1.19909
1.19908
1.19908
1.19907
1.19907
1.19906
1.19906
1.19905
1.19905
1.19905
1.19904
1.19904
1.19903
1.19903
1.19902
1.19902
1.19901
1.19901
1.19901
1.199
1.199
1.19899
1.19899
1.19898
1.19898
1.19898
1.19897
1.19897
1.19896
1.19896
1.19896
1.19895
1.19895
1.19894
1.19894
1.19894
1.19893
1.19893
1.19892
1.19892
1.19892
1.19891
1.19891
1.19891
1.1989
1.1989
1.19889
1.19889
1.19889
1.19888
1.19888
1.19888
1.19887
1.19887
1.19887
1.19886
1.19886
1.19885
1.19885
1.19885
1.19884
1.19884
)
;

boundaryField
{
    upperWall
    {
        type            calculated;
        value           nonuniform List<scalar> 
120
(
1.19972
1.19971
1.1997
1.19969
1.19967
1.19965
1.19963
1.19961
1.19959
1.19957
1.19955
1.19953
1.19951
1.19949
1.19947
1.19945
1.19943
1.19941
1.1994
1.19938
1.19937
1.19935
1.19934
1.19933
1.19932
1.19931
1.1993
1.19929
1.19928
1.19927
1.19926
1.19925
1.19925
1.19924
1.19923
1.19922
1.19922
1.19921
1.19921
1.1992
1.19919
1.19919
1.19918
1.19917
1.19917
1.19916
1.19916
1.19915
1.19915
1.19914
1.19914
1.19913
1.19913
1.19912
1.19911
1.19911
1.1991
1.1991
1.19909
1.19909
1.19908
1.19908
1.19907
1.19907
1.19906
1.19906
1.19906
1.19905
1.19905
1.19904
1.19904
1.19903
1.19903
1.19902
1.19902
1.19901
1.19901
1.199
1.199
1.199
1.19899
1.19899
1.19898
1.19898
1.19897
1.19897
1.19897
1.19896
1.19896
1.19895
1.19895
1.19895
1.19894
1.19894
1.19893
1.19893
1.19893
1.19892
1.19892
1.19891
1.19891
1.19891
1.1989
1.1989
1.19889
1.19889
1.19889
1.19888
1.19888
1.19887
1.19887
1.19887
1.19886
1.19886
1.19886
1.19885
1.19885
1.19885
1.19884
1.19884
)
;
    }
    lowerWall
    {
        type            calculated;
        value           nonuniform List<scalar> 
120
(
0.987566
1.08832
1.12299
1.13694
1.14323
1.14592
1.14657
1.146
1.14457
1.14261
1.14013
1.13746
1.13453
1.13139
1.12811
1.12474
1.12129
1.11781
1.1143
1.11079
1.1073
1.10384
1.10042
1.09706
1.09375
1.09051
1.08734
1.08425
1.08123
1.07829
1.07543
1.07264
1.06993
1.06728
1.06471
1.06219
1.05974
1.05735
1.05502
1.05274
1.05052
1.04834
1.0462
1.0441
1.04205
1.04003
1.03805
1.0361
1.03419
1.0323
1.03044
1.02861
1.0268
1.02502
1.02327
1.02154
1.01983
1.01814
1.01646
1.01481
1.01317
1.01155
1.00995
1.00837
1.00681
1.00526
1.00372
1.0022
1.00069
0.999198
0.99772
0.996255
0.994802
0.993361
0.991933
0.990519
0.98912
0.987732
0.986353
0.984983
0.983622
0.982273
0.980937
0.979616
0.978308
0.977008
0.975715
0.974427
0.973148
0.97188
0.970627
0.969388
0.968159
0.966935
0.965714
0.964496
0.963285
0.962086
0.960901
0.959731
0.958571
0.957415
0.956255
0.955094
0.953931
0.952778
0.951645
0.950545
0.949486
0.948467
0.947498
0.946546
0.94565
0.944716
0.943882
0.942904
0.94217
0.941063
0.940568
0.939133
)
;
    }
    inlet
    {
        type            calculated;
        value           nonuniform List<scalar> 
12
(
1.19972
1.19969
1.19969
1.19968
1.19967
1.19967
1.19967
1.19967
1.19968
1.19969
1.19969
1.19972
)
;
    }
    outlet
    {
        type            calculated;
        value           nonuniform List<scalar> 
12
(
0.988449
1.08274
1.15477
1.18974
1.19829
1.19907
1.19908
1.19907
1.199
1.19889
1.19884
1.19884
)
;
    }
    frontAndBack
    {
        type            empty;
    }
}


// ************************************************************************* //
