/*--------------------------------*- C++ -*----------------------------------*\
  =========                 |
  \\      /  F ield         | OpenFOAM: The Open Source CFD Toolbox
   \\    /   O peration     | Website:  https://openfoam.org
    \\  /    A nd           | Version:  7
     \\/     M anipulation  |
\*---------------------------------------------------------------------------*/
FoamFile
{
    version     2.0;
    format      ascii;
    class       volSymmTensorField;
    location    "2.71";
    object      UPrime2Mean;
}
// * * * * * * * * * * * * * * * * * * * * * * * * * * * * * * * * * * * * * //

dimensions      [0 2 -2 0 0 0 0];

internalField   nonuniform List<symmTensor> 
4950
(
(0.00519565 -0.00181934 -0.000382065 0.00118557 0.000270179 0.000103059)
(0.0272054 -0.00292391 -0.00148909 0.000392255 0.000192034 0.000235261)
(0.0509517 -0.00174134 -0.00220486 7.48537e-05 0.000102538 0.000337121)
(0.0772201 -7.90273e-05 -0.00269271 4.00626e-06 2.24363e-05 0.000385881)
(0.0874392 0.000749388 -0.00294996 1.13183e-05 -1.06672e-05 0.000429528)
(0.102532 0.00113296 -0.00310784 2.01353e-05 -1.85071e-05 0.000431682)
(0.105917 0.00116888 -0.00321424 2.19183e-05 -1.74231e-05 0.000430806)
(0.116149 0.00118382 -0.00324724 2.16675e-05 -1.08982e-05 0.000400238)
(0.117506 0.00106504 -0.00327351 1.96142e-05 -5.82329e-06 0.000376888)
(0.125398 0.00102674 -0.00323893 1.79778e-05 -2.62109e-06 0.000340272)
(0.126047 0.000884374 -0.00322032 1.52722e-05 -8.54961e-07 0.000317255)
(0.132362 0.000872124 -0.00315194 1.40897e-05 -1.92729e-06 0.000289711)
(0.132725 0.000699807 -0.00310872 1.12373e-05 1.2969e-07 0.000276216)
(0.137769 0.000767844 -0.00302548 1.1531e-05 -4.47704e-06 0.000262363)
(0.138142 0.000507659 -0.00296667 7.42966e-06 1.57011e-06 0.000258858)
(0.142109 0.000722113 -0.00288526 1.04447e-05 -9.21375e-06 0.000259034)
(0.142678 8.71096e-05 -0.00281419 2.34104e-06 9.32211e-06 0.000259217)
(0.146606 0.00050031 -0.0027759 8.82598e-06 -1.52988e-05 0.000273128)
(0.143672 -0.00279222 -0.00263426 9.0358e-05 5.91025e-05 0.000264527)
(0.16569 -0.000207972 -0.00215704 9.29848e-05 3.23869e-05 0.000279365)
(0.00297051 0.000944576 0.000214512 0.00207299 0.000331134 0.000102656)
(0.00346597 0.000482542 0.000203649 0.00204408 0.00048657 0.000333854)
(0.00670062 -0.000109538 0.000182174 0.0015774 0.000539616 0.000617653)
(0.00989502 -0.00124377 -0.000340822 0.00095211 0.000467006 0.000866757)
(0.0158246 -0.00157421 -0.000701571 0.000560999 0.000380241 0.00114421)
(0.0236492 -0.00186052 -0.00128621 0.000359777 0.000298473 0.0013461)
(0.031915 -0.00185203 -0.00168353 0.000236109 0.000220126 0.00150609)
(0.0417806 -0.00185113 -0.00222467 0.000166159 0.000158504 0.00154246)
(0.0506411 -0.00173469 -0.00254237 0.000120518 0.000109193 0.00151331)
(0.0605989 -0.00162455 -0.00293521 9.12781e-05 7.55348e-05 0.00140917)
(0.0690148 -0.0014769 -0.00310771 7.09763e-05 5.25771e-05 0.00127542)
(0.078207 -0.00133983 -0.00333123 5.72726e-05 4.07784e-05 0.00112916)
(0.0857771 -0.00118756 -0.00337972 4.67004e-05 3.07068e-05 0.000983953)
(0.094047 -0.0010566 -0.00345555 4.06277e-05 3.63146e-05 0.00086297)
(0.100651 -0.000931505 -0.00339275 3.22609e-05 2.74688e-05 0.000752171)
(0.108457 -0.000732003 -0.0033365 2.99124e-05 4.62104e-05 0.000695449)
(0.113197 -0.000730962 -0.00317982 1.96306e-05 3.08718e-05 0.000627569)
(0.122538 0.000210393 -0.00307976 1.54877e-05 1.57897e-05 0.000650956)
(0.120434 -0.000369046 -0.00280421 2.1785e-05 5.82732e-05 0.000603609)
(0.12979 0.00436761 -0.00223232 0.000322248 -0.000239201 0.000668961)
(0.00354287 0.000806642 0.000296192 0.000705736 0.000186839 0.000102041)
(0.00678253 0.00161898 0.000753705 0.000843684 0.000312727 0.000352948)
(0.0178749 0.00295569 0.00179568 0.000918211 0.000442212 0.000675643)
(0.0228189 0.00279897 0.0022774 0.000722706 0.000440878 0.000979379)
(0.0320446 0.0026109 0.00307119 0.000532477 0.000413785 0.00133574)
(0.0346799 0.00206443 0.0032747 0.000403333 0.00035307 0.00167035)
(0.0414612 0.00169444 0.00370465 0.000296295 0.000282706 0.00200841)
(0.0434638 0.00126728 0.00351739 0.000224503 0.000209727 0.00224768)
(0.0492162 0.00102219 0.00353821 0.000168348 0.000150243 0.00240014)
(0.0515882 0.000748613 0.00310651 0.000127216 9.77719e-05 0.002426)
(0.0569718 0.000624231 0.00298356 9.78622e-05 6.47339e-05 0.00236899)
(0.0599292 0.000449744 0.00256341 7.33013e-05 3.8238e-05 0.00223448)
(0.0652033 0.000410654 0.00244215 5.94037e-05 2.52763e-05 0.00205418)
(0.0685674 0.000274036 0.00211665 4.24466e-05 1.83086e-05 0.00184144)
(0.0739532 0.000288503 0.00205846 3.97554e-05 1.25558e-05 0.00161474)
(0.0772293 0.000173885 0.00194284 2.29306e-05 1.20589e-05 0.00139543)
(0.0833007 0.000255249 0.00202353 3.42301e-05 2.2206e-05 0.00119479)
(0.0856052 9.01815e-05 0.00220098 8.02304e-06 -2.74119e-05 0.00104509)
(0.0925153 0.000642539 0.00230924 4.20139e-05 6.92942e-05 0.00091288)
(0.0943637 0.000392818 0.00302968 0.000203973 -0.000261012 0.00088311)
(0.00347979 0.000445737 0.000269304 0.000202171 9.37823e-05 9.36606e-05)
(0.00616129 0.000831672 0.0006534 0.000249261 0.000166571 0.000336178)
(0.0188929 0.00183232 0.00177538 0.000291318 0.000242787 0.000658586)
(0.0282532 0.00206104 0.00259422 0.000248942 0.000261488 0.000963518)
(0.0456439 0.0023179 0.00384274 0.000202011 0.00025579 0.00132584)
(0.0559923 0.00226046 0.00464332 0.000170519 0.000235763 0.00167677)
(0.0735191 0.00230372 0.00564578 0.000141173 0.000200027 0.00204798)
(0.0830012 0.00219365 0.00603628 0.000120869 0.000164823 0.00234798)
(0.0994664 0.00218816 0.00650677 0.00010193 0.000127791 0.00256813)
(0.10814 0.00206681 0.00647425 8.7046e-05 9.76339e-05 0.00267943)
(0.123275 0.00203042 0.00663761 7.37913e-05 7.15109e-05 0.00269242)
(0.13148 0.00192206 0.00647155 6.25816e-05 5.41906e-05 0.00263153)
(0.145139 0.00185526 0.00653305 5.35218e-05 3.86022e-05 0.00250979)
(0.153339 0.00178695 0.00633185 4.46685e-05 3.62794e-05 0.00233273)
(0.165291 0.00164477 0.00635133 3.92784e-05 2.54174e-05 0.00213409)
(0.174102 0.0016306 0.00624382 3.01181e-05 3.06801e-05 0.00188394)
(0.183601 0.00137583 0.00636772 2.92122e-05 2.6364e-05 0.0016632)
(0.194595 0.00109853 0.00657086 1.35801e-05 1.46972e-06 0.00142874)
(0.197914 0.00118147 0.00672613 2.25786e-05 4.00067e-05 0.00123584)
(0.219201 -0.00138607 0.00804864 2.95536e-05 -0.000156751 0.00115666)
(0.00346642 -6.69969e-09 0.000278261 1.1095e-10 -1.3615e-11 9.75738e-05)
(0.00597992 1.93516e-09 0.000651775 1.17854e-10 -1.04395e-09 0.00034909)
(0.0189479 8.82237e-11 0.00184646 8.60305e-11 -1.87961e-09 0.000675736)
(0.0290336 3.48826e-09 0.00269828 4.09647e-11 -3.01437e-09 0.000984597)
(0.0478403 -1.50126e-08 0.00409816 3.78255e-11 -3.06376e-09 0.0013466)
(0.059896 1.56314e-08 0.00496103 4.96581e-11 -5.67689e-09 0.00170013)
(0.0801688 -1.58085e-08 0.00617564 6.67109e-11 -6.88271e-09 0.00207735)
(0.0924015 4.283e-08 0.00664451 8.18228e-11 -3.00216e-09 0.00238642)
(0.112943 9.60368e-08 0.00735439 9.80992e-11 -1.30659e-08 0.00262672)
(0.125024 3.0511e-07 0.00739099 1.14183e-10 1.51278e-08 0.00275008)
(0.145151 4.4585e-07 0.00778169 1.34858e-10 -3.29877e-08 0.00279164)
(0.156843 9.85903e-07 0.0076644 1.53316e-10 8.02883e-08 0.00274134)
(0.176235 1.40119e-06 0.00793695 2.02979e-10 -7.06964e-08 0.00264846)
(0.187321 4.27044e-06 0.00775149 3.17668e-10 1.99694e-07 0.00247898)
(0.206003 2.71436e-06 0.00796792 4.5003e-10 -3.66868e-08 0.00230278)
(0.216011 1.47325e-05 0.00780346 1.69909e-09 2.9946e-07 0.0020504)
(0.233834 5.42145e-06 0.00813957 1.59277e-09 3.53988e-07 0.00183422)
(0.243408 3.60835e-05 0.0082305 1.00895e-08 2.7745e-07 0.0015875)
(0.255078 1.01823e-05 0.00863201 5.98539e-09 9.55942e-07 0.00137342)
(0.270701 2.94695e-05 0.00997077 1.50672e-08 4.52086e-07 0.0013055)
(0.0034798 -0.00044575 0.000269308 0.000202168 -9.37842e-05 9.36607e-05)
(0.00616129 -0.000831656 0.000653389 0.000249259 -0.000166568 0.000336183)
(0.0188929 -0.00183231 0.00177541 0.000291316 -0.000242797 0.000658576)
(0.0282532 -0.00206104 0.00259414 0.000248941 -0.000261481 0.000963543)
(0.0456439 -0.00231793 0.00384289 0.000202008 -0.000255813 0.00132581)
(0.0559924 -0.00226045 0.00464305 0.000170513 -0.000235745 0.00167678)
(0.073519 -0.00230374 0.00564627 0.000141166 -0.000200075 0.00204802)
(0.0830015 -0.00219365 0.00603549 0.000120856 -0.000164773 0.00234777)
(0.0994663 -0.00218795 0.00650812 0.000101904 -0.000127866 0.00256864)
(0.108142 -0.00206653 0.00647214 8.70218e-05 -9.75547e-05 0.0026785)
(0.123274 -0.00202953 0.00664091 7.37189e-05 -7.15889e-05 0.0026939)
(0.131483 -0.0019213 0.0064666 6.25222e-05 -5.4085e-05 0.00262958)
(0.14514 -0.00185258 0.00654054 5.33657e-05 -3.86438e-05 0.00251199)
(0.153349 -0.00178336 0.00632108 4.4501e-05 -3.61077e-05 0.00233085)
(0.165296 -0.00163886 0.00636686 3.90127e-05 -2.53432e-05 0.00213518)
(0.174127 -0.00161853 0.00622324 2.96882e-05 -3.02266e-05 0.00188432)
(0.183625 -0.00136454 0.00639386 2.8789e-05 -2.58224e-05 0.00166128)
(0.194644 -0.00106847 0.0065432 1.30268e-05 -2.00548e-07 0.00143245)
(0.197985 -0.00114835 0.00675349 2.1706e-05 -3.80029e-05 0.00123054)
(0.219291 0.00143369 0.0080429 3.04752e-05 0.000158647 0.00116465)
(0.00354288 -0.000806654 0.000296197 0.000705733 -0.000186843 0.000102041)
(0.00678254 -0.00161897 0.000753689 0.000843684 -0.000312719 0.000352952)
(0.017875 -0.00295569 0.00179572 0.000918209 -0.000442233 0.000675633)
(0.0228189 -0.00279896 0.00227731 0.000722702 -0.000440854 0.000979412)
(0.0320446 -0.00261093 0.00307134 0.000532474 -0.000413831 0.00133569)
(0.03468 -0.00206444 0.00327446 0.000403323 -0.000353019 0.0016704)
(0.0414611 -0.00169448 0.00370506 0.000296288 -0.0002828 0.00200844)
(0.0434641 -0.00126733 0.00351682 0.000224481 -0.000209619 0.00224746)
(0.0492162 -0.00102214 0.00353916 0.000168327 -0.000150406 0.00240088)
(0.0515891 -0.000748528 0.00310509 0.00012718 -9.75896e-05 0.00242453)
(0.0569717 -0.000624063 0.00298606 9.78073e-05 -6.4963e-05 0.00237169)
(0.0599319 -0.000449517 0.00255916 7.32302e-05 -3.79439e-05 0.00223058)
(0.0652029 -0.00041034 0.00245023 5.92917e-05 -2.56295e-05 0.00205944)
(0.0685756 -0.000272199 0.00210258 4.22892e-05 -1.7723e-05 0.00183568)
(0.073952 -0.000289189 0.00208397 3.95995e-05 -1.31413e-05 0.00162057)
(0.0772495 -0.000167094 0.00190206 2.26112e-05 -1.08821e-05 0.00139078)
(0.0833012 -0.000260788 0.002089 3.40064e-05 -2.2933e-05 0.00119807)
(0.0856485 -7.28257e-05 0.00211163 7.7907e-06 2.89237e-05 0.00104349)
(0.0925335 -0.00065578 0.00243176 4.12623e-05 -6.99893e-05 0.000912094)
(0.0944484 -0.000363629 0.00290077 0.000202915 0.000261654 0.000888683)
(0.00297052 -0.00094459 0.000214514 0.00207298 -0.000331136 0.000102656)
(0.00346599 -0.00048253 0.000203646 0.00204408 -0.000486563 0.000333856)
(0.00670064 0.000109525 0.000182166 0.00157739 -0.000539628 0.000617655)
(0.00989502 0.00124376 -0.000340804 0.000952109 -0.00046699 0.000866777)
(0.0158246 0.00157416 -0.000701668 0.000560996 -0.000380268 0.00114419)
(0.0236491 0.0018605 -0.00128601 0.000359775 -0.000298441 0.00134617)
(0.0319149 0.00185195 -0.00168397 0.000236102 -0.000220178 0.00150608)
(0.0417801 0.00185103 -0.00222381 0.000166155 -0.000158439 0.00154251)
(0.0506408 0.00173451 -0.002544 0.000120501 -0.000109282 0.0015136)
(0.0605971 0.00162446 -0.00293241 9.12727e-05 -7.54305e-05 0.00140866)
(0.0690136 0.00147635 -0.00311241 7.09389e-05 -5.26904e-05 0.00127685)
(0.0782009 0.00133944 -0.00332401 5.72566e-05 -4.06411e-05 0.00112688)
(0.085773 0.0011863 -0.00339025 4.66337e-05 -3.08399e-05 0.000987961)
(0.0940303 0.00105533 -0.00344158 4.0571e-05 -3.6039e-05 0.000857167)
(0.100633 0.000928903 -0.00340944 3.21553e-05 -2.77923e-05 0.000760776)
(0.10842 0.000727592 -0.00332002 2.9763e-05 -4.5215e-05 0.000683716)
(0.113133 0.000726009 -0.00319149 1.9473e-05 -3.17187e-05 0.00064298)
(0.122471 -0.000214551 -0.0030828 1.53763e-05 -1.37754e-05 0.000632535)
(0.120265 0.000354365 -0.00279241 2.15746e-05 -6.01418e-05 0.00061773)
(0.129722 -0.00433932 -0.00226897 0.000319128 0.000221905 0.000674469)
(0.00519568 0.00181933 -0.000382049 0.00118556 -0.00027017 0.000103058)
(0.0272055 0.00292391 -0.00148906 0.000392251 -0.000192029 0.000235267)
(0.0509517 0.00174133 -0.00220484 7.48532e-05 -0.000102538 0.000337133)
(0.0772202 7.90567e-05 -0.00269276 4.00598e-06 -2.24392e-05 0.000385906)
(0.0874392 -0.000749388 -0.00295011 1.13177e-05 1.06657e-05 0.000429556)
(0.102532 -0.00113294 -0.00310786 2.01351e-05 1.85014e-05 0.000431729)
(0.105917 -0.00116887 -0.00321456 2.19173e-05 1.74237e-05 0.000430844)
(0.116149 -0.00118385 -0.00324705 2.16681e-05 1.08874e-05 0.000400299)
(0.117506 -0.00106499 -0.00327423 1.96122e-05 5.82863e-06 0.000376939)
(0.125397 -0.00102677 -0.00323808 1.79793e-05 2.60397e-06 0.000340299)
(0.126046 -0.000884174 -0.00322214 1.52674e-05 8.63362e-07 0.000317383)
(0.132358 -0.000872286 -0.00314928 1.40911e-05 1.91129e-06 0.000289568)
(0.132722 -0.000699195 -0.00311343 1.12279e-05 -1.32824e-07 0.000276651)
(0.137758 -0.0007681 -0.00301828 1.15321e-05 4.46766e-06 0.000261627)
(0.13813 -0.000506199 -0.00297832 7.41805e-06 -1.62833e-06 0.000260352)
(0.142087 -0.000722765 -0.00286793 1.04476e-05 9.20679e-06 0.000256396)
(0.142637 -8.38112e-05 -0.00283958 2.33033e-06 -9.59972e-06 0.000263886)
(0.146565 -0.000501633 -0.00274591 8.83169e-06 1.50945e-05 0.000265537)
(0.143578 0.00278435 -0.00263549 9.00632e-05 -6.01001e-05 0.000274878)
(0.165584 0.000195209 -0.00234964 9.20808e-05 -2.41608e-05 0.000270093)
(0.0027428 8.72276e-05 1.36345e-05 0.000415513 2.81487e-06 2.74855e-07)
(0.0114454 -0.00253158 8.63883e-07 0.000791531 1.61921e-06 2.24089e-07)
(0.0284651 -0.00413021 1.11654e-05 0.000776397 1.42466e-06 2.51135e-07)
(0.0704616 -0.00489228 2.38472e-05 0.000393894 -8.99612e-07 2.19362e-07)
(0.0909218 -0.00376044 2.64608e-05 0.000185257 -7.07184e-08 2.39953e-07)
(0.131821 -0.00288575 4.18012e-05 7.63194e-05 -3.24704e-07 2.0749e-07)
(0.138933 -0.00200071 3.4869e-05 3.85569e-05 3.34407e-07 2.24322e-07)
(0.169421 -0.00163419 4.80868e-05 2.29596e-05 2.73362e-07 1.92944e-07)
(0.168895 -0.00130603 3.7294e-05 1.73338e-05 6.11224e-07 2.08557e-07)
(0.192751 -0.00126099 4.96599e-05 1.5036e-05 4.87645e-07 1.79898e-07)
(0.189663 -0.00111467 3.77906e-05 1.35937e-05 6.75501e-07 1.94134e-07)
(0.209339 -0.00117188 4.99627e-05 1.36426e-05 5.52567e-07 1.68121e-07)
(0.205615 -0.00101969 3.78796e-05 1.21659e-05 6.58275e-07 1.80171e-07)
(0.222281 -0.00114481 5.00781e-05 1.40747e-05 6.43426e-07 1.56418e-07)
(0.218417 -0.000887144 3.80479e-05 1.05261e-05 5.37438e-07 1.66051e-07)
(0.233103 -0.00110589 5.06809e-05 1.67053e-05 8.701e-07 1.44503e-07)
(0.228076 -0.000402755 3.82213e-05 5.66719e-06 -3.91284e-08 1.52017e-07)
(0.242391 -0.000644075 5.33549e-05 2.36506e-05 1.33029e-06 1.32591e-07)
(0.229917 0.00388421 3.63706e-05 0.00016197 -1.55687e-06 1.39318e-07)
(0.226261 0.0066811 6.2382e-05 0.000369706 -1.0926e-06 1.17869e-07)
(0.00338345 0.000429167 1.15391e-05 0.000230298 7.02264e-07 2.11845e-07)
(0.00341623 0.000435722 5.35154e-06 0.000953468 -1.56776e-06 1.82798e-07)
(0.00866105 0.00160311 2.04729e-05 0.00133811 -3.1812e-06 1.99162e-07)
(0.00808106 0.000305639 1.80896e-05 0.0011527 -6.1305e-06 1.77173e-07)
(0.0120719 4.86416e-05 3.13041e-05 0.000801365 -4.87317e-06 1.88393e-07)
(0.0146956 -0.000900722 3.28003e-05 0.000479584 -4.75941e-06 1.64735e-07)
(0.0198052 -0.00100698 4.34487e-05 0.000282778 -3.40617e-06 1.73335e-07)
(0.026825 -0.00123707 4.60193e-05 0.000167544 -2.91663e-06 1.50216e-07)
(0.0331664 -0.00112612 5.37309e-05 0.000102906 -2.10059e-06 1.58604e-07)
(0.0428226 -0.00109777 5.6302e-05 6.62162e-05 -1.72154e-06 1.37607e-07)
(0.049464 -0.000946454 6.14485e-05 4.35113e-05 -1.24667e-06 1.4557e-07)
(0.0601015 -0.000861393 6.37043e-05 2.97948e-05 -1.00994e-06 1.26606e-07)
(0.0664208 -0.00073574 6.6679e-05 2.11365e-05 -7.29958e-07 1.33148e-07)
(0.0771246 -0.000646537 6.86149e-05 1.47557e-05 -6.30827e-07 1.15948e-07)
(0.0828402 -0.000585582 6.98902e-05 1.16482e-05 -4.20891e-07 1.20637e-07)
(0.0935451 -0.000377837 7.17653e-05 8.34604e-06 -3.86671e-07 1.0546e-07)
(0.0980017 -0.000602715 7.17856e-05 9.62706e-06 -2.34382e-07 1.0826e-07)
(0.110088 0.000483189 7.39311e-05 9.9008e-06 2.47071e-07 9.55639e-08)
(0.110188 -0.000563611 7.26388e-05 2.20416e-05 -1.88749e-07 9.64465e-08)
(0.135411 0.00381795 7.86871e-05 0.000256043 3.02397e-06 8.71915e-08)
(0.00296822 0.000135546 1.25726e-05 3.69844e-05 7.45251e-07 2.54452e-07)
(0.00356408 0.000389807 7.25481e-06 0.000415142 7.59609e-07 2.17631e-07)
(0.0132666 0.00242079 2.51941e-05 0.000854716 -5.72331e-10 2.40755e-07)
(0.0161998 0.00265702 1.30842e-05 0.000893346 -3.12987e-06 2.09606e-07)
(0.0303119 0.00361347 2.75079e-05 0.000797537 -2.62329e-06 2.2951e-07)
(0.0317027 0.0030014 1.58772e-05 0.000619177 -3.68931e-06 1.98276e-07)
(0.0437356 0.00302742 3.17341e-05 0.000488367 -2.66225e-06 2.1478e-07)
(0.0433435 0.00241851 2.23265e-05 0.000382826 -2.93599e-06 1.84584e-07)
(0.0532219 0.00231724 3.84757e-05 0.00030842 -2.0073e-06 1.99923e-07)
(0.0526487 0.00191108 3.05995e-05 0.000252468 -2.03569e-06 1.72102e-07)
(0.0613201 0.00182944 4.60041e-05 0.0002081 -1.27902e-06 1.86174e-07)
(0.0613784 0.00157685 3.92323e-05 0.000174215 -1.23096e-06 1.60747e-07)
(0.069176 0.00150592 5.33829e-05 0.00014729 -6.67851e-07 1.72794e-07)
(0.0701767 0.00136368 4.75275e-05 0.000120948 -5.67922e-07 1.49383e-07)
(0.0769893 0.00124583 6.01712e-05 0.000111539 -3.22289e-07 1.59156e-07)
(0.0793537 0.00122487 5.53276e-05 7.73678e-05 8.02042e-09 1.37661e-07)
(0.0846384 0.000878467 6.64275e-05 9.65897e-05 -4.89689e-07 1.45695e-07)
(0.0892674 0.00100816 6.27861e-05 3.67216e-05 6.4528e-07 1.2602e-07)
(0.0923748 -0.000219695 7.39729e-05 9.17102e-05 -1.35787e-06 1.34239e-07)
(0.0999824 -0.00105372 6.93724e-05 8.65432e-05 6.03589e-07 1.15627e-07)
(0.00279022 6.28471e-05 9.82026e-06 1.54805e-05 2.10596e-07 2.0602e-07)
(0.00321017 3.34216e-05 5.91349e-06 8.78907e-05 -3.60822e-07 1.82332e-07)
(0.0111188 0.000853566 1.86413e-05 0.000164139 -1.00884e-06 1.96965e-07)
(0.015099 0.001118 7.54571e-06 0.00018806 -2.33526e-06 1.74873e-07)
(0.0322248 0.00172241 1.69047e-05 0.000177444 -2.11567e-06 1.86027e-07)
(0.0384303 0.00167177 3.39526e-06 0.0001465 -2.48152e-06 1.62817e-07)
(0.057964 0.00181779 1.5141e-05 0.000120536 -2.00699e-06 1.71381e-07)
(0.0638619 0.00167844 2.2471e-06 9.86016e-05 -2.05007e-06 1.48571e-07)
(0.0829636 0.00170738 1.59903e-05 8.25544e-05 -1.63065e-06 1.56644e-07)
(0.0884967 0.00160306 4.12961e-06 7.01059e-05 -1.59068e-06 1.35787e-07)
(0.106679 0.00160933 1.89024e-05 6.00421e-05 -1.23271e-06 1.43526e-07)
(0.112047 0.00151644 8.17973e-06 5.14907e-05 -1.1638e-06 1.24751e-07)
(0.12925 0.00151637 2.33307e-05 4.5118e-05 -8.63414e-07 1.31281e-07)
(0.1345 0.00139535 1.37565e-05 3.74766e-05 -7.98706e-07 1.143e-07)
(0.150755 0.00142109 2.8905e-05 3.52318e-05 -5.56992e-07 1.19027e-07)
(0.1558 0.00120303 2.0144e-05 2.4993e-05 -4.73267e-07 1.04008e-07)
(0.170854 0.00125697 3.54486e-05 2.81069e-05 -3.37298e-07 1.06758e-07)
(0.176009 0.000756463 2.57674e-05 1.04938e-05 6.76241e-09 9.43176e-08)
(0.187104 0.000605965 4.29012e-05 1.6013e-05 -1.56809e-07 9.42337e-08)
(0.189888 -0.00027598 2.73517e-05 2.9845e-05 1.03841e-06 8.57458e-08)
(0.00291379 -1.59367e-09 1.22339e-05 8.18255e-11 -2.09371e-12 2.51674e-07)
(0.00332425 2.36722e-09 7.5069e-06 6.58373e-11 -5.68599e-12 2.18566e-07)
(0.0119181 2.99387e-09 2.54541e-05 5.01783e-11 5.49969e-12 2.40798e-07)
(0.0158254 4.02761e-09 1.33595e-05 3.38527e-11 -4.50314e-12 2.09495e-07)
(0.0334915 4.0187e-09 2.64841e-05 3.74775e-11 1.21571e-11 2.29411e-07)
(0.0403269 2.73692e-08 1.15982e-05 5.00904e-11 -2.17099e-11 1.9825e-07)
(0.0614668 2.36958e-08 2.61438e-05 6.80438e-11 -9.20517e-12 2.14838e-07)
(0.0689547 3.90521e-08 1.17863e-05 8.36379e-11 -2.83738e-11 1.8468e-07)
(0.0906513 1.44936e-07 2.79248e-05 1.02044e-10 -6.36208e-11 1.99916e-07)
(0.0985939 2.20893e-07 1.45913e-05 1.17089e-10 -7.64773e-11 1.72035e-07)
(0.120127 4.62755e-07 3.15887e-05 1.38897e-10 -1.98849e-10 1.86014e-07)
(0.12869 5.37031e-07 1.9487e-05 1.56221e-10 -1.23301e-10 1.60563e-07)
(0.149538 1.48393e-06 3.68297e-05 2.05059e-10 -4.13758e-10 1.72617e-07)
(0.158935 1.74039e-06 2.61431e-05 2.43398e-10 -3.98759e-10 1.49219e-07)
(0.178184 4.1317e-06 4.34838e-05 4.18275e-10 -6.9326e-10 1.59061e-07)
(0.189085 3.68434e-06 3.42584e-05 4.7335e-10 -8.65185e-10 1.37576e-07)
(0.204547 1.03725e-05 5.17015e-05 1.28571e-09 -1.327e-09 1.45776e-07)
(0.21849 8.38501e-06 4.31974e-05 1.22966e-09 -1.22805e-09 1.2609e-07)
(0.225429 2.64291e-05 6.39101e-05 7.10875e-09 -2.07796e-09 1.34616e-07)
(0.240841 3.83397e-05 5.31826e-05 1.27179e-08 9.00269e-10 1.15788e-07)
(0.00279022 -6.28526e-05 9.82047e-06 1.54804e-05 -2.10593e-07 2.0602e-07)
(0.00321017 -3.34143e-05 5.91356e-06 8.78909e-05 3.60798e-07 1.82332e-07)
(0.0111188 -0.000853555 1.86415e-05 0.000164141 1.00886e-06 1.96965e-07)
(0.015099 -0.00111799 7.54608e-06 0.000188058 2.33523e-06 1.74874e-07)
(0.0322248 -0.00172241 1.69052e-05 0.000177445 2.11571e-06 1.86027e-07)
(0.0384304 -0.00167171 3.39568e-06 0.000146492 2.48142e-06 1.62817e-07)
(0.0579639 -0.00181777 1.51413e-05 0.000120536 2.00701e-06 1.71382e-07)
(0.0638622 -0.00167832 2.24735e-06 9.85822e-05 2.04988e-06 1.48571e-07)
(0.0829634 -0.00170721 1.59907e-05 8.25433e-05 1.63061e-06 1.56644e-07)
(0.0884976 -0.00160241 4.12953e-06 7.00648e-05 1.5903e-06 1.35787e-07)
(0.106678 -0.00160883 1.89025e-05 5.99991e-05 1.23245e-06 1.43526e-07)
(0.112049 -0.00151467 8.17943e-06 5.14031e-05 1.16307e-06 1.24751e-07)
(0.129249 -0.00151485 2.33306e-05 4.5003e-05 8.62467e-07 1.31281e-07)
(0.134508 -0.00138924 1.37562e-05 3.72879e-05 7.97275e-07 1.14301e-07)
(0.150757 -0.00141752 2.89027e-05 3.49751e-05 5.5393e-07 1.19026e-07)
(0.15582 -0.00118605 2.01405e-05 2.46258e-05 4.71957e-07 1.04011e-07)
(0.170868 -0.0012492 3.54423e-05 2.75667e-05 3.28187e-07 1.06756e-07)
(0.17606 -0.00071455 2.57605e-05 9.94929e-06 -4.18007e-09 9.43197e-08)
(0.187174 -0.000599309 4.29043e-05 1.54195e-05 1.35959e-07 9.42397e-08)
(0.190028 0.000342049 2.73409e-05 2.92192e-05 -1.03137e-06 8.57544e-08)
(0.00296823 -0.00013555 1.25729e-05 3.69848e-05 -7.45261e-07 2.54451e-07)
(0.00356409 -0.000389802 7.25475e-06 0.000415143 -7.59618e-07 2.17631e-07)
(0.0132666 -0.00242078 2.51946e-05 0.000854718 5.83722e-10 2.40755e-07)
(0.0161998 -0.00265701 1.30852e-05 0.000893344 3.12987e-06 2.09607e-07)
(0.0303119 -0.00361346 2.75096e-05 0.000797534 2.62332e-06 2.29511e-07)
(0.0317029 -0.00300137 1.58787e-05 0.00061917 3.68928e-06 1.98276e-07)
(0.0437356 -0.00302737 3.17355e-05 0.000488354 2.66225e-06 2.14781e-07)
(0.0433438 -0.00241851 2.23278e-05 0.000382808 2.93594e-06 1.84584e-07)
(0.0532218 -0.00231704 3.84769e-05 0.000308379 2.00722e-06 1.99924e-07)
(0.0526497 -0.00191092 3.05999e-05 0.000252429 2.03553e-06 1.72101e-07)
(0.06132 -0.001829 4.60053e-05 0.000207998 1.2787e-06 1.86175e-07)
(0.0613812 -0.00157658 3.92336e-05 0.000174113 1.23068e-06 1.60746e-07)
(0.0691766 -0.00150476 5.33825e-05 0.000147068 6.67143e-07 1.72793e-07)
(0.0701845 -0.00136248 4.75264e-05 0.000120708 5.67039e-07 1.49385e-07)
(0.0769921 -0.00124297 6.01667e-05 0.00011106 3.21115e-07 1.59151e-07)
(0.0793736 -0.00122229 5.53321e-05 7.69154e-05 -1.00437e-08 1.3767e-07)
(0.0846491 -0.000871801 6.64171e-05 9.55068e-05 4.87592e-07 1.4568e-07)
(0.0893102 -0.00100216 6.27906e-05 3.62056e-05 -6.4625e-07 1.26047e-07)
(0.0924073 0.000232446 7.39446e-05 9.04597e-05 1.35462e-06 1.34211e-07)
(0.10006 0.00106629 6.93645e-05 8.68113e-05 -5.93167e-07 1.15675e-07)
(0.00338346 -0.000429167 1.15395e-05 0.000230299 -7.02272e-07 2.11845e-07)
(0.00341623 -0.000435717 5.35173e-06 0.000953469 1.56774e-06 1.82798e-07)
(0.00866106 -0.00160311 2.04735e-05 0.00133811 3.18119e-06 1.99162e-07)
(0.00808105 -0.000305638 1.80908e-05 0.00115269 6.13048e-06 1.77173e-07)
(0.0120719 -4.86341e-05 3.13056e-05 0.000801365 4.87319e-06 1.88393e-07)
(0.0146955 0.000900724 3.28017e-05 0.000479577 4.75937e-06 1.64736e-07)
(0.0198051 0.00100699 4.345e-05 0.000282775 3.40619e-06 1.73336e-07)
(0.0268247 0.00123699 4.60202e-05 0.000167531 2.91652e-06 1.50216e-07)
(0.0331665 0.00112611 5.37321e-05 0.000102898 2.10058e-06 1.58604e-07)
(0.042821 0.0010976 5.63014e-05 6.61955e-05 1.72129e-06 1.37607e-07)
(0.0494639 0.000946328 6.145e-05 4.34924e-05 1.24661e-06 1.45571e-07)
(0.0600961 0.000860674 6.37025e-05 2.97618e-05 1.0094e-06 1.26605e-07)
(0.0664189 0.000735341 6.66806e-05 2.11014e-05 7.29743e-07 1.33149e-07)
(0.07711 0.000644914 6.86104e-05 1.47091e-05 6.29947e-07 1.15947e-07)
(0.0828268 0.000584068 6.98869e-05 1.15938e-05 4.19754e-07 1.20635e-07)
(0.0935112 0.000374584 7.17601e-05 8.32114e-06 3.86469e-07 1.05466e-07)
(0.0979485 0.000596571 7.17653e-05 9.51442e-06 2.28879e-07 1.08246e-07)
(0.110005 -0.000483512 7.39356e-05 9.95162e-06 -2.4098e-07 9.55875e-08)
(0.110048 0.00054305 7.25863e-05 2.14163e-05 1.72025e-07 9.64188e-08)
(0.135136 -0.00380931 7.86826e-05 0.00025453 -3.0053e-06 8.72361e-08)
(0.00274281 -8.7229e-05 1.3635e-05 0.000415512 -2.81486e-06 2.74852e-07)
(0.0114454 0.00253159 8.64146e-07 0.000791532 -1.61924e-06 2.24088e-07)
(0.0284651 0.00413022 1.11664e-05 0.000776396 -1.42468e-06 2.51134e-07)
(0.0704616 0.00489229 2.38494e-05 0.000393895 8.99585e-07 2.19363e-07)
(0.0909217 0.00376043 2.64634e-05 0.000185256 7.06982e-08 2.39954e-07)
(0.131821 0.00288578 4.18038e-05 7.63201e-05 3.24704e-07 2.0749e-07)
(0.138933 0.00200067 3.4871e-05 3.85552e-05 -3.34427e-07 2.24322e-07)
(0.16942 0.00163422 4.80886e-05 2.29604e-05 -2.73355e-07 1.92943e-07)
(0.168894 0.00130588 3.72955e-05 1.73313e-05 -6.11304e-07 2.08556e-07)
(0.192749 0.00126105 4.966e-05 1.50357e-05 -4.87541e-07 1.79896e-07)
(0.18966 0.0011142 3.77926e-05 1.35876e-05 -6.75663e-07 1.94134e-07)
(0.209331 0.00117205 4.99618e-05 1.36447e-05 -5.5248e-07 1.68118e-07)
(0.205606 0.0010184 3.78823e-05 1.21515e-05 -6.58577e-07 1.80171e-07)
(0.222261 0.001145 5.00698e-05 1.40793e-05 -6.43452e-07 1.56414e-07)
(0.218389 0.000884037 3.80545e-05 1.04892e-05 -5.37631e-07 1.66051e-07)
(0.233058 0.00110641 5.06617e-05 1.67194e-05 -8.70111e-07 1.44502e-07)
(0.227993 0.000397136 3.82395e-05 5.59837e-06 3.99921e-08 1.52003e-07)
(0.242311 0.000648877 5.33178e-05 2.36832e-05 -1.33053e-06 1.32632e-07)
(0.229712 -0.00387266 3.64026e-05 0.00016139 1.5581e-06 1.39198e-07)
(0.226304 -0.00660566 6.23764e-05 0.000364027 1.09774e-06 1.18127e-07)
(0.00259723 8.22616e-05 1.38467e-10 8.14095e-05 7.87673e-11 8.62404e-16)
(0.00515733 -0.0008672 -2.78448e-10 0.000407065 2.07429e-10 4.18774e-16)
(0.0133857 -0.00217017 -5.78208e-10 0.000626947 2.6718e-10 1.08344e-15)
(0.0370949 -0.00422983 -1.68023e-09 0.00062594 2.67072e-10 6.51622e-16)
(0.0639673 -0.00511193 -2.04249e-09 0.000499482 2.29351e-10 1.28035e-15)
(0.110492 -0.00560448 -2.74078e-09 0.000341234 1.77567e-10 9.81235e-16)
(0.146677 -0.00494616 -2.71349e-09 0.000202407 1.28087e-10 1.89748e-15)
(0.197185 -0.00406957 -3.03421e-09 0.000106844 9.04603e-11 1.72881e-15)
(0.226881 -0.00286251 -3.11144e-09 4.95433e-05 6.33062e-11 1.84402e-15)
(0.268342 -0.0018812 -3.32034e-09 2.07985e-05 4.44257e-11 1.70509e-15)
(0.286925 -0.00101199 -3.4382e-09 7.77337e-06 2.86237e-11 1.48209e-15)
(0.318311 -0.000489013 -3.53305e-09 3.30967e-06 1.77817e-11 1.55202e-15)
(0.328898 -4.12046e-05 -3.59529e-09 1.98733e-06 6.60771e-12 1.51126e-15)
(0.353426 7.69132e-05 -3.58458e-09 1.94188e-06 2.93627e-12 1.75458e-15)
(0.359657 0.000314948 -3.61998e-09 1.88337e-06 -5.41662e-12 1.71478e-15)
(0.380393 0.000243932 -3.56612e-09 2.39801e-06 -1.15714e-12 1.88372e-15)
(0.382853 0.000292118 -3.60343e-09 2.37102e-06 -1.02369e-11 1.87471e-15)
(0.404722 0.000907731 -3.37524e-09 4.97591e-06 -7.71482e-12 2.43843e-15)
(0.392268 0.000114988 -3.1631e-09 8.44587e-06 -1.08802e-11 2.51351e-15)
(0.42854 0.00903947 -3.17046e-09 0.000218357 -1.24691e-10 2.07437e-15)
(0.0027539 0.000102341 1.46827e-10 4.64102e-05 5.61652e-11 7.39132e-16)
(0.00335768 0.000183977 2.76194e-10 0.000283439 1.70058e-10 3.83086e-16)
(0.00840196 0.00109684 7.63298e-10 0.000629353 2.65711e-10 8.74558e-16)
(0.0096773 0.0011443 6.59196e-10 0.000923569 3.19735e-10 5.80765e-16)
(0.0149192 0.00158539 1.10153e-09 0.00106871 3.26254e-10 1.08067e-15)
(0.0156387 0.000871884 1.10475e-09 0.00102691 2.9547e-10 9.32375e-16)
(0.0201019 0.000628777 1.57079e-09 0.000882906 2.54799e-10 1.66776e-15)
(0.0220377 -0.000158402 1.5963e-09 0.000686216 2.12701e-10 1.66219e-15)
(0.0272471 -0.00037492 1.76681e-09 0.000515617 1.82719e-10 1.75535e-15)
(0.0317708 -0.000788639 1.72144e-09 0.000368138 1.55397e-10 1.71912e-15)
(0.0383287 -0.000821449 1.74655e-09 0.000269057 1.38626e-10 1.50548e-15)
(0.0452582 -0.00098002 1.70201e-09 0.000189557 1.19626e-10 1.62107e-15)
(0.052811 -0.000944192 1.70226e-09 0.000145356 1.0969e-10 1.55232e-15)
(0.0614969 -0.000967466 1.68225e-09 0.000100392 9.44578e-11 1.79616e-15)
(0.0694383 -0.0010003 1.67608e-09 8.87538e-05 8.73003e-11 1.74623e-15)
(0.0796566 -0.000745202 1.65305e-09 5.13753e-05 7.61599e-11 1.92519e-15)
(0.0869785 -0.00118524 1.63991e-09 6.64472e-05 6.86118e-11 1.90638e-15)
(0.0995642 8.09856e-05 1.74879e-09 2.33406e-05 5.55894e-11 2.47843e-15)
(0.104191 -0.00125359 1.99457e-09 4.91535e-05 5.54032e-11 2.51498e-15)
(0.120257 0.00301295 1.86763e-09 0.000153948 -1.77641e-11 2.08449e-15)
(0.00271728 3.7654e-05 1.12886e-10 8.65788e-06 2.49672e-11 5.84887e-16)
(0.00328997 6.58656e-05 2.37611e-10 8.47625e-05 9.31942e-11 3.53041e-16)
(0.00844741 0.000670625 7.50222e-10 0.000236774 1.6284e-10 7.58996e-16)
(0.011246 0.00107696 8.61899e-10 0.000403441 2.11508e-10 5.63376e-16)
(0.021181 0.00204782 1.5236e-09 0.000524113 2.29254e-10 9.16334e-16)
(0.0262853 0.00238436 1.84975e-09 0.000567495 2.21646e-10 8.58163e-16)
(0.0390018 0.0029612 2.57985e-09 0.000541869 2.02914e-10 1.42828e-15)
(0.044241 0.00291518 2.9175e-09 0.000478165 1.82453e-10 1.5267e-15)
(0.0567509 0.00304893 3.36068e-09 0.000402909 1.65949e-10 1.59006e-15)
(0.0609377 0.00281323 3.59041e-09 0.000332476 1.51319e-10 1.64989e-15)
(0.0720115 0.00275188 3.86471e-09 0.000274492 1.40432e-10 1.46091e-15)
(0.0752941 0.00250437 4.05177e-09 0.000226543 1.29989e-10 1.61591e-15)