/*--------------------------------*- C++ -*----------------------------------*\
  =========                 |
  \\      /  F ield         | OpenFOAM: The Open Source CFD Toolbox
   \\    /   O peration     | Website:  https://openfoam.org
    \\  /    A nd           | Version:  7
     \\/     M anipulation  |
\*---------------------------------------------------------------------------*/
FoamFile
{
    version     2.0;
    format      ascii;
    class       volSymmTensorField;
    location    "0.0525";
    object      UPrime2Mean;
}
// * * * * * * * * * * * * * * * * * * * * * * * * * * * * * * * * * * * * * //

dimensions      [0 2 -2 0 0 0 0];

internalField   nonuniform List<symmTensor> 
4950
(
(0.181482 -0.0342392 -0.00913854 0.0186382 0.00577812 0.0020538)
(0.415412 -0.0163081 -0.0204684 0.00126404 0.00106815 0.00138495)
(0.468159 -0.00243081 -0.0144981 6.59709e-05 4.39531e-05 0.000893829)
(0.617399 0.00320538 -0.0158093 9.90781e-05 -0.000206756 0.000617375)
(0.580086 0.00247138 -0.0129872 0.000122698 -0.000248669 0.000637206)
(0.724963 0.00320459 -0.0151234 0.0001331 -0.000234452 0.00055583)
(0.682735 0.00179398 -0.0131872 0.000141752 -0.000246081 0.000588955)
(0.824833 0.00207737 -0.0148627 0.000140134 -0.000221764 0.000523565)
(0.785623 0.000765329 -0.0133792 0.000144583 -0.000225124 0.000547198)
(0.921776 0.000840228 -0.0146703 0.000141518 -0.000202926 0.000492894)
(0.888193 -0.000338259 -0.0135546 0.000142921 -0.000200659 0.000509321)
(1.01529 -0.000367788 -0.0145376 0.000142253 -0.000183864 0.000463958)
(0.98744 -0.00150093 -0.0137263 0.000134971 -0.000171581 0.00047525)
(1.10316 -0.00146503 -0.0144506 0.000145128 -0.000167603 0.000437042)
(1.08147 -0.00281615 -0.0138966 0.000103042 -0.000121415 0.000444853)
(1.18467 -0.00227319 -0.0143967 0.000154697 -0.000159158 0.000412028)
(1.17 -0.00423888 -0.0140573 2.62143e-05 1.90049e-05 0.000417288)
(1.26226 -0.00218908 -0.0144439 0.000157031 -0.000155442 0.000390873)
(1.25691 -0.00201347 -0.0142626 0.00087364 0.000439707 0.000377776)
(1.34023 0.00523293 -0.0114237 0.00373031 0.00095768 0.000379818)
(0.14297 0.0215195 0.0065475 0.0265636 0.00626672 0.00159232)
(0.164809 0.00491573 0.000592017 0.0034638 0.00179151 0.000973388)
(0.311021 0.00522742 0.000678145 0.000572845 0.000399659 0.00033036)
(0.366495 0.00166925 -0.00347693 6.05805e-05 3.80317e-05 0.000107523)
(0.480395 0.00263216 -0.00350765 5.12575e-05 2.5978e-05 0.000103194)
(0.562944 0.00239937 -0.00599096 5.30843e-05 8.90045e-06 0.00010126)
(0.650071 0.00328901 -0.00611091 5.41224e-05 1.23296e-05 0.000120927)
(0.750993 0.00325483 -0.00830691 5.80988e-05 -1.83737e-06 0.000125889)
(0.820219 0.0039363 -0.00861478 5.65591e-05 -8.22822e-07 0.000144215)
(0.933495 0.00402014 -0.0106067 5.97266e-05 -1.37673e-05 0.000151115)
(0.99036 0.0045149 -0.011051 5.66747e-05 -1.40216e-05 0.000168384)
(1.11016 0.0047293 -0.0128757 6.07551e-05 -2.53633e-05 0.000176665)
(1.15741 0.00495387 -0.0134322 5.30042e-05 -2.6525e-05 0.000193572)
(1.27927 0.00543444 -0.0151092 6.30661e-05 -3.63859e-05 0.00020297)
(1.31925 0.00478589 -0.0157658 3.68514e-05 -3.61286e-05 0.000219994)
(1.44183 0.00626231 -0.0172807 7.26212e-05 -4.60955e-05 0.00022998)
(1.47457 0.00183381 -0.0180164 1.00953e-05 -2.82411e-05 0.000247213)
(1.61105 0.00780818 -0.0193976 0.000111145 -5.68057e-05 0.00025687)
(1.62014 -0.00968739 -0.020332 0.000311914 5.82986e-05 0.000276125)
(1.88344 0.00830447 -0.0149933 0.00013392 -8.13977e-05 0.00017135)
(0.156372 0.0143839 0.00827252 0.00683551 0.00308697 0.0015702)
(0.183543 0.00373183 0.00321634 0.000624296 0.000780012 0.00107782)
(0.352138 0.00239528 0.00257132 0.000118939 0.000198969 0.000381291)
(0.398527 -0.00101284 -0.00273449 1.75631e-05 -3.34001e-06 0.000122874)
(0.525332 -0.00226052 -0.00299414 2.66002e-05 -1.84786e-05 0.000111863)
(0.600971 -0.00235432 -0.00572257 3.5115e-05 -8.82235e-06 0.000109291)
(0.699047 -0.00318235 -0.00581535 3.81152e-05 -1.17961e-05 0.000129559)
(0.795325 -0.00308469 -0.00819576 3.82441e-05 8.3865e-07 0.000134999)
(0.873962 -0.00375396 -0.00848596 3.95439e-05 4.91115e-07 0.000153962)
(0.984215 -0.00372111 -0.0106468 3.88593e-05 1.14623e-05 0.000161389)
(1.04911 -0.00425896 -0.0110836 3.91459e-05 1.27709e-05 0.000179345)
(1.16706 -0.00433211 -0.0130598 3.91936e-05 2.19622e-05 0.000188096)
(1.22136 -0.00465124 -0.0136152 3.65986e-05 2.44358e-05 0.000205754)
(1.34131 -0.00492116 -0.0154269 3.99673e-05 3.18031e-05 0.000215452)
(1.38891 -0.00453974 -0.0160824 2.64335e-05 3.38769e-05 0.000233284)
(1.50391 -0.00537434 -0.0177309 3.94859e-05 4.02378e-05 0.000243294)
(1.55232 -0.00209022 -0.0184539 5.62248e-06 2.98725e-05 0.000261174)
(1.64542 -0.00289924 -0.0199274 6.66109e-06 3.05663e-05 0.000271034)
(1.72 0.00788846 -0.0207382 0.00013646 -3.8974e-05 0.000288735)
(1.73649 0.0333928 -0.0164321 0.00247343 -0.000121034 0.00018356)
(0.151469 0.00837161 0.007269 0.00240317 0.00174215 0.00135979)
(0.173191 0.00258023 0.00162754 0.000389215 0.000565006 0.000857753)
(0.345006 0.00335694 0.0011573 0.000129942 0.000161348 0.000259076)
(0.3965 0.00103723 -0.0037015 1.45729e-05 1.08445e-05 8.14043e-05)
(0.525478 0.00117103 -0.00434304 7.64027e-06 2.62537e-06 8.10979e-05)
(0.602012 0.000960315 -0.00688077 6.09385e-06 -4.56821e-06 9.54822e-05)
(0.7008 0.00124404 -0.00731465 6.01997e-06 -3.665e-06 0.000112131)
(0.797171 0.00123549 -0.00956287 6.39036e-06 -8.678e-06 0.000130117)
(0.876166 0.00145777 -0.0101403 6.22388e-06 -8.24815e-06 0.00014707)
(0.986467 0.00149504 -0.0122167 6.57769e-06 -1.28142e-05 0.000165204)
(1.0515 0.00164657 -0.0128926 6.22956e-06 -1.26336e-05 0.000182318)
(1.16986 0.00172828 -0.0148271 6.71391e-06 -1.66807e-05 0.000200321)
(1.22376 0.00177416 -0.0155833 5.77204e-06 -1.63593e-05 0.000218039)
(1.34598 0.00197819 -0.017391 6.99643e-06 -2.06535e-05 0.00023588)
(1.39087 0.0016456 -0.0182204 3.82935e-06 -1.77511e-05 0.000254543)
(1.51731 0.00228568 -0.0198845 8.15429e-06 -2.46679e-05 0.000271398)
(1.55318 0.000415764 -0.0207476 1.29923e-06 -7.61376e-06 0.000290713)
(1.70147 0.00285201 -0.0223841 1.14628e-05 -3.07759e-05 0.000306065)
(1.73405 -0.00320186 -0.023318 2.73328e-05 2.94332e-05 0.000326768)
(1.97206 0.00370824 -0.0190843 1.26024e-05 -3.17395e-05 0.000203422)
(0.151755 -3.79641e-07 0.00758175 5.687e-09 -2.58923e-09 0.00147947)
(0.174316 1.03928e-07 0.00213322 6.04115e-09 -1.39386e-08 0.00102881)
(0.347261 1.72089e-07 0.00224371 4.39606e-09 -1.60428e-08 0.000360925)
(0.398017 1.8397e-07 -0.00282233 2.04528e-09 -5.12477e-09 0.000117673)
(0.526854 -4.19337e-07 -0.00307978 1.90678e-09 2.56297e-10 0.000108233)
(0.602588 4.08925e-07 -0.00579782 2.51197e-09 -6.69731e-09 0.00010703)
(0.701091 -6.1157e-07 -0.00591434 3.39321e-09 -4.40218e-09 0.000126991)
(0.797207 -1.55941e-06 -0.00828984 4.16019e-09 1.93505e-08 0.000133445)
(0.876134 4.12454e-08 -0.00860172 4.98903e-09 3.7407e-09 0.000152224)
(0.986271 1.68547e-06 -0.0107606 5.78375e-09 -2.92366e-08 0.000160534)
(1.05141 -1.43183e-06 -0.0112164 6.61364e-09 4.19953e-09 0.000178413)
(1.16926 -3.08932e-06 -0.013193 7.30721e-09 4.68985e-08 0.000187935)
(1.22383 6.38578e-07 -0.0137651 8.26411e-09 8.98037e-09 0.000205594)
(1.34352 4.16239e-06 -0.0155791 9.62127e-09 -5.34699e-08 0.000215978)
(1.39158 1.45083e-07 -0.0162481 1.1752e-08 -3.55616e-08 0.000233878)
(1.50552 -1.21036e-06 -0.0178986 1.35119e-08 5.16317e-08 0.000244501)
(1.55531 -1.53629e-06 -0.0186261 1.802e-08 4.3871e-08 0.000262345)
(1.64543 2.9223e-05 -0.020113 2.37495e-08 -1.34202e-07 0.00027292)
(1.72367 2.26189e-05 -0.0209032 3.3249e-08 -4.00325e-07 0.00029023)
(1.7467 8.67426e-05 -0.0168853 6.11101e-08 -3.3839e-07 0.000186279)
(0.15147 -0.00837232 0.00726902 0.00240318 -0.00174215 0.00135979)
(0.173191 -0.00257943 0.00162754 0.000389238 -0.000565036 0.000857752)
(0.345006 -0.00335673 0.0011573 0.000129955 -0.000161379 0.000259076)
(0.3965 -0.00103618 -0.00370149 1.45833e-05 -1.08617e-05 8.1404e-05)
(0.525478 -0.00117219 -0.00434303 7.64722e-06 -2.63242e-06 8.1097e-05)
(0.602013 -0.00095931 -0.00688077 6.10239e-06 4.55265e-06 9.54817e-05)
(0.7008 -0.00124576 -0.00731466 6.02758e-06 3.65122e-06 0.000112131)
(0.797171 -0.00123867 -0.00956285 6.39716e-06 8.71513e-06 0.000130117)
(0.876168 -0.00145856 -0.0101403 6.23079e-06 8.26389e-06 0.000147069)
(0.986468 -0.00149177 -0.0122167 6.58914e-06 1.27535e-05 0.000165204)
(1.0515 -0.0016488 -0.0128926 6.23873e-06 1.26149e-05 0.000182319)
(1.16986 -0.00173508 -0.0148271 6.71135e-06 1.67807e-05 0.000200321)
(1.22376 -0.00177557 -0.0155833 5.78092e-06 1.64127e-05 0.000218038)
(1.34598 -0.00196937 -0.017391 7.0052e-06 2.05284e-05 0.000235879)
(1.39087 -0.00164161 -0.0182204 3.84007e-06 1.76153e-05 0.000254542)
(1.51731 -0.00228779 -0.0198846 8.07795e-06 2.46942e-05 0.000271401)
(1.5532 -0.000426407 -0.0207476 1.28466e-06 7.80866e-06 0.000290712)
(1.70148 -0.0028148 -0.0223849 1.11218e-05 3.0462e-05 0.000306078)
(1.7341 0.00321201 -0.0233162 2.70177e-05 -2.96796e-05 0.000326734)
(1.97224 -0.00349673 -0.0190969 1.14085e-05 3.05151e-05 0.000203512)
(0.156373 -0.0143845 0.00827255 0.00683554 -0.00308697 0.0015702)
(0.183543 -0.00373142 0.00321634 0.000624341 -0.000780046 0.00107782)
(0.352139 -0.00239512 0.00257131 0.000118947 -0.000198992 0.000381287)
(0.398528 0.00101335 -0.0027345 1.75573e-05 3.32828e-06 0.000122872)
(0.525334 0.00225966 -0.00299412 2.65921e-05 1.84752e-05 0.00011186)
(0.600974 0.00235494 -0.00572255 3.51054e-05 8.81054e-06 0.000109289)
(0.699049 0.00318108 -0.00581536 3.81058e-05 1.17871e-05 0.000129557)
(0.795326 0.00308219 -0.00819575 3.82317e-05 -8.09909e-07 0.000134998)
(0.873965 0.00375362 -0.00848594 3.95327e-05 -4.82679e-07 0.000153959)
(0.984218 0.00372366 -0.0106469 3.88504e-05 -1.15116e-05 0.000161387)
(1.04911 0.00425691 -0.0110837 3.91373e-05 -1.27758e-05 0.000179346)
(1.16706 0.00432685 -0.0130598 3.91879e-05 -2.18813e-05 0.000188095)
(1.22137 0.00465109 -0.0136152 3.65835e-05 -2.4411e-05 0.000205749)
(1.34132 0.00492807 -0.015427 3.9983e-05 -3.18989e-05 0.00021545)
(1.38892 0.00454164 -0.0160825 2.64309e-05 -3.39621e-05 0.000233287)
(1.50391 0.00537234 -0.0177309 3.95936e-05 -4.01665e-05 0.000243293)
(1.55234 0.00208419 -0.0184531 5.6344e-06 -2.97715e-05 0.000261169)
(1.64543 0.00293732 -0.0199321 6.88516e-06 -3.07287e-05 0.000271033)
(1.72013 -0.00786524 -0.0207115 0.000136816 3.79238e-05 0.000288737)
(1.73655 -0.0332459 -0.0165485 0.00244629 0.000132903 0.000183337)
(0.142971 -0.0215202 0.00654755 0.0265636 -0.00626675 0.00159234)
(0.16481 -0.00491518 0.000592031 0.00346387 -0.00179154 0.000973401)
(0.311022 -0.00522772 0.000678097 0.000572868 -0.000399675 0.000330353)
(0.366496 -0.00166917 -0.00347699 6.06006e-05 -3.80331e-05 0.000107515)
(0.480398 -0.00263367 -0.00350774 5.12727e-05 -2.59732e-05 0.000103185)
(0.562947 -0.00239944 -0.00599103 5.31036e-05 -8.89994e-06 0.000101254)
(0.650072 -0.00329076 -0.00611105 5.41411e-05 -1.23269e-05 0.00012092)
(0.750994 -0.00325715 -0.00830699 5.81166e-05 1.86582e-06 0.000125884)
(0.820222 -0.00393726 -0.00861488 5.65801e-05 8.3493e-07 0.000144207)
(0.933497 -0.00401908 -0.0106068 5.9744e-05 1.3745e-05 0.000151111)
(0.990358 -0.00451745 -0.0110512 5.6687e-05 1.40363e-05 0.000168383)
(1.11016 -0.00473325 -0.0128758 6.07764e-05 2.54196e-05 0.000176662)
(1.15742 -0.00495389 -0.0134323 5.30194e-05 2.65392e-05 0.000193564)
(1.27927 -0.00543128 -0.0151093 6.30461e-05 3.63435e-05 0.000202966)
(1.31925 -0.00478727 -0.015766 3.68668e-05 3.61112e-05 0.000219997)
(1.44183 -0.00626422 -0.0172816 7.25127e-05 4.61674e-05 0.000229982)
(1.4746 -0.00183619 -0.018011 1.00594e-05 2.83229e-05 0.000247217)
(1.61109 -0.007774 -0.0194358 0.000109912 5.76507e-05 0.00025696)
(1.62025 0.00968628 -0.0201254 0.000310057 -4.95616e-05 0.000275053)
(1.88401 -0.00811067 -0.0161538 0.000133105 7.41204e-05 0.000168094)
(0.181484 0.0342386 -0.00913837 0.0186381 -0.00577806 0.00205379)
(0.415415 0.0163089 -0.0204689 0.00126404 -0.00106818 0.00138501)
(0.468161 0.00243052 -0.0144983 6.59683e-05 -4.39722e-05 0.000893858)
(0.617401 -0.00320438 -0.0158103 9.90504e-05 0.000206736 0.000617443)
(0.58009 -0.00247218 -0.012988 0.000122669 0.000248651 0.000637261)
(0.724968 -0.00320399 -0.0151245 0.000133066 0.000234431 0.000555885)
(0.682738 -0.00179493 -0.0131882 0.000141718 0.00024606 0.00058901)
(0.824836 -0.00207802 -0.0148638 0.000140096 0.000221753 0.000523616)
(0.785629 -0.000766137 -0.0133802 0.00014455 0.000225115 0.000547247)
(0.921781 -0.00083944 -0.0146716 0.000141487 0.000202893 0.000492944)
(0.888192 0.000337878 -0.0135558 0.00014288 0.000200621 0.000509375)
(1.01529 0.000365811 -0.0145388 0.000142226 0.000183876 0.000464005)
(0.987447 0.00149985 -0.0137275 0.000134937 0.000171582 0.000475294)
(1.10316 0.00146696 -0.0144521 0.00014509 0.000167553 0.00043709)
(1.08146 0.0028176 -0.0138982 0.00010301 0.000121348 0.000444916)
(1.18467 0.00227079 -0.0143976 0.000154736 0.000159183 0.000412019)
(1.16999 0.00423487 -0.0140626 2.61675e-05 -1.90105e-05 0.00041787)
(1.26228 0.00219169 -0.0144163 0.000157003 0.000154043 0.00038712)
(1.25689 0.00200372 -0.0143653 0.000875179 -0.000461573 0.00040037)
(1.34039 -0.00530245 -0.0112863 0.00371525 -0.000742539 0.000272421)
(0.139747 0.00379006 0.000632393 0.00105571 8.27576e-05 8.47379e-06)
(0.18363 -0.0089867 -7.50926e-05 0.00314462 0.000125493 6.3125e-06)
(0.276778 -0.00188216 0.000450523 0.00144226 9.16441e-05 7.44786e-06)
(0.385626 -0.00327646 0.000203828 0.000483221 4.88348e-05 5.99512e-06)
(0.431236 0.000986875 0.000622679 0.000252857 3.91128e-05 6.8764e-06)
(0.545698 0.000273768 0.000485342 0.00018973 3.03112e-05 5.64705e-06)
(0.579247 0.00244043 0.000783656 0.000175103 3.1079e-05 6.34282e-06)
(0.699679 0.00193795 0.000684234 0.000166206 2.72774e-05 5.30694e-06)
(0.728904 0.00358104 0.000904452 0.000164494 2.86743e-05 5.8449e-06)
(0.852508 0.00334685 0.000835283 0.000162296 2.59686e-05 4.98062e-06)
(0.879916 0.004662 0.00100206 0.000160451 2.70008e-05 5.38399e-06)
(1.00305 0.004647 0.000961117 0.0001616 2.49809e-05 4.66925e-06)
(1.02915 0.00566455 0.00108829 0.000151849 2.50447e-05 4.96101e-06)
(1.1486 0.00584896 0.00107538 0.000163249 2.42078e-05 4.37383e-06)
(1.17451 0.00628587 0.00117156 0.000115665 2.0717e-05 4.57714e-06)
(1.28837 0.0069021 0.00118833 0.000178754 2.43348e-05 4.09556e-06)
(1.31527 0.0044077 0.00125729 3.01509e-05 3.58125e-06 4.23689e-06)
(1.42969 0.00809757 0.0013206 0.000301902 2.87812e-05 3.83623e-06)
(1.44972 -0.0135604 0.0013306 0.00210054 -7.17369e-05 3.9672e-06)
(1.6675 -0.0163035 0.00159677 0.00158037 -5.28179e-05 3.57323e-06)
(0.134982 0.00117617 0.000520342 0.000376421 2.78757e-05 5.7771e-06)
(0.156073 -2.45415e-05 0.000268054 0.000995804 4.75897e-05 4.34071e-06)
(0.304868 -0.000339449 0.000918597 9.11739e-05 2.62486e-06 5.18806e-06)
(0.351695 -0.00138939 0.000709773 6.88579e-05 -1.41139e-05 4.034e-06)
(0.479078 -0.00358152 0.00110014 0.000104061 -2.01992e-05 4.74065e-06)
(0.548065 -0.00282193 0.000926704 0.000100315 -1.72042e-05 3.76311e-06)
(0.653198 -0.00432322 0.00119438 9.57109e-05 -1.82463e-05 4.31682e-06)
(0.740083 -0.00385795 0.00104796 9.17257e-05 -1.56427e-05 3.4975e-06)
(0.829424 -0.00507268 0.00124283 9.07384e-05 -1.66812e-05 3.9218e-06)
(0.929697 -0.00486814 0.00112097 8.96413e-05 -1.47237e-05 3.24239e-06)
(1.0071 -0.00585103 0.00126628 8.8976e-05 -1.55302e-05 3.55724e-06)
(1.11557 -0.00584676 0.00116908 8.96436e-05 -1.40242e-05 2.99935e-06)
(1.18291 -0.00651398 0.00127743 8.42296e-05 -1.41871e-05 3.22334e-06)
(1.29465 -0.00678033 0.00120533 9.1027e-05 -1.3457e-05 2.77038e-06)
(1.35459 -0.00653502 0.00128473 6.30981e-05 -1.14158e-05 2.91928e-06)
(1.46406 -0.00759517 0.00123666 9.30992e-05 -1.29168e-05 2.55831e-06)
(1.52212 -0.00348624 0.00129353 1.45401e-05 -3.0253e-06 2.64086e-06)
(1.61418 -0.00565647 0.00125812 3.48965e-05 -7.57399e-06 2.36504e-06)
(1.69835 0.00792598 0.00130431 0.000181322 1.44746e-05 2.36758e-06)
(1.66703 0.0281515 0.00120272 0.00335125 5.37053e-05 2.1709e-06)
(0.133031 0.00117924 0.000549363 0.000104758 2.58112e-05 7.59676e-06)
(0.156403 0.00072368 0.000308458 0.0010399 6.91607e-05 6.03567e-06)
(0.311356 0.00507069 0.00106344 0.000497483 5.10283e-05 7.00409e-06)
(0.355285 0.00199867 0.000812365 0.000180008 2.83647e-05 5.61909e-06)
(0.486542 0.00314968 0.0012793 8.40305e-05 2.16396e-05 6.45863e-06)
(0.552591 0.00216435 0.00107239 5.61798e-05 1.58454e-05 5.27254e-06)
(0.660565 0.00315931 0.00140355 4.92572e-05 1.58709e-05 5.94338e-06)
(0.745649 0.00279544 0.00123765 4.59508e-05 1.37348e-05 4.9437e-06)
(0.837401 0.00363428 0.00148486 4.51026e-05 1.4408e-05 5.46278e-06)
(0.936505 0.00349305 0.0013533 4.44455e-05 1.29829e-05 4.62909e-06)
(1.0159 0.00415529 0.00154126 4.37377e-05 1.34922e-05 5.01815e-06)
(1.12377 0.00416397 0.00144173 4.42292e-05 1.24621e-05 4.32869e-06)
(1.19253 0.00458982 0.00158469 4.08877e-05 1.24035e-05 4.61052e-06)
(1.30501 0.00482543 0.00151688 4.48254e-05 1.20753e-05 4.04341e-06)
(1.36486 0.00450106 0.00162396 2.92451e-05 9.87432e-06 4.2427e-06)
(1.48138 0.00552094 0.00159037 4.85236e-05 1.20531e-05 3.77492e-06)
(1.53218 0.00163228 0.00166813 8.56952e-06 6.08142e-07 3.9247e-06)
(1.66815 0.00601135 0.00168242 5.49519e-05 1.18294e-05 3.52775e-06)
(1.7099 -0.0115962 0.00174734 0.000381018 -2.85293e-05 3.69777e-06)
(1.92683 -0.00659256 0.00183413 8.55758e-05 -1.23902e-05 3.32897e-06)
(0.131188 0.000238873 0.00046985 3.50012e-05 8.72399e-06 5.5368e-06)
(0.15612 -0.000109993 0.000251741 0.0001031 1.53981e-05 4.35046e-06)
(0.303768 3.82987e-05 0.000910548 1.30227e-05 2.33215e-06 5.12515e-06)
(0.352918 -0.00037583 0.000719805 5.2112e-06 -3.21057e-06 3.9923e-06)
(0.483918 -0.0011523 0.00111578 1.00397e-05 -6.16579e-06 4.68435e-06)
(0.551788 -0.000958589 0.000943763 1.07598e-05 -5.57309e-06 3.71582e-06)
(0.660004 -0.00147195 0.00121224 1.06401e-05 -6.02851e-06 4.26367e-06)
(0.74542 -0.00131923 0.00106413 1.02637e-05 -5.18094e-06 3.45195e-06)
(0.837289 -0.00172409 0.00125907 1.01535e-05 -5.5284e-06 3.87177e-06)
(0.936389 -0.00165366 0.00113502 1.00299e-05 -4.87415e-06 3.19914e-06)
(1.0159 -0.00198265 0.00128028 9.92849e-06 -5.13588e-06 3.5103e-06)
(1.12348 -0.00198439 0.00118065 1.00279e-05 -4.63841e-06 2.95854e-06)
(1.19262 -0.00219444 0.00128892 9.32086e-06 -4.66627e-06 3.17925e-06)
(1.30342 -0.00228768 0.00121384 1.01527e-05 -4.44158e-06 2.73212e-06)
(1.36527 -0.00216599 0.00129328 6.75236e-06 -3.68289e-06 2.87705e-06)
(1.47202 -0.00251448 0.00124019 9.81554e-06 -4.14187e-06 2.52216e-06)
(1.53365 -0.00109158 0.00129691 1.4833e-06 -8.79096e-07 2.59578e-06)
(1.61579 -0.00139388 0.00125077 1.76127e-06 -1.49722e-06 2.3276e-06)
(1.70147 0.0024914 0.00128369 1.92324e-05 4.542e-06 2.29741e-06)
(1.68945 0.00920822 0.00119166 0.000353049 1.68428e-05 2.11254e-06)
(0.132962 -6.72939e-08 0.000544313 4.1868e-09 -2.91837e-10 7.47984e-06)
(0.156273 1.16601e-07 0.000302587 3.35892e-09 -1.87394e-10 6.07535e-06)
(0.309565 2.51266e-07 0.0010536 2.5542e-09 -1.40084e-10 7.00382e-06)
(0.354955 5.08538e-08 0.000809566 1.70933e-09 -2.18248e-10 5.62798e-06)
(0.486404 -4.52363e-08 0.00127865 1.89677e-09 -9.87666e-11 6.46148e-06)
(0.55269 6.42077e-07 0.0010729 2.55032e-09 -1.61589e-10 5.27531e-06)
(0.660773 -1.02232e-07 0.00140429 3.46295e-09 -1.25225e-10 5.9458e-06)
(0.745809 -1.21562e-06 0.00123828 4.26404e-09 1.71037e-10 4.94563e-06)
(0.837621 5.5463e-07 0.00148555 5.19504e-09 3.50772e-11 5.46488e-06)
(0.936691 2.16495e-06 0.00135387 5.96454e-09 -4.57277e-10 4.63078e-06)
(1.01612 -7.93006e-07 0.00154192 6.92564e-09 -1.85964e-10 5.02003e-06)
(1.12401 -2.92165e-06 0.00144239 7.73229e-09 7.43123e-10 4.33017e-06)
(1.19278 7.23853e-07 0.00158537 9.17817e-09 3.91608e-10 4.61236e-06)
(1.30543 4.58924e-06 0.00151774 1.06427e-08 9.17878e-10 4.04473e-06)
(1.36517 1.87372e-06 0.00162491 1.32111e-08 3.23031e-10 4.24514e-06)
(1.48253 -3.24008e-06 0.00159231 1.52713e-08 6.53731e-09 3.77626e-06)
(1.53348 -2.33304e-06 0.00167138 1.9742e-08 6.78442e-09 3.93001e-06)
(1.67092 7.79056e-06 0.00168591 2.31325e-08 1.96337e-08 3.53041e-06)
(1.71949 7.94051e-06 0.00176263 3.47883e-08 9.39648e-09 3.71024e-06)
(1.92791 1.73442e-05 0.00183512 4.19147e-08 5.99166e-08 3.33444e-06)
(0.131189 -0.000239181 0.00046986 3.50056e-05 -8.72447e-06 5.53679e-06)
(0.15612 0.00011038 0.000251745 0.00010311 -1.53987e-05 4.35046e-06)
(0.303768 -3.77177e-05 0.000910557 1.30241e-05 -2.3323e-06 5.12516e-06)
(0.352918 0.000376082 0.000719825 5.21091e-06 3.21007e-06 3.99232e-06)
(0.483918 0.00115226 0.0011158 1.00391e-05 6.16571e-06 4.68436e-06)
(0.551789 0.000960046 0.000943788 1.07599e-05 5.57293e-06 3.71583e-06)
(0.660004 0.00147195 0.00121225 1.06418e-05 6.02857e-06 4.26367e-06)
(0.74542 0.00131712 0.00106415 1.0263e-05 5.18113e-06 3.45195e-06)
(0.83729 0.00172528 0.00125909 1.0153e-05 5.52859e-06 3.87177e-06)
(0.93639 0.00165799 0.00113503 1.00327e-05 4.87396e-06 3.19914e-06)
(1.01589 0.00198129 0.00128029 9.93e-06 5.13558e-06 3.5103e-06)
(1.12348 0.00197887 0.00118066 1.00276e-05 4.63931e-06 2.95854e-06)
(1.19263 0.00219577 0.00128894 9.31982e-06 4.66693e-06 3.17925e-06)
(1.30342 0.00229641 0.00121387 1.01638e-05 4.4433e-06 2.73211e-06)
(1.36527 0.00216868 0.00129329 6.7562e-06 3.68271e-06 2.87704e-06)
(1.47202 0.00250758 0.00124016 9.86353e-06 4.15283e-06 2.52216e-06)
(1.53365 0.00108516 0.00129688 1.49142e-06 8.87447e-07 2.59578e-06)
(1.61579 0.00141346 0.00125076 1.78187e-06 1.54644e-06 2.32754e-06)
(1.70148 -0.00245764 0.00128376 1.89702e-05 -4.49301e-06 2.29745e-06)
(1.68941 -0.00918258 0.00119154 0.000346099 -1.67226e-05 2.11239e-06)
(0.133031 -0.0011794 0.000549379 0.000104766 -2.5812e-05 7.59675e-06)
(0.156403 -0.000723424 0.000308455 0.00103992 -6.9161e-05 6.03568e-06)
(0.311357 -0.00507026 0.00106347 0.00049749 -5.10286e-05 7.00411e-06)
(0.355284 -0.00199855 0.00081242 0.000180011 -2.83649e-05 5.61913e-06)
(0.486544 -0.00314964 0.00127938 8.40328e-05 -2.16396e-05 6.45868e-06)
(0.552592 -0.00216323 0.00107248 5.61797e-05 -1.58455e-05 5.27258e-06)
(0.660565 -0.00315929 0.00140362 4.92564e-05 -1.5871e-05 5.94341e-06)
(0.745649 -0.00279711 0.00123773 4.59487e-05 -1.37344e-05 4.94372e-06)
(0.837403 -0.00363329 0.00148492 4.51024e-05 -1.44078e-05 5.46279e-06)
(0.936506 -0.00348959 0.00135334 4.44476e-05 -1.29837e-05 4.62911e-06)
(1.01589 -0.0041564 0.00154133 4.37363e-05 -1.34926e-05 5.01816e-06)
(1.12377 -0.00416839 0.00144184 4.4223e-05 -1.24607e-05 4.32868e-06)
(1.19254 -0.0045887 0.00158474 4.08875e-05 -1.24028e-05 4.61051e-06)
(1.30502 -0.00481834 0.00151685 4.48133e-05 -1.2074e-05 4.04343e-06)
(1.36486 -0.00449858 0.00162399 2.92416e-05 -9.87459e-06 4.24272e-06)
(1.48138 -0.00552639 0.00159053 4.84376e-05 -1.20425e-05 3.77492e-06)
(1.53219 -0.00163693 0.00166828 8.55882e-06 -6.00323e-07 3.92467e-06)
(1.66817 -0.00599422 0.00168246 5.44104e-05 -1.17823e-05 3.52778e-06)
(1.70992 0.0116255 0.00174723 0.000382495 2.8589e-05 3.6976e-06)
(1.92692 0.00666354 0.00183399 8.85204e-05 1.2577e-05 3.32896e-06)
(0.134983 -0.00117614 0.000520365 0.000376441 -2.78764e-05 5.77709e-06)
(0.156073 2.48759e-05 0.000268064 0.000995825 -4.75902e-05 4.34072e-06)
(0.304868 0.000339846 0.000918626 9.11788e-05 -2.62537e-06 5.18808e-06)
(0.351694 0.00138968 0.000709837 6.88566e-05 1.41136e-05 4.03405e-06)
(0.479079 0.00358179 0.00110022 0.000104061 2.01994e-05 4.74068e-06)
(0.548066 0.00282307 0.000926786 0.000100316 1.72043e-05 3.76313e-06)
(0.653198 0.00432354 0.00119444 9.57161e-05 1.82466e-05 4.31684e-06)
(0.740083 0.00385715 0.00104803 9.17251e-05 1.56429e-05 3.49751e-06)
(0.829426 0.00507368 0.00124288 9.07401e-05 1.66815e-05 3.9218e-06)
(0.929698 0.0048708 0.001121 8.96513e-05 1.4724e-05 3.2424e-06)
(1.0071 0.00585064 0.00126633 8.89808e-05 1.55301e-05 3.55725e-06)
(1.11557 0.00584425 0.00116915 8.96432e-05 1.40247e-05 2.99935e-06)
(1.18291 0.00651512 0.00127749 8.42311e-05 1.41877e-05 3.22333e-06)
(1.29466 0.00678531 0.00120539 9.10521e-05 1.34584e-05 2.77037e-06)
(1.35459 0.00653703 0.00128477 6.31079e-05 1.14159e-05 2.91927e-06)
(1.46406 0.0075927 0.00123667 9.31928e-05 1.29235e-05 2.5583e-06)
(1.52213 0.00348477 0.00129357 1.45492e-05 3.03162e-06 2.64083e-06)
(1.61419 0.00566283 0.00125816 3.50328e-05 7.59041e-06 2.36499e-06)
(1.6984 -0.00788932 0.00130436 0.000180276 -1.44228e-05 2.36736e-06)
(1.66709 -0.0281806 0.00120271 0.0033327 -5.3643e-05 2.171e-06)
(0.139748 -0.00379009 0.000632419 0.00105571 -8.27576e-05 8.47372e-06)
(0.18363 0.00898709 -7.5075e-05 0.00314465 -0.000125494 6.31253e-06)
(0.276779 0.00188246 0.000450579 0.00144227 -9.16446e-05 7.44792e-06)
(0.385625 0.00327686 0.000203956 0.000483231 -4.88356e-05 5.99524e-06)
(0.431238 -0.000986649 0.000622826 0.000252857 -3.91128e-05 6.87651e-06)
(0.545699 -0.000272922 0.000485495 0.00018973 -3.03112e-05 5.64713e-06)
(0.579246 -0.00244011 0.000783783 0.000175095 -3.10785e-05 6.34289e-06)
(0.699678 -0.00193788 0.000684372 0.000166213 -2.72779e-05 5.30697e-06)
(0.728906 -0.00358041 0.000904557 0.000164494 -2.86743e-05 5.84492e-06)
(0.852509 -0.00334578 0.000835372 0.000162273 -2.59671e-05 4.98064e-06)
(0.879913 -0.00466192 0.00100218 0.000160446 -2.70006e-05 5.38402e-06)
(1.00305 -0.00464754 0.000961267 0.000161613 -2.49817e-05 4.66925e-06)
(1.02915 -0.00566393 0.00108839 0.000151852 -2.50447e-05 4.96099e-06)
(1.14861 -0.00584731 0.00107544 0.000163222 -2.42061e-05 4.37384e-06)
(1.1745 -0.00628561 0.00117165 0.000115665 -2.07173e-05 4.57715e-06)
(1.28837 -0.00690403 0.00118846 0.000178664 -2.4329e-05 4.09553e-06)
(1.31526 -0.00440804 0.00125743 3.00958e-05 -3.58259e-06 4.23694e-06)
(1.42972 -0.00809962 0.00132068 0.000300984 -2.8748e-05 3.83593e-06)
(1.44963 0.0135775 0.00133055 0.00209791 7.17288e-05 3.96757e-06)
(1.66821 0.0163835 0.00159726 0.00159458 5.3063e-05 3.57309e-06)
(0.129129 0.000349644 1.30692e-09 6.25017e-05 -4.78365e-11 3.40855e-14)
(0.158065 -0.000224455 2.00762e-09 2.6418e-05 -1.74397e-11 1.11882e-14)
(0.277392 -0.000435878 8.73645e-09 6.42921e-06 1.18235e-11 4.5425e-14)
(0.343824 -0.000299371 -4.50417e-09 8.45665e-06 1.92577e-11 2.31349e-14)
(0.444628 -0.000883876 7.43861e-09 1.14192e-05 2.3539e-11 5.55762e-14)
(0.531022 -0.00068577 1.01543e-08 1.0869e-05 2.00833e-11 4.02879e-14)
(0.615734 -0.00120717 3.15578e-08 1.20523e-05 2.01428e-11 8.7612e-14)
(0.716241 -0.00106652 4.00506e-08 1.10583e-05 1.5586e-11 7.90589e-14)
(0.791136 -0.00151003 4.63445e-08 1.1908e-05 1.65946e-11 8.49702e-14)
(0.901739 -0.00142464 5.19512e-08 1.0983e-05 1.45809e-11 7.79189e-14)
(0.970179 -0.00180381 5.14237e-08 1.16838e-05 1.26637e-11 6.63123e-14)
(1.08651 -0.00176471 5.74959e-08 1.08077e-05 7.85199e-12 6.99888e-14)
(1.14979 -0.00209511 5.68295e-08 1.15014e-05 9.60075e-12 6.77179e-14)
(1.26813 -0.00208516 6.4137e-08 1.05569e-05 8.28079e-12 8.03044e-14)
(1.32811 -0.00241668 6.30102e-08 1.17401e-05 6.31769e-12 7.80645e-14)
(1.44595 -0.00238988 6.94915e-08 1.01202e-05 -1.5944e-12 8.6817e-14)
(1.50503 -0.00297417 6.8494e-08 1.4958e-05 1.08928e-12 8.6184e-14)
(1.62375 -0.00252033 8.11597e-08 8.03432e-06 -2.6267e-12 1.15321e-13)
(1.68405 -0.00502202 9.32391e-08 4.89573e-05 1.40344e-11 1.19023e-13)
(1.82542 -0.000330032 9.16919e-08 2.26567e-05 -2.64078e-11 9.64838e-14)
(0.131799 0.000776322 1.21932e-09 7.57888e-05 -6.66232e-11 2.79063e-14)
(0.156045 2.07364e-05 4.10876e-09 4.52505e-05 -4.72575e-11 9.50825e-15)
(0.28944 0.000692445 8.36641e-09 1.66904e-05 -2.96825e-11 3.48219e-14)
(0.348575 0.000276356 1.18149e-10 5.30796e-06 -1.62968e-11 1.96818e-14)
(0.463037 0.000591626 9.74334e-09 3.98235e-06 -1.49783e-11 4.54556e-14)
(0.543535 0.00045329 1.44023e-08 3.25896e-06 -1.06105e-11 3.78497e-14)
(0.639878 0.000736528 3.18321e-08 3.53035e-06 -1.23024e-11 7.57058e-14)
(0.736138 0.000658775 4.09315e-08 3.23377e-06 -1.15631e-11 7.54808e-14)
(0.820857 0.000900549 4.61302e-08 3.46535e-06 -8.8704e-12 8.02142e-14)
(0.928671 0.000858171 5.26235e-08 3.21924e-06 -3.56547e-12 7.84645e-14)
(1.00536 0.00105864 5.19934e-08 3.39089e-06 -8.7405e-12 6.73549e-14)
(1.12016 0.00104127 5.85919e-08 3.17121e-06 -1.03384e-11 7.34141e-14)
(1.19033 0.00121758 5.75377e-08 3.33005e-06 -4.11757e-12 6.97267e-14)
(1.30821 0.00122174 6.48848e-08 3.11268e-06 3.62908e-12 8.23736e-14)
(1.37394 0.0014028 6.38015e-08 3.43412e-06 -1.77544e-12 7.96278e-14)
(1.49206 0.00142143 7.03209e-08 3.24285e-06 -1.03838e-11 8.89248e-14)
(1.55624 0.00171681 6.88775e-08 4.19975e-06 -1.05941e-11 8.77704e-14)
(1.67442 0.00214067 8.15529e-08 7.45999e-06 2.33526e-12 1.17375e-13)
(1.74436 0.00218555 9.328e-08 5.40041e-06 1.18746e-11 1.19034e-13)
(1.86717 0.00867907 9.17984e-08 0.000217935 -3.99724e-11 9.6983e-14)
(0.131554 0.000178039 -7.90719e-11 9.57017e-06 -1.84009e-11 1.99939e-14)
(0.156044 -1.35079e-05 4.15268e-09 7.31161e-06 -9.88521e-12 7.99205e-15)
(0.289333 -0.000154828 7.77777e-09 1.94889e-06 3.73458e-12 2.88947e-14)
(0.348604 -0.00018358 2.11825e-09 1.83923e-06 8.44448e-12 1.88678e-14)
(0.463175 -0.000502682 9.77178e-09 2.65115e-06 1.19568e-11 3.71321e-14)
(0.543641 -0.000413683 1.53217e-08 2.70125e-06 1.19002e-11 3.42337e-14)
(0.640067 -0.000686081 3.01624e-08 3.04968e-06 1.07757e-11 6.35494e-14)
(0.736292 -0.000611999 3.97453e-08 2.82504e-06 5.4938e-12 6.86135e-14)
(0.82108 -0.000839551 4.40628e-08 3.04324e-06 1.00078e-11 7.17207e-14)
(0.928871 -0.00079052 5.1295e-08 2.81339e-06 1.32552e-11 7.48518e-14)
(1.00562 -0.000987514 5.05839e-08 2.9911e-06 5.78744e-12 6.4967e-14)
(1.12041 -0.000964075 5.76053e-08 2.76922e-06 -2.27037e-12 7.30371e-14)
(1.19063 -0.00113317 5.64931e-08 2.95623e-06 7.13824e-12 6.89189e-14)
(1.30855 -0.00111788 6.39655e-08 2.69953e-06 1.48171e-11 8.20185e-14)
(1.37431 -0.00130451 6.21978e-08 3.07199e-06 7.14766e-12 7.7106e-14)
(1.49273 -0.0012643 6.87208e-08 2.53243e-06 -1.1725e-11 8.6444e-14)
(1.55684 -0.00164531 6.79979e-08 4.14769e-06 -9.72331e-12 8.72666e-14)
(1.67652 -0.00121807 8.07247e-08 1.8173e-06 6.72946e-12 1.19119e-13)
(1.7469 -0.00267951 9.29221e-08 1.13005e-05 2.15797e-11 1.21555e-13)
(1.87623 0.000147031 9.07414e-08 9.68445e-06 -1.59684e-11 9.65752e-14)
(0.131508 0.00023229 1.76591e-09 7.00063e-06 -2.06361e-11 9.09784e-15)
(0.156044 6.13615e-07 7.82601e-09 4.98073e-06 -1.63658e-11 7.08054e-15)