/*--------------------------------*- C++ -*----------------------------------*\
  =========                 |
  \\      /  F ield         | OpenFOAM: The Open Source CFD Toolbox
   \\    /   O peration     | Website:  https://openfoam.org
    \\  /    A nd           | Version:  7
     \\/     M anipulation  |
\*---------------------------------------------------------------------------*/
FoamFile
{
    version     2.0;
    format      ascii;
    class       volScalarField;
    location    "1.7";
    object      k_0;
}
// * * * * * * * * * * * * * * * * * * * * * * * * * * * * * * * * * * * * * //

dimensions      [0 2 -2 0 0 0 0];

internalField   nonuniform List<scalar> 
1800
(
0.272296
1.43142
1.91378
1.88012
1.72531
1.51288
1.35133
1.23418
1.14927
1.08539
1.03523
0.994255
0.95969
0.929841
0.903632
0.880371
0.859568
0.840841
0.823913
0.808511
0.794473
0.781566
0.769699
0.758706
0.748417
0.738995
0.729662
0.721782
0.71121
0.718085
0.0087069
0.141999
0.435837
0.639154
0.745683
0.784957
0.793988
0.792195
0.786979
0.778269
0.768949
0.759269
0.749432
0.739805
0.730512
0.721637
0.713138
0.705071
0.697296
0.689991
0.6828
0.676283
0.669457
0.663915
0.657066
0.652858
0.645571
0.642352
0.63306
0.633037
0.000105979
0.00539162
0.0276961
0.0757516
0.127868
0.168027
0.196669
0.217428
0.233456
0.2467
0.258168
0.268806
0.27887
0.28857
0.297594
0.306328
0.31423
0.321997
0.328698
0.335564
0.341005
0.347117
0.351268
0.356814
0.359734
0.364776
0.366805
0.371181
0.372455
0.375519
2.08522e-05
0.000143327
0.000987103
0.00358242
0.00912372
0.016454
0.0235901
0.0303091
0.0362389
0.0417995
0.0467846
0.0516793
0.0561715
0.0607906
0.0650732
0.069618
0.0738252
0.0783963
0.0825988
0.0872368
0.0914731
0.0961667
0.10047
0.105151
0.109589
0.114111
0.118818
0.122919
0.128119
0.131484
2.02326e-05
2.39683e-05
4.57745e-05
0.000121459
0.000302791
0.000685308
0.00116578
0.00176143
0.00237278
0.00305523
0.00374851
0.00450212
0.00527176
0.00608829
0.00692893
0.00780183
0.0087095
0.00963208
0.0106077
0.0115764
0.0126279
0.0136433
0.0147834
0.0158405
0.0170903
0.0181762
0.0195745
0.0206519
0.0222689
0.023299
2.01447e-05
2.1818e-05
2.7e-05
3.21211e-05
4.26461e-05
5.0415e-05
6.67181e-05
7.80021e-05
0.000101392
0.000116721
0.000148461
0.000168979
0.000211436
0.000238177
0.000293312
0.000327031
0.000396291
0.000437633
0.000520957
0.000573181
0.000669845
0.000735555
0.000846575
0.000926342
0.00105405
0.00114769
0.00129692
0.00140337
0.00158333
0.00170028
2.01457e-05
2.18165e-05
2.70007e-05
3.21361e-05
4.35032e-05
5.09044e-05
6.7905e-05
7.88299e-05
0.000102731
0.00011777
0.000150053
0.000170286
0.000213292
0.000239712
0.000295403
0.00032876
0.000398594
0.000439473
0.00052456
0.0005735
0.000674905
0.000732525
0.00085142
0.000918273
0.00105546
0.00113173
0.00128725
0.00137221
0.00154494
0.00164078
2.02339e-05
2.39837e-05
4.59356e-05
0.000122084
0.000341307
0.000635519
0.00124281
0.00169516
0.00245173
0.00299
0.00383107
0.00443627
0.00535768
0.00601994
0.00701869
0.00773067
0.00880327
0.00955757
0.0107026
0.0114959
0.012718
0.0135515
0.014858
0.0157296
0.0171269
0.0180275
0.019522
0.0204245
0.0220194
0.0229156
2.08676e-05
0.00014409
0.000991071
0.00359343
0.00916277
0.0164536
0.0236425
0.0303061
0.0363043
0.0417918
0.0468643
0.0516605
0.0562649
0.0607549
0.0651851
0.0695606
0.0739594
0.0783062
0.0827531
0.0870968
0.0916398
0.0959539
0.100628
0.104833
0.109677
0.113635
0.118688
0.122194
0.127434
0.13038
0.000106864
0.00540604
0.0277404
0.0758193
0.12794
0.168101
0.196738
0.217496
0.233524
0.246765
0.258233
0.268865
0.278934
0.288623
0.297658
0.306369
0.314289
0.32201
0.328744
0.335527
0.341027
0.346994
0.351241
0.356551
0.359576
0.364314
0.366275
0.370231
0.371351
0.37382
0.00873492
0.14214
0.436011
0.639311
0.745805
0.785045
0.794056
0.792248
0.787023
0.778307
0.768978
0.759294
0.749444
0.739819
0.730507
0.721649
0.713112
0.705093
0.697242
0.690043
0.682702
0.676395
0.669297
0.664112
0.656864
0.653094
0.64545
0.642484
0.633141
0.633484
0.272297
1.43134
1.91367
1.88001
1.7252
1.51279
1.35125
1.2341
1.1492
1.08533
1.03517
0.994204
0.959641
0.929807
0.903597
0.880368
0.859556
0.840899
0.823943
0.80869
0.794576
0.781987
0.769944
0.759606
0.748954
0.740809
0.730844
0.72513
0.71446
0.722458
1.27025
1.41321
1.40076
1.37581
1.35993
1.34819
1.33985
1.3348
1.33231
1.3319
1.33274
1.33454
1.33683
1.33936
1.34198
1.34459
1.34713
1.3496
1.35199
1.35431
1.35656
1.35875
1.36087
1.36294
1.36494
1.36688
1.36878
1.37063
1.37245
1.37424
1.376
1.37774
1.37943
1.38109
1.3827
1.38427
1.3858
1.3873
1.38877
1.39023
1.39167
1.39309
1.39451
1.3959
1.39728
1.39863
1.39997
1.40129
1.4026
1.40391
1.40522
1.40653
1.40784
1.40916
1.41046
1.41176
1.41306
1.41434
1.41562
1.41689
1.41816
1.41943
1.42071
1.42199
1.42327
1.42456
1.42585
1.42714
1.42843
1.42972
1.43101
1.43231
1.4336
1.43489
1.43618
1.43747
1.43876
1.44005
1.44133
1.44261
1.4439
1.44518
1.44646
1.44773
1.44901
1.45028
1.45155
1.45282
1.45409
1.45536
1.45662
1.45789
1.45915
1.46041
1.46167
1.46293
1.46418
1.46544
1.46669
1.46794
1.46919
1.47043
1.47168
1.47292
1.47416
1.47541
1.47664
1.47788
1.47911
1.48036
1.48156
1.48283
1.484
1.48532
1.4864
1.48785
1.48873
1.49044
1.49102
1.49315
1.24911
1.5531
1.61207
1.61044
1.6032
1.5969
1.59381
1.59344
1.59445
1.59695
1.60016
1.60369
1.60731
1.61092
1.61444
1.61784
1.62112
1.62429
1.62736
1.63035
1.63326
1.63612
1.63892
1.64166
1.64435
1.647
1.64959
1.65215
1.65466
1.65714
1.65958
1.66197
1.66433
1.66665
1.66893
1.67116
1.67334
1.67549
1.6776
1.67968
1.68173
1.68376
1.68576
1.68773
1.68968
1.6916
1.6935
1.69537
1.69723
1.69907
1.7009
1.70272
1.70453
1.70633
1.70812
1.70989
1.71166
1.71341
1.71515
1.71688
1.71861
1.72033
1.72204
1.72376
1.72547
1.72718
1.72889
1.73059
1.73229
1.734
1.73569
1.73739
1.73908
1.74077
1.74245
1.74413
1.74581
1.74749
1.74916
1.75082
1.75249
1.75415
1.7558
1.75745
1.7591
1.76075
1.76239
1.76402
1.76566
1.76729
1.76891
1.77053
1.77215
1.77377
1.77538
1.77698
1.77859
1.78019
1.78178
1.78337
1.78496
1.78654
1.78812
1.7897
1.79127
1.79284
1.7944
1.79597
1.79751
1.79908
1.8006
1.8022
1.80365
1.80532
1.80665
1.80848
1.80956
1.8117
1.81251
1.81503
0.725301
1.07274
1.20678
1.25187
1.26925
1.27902
1.28706
1.29462
1.30144
1.30757
1.31286
1.31735
1.32116
1.32444
1.32736
1.33002
1.3325
1.33486
1.33715
1.33938
1.34156
1.34372
1.34585
1.34797
1.35007
1.35217
1.35426
1.35634
1.3584
1.36043
1.36244
1.36443
1.36638
1.36832
1.37023
1.37213
1.37401
1.37587
1.3777
1.37951
1.3813
1.38305
1.38477
1.38647
1.38815
1.38982
1.39148
1.39312
1.39475
1.39636
1.39795
1.39953
1.40108
1.40262
1.40415
1.40567
1.40718
1.40868
1.41018
1.41167
1.41315
1.41463
1.4161
1.41757
1.41902
1.42047
1.42192
1.42336
1.42479
1.42623
1.42765
1.42908
1.4305
1.43192
1.43333
1.43475
1.43616
1.43756
1.43897
1.44037
1.44177
1.44316
1.44456
1.44595
1.44733
1.44872
1.4501
1.45148
1.45285
1.45423
1.45559
1.45696
1.45832
1.45968
1.46104
1.4624
1.46375
1.4651
1.46644
1.46778
1.46912
1.47046
1.47179
1.47312
1.47444
1.47577
1.47708
1.47841
1.47971
1.48104
1.48231
1.48367
1.48489
1.48631
1.48742
1.48898
1.48989
1.49166
1.49242
1.49449
0.223486
0.493069
0.681484
0.785353
0.842429
0.877646
0.902209
0.920636
0.934601
0.945072
0.952722
0.958185
0.962043
0.964803
0.966861
0.968497
0.969899
0.971182
0.972409
0.973615
0.974816
0.976021
0.977239
0.978475
0.979737
0.981026
0.982343
0.98368
0.985028
0.986376
0.987714
0.989038
0.990348
0.991649
0.992948
0.994253
0.995565
0.996883
0.9982
0.999509
1.0008
1.00207
1.00331
1.00454
1.00575
1.00696
1.00816
1.00937
1.01057
1.01177
1.01295
1.01411
1.01525
1.01637
1.01747
1.01856
1.01965
1.02074
1.02183
1.02292
1.024
1.02509
1.02616
1.02723
1.02828
1.02933
1.03038
1.03141
1.03244
1.03346
1.03448
1.0355
1.03652
1.03753
1.03854
1.03955
1.04056
1.04156
1.04257
1.04357
1.04458
1.04558
1.04658
1.04758
1.04858
1.04958
1.05057
1.05157
1.05256
1.05355
1.05454
1.05553
1.05652
1.0575
1.05849
1.05947
1.06046
1.06144
1.06242
1.06339
1.06437
1.06534
1.06632
1.06729
1.06826
1.06923
1.07019
1.07117
1.07212
1.0731
1.07403
1.07504
1.07592
1.07698
1.07779
1.07895
1.07962
1.08091
1.08151
1.08304
0.0364381
0.0934764
0.210469
0.324798
0.412318
0.474817
0.518661
0.549437
0.570945
0.585779
0.595774
0.602303
0.606424
0.608942
0.610452
0.611365
0.611953
0.612382
0.61275
0.613106
0.613473
0.613863
0.614281
0.614732
0.615224
0.615758
0.616337
0.616954
0.617602
0.618269
0.618943
0.619615
0.620285
0.620955
0.621632
0.622323
0.623035
0.623767
0.624518
0.625278
0.626037
0.626788
0.627526
0.62825
0.628965
0.629679
0.630398
0.631125
0.63186
0.632597
0.633328
0.634048
0.634751
0.635436
0.636107
0.636769
0.637427
0.638086
0.638748
0.639413
0.640079
0.640744
0.641406
0.642061
0.642709
0.643349
0.643982
0.644607
0.645227
0.645842
0.646454
0.647063
0.647671
0.648277
0.648882
0.649487
0.650091
0.650695
0.651299
0.651903
0.652507
0.653111
0.653715
0.654319
0.654923
0.655527
0.65613
0.656734
0.657338
0.657941
0.658545
0.659148
0.659751
0.660354
0.660957
0.66156
0.662163
0.662765
0.663368
0.663971
0.664572
0.665175
0.665776
0.666379
0.666978
0.667583
0.668179
0.668788
0.669376
0.669996
0.670568
0.671209
0.671751
0.672432
0.672921
0.673665
0.674084
0.674888
0.675279
0.676251
0.00262255
0.00737597
0.0219042
0.0538174
0.102356
0.154127
0.201239
0.239995
0.269816
0.291703
0.307184
0.317789
0.324837
0.329384
0.332235
0.333973
0.335007
0.33561
0.335959
0.336164
0.336292
0.336384
0.336465
0.336553
0.336662
0.336799
0.336971
0.337179
0.337419
0.337685
0.337968
0.338261
0.338557
0.338858
0.339164
0.339482
0.339815
0.340166
0.340535
0.340915
0.341301
0.341686
0.342064
0.342434
0.342798
0.34316
0.343527
0.3439
0.344282
0.344668
0.345056
0.345438
0.345811
0.346172
0.346523
0.346867
0.347208
0.347548
0.347892
0.348238
0.348587
0.348936
0.349284
0.349629
0.349969
0.350305
0.350635
0.350961
0.351282
0.351601
0.351917
0.352232
0.352545
0.352857
0.353169
0.353482
0.353794
0.354106
0.354418
0.35473
0.355043
0.355356
0.35567
0.355983
0.356297
0.356612
0.356926
0.357241
0.357557
0.357872
0.358188
0.358504
0.358821
0.359137
0.359454
0.359772
0.360089
0.360408
0.360726
0.361045
0.361363
0.361683
0.362001
0.362323
0.36264
0.362965
0.363278
0.36361
0.363916
0.364259
0.364552
0.364913
0.365185
0.365572
0.365816
0.366233
0.366452
0.366885
0.367101
0.367634
0.002567
0.00712833
0.0212624
0.0525963
0.101393
0.153832
0.201734
0.241245
0.271724
0.294162
0.310109
0.321123
0.328549
0.333455
0.33665
0.338723
0.340084
0.341007
0.341669
0.34218
0.342603
0.34298
0.343334
0.343683
0.344041
0.344416
0.344817
0.345244
0.345693
0.346157
0.346625
0.347088
0.347542
0.347985
0.348422
0.348858
0.3493
0.349749
0.350207
0.35067
0.351129
0.351578
0.352013
0.352431
0.352837
0.353235
0.353633
0.354035
0.354443
0.354854
0.355264
0.355666
0.356056
0.356431
0.356793
0.357145
0.357492
0.357838
0.358186
0.358537
0.35889
0.359244
0.359598
0.359949
0.360297
0.360639
0.360978
0.361312
0.361642
0.361969
0.362293
0.362616
0.362938
0.363259
0.36358
0.363901
0.364222
0.364542
0.364863
0.365184
0.365505
0.365826
0.366148
0.36647
0.366792
0.367115
0.367437
0.367761
0.368084
0.368408
0.368732
0.369056
0.36938
0.369705
0.37003
0.370356
0.370681
0.371007
0.371333
0.37166
0.371986
0.372314
0.37264
0.372969
0.373294
0.373627
0.373948
0.374287
0.374601
0.374951
0.375251
0.375621
0.375898
0.376295
0.376543
0.376971
0.377194
0.377639
0.377859
0.378406
0.0362272
0.092325
0.20809
0.324038
0.413676
0.477921
0.523158
0.554994
0.577325
0.592784
0.603278
0.610236
0.614752
0.617643
0.619507
0.620759
0.621673
0.622419
0.623091
0.62374
0.624388
0.625046
0.625719
0.626414
0.627137
0.627892
0.628679
0.629495
0.63033
0.631172
0.632007
0.632828
0.633631
0.634419
0.635201
0.635986
0.63678
0.637586
0.638402
0.63922
0.64003
0.640826
0.641602
0.642358
0.643102
0.643839
0.64458
0.645326
0.646079
0.646834
0.647581
0.648315
0.649031
0.649727
0.650408
0.651077
0.651742
0.652406
0.653074
0.653744
0.654416
0.655088
0.655757
0.65642
0.657077
0.657727
0.658369
0.659005
0.659636
0.660262
0.660885
0.661505
0.662123
0.662741
0.663357
0.663972
0.664587
0.665203
0.665818
0.666433
0.667047
0.667662
0.668277
0.668891
0.669505
0.670119
0.670733
0.671347
0.67196
0.672574
0.673187
0.673801
0.674414
0.675028
0.675641
0.676254
0.676866
0.677479
0.678091
0.678703
0.679315
0.679927
0.680537
0.68115
0.681758
0.682373
0.682978
0.683597
0.684194
0.684823
0.685404
0.686054
0.686604
0.687295
0.68779
0.688548
0.688971
0.68979
0.690185
0.691178
0.224693
0.490832
0.682775
0.789895
0.848997
0.885364
0.910594
0.929271
0.943316
0.95367
0.961118
0.966332
0.969926
0.97241
0.974182
0.975528
0.976639
0.97763
0.978571
0.979495
0.980424
0.981369
0.982339
0.983339
0.984375
0.985446
0.98655
0.98768
0.988827
0.98998
0.991133
0.992282
0.993428
0.994577
0.995735
0.996905
0.99809
0.999288
1.00049
1.0017
1.00289
1.00408
1.00525
1.00641
1.00757
1.00874
1.0099
1.01107
1.01224
1.01341
1.01456
1.0157
1.01682
1.01793
1.01902
1.02011
1.0212
1.02229
1.02338
1.02447
1.02556
1.02664
1.02771
1.02877
1.02983
1.03088
1.03192
1.03295
1.03397
1.035
1.03601
1.03703
1.03804
1.03905
1.04006
1.04107
1.04207
1.04308
1.04408
1.04508
1.04609
1.04709
1.04809
1.04908
1.05008
1.05107
1.05207
1.05306
1.05405
1.05504
1.05603
1.05702
1.058
1.05899
1.05997
1.06095
1.06193
1.06291
1.06389
1.06487
1.06584
1.06682
1.06779
1.06876
1.06972
1.0707
1.07166
1.07263
1.07358
1.07456
1.07549
1.07649
1.07738
1.07843
1.07924
1.0804
1.08107
1.08236
1.08296
1.08449
0.72758
1.07545
1.21349
1.2598
1.27702
1.28621
1.29344
1.2999
1.30579
1.31083
1.31506
1.31852
1.32131
1.32359
1.32551
1.32718
1.32868
1.33009
1.33144
1.33275
1.33407
1.33538
1.33672
1.33808
1.33946
1.34086
1.34228
1.34371
1.34515
1.3466
1.34806
1.34953
1.35102
1.35252
1.35404
1.35557
1.35712
1.35867
1.36022
1.36177
1.36332
1.36487
1.36642
1.36797
1.36953
1.37109
1.37265
1.3742
1.37574
1.37728
1.3788
1.38032
1.38183
1.38333
1.38484
1.38634
1.38783
1.38933
1.39082
1.3923
1.39378
1.39524
1.3967
1.39815
1.39959
1.40102
1.40245
1.40387
1.40529
1.4067
1.4081
1.40951
1.41091
1.4123
1.4137
1.41509
1.41648
1.41787
1.41925
1.42064
1.42202
1.42339
1.42477
1.42614
1.4275
1.42887
1.43023
1.43159
1.43295
1.43431
1.43566
1.43701
1.43835
1.43969
1.44103
1.44237
1.4437
1.44503
1.44636
1.44769
1.44901
1.45033
1.45164
1.45296
1.45426
1.45558
1.45687
1.45818
1.45946
1.46078
1.46204
1.46338
1.46458
1.46598
1.46708
1.46862
1.46952
1.47128
1.47203
1.47407
1.25176
1.55914
1.61681
1.61354
1.60365
1.59513
1.58989
1.58722
1.58667
1.58722
1.58867
1.59056
1.59258
1.5946
1.59655
1.59842
1.60019
1.60188
1.60351
1.60511
1.60668
1.60826
1.60983
1.6114
1.61298
1.61455
1.61612
1.61769
1.61927
1.62087
1.62249
1.62413
1.62579
1.62747
1.62916
1.63087
1.63258
1.63429
1.636
1.63772
1.63945
1.64119
1.64295
1.64471
1.64648
1.64825
1.65001
1.65176
1.6535
1.65523
1.65697
1.65871
1.66045
1.66219
1.66394
1.66568
1.66743
1.66916
1.67088
1.6726
1.6743
1.676
1.6777
1.67938
1.68106
1.68274
1.68441
1.68608
1.68775
1.68942
1.69108
1.69274
1.6944
1.69605
1.6977
1.69934
1.70099
1.70262
1.70426
1.70589
1.70752
1.70914
1.71076
1.71238
1.71399
1.71561
1.71721
1.71882
1.72041
1.72201
1.7236
1.72519
1.72677
1.72835
1.72993
1.73151
1.73308
1.73465
1.73621
1.73777
1.73932
1.74088
1.74242
1.74397
1.74551
1.74705
1.74857
1.75011
1.75162
1.75317
1.75465
1.75622
1.75765
1.75928
1.76059
1.76238
1.76345
1.76554
1.76634
1.7688
1.26482
1.40837
1.39104
1.36395
1.34541
1.33128
1.32082
1.3138
1.30966
1.30754
1.3069
1.30716
1.30798
1.30907
1.31027
1.31147
1.31264
1.31378
1.31487
1.31593
1.31696
1.31798
1.31899
1.31997
1.32094
1.32189
1.32284
1.32379
1.32475
1.32573
1.32674
1.32777
1.32882
1.32988
1.33095
1.33202
1.33309
1.33417
1.33527
1.33638
1.33752
1.33867
1.33984
1.34102
1.3422
1.34339
1.34457
1.34575
1.34694
1.34813
1.34934
1.35056
1.3518
1.35304
1.35429
1.35554
1.35679
1.35803
1.35927
1.36051
1.36175
1.363
1.36424
1.36548
1.36673
1.36799
1.36924
1.3705
1.37175
1.37301
1.37427
1.37552
1.37678
1.37803
1.37929
1.38054
1.38179
1.38304
1.38429
1.38554
1.38679
1.38803
1.38927
1.39052
1.39176
1.39299
1.39423
1.39547
1.3967
1.39793
1.39916
1.40039
1.40162
1.40284
1.40406
1.40529
1.40651
1.40772
1.40894
1.41016
1.41137
1.41258
1.41379
1.415
1.41621
1.41741
1.41861
1.41982
1.42101
1.42223
1.4234
1.42463
1.42576
1.42705
1.42809
1.4295
1.43036
1.43202
1.43259
1.43464
)
;

boundaryField
{
    upperWall
    {
        type            fixedValue;
        value           uniform 0;
    }
    lowerWall
    {
        type            fixedValue;
        value           uniform 0;
    }
    heatedWall
    {
        type            fixedValue;
        value           uniform 0;
    }
    inlet
    {
        type            fixedValue;
        value           uniform 2e-05;
    }
    outlet
    {
        type            inletOutlet;
        inletValue      uniform 0;
        value           nonuniform List<scalar> 
12
(
1.49315
1.81503
1.49449
1.08304
0.676251
0.367634
0.378406
0.691178
1.08449
1.47407
1.7688
1.43464
)
;
    }
    frontAndBack
    {
        type            empty;
    }
}


// ************************************************************************* //
