/*--------------------------------*- C++ -*----------------------------------*\
  =========                 |
  \\      /  F ield         | OpenFOAM: The Open Source CFD Toolbox
   \\    /   O peration     | Website:  https://openfoam.org
    \\  /    A nd           | Version:  7
     \\/     M anipulation  |
\*---------------------------------------------------------------------------*/
FoamFile
{
    version     2.0;
    format      ascii;
    class       surfaceScalarField;
    location    "1.1775";
    object      phi;
}
// * * * * * * * * * * * * * * * * * * * * * * * * * * * * * * * * * * * * * //

dimensions      [1 0 -1 0 0 0 0];

internalField   nonuniform List<scalar> 
36620
(
0.000469053
0.000917978
7.69309e-06
0.000261344
0.000203018
3.97437e-06
0.000185996
6.80424e-05
6.57638e-06
0.000161959
1.90912e-05
4.21124e-06
0.000148618
6.42742e-06
6.18305e-06
0.000140553
3.01385e-06
4.33289e-06
0.000134455
-5.09165e-07
5.90067e-06
0.00012982
-4.83942e-07
4.42465e-06
0.000125965
-2.49769e-06
5.66825e-06
0.00012284
-2.03688e-06
4.48482e-06
0.000120133
-3.43355e-06
5.4691e-06
0.000117855
-2.91107e-06
4.5195e-06
0.000115851
-3.96105e-06
5.29501e-06
0.000114115
-3.46832e-06
4.53375e-06
0.000112541
-4.23697e-06
5.13943e-06
0.000111261
-3.92319e-06
4.5312e-06
0.000109597
-4.00551e-06
4.99855e-06
0.000108937
-4.52418e-06
4.51469e-06
9.6953e-05
6.42183e-06
4.89878e-06
5.52599e-07
4.4239e-06
9.13102e-05
0.00101052
0.0013004
1.57035e-06
0.000748118
0.000466522
-1.85631e-06
0.00059381
0.000220745
8.17257e-07
0.000527669
8.59332e-05
-1.51687e-06
0.000488718
4.4082e-05
4.82984e-07
0.000464749
2.75671e-05
-1.36404e-06
0.000445289
1.79981e-05
2.13459e-07
0.000431298
1.40721e-05
-1.26654e-06
0.000418425
9.71875e-06
-1.70584e-08
0.000408889
8.0523e-06
-1.20418e-06
0.000399541
5.49313e-06
-2.15612e-07
0.000392498
4.66699e-06
-1.16865e-06
0.000385336
2.95052e-06
-3.90029e-07
0.000379838
2.53023e-06
-1.15398e-06
0.000374146
1.33333e-06
-5.46455e-07
0.000369887
8.07755e-07
-1.15564e-06
0.000365438
4.42883e-07
-6.93791e-07
0.000362806
-1.42873e-06
-1.16873e-06
0.000375916
-6.50697e-06
-8.80155e-07
-1.6444e-05
-1.29721e-06
0.00039349
0.00140507
0.00128428
5.65025e-06
0.00129115
0.000577261
2.42735e-06
0.0011575
0.000348632
4.95713e-06
0.00106951
0.000170464
2.59215e-06
0.00100747
0.000100652
4.56383e-06
0.000964786
6.66866e-05
2.70425e-06
0.000930479
4.72505e-05
4.27421e-06
0.000904553
3.65075e-05
2.79232e-06
0.000881357
2.82451e-05
4.03892e-06
0.000863109
2.28726e-05
2.85136e-06
0.000845823
1.84071e-05
3.83844e-06
0.000831975
1.51214e-05
2.88592e-06
0.000818472
1.22841e-05
3.66404e-06
0.000807466
1.01088e-05
2.90067e-06
0.000796444
8.28492e-06
3.50871e-06
0.000787568
6.18214e-06
2.89835e-06
0.000776912
7.09135e-06
3.37063e-06
0.000771199
7.2698e-07
2.88027e-06
0.000750484
1.02162e-05
3.30673e-06
-1.10563e-06
2.81428e-06
0.000731603
0.00156016
0.0011168
1.81855e-06
0.00157957
0.000558377
-1.27796e-06
0.00153626
0.000389933
1.22269e-06
0.0014893
0.00021766
-1.1085e-06
0.00144471
0.00014341
8.9316e-07
0.0014083
0.000103095
-9.50729e-07
0.00137551
7.85567e-05
6.30555e-07
0.00134841
6.37098e-05
-8.47845e-07
0.00132325
5.23697e-05
4.03398e-07
0.00130223
4.41348e-05
-7.83096e-07
0.00128234
3.76338e-05
2.05971e-07
0.00126554
3.22716e-05
-7.47134e-07
0.00124946
2.79792e-05
3.15387e-08
0.00123552
2.44407e-05
-7.32408e-07
0.0012224
2.11599e-05
-1.24747e-07
0.00121006
1.88341e-05
-7.33963e-07
0.00120069
1.62421e-05
-2.73212e-07
0.00118795
1.36588e-05
-7.5016e-07
0.00119079
7.24784e-06
-4.7601e-07
-5.81629e-07
-8.62008e-07
0.00119045
0.00159952
0.000907038
4.80615e-06
0.00168329
0.000471931
1.92958e-06
0.00170606
0.000362052
4.34143e-06
0.0017041
0.000216764
2.00508e-06
0.00168998
0.000152594
3.9806e-06
0.00167421
0.000115742
2.12571e-06
0.00165598
9.21562e-05
3.69872e-06
0.00163942
7.72527e-05
2.21804e-06
0.00162229
6.53632e-05
3.46621e-06
0.00160717
5.64145e-05
2.27952e-06
0.00159197
4.90897e-05
3.26719e-06
0.00157865
4.28979e-05
2.31479e-06
0.00156548
3.7767e-05
3.09295e-06
0.00155388
3.34915e-05
2.3299e-06
0.00154239
2.95038e-05
2.93833e-06
0.00153215
2.64919e-05
2.32839e-06
0.00152119
2.40757e-05
2.80153e-06
0.00151193
2.01929e-05
2.31032e-06
0.00149758
1.83737e-05
2.74051e-06
1.76286e-05
2.24998e-06
0.00147654
0.00159081
0.000708442
2.28486e-06
0.00168974
0.00037282
-5.66089e-07
0.00174675
0.000302481
1.79388e-06
0.00177506
0.00018816
-5.43845e-07
0.00178698
0.000138296
1.43727e-06
0.00179312
0.000108997
-4.13412e-07
0.00179318
8.9945e-05
1.16415e-06
0.001792
7.79017e-05
-3.15832e-07
0.00178785
6.78727e-05
9.34638e-07
0.0017837
6.02295e-05
-2.51723e-07
0.00177792
5.36308e-05
7.36918e-07
0.00177258
4.80381e-05
-2.16005e-07
0.00176642
4.30663e-05
5.62112e-07
0.00176076
3.91663e-05
-2.014e-07
0.00175494
3.48045e-05
4.06312e-07
0.00174885
3.26511e-05
-2.02665e-07
0.00174446
2.80247e-05
2.59075e-07
0.00173713
2.74572e-05
-2.22079e-07
0.001737
1.80724e-05
6.26368e-08
1.9584e-05
-3.14839e-07
0.00173491
0.00157999
0.000518823
4.17364e-06
0.00167777
0.000272808
1.4831e-06
0.00174638
0.00022931
3.79952e-06
0.00178773
0.000144504
1.47677e-06
0.00181328
0.000108351
3.44853e-06
0.0018326
8.70553e-05
1.59605e-06
0.00184512
7.32463e-05
3.17146e-06
0.00185578
6.46782e-05
1.692e-06
0.00186265
5.73401e-05
2.94209e-06
0.00186872
5.17992e-05
1.75667e-06
0.00187228
4.67995e-05
2.7453e-06
0.0018755
4.25761e-05
1.79339e-06
0.00187706
3.86043e-05
2.57161e-06
0.00187866
3.55493e-05
1.80893e-06
0.001879
3.19596e-05
2.41775e-06
0.00187962
3.01657e-05
1.80849e-06
0.00187853
2.67407e-05
2.28119e-06
0.00187801
2.60003e-05
1.78963e-06
0.00187334
2.02406e-05
2.20264e-06
2.54934e-05
1.73067e-06
0.00186535
0.00156937
0.000341224
2.73022e-06
0.00166199
0.0001794
4.19558e-08
0.00173429
0.000153914
2.32422e-06
0.00178037
9.76139e-05
-9.00829e-09
0.00181173
7.40821e-05
1.95946e-06
0.00183746
6.01918e-05
1.05113e-07
0.00185671
5.13084e-05
1.68044e-06
0.00187433
4.59678e-05
1.99162e-07
0.00188817
4.13327e-05
1.44903e-06
0.0019012
3.79029e-05
2.62427e-07
0.00191152
3.46958e-05
1.25067e-06
0.0019213
3.20327e-05
2.97613e-07
0.00192909
2.93685e-05
1.07515e-06
0.00193663
2.74714e-05
3.11637e-07
0.00194277
2.48264e-05
9.1944e-07
0.00194853
2.40629e-05
3.10649e-07
0.00195373
2.07256e-05
7.74759e-07
0.00195762
2.16979e-05
2.90367e-07
0.00196219
1.48098e-05
6.01595e-07
1.94828e-05
2.12284e-07
0.00196771
0.00156338
0.00016873
3.63917e-06
0.00165248
8.85136e-05
1.03254e-06
0.00172544
7.68999e-05
3.29582e-06
0.00177252
4.87268e-05
9.76206e-07
0.00180567
3.70409e-05
2.94313e-06
0.00183357
3.01686e-05
1.09036e-06
0.00185538
2.58172e-05
2.66628e-06
0.00187603
2.32558e-05
1.18653e-06
0.00189317
2.10248e-05
2.43727e-06
0.00190981
1.94102e-05
1.25194e-06
0.00192386
1.78743e-05
2.24093e-06
0.00193751
1.66146e-05
1.28896e-06
0.00194911
1.53243e-05
2.06712e-06
0.00196062
1.44263e-05
1.30434e-06
0.0019703
1.31419e-05
1.91319e-06
0.00198022
1.28313e-05
1.30421e-06
0.00198785
1.13029e-05
1.77514e-06
0.00199615
1.20266e-05
1.28441e-06
0.00200002
9.031e-06
1.66775e-06
1.3162e-05
1.22246e-06
0.00200487
0.00156007
-4.00522e-11
3.17196e-06
0.00164727
1.38279e-10
5.65197e-07
0.00172059
-3.32013e-10
2.81706e-06
0.00176799
4.48788e-10
4.91552e-07
0.00180163
-4.59155e-11
2.45594e-06
0.00183016
1.76851e-09
6.01495e-07
0.00185279
1.1716e-09
2.17672e-06
0.00187446
4.42864e-09
6.95821e-07
0.00189281
4.92723e-09
1.94604e-06
0.00191086
9.71467e-09
7.59924e-07
0.00192643
1.7549e-08
1.74844e-06
0.00194175
2.53911e-08
7.95835e-07
0.00195506
5.16711e-08
1.5735e-06
0.00196834
8.9495e-08
8.10382e-07
0.00197986
1.16317e-07
1.41855e-06
0.00199154
3.38156e-07
8.10066e-07
0.00200133
2.27331e-07
1.27727e-06
0.00201142
1.07759e-06
7.90465e-07
0.00201838
7.09512e-07
1.13584e-06
2.52771e-06
7.22907e-07
0.00202805
0.00156007
-0.00016873
3.17197e-06
0.00164727
-8.85133e-05
5.65197e-07
0.00172059
-7.69005e-05
2.81706e-06
0.00176799
-4.87259e-05
4.91551e-07
0.00180163
-3.7041e-05
2.45594e-06
0.00183016
-3.01651e-05
6.01493e-07
0.00185279
-2.58149e-05
2.17672e-06
0.00187446
-2.32471e-05
6.95811e-07
0.00189282
-2.10151e-05
1.94604e-06
0.00191086
-1.93914e-05
7.59897e-07
0.00192643
-1.78395e-05
1.74843e-06
0.00194175
-1.65665e-05
7.95753e-07
0.00195507
-1.52208e-05
1.57345e-06
0.00196836
-1.42548e-05
8.1012e-07
0.00197988
-1.29094e-05
1.41843e-06
0.00199158
-1.21736e-05
8.09239e-07
0.00200137
-1.08565e-05
1.27703e-06
0.00201147
-9.88167e-06
7.88095e-07
0.00201846
-7.64533e-06
1.13603e-06
-8.0938e-06
7.18904e-07
0.00202813
0.00156338
-0.000341224
3.63917e-06
0.00165248
-0.0001794
1.03254e-06
0.00172544
-0.000153915
3.29582e-06
0.00177252
-9.7613e-05
9.76207e-07
0.00180567
-7.40822e-05
2.94313e-06
0.00183357
-6.01883e-05
1.09036e-06
0.00185538
-5.13062e-05
2.66628e-06
0.00187603
-4.59589e-05
1.18654e-06
0.00189318
-4.13233e-05
2.43727e-06
0.00190981
-3.78837e-05
1.25197e-06
0.00192386
-3.46619e-05
2.24094e-06
0.00193751
-3.19832e-05
1.28904e-06
0.00194911
-2.92677e-05
2.06716e-06
0.00196062
-2.7299e-05
1.3046e-06
0.00197031
-2.45992e-05
1.91328e-06
0.00198023
-2.34095e-05
1.30502e-06
0.00198787
-2.02912e-05
1.77531e-06
0.00199621
-1.9603e-05
1.28667e-06
0.00200016
-1.34899e-05
1.66755e-06
-1.45902e-05
1.2258e-06
0.00200518
0.00156937
-0.000518823
2.73022e-06
0.00166199
-0.000272807
4.19561e-08
0.00173429
-0.00022931
2.32422e-06
0.00178037
-0.000144503
-9.00863e-09
0.00181173
-0.000108351
1.95946e-06
0.00183746
-8.70519e-05
1.05112e-07
0.00185671
-7.32441e-05
1.68044e-06
0.00187433
-6.46696e-05
1.99155e-07
0.00188817
-5.73313e-05
1.44903e-06
0.0019012
-5.17809e-05
2.62404e-07
0.00191153
-4.67673e-05
1.25067e-06
0.0019213
-4.25306e-05
2.97544e-07
0.0019291
-3.85068e-05
1.07512e-06
0.00193666
-3.53906e-05
3.11415e-07
0.0019428
-3.17412e-05
9.19337e-07
0.00194861
-2.95558e-05
3.09956e-07
0.00195384
-2.63376e-05
7.74572e-07
0.00195781
-2.3989e-05
2.88302e-07
0.00196251
-1.90474e-05
6.02194e-07
-2.07806e-05
2.08587e-07
0.00196821
0.00157999
-0.000708442
4.17364e-06
0.00167777
-0.00037282
1.4831e-06
0.00174638
-0.000302482
3.79952e-06
0.00178773
-0.000188159
1.47677e-06
0.00181328
-0.000138296
3.44853e-06
0.0018326
-0.000108994
1.59606e-06
0.00184512
-8.9943e-05
3.17146e-06
0.00185578
-7.78935e-05
1.69201e-06
0.00186265
-6.78646e-05
2.94209e-06
0.00186872
-6.02118e-05
1.75669e-06
0.00187229
-5.36011e-05
2.74531e-06
0.00187551
-4.79941e-05
1.79346e-06
0.00187707
-4.29764e-05
2.57164e-06
0.00187868
-3.90167e-05
1.80915e-06
0.00187904
-3.46049e-05
2.41779e-06
0.0018797
-3.20788e-05
1.80921e-06
0.00187866
-2.76715e-05
2.28126e-06
0.00187828
-2.55954e-05
1.79159e-06
0.00187382
-1.70834e-05
2.20223e-06
-1.53387e-05
1.73303e-06
0.0018663
0.00159081
-0.000907039
2.28486e-06
0.00168974
-0.000471931
-5.66088e-07
0.00174675
-0.000362052
1.79388e-06
0.00177506
-0.000216763
-5.43846e-07
0.00178698
-0.000152594
1.43727e-06
0.00179312
-0.000115739
-4.13409e-07
0.00179318
-9.21542e-05
1.16416e-06
0.001792
-7.72457e-05
-3.15834e-07
0.00178786
-6.53559e-05
9.34644e-07
0.00178371
-5.63998e-05
-2.51742e-07
0.00177793
-4.90631e-05
7.36922e-07
0.0017726
-4.28623e-05
-2.16065e-07
0.00176645
-3.76867e-05
5.62093e-07
0.00176081
-3.33688e-05
-2.01586e-07
0.00175501
-2.93285e-05
4.06231e-07
0.00174902
-2.60105e-05
-2.03215e-07
0.00174469
-2.37858e-05
2.58947e-07
0.00173759
-1.85568e-05
-2.23774e-07
0.00173767
-1.76067e-05
6.38311e-08
-1.38915e-05
-3.18235e-07
0.0017361
0.00159952
-0.0011168
4.80615e-06
0.00168329
-0.000558377
1.92958e-06
0.00170606
-0.000389933
4.34142e-06
0.0017041
-0.00021766
2.00508e-06
0.00168998
-0.00014341
3.9806e-06
0.00167422
-0.000103093
2.12572e-06
0.00165598
-7.85548e-05
3.69872e-06
0.00163942
-6.37045e-05
2.21805e-06
0.00162229
-5.23634e-05
3.46622e-06
0.00160717
-4.41232e-05
2.27954e-06
0.00159198
-3.76114e-05
3.2672e-06
0.00157867
-3.22438e-05
2.31484e-06
0.00156551
-2.79132e-05
3.09297e-06
0.00155394
-2.4346e-05
2.33007e-06
0.00154248
-2.10188e-05
2.93833e-06
0.00153234
-1.84524e-05
2.32897e-06
0.00152146
-1.6032e-05
2.80153e-06
0.00151254
-1.23585e-05
2.31185e-06
0.00149852
-6.82551e-06
2.73988e-06
3.36795e-06
2.25128e-06
0.00147845
0.00156016
-0.00128428
1.81856e-06
0.00157957
-0.000577261
-1.27796e-06
0.00153626
-0.000348633
1.22269e-06
0.00148931
-0.000170464
-1.1085e-06
0.00144471
-0.000100652
8.93167e-07
0.0014083
-6.66856e-05
-9.50721e-07
0.00137551
-4.72492e-05
6.30566e-07
0.00134842
-3.65043e-05
-8.47845e-07
0.00132326
-2.82402e-05
4.03402e-07
0.00130224
-2.28658e-05
-7.83116e-07
0.00128235
-1.83908e-05
2.0597e-07
0.00126557
-1.51063e-05
-7.47191e-07
0.00124951
-1.22365e-05
3.15234e-08
0.00123561
-1.00547e-05
-7.32555e-07
0.00122253
-8.18435e-06
-1.24787e-07
0.00121034
-5.95341e-06
-7.34357e-07
0.00120102
-6.93576e-06
-2.73223e-07
0.00118875
1.11179e-07
-7.51435e-07
0.00119167
-9.89146e-06
-4.74088e-07
3.06639e-06
-8.6496e-07
0.00119218
0.00140507
-0.0013004
5.65025e-06
0.00129115
-0.000466522
2.42736e-06
0.0011575
-0.000220745
4.95714e-06
0.00106951
-8.59335e-05
2.59216e-06
0.00100747
-4.40822e-05
4.56384e-06
0.000964788
-2.75668e-05
2.70427e-06
0.000930481
-1.79974e-05
4.27422e-06
0.000904557
-1.40705e-05
2.79233e-06
0.000881363
-9.71604e-06
4.03892e-06
0.000863118
-8.04878e-06
2.85136e-06
0.00084584
-5.48434e-06
3.83844e-06
0.000831998
-4.65931e-06
2.88595e-06
0.000818518
-2.9265e-06
3.66404e-06
0.000807539
-2.50462e-06
2.9008e-06
0.000796567
-1.2828e-06
3.5087e-06
0.000787808
-6.95184e-07
2.89879e-06
0.000777231
-3.72133e-07
3.37061e-06
0.000771963
1.83196e-06
2.88128e-06
0.000751561
6.49935e-06
3.30633e-06
1.72254e-05
2.81469e-06
0.000733886
0.00101052
-0.000917978
1.57037e-06
0.000748118
-0.000203018
-1.85629e-06
0.00059381
-6.80426e-05
8.17275e-07
0.000527669
-1.90915e-05
-1.51685e-06
0.000488718
-6.4277e-06
4.83005e-07
0.000464751
-3.01393e-06
-1.36403e-06
0.000445291
5.09313e-07
2.13477e-07
0.000431301
4.84373e-07
-1.26653e-06
0.00041843
2.49852e-06
-1.70447e-08
0.000408896
2.03784e-06
-1.20419e-06
0.000399553
3.43613e-06
-2.15598e-07
0.000392515
2.91288e-06
-1.16867e-06
0.00038537
3.96801e-06
-3.90016e-07
0.000379891
3.4744e-06
-1.15404e-06
0.000374235
4.25112e-06
-5.46447e-07
0.000370061
3.95106e-06
-1.15581e-06
0.000365657
4.0295e-06
-6.93701e-07
0.000363323
4.63476e-06
-1.16956e-06
0.000376232
-6.24154e-06
-8.78288e-07
-2.39602e-07
-1.29996e-06
0.0003943
0.000469053
7.69316e-06
0.000261344
3.97444e-06
0.000185996
6.57645e-06
0.000161959
4.21131e-06
0.000148618
6.18312e-06
0.000140553
4.33296e-06
0.000134456
5.90073e-06
0.000129821
4.42472e-06
0.000125967
5.66831e-06
0.000122842
4.48489e-06
0.000120137
5.46916e-06
0.000117861
4.51959e-06
0.000115864
5.29507e-06
0.000114134
4.53391e-06
0.000112574
5.13942e-06
0.000111321
4.53157e-06
0.000109681
4.99843e-06
0.000109132
4.51546e-06
9.73261e-05
4.89842e-06
4.4253e-06
9.20039e-05
0.000892725
0.000507673
1.56769e-06
0.000530551
0.000363386
2.02608e-06
0.000376986
0.000158164
1.21468e-06
0.000318571
6.01171e-05
1.73072e-06
0.000290639
3.20988e-05
1.24927e-06
0.000271183
2.1505e-05
1.54255e-06
0.000258269
1.6873e-05
1.22616e-06
0.000246881
1.37246e-05
1.39426e-06
0.000238941
1.17212e-05
1.21045e-06
0.000231234
1.02258e-05
1.30065e-06
0.000225721
9.11589e-06
1.20377e-06
0.000220053
8.2807e-06
1.24115e-06
0.000215905
7.56699e-06
1.20243e-06
0.000211517
7.03655e-06
1.20429e-06
0.000208177
6.58418e-06
1.20621e-06
0.000204832
5.9997e-06
1.18345e-06
0.000202304
5.61539e-06
1.21681e-06
0.000198683
6.26919e-06
1.17284e-06
0.000241603
-3.99309e-05
1.22882e-06
-2.75191e-05
1.20815e-06
0.000271644
0.0013847
0.000514256
4.70996e-06
0.00119775
0.000542473
5.26055e-06
0.00102617
0.000325332
4.42304e-06
0.000907498
0.000171455
4.9549e-06
0.000831785
0.000102971
4.45205e-06
0.00077861
6.77324e-05
4.76501e-06
0.000741576
4.89551e-05
4.42654e-06
0.00071127
3.74789e-05
4.61542e-06
0.000688522
2.94275e-05
4.41169e-06
0.000668115
2.4343e-05
4.51551e-06
0.000652155
1.99052e-05
4.40678e-06
0.00063709
1.71781e-05
4.44969e-06
0.000624941
1.43461e-05
4.40796e-06
0.000613122
1.26902e-05
4.40817e-06
0.000603186
1.09199e-05
4.41476e-06
0.000593874
9.10332e-06
4.38437e-06
0.000584278
9.39676e-06
4.43106e-06
0.000580021
4.2778e-06
4.36995e-06
0.000540247
-6.21732e-06
4.48166e-06
3.09411e-06
4.43668e-06
0.000503182
0.00149314
0.000419116
1.93007e-06
0.00149162
0.000543089
2.59629e-06
0.00142056
0.000399005
1.55065e-06
0.00133763
0.000253808
2.29446e-06
0.00126852
0.000174094
1.61161e-06
0.00121152
0.000124427
2.11443e-06
0.0011676
9.47387e-05
1.61545e-06
0.00113018
7.50515e-05
1.95739e-06
0.0011005
6.09449e-05
1.61808e-06
0.0010739
5.14398e-05
1.8475e-06
0.00105217
4.34125e-05
1.628e-06
0.00103194
3.81182e-05
1.7726e-06
0.00101499
3.2921e-05
1.64338e-06
0.000998719
2.96972e-05
1.72566e-06
0.000984962
2.60285e-05
1.66594e-06
0.000970991
2.37212e-05
1.70052e-06
0.000961372
2.00889e-05
1.69553e-06
0.000946167
2.00141e-05
1.69166e-06
0.000957715
-1.68269e-05
1.6926e-06
-5.02989e-06
1.73438e-06
0.000966202
0.00147317
0.000337861
4.29132e-06
0.00154605
0.000463289
4.90541e-06
0.00156802
0.000373389
4.0904e-06
0.00155234
0.000262888
4.62062e-06
0.00152627
0.000195989
4.10754e-06
0.00149489
0.000149464
4.42811e-06
0.00146615
0.000119164
4.08457e-06
0.00143798
9.73704e-05
4.27797e-06
0.00141384
8.08076e-05
4.0697e-06
0.00139082
6.89818e-05
4.17683e-06
0.00137122
5.87441e-05
4.064e-06
0.0013525
5.16654e-05
4.10864e-06
0.00133637
4.47486e-05
4.06321e-06
0.00132075
4.02459e-05
4.06498e-06
0.00130689
3.53766e-05
4.06927e-06
0.00129369
3.17479e-05
4.04082e-06
0.00128016
2.87945e-05
4.08649e-06
0.0012705
2.4345e-05
4.03031e-06
0.00124253
5.90585e-06
4.14934e-06
2.28784e-05
4.09928e-06
0.00120898
0.00146745
0.000267201
2.31396e-06
0.00155191
0.000377015
3.00031e-06
0.00160563
0.000321264
1.98643e-06
0.00162783
0.000239138
2.68717e-06
0.00163658
0.000188227
2.03e-06
0.00163408
0.000150595
2.49607e-06
0.00162849
0.000125504
2.04068e-06
0.00161856
0.000106404
2.34396e-06
0.00160872
9.14228e-05
2.04815e-06
0.00159711
8.00938e-05
2.23971e-06
0.00158657
7.00461e-05
2.05956e-06
0.0015753
6.27573e-05
2.16873e-06
0.00156535
5.55034e-05
2.07215e-06
0.00155487
5.07601e-05
2.12334e-06
0.00154588
4.50354e-05
2.08925e-06
0.00153554
4.20666e-05
2.0987e-06
0.00152897
3.5736e-05
2.11017e-06
0.00151708
3.60272e-05
2.09019e-06
0.00151747
5.66341e-06
2.09838e-06
2.19702e-05
2.13601e-06
0.00151788
0.00145075
0.00020918
3.91888e-06
0.00152979
0.000292111
4.56472e-06
0.00159585
0.000252482
3.75044e-06
0.00163686
0.000192431
4.28884e-06
0.00166647
0.000155325
3.76473e-06
0.00168388
0.000127652
4.09883e-06
0.00169664
0.000109226
3.7487e-06
0.00170312
9.48773e-05
3.95137e-06
0.00170774
8.33362e-05
3.73745e-06
0.00170879
7.43788e-05
3.85125e-06
0.00170923
6.61229e-05
3.73368e-06
0.00170762
6.00052e-05
3.78324e-06
0.00170605
5.36734e-05
3.73407e-06
0.00170325
4.94893e-05
3.73994e-06
0.0017005
4.43628e-05
3.74165e-06
0.00169711
4.13848e-05
3.7165e-06
0.0016924
3.67184e-05
3.75913e-06
0.001689
3.51758e-05
3.70878e-06
0.00167397
1.65374e-05
3.82036e-06
3.54828e-05
3.77436e-06
0.00165586
0.00145254
0.000152446
2.6756e-06
0.00152625
0.000215799
3.34834e-06
0.00158939
0.000189956
2.42276e-06
0.00163301
0.000146383
3.04357e-06
0.00166868
0.000119696
2.43485e-06
0.00169434
9.97231e-05
2.84553e-06
0.00171655
8.6818e-05
2.43069e-06
0.00173286
7.67729e-05
2.69316e-06
0.00174728
6.87645e-05
2.42878e-06
0.00175778
6.24712e-05
2.58925e-06
0.00176715
5.65623e-05
2.43268e-06
0.00177389
5.2148e-05
2.51849e-06
0.00178009
4.73638e-05
2.43988e-06
0.00178444
4.43512e-05
2.47427e-06
0.00178866
4.00464e-05
2.45392e-06
0.00179087
3.84387e-05
2.45104e-06
0.00179433
3.29188e-05
2.47206e-06
0.00179417
3.44209e-05
2.44436e-06
0.00179647
1.36427e-05
2.46817e-06
2.88451e-05
2.49461e-06
0.00180193
0.00144504
0.000100893
3.58888e-06
0.00151458
0.000141313
4.25145e-06
0.0015782
0.000124474
3.42672e-06
0.0016235
9.62332e-05
3.97361e-06
0.0016619
7.88479e-05
3.4347e-06
0.00169093
6.59936e-05
3.78205e-06
0.00171725
5.78209e-05
3.42229e-06
0.00173825
5.15462e-05
3.63514e-06
0.00175782
4.65684e-05
3.41358e-06
0.00177374
4.2704e-05
3.53494e-06
0.00178863
3.90031e-05
3.41112e-06
0.00180091
3.62777e-05
3.46643e-06
0.00181248
3.31977e-05
3.4128e-06
0.00182227
3.13194e-05
3.42376e-06
0.00183126
2.85197e-05
3.42268e-06
0.00183913
2.74171e-05
3.40168e-06
0.00184497
2.42879e-05
3.44084e-06
0.00185129
2.47809e-05
3.3963e-06
0.00184816
1.3582e-05
3.49036e-06
2.65446e-05
3.45797e-06
0.00184687
0.0014462
4.96587e-05
2.98882e-06
0.00151374
7.04109e-05
3.66201e-06
0.00157529
6.26646e-05
2.78751e-06
0.00161966
4.86105e-05
3.36774e-06
0.00165772
3.99638e-05
2.78871e-06
0.0016871
3.35171e-05
3.16931e-06
0.00171439
2.94825e-05
2.77907e-06
0.00173691
2.64108e-05
3.01834e-06
0.00175846
2.40186e-05
2.77296e-06
0.00177675
2.21765e-05
2.91511e-06
0.0017943
2.04138e-05
2.77284e-06
0.00180946
1.91385e-05
2.84444e-06
0.00182403
1.76465e-05
2.77682e-06
0.0018369
1.68256e-05
2.80075e-06
0.00184914
1.5363e-05
2.78908e-06
0.0018599
1.51495e-05
2.77845e-06
0.00186999
1.30638e-05
2.80655e-06
0.00187875
1.43265e-05
2.77355e-06
0.00188384
7.06057e-06
2.81914e-06
1.39916e-05
2.82745e-06
0.00189446
0.00144388
-1.53281e-10
3.28483e-06
0.00151016
2.58996e-10
3.95521e-06
0.00157177
-2.123e-10
3.11137e-06
0.00161634
6.9914e-10
3.67076e-06
0.00165466
9.72546e-12
3.11392e-06
0.00168428
1.97144e-09
3.47576e-06
0.00171191
1.13128e-09
3.10296e-06
0.00173489
4.61456e-09
3.32729e-06
0.00175711
4.46311e-09
3.09547e-06
0.00177623
1.11668e-08
3.22574e-06
0.00179477
1.5912e-08
3.09389e-06
0.00181109
3.36736e-08
3.15614e-06
0.00182689
4.65937e-08
3.0965e-06
0.00184118
1.10198e-07
3.11312e-06
0.00185469
1.23874e-07
3.10767e-06
0.00186719
3.39604e-07
3.09115e-06
0.00187793
3.69032e-07
3.12549e-06
0.00188884
9.39242e-07
3.08632e-06
0.00189242
1.16652e-06
3.15756e-06
2.48421e-06
3.1433e-06
0.0019012
0.00144388
-4.9659e-05
3.28483e-06
0.00151016
-7.04103e-05
3.95521e-06
0.00157177
-6.26651e-05
3.11137e-06
0.00161634
-4.86091e-05
3.67076e-06
0.00165466
-3.99638e-05
3.11392e-06
0.00168428
-3.35131e-05
3.47576e-06
0.00171191
-2.94803e-05
3.10295e-06
0.00173489
-2.64014e-05
3.32729e-06
0.00175711
-2.40098e-05
3.09547e-06
0.00177623
-2.21535e-05
3.22575e-06
0.00179477
-2.03822e-05
3.09389e-06
0.00181109
-1.90692e-05
3.15618e-06
0.00182689
-1.75543e-05
3.09653e-06
0.00184117
-1.65989e-05
3.11326e-06
0.00185469
-1.5118e-05
3.10774e-06
0.00186716
-1.44558e-05
3.09161e-06
0.00187792
-1.23353e-05
3.12564e-06
0.00188882
-1.2445e-05
3.08765e-06
0.00189248
-4.80344e-06
3.1575e-06
-9.20573e-06
3.14553e-06
0.00190144
0.0014462
-0.000100893
2.98882e-06
0.00151374
-0.000141312
3.66201e-06
0.00157529
-0.000124475
2.78751e-06
0.00161966
-9.62318e-05
3.36774e-06
0.00165772
-7.88479e-05
2.78871e-06
0.0016871
-6.59897e-05
3.16931e-06
0.00171439
-5.78188e-05
2.77907e-06
0.00173691
-5.1537e-05
3.01834e-06
0.00175846
-4.65598e-05
2.77296e-06
0.00177675
-4.26819e-05
2.9151e-06
0.0017943
-3.8972e-05
2.77283e-06
0.00180947
-3.62117e-05
2.8444e-06
0.00182404
-3.31065e-05
2.7768e-06
0.00183692
-3.11046e-05
2.8006e-06
0.00184917
-2.82777e-05
2.789e-06
0.00185995
-2.67558e-05
2.77798e-06
0.00187005
-2.35698e-05
2.80636e-06
0.00187888
-2.29569e-05
2.77222e-06
0.00188395
-1.13129e-05
2.81903e-06
-2.16773e-05
2.82524e-06
0.0018945
0.00144504
-0.000152446
3.58888e-06
0.00151458
-0.000215798
4.25145e-06
0.0015782
-0.000189956
3.42672e-06
0.0016235
-0.000146382
3.97361e-06
0.0016619
-0.000119696
3.4347e-06
0.00169093
-9.97192e-05
3.78205e-06
0.00171725
-8.6816e-05
3.42229e-06
0.00173825
-7.67637e-05
3.63514e-06
0.00175782
-6.87563e-05
3.41358e-06
0.00177374
-6.2449e-05
3.53496e-06
0.00178863
-5.65326e-05
3.41112e-06
0.00180092
-5.20824e-05
3.46646e-06
0.00181248
-4.72764e-05
3.41281e-06
0.00182228
-4.41381e-05
3.42387e-06
0.00183127
-3.98164e-05
3.42272e-06
0.00183916
-3.77866e-05
3.40204e-06
0.00184504
-3.22419e-05
3.44087e-06
0.00185142
-3.26625e-05
3.39741e-06
0.00184847
-1.15509e-05
3.48985e-06
-2.43096e-05
3.45969e-06
0.0018475
0.00145254
-0.00020918
2.6756e-06
0.00152625
-0.00029211
3.34834e-06
0.00158939
-0.000252483
2.42276e-06
0.00163301
-0.00019243
3.04357e-06
0.00166868
-0.000155325
2.43485e-06
0.00169434
-0.000127649
2.84553e-06
0.00171655
-0.000109224
2.43069e-06
0.00173286
-9.48687e-05
2.69316e-06
0.00174729
-8.33286e-05
2.42878e-06
0.00175779
-7.43584e-05
2.58924e-06
0.00176716
-6.60949e-05
2.43267e-06
0.0017739
-5.99457e-05
2.51845e-06
0.0017801
-5.35907e-05
2.43986e-06
0.00178447
-4.9297e-05
2.47413e-06
0.00178871
-4.41468e-05
2.45386e-06
0.00179099
-4.07947e-05
2.45061e-06
0.00179448
-3.60821e-05
2.47187e-06
0.00179448
-3.35661e-05
2.44316e-06
0.00179686
-1.45252e-05
2.46808e-06
-3.1045e-05
2.49262e-06
0.00180242
0.00145075
-0.000267201
3.91888e-06
0.00152979
-0.000377015
4.56472e-06
0.00159585
-0.000321264
3.75044e-06
0.00163686
-0.000239137
4.28884e-06
0.00166647
-0.000188227
3.76473e-06
0.00168388
-0.000150591
4.09883e-06
0.00169664
-0.000125502
3.7487e-06
0.00170312
-0.000106397
3.95137e-06
0.00170774
-9.14158e-05
3.73745e-06
0.00170879
-8.00752e-05
3.85126e-06
0.00170924
-7.00207e-05
3.73368e-06
0.00170763
-6.27033e-05
3.78326e-06
0.00170607
-5.54294e-05
3.73407e-06
0.00170329
-5.05846e-05
3.74002e-06
0.00170056
-4.48465e-05
3.74165e-06
0.00169722
-4.15286e-05
3.71678e-06
0.00169261
-3.51955e-05
3.75904e-06
0.00168938
-3.45941e-05
3.70965e-06
0.0016747
-3.99808e-06
3.81927e-06
-1.81945e-05
3.77579e-06
0.00165726
0.00146745
-0.000337861
2.31396e-06
0.00155191
-0.000463289
3.0003e-06
0.00160563
-0.000373389
1.98643e-06
0.00162783
-0.000262887
2.68717e-06
0.00163658
-0.000195989
2.03e-06
0.00163408
-0.000149461
2.49607e-06
0.00162849
-0.000119162
2.04067e-06
0.00161857
-9.73644e-05
2.34396e-06
0.00160873
-8.08014e-05
2.04815e-06
0.00159712
-6.89672e-05
2.2397e-06
0.00158658
-5.87217e-05
2.05955e-06
0.00157532
-5.16233e-05
2.1687e-06
0.00156538
-4.46844e-05
2.07213e-06
0.00155494
-4.01091e-05
2.12323e-06
0.00154598
-3.52152e-05
2.0892e-06
0.00153576
-3.13278e-05
2.09834e-06
0.00152925
-2.83235e-05
2.10998e-06
0.00151768
-2.3217e-05
2.0893e-06
0.00151825
-4.43289e-06
2.0984e-06
-1.95298e-05
2.13439e-06
0.0015191
0.00147317
-0.000419116
4.29132e-06
0.00154605
-0.000543089
4.90541e-06
0.00156802
-0.000399005
4.0904e-06
0.00155234
-0.000253808
4.62062e-06
0.00152627
-0.000174093
4.10754e-06
0.00149489
-0.000124425
4.42811e-06
0.00146615
-9.47373e-05
4.08456e-06
0.00143798
-7.50474e-05
4.27797e-06
0.00141384
-6.09396e-05
4.0697e-06
0.00139083
-5.14293e-05
4.17684e-06
0.00137123
-4.33946e-05
4.064e-06
0.00135252
-3.8088e-05
4.10866e-06
0.00133641
-3.28715e-05
4.0632e-06
0.00132083
-2.95976e-05
4.06503e-06
0.00130701
-2.59088e-05
4.06926e-06
0.00129392
-2.34124e-05
4.04101e-06
0.00128053
-1.97657e-05
4.08631e-06
0.00127119
-1.91978e-05
4.03101e-06
0.00124382
1.77005e-05
4.14764e-06
7.15354e-06
4.10053e-06
0.00121149
0.00149314
-0.000514256
1.93007e-06
0.00149162
-0.000542473
2.59629e-06
0.00142056
-0.000325332
1.55065e-06
0.00133763
-0.000171455
2.29445e-06
0.00126853
-0.000102971
1.61161e-06
0.00121152
-6.77317e-05
2.11443e-06
0.0011676
-4.89541e-05
1.61545e-06
0.00113019
-3.74767e-05
1.95739e-06
0.0011005
-2.94238e-05
1.61807e-06
0.00107391
-2.43372e-05
1.8475e-06
0.00105218
-1.98932e-05
1.62799e-06
0.00103197
-1.71619e-05
1.77258e-06
0.00101504
-1.43149e-05
1.64337e-06
0.000998815
-1.26376e-05
1.72557e-06
0.000985102
-1.08443e-05
1.66593e-06
0.000971282
-8.94302e-06
1.70023e-06
0.000961753
-9.16941e-06
1.69541e-06
0.000946981
-3.87924e-06
1.69109e-06
0.000958695
6.90223e-06
1.69251e-06
-1.70498e-06
1.73342e-06
0.000967944
0.0013847
-0.000507673
4.70996e-06
0.00119775
-0.000363386
5.26055e-06
0.00102617
-0.000158165
4.42304e-06
0.000907498
-6.01171e-05
4.9549e-06
0.000831785
-3.20988e-05
4.45205e-06
0.000778611
-2.15048e-05
4.76501e-06
0.000741578
-1.68726e-05
4.42654e-06
0.000711273
-1.37237e-05
4.61542e-06
0.000688527
-1.17196e-05
4.41168e-06
0.000668124
-1.02236e-05
4.51552e-06
0.000652171
-9.11148e-06
4.40677e-06
0.000637116
-8.27499e-06
4.4497e-06
0.000624987
-7.55596e-06
4.40794e-06
0.000613201
-7.01772e-06
4.40819e-06
0.000603315
-6.55857e-06
4.41472e-06
0.000594105
-5.94176e-06
4.38444e-06
0.000584671
-5.5529e-06
4.43089e-06
0.000580641
-6.09011e-06
4.37031e-06
0.000541873
3.95942e-05
4.48024e-06
2.75097e-05
4.43774e-06
0.000506235
0.000892725
1.56769e-06
0.000530551
2.02608e-06
0.000376986
1.21469e-06
0.000318572
1.73072e-06
0.00029064
1.24927e-06
0.000271183
1.54255e-06
0.00025827
1.22616e-06
0.000246883
1.39426e-06
0.000238945
1.21045e-06
0.000231239
1.30064e-06
0.00022573
1.20377e-06
0.000220067
1.24113e-06
0.00021593
1.20243e-06
0.00021156
1.20425e-06
0.000208246
1.20621e-06
0.00020496
1.18334e-06
0.000202494
1.21677e-06
0.000199056
1.17261e-06
0.00024163
1.22872e-06
1.20681e-06
0.000271687
0.00107992
0.000315823
-3.05881e-11
0.000786059
0.000295136
-3.04803e-11
0.00058022
0.000206248
-3.09575e-11
0.000471294
0.000109835
-3.22934e-11
0.00041945
5.23092e-05
-3.32013e-11
0.000394877
2.53834e-05
-3.28324e-11
0.000379857
1.55606e-05
-3.06998e-11
0.000368932
1.16667e-05
-2.84022e-11
0.000359232
1.02745e-05
-2.59226e-11
0.000350939
8.95851e-06
-2.4425e-11
0.000343365
8.13128e-06
-2.32076e-11
0.000336849
7.0918e-06
-2.32478e-11
0.000331038
6.32985e-06
-2.37959e-11
0.000325847
5.70014e-06
-2.53222e-11
0.000321555
4.79718e-06
-2.66351e-11
0.000317142
4.90034e-06
-2.80681e-11
0.000314249
3.42313e-06
-2.85e-11
0.000309961
4.78605e-06
-2.8952e-11
0.000310922
-3.69264e-07
-2.87311e-11
8.51446e-07
-2.76122e-11
0.000310601
0.00143142
0.000283285
-3.07212e-11
0.00138718
0.000343892
-2.99988e-11
0.00129688
0.000300161
-2.91131e-11
0.00120796
0.000202808
-3.0035e-11
0.00113348
0.000130315
-3.17128e-11
0.00107472
8.8061e-05
-3.31208e-11
0.00102716
6.68108e-05
-3.30489e-11
0.000988406
5.44364e-05
-3.27716e-11
0.000955774
4.68277e-05
-3.1753e-11
0.000928372
4.04635e-05
-3.03649e-11
0.000904809
3.57169e-05
-2.78527e-11
0.000884536
3.14077e-05
-2.57011e-11
0.000866841
2.79665e-05
-2.41768e-11
0.000851043
2.53711e-05
-2.44114e-11
0.000837402
2.22512e-05
-2.53398e-11
0.000824438
2.15994e-05
-2.73579e-11
0.000813758
1.78651e-05
-2.90718e-11
0.000802904
1.93317e-05
-3.09641e-11