/*--------------------------------*- C++ -*----------------------------------*\
  =========                 |
  \\      /  F ield         | OpenFOAM: The Open Source CFD Toolbox
   \\    /   O peration     | Website:  https://openfoam.org
    \\  /    A nd           | Version:  7
     \\/     M anipulation  |
\*---------------------------------------------------------------------------*/
FoamFile
{
    version     2.0;
    format      ascii;
    class       volScalarField;
    location    "0.0425";
    object      k;
}
// * * * * * * * * * * * * * * * * * * * * * * * * * * * * * * * * * * * * * //

dimensions      [0 2 -2 0 0 0 0];

internalField   nonuniform List<scalar> 
1440
(
0.144753
0.768631
2.02125
3.48058
4.87395
6.07615
7.01512
7.66634
8.04863
8.21324
8.19433
8.11274
7.93819
7.7081
7.45453
7.19296
6.93341
6.682
6.44271
6.21805
6.0092
5.81673
5.64053
5.48001
5.33428
5.20236
5.08313
4.97542
4.87813
4.79022
4.71058
4.63851
4.57359
4.51513
4.46255
4.41576
4.3746
4.33865
4.3073
4.28002
4.25635
4.23557
4.21795
4.20278
4.18862
4.17709
4.16768
4.15807
4.15092
4.14557
4.14018
4.13578
4.13146
4.12651
4.12532
4.12157
4.12067
4.1105
4.11531
4.09561
0.000343226
0.0069701
0.0366891
0.108741
0.254721
0.46317
0.715349
0.993238
1.26446
1.51188
1.71705
1.88523
2.01905
2.12167
2.19721
2.25242
2.29175
2.3143
2.32457
2.33195
2.33503
2.33459
2.33304
2.3298
2.32484
2.31918
2.3132
2.30698
2.30058
2.29396
2.28663
2.27749
2.26599
2.25258
2.23714
2.21909
2.19927
2.17972
2.16214
2.14723
2.13467
2.12459
2.11764
2.11327
2.10963
2.10581
2.10226
2.09932
2.09743
2.09683
2.09724
2.09952
2.10289
2.10404
2.10387
2.10507
2.10757
2.11391
2.11729
2.12748
2.02641e-05
3.82957e-05
0.000199078
0.000882477
0.00297054
0.00782846
0.0170106
0.0329012
0.0562622
0.0853293
0.11752
0.152599
0.189532
0.22517
0.257948
0.290198
0.323283
0.354294
0.380009
0.399503
0.413823
0.426904
0.442878
0.461396
0.477606
0.48711
0.490047
0.490196
0.489948
0.489198
0.487217
0.482353
0.472281
0.458229
0.44083
0.420862
0.399081
0.376326
0.35353
0.331818
0.312126
0.295024
0.280893
0.270244
0.262601
0.256778
0.251911
0.248034
0.245088
0.243143
0.241911
0.241316
0.240329
0.23891
0.23693
0.236226
0.237237
0.24123
0.244277
0.245904
2.00253e-05
2.01515e-05
2.08394e-05
2.44978e-05
3.95507e-05
8.68717e-05
0.000206695
0.000471525
0.00103397
0.00201842
0.00326857
0.00506192
0.00759813
0.0104911
0.01323
0.0160728
0.0199071
0.0250132
0.0302688
0.0340252
0.0359728
0.0377455
0.0413662
0.0472311
0.0534271
0.0577427
0.05944
0.059625
0.059538
0.0592913
0.0586773
0.0572643
0.054021
0.0493817
0.0439685
0.0382014
0.0324623
0.0270539
0.0221872
0.0179956
0.0145246
0.0117521
0.00960726
0.00801453
0.00684849
0.00599394
0.00533992
0.00484628
0.0044605
0.00417886
0.0039636
0.00381943
0.00369851
0.00360389
0.00353752
0.00354179
0.00364846
0.00380507
0.00398948
0.00411247
2.00064e-05
2.00643e-05
2.02247e-05
2.05373e-05
2.11604e-05
2.20914e-05
2.36684e-05
2.68422e-05
3.35116e-05
4.85967e-05
6.94286e-05
9.99896e-05
0.000163112
0.000256449
0.000341467
0.000413081
0.000536824
0.000787062
0.00108069
0.00130048
0.00141491
0.00149595
0.00164485
0.00202277
0.00259704
0.00301698
0.0031925
0.00321586
0.00320899
0.00318845
0.00313534
0.00300821
0.00271485
0.00232594
0.00190782
0.00150171
0.00113756
0.00083196
0.000589678
0.000407131
0.000275637
0.000184663
0.000123815
8.43776e-05
5.91439e-05
4.30917e-05
3.25657e-05
2.56595e-05
2.08862e-05
1.77153e-05
1.54641e-05
1.40238e-05
1.30038e-05
1.24349e-05
1.23226e-05
1.26523e-05
1.40038e-05
1.52106e-05
1.75207e-05
1.92427e-05
2.00021e-05
2.0045e-05
2.01756e-05
2.04505e-05
2.098e-05
2.1631e-05
2.2463e-05
2.35609e-05
2.4968e-05
2.6482e-05
2.77816e-05
2.942e-05
3.20871e-05
3.50824e-05
3.71459e-05
3.85028e-05
4.07521e-05
4.62069e-05
5.38037e-05
5.93849e-05
6.20821e-05
6.3672e-05
6.65596e-05
7.44726e-05
9.09126e-05
0.000102725
0.000107149
0.000107544
0.000107226
0.000106264
0.000103772
9.7508e-05
8.36705e-05
6.7373e-05
5.13795e-05
3.72545e-05
2.57787e-05
1.70897e-05
1.09032e-05
6.73408e-06
4.05962e-06
2.41862e-06
1.45024e-06
8.98223e-07
5.91559e-07
4.24762e-07
3.3465e-07
2.86675e-07
2.61057e-07
2.48231e-07
2.42183e-07
2.40412e-07
2.40704e-07
2.42282e-07
2.43789e-07
2.45998e-07
2.49455e-07
2.52323e-07
2.57716e-07
2.6296e-07
2.00021e-05
2.0045e-05
2.01756e-05
2.04505e-05
2.098e-05
2.1631e-05
2.2463e-05
2.35608e-05
2.49682e-05
2.6482e-05
2.77813e-05
2.94201e-05
3.20877e-05
3.50819e-05
3.71436e-05
3.85005e-05
4.0752e-05
4.62111e-05
5.38018e-05
5.93725e-05
6.20616e-05
6.365e-05
6.65403e-05
7.44706e-05
9.08959e-05
0.000102659
0.000107025
0.000107402
0.000107082
0.00010611
0.000103592
9.72687e-05
8.33887e-05
6.70934e-05
5.11154e-05
3.7016e-05
2.55723e-05
1.69175e-05
1.07652e-05
6.62639e-06
3.97746e-06
2.35628e-06
1.40343e-06
8.62364e-07
5.63677e-07
4.01943e-07
3.15605e-07
2.69731e-07
2.45753e-07
2.33709e-07
2.28756e-07
2.2809e-07
2.29464e-07
2.30927e-07
2.31134e-07
2.31077e-07
2.3082e-07
2.29822e-07
2.26685e-07
2.2188e-07
2.00064e-05
2.00643e-05
2.02247e-05
2.05373e-05
2.11604e-05
2.20913e-05
2.36683e-05
2.68423e-05
3.35119e-05
4.85943e-05
6.94302e-05
9.99855e-05
0.000163112
0.000256421
0.00034138
0.000412999
0.000536868
0.000787115
0.00108061
0.00130012
0.00141431
0.00149532
0.00164438
0.00202292
0.00259675
0.00301557
0.00319009
0.00321302
0.003206
0.00318512
0.00313138
0.00300313
0.00270835
0.002319
0.00190087
0.00149491
0.00113098
0.000825737
0.000584042
0.000402084
0.000271074
0.000180424
0.000119952
8.07324e-05
5.56596e-05
3.95626e-05
2.90589e-05
2.19485e-05
1.70252e-05
1.34653e-05
1.08713e-05
9.08927e-06
8.19908e-06
8.0345e-06
8.06155e-06
8.08016e-06
8.07627e-06
8.07567e-06
8.07031e-06
8.06888e-06
2.00253e-05
2.01515e-05
2.08394e-05
2.44977e-05
3.95499e-05
8.68691e-05
0.000206694
0.00047153
0.00103408
0.00201821
0.00326872
0.00506158
0.0075982
0.0104902
0.0132286
0.0160726
0.0199073
0.0250125
0.0302671
0.0340217
0.0359673
0.0377391
0.0413614
0.0472306
0.0534236
0.0577306
0.05942
0.059602
0.0595137
0.059264
0.0586452
0.0572257
0.0539676
0.0493167
0.0439048
0.0381348
0.0323838
0.0269664
0.0221001
0.0179099
0.0144297
0.0116384
0.00948804
0.00788695
0.00670515
0.00582408
0.00515375
0.00462684
0.00422151
0.0039013
0.00363932
0.00343645
0.00329869
0.00322766
0.00320579
0.00319571
0.00317684
0.00315663
0.00314486
0.00313756
2.02642e-05
3.82958e-05
0.000199076
0.000882459
0.00297049
0.00782822
0.0170104
0.0329015
0.0562625
0.0853279
0.11752
0.152596
0.189531
0.225164
0.257942
0.290196
0.323278
0.354286
0.38
0.399488
0.4138
0.426879
0.442858
0.461377
0.477578
0.487062
0.489984
0.490127
0.489873
0.489112
0.487114
0.482263
0.472068
0.457968
0.440635
0.420632
0.398696
0.375875
0.353109
0.331427
0.31152
0.294078
0.279986
0.269401
0.261432
0.255144
0.250256
0.246038
0.242904
0.24094
0.239376
0.237475
0.235429
0.233675
0.232603
0.232027
0.23093
0.229765
0.229004
0.228597
0.000343239
0.00697017
0.0366891
0.108741
0.25472
0.463168
0.715346
0.993237
1.26446
1.51187
1.71704
1.88522
2.01904
2.12166
2.1972
2.25241
2.29173
2.31428
2.32455
2.33193
2.33499
2.33454
2.33299
2.32974
2.32478
2.31907
2.31312
2.30688
2.30037
2.29384
2.2865
2.27713
2.26571
2.25241
2.23671
2.21842
2.19873
2.17932
2.16156
2.14585
2.13293
2.12341
2.11674
2.11168
2.10699
2.10267
2.09991
2.09728
2.09393
2.09142
2.09106
2.09088
2.09058
2.09019
2.08908
2.08941
2.08993
2.0898
2.08964
2.0895
0.144753
0.768631
2.02125
3.48058
4.87395
6.07615
7.01512
7.66634
8.04863
8.21325
8.19434
8.11275
7.9382
7.70812
7.45455
7.19299
6.93345
6.68205
6.44278
6.21813
6.0093
5.81685
5.64068
5.48019
5.3345
5.20261
5.08343
4.97579
4.87856
4.79074
4.7112
4.63925
4.57448
4.51612
4.46374
4.41721
4.3763
4.34058
4.30953
4.2827
4.25957
4.23938
4.22256
4.20809
4.19495
4.18473
4.17717
4.16845
4.16275
4.16054
4.15863
4.15701
4.15729
4.15759
4.15879
4.16147
4.16458
4.16799
4.17224
4.17669
4.10653
4.1309
4.16416
4.20437
4.24448
4.28483
4.32254
4.35827
4.39131
4.42283
4.45346
4.48428
4.51554
4.54723
4.57894
4.61009
4.64032
4.66945
4.69724
4.72371
4.74899
4.77311
4.79622
4.81887
4.84163
4.86484
4.88865
4.91333
4.93877
4.96465
4.99057
5.01641
5.04193
5.0669
5.09047
5.11275
5.13385
5.15414
5.17355
5.19304
5.21204
5.23009
5.247
5.26301
5.27735
5.28952
5.30361
5.31592
5.33266
5.34579
5.36467
5.37517
5.39304
5.39764
5.40736
5.40662
5.40951
5.40062
5.39574
5.37639
2.13488
2.13326
2.12906
2.11991
2.10904
2.09762
2.08789
2.07861
2.06848
2.05626
2.04225
2.02702
2.01195
1.99749
1.98492
1.97399
1.9649
1.95788
1.95181
1.94621
1.94113
1.9371
1.93407
1.93138
1.92842
1.92485
1.92078
1.91659
1.91274
1.90935
1.90671
1.90467
1.903
1.90208
1.90185
1.90198
1.90277
1.90554
1.90967
1.91321
1.91672
1.92044
1.92467
1.92853
1.93148
1.93285
1.93444
1.9348
1.93485
1.9348
1.93549
1.93825
1.94314
1.95075
1.95626
1.96873
1.97596
1.99105
1.99868
2.02211
0.248329
0.251841
0.256024
0.260371
0.265004
0.268659
0.272655
0.277883
0.283131
0.287263
0.290169
0.292862
0.294705
0.295463
0.296687
0.301045
0.305105
0.305465
0.305448
0.305443
0.305315
0.305147
0.304454
0.302695
0.30011
0.299317
0.301459
0.306424
0.307048
0.30695
0.306915
0.306728
0.306199
0.306177
0.306461
0.306467
0.306461
0.306457
0.306352
0.305929
0.304997
0.305044
0.307223
0.308327
0.308323
0.3083
0.308199
0.307881
0.307395
0.307743
0.30993
0.311175
0.31307
0.3134
0.313742
0.314513
0.316614
0.318882
0.320019
0.323834
0.00434222
0.00462667
0.00497513
0.0053531
0.00581861
0.00626848
0.00673026
0.00728249
0.00789376
0.00842391
0.00885633
0.00924479
0.00954471
0.00979718
0.0100452
0.0103983
0.0109811
0.0115887
0.0118971
0.0119371
0.0119366
0.0119349
0.0119144
0.0118596
0.0117138
0.0116435
0.0117449
0.0122967
0.0130052
0.0134652
0.0136555
0.0137597
0.013776
0.0137365
0.0137402
0.0138107
0.0138258
0.0138243
0.0138239
0.0138099
0.0137701
0.0137657
0.0139077
0.0143411
0.0146965
0.0149245
0.0151118
0.0151908
0.0152335
0.0152612
0.0154468
0.0157341
0.0160613
0.0161618
0.0163787
0.0164946
0.0167193
0.0169298
0.0170892
0.0175588
2.24709e-05
2.63703e-05
3.126e-05
3.68159e-05
4.45338e-05
5.28351e-05
6.17359e-05
7.24342e-05
8.51093e-05
9.7049e-05
0.000107277
0.000116427
0.000124307
0.000131554
0.000138481
0.000145823
0.000158644
0.000176944
0.000189454
0.000191953
0.000191932
0.000191785
0.000190945
0.000188892
0.000185036
0.00018316
0.000185155
0.000197391
0.00022022
0.000237525
0.000250512
0.000256994
0.000257541
0.000256723
0.000256744
0.000258389
0.00025883
0.000258732
0.000258716
0.000258449
0.000257852
0.000257666
0.000260536
0.000272774
0.000287548
0.000296601
0.000308157
0.000313877
0.000321267
0.000325815
0.000338505
0.000346712
0.000361406
0.000367481
0.000381056
0.000387651
0.000395638
0.000406472
0.000415178
0.000442086
2.73184e-07
2.89951e-07
3.1354e-07
3.43883e-07
3.95965e-07
4.59602e-07
5.33103e-07
6.24217e-07
7.41452e-07
8.6206e-07
9.66626e-07
1.06077e-06
1.15172e-06
1.23913e-06
1.32139e-06
1.39967e-06
1.5433e-06
1.7851e-06
1.99722e-06
2.06856e-06
2.07017e-06
2.06719e-06
2.06136e-06
2.04238e-06
1.9993e-06
1.97526e-06
1.99653e-06
2.13808e-06
2.47113e-06
2.77946e-06
3.02898e-06
3.15902e-06
3.17947e-06
3.18708e-06
3.19707e-06
3.19037e-06
3.19383e-06
3.19398e-06
3.19261e-06
3.19163e-06
3.18424e-06
3.17609e-06
3.19818e-06
3.33604e-06
3.62431e-06
3.77865e-06
4.03915e-06
4.18106e-06
4.39671e-06
4.50655e-06
4.76791e-06
4.92267e-06
5.22681e-06
5.3695e-06
5.68025e-06
5.87216e-06
6.03395e-06
6.30649e-06
6.51131e-06
7.18745e-06
2.1713e-07
2.12652e-07
2.08884e-07
2.06092e-07
2.04443e-07
2.0375e-07
2.0376e-07
2.04262e-07
2.0577e-07
2.07178e-07
2.08124e-07
2.08679e-07
2.08858e-07
2.08853e-07
2.08542e-07
2.07316e-07
2.06245e-07
2.05816e-07
2.05468e-07
2.04775e-07
2.03421e-07
2.01493e-07
1.99253e-07
1.9676e-07
1.94568e-07
1.93266e-07
1.92979e-07
1.93532e-07
1.96368e-07
2.00279e-07
2.02781e-07
2.04047e-07
2.04489e-07
2.04568e-07
2.04425e-07
2.03622e-07
2.01985e-07
2.00262e-07
1.98775e-07
1.97605e-07
1.96847e-07
1.96067e-07
1.95437e-07
1.95431e-07
1.96251e-07
1.98167e-07
2.02123e-07
2.04474e-07
2.07863e-07
2.09415e-07
2.12871e-07
2.14619e-07
2.18211e-07
2.19663e-07
2.22703e-07
2.24309e-07
2.26804e-07
2.29119e-07
2.31523e-07
2.40546e-07
8.06078e-06
8.05412e-06
8.02891e-06
7.97245e-06
7.83735e-06
7.6642e-06
7.50979e-06
7.40497e-06
7.33427e-06
7.29695e-06
7.27897e-06
7.25283e-06
7.23538e-06
7.22784e-06
7.21303e-06
7.20621e-06
7.19399e-06
7.16809e-06
7.11375e-06
7.05613e-06
7.01832e-06
6.99789e-06
6.9807e-06
6.94882e-06
6.88603e-06
6.80564e-06
6.79429e-06
6.81913e-06
6.82217e-06
6.81478e-06
6.78694e-06
6.78997e-06
6.89484e-06
7.29683e-06
7.48606e-06
7.48765e-06
7.47577e-06
7.48646e-06
7.67115e-06
8.01498e-06
8.05155e-06
8.05152e-06
8.05034e-06
8.00115e-06
8.00946e-06
8.22664e-06
8.55762e-06
8.58237e-06
8.58114e-06
8.58032e-06
8.52968e-06
8.53253e-06
8.7521e-06
9.26994e-06
9.36326e-06
9.40228e-06
9.42031e-06
9.41949e-06
9.41812e-06
9.32118e-06
0.00312304
0.00311316
0.00310846
0.003105
0.00309864
0.00308529
0.00307487
0.00307043
0.00305913
0.00306586
0.00307948
0.00306715
0.0030718
0.00308788
0.0030812
0.0030887
0.00309513
0.00309208
0.00309206
0.00308979
0.00309121
0.0030914
0.00308885
0.00307583
0.00305942
0.0030751
0.00310445
0.00310433
0.00310378
0.00309681
0.00309353
0.00310731
0.00320174
0.00333998
0.00336383
0.00335691
0.00335556
0.00337275
0.00347376
0.00353699
0.00353767
0.00353619
0.00353483
0.00352888
0.00354415
0.00365933
0.00374449
0.00374734
0.00374643
0.00374602
0.00373257
0.00373595
0.00382089
0.00394875
0.00395452
0.00396455
0.00397467
0.00397442
0.00397398
0.00394237
0.228374
0.227981
0.227728
0.227374
0.226528
0.22619
0.226034
0.225594
0.225633
0.226899
0.227444
0.227116
0.227158
0.228071
0.228642
0.228354
0.228505
0.228565
0.228269
0.228545
0.229401
0.229401
0.229387
0.229162
0.22973
0.232372
0.232841
0.232807
0.232795
0.232541
0.233042
0.236113
0.24193
0.243698
0.243775
0.243701
0.243803
0.24596
0.249316
0.249605
0.249582
0.249585
0.249417
0.249804
0.252558
0.257588
0.258882
0.258917
0.258882
0.25884
0.258629
0.258981
0.262469
0.264849
0.264585
0.264893
0.265094
0.265068
0.265032
0.263791
2.09022
2.09056
2.09161
2.09265
2.0924
2.09304
2.09369
2.0935
2.09414
2.09484
2.0948
2.09492
2.09495
2.09473
2.09374
2.09147
2.09053
2.09235
2.09843
2.10192
2.10327
2.10436
2.1072
2.11291
2.11788
2.12083
2.1236
2.12681
2.13101
2.13737
2.1456
2.15365
2.15955
2.16284
2.16459
2.16709
2.17209
2.17682
2.18011
2.18195
2.18391
2.18838
2.19355
2.19739
2.19961
2.20059
2.20138
2.20434
2.21088
2.21309
2.21276
2.21286
2.21372
2.21796
2.22269
2.22332
2.22332
2.22329
2.22313
2.22163
4.18168
4.18691
4.1925
4.19826
4.20446
4.21107
4.21786
4.22488
4.23204
4.23929
4.2465
4.25368
4.26083
4.26792
4.27501
4.28226
4.28957
4.29674
4.3036
4.31017
4.31649
4.32255
4.32844
4.33412
4.3395
4.34458
4.34954
4.35443
4.35925
4.36408
4.36869
4.37309
4.37728
4.38137
4.38536
4.38938
4.39312
4.39681
4.40017
4.40375
4.40712
4.41084
4.41418
4.41837
4.42166
4.42632
4.43017
4.43596
4.43989
4.44731
4.45173
4.46086
4.46587
4.47735
4.48309
4.49727
4.5036
4.52094
4.52835
4.55212
)
;

boundaryField
{
    upperWall
    {
        type            fixedValue;
        value           uniform 0;
    }
    lowerWall
    {
        type            fixedValue;
        value           uniform 0;
    }
    heatedWall
    {
        type            fixedValue;
        value           uniform 0;
    }
    inlet
    {
        type            fixedValue;
        value           uniform 2e-05;
    }
    outlet
    {
        type            inletOutlet;
        inletValue      uniform 0;
        value           nonuniform List<scalar> 
12
(
5.37639
2.02211
0.323834
0.0175588
0.000442086
7.18745e-06
2.40546e-07
9.32118e-06
0.00394237
0.263791
2.22163
4.55212
)
;
    }
    frontAndBack
    {
        type            empty;
    }
}


// ************************************************************************* //
