/*--------------------------------*- C++ -*----------------------------------*\
  =========                 |
  \\      /  F ield         | OpenFOAM: The Open Source CFD Toolbox
   \\    /   O peration     | Website:  https://openfoam.org
    \\  /    A nd           | Version:  7
     \\/     M anipulation  |
\*---------------------------------------------------------------------------*/
FoamFile
{
    version     2.0;
    format      ascii;
    class       volScalarField;
    location    "0.0425";
    object      nut;
}
// * * * * * * * * * * * * * * * * * * * * * * * * * * * * * * * * * * * * * //

dimensions      [0 2 -1 0 0 0 0];

internalField   nonuniform List<scalar> 
1440
(
0.000134117
0.000309063
0.000501188
0.000657606
0.000778146
0.000868806
0.000933502
0.000975842
0.000999836
0.00100994
0.00100876
0.00100368
0.000992756
0.00097821
0.000961939
0.000944868
0.000927621
0.000910605
0.000894112
0.000878345
0.000863431
0.000849455
0.000836458
0.000824438
0.000813372
0.000803222
0.000793934
0.000785455
0.000777706
0.000770636
0.00076419
0.000758294
0.000752924
0.000748055
0.000743714
0.000739823
0.000736337
0.000733265
0.000730589
0.000728263
0.000726239
0.000724486
0.000722948
0.00072161
0.00072048
0.000719545
0.000718732
0.000717904
0.000717326
0.000717028
0.000716819
0.000716498
0.000716162
0.000716136
0.000716148
0.000716179
0.000716249
0.000716194
0.000716245
0.000716248
6.53083e-06
2.94337e-05
6.75271e-05
0.000116244
0.000177903
0.000239895
0.000298135
0.000351322
0.000396405
0.000433444
0.000461914
0.000484008
0.00050088
0.00051344
0.000522492
0.000529013
0.000533609
0.000536226
0.000537414
0.000538266
0.000538619
0.000538568
0.000538387
0.000538012
0.000537436
0.000536779
0.000536087
0.000535367
0.000534632
0.000533875
0.000533002
0.000531911
0.000530594
0.00052903
0.000527188
0.00052505
0.000522688
0.000520341
0.00051824
0.000516487
0.00051502
0.00051378
0.000512822
0.000512184
0.000511751
0.000511343
0.0005109
0.00051048
0.000510177
0.000510045
0.000510238
0.000510441
0.000510439
0.000510429
0.000510326
0.0005103
0.000510536
0.000510885
0.000510861
0.000510905
1.5868e-06
2.1816e-06
4.97437e-06
1.04728e-05
1.92145e-05
3.11979e-05
4.59753e-05
6.3958e-05
8.3654e-05
0.000103012
0.000120885
0.000137746
0.000153504
0.000167298
0.000179054
0.000189919
0.000200454
0.000209848
0.000217328
0.000222828
0.000226781
0.000230337
0.000234607
0.000239459
0.000243622
0.000246024
0.000246758
0.000246795
0.000246732
0.000246543
0.000246044
0.000244816
0.00024221
0.000238565
0.000234004
0.000228631
0.000222604
0.000216173
0.000209524
0.000202935
0.00019676
0.000191425
0.000186925
0.000183173
0.000180285
0.000178244
0.000176728
0.000175461
0.000174325
0.000173473
0.000173008
0.000172566
0.000171868
0.000171099
0.000170614
0.000170394
0.000170229
0.000169869
0.000169581
0.000169629
1.57743e-06
1.58237e-06
1.60912e-06
1.74463e-06
2.2169e-06
3.28621e-06
5.06926e-06
7.65808e-06
1.13464e-05
1.5846e-05
2.01646e-05
2.50957e-05
3.07426e-05
3.61123e-05
4.05472e-05
4.46963e-05
4.97487e-05
5.57668e-05
6.1344e-05
6.50337e-05
6.68648e-05
6.84924e-05
7.17068e-05
7.66263e-05
8.14916e-05
8.4708e-05
8.59355e-05
8.60665e-05
8.60031e-05
8.58235e-05
8.5376e-05
8.43377e-05
8.18982e-05
7.82845e-05
7.3861e-05
6.88367e-05
6.34418e-05
5.7908e-05
5.24319e-05
4.71951e-05
4.23722e-05
3.81218e-05
3.44894e-05
3.14535e-05
2.89956e-05
2.70656e-05
2.55465e-05
2.43085e-05
2.32712e-05
2.24292e-05
2.17681e-05
2.12259e-05
2.07598e-05
2.03884e-05
2.01536e-05
2.01171e-05
2.0228e-05
2.03212e-05
2.03778e-05
2.04648e-05
1.57668e-06
1.57894e-06
1.58521e-06
1.59727e-06
1.62114e-06
1.65615e-06
1.71423e-06
1.82567e-06
2.0405e-06
2.45795e-06
2.93749e-06
3.52635e-06
4.50504e-06
5.64546e-06
6.51201e-06
7.16304e-06
8.16951e-06
9.89394e-06
1.15925e-05
1.27145e-05
1.32603e-05
1.36347e-05
1.42987e-05
1.5861e-05
1.79691e-05
1.93623e-05
1.99137e-05
1.9985e-05
1.99634e-05
1.98987e-05
1.9731e-05
1.9324e-05
1.83515e-05
1.69805e-05
1.53739e-05
1.36351e-05
1.18625e-05
1.014e-05
8.53174e-06
7.08271e-06
5.82103e-06
4.75934e-06
3.89258e-06
3.20336e-06
2.66893e-06
2.26305e-06
1.95619e-06
1.72069e-06
1.53646e-06
1.39203e-06
1.27854e-06
1.18883e-06
1.11896e-06
1.06932e-06
1.0406e-06
1.03391e-06
1.04262e-06
1.05836e-06
1.07052e-06
1.08397e-06
1.57651e-06
1.57819e-06
1.58328e-06
1.59391e-06
1.61424e-06
1.63887e-06
1.66986e-06
1.7101e-06
1.76059e-06
1.81334e-06
1.8573e-06
1.91125e-06
1.99594e-06
2.0868e-06
2.14707e-06
2.18597e-06
2.24928e-06
2.39582e-06
2.5853e-06
2.71585e-06
2.77665e-06
2.81199e-06
2.87523e-06
3.04215e-06
3.36092e-06
3.57162e-06
3.64674e-06
3.65318e-06
3.6478e-06
3.63134e-06
3.58817e-06
3.47711e-06
3.21939e-06
2.88767e-06
2.52054e-06
2.14512e-06
1.78327e-06
1.45083e-06
1.15774e-06
9.08756e-07
7.04546e-07
5.42865e-07
4.19528e-07
3.29294e-07
2.6646e-07
2.25127e-07
1.9947e-07
1.84332e-07
1.7578e-07
1.71215e-07
1.69024e-07
1.68261e-07
1.68081e-07
1.67965e-07
1.67847e-07
1.67734e-07
1.67583e-07
1.67256e-07
1.6635e-07
1.64786e-07
1.57651e-06
1.57819e-06
1.58328e-06
1.59391e-06
1.61425e-06
1.63887e-06
1.66986e-06
1.7101e-06
1.76058e-06
1.81334e-06
1.8573e-06
1.91125e-06
1.99595e-06
2.08679e-06
2.14703e-06
2.18594e-06
2.24932e-06
2.396e-06
2.58536e-06
2.71573e-06
2.77641e-06
2.81178e-06
2.87517e-06
3.04264e-06
3.36131e-06
3.57156e-06
3.64637e-06
3.65272e-06
3.6473e-06
3.63077e-06
3.58746e-06
3.47606e-06
3.21801e-06
2.88618e-06
2.51899e-06
2.14359e-06
1.78181e-06
1.44949e-06
1.15656e-06
9.07737e-07
7.03691e-07
5.42165e-07
4.18972e-07
3.28872e-07
2.66157e-07
2.24912e-07
1.99328e-07
1.84242e-07
1.75729e-07
1.71165e-07
1.68957e-07
1.68178e-07
1.68007e-07
1.67899e-07
1.67789e-07
1.67678e-07
1.67543e-07
1.67244e-07
1.66352e-07
1.64772e-07
1.57668e-06
1.57894e-06
1.58521e-06
1.59727e-06
1.62115e-06
1.65614e-06
1.71423e-06
1.82567e-06
2.04042e-06
2.45796e-06
2.93787e-06
3.52634e-06
4.50471e-06
5.64536e-06
6.51165e-06
7.16274e-06
8.17017e-06
9.89512e-06
1.15929e-05
1.27136e-05
1.32586e-05
1.36333e-05
1.42987e-05
1.58639e-05
1.79711e-05
1.93623e-05
1.99122e-05
1.9983e-05
1.99612e-05
1.98962e-05
1.97278e-05
1.93193e-05
1.83444e-05
1.69727e-05
1.53655e-05
1.36266e-05
1.18541e-05
1.0132e-05
8.52428e-06
7.07582e-06
5.81479e-06
4.75375e-06
3.88751e-06
3.19904e-06
2.66562e-06
2.25993e-06
1.95349e-06
1.71916e-06
1.53641e-06
1.39111e-06
1.27471e-06
1.18263e-06
1.11343e-06
1.06594e-06
1.03888e-06
1.03122e-06
1.03945e-06
1.05712e-06
1.06887e-06
1.08151e-06
1.57743e-06
1.58237e-06
1.60912e-06
1.74462e-06
2.21689e-06
3.28611e-06
5.06937e-06
7.65817e-06
1.13448e-05
1.58473e-05
2.01659e-05
2.50947e-05
3.07418e-05
3.61123e-05
4.05468e-05
4.46957e-05
4.97497e-05
5.57692e-05
6.1345e-05
6.50315e-05
6.68608e-05
6.84903e-05
7.1709e-05
7.66303e-05
8.14943e-05
8.47078e-05
8.59331e-05
8.60634e-05
8.59997e-05
8.58195e-05
8.53707e-05
8.43295e-05
8.1885e-05
7.82704e-05
7.38447e-05
6.88199e-05
6.34235e-05
5.78902e-05
5.24147e-05
4.71769e-05
4.23545e-05
3.81052e-05
3.44691e-05
3.14357e-05
2.89872e-05
2.70469e-05
2.55265e-05
2.43065e-05
2.32953e-05
2.24422e-05
2.17279e-05
2.11451e-05
2.06994e-05
2.03969e-05
2.02148e-05
2.01267e-05
2.01602e-05
2.02999e-05
2.03838e-05
2.04529e-05
1.5868e-06
2.18161e-06
4.97436e-06
1.04727e-05
1.92143e-05
3.11954e-05
4.5978e-05
6.39581e-05
8.36523e-05
0.000103013
0.000120886
0.000137745
0.000153503
0.000167298
0.000179054
0.000189918
0.000200454
0.000209849
0.000217329
0.000222826
0.000226779
0.000230335
0.000234608
0.000239461
0.000243623
0.000246023
0.000246756
0.000246792
0.000246729
0.00024654
0.00024604
0.000244809
0.0002422
0.000238558
0.000233991
0.000228622
0.000222588
0.00021616
0.00020951
0.000202914
0.00019674
0.000191414
0.000186881
0.000183136
0.000180306
0.000178173
0.00017665
0.000175503
0.000174494
0.000173547
0.000172721
0.000172092
0.000171694
0.000171457
0.00017115
0.000170553
0.000169933
0.000169663
0.000169643
0.000169618
6.53096e-06
2.94339e-05
6.75271e-05
0.000116244
0.000177903
0.000239895
0.000298135
0.000351323
0.000396406
0.000433444
0.000461914
0.000484008
0.00050088
0.000513439
0.000522492
0.000529012
0.000533609
0.000536226
0.000537414
0.000538266
0.000538619
0.000538568
0.000538387
0.000538011
0.000537436
0.000536779
0.000536087
0.000535366
0.00053463
0.000533876
0.000532998
0.000531911
0.000530593
0.000529029
0.000527188
0.000525048
0.000522682
0.000520331
0.000518228
0.00051647
0.000514994
0.000513766
0.000512797
0.00051213
0.000511716
0.000511357
0.000510919
0.00051047
0.000510248
0.00051017
0.000510034
0.000509946
0.000510137
0.000510451
0.000510453
0.000510453
0.000510434
0.000510606
0.000510913
0.000510989
0.000134117
0.000309063
0.000501188
0.000657606
0.000778146
0.000868806
0.000933502
0.000975842
0.000999836
0.00100994
0.00100876
0.00100368
0.000992756
0.00097821
0.000961939
0.000944868
0.000927621
0.000910605
0.000894112
0.000878346
0.000863432
0.000849455
0.000836459
0.000824439
0.000813373
0.000803222
0.000793937
0.000785454
0.00077771
0.000770643
0.000764184
0.000758293
0.000752939
0.000748086
0.0007437
0.000739772
0.000736295
0.000733246
0.000730587
0.000728267
0.000726249
0.000724492
0.000722969
0.000721626
0.000720459
0.000719554
0.0007188
0.000718015
0.000717494
0.000717097
0.00071667
0.000716509
0.000716426
0.000716215
0.000716015
0.000716038
0.000716109
0.000716262
0.00071627
0.000715946
0.000716106
0.000716072
0.000716191
0.000716192
0.000715925
0.000715879
0.000715979
0.000716008
0.000715839
0.000715741
0.000715756
0.000715588
0.000715358
0.000715396
0.000715393
0.000715216
0.000715142
0.000715132
0.000715033
0.000715048
0.00071505
0.000714936
0.000714759
0.000714776
0.000714843
0.000714901
0.000714822
0.000714782
0.000714813
0.000714735
0.000714571
0.000714606
0.000714633
0.000714527
0.000714507
0.000714526
0.000714397
0.000714357
0.000714366
0.000714216
0.000713997
0.000714007
0.000714049
0.00071404
0.00071386
0.000713771
0.000713771
0.000713726
0.000713535
0.000713512
0.000713499
0.000713328
0.000713247
0.000713203
0.000713018
0.000712954
0.000712925
0.000712854
0.000712679
0.000712591
0.000511079
0.000511308
0.000511743
0.000512098
0.000512139
0.000512106
0.000512165
0.000512202
0.000512112
0.000512152
0.000512185
0.000512171
0.000512168
0.00051213
0.000512081
0.000511936
0.000511619
0.000511184
0.000510956
0.000511051
0.000511111
0.000511016
0.000511021
0.000511224
0.000511386
0.000511437
0.000511686
0.000512264
0.00051247
0.000512549
0.000512561
0.000512534
0.000512582
0.000512777
0.000513345
0.000513587
0.000513576
0.000513618
0.000513634
0.000513627
0.000513608
0.000513683
0.000514183
0.000514412
0.000514412
0.00051441
0.000514375
0.000514364
0.000514491
0.000515109
0.000515507
0.000515543
0.000515535
0.000515535
0.000515522
0.000515508
0.000515485
0.000515659
0.000516267
0.000516383
0.000169705
0.000169673
0.000169586
0.000169615
0.000170501
0.000171678
0.00017171
0.000171721
0.000172132
0.000172606
0.000172608
0.000172583
0.000172666
0.000173534
0.000174201
0.000174438
0.000174423
0.000174279
0.000174407
0.000174519
0.000174516
0.000174508
0.000174333
0.000174168
0.000174486
0.000175547
0.000175625
0.000175582
0.000175493
0.000175439
0.000175924
0.000176882
0.000176987
0.000177088
0.000177767
0.000178005
0.000178014
0.000178006
0.000177919
0.000178197
0.000179338
0.000179579
0.000179566
0.000179537
0.000179555
0.000180366
0.000180974
0.000180964
0.000180975
0.000180978
0.000180937
0.000181031
0.000182006
0.000182741
0.000182918
0.000182875
0.000182874
0.000182873
0.000182724
0.000182751
2.05573e-05
2.06182e-05
2.06408e-05
2.0695e-05
2.09309e-05
2.12023e-05
2.13984e-05
2.15802e-05
2.1778e-05
2.19095e-05
2.2034e-05
2.22308e-05
2.23282e-05
2.23646e-05
2.24524e-05
2.25498e-05
2.25578e-05
2.25587e-05
2.25554e-05
2.25332e-05
2.24584e-05
2.22942e-05
2.20334e-05
2.17482e-05
2.16269e-05
2.17375e-05
2.20211e-05
2.2039e-05
2.20222e-05
2.20187e-05
2.20695e-05
2.23589e-05
2.251e-05
2.25453e-05
2.25824e-05
2.25578e-05
2.25711e-05
2.26847e-05
2.291e-05
2.30243e-05
2.3026e-05
2.30261e-05
2.30259e-05
2.29948e-05
2.29896e-05
2.31067e-05
2.34922e-05
2.35805e-05
2.35809e-05
2.35799e-05
2.35552e-05
2.35441e-05
2.36202e-05
2.39415e-05
2.40419e-05
2.40326e-05
2.40392e-05
2.40391e-05
2.40321e-05
2.39707e-05
1.09941e-06
1.11342e-06
1.12739e-06
1.14919e-06
1.18005e-06
1.21139e-06
1.24597e-06
1.28409e-06
1.32327e-06
1.35792e-06
1.38969e-06
1.4156e-06
1.43363e-06
1.44427e-06
1.44862e-06
1.44909e-06
1.44835e-06
1.44151e-06
1.41531e-06
1.37439e-06
1.32962e-06
1.28306e-06
1.23497e-06
1.1912e-06
1.16502e-06
1.16493e-06
1.18853e-06
1.20854e-06
1.21888e-06
1.22462e-06
1.23021e-06
1.24841e-06
1.26297e-06
1.26299e-06
1.26306e-06
1.26228e-06
1.26318e-06
1.26791e-06
1.28332e-06
1.28799e-06
1.28632e-06
1.28784e-06
1.29657e-06
1.3059e-06
1.31733e-06
1.33969e-06
1.3495e-06
1.34852e-06
1.35086e-06
1.35204e-06
1.35159e-06
1.35035e-06
1.35202e-06
1.37223e-06
1.38929e-06
1.38939e-06
1.3888e-06
1.38533e-06
1.38683e-06
1.38995e-06
1.63168e-07
1.61638e-07
1.60393e-07
1.5947e-07
1.58998e-07
1.58914e-07
1.5902e-07
1.5955e-07
1.60397e-07
1.61085e-07
1.61597e-07
1.61879e-07
1.61954e-07
1.61917e-07
1.61654e-07
1.60894e-07
1.59757e-07
1.58025e-07
1.56138e-07
1.54026e-07
1.52188e-07
1.50361e-07
1.48771e-07
1.47307e-07
1.4636e-07
1.45774e-07
1.4553e-07
1.45189e-07
1.44964e-07
1.445e-07
1.44288e-07
1.44023e-07
1.43866e-07
1.43432e-07
1.43097e-07
1.4249e-07
1.41985e-07
1.41274e-07
1.40916e-07
1.40386e-07
1.40007e-07
1.39469e-07
1.39074e-07
1.38605e-07
1.38424e-07
1.38235e-07
1.38111e-07
1.37803e-07
1.37612e-07
1.37212e-07
1.3688e-07
1.36285e-07
1.35981e-07
1.35769e-07
1.35644e-07
1.35307e-07
1.35103e-07
1.34626e-07
1.34371e-07
1.33621e-07
1.63134e-07
1.61587e-07
1.60242e-07
1.59224e-07
1.58591e-07
1.58298e-07
1.5827e-07
1.584e-07
1.58889e-07
1.59394e-07
1.5971e-07
1.59823e-07
1.59818e-07
1.59654e-07
1.59056e-07
1.5797e-07
1.56626e-07
1.54837e-07
1.5311e-07
1.51164e-07
1.49386e-07
1.4765e-07
1.46299e-07
1.44988e-07
1.44087e-07
1.43443e-07
1.432e-07
1.42847e-07
1.42665e-07
1.42401e-07
1.42241e-07
1.41874e-07
1.41617e-07
1.41039e-07
1.40632e-07
1.40034e-07
1.39687e-07
1.39034e-07
1.38571e-07
1.37807e-07
1.37269e-07
1.36602e-07
1.36248e-07
1.35686e-07
1.35346e-07
1.34753e-07
1.3437e-07
1.33744e-07
1.33334e-07
1.32712e-07
1.32287e-07
1.3156e-07
1.31032e-07
1.30398e-07
1.30127e-07
1.29631e-07
1.29376e-07
1.28857e-07
1.28555e-07
1.27664e-07
1.09666e-06
1.10875e-06
1.12419e-06
1.14286e-06
1.16436e-06
1.19136e-06
1.2209e-06
1.24866e-06
1.27803e-06
1.30737e-06
1.33353e-06
1.35367e-06
1.36738e-06
1.37194e-06
1.37218e-06
1.37206e-06
1.36849e-06
1.35192e-06
1.32215e-06
1.2824e-06
1.23283e-06
1.17976e-06
1.12951e-06
1.08872e-06
1.06608e-06
1.06692e-06
1.09399e-06
1.11647e-06
1.13572e-06
1.15986e-06
1.17518e-06
1.17851e-06
1.17862e-06
1.1787e-06
1.17813e-06
1.18493e-06
1.20079e-06
1.20153e-06
1.20136e-06
1.20138e-06
1.19841e-06
1.19937e-06
1.20977e-06
1.21268e-06
1.21205e-06
1.21079e-06
1.20957e-06
1.21195e-06
1.21318e-06
1.21303e-06
1.21289e-06
1.21137e-06
1.20545e-06
1.20334e-06
1.20836e-06
1.21095e-06
1.21031e-06
1.2098e-06
1.20801e-06
1.20089e-06
2.05408e-05
2.05859e-05
2.06609e-05
2.07836e-05
2.09463e-05
2.11644e-05
2.13631e-05
2.1455e-05
2.15698e-05
2.17173e-05
2.18297e-05
2.18932e-05
2.20305e-05
2.20875e-05
2.20611e-05
2.21009e-05
2.21736e-05
2.21811e-05
2.21789e-05
2.21448e-05
2.20203e-05
2.17936e-05
2.15118e-05
2.12577e-05
2.12038e-05
2.14031e-05
2.17539e-05
2.18069e-05
2.18042e-05
2.19178e-05
2.21147e-05
2.21195e-05
2.21187e-05
2.21081e-05
2.21183e-05
2.22311e-05
2.24878e-05
2.25057e-05
2.25026e-05
2.2502e-05
2.24731e-05
2.25294e-05
2.27625e-05
2.27976e-05
2.27964e-05
2.2796e-05
2.27528e-05
2.27718e-05
2.28977e-05
2.29155e-05
2.29094e-05
2.29057e-05
2.28733e-05
2.29401e-05
2.32214e-05
2.32797e-05
2.32793e-05
2.32783e-05
2.32634e-05
2.31982e-05
0.000169527
0.000169513
0.000169761
0.000170692
0.000171776
0.000172111
0.000172109
0.000172101
0.000171992
0.000172063
0.000172598
0.000173162
0.00017309
0.000173089
0.000173339
0.000173867
0.000173866
0.000173834
0.000173952
0.000174015
0.00017401
0.000174007
0.000173812
0.000173914
0.000175114
0.000176287
0.00017633
0.000176306
0.00017625
0.00017641
0.000176791
0.000176912
0.000177005
0.000176917
0.000177039
0.000177839
0.00017826
0.000178207
0.000178207
0.000178197
0.000178381
0.000179302
0.000179723
0.000179721
0.000179708
0.000179669
0.000179629
0.000179821
0.000180748
0.0001809
0.000180894
0.000180878
0.000180889
0.000181625
0.000182252
0.000182429
0.000182514
0.000182511
0.000182508
0.000182321
0.000511087
0.000511254
0.000511701
0.000511951
0.000511929
0.00051201
0.000512258
0.000512292
0.000512271
0.000512298
0.000512306
0.000512288
0.000512247
0.000512181
0.000512106
0.000512019
0.000511916
0.000511723
0.000511401
0.000511187
0.00051129
0.000511811
0.000512034
0.000512044
0.000512184
0.000512675
0.000513061
0.000513097
0.000513029
0.000513058
0.000513256
0.000513403
0.000513538
0.000514
0.000514312
0.000514331
0.00051433
0.000514329
0.00051443
0.00051477
0.000514796
0.000514795
0.000514795
0.000514736
0.000514791
0.000515079
0.000515129
0.000515114
0.000515169
0.000515457
0.000516138
0.000516371
0.000516377
0.000516373
0.000516371
0.000516353
0.000516284
0.000516255
0.000516472
0.000516665
0.000715896
0.000716015
0.000716116
0.000716055
0.000715672
0.000715584
0.000715671
0.000715679
0.000715439
0.000715195
0.000715125
0.000714914
0.000714788
0.000714746
0.000714576
0.000714507
0.000714493
0.000714337
0.00071428
0.000714284
0.000714167
0.000713941
0.000713946
0.00071398
0.000714013
0.000713918
0.00071368
0.000713683
0.000713715
0.000713722
0.000713572
0.000713502
0.000713515
0.000713384
0.000713112
0.000713112
0.000713146
0.00071313
0.000712956
0.000712773
0.000712796
0.000712801
0.000712654
0.000712323
0.000712269
0.000712301
0.000712297
0.00071215
0.000712102
0.000712094
0.00071196
0.00071192
0.000711905
0.00071177
0.000711515
0.000711505
0.000711504
0.000711604
0.000711601
0.000711637
)
;

boundaryField
{
    upperWall
    {
        type            zeroGradient;
    }
    lowerWall
    {
        type            zeroGradient;
    }
    heatedWall
    {
        type            zeroGradient;
    }
    inlet
    {
        type            zeroGradient;
    }
    outlet
    {
        type            zeroGradient;
    }
    frontAndBack
    {
        type            empty;
    }
}


// ************************************************************************* //
