/*--------------------------------*- C++ -*----------------------------------*\
  =========                 |
  \\      /  F ield         | OpenFOAM: The Open Source CFD Toolbox
   \\    /   O peration     | Website:  https://openfoam.org
    \\  /    A nd           | Version:  7
     \\/     M anipulation  |
\*---------------------------------------------------------------------------*/
FoamFile
{
    version     2.0;
    format      ascii;
    class       surfaceScalarField;
    location    "0.0425";
    object      phi_0;
}
// * * * * * * * * * * * * * * * * * * * * * * * * * * * * * * * * * * * * * //

dimensions      [1 0 -1 0 0 0 0];

internalField   nonuniform List<scalar> 
2748
(
0.00483509
2.32073e-05
0.00477729
5.97079e-05
0.00468164
9.75627e-05
0.00455703
0.000126487
0.00441024
0.000148612
0.00424828
0.000163692
0.00407702
0.000172902
0.00390169
0.000176848
0.00372649
0.000176618
0.00355479
0.000173014
0.00338898
0.000167055
0.00323064
0.000159556
0.00308108
0.000150789
0.00294114
0.000141235
0.00281128
0.00013126
0.00269168
0.000121151
0.00258224
0.000111132
0.00248265
0.000101399
0.00239243
9.20936e-05
0.00231094
8.33385e-05
0.00223748
7.52321e-05
0.00217129
6.7818e-05
0.00211166
6.10868e-05
0.00205802
5.49761e-05
0.00200991
4.93969e-05
0.00196694
4.42805e-05
0.00192874
3.96006e-05
0.0018949
3.53618e-05
0.0018649
3.15797e-05
0.00183823
2.82675e-05
0.00181433
2.54188e-05
0.00179276
2.29958e-05
0.00177318
2.09196e-05
0.00175539
1.90831e-05
0.00173933
1.73745e-05
0.00172502
1.56972e-05
0.00171249
1.39909e-05
0.00170179
1.2242e-05
0.0016929
1.04886e-05
0.00168574
8.80875e-06
0.00168014
7.28541e-06
0.00167585
5.96908e-06
0.00167265
4.87955e-06
0.00167027
4.03102e-06
0.00166846
3.42419e-06
0.00166701
3.02076e-06
0.00166582
2.7236e-06
0.00166485
2.45489e-06
0.00166407
2.21726e-06
0.00166345
2.01333e-06
0.00166299
1.80857e-06
0.00166272
1.5787e-06
0.00166267
1.32887e-06
0.00166284
1.07885e-06
0.00166326
8.03774e-07
0.00166391
5.61138e-07
0.00166476
3.70503e-07
0.00166571
2.77207e-07
0.00166669
2.75547e-07
3.29054e-07
0.00166768
0.00486536
1.60251e-05
0.00488489
4.20991e-05
0.00491503
6.93348e-05
0.00495077
9.26238e-05
0.00498787
0.000113334
0.00502287
0.000130437
0.00505318
0.000144241
0.00507704
0.000154515
0.00509353
0.00016153
0.00510236
0.000165453
0.00510387
0.000166703
0.00509873
0.000165743
0.00508769
0.000162811
0.00507156
0.000158298
0.00505123
0.000152529
0.00502753
0.000145831
0.00500123
0.00013849
0.00497303
0.000130772
0.00494352
0.000122918
0.0049132
0.000115139
0.00488248
0.000107596
0.00485169
0.000100399
0.0048211
9.36098e-05
0.00479088
8.7238e-05
0.00476112
8.12648e-05
0.00473187
7.56727e-05
0.00470315
7.0459e-05
0.00467497
6.56373e-05
0.00464731
6.1229e-05
0.00462019
5.72519e-05
0.0045936
5.3708e-05
0.00456752
5.05744e-05
0.00454194
4.77943e-05
0.00451681
4.52848e-05
0.00449211
4.29496e-05
0.00446781
4.06896e-05
0.00444397
3.84218e-05
0.00442065
3.6098e-05
0.00439797
3.37174e-05
0.00437607
3.13134e-05
0.0043552
2.89199e-05
0.00433561
2.65528e-05
0.00431755
2.42281e-05
0.00430121
2.19832e-05
0.00428666
1.98556e-05
0.00427399
1.78514e-05
0.00426322
1.59181e-05
0.00425435
1.39995e-05
0.00424727
1.21077e-05
0.00424179
1.03068e-05
0.00423761
8.64525e-06
0.00423451
7.12658e-06
0.00423237
5.71178e-06
0.0042311
4.37542e-06
0.00423053
3.1165e-06
0.00423034
2.0739e-06
0.00423018
1.35434e-06
0.00422981
9.91854e-07
0.00422921
8.8308e-07
8.84607e-07
0.00422848
0.00486344
1.07467e-05
0.00487787
2.958e-05
0.00490023
4.88878e-05
0.00492909
6.56469e-05
0.00496345
8.07969e-05
0.0050022
9.34368e-05
0.00504423
0.000103858
0.00508841
0.000111858
0.0051337
0.000117649
0.0051791
0.00012133
0.0052238
0.000123161
0.00526717
0.000123427
0.00530866
0.000122288
0.00534787
0.000119992
0.00538454
0.000116747
0.00541849
0.00011277
0.00544967
0.000108252
0.00547809
0.00010337
0.00550385
9.82887e-05
0.00552711
9.31564e-05
0.00554806
8.80951e-05
0.00556689
8.31964e-05
0.00558379
7.85158e-05
0.00559895
7.40684e-05
0.00561252
6.98454e-05
0.00562464
6.58388e-05
0.00563542
6.20583e-05
0.00564498
5.8528e-05
0.00565339
5.52723e-05
0.00566075
5.23106e-05
0.00566714
4.96459e-05
0.00567263
4.7257e-05
0.00567732
4.51018e-05
0.00568125
4.31224e-05
0.00568447
4.12498e-05
0.00568701
3.94089e-05
0.00568888
3.75345e-05
0.00569012
3.55894e-05
0.00569075
3.35722e-05
0.00569085
3.15006e-05
0.00569052
2.93852e-05
0.0056899
2.72259e-05
0.00568913
2.50356e-05
0.00568834
2.28597e-05
0.00568767
2.07378e-05
0.00568728
1.86631e-05
0.0056873
1.65762e-05
0.00568782
1.44418e-05
0.00568889
1.23084e-05
0.00569058
1.02706e-05
0.00569297
8.37952e-06
0.00569611
6.61004e-06
0.00569989
4.90087e-06
0.00570413
3.25453e-06
0.00570865
1.74661e-06
0.00571344
5.49078e-07
0.00571856
-2.51273e-07
0.00572402
-6.9381e-07
0.00572955
-9.24937e-07
-1.08873e-06
0.00573476
0.00486196
6.89338e-06
0.00487399
1.94695e-05
0.00489261
3.21741e-05
0.00491699
4.31496e-05
0.00494658
5.30351e-05
0.00498052
6.12405e-05
0.00501803
6.79938e-05
0.00505824
7.31789e-05
0.00510033
7.69548e-05
0.00514354
7.93966e-05
0.00518719
8.06608e-05
0.00523076
8.09121e-05
0.00527374
8.02671e-05
0.00531575
7.88803e-05
0.0053565
7.68783e-05
0.00539576
7.43959e-05
0.0054334
7.15548e-05
0.00546931
6.84688e-05
0.00550349
6.52409e-05
0.00553596
6.19642e-05
0.00556679
5.87134e-05
0.00559606
5.55481e-05
0.00562387
5.25098e-05
0.00565032
4.9617e-05
0.00567546
4.68723e-05
0.00569933
4.42742e-05
0.00572199
4.18264e-05
0.00574347
3.95409e-05
0.00576384
3.74289e-05
0.00578316
3.54983e-05
0.0058015
3.37477e-05
0.0058189
3.21618e-05
0.00583542
3.07142e-05
0.00585109
2.93701e-05
0.00586592
2.8088e-05
0.0058799
2.68236e-05
0.00589301
2.55403e-05
0.00590521
2.42168e-05
0.00591647
2.28486e-05
0.00592682
2.14379e-05
0.00593629
1.99858e-05
0.00594493
1.84977e-05
0.00595279
1.69922e-05
0.00595991
1.55003e-05
0.00596641
1.40387e-05
0.00597242
1.25967e-05
0.00597804
1.11453e-05
0.00598327
9.68038e-06
0.00598805
8.24009e-06
0.00599244
6.87889e-06
0.00599666
5.61466e-06
0.00600097
4.42221e-06
0.0060054
3.26522e-06
0.00600974
2.16333e-06
0.00601368
1.1769e-06
0.0060172
4.07499e-07
0.00602066
-1.09077e-07
0.00602451
-4.13459e-07
0.00602885
-6.00772e-07
-7.41134e-07
0.00603318
0.00486161
3.38184e-06
0.0048735
9.49327e-06
0.00489196
1.56239e-05
0.00491596
2.10264e-05
0.00494487
2.59521e-05
0.00497777
3.00903e-05
0.00501387
3.35354e-05
0.00505237
3.62059e-05
0.00509256
3.81691e-05
0.00513377
3.94532e-05
0.00517546
4.01329e-05
0.00521712
4.029e-05
0.00525836
3.99874e-05
0.00529884
3.93055e-05
0.00533829
3.83116e-05
0.0053765
3.70751e-05
0.00541333
3.56587e-05
0.0054487
3.41224e-05
0.00548256
3.25182e-05
0.00551491
3.08915e-05
0.0055458
2.92782e-05
0.00557528
2.77065e-05
0.00560343
2.61959e-05
0.0056303
2.47564e-05
0.00565597
2.33906e-05
0.00568047
2.20978e-05
0.00570386
2.08795e-05
0.00572617
1.97409e-05
0.00574745
1.86877e-05
0.00576774
1.77237e-05
0.00578707
1.68482e-05
0.00580548
1.60538e-05
0.00582298
1.53273e-05
0.00583958
1.46511e-05
0.0058553
1.4005e-05
0.00587012
1.33682e-05
0.005884
1.27237e-05
0.00589692
1.20617e-05
0.00590886
1.13801e-05
0.00591984
1.06801e-05
0.00592988
9.96217e-06
0.005939
9.22869e-06
0.00594724
8.48741e-06
0.00595468
7.75276e-06
0.00596144
7.03276e-06
0.00596767
6.32231e-06
0.00597343
5.60632e-06
0.0059787
4.88287e-06
0.00598347
4.17196e-06
0.00598787
3.50361e-06
0.0059922
2.88688e-06
0.00599667
2.30677e-06
0.00600125
1.73977e-06
0.00600561
1.19817e-06
0.00600949
7.19266e-07
0.00601299
3.59175e-07
0.00601657
1.29398e-07
0.00602064
-4.81949e-09
0.00602512
-9.84095e-08
-1.83786e-07
0.00602933
0.00486146
3.32056e-12
0.00487287
6.60257e-12
0.0048904
7.26276e-12
0.00491331
6.3182e-12
0.00494109
6.93953e-12
0.00497293
9.36054e-12
0.0050081
1.5926e-11
0.00504584
2.24543e-11
0.00508541
3.15415e-11
0.00512613
3.98655e-11
0.00516742
5.13116e-11
0.00520875
6.94392e-11
0.0052497
9.822e-11
0.00528991
1.33519e-10
0.0053291
1.78486e-10
0.00536706
2.28701e-10
0.00540366
2.8875e-10
0.0054388
3.52998e-10
0.00547246
4.31775e-10
0.00550464
5.2082e-10
0.00553538
6.27488e-10
0.00556473
7.46276e-10
0.00559277
8.76174e-10
0.00561955
1.02685e-09
0.00564513
1.17398e-09
0.00566956
1.38065e-09
0.00569289
1.56644e-09
0.00571515
1.85646e-09
0.00573638
2.12179e-09
0.00575661
2.47553e-09
0.00577588
2.86141e-09
0.00579422
3.27359e-09
0.00581164
3.75114e-09
0.00582816
4.26648e-09
0.00584377
4.95373e-09
0.00585847
5.59237e-09
0.00587222
6.21127e-09
0.00588499
6.75535e-09
0.0058968
7.26315e-09
0.00590766
7.85731e-09
0.0059176
8.40958e-09
0.00592664
9.12947e-09
0.00593482
9.78603e-09
0.00594223
1.07086e-08
0.00594902
1.15777e-08
0.00595532
1.29953e-08
0.00596117
1.44657e-08
0.00596652
1.72855e-08
0.00597139
2.08496e-08
0.00597596
2.67384e-08
0.00598054
3.36472e-08
0.00598533
4.13586e-08
0.0059902
4.73862e-08
0.00599479
5.6078e-08
0.00599887
6.38794e-08
0.00600265
7.40106e-08
0.00600665
8.4679e-08
0.00601123
9.62995e-08
0.0060161
1.11776e-07
1.29575e-07
0.0060205
0.00486146
-3.38184e-06
0.00487287
-9.49325e-06
0.0048904
-1.56238e-05
0.00491331
-2.10264e-05
0.00494109
-2.59521e-05
0.00497293
-3.00903e-05
0.0050081
-3.35354e-05
0.00504584
-3.62058e-05
0.00508541
-3.8169e-05
0.00512613
-3.94531e-05
0.00516742
-4.01328e-05
0.00520875
-4.02898e-05
0.0052497
-3.99872e-05
0.00528991
-3.93052e-05
0.0053291
-3.83112e-05
0.00536706
-3.70746e-05
0.00540366
-3.56582e-05
0.0054388
-3.41217e-05
0.00547246
-3.25174e-05
0.00550464
-3.08905e-05
0.00553538
-2.9277e-05
0.00556473
-2.7705e-05
0.00559277
-2.61942e-05
0.00561955
-2.47544e-05
0.00564513
-2.33883e-05
0.00566956
-2.20951e-05
0.00569289
-2.08764e-05
0.00571515
-1.97373e-05
0.00573638
-1.86835e-05
0.00575661
-1.77188e-05
0.00577588
-1.68425e-05
0.00579422
-1.60474e-05
0.00581164
-1.53199e-05
0.00582816
-1.46427e-05
0.00584377
-1.39951e-05
0.00585847
-1.33569e-05
0.00587222
-1.27111e-05
0.00588499
-1.20481e-05
0.0058968
-1.13655e-05
0.00590766
-1.06644e-05
0.0059176
-9.94538e-06
0.00592664
-9.2104e-06
0.00593482
-8.46786e-06
0.00594223
-7.73154e-06
0.00594902
-7.00981e-06
0.00595532
-6.29667e-06
0.00596117
-5.57832e-06
0.00596652
-4.84988e-06
0.00597139
-4.13217e-06
0.00597596
-3.45156e-06
0.00598055
-2.82041e-06
0.00598534
-2.22533e-06
0.00599021
-1.64694e-06
0.0059948
-1.08739e-06
0.00599888
-5.92205e-07
0.00600266
-2.11886e-07
0.00600667
3.8999e-08
0.00601124
1.95771e-07
0.00601611
3.20501e-07
4.43345e-07
0.00602051
0.00486161
-6.89338e-06
0.0048735
-1.94695e-05
0.00489196
-3.2174e-05
0.00491596
-4.31496e-05
0.00494487
-5.30351e-05
0.00497777
-6.12405e-05
0.00501387
-6.79938e-05
0.00505237
-7.31789e-05
0.00509256
-7.69547e-05
0.00513377
-7.93965e-05
0.00517546
-8.06607e-05
0.00521712
-8.0912e-05
0.00525836
-8.02669e-05
0.00529884
-7.88801e-05
0.00533829
-7.6878e-05
0.0053765
-7.43955e-05
0.00541333
-7.15542e-05
0.0054487
-6.84681e-05
0.00548256
-6.524e-05
0.00551491
-6.19632e-05
0.0055458
-5.87122e-05
0.00557528
-5.55467e-05
0.00560343
-5.25081e-05
0.0056303
-4.9615e-05
0.00565597
-4.68701e-05
0.00568047
-4.42715e-05
0.00570386
-4.18234e-05
0.00572617
-3.95373e-05
0.00574745
-3.74248e-05
0.00576774
-3.54936e-05
0.00578707
-3.37422e-05
0.00580548
-3.21554e-05
0.00582298
-3.07069e-05
0.00583959
-2.93618e-05
0.00585531
-2.80779e-05
0.00587012
-2.68121e-05
0.005884
-2.55275e-05
0.00589692
-2.42032e-05
0.00590886
-2.28341e-05
0.00591984
-2.14222e-05
0.00592988
-1.9969e-05
0.005939
-1.84795e-05
0.00594724
-1.69728e-05
0.00595468
-1.54794e-05
0.00596144
-1.40166e-05
0.00596768
-1.25726e-05
0.00597344
-1.11198e-05
0.00597871
-9.65078e-06
0.00598348
-8.20473e-06
0.00598789
-6.8303e-06
0.00599222
-5.54793e-06
0.00599669
-4.3392e-06
0.00600126
-3.17307e-06
0.00600563
-2.05386e-06
0.00600951
-1.05289e-06
0.00601301
-2.63324e-07
0.0060166
2.71876e-07
0.00602068
5.94701e-07
0.00602517
8.12895e-07
9.92359e-07
0.00602939
0.00486196
-1.07467e-05
0.00487399
-2.958e-05
0.00489261
-4.88878e-05
0.00491699
-6.56469e-05
0.00494658
-8.07969e-05
0.00498052
-9.34367e-05
0.00501803
-0.000103858
0.00505824
-0.000111858
0.00510033
-0.000117649
0.00514354
-0.00012133
0.00518719
-0.000123161
0.00523076
-0.000123427
0.00527374
-0.000122288
0.00531575
-0.000119992
0.0053565
-0.000116747
0.00539576
-0.00011277
0.0054334
-0.000108251
0.00546931
-0.00010337
0.00550349
-9.82879e-05
0.00553596
-9.31555e-05
0.00556679
-8.8094e-05
0.00559606
-8.31951e-05
0.00562388
-7.85143e-05
0.00565032
-7.40666e-05
0.00567546
-6.98433e-05
0.00569933
-6.58363e-05
0.00572199
-6.20555e-05
0.00574347
-5.85246e-05
0.00576385
-5.52686e-05
0.00578317
-5.23062e-05
0.0058015
-4.96406e-05
0.0058189
-4.7251e-05
0.00583542
-4.50953e-05
0.00585109
-4.3115e-05
0.00586592
-4.12399e-05
0.00587991
-3.93968e-05
0.00589301
-3.75212e-05
0.00590521
-3.55758e-05
0.00591648
-3.35581e-05
0.00592682
-3.14857e-05
0.00593629
-2.93691e-05
0.00594494
-2.72079e-05
0.00595279
-2.50171e-05
0.00595992
-2.28403e-05
0.00596642
-2.07168e-05
0.00597243
-1.86412e-05
0.00597806
-1.65558e-05
0.00598329
-1.44203e-05
0.00598808
-1.22828e-05
0.00599248
-1.02287e-05
0.00599671
-8.31513e-06
0.00600101
-6.53182e-06
0.00600546
-4.81788e-06
0.0060098
-3.14955e-06
0.00601374
-1.62464e-06
0.00601727
-4.07735e-07
0.00602073
4.03943e-07
0.00602461
8.5423e-07
0.00602896
1.11744e-06
1.32904e-06
0.00603331
0.00486344
-1.60251e-05
0.00487787
-4.20991e-05
0.00490023
-6.93348e-05
0.00492909
-9.26238e-05
0.00496345
-0.000113334
0.0050022
-0.000130437
0.00504423
-0.000144241
0.00508841
-0.000154515
0.0051337
-0.00016153
0.0051791
-0.000165453
0.0052238
-0.000166703
0.00526717
-0.000165743
0.00530866
-0.000162811
0.00534787
-0.000158298
0.00538454
-0.000152529
0.00541849
-0.000145831
0.00544967
-0.00013849
0.00547809
-0.000130772
0.00550385
-0.000122917
0.00552711
-0.000115138
0.00554806
-0.000107595
0.00556689
-0.000100398
0.00558379
-9.36085e-05
0.00559895
-8.72365e-05
0.00561252
-8.12631e-05
0.00562464
-7.56707e-05
0.00563543
-7.04568e-05
0.00564498
-6.56344e-05
0.0056534
-6.1226e-05
0.00566076
-5.72484e-05
0.00566714
-5.37036e-05
0.00567264
-5.05694e-05
0.00567733
-4.77892e-05
0.00568126
-4.5279e-05
0.00568448
-4.2941e-05
0.00568702
-4.06788e-05
0.0056889
-3.84101e-05
0.00569013
-3.60866e-05
0.00569077
-3.37063e-05
0.00569087
-3.13017e-05
0.00569055
-2.89072e-05
0.00568993
-2.65386e-05
0.00568916
-2.42141e-05
0.00568838
-2.19683e-05
0.00568772
-1.98394e-05
0.00568733
-1.78366e-05
0.00568736
-1.59066e-05
0.00568789
-1.39889e-05
0.00568897
-1.2097e-05
0.00569068
-1.02811e-05
0.00569309
-8.59597e-06
0.00569624
-7.06635e-06
0.00570004
-5.64781e-06
0.00570429
-4.28221e-06
0.00570883
-3.00629e-06
0.00571363
-1.94909e-06
0.00571878
-1.22892e-06
0.00572427
-8.6536e-07
0.00572985
-7.29533e-07
-6.85279e-07
0.0057351
0.00486536
-2.32073e-05
0.00488489
-5.97079e-05
0.00491503
-9.75627e-05
0.00495077
-0.000126487
0.00498787
-0.000148612
0.00502287
-0.000163692
0.00505318
-0.000172902
0.00507704
-0.000176848
0.00509353
-0.000176618
0.00510236
-0.000173014
0.00510387
-0.000167054
0.00509873
-0.000159556
0.00508769
-0.000150789
0.00507156
-0.000141234
0.00505123
-0.00013126
0.00502753
-0.000121151
0.00500123
-0.000111132
0.00497303
-0.000101398
0.00494352
-9.20932e-05
0.0049132
-8.33381e-05
0.00488248
-7.52316e-05
0.0048517
-6.78174e-05
0.00482111
-6.10861e-05
0.00479088
-5.49753e-05
0.00476113
-4.93959e-05
0.00473188
-4.42795e-05
0.00470316
-3.95995e-05
0.00467497
-3.53601e-05
0.00464732
-3.15783e-05
0.0046202
-2.82657e-05
0.00459361
-2.5416e-05
0.00456754
-2.29925e-05
0.00454196
-2.09182e-05
0.00451684
-1.90821e-05
0.00449213
-1.73693e-05
0.00446784
-1.56887e-05
0.004444
-1.39826e-05
0.00442069
-1.22361e-05
0.00439801
-1.04845e-05
0.00437613
-8.80501e-06
0.00435526
-7.27935e-06
0.00433567
-5.96046e-06
0.00431763
-4.87414e-06
0.00430129
-4.02587e-06
0.00428675
-3.41205e-06
0.00427408
-3.01063e-06
0.00426333
-2.72653e-06
0.00425447
-2.46589e-06
0.00424742
-2.22487e-06
0.00424194
-1.99827e-06
0.00423778
-1.77526e-06
0.00423472
-1.55687e-06
0.00423263
-1.31371e-06
0.00423139
-1.01954e-06
0.00423084
-7.12665e-07
0.00423068
-4.63817e-07
0.00423058
-3.08577e-07
0.00423031
-2.43486e-07
0.00422979
-2.07826e-07
-1.96545e-07
0.00422913
0.00483509
0.00477729
0.00468164
0.00455703
0.00441024
0.00424828
0.00407702
0.00390169
0.00372649
0.00355479
0.00338898
0.00323064
0.00308108
0.00294114
0.00281128
0.00269168
0.00258224
0.00248265
0.00239243
0.00231095
0.00223748
0.00217129
0.00211167
0.00205803
0.00200991
0.00196695
0.00192875
0.00189491
0.00186492
0.00183824
0.00181435
0.00179278
0.0017732
0.00175541
0.00173936
0.00172505
0.00171253
0.00170184
0.00169295
0.0016858
0.0016802
0.00167592
0.00167272
0.00167035
0.00166855
0.00166711
0.00166592
0.00166494
0.00166415
0.00166355
0.00166312
0.00166287
0.00166284
0.00166307
0.00166358
0.00166433
0.00166523
0.00166622
0.00166728
0.00166838
0.00166861
4.0135e-07
0.00166949
4.82339e-07
0.00167028
6.33885e-07
0.00167104
7.73463e-07
0.00167186
8.44684e-07
0.00167274
8.55813e-07
0.00167369
8.35108e-07
0.0016747
7.6447e-07
0.00167578
6.39835e-07
0.00167687
5.13018e-07
0.00167796
4.07026e-07
0.00167905
3.04079e-07
0.00168014
2.27855e-07
0.00168123
1.78832e-07
0.00168234
1.30569e-07
0.0016834
1.26059e-07
0.00168432
2.14679e-07
0.00168504
3.40475e-07
0.00168557
4.8192e-07
0.00168588
6.53974e-07
0.00168599
8.03707e-07
0.00168597
8.8688e-07
0.00168586
9.42009e-07
0.00168568
1.00795e-06
0.00168545
1.0791e-06
0.00168525
1.11903e-06
0.00168511
1.12969e-06
0.00168507
1.14878e-06
0.00168512
1.15861e-06
0.00168533
1.11374e-06
0.00168571
1.02021e-06
0.00168628
9.08258e-07
0.00168702
7.66013e-07
0.00168794
6.05095e-07
0.00168897
4.91203e-07
0.00169003
4.26772e-07
0.00169108
3.93579e-07
0.00169207
4.2241e-07
0.00169294
4.97488e-07
0.0016937
5.53476e-07
0.0016944
5.77672e-07
0.00169505
5.83045e-07
0.00169565
6.07513e-07
0.0016962
6.3644e-07
0.00169671
6.66694e-07
0.00169718
7.04165e-07
0.0016976
7.5881e-07
0.00169803
7.61273e-07
0.0016985
7.34216e-07
0.001699
7.20052e-07
0.00169947
7.52778e-07
0.00169992
7.74694e-07
0.00170037
7.87079e-07
0.00170079
8.05125e-07
0.00170127
7.49134e-07
0.00170169
7.97811e-07
0.00170213
7.74951e-07
0.00170266
6.79461e-07
0.00170294
9.19146e-07
8.33553e-07
0.00422773
9.16057e-07
0.00422695
9.50417e-07
0.00422612
1.06065e-06
0.00422519
1.21167e-06
0.00422429
1.34647e-06
0.00422368
1.39892e-06
0.00422369
1.33766e-06
0.00422446
1.19416e-06
0.0042259
1.0664e-06
0.00422774
1.06219e-06
0.00422975
1.19401e-06
0.00423185
1.36959e-06
0.00423419
1.46997e-06
0.00423701
1.41798e-06
0.00424039
1.22693e-06
0.00424418
1.02651e-06
0.00424795
9.98556e-07
0.00425105
1.22339e-06
0.00425292
1.68812e-06
0.00425327
2.29552e-06
0.00425215
2.85774e-06
0.00424989
3.22044e-06
0.00424697
3.34335e-06
0.00424388
3.26472e-06
0.00424095
3.06404e-06
0.00423834
2.8338e-06
0.00423607
2.64172e-06
0.00423414
2.50896e-06
0.00423257
2.40541e-06
0.00423136
2.28415e-06
0.00423051
2.12114e-06
0.00423007
1.91313e-06
0.00423003
1.66766e-06
0.00423032
1.42149e-06
0.00423088
1.23566e-06
0.0042316
1.12885e-06
0.00423236
1.10497e-06
0.00423309
1.16833e-06
0.00423373
1.2903e-06
0.00423423
1.41654e-06
0.00423458
1.52695e-06
0.00423478
1.61307e-06
0.00423488
1.68456e-06
0.00423493
1.73099e-06
0.00423494
1.76731e-06
0.00423494
1.79884e-06
0.00423493
1.84866e-06
0.00423489
1.87205e-06
0.00423478
1.90508e-06
0.00423463
1.9306e-06
0.00423448
1.96631e-06
0.00423433
1.97551e-06
0.00423421
1.96509e-06
0.00423411
1.96102e-06
0.00423401
1.91454e-06
0.00423399
1.87873e-06
0.00423391
1.91219e-06
0.00423394
1.71187e-06
0.00423394
1.98513e-06
1.66484e-06
0.00573933
-1.21392e-06
0.00574325
-1.24048e-06
0.00574675
-1.08443e-06
0.00575005
-8.04035e-07
0.00575306
-5.24592e-07
0.00575539
-3.75822e-07
0.00575663
-3.64078e-07
0.00575662
-3.42276e-07
0.00575561
-1.02684e-07
0.00575402
4.68164e-07
0.00575214
1.34471e-06
0.00574987
2.3062e-06
0.0057469
3.11855e-06
0.00574308
3.63925e-06
0.00573869
3.88259e-06
0.00573447
4.0175e-06
0.00573124
4.25566e-06
0.0057295
4.68627e-06
0.0057293
5.25246e-06
0.00573037
5.75841e-06
0.00573244
5.95319e-06
0.00573551
5.67437e-06
0.00573985
4.93284e-06
0.00574575
3.90094e-06
0.00575322
2.83143e-06
0.0057618
1.94513e-06
0.00577059
1.38399e-06
0.00577843
1.1849e-06
0.00578424
1.264e-06
0.00578733
1.49001e-06
0.0057875
1.74746e-06
0.0057851
1.9493e-06
0.00578085
2.04432e-06
0.00577566
2.04297e-06
0.00577042
1.98794e-06
0.00576584
1.90664e-06
0.00576233
1.83935e-06
0.00576005
1.81612e-06
0.0057589
1.83731e-06
0.00575866
1.88271e-06
0.00575904
1.92973e-06
0.00575981
1.96014e-06
0.00576077
1.98459e-06
0.00576181
1.99258e-06
0.00576283
2.00715e-06
0.0057638
2.02944e-06
0.00576471
2.07771e-06
0.00576556
2.11547e-06
0.00576635
2.17153e-06
0.00576709
2.21533e-06
0.00576781
2.26337e-06
0.00576851
2.27581e-06
0.00576918
2.27986e-06
0.00576987
2.2541e-06
0.00577054
2.22022e-06
0.00577123
2.15575e-06
0.0057719
2.19247e-06
0.00577256
2.0039e-06
0.00577329
2.19641e-06
1.81861e-06
0.00603681
-8.30645e-07
0.00603935
-8.29442e-07
0.00604108
-7.03522e-07
0.0060426
-5.06146e-07
0.00604426
-3.19942e-07
0.00604573
-2.15069e-07
0.00604622
-1.74982e-07
0.00604507
-9.83378e-08
0.00604237
1.39809e-07
0.00603895
6.00663e-07
0.0060358
1.25701e-06
0.00603344
1.99216e-06
0.00603155
2.68156e-06
0.00602939
3.25129e-06
0.00602641
3.70785e-06
0.00602281
4.12555e-06
0.0060196
4.58072e-06
0.00601803
5.06712e-06
0.00601895
5.49142e-06
0.00602246
5.70069e-06
0.00602797
5.5489e-06
0.00603471
4.9883e-06
0.00604219
4.10184e-06
0.00605039
3.07222e-06
0.00605958
2.11143e-06
0.00606989
1.37808e-06
0.00608101
9.43492e-07
0.00609208
7.93054e-07
0.00610187
8.44777e-07
0.00610919
9.9959e-07
0.00611323
1.17476e-06
0.00611378
1.31091e-06
0.00611123
1.3791e-06
0.00610644
1.39076e-06
0.00610048
1.37543e-06
0.00609439
1.35205e-06
0.00608903
1.34486e-06
0.00608494
1.36513e-06
0.00608233
1.408e-06
0.00608116
1.45982e-06
0.00608117
1.50667e-06
0.00608204
1.53452e-06
0.00608346
1.55291e-06
0.00608515
1.55322e-06
0.00608695
1.55718e-06
0.00608874
1.56242e-06
0.0060905
1.5883e-06
0.00609219
1.608e-06
0.00609383
1.64957e-06
0.00609543
1.67979e-06
0.00609699
1.72043e-06
0.00609853
1.73039e-06
0.00610004
1.74855e-06
0.00610153
1.73409e-06
0.00610297
1.73677e-06
0.00610438
1.69304e-06
0.00610577
1.73678e-06
0.00610707
1.6276e-06
0.00610844
1.74427e-06
1.53719e-06
0.00603258
-2.44772e-07
0.00603465
-2.48033e-07
0.00603603
-1.74434e-07
0.00603738
-6.06986e-08
0.0060389
4.27453e-08
0.00604007
9.94688e-08
0.00603998
1.26661e-07
0.00603808
1.8014e-07
0.00603472
3.17653e-07
0.00603095
5.55498e-07
0.00602785
8.76434e-07
0.00602587
1.22245e-06
0.00602458
1.54773e-06
0.00602321
1.83647e-06
0.00602134
2.10543e-06
0.00601937
2.38548e-06
0.00601845
2.69251e-06
0.0060198
2.99686e-06
0.00602402
3.23934e-06
0.00603078
3.35164e-06
0.00603909
3.28606e-06
0.00604787
3.04121e-06
0.00605657
2.66257e-06
0.00606536
2.22255e-06
0.00607476
1.79285e-06
0.00608514
1.41987e-06
0.00609628
1.12201e-06
0.00610724
9.01853e-07
0.00611668
7.46081e-07
0.00612334
6.38995e-07
0.00612642
5.74677e-07
0.00612583
5.45361e-07
0.0061221
5.43034e-07
0.00611625
5.65625e-07
0.00610948
6.12228e-07
0.00610291
6.73282e-07
0.00609742
7.44155e-07
0.00609351
8.17306e-07
0.00609131
8.84585e-07
0.00609068
9.36475e-07
0.00609127
9.70309e-07
0.00609271
9.81715e-07
0.00609462
9.84985e-07
0.00609671
9.78063e-07
0.00609881
9.78994e-07
0.00610082
9.81674e-07
0.00610272
1.00308e-06
0.00610451
1.0194e-06
0.00610621
1.05571e-06
0.00610786
1.07842e-06
0.00610947
1.12093e-06
0.00611105
1.13465e-06
0.00611259
1.17235e-06
0.00611411
1.17309e-06
0.00611559
1.20672e-06
0.00611703
1.19614e-06
0.00611846
1.24665e-06
0.0061198
1.21613e-06
0.00612117
1.28292e-06
1.23402e-06
0.00602374
1.50136e-07
0.00602576
1.70953e-07
0.0060272
1.93105e-07
0.00602872
2.13175e-07
0.00603042
2.33036e-07
0.00603161
2.50686e-07
0.00603134
2.6762e-07
0.0060292
2.81878e-07
0.00602568
2.95872e-07
0.00602193
3.06108e-07
0.00601901
3.17536e-07
0.00601719
3.29844e-07
0.00601595
3.45379e-07
0.00601451
3.63517e-07
0.0060126
3.82089e-07
0.00601084
3.9796e-07
0.00601049
4.10646e-07
0.00601277
4.18382e-07
0.00601812
4.226e-07
0.00602604
4.24113e-07
0.00603543
4.21909e-07
0.00604527
4.15912e-07
0.00605511
4.07699e-07
0.00606517
3.98805e-07
0.00607595
3.89975e-07
0.00608767
3.83188e-07
0.00609987
3.78586e-07
0.00611141
3.73644e-07
0.00612085
3.64681e-07
0.00612694
3.49249e-07
0.00612901
3.31934e-07
0.00612718
3.14062e-07
0.0061222
2.95679e-07
0.00611528
2.79133e-07
0.00610774
2.67224e-07
0.00610076
2.58223e-07
0.00609518
2.55079e-07
0.00609143
2.5797e-07
0.00608957
2.66321e-07
0.00608934
2.76927e-07
0.00609034
2.90383e-07
0.00609211
3.0207e-07
0.00609428
3.19302e-07
0.00609654
3.34523e-07
0.00609875
3.56523e-07
0.00610082
3.748e-07
0.00610273
4.04566e-07
0.00610452
4.24721e-07
0.00610622
4.62225e-07
0.00610785
4.83075e-07
0.00610945
5.29715e-07
0.00611101
5.44689e-07
0.00611255
5.97842e-07
0.00611407
6.09147e-07
0.00611556
6.67879e-07
0.00611701
6.87683e-07
0.00611844
7.47987e-07
0.00611979
7.94143e-07
0.00612116
8.37917e-07
9.37927e-07
0.00602375
5.46474e-07
0.00602578
5.91951e-07
0.00602721
5.63421e-07
0.00602873
4.90331e-07
0.00603042
4.28775e-07
0.0060316
4.10727e-07
0.00603133
4.19081e-07
0.00602917
3.94048e-07
0.00602565
2.79293e-07
0.00602191
5.10894e-08
0.00601899
-2.50947e-07
0.00601719
-5.74218e-07
0.00601596
-8.67786e-07
0.00601452
-1.11752e-06
0.00601262
-1.34755e-06
0.00601086
-1.59515e-06
0.00601052
-1.87328e-06
0.00601279
-2.1597e-06
0.00601814
-2.39266e-06
0.00602606
-2.50128e-06
0.00603545
-2.43874e-06
0.00604529
-2.20445e-06
0.00605512
-1.84213e-06
0.00606517
-1.42141e-06
0.00607596
-1.00965e-06
0.00608767
-6.48653e-07
0.00609987
-3.61899e-07
0.0061114
-1.51023e-07
0.00612083
-7.32788e-09
0.00612691
6.6647e-08
0.00612898
9.37426e-08
0.00612715
8.5136e-08
0.00612217
4.67462e-08
0.00611525
-1.29528e-08
0.00610772
-8.5525e-08
0.00610075
-1.65983e-07
0.00609517
-2.42872e-07
0.00609144
-3.07795e-07
0.00608958
-3.54506e-07
0.00608935
-3.81831e-07
0.00609034
-3.88749e-07
0.00609212
-3.79995e-07
0.00609429
-3.51582e-07
0.00609656
-3.15781e-07
0.00609878
-2.73534e-07
0.00610085
-2.38089e-07
0.00610277
-1.98321e-07
0.00610456
-1.72524e-07
0.00610626
-1.33108e-07
0.0061079
-1.11518e-07
0.00610948
-5.73884e-08
0.00611104
-3.94217e-08
0.00611257
3.16903e-08
0.00611409
5.1313e-08
0.00611557
1.37637e-07
0.00611702
1.83462e-07
0.00611844
2.56776e-07
0.00611979
3.71682e-07
0.00612115
3.95357e-07
6.40368e-07
0.00603264
1.12683e-06
0.00603472
1.17102e-06
0.00603609
1.09415e-06
0.00603744
9.38904e-07
0.00603896
7.93411e-07
0.00604013
7.2308e-07
0.00604004
7.15751e-07
0.00603815
6.69719e-07
0.00603478
4.63025e-07
0.006031
1.9865e-08
0.00602789
-6.20987e-07
0.0060259
-1.33777e-06
0.0060246
-1.99636e-06
0.00602323
-2.52272e-06
0.00602134
-2.93402e-06
0.00601935
-3.31426e-06
0.00601841
-3.7415e-06
0.00601974
-4.21502e-06
0.00602395
-4.63315e-06
0.00603071
-4.83921e-06
0.00603901
-4.69391e-06
0.00604778
-4.15071e-06
0.00605649
-3.28506e-06
0.00606528
-2.27619e-06
0.00607469
-1.33678e-06
0.00608509
-6.16904e-07
0.00609623
-1.86364e-07
0.00610718
-3.29953e-08
0.00611662
-1.01066e-07
0.00612327
-2.95011e-07
0.00612635
-5.08707e-07
0.00612575
-6.81126e-07
0.00612202
-7.90994e-07
0.00611617
-8.40322e-07
0.0061094
-8.51132e-07
0.00610284
-8.51554e-07
0.00609736
-8.54705e-07
0.00609346
-8.66016e-07
0.00609127
-8.86428e-07
0.00609064
-9.104e-07
0.00609124
-9.28621e-07
0.00609268
-9.35592e-07
0.00609459
-9.20104e-07
0.00609668
-8.90066e-07
0.00609878
-8.52865e-07
0.0061008
-8.20737e-07
0.0061027
-7.86594e-07
0.00610449
-7.65322e-07
0.0061062
-7.32442e-07
0.00610786
-7.15142e-07
0.00610947
-6.59155e-07
0.00611105
-6.42472e-07
0.0061126
-5.51795e-07
0.00611414
-5.28139e-07
0.00611564
-4.07596e-07
0.00611711
-3.41964e-07
0.00611855
-2.47484e-07
0.00611991
-6.87205e-08
0.0061213
-6.79562e-08
3.30912e-07
0.00603695
1.50213e-06
0.0060395
1.57377e-06
0.00604123
1.47231e-06
0.00604274
1.23827e-06
0.0060444
1.0046e-06
0.00604586
8.95846e-07
0.00604633
9.19003e-07
0.00604517
9.27294e-07
0.00604246
7.15927e-07
0.00603904
1.44083e-07
0.00603592
-7.28525e-07
0.00603358
-1.68079e-06
0.00603173
-2.46159e-06
0.00602959
-2.93025e-06
0.00602661
-3.1228e-06
0.00602303
-3.22109e-06
0.00601982
-3.42103e-06
0.00601825
-3.83462e-06
0.00601917
-4.39907e-06
0.00602268
-4.90266e-06
0.0060282
-5.1012e-06
0.00603494
-4.8379e-06
0.00604242
-4.11688e-06
0.00605062
-3.10319e-06
0.00605978
-2.0439e-06
0.00607007
-1.1561e-06
0.00608116
-5.99986e-07
0.00609223
-4.16527e-07
0.00610203
-5.22367e-07
0.00610936
-7.86682e-07
0.00611341
-1.08168e-06
0.00611396
-1.31961e-06
0.00611141
-1.45925e-06
0.00610662
-1.49825e-06
0.00610066
-1.47191e-06
0.00609458
-1.42032e-06
0.00608924
-1.36928e-06
0.00608515
-1.3338e-06
0.00608255
-1.32066e-06
0.00608137
-1.3298e-06
0.00608138
-1.3536e-06
0.00608226
-1.37516e-06
0.00608369
-1.37159e-06
0.0060854
-1.35064e-06
0.00608722
-1.32837e-06
0.00608904
-1.31292e-06
0.00609082
-1.30072e-06
0.00609254
-1.29596e-06
0.0060942
-1.28023e-06
0.00609581
-1.26758e-06
0.00609739
-1.20879e-06
0.00609893
-1.19422e-06
0.00610045
-1.09182e-06
0.00610196
-1.07038e-06
0.00610342
-9.10088e-07
0.00610486
-8.4153e-07
0.00610628
-7.26998e-07
0.00610764
-5.03234e-07
0.00610905
-5.52713e-07
6.90783e-10
0.00573971
-6.69436e-07
0.00574368
-6.64919e-07
0.00574722
-7.10968e-07
0.00575054
-8.0591e-07
0.00575359
-9.05397e-07
0.00575598
-9.38496e-07
0.00575729
-8.53527e-07
0.00575737
-6.89091e-07
0.00575645
-5.49388e-07
0.00575496
-5.47276e-07
0.00575318
-6.86512e-07
0.00575102
-8.61316e-07
0.00574818
-9.43772e-07
0.0057445
-8.47329e-07
0.00574024
-5.93921e-07
0.00573612
-3.42451e-07
0.00573299
-2.82366e-07
0.00573138
-5.07746e-07
0.00573131
-9.74602e-07
0.0057325
-1.57241e-06
0.0057347
-2.13124e-06
0.0057379
-2.5092e-06
0.00574235
-2.64635e-06
0.00574835
-2.56704e-06
0.00575592
-2.36599e-06
0.0057646
-2.13334e-06
0.00577348
-1.93568e-06
0.00578141
-1.80193e-06
0.00578729
-1.713e-06
0.00579045
-1.62834e-06
0.00579068
-1.50968e-06
0.00578832
-1.33576e-06
0.0057841
-1.12677e-06
0.00577893
-9.22177e-07
0.00577371
-7.61636e-07
0.00576913
-6.76462e-07
0.00576563
-6.71732e-07
0.00576335
-7.19361e-07
0.00576221
-7.99999e-07
0.00576198