/*--------------------------------*- C++ -*----------------------------------*\
  =========                 |
  \\      /  F ield         | OpenFOAM: The Open Source CFD Toolbox
   \\    /   O peration     | Website:  https://openfoam.org
    \\  /    A nd           | Version:  7
     \\/     M anipulation  |
\*---------------------------------------------------------------------------*/
FoamFile
{
    version     2.0;
    format      ascii;
    class       volVectorField;
    location    "1.5325";
    object      U;
}
// * * * * * * * * * * * * * * * * * * * * * * * * * * * * * * * * * * * * * //

dimensions      [0 1 -1 0 0 0 0];

internalField   nonuniform List<vector> 
13200
(
(1.94363 0.0367695 -32.2517)
(1.07863 -0.369577 -32.3074)
(0.613389 -0.418747 -32.3104)
(0.587076 -0.43019 -32.317)
(0.464847 -0.436073 -32.3154)
(0.496689 -0.437866 -32.3192)
(0.41814 -0.439768 -32.3171)
(0.453735 -0.439329 -32.3194)
(0.392719 -0.440071 -32.3173)
(0.425898 -0.439561 -32.3188)
(0.376403 -0.440128 -32.317)
(0.406012 -0.439524 -32.318)
(0.365015 -0.43987 -32.3167)
(0.391107 -0.439317 -32.3176)
(0.356665 -0.439468 -32.3169)
(0.379382 -0.43939 -32.3176)
(0.350811 -0.437918 -32.3178)
(0.367473 -0.439829 -32.3176)
(0.348608 -0.414669 -32.3201)
(0.288138 -0.425199 -32.3136)
(3.65703 0.928679 -32.3783)
(2.85659 0.570153 -32.4445)
(1.97664 0.475649 -32.4562)
(1.85795 0.437065 -32.4703)
(1.55801 0.430781 -32.4713)
(1.60342 0.428943 -32.4784)
(1.40966 0.427074 -32.4768)
(1.47496 0.426664 -32.4801)
(1.32457 0.42524 -32.4773)
(1.38944 0.425224 -32.4783)
(1.26743 0.424291 -32.4753)
(1.32719 0.424245 -32.4756)
(1.22584 0.423467 -32.4735)
(1.2795 0.42344 -32.4737)
(1.19384 0.42276 -32.4734)
(1.24174 0.423037 -32.4734)
(1.16934 0.42142 -32.4759)
(1.21263 0.422851 -32.4729)
(1.15486 0.409141 -32.4835)
(1.29612 0.413688 -32.4516)
(4.53394 0.48924 -32.4025)
(4.51868 -0.0493488 -32.4576)
(3.81164 -0.219649 -32.4653)
(3.656 -0.326764 -32.486)
(3.25467 -0.366526 -32.489)
(3.25484 -0.383377 -32.5027)
(2.98756 -0.392865 -32.5019)
(3.0319 -0.39734 -32.5088)
(2.82642 -0.401189 -32.5044)
(2.88043 -0.40297 -32.5066)
(2.71362 -0.404808 -32.5009)
(2.76723 -0.405647 -32.5007)
(2.62841 -0.406708 -32.496)
(2.67879 -0.407129 -32.4952)
(2.56126 -0.407729 -32.4937)
(2.60712 -0.408526 -32.4924)
(2.5079 -0.407371 -32.4971)
(2.53863 -0.410681 -32.4901)
(2.47503 -0.402021 -32.5112)
(2.40397 -0.416808 -32.4638)
(4.8129 0.873053 -32.4187)
(5.2391 0.654336 -32.4619)
(4.9485 0.579781 -32.4648)
(4.95919 0.496256 -32.4821)
(4.65753 0.461522 -32.4871)
(4.67264 0.44234 -32.5018)
(4.43347 0.431305 -32.5054)
(4.46167 0.424563 -32.5139)
(4.26657 0.419868 -32.5125)
(4.2986 0.416203 -32.5143)
(4.13656 0.413618 -32.5097)
(4.16881 0.411295 -32.5072)
(4.0323 0.409747 -32.5019)
(4.0635 0.408229 -32.4971)
(3.946 0.407163 -32.4944)
(3.97794 0.405795 -32.4887)
(3.87039 0.405377 -32.4937)
(3.91787 0.402272 -32.4835)
(3.79305 0.402801 -32.5046)
(3.93678 0.405979 -32.4617)
(4.86665 0.340044 -32.4195)
(5.43724 -0.0414399 -32.4567)
(5.41547 -0.148011 -32.4527)
(5.58246 -0.249513 -32.4674)
(5.41433 -0.294717 -32.4689)
(5.49294 -0.318932 -32.484)
(5.3246 -0.334441 -32.4875)
(5.37742 -0.343781 -32.4986)
(5.22703 -0.351469 -32.498)
(5.26725 -0.356822 -32.502)
(5.13592 -0.361404 -32.4974)
(5.16831 -0.365013 -32.4962)
(5.05427 -0.368228 -32.4895)
(5.08139 -0.370695 -32.4842)
(4.98223 -0.373337 -32.4781)
(5.00534 -0.374512 -32.4708)
(4.91938 -0.377352 -32.4708)
(4.9342 -0.376759 -32.4621)
(4.86416 -0.385171 -32.4732)
(4.84271 -0.397186 -32.4421)
(4.85291 0.622706 -32.4266)
(5.39612 0.537715 -32.4623)
(5.49911 0.52659 -32.4569)
(5.76177 0.472512 -32.4692)
(5.69269 0.449036 -32.4696)
(5.83988 0.433897 -32.483)
(5.74442 0.424175 -32.4866)
(5.84293 0.417592 -32.4979)
(5.74673 0.412534 -32.4984)
(5.81702 0.408323 -32.503)
(5.72679 0.405098 -32.4994)
(5.77921 0.402135 -32.499)
(5.69696 0.399948 -32.4929)
(5.73758 0.397896 -32.4878)
(5.66278 0.396355 -32.4801)
(5.69709 0.394515 -32.4719)
(5.62538 0.394517 -32.4673)
(5.66692 0.390558 -32.4591)
(5.58153 0.396142 -32.4625)
(5.66642 0.407858 -32.4345)
(4.84071 0.146563 -32.4267)
(5.33785 -0.128932 -32.4611)
(5.47907 -0.19341 -32.4536)
(5.77805 -0.261992 -32.4655)
(5.75631 -0.292134 -32.464)
(5.9437 -0.30845 -32.477)
(5.89277 -0.319249 -32.4794)
(6.027 -0.325625 -32.4909)
(5.97146 -0.331425 -32.4909)
(6.07218 -0.335484 -32.4961)
(6.01748 -0.339406 -32.4923)
(6.09474 -0.342483 -32.4928)
(6.04306 -0.345658 -32.4868)
(6.1031 -0.347849 -32.4828)
(6.05566 -0.351055 -32.4743)
(6.10196 -0.351463 -32.4662)
(6.06064 -0.356786 -32.4585)
(6.09196 -0.352926 -32.4505)
(6.05972 -0.368973 -32.4486)
(6.06108 -0.379243 -32.4213)
(4.82953 0.404204 -32.4313)
(5.28144 0.415822 -32.4658)
(5.43471 0.433705 -32.4581)
(5.74564 0.411421 -32.4699)
(5.7424 0.402822 -32.4679)
(5.9487 0.396368 -32.4807)
(5.92009 0.392368 -32.4826)
(6.07527 0.389569 -32.4939)
(6.04367 0.387469 -32.4937)
(6.16524 0.385572 -32.4988)
(6.13442 0.384133 -32.4948)
(6.23132 0.3827 -32.4956)
(6.20234 0.381658 -32.4898)
(6.28013 0.380581 -32.4865)
(6.25334 0.379957 -32.4779)
(6.31619 0.378539 -32.47)
(6.29107 0.379959 -32.461)
(6.34603 0.375801 -32.4526)
(6.31792 0.384995 -32.4484)
(6.37418 0.401173 -32.42)
(4.82295 -0.0337338 -32.4325)
(5.24902 -0.219095 -32.4654)
(5.40528 -0.264365 -32.4572)
(5.71738 -0.302456 -32.4686)
(5.71942 -0.319147 -32.4663)
(5.93191 -0.327594 -32.479)
(5.91103 -0.333154 -32.4807)
(6.07492 -0.336096 -32.4918)
(6.05393 -0.339014 -32.4914)
(6.18613 -0.340826 -32.4963)
(6.16781 -0.342854 -32.4922)
(6.27613 -0.344284 -32.4929)
(6.26069 -0.346095 -32.4872)
(6.3495 -0.347066 -32.4842)
(6.33728 -0.349297 -32.4757)
(6.40848 -0.348655 -32.4679)
(6.40164 -0.353835 -32.4586)
(6.45366 -0.348345 -32.4497)
(6.45657 -0.365067 -32.4445)
(6.47688 -0.376341 -32.4155)
(4.81938 0.212878 -32.4356)
(5.23152 0.312179 -32.4677)
(5.38945 0.34501 -32.4594)
(5.70229 0.352902 -32.4706)
(5.70571 0.357064 -32.4681)
(5.91998 0.358157 -32.4808)
(5.9014 0.35905 -32.4824)
(6.06824 0.359244 -32.4934)
(6.05093 0.359754 -32.4928)
(6.18716 0.359825 -32.4977)
(6.17377 0.360201 -32.4934)
(6.28695 0.360285 -32.4942)
(6.27733 0.360726 -32.4884)
(6.3714 0.360735 -32.4855)
(6.36545 0.361591 -32.4771)
(6.44221 0.360644 -32.4693)
(6.4411 0.364097 -32.4599)
(6.50119 0.35954 -32.4508)
(6.50741 0.372796 -32.4453)
(6.54425 0.388559 -32.4159)
(4.81938 -0.212878 -32.4356)
(5.23152 -0.312179 -32.4677)
(5.38945 -0.34501 -32.4594)
(5.70229 -0.352901 -32.4706)
(5.70571 -0.357064 -32.4681)
(5.91998 -0.358156 -32.4808)
(5.90141 -0.359049 -32.4824)
(6.06824 -0.35924 -32.4934)
(6.05093 -0.359749 -32.4928)
(6.18716 -0.359815 -32.4977)
(6.17378 -0.360183 -32.4934)
(6.28695 -0.360258 -32.4942)
(6.27736 -0.360672 -32.4884)
(6.3714 -0.360641 -32.4855)
(6.36552 -0.36147 -32.4771)
(6.4422 -0.360294 -32.4693)
(6.4413 -0.363858 -32.46)
(6.50123 -0.358423 -32.4508)
(6.50769 -0.372059 -32.4454)
(6.54443 -0.385957 -32.4158)
(4.82295 0.0337337 -32.4325)
(5.24902 0.219095 -32.4654)
(5.40528 0.264364 -32.4572)
(5.71738 0.302456 -32.4686)
(5.71942 0.319147 -32.4663)
(5.93191 0.327596 -32.479)
(5.91103 0.333155 -32.4807)
(6.07493 0.3361 -32.4918)
(6.05393 0.339018 -32.4914)
(6.18614 0.340836 -32.4963)
(6.16781 0.342872 -32.4922)
(6.27613 0.344309 -32.4929)
(6.26067 0.34615 -32.4872)
(6.34952 0.347155 -32.4842)
(6.33727 0.349419 -32.4757)
(6.40853 0.348995 -32.4679)
(6.40165 0.354064 -32.4586)
(6.45378 0.349468 -32.4496)
(6.45691 0.365742 -32.4447)
(6.47742 0.378964 -32.4152)
(4.82953 -0.404204 -32.4313)
(5.28144 -0.415822 -32.4658)
(5.43471 -0.433705 -32.4581)
(5.74564 -0.411421 -32.4699)
(5.7424 -0.402822 -32.4679)
(5.9487 -0.396366 -32.4807)
(5.92009 -0.392367 -32.4826)
(6.07528 -0.389564 -32.4939)
(6.04367 -0.387465 -32.4936)
(6.16525 -0.385561 -32.4988)
(6.13442 -0.384115 -32.4948)
(6.23134 -0.382673 -32.4956)
(6.20237 -0.381607 -32.4897)
(6.28017 -0.380488 -32.4866)
(6.25346 -0.379839 -32.4778)
(6.31629 -0.378194 -32.4701)
(6.29147 -0.379726 -32.461)
(6.34629 -0.374725 -32.4526)
(6.31888 -0.384269 -32.4486)
(6.37513 -0.398676 -32.4197)
(4.84071 -0.146563 -32.4267)
(5.33785 0.128932 -32.4611)
(5.47906 0.193409 -32.4536)
(5.77805 0.261992 -32.4655)
(5.75631 0.292134 -32.464)
(5.9437 0.308452 -32.477)
(5.89277 0.319249 -32.4794)
(6.02701 0.325629 -32.4909)
(5.97145 0.331429 -32.4909)
(6.0722 0.335493 -32.4961)
(6.01747 0.339422 -32.4922)
(6.09478 0.342504 -32.4929)
(6.04305 0.345709 -32.4866)
(6.10321 0.347924 -32.4831)
(6.05569 0.351165 -32.474)
(6.1022 0.351755 -32.4666)
(6.06087 0.356975 -32.4581)
(6.09255 0.353937 -32.451)
(6.06087 0.369452 -32.4481)
(6.06296 0.381566 -32.4217)
(4.85291 -0.622706 -32.4266)
(5.39612 -0.537715 -32.4623)
(5.49911 -0.52659 -32.4569)
(5.76178 -0.472512 -32.4693)
(5.69269 -0.449036 -32.4696)
(5.83988 -0.433895 -32.483)
(5.74442 -0.424174 -32.4866)
(5.84294 -0.417587 -32.498)
(5.74673 -0.41253 -32.4983)
(5.81705 -0.408313 -32.5031)
(5.72679 -0.405084 -32.4992)
(5.77928 -0.402109 -32.4992)
(5.69699 -0.399904 -32.4926)
(5.73774 -0.397812 -32.4883)
(5.66292 -0.396254 -32.4795)
(5.69749 -0.3942 -32.4728)
(5.62598 -0.394328 -32.466)
(5.66784 -0.389587 -32.461)
(5.58339 -0.395547 -32.4601)
(5.6688 -0.405603 -32.4372)
(4.86665 -0.340044 -32.4195)
(5.43724 0.0414398 -32.4567)
(5.41547 0.148011 -32.4527)
(5.58246 0.249513 -32.4674)
(5.41433 0.294717 -32.4689)
(5.49294 0.318932 -32.484)
(5.3246 0.334442 -32.4875)
(5.37743 0.343784 -32.4987)
(5.22703 0.351472 -32.4979)
(5.26728 0.356827 -32.5021)
(5.13592 0.361417 -32.4972)
(5.16839 0.365025 -32.4965)
(5.05428 0.368268 -32.489)
(5.08164 0.370738 -32.485)
(4.98231 0.373416 -32.4769)
(5.00596 0.374689 -32.4727)
(4.91984 0.377461 -32.4679)
(4.9357 0.377425 -32.4665)
(4.86619 0.385319 -32.4667)
(4.84705 0.398543 -32.4509)
(4.8129 -0.873053 -32.4187)
(5.2391 -0.654336 -32.4619)
(4.9485 -0.579781 -32.4647)
(4.95919 -0.496256 -32.4821)
(4.65753 -0.461522 -32.487)
(4.67265 -0.442339 -32.5018)
(4.43347 -0.431305 -32.5054)
(4.46168 -0.424561 -32.5139)
(4.26658 -0.419865 -32.5124)
(4.29864 -0.416196 -32.5144)
(4.13658 -0.413607 -32.5095)
(4.16891 -0.411277 -32.5076)
(4.03236 -0.409714 -32.5013)
(4.06378 -0.408169 -32.498)
(3.94621 -0.407085 -32.493)
(3.97864 -0.405547 -32.4911)
(3.87126 -0.405241 -32.4896)
(3.91945 -0.401432 -32.4906)
(3.79589 -0.402506 -32.4923)
(3.94038 -0.404456 -32.4818)
(4.53394 -0.48924 -32.4025)
(4.51868 0.0493487 -32.4576)
(3.81164 0.219649 -32.4653)
(3.656 0.326764 -32.486)
(3.25467 0.366526 -32.489)
(3.25484 0.383377 -32.5028)
(2.98756 0.392865 -32.5019)
(3.03191 0.39734 -32.5089)
(2.82643 0.40119 -32.5044)
(2.88046 0.40297 -32.5067)
(2.71364 0.404812 -32.5008)
(2.76732 0.405643 -32.501)
(2.62845 0.406718 -32.4956)
(2.67906 0.407115 -32.4958)
(2.56143 0.407756 -32.4926)
(2.6078 0.408521 -32.4942)
(2.50862 0.407399 -32.4938)
(2.5402 0.410734 -32.4966)
(2.47774 0.401985 -32.4976)
(2.40936 0.417348 -32.4937)
(3.65703 -0.928679 -32.3783)
(2.85659 -0.570154 -32.4445)
(1.97665 -0.475649 -32.4562)
(1.85795 -0.437066 -32.4703)
(1.55801 -0.430781 -32.4713)
(1.60342 -0.428943 -32.4784)
(1.40966 -0.427074 -32.4768)
(1.47496 -0.426663 -32.4801)
(1.32458 -0.425239 -32.4773)
(1.38946 -0.42522 -32.4783)
(1.26746 -0.424286 -32.4752)
(1.32724 -0.424234 -32.4757)
(1.22589 -0.423452 -32.4733)
(1.27967 -0.4234 -32.474)
(1.194 -0.422734 -32.4729)
(1.24216 -0.422919 -32.4743)
(1.16998 -0.421373 -32.4743)
(1.21341 -0.422486 -32.4759)
(1.15718 -0.409109 -32.4763)
(1.29633 -0.413533 -32.4737)
(1.94363 -0.0367694 -32.2517)
(1.07863 0.369577 -32.3074)
(0.613389 0.418747 -32.3104)
(0.587076 0.43019 -32.317)
(0.464848 0.436073 -32.3154)
(0.49669 0.437865 -32.3192)
(0.418142 0.439768 -32.3171)
(0.453738 0.439329 -32.3194)
(0.392722 0.44007 -32.3173)
(0.425904 0.439559 -32.3188)
(0.37641 0.440126 -32.3169)
(0.406033 0.439515 -32.3181)
(0.365031 0.439861 -32.3167)
(0.391171 0.439284 -32.3177)
(0.356716 0.439456 -32.3168)
(0.379539 0.439303 -32.3179)
(0.351028 0.437895 -32.3174)
(0.367791 0.439586 -32.3184)
(0.349509 0.414817 -32.3181)
(0.289617 0.425385 -32.319)
(3.71426 0.563699 0.00635232)
(2.05013 0.630916 0.00409222)
(1.3785 0.606353 0.00533359)
(1.0622 0.602961 0.00409667)
(1.00164 0.611085 0.00511041)
(0.884308 0.616651 0.00406948)
(0.876438 0.619301 0.00490801)
(0.802642 0.620606 0.00403877)
(0.803444 0.621173 0.00474335)
(0.752612 0.621725 0.00401746)
(0.754347 0.621759 0.00460715)
(0.717955 0.621867 0.00399992)
(0.718575 0.62168 0.00449125)
(0.691918 0.621979 0.00398363)
(0.691228 0.621703 0.00439122)
(0.671008 0.622507 0.00396738)
(0.670665 0.618783 0.00430566)
(0.655464 0.627235 0.00394886)
(0.647953 0.558686 0.00424897)
(0.933279 0.583303 0.00390928)
(4.78857 0.000167875 0.0040416)
(4.14967 -0.220689 0.00209337)
(3.58601 -0.417374 0.00335657)
(3.04876 -0.520636 0.00212926)
(2.82284 -0.56014 0.00315115)
(2.56466 -0.578128 0.00211341)
(2.48154 -0.586438 0.00295539)
(2.32839 -0.591759 0.00208566)
(2.28708 -0.594777 0.00279176)
(2.18324 -0.596943 0.00206499)
(2.15635 -0.59817 0.00265572)
(2.08141 -0.599178 0.00204754)
(2.06027 -0.59975 0.0025396)
(2.0042 -0.600627 0.00203128)
(1.98569 -0.600831 0.00243928)
(1.94141 -0.602258 0.00201547)
(1.92765 -0.598978 0.00235154)
(1.88104 -0.606628 0.00199803)
(1.9025 -0.584603 0.00226056)
(1.6252 -0.596779 0.00195245)
(4.77088 0.53139 0.00522781)
(4.86872 0.780897 0.00332363)
(4.76552 0.744731 0.00450257)
(4.41772 0.683131 0.00325701)
(4.23502 0.649786 0.00427031)
(3.97884 0.630654 0.00322951)
(3.87143 0.619545 0.00407069)
(3.70005 0.613223 0.00319977)
(3.6323 0.60832 0.00390558)
(3.51089 0.605616 0.00317739)
(3.46189 0.602776 0.00376752)
(3.37179 0.60136 0.00315824)
(3.33232 0.599403 0.00364995)
(3.26328 0.598483 0.00314102)
(3.22899 0.596803 0.0035495)
(3.17599 0.596303 0.00312461)
(3.14153 0.593182 0.00346528)
(3.11611 0.595674 0.00310623)
(3.04686 0.56146 0.0034186)
(3.19252 0.583984 0.00308138)
(4.63353 -0.0624294 0.00394981)
(4.87549 -0.176733 0.0022557)
(5.10732 -0.295337 0.00342269)
(5.02481 -0.390053 0.0021923)
(5.0113 -0.442682 0.00321253)
(4.86495 -0.477284 0.00217879)
(4.81489 -0.498402 0.00302344)
(4.68599 -0.513584 0.002155)
(4.63696 -0.524193 0.00286199)
(4.53378 -0.532034 0.0021352)
(4.49046 -0.538168 0.0027258)
(4.40876 -0.542743 0.00211683)
(4.37035 -0.546696 0.00260805)
(4.30501 -0.549523 0.00209899)
(4.2705 -0.552091 0.00250633)
(4.21636 -0.554266 0.0020824)
(4.18776 -0.555696 0.0024177)
(4.13096 -0.557762 0.00206509)
(4.12925 -0.564067 0.00232229)
(3.95369 -0.574735 0.0020328)
(4.61802 0.410621 0.0048527)
(4.85542 0.658288 0.00322781)
(5.16684 0.680425 0.00433173)
(5.20933 0.656385 0.00308808)
(5.31509 0.637364 0.00409503)
(5.27429 0.622143 0.00305616)
(5.30565 0.610922 0.00389874)
(5.24567 0.602836 0.00302904)
(5.24642 0.595833 0.00373595)
(5.18663 0.591113 0.00300857)
(5.17422 0.586451 0.00359941)
(5.12073 0.583566 0.00299022)
(5.10238 0.580314 0.00348169)
(5.05644 0.578434 0.00297235)
(5.03468 0.576013 0.0033801)
(4.99811 0.574535 0.00295512)
(4.96905 0.572701 0.00329455)
(4.95671 0.57093 0.00293705)
(4.89523 0.557974 0.00324467)
(4.96193 0.585804 0.0029219)
(4.59427 -0.110871 0.00403736)
(4.77034 -0.239131 0.00251668)
(5.10752 -0.320937 0.00359944)
(5.2037 -0.385161 0.00236076)
(5.37677 -0.420915 0.00336731)
(5.40294 -0.446252 0.0023312)
(5.49567 -0.462059 0.00317477)
(5.4928 -0.474607 0.002306)
(5.54241 -0.483805 0.00301309)
(5.52734 -0.491371 0.00228644)
(5.55225 -0.497604 0.00287731)
(5.53281 -0.502664 0.00226846)
(5.54314 -0.507316 0.00275973)
(5.52277 -0.510677 0.00225065)
(5.52449 -0.514539 0.00265783)
(5.50385 -0.516296 0.00223376)
(5.50259 -0.521718 0.0025686)
(5.47342 -0.519025 0.00221587)
(5.48261 -0.541648 0.00247533)
(5.37808 -0.550017 0.00219411)
(4.60725 0.326151 0.00460034)
(4.76978 0.542628 0.00313801)
(5.08642 0.581903 0.00418687)
(5.18432 0.581458 0.00294591)
(5.37249 0.5774 0.00394545)
(5.42262 0.573022 0.00290686)
(5.54447 0.569117 0.00374961)
(5.57338 0.566281 0.0028802)
(5.65463 0.56314 0.00358744)
(5.67113 0.561117 0.00286053)
(5.72552 0.558564 0.00345166)
(5.73443 0.557093 0.00284286)
(5.77057 0.555029 0.00333453)
(5.7747 0.553906 0.00282557)
(5.79792 0.552352 0.00323347)
(5.80045 0.550997 0.00280892)
(5.81145 0.551236 0.0031476)
(5.82185 0.547506 0.00279119)
(5.81174 0.549687 0.00309063)
(5.83728 0.578283 0.00278073)
(4.59654 -0.155015 0.00413983)
(4.73141 -0.302634 0.00272757)
(5.04849 -0.369501 0.00376224)
(5.14896 -0.415833 0.00252146)
(5.34533 -0.440454 0.00351868)
(5.40478 -0.457586 0.00248054)
(5.53891 -0.467559 0.00332315)
(5.58188 -0.475561 0.00245366)
(5.67913 -0.48106 0.00316056)
(5.71268 -0.485842 0.0024336)
(5.78485 -0.489656 0.00302438)
(5.81155 -0.492957 0.00241542)
(5.8658 -0.496052 0.00290672)
(5.88663 -0.498225 0.00239772)
(5.92833 -0.501338 0.00280524)
(5.94295 -0.501716 0.00238123)
(5.97806 -0.508144 0.00271688)
(5.9793 -0.502361 0.00236373)
(6.01978 -0.5279 0.00263105)
(5.95913 -0.539456 0.00234887)
(4.6022 0.258809 0.00440708)
(4.73372 0.449441 0.00302708)
(5.04139 0.498245 0.00404649)
(5.13801 0.514132 0.00280714)
(5.33225 0.520084 0.00380189)
(5.39171 0.523388 0.00276325)
(5.52806 0.524605 0.00360593)
(5.57505 0.525861 0.00273644)
(5.67799 0.526025 0.00344368)
(5.71857 0.526655 0.00271677)
(5.79892 0.526524 0.00330784)
(5.83452 0.526912 0.00269903)
(5.89843 0.526737 0.00319066)
(5.92903 0.526886 0.00268182)
(5.9808 0.527027 0.00308986)
(6.00637 0.526244 0.00266559)
(6.04897 0.529194 0.00300364)
(6.06991 0.524257 0.00264828)
(6.10634 0.537269 0.00293778)
(6.10252 0.562905 0.00263865)
(4.59876 -0.203052 0.00425947)
(4.72193 -0.371141 0.00289426)
(5.02978 -0.428207 0.00390888)
(5.12655 -0.45917 0.00266874)
(5.3219 -0.474408 0.00366222)
(5.38196 -0.484651 0.00262341)
(5.51927 -0.490204 0.00346584)
(5.5674 -0.494773 0.00259618)
(5.6722 -0.497517 0.00330319)
(5.71506 -0.500139 0.00257614)
(5.79845 -0.501905 0.00316699)
(5.83738 -0.503667 0.00255804)
(5.90542 -0.505095 0.00304946)
(5.93985 -0.506142 0.00254057)
(5.99692 -0.507859 0.00294836)
(6.02536 -0.50731 0.00252439)
(6.07628 -0.512579 0.00286114)
(6.09307 -0.506142 0.00250738)
(6.14736 -0.527199 0.00278503)
(6.11595 -0.545269 0.00249628)
(4.59876 0.203052 0.00425947)
(4.72193 0.371141 0.00289426)
(5.02978 0.428207 0.00390888)
(5.12655 0.459171 0.00266874)
(5.3219 0.474408 0.00366222)
(5.38196 0.484653 0.00262341)
(5.51927 0.490205 0.00346584)
(5.5674 0.494778 0.00259617)
(5.6722 0.497522 0.00330319)
(5.71506 0.500152 0.00257613)
(5.79845 0.501921 0.00316699)
(5.83738 0.503704 0.00255801)
(5.9054 0.505144 0.00304944)
(5.93986 0.50626 0.00254048)
(5.99686 0.507992 0.00294833)
(6.02539 0.507671 0.00252412)
(6.07613 0.51297 0.00286109)
(6.09315 0.507142 0.00250666)
(6.14717 0.528413 0.00278518)
(6.11651 0.547883 0.00249508)
(4.6022 -0.258809 0.00440708)
(4.73372 -0.449441 0.00302708)
(5.04139 -0.498245 0.00404649)
(5.13801 -0.514132 0.00280714)
(5.33225 -0.520084 0.00380189)
(5.39171 -0.523386 0.00276325)
(5.52806 -0.524604 0.00360593)
(5.57505 -0.525856 0.00273644)
(5.678 -0.52602 0.00344368)
(5.71857 -0.526643 0.00271678)
(5.79892 -0.526508 0.00330784)
(5.83453 -0.526874 0.00269906)
(5.89846 -0.526689 0.00319068)
(5.92904 -0.526765 0.0026819)
(5.98092 -0.526896 0.00308988)
(6.0064 -0.525877 0.00266584)
(6.04931 -0.528807 0.00300364)
(6.06999 -0.523275 0.00264894)
(6.10708 -0.536014 0.00293755)
(6.10247 -0.560476 0.00263942)
(4.59654 0.155015 0.00413983)
(4.73141 0.302634 0.00272758)
(5.04849 0.369501 0.00376224)
(5.14896 0.415834 0.00252146)
(5.34532 0.440454 0.00351868)
(5.40478 0.457588 0.00248054)
(5.53891 0.46756 0.00332315)
(5.58188 0.475566 0.00245366)
(5.67913 0.481065 0.00316056)
(5.71269 0.485853 0.00243359)
(5.78484 0.489672 0.00302437)
(5.81157 0.492991 0.00241539)
(5.8658 0.496099 0.0029067)
(5.88667 0.498331 0.00239765)
(5.92833 0.501464 0.0028052)
(5.94306 0.502041 0.00238101)
(5.97812 0.508507 0.0027168)
(5.97966 0.50329 0.00236307)
(6.02027 0.528893 0.00263122)
(5.96057 0.542066 0.00234757)
(4.60725 -0.326151 0.00460034)
(4.76978 -0.542628 0.00313801)
(5.08642 -0.581903 0.00418687)
(5.18432 -0.581457 0.00294591)
(5.37249 -0.5774 0.00394545)
(5.42263 -0.57302 0.00290687)
(5.54447 -0.569116 0.00374961)
(5.57339 -0.566276 0.00288021)
(5.65463 -0.563136 0.00358743)
(5.67114 -0.561104 0.00286055)
(5.72552 -0.558548 0.00345166)
(5.73446 -0.557055 0.00284289)
(5.7706 -0.554985 0.00333452)
(5.77477 -0.553785 0.00282566)
(5.79808 -0.552231 0.00323344)
(5.80062 -0.550634 0.00280916)
(5.81199 -0.550873 0.0031475)
(5.82228 -0.54657 0.00279177)
(5.81326 -0.548322 0.00309024)
(5.83814 -0.576067 0.00278105)
(4.59427 0.110871 0.00403736)
(4.77034 0.239131 0.00251668)
(5.10752 0.320937 0.00359944)
(5.2037 0.385161 0.00236077)
(5.37677 0.420915 0.00336731)
(5.40294 0.446253 0.0023312)
(5.49567 0.46206 0.00317477)
(5.4928 0.474611 0.00230601)
(5.5424 0.48381 0.00301308)
(5.52736 0.491381 0.00228644)
(5.55225 0.497619 0.0028773)
(5.53287 0.50269 0.00226845)
(5.54314 0.507357 0.0027597)
(5.52291 0.510758 0.0022506)
(5.52456 0.514646 0.00265774)
(5.50423 0.516544 0.00223363)
(5.5029 0.522015 0.00256841)
(5.47449 0.519755 0.00221541)
(5.48393 0.542171 0.0024754)
(5.38141 0.552332 0.00219298)
(4.61802 -0.410621 0.0048527)
(4.85542 -0.658288 0.00322782)
(5.16684 -0.680425 0.00433173)
(5.20933 -0.656384 0.00308809)
(5.31509 -0.637364 0.00409503)
(5.2743 -0.622142 0.00305617)
(5.30565 -0.610921 0.00389874)
(5.24568 -0.602832 0.00302905)
(5.24641 -0.595829 0.00373593)
(5.18666 -0.591102 0.00300859)
(5.17422 -0.586439 0.00359939)
(5.12081 -0.583533 0.00299026)
(5.10242 -0.580277 0.00348164)
(5.05664 -0.578326 0.00297247)
(5.03487 -0.575915 0.00337995)
(4.99864 -0.574207 0.00295546)
(4.96978 -0.572408 0.00329418)
(4.95797 -0.570107 0.00293787)
(4.89754 -0.556758 0.00324373)
(4.96476 -0.583878 0.00292235)
(4.63353 0.0624294 0.00394981)
(4.87549 0.176733 0.0022557)
(5.10732 0.295337 0.00342269)
(5.02481 0.390053 0.0021923)
(5.0113 0.442682 0.00321253)
(4.86495 0.477285 0.0021788)
(4.81489 0.498403 0.00302344)
(4.686 0.513586 0.002155)
(4.63696 0.524196 0.00286197)
(4.53382 0.532039 0.00213521)
(4.49046 0.538179 0.00272577)
(4.40887 0.542754 0.00211684)
(4.37038 0.546725 0.00260798)
(4.3053 0.549555 0.002099)
(4.27063 0.552158 0.00250617)
(4.21713 0.554357 0.00208245)
(4.18825 0.55587 0.00241728)
(4.13321 0.558044 0.00206515)
(4.13088 0.564368 0.00232178)
(3.96087 0.575988 0.00203274)
(4.77088 -0.53139 0.00522781)
(4.86872 -0.780896 0.00332364)
(4.76552 -0.744731 0.00450257)
(4.41772 -0.683131 0.00325701)
(4.23502 -0.649785 0.00427031)
(3.97885 -0.630653 0.00322952)
(3.87143 -0.619544 0.00407069)
(3.70006 -0.61322 0.00319978)
(3.63231 -0.608317 0.00390557)
(3.51092 -0.605609 0.00317741)
(3.46191 -0.602767 0.00376748)
(3.37189 -0.601338 0.0031583)
(3.33239 -0.599375 0.00364987)
(3.26357 -0.598403 0.00314118)
(3.22924 -0.596729 0.00354928)
(3.17676 -0.596042 0.00312506)
(3.14238 -0.592963 0.00346461)
(3.1181 -0.594999 0.00310753)
(3.04922 -0.560983 0.00341634)
(3.19768 -0.583028 0.00308414)
(4.78857 -0.000167888 0.0040416)
(4.14967 0.220689 0.00209337)
(3.58601 0.417375 0.00335658)
(3.04877 0.520636 0.00212926)
(2.82284 0.56014 0.00315116)
(2.56467 0.578128 0.00211341)
(2.48154 0.586438 0.00295539)
(2.3284 0.591759 0.00208566)
(2.28709 0.594778 0.00279176)
(2.18327 0.596942 0.00206499)
(2.15637 0.598172 0.0026557)
(2.0815 0.599169 0.00204755)
(2.06033 0.599755 0.00253956)
(2.00445 0.600604 0.0020313)
(1.98591 0.600838 0.00243916)
(1.94207 0.602167 0.00201554)
(1.92835 0.598997 0.0023512)
(1.88307 0.606385 0.00199822)
(1.90391 0.584812 0.00225975)
(1.6354 0.59731 0.00195383)
(3.71426 -0.563699 0.00635234)
(2.05013 -0.630916 0.00409223)
(1.3785 -0.606353 0.0053336)
(1.0622 -0.602961 0.00409669)
(1.00164 -0.611085 0.00511042)
(0.884309 -0.61665 0.0040695)
(0.87644 -0.619301 0.00490802)
(0.802646 -0.620605 0.00403879)
(0.803451 -0.621172 0.00474336)
(0.752624 -0.621721 0.00401749)
(0.754365 -0.621756 0.00460715)
(0.717994 -0.621853 0.00399996)
(0.718625 -0.621673 0.00449123)
(0.69203 -0.621937 0.00398371)
(0.691391 -0.621681 0.00439114)
(0.671295 -0.622358 0.0039676)
(0.671173 -0.618734 0.00430534)
(0.656183 -0.62681 0.0039495)
(0.649505 -0.559217 0.0042477)
(0.932338 -0.58383 0.00391238)
(4.00015 0.159251 0.00114097)
(2.97158 0.122486 0.0013879)
(2.10854 0.073566 0.000873063)
(1.64649 0.0383935 0.00123223)
(1.40858 0.0254608 0.000914935)
(1.31347 0.0257641 0.00112292)
(1.25164 0.0304734 0.000903008)
(1.21765 0.0357203 0.00103015)
(1.18262 0.0398216 0.000895241)
(1.15617 0.0429425 0.000968095)
(1.13058 0.0450477 0.000893547)
(1.10846 0.04663 0.000927074)
(1.09008 0.0476324 0.00089522)
(1.0722 0.048554 0.000901121)
(1.05837 0.0488731 0.000900239)
(1.04565 0.0498908 0.000886524)
(1.03178 0.0490448 0.000909861)
(1.02843 0.0517403 0.00087916)
(1.00501 0.0458703 0.000920541)
(1.03541 0.0493811 0.000902687)
(4.61922 0.179938 0.0029612)
(4.62071 0.19499 0.00331835)
(4.33926 0.14835 0.00278134)
(4.04344 0.0799879 0.00312554)
(3.77203 0.0311347 0.00280083)
(3.56859 0.00189851 0.0030076)
(3.39817 -0.0134049 0.00278689)
(3.26545 -0.0228548 0.00291434)
(3.15111 -0.0284728 0.00277861)
(3.0566 -0.033006 0.00285116)
(2.97586 -0.0360051 0.00277583)
(2.90561 -0.0387015 0.00280909)
(2.8469 -0.0405243 0.00277713)
(2.79325 -0.0421498 0.00278284)
(2.74826 -0.0433967 0.00278278)
(2.70776 -0.0443534 0.00276833)
(2.66916 -0.045135 0.00279539)
(2.64161 -0.0460916 0.00275935)
(2.60343 -0.0462409 0.00283148)
(2.58576 -0.0481933 0.00279974)
(4.56147 0.125035 0.00140148)
(4.79599 0.174856 0.00166593)
(4.89754 0.174563 0.00114127)
(4.91694 0.138355 0.0014871)
(4.86132 0.109315 0.00117186)
(4.79181 0.093134 0.00138308)
(4.70726 0.085559 0.00116587)
(4.62621 0.0816934 0.00129342)
(4.54356 0.079122 0.00115901)
(4.46502 0.0768336 0.00123119)
(4.39035 0.0747355 0.00115642)
(4.31934 0.0728094 0.00118893)
(4.25454 0.0709391 0.00115682)
(4.19353 0.0697147 0.00116207)
(4.1371 0.0677001 0.00116132)
(4.0887 0.0678477 0.00114743)
(4.03431 0.0645392 0.00117015)
(4.00596 0.0676149 0.00114175)
(3.93827 0.0594117 0.00116564)
(3.94604 0.0679366 0.00116364)
(4.54319 0.121732 0.00270278)
(4.73061 0.141884 0.00309153)
(4.89758 0.129783 0.00257564)
(5.02676 0.0886218 0.00291355)
(5.08915 0.0538265 0.00258635)
(5.12878 0.030034 0.00279384)
(5.14285 0.015978 0.00257346)
(5.14934 0.00657141 0.00270081)
(5.14429 2.13872e-05 0.00256508)
(5.1336 -0.00558318 0.00263748)
(5.11731 -0.0101917 0.00256193)
(5.09662 -0.0143036 0.00259451)
(5.07368 -0.018018 0.0025615)
(5.04863 -0.0207905 0.00256625)
(5.02162 -0.0243144 0.00256476)
(4.99772 -0.0253346 0.0025503)
(4.96548 -0.0296837 0.00257564)
(4.95066 -0.0280909 0.00254376)
(4.90371 -0.0346331 0.00261646)
(4.91011 -0.0293332 0.00258784)
(4.54615 0.0844192 0.00159503)
(4.71748 0.121074 0.00190546)
(4.87147 0.129583 0.00138559)
(5.00986 0.111457 0.00171419)
(5.09684 0.096689 0.00139048)
(5.16929 0.0889897 0.00160011)
(5.22033 0.086464 0.00138225)
(5.26723 0.0860187 0.00150982)
(5.3043 0.0859703 0.00137536)
(5.337 0.0856885 0.00144769)
(5.36359 0.0850148 0.00137307)
(5.38542 0.084266 0.00140562)
(5.40269 0.0829726 0.00137325)
(5.4168 0.0825114 0.00137819)
(5.42584 0.0802703 0.0013768)
(5.43628 0.0814059 0.00136277)
(5.43684 0.0766104 0.00138404)
(5.44906 0.0822368 0.00135731)
(5.43711 0.0705967 0.0013752)
(5.45639 0.0875664 0.00138351)
(4.54158 0.0798336 0.00247641)
(4.69165 0.0909772 0.00287359)
(4.84126 0.0831355 0.00236811)
(4.97736 0.0540796 0.00270251)
(5.06822 0.0295413 0.0023754)
(5.14869 0.0123289 0.00258503)
(5.21065 0.00192939 0.00236581)
(5.27091 -0.00482147 0.00249384)
(5.32347 -0.00944456 0.00235855)
(5.37348 -0.013091 0.00243116)
(5.41917 -0.0161873 0.00235596)
(5.46085 -0.0186358 0.00238875)
(5.4998 -0.0212725 0.00235597)
(5.53434 -0.0225933 0.00236087)
(5.56754 -0.0255845 0.00235937)
(5.59603 -0.0250926 0.00234503)
(5.62565 -0.029732 0.00236957)
(5.64749 -0.0259673 0.00234007)
(5.67692 -0.0336757 0.00240839)
(5.68558 -0.0249848 0.00238117)
(4.54211 0.0499758 0.00176838)
(4.68742 0.0760505 0.00211613)
(4.83099 0.0859692 0.00160553)
(4.96417 0.0783026 0.00192781)
(5.05428 0.0721568 0.00159943)
(5.135 0.0697099 0.00180775)
(5.19799 0.0700725 0.00158855)
(5.26042 0.0714332 0.00171558)
(5.31651 0.0727599 0.00158033)
(5.37128 0.0737679 0.00165225)
(5.42334 0.0742652 0.00157718)
(5.47201 0.0746918 0.00160951)
(5.51992 0.0744322 0.00157701)
(5.56277 0.0749552 0.00158191)
(5.60752 0.0736764 0.0015807)
(5.6442 0.0754649 0.00156668)
(5.68899 0.0718083 0.00158815)
(5.71615 0.077523 0.00156242)
(5.76853 0.068166 0.00158457)
(5.77502 0.084479 0.00159246)
(4.53945 0.0441759 0.00227916)
(4.67295 0.0464921 0.0026754)
(4.815 0.0395708 0.00217393)
(4.9468 0.0202565 0.00250338)
(5.03751 0.0037659 0.00217527)
(5.11925 -0.00840184 0.00238536)
(5.18352 -0.0163066 0.00216649)
(5.24717 -0.0216232 0.00229469)
(5.30489 -0.0253658 0.00215958)
(5.36133 -0.0281567 0.00223216)
(5.41597 -0.0304994 0.00215709)
(5.46694 -0.0321696 0.00218977)
(5.51885 -0.0340273 0.00215725)
(5.56431 -0.0347664 0.00216226)
(5.6151 -0.0368062 0.00216123)
(5.65359 -0.0362412 0.00214712)
(5.70787 -0.0392934 0.00217127)
(5.73371 -0.0367138 0.00214369)
(5.8017 -0.0409884 0.00220224)
(5.80096 -0.0368703 0.00218203)
(4.53963 0.0185095 0.00193482)
(4.67083 0.034718 0.00230838)
(4.81022 0.0439814 0.0018042)
(4.94079 0.0455646 0.00212598)
(5.0311 0.0471092 0.00179617)
(5.11247 0.0495182 0.00200465)
(5.17632 0.0524007 0.00178518)
(5.23956 0.0550977 0.00191235)
(5.29714 0.0572838 0.00177683)
(5.35357 0.0589582 0.00184869)
(5.40871 0.0601393 0.00177337)
(5.46017 0.0610835 0.00180557)
(5.51337 0.0615805 0.00177294)
(5.55969 0.0623246 0.0017778)
(5.61269 0.0621478 0.0017767)
(5.65217 0.0634198 0.00176276)
(5.70985 0.0618836 0.00178489)
(5.73634 0.0653801 0.00175966)
(5.8099 0.0604991 0.00179184)
(5.80966 0.071072 0.00179247)
(4.53879 0.0121606 0.00210162)
(4.66618 0.00537635 0.00248998)
(4.80506 -0.00246424 0.00198883)
(4.93515 -0.0128332 0.00231374)
(5.02565 -0.0217969 0.0019845)
(5.10728 -0.0290648 0.00219396)
(5.17141 -0.0344781 0.00197485)
(5.2348 -0.0384852 0.00210263)
(5.29256 -0.0414651 0.00196735)