/*--------------------------------*- C++ -*----------------------------------*\
  =========                 |
  \\      /  F ield         | OpenFOAM: The Open Source CFD Toolbox
   \\    /   O peration     | Website:  https://openfoam.org
    \\  /    A nd           | Version:  7
     \\/     M anipulation  |
\*---------------------------------------------------------------------------*/
FoamFile
{
    version     2.0;
    format      ascii;
    class       volVectorField;
    location    "0.045";
    object      U;
}
// * * * * * * * * * * * * * * * * * * * * * * * * * * * * * * * * * * * * * //

dimensions      [0 1 -1 0 0 0 0];

internalField   nonuniform List<vector> 
1440
(
(14.7912 0.0433075 0)
(14.6729 0.163943 0)
(14.4341 0.275377 0)
(14.0885 0.364481 0)
(13.6634 0.42885 0)
(13.1835 0.467999 0)
(12.6696 0.48395 0)
(12.1372 0.480225 0)
(11.6007 0.461736 0)
(11.0696 0.432192 0)
(10.5552 0.395781 0)
(10.0609 0.356236 0)
(9.59176 0.314854 0)
(9.15094 0.273632 0)
(8.73971 0.234117 0)
(8.35857 0.19721 0)
(8.00736 0.163437 0)
(7.6855 0.133047 0)
(7.3919 0.106089 0)
(7.12522 0.082477 0)
(6.88386 0.062038 0)
(6.66611 0.0445425 0)
(6.47022 0.0297362 0)
(6.29437 0.0173577 0)
(6.13684 0.00716692 0)
(5.99583 -0.0010805 0)
(5.86997 -0.00756273 0)
(5.75771 -0.0126261 0)
(5.65751 -0.0166787 0)
(5.56797 -0.0199828 0)
(5.48785 -0.0226519 0)
(5.41604 -0.0247368 0)
(5.35155 -0.0262868 0)
(5.29348 -0.0273647 0)
(5.24106 -0.0280383 0)
(5.19356 -0.0283725 0)
(5.15039 -0.0284254 0)
(5.11099 -0.0282467 0)
(5.0749 -0.0278747 0)
(5.04168 -0.0273364 0)
(5.01096 -0.0266497 0)
(4.98242 -0.0258297 0)
(4.95577 -0.0248969 0)
(4.93076 -0.0238822 0)
(4.90719 -0.0228263 0)
(4.88489 -0.0217738 0)
(4.86371 -0.020762 0)
(4.84353 -0.0198105 0)
(4.82424 -0.018915 0)
(4.80574 -0.0180448 0)
(4.78791 -0.017152 0)
(4.77064 -0.0161927 0)
(4.75386 -0.0151574 0)
(4.73752 -0.0140891 0)
(4.72159 -0.0130741 0)
(4.70607 -0.0122027 0)
(4.69096 -0.0115229 0)
(4.67622 -0.0110123 0)
(4.66183 -0.0105864 0)
(4.64773 -0.0101349 0)
(4.63388 -0.00956818 0)
(4.62024 -0.00885141 0)
(4.60676 -0.008014 0)
(4.59342 -0.00713157 0)
(4.58019 -0.00629212 0)
(4.56709 -0.00556356 0)
(4.55411 -0.00497639 0)
(4.54129 -0.00452431 0)
(4.52863 -0.00417699 0)
(4.51618 -0.00389591 0)
(4.50395 -0.00364649 0)
(4.49195 -0.00340428 0)
(4.48019 -0.00315582 0)
(4.46866 -0.00289658 0)
(4.45735 -0.00262784 0)
(4.44627 -0.00235377 0)
(4.43539 -0.00207927 0)
(4.42471 -0.00180889 0)
(4.41421 -0.00154617 0)
(4.40389 -0.00129373 0)
(4.39373 -0.00105326 0)
(4.38373 -0.000825793 0)
(4.37388 -0.000611741 0)
(4.36417 -0.000411077 0)
(4.35461 -0.000223347 0)
(4.34518 -4.79079e-05 0)
(4.33587 0.000116083 0)
(4.3267 0.000269466 0)
(4.31764 0.000413133 0)
(4.3087 0.000547833 0)
(4.29988 0.000674345 0)
(4.29117 0.000793172 0)
(4.28257 0.000904866 0)
(4.27408 0.00100959 0)
(4.26569 0.00110763 0)
(4.25742 0.00119889 0)
(4.24925 0.00128365 0)
(4.24119 0.00136176 0)
(4.23323 0.00143373 0)
(4.22538 0.00149939 0)
(4.21765 0.00155939 0)
(4.21001 0.00161362 0)
(4.20249 0.00166286 0)
(4.19508 0.00170745 0)
(4.18777 0.00174785 0)
(4.18056 0.00178567 0)
(4.17347 0.00181889 0)
(4.16646 0.00185351 0)
(4.15958 0.00187913 0)
(4.15274 0.00191597 0)
(4.14608 0.00192855 0)
(4.13937 0.00197849 0)
(4.13297 0.00195986 0)
(4.12633 0.00204479 0)
(4.12032 0.0019486 0)
(4.11353 0.00210809 0)
(4.10835 0.0018424 0)
(4.10079 0.0021647 0)
(4.09768 0.00161171 0)
(4.08717 0.00240563 0)
(14.8168 0.0601602 0)
(14.863 0.167729 0)
(14.9434 0.26142 0)
(15.0455 0.343974 0)
(15.1566 0.415991 0)
(15.265 0.475981 0)
(15.3619 0.52292 0)
(15.4405 0.557018 0)
(15.4973 0.579489 0)
(15.5309 0.591698 0)
(15.5422 0.595003 0)
(15.5326 0.590797 0)
(15.5045 0.580277 0)
(15.4603 0.564559 0)
(15.4027 0.54475 0)
(15.3338 0.521872 0)
(15.256 0.496835 0)
(15.1713 0.470411 0)
(15.0815 0.443263 0)
(14.988 0.415953 0)
(14.8922 0.388939 0)
(14.795 0.362618 0)
(14.6974 0.337283 0)
(14.6 0.313139 0)
(14.5034 0.290348 0)
(14.408 0.268992 0)
(14.3141 0.249116 0)
(14.2219 0.230699 0)
(14.1314 0.213675 0)
(14.0428 0.197979 0)
(13.9562 0.18356 0)
(13.8717 0.170364 0)
(13.7892 0.158324 0)
(13.7087 0.147361 0)
(13.6302 0.137393 0)
(13.5536 0.128331 0)
(13.4789 0.120094 0)
(13.406 0.112602 0)
(13.3348 0.105784 0)
(13.2654 0.0995734 0)
(13.1976 0.0939127 0)
(13.1314 0.0887503 0)
(13.0668 0.0840426 0)
(13.0037 0.0797472 0)
(12.942 0.0758239 0)
(12.8818 0.0722338 0)
(12.823 0.068938 0)
(12.7656 0.0658996 0)
(12.7095 0.0630866 0)
(12.6547 0.0604736 0)
(12.6011 0.0580441 0)
(12.5487 0.0557897 0)
(12.4975 0.053707 0)
(12.4475 0.0517912 0)
(12.3986 0.0500303 0)
(12.3508 0.0484003 0)
(12.3041 0.0468685 0)
(12.2585 0.0454023 0)
(12.2139 0.0439818 0)
(12.1702 0.0426063 0)
(12.1276 0.0412918 0)
(12.0858 0.0400616 0)
(12.045 0.0389352 0)
(12.005 0.0379196 0)
(11.9659 0.0370049 0)
(11.9277 0.0361674 0)
(11.8902 0.0353762 0)
(11.8535 0.0346021 0)
(11.8175 0.0338244 0)
(11.7823 0.0330327 0)
(11.7478 0.0322265 0)
(11.7139 0.0314115 0)
(11.6808 0.0305971 0)
(11.6484 0.029793 0)
(11.6167 0.0290077 0)
(11.5857 0.0282476 0)
(11.5554 0.0275171 0)
(11.5257 0.0268183 0)
(11.4967 0.0261521 0)
(11.4683 0.0255182 0)
(11.4405 0.0249154 0)
(11.4133 0.0243421 0)
(11.3867 0.0237969 0)
(11.3607 0.023278 0)
(11.3351 0.0227842 0)
(11.3101 0.022314 0)
(11.2857 0.0218659 0)
(11.2617 0.0214383 0)
(11.2381 0.0210297 0)
(11.2151 0.0206388 0)
(11.1925 0.0202643 0)
(11.1703 0.0199046 0)
(11.1485 0.0195584 0)
(11.1271 0.0192238 0)
(11.1062 0.0188996 0)
(11.0856 0.0185847 0)
(11.0653 0.0182783 0)
(11.0455 0.0179797 0)
(11.026 0.0176878 0)
(11.0069 0.0174021 0)
(10.9881 0.0171214 0)
(10.9696 0.0168471 0)
(10.9515 0.0165772 0)
(10.9337 0.0163146 0)
(10.9163 0.0160548 0)
(10.8992 0.0158038 0)
(10.8824 0.0155524 0)
(10.8659 0.015315 0)
(10.8497 0.015072 0)
(10.8338 0.014853 0)
(10.8184 0.0146145 0)
(10.8029 0.014417 0)
(10.7883 0.0141689 0)
(10.7731 0.0139944 0)
(10.7597 0.0137089 0)
(10.7441 0.013551 0)
(10.7327 0.0131777 0)
(10.7155 0.0129913 0)
(10.7086 0.0125052 0)
(10.6863 0.0122254 0)
(14.8152 0.0372441 0)
(14.8388 0.108983 0)
(14.8859 0.175298 0)
(14.9552 0.235114 0)
(15.0441 0.288083 0)
(15.1497 0.333618 0)
(15.2687 0.371061 0)
(15.3976 0.400152 0)
(15.5326 0.421154 0)
(15.6698 0.43463 0)
(15.8064 0.441249 0)
(15.9396 0.441815 0)
(16.0676 0.437097 0)
(16.189 0.427876 0)
(16.3027 0.414992 0)
(16.408 0.399298 0)
(16.5047 0.381593 0)
(16.5928 0.362583 0)
(16.6725 0.342874 0)
(16.744 0.322975 0)
(16.8078 0.303305 0)
(16.8644 0.284202 0)
(16.9144 0.265923 0)
(16.9581 0.248647 0)
(16.9961 0.232481 0)
(17.029 0.217478 0)
(17.0572 0.203635 0)
(17.0811 0.190966 0)
(17.1011 0.179487 0)
(17.1178 0.169172 0)
(17.1314 0.159951 0)
(17.1423 0.151734 0)
(17.1507 0.144428 0)
(17.1569 0.137939 0)
(17.1611 0.132176 0)
(17.1636 0.127051 0)
(17.1644 0.122484 0)
(17.1637 0.118403 0)
(17.1618 0.114745 0)
(17.1585 0.111458 0)
(17.1542 0.108497 0)
(17.1489 0.105828 0)
(17.1426 0.103416 0)
(17.1355 0.101228 0)
(17.1276 0.0992298 0)
(17.119 0.0973846 0)
(17.1097 0.095659 0)
(17.0998 0.094024 0)
(17.0893 0.0924599 0)
(17.0782 0.0909591 0)
(17.0666 0.0895257 0)
(17.0545 0.0881694 0)
(17.0419 0.0868954 0)
(17.0289 0.0856956 0)
(17.0156 0.0845452 0)
(17.0019 0.0834085 0)
(16.9878 0.0822525 0)
(16.9734 0.0810623 0)
(16.9587 0.0798482 0)
(16.9435 0.0786422 0)
(16.9281 0.0774841 0)
(16.9124 0.0764051 0)
(16.8965 0.0754152 0)
(16.8803 0.0745017 0)
(16.864 0.0736346 0)
(16.8475 0.0727779 0)
(16.8309 0.0718998 0)
(16.8141 0.0709799 0)
(16.7971 0.0700111 0)
(16.7799 0.0689969 0)
(16.7626 0.0679481 0)
(16.7452 0.0668778 0)
(16.7277 0.0657993 0)
(16.71 0.0647236 0)
(16.6923 0.0636588 0)
(16.6744 0.0626101 0)
(16.6566 0.0615806 0)
(16.6386 0.0605719 0)
(16.6207 0.0595849 0)
(16.6027 0.0586199 0)
(16.5846 0.0576767 0)
(16.5666 0.0567547 0)
(16.5485 0.0558531 0)
(16.5304 0.0549714 0)
(16.5124 0.0541095 0)
(16.4943 0.0532674 0)
(16.4762 0.0524451 0)
(16.4582 0.0516418 0)
(16.4401 0.0508571 0)
(16.4221 0.0500898 0)
(16.4042 0.0493393 0)
(16.3862 0.0486045 0)
(16.3684 0.0478845 0)
(16.3505 0.0471773 0)
(16.3328 0.0464815 0)
(16.3151 0.0457945 0)
(16.2974 0.0451156 0)
(16.2799 0.0444427 0)
(16.2625 0.0437764 0)
(16.2451 0.0431141 0)
(16.2278 0.0424577 0)
(16.2107 0.0418033 0)
(16.1936 0.0411557 0)
(16.1767 0.0405084 0)
(16.1599 0.039872 0)
(16.1432 0.0392325 0)
(16.1266 0.0386116 0)
(16.1102 0.0379778 0)
(16.0939 0.0373791 0)
(16.0776 0.0367448 0)
(16.0617 0.0361811 0)
(16.0456 0.0355284 0)
(16.0302 0.0350213 0)
(16.0139 0.0343047 0)
(15.9995 0.0338919 0)
(15.9826 0.0330064 0)
(15.9702 0.0327583 0)
(15.9509 0.0314771 0)
(15.9432 0.0315148 0)
(15.918 0.0293357 0)
(14.8151 0.0255785 0)
(14.8361 0.0757136 0)
(14.878 0.122947 0)
(14.9398 0.165735 0)
(15.0191 0.203265 0)
(15.1129 0.235131 0)
(15.2185 0.26106 0)
(15.3334 0.280958 0)
(15.4552 0.295029 0)
(15.5813 0.303768 0)
(15.7098 0.307825 0)
(15.8389 0.307907 0)
(15.9671 0.30469 0)
(16.0932 0.298802 0)
(16.2162 0.290837 0)
(16.3353 0.281347 0)
(16.4498 0.270819 0)
(16.5592 0.259661 0)
(16.6634 0.248201 0)
(16.762 0.236697 0)
(16.8552 0.225343 0)
(16.943 0.214279 0)
(17.0254 0.203611 0)
(17.1028 0.193416 0)
(17.1754 0.18375 0)
(17.2435 0.174649 0)
(17.3074 0.166134 0)
(17.3673 0.158227 0)
(17.4237 0.150935 0)
(17.4768 0.144244 0)
(17.5269 0.138119 0)
(17.5743 0.132516 0)
(17.6193 0.127398 0)
(17.662 0.122727 0)
(17.7028 0.11847 0)
(17.7418 0.114589 0)
(17.7791 0.11105 0)
(17.815 0.10782 0)
(17.8494 0.104873 0)
(17.8827 0.102181 0)
(17.9148 0.0997236 0)
(17.9459 0.0974783 0)
(17.976 0.0954243 0)
(18.0053 0.0935396 0)
(18.0337 0.0918003 0)
(18.0614 0.0901828 0)
(18.0884 0.0886661 0)
(18.1146 0.0872346 0)
(18.1402 0.0858796 0)
(18.1652 0.0845999 0)
(18.1896 0.0833982 0)
(18.2134 0.0822761 0)
(18.2366 0.0812285 0)
(18.2594 0.0802404 0)
(18.2816 0.07929 0)
(18.3034 0.0783557 0)
(18.3246 0.0774257 0)
(18.3454 0.0765025 0)
(18.3657 0.0756027 0)
(18.3855 0.0747482 0)
(18.4048 0.0739582 0)
(18.4237 0.0732398 0)
(18.4421 0.072587 0)
(18.4602 0.0719824 0)
(18.4778 0.0714044 0)
(18.4951 0.0708326 0)
(18.512 0.0702527 0)
(18.5285 0.0696562 0)
(18.5446 0.0690403 0)
(18.5603 0.068406 0)
(18.5757 0.0677573 0)
(18.5907 0.0670995 0)
(18.6052 0.0664385 0)
(18.6194 0.065779 0)
(18.6332 0.0651252 0)
(18.6467 0.0644794 0)
(18.6598 0.0638446 0)
(18.6725 0.0632229 0)
(18.6849 0.0626169 0)
(18.6969 0.0620274 0)
(18.7086 0.0614548 0)
(18.72 0.0608977 0)
(18.731 0.0603564 0)
(18.7418 0.0598299 0)
(18.7522 0.0593195 0)
(18.7623 0.0588233 0)
(18.7721 0.0583409 0)
(18.7816 0.057869 0)
(18.7908 0.0574069 0)
(18.7997 0.056952 0)
(18.8083 0.0565054 0)
(18.8167 0.0560638 0)
(18.8248 0.0556272 0)
(18.8326 0.0551906 0)
(18.8402 0.054754 0)
(18.8475 0.0543143 0)
(18.8546 0.0538742 0)
(18.8614 0.0534313 0)
(18.868 0.0529885 0)
(18.8744 0.0525403 0)
(18.8805 0.0520911 0)
(18.8864 0.0516341 0)
(18.892 0.0511812 0)
(18.8974 0.0507196 0)
(18.9026 0.0502706 0)
(18.9076 0.0498028 0)
(18.9123 0.0493595 0)
(18.9168 0.0488745 0)
(18.9211 0.0484453 0)
(18.9252 0.0479306 0)
(18.929 0.0475384 0)
(18.9328 0.046965 0)
(18.9362 0.0466445 0)
(18.9397 0.0459432 0)
(18.9425 0.0457573 0)
(18.9458 0.0447962 0)
(18.948 0.0448566 0)
(18.9515 0.0433818 0)
(18.9526 0.0438102 0)
(18.9567 0.0412506 0)
(14.815 0.0150252 0)
(14.8346 0.0445673 0)
(14.8736 0.0725407 0)
(14.9314 0.0979267 0)
(15.0061 0.12013 0)
(15.0951 0.13893 0)
(15.1956 0.154249 0)
(15.3053 0.166084 0)
(15.4219 0.174561 0)
(15.543 0.179971 0)
(15.6668 0.182708 0)
(15.7914 0.183186 0)
(15.9155 0.18179 0)
(16.0379 0.178853 0)
(16.1575 0.174665 0)
(16.2736 0.169487 0)
(16.3855 0.163551 0)
(16.4928 0.157065 0)
(16.5953 0.150205 0)
(16.6927 0.143126 0)
(16.7851 0.135958 0)
(16.8725 0.128804 0)
(16.955 0.121754 0)
(17.0329 0.11489 0)
(17.1063 0.108279 0)
(17.1756 0.101986 0)
(17.2409 0.0960631 0)
(17.3027 0.0905466 0)
(17.3612 0.0854542 0)
(17.4167 0.0807862 0)
(17.4694 0.0765295 0)
(17.5196 0.0726637 0)
(17.5677 0.0691652 0)
(17.6137 0.0660096 0)
(17.6579 0.0631704 0)
(17.7005 0.0606197 0)
(17.7416 0.0583295 0)
(17.7814 0.0562735 0)
(17.82 0.054428 0)
(17.8576 0.0527718 0)
(17.8942 0.0512854 0)
(17.9299 0.049951 0)
(17.9648 0.0487516 0)
(17.9991 0.0476709 0)
(18.0327 0.0466928 0)
(18.0656 0.0458026 0)
(18.0981 0.0449877 0)
(18.13 0.0442394 0)
(18.1614 0.043553 0)
(18.1924 0.0429262 0)
(18.223 0.0423567 0)
(18.2531 0.04184 0)
(18.2829 0.0413691 0)
(18.3124 0.0409341 0)
(18.3415 0.0405251 0)
(18.3702 0.0401344 0)
(18.3987 0.0397592 0)
(18.4269 0.0394014 0)
(18.4547 0.0390664 0)
(18.4823 0.0387607 0)
(18.5095 0.0384891 0)
(18.5365 0.0382529 0)
(18.5632 0.0380483 0)
(18.5896 0.0378675 0)
(18.6159 0.0377006 0)
(18.6419 0.0375378 0)
(18.6677 0.0373705 0)
(18.6932 0.0371919 0)
(18.7186 0.0369968 0)
(18.7437 0.0367822 0)
(18.7686 0.0365473 0)
(18.7932 0.036294 0)
(18.8176 0.0360261 0)
(18.8418 0.0357486 0)
(18.8657 0.0354664 0)
(18.8894 0.0351839 0)
(18.9129 0.0349043 0)
(18.9361 0.0346305 0)
(18.9592 0.0343648 0)
(18.982 0.0341092 0)
(19.0046 0.033865 0)
(19.027 0.0336323 0)
(19.0492 0.0334105 0)
(19.0711 0.0331985 0)
(19.0929 0.0329956 0)
(19.1145 0.032801 0)
(19.1359 0.0326141 0)
(19.1571 0.0324336 0)
(19.1781 0.0322579 0)
(19.1989 0.032085 0)
(19.2195 0.0319135 0)
(19.24 0.0317421 0)
(19.2603 0.0315703 0)
(19.2804 0.0313975 0)
(19.3004 0.0312234 0)
(19.3202 0.0310469 0)
(19.3398 0.030868 0)
(19.3592 0.0306858 0)
(19.3785 0.030502 0)
(19.3977 0.0303155 0)
(19.4166 0.0301299 0)
(19.4354 0.0299415 0)
(19.4541 0.0297565 0)
(19.4725 0.0295657 0)
(19.4908 0.0293831 0)
(19.5089 0.0291878 0)
(19.5268 0.0290103 0)
(19.5446 0.0288046 0)
(19.562 0.0286364 0)
(19.5796 0.0284081 0)
(19.5965 0.0282575 0)
(19.6139 0.027983 0)
(19.63 0.027869 0)
(19.6477 0.0275046 0)
(19.6626 0.0274661 0)
(19.6812 0.0269283 0)
(19.6937 0.0270275 0)
(19.7149 0.0261412 0)
(19.7222 0.0264182 0)
(19.7498 0.0247712 0)
(14.815 0.00496332 0)
(14.8339 0.0147129 0)
(14.8715 0.0239485 0)
(14.9273 0.0323365 0)
(14.9997 0.0396713 0)
(15.0863 0.0458837 0)
(15.1845 0.0509656 0)
(15.2919 0.0549278 0)
(15.4062 0.0578159 0)
(15.5253 0.0597207 0)
(15.6473 0.0607655 0)
(15.7704 0.0610769 0)
(15.8932 0.060767 0)
(16.0143 0.0599302 0)
(16.1328 0.0586508 0)
(16.248 0.0570095 0)
(16.3591 0.0550826 0)
(16.4658 0.0529379 0)
(16.5676 0.0506374 0)
(16.6646 0.0482392 0)
(16.7566 0.0457987 0)
(16.8437 0.0433659 0)
(16.926 0.0409826 0)
(17.0036 0.038686 0)
(17.077 0.0365065 0)
(17.1462 0.0344742 0)
(17.2116 0.0326131 0)
(17.2734 0.0309371 0)
(17.3319 0.0294505 0)
(17.3875 0.0281514 0)
(17.4402 0.027031 0)
(17.4905 0.0260734 0)
(17.5385 0.0252587 0)
(17.5845 0.0245667 0)
(17.6286 0.0239788 0)
(17.6711 0.0234787 0)
(17.7121 0.0230511 0)
(17.7518 0.0226822 0)
(17.7904 0.0223605 0)
(17.8278 0.0220774 0)
(17.8643 0.0218271 0)
(17.8999 0.021605 0)
(17.9347 0.0214073 0)
(17.9688 0.0212299 0)
(18.0023 0.0210688 0)
(18.0352 0.0209202 0)
(18.0676 0.0207809 0)
(18.0994 0.0206492 0)
(18.1308 0.0205247 0)
(18.1617 0.0204076 0)
(18.1923 0.0202986 0)
(18.2224 0.0201977 0)
(18.2522 0.0201045 0)
(18.2817 0.0200175 0)
(18.3108 0.019935 0)
(18.3397 0.0198545 0)
(18.3682 0.0197742 0)
(18.3965 0.0196935 0)
(18.4244 0.0196137 0)
(18.4521 0.0195381 0)
(18.4795 0.0194716 0)
(18.5067 0.0194181 0)
(18.5336 0.0193793 0)
(18.5603 0.0193531 0)
(18.5868 0.0193338 0)
(18.6131 0.0193134 0)
(18.6392 0.0192836 0)
(18.665 0.0192375 0)
(18.6907 0.0191704 0)
(18.7162 0.0190799 0)
(18.7415 0.0189662 0)
(18.7665 0.0188317 0)
(18.7914 0.0186806 0)
(18.816 0.0185181 0)
(18.8405 0.0183493 0)
(18.8647 0.0181786 0)
(18.8888 0.0180093 0)
(18.9127 0.017844 0)
(18.9364 0.0176843 0)
(18.9599 0.017532 0)
(18.9832 0.0173881 0)
(19.0063 0.0172531 0)
(19.0293 0.0171265 0)
(19.0521 0.017007 0)
(19.0747 0.0168934 0)
(19.0972 0.0167845 0)
(19.1195 0.0166796 0)
(19.1416 0.0165777 0)
(19.1636 0.0164776 0)
(19.1854 0.0163776 0)
(19.2071 0.0162757 0)
(19.2286 0.016171 0)
(19.25 0.0160629 0)
(19.2713 0.0159519 0)
(19.2925 0.0158383 0)
(19.3135 0.0157223 0)
(19.3344 0.0156039 0)
(19.3551 0.0154829 0)
(19.3758 0.0153605 0)
(19.3963 0.0152382 0)
(19.4167 0.0151186 0)
(19.4369 0.015002 0)
(19.457 0.0148903 0)
(19.477 0.0147803 0)
(19.4968 0.0146752 0)
(19.5166 0.0145685 0)
(19.5361 0.0144688 0)
(19.5556 0.0143627 0)
(19.5747 0.0142683 0)
(19.5941 0.0141558 0)
(19.6127 0.014064 0)
(19.632 0.0139309 0)
(19.6499 0.0138416 0)
(19.6696 0.0136695 0)
(19.6862 0.0135955 0)
(19.7072 0.0133554 0)
(19.7211 0.0133231 0)
(19.7451 0.0129432 0)
(19.7531 0.0129768 0)
(19.7844 0.0122648 0)
(14.815 -0.00494092 0)
(14.8339 -0.014648 0)
(14.8715 -0.0238471 0)
(14.9273 -0.0322054 0)
(14.9997 -0.0395134 0)
(15.0863 -0.0456946 0)
(15.1845 -0.0507332 0)
(15.2919 -0.0546342 0)
(15.4062 -0.0574406 0)
(15.5253 -0.059245 0)
(15.6473 -0.0601699 0)
(15.7705 -0.0603415 0)
(15.8932 -0.0598759 0)
(16.0144 -0.0588731 0)
(16.1329 -0.0574191 0)
(16.2481 -0.0555944 0)
(16.3592 -0.0534784 0)
(16.4658 -0.0511457 0)
(16.5677 -0.0486614 0)
(16.6647 -0.0460843 0)
(16.7566 -0.0434663 0)
(16.8437 -0.0408606 0)
(16.926 -0.0383165 0)
(17.0037 -0.0358763 0)
(17.077 -0.033571 0)
(17.1462 -0.0314284 0)
(17.2116 -0.0294723 0)
(17.2734 -0.0277175 0)
(17.3319 -0.0261663 0)
(17.3874 -0.0248098 0)
(17.4402 -0.0236321 0)
(17.4904 -0.0226166 0)
(17.5384 -0.0217475 0)
(17.5844 -0.0210094 0)
(17.6285 -0.0203859 0)
(17.671 -0.0198605 0)
(17.712 -0.019418 0)
(17.7517 -0.0190459 0)
(17.7902 -0.0187334 0)
(17.8277 -0.0184706 0)
(17.8641 -0.0182473 0)
(17.8997 -0.0180543 0)
(17.9346 -0.017884 0)
(17.9687 -0.0177311 0)
(18.0022 -0.0175917 0)
(18.035 -0.0174629 0)
(18.0674 -0.0173419 0)
(18.0992 -0.0172265 0)
(18.1306 -0.0171142 0)
(18.1616 -0.0170026 0)
(18.1921 -0.016889 0)
(18.2223 -0.0167706 0)
(18.2521 -0.0166455 0)
(18.2815 -0.0165132 0)
(18.3107 -0.016375 0)
(18.3395 -0.016233 0)
(18.3681 -0.0160894 0)
(18.3963 -0.0159444 0)
(18.4243 -0.0157965 0)
(18.452 -0.0156419 0)
(18.4794 -0.0154767 0)
(18.5066 -0.0152978 0)
(18.5335 -0.0151047 0)
(18.5602 -0.0149004 0)
(18.5867 -0.0146904 0)
(18.613 -0.0144824 0)
(18.639 -0.0142837 0)
(18.6649 -0.0141004 0)
(18.6905 -0.013936 0)
(18.7159 -0.0137912 0)
(18.7412 -0.0136646 0)
(18.7662 -0.0135533 0)
(18.791 -0.0134541 0)
(18.8157 -0.0133635 0)
(18.8401 -0.0132783 0)
(18.8644 -0.0131949 0)
(18.8884 -0.01311 0)
(18.9123 -0.0130208 0)
(18.936 -0.0129251 0)
(18.9595 -0.0128225 0)
(18.9828 -0.012713 0)
(19.006 -0.0125968 0)
(19.0289 -0.0124745 0)
(19.0517 -0.0123464 0)
(19.0743 -0.0122136 0)
(19.0968 -0.012078 0)
(19.1191 -0.0119418 0)
(19.1412 -0.0118078 0)
(19.1632 -0.011678 0)
(19.185 -0.0115537 0)
(19.2067 -0.0114357 0)
(19.2282 -0.0113248 0)
(19.2496 -0.0112219 0)
(19.2708 -0.0111276 0)
(19.292 -0.0110419 0)
(19.313 -0.0109637 0)
(19.3338 -0.0108911 0)
(19.3546 -0.0108213 0)
(19.3752 -0.0107524 0)
(19.3957 -0.0106821 0)
(19.4161 -0.0106098 0)
(19.4364 -0.0105329 0)
(19.4565 -0.010452 0)
(19.4765 -0.0103626 0)
(19.4963 -0.0102686 0)
(19.516 -0.0101647 0)
(19.5355 -0.0100621 0)
(19.555 -0.00994994 0)
(19.5741 -0.00984983 0)
(19.5935 -0.00973671 0)
(19.6121 -0.00965107 0)
(19.6314 -0.00954004 0)
(19.6493 -0.00948173 0)
(19.669 -0.00936906 0)
(19.6856 -0.00935285 0)
(19.7065 -0.0092189 0)
(19.7204 -0.00925724 0)
(19.7445 -0.00904062 0)
(19.7525 -0.0091216 0)
(19.7838 -0.00865647 0)
(14.815 -0.0150014 0)
(14.8346 -0.0444958 0)
(14.8736 -0.0724287 0)
(14.9314 -0.0977846 0)
(15.0061 -0.119965 0)
(15.095 -0.138738 0)
(15.1956 -0.154021 0)
(15.3054 -0.165802 0)
(15.4219 -0.174207 0)
(15.5431 -0.179525 0)
(15.6669 -0.182148 0)
(15.7916 -0.182489 0)
(15.9157 -0.180931 0)
(16.0381 -0.177809 0)
(16.1577 -0.17342 0)
(16.2738 -0.168032 0)
(16.3857 -0.161886 0)
(16.493 -0.155191 0)
(16.5955 -0.148127 0)
(16.6929 -0.140856 0)
(16.7853 -0.133514 0)
(16.8726 -0.12621 0)
(16.9551 -0.119037 0)
(17.0329 -0.112075 0)
(17.1063 -0.105394 0)
(17.1756 -0.0990546 0)
(17.2409 -0.0931047 0)
(17.3027 -0.0875745 0)
(17.3611 -0.082476 0)
(17.4166 -0.0778064 0)
(17.4693 -0.0735521 0)
(17.5195 -0.0696928 0)
(17.5675 -0.0662046 0)
(17.6135 -0.063062 0)
(17.6577 -0.060238 0)
(17.7003 -0.0577053 0)
(17.7413 -0.0554371 0)
(17.7811 -0.053408 0)
(17.8197 -0.0515942 0)
(17.8573 -0.0499725 0)
(17.8938 -0.0485194 0)
(17.9296 -0.0472133 0)
(17.9645 -0.0460346 0)
(17.9987 -0.0449674 0)
(18.0323 -0.043998 0)
(18.0653 -0.043114 0)
(18.0977 -0.0423039 0)
(18.1296 -0.0415575 0)
(18.161 -0.040866 0)
(18.192 -0.040222 0)
(18.2226 -0.0396189 0)
(18.2528 -0.0390508 0)
(18.2826 -0.0385125 0)
(18.312 -0.0380003 0)
(18.3411 -0.0375118 0)
(18.3699 -0.0370453 0)
(18.3983 -0.036599 0)
(18.4265 -0.0361697 0)
(18.4544 -0.0357536 0)
(18.4819 -0.0353461 0)
(18.5092 -0.0349437 0)
(18.5362 -0.0345445 0)
(18.5629 -0.0341483 0)
(18.5894 -0.033757 0)
(18.6157 -0.0333735 0)
(18.6417 -0.0330022 0)
(18.6674 -0.0326473 0)
(18.6929 -0.0323128 0)
(18.7182 -0.0320008 0)
(18.7433 -0.0317118 0)
(18.7681 -0.0314444 0)
(18.7927 -0.0311961 0)
(18.8171 -0.0309639 0)
(18.8413 -0.0307449 0)
(18.8652 -0.0305357 0)
(18.8889 -0.0303328 0)
(18.9124 -0.0301324 0)
(18.9357 -0.0299313 0)
(18.9588 -0.0297272 0)
(18.9817 -0.029519 0)
(19.0043 -0.0293063 0)
(19.0268 -0.0290891 0)
(19.049 -0.0288678 0)
(19.0711 -0.0286432 0)
(19.0929 -0.028417 0)
(19.1145 -0.0281912 0)
(19.136 -0.0279683 0)
(19.1572 -0.0277507 0)
(19.1783 -0.0275404 0)
(19.1991 -0.0273387 0)
(19.2198 -0.0271472 0)
(19.2403 -0.0269666 0)
(19.2606 -0.0267976 0)
(19.2808 -0.0266398 0)
(19.3008 -0.0264924 0)
(19.3206 -0.0263533 0)
(19.3403 -0.0262204 0)
(19.3598 -0.02609 0)
(19.3792 -0.0259606 0)
(19.3984 -0.0258277 0)
(19.4175 -0.0256917 0)
(19.4364 -0.025546 0)
(19.4551 -0.0253955 0)
(19.4737 -0.0252291 0)
(19.492 -0.0250615 0)
(19.5102 -0.0248725 0)
(19.5282 -0.0246954 0)
(19.5461 -0.0244865 0)
(19.5637 -0.0243155 0)
(19.5813 -0.0240887 0)
(19.5983 -0.0239469 0)
(19.6158 -0.023696 0)
(19.6321 -0.0236156 0)
(19.6498 -0.0233118 0)
(19.6648 -0.0233349 0)
(19.6835 -0.0229047 0)
(19.6961 -0.0230809 0)
(19.7175 -0.0223582 0)
(19.7248 -0.0226929 0)
(19.7526 -0.0212746 0)
(14.8151 -0.0255556 0)
(14.8361 -0.0756461 0)
(14.878 -0.122838 0)
(14.9398 -0.165595 0)
(15.019 -0.203099 0)
(15.1128 -0.234934 0)
(15.2185 -0.26082 0)
(15.3335 -0.280663 0)
(15.4553 -0.294669 0)
(15.5815 -0.303332 0)
(15.71 -0.307298 0)
(15.8392 -0.30727 0)
(15.9674 -0.303913 0)
(16.0936 -0.297851 0)
(16.2166 -0.289677 0)
(16.3357 -0.279945 0)
(16.4502 -0.269149 0)
(16.5596 -0.257704 0)
(16.6637 -0.245947 0)
(16.7623 -0.234147 0)
(16.8554 -0.22251 0)
(16.9431 -0.211186 0)
(17.0255 -0.200284 0)
(17.1028 -0.189885 0)
(17.1753 -0.180049 0)
(17.2433 -0.170813 0)
(17.3071 -0.162195 0)
(17.367 -0.154194 0)
(17.4233 -0.1468 0)
(17.4764 -0.139994 0)
(17.5265 -0.133751 0)
(17.5739 -0.128043 0)
(17.6189 -0.122835 0)
(17.6616 -0.118095 0)
(17.7024 -0.113788 0)
(17.7414 -0.109877 0)
(17.7787 -0.10633 0)
(17.8145 -0.103117 0)
(17.849 -0.100209 0)
(17.8823 -0.097577 0)
(17.9145 -0.095188 0)
(17.9456 -0.0930112 0)
(17.9758 -0.0910197 0)
(18.0051 -0.0891904 0)
(18.0336 -0.0875037 0)
(18.0613 -0.0859419 0)
(18.0883 -0.0844885 0)
(18.1147 -0.0831283 0)
(18.1404 -0.0818474 0)
(18.1654 -0.0806345 0)
(18.1899 -0.0794798 0)
(18.2138 -0.0783749 0)
(18.2372 -0.0773131 0)
(18.26 -0.076289 0)
(18.2823 -0.0752989 0)
(18.3042 -0.0743396 0)
(18.3255 -0.073408 0)
(18.3464 -0.0725005 0)
(18.3668 -0.0716142 0)
(18.3868 -0.0707463 0)
(18.4063 -0.0698951 0)
(18.4253 -0.0690596 0)
(18.444 -0.0682397 0)
(18.4622 -0.0674355 0)
(18.48 -0.0666487 0)
(18.4975 -0.0658818 0)
(18.5145 -0.0651385 0)
(18.5311 -0.0644217 0)
(18.5474 -0.0637331 0)
(18.5633 -0.0630728 0)
(18.5788 -0.0624401 0)
(18.594 -0.0618329 0)
(18.6087 -0.0612488 0)
(18.6232 -0.0606839 0)
(18.6372 -0.060134 0)
(18.6509 -0.0595939 0)
(18.6643 -0.05906 0)
(18.6773 -0.058529 0)
(18.69 -0.0579995 0)
(18.7024 -0.0574696 0)
(18.7144 -0.0569385 0)
(18.726 -0.0564049 0)
(18.7374 -0.0558703 0)
(18.7484 -0.0553357 0)
(18.7592 -0.0548052 0)
(18.7696 -0.0542802 0)
(18.7797 -0.053764 0)
(18.7895 -0.0532573 0)
(18.799 -0.0527633 0)
(18.8082 -0.0522833 0)
(18.8172 -0.0518211 0)
(18.8258 -0.0513758 0)
(18.8342 -0.0509489 0)
(18.8424 -0.0505363 0)
(18.8503 -0.0501375 0)
(18.8579 -0.0497476 0)
(18.8653 -0.0493664 0)
(18.8725 -0.0489878 0)
(18.8794 -0.0486112 0)
(18.886 -0.0482271 0)
(18.8925 -0.0478362 0)
(18.8987 -0.0474282 0)
(18.9047 -0.0470124 0)
(18.9104 -0.0465748 0)
(18.9159 -0.0461379 0)
(18.9212 -0.0456712 0)
(18.9262 -0.0452225 0)
(18.9311 -0.0447272 0)
(18.9357 -0.0442885 0)
(18.9401 -0.0437677 0)
(18.9442 -0.0433785 0)
(18.9483 -0.0428232 0)
(18.9519 -0.0425356 0)
(18.9557 -0.0418944 0)
(18.9588 -0.0417749 0)
(18.9625 -0.0409242 0)
(18.9649 -0.0410692 0)
(18.9686 -0.0397631 0)
(18.9699 -0.0402582 0)
(18.9744 -0.0379385 0)
(14.8152 -0.0372374 0)
(14.8388 -0.108972 0)
(14.8858 -0.175301 0)
(14.9551 -0.235143 0)
(15.044 -0.288123 0)
(15.1497 -0.333639 0)
(15.2687 -0.371035 0)
(15.3977 -0.400064 0)
(15.5326 -0.421 0)
(15.6699 -0.434416 0)
(15.8064 -0.440988 0)
(15.9396 -0.441519 0)
(16.0675 -0.436771 0)
(16.1888 -0.427515 0)
(16.3024 -0.414583 0)
(16.4076 -0.398821 0)
(16.5041 -0.381025 0)
(16.592 -0.361906 0)
(16.6715 -0.342075 0)
(16.7428 -0.32205 0)
(16.8064 -0.302253 0)
(16.8628 -0.28303 0)
(16.9125 -0.264646 0)
(16.956 -0.24729 0)
(16.9939 -0.231083 0)
(17.0266 -0.216089 0)
(17.0546 -0.202329 0)
(17.0785 -0.189786 0)
(17.0985 -0.178421 0)
(17.1152 -0.168173 0)
(17.1288 -0.158971 0)
(17.1396 -0.150735 0)
(17.148 -0.143381 0)
(17.1542 -0.136825 0)
(17.1584 -0.130981 0)
(17.1609 -0.125769 0)
(17.1617 -0.121111 0)
(17.161 -0.116944 0)
(17.159 -0.113216 0)
(17.1558 -0.109877 0)
(17.1515 -0.106872 0)
(17.1462 -0.104154 0)
(17.14 -0.10168 0)
(17.133 -0.099413 0)
(17.1251 -0.0973232 0)
(17.1165 -0.0953835 0)
(17.1073 -0.0935718 0)
(17.0974 -0.091869 0)
(17.0869 -0.0902582 0)
(17.0759 -0.0887242 0)
(17.0643 -0.0872535 0)
(17.0523 -0.085835 0)
(17.0398 -0.0844594 0)
(17.0269 -0.083119 0)
(17.0136 -0.0818077 0)
(16.9999 -0.0805208 0)
(16.9859 -0.0792543 0)
(16.9715 -0.0780053 0)
(16.9569 -0.0767711 0)
(16.9419 -0.0755496 0)
(16.9267 -0.0743394 0)
(16.9113 -0.0731404 0)
(16.8956 -0.0719538 0)
(16.8797 -0.0707818 0)
(16.8636 -0.069626 0)
(16.8474 -0.068489 0)
(16.831 -0.0673742 0)
(16.8144 -0.0662848 0)
(16.7978 -0.0652229 0)
(16.781 -0.0641889 0)
(16.764 -0.0631819 0)
(16.747 -0.0621996 0)
(16.7299 -0.0612391 0)
(16.7127 -0.0602969 0)
(16.6954 -0.0593691 0)
(16.678 -0.0584519 0)
(16.6606 -0.0575416 0)
(16.6431 -0.0566352 0)
(16.6255 -0.0557308 0)
(16.6079 -0.0548273 0)
(16.5903 -0.0539246 0)
(16.5726 -0.053023 0)
(16.555 -0.0521237 0)
(16.5373 -0.0512289 0)
(16.5196 -0.0503414 0)
(16.5019 -0.049465 0)
(16.4842 -0.048603 0)
(16.4666 -0.0477588 0)
(16.4489 -0.0469353 0)
(16.4314 -0.0461355 0)
(16.4138 -0.0453618 0)
(16.3963 -0.0446159 0)
(16.3788 -0.0438988 0)
(16.3614 -0.0432093 0)
(16.344 -0.0425461 0)
(16.3267 -0.0419055 0)
(16.3094 -0.0412844 0)
(16.2923 -0.0406769 0)
(16.2751 -0.0400795 0)
(16.2581 -0.0394853 0)
(16.2412 -0.038892 0)
(16.2244 -0.0382916 0)
(16.2076 -0.0376864 0)
(16.191 -0.0370675 0)
(16.1744 -0.0364459 0)
(16.158 -0.0358073 0)
(16.1417 -0.0351778 0)
(16.1255 -0.0345265 0)
(16.1095 -0.0339095 0)
(16.0935 -0.0332555 0)
(16.0779 -0.0326825 0)
(16.062 -0.0320274 0)
(16.0469 -0.0315385 0)
(16.0308 -0.0308554 0)
(16.0166 -0.0304991 0)
(15.9998 -0.0296973 0)
(15.9876 -0.0295364 0)
(15.9684 -0.0283997 0)
(15.9609 -0.0285181 0)
(15.9357 -0.0265602 0)
(14.8168 -0.0599399 0)
(14.8628 -0.167265 0)
(14.943 -0.260937 0)
(15.0449 -0.343578 0)
(15.1555 -0.415665 0)
(15.2635 -0.475658 0)
(15.3597 -0.522525 0)
(15.4375 -0.556483 0)
(15.4934 -0.578747 0)
(15.5259 -0.590677 0)
(15.5362 -0.593647 0)
(15.5254 -0.589066 0)
(15.4961 -0.578143 0)
(15.4509 -0.562018 0)
(15.3922 -0.541814 0)
(15.3223 -0.518563 0)
(15.2435 -0.493177 0)
(15.1579 -0.466428 0)
(15.0672 -0.438976 0)
(14.9729 -0.411384 0)
(14.8763 -0.384106 0)
(14.7785 -0.357534 0)
(14.6803 -0.33196 0)
(14.5824 -0.307592 0)
(14.4853 -0.284584 0)
(14.3895 -0.263023 0)
(14.2951 -0.242952 0)
(14.2025 -0.224373 0)
(14.1118 -0.207259 0)
(14.0231 -0.191561 0)
(13.9364 -0.17721 0)
(13.8517 -0.164127 0)
(13.7691 -0.152229 0)
(13.6885 -0.141427 0)
(13.6098 -0.131632 0)
(13.5331 -0.122758 0)
(13.4582 -0.114721 0)
(13.3852 -0.107434 0)
(13.3139 -0.10081 0)
(13.2442 -0.0947772 0)
(13.1763 -0.089276 0)
(13.1099 -0.0842555 0)
(13.0451 -0.0796686 0)
(12.9818 -0.0754708 0)
(12.92 -0.0716234 0)
(12.8596 -0.0680895 0)
(12.8006 -0.0648373 0)
(12.743 -0.0618403 0)
(12.6866 -0.0590742 0)
(12.6315 -0.056516 0)
(12.5777 -0.0541441 0)
(12.5251 -0.0519392 0)
(12.4737 -0.0498841 0)
(12.4235 -0.0479636 0)
(12.3745 -0.0461646 0)
(12.3265 -0.0444754 0)
(12.2797 -0.0428854 0)
(12.2339 -0.0413851 0)
(12.1892 -0.0399658 0)
(12.1455 -0.0386193 0)
(12.1028 -0.0373386 0)
(12.0611 -0.0361178 0)
(12.0204 -0.0349528 0)
(11.9806 -0.0338419 0)
(11.9418 -0.0327858 0)
(11.9038 -0.0317855 0)
(11.8668 -0.0308409 0)
(11.8305 -0.0299507 0)
(11.7951 -0.029112 0)
(11.7605 -0.028321 0)
(11.7266 -0.0275734 0)
(11.6935 -0.0268645 0)
(11.6611 -0.0261895 0)
(11.6294 -0.0255432 0)
(11.5983 -0.024921 0)
(11.5679 -0.0243184 0)
(11.5381 -0.023732 0)
(11.509 -0.023159 0)
(11.4804 -0.0225978 0)
(11.4524 -0.0220475 0)
(11.425 -0.0215079 0)
(11.3982 -0.0209793 0)
(11.3719 -0.0204631 0)
(11.3462 -0.0199605 0)
(11.321 -0.0194737 0)
(11.2964 -0.0190041 0)
(11.2722 -0.0185536 0)
(11.2486 -0.0181233 0)
(11.2255 -0.0177142 0)
(11.2028 -0.0173268 0)
(11.1805 -0.0169617 0)
(11.1587 -0.016618 0)
(11.1373 -0.0162948 0)
(11.1163 -0.01599 0)
(11.0957 -0.0157016 0)
(11.0754 -0.0154271 0)
(11.0555 -0.0151638 0)
(11.036 -0.0149091 0)
(11.0167 -0.0146599 0)
(10.9978 -0.014414 0)
(10.9792 -0.0141685 0)
(10.9609 -0.0139236 0)
(10.9429 -0.013677 0)
(10.9253 -0.0134314 0)
(10.9079 -0.0131834 0)
(10.8909 -0.0129398 0)
(10.8743 -0.0126939 0)
(10.8579 -0.0124604 0)
(10.8419 -0.0122233 0)
(10.8262 -0.0120114 0)
(10.8109 -0.0117863 0)
(10.7956 -0.0116051 0)
(10.7812 -0.0113836 0)
(10.7661 -0.0112384 0)
(10.7527 -0.0109939 0)
(10.7373 -0.0108817 0)
(10.7259 -0.0105582 0)
(10.7086 -0.0104516 0)
(10.7018 -0.010011 0)
(10.6792 -0.00988646 0)
(14.7897 -0.0430828 0)
(14.6679 -0.163431 0)
(14.4254 -0.274754 0)
(14.0764 -0.363805 0)
(13.648 -0.428077 0)