/*--------------------------------*- C++ -*----------------------------------*\
  =========                 |
  \\      /  F ield         | OpenFOAM: The Open Source CFD Toolbox
   \\    /   O peration     | Website:  https://openfoam.org
    \\  /    A nd           | Version:  7
     \\/     M anipulation  |
\*---------------------------------------------------------------------------*/
FoamFile
{
    version     2.0;
    format      ascii;
    class       volVectorField;
    location    "3.3";
    object      U_0;
}
// * * * * * * * * * * * * * * * * * * * * * * * * * * * * * * * * * * * * * //

dimensions      [0 1 -1 0 0 0 0];

internalField   nonuniform List<vector> 
3000
(
(4.48279 0.0426827 0)
(4.37275 0.123767 0)
(4.15933 0.176793 0)
(3.8822 0.198199 0)
(3.58168 0.194813 0)
(3.28016 0.174075 0)
(2.99751 0.145215 0)
(2.73904 0.115273 0)
(2.51189 0.0868885 0)
(2.3177 0.0623859 0)
(2.15456 0.0424973 0)
(2.01949 0.0269899 0)
(1.9089 0.0152847 0)
(1.81922 0.00671558 0)
(1.74692 0.000665362 0)
(1.68872 -0.00340015 0)
(1.64181 -0.00594163 0)
(1.6038 -0.00733788 0)
(1.57281 -0.0078959 0)
(1.54717 -0.00792432 0)
(1.52563 -0.00762989 0)
(1.50723 -0.00714708 0)
(1.49122 -0.00657276 0)
(1.47705 -0.00596703 0)
(1.46425 -0.0053297 0)
(1.45257 -0.0046402 0)
(1.44174 -0.00391605 0)
(1.4316 -0.00322871 0)
(1.42199 -0.00259164 0)
(1.41283 -0.002002 0)
(1.40404 -0.00144009 0)
(1.39559 -0.000910569 0)
(1.38744 -0.000430705 0)
(1.37955 2.69436e-06 0)
(1.37191 0.000395296 0)
(1.3645 0.000750008 0)
(1.35729 0.00106585 0)
(1.35028 0.00135002 0)
(1.34348 0.00159631 0)
(1.33679 0.00182431 0)
(1.3304 0.00201378 0)
(1.32391 0.00219749 0)
(1.31807 0.00232811 0)
(1.3114 0.00250943 0)
(1.30659 0.00250676 0)
(1.29889 0.00291416 0)
(1.29624 0.00169671 0)
(1.28785 0.00411017 0)
(1.28703 -0.00973174 0)
(1.309 0.0114188 0)
(4.50218 0.0571865 0)
(4.53889 0.123853 0)
(4.59731 0.174932 0)
(4.65655 0.213233 0)
(4.70094 0.237867 0)
(4.72189 0.248528 0)
(4.7197 0.247402 0)
(4.69664 0.237592 0)
(4.65783 0.221701 0)
(4.60822 0.202152 0)
(4.55193 0.181119 0)
(4.49217 0.160282 0)
(4.43144 0.14074 0)
(4.37142 0.123115 0)
(4.31317 0.107642 0)
(4.25728 0.0943428 0)
(4.20403 0.0830943 0)
(4.15348 0.0736702 0)
(4.10559 0.0658247 0)
(4.06019 0.0593049 0)
(4.01711 0.0538903 0)
(3.97623 0.0493972 0)
(3.93738 0.0456744 0)
(3.90047 0.0425905 0)
(3.86534 0.0400024 0)
(3.83192 0.0377835 0)
(3.80005 0.0358693 0)
(3.76963 0.0341677 0)
(3.74058 0.0326306 0)
(3.71285 0.0312286 0)
(3.68635 0.0299566 0)
(3.66102 0.0287939 0)
(3.63679 0.0277121 0)
(3.6136 0.0266999 0)
(3.5914 0.0257481 0)
(3.57014 0.0248528 0)
(3.54978 0.0240077 0)
(3.5302 0.0232137 0)
(3.5115 0.0224538 0)
(3.4934 0.0217574 0)
(3.4762 0.0210557 0)
(3.45937 0.0204828 0)
(3.44353 0.0197581 0)
(3.42781 0.0194407 0)
(3.41299 0.0183914 0)
(3.39865 0.0188136 0)
(3.38327 0.0162801 0)
(3.37259 0.0190603 0)
(3.34835 0.0104384 0)
(3.3528 0.0198646 0)
(4.50128 0.0449586 0)
(4.52461 0.0866197 0)
(4.56926 0.124331 0)
(4.63146 0.154999 0)
(4.70544 0.176741 0)
(4.78444 0.188851 0)
(4.86218 0.19186 0)
(4.93402 0.187615 0)
(4.99742 0.178152 0)
(5.05135 0.165493 0)
(5.09576 0.151446 0)
(5.1312 0.137397 0)
(5.15865 0.124232 0)
(5.17922 0.112414 0)
(5.19407 0.102119 0)
(5.20422 0.0933635 0)
(5.21057 0.0860437 0)
(5.21385 0.0799904 0)
(5.21469 0.0749998 0)
(5.21355 0.0708798 0)
(5.21082 0.0674556 0)
(5.20679 0.0645753 0)
(5.20168 0.0621142 0)
(5.19565 0.0599945 0)
(5.18881 0.0581386 0)
(5.1813 0.0564446 0)
(5.1732 0.054889 0)
(5.16459 0.0534497 0)
(5.15555 0.0520977 0)
(5.14613 0.0508083 0)
(5.13639 0.0495639 0)
(5.12635 0.0483591 0)
(5.11608 0.0471886 0)
(5.10558 0.0460528 0)
(5.09491 0.0449383 0)
(5.08406 0.0438606 0)
(5.0731 0.0427945 0)
(5.06202 0.0417843 0)
(5.05084 0.0407498 0)
(5.03964 0.0398268 0)
(5.02826 0.0387989 0)
(5.01711 0.0380169 0)
(5.00541 0.036882 0)
(4.99463 0.0363988 0)
(4.9821 0.0349102 0)
(4.97263 0.0351055 0)
(4.95759 0.0326581 0)
(4.95185 0.0346325 0)
(4.92928 0.0305813 0)
(4.93366 0.0379999 0)
(4.50098 0.0490346 0)
(4.5198 0.0822831 0)
(4.55672 0.109872 0)
(4.60946 0.130809 0)
(4.6737 0.144867 0)
(4.74486 0.152475 0)
(4.8189 0.154564 0)
(4.89259 0.152503 0)
(4.96345 0.147559 0)
(5.02973 0.140711 0)
(5.09033 0.132726 0)
(5.14477 0.124275 0)
(5.19313 0.115897 0)
(5.23585 0.107993 0)
(5.27359 0.10078 0)
(5.30705 0.0943855 0)
(5.33688 0.0888257 0)
(5.36369 0.0840666 0)
(5.38797 0.0800275 0)
(5.41017 0.0766017 0)
(5.43063 0.0736819 0)
(5.44963 0.0711863 0)
(5.46742 0.0690475 0)
(5.48418 0.0671685 0)
(5.5 0.0654788 0)
(5.51501 0.0639654 0)
(5.52929 0.0625641 0)
(5.54288 0.0612621 0)
(5.55581 0.0600374 0)
(5.56814 0.0588818 0)
(5.5799 0.0577712 0)
(5.5911 0.0566995 0)
(5.60176 0.0556618 0)
(5.61192 0.0546646 0)
(5.62158 0.0536876 0)
(5.63077 0.0527509 0)
(5.63947 0.0518287 0)
(5.64773 0.0509523 0)
(5.6555 0.0500532 0)
(5.66292 0.0492307 0)
(5.66978 0.0483405 0)
(5.67641 0.0476175 0)
(5.68233 0.046744 0)
(5.68835 0.046152 0)
(5.69319 0.0452072 0)
(5.69882 0.0447896 0)
(5.70221 0.0439276 0)
(5.7079 0.0438467 0)
(5.70903 0.0442943 0)
(5.71627 0.0454749 0)
(4.50088 0.0448478 0)
(4.51859 0.0618227 0)
(4.55358 0.0767043 0)
(4.60338 0.0886478 0)
(4.66397 0.0970695 0)
(4.7312 0.101959 0)
(4.80135 0.103611 0)
(4.87138 0.102548 0)
(4.939 0.0993832 0)
(5.00267 0.0947189 0)
(5.06149 0.0891447 0)
(5.11512 0.0832233 0)
(5.16358 0.0774198 0)
(5.20716 0.0720358 0)
(5.24632 0.0672412 0)
(5.28162 0.0630646 0)
(5.3136 0.0595235 0)
(5.34278 0.0565597 0)
(5.36964 0.0541048 0)
(5.39459 0.0520908 0)
(5.41801 0.0504372 0)
(5.44018 0.0490935 0)
(5.46132 0.0480251 0)
(5.48156 0.0471284 0)
(5.50105 0.0463504 0)
(5.5199 0.0457033 0)
(5.53818 0.0451097 0)
(5.55599 0.0445453 0)
(5.57337 0.0440068 0)
(5.59035 0.0434847 0)
(5.60696 0.0429713 0)
(5.62322 0.0424634 0)
(5.63917 0.0419524 0)
(5.65479 0.0414365 0)
(5.67012 0.0409172 0)
(5.68516 0.0404128 0)
(5.6999 0.0399075 0)
(5.71434 0.0394072 0)
(5.72853 0.0388939 0)
(5.74243 0.0384005 0)
(5.75611 0.0378733 0)
(5.76947 0.0374167 0)
(5.78267 0.0369274 0)
(5.7954 0.0364789 0)
(5.80819 0.0360827 0)
(5.82032 0.0356505 0)
(5.83294 0.0355714 0)
(5.84445 0.035143 0)
(5.8579 0.0365843 0)
(5.86975 0.0365737 0)
(4.50087 0.0422712 0)
(4.51781 0.0494059 0)
(4.55109 0.0552908 0)
(4.59886 0.0597585 0)
(4.65755 0.062808 0)
(4.72299 0.0645469 0)
(4.79154 0.0650837 0)
(4.86031 0.0646307 0)
(4.92707 0.0634927 0)
(4.99024 0.0619856 0)
(5.04882 0.0603842 0)
(5.10233 0.05884 0)
(5.15071 0.0574468 0)
(5.1942 0.0561752 0)
(5.23326 0.0550136 0)
(5.26844 0.0539155 0)
(5.30031 0.0529031 0)
(5.32939 0.05196 0)
(5.35615 0.0510767 0)
(5.38101 0.050237 0)
(5.40432 0.0494452 0)
(5.4264 0.0486506 0)
(5.44743 0.0478697 0)
(5.46758 0.0470846 0)
(5.48703 0.0462968 0)
(5.50588 0.045491 0)
(5.52419 0.044704 0)
(5.54204 0.0439423 0)
(5.55948 0.0432016 0)
(5.57654 0.0424804 0)
(5.59327 0.0417781 0)
(5.60968 0.0410972 0)
(5.62578 0.0404252 0)
(5.6416 0.0397598 0)
(5.65716 0.0390889 0)
(5.67246 0.0384422 0)
(5.68751 0.0378137 0)
(5.70227 0.0372215 0)
(5.71685 0.0366207 0)
(5.73113 0.036041 0)
(5.7453 0.0354637 0)
(5.75909 0.0349376 0)
(5.77288 0.0343698 0)
(5.78617 0.0338902 0)
(5.79973 0.0334014 0)
(5.81239 0.0330413 0)
(5.82602 0.0326187 0)
(5.83813 0.032406 0)
(5.85299 0.0322214 0)
(5.86563 0.0322016 0)
(4.50085 0.0351792 0)
(4.51777 0.0284927 0)
(4.55104 0.0223895 0)
(4.5988 0.0177794 0)
(4.65748 0.0145387 0)
(4.72292 0.0125948 0)
(4.79148 0.0118477 0)
(4.86024 0.0120794 0)
(4.92697 0.0129629 0)
(4.99012 0.0141629 0)
(5.04868 0.0154179 0)
(5.10219 0.0165883 0)
(5.15058 0.0175832 0)
(5.19406 0.0184386 0)
(5.2331 0.019167 0)
(5.26827 0.0198081 0)
(5.30013 0.0203305 0)
(5.32921 0.0207699 0)
(5.35596 0.0211326 0)
(5.38081 0.0214385 0)
(5.40412 0.0216892 0)
(5.42618 0.0219138 0)
(5.44722 0.0220245 0)
(5.46737 0.0221748 0)
(5.48679 0.022299 0)
(5.5056 0.022371 0)
(5.52391 0.0224087 0)
(5.54175 0.0224165 0)
(5.55919 0.0223883 0)
(5.57626 0.0223388 0)
(5.59299 0.0222682 0)
(5.60939 0.0221725 0)
(5.6255 0.0220611 0)
(5.6413 0.0219341 0)
(5.65686 0.0217949 0)
(5.67216 0.0216165 0)
(5.68722 0.0213851 0)
(5.70198 0.0211714 0)
(5.71655 0.0209527 0)
(5.73083 0.0207573 0)
(5.74502 0.0205228 0)
(5.75883 0.0203201 0)
(5.77264 0.0200684 0)
(5.78591 0.0199824 0)
(5.79949 0.0196951 0)
(5.81216 0.0197678 0)
(5.8258 0.019261 0)
(5.83789 0.0195711 0)
(5.85275 0.0183606 0)
(5.86527 0.0190067 0)
(4.50088 0.0272727 0)
(4.51855 0.0107408 0)
(4.55344 -0.00435315 0)
(4.60319 -0.0164148 0)
(4.66377 -0.0250007 0)
(4.73099 -0.0300763 0)
(4.80111 -0.0319405 0)
(4.87112 -0.031115 0)
(4.9387 -0.02821 0)
(5.00233 -0.0238226 0)
(5.06112 -0.0185557 0)
(5.11471 -0.0129591 0)
(5.16313 -0.00752464 0)
(5.2067 -0.00253161 0)
(5.24586 0.0018617 0)
(5.28113 0.00561149 0)
(5.31308 0.00869134 0)
(5.34225 0.0111837 0)
(5.3691 0.0131476 0)
(5.39404 0.0146617 0)
(5.41743 0.0157863 0)
(5.43953 0.0165919 0)
(5.4606 0.0170885 0)
(5.48085 0.0173222 0)
(5.50031 0.0174245 0)
(5.51914 0.0174401 0)
(5.53742 0.0173798 0)
(5.55521 0.0172657 0)
(5.57257 0.0171197 0)
(5.58954 0.0169423 0)
(5.60615 0.016744 0)
(5.62242 0.0165299 0)
(5.63836 0.016303 0)
(5.65399 0.0160758 0)
(5.66929 0.0158558 0)
(5.68428 0.01561 0)
(5.69901 0.0153336 0)
(5.71348 0.0150441 0)
(5.72769 0.014777 0)
(5.74161 0.0145399 0)
(5.7553 0.0142973 0)
(5.76868 0.0140968 0)
(5.78195 0.0138358 0)
(5.7948 0.0137585 0)
(5.80768 0.0134327 0)
(5.81985 0.0136244 0)
(5.83254 0.0128726 0)
(5.84408 0.0135294 0)
(5.85748 0.0107312 0)
(5.86914 0.0116276 0)
(4.50096 0.0131078 0)
(4.5197 -0.019924 0)
(4.5565 -0.0477495 0)
(4.60918 -0.0687761 0)
(4.67339 -0.0829588 0)
(4.74452 -0.0907209 0)
(4.81852 -0.0929923 0)
(4.89216 -0.0911377 0)
(4.96297 -0.0864204 0)
(5.0292 -0.0798212 0)
(5.08974 -0.0721086 0)
(5.14414 -0.0639596 0)
(5.19245 -0.0558825 0)
(5.23514 -0.0482995 0)
(5.27285 -0.0414393 0)
(5.30626 -0.0354202 0)
(5.33606 -0.0302431 0)
(5.36285 -0.0258934 0)
(5.38709 -0.0222803 0)
(5.40926 -0.0193158 0)
(5.42967 -0.016871 0)
(5.44864 -0.014885 0)
(5.46636 -0.0131873 0)
(5.48305 -0.0118356 0)
(5.49886 -0.0106923 0)
(5.51385 -0.00971646 0)
(5.52809 -0.0088842 0)
(5.54166 -0.00816542 0)
(5.55458 -0.00753025 0)
(5.5669 -0.00697517 0)
(5.57864 -0.0064835 0)
(5.58984 -0.00604905 0)
(5.6005 -0.00566418 0)
(5.61067 -0.00531963 0)
(5.6203 -0.00501179 0)
(5.62949 -0.00473165 0)
(5.63817 -0.00444534 0)
(5.64649 -0.00419992 0)
(5.65429 -0.00395181 0)
(5.66183 -0.00374879 0)
(5.66874 -0.00351024 0)
(5.6756 -0.00331244 0)
(5.68158 -0.00304437 0)
(5.68795 -0.00283746 0)
(5.69285 -0.0025528 0)
(5.69905 -0.00222593 0)
(5.70241 -0.0020971 0)
(5.70891 -0.00149997 0)
(5.7097 -0.00321652 0)
(5.71784 -0.00285421 0)
(4.50116 0.00281969 0)
(4.52436 -0.0387999 0)
(4.56896 -0.0766708 0)
(4.63111 -0.107386 0)
(4.70504 -0.129211 0)
(4.78399 -0.141435 0)
(4.86167 -0.144588 0)
(4.93346 -0.140512 0)
(4.9968 -0.131233 0)
(5.05066 -0.11877 0)
(5.09501 -0.104932 0)
(5.13039 -0.0911058 0)
(5.15779 -0.0781745 0)
(5.17832 -0.0666055 0)
(5.19313 -0.0565838 0)
(5.20324 -0.0481143 0)
(5.20954 -0.0410867 0)
(5.21278 -0.0353467 0)
(5.21357 -0.0306886 0)
(5.21239 -0.0269152 0)
(5.2096 -0.0238636 0)
(5.20551 -0.021367 0)
(5.20034 -0.019317 0)
(5.19425 -0.0175751 0)
(5.18739 -0.0161214 0)
(5.17984 -0.0148479 0)
(5.1717 -0.0137392 0)
(5.16307 -0.0127514 0)
(5.15402 -0.0118483 0)
(5.14459 -0.0110222 0)
(5.13484 -0.0102545 0)
(5.1248 -0.00953865 0)
(5.11453 -0.00886434 0)
(5.10405 -0.00823345 0)
(5.09339 -0.00763075 0)
(5.0826 -0.00705066 0)
(5.07168 -0.0064766 0)
(5.06075 -0.00592517 0)
(5.04963 -0.00537006 0)
(5.03871 -0.00487593 0)
(5.0274 -0.00433081 0)
(5.01675 -0.00392517 0)
(5.00509 -0.00330361 0)
(4.99523 -0.00304108 0)
(4.9826 -0.00212399 0)
(4.97469 -0.0021932 0)
(4.95923 -0.000477765 0)
(4.95599 -0.00149981 0)
(4.93217 0.00135559 0)
(4.93992 -0.00322156 0)
(4.50198 -0.0272795 0)
(4.53859 -0.0938307 0)
(4.597 -0.144979 0)
(4.65618 -0.183298 0)
(4.7005 -0.207977 0)
(4.72138 -0.218709 0)
(4.71913 -0.217679 0)
(4.69601 -0.207983 0)
(4.65714 -0.192213 0)
(4.60746 -0.17279 0)
(4.5511 -0.15189 0)
(4.49128 -0.13119 0)
(4.43049 -0.111792 0)
(4.37042 -0.0943188 0)
(4.31211 -0.0790122 0)
(4.25617 -0.0658931 0)
(4.20286 -0.0548334 0)
(4.15226 -0.0456077 0)
(4.10431 -0.0379716 0)
(4.05885 -0.0316762 0)
(4.01572 -0.0264978 0)
(3.97477 -0.0222517 0)
(3.93586 -0.0187817 0)
(3.89888 -0.015933 0)
(3.86372 -0.0135747 0)
(3.83025 -0.011636 0)
(3.79833 -0.00996522 0)
(3.76791 -0.00853077 0)
(3.73885 -0.00730754 0)
(3.71111 -0.00622061 0)
(3.6846 -0.00525321 0)
(3.65927 -0.00438689 0)
(3.63505 -0.00361263 0)
(3.61189 -0.00291512 0)
(3.58974 -0.00228703 0)
(3.56856 -0.001705 0)
(3.54828 -0.00117363 0)
(3.5289 -0.000672187 0)
(3.51031 -0.000223259 0)
(3.49257 0.000204345 0)
(3.47548 0.000583733 0)
(3.4593 0.000930438 0)
(3.44351 0.00129968 0)
(3.42902 0.00150821 0)
(3.414 0.00210388 0)
(3.40192 0.00187903 0)
(3.38566 0.00368484 0)
(3.37912 0.00201832 0)
(3.35279 0.00945393 0)
(3.36323 0.00404587 0)
(4.48265 -0.03252 0)
(4.37247 -0.113519 0)
(4.15903 -0.166572 0)
(3.88183 -0.187983 0)
(3.58123 -0.184614 0)
(3.27963 -0.1639 0)
(2.9969 -0.135075 0)
(2.73836 -0.105172 0)
(2.51113 -0.07683 0)
(2.31687 -0.0523708 0)
(2.15366 -0.0325278 0)
(2.01852 -0.0170677 0)
(1.90787 -0.00541112 0)
(1.81813 0.00310657 0)
(1.74576 0.00910036 0)
(1.6875 0.0131055 0)
(1.64052 0.0155829 0)
(1.60246 0.01691 0)
(1.5714 0.0173955 0)
(1.5457 0.0173474 0)
(1.52409 0.0169716 0)
(1.50562 0.0164046 0)
(1.48956 0.0157458 0)
(1.47534 0.0150622 0)
(1.46248 0.0143685 0)
(1.45076 0.0135637 0)
(1.4399 0.012782 0)
(1.42969 0.0120105 0)
(1.42004 0.0112379 0)
(1.41088 0.0105205 0)
(1.4021 0.00985121 0)
(1.39365 0.00922948 0)
(1.3855 0.00864942 0)
(1.37764 0.00810769 0)
(1.37003 0.00760451 0)
(1.36268 0.00713963 0)
(1.35555 0.00671304 0)
(1.34869 0.00632382 0)
(1.34201 0.00596443 0)
(1.33558 0.00563603 0)
(1.32936 0.00532928 0)
(1.32331 0.00505344 0)
(1.31768 0.00479021 0)
(1.31182 0.0045413 0)
(1.3072 0.00437617 0)
(1.30097 0.00396963 0)
(1.29834 0.0050167 0)
(1.2926 0.00299293 0)
(1.29155 0.0165328 0)
(1.31446 -0.00190966 0)
(1.23261 0.011784 0)
(1.25009 0.00616055 0)
(1.2336 0.00453495 0)
(1.21342 0.00253141 0)
(1.20072 0.00162213 0)
(1.19036 0.0014023 0)
(1.18081 0.00139683 0)
(1.17192 0.00143984 0)
(1.16395 0.00140943 0)
(1.1569 0.00124191 0)
(1.15065 0.00105948 0)
(1.14512 0.000953192 0)
(1.14022 0.000786315 0)
(1.13589 0.00064813 0)
(1.13209 0.000536391 0)
(1.12874 0.000443581 0)
(1.1258 0.000367454 0)
(1.12328 0.000313171 0)
(1.12113 0.000261012 0)
(1.11931 0.000210848 0)
(1.11776 0.000165005 0)
(1.11648 0.000138151 0)
(1.11543 0.000111124 0)
(1.11463 8.36228e-05 0)
(1.11406 7.38374e-05 0)
(1.11369 6.16344e-05 0)
(1.11344 4.79063e-05 0)
(1.11333 3.83725e-05 0)
(1.11334 3.30125e-05 0)
(1.11347 3.2326e-05 0)
(1.11372 2.97795e-05 0)
(1.11405 2.57013e-05 0)
(1.11442 2.0501e-05 0)
(1.11485 1.58008e-05 0)
(1.11531 1.50506e-05 0)
(1.11583 1.75457e-05 0)
(1.1164 1.83767e-05 0)
(1.11699 1.76693e-05 0)
(1.11758 1.53549e-05 0)
(1.11819 1.3872e-05 0)
(1.11882 1.38352e-05 0)
(1.11946 1.5546e-05 0)
(1.12012 1.819e-05 0)
(1.12079 1.69451e-05 0)
(1.12145 1.55214e-05 0)
(1.12211 1.34992e-05 0)
(1.12279 1.4215e-05 0)
(1.12346 1.13896e-05 0)
(1.12413 3.53132e-06 0)
(1.12479 -1.59442e-06 0)
(1.12545 -1.0903e-06 0)
(1.12609 1.17845e-06 0)
(1.12674 4.91135e-06 0)
(1.12741 7.86266e-06 0)
(1.12808 7.61579e-06 0)
(1.12874 2.30382e-06 0)
(1.12937 3.19844e-06 0)
(1.13 5.08862e-06 0)
(1.13063 8.82191e-06 0)
(1.13128 1.3107e-05 0)
(1.13193 1.33775e-05 0)
(1.13258 9.6578e-06 0)
(1.13321 4.07409e-06 0)
(1.13381 1.54726e-06 0)
(1.13442 4.31438e-06 0)
(1.13504 7.68002e-06 0)
(1.13566 9.12853e-06 0)
(1.13629 8.16955e-06 0)
(1.1369 6.03673e-06 0)
(1.13749 5.71577e-06 0)
(1.13808 8.95972e-06 0)
(1.13868 1.28993e-05 0)
(1.1393 1.35428e-05 0)
(1.1399 1.14785e-05 0)
(1.14048 9.90259e-06 0)
(1.14106 9.59781e-06 0)
(1.14164 9.54582e-06 0)
(1.14222 9.32664e-06 0)
(1.1428 8.71645e-06 0)
(1.14338 7.6544e-06 0)
(1.14394 7.17959e-06 0)
(1.1445 8.14578e-06 0)
(1.14506 9.85852e-06 0)
(1.14563 1.11849e-05 0)
(1.14619 1.14896e-05 0)
(1.14675 1.07443e-05 0)
(1.1473 9.90834e-06 0)
(1.14784 1.04414e-05 0)
(1.14837 1.28714e-05 0)
(1.14892 1.59049e-05 0)
(1.14946 1.72402e-05 0)
(1.15001 1.59139e-05 0)
(1.15054 1.34808e-05 0)
(1.15105 1.23774e-05 0)
(1.15156 1.37463e-05 0)
(1.15208 1.69471e-05 0)
(1.1526 2.01489e-05 0)
(1.15312 2.15617e-05 0)
(1.15363 2.12873e-05 0)
(1.15413 2.14629e-05 0)
(1.15462 2.36111e-05 0)
(1.15511 2.69046e-05 0)
(1.15561 2.95625e-05 0)
(1.15611 3.05777e-05 0)
(1.1566 3.0082e-05 0)
(1.15708 2.94449e-05 0)
(1.15755 3.05242e-05 0)
(1.15802 3.35251e-05 0)
(1.15849 3.65349e-05 0)
(1.15897 3.8062e-05 0)
(1.15943 3.88093e-05 0)
(1.15989 4.03471e-05 0)
(1.16034 4.31638e-05 0)
(1.16079 4.64609e-05 0)
(1.16125 4.92097e-05 0)
(1.1617 5.11458e-05 0)
(1.16214 5.28808e-05 0)
(1.16257 5.51698e-05 0)
(1.163 5.8177e-05 0)
(1.16344 6.13907e-05 0)
(1.16387 6.40594e-05 0)
(1.1643 6.57457e-05 0)
(1.16472 6.66503e-05 0)
(1.16514 6.75545e-05 0)
(1.16555 6.94625e-05 0)
(1.16596 7.29279e-05 0)
(1.16636 7.73836e-05 0)
(1.16678 8.14233e-05 0)
(1.16719 8.40704e-05 0)
(1.16759 8.55959e-05 0)
(1.16799 8.70908e-05 0)
(1.16838 8.95619e-05 0)
(1.16877 9.32184e-05 0)
(1.16916 9.71442e-05 0)
(1.16955 9.99677e-05 0)
(1.16994 0.000101341 0)
(1.17032 0.000102415 0)
(1.1707 0.000104528 0)
(1.17107 0.000107828 0)
(1.17144 0.000111376 0)
(1.17182 0.000114136 0)
(1.1722 0.000115795 0)
(1.17256 0.000117013 0)
(1.17292 0.0001189 0)
(1.17328 0.000121954 0)
(1.17364 0.000125558 0)
(1.17401 0.000128711 0)
(1.17437 0.000131113 0)
(1.17472 0.000133262 0)
(1.17507 0.000135662 0)
(1.17542 0.000138235 0)
(1.17577 0.000140545 0)
(1.17612 0.000142318 0)
(1.17647 0.000143711 0)
(1.17681 0.000145215 0)
(1.17715 0.000147286 0)
(1.17749 0.000149996 0)
(1.17782 0.000153007 0)
(1.17816 0.000155797 0)
(1.1785 0.000157894 0)
(1.17884 0.000159168 0)
(1.17917 0.000160118 0)
(1.1795 0.000161673 0)
(1.17982 0.000164381 0)
(1.18015 0.000167827 0)
(1.18048 0.000170969 0)
(1.18082 0.00017301 0)
(1.18115 0.000174001 0)
(1.18147 0.000174809 0)
(1.18179 0.000176423 0)
(1.18211 0.000179061 0)
(1.18243 0.000181902 0)
(1.18276 0.000183848 0)
(1.18308 0.000184573 0)
(1.1834 0.000184819 0)
(1.18372 0.000185624 0)
(1.18403 0.000187416 0)
(1.18434 0.000189727 0)
(1.18466 0.000191763 0)
(1.18498 0.000193024 0)
(1.1853 0.000193842 0)
(1.18561 0.000194818 0)
(1.18592 0.00019641 0)
(1.18623 0.000198125 0)
(1.18655 0.000199737 0)
(1.18686 0.000200639 0)
(1.18717 0.000201748 0)
(1.18749 0.000202498 0)
(1.18779 0.000204484 0)
(1.18811 0.000205224 0)
(1.18842 0.000207432 0)
(1.18875 0.000205954 0)
(1.18904 0.000208265 0)
(1.18938 0.000204457 0)
(1.18963 0.000210719 0)
(1.19001 0.000204434 0)
(1.19022 0.000217758 0)
(1.19068 0.00020329 0)
(1.19078 0.000225961 0)
(1.19141 0.000202196 0)
(3.2351 0.0182418 0)
(3.19579 0.0120789 0)
(3.1486 0.0138083 0)
(3.10268 0.0132716 0)
(3.06859 0.0116314 0)
(3.04197 0.0103333 0)
(3.01942 0.00912302 0)
(2.99944 0.00779448 0)
(2.98176 0.00673034 0)
(2.96624 0.0058564 0)
(2.95269 0.00512581 0)
(2.94085 0.00454733 0)
(2.9305 0.00397326 0)
(2.92149 0.00352406 0)
(2.91369 0.00309504 0)
(2.90694 0.0027014 0)
(2.90114 0.00238084 0)
(2.89624 0.00211735 0)
(2.89215 0.00185559 0)
(2.88876 0.00160799 0)
(2.886 0.00139999 0)
(2.88382 0.00120395 0)
(2.88216 0.00104465 0)
(2.88099 0.000913791 0)
(2.88027 0.000804651 0)
(2.87993 0.000698499 0)
(2.87989 0.000600343 0)
(2.88013 0.000522461 0)
(2.88062 0.000467364 0)
(2.88133 0.000432112 0)
(2.88226 0.000395904 0)
(2.88334 0.000351104 0)
(2.88453 0.00030713 0)
(2.88582 0.000269516 0)
(2.8872 0.000245033 0)
(2.88868 0.00023297 0)
(2.89023 0.000218666 0)
(2.89182 0.000197264 0)
(2.89343 0.000176872 0)
(2.89508 0.000161825 0)
(2.89675 0.000152302 0)
(2.89845 0.000145818 0)
(2.90017 0.000143244 0)
(2.9019 0.000133427 0)
(2.90363 0.000123472 0)
(2.90536 0.000115651 0)
(2.9071 0.000107217 0)
(2.90883 9.83592e-05 0)
(2.91056 8.70287e-05 0)
(2.91228 7.37687e-05 0)
(2.91399 6.16117e-05 0)
(2.91568 6.23005e-05 0)
(2.91737 7.25027e-05 0)
(2.91908 7.70891e-05 0)
(2.92078 7.38714e-05 0)
(2.92246 6.75075e-05 0)
(2.92412 6.11571e-05 0)
(2.92577 6.06594e-05 0)
(2.92742 7.22041e-05 0)
(2.92907 8.34522e-05 0)
(2.93073 8.51329e-05 0)
(2.93237 7.51552e-05 0)
(2.93399 5.99643e-05 0)
(2.93559 5.19554e-05 0)
(2.93718 5.72371e-05 0)
(2.93878 6.56456e-05 0)
(2.94038 6.89806e-05 0)
(2.94198 6.53862e-05 0)
(2.94355 5.82341e-05 0)
(2.9451 5.61805e-05 0)
(2.94665 6.46471e-05 0)
(2.94821 7.55385e-05 0)
(2.94977 7.69849e-05 0)
(2.95131 7.04442e-05 0)
(2.95283 6.52313e-05 0)
(2.95435 6.3724e-05 0)
(2.95586 6.2997e-05 0)
(2.95736 6.18376e-05 0)
(2.95886 5.95757e-05 0)
(2.96035 5.59524e-05 0)
(2.96182 5.39412e-05 0)
(2.96329 5.60977e-05 0)
(2.96476 6.04898e-05 0)
(2.96622 6.38233e-05 0)
(2.96767 6.42021e-05 0)
(2.96912 6.14696e-05 0)
(2.97055 5.83482e-05 0)
(2.97197 5.90755e-05 0)
(2.97338 6.53038e-05 0)
(2.97479 7.3398e-05 0)
(2.9762 7.66305e-05 0)
(2.97761 7.20629e-05 0)
(2.97899 6.41236e-05 0)
(2.98035 5.98703e-05 0)
(2.9817 6.26936e-05 0)
(2.98305 7.08754e-05 0)
(2.98441 7.91543e-05 0)
(2.98575 8.22435e-05 0)
(2.98708 8.03138e-05 0)
(2.9884 7.95375e-05 0)
(2.9897 8.44254e-05 0)
(2.991 9.26679e-05 0)
(2.9923 9.90886e-05 0)
(2.99359 0.000100704 0)
(2.99487 9.78341e-05 0)
(2.99613 9.44183e-05 0)
(2.99738 9.58986e-05 0)
(2.99862 0.000102986 0)
(2.99986 0.000110159 0)
(3.0011 0.000113002 0)
(3.00231 0.000113492 0)
(3.00352 0.000116204 0)
(3.00471 0.000122614 0)
(3.0059 0.00013045 0)
(3.00708 0.000136717 0)
(3.00826 0.000140606 0)
(3.00942 0.00014387 0)
(3.01057 0.00014871 0)
(3.01171 0.000155638 0)
(3.01285 0.000163196 0)
(3.01398 0.000169203 0)
(3.0151 0.000172358 0)
(3.01621 0.000173199 0)
(3.01731 0.000173961 0)
(3.0184 0.000177566 0)
(3.01948 0.000185687 0)
(3.02055 0.000196751 0)
(3.02163 0.000206689 0)
(3.02269 0.000212607 0)
(3.02375 0.000215229 0)
(3.02479 0.000217703 0)
(3.02583 0.000222994 0)
(3.02685 0.000231784 0)
(3.02788 0.000241459 0)
(3.0289 0.000248001 0)
(3.02992 0.000250317 0)
(3.03092 0.000251712 0)
(3.03191 0.000256103 0)
(3.03289 0.000263991 0)
(3.03388 0.000272682 0)
(3.03486 0.000279146 0)
(3.03584 0.000282413 0)
(3.0368 0.000284352 0)
(3.03776 0.000288203 0)
(3.03871 0.000295483 0)
(3.03966 0.000304452 0)
(3.0406 0.0003122 0)
(3.04154 0.000317812 0)
(3.04248 0.000322729 0)
(3.0434 0.000328442 0)
(3.04433 0.00033481 0)
(3.04525 0.00034053 0)
(3.04616 0.000344655 0)
(3.04707 0.000347575 0)
(3.04798 0.000350713 0)
(3.04887 0.000355425 0)
(3.04977 0.000361981 0)
(3.05066 0.000369446 0)
(3.05155 0.000376305 0)
(3.05244 0.000381161 0)
(3.05333 0.000383581 0)
(3.05421 0.000384992 0)
(3.05508 0.000388124 0)
(3.05595 0.000394635 0)
(3.05682 0.000403374 0)
(3.05769 0.000411308 0)
(3.05856 0.000416059 0)
(3.05942 0.000417728 0)
(3.06028 0.000418814 0)
(3.06114 0.000422239 0)
(3.06199 0.000428708 0)
(3.06284 0.000435868 0)
(3.0637 0.000440479 0)
(3.06455 0.000441532 0)
(3.0654 0.000441145 0)
(3.06624 0.000442367 0)
(3.06708 0.000446484 0)
(3.06792 0.000452201 0)
(3.06876 0.000457163 0)
(3.0696 0.000459911 0)
(3.07044 0.000461312 0)
(3.07127 0.000463225 0)
(3.0721 0.000466877 0)
(3.07294 0.000471064 0)
(3.07377 0.000474773 0)
(3.07461 0.000476701 0)
(3.07543 0.0004788 0)
(3.07627 0.000480515 0)
(3.07709 0.000484946 0)
(3.07793 0.00048718 0)
(3.07874 0.000491745 0)
(3.07961 0.000488444 0)
(3.08038 0.000492093 0)
(3.08129 0.000483664 0)
(3.08198 0.000496618 0)
(3.08299 0.000483965 0)
(3.08354 0.000513969 0)
(3.08476 0.000482478 0)
(3.08503 0.000532482 0)
(3.08664 0.0004715 0)
(4.84318 0.061408 0)
(4.75721 0.0441374 0)
(4.66814 0.0346864 0)
(4.5905 0.0278611 0)
(4.53397 0.0222124 0)
(4.49299 0.0190144 0)
(4.46137 0.0170008 0)
(4.43554 0.0154981 0)
(4.41388 0.0138392 0)
(4.39544 0.012354 0)
(4.37966 0.0109019 0)
(4.36613 0.00959221 0)
(4.35454 0.00845245 0)
(4.34467 0.00742547 0)
(4.33629 0.00652029 0)
(4.32925 0.00569751 0)
(4.3234 0.00497637 0)
(4.31863 0.00436407 0)
(4.31483 0.00383131 0)
(4.31189 0.00333434 0)
(4.30969 0.00291676 0)
(4.30817 0.00254984 0)
(4.30724 0.00223585 0)
(4.30686 0.00198975 0)
(4.30697 0.00178075 0)
(4.30749 0.00156845 0)
(4.30835 0.00137523 0)
(4.30949 0.00122063 0)
(4.3109 0.00110131 0)
(4.31254 0.00101383 0)
(4.31438 0.000930813 0)
(4.31638 0.000841058 0)
(4.3185 0.000751863 0)
(4.32071 0.00067193 0)
(4.32301 0.00062107 0)
(4.32539 0.000587586 0)
(4.32784 0.000547129 0)
(4.33032 0.000495555 0)
(4.33283 0.000447765 0)
(4.33536 0.000417238 0)
(4.33792 0.000398692 0)
(4.34049 0.000392757 0)
(4.34308 0.000385372 0)
(4.34567 0.000365596 0)
(4.34825 0.000346765 0)
(4.35084 0.00032977 0)
(4.35342 0.000314333 0)
(4.356 0.000295215 0)
(4.35856 0.000265891 0)
(4.36112 0.000245962 0)
(4.36365 0.000227581 0)
(4.36618 0.000221706 0)
(4.36869 0.000234363 0)
(4.37121 0.000241791 0)
(4.37373 0.000231559 0)
(4.37622 0.000214284 0)
(4.37869 0.000207266 0)
(4.38114 0.000209068 0)
(4.38358 0.000226139 0)
(4.38603 0.000241869 0)
(4.38847 0.000242374 0)
(4.39091 0.000224935 0)
(4.39331 0.000199729 0)
(4.39569 0.000186096 0)
(4.39806 0.000192185 0)
(4.40043 0.00020403 0)
(4.40281 0.00020817 0)
(4.40517 0.000201316 0)
(4.4075 0.000188602 0)
(4.40982 0.000183665 0)
(4.41213 0.000195532 0)
(4.41444 0.00021171 0)
(4.41675 0.000213052 0)
(4.41904 0.000201589 0)
(4.42131 0.000192134 0)
(4.42357 0.000188561 0)
(4.42582 0.000186271 0)
(4.42806 0.000183368 0)
(4.43029 0.000178763 0)
(4.43251 0.000171939 0)
(4.43471 0.000167564 0)
(4.4369 0.00016979 0)
(4.43909 0.000175645 0)
(4.44127 0.0001799 0)
(4.44344 0.000179493 0)
(4.44559 0.000174084 0)
(4.44773 0.00016791 0)
(4.44986 0.000167704 0)
(4.45197 0.000176242 0)
(4.45408 0.000187916 0)
(4.45619 0.000191994 0)
(4.45828 0.000183633 0)
(4.46036 0.000169768 0)
(4.46241 0.000161587 0)
(4.46444 0.000164552 0)
(4.46648 0.000176106 0)
(4.4685 0.000187976 0)
(4.47052 0.000191661 0)
(4.47252 0.000187276 0)
(4.4745 0.000184584 0)
(4.47647 0.000190856 0)
(4.47843 0.000202536 0)
(4.48038 0.000211392 0)
(4.48233 0.000212596 0)
(4.48425 0.000206556 0)
(4.48616 0.000199468 0)
(4.48805 0.000200031 0)
(4.48993 0.000209514 0)
(4.49181 0.000219181 0)
(4.49367 0.000221932 0)
(4.49552 0.000220845 0)
(4.49734 0.000223202 0)
(4.49916 0.000231419 0)
(4.50096 0.000241937 0)
(4.50276 0.000249992 0)
(4.50454 0.000254247 0)
(4.50631 0.000257456 0)
(4.50806 0.000263131 0)
(4.5098 0.000272117 0)
(4.51153 0.000282127 0)
(4.51325 0.000289691 0)
(4.51496 0.000292707 0)
(4.51665 0.000291977 0)
(4.51833 0.000291005 0)
(4.51999 0.000294433 0)
(4.52164 0.000304999 0)
(4.52329 0.000320309 0)
(4.52493 0.000333912 0)
(4.52656 0.000341147 0)
(4.52817 0.000343094 0)
(4.52977 0.000344732 0)
(4.53135 0.000350814 0)
(4.53293 0.000362511 0)
(4.5345 0.000375729 0)
(4.53606 0.000384043 0)
(4.53761 0.000385617 0)
(4.53915 0.000385646 0)
(4.54067 0.000390391 0)
(4.54218 0.000400723 0)
(4.54369 0.000412399 0)
(4.5452 0.000420577 0)
(4.54669 0.000423644 0)
(4.54818 0.00042451 0)
(4.54965 0.000428335 0)
(4.55111 0.000437606 0)
(4.55256 0.000449614 0)
(4.55402 0.00045973 0)
(4.55546 0.000466448 0)
(4.55689 0.000472025 0)
(4.55832 0.000478844 0)
(4.55974 0.000486677 0)
(4.56115 0.000493502 0)
(4.56256 0.000497914 0)
(4.56396 0.000500512 0)
(4.56535 0.000503506 0)
(4.56673 0.000509043 0)
(4.5681 0.000517584 0)
(4.56948 0.000527674 0)
(4.57085 0.000536912 0)
(4.57221 0.000543028 0)
(4.57357 0.000545264 0)
(4.57492 0.000545848 0)
(4.57627 0.000549145 0)
(4.57761 0.000557874 0)
(4.57894 0.000570269 0)
(4.58028 0.000581503 0)
(4.58161 0.000587733 0)
(4.58294 0.00058905 0)
(4.58426 0.000589406 0)
(4.58557 0.000593496 0)
(4.58688 0.00060252 0)
(4.5882 0.000612781 0)
(4.58951 0.000619074 0)
(4.59081 0.000619713 0)
(4.59211 0.000618011 0)
(4.59341 0.000618854 0)
(4.59469 0.000624328 0)
(4.59598 0.000632447 0)
(4.59727 0.000639422 0)
(4.59857 0.000642922 0)
(4.59985 0.000644219 0)
(4.60113 0.000646383 0)
(4.60241 0.000651266 0)
(4.60369 0.000657186 0)
(4.60496 0.000662188 0)
(4.60624 0.000664627 0)
(4.60751 0.000666938 0)
(4.60879 0.000669257 0)
(4.61004 0.000675117 0)
(4.61133 0.000678803 0)
(4.61257 0.000684466 0)
(4.61389 0.000680183 0)
(4.61507 0.000683286 0)
(4.61646 0.00067233 0)
(4.61754 0.000688156 0)
(4.61905 0.000673464 0)
(4.61994 0.000712869 0)
(4.62175 0.000673265 0)
(4.62221 0.000738797 0)
(4.6246 0.000653492 0)
(5.71883 0.068267 0)
(5.7527 0.0615979 0)
(5.74543 0.0546388 0)
(5.7101 0.0472487 0)
(5.6705 0.038634 0)
(5.63479 0.0317535 0)
(5.60467 0.0267732 0)
(5.58003 0.0229491 0)
(5.56034 0.0199097 0)
(5.54485 0.0174427 0)
(5.53271 0.0154248 0)
(5.52324 0.0136747 0)
(5.51585 0.0121095 0)
(5.51016 0.0107169 0)
(5.50589 0.00945388 0)
(5.50278 0.00834431 0)
(5.50069 0.00734708 0)
(5.49949 0.00647323 0)
(5.49906 0.00569454 0)
(5.49928 0.00496777 0)
(5.50003 0.00430706 0)
(5.50125 0.00377301 0)
(5.50286 0.00332968 0)
(5.50482 0.00297218 0)
(5.50708 0.00265772 0)
(5.50958 0.0023653 0)
(5.51224 0.00208911 0)
(5.51505 0.00186267 0)
(5.51797 0.00168532 0)
(5.52101 0.00155649 0)
(5.52414 0.00142977 0)
(5.52733 0.00129287 0)
(5.53055 0.00116101 0)
(5.5338 0.00104748 0)
(5.53707 0.000965345 0)
(5.54037 0.000915191 0)
(5.54369 0.000848737 0)
(5.547 0.000771151 0)
(5.5503 0.000708879 0)
(5.5536 0.000680431 0)
(5.5569 0.000656973 0)
(5.56019 0.000642506 0)
(5.56348 0.000629245 0)
(5.56676 0.00060745 0)
(5.57002 0.000578325 0)
(5.57327 0.000553657 0)
(5.57651 0.00052779 0)
(5.57973 0.000486193 0)
(5.58294 0.000451421 0)
(5.58613 0.000425886 0)
(5.5893 0.000399852 0)
(5.59246 0.000387228 0)
(5.5956 0.000397135 0)
(5.59874 0.000402412 0)
(5.60187 0.000397458 0)
(5.60498 0.000376007 0)
(5.60807 0.000365682 0)
(5.61114 0.000366953 0)
(5.6142 0.000385096 0)
(5.61725 0.000404212 0)
(5.6203 0.000403395 0)
(5.62334 0.000378417 0)
(5.62635 0.000342755 0)
(5.62933 0.000323443 0)
(5.63231 0.000330143 0)
(5.63528 0.00034439 0)
(5.63825 0.000348796 0)
(5.6412 0.000338946 0)
(5.64413 0.000321382 0)
(5.64705 0.000313772 0)
(5.64995 0.000328157 0)
(5.65285 0.000348445 0)
(5.65575 0.000349444 0)
(5.65862 0.000333674 0)
(5.66148 0.000320502 0)
(5.66432 0.000315029 0)
(5.66716 0.000311268 0)
(5.66998 0.000306773 0)