/*--------------------------------*- C++ -*----------------------------------*\
  =========                 |
  \\      /  F ield         | OpenFOAM: The Open Source CFD Toolbox
   \\    /   O peration     | Website:  https://openfoam.org
    \\  /    A nd           | Version:  7
     \\/     M anipulation  |
\*---------------------------------------------------------------------------*/
FoamFile
{
    version     2.0;
    format      ascii;
    class       volScalarField;
    location    "4.2";
    object      k_0;
}
// * * * * * * * * * * * * * * * * * * * * * * * * * * * * * * * * * * * * * //

dimensions      [0 2 -2 0 0 0 0];

internalField   nonuniform List<scalar> 
1200
(
1.46597
2.24388
2.04606
1.68573
1.4592
1.32001
1.22664
1.1593
1.10756
1.06598
1.03142
1.00224
0.976872
0.955124
0.935152
0.918713
0.901361
0.890076
0.872076
0.879985
0.170816
0.75826
1.02787
1.10173
1.10049
1.08631
1.05729
1.0286
1.00237
0.978883
0.957898
0.939361
0.922495
0.908049
0.893857
0.883312
0.869995
0.863543
0.84756
0.846413
0.00764805
0.0792176
0.213722
0.308961
0.367024
0.414891
0.450739
0.478256
0.499363
0.516275
0.528989
0.539818
0.547094
0.554477
0.557953
0.563437
0.564798
0.56882
0.567911
0.570813
0.000225278
0.00465658
0.0173089
0.0413191
0.062519
0.0825459
0.100578
0.118253
0.134177
0.150418
0.164749
0.179967
0.192896
0.207172
0.218822
0.231896
0.242664
0.253849
0.264652
0.272165
2.63804e-05
0.000195444
0.000763772
0.00223993
0.00426409
0.00716081
0.0100493
0.0136928
0.0172902
0.0215185
0.02569
0.0303356
0.0350286
0.0399499
0.0452079
0.0502401
0.0562094
0.0610942
0.0680384
0.0723603
2.23237e-05
3.58401e-05
6.48727e-05
0.000100495
0.000175593
0.000250939
0.000409103
0.000544007
0.000826835
0.00104204
0.00148224
0.00180911
0.0024201
0.0028972
0.00369457
0.00433494
0.00535502
0.00615355
0.00746964
0.00837157
2.23237e-05
3.58407e-05
6.68261e-05
9.91403e-05
0.000178615
0.000250318
0.000412656
0.000543486
0.000831449
0.00104167
0.00149533
0.00180114
0.00245182
0.00286613
0.00373766
0.00427029
0.00537606
0.00602893
0.00735131
0.00812054
2.63801e-05
0.000195449
0.000764924
0.0020075
0.00456377
0.00685329
0.0103662
0.0133611
0.0176369
0.0211518
0.0260743
0.0299261
0.0354379
0.0394902
0.0455866
0.0497173
0.0563883
0.0604417
0.0675619
0.0713214
0.000225264
0.00465666
0.0173506
0.0412726
0.0625955
0.0824619
0.100703
0.118109
0.134371
0.150183
0.165045
0.179587
0.193314
0.206564
0.219318
0.230957
0.242954
0.252448
0.263759
0.270102
0.00764777
0.0792196
0.213717
0.308964
0.367028
0.414903
0.450737
0.478275
0.499352
0.516299
0.528959
0.539821
0.547028
0.554386
0.557812
0.563098
0.56436
0.567715
0.566656
0.568765
0.170812
0.758259
1.02787
1.10173
1.10049
1.08631
1.05725
1.02866
1.00228
0.979008
0.957713
0.939633
0.922127
0.908603
0.893237
0.884253
0.869505
0.864117
0.847952
0.848802
1.46596
2.24388
2.04605
1.68572
1.45918
1.32001
1.22661
1.15934
1.1075
1.06609
1.03133
1.00253
0.976758
0.955858
0.935109
0.92045
0.901924
0.893519
0.875075
0.885806
1.48531
1.64897
1.63428
1.6355
1.64472
1.65469
1.66377
1.67186
1.67883
1.68489
1.6903
1.69527
1.69995
1.70443
1.70877
1.71299
1.7171
1.72112
1.72505
1.7289
1.73267
1.73637
1.73999
1.74355
1.74705
1.75047
1.75383
1.75711
1.76033
1.76349
1.76658
1.76961
1.77259
1.7755
1.77837
1.78118
1.78394
1.78666
1.78932
1.79194
1.79451
1.79703
1.79951
1.80194
1.80433
1.80667
1.80897
1.81123
1.81345
1.81562
1.81775
1.81984
1.82188
1.82388
1.82584
1.82778
1.82968
1.83155
1.83338
1.83518
1.83695
1.83868
1.84037
1.84203
1.84366
1.84525
1.84681
1.84833
1.84981
1.85128
1.85268
1.8541
1.85541
1.85682
1.858
1.85946
1.86041
1.86206
1.86264
1.86471
1.69527
2.02032
2.07329
2.09063
2.10725
2.12172
2.13326
2.14276
2.15083
2.15794
2.16443
2.17054
2.1764
2.18208
2.1876
2.19294
2.19816
2.20328
2.2083
2.21324
2.21809
2.22286
2.22755
2.23209
2.2365
2.24084
2.24511
2.24931
2.25345
2.25753
2.26153
2.26546
2.26931
2.27307
2.27676
2.28039
2.28396
2.28747
2.29092
2.29427
2.29756
2.30078
2.30395
2.30707
2.31014
2.31316
2.31613
2.31905
2.3219
2.32468
2.32741
2.3301
2.33275
2.33536
2.33794
2.34038
2.34277
2.34512
2.34745
2.34974
2.35202
2.35428
2.3565
2.35869
2.36082
2.36286
2.36484
2.36681
2.36872
2.37063
2.37246
2.37433
2.37604
2.3779
2.37942
2.38136
2.38257
2.38475
2.38555
2.38814
1.19823
1.59977
1.72358
1.76893
1.79391
1.80945
1.81932
1.82623
1.8318
1.83683
1.84162
1.8463
1.85091
1.85545
1.85994
1.86436
1.86871
1.87298
1.87717
1.88128
1.88531
1.88925
1.89312
1.89694
1.9007
1.90439
1.90801
1.91155
1.91503
1.91843
1.92176
1.92504
1.92825
1.93141
1.93452
1.93756
1.94055
1.94349
1.94636
1.9492
1.95198
1.95471
1.95739
1.96002
1.9626
1.96513
1.96761
1.97004
1.97243
1.97479
1.9771
1.97937
1.98159
1.98376
1.98588
1.988
1.99008
1.99212
1.99412
1.99607
1.99798
1.99984
2.00167
2.00346
2.00522
2.00696
2.00867
2.01035
2.01198
2.0136
2.01514
2.01672
2.01816
2.01975
2.02103
2.02271
2.02373
2.02562
2.02636
2.02853
0.61278
1.02535
1.21512
1.29822
1.33713
1.35537
1.36372
1.36781
1.37045
1.37282
1.37533
1.37804
1.38092
1.38389
1.38691
1.38993
1.39292
1.39588
1.39881
1.4017
1.40455
1.40736
1.41013
1.41283
1.41549
1.41809
1.42065
1.42318
1.42566
1.4281
1.4305
1.43285
1.43516
1.43743
1.43966
1.44185
1.44401
1.44613
1.44821
1.45024
1.45223
1.45418
1.4561
1.45799
1.45984
1.46166
1.46345
1.4652
1.46692
1.4686
1.47025
1.47188
1.47349
1.47506
1.47661
1.47813
1.47961
1.48106
1.48248
1.48388
1.48525
1.48661
1.48794
1.48926
1.49055
1.49181
1.49304
1.49425
1.49543
1.49662
1.49774
1.49892
1.49997
1.50117
1.5021
1.50337
1.50411
1.50554
1.50612
1.50772
0.162845
0.466662
0.687439
0.805459
0.863263
0.889259
0.899862
0.903722
0.905062
0.905728
0.906455
0.907469
0.90877
0.910283
0.911894
0.913508
0.915136
0.91679
0.918462
0.920149
0.921845
0.923548
0.925257
0.926847
0.928352
0.929834
0.931315
0.932805
0.934302
0.935798
0.937281
0.938736
0.940154
0.941534
0.942891
0.944236
0.945574
0.946901
0.948201
0.949437
0.95062
0.951776
0.952923
0.954063
0.955195
0.956316
0.957419
0.958497
0.95954
0.960547
0.961534
0.962519
0.963511
0.964514
0.965523
0.96641
0.967247
0.968068
0.968888
0.96972
0.970567
0.97143
0.972303
0.973176
0.974029
0.974788
0.975503
0.976228
0.976947
0.977696
0.978411
0.979178
0.979853
0.980645
0.981233
0.982081
0.982535
0.983452
0.983847
0.984882
0.0208387
0.0952643
0.255582
0.395573
0.481659
0.527196
0.549028
0.558635
0.562535
0.564105
0.56488
0.565466
0.566074
0.56676
0.56756
0.568522
0.569566
0.570636
0.571695
0.572729
0.573725
0.57467
0.575566
0.576581
0.577677
0.578767
0.579814
0.580806
0.581745
0.582641
0.583513
0.584384
0.585263
0.586145
0.587008
0.587835
0.588619
0.589363
0.590094
0.590875
0.591695
0.592508
0.593288
0.594029
0.594733
0.595408
0.596066
0.59672
0.597385
0.598061
0.598729
0.59937
0.599969
0.600525
0.60104
0.601672
0.602343
0.603008
0.603644
0.604232
0.604765
0.605246
0.605677
0.606086
0.606475
0.606978
0.607517
0.608051
0.608542
0.609025
0.609446
0.609901
0.610264
0.610736
0.611041
0.611567
0.611838
0.612408
0.612669
0.613324
0.0206771
0.0939483
0.254557
0.397443
0.484844
0.531195
0.553702
0.563938
0.568439
0.570578
0.57189
0.572982
0.57407
0.575211
0.576444
0.577812
0.579242
0.580679
0.582094
0.583472
0.584803
0.586077
0.587298
0.588618
0.590002
0.591372
0.592694
0.593957
0.595164
0.596326
0.597459
0.598584
0.599709
0.60083
0.601927
0.602984
0.603998
0.60497
0.605925
0.60692
0.607944
0.608957
0.609935
0.610873
0.611774
0.612645
0.613496
0.61434
0.615188
0.61604
0.61688
0.617689
0.618457
0.619181
0.619865
0.620643
0.62145
0.622249
0.623019
0.623745
0.624421
0.625047
0.625628
0.626184
0.626717
0.627342
0.627991
0.628633
0.62923
0.629818
0.630343
0.630899
0.63136
0.631925
0.632317
0.632929
0.63326
0.633923
0.634225
0.634972
0.162478
0.464314
0.690973
0.812864
0.871659
0.89844
0.909783
0.914322
0.916287
0.917531
0.918791
0.920305
0.922081
0.924053
0.926113
0.928168
0.93023
0.932304
0.934386
0.936469
0.938554
0.940639
0.942725
0.944695
0.946577
0.948428
0.950269
0.952107
0.953941
0.955765
0.957568
0.959334
0.961055
0.962731
0.964377
0.966003
0.967617
0.969215
0.970784
0.972288
0.973739
0.975161
0.976568
0.977964
0.979348
0.980717
0.982067
0.983389
0.984673
0.985917
0.987134
0.988336
0.989534
0.99073
0.991921
0.992994
0.994017
0.995023
0.996029
0.997046
0.998077
0.99912
1.00017
1.00121
1.00222
1.00315
1.00402
1.00489
1.00575
1.00663
1.00747
1.00835
1.00914
1.01004
1.01073
1.01167
1.01221
1.01323
1.01367
1.01481
0.614097
1.0279
1.22445
1.30897
1.34715
1.36465
1.37225
1.37557
1.37746
1.37913
1.38097
1.38308
1.38541
1.3879
1.39049
1.39313
1.39578
1.39844
1.40109
1.40372
1.40634
1.40894
1.41151
1.41404
1.41652
1.41897
1.42139
1.42377
1.42612
1.42843
1.4307
1.43293
1.43512
1.43727
1.43939
1.44147
1.44352
1.44553
1.44751
1.44945
1.45134
1.45321
1.45504
1.45684
1.45861
1.46035
1.46206
1.46374
1.46538
1.46699
1.46858
1.47013
1.47165
1.47315
1.47462
1.47606
1.47747
1.47884
1.4802
1.48154
1.48286
1.48416
1.48543
1.4867
1.48793
1.48914
1.49032
1.49148
1.49261
1.49374
1.49483
1.49595
1.49697
1.49811
1.49902
1.50024
1.50096
1.50232
1.50289
1.50444
1.2022
1.60741
1.73336
1.7758
1.79778
1.81071
1.81804
1.8225
1.82572
1.82853
1.83126
1.83403
1.83688
1.8398
1.84278
1.84581
1.84885
1.85189
1.85491
1.85792
1.86089
1.86384
1.86674
1.86964
1.8725
1.87533
1.87811
1.88084
1.88352
1.88616
1.88875
1.89129
1.89379
1.89625
1.89868
1.90106
1.9034
1.90569
1.90795
1.91017
1.91235
1.91449
1.91659
1.91866
1.92068
1.92267
1.92461
1.92653
1.92841
1.93026
1.93207
1.93385
1.9356
1.9373
1.93897
1.94064
1.94228
1.94389
1.94547
1.94701
1.94852
1.95
1.95145
1.95287
1.95427
1.95567
1.95703
1.95839
1.9597
1.96102
1.96227
1.96358
1.96475
1.96609
1.96714
1.96858
1.96942
1.97106
1.97169
1.97358
1.69827
2.02587
2.07364
2.08465
2.09658
2.10691
2.11459
2.12035
2.12485
2.12859
2.13194
2.13513
2.13827
2.14141
2.14453
2.14761
2.15069
2.15377
2.15685
2.15992
2.16299
2.16603
2.16904
2.17196
2.1748
2.1776
2.18038
2.18313
2.18586
2.18856
2.19123
2.19384
2.19641
2.19892
2.20139
2.20383
2.20623
2.20859
2.21091
2.21316
2.21535
2.21751
2.21963
2.22172
2.22378
2.22581
2.2278
2.22975
2.23166
2.23352
2.23534
2.23715
2.23893
2.24071
2.24247
2.24412
2.24573
2.24732
2.24889
2.25045
2.25199
2.25353
2.25505
2.25656
2.25803
2.25944
2.2608
2.26217
2.26352
2.26489
2.2662
2.26757
2.26881
2.27021
2.27132
2.27283
2.27371
2.27545
2.27605
2.27815
1.47683
1.6391
1.61748
1.61336
1.6184
1.6247
1.63043
1.63524
1.63908
1.64217
1.64479
1.64714
1.64934
1.65146
1.65356
1.65564
1.65771
1.65976
1.6618
1.66382
1.66581
1.66778
1.66972
1.67163
1.67353
1.6754
1.67724
1.67905
1.68082
1.68257
1.68428
1.68596
1.68762
1.68925
1.69085
1.69243
1.69397
1.69549
1.69698
1.69845
1.69988
1.70129
1.70268
1.70404
1.70538
1.70668
1.70796
1.70922
1.71045
1.71166
1.71286
1.71404
1.71519
1.71633
1.71744
1.71855
1.71965
1.72072
1.72176
1.72278
1.72378
1.72476
1.72572
1.72667
1.72761
1.72854
1.72945
1.73037
1.73125
1.73215
1.73301
1.7339
1.73472
1.73564
1.73638
1.73739
1.73799
1.73918
1.73955
1.74108
)
;

boundaryField
{
    upperWall
    {
        type            fixedValue;
        value           uniform 0;
    }
    lowerWall
    {
        type            fixedValue;
        value           uniform 0;
    }
    heatedWall
    {
        type            fixedValue;
        value           uniform 0;
    }
    inlet
    {
        type            fixedValue;
        value           uniform 2e-05;
    }
    outlet
    {
        type            inletOutlet;
        inletValue      uniform 0;
        value           nonuniform List<scalar> 
12
(
1.86471
2.38814
2.02853
1.50772
0.984882
0.613324
0.634972
1.01481
1.50444
1.97358
2.27815
1.74108
)
;
    }
    frontAndBack
    {
        type            empty;
    }
}


// ************************************************************************* //
