/*--------------------------------*- C++ -*----------------------------------*\
  =========                 |
  \\      /  F ield         | OpenFOAM: The Open Source CFD Toolbox
   \\    /   O peration     | Website:  https://openfoam.org
    \\  /    A nd           | Version:  7
     \\/     M anipulation  |
\*---------------------------------------------------------------------------*/
FoamFile
{
    version     2.0;
    format      ascii;
    class       volVectorField;
    location    "1.6675";
    object      U;
}
// * * * * * * * * * * * * * * * * * * * * * * * * * * * * * * * * * * * * * //

dimensions      [0 1 -1 0 0 0 0];

internalField   nonuniform List<vector> 
4950
(
(3.51223 0.420417 -27.0277)
(2.80293 0.150686 -27.0634)
(2.04953 0.0451817 -27.0644)
(1.83996 -0.0232321 -27.0713)
(1.56144 -0.0443614 -27.0694)
(1.54354 -0.0512507 -27.0738)
(1.38713 -0.0523028 -27.0719)
(1.41084 -0.051194 -27.0755)
(1.29727 -0.0498691 -27.074)
(1.32911 -0.0485569 -27.0768)
(1.23933 -0.0468538 -27.0755)
(1.27154 -0.0466741 -27.0776)
(1.19839 -0.0434493 -27.0765)
(1.22884 -0.0460774 -27.0779)
(1.16764 -0.0372411 -27.0771)
(1.19583 -0.047391 -27.0777)
(1.14142 -0.0160555 -27.0777)
(1.15663 -0.045412 -27.0766)
(1.13339 0.0941676 -27.0796)
(0.905882 0.12356 -27.0684)
(4.60181 0.549291 -27.0527)
(4.79433 0.379465 -27.0798)
(4.50219 0.291072 -27.0782)
(4.44489 0.191666 -27.0839)
(4.15043 0.134951 -27.0831)
(4.11678 0.103172 -27.0874)
(3.8897 0.0833863 -27.0873)
(3.88695 0.0719033 -27.0911)
(3.711 0.0632197 -27.0918)
(3.72519 0.0576933 -27.095)
(3.58544 0.0523779 -27.0958)
(3.60811 0.0499248 -27.098)
(3.49393 0.04463 -27.0986)
(3.52193 0.0461172 -27.0994)
(3.42375 0.0355911 -27.1)
(3.46219 0.0457364 -27.0987)
(3.36482 0.0168151 -27.1013)
(3.44555 0.0370694 -27.095)
(3.30752 -0.0179022 -27.1053)
(3.64873 -0.0742282 -27.0729)
(4.72131 0.288969 -27.0544)
(5.20609 0.212192 -27.076)
(5.32279 0.191369 -27.0669)
(5.56811 0.131354 -27.0697)
(5.51828 0.0942856 -27.0643)
(5.6424 0.0686476 -27.0674)
(5.55757 0.0502047 -27.0643)
(5.63742 0.0374318 -27.0681)
(5.55235 0.0275165 -27.067)
(5.61056 0.0194945 -27.071)
(5.53346 0.0138789 -27.0711)
(5.57768 0.00781251 -27.0749)
(5.51162 0.00549729 -27.0756)
(5.54302 -0.00047484 -27.0784)
(5.49257 0.00180283 -27.0794)
(5.50297 -0.00617967 -27.08)
(5.48091 0.00710547 -27.0816)
(5.43863 -0.00486989 -27.0789)
(5.46206 0.0392216 -27.0825)
(5.3053 0.0552192 -27.0595)
(4.69934 0.169383 -27.0632)
(5.12317 0.131711 -27.085)
(5.33973 0.12477 -27.0776)
(5.68734 0.0952447 -27.078)
(5.76162 0.0767152 -27.0735)
(5.9901 0.0645351 -27.0742)
(6.01214 0.0556561 -27.0719)
(6.17521 0.0497605 -27.0734)
(6.17691 0.0446324 -27.0731)
(6.30038 0.0407426 -27.0752)
(6.29191 0.0369773 -27.0759)
(6.3896 0.0343072 -27.0783)
(6.37402 0.0307835 -27.0797)
(6.45662 0.0297958 -27.0819)
(6.43224 0.0245747 -27.0835)
(6.51367 0.0270155 -27.0848)
(6.47334 0.0155596 -27.0858)
(6.58416 0.0214036 -27.0857)
(6.5157 0.00425362 -27.0857)
(6.74974 -0.0102994 -27.0642)
(4.70068 -1.34222e-08 -27.0583)
(5.11958 8.10455e-08 -27.0788)
(5.34613 -3.90998e-08 -27.0683)
(5.70886 2.40265e-07 -27.0691)
(5.79824 -5.43556e-09 -27.0622)
(6.04325 6.63786e-07 -27.0637)
(6.08504 3.61735e-07 -27.0593)
(6.26752 1.7417e-06 -27.0617)
(6.2925 1.98051e-06 -27.0596)
(6.43542 4.74164e-06 -27.0626)
(6.45189 6.80941e-06 -27.0618)
(6.56486 1.54953e-05 -27.065)
(6.57736 1.64867e-05 -27.0652)
(6.66359 5.79109e-05 -27.0684)
(6.67925 2.78506e-05 -27.069)
(6.7317 0.000197818 -27.0717)
(6.76637 5.61038e-05 -27.0717)
(6.75645 0.000554926 -27.0733)
(6.82425 0.000200485 -27.072)
(6.71279 0.000860749 -27.0527)
(4.69934 -0.169383 -27.0632)
(5.12317 -0.131711 -27.085)
(5.33973 -0.12477 -27.0776)
(5.68734 -0.0952444 -27.078)
(5.76162 -0.076715 -27.0735)
(5.9901 -0.0645342 -27.0742)
(6.01214 -0.055655 -27.0719)
(6.17521 -0.0497582 -27.0735)
(6.17691 -0.0446275 -27.0731)
(6.30039 -0.040737 -27.0753)
(6.29191 -0.0369613 -27.0759)
(6.38962 -0.0342907 -27.0784)
(6.37402 -0.0307416 -27.0796)
(6.45669 -0.0297362 -27.0821)
(6.43228 -0.0244839 -27.0833)
(6.51382 -0.0268056 -27.0851)
(6.47354 -0.0153486 -27.0854)
(6.58448 -0.0208316 -27.0861)
(6.51627 -0.00351305 -27.0853)
(6.75057 0.011697 -27.0646)
(4.72131 -0.288969 -27.0543)
(5.20609 -0.212192 -27.076)
(5.32279 -0.191369 -27.0669)
(5.56811 -0.131353 -27.0697)
(5.51828 -0.0942855 -27.0643)
(5.6424 -0.0686467 -27.0674)
(5.55757 -0.050204 -27.0643)
(5.63742 -0.0374293 -27.0681)
(5.55235 -0.0275134 -27.0669)
(5.61058 -0.0194879 -27.0711)
(5.53346 -0.0138691 -27.071)
(5.57774 -0.00779111 -27.075)
(5.51162 -0.00547684 -27.0754)
(5.54318 0.000555057 -27.0788)
(5.49262 -0.0017817 -27.0788)
(5.50336 0.00644816 -27.081)
(5.48117 -0.00710529 -27.0801)
(5.43955 0.00560252 -27.0811)
(5.46313 -0.0390255 -27.0795)
(5.30783 -0.053709 -27.0635)
(4.60181 -0.549291 -27.0527)
(4.79433 -0.379465 -27.0798)
(4.50219 -0.291072 -27.0781)
(4.44489 -0.191666 -27.0839)
(4.15043 -0.134951 -27.0831)
(4.11679 -0.103172 -27.0874)
(3.8897 -0.0833854 -27.0873)
(3.88696 -0.0719028 -27.0911)
(3.71101 -0.0632166 -27.0918)
(3.72521 -0.0576921 -27.095)
(3.58545 -0.0523683 -27.0957)
(3.60817 -0.0499205 -27.0982)
(3.49397 -0.0446054 -27.0983)
(3.52209 -0.0460968 -27.0998)
(3.42392 -0.0355372 -27.0993)
(3.46255 -0.045643 -27.0999)
(3.36545 -0.0166918 -27.099)
(3.44633 -0.0368117 -27.0991)
(3.30917 0.0182913 -27.0978)
(3.6509 0.0744215 -27.0864)
(3.51223 -0.420417 -27.0277)
(2.80293 -0.150686 -27.0634)
(2.04953 -0.0451817 -27.0644)
(1.83996 0.0232321 -27.0713)
(1.56144 0.0443612 -27.0694)
(1.54354 0.0512508 -27.0738)
(1.38713 0.0523026 -27.0719)
(1.41085 0.0511944 -27.0755)
(1.29728 0.0498684 -27.074)
(1.32912 0.0485579 -27.0768)
(1.23934 0.0468516 -27.0755)
(1.27158 0.0466763 -27.0777)
(1.19842 0.0434415 -27.0765)
(1.22893 0.0460807 -27.078)
(1.16775 0.0372247 -27.0769)
(1.19604 0.0474088 -27.078)
(1.14181 0.016002 -27.077)
(1.15712 0.0454692 -27.0779)
(1.13453 -0.0941226 -27.0769)
(0.907786 -0.122925 -27.0763)
(4.49816 0.192955 0.00521066)
(3.73224 0.281848 0.00358154)
(3.12944 0.243743 0.00437637)
(2.54335 0.166975 0.00332629)
(2.27039 0.116708 0.00408982)
(1.98763 0.0830972 0.00325729)
(1.90721 0.0671622 0.00393602)
(1.75936 0.0582588 0.00322544)
(1.7398 0.0543617 0.00380414)
(1.6453 0.0523342 0.00318646)
(1.64194 0.0507921 0.00367525)
(1.57404 0.0510288 0.00313866)
(1.57512 0.048341 0.00355213)
(1.5237 0.0516748 0.00308775)
(1.52625 0.0422665 0.00343884)
(1.48809 0.0555158 0.00303725)
(1.48652 0.0152101 0.00333961)
(1.49475 0.0615568 0.00298663)
(1.42643 -0.1273 0.00328512)
(1.85691 -0.171242 0.00287782)
(4.63482 0.109881 0.00332618)
(4.6683 0.234726 0.00201002)
(4.81104 0.214908 0.00276353)
(4.67764 0.16216 0.00172675)
(4.65366 0.106821 0.00248392)
(4.48317 0.0632201 0.00164875)
(4.43802 0.0342259 0.0023234)
(4.29621 0.0158133 0.00161096)
(4.26046 0.00381459 0.00218729)
(4.14994 -0.00393333 0.00156896)
(4.12365 -0.00925947 0.00205602)
(4.037 -0.014083 0.0015198)
(4.01835 -0.0152128 0.00193068)
(3.9472 -0.0213982 0.00146872)
(3.93841 -0.01521 0.00181302)
(3.86834 -0.0286489 0.00141927)
(3.88476 -0.00552228 0.00169786)
(3.77003 -0.0268346 0.00136475)
(3.86972 0.00792 0.00155786)
(3.45067 0.0664967 0.00118188)
(4.56603 0.0616665 0.00463213)
(4.72516 0.187338 0.00340719)
(5.06224 0.219085 0.00412789)
(5.17798 0.196941 0.00307924)
(5.37391 0.166836 0.00382465)
(5.3932 0.135591 0.00298366)
(5.48917 0.113957 0.00365902)
(5.46913 0.0973512 0.00294733)
(5.52079 0.0856945 0.00352719)
(5.4922 0.0769388 0.00291057)
(5.52266 0.0695153 0.00340134)
(5.49572 0.0644776 0.00286548)
(5.51251 0.058293 0.00328116)
(5.49283 0.0562302 0.00281615)
(5.49476 0.0479663 0.0031715)
(5.49437 0.0508879 0.00276644)
(5.46757 0.0289055 0.00308285)
(5.52045 0.0427214 0.00272017)
(5.44377 -0.035467 0.0030692)
(5.59584 -0.0458618 0.00268444)
(4.52351 0.029137 0.00315914)
(4.58747 0.0724414 0.0020514)
(4.94685 0.0768633 0.00276179)
(5.11715 0.0692969 0.00173466)
(5.39698 0.056511 0.00247567)
(5.50334 0.0440525 0.00163436)
(5.68407 0.0347842 0.00230495)
(5.74554 0.0279731 0.00159128)
(5.87012 0.0230392 0.00216744)
(5.91057 0.0192995 0.0015501)
(6.00286 0.0163194 0.00203762)
(6.03135 0.0135077 0.00150282)
(6.10354 0.0118984 0.00191361)
(6.1214 0.00876041 0.00145307)
(6.1834 0.00948911 0.00179564)
(6.18276 0.00458767 0.0014031)
(6.2502 0.00935404 0.00167417)
(6.19093 0.00478493 0.00134066)
(6.29398 0.00632146 0.00149648)
(6.01573 0.0311047 0.00117616)
(4.55575 -2.09559e-08 0.00454304)
(4.67115 7.11564e-08 0.00343687)
(5.00262 2.52275e-09 0.00413554)
(5.16358 2.02209e-07 0.00309246)
(5.43512 1.18788e-07 0.00382916)
(5.54509 5.17681e-07 0.00298376)
(5.73309 6.25146e-07 0.0036566)
(5.80658 1.28843e-06 0.00294348)
(5.94445 2.31434e-06 0.00352324)
(6.00155 3.28638e-06 0.00290669)
(6.10855 7.10169e-06 0.00339793)
(6.15737 8.9768e-06 0.00286248)
(6.24055 1.95562e-05 0.00327871)
(6.28676 2.4841e-05 0.00281402)
(6.34535 5.24698e-05 0.00317056)
(6.40116 6.30921e-05 0.00276535)
(6.42465 0.000150216 0.00308684)
(6.51479 0.000168913 0.00272106)
(6.50352 0.000481323 0.00308806)
(6.61692 0.000694124 0.00270945)
(4.52351 -0.0291371 0.00315914)
(4.58747 -0.0724412 0.00205141)
(4.94685 -0.0768634 0.00276179)
(5.11715 -0.0692963 0.00173466)
(5.39698 -0.0565111 0.00247567)
(5.50335 -0.044051 0.00163436)
(5.68407 -0.0347837 0.00230495)
(5.74554 -0.0279691 0.00159128)
(5.87012 -0.0230368 0.00216744)
(5.91058 -0.0192884 0.0015501)
(6.00286 -0.0163114 0.00203762)
(6.03137 -0.0134745 0.00150282)
(6.10354 -0.0118786 0.0019136)
(6.12145 -0.00865706 0.00145307)
(6.18342 -0.00944733 0.00179562)
(6.18289 -0.00427645 0.00140309)
(6.2503 -0.00924915 0.00167412)
(6.19128 -0.00395021 0.00134061)
(6.29448 -0.00596475 0.00149658)
(6.01669 -0.0293201 0.001176)
(4.56603 -0.0616665 0.00463213)
(4.72516 -0.187338 0.00340719)
(5.06224 -0.219085 0.00412789)
(5.17798 -0.196941 0.00307925)
(5.37391 -0.166836 0.00382464)
(5.3932 -0.13559 0.00298366)
(5.48917 -0.113955 0.00365902)
(5.46914 -0.0973492 0.00294733)
(5.52079 -0.0856899 0.00352719)
(5.49222 -0.0769334 0.00291058)
(5.52266 -0.0695018 0.00340133)
(5.49576 -0.0644614 0.0028655)
(5.51252 -0.0582563 0.00328113)
(5.49295 -0.05618 0.0028162)
(5.49483 -0.0478698 0.00317141)
(5.49467 -0.0507394 0.00276655)
(5.46787 -0.0286308 0.00308266)
(5.52116 -0.0423512 0.00272037)
(5.44473 0.0363225 0.00306877)
(5.59768 0.0467623 0.0026845)
(4.63482 -0.109881 0.00332617)
(4.6683 -0.234726 0.00201002)
(4.81104 -0.214908 0.00276353)
(4.67765 -0.162159 0.00172675)
(4.65366 -0.106821 0.00248392)
(4.48317 -0.0632193 0.00164875)
(4.43802 -0.0342254 0.0023234)
(4.29621 -0.0158114 0.00161096)
(4.26047 -0.00381278 0.00218728)
(4.14996 0.00393853 0.00156896)
(4.12365 0.0092643 0.00205601)
(4.03707 0.0140988 0.00151982)
(4.01837 0.0152223 0.00193065)
(3.94739 0.0214485 0.00146875)
(3.93847 0.0152209 0.00181294)
(3.86888 0.0288045 0.00141935)
(3.88496 0.00552503 0.00169767)
(3.77158 0.0272689 0.00136488)
(3.87031 -0.00777698 0.00155762)
(3.45544 -0.065275 0.00118203)
(4.49816 -0.192955 0.00521066)
(3.73224 -0.281848 0.00358153)
(3.12944 -0.243743 0.00437636)
(2.54335 -0.166975 0.00332629)
(2.27039 -0.116708 0.00408981)
(1.98763 -0.0830972 0.00325729)
(1.90721 -0.0671617 0.00393601)
(1.75936 -0.058259 0.00322544)
(1.73981 -0.0543601 0.00380413)
(1.64531 -0.0523347 0.00318646)
(1.64196 -0.0507874 0.00367524)
(1.57409 -0.0510298 0.00313867)
(1.57517 -0.0483277 0.00355211)
(1.52381 -0.0516751 0.0030878)
(1.52642 -0.0422312 0.00343876)
(1.48834 -0.0555077 0.00303739)
(1.48706 -0.0151303 0.00333934)
(1.49536 -0.0615621 0.00298711)
(1.42772 0.127336 0.00328381)
(1.85919 0.170483 0.0028804)
(4.45648 0.0663091 -1.53984e-09)
(4.22447 0.122429 -1.57042e-09)
(3.84807 0.134153 -1.56646e-09)
(3.4819 0.119678 -1.58993e-09)
(3.12107 0.094957 -1.62577e-09)
(2.82286 0.0706237 -1.66642e-09)
(2.57279 0.0475452 -1.70371e-09)
(2.38076 0.0302006 -1.72962e-09)
(2.23546 0.0158471 -1.76274e-09)
(2.12402 0.00677893 -1.78623e-09)
(2.0473 -0.000704483 -1.80373e-09)
(1.98303 -0.0040322 -1.78549e-09)
(1.94368 -0.00808354 -1.74949e-09)
(1.90483 -0.00764477 -1.69573e-09)
(1.88252 -0.0116624 -1.64297e-09)
(1.86214 -0.00723567 -1.59658e-09)
(1.83772 -0.0158906 -1.55921e-09)
(1.85136 -0.00685883 -1.54577e-09)
(1.79238 -0.0277454 -1.54337e-09)
(1.89685 -0.0533767 -1.56344e-09)
(4.51477 0.0584477 -1.65979e-09)
(4.64679 0.113023 -1.6928e-09)
(4.7406 0.146112 -1.69014e-09)
(4.82074 0.15746 -1.67739e-09)
(4.84098 0.153981 -1.64268e-09)
(4.84006 0.139272 -1.59406e-09)
(4.80949 0.12112 -1.55676e-09)
(4.7686 0.101064 -1.54687e-09)
(4.72127 0.084305 -1.58579e-09)
(4.66881 0.0688849 -1.63357e-09)
(4.62185 0.0580954 -1.67432e-09)
(4.57002 0.0481076 -1.67409e-09)
(4.5298 0.0422907 -1.65211e-09)
(4.4823 0.0357795 -1.60678e-09)
(4.4512 0.0327479 -1.57457e-09)
(4.40775 0.0291988 -1.53741e-09)
(4.38706 0.02509 -1.52923e-09)
(4.34639 0.0291747 -1.49264e-09)
(4.33177 0.0154263 -1.48615e-09)
(4.29372 0.0374012 -1.47685e-09)
(4.50445 0.0220862 -1.66731e-09)
(4.62378 0.0569239 -1.69402e-09)
(4.7436 0.0842287 -1.70194e-09)
(4.90795 0.098713 -1.72904e-09)
(5.04968 0.101895 -1.74801e-09)
(5.19082 0.097687 -1.73187e-09)
(5.30318 0.088261 -1.68996e-09)
(5.39922 0.0779259 -1.63605e-09)
(5.47439 0.0672173 -1.60784e-09)
(5.53339 0.0583525 -1.59252e-09)
(5.58129 0.0503074 -1.59897e-09)
(5.6176 0.044509 -1.59359e-09)
(5.64821 0.0387444 -1.59342e-09)
(5.67312 0.0356614 -1.57757e-09)
(5.69192 0.0301684 -1.59239e-09)
(5.71291 0.0305581 -1.61339e-09)
(5.72284 0.020993 -1.66498e-09)
(5.74257 0.0276344 -1.68341e-09)
(5.75114 0.0061019 -1.71108e-09)
(5.75953 0.0106578 -1.67321e-09)
(4.50284 0.0176811 -1.6708e-09)
(4.59784 0.0346741 -1.69516e-09)
(4.70482 0.0464809 -1.69973e-09)
(4.86424 0.0523571 -1.71952e-09)
(5.01508 0.0543192 -1.73389e-09)
(5.17725 0.0525687 -1.72892e-09)
(5.32018 0.0491421 -1.71292e-09)
(5.45369 0.0444077 -1.68906e-09)
(5.57084 0.0400934 -1.68295e-09)
(5.67372 0.0357925 -1.67584e-09)
(5.76788 0.0325875 -1.67794e-09)
(5.84829 0.0295759 -1.65782e-09)
(5.92684 0.0274864 -1.64241e-09)
(5.99163 0.0255858 -1.61596e-09)
(6.06117 0.0237604 -1.61711e-09)
(6.11166 0.0234965 -1.63575e-09)
(6.18083 0.019773 -1.67425e-09)
(6.20688 0.0242638 -1.72082e-09)
(6.29165 0.0143533 -1.75111e-09)
(6.2624 0.0294372 -1.794e-09)
(4.5035 -3.99543e-08 -1.67191e-09)
(4.61026 1.17458e-07 -1.69666e-09)
(4.71832 -7.27368e-08 -1.7005e-09)
(4.87674 3.04258e-07 -1.71244e-09)
(5.02369 5.6571e-11 -1.71505e-09)
(5.18418 7.78156e-07 -1.70355e-09)
(5.32723 5.12664e-07 -1.69527e-09)
(5.46382 1.97308e-06 -1.68837e-09)
(5.58542 2.2324e-06 -1.69929e-09)
(5.69525 5.38976e-06 -1.70111e-09)
(5.7963 6.50644e-06 -1.70483e-09)
(5.88668 1.62735e-05 -1.69276e-09)
(5.97291 1.52913e-05 -1.69261e-09)
(6.05083 4.97466e-05 -1.69395e-09)
(6.12712 3.43137e-05 -1.71779e-09)
(6.19486 0.000138152 -1.7365e-09)
(6.2689 9.70385e-05 -1.75994e-09)
(6.31688 0.000325515 -1.76825e-09)
(6.41329 0.000347632 -1.77611e-09)
(6.40707 0.000657585 -1.79417e-09)
(4.50284 -0.0176812 -1.67176e-09)
(4.59784 -0.0346738 -1.69769e-09)
(4.70482 -0.046481 -1.69994e-09)
(4.86424 -0.0523564 -1.70312e-09)
(5.01508 -0.0543193 -1.69306e-09)
(5.17726 -0.052567 -1.67747e-09)
(5.32018 -0.0491414 -1.67931e-09)
(5.45369 -0.0444033 -1.69249e-09)
(5.57084 -0.04009 -1.72114e-09)
(5.67372 -0.0357806 -1.73203e-09)
(5.76788 -0.0325777 -1.73899e-09)
(5.8483 -0.02954 -1.73759e-09)
(5.92685 -0.0274646 -1.75697e-09)
(5.99165 -0.025477 -1.78777e-09)
(6.06121 -0.023715 -1.83051e-09)
(6.11172 -0.0231972 -1.84258e-09)
(6.18097 -0.0196358 -1.84344e-09)
(6.20702 -0.0235652 -1.80816e-09)
(6.29207 -0.0137879 -1.7929e-09)
(6.26286 -0.0280618 -1.79114e-09)
(4.50445 -0.0220863 -1.67565e-09)
(4.62378 -0.0569237 -1.69853e-09)
(4.7436 -0.0842288 -1.69586e-09)
(4.90795 -0.0987125 -1.68903e-09)
(5.04968 -0.101895 -1.6755e-09)
(5.19082 -0.0976856 -1.6757e-09)
(5.30318 -0.08826 -1.71021e-09)
(5.39923 -0.0779224 -1.75554e-09)
(5.47439 -0.0672131 -1.80311e-09)
(5.53341 -0.058343 -1.81684e-09)
(5.58128 -0.0502956 -1.82086e-09)
(5.61764 -0.0444805 -1.81121e-09)
(5.64821 -0.0387179 -1.82593e-09)
(5.67323 -0.035574 -1.84729e-09)
(5.69198 -0.0301125 -1.86926e-09)
(5.71314 -0.0303153 -1.86587e-09)
(5.72312 -0.0208406 -1.84286e-09)
(5.74311 -0.0270699 -1.84019e-09)
(5.75204 -0.00554503 -1.83257e-09)
(5.76089 -0.00957622 -1.92409e-09)
(4.51477 -0.0584477 -1.67985e-09)
(4.64679 -0.113022 -1.69801e-09)
(4.7406 -0.146112 -1.70477e-09)
(4.82074 -0.15746 -1.73581e-09)
(4.84098 -0.153981 -1.77961e-09)
(4.84006 -0.139271 -1.82351e-09)
(4.80949 -0.121119 -1.86209e-09)
(4.76861 -0.101061 -1.865e-09)
(4.72126 -0.0843018 -1.83886e-09)
(4.66885 -0.0688781 -1.78574e-09)
(4.62184 -0.0580877 -1.7556e-09)
(4.57012 -0.0480858 -1.74764e-09)
(4.5298 -0.0422771 -1.78656e-09)
(4.48254 -0.0357103 -1.83383e-09)
(4.45124 -0.0327287 -1.89407e-09)
(4.40832 -0.0290042 -1.93495e-09)
(4.38731 -0.0250393 -1.9855e-09)
(4.34775 -0.0287305 -2.02813e-09)
(4.33266 -0.015152 -2.06263e-09)
(4.29703 -0.0365952 -2.1585e-09)
(4.45648 -0.066309 -1.70129e-09)
(4.22447 -0.122429 -1.72612e-09)
(3.84807 -0.134153 -1.74541e-09)
(3.4819 -0.119678 -1.75187e-09)
(3.12107 -0.0949567 -1.73249e-09)
(2.82286 -0.0706236 -1.68319e-09)
(2.57279 -0.0475443 -1.63554e-09)
(2.38077 -0.0302006 -1.58562e-09)
(2.23547 -0.0158446 -1.55669e-09)
(2.12404 -0.00677894 -1.53455e-09)
(2.04732 0.000710508 -1.54518e-09)
(1.9831 0.00403345 -1.57418e-09)
(1.94375 0.00809644 -1.63436e-09)
(1.905 0.0076533 -1.69333e-09)
(1.88274 0.0116861 -1.76633e-09)
(1.86254 0.00726861 -1.8183e-09)
(1.83832 0.0159416 -1.88079e-09)
(1.85251 0.00693045 -1.90012e-09)
(1.79338 0.0279032 -1.92574e-09)
(1.90113 0.0532985 -1.88421e-09)
(4.49816 0.192955 -0.00521066)
(3.73224 0.281848 -0.00358154)
(3.12944 0.243743 -0.00437636)
(2.54335 0.166975 -0.00332629)
(2.27039 0.116708 -0.00408981)
(1.98763 0.0830972 -0.00325729)
(1.90721 0.0671622 -0.00393601)
(1.75936 0.0582588 -0.00322544)
(1.7398 0.0543617 -0.00380414)
(1.6453 0.0523342 -0.00318646)
(1.64194 0.0507921 -0.00367525)
(1.57404 0.0510288 -0.00313866)
(1.57512 0.048341 -0.00355213)
(1.5237 0.0516748 -0.00308775)
(1.52625 0.0422665 -0.00343884)
(1.48809 0.0555158 -0.00303725)
(1.48652 0.0152101 -0.00333961)
(1.49475 0.0615568 -0.00298663)
(1.42643 -0.1273 -0.00328512)
(1.85691 -0.171242 -0.00287782)
(4.63482 0.109881 -0.00332618)
(4.6683 0.234726 -0.00201002)
(4.81104 0.214908 -0.00276353)
(4.67764 0.16216 -0.00172675)
(4.65366 0.106821 -0.00248392)
(4.48317 0.0632201 -0.00164875)
(4.43802 0.0342259 -0.0023234)
(4.29621 0.0158133 -0.00161096)
(4.26046 0.0038146 -0.00218729)
(4.14994 -0.00393332 -0.00156896)
(4.12365 -0.00925946 -0.00205602)
(4.037 -0.014083 -0.00151981)
(4.01835 -0.0152128 -0.00193068)
(3.9472 -0.0213982 -0.00146873)
(3.93841 -0.01521 -0.00181302)
(3.86834 -0.0286489 -0.00141927)
(3.88476 -0.00552232 -0.00169786)
(3.77003 -0.0268346 -0.00136475)
(3.86972 0.00791995 -0.00155786)
(3.45067 0.0664966 -0.00118189)
(4.56603 0.0616665 -0.00463213)
(4.72516 0.187338 -0.00340719)
(5.06224 0.219085 -0.00412789)
(5.17798 0.196941 -0.00307925)
(5.37391 0.166836 -0.00382465)
(5.3932 0.135591 -0.00298366)
(5.48917 0.113957 -0.00365903)
(5.46913 0.0973512 -0.00294733)
(5.52079 0.0856944 -0.0035272)
(5.4922 0.0769388 -0.00291058)
(5.52266 0.0695153 -0.00340134)
(5.49572 0.0644776 -0.00286549)
(5.51251 0.058293 -0.00328117)
(5.49283 0.0562302 -0.00281616)
(5.49476 0.0479662 -0.0031715)
(5.49437 0.0508879 -0.00276644)
(5.46757 0.0289055 -0.00308285)
(5.52045 0.0427214 -0.00272017)
(5.44377 -0.035467 -0.00306921)
(5.59584 -0.0458618 -0.00268444)
(4.52351 0.029137 -0.00315914)
(4.58747 0.0724414 -0.00205141)
(4.94685 0.0768633 -0.00276179)
(5.11715 0.0692969 -0.00173466)
(5.39698 0.056511 -0.00247568)
(5.50334 0.0440525 -0.00163437)
(5.68407 0.0347842 -0.00230495)
(5.74554 0.0279731 -0.00159128)
(5.87012 0.0230392 -0.00216744)
(5.91057 0.0192995 -0.0015501)
(6.00286 0.0163194 -0.00203763)
(6.03135 0.0135077 -0.00150282)
(6.10354 0.0118984 -0.00191362)
(6.1214 0.00876036 -0.00145307)
(6.1834 0.00948905 -0.00179565)
(6.18276 0.00458761 -0.0014031)
(6.2502 0.00935399 -0.00167417)
(6.19093 0.00478488 -0.00134067)
(6.29398 0.00632143 -0.00149648)
(6.01573 0.0311046 -0.00117616)
(4.55575 -2.34941e-08 -0.00454305)
(4.67115 6.73079e-08 -0.00343688)
(5.00262 -2.85824e-09 -0.00413555)
(5.16358 1.97527e-07 -0.00309246)
(5.43512 1.14752e-07 -0.00382916)
(5.54509 5.11361e-07 -0.00298376)
(5.73309 6.12445e-07 -0.00365661)
(5.80658 1.26699e-06 -0.00294348)
(5.94445 2.28588e-06 -0.00352324)
(6.00155 3.25319e-06 -0.00290669)
(6.10855 7.06631e-06 -0.00339793)
(6.15737 8.93908e-06 -0.00286248)
(6.24055 1.95162e-05 -0.00327872)
(6.28676 2.47999e-05 -0.00281403)
(6.34535 5.24289e-05 -0.00317056)
(6.40116 6.30606e-05 -0.00276535)
(6.42465 0.000150193 -0.00308685)
(6.51479 0.000168904 -0.00272106)
(6.50352 0.000481323 -0.00308807)
(6.61692 0.00069413 -0.00270945)
(4.52351 -0.0291371 -0.00315914)
(4.58747 -0.0724412 -0.00205141)
(4.94685 -0.0768634 -0.00276179)
(5.11715 -0.0692963 -0.00173466)
(5.39698 -0.0565111 -0.00247568)
(5.50335 -0.044051 -0.00163437)
(5.68407 -0.0347837 -0.00230495)
(5.74554 -0.0279691 -0.00159129)
(5.87012 -0.0230368 -0.00216744)
(5.91058 -0.0192884 -0.0015501)
(6.00286 -0.0163114 -0.00203762)
(6.03137 -0.0134745 -0.00150282)
(6.10354 -0.0118787 -0.00191361)
(6.12145 -0.00865711 -0.00145307)
(6.18342 -0.00944739 -0.00179562)
(6.18289 -0.00427651 -0.00140309)
(6.2503 -0.0092492 -0.00167412)
(6.19128 -0.00395026 -0.00134061)
(6.29448 -0.00596477 -0.00149658)
(6.01669 -0.0293201 -0.001176)
(4.56603 -0.0616665 -0.00463213)
(4.72516 -0.187338 -0.00340719)
(5.06224 -0.219085 -0.00412789)
(5.17798 -0.196941 -0.00307925)
(5.37391 -0.166836 -0.00382465)
(5.3932 -0.13559 -0.00298366)
(5.48917 -0.113955 -0.00365902)
(5.46914 -0.0973492 -0.00294733)
(5.52079 -0.0856899 -0.00352719)
(5.49222 -0.0769335 -0.00291058)
(5.52266 -0.0695018 -0.00340133)
(5.49576 -0.0644615 -0.00286551)
(5.51252 -0.0582563 -0.00328113)
(5.49295 -0.05618 -0.00281621)
(5.49483 -0.0478698 -0.00317141)
(5.49467 -0.0507394 -0.00276656)
(5.46787 -0.0286308 -0.00308266)
(5.52116 -0.0423512 -0.00272038)
(5.44473 0.0363225 -0.00306877)
(5.59768 0.0467623 -0.0026845)
(4.63482 -0.109881 -0.00332618)
(4.6683 -0.234726 -0.00201002)
(4.81104 -0.214908 -0.00276353)
(4.67765 -0.162159 -0.00172675)
(4.65366 -0.106821 -0.00248392)
(4.48317 -0.0632193 -0.00164876)
(4.43802 -0.0342254 -0.0023234)
(4.29621 -0.0158114 -0.00161096)
(4.26047 -0.00381276 -0.00218728)
(4.14996 0.00393854 -0.00156897)
(4.12365 0.00926431 -0.00205601)
(4.03707 0.0140988 -0.00151982)
(4.01837 0.0152223 -0.00193065)
(3.94739 0.0214485 -0.00146876)
(3.93847 0.0152209 -0.00181295)
(3.86888 0.0288045 -0.00141935)
(3.88496 0.005525 -0.00169767)
(3.77158 0.0272689 -0.00136489)
(3.87031 -0.00777702 -0.00155762)
(3.45544 -0.065275 -0.00118203)
(4.49816 -0.192955 -0.00521066)
(3.73224 -0.281848 -0.00358154)
(3.12944 -0.243743 -0.00437637)
(2.54335 -0.166975 -0.0033263)
(2.27039 -0.116708 -0.00408982)
(1.98763 -0.0830972 -0.0032573)
(1.90721 -0.0671617 -0.00393602)
(1.75936 -0.058259 -0.00322545)
(1.73981 -0.0543601 -0.00380414)
(1.64531 -0.0523347 -0.00318647)
(1.64196 -0.0507874 -0.00367525)
(1.57409 -0.0510298 -0.00313867)
(1.57517 -0.0483277 -0.00355212)
(1.52381 -0.0516751 -0.0030878)
(1.52642 -0.0422312 -0.00343877)
(1.48834 -0.0555077 -0.00303739)
(1.48706 -0.0151303 -0.00333935)
(1.49536 -0.0615621 -0.00298712)
(1.42772 0.127337 -0.00328382)
(1.85919 0.170483 -0.00288041)
(3.51223 0.420417 27.0277)
(2.80293 0.150686 27.0634)
(2.04953 0.0451817 27.0644)
(1.83996 -0.0232321 27.0713)
(1.56144 -0.0443613 27.0694)
(1.54354 -0.0512506 27.0738)
(1.38713 -0.0523028 27.0719)
(1.41084 -0.0511939 27.0755)
(1.29727 -0.049869 27.074)
(1.32911 -0.0485568 27.0768)
(1.23933 -0.0468537 27.0755)
(1.27154 -0.0466741 27.0776)
(1.19839 -0.0434492 27.0765)
(1.22884 -0.0460773 27.0779)
(1.16764 -0.037241 27.0771)
(1.19583 -0.047391 27.0777)
(1.14142 -0.0160555 27.0777)
(1.15663 -0.045412 27.0766)
(1.13339 0.0941677 27.0796)
(0.905882 0.12356 27.0684)
(4.60181 0.549291 27.0527)
(4.79433 0.379465 27.0798)
(4.50219 0.291072 27.0782)
(4.44489 0.191666 27.0839)
(4.15043 0.134951 27.0831)
(4.11678 0.103172 27.0874)
(3.8897 0.0833864 27.0873)
(3.88695 0.0719033 27.0911)
(3.711 0.0632198 27.0918)
(3.72519 0.0576933 27.095)
(3.58544 0.052378 27.0958)
(3.60811 0.0499248 27.098)
(3.49393 0.04463 27.0986)
(3.52193 0.0461173 27.0994)
(3.42375 0.0355912 27.1)
(3.46219 0.0457364 27.0987)
(3.36482 0.0168152 27.1013)
(3.44555 0.0370695 27.095)
(3.30752 -0.0179022 27.1053)
(3.64873 -0.0742282 27.0729)
(4.72131 0.288969 27.0544)
(5.20609 0.212192 27.076)
(5.32279 0.191369 27.0669)
(5.56811 0.131354 27.0697)
(5.51828 0.0942856 27.0643)
(5.6424 0.0686477 27.0674)
(5.55757 0.0502048 27.0643)
(5.63742 0.0374319 27.0681)
(5.55235 0.0275166 27.067)
(5.61056 0.0194946 27.071)
(5.53346 0.0138789 27.0711)
(5.57768 0.00781259 27.0749)
(5.51162 0.00549736 27.0756)
(5.54302 -0.000474779 27.0784)
(5.49257 0.00180287 27.0794)
(5.50297 -0.00617964 27.08)
(5.48091 0.00710549 27.0816)
(5.43863 -0.00486989 27.0789)
(5.46206 0.0392216 27.0825)
(5.3053 0.0552192 27.0595)
(4.69934 0.169383 27.0632)
(5.12317 0.131711 27.085)
(5.33973 0.12477 27.0776)
(5.68734 0.0952447 27.078)
(5.76162 0.0767153 27.0735)
(5.9901 0.0645352 27.0742)
(6.01214 0.0556562 27.0719)
(6.17521 0.0497606 27.0734)
(6.17691 0.0446325 27.0731)
(6.30038 0.0407427 27.0752)
(6.29191 0.0369774 27.0759)
(6.3896 0.0343073 27.0783)
(6.37402 0.0307835 27.0797)
(6.45662 0.0297959 27.0819)
(6.43224 0.0245748 27.0835)
(6.51367 0.0270156 27.0848)
(6.47334 0.0155596 27.0858)
(6.58416 0.0214037 27.0857)
(6.5157 0.00425368 27.0857)
(6.74974 -0.0102994 27.0642)
(4.70068 -1.08225e-08 27.0583)
(5.11958 9.40763e-08 27.0788)
(5.34613 -1.43673e-08 27.0683)
(5.70886 2.81023e-07 27.0691)
(5.79824 5.47419e-08 27.0622)
(6.04325 7.4344e-07 27.0637)
(6.08504 4.55804e-07 27.0593)
(6.26752 1.8434e-06 27.0617)
(6.2925 2.08388e-06 27.0596)
(6.43542 4.84002e-06 27.0626)
(6.45189 6.90291e-06 27.0618)
(6.56486 1.55814e-05 27.065)
(6.57736 1.65694e-05 27.0652)
(6.66359 5.79854e-05 27.0684)
(6.67925 2.7919e-05 27.069)
(6.7317 0.000197868 27.0717)
(6.76637 5.61616e-05 27.0717)
(6.75645 0.000554953 27.0733)
(6.82425 0.000200503 27.072)
(6.71279 0.000860745 27.0527)
(4.69934 -0.169383 27.0632)
(5.12317 -0.131711 27.085)
(5.33973 -0.12477 27.0776)
(5.68734 -0.0952443 27.078)
(5.76162 -0.0767149 27.0735)
(5.9901 -0.0645341 27.0742)
(6.01214 -0.0556549 27.0719)
(6.17521 -0.0497581 27.0735)
(6.17691 -0.0446274 27.0731)
(6.30039 -0.0407369 27.0753)
(6.29191 -0.0369612 27.0759)
(6.38962 -0.0342906 27.0784)
(6.37402 -0.0307415 27.0796)
(6.45669 -0.0297361 27.0821)
(6.43228 -0.0244838 27.0833)
(6.51382 -0.0268055 27.0851)
(6.47354 -0.0153485 27.0854)
(6.58448 -0.0208316 27.0861)
(6.51627 -0.00351299 27.0853)
(6.75057 0.0116971 27.0646)
(4.72131 -0.288969 27.0543)
(5.20609 -0.212192 27.076)
(5.32279 -0.191369 27.0669)
(5.56811 -0.131353 27.0697)
(5.51828 -0.0942854 27.0643)
(5.6424 -0.0686466 27.0674)
(5.55757 -0.0502039 27.0643)
(5.63742 -0.0374292 27.0681)
(5.55235 -0.0275133 27.0669)
(5.61058 -0.0194878 27.0711)
(5.53346 -0.013869 27.071)
(5.57774 -0.00779103 27.075)
(5.51162 -0.00547676 27.0754)
(5.54318 0.000555123 27.0788)
(5.49262 -0.00178165 27.0788)
(5.50336 0.0064482 27.081)
(5.48117 -0.00710527 27.0801)
(5.43955 0.00560252 27.0811)
(5.46313 -0.0390255 27.0795)
(5.30783 -0.053709 27.0635)
(4.60181 -0.549291 27.0527)
(4.79433 -0.379465 27.0798)
(4.50219 -0.291072 27.0781)
(4.44489 -0.191666 27.0839)
(4.15043 -0.134951 27.0831)
(4.11679 -0.103172 27.0874)
(3.88971 -0.0833853 27.0873)
(3.88696 -0.0719027 27.0911)
(3.71101 -0.0632165 27.0918)
(3.72521 -0.057692 27.095)
(3.58545 -0.0523682 27.0957)
(3.60817 -0.0499204 27.0982)
(3.49397 -0.0446054 27.0983)
(3.52209 -0.0460968 27.0998)
(3.42392 -0.0355371 27.0993)
(3.46255 -0.0456429 27.0999)
(3.36545 -0.0166917 27.099)
(3.44633 -0.0368117 27.0991)
(3.30917 0.0182913 27.0978)
(3.6509 0.0744216 27.0864)
(3.51223 -0.420417 27.0277)
(2.80293 -0.150686 27.0634)
(2.04953 -0.0451817 27.0644)
(1.83996 0.0232322 27.0713)
(1.56144 0.0443613 27.0694)
(1.54354 0.0512509 27.0738)
(1.38713 0.0523026 27.0719)
(1.41085 0.0511945 27.0755)
(1.29728 0.0498685 27.074)
(1.32912 0.0485579 27.0768)
(1.23934 0.0468516 27.0755)
(1.27158 0.0466763 27.0777)
(1.19842 0.0434415 27.0765)
(1.22893 0.0460807 27.078)
(1.16775 0.0372247 27.0769)
(1.19604 0.0474088 27.078)
(1.14181 0.016002 27.077)
(1.15712 0.0454692 27.0779)
(1.13453 -0.0941226 27.0769)
(0.907786 -0.122925 27.0763)
(1.03979 -0.156743 -27.1267)
(1.14809 -0.144962 -27.2538)
(1.11097 -0.114679 -27.338)
(1.13246 -0.111401 -27.4062)
(1.10524 -0.111282 -27.4598)
(1.12267 -0.111547 -27.5086)
(1.10202 -0.112293 -27.5516)
(1.11674 -0.112706 -27.5934)
(1.10052 -0.113362 -27.6312)
(1.11314 -0.113728 -27.6669)
(1.10004 -0.114269 -27.6989)
(1.11106 -0.114602 -27.7294)
(1.10026 -0.115081 -27.7579)
(1.11007 -0.115401 -27.7855)
(1.10102 -0.115823 -27.8113)
(1.10987 -0.116102 -27.8354)
(1.10216 -0.116449 -27.857)
(1.11021 -0.116674 -27.8765)
(1.10354 -0.116952 -27.8937)
(1.11092 -0.117127 -27.9092)
(1.10507 -0.117341 -27.9225)
(1.11187 -0.117461 -27.934)
(1.10669 -0.117608 -27.9433)
(1.11297 -0.117671 -27.9506)
(1.10833 -0.117759 -27.956)
(1.11416 -0.117777 -27.9599)
(1.10998 -0.117825 -27.9625)
(1.1154 -0.11782 -27.9642)
(1.11163 -0.117846 -27.9653)
(1.11668 -0.117831 -27.9659)
(1.11326 -0.117849 -27.9662)
(1.11799 -0.117831 -27.9664)
(1.11488 -0.117846 -27.9665)
(1.11931 -0.117829 -27.9665)
(1.11649 -0.117842 -27.9665)
(1.12064 -0.117828 -27.9665)
(1.11806 -0.11784 -27.9665)
(1.12196 -0.117827 -27.9664)
(1.11961 -0.117839 -27.9664)
(1.12326 -0.117827 -27.9664)
(1.12112 -0.117838 -27.9664)
(1.12455 -0.117828 -27.9663)
(1.12259 -0.117839 -27.9663)
(1.12582 -0.117829 -27.9663)
(1.12402 -0.117839 -27.9663)
(1.12706 -0.117831 -27.9662)
(1.12542 -0.117841 -27.9662)
(1.12828 -0.117834 -27.9662)
(1.12677 -0.117843 -27.9662)
(1.12947 -0.117836 -27.9662)
(1.12809 -0.117845 -27.9661)
(1.13063 -0.117839 -27.9661)