/*--------------------------------*- C++ -*----------------------------------*\
  =========                 |
  \\      /  F ield         | OpenFOAM: The Open Source CFD Toolbox
   \\    /   O peration     | Website:  https://openfoam.org
    \\  /    A nd           | Version:  7
     \\/     M anipulation  |
\*---------------------------------------------------------------------------*/
FoamFile
{
    version     2.0;
    format      ascii;
    class       surfaceScalarField;
    location    "1.5225";
    object      phi_0;
}
// * * * * * * * * * * * * * * * * * * * * * * * * * * * * * * * * * * * * * //

dimensions      [1 0 -1 0 0 0 0];

internalField   nonuniform List<scalar> 
21708
(
0.00129874
0.00100505
1.36253e-05
0.000900043
0.000391761
6.19584e-06
0.00069017
0.000197424
1.16852e-05
0.000600401
8.24034e-05
6.7083e-06
0.000548391
4.06906e-05
1.08221e-05
0.000517881
2.32099e-05
6.91598e-06
0.000494765
1.26417e-05
1.01188e-05
0.000478621
8.69439e-06
7.0552e-06
0.000464325
4.28581e-06
9.55563e-06
0.00045379
2.90302e-06
7.13781e-06
0.00044379
4.18457e-07
9.07427e-06
0.000436322
-2.04453e-07
7.16063e-06
0.000428903
-1.7483e-06
8.64538e-06
0.000423351
-2.11654e-06
7.13273e-06
0.000417591
-3.03933e-06
8.2524e-06
0.000413093
-3.11469e-06
7.06444e-06
0.000406999
-2.33214e-06
7.88112e-06
0.000403444
-3.94805e-06
6.96356e-06
0.000351319
4.39678e-05
7.63223e-06
2.4401e-05
6.53366e-06
0.000319857
0.00225484
0.0010644
2.848e-06
0.00206403
0.000585806
-3.95536e-06
0.00185865
0.000400403
1.63343e-06
0.0017153
0.000228224
-3.20857e-06
0.00161194
0.000142423
9.9211e-07
0.0015415
9.60152e-05
-2.87089e-06
0.0014859
6.74629e-05
3.69669e-07
0.00144535
5.15362e-05
-2.68236e-06
0.00140942
3.99807e-05
-1.64248e-07
0.00138211
3.23643e-05
-2.58002e-06
0.00135623
2.64803e-05
-6.33337e-07
0.00133628
2.18312e-05
-2.54723e-06
0.00131668
1.84302e-05
-1.05566e-06
0.00130143
1.5218e-05
-2.56889e-06
0.00128644
1.28845e-05
-1.44729e-06
0.00127342
1.20076e-05
-2.63214e-06
0.00126543
6.95399e-06
-1.83535e-06
0.00124958
1.40732e-05
-2.7191e-06
0.00129025
5.0752e-06
-2.32298e-06
-2.32712e-05
-3.26621e-06
0.00134064
0.00258169
0.000790348
9.595e-06
0.00267274
0.000490776
3.26871e-06
0.00266513
0.000398786
8.48699e-06
0.00262835
0.000260699
3.53983e-06
0.00257877
0.000183585
7.6595e-06
0.00253437
0.000135955
3.74896e-06
0.00249072
0.00010356
6.95159e-06
0.00245473
8.31515e-05
3.87846e-06
0.00242025
6.76602e-05
6.37682e-06
0.00239207
5.62088e-05
3.95262e-06
0.00236486
4.74345e-05
5.88847e-06
0.00234259
3.9773e-05
3.97094e-06
0.00232075
3.44702e-05
5.45565e-06
0.00230302
2.8643e-05
3.94023e-06
0.0022846
2.58577e-05
5.06081e-06
0.00227129
2.10187e-05
3.86896e-06
0.00225204
2.10368e-05
4.69552e-06
0.00224428
1.75576e-05
3.75187e-06
0.00221287
3.14469e-05
4.48729e-06
2.04382e-05
3.39658e-06
0.00216519
0.00258818
0.000515044
4.17096e-06
0.00274908
0.000331063
-1.88621e-06
0.0028547
0.000289162
3.28373e-06
0.0029158
0.000200448
-1.60813e-06
0.00294546
0.000150588
2.55162e-06
0.00296335
0.0001186
-1.32085e-06
0.00296852
9.57438e-05
1.91807e-06
0.00297135
8.08408e-05
-1.13509e-06
0.00296828
6.8831e-05
1.38285e-06
0.00296551
5.95879e-05
-1.03117e-06
0.00295959
5.20721e-05
9.15498e-07
0.00295461
4.54283e-05
-9.96059e-07
0.00294805
4.02519e-05
4.95079e-07
0.00294212
3.53277e-05
-1.01597e-06
0.00293636
3.12648e-05
1.05684e-07
0.00292932
2.88502e-05
-1.07962e-06
0.00292702
2.32861e-05
-2.79044e-07
0.00291879
2.65808e-05
-1.19029e-06
0.00293214
1.84066e-05
-7.8044e-07
7.67597e-06
-1.65115e-06
0.00294602
0.00257701
0.00024766
7.51332e-06
0.00274542
0.000160288
1.66734e-06
0.00288015
0.00014701
6.69565e-06
0.00297361
0.000104451
1.79371e-06
0.00303688
8.05977e-05
5.92649e-06
0.00308765
6.49897e-05
2.03795e-06
0.0031237
5.36763e-05
5.26045e-06
0.00315536
4.63001e-05
2.19654e-06
0.00317876
4.01632e-05
4.70423e-06
0.00320021
3.53838e-05
2.28505e-06
0.00321631
3.13571e-05
4.22554e-06
0.00323136
2.7721e-05
2.31113e-06
0.00324268
2.48541e-05
3.79812e-06
0.00325356
2.19388e-05
2.28491e-06
0.00326136
1.98779e-05
3.40598e-06
0.00326999
1.78183e-05
2.21557e-06
0.00327382
1.61994e-05
3.03863e-06
0.00328185
1.61684e-05
2.08955e-06
0.00328063
1.64931e-05
2.75707e-06
1.62605e-05
1.75202e-06
0.00326985
0.00255897
-3.71738e-11
5.77549e-06
0.00271854
2.4888e-10
1.60608e-08
0.0028598
-1.85706e-10
5.02368e-06
0.00296338
6.17893e-10
1.23648e-07
0.00303894
-2.51602e-10
4.25597e-06
0.00310275
1.53625e-09
3.71162e-07
0.00315205
3.11074e-10
3.60032e-06
0.00319712
3.80319e-09
5.39533e-07
0.00323365
3.31092e-09
3.05151e-06
0.00326791
8.83377e-09
6.34226e-07
0.00329627
1.3466e-08
2.5772e-06
0.00332295
2.39648e-08
6.6428e-07
0.00334532
3.69894e-08
2.15268e-06
0.00336631
8.56983e-08
6.4106e-07
0.00338419
6.79247e-08
1.76151e-06
0.00340097
3.1612e-07
5.74195e-07
0.00341553
9.51967e-08
1.38414e-06
0.00343009
9.28772e-07
4.49048e-07
0.00344486
4.31002e-07
9.73516e-07
1.69724e-06
7.14817e-08
0.00345896
0.00255897
-0.00024766
5.7755e-06
0.00271854
-0.000160287
1.60595e-08
0.0028598
-0.00014701
5.02368e-06
0.00296338
-0.00010445
1.23644e-07
0.00303894
-8.0598e-05
4.25598e-06
0.00310275
-6.4987e-05
3.71151e-07
0.00315205
-5.36753e-05
3.60033e-06
0.00319712
-4.62933e-05
5.39504e-07
0.00323365
-4.01558e-05
3.05155e-06
0.00326791
-3.53685e-05
6.34153e-07
0.00329627
-3.13283e-05
2.57728e-06
0.00332295
-2.76797e-05
6.64096e-07
0.00334532
-2.47755e-05
2.15289e-06
0.00336633
-2.17845e-05
6.40582e-07
0.0033842
-1.97322e-05
1.76209e-06
0.00340102
-1.72178e-05
5.73011e-07
0.00341556
-1.59959e-05
1.38608e-06
0.00343014
-1.43248e-05
4.46738e-07
0.00344491
-1.56536e-05
9.81522e-07
-1.27236e-05
6.82557e-08
0.00345888
0.00257701
-0.000515044
7.51332e-06
0.00274542
-0.000331063
1.66734e-06
0.00288015
-0.000289162
6.69564e-06
0.00297361
-0.000200447
1.79371e-06
0.00303688
-0.000150589
5.92649e-06
0.00308765
-0.000118597
2.03797e-06
0.0031237
-9.57432e-05
5.26044e-06
0.00315537
-8.08338e-05
2.19657e-06
0.00317877
-6.88253e-05
4.7042e-06
0.00320021
-5.9572e-05
2.28512e-06
0.00321631
-5.20486e-05
4.22546e-06
0.00323137
-4.53858e-05
2.31129e-06
0.0032427
-4.01879e-05
3.79791e-06
0.00325358
-3.51766e-05
2.28535e-06
0.00326142
-3.11537e-05
3.40537e-06
0.00327008
-2.82862e-05
2.21672e-06
0.003274
-2.31666e-05
3.03668e-06
0.00328219
-2.48979e-05
2.09163e-06
0.00328122
-1.78093e-05
2.74999e-06
-4.8297e-06
1.7538e-06
0.00327113
0.00258818
-0.000790348
4.17096e-06
0.00274908
-0.000490775
-1.88621e-06
0.0028547
-0.000398786
3.28373e-06
0.0029158
-0.000260699
-1.60813e-06
0.00294546
-0.000183585
2.55163e-06
0.00296335
-0.000135954
-1.32085e-06
0.00296853
-0.000103559
1.91809e-06
0.00297135
-8.31467e-05
-1.13511e-06
0.00296828
-6.76543e-05
1.3829e-06
0.00296552
-5.61982e-05
-1.03123e-06
0.0029596
-4.74126e-05
9.15596e-07
0.00295463
-3.9745e-05
-9.96222e-07
0.00294808
-3.44121e-05
4.95309e-07
0.0029422
-2.85362e-05
-1.01636e-06
0.00293644
-2.57574e-05
1.06252e-07
0.00292954
-2.0585e-05
-1.08051e-06
0.00292726
-2.09392e-05
-2.77221e-07
0.00291931
-1.6162e-05
-1.19221e-06
0.00293282
-3.10117e-05
-7.72546e-07
-1.79667e-05
-1.65412e-06
0.00294708
0.00258169
-0.0010644
9.595e-06
0.00267274
-0.000585806
3.26871e-06
0.00266513
-0.000400404
8.48699e-06
0.00262835
-0.000228223
3.53984e-06
0.00257877
-0.000142423
7.65951e-06
0.00253438
-9.60139e-05
3.74898e-06
0.00249072
-6.74622e-05
6.95159e-06
0.00245473
-5.15331e-05
3.87848e-06
0.00242025
-3.99772e-05
6.37679e-06
0.00239207
-3.23575e-05
3.95266e-06
0.00236488
-2.64674e-05
5.8884e-06
0.00234262
-2.18134e-05
3.97105e-06
0.0023208
-1.83965e-05
5.45548e-06
0.00230311
-1.515e-05
3.94057e-06
0.00228474
-1.2835e-05
5.06029e-06
0.00227159
-1.17308e-05
3.8699e-06
0.00225244
-6.96079e-06
4.69396e-06
0.00224518
-1.31724e-05
3.75355e-06
0.00221425
-5.11133e-06
4.48239e-06
2.42457e-05
3.39637e-06
0.00216806
0.00225484
-0.00100505
2.848e-06
0.00206403
-0.000391761
-3.95536e-06
0.00185865
-0.000197425
1.63343e-06
0.0017153
-8.24034e-05
-3.20856e-06
0.00161194
-4.06904e-05
9.92126e-07
0.00154151
-2.32095e-05
-2.87089e-06
0.0014859
-1.2641e-05
3.69688e-07
0.00144536
-8.69346e-06
-2.68238e-06
0.00140943
-4.28395e-06
-1.64213e-07
0.00138212
-2.90155e-06
-2.58007e-06
0.00135625
-4.12652e-07
-6.3325e-07
0.00133631
2.07777e-07
-2.54736e-06
0.00131674
1.7633e-06
-1.05545e-06
0.00130153
2.132e-06
-2.56917e-06
0.00128657
3.06692e-06
-1.44681e-06
0.00127375
3.19085e-06
-2.63283e-06
0.00126571
2.36902e-06
-1.83382e-06
0.00125048
4.22941e-06
-2.72102e-06
0.00129081
-4.36711e-05
-2.3161e-06
-2.37984e-05
-3.27104e-06
0.00134158
0.00129874
1.36253e-05
0.000900043
6.19587e-06
0.000690171
1.16852e-05
0.000600401
6.70833e-06
0.000548391
1.08221e-05
0.000517882
6.91601e-06
0.000494766
1.01189e-05
0.000478622
7.05524e-06
0.000464328
9.55563e-06
0.000453795
7.13787e-06
0.000443801
9.07424e-06
0.000436335
7.16075e-06
0.000428931
8.64527e-06
0.000423394
7.13305e-06
0.000417662
8.25201e-06
0.000413239
7.06529e-06
0.000407184
7.88005e-06
0.000403909
6.96525e-06
0.00035208
7.62994e-06
6.53503e-06
0.000321227
0.00190529
0.000421888
3.09097e-06
0.00138805
0.000517817
4.88696e-06
0.00104419
0.000352569
2.20405e-06
0.00086313
0.000183385
3.68553e-06
0.00077445
9.67589e-05
2.21603e-06
0.00072094
5.66903e-05
3.35004e-06
0.000687763
4.06077e-05
2.3523e-06
0.000658911
3.24292e-05
3.1004e-06
0.000638532
2.70609e-05
2.41752e-06
0.000618844
2.3441e-05
2.87837e-06
0.000604665
2.02934e-05
2.44441e-06
0.000590424
1.81811e-05
2.70943e-06
0.000579798
1.62861e-05
2.4676e-06
0.000569055
1.47394e-05
2.60127e-06
0.000560236
1.40152e-05
2.5068e-06
0.000551961
1.22483e-05
2.54199e-06
0.00054791
8.81647e-06
2.57349e-06
0.000530807
2.10198e-05
2.51484e-06
0.000633242
-9.79409e-05
2.62117e-06
-8.0058e-05
2.74091e-06
0.000716572
0.00241191
0.000321357
8.34989e-06
0.00235205
0.00056279
1.02285e-05
0.00222968
0.000468099
7.72165e-06
0.00209445
0.000305572
9.06273e-06
0.00198487
0.000198979
7.64727e-06
0.00189428
0.000135144
8.68412e-06
0.00182631
0.0001007
7.78015e-06
0.00176791
7.93123e-05
8.43717e-06
0.00172285
6.37353e-05
7.84193e-06
0.001682
5.31018e-05
8.22295e-06
0.00164959
4.37964e-05
7.8631e-06
0.00161919
3.75452e-05
8.05919e-06
0.00159422
3.18723e-05
7.88072e-06
0.00157067
2.73053e-05
7.9499e-06
0.00154967
2.5143e-05
7.91221e-06
0.00153229
1.8582e-05
7.88522e-06
0.0015099
2.08416e-05
7.97444e-06
0.00150683
1.29553e-05
7.84664e-06
0.00142197
-2.4083e-05
8.10625e-06
2.94024e-06
8.11422e-06
0.00132702
0.00243536
0.000208194
4.07496e-06
0.00256518
0.000429412
6.12702e-06
0.0026293
0.000408487
3.25168e-06
0.00262961
0.000303
5.02721e-06
0.00260895
0.000223265
3.25603e-06
0.00257515
0.000167298
4.6679e-06
0.00254479
0.000133863
3.51568e-06
0.00251245
0.000110567
4.44943e-06
0.00248543
9.30293e-05
3.67463e-06
0.00245777
8.00986e-05
4.24834e-06
0.00243457
6.87907e-05
3.75341e-06
0.00241104
6.06383e-05
4.08804e-06
0.00239123
5.3017e-05
3.81011e-06
0.00237078
4.73893e-05
3.98091e-06
0.00235439
4.23497e-05
3.87116e-06
0.0023346
3.78922e-05
3.92222e-06
0.00232521
3.05068e-05
3.94676e-06
0.00230242
3.50605e-05
3.91054e-06
0.00231158
-3.32809e-05
3.95223e-06
-1.5922e-05
4.09194e-06
0.00232914
0.00238728
0.000134685
7.2169e-06
0.00253024
0.000274732
9.13556e-06
0.00266518
0.000269372
6.72964e-06
0.00274678
0.000210903
8.13552e-06
0.00280142
0.000163718
6.66581e-06
0.00283001
0.00012888
7.72027e-06
0.0028508
0.000107498
6.78598e-06
0.00286033
9.18278e-05
7.46745e-06
0.00286793
7.9456e-05
6.85734e-06
0.00286948
6.9849e-05
7.25788e-06
0.00287085
6.10937e-05
6.88592e-06
0.00286864
5.44578e-05
7.09495e-06
0.0028668
4.81959e-05
6.90587e-06
0.00286286
4.31071e-05
6.98422e-06
0.00285889
3.92524e-05
6.93791e-06
0.00285461
3.388e-05
6.9206e-06
0.00284609
3.1412e-05
6.99837e-06
0.00284431
2.83108e-05
6.90294e-06
0.00280371
-1.08891e-06
7.14215e-06
2.23751e-05
7.14644e-06
0.00275605
0.00238938
6.43586e-05
5.17742e-06
0.00252272
0.000135195
7.16544e-06
0.00265787
0.000135591
4.60265e-06
0.00275519
0.00010846
6.16112e-06
0.0028328
8.66948e-05
4.54147e-06
0.00288712
7.00757e-05
5.73411e-06
0.0029345
5.9946e-05
4.70271e-06
0.00297006
5.23333e-05
5.49068e-06
0.00300255
4.63331e-05
4.81095e-06
0.0030274
4.15486e-05
5.28941e-06
0.00305037
3.71128e-05
4.86495e-06
0.003068
3.36959e-05
5.13152e-06
0.00308456
3.02799e-05
4.90325e-06
0.00309698
2.77549e-05
5.02476e-06
0.00310947
2.50513e-05
4.94905e-06
0.00311714
2.32701e-05
4.96619e-06
0.00312717
1.91693e-05
5.01144e-06
0.00313121
2.10663e-05
4.96247e-06
0.00313029
-2.87612e-06
5.04874e-06
6.98017e-06
5.15107e-06
0.00314181
0.00238071
-1.63407e-10
6.18164e-06
0.00250709
2.7768e-10
8.13012e-06
0.00264129
-2.39669e-10
5.70173e-06
0.00274195
6.57444e-10
7.16549e-06
0.00282647
-1.39176e-10
5.63274e-06
0.00288939
1.64273e-09
6.73391e-06
0.00294644
7.27552e-10
5.76095e-06
0.00299218
4.01607e-09
6.48335e-06
0.00303518
3.94089e-09
5.84844e-06
0.00307062
1.05725e-08
6.28011e-06
0.00310402
1.26419e-08
5.88959e-06
0.0031319
3.29535e-08
6.12143e-06
0.00315813
3.17848e-08
5.91819e-06
0.00318022
1.06747e-07
6.01356e-06
0.00320085
8.19063e-08
5.9565e-06
0.00321828
3.06667e-07
5.95368e-06
0.00323233
2.82034e-07
6.0174e-06
0.00324686
7.59886e-07
5.94947e-06
0.0032375
9.69938e-07
6.12203e-06
1.84138e-06
6.16226e-06
0.00323611
0.00238071
-6.4359e-05
6.18164e-06
0.00250709
-0.000135194
8.13012e-06
0.00264129
-0.000135591
5.70173e-06
0.00274195
-0.000108459
7.16549e-06
0.00282647
-8.66952e-05
5.63274e-06
0.00288939
-7.00722e-05
6.73392e-06
0.00294644
-5.99451e-05
5.76095e-06
0.00299218
-5.23246e-05
6.48337e-06
0.00303518
-4.63266e-05
5.84842e-06
0.00307061
-4.15254e-05
6.28015e-06
0.00310402
-3.70915e-05
5.88954e-06
0.0031319
-3.36251e-05
6.12153e-06
0.00315814
-3.02275e-05
5.91807e-06
0.00318021
-2.75305e-05
6.01381e-06
0.00320088
-2.49209e-05
5.95615e-06
0.00321829
-2.26439e-05
5.95427e-06
0.00323247
-1.87178e-05
6.01621e-06
0.0032471
-1.96523e-05
5.95045e-06
0.00323784
4.72545e-06
6.11666e-06
-3.71211e-06
6.16382e-06
0.00323686
0.00238938
-0.000134685
5.17742e-06
0.00252272
-0.000274732
7.16544e-06
0.00265787
-0.000269373
4.60266e-06
0.00275519
-0.000210901
6.16112e-06
0.0028328
-0.000163718
4.54147e-06
0.00288712
-0.000128877
5.7341e-06
0.0029345
-0.000107497
4.70272e-06
0.00297006
-9.18203e-05
5.49067e-06
0.00300255
-7.94491e-05
4.81096e-06
0.00302741
-6.98294e-05
5.28937e-06
0.00305037
-6.10713e-05
4.86499e-06
0.00306801
-5.43976e-05
5.13143e-06
0.00308457
-4.81401e-05
4.90337e-06
0.00309702
-4.29135e-05
5.02453e-06
0.0031095
-3.91125e-05
4.94937e-06
0.00311725
-3.33285e-05
4.9656e-06
0.00312724
-3.09248e-05
5.0125e-06
0.00313137
-2.69842e-05
4.96141e-06
0.00313054
2.84107e-06
5.05332e-06
-1.90438e-05
5.1496e-06
0.00314199
0.00238728
-0.000208194
7.2169e-06
0.00253024
-0.000429412
9.13556e-06
0.00266518
-0.000408488
6.72964e-06
0.00274678
-0.000302999
8.13553e-06
0.00280142
-0.000223266
6.6658e-06
0.00283001
-0.000167295
7.72028e-06
0.0028508
-0.000133862
6.78597e-06
0.00286033
-0.00011056
7.46746e-06
0.00286793
-9.30244e-05
6.85732e-06
0.00286948
-8.00809e-05
7.25792e-06
0.00287086
-6.87745e-05
6.88587e-06
0.00286866
-6.05845e-05
7.09503e-06
0.00286684
-5.29791e-05
6.90574e-06
0.00286291
-4.72178e-05
6.98442e-06
0.002859
-4.22646e-05
6.93754e-06
0.0028548
-3.74156e-05
6.92106e-06
0.00284646
-3.0207e-05
6.99714e-06
0.00284497
-3.40132e-05
6.90375e-06
0.00280485
3.45541e-05
7.1371e-06
1.82062e-05
7.14715e-06
0.00275824
0.00243536
-0.000321357
4.07496e-06
0.00256518
-0.00056279
6.12702e-06
0.0026293
-0.000468099
3.25168e-06
0.00262961
-0.000305571
5.02721e-06
0.00260895
-0.000198979
3.25603e-06
0.00257515
-0.000135142
4.66789e-06
0.00254479
-0.000100699
3.51568e-06
0.00251245
-7.93085e-05
4.44942e-06
0.00248544
-6.37307e-05
3.67465e-06
0.00245778
-5.30918e-05
4.24832e-06
0.00243458
-4.37822e-05
3.75344e-06
0.00241108
-3.75142e-05
4.08797e-06
0.00239127
-3.18391e-05
3.8102e-06
0.00237089
-2.72036e-05
3.98073e-06
0.00235451
-2.50657e-05
3.87143e-06
0.00233492
-1.82954e-05
3.92172e-06
0.00232554
-2.05669e-05
3.94756e-06
0.00230315
-1.23054e-05
3.90954e-06
0.00231253
2.51277e-05
3.95527e-06
-1.11386e-06
4.09085e-06
0.00233055
0.00241191
-0.000421888
8.34989e-06
0.00235205
-0.000517817
1.02285e-05
0.00222968
-0.00035257
7.72165e-06
0.00209445
-0.000183385
9.06273e-06
0.00198487
-9.67591e-05
7.64727e-06
0.00189428
-5.66897e-05
8.68412e-06
0.00182631
-4.06075e-05
7.78014e-06
0.00176792
-3.24274e-05
8.43718e-06
0.00172286
-2.70594e-05
7.84191e-06
0.00168201
-2.34364e-05
8.22298e-06
0.00164961
-2.02887e-05
7.86305e-06
0.00161923
-1.81668e-05
8.05926e-06
0.00159428
-1.62765e-05
7.88061e-06
0.00157078
-1.46919e-05
7.95007e-06
0.00154985
-1.39998e-05
7.91188e-06
0.00153262
-1.2114e-05
7.88565e-06
0.00151047
-8.78445e-06
7.97338e-06
0.00150772
-2.06875e-05
7.84766e-06
0.00142401
9.78461e-05
8.10201e-06
7.99095e-05
8.11617e-06
0.00133103
0.00190528
3.09097e-06
0.00138805
4.88696e-06
0.00104419
2.20405e-06
0.000863131
3.68553e-06
0.00077445
2.21604e-06
0.000720941
3.35004e-06
0.000687764
2.3523e-06
0.000658914
3.1004e-06
0.000638537
2.41753e-06
0.000618853
2.87835e-06
0.000604679
2.44443e-06
0.000590453
2.70939e-06
0.000579836
2.46764e-06
0.000569141
2.60116e-06
0.000560337
2.50692e-06
0.000552197
2.54169e-06
0.000548177
2.57375e-06
0.00053141
2.51411e-06
0.000633742
2.62172e-06
2.73956e-06
0.000716934
0.00214796
0.000171577
-1.09245e-11
0.00190339
0.000248759
-1.06991e-11
0.00164176
0.000263063
-1.06491e-11
0.00141168
0.000232972
-1.16446e-11
0.00122646
0.000186761
-1.27397e-11
0.00109008
0.000139294
-1.32331e-11
0.000992849
9.93224e-05
-1.27553e-11
0.000927065
6.86045e-05
-1.18239e-11
0.000881347
4.76725e-05
-1.03617e-11
0.000850208
3.34167e-05
-9.26871e-12
0.000827338
2.47194e-05
-8.67914e-12
0.000810567
1.89571e-05
-9.0039e-12
0.000797201
1.5341e-05
-9.4166e-12
0.000786114
1.31721e-05
-1.00183e-11
0.000777416
1.06576e-05
-1.04355e-11
0.000768023
1.13894e-05
-1.10788e-11
0.000764171
5.89915e-06
-1.14848e-11
0.000752815
1.33659e-05
-1.18062e-11
0.000759897
-4.93586e-06
-1.18347e-11
-5.19778e-06
-1.15172e-11
0.000767338
0.00237273
0.000123633
-1.08474e-11
0.00241793
0.000213087
-1.14076e-11
0.00242491
0.000263078
-1.10657e-11
0.00240089
0.000265264
-9.07671e-12
0.00235508
0.000239441
-7.95085e-12
0.00230158
0.000200771
-1.02871e-11
0.00224576
0.000162358
-1.34727e-11
0.00219325
0.000129127
-1.39129e-11
0.00214419
0.000104223
-1.1009e-11
0.00210009
8.54192e-05
-8.33981e-12
0.00205992
7.24209e-05
-7.91117e-12
0.0020241
6.2501e-05
-9.09372e-12
0.00199171
5.52189e-05
-9.65622e-12
0.00196275
4.96433e-05
-9.58241e-12
0.00193677
4.40364e-05
-9.34099e-12
0.00191319
4.23005e-05
-9.96418e-12
0.00189292
3.35345e-05
-1.06498e-11
0.00187299
4.05245e-05
-1.16834e-11
0.00185809
1.74418e-05
-1.2269e-11
3.25083e-05
-1.27853e-11
0.00182791
0.00236071
8.34328e-05
-1.08007e-11
0.00242973
0.000149489
-1.11386e-11
0.00250111
0.000194225
-1.13942e-11
0.00256612
0.000204515
-1.06053e-11
0.00261447
0.000193543
-8.94459e-12
0.00264816
0.000170984
-8.24345e-12
0.00266759
0.000145764
-8.8114e-12
0.00267775
0.000122854
-1.0225e-11
0.00268052
0.000104671
-1.12013e-11
0.00267911
9.07065e-05
-1.18073e-11
0.00267459
8.03917e-05
-1.1798e-11
0.00266831
7.26319e-05
-1.15365e-11
0.00266107
6.60523e-05
-1.08154e-11
0.00265273
6.17311e-05
-1.0234e-11
0.00264486
5.54942e-05
-9.55747e-12
0.00263545
5.5256e-05
-9.36323e-12
0.0026282
4.42789e-05
-9.03489e-12
0.00261803
5.40678e-05
-9.57216e-12
0.00261156
2.72734e-05
-9.74365e-12
4.92036e-05
-1.11376e-11
0.00259827
0.00235082
5.62557e-05
-1.08405e-11
0.00240997
9.87754e-05
-1.09762e-11
0.00248218
0.000128027
-1.1219e-11
0.00255838
0.00013568
-1.11045e-11
0.00262752
0.000130261
-1.01991e-11
0.00268825
0.000117201
-9.31869e-12
0.00273786
0.000102236
-8.74685e-12
0.0027792
8.84015e-05
-9.03863e-12
0.00281281
7.7426e-05
-9.59048e-12
0.00284134
6.90202e-05
-1.04849e-11
0.00286547
6.28105e-05
-1.10691e-11
0.00288666
5.82827e-05
-1.16868e-11
0.00290526
5.4175e-05
-1.18658e-11
0.0029219
5.19199e-05
-1.21701e-11
0.00293669
4.74777e-05
-1.20679e-11
0.00295022
4.84077e-05
-1.19117e-11
0.00296162
3.95718e-05
-1.13134e-11
0.00297321
4.89693e-05
-1.07618e-11
0.00297972
2.7435e-05
-1.01505e-11
5.09616e-05
-9.87949e-12
0.00298452
0.00235141
2.64542e-05
-1.08684e-11
0.00240877
4.788e-05
-1.09597e-11
0.00247762
6.30604e-05
-1.10399e-11
0.00255168
6.70062e-05
-1.11027e-11
0.00262122
6.44583e-05
-1.06721e-11
0.00268514
5.82305e-05
-1.03138e-11
0.00274036
5.10247e-05
-9.89188e-12
0.0027892
4.44639e-05
-9.9708e-12
0.00283172
3.92258e-05
-9.98293e-12
0.00287027
3.5338e-05
-1.02973e-11
0.00290519
3.24055e-05
-1.0392e-11
0.00293788
3.04507e-05
-1.08746e-11
0.00296832
2.84491e-05
-1.1256e-11
0.00299741
2.77237e-05
-1.19598e-11
0.00302439
2.53138e-05
-1.23719e-11
0.0030511
2.64796e-05
-1.25629e-11
0.00307403
2.1401e-05
-1.24221e-11
0.00310022
2.73899e-05
-1.19271e-11
0.0031169
1.53907e-05
-1.153e-11
2.89794e-05
-1.10146e-11
0.00314353
0.00234906
-1.92562e-10
-1.08836e-11
0.00240437
4.7403e-10
-1.0953e-11
0.00247241
-4.39414e-10
-1.09668e-11
0.00254581
1.08277e-09
-1.10009e-11
0.0026151
-5.26183e-10
-1.07836e-11
0.00267928
2.38127e-09
-1.0728e-11
0.00273537
1.49277e-10
-1.05986e-11
0.00278573
5.36756e-09
-1.07136e-11
0.00283031
2.90975e-09
-1.06039e-11
0.00287149
1.34299e-08
-1.06475e-11
0.00290942
9.73087e-09
-1.05328e-11
0.00294568
3.8966e-08
-1.07574e-11
0.00297984
2.22219e-08
-1.09303e-11
0.00301332
1.16548e-07
-1.13431e-11
0.00304442
4.93182e-08
-1.15009e-11
0.00307637
3.18035e-07
-1.16218e-11
0.00310338
1.62798e-07
-1.15227e-11
0.00313566
7.30712e-07
-1.13854e-11
0.0031561
6.75307e-07
-1.12667e-11
1.43529e-06
-1.11728e-11
0.00318934
0.00234906
-2.64546e-05
-1.08849e-11
0.00240437
-4.7879e-05
-1.09615e-11
0.00247241
-6.30613e-05
-1.09272e-11
0.00254581
-6.7004e-05
-1.09397e-11
0.0026151
-6.44595e-05
-1.08261e-11
0.00267928
-5.82256e-05
-1.09775e-11
0.00273537
-5.10246e-05
-1.10724e-11
0.00278573
-4.44529e-05
-1.13018e-11
0.00283031
-3.92205e-05
-1.11976e-11
0.00287149
-3.53106e-05
-1.11598e-11
0.00290942
-3.23872e-05
-1.09651e-11
0.00294568
-3.03722e-05
-1.10071e-11
0.00297984
-2.84068e-05
-1.08698e-11
0.00301333
-2.74906e-05
-1.08252e-11
0.00304443
-2.52202e-05
-1.03809e-11
0.00307638
-2.58469e-05
-1.02428e-11
0.00310341
-2.10898e-05
-9.92879e-12
0.00313571
-2.59505e-05
-1.0148e-11
0.00315619
-1.40927e-05
-1.02854e-11
-2.62162e-05
-1.06194e-11
0.00318954
0.00235141
-5.62561e-05
-1.09004e-11
0.00240877
-9.87745e-05
-1.09506e-11
0.00247762
-0.000128027
-1.08459e-11
0.00255168
-0.000135678
-1.08407e-11
0.00262122
-0.000130262
-1.09548e-11
0.00268514
-0.000117196
-1.14162e-11
0.00274036
-0.000102236
-1.17941e-11
0.0027892
-8.8391e-05
-1.20444e-11
0.00283172
-7.74209e-05
-1.18084e-11
0.00287027
-6.89943e-05
-1.1502e-11
0.00290519
-6.27922e-05
-1.10945e-11
0.00293789
-5.82088e-05
-1.08565e-11
0.00296833
-5.41331e-05
-1.04781e-11
0.00299743
-5.16993e-05
-1.00883e-11
0.00302442
-4.73881e-05
-9.39545e-12
0.00305115
-4.78031e-05
-9.22884e-12
0.00307411
-3.92827e-05
-9.01836e-12
0.00310035
-4.75819e-05
-9.68309e-12
0.00311711
-2.62179e-05
-1.00883e-11
-4.82794e-05
-1.08337e-11
0.00314382
0.00235082
-8.34331e-05
-1.09339e-11
0.00240997
-0.000149488
-1.09232e-11
0.00248218
-0.000194226
-1.06585e-11
0.00255838
-0.000204513
-1.08645e-11
0.00262752
-0.000193544
-1.15046e-11
0.00268825
-0.000170979
-1.24929e-11
0.00273786
-0.000145765
-1.29752e-11
0.0027792
-0.000122843
-1.29446e-11
0.00281281
-0.000104667
-1.21227e-11
0.00284134
-9.06819e-05
-1.12337e-11
0.00286548
-8.03768e-05
-1.03476e-11
0.00288667
-7.25632e-05
-9.96944e-12
0.00290528
-6.60187e-05
-9.76401e-12
0.00292194
-6.1529e-05
-9.73816e-12
0.00293675
-5.54273e-05
-9.64261e-12
0.00295034
-5.47063e-05
-9.90239e-12
0.0029618
-4.40591e-05
-1.02746e-11
0.00297355
-5.28318e-05
-1.10409e-11
0.00298027
-2.62815e-05
-1.15787e-11
-4.69783e-05
-1.1943e-11
0.00298553
0.00236071
-0.000123633
-1.09703e-11
0.00242973
-0.000213086
-1.07234e-11
0.00250111
-0.000263078
-1.04705e-11
0.00256612
-0.000265262
-1.14573e-11
0.00261447
-0.000239442
-1.28985e-11
0.00264816
-0.000200767
-1.365e-11
0.00266759
-0.000162358
-1.28943e-11
0.00267775
-0.000129119
-1.16249e-11
0.00268052
-0.00010422
-1.02977e-11
0.00267912
-8.54006e-05
-9.71676e-12
0.0026746
-7.24088e-05
-9.50846e-12
0.00266834
-6.24489e-05
-1.01228e-11
0.00266111
-5.51935e-05
-1.08473e-11
0.00265282
-4.94898e-05
-1.17247e-11
0.00264497
-4.39929e-05
-1.22171e-11
0.00263569
-4.18812e-05
-1.25373e-11
0.00262852
-3.33931e-05
-1.26719e-11
0.00261865
-3.9589e-05
-1.23028e-11
0.00261246
-1.67314e-05
-1.19596e-11
-3.08933e-05
-1.04789e-11
0.00259978
0.00237273
-0.000171577
-1.09008e-11
0.00241793
-0.000248758
-1.04437e-11
0.0024249
-0.000263064
-1.09323e-11
0.0024009
-0.000232972
-1.30929e-11
0.00235508
-0.000186762
-1.37376e-11
0.00230158
-0.000139293
-1.1391e-11
0.00224577
-9.93218e-05
-7.98994e-12
0.00219325
-6.86012e-05
-7.74591e-12
0.00214419
-4.76695e-05
-1.04388e-11
0.0021001
-3.34089e-05
-1.30833e-11
0.00205995
-2.47112e-05
-1.33932e-11
0.00202415
-1.89334e-05
-1.2741e-11
0.00199177
-1.5326e-05
-1.22291e-11
0.00196289
-1.30984e-05
-1.25412e-11
0.00193694
-1.06399e-05
-1.24782e-11
0.00191356
-1.11785e-05
-1.19994e-11
0.00189339
-5.85149e-06
-1.09875e-11
0.00187393
-1.29006e-05
-1.00469e-11
0.00185943
5.24911e-06
-9.30545e-12
5.65466e-06
-8.62688e-12
0.0018304
0.00214796
-1.07469e-11
0.00190339
-1.10815e-11
0.00164176
-1.15785e-11
0.00141168
-1.09462e-11
0.00122646
-8.96442e-12
0.00109008
-7.82257e-12
0.000992852
-8.47659e-12
0.000927071
-1.05155e-11
0.000881356
-1.19414e-11
0.000850224
-1.25128e-11
0.000827363
-1.23467e-11
0.000810615
-1.23304e-11
0.000797265
-1.21279e-11
0.000786251
-1.19077e-11
0.000777571
-1.12009e-11
0.000768388
-1.06599e-11
0.000764584
-1.00129e-11
0.000753697
-9.92719e-12
0.000761081
-9.79737e-12
-1.01439e-11
0.000768987
0.00214796
0.000171577
-3.09099e-06
0.00190339
0.000248759
-4.88698e-06
0.00164176
0.000263063
-2.20407e-06
0.00141168
0.000232972
-3.68555e-06
0.00122646
0.000186761
-2.21605e-06
0.00109008
0.000139294
-3.35006e-06
0.000992849
9.93224e-05
-2.35232e-06
0.000927065
6.86045e-05
-3.10042e-06
0.000881347
4.76725e-05
-2.41754e-06
0.000850208
3.34167e-05
-2.87838e-06
0.000827338
2.47193e-05
-2.44443e-06
0.000810567
1.8957e-05
-2.70945e-06
0.000797201
1.53409e-05
-2.46761e-06
0.000786114
1.31721e-05
-2.60129e-06
0.000777416
1.06576e-05
-2.50682e-06
0.000768023
1.13894e-05
-2.54201e-06
0.000764171
5.89916e-06
-2.57351e-06
0.000752815
1.33659e-05
-2.51485e-06
0.000759897
-4.93586e-06
-2.62119e-06
-5.19779e-06
-2.74093e-06
0.000767338
0.00237273
0.000123633
-8.3499e-06
0.00241793
0.000213087
-1.02285e-05
0.00242491
0.000263078
-7.72167e-06
0.00240089
0.000265264
-9.06274e-06
0.00235508
0.000239441
-7.64729e-06
0.00230158
0.000200771
-8.68414e-06
0.00224576
0.000162358
-7.78017e-06
0.00219325
0.000129127
-8.43719e-06
0.00214419
0.000104223
-7.84195e-06
0.00210009
8.54191e-05
-8.22297e-06
0.00205992
7.24208e-05
-7.86311e-06
0.0020241
6.25009e-05
-8.05921e-06
0.00199171
5.52188e-05
-7.88074e-06
0.00196275
4.96434e-05
-7.94992e-06
0.00193677
4.40364e-05
-7.91222e-06
0.00191319
4.23006e-05
-7.88524e-06
0.00189292
3.35345e-05
-7.97446e-06
0.00187299
4.05245e-05
-7.84666e-06
0.00185809
1.74418e-05
-8.10627e-06
3.25083e-05
-8.11424e-06
0.00182791
0.00236071
8.34328e-05
-4.07498e-06
0.00242973
0.000149489
-6.12704e-06
0.00250111
0.000194225
-3.2517e-06
0.00256612
0.000204515
-5.02723e-06
0.00261447
0.000193543
-3.25605e-06
0.00264816
0.000170984
-4.66791e-06
0.00266759
0.000145764
-3.5157e-06
0.00267775
0.000122854
-4.44944e-06
0.00268052
0.000104671
-3.67465e-06
0.00267911
9.07063e-05
-4.24836e-06
0.00267459
8.03915e-05
-3.75342e-06
0.00266831
7.26318e-05
-4.08805e-06
0.00266107
6.60523e-05
-3.81012e-06
0.00265273
6.17312e-05
-3.98093e-06
0.00264486
5.54943e-05
-3.87118e-06
0.00263545
5.52561e-05
-3.92224e-06
0.0026282
4.42788e-05
-3.94678e-06
0.00261803
5.40677e-05
-3.91056e-06
0.00261156
2.72733e-05
-3.95225e-06
4.92036e-05
-4.09196e-06
0.00259827
0.00235082
5.62557e-05
-7.21692e-06
0.00240997
9.87754e-05
-9.13558e-06
0.00248218
0.000128027
-6.72966e-06
0.00255838
0.00013568
-8.13554e-06
0.00262752
0.000130261
-6.66582e-06
0.00268825
0.000117201
-7.72029e-06
0.00273786
0.000102236
-6.786e-06
0.0027792
8.84014e-05
-7.46747e-06
0.00281281
7.74259e-05
-6.85736e-06
0.00284134
6.902e-05
-7.2579e-06
0.00286547
6.28104e-05
-6.88594e-06
0.00288666
5.82827e-05
-7.09497e-06
0.00290526
5.4175e-05
-6.90589e-06
0.0029219
5.192e-05
-6.98424e-06
0.00293669
4.74779e-05
-6.93793e-06
0.00295022
4.84078e-05
-6.92062e-06
0.00296162
3.95718e-05
-6.99839e-06
0.00297321
4.89693e-05
-6.90296e-06
0.00297972
2.74349e-05
-7.14217e-06
5.09615e-05
-7.14646e-06
0.00298452
0.00235141
2.64542e-05
-5.17744e-06
0.00240877
4.788e-05
-7.16546e-06
0.00247762
6.30604e-05
-4.60267e-06
0.00255168
6.70062e-05
-6.16114e-06
0.00262122
6.44583e-05
-4.54149e-06
0.00268514
5.82304e-05
-5.73413e-06
0.00274036
5.10246e-05
-4.70273e-06
0.0027892
4.44637e-05
-5.4907e-06
0.00283172
3.92256e-05
-4.81096e-06
0.00287027
3.53378e-05
-5.28942e-06
0.00290519
3.24053e-05
-4.86496e-06
0.00293788
3.04506e-05
-5.13154e-06
0.00296832
2.84491e-05
-4.90327e-06
0.00299741
2.77238e-05
-5.02478e-06
0.00302439
2.5314e-05
-4.94907e-06
0.0030511
2.64798e-05
-4.96621e-06
0.00307403
2.14012e-05
-5.01146e-06
0.00310022
2.739e-05
-4.96249e-06
0.0031169
1.53907e-05
-5.04876e-06
2.89793e-05
-5.15109e-06
0.00314353
0.00234906
-1.91712e-10
-6.18166e-06
0.00240437
4.78044e-10
-8.13014e-06
0.00247241
-4.24297e-10
-5.70175e-06
0.00254581
1.09234e-09
-7.16551e-06
0.0026151
-5.42031e-10
-5.63276e-06
0.00267928
2.31052e-09
-6.73393e-06
0.00273537
3.7575e-11
-5.76097e-06
0.00278573
5.23068e-09
-6.48337e-06
0.00283031
2.74438e-09
-5.84845e-06
0.00287149
1.32358e-08
-6.28013e-06
0.00290942
9.55184e-09
-5.8896e-06
0.00294568
3.88639e-08
-6.12145e-06
0.00297984
2.22354e-08
-5.91821e-06
0.00301332
1.16657e-07
-6.01358e-06
0.00304442
4.94976e-08
-5.95652e-06
0.00307637
3.18226e-07
-5.9537e-06
0.00310338
1.6295e-07
-6.01742e-06
0.00313566
7.30819e-07
-5.94949e-06
0.0031561
6.75313e-07
-6.12204e-06
1.43525e-06
-6.16228e-06
0.00318934
0.00234906
-2.64546e-05
-6.18166e-06