/*--------------------------------*- C++ -*----------------------------------*\
  =========                 |
  \\      /  F ield         | OpenFOAM: The Open Source CFD Toolbox
   \\    /   O peration     | Website:  https://openfoam.org
    \\  /    A nd           | Version:  7
     \\/     M anipulation  |
\*---------------------------------------------------------------------------*/
FoamFile
{
    version     2.0;
    format      ascii;
    class       volSymmTensorField;
    location    "1.5225";
    object      UPrime2Mean;
}
// * * * * * * * * * * * * * * * * * * * * * * * * * * * * * * * * * * * * * //

dimensions      [0 2 -2 0 0 0 0];

internalField   nonuniform List<symmTensor> 
7920
(
(0.0154702 -0.0012515 -0.00160989 0.000171447 0.000191801 0.000439867)
(0.0662835 0.00897765 -0.00497767 0.00156698 -0.000631298 0.00184818)
(0.100863 0.0161764 -0.00763202 0.00338967 -0.0010678 0.00419827)
(0.134512 0.0210341 -0.00937256 0.00425617 -0.00109673 0.0059342)
(0.140724 0.0212965 -0.0112915 0.00455672 -0.00121593 0.00664101)
(0.158553 0.0225565 -0.0123232 0.00465082 -0.00115791 0.00606503)
(0.15781 0.0217175 -0.0134116 0.00471591 -0.00125679 0.00517977)
(0.170156 0.0223046 -0.0135538 0.00472529 -0.00121129 0.00414602)
(0.168051 0.0214073 -0.0139111 0.0047557 -0.00128146 0.00351789)
(0.177637 0.0217263 -0.0137072 0.00475733 -0.00122816 0.00306058)
(0.175474 0.0208704 -0.0138764 0.00477422 -0.00126538 0.00288947)
(0.183208 0.0209803 -0.0136873 0.00477187 -0.00121213 0.00273535)
(0.181367 0.0201895 -0.0137484 0.00477986 -0.00122904 0.00269509)
(0.187695 0.0201467 -0.0136507 0.00477756 -0.00118631 0.00267172)
(0.186346 0.0194258 -0.0135388 0.00477773 -0.00117688 0.00266968)
(0.191589 0.0192727 -0.0137277 0.00478539 -0.00116107 0.00278923)
(0.190655 0.018492 -0.0132514 0.00473648 -0.00108711 0.00272212)
(0.195746 0.0184108 -0.0141501 0.00483498 -0.00116425 0.00302414)
(0.192597 0.0156499 -0.0125915 0.00410643 -0.000804757 0.00275644)
(0.21191 0.0215772 -0.0147242 0.00516998 -0.00137626 0.00311862)
(0.00469857 0.000597719 0.000196894 0.00783044 0.00121001 0.00034201)
(0.00947461 -0.00474652 -0.000818513 0.0087653 0.00179272 0.00129838)
(0.0280757 -0.00866135 -0.00255903 0.00756017 0.00200847 0.00300843)
(0.0548794 -0.0120253 -0.00503052 0.00611621 0.0017782 0.00469983)
(0.0820019 -0.0120468 -0.00774203 0.00545558 0.00166086 0.00601551)
(0.108106 -0.0129801 -0.0103184 0.00515081 0.00145104 0.00626017)
(0.13104 -0.0123511 -0.0126139 0.00502755 0.00138175 0.00593553)
(0.151582 -0.0127228 -0.0141229 0.00494999 0.00125791 0.00515445)
(0.170164 -0.0120348 -0.0152131 0.00492487 0.00124595 0.00443404)
(0.186602 -0.0121079 -0.0156947 0.00488611 0.0011756 0.00381152)
(0.2021 -0.0114286 -0.0161182 0.00487948 0.00118034 0.0033878)
(0.215734 -0.0112972 -0.0162335 0.00485139 0.00113383 0.00305808)
(0.229011 -0.010667 -0.0163602 0.00485168 0.00113671 0.00281851)
(0.24072 -0.0103812 -0.0163996 0.00483014 0.00111099 0.00266398)
(0.252333 -0.00983392 -0.0161632 0.00482926 0.00109099 0.00250978)
(0.263157 -0.00930789 -0.0164004 0.00483058 0.00109491 0.00255518)
(0.272124 -0.00892405 -0.0156339 0.00478204 0.00101363 0.00241109)
(0.285751 -0.00749437 -0.0166314 0.00485118 0.00106067 0.00269368)
(0.280206 -0.00742986 -0.0145486 0.00469702 0.000845949 0.00244781)
(0.300853 2.11148e-05 -0.0163412 0.00429354 0.000730265 0.00286958)
(0.00633839 0.00100543 0.000701338 0.00113051 0.000363976 0.000330964)
(0.0111592 -0.000242342 0.00159058 0.00158152 7.1898e-05 0.00112612)
(0.0210631 -0.00265617 0.0028791 0.00253198 1.18688e-06 0.00232749)
(0.022233 -0.00389693 0.00277865 0.00343174 -5.98817e-05 0.00358293)
(0.0280872 -0.00610463 0.0029003 0.00383877 -0.000261911 0.00498972)
(0.0316839 -0.00623567 0.00193093 0.00405905 -0.000402495 0.0060318)
(0.0392728 -0.00751276 0.00112683 0.0041816 -0.000672482 0.00678771)
(0.0470674 -0.00711914 -0.000471566 0.00426051 -0.000806473 0.00693891)
(0.0567685 -0.00789749 -0.00167533 0.00432929 -0.000981076 0.00676635)
(0.0672369 -0.00744757 -0.00310252 0.00438276 -0.00102918 0.00623647)
(0.077967 -0.00804869 -0.00393632 0.00442912 -0.00110466 0.00564237)
(0.0895832 -0.00772514 -0.00482065 0.00447089 -0.00109653 0.00496891)
(0.100425 -0.00826944 -0.00522126 0.00450271 -0.00111764 0.0043339)
(0.112393 -0.00811843 -0.00566292 0.00453174 -0.00108738 0.00375713)
(0.122903 -0.00870725 -0.00564146 0.00456292 -0.00108214 0.00320906)
(0.135306 -0.00851095 -0.00563471 0.00455196 -0.00106543 0.00286173)
(0.144969 -0.00956952 -0.00517435 0.0046469 -0.000996881 0.00247401)
(0.158896 -0.00820043 -0.0049403 0.00452284 -0.00116214 0.00245285)
(0.165597 -0.0103649 -0.00414181 0.00459083 -0.000795004 0.00221351)
(0.185729 -0.00456199 -0.00352589 0.00634151 -0.00204279 0.00245318)
(0.00649103 0.00280101 0.000694575 0.00349606 0.000749956 0.000312737)
(0.0129355 0.00653604 0.00175769 0.00610298 0.00141839 0.00107303)
(0.0329993 0.0128467 0.00406828 0.00725473 0.00191831 0.00214798)
(0.0444234 0.0138973 0.00537086 0.00680738 0.00189856 0.00317922)
(0.0629056 0.0163601 0.00738795 0.00637827 0.0019114 0.00447417)
(0.0707427 0.0158787 0.00812443 0.00602783 0.0017447 0.00563427)
(0.0847735 0.0172831 0.00921115 0.00577448 0.00167113 0.00683191)
(0.0906934 0.0166207 0.00879113 0.00556504 0.00150439 0.00757862)
(0.102493 0.0177397 0.00867381 0.00542443 0.00144978 0.0080372)
(0.108627 0.0172311 0.00752107 0.00528354 0.00133074 0.00797577)
(0.119511 0.0182186 0.0070347 0.00520094 0.00130496 0.00766302)
(0.126542 0.0179165 0.00600155 0.00510126 0.00123644 0.00708225)
(0.136861 0.0188013 0.00558871 0.00505573 0.00122743 0.0063816)
(0.144931 0.0186895 0.00488647 0.00497807 0.00119747 0.00560968)
(0.154583 0.0194584 0.00464287 0.00496641 0.0011807 0.00479933)
(0.163961 0.0195289 0.004594 0.00488646 0.00116833 0.00405047)
(0.172485 0.020126 0.00474117 0.0049263 0.00116097 0.00337089)
(0.184113 0.0204082 0.00561216 0.00480465 0.0010878 0.00287059)
(0.19044 0.0206015 0.0058462 0.00486539 0.00110221 0.00247214)
(0.208305 0.0222034 0.00820015 0.00518602 0.000867453 0.00236547)
(0.00643207 -0.000186484 0.000688908 0.000131885 -3.34173e-05 0.000312367)
(0.0121284 -0.00182536 0.00164786 0.00139001 -0.000415722 0.00109372)
(0.0340633 -0.00493307 0.00413846 0.00243534 -0.000551646 0.00214434)
(0.0499631 -0.00628047 0.00572491 0.00328483 -0.000525155 0.00313593)
(0.0767765 -0.0093095 0.00841773 0.00374529 -0.000630242 0.00433643)
(0.0927395 -0.0103179 0.00981303 0.00397432 -0.000667151 0.00550112)
(0.11819 -0.0128786 0.0118702 0.00410953 -0.000842565 0.00675016)
(0.132259 -0.0135049 0.0121578 0.00418236 -0.00090699 0.00772032)
(0.155691 -0.0154834 0.0128761 0.00424818 -0.00104192 0.00842987)
(0.168701 -0.0159094 0.0121472 0.00428987 -0.0010693 0.00868184)
(0.190383 -0.0175098 0.0121948 0.00433404 -0.00114637 0.00863065)
(0.202957 -0.0178923 0.0113274 0.00436401 -0.00113943 0.00825335)
(0.223079 -0.0192455 0.011257 0.00440315 -0.0011817 0.00771435)
(0.235544 -0.0196287 0.0104899 0.00441662 -0.00114373 0.00696136)
(0.254252 -0.0209066 0.010444 0.00447442 -0.00117669 0.00618041)
(0.266511 -0.0211838 0.010059 0.00441963 -0.00111583 0.00524084)
(0.283851 -0.022621 0.0105168 0.00459321 -0.00113474 0.00445736)
(0.296179 -0.0232073 0.0109639 0.00434759 -0.00118429 0.00364571)
(0.309013 -0.0234665 0.0118615 0.0046834 -0.00100001 0.00307049)
(0.327787 -0.0307333 0.0143243 0.00568934 -0.00183138 0.00276422)
(0.00633557 0.00138344 0.000662606 0.00087314 0.000364621 0.000305222)
(0.0110969 0.00356102 0.00149265 0.00279984 0.000864853 0.00108389)
(0.0319023 0.00862417 0.00388602 0.00398453 0.00121143 0.00213974)
(0.0480099 0.0104188 0.00548145 0.00439272 0.0011965 0.00312189)
(0.0763278 0.0139189 0.00828085 0.00460052 0.00128383 0.00430416)
(0.0949652 0.0148403 0.00985204 0.00466033 0.00122016 0.00545396)
(0.124594 0.0175181 0.012172 0.00470246 0.00128623 0.00669914)
(0.143036 0.0180182 0.0127158 0.00469806 0.00122779 0.00770663)
(0.172635 0.0201244 0.0137442 0.00470916 0.00127395 0.00848083)
(0.190959 0.0204334 0.0132346 0.00469216 0.00121629 0.00883441)
(0.21993 0.0221527 0.0135448 0.00469653 0.00124513 0.00889397)
(0.238144 0.022419 0.0128153 0.00467862 0.0011951 0.00862707)
(0.265986 0.0238729 0.0129575 0.00468627 0.00121897 0.0082002)
(0.284173 0.0241171 0.0122202 0.00466332 0.00117462 0.00751306)
(0.310369 0.0254649 0.0123114 0.00469119 0.00119877 0.00680378)
(0.328669 0.0255324 0.0118039 0.0046293 0.00114701 0.0058408)
(0.351985 0.0270992 0.0123947 0.00473966 0.00117679 0.00504402)
(0.371954 0.0271082 0.0126676 0.00456742 0.00114691 0.00414148)
(0.386144 0.0277486 0.0138349 0.00476527 0.00109281 0.00345265)
(0.415111 0.0315713 0.0164114 0.00547953 0.00138588 0.00311038)
(0.00633558 -0.00138345 0.000662611 0.000873135 -0.000364624 0.000305223)
(0.0110969 -0.003561 0.00149264 0.00279984 -0.00086485 0.00108389)
(0.0319023 -0.00862418 0.00388607 0.00398452 -0.00121144 0.00213973)
(0.0480099 -0.0104187 0.00548136 0.00439271 -0.00119649 0.00312191)
(0.0763279 -0.0139189 0.00828101 0.00460053 -0.00128386 0.00430414)
(0.0949652 -0.0148402 0.00985174 0.00466033 -0.00122013 0.00545397)
(0.124594 -0.0175182 0.0121725 0.00470248 -0.0012863 0.00669915)
(0.143036 -0.018018 0.012715 0.00469803 -0.00122771 0.00770651)
(0.172636 -0.0201243 0.0137455 0.00470916 -0.00127409 0.00848104)
(0.190958 -0.0204325 0.0132328 0.00469207 -0.0012161 0.00883395)
(0.219932 -0.0221516 0.0135476 0.00469637 -0.00124535 0.0088946)
(0.238142 -0.0224166 0.0128115 0.00467824 -0.00119462 0.00862616)
(0.265995 -0.023869 0.0129627 0.00468578 -0.00121918 0.00820121)
(0.28417 -0.0241068 0.0122137 0.00466195 -0.00117347 0.00751198)
(0.310391 -0.025457 0.0123194 0.00469037 -0.00119887 0.00680484)
(0.328663 -0.0254946 0.0117954 0.00462401 -0.00114364 0.0058399)
(0.35203 -0.0270909 0.0124026 0.00473937 -0.00117693 0.00504479)
(0.371944 -0.0269975 0.0126627 0.00455187 -0.00113869 0.00414154)
(0.386221 -0.0277141 0.0138301 0.00476341 -0.00109039 0.00345135)
(0.415124 -0.0313993 0.0164287 0.00545091 -0.00137501 0.00311476)
(0.00643208 0.000186471 0.00068892 0.000131883 3.34152e-05 0.000312371)
(0.0121284 0.00182537 0.00164782 0.00139 0.000415717 0.00109372)
(0.0340633 0.00493307 0.00413859 0.00243534 0.000551642 0.00214433)
(0.0499631 0.00628047 0.00572464 0.00328482 0.000525145 0.00313596)
(0.0767763 0.00930948 0.00841823 0.00374528 0.000630248 0.00433637)
(0.0927399 0.010318 0.00981213 0.00397428 0.000667123 0.00550111)
(0.118189 0.0128786 0.0118717 0.0041095 0.00084259 0.00675015)
(0.132261 0.0135049 0.0121554 0.00418234 0.00090692 0.00771993)
(0.155689 0.0154835 0.0128799 0.00424815 0.00104203 0.00843052)
(0.168704 0.0159099 0.0121415 0.00428984 0.00106908 0.00868029)
(0.190379 0.0175109 0.0122034 0.00433412 0.00114675 0.00863292)
(0.202967 0.0178938 0.0113153 0.00436411 0.00113891 0.00824994)
(0.223069 0.019249 0.0112743 0.00440345 0.0011828 0.00771862)
(0.23557 0.019636 0.0104668 0.0044173 0.00114282 0.00695645)
(0.254238 0.020913 0.0104756 0.00447499 0.00117902 0.00618621)
(0.266569 0.0212138 0.0100205 0.00442314 0.00111556 0.00523484)
(0.283861 0.0226269 0.0105639 0.00459337 0.00113875 0.00446443)
(0.296306 0.0233013 0.0109187 0.00436125 0.00118686 0.00363973)
(0.309128 0.0234903 0.0119053 0.00468481 0.0010071 0.00307448)
(0.328063 0.0308964 0.0143212 0.00572557 0.0018369 0.00276824)
(0.00649105 -0.00280103 0.000694591 0.00349605 -0.000749982 0.00031274)
(0.0129355 -0.00653602 0.00175763 0.00610296 -0.00141833 0.00107303)
(0.0329994 -0.0128467 0.00406847 0.00725473 -0.00191843 0.00214799)
(0.0444234 -0.0138973 0.00537045 0.00680734 -0.00189839 0.00317924)
(0.0629056 -0.0163601 0.00738859 0.00637826 -0.00191165 0.00447404)
(0.0707429 -0.0158786 0.00812324 0.00602779 -0.00174434 0.00563417)
(0.0847733 -0.0172832 0.00921297 0.00577449 -0.00167166 0.00683175)
(0.0906938 -0.0166207 0.00878836 0.00556497 -0.00150362 0.00757795)
(0.102493 -0.0177398 0.00867828 0.00542443 -0.00145087 0.00803821)
(0.108628 -0.0172309 0.00751469 0.00528332 -0.00132915 0.00797302)
(0.119511 -0.0182185 0.00704493 0.0052008 -0.00130706 0.00766754)
(0.126547 -0.0179159 0.00598691 0.00510075 -0.00123322 0.00707504)
(0.136863 -0.0188006 0.00561255 0.00505528 -0.00123142 0.00639211)
(0.144943 -0.0186857 0.00485216 0.00497631 -0.00119067 0.00559604)
(0.154595 -0.0194587 0.00469728 0.00496598 -0.00118865 0.00481777)
(0.163987 -0.0195155 0.00451786 0.00488095 -0.0011537 0.00402775)
(0.172525 -0.0201332 0.00485217 0.00492701 -0.00117708 0.00340035)
(0.184156 -0.0203722 0.00547134 0.00479047 -0.00105957 0.00283577)
(0.190542 -0.0206154 0.00602374 0.00486662 -0.0011287 0.00251036)
(0.208393 -0.0221509 0.00801487 0.00517051 -0.00082764 0.00233193)
(0.00633842 -0.00100544 0.000701351 0.0011305 -0.00036399 0.000330968)
(0.0111593 0.000242351 0.00159053 0.00158151 -7.18697e-05 0.00112611)
(0.0210631 0.00265616 0.00287919 0.00253197 -1.21867e-06 0.00232749)
(0.022233 0.0038969 0.00277849 0.00343173 5.99434e-05 0.00358289)
(0.0280871 0.00610459 0.0029003 0.00383876 0.000261891 0.00498949)
(0.0316838 0.00623564 0.00193101 0.00405901 0.000402546 0.00603159)
(0.0392726 0.00751265 0.00112638 0.00418156 0.000672521 0.00678741)
(0.0470667 0.00711901 -0.000469899 0.00426048 0.000806385 0.00693826)
(0.0567686 0.00789724 -0.00167816 0.00432927 0.000981369 0.00676749)
(0.0672348 0.0074476 -0.00309622 0.00438263 0.00102853 0.00623359)
(0.0779677 0.00804815 -0.00394632 0.00442922 0.0011059 0.00564835)
(0.0895761 0.00772519 -0.00480338 0.00447082 0.00109426 0.0049592)
(0.100426 0.00826832 -0.00524604 0.00450306 0.00112157 0.00435071)
(0.112372 0.00811879 -0.00562638 0.00453177 0.00108088 0.00373272)
(0.122896 0.00870536 -0.00568694 0.00456382 0.00109308 0.00324609)
(0.135256 0.00850738 -0.00557472 0.00455347 0.00104845 0.00280984)
(0.144921 0.00956702 -0.00523593 0.00464773 0.0010255 0.00254541)
(0.158791 0.00819825 -0.00485227 0.00453162 0.00111584 0.00235545)
(0.165433 0.0103661 -0.00421549 0.00459304 0.000863865 0.00233071)
(0.185449 0.00463015 -0.00335174 0.00636582 0.00187753 0.00230943)
(0.0046986 -0.000597743 0.000196897 0.00783042 -0.00121002 0.000342014)
(0.00947466 0.00474653 -0.000818475 0.0087653 -0.00179266 0.00129838)
(0.0280757 0.00866131 -0.00255916 0.00756017 -0.00200854 0.00300843)
(0.0548793 0.0120252 -0.00503005 0.00611618 -0.00177807 0.00469977)
(0.0820018 0.0120468 -0.00774291 0.00545557 -0.00166103 0.00601532)
(0.108105 0.01298 -0.0103163 0.00515079 -0.00145077 0.00626002)
(0.13104 0.012351 -0.0126173 0.00502758 -0.00138215 0.00593547)
(0.151581 0.0127223 -0.0141161 0.00494999 -0.00125729 0.00515427)
(0.170163 0.0120347 -0.0152243 0.00492491 -0.0012469 0.00443522)
(0.186597 0.0121068 -0.0156753 0.00488596 -0.00117408 0.0038099)
(0.202097 0.0114281 -0.0161511 0.0048795 -0.00118257 0.00339275)
(0.215718 0.0112945 -0.0161798 0.00485113 -0.0011301 0.00305031)
(0.229004 0.0106655 -0.0164481 0.0048517 -0.00114224 0.00283384)
(0.240674 0.0103737 -0.0162605 0.00482909 -0.00110135 0.00263905)
(0.252302 0.00983156 -0.0163799 0.00482966 -0.00110587 0.00255147)
(0.263056 0.00928931 -0.016068 0.00482737 -0.00106827 0.00248871)
(0.271977 0.00892479 -0.0161259 0.00478436 -0.00105697 0.00251095)
(0.285611 0.00745721 -0.0158932 0.00484328 -0.000983371 0.00254317)
(0.279732 0.00743668 -0.0156291 0.00470591 -0.000979079 0.00264386)
(0.300893 2.48027e-05 -0.0146765 0.00429809 -0.000544644 0.00258737)
(0.0154702 0.00125146 -0.00160985 0.000171442 -0.000191793 0.000439873)
(0.0662837 -0.00897765 -0.00497753 0.00156698 0.000631298 0.00184823)
(0.100863 -0.0161765 -0.00763215 0.00338968 0.00106782 0.00419841)
(0.134512 -0.0210341 -0.00937188 0.00425617 0.00109665 0.00593436)
(0.140724 -0.0212966 -0.0112921 0.00455674 0.00121599 0.00664121)
(0.158553 -0.0225563 -0.0123217 0.00465077 0.00115777 0.00606529)
(0.15781 -0.0217176 -0.0134144 0.00471589 0.00125708 0.00518023)
(0.170156 -0.0223044 -0.01355 0.00472522 0.00121096 0.00414629)
(0.168051 -0.0214075 -0.0139192 0.00475567 0.00128218 0.00351933)
(0.177636 -0.0217254 -0.013696 0.00475711 0.00122716 0.00305958)
(0.175474 -0.0208707 -0.0138977 0.00477423 0.00126713 0.00289375)
(0.183201 -0.0209786 -0.0136547 0.00477157 0.00120938 0.00272924)
(0.181367 -0.0201902 -0.0138047 0.00478001 0.00123355 0.00270771)
(0.187676 -0.020142 -0.0135602 0.00477672 0.00117872 0.00265088)
(0.186341 -0.0194275 -0.0136879 0.00477847 0.0011891 0.0027063)
(0.191546 -0.0192635 -0.0134851 0.00478357 0.00113967 0.00272762)
(0.190615 -0.0184973 -0.013639 0.00473896 0.0011227 0.00282194)
(0.195679 -0.0183982 -0.0135223 0.00483187 0.00109869 0.00286518)
(0.192425 -0.015685 -0.0135353 0.00411697 0.000908753 0.00296763)
(0.211721 -0.0216119 -0.0134174 0.00518589 0.00115966 0.0028773)
(0.00514474 -0.000478243 2.6553e-05 0.0029245 2.31886e-05 7.07638e-07)
(0.044306 -0.0150218 2.53012e-06 0.00686672 2.40115e-05 5.60292e-07)
(0.0955889 -0.021755 1.70115e-05 0.00789149 3.48465e-05 6.39945e-07)
(0.183242 -0.0298226 4.80178e-05 0.00769835 2.59048e-05 5.49074e-07)
(0.196209 -0.0286764 3.46279e-05 0.00786955 3.66673e-05 6.14937e-07)
(0.251599 -0.0337236 6.36356e-05 0.00817712 2.88207e-05 5.28277e-07)
(0.242719 -0.0318426 3.85229e-05 0.00844985 3.9005e-05 5.86967e-07)
(0.284727 -0.0355031 6.56747e-05 0.00865628 3.1311e-05 5.06073e-07)
(0.272731 -0.0332928 3.87627e-05 0.00877799 4.03696e-05 5.58626e-07)
(0.30728 -0.0358643 6.53318e-05 0.00886851 3.28291e-05 4.8605e-07)
(0.295393 -0.0336819 3.85193e-05 0.00892212 4.07945e-05 5.31452e-07)
(0.324025 -0.035502 6.44325e-05 0.00896992 3.36374e-05 4.66245e-07)
(0.313263 -0.0334924 3.82467e-05 0.00899759 4.0674e-05 5.03305e-07)
(0.337241 -0.0347781 6.38388e-05 0.00903113 3.39146e-05 4.44612e-07)
(0.327927 -0.0329639 3.87635e-05 0.00903609 4.0034e-05 4.74022e-07)
(0.348663 -0.0338531 6.49161e-05 0.00909362 3.3713e-05 4.22069e-07)
(0.339372 -0.032043 4.04448e-05 0.00894063 3.85606e-05 4.44956e-07)
(0.360576 -0.0327084 7.08877e-05 0.00943434 3.37169e-05 3.9966e-07)
(0.341854 -0.0257546 3.84095e-05 0.00706918 3.44977e-05 4.18614e-07)
(0.338571 -0.0243002 9.25301e-05 0.00769444 2.80626e-05 3.6739e-07)
(0.0073359 0.000330047 3.24873e-05 0.000525368 -8.436e-06 5.55254e-07)
(0.00583838 -3.48811e-05 2.01079e-05 0.00161255 -1.9588e-05 4.68827e-07)
(0.0122262 -0.00262018 6.00516e-05 0.00330477 -3.06026e-05 5.30398e-07)
(0.023232 -0.000121734 6.76256e-05 0.00497542 -2.69175e-05 4.60484e-07)
(0.0356461 -0.0011167 9.16344e-05 0.00630478 -3.39963e-05 5.07328e-07)
(0.0638468 0.0038818 0.000103837 0.00720486 -2.60651e-05 4.35918e-07)
(0.0781936 0.00263459 0.000115339 0.00768855 -3.44906e-05 4.79588e-07)
(0.111616 0.0067214 0.000127611 0.00800923 -2.66289e-05 4.13707e-07)
(0.124167 0.00516293 0.000131811 0.00820346 -3.46447e-05 4.55243e-07)
(0.1569 0.00831205 0.000143124 0.00836236 -2.70025e-05 3.95145e-07)
(0.166995 0.00672639 0.000142129 0.0084707 -3.42824e-05 4.31157e-07)
(0.19705 0.00908841 0.000152251 0.0085689 -2.70853e-05 3.75961e-07)
(0.205203 0.0075349 0.000147519 0.00863136 -3.36655e-05 4.05343e-07)
(0.232389 0.0092773 0.000157058 0.00870717 -2.69275e-05 3.55216e-07)
(0.239245 0.00773056 0.000149983 0.00872326 -3.27943e-05 3.78621e-07)
(0.264584 0.00921742 0.000159949 0.00882846 -2.63572e-05 3.3424e-07)
(0.26901 0.00706577 0.000151409 0.00877798 -3.18041e-05 3.52378e-07)
(0.296711 0.010185 0.000162956 0.00897194 -2.46961e-05 3.14545e-07)
(0.288681 0.0048709 0.00015312 0.00902344 -3.08359e-05 3.2722e-07)
(0.3532 0.0207734 0.000169381 0.0110898 -1.99474e-05 2.91035e-07)
(0.00588137 0.00165365 3.25949e-05 0.00159191 1.64128e-05 6.25307e-07)
(0.00734716 0.00324923 1.90062e-05 0.008235 1.89449e-05 5.17354e-07)
(0.0250803 0.013099 6.00355e-05 0.0115488 2.84475e-05 5.84526e-07)
(0.0229724 0.00982192 4.22743e-05 0.0114229 1.65385e-05 4.99667e-07)
(0.0357497 0.0140122 7.84943e-05 0.0109111 2.87852e-05 5.5674e-07)
(0.0320299 0.00948934 6.76365e-05 0.0104527 2.00327e-05 4.75523e-07)
(0.0425703 0.0124174 0.000100104 0.0101411 3.1576e-05 5.27779e-07)
(0.0433966 0.00886079 9.31038e-05 0.00992622 2.38477e-05 4.5449e-07)
(0.0545024 0.0114737 0.000121243 0.00971892 3.40418e-05 5.03661e-07)
(0.0597013 0.00883643 0.000116281 0.00959158 2.68202e-05 4.37607e-07)
(0.0712068 0.0111916 0.000139905 0.00945441 3.56365e-05 4.80468e-07)
(0.0792214 0.00926395 0.000135998 0.00938253 2.87789e-05 4.20119e-07)
(0.0905186 0.0113306 0.000155151 0.00929848 3.63423e-05 4.55244e-07)
(0.100202 0.009949 0.000152095 0.00925138 2.97607e-05 4.00271e-07)
(0.11092 0.0116742 0.000167198 0.00921118 3.62007e-05 4.28084e-07)
(0.12209 0.0109262 0.00016568 0.00915132 2.99767e-05 3.78974e-07)
(0.131392 0.011842 0.000176661 0.00912041 3.5064e-05 4.00576e-07)
(0.145528 0.0128686 0.0001787 0.00914109 3.00898e-05 3.58113e-07)
(0.15162 0.0109905 0.000184649 0.00805327 3.16881e-05 3.75996e-07)
(0.170329 0.0164863 0.000191015 0.00941693 3.0491e-05 3.3733e-07)
(0.00529421 -0.000415725 2.85369e-05 0.000309643 -9.52315e-06 5.5904e-07)
(0.00618345 -0.000252248 1.84708e-05 0.00163368 -1.82101e-05 4.80346e-07)
(0.0251513 -0.00372372 5.29836e-05 0.00327977 -2.96864e-05 5.39323e-07)
(0.0301476 -0.00396514 3.06648e-05 0.00480687 -2.68971e-05 4.66312e-07)
(0.0561902 -0.00922545 6.21828e-05 0.00589663 -3.50034e-05 5.15499e-07)
(0.0580247 -0.00917653 4.12039e-05 0.00667475 -2.85486e-05 4.42641e-07)
(0.0806588 -0.013925 7.45455e-05 0.00711753 -3.68569e-05 4.87109e-07)
(0.0805507 -0.0132663 5.61914e-05 0.00743371 -2.97603e-05 4.19868e-07)
(0.100068 -0.0170832 8.92845e-05 0.00763038 -3.73055e-05 4.62044e-07)
(0.100056 -0.0162158 7.35345e-05 0.00780186 -2.99509e-05 4.01252e-07)
(0.117478 -0.0192921 0.000105347 0.00792655 -3.65698e-05 4.38761e-07)
(0.11852 -0.0184634 9.20829e-05 0.00804172 -2.93682e-05 3.83198e-07)
(0.134465 -0.020988 0.000121793 0.00813882 -3.52911e-05 4.14307e-07)
(0.136811 -0.0203355 0.00011071 0.00821413 -2.84537e-05 3.63504e-07)
(0.15161 -0.0224882 0.000137831 0.00831292 -3.39469e-05 3.8818e-07)
(0.155026 -0.0220283 0.00012872 0.00831802 -2.723e-05 3.42742e-07)
(0.169212 -0.0240445 0.000153451 0.00854315 -3.28566e-05 3.6181e-07)
(0.172824 -0.0237363 0.000145071 0.00833726 -2.49218e-05 3.22777e-07)
(0.18784 -0.0256956 0.000170115 0.00894524 -3.16425e-05 3.36162e-07)
(0.188484 -0.0281009 0.000155039 0.0105993 -2.24029e-05 3.02807e-07)
(0.00538786 0.0010247 3.01736e-05 0.000876754 1.33207e-05 5.94922e-07)
(0.00607376 0.00107547 2.02578e-05 0.00468162 1.84408e-05 5.07237e-07)
(0.02396 0.009543 5.7719e-05 0.00712671 2.81306e-05 5.69087e-07)
(0.0298659 0.00987781 3.45353e-05 0.00819934 1.90696e-05 4.88058e-07)
(0.0593469 0.0171547 6.66658e-05 0.00869967 2.96456e-05 5.42566e-07)
(0.0659637 0.016444 4.1974e-05 0.00897266 2.12433e-05 4.64245e-07)
(0.0966062 0.0219856 7.56953e-05 0.00909187 3.17419e-05 5.13481e-07)
(0.102937 0.021005 5.20336e-05 0.00915627 2.39766e-05 4.41867e-07)
(0.132431 0.0253155 8.64718e-05 0.00914043 3.35035e-05 4.87814e-07)
(0.13878 0.0243371 6.4947e-05 0.0091367 2.61745e-05 4.23298e-07)
(0.166477 0.027766 9.95309e-05 0.00909283 3.45517e-05 4.64087e-07)
(0.173137 0.0269541 8.09113e-05 0.00907686 2.76337e-05 4.05615e-07)
(0.198906 0.0297543 0.000114994 0.00904026 3.4944e-05 4.3969e-07)
(0.206213 0.0291404 9.9372e-05 0.00901518 2.83731e-05 3.86468e-07)
(0.229821 0.0314761 0.000132301 0.00901136 3.47039e-05 4.13607e-07)
(0.238312 0.0309813 0.00011922 0.00893375 2.8383e-05 3.65937e-07)
(0.258525 0.0330446 0.000151078 0.00901346 3.37729e-05 3.86968e-07)
(0.270041 0.0326783 0.000138842 0.00886575 2.7809e-05 3.45721e-07)
(0.282635 0.0331077 0.000173097 0.008509 3.18104e-05 3.62381e-07)
(0.295981 0.0356365 0.000156373 0.0102814 2.91093e-05 3.26164e-07)
(0.0053457 -0.000714765 2.91012e-05 0.000495891 -1.1183e-05 5.74351e-07)
(0.00595194 -0.000536584 1.97581e-05 0.00267162 -1.79764e-05 4.94431e-07)
(0.0227595 -0.00637744 5.60139e-05 0.00440192 -2.84076e-05 5.53558e-07)
(0.0283634 -0.00658724 3.4001e-05 0.00576324 -2.27003e-05 4.76178e-07)
(0.057672 -0.0128178 6.45725e-05 0.0066333 -3.21001e-05 5.28328e-07)
(0.065509 -0.0126101 3.96446e-05 0.00725697 -2.49492e-05 4.52942e-07)
(0.0982748 -0.0179335 7.17948e-05 0.00760242 -3.43481e-05 4.9994e-07)
(0.107387 -0.0174661 4.68769e-05 0.00784883 -2.7128e-05 4.30487e-07)
(0.140958 -0.0218423 8.01142e-05 0.0079843 -3.5616e-05 4.74308e-07)
(0.151209 -0.0213479 5.66692e-05 0.00810551 -2.84283e-05 4.11528e-07)
(0.184328 -0.0249746 9.06326e-05 0.00818064 -3.58308e-05 4.50513e-07)
(0.19553 -0.0245889 6.98578e-05 0.00825669 -2.88453e-05 3.93534e-07)
(0.227601 -0.0276432 0.000104137 0.00831527 -3.53259e-05 4.26149e-07)
(0.239698 -0.0274064 8.65146e-05 0.00835628 -2.86309e-05 3.74246e-07)
(0.270213 -0.0300416 0.000120592 0.00843506 -3.44202e-05 4.00229e-07)
(0.283169 -0.029929 0.000105742 0.00839187 -2.78305e-05 3.53795e-07)
(0.310739 -0.0323503 0.00013972 0.00860161 -3.3316e-05 3.73944e-07)
(0.325725 -0.0327619 0.0001253 0.00837316 -2.61614e-05 3.33981e-07)
(0.344745 -0.0340227 0.000162837 0.00863643 -3.1814e-05 3.48862e-07)
(0.362639 -0.0394507 0.000143048 0.0103201 -2.6121e-05 3.14582e-07)
(0.0053457 0.000714759 2.91013e-05 0.000495889 1.1183e-05 5.74351e-07)
(0.00595194 0.000536596 1.97584e-05 0.00267162 1.79764e-05 4.94431e-07)
(0.0227595 0.00637744 5.6014e-05 0.00440192 2.84076e-05 5.53558e-07)
(0.0283635 0.00658725 3.40013e-05 0.00576324 2.27002e-05 4.76178e-07)
(0.0576719 0.0128178 6.45729e-05 0.0066333 3.21001e-05 5.28328e-07)
(0.0655092 0.0126102 3.96453e-05 0.00725699 2.4949e-05 4.52942e-07)
(0.0982745 0.0179335 7.17958e-05 0.00760244 3.4348e-05 4.99939e-07)
(0.107388 0.0174663 4.68764e-05 0.0078489 2.71277e-05 4.30488e-07)
(0.140957 0.0218426 8.0115e-05 0.00798437 3.56159e-05 4.74308e-07)
(0.151211 0.0213491 5.66687e-05 0.0081057 2.84274e-05 4.11528e-07)
(0.184325 0.0249755 9.06337e-05 0.00818086 3.58304e-05 4.5051e-07)
(0.195536 0.0245926 6.98505e-05 0.00825738 2.88435e-05 3.93537e-07)
(0.227593 0.0276462 0.000104139 0.0083158 3.53249e-05 4.26149e-07)
(0.239712 0.0274197 8.65046e-05 0.0083586 2.86256e-05 3.74245e-07)
(0.270197 0.03005 0.000120599 0.00843642 3.44183e-05 4.00225e-07)
(0.283207 0.0299663 0.000105709 0.00839909 2.78202e-05 3.53777e-07)
(0.310715 0.0323813 0.000139733 0.00860637 3.33124e-05 3.73959e-07)
(0.325855 0.0328519 0.000125238 0.00839232 2.61515e-05 3.33935e-07)
(0.344809 0.0341217 0.000162908 0.00865303 3.18184e-05 3.48942e-07)
(0.362807 0.0396507 0.000142958 0.0103731 2.61306e-05 3.14501e-07)
(0.00538787 -0.00102471 3.01738e-05 0.000876757 -1.33207e-05 5.94922e-07)
(0.00607376 -0.00107546 2.02575e-05 0.00468163 -1.84409e-05 5.07237e-07)
(0.02396 -0.009543 5.77197e-05 0.00712673 -2.81306e-05 5.69087e-07)
(0.0298659 -0.0098778 3.45356e-05 0.00819932 -1.90697e-05 4.88057e-07)
(0.0593469 -0.0171548 6.66663e-05 0.00869968 -2.96455e-05 5.42567e-07)
(0.0659638 -0.0164439 4.19744e-05 0.00897261 -2.12436e-05 4.64245e-07)
(0.0966062 -0.0219856 7.56973e-05 0.00909187 -3.17418e-05 5.13483e-07)
(0.102937 -0.0210048 5.20377e-05 0.00915612 -2.39771e-05 4.41866e-07)
(0.132431 -0.0253153 8.64739e-05 0.00914037 -3.35035e-05 4.87815e-07)
(0.138781 -0.0243359 6.49492e-05 0.00913633 -2.61756e-05 4.23298e-07)
(0.166478 -0.0277655 9.9533e-05 0.00909261 -3.45518e-05 4.64089e-07)
(0.173139 -0.0269507 8.09207e-05 0.00907575 -2.76356e-05 4.05611e-07)
(0.198913 -0.0297528 0.000114992 0.00903979 -3.49448e-05 4.39689e-07)
(0.206216 -0.0291289 9.93801e-05 0.00901181 -2.8378e-05 3.86472e-07)
(0.229845 -0.0314725 0.000132291 0.00901035 -3.47057e-05 4.13606e-07)
(0.238317 -0.0309515 0.00011925 0.00892482 -2.8392e-05 3.65959e-07)
(0.2586 -0.0330319 0.000151054 0.00901008 -3.37768e-05 3.86943e-07)
(0.270029 -0.0326175 0.000138877 0.00884828 -2.78162e-05 3.45769e-07)
(0.282782 -0.0330623 0.000173024 0.00849641 -3.18057e-05 3.62295e-07)
(0.296045 -0.0354888 0.000156372 0.0102417 -2.90994e-05 3.2623e-07)
(0.00529421 0.000415723 2.85372e-05 0.000309642 9.52314e-06 5.59039e-07)
(0.00618346 0.000252258 1.84711e-05 0.00163368 1.821e-05 4.80346e-07)
(0.0251513 0.00372372 5.29845e-05 0.00327977 2.96864e-05 5.39323e-07)
(0.0301477 0.00396514 3.06655e-05 0.00480687 2.68971e-05 4.66312e-07)
(0.0561901 0.00922545 6.21838e-05 0.00589663 3.50034e-05 5.15499e-07)
(0.0580251 0.00917659 4.12053e-05 0.00667475 2.85485e-05 4.42641e-07)
(0.0806582 0.013925 7.45486e-05 0.00711755 3.68568e-05 4.87109e-07)
(0.0805518 0.0132663 5.61939e-05 0.00743373 2.97601e-05 4.19868e-07)
(0.100067 0.0170834 8.92877e-05 0.00763044 3.73053e-05 4.62044e-07)
(0.100059 0.0162164 7.35353e-05 0.00780189 2.99503e-05 4.01252e-07)
(0.117475 0.0192928 0.00010535 0.00792676 3.65693e-05 4.3876e-07)
(0.118529 0.018465 9.20791e-05 0.00804196 2.93667e-05 3.832e-07)
(0.134461 0.0209898 0.000121794 0.0081394 3.52903e-05 4.14304e-07)
(0.136834 0.0203414 0.000110705 0.00821518 2.84491e-05 3.63506e-07)
(0.151605 0.0224927 0.000137827 0.00831451 3.39461e-05 3.88169e-07)
(0.155081 0.0220451 0.0001287 0.00832229 2.72207e-05 3.42732e-07)
(0.16922 0.0240597 0.000153438 0.00854863 3.28557e-05 3.61804e-07)
(0.172966 0.0237859 0.000145029 0.00835338 2.49157e-05 3.22744e-07)
(0.187929 0.0257492 0.00017014 0.00896363 3.16492e-05 3.36207e-07)
(0.188809 0.0282268 0.000154967 0.0106545 2.24195e-05 3.02765e-07)
(0.00588138 -0.00165366 3.25953e-05 0.00159191 -1.64128e-05 6.25307e-07)
(0.00734717 -0.00324923 1.90061e-05 0.00823501 -1.89449e-05 5.17354e-07)
(0.0250803 -0.013099 6.0037e-05 0.0115489 -2.84474e-05 5.84526e-07)
(0.0229724 -0.00982193 4.22753e-05 0.0114228 -1.65386e-05 4.99665e-07)
(0.0357496 -0.0140121 7.84958e-05 0.0109111 -2.87851e-05 5.5674e-07)
(0.03203 -0.00948935 6.76384e-05 0.0104526 -2.0033e-05 4.75523e-07)
(0.0425702 -0.0124173 0.000100109 0.0101412 -3.15757e-05 5.27781e-07)
(0.0433966 -0.00886097 9.31104e-05 0.00992606 -2.38482e-05 4.54488e-07)
(0.0545026 -0.0114736 0.000121249 0.00971893 -3.40414e-05 5.03663e-07)
(0.0597006 -0.00883683 0.000116282 0.0095912 -2.68213e-05 4.37606e-07)
(0.0712069 -0.0111916 0.000139913 0.00945439 -3.56359e-05 4.80473e-07)
(0.079218 -0.00926542 0.000136001 0.00938148 -2.87809e-05 4.20113e-07)
(0.0905182 -0.0113315 0.000155156 0.00929855 -3.63417e-05 4.55244e-07)