/*--------------------------------*- C++ -*----------------------------------*\
  =========                 |
  \\      /  F ield         | OpenFOAM: The Open Source CFD Toolbox
   \\    /   O peration     | Website:  https://openfoam.org
    \\  /    A nd           | Version:  7
     \\/     M anipulation  |
\*---------------------------------------------------------------------------*/
FoamFile
{
    version     2.0;
    format      ascii;
    class       volVectorField;
    location    "0.9325";
    object      U;
}
// * * * * * * * * * * * * * * * * * * * * * * * * * * * * * * * * * * * * * //

dimensions      [0 1 -1 0 0 0 0];

internalField   nonuniform List<vector> 
1600
(
(0.0622451 0.0499596 0)
(0.0240306 0.0113408 0)
(0.0109523 0.00252161 0)
(0.00493335 0.00039922 0)
(0.00174328 -0.000119447 0)
(3.92798e-05 -0.000196265 0)
(-0.000928791 -0.000168921 0)
(-0.00151824 -0.000126643 0)
(-0.00189195 -9.15591e-05 0)
(-0.00213221 -6.79866e-05 0)
(-0.00228467 -4.97988e-05 0)
(-0.00237842 -3.73008e-05 0)
(-0.00243108 -2.80831e-05 0)
(-0.0024552 -2.10688e-05 0)
(-0.00245884 -1.58634e-05 0)
(-0.00244808 -1.21235e-05 0)
(-0.00242649 -8.95544e-06 0)
(-0.00239609 -6.6459e-06 0)
(-0.00235843 -4.95894e-06 0)
(-0.00231419 -3.75581e-06 0)
(-0.0022642 -2.9312e-06 0)
(-0.00220865 -2.15716e-06 0)
(-0.00214764 -1.77673e-06 0)
(-0.00208201 -1.97667e-06 0)
(-0.00201237 -2.22848e-06 0)
(-0.00193891 -2.3795e-06 0)
(-0.00186208 -2.44644e-06 0)
(-0.00178242 -2.42957e-06 0)
(-0.00170046 -2.31863e-06 0)
(-0.00161685 -2.12204e-06 0)
(-0.00153205 -1.7251e-06 0)
(-0.00144628 -1.15113e-06 0)
(-0.00135949 -5.37354e-07 0)
(-0.00127095 -2.23366e-07 0)
(-0.00117805 -1.3866e-06 0)
(-0.00107583 -1.0352e-05 0)
(-0.000984533 -2.48289e-05 0)
(-0.000915648 -2.23211e-05 0)
(-0.000792326 -6.04381e-05 0)
(-0.00041559 -0.000202704 0)
(0.0853783 0.061913 0)
(0.05944 0.0337478 0)
(0.0398764 0.0181608 0)
(0.0256683 0.00972369 0)
(0.0159815 0.00536007 0)
(0.00957786 0.00311716 0)
(0.00529302 0.00191848 0)
(0.00237445 0.00123507 0)
(0.00035735 0.000816305 0)
(-0.00104292 0.000545036 0)
(-0.00201786 0.000362796 0)
(-0.0027004 0.000237447 0)
(-0.00317231 0.000149774 0)
(-0.00349398 8.87865e-05 0)
(-0.00370544 4.45475e-05 0)
(-0.00383489 1.25571e-05 0)
(-0.0039023 -1.17574e-05 0)
(-0.00392104 -3.14921e-05 0)
(-0.00389984 -4.77001e-05 0)
(-0.00384508 -6.22034e-05 0)
(-0.00376174 -7.53944e-05 0)
(-0.00365363 -8.73073e-05 0)
(-0.00352393 -9.83575e-05 0)
(-0.00337485 -0.000108761 0)
(-0.00320859 -0.000118168 0)
(-0.00302747 -0.000126448 0)
(-0.00283353 -0.000133614 0)
(-0.00262863 -0.000139683 0)
(-0.00241444 -0.000144704 0)
(-0.00219253 -0.000148827 0)
(-0.00196416 -0.000152175 0)
(-0.00173011 -0.000155241 0)
(-0.00149044 -0.000159151 0)
(-0.0012444 -0.000166029 0)
(-0.000990948 -0.000180103 0)
(-0.00072528 -0.000209543 0)
(-0.000457183 -0.00026604 0)
(-0.000228752 -0.000332215 0)
(-0.000111724 -0.000418814 0)
(0.000368668 -0.000473341 0)
(0.102713 0.0769458 0)
(0.0818864 0.0547562 0)
(0.0626092 0.0374301 0)
(0.0458211 0.0245499 0)
(0.0326976 0.0159492 0)
(0.0229137 0.0105053 0)
(0.0157348 0.00706916 0)
(0.0104951 0.00484707 0)
(0.00667386 0.00336595 0)
(0.00388668 0.0023571 0)
(0.00184992 0.00165303 0)
(0.000357541 0.00115718 0)
(-0.000733236 0.000802934 0)
(-0.00152834 0.000546949 0)
(-0.0021012 0.00035888 0)
(-0.00250472 0.000217633 0)
(-0.0027785 0.000108366 0)
(-0.00294786 2.13651e-05 0)
(-0.00303262 -4.99346e-05 0)
(-0.00304733 -0.000110243 0)
(-0.00300217 -0.000163143 0)
(-0.00290591 -0.000209696 0)
(-0.00276571 -0.000250746 0)
(-0.00258729 -0.000286917 0)
(-0.00237571 -0.000318793 0)
(-0.00213555 -0.000346655 0)
(-0.00187093 -0.000370711 0)
(-0.00158551 -0.00039123 0)
(-0.00128262 -0.000408475 0)
(-0.000965213 -0.000422894 0)
(-0.000635821 -0.000435101 0)
(-0.00029658 -0.000446163 0)
(5.10206e-05 -0.000457895 0)
(0.000405953 -0.000473507 0)
(0.00076717 -0.000498269 0)
(0.00113197 -0.000539531 0)
(0.00148539 -0.000609861 0)
(0.0018027 -0.000706297 0)
(0.00207397 -0.000787295 0)
(0.00259064 -0.000700047 0)
(0.0977018 0.082481 0)
(0.0899716 0.068507 0)
(0.0771836 0.0535065 0)
(0.0624216 0.0394915 0)
(0.0488742 0.0283536 0)
(0.0375442 0.0202305 0)
(0.0284697 0.0144792 0)
(0.0213802 0.0104142 0)
(0.015921 0.00752207 0)
(0.0117488 0.0054526 0)
(0.00856931 0.00396152 0)
(0.00614698 0.00288084 0)
(0.00430279 0.00209054 0)
(0.00290099 0.00150539 0)
(0.00184061 0.00106689 0)
(0.00104626 0.000730766 0)
(0.000462089 0.000467932 0)
(4.73082e-05 0.000257348 0)
(-0.000228829 8.39809e-05 0)
(-0.00039036 -6.1308e-05 0)
(-0.000454534 -0.000185059 0)
(-0.000434936 -0.00029301 0)
(-0.000344236 -0.000387171 0)
(-0.00019244 -0.000469266 0)
(1.19448e-05 -0.000540708 0)
(0.000261396 -0.000602546 0)
(0.000549171 -0.000655604 0)
(0.00086935 -0.000700652 0)
(0.00121664 -0.000738469 0)
(0.00158625 -0.000769961 0)
(0.00197394 -0.00079624 0)
(0.00237594 -0.000818853 0)
(0.00278887 -0.000839898 0)
(0.00320951 -0.000862662 0)
(0.00363412 -0.000891722 0)
(0.00405707 -0.000933051 0)
(0.00446621 -0.000991858 0)
(0.00484604 -0.00106099 0)
(0.00520635 -0.00111271 0)
(0.00575303 -0.00107159 0)
(0.111195 0.0783665 0)
(0.100996 0.0773581 0)
(0.0887215 0.0668104 0)
(0.0753416 0.0532898 0)
(0.0626835 0.0409323 0)
(0.0513265 0.0309669 0)
(0.0415413 0.023286 0)
(0.0333926 0.0174546 0)
(0.0267658 0.0130608 0)
(0.0214561 0.00977149 0)
(0.0172379 0.00731654 0)
(0.0139027 0.00548249 0)
(0.0112745 0.00410532 0)
(0.00920989 0.00306268 0)
(0.00759467 0.00226446 0)
(0.00633923 0.00164378 0)
(0.00537424 0.00115238 0)
(0.00464646 0.000755228 0)
(0.0041151 0.000427666 0)
(0.00374845 0.000152656 0)
(0.0035197 -8.06191e-05 0)
(0.00340884 -0.000281075 0)
(0.00340021 -0.000455275 0)
(0.0034786 -0.000606295 0)
(0.00363138 -0.000736756 0)
(0.00384769 -0.000848983 0)
(0.00411796 -0.00094486 0)
(0.00443371 -0.00102597 0)
(0.00478741 -0.00109388 0)
(0.00517227 -0.00115013 0)
(0.0055822 -0.00119637 0)
(0.00601164 -0.00123452 0)
(0.00645535 -0.00126691 0)
(0.00690811 -0.00129654 0)
(0.00736425 -0.00132709 0)
(0.0078167 -0.00136261 0)
(0.00825442 -0.00140588 0)
(0.00866501 -0.00145333 0)
(0.00906593 -0.00148992 0)
(0.00961872 -0.00147371 0)
(0.106398 0.0900071 0)
(0.100504 0.0893399 0)
(0.0923184 0.0782057 0)
(0.082873 0.0647662 0)
(0.0728757 0.0521358 0)
(0.0629267 0.0413208 0)
(0.0536092 0.0324152 0)
(0.0453006 0.0252217 0)
(0.0381402 0.0195066 0)
(0.0321092 0.0150361 0)
(0.0271064 0.0115747 0)
(0.0230002 0.00890461 0)
(0.019657 0.00684247 0)
(0.0169526 0.00524276 0)
(0.0147779 0.00399241 0)
(0.0130403 0.00300417 0)
(0.0116639 0.00221184 0)
(0.0105877 0.00156605 0)
(0.00976292 0.00103097 0)
(0.00915063 0.000580821 0)
(0.00871891 0.000197452 0)
(0.00844048 -0.000130296 0)
(0.00829421 -0.00041265 0)
(0.00826255 -0.00065728 0)
(0.00832841 -0.000867894 0)
(0.00847728 -0.00104842 0)
(0.00869668 -0.00120221 0)
(0.00897558 -0.00133209 0)
(0.00930413 -0.00144064 0)
(0.00967355 -0.00153024 0)
(0.0100759 -0.00160324 0)
(0.0105039 -0.001662 0)
(0.0109507 -0.00170902 0)
(0.0114095 -0.00174702 0)
(0.0118733 -0.00177891 0)
(0.0123343 -0.00180751 0)
(0.0127817 -0.00183472 0)
(0.0132041 -0.00185941 0)
(0.0136217 -0.00187433 0)
(0.0141742 -0.00185898 0)
(0.0984253 0.0983433 0)
(0.0978329 0.0941233 0)
(0.0930784 0.0847771 0)
(0.0872334 0.0728029 0)
(0.0800785 0.0609584 0)
(0.0721532 0.0502699 0)
(0.0640771 0.0409375 0)
(0.0563502 0.0329582 0)
(0.0492756 0.0262953 0)
(0.0429962 0.0208553 0)
(0.0375476 0.0164812 0)
(0.0329016 0.0129907 0)
(0.0289944 0.0102127 0)
(0.0257445 0.00800112 0)
(0.023065 0.00623481 0)
(0.0208732 0.00481444 0)
(0.0190951 0.0036604 0)
(0.0176676 0.00271074 0)
(0.0165382 0.00191878 0)
(0.0156634 0.00125016 0)
(0.0150072 0.000679957 0)
(0.0145387 0.000190535 0)
(0.0142307 -0.000229737 0)
(0.0140624 -0.000591703 0)
(0.0140151 -0.000903623 0)
(0.0140704 -0.00117085 0)
(0.0142127 -0.00139824 0)
(0.0144289 -0.00159016 0)
(0.0147067 -0.00175049 0)
(0.0150356 -0.00188271 0)
(0.0154058 -0.00199004 0)
(0.0158087 -0.00207546 0)
(0.0162359 -0.00214177 0)
(0.0166798 -0.00219159 0)
(0.0171323 -0.00222736 0)
(0.0175852 -0.00225119 0)
(0.018028 -0.00226462 0)
(0.0184499 -0.0022679 0)
(0.0188708 -0.00225908 0)
(0.0194202 -0.00223344 0)
(0.0939056 0.0979073 0)
(0.093386 0.0959033 0)
(0.0927255 0.0886965 0)
(0.0898796 0.0781372 0)
(0.085263 0.0674182 0)
(0.0794025 0.0574272 0)
(0.0728799 0.0482875 0)
(0.0661832 0.0400805 0)
(0.0596634 0.0329126 0)
(0.0535594 0.0268162 0)
(0.0480176 0.0217243 0)
(0.0431089 0.0175155 0)
(0.0388468 0.0140589 0)
(0.0352037 0.0112319 0)
(0.0321276 0.00892312 0)
(0.0295559 0.00703293 0)
(0.0274252 0.00547556 0)
(0.0256771 0.00418052 0)
(0.0242598 0.0030924 0)
(0.023129 0.00216914 0)
(0.0222465 0.0013794 0)
(0.0215802 0.000699956 0)
(0.021101 0.000114418 0)
(0.0207831 -0.000388909 0)
(0.0206054 -0.000822343 0)
(0.020549 -0.00119403 0)
(0.0205957 -0.00151042 0)
(0.0207299 -0.00177756 0)
(0.0209375 -0.00200088 0)
(0.0212062 -0.00218523 0)
(0.021525 -0.00233491 0)
(0.0218836 -0.00245374 0)
(0.0222731 -0.00254504 0)
(0.0226847 -0.00261166 0)
(0.0231102 -0.00265588 0)
(0.0235413 -0.00267953 0)
(0.0239678 -0.002684 0)
(0.0243794 -0.00267034 0)
(0.0247944 -0.00264006 0)
(0.0253376 -0.00260034 0)
(0.0920423 0.101185 0)
(0.0928902 0.0968274 0)
(0.0923009 0.089638 0)
(0.0914237 0.080635 0)
(0.0889911 0.0715212 0)
(0.0850472 0.0626933 0)
(0.0801241 0.0542118 0)
(0.0746524 0.0462368 0)
(0.0689722 0.0389775 0)
(0.0633653 0.0325572 0)
(0.0580469 0.0269882 0)
(0.0531607 0.0222193 0)
(0.0487844 0.0181767 0)
(0.0449421 0.0147797 0)
(0.0416204 0.0119422 0)
(0.0387836 0.00957644 0)
(0.0363861 0.00759878 0)
(0.0343798 0.0059357 0)
(0.0327193 0.00452648 0)
(0.031363 0.00332329 0)
(0.030274 0.00228956 0)
(0.02942 0.00139763 0)
(0.0287723 0.000626395 0)
(0.0283038 -3.95788e-05 0)
(0.0279911 -0.000612461 0)
(0.0278147 -0.00110441 0)
(0.0277554 -0.0015238 0)
(0.0277957 -0.00187841 0)
(0.0279201 -0.00217536 0)
(0.0281149 -0.00242101 0)
(0.028368 -0.002621 0)
(0.0286683 -0.00278021 0)
(0.029006 -0.00290279 0)
(0.0293719 -0.00299208 0)
(0.0297578 -0.00305061 0)
(0.0301554 -0.00308025 0)
(0.0305554 -0.00308242 0)
(0.0309482 -0.00305863 0)
(0.0313495 -0.0030124 0)
(0.0318824 -0.00295935 0)
(0.0897804 0.102932 0)
(0.0920595 0.0972346 0)
(0.0932981 0.0889299 0)
(0.0935695 0.0812666 0)
(0.0923312 0.0738424 0)
(0.0897043 0.0663419 0)
(0.0860816 0.0587591 0)
(0.0817585 0.0513135 0)
(0.0770081 0.0442706 0)
(0.072097 0.037805 0)
(0.0672544 0.0319893 0)
(0.062654 0.0268373 0)
(0.0584098 0.0223364 0)
(0.0545832 0.0184548 0)
(0.0511952 0.0151407 0)
(0.0482385 0.0123267 0)
(0.0456893 0.0099393 0)
(0.0435153 0.00790773 0)
(0.0416813 0.00617023 0)
(0.0401526 0.004676 0)
(0.0388967 0.00338491 0)
(0.0378835 0.00226588 0)
(0.037086 0.00129484 0)
(0.0364791 0.000452965 0)
(0.0360385 -0.000273714 0)
(0.035744 -0.000898061 0)
(0.0355773 -0.0014318 0)
(0.0355198 -0.00188423 0)
(0.0355551 -0.00226407 0)
(0.0356689 -0.00257927 0)
(0.035848 -0.00283693 0)
(0.0360809 -0.00304321 0)
(0.0363574 -0.00320331 0)
(0.0366682 -0.0033214 0)
(0.0370051 -0.00340061 0)
(0.0373603 -0.00344317 0)
(0.0377255 -0.00345073 0)
(0.0380919 -0.00342508 0)
(0.0384725 -0.0033705 0)
(0.0389902 -0.00330775 0)
(0.0939373 0.102888 0)
(0.0966959 0.0951924 0)
(0.0969539 0.0878583 0)
(0.0967462 0.0815902 0)
(0.0956219 0.0754447 0)
(0.0936264 0.0690036 0)
(0.0908819 0.0622485 0)
(0.0875035 0.0554003 0)
(0.0836593 0.0487164 0)
(0.0795503 0.0423793 0)
(0.0753696 0.0364947 0)
(0.0712775 0.0311247 0)
(0.0673928 0.0263069 0)
(0.0637944 0.0220531 0)
(0.0605277 0.0183457 0)
(0.0576112 0.0151414 0)
(0.055044 0.0123817 0)
(0.0528122 0.0100043 0)
(0.0508943 0.00795059 0)
(0.0492653 0.0061703 0)
(0.0478997 0.00462196 0)
(0.0467724 0.00327262 0)
(0.0458597 0.00209627 0)
(0.0451394 0.00107225 0)
(0.04459 0.000184032 0)
(0.0441912 -0.000580874 0)
(0.0439248 -0.00123676 0)
(0.043774 -0.00179457 0)
(0.0437221 -0.00226441 0)
(0.0437542 -0.00265578 0)
(0.0438573 -0.00297725 0)
(0.0440196 -0.00323642 0)
(0.0442306 -0.00343971 0)
(0.0444813 -0.00359237 0)
(0.0447637 -0.00369843 0)
(0.0450707 -0.00376082 0)
(0.045395 -0.00378166 0)
(0.0457291 -0.00376298 0)
(0.0460828 -0.00370893 0)
(0.0465804 -0.00364223 0)
(0.108656 0.112287 0)
(0.10346 0.0982142 0)
(0.101202 0.0897135 0)
(0.0996311 0.0830547 0)
(0.098224 0.0771093 0)
(0.0965553 0.0711617 0)
(0.0944469 0.0649648 0)
(0.0918715 0.0586149 0)
(0.088899 0.052296 0)
(0.0856507 0.046162 0)
(0.0822587 0.0403259 0)
(0.078843 0.0348757 0)
(0.0755033 0.0298795 0)
(0.0723185 0.0253788 0)
(0.0693471 0.0213825 0)
(0.0666276 0.0178692 0)
(0.0641798 0.0147977 0)
(0.0620085 0.0121177 0)
(0.0601072 0.00977839 0)
(0.0584627 0.00773299 0)
(0.057058 0.00594135 0)
(0.0558748 0.00437039 0)
(0.0548945 0.00299343 0)
(0.0540989 0.00178903 0)
(0.0534706 0.000739657 0)
(0.0529909 -0.000169103 0)
(0.052643 -0.000950344 0)
(0.0524121 -0.00161733 0)
(0.0522825 -0.00218136 0)
(0.0522398 -0.00265319 0)
(0.0522713 -0.00304282 0)
(0.0523654 -0.00335925 0)
(0.0525121 -0.00361026 0)
(0.0527026 -0.00380234 0)
(0.0529293 -0.00394064 0)
(0.053186 -0.00402906 0)
(0.0534663 -0.00407048 0)
(0.0537643 -0.00406731 0)
(0.0540869 -0.00402312 0)
(0.0545598 -0.00395971 0)
(0.0931226 0.0951275 0)
(0.0954093 0.0962906 0)
(0.0984684 0.0902145 0)
(0.0995376 0.0840093 0)
(0.0992307 0.0783834 0)
(0.0982358 0.0727998 0)
(0.0967938 0.0669957 0)
(0.0949796 0.0610196 0)
(0.0928519 0.0550072 0)
(0.090481 0.0490867 0)
(0.0879404 0.043367 0)
(0.0853005 0.0379426 0)
(0.0826301 0.032892 0)
(0.0799959 0.0282685 0)
(0.0774595 0.0240953 0)
(0.0750717 0.0203674 0)
(0.0728687 0.0170599 0)
(0.0708715 0.0141366 0)
(0.0690881 0.0115571 0)
(0.0675169 0.00928139 0)
(0.0661504 0.00727292 0)
(0.0649778 0.00550028 0)
(0.0639867 0.00393742 0)
(0.0631637 0.00256309 0)
(0.0624953 0.00135966 0)
(0.0619675 0.000311661 0)
(0.0615654 -0.000592956 0)
(0.0612757 -0.00136862 0)
(0.0610855 -0.0020274 0)
(0.0609818 -0.00258108 0)
(0.0609525 -0.00304086 0)
(0.0609871 -0.00341702 0)
(0.0610761 -0.00371867 0)
(0.0612112 -0.00395361 0)
(0.0613858 -0.00412823 0)
(0.0615941 -0.00424762 0)
(0.0618308 -0.00431566 0)
(0.0620919 -0.00433543 0)
(0.0623811 -0.00430991 0)
(0.0628261 -0.00425782 0)
(0.0956331 0.0997107 0)
(0.0948751 0.0931956 0)
(0.0972759 0.0881488 0)
(0.0987705 0.0834466 0)
(0.0991891 0.0787772 0)
(0.0988735 0.0737522 0)
(0.0981183 0.0683228 0)
(0.0970538 0.0626387 0)
(0.0957464 0.0568661 0)
(0.0942369 0.0511403 0)
(0.0925521 0.0455707 0)
(0.0907186 0.0402483 0)
(0.0887735 0.0352448 0)
(0.0867671 0.0306089 0)
(0.0847572 0.0263654 0)
(0.0828 0.0225184 0)
(0.0809418 0.0190565 0)
(0.0792157 0.0159575 0)
(0.0776413 0.013193 0)
(0.0762275 0.0107316 0)
(0.0749756 0.00854248 0)
(0.0738821 0.00659736 0)
(0.0729409 0.00487198 0)
(0.0721437 0.00334611 0)
(0.0714816 0.00200282 0)
(0.070945 0.000827252 0)
(0.0705221 -0.0001937 0)
(0.0702022 -0.0010723 0)
(0.0699755 -0.00182214 0)
(0.0698306 -0.00245562 0)
(0.0697575 -0.00298473 0)
(0.0697466 -0.00342076 0)
(0.0697898 -0.00377398 0)
(0.0698796 -0.00405342 0)
(0.0700099 -0.00426675 0)
(0.0701761 -0.00442034 0)
(0.0703737 -0.00451927 0)
(0.0706002 -0.0045676 0)
(0.0708566 -0.00456811 0)
(0.0712721 -0.0045353 0)
(0.0930417 0.10538 0)
(0.0942916 0.0901331 0)
(0.0967033 0.0855971 0)
(0.0979705 0.0822111 0)
(0.098602 0.0784476 0)
(0.098799 0.0739815 0)
(0.0986953 0.0689081 0)
(0.0983656 0.06347 0)
(0.0978524 0.0578929 0)
(0.0971653 0.0523454 0)
(0.0962963 0.0469476 0)
(0.0952413 0.0417822 0)
(0.0940153 0.0369033 0)
(0.092655 0.0323436 0)
(0.091212 0.0281205 0)
(0.0897422 0.0242406 0)
(0.088296 0.0207021 0)
(0.086913 0.0174954 0)
(0.0856206 0.0146043 0)
(0.0844356 0.0120069 0)
(0.0833665 0.009679 0)
(0.0824162 0.00759682 0)
(0.0815841 0.00573873 0)
(0.0808668 0.00408626 0)
(0.0802597 0.00262374 0)
(0.0797569 0.00133735 0)
(0.0793516 0.000213979 0)
(0.0790356 -0.000757572 0)
(0.0788009 -0.00159089 0)
(0.07864 -0.00229862 0)
(0.0785448 -0.00289321 0)
(0.0785076 -0.00338666 0)
(0.0785214 -0.00379014 0)
(0.0785803 -0.00411371 0)
(0.0786788 -0.0043662 0)
(0.0788132 -0.00455523 0)
(0.0789798 -0.00468717 0)
(0.0791776 -0.00476738 0)
(0.0794049 -0.00479899 0)
(0.0797919 -0.0047923 0)
(0.101724 0.102585 0)
(0.0998196 0.0900772 0)
(0.0983816 0.0850533 0)
(0.0978611 0.0816392 0)
(0.0980346 0.0779983 0)
(0.0984332 0.0737096 0)
(0.0988594 0.068817 0)
(0.0992155 0.0635416 0)
(0.0994504 0.0581247 0)
(0.0995208 0.0527544 0)
(0.0993906 0.0475527 0)
(0.0990416 0.0425871 0)
(0.0984803 0.0378886 0)
(0.0977366 0.0334693 0)
(0.0968563 0.0293349 0)
(0.0958913 0.025491 0)
(0.0948905 0.0219424 0)
(0.0938948 0.0186899 0)
(0.0929352 0.0157279 0)
(0.0920329 0.0130439 0)
(0.0912015 0.0106209 0)
(0.0904488 0.00843977 0)
(0.0897784 0.00648234 0)
(0.0891912 0.00473231 0)
(0.0886861 0.00317558 0)
(0.0882608 0.0017996 0)
(0.087912 0.000592371 0)
(0.0876348 -0.000457992 0)
(0.0874245 -0.00136327 0)
(0.0872762 -0.00213621 0)
(0.0871843 -0.00278942 0)
(0.0871435 -0.00333523 0)
(0.0871485 -0.00378533 0)
(0.0871945 -0.00415051 0)
(0.0872773 -0.00444053 0)
(0.0873939 -0.0046641 0)
(0.0875412 -0.00482886 0)
(0.0877195 -0.00494159 0)
(0.0879242 -0.00500644 0)
(0.0882866 -0.0050306 0)
(0.102197 0.0995889 0)
(0.100563 0.0935326 0)
(0.0987896 0.0871179 0)
(0.0976121 0.082309 0)
(0.0974883 0.0778447 0)
(0.0980416 0.0731694 0)
(0.0989339 0.0681585 0)
(0.0999097 0.0629195 0)
(0.100807 0.0576336 0)
(0.10153 0.0524551 0)
(0.102027 0.0474789 0)
(0.10228 0.0427458 0)
(0.102299 0.0382623 0)
(0.102112 0.0340219 0)
(0.101759 0.0300202 0)
(0.101287 0.0262611 0)
(0.100737 0.0227534 0)
(0.100147 0.019506 0)
(0.0995484 0.0165219 0)
(0.0989638 0.0137967 0)
(0.0984094 0.01132 0)
(0.0978959 0.00907764 0)
(0.09743 0.00705492 0)
(0.0970154 0.00523799 0)
(0.0966538 0.00361444 0)
(0.0963457 0.0021729 0)
(0.0960907 0.000902337 0)
(0.0958874 -0.000208545 0)
(0.0957339 -0.0011709 0)
(0.0956278 -0.00199705 0)
(0.0955667 -0.00269935 0)
(0.0955473 -0.00329003 0)
(0.0955662 -0.00378089 0)
(0.0956203 -0.00418309 0)
(0.0957063 -0.00450695 0)
(0.0958219 -0.004762 0)
(0.0959646 -0.00495699 0)
(0.0961354 -0.00510013 0)
(0.0963269 -0.00519705 0)
(0.0966713 -0.0052537 0)
(0.086794 0.0925903 0)
(0.0930339 0.0911727 0)
(0.0951464 0.0876048 0)
(0.0960391 0.0826854 0)
(0.0967319 0.0774776 0)
(0.0977969 0.0722405 0)
(0.0991965 0.0669619 0)
(0.100702 0.0616972 0)
(0.102123 0.0565423 0)
(0.10335 0.0515786 0)
(0.104336 0.0468499 0)
(0.105075 0.042364 0)
(0.10558 0.0381067 0)
(0.10588 0.0340593 0)
(0.106007 0.0302115 0)
(0.105997 0.026566 0)
(0.105884 0.0231345 0)
(0.1057 0.0199309 0)
(0.105472 0.0169644 0)
(0.105223 0.0142368 0)
(0.10497 0.0117433 0)
(0.104724 0.00947438 0)
(0.104493 0.00741884 0)
(0.104284 0.00556522 0)
(0.104099 0.00390266 0)
(0.103942 0.00242083 0)
(0.103814 0.00110945 0)
(0.103716 -4.21327e-05 0)
(0.103649 -0.00104484 0)
(0.103615 -0.00191019 0)
(0.103611 -0.00265003 0)
(0.103639 -0.00327616 0)
(0.103696 -0.00380008 0)
(0.10378 -0.00423284 0)
(0.10389 -0.00458495 0)
(0.104024 -0.00486639 0)
(0.104179 -0.00508672 0)
(0.104356 -0.0052554 0)
(0.104546 -0.00537975 0)
(0.104881 -0.00546668 0)
(0.0942513 0.0925551 0)
(0.0944208 0.0889824 0)
(0.0944953 0.086304 0)
(0.0952843 0.0817382 0)
(0.0965077 0.0763348 0)
(0.0980478 0.0707622 0)
(0.0998409 0.0652889 0)
(0.101701 0.060028 0)
(0.103462 0.0550222 0)
(0.105032 0.0502813 0)
(0.106377 0.0457965 0)
(0.107498 0.0415465 0)
(0.108409 0.0375033 0)
(0.109132 0.0336426 0)
(0.10969 0.0299518 0)
(0.110107 0.0264333 0)
(0.110408 0.0230998 0)
(0.110618 0.0199674 0)
(0.110759 0.0170489 0)
(0.11085 0.0143504 0)
(0.110909 0.0118714 0)
(0.110946 0.00960655 0)
(0.110971 0.00754771 0)
(0.110989 0.00568562 0)
(0.111006 0.00401075 0)
(0.111025 0.00251347 0)
(0.11105 0.00118388 0)
(0.111084 1.16867e-05 0)
(0.111131 -0.00101368 0)
(0.111193 -0.00190315 0)
(0.111274 -0.00266782 0)
(0.111373 -0.00331871 0)
(0.111491 -0.00386663 0)
(0.111629 -0.00432208 0)
(0.111784 -0.00469524 0)
(0.111955 -0.00499616 0)
(0.112139 -0.00523477 0)
(0.112339 -0.00542152 0)
(0.11254 -0.0055653 0)
(0.112878 -0.00567588 0)
(0.0980149 0.0960533 0)
(0.0963673 0.0920871 0)
(0.094557 0.0856005 0)
(0.0952707 0.0801399 0)
(0.0968752 0.0745369 0)
(0.098739 0.068829 0)
(0.100758 0.0632988 0)
(0.102799 0.0580961 0)
(0.104746 0.0532411 0)
(0.106541 0.0486979 0)
(0.108157 0.0444218 0)
(0.109594 0.0403723 0)
(0.110858 0.0365145 0)
(0.111959 0.0328219 0)
(0.112908 0.0292811 0)
(0.113719 0.0258934 0)
(0.114409 0.0226703 0)
(0.114994 0.0196277 0)
(0.115492 0.0167796 0)
(0.11592 0.0141349 0)
(0.116292 0.0116963 0)
(0.116619 0.00946169 0)
(0.116909 0.00742563 0)
(0.117168 0.00558065 0)
(0.117401 0.00391812 0)
(0.117614 0.00242868 0)
(0.117811 0.00110243 0)
(0.117998 -7.08957e-05 0)
(0.118179 -0.00110168 0)
(0.118361 -0.00200024 0)
(0.118547 -0.00277679 0)
(0.11874 -0.00344129 0)
(0.118942 -0.00400343 0)
(0.119154 -0.0044727 0)
(0.119375 -0.00485853 0)
(0.119602 -0.00517049 0)
(0.119835 -0.00541848 0)
(0.120073 -0.00561346 0)
(0.120298 -0.00576553 0)
(0.12065 -0.00588834 0)
(0.0979442 0.11039 0)
(0.0962261 0.0969309 0)
(0.0957943 0.0858865 0)
(0.0965116 0.0789286 0)
(0.0979069 0.0727927 0)
(0.0997053 0.0668559 0)
(0.101724 0.0612455 0)
(0.10381 0.0560691 0)
(0.105866 0.0513114 0)
(0.107839 0.0469035 0)
(0.109697 0.0427781 0)
(0.111424 0.0388829 0)
(0.113013 0.0351774 0)
(0.114462 0.0316324 0)
(0.115772 0.0282321 0)
(0.116949 0.0249745 0)
(0.118002 0.0218685 0)
(0.118942 0.018928 0)
(0.119784 0.0161668 0)
(0.120539 0.0135951 0)
(0.12122 0.0112181 0)
(0.121835 0.009036 0)
(0.122392 0.00704558 0)
(0.122897 0.00524052 0)
(0.123354 0.00361255 0)
(0.123771 0.00215208 0)
(0.124152 0.000848775 0)
(0.124505 -0.000307786 0)
(0.124837 -0.00132797 0)
(0.125155 -0.00222151 0)
(0.125465 -0.00299755 0)
(0.125771 -0.00366469 0)
(0.126076 -0.00423114 0)
(0.126381 -0.00470494 0)
(0.126685 -0.00509422 0)
(0.126987 -0.00540765 0)
(0.127283 -0.00565454 0)
(0.127574 -0.00584584 0)
(0.127837 -0.00599234 0)
(0.128214 -0.0061111 0)
(0.0890238 0.102443 0)
(0.0914893 0.0940245 0)
(0.0946324 0.0853645 0)
(0.0965322 0.0780531 0)
(0.0982695 0.0713131 0)
(0.10023 0.0649921 0)
(0.102358 0.0592024 0)
(0.104561 0.0539743 0)
(0.106778 0.0492377 0)
(0.108963 0.0448961 0)
(0.111079 0.0408675 0)
(0.113098 0.0370888 0)
(0.114999 0.0335112 0)
(0.116774 0.0300993 0)
(0.118418 0.0268319 0)
(0.119934 0.0237027 0)
(0.121325 0.0207171 0)
(0.1226 0.0178865 0)
(0.123768 0.015224 0)
(0.124839 0.0127404 0)
(0.125819 0.0104425 0)
(0.126716 0.00833224 0)
(0.127537 0.00640758 0)
(0.128285 0.00466269 0)
(0.128968 0.00308899 0)
(0.129591 0.00167619 0)
(0.130162 0.000413189 0)
(0.130691 -0.000710892 0)
(0.131184 -0.00170633 0)
(0.13165 -0.00258219 0)
(0.132097 -0.0033464 0)
(0.13253 -0.00400591 0)
(0.132953 -0.00456704 0)
(0.133366 -0.00503595 0)
(0.133769 -0.00541905 0)
(0.13416 -0.00572351 0)
(0.134533 -0.0059576 0)
(0.134889 -0.0061316 0)
(0.135198 -0.00625644 0)
(0.13561 -0.00635016 0)
(0.0895463 0.093783 0)
(0.0905265 0.0891393 0)
(0.0933385 0.0830314 0)
(0.0958389 0.0761871 0)
(0.098107 0.0693111 0)
(0.100401 0.0628282 0)
(0.10277 0.0569476 0)
(0.105195 0.0516767 0)
(0.107647 0.046935 0)
(0.110089 0.0426282 0)
(0.112479 0.0386718 0)
(0.114782 0.0349933 0)
(0.116977 0.0315331 0)
(0.119052 0.0282466 0)
(0.121003 0.0251069 0)
(0.12283 0.0221034 0)
(0.124536 0.0192387 0)
(0.126125 0.0165224 0)
(0.127601 0.013967 0)
(0.128971 0.0115836 0)
(0.130237 0.00937971 0)
(0.131406 0.00735821 0)
(0.13248 0.00551713 0)
(0.133467 0.00385021 0)
(0.13437 0.00234796 0)
(0.135199 0.000998929 0)
(0.135963 -0.000208874 0)
(0.136669 -0.001287 0)
(0.137329 -0.00224551 0)
(0.137952 -0.00309264 0)
(0.138544 -0.00383487 0)
(0.139114 -0.0044772 0)
(0.139663 -0.00502376 0)
(0.140194 -0.00547842 0)
(0.140705 -0.00584537 0)
(0.141194 -0.00612985 0)
(0.141652 -0.0063385 0)
(0.14208 -0.00648025 0)
(0.142443 -0.00656577 0)
(0.142893 -0.00660921 0)
(0.0870372 0.100315 0)
(0.090476 0.0857767 0)
(0.0935267 0.0794316 0)
(0.0961291 0.073436 0)
(0.0984981 0.0668401 0)
(0.100925 0.0603751 0)
(0.103471 0.0544489 0)
(0.106109 0.0491311 0)
(0.108796 0.0443716 0)
(0.111482 0.040091 0)
(0.11412 0.036202 0)
(0.116676 0.0326201 0)
(0.119129 0.0292721 0)
(0.121471 0.0261046 0)
(0.123699 0.0230857 0)
(0.125812 0.0202026 0)
(0.127808 0.0174564 0)
(0.129688 0.0148562 0)
(0.131453 0.012414 0)
(0.133102 0.0101409 0)
(0.134638 0.00804407 0)
(0.136062 0.00612609 0)
(0.137378 0.00438407 0)
(0.138592 0.00281043 0)
(0.13971 0.00139418 0)
(0.140739 0.000122494 0)
(0.141692 -0.00101773 0)
(0.142576 -0.00203847 0)
(0.143404 -0.00294952 0)
(0.144184 -0.00375809 0)
(0.144925 -0.00446898 0)
(0.145634 -0.00508502 0)
(0.146313 -0.00560785 0)
(0.146964 -0.00603869 0)
(0.147586 -0.00637917 0)
(0.148173 -0.00663209 0)
(0.148718 -0.00680198 0)
(0.149217 -0.00689562 0)
(0.149634 -0.00692337 0)
(0.150118 -0.00688802 0)
(0.101272 0.0987939 0)
(0.0993955 0.0850175 0)
(0.0976593 0.0782207 0)
(0.0980585 0.0717072 0)
(0.0997396 0.0646596 0)
(0.102088 0.0579021 0)
(0.104758 0.0517976 0)
(0.10758 0.0463808 0)
(0.110463 0.041588 0)
(0.113346 0.0373299 0)
(0.116185 0.033505 0)
(0.11895 0.0300122 0)
(0.121627 0.0267659 0)
(0.124207 0.0237057 0)
(0.126686 0.0207968 0)
(0.129059 0.0180259 0)
(0.131322 0.0153941 0)
(0.133471 0.0129104 0)
(0.1355 0.0105865 0)
(0.137407 0.00843221 0)
(0.139191 0.00645377 0)
(0.140852 0.00465193 0)
(0.142393 0.00302192 0)
(0.143821 0.00155411 0)
(0.145141 0.000235792 0)
(0.146363 -0.00094742 0)
(0.147497 -0.00200967 0)
(0.148555 -0.00296315 0)
(0.149545 -0.00381717 0)
(0.150479 -0.00457779 0)
(0.151364 -0.00524798 0)
(0.152206 -0.00582827 0)
(0.153008 -0.00631761 0)
(0.153772 -0.00671439 0)
(0.154494 -0.00701738 0)
(0.155171 -0.00722653 0)
(0.155791 -0.00734388 0)
(0.156353 -0.00737318 0)
(0.156813 -0.00732494 0)
(0.157317 -0.00718061 0)
(0.101144 0.105482 0)
(0.0975415 0.0889519 0)
(0.0973322 0.0789515 0)
(0.098627 0.0705049 0)
(0.100891 0.0624774 0)
(0.103648 0.0552565 0)
(0.106609 0.0489436 0)
(0.10965 0.0434408 0)
(0.112713 0.0386292 0)
(0.115764 0.034396 0)
(0.118778 0.0306254 0)
(0.121734 0.0272055 0)
(0.124618 0.0240432 0)
(0.127421 0.0210741 0)
(0.130135 0.0182626 0)
(0.13275 0.0155959 0)
(0.135257 0.0130752 0)
(0.137649 0.0107094 0)
(0.139917 0.00850876 0)
(0.142056 0.00648137 0)
(0.144063 0.00463087 0)
(0.145939 0.0029554 0)
(0.147685 0.0014475 0)
(0.149308 9.55143e-05 0)
(0.150816 -0.00111538 0)
(0.152217 -0.00220099 0)
(0.153521 -0.00317609 0)
(0.154738 -0.00405291 0)
(0.155878 -0.00484017 0)
(0.156951 -0.0055427 0)
(0.157963 -0.00616169 0)
(0.158921 -0.00669537 0)
(0.159826 -0.00714002 0)
(0.160681 -0.00749114 0)
(0.161481 -0.0077445 0)
(0.162223 -0.00789698 0)
(0.162895 -0.00794781 0)
(0.163493 -0.00789689 0)
(0.163978 -0.00775588 0)
(0.164471 -0.00747325 0)
(0.0972035 0.0971514 0)
(0.0965735 0.0876147 0)
(0.0978542 0.0771848 0)
(0.100125 0.0680048 0)
(0.102768 0.0595956 0)
(0.105792 0.0521965 0)
(0.108981 0.0458195 0)
(0.112223 0.0403043 0)
(0.11548 0.0355021 0)
(0.118728 0.0312937 0)
(0.121948 0.0275637 0)
(0.12512 0.0241996 0)
(0.128229 0.0211061 0)
(0.131261 0.0182171 0)
(0.134203 0.0154965 0)
(0.137046 0.0129314 0)
(0.139778 0.0105232 0)
(0.142388 0.00827939 0)
(0.144867 0.00620841 0)
(0.147209 0.00431555 0)
(0.14941 0.00260113 0)
(0.151472 0.0010601 0)
(0.153398 -0.000317628 0)
(0.155193 -0.00154603 0)
(0.156864 -0.00264166 0)
(0.15842 -0.00362123 0)
(0.15987 -0.00449987 0)
(0.161222 -0.00528972 0)
(0.162485 -0.00599891 0)
(0.163667 -0.00663118 0)
(0.164774 -0.00718613 0)
(0.165812 -0.00765993 0)
(0.166783 -0.00804644 0)
(0.167688 -0.00833838 0)
(0.168525 -0.00852864 0)
(0.169289 -0.00861094 0)
(0.169972 -0.00858168 0)
(0.170565 -0.0084361 0)
(0.171038 -0.00818857 0)
(0.171474 -0.00774285 0)
(0.102248 0.0980958 0)
(0.0983586 0.0861363 0)
(0.100809 0.0759056 0)
(0.103025 0.0660389 0)
(0.105471 0.0569514 0)
(0.108428 0.0491476 0)
(0.111719 0.0425796 0)
(0.115176 0.0369877 0)
(0.118704 0.0321617 0)
(0.122243 0.0279603 0)
(0.125753 0.0242629 0)
(0.129204 0.0209528 0)
(0.132577 0.0179305 0)
(0.135856 0.0151268 0)
(0.139031 0.0125039 0)
(0.142091 0.0100484 0)
(0.145026 0.00776109 0)
(0.147827 0.00564822 0)
(0.150485 0.00371569 0)
(0.152996 0.0019656 0)
(0.155357 0.0003951 0)
(0.15757 -0.00100404 0)
(0.159639 -0.00224434 0)
(0.161568 -0.00334182 0)
(0.163364 -0.00431385 0)
(0.165035 -0.00517765 0)
(0.166586 -0.00594855 0)
(0.168027 -0.0066386 0)
(0.169362 -0.00725551 0)
(0.1706 -0.00780225 0)
(0.171746 -0.00827723 0)
(0.172805 -0.00867501 0)
(0.173781 -0.00898744 0)
(0.174674 -0.00920485 0)
(0.175484 -0.00931753 0)
(0.176207 -0.00931629 0)
(0.176838 -0.00919481 0)
(0.177366 -0.00894332 0)
(0.177779 -0.0085805 0)
(0.178094 -0.00795613 0)
(0.0946921 0.0927639 0)
(0.0959455 0.0811058 0)
(0.100482 0.0729448 0)
(0.10415 0.0636435 0)
(0.10739 0.0542539 0)
(0.110829 0.0460039 0)
(0.114548 0.039118 0)
(0.11845 0.0333566 0)
(0.122427 0.0284679 0)
(0.126394 0.0242742 0)
(0.130294 0.0206302 0)
(0.134094 0.0174027 0)
(0.137773 0.0144809 0)
(0.14132 0.0117893 0)
(0.14473 0.00928779 0)
(0.147995 0.0069624 0)
(0.15111 0.00481379 0)
(0.154068 0.00284686 0)
(0.156867 0.0010657 0)
(0.159502 -0.000530323 0)
(0.161975 -0.00194693 0)
(0.164286 -0.00319476 0)
(0.16644 -0.00428831 0)
(0.168442 -0.00524448 0)
(0.170297 -0.00608119 0)
(0.172011 -0.00681592 0)
(0.17359 -0.00746414 0)
(0.17504 -0.0080379 0)
(0.176367 -0.00854481 0)
(0.177576 -0.00898752 0)
(0.178675 -0.00936381 0)
(0.179667 -0.00966719 0)
(0.180558 -0.00988804 0)
(0.181351 -0.0100149 0)
(0.182046 -0.010036 0)
(0.182643 -0.00993957 0)
(0.183142 -0.00971718 0)
(0.18353 -0.00935414 0)
(0.183819 -0.00887445 0)
(0.183936 -0.00807073 0)
(0.103113 0.0879267 0)
(0.101624 0.0775321 0)
(0.102606 0.0697511 0)
(0.105556 0.0603924 0)
(0.109304 0.0507178 0)
(0.113455 0.0421503 0)
(0.117842 0.0350314 0)
(0.122359 0.0291527 0)
(0.126899 0.0242507 0)
(0.131373 0.0201205 0)
(0.135722 0.0165887 0)
(0.13991 0.0135002 0)
(0.143919 0.0107302 0)
(0.147743 0.00819601 0)
(0.151379 0.0058553 0)
(0.154827 0.00369367 0)
(0.158085 0.00171199 0)
(0.161153 -8.43865e-05 0)
(0.164032 -0.00169326 0)
(0.166722 -0.00311696 0)
(0.169227 -0.00436322 0)
(0.171549 -0.0054441 0)