/*--------------------------------*- C++ -*----------------------------------*\
  =========                 |
  \\      /  F ield         | OpenFOAM: The Open Source CFD Toolbox
   \\    /   O peration     | Website:  https://openfoam.org
    \\  /    A nd           | Version:  7
     \\/     M anipulation  |
\*---------------------------------------------------------------------------*/
FoamFile
{
    version     2.0;
    format      ascii;
    class       volScalarField;
    location    "0.1325";
    object      T;
}
// * * * * * * * * * * * * * * * * * * * * * * * * * * * * * * * * * * * * * //

dimensions      [0 0 0 1 0 0 0];

internalField   nonuniform List<scalar> 
1080
(
290
290.003
290.008
290.014
290.018
290.022
290.024
290.024
290.024
290.022
290.02
290.017
290.015
290.012
290.01
290.008
290.007
290.006
290.005
290.004
290.003
290.003
290.003
290.003
290.002
290.002
290.002
290.002
290.002
290.002
290.002
290.002
290.003
290.001
290.005
289.997
290.012
289.982
290.042
289.922
290
289.999
289.997
289.996
289.995
289.994
289.995
289.996
289.997
289.998
290
290.001
290.002
290.003
290.004
290.005
290.006
290.007
290.007
290.007
290.008
290.008
290.008
290.008
290.008
290.008
290.008
290.008
290.009
290.009
290.009
290.008
290.009
290.008
290.009
290.006
290.008
290.004
290.008
290.004
290
289.999
289.998
289.996
289.994
289.992
289.989
289.987
289.985
289.984
289.982
289.981
289.98
289.98
289.98
289.979
289.979
289.98
289.98
289.98
289.98
289.98
289.98
289.98
289.981
289.981
289.981
289.982
289.982
289.983
289.984
289.984
289.985
289.986
289.987
289.987
289.987
289.988
289.988
289.988
290
289.999
289.998
289.997
289.995
289.993
289.991
289.989
289.986
289.984
289.982
289.98
289.979
289.977
289.976
289.975
289.974
289.973
289.972
289.971
289.97
289.969
289.968
289.967
289.967
289.966
289.965
289.965
289.965
289.964
289.964
289.964
289.964
289.964
289.964
289.964
289.964
289.964
289.964
289.964
290
289.999
289.998
289.997
289.995
289.993
289.991
289.989
289.987
289.985
289.983
289.981
289.98
289.978
289.977
289.975
289.974
289.973
289.972
289.971
289.97
289.969
289.968
289.967
289.966
289.965
289.964
289.964
289.963
289.962
289.962
289.962
289.961
289.961
289.961
289.961
289.96
289.96
289.96
289.959
290
289.999
289.999
289.997
289.996
289.994
289.992
289.99
289.987
289.985
289.984
289.982
289.98
289.979
289.977
289.976
289.975
289.974
289.973
289.972
289.971
289.97
289.969
289.968
289.967
289.966
289.965
289.964
289.964
289.963
289.963
289.962
289.962
289.962
289.962
289.961
289.961
289.961
289.96
289.959
290
289.999
289.999
289.997
289.996
289.994
289.992
289.99
289.987
289.985
289.984
289.982
289.98
289.979
289.977
289.976
289.975
289.974
289.973
289.972
289.971
289.97
289.969
289.968
289.967
289.966
289.965
289.964
289.964
289.963
289.963
289.962
289.962
289.962
289.962
289.961
289.961
289.961
289.96
289.959
290
289.999
289.998
289.997
289.995
289.993
289.991
289.989
289.987
289.985
289.983
289.981
289.98
289.978
289.977
289.975
289.974
289.973
289.972
289.971
289.97
289.969
289.968
289.967
289.966
289.965
289.964
289.964
289.963
289.962
289.962
289.962
289.961
289.961
289.961
289.961
289.96
289.96
289.96
289.959
290
289.999
289.998
289.997
289.995
289.993
289.991
289.989
289.986
289.984
289.982
289.98
289.979
289.977
289.976
289.975
289.974
289.973
289.972
289.971
289.97
289.969
289.968
289.967
289.967
289.966
289.965
289.965
289.965
289.964
289.964
289.964
289.964
289.964
289.964
289.964
289.964
289.964
289.964
289.964
290
289.999
289.998
289.996
289.994
289.992
289.989
289.987
289.985
289.984
289.982
289.981
289.98
289.98
289.98
289.98
289.979
289.98
289.98
289.98
289.98
289.98
289.98
289.98
289.981
289.981
289.981
289.982
289.982
289.983
289.984
289.984
289.985
289.986
289.986
289.987
289.987
289.988
289.988
289.988
290
289.999
289.997
289.996
289.995
289.994
289.995
289.996
289.997
289.998
290
290.001
290.002
290.003
290.004
290.005
290.006
290.007
290.007
290.007
290.008
290.008
290.008
290.008
290.008
290.008
290.008
290.009
290.009
290.009
290.009
290.009
290.009
290.008
290.008
290.007
290.007
290.006
290.006
290.006
290
290.003
290.008
290.014
290.018
290.022
290.024
290.024
290.024
290.022
290.02
290.017
290.015
290.012
290.01
290.008
290.007
290.006
290.005
290.004
290.003
290.003
290.003
290.003
290.002
290.002
290.002
290.002
290.002
290.002
290.002
290.002
290.002
290.002
290.002
290.002
290.002
290.002
290.002
290.002
290.162
290.416
290.644
290.877
291.065
291.296
291.422
291.7
291.691
292.156
290.004
290.014
290.027
290.052
290.074
290.113
290.14
290.19
290.22
290.275
289.988
289.988
289.988
289.988
289.989
289.991
289.992
289.995
289.999
290.003
289.964
289.963
289.962
289.962
289.961
289.961
289.96
289.96
289.96
289.96
289.958
289.957
289.956
289.955
289.954
289.953
289.952
289.951
289.95
289.95
289.958
289.957
289.956
289.955
289.954
289.953
289.952
289.951
289.95
289.95
289.958
289.957
289.956
289.955
289.954
289.953
289.952
289.951
289.95
289.95
289.958
289.957
289.956
289.955
289.954
289.953
289.952
289.951
289.95
289.95
289.964
289.963
289.962
289.962
289.961
289.961
289.96
289.96
289.959
289.959
289.988
289.988
289.988
289.988
289.988
289.988
289.988
289.988
289.989
289.989
290.005
290.005
290.005
290.005
290.006
290.006
290.005
290.005
290.005
290.005
290.002
290.002
290.002
290.002
290.002
290.002
290.002
290.002
290.002
290.001
291.777
291.428
291.15
290.932
290.761
290.626
290.519
290.435
290.369
290.316
290.273
290.239
290.212
290.19
290.171
290.157
290.144
290.134
290.125
290.117
290.111
290.105
290.1
290.095
290.091
290.087
290.084
290.081
290.078
290.075
290.073
290.07
290.068
290.066
290.064
290.062
290.06
290.058
290.057
290.055
290.32
290.352
290.372
290.385
290.391
290.393
290.391
290.387
290.38
290.372
290.363
290.354
290.344
290.334
290.324
290.314
290.304
290.294
290.285
290.277
290.268
290.26
290.252
290.244
290.237
290.229
290.222
290.214
290.208
290.201
290.196
290.19
290.185
290.18
290.176
290.17
290.167
290.161
290.159
290.152
290.009
290.015
290.021
290.028
290.034
290.04
290.046
290.052
290.057
290.062
290.066
290.07
290.073
290.077
290.08
290.083
290.086
290.089
290.092
290.095
290.098
290.101
290.104
290.107
290.109
290.111
290.112
290.113
290.114
290.114
290.113
290.113
290.112
290.111
290.11
290.11
290.109
290.109
290.109
290.11
289.96
289.96
289.961
289.962
289.963
289.964
289.966
289.967
289.968
289.969
289.97
289.97
289.97
289.971
289.971
289.971
289.971
289.971
289.971
289.972
289.973
289.974
289.975
289.977
289.979
289.981
289.984
289.986
289.989
289.991
289.993
289.995
289.996
289.998
289.998
289.998
289.998
289.998
289.997
289.997
289.949
289.949
289.949
289.95
289.95
289.951
289.951
289.951
289.952
289.952
289.952
289.951
289.951
289.95
289.949
289.947
289.946
289.945
289.943
289.942
289.941
289.94
289.94
289.94
289.941
289.941
289.942
289.944
289.945
289.947
289.949
289.95
289.951
289.952
289.953
289.952
289.952
289.95
289.95
289.946
289.949
289.949
289.949
289.95
289.95
289.95
289.951
289.951
289.951
289.951
289.951
289.95
289.949
289.948
289.947
289.945
289.944
289.942
289.941
289.939
289.938
289.937
289.937
289.937
289.937
289.937
289.938
289.94
289.941
289.943
289.944
289.946
289.946
289.947
289.947
289.946
289.946
289.944
289.943
289.939
289.949
289.949
289.949
289.95
289.95
289.95
289.951
289.951
289.951
289.951
289.951
289.95
289.949
289.948
289.947
289.945
289.944
289.942
289.941
289.939
289.938
289.937
289.937
289.937
289.937
289.938
289.938
289.94
289.941
289.943
289.944
289.945
289.946
289.947
289.947
289.946
289.946
289.944
289.943
289.939
289.95
289.949
289.949
289.95
289.95
289.951
289.951
289.951
289.952
289.952
289.951
289.951
289.95
289.95
289.948
289.947
289.946
289.944
289.943
289.942
289.941
289.94
289.94
289.94
289.94
289.941
289.942
289.943
289.944
289.946
289.947
289.949
289.95
289.95
289.951
289.95
289.95
289.948
289.948
289.944
289.96
289.96
289.961
289.961
289.962
289.963
289.964
289.964
289.965
289.965
289.965
289.965
289.965
289.964
289.963
289.962
289.962
289.961
289.96
289.96
289.96
289.96
289.961
289.961
289.962
289.964
289.965
289.967
289.968
289.97
289.971
289.972
289.972
289.972
289.972
289.971
289.97
289.969
289.968
289.966
289.99
289.991
289.991
289.992
289.993
289.993
289.993
289.993
289.993
289.993
289.993
289.992
289.992
289.991
289.991
289.991
289.99
289.991
289.991
289.992
289.993
289.994
289.995
289.996
289.997
289.997
289.998
289.998
289.997
289.997
289.996
289.995
289.994
289.993
289.992
289.991
289.991
289.991
289.991
289.992
290.004
290.004
290.003
290.003
290.003
290.003
290.003
290.003
290.003
290.003
290.003
290.003
290.002
290.002
290.002
290.002
290.002
290.002
290.002
290.002
290.003
290.003
290.003
290.003
290.002
290.002
290.001
290.001
290
290
290
290
290
290
290
290
290
290
290
290
290.001
290.001
290.001
290.001
290.001
290.001
290.001
290.001
290.001
290.001
290.001
290.001
290.001
290.001
290.001
290.001
290.001
290.001
290.001
290.001
290.001
290.001
290.001
290.001
290
290
290
290
290
290
290
290
290
290
290
290
290
290
290
290
)
;

boundaryField
{
    upperWall
    {
        type            fixedValue;
        value           uniform 290;
    }
    lowerWall
    {
        type            fixedValue;
        value           uniform 290;
    }
    heatedWall
    {
        type            externalWallHeatFluxTemperature;
        mode            flux;
        kappaMethod     fluidThermo;
        kappa           none;
        alphaAni        Anialpha;
        q               uniform 890;
        qr              none;
        refValue        nonuniform List<scalar> 10(291.806 292.069 292.306 292.548 292.744 292.982 293.117 293.402 293.4 293.873);
        refGradient     nonuniform List<scalar> 10(877.006 881.778 886.389 890.882 895.212 899.484 903.532 907.667 911.312 915.64);
        valueFraction   uniform 0;
        value           nonuniform List<scalar> 10(291.806 292.069 292.306 292.548 292.744 292.982 293.117 293.402 293.4 293.873);
    }
    inlet
    {
        type            fixedValue;
        value           uniform 290;
    }
    outlet
    {
        type            inletOutlet;
        inletValue      uniform 290;
        value           nonuniform List<scalar> 
12
(
290.055
290.152
290.11
289.996
289.946
289.939
289.939
289.944
289.966
289.992
290
290
)
;
    }
    frontAndBack
    {
        type            empty;
    }
}


// ************************************************************************* //
