/*--------------------------------*- C++ -*----------------------------------*\
  =========                 |
  \\      /  F ield         | OpenFOAM: The Open Source CFD Toolbox
   \\    /   O peration     | Website:  https://openfoam.org
    \\  /    A nd           | Version:  7
     \\/     M anipulation  |
\*---------------------------------------------------------------------------*/
FoamFile
{
    version     2.0;
    format      ascii;
    class       volScalarField;
    location    "0.12";
    object      nut;
}
// * * * * * * * * * * * * * * * * * * * * * * * * * * * * * * * * * * * * * //

dimensions      [0 2 -1 0 0 0 0];

internalField   nonuniform List<scalar> 
2400
(
1.44965e-07
9.16748e-08
6.39491e-08
4.72498e-08
3.57939e-08
2.72477e-08
2.06019e-08
1.53665e-08
1.12605e-08
8.08753e-09
5.6863e-09
3.91298e-09
2.6381e-09
1.74817e-09
1.14809e-09
7.6193e-10
5.31123e-10
4.08672e-10
3.53403e-10
3.32385e-10
3.25762e-10
3.24427e-10
3.24875e-10
3.25884e-10
3.27055e-10
3.28261e-10
3.29467e-10
3.30661e-10
3.3184e-10
3.33006e-10
3.34157e-10
3.35294e-10
3.36418e-10
3.37529e-10
3.38627e-10
3.39714e-10
3.40788e-10
3.41852e-10
3.42904e-10
3.43947e-10
3.44979e-10
3.46001e-10
3.47014e-10
3.48019e-10
3.49014e-10
3.50002e-10
3.50981e-10
3.51953e-10
3.52918e-10
3.53876e-10
3.54827e-10
3.55772e-10
3.56711e-10
3.57645e-10
3.58572e-10
3.59495e-10
3.60412e-10
3.61325e-10
3.62234e-10
3.63138e-10
3.64038e-10
3.64934e-10
3.65827e-10
3.66716e-10
3.67603e-10
3.68486e-10
3.69367e-10
3.70245e-10
3.7112e-10
3.71993e-10
3.72865e-10
3.73734e-10
3.74602e-10
3.75468e-10
3.76332e-10
3.77196e-10
3.78058e-10
3.78919e-10
3.79779e-10
3.80639e-10
3.81498e-10
3.82356e-10
3.83214e-10
3.84071e-10
3.84928e-10
3.85785e-10
3.86641e-10
3.87498e-10
3.88354e-10
3.8921e-10
3.90066e-10
3.90922e-10
3.91778e-10
3.92633e-10
3.93489e-10
3.94344e-10
3.95199e-10
3.96054e-10
3.96909e-10
3.97763e-10
3.98616e-10
3.99468e-10
4.00319e-10
4.01166e-10
4.02005e-10
4.02826e-10
4.03605e-10
4.04291e-10
4.04785e-10
4.04895e-10
4.04289e-10
4.02419e-10
3.98449e-10
3.9119e-10
3.7906e-10
3.60065e-10
3.31711e-10
2.90644e-10
2.31104e-10
1.35302e-10
1.77403e-07
1.32173e-07
1.00237e-07
7.70529e-08
5.94911e-08
4.57359e-08
3.47779e-08
2.60337e-08
1.91243e-08
1.37597e-08
9.68687e-09
6.67218e-09
4.50107e-09
2.98334e-09
1.95836e-09
1.29738e-09
9.00886e-10
6.8936e-10
5.93266e-10
5.56501e-10
5.44819e-10
5.42379e-10
5.43061e-10
5.44728e-10
5.46679e-10
5.48694e-10
5.50708e-10
5.52703e-10
5.54675e-10
5.56623e-10
5.58547e-10
5.60448e-10
5.62326e-10
5.64183e-10
5.66019e-10
5.67835e-10
5.69631e-10
5.71408e-10
5.73167e-10
5.74909e-10
5.76634e-10
5.78343e-10
5.80036e-10
5.81714e-10
5.83379e-10
5.85029e-10
5.86666e-10
5.88291e-10
5.89903e-10
5.91504e-10
5.93094e-10
5.94673e-10
5.96243e-10
5.97802e-10
5.99353e-10
6.00894e-10
6.02428e-10
6.03954e-10
6.05472e-10
6.06983e-10
6.08487e-10
6.09985e-10
6.11477e-10
6.12964e-10
6.14445e-10
6.15921e-10
6.17392e-10
6.1886e-10
6.20323e-10
6.21783e-10
6.23239e-10
6.24692e-10
6.26142e-10
6.27589e-10
6.29034e-10
6.30477e-10
6.31918e-10
6.33357e-10
6.34795e-10
6.36231e-10
6.37666e-10
6.391e-10
6.40534e-10
6.41967e-10
6.43399e-10
6.44831e-10
6.46262e-10
6.47693e-10
6.49124e-10
6.50555e-10
6.51986e-10
6.53416e-10
6.54846e-10
6.56276e-10
6.57706e-10
6.59135e-10
6.60564e-10
6.61993e-10
6.63421e-10
6.64848e-10
6.66274e-10
6.67698e-10
6.6912e-10
6.70536e-10
6.71938e-10
6.7331e-10
6.74612e-10
6.75759e-10
6.76585e-10
6.76773e-10
6.75767e-10
6.72655e-10
6.66046e-10
6.53964e-10
6.33782e-10
6.02183e-10
5.55009e-10
4.86621e-10
3.8725e-10
2.26867e-10
1.857e-07
1.47214e-07
1.16486e-07
9.19882e-08
7.22276e-08
5.6127e-08
4.29843e-08
3.23356e-08
2.38379e-08
1.7196e-08
1.21297e-08
8.3667e-09
5.64939e-09
3.74532e-09
2.45607e-09
1.62141e-09
1.11729e-09
8.45384e-10
7.20226e-10
6.7175e-10
6.56096e-10
6.52616e-10
6.53262e-10
6.55214e-10
6.57544e-10
6.59963e-10
6.62384e-10
6.64783e-10
6.67154e-10
6.69497e-10
6.7181e-10
6.74096e-10
6.76355e-10
6.78588e-10
6.80796e-10
6.82979e-10
6.85139e-10
6.87276e-10
6.89391e-10
6.91486e-10
6.9356e-10
6.95615e-10
6.97651e-10
6.99669e-10
7.0167e-10
7.03655e-10
7.05623e-10
7.07577e-10
7.09516e-10
7.11441e-10
7.13352e-10
7.15251e-10
7.17138e-10
7.19014e-10
7.20878e-10
7.22732e-10
7.24575e-10
7.2641e-10
7.28235e-10
7.30052e-10
7.31861e-10
7.33662e-10
7.35456e-10
7.37243e-10
7.39024e-10
7.40799e-10
7.42568e-10
7.44333e-10
7.46092e-10
7.47847e-10
7.49598e-10
7.51344e-10
7.53088e-10
7.54828e-10
7.56565e-10
7.583e-10
7.60033e-10
7.61763e-10
7.63492e-10
7.65219e-10
7.66944e-10
7.68669e-10
7.70392e-10
7.72115e-10
7.73837e-10
7.75558e-10
7.77279e-10
7.79e-10
7.8072e-10
7.82441e-10
7.84161e-10
7.8588e-10
7.876e-10
7.89319e-10
7.91038e-10
7.92757e-10
7.94475e-10
7.96193e-10
7.97909e-10
7.99625e-10
8.0134e-10
8.03052e-10
8.04762e-10
8.06464e-10
8.0815e-10
8.098e-10
8.11365e-10
8.12747e-10
8.13743e-10
8.13977e-10
8.12784e-10
8.09079e-10
8.01203e-10
7.8681e-10
7.62787e-10
7.25202e-10
6.69101e-10
5.87631e-10
4.68666e-10
2.75165e-10
1.88426e-07
1.53578e-07
1.24429e-07
1.00039e-07
7.95766e-08
6.24167e-08
4.81246e-08
3.63829e-08
2.6922e-08
1.94763e-08
1.37681e-08
9.51213e-09
6.4293e-09
4.26296e-09
2.79123e-09
1.83345e-09
1.24941e-09
9.29309e-10
7.79007e-10
7.19683e-10
7.00084e-10
6.95378e-10
6.95745e-10
6.97725e-10
7.00177e-10
7.02743e-10
7.05319e-10
7.07872e-10
7.10396e-10
7.1289e-10
7.15353e-10
7.17786e-10
7.2019e-10
7.22567e-10
7.24917e-10
7.27241e-10
7.2954e-10
7.31815e-10
7.34067e-10
7.36296e-10
7.38504e-10
7.40691e-10
7.42858e-10
7.45007e-10
7.47136e-10
7.49249e-10
7.51344e-10
7.53423e-10
7.55487e-10
7.57536e-10
7.59571e-10
7.61592e-10
7.636e-10
7.65596e-10
7.6758e-10
7.69553e-10
7.71515e-10
7.73468e-10
7.7541e-10
7.77344e-10
7.79269e-10
7.81186e-10
7.83095e-10
7.84997e-10
7.86893e-10
7.88782e-10
7.90665e-10
7.92542e-10
7.94415e-10
7.96282e-10
7.98146e-10
8.00005e-10
8.0186e-10
8.03712e-10
8.05561e-10
8.07407e-10
8.09251e-10
8.11092e-10
8.12932e-10
8.1477e-10
8.16606e-10
8.18441e-10
8.20276e-10
8.22109e-10
8.23941e-10
8.25773e-10
8.27605e-10
8.29436e-10
8.31267e-10
8.33098e-10
8.34928e-10
8.36758e-10
8.38588e-10
8.40418e-10
8.42248e-10
8.44077e-10
8.45905e-10
8.47733e-10
8.4956e-10
8.51386e-10
8.5321e-10
8.55033e-10
8.56852e-10
8.58663e-10
8.60458e-10
8.62214e-10
8.63881e-10
8.65353e-10
8.6642e-10
8.66682e-10
8.65443e-10
8.61562e-10
8.53305e-10
8.38229e-10
8.13113e-10
7.73906e-10
7.15474e-10
6.30481e-10
5.05361e-10
2.98617e-10
1.89473e-07
1.56432e-07
1.28384e-07
1.04378e-07
8.37803e-08
6.618e-08
5.13069e-08
3.89548e-08
2.89218e-08
2.09782e-08
1.48604e-08
1.02825e-08
6.95646e-09
4.61239e-09
3.01416e-09
1.96782e-09
1.32243e-09
9.6152e-10
7.87467e-10
7.16964e-10
6.92998e-10
6.86763e-10
6.86615e-10
6.88411e-10
6.90784e-10
6.93302e-10
6.95839e-10
6.98356e-10
7.00845e-10
7.03304e-10
7.05733e-10
7.08133e-10
7.10504e-10
7.12848e-10
7.15165e-10
7.17457e-10
7.19724e-10
7.21967e-10
7.24188e-10
7.26386e-10
7.28563e-10
7.3072e-10
7.32857e-10
7.34975e-10
7.37075e-10
7.39158e-10
7.41224e-10
7.43274e-10
7.45309e-10
7.47329e-10
7.49336e-10
7.51328e-10
7.53309e-10
7.55277e-10
7.57233e-10
7.59178e-10
7.61113e-10
7.63038e-10
7.64953e-10
7.6686e-10
7.68758e-10
7.70648e-10
7.7253e-10
7.74405e-10
7.76274e-10
7.78136e-10
7.79993e-10
7.81844e-10
7.8369e-10
7.85531e-10
7.87368e-10
7.89201e-10
7.9103e-10
7.92856e-10
7.94679e-10
7.96499e-10
7.98316e-10
8.00132e-10
8.01945e-10
8.03757e-10
8.05568e-10
8.07377e-10
8.09185e-10
8.10992e-10
8.12799e-10
8.14605e-10
8.16411e-10
8.18216e-10
8.20021e-10
8.21826e-10
8.2363e-10
8.25434e-10
8.27239e-10
8.29042e-10
8.30846e-10
8.32649e-10
8.34451e-10
8.36253e-10
8.38054e-10
8.39854e-10
8.41653e-10
8.4345e-10
8.45243e-10
8.47029e-10
8.48798e-10
8.5053e-10
8.52174e-10
8.5363e-10
8.5469e-10
8.54968e-10
8.53789e-10
8.5005e-10
8.42091e-10
8.27586e-10
8.03515e-10
7.66141e-10
7.10751e-10
6.30362e-10
5.11073e-10
3.08611e-10
1.89917e-07
1.57753e-07
1.30357e-07
1.06681e-07
8.61268e-08
6.83663e-08
5.32154e-08
4.05366e-08
3.01766e-08
2.19358e-08
1.55656e-08
1.07844e-08
7.30147e-09
4.84026e-09
3.15627e-09
2.04706e-09
1.3545e-09
9.5825e-10
7.60773e-10
6.78054e-10
6.48977e-10
6.40823e-10
6.3993e-10
6.41372e-10
6.43513e-10
6.45839e-10
6.48196e-10
6.50539e-10
6.52856e-10
6.55146e-10
6.57408e-10
6.59642e-10
6.6185e-10
6.64032e-10
6.6619e-10
6.68324e-10
6.70435e-10
6.72523e-10
6.74591e-10
6.76638e-10
6.78664e-10
6.80672e-10
6.82662e-10
6.84634e-10
6.86589e-10
6.88528e-10
6.90452e-10
6.9236e-10
6.94254e-10
6.96135e-10
6.98003e-10
6.99858e-10
7.01701e-10
7.03533e-10
7.05354e-10
7.07165e-10
7.08966e-10
7.10758e-10
7.12541e-10
7.14315e-10
7.16082e-10
7.17841e-10
7.19593e-10
7.21339e-10
7.23078e-10
7.24812e-10
7.2654e-10
7.28263e-10
7.29981e-10
7.31695e-10
7.33404e-10
7.3511e-10
7.36813e-10
7.38512e-10
7.40209e-10
7.41903e-10
7.43595e-10
7.45285e-10
7.46973e-10
7.48659e-10
7.50344e-10
7.52028e-10
7.53711e-10
7.55393e-10
7.57075e-10
7.58756e-10
7.60436e-10
7.62116e-10
7.63796e-10
7.65476e-10
7.67155e-10
7.68835e-10
7.70514e-10
7.72193e-10
7.73871e-10
7.75549e-10
7.77227e-10
7.78904e-10
7.8058e-10
7.82255e-10
7.83929e-10
7.85602e-10
7.87271e-10
7.88933e-10
7.9058e-10
7.92192e-10
7.93725e-10
7.95084e-10
7.96081e-10
7.96363e-10
7.95317e-10
7.91948e-10
7.84767e-10
7.71726e-10
7.50233e-10
7.17223e-10
6.69049e-10
6.00452e-10
5.00319e-10
3.28474e-10
1.90115e-07
1.58374e-07
1.31334e-07
1.07878e-07
8.73967e-08
6.9591e-08
5.43152e-08
4.14696e-08
3.0931e-08
2.25205e-08
1.60014e-08
1.10973e-08
7.51729e-09
4.98188e-09
3.24179e-09
2.08924e-09
1.36114e-09
9.34665e-10
7.14099e-10
6.17834e-10
5.82669e-10
5.72131e-10
5.70274e-10
5.71233e-10
5.73044e-10
5.75087e-10
5.77178e-10
5.79261e-10
5.81323e-10
5.83361e-10
5.85374e-10
5.87363e-10
5.89328e-10
5.9127e-10
5.9319e-10
5.95089e-10
5.96968e-10
5.98827e-10
6.00666e-10
6.02488e-10
6.04292e-10
6.06078e-10
6.07849e-10
6.09604e-10
6.11343e-10
6.13069e-10
6.1478e-10
6.16479e-10
6.18164e-10
6.19837e-10
6.21499e-10
6.2315e-10
6.2479e-10
6.2642e-10
6.2804e-10
6.29651e-10
6.31254e-10
6.32848e-10
6.34434e-10
6.36013e-10
6.37585e-10
6.3915e-10
6.40709e-10
6.42262e-10
6.43809e-10
6.45351e-10
6.46888e-10
6.48421e-10
6.4995e-10
6.51474e-10
6.52995e-10
6.54513e-10
6.56028e-10
6.57539e-10
6.59049e-10
6.60556e-10
6.62061e-10
6.63564e-10
6.65065e-10
6.66566e-10
6.68065e-10
6.69563e-10
6.7106e-10
6.72556e-10
6.74052e-10
6.75547e-10
6.77042e-10
6.78537e-10
6.80031e-10
6.81525e-10
6.83019e-10
6.84513e-10
6.86007e-10
6.875e-10
6.88993e-10
6.90486e-10
6.91978e-10
6.9347e-10
6.94961e-10
6.96451e-10
6.9794e-10
6.99428e-10
7.00913e-10
7.02391e-10
7.03857e-10
7.05291e-10
7.06657e-10
7.0787e-10
7.08769e-10
7.09046e-10
7.08174e-10
7.05301e-10
6.99169e-10
6.88089e-10
6.70014e-10
6.42757e-10
6.04267e-10
5.52949e-10
4.88961e-10
4.23418e-10
1.90205e-07
1.58665e-07
1.31809e-07
1.0848e-07
8.80579e-08
7.02472e-08
5.4919e-08
4.19924e-08
3.13611e-08
2.28585e-08
1.62563e-08
1.12816e-08
7.64472e-09
5.06472e-09
3.28976e-09
2.10873e-09
1.35518e-09
9.04296e-10
6.6222e-10
5.5157e-10
5.09378e-10
4.95997e-10
4.92995e-10
4.93392e-10
4.94829e-10
4.96557e-10
4.98352e-10
5.00147e-10
5.01926e-10
5.03685e-10
5.05422e-10
5.07138e-10
5.08834e-10
5.1051e-10
5.12167e-10
5.13806e-10
5.15427e-10
5.1703e-10
5.18618e-10
5.2019e-10
5.21746e-10
5.23288e-10
5.24815e-10
5.26329e-10
5.2783e-10
5.29319e-10
5.30795e-10
5.3226e-10
5.33715e-10
5.35158e-10
5.36592e-10
5.38016e-10
5.3943e-10
5.40837e-10
5.42234e-10
5.43624e-10
5.45006e-10
5.46381e-10
5.4775e-10
5.49112e-10
5.50467e-10
5.51817e-10
5.53162e-10
5.54502e-10
5.55836e-10
5.57166e-10
5.58492e-10
5.59814e-10
5.61133e-10
5.62448e-10
5.6376e-10
5.65069e-10
5.66375e-10
5.67679e-10
5.68981e-10
5.7028e-10
5.71578e-10
5.72875e-10
5.7417e-10
5.75464e-10
5.76757e-10
5.78049e-10
5.7934e-10
5.8063e-10
5.8192e-10
5.8321e-10
5.84499e-10
5.85788e-10
5.87077e-10
5.88366e-10
5.89654e-10
5.90942e-10
5.92231e-10
5.93519e-10
5.94806e-10
5.96094e-10
5.97381e-10
5.98667e-10
5.99953e-10
6.01238e-10
6.02523e-10
6.03805e-10
6.05086e-10
6.06361e-10
6.07625e-10
6.08863e-10
6.10043e-10
6.11095e-10
6.11881e-10
6.12148e-10
6.11456e-10
6.09108e-10
6.04085e-10
5.95061e-10
5.80519e-10
5.59054e-10
5.2988e-10
4.9364e-10
4.54165e-10
4.22907e-10
1.90245e-07
1.58797e-07
1.32029e-07
1.08767e-07
8.83806e-08
7.05748e-08
5.52265e-08
4.22633e-08
3.15871e-08
2.30383e-08
1.6393e-08
1.13812e-08
7.7136e-09
5.10901e-09
3.31419e-09
2.11613e-09
1.3462e-09
8.77945e-10
6.18508e-10
4.94596e-10
4.45275e-10
4.28899e-10
4.24707e-10
4.24551e-10
4.2564e-10
4.27084e-10
4.28615e-10
4.30156e-10
4.31685e-10
4.33196e-10
4.34689e-10
4.36164e-10
4.37622e-10
4.39063e-10
4.40487e-10
4.41895e-10
4.43289e-10
4.44667e-10
4.46032e-10
4.47382e-10
4.4872e-10
4.50045e-10
4.51358e-10
4.52659e-10
4.53949e-10
4.55228e-10
4.56497e-10
4.57756e-10
4.59005e-10
4.60246e-10
4.61477e-10
4.62701e-10
4.63917e-10
4.65125e-10
4.66326e-10
4.6752e-10
4.68707e-10
4.69889e-10
4.71064e-10
4.72234e-10
4.73399e-10
4.74559e-10
4.75714e-10
4.76865e-10
4.78012e-10
4.79154e-10
4.80294e-10
4.81429e-10
4.82562e-10
4.83692e-10
4.84819e-10
4.85943e-10
4.87065e-10
4.88185e-10
4.89304e-10
4.9042e-10
4.91535e-10
4.92649e-10
4.93761e-10
4.94873e-10
4.95983e-10
4.97093e-10
4.98202e-10
4.99311e-10
5.00419e-10
5.01527e-10
5.02634e-10
5.03741e-10
5.04848e-10
5.05955e-10
5.07062e-10
5.08169e-10
5.09275e-10
5.10382e-10
5.11488e-10
5.12593e-10
5.13699e-10
5.14804e-10
5.15909e-10
5.17012e-10
5.18116e-10
5.19218e-10
5.20317e-10
5.21413e-10
5.22499e-10
5.23563e-10
5.24578e-10
5.25486e-10
5.26174e-10
5.26429e-10
5.25893e-10
5.23998e-10
5.19933e-10
5.1267e-10
5.0111e-10
4.84401e-10
4.62469e-10
4.36792e-10
4.11436e-10
3.94069e-10
1.9026e-07
1.58847e-07
1.32115e-07
1.08881e-07
8.85106e-08
7.07087e-08
5.53539e-08
4.23768e-08
3.16827e-08
2.3115e-08
1.64518e-08
1.14241e-08
7.74331e-09
5.12792e-09
3.32419e-09
2.1182e-09
1.34027e-09
8.62948e-10
5.936e-10
4.61264e-10
4.07002e-10
3.88465e-10
3.83419e-10
3.82887e-10
3.83752e-10
3.85021e-10
3.86392e-10
3.87778e-10
3.89155e-10
3.90517e-10
3.91862e-10
3.93191e-10
3.94505e-10
3.95803e-10
3.97086e-10
3.98355e-10
3.99611e-10
4.00853e-10
4.02082e-10
4.03299e-10
4.04504e-10
4.05698e-10
4.06881e-10
4.08053e-10
4.09215e-10
4.10367e-10
4.1151e-10
4.12644e-10
4.1377e-10
4.14888e-10
4.15997e-10
4.17099e-10
4.18194e-10
4.19283e-10
4.20364e-10
4.2144e-10
4.2251e-10
4.23574e-10
4.24633e-10
4.25687e-10
4.26736e-10
4.27781e-10
4.28821e-10
4.29858e-10
4.30891e-10
4.3192e-10
4.32946e-10
4.33969e-10
4.34989e-10
4.36006e-10
4.37021e-10
4.38034e-10
4.39045e-10
4.40054e-10
4.41061e-10
4.42066e-10
4.43071e-10
4.44074e-10
4.45075e-10
4.46076e-10
4.47077e-10
4.48076e-10
4.49075e-10
4.50073e-10
4.51071e-10
4.52069e-10
4.53066e-10
4.54064e-10
4.55061e-10
4.56057e-10
4.57054e-10
4.58051e-10
4.59047e-10
4.60044e-10
4.6104e-10
4.62036e-10
4.63031e-10
4.64026e-10
4.65021e-10
4.66015e-10
4.67009e-10
4.68001e-10
4.68992e-10
4.69978e-10
4.70956e-10
4.71915e-10
4.72831e-10
4.73652e-10
4.74279e-10
4.74528e-10
4.74085e-10
4.72464e-10
4.68976e-10
4.62771e-10
4.52983e-10
4.39044e-10
4.21176e-10
4.0103e-10
3.82243e-10
3.70299e-10
1.9026e-07
1.58847e-07
1.32115e-07
1.08881e-07
8.85106e-08
7.07087e-08
5.53539e-08
4.23768e-08
3.16827e-08
2.3115e-08
1.64518e-08
1.14241e-08
7.74331e-09
5.12793e-09
3.32419e-09
2.1182e-09
1.34027e-09
8.62948e-10
5.93599e-10
4.61263e-10
4.07e-10
3.88463e-10
3.83418e-10
3.82885e-10
3.8375e-10
3.85019e-10
3.8639e-10
3.87776e-10
3.89153e-10
3.90515e-10
3.9186e-10
3.9319e-10
3.94503e-10
3.95801e-10
3.97085e-10
3.98354e-10
3.99609e-10
4.00851e-10
4.0208e-10
4.03297e-10
4.04502e-10
4.05696e-10
4.06879e-10
4.08051e-10
4.09213e-10
4.10365e-10
4.11508e-10
4.12643e-10
4.13768e-10
4.14886e-10
4.15995e-10
4.17098e-10
4.18193e-10
4.19281e-10
4.20363e-10
4.21438e-10
4.22508e-10
4.23572e-10
4.24631e-10
4.25685e-10
4.26734e-10
4.27779e-10
4.28819e-10
4.29856e-10
4.30889e-10
4.31918e-10
4.32944e-10
4.33967e-10
4.34987e-10
4.36004e-10
4.37019e-10
4.38032e-10
4.39043e-10
4.40052e-10
4.41059e-10
4.42064e-10
4.43068e-10
4.44071e-10
4.45073e-10
4.46074e-10
4.47074e-10
4.48074e-10
4.49073e-10
4.50071e-10
4.51069e-10
4.52067e-10
4.53064e-10
4.54061e-10
4.55058e-10
4.56055e-10
4.57052e-10
4.58049e-10
4.59045e-10
4.60041e-10
4.61038e-10
4.62033e-10
4.63029e-10
4.64024e-10
4.65019e-10
4.66013e-10
4.67007e-10
4.67999e-10
4.68989e-10
4.69976e-10
4.70954e-10
4.71913e-10
4.72829e-10
4.7365e-10
4.74277e-10
4.74525e-10
4.74083e-10
4.72462e-10
4.68974e-10
4.62769e-10
4.52981e-10
4.39041e-10
4.21174e-10
4.01029e-10
3.82242e-10
3.70298e-10
1.90245e-07
1.58797e-07
1.32029e-07
1.08767e-07
8.83806e-08
7.05748e-08
5.52265e-08
4.22633e-08
3.15871e-08
2.30383e-08
1.6393e-08
1.13812e-08
7.71361e-09
5.10901e-09
3.31419e-09
2.11613e-09
1.3462e-09
8.77944e-10
6.18506e-10
4.94593e-10
4.45271e-10
4.28895e-10
4.24702e-10
4.24547e-10
4.25635e-10
4.2708e-10
4.28611e-10
4.30151e-10
4.3168e-10
4.33191e-10
4.34685e-10
4.3616e-10
4.37617e-10
4.39058e-10
4.40482e-10
4.41891e-10
4.43284e-10
4.44663e-10
4.46027e-10
4.47378e-10
4.48715e-10
4.5004e-10
4.51353e-10
4.52654e-10
4.53944e-10
4.55223e-10
4.56492e-10
4.57751e-10
4.59e-10
4.60241e-10
4.61472e-10
4.62696e-10
4.63911e-10
4.6512e-10
4.6632e-10
4.67515e-10
4.68702e-10
4.69884e-10
4.71059e-10
4.72229e-10
4.73394e-10
4.74554e-10
4.75709e-10
4.7686e-10
4.78006e-10
4.79149e-10
4.80288e-10
4.81424e-10
4.82557e-10
4.83686e-10
4.84813e-10
4.85938e-10
4.8706e-10
4.8818e-10
4.89298e-10
4.90415e-10
4.9153e-10
4.92643e-10
4.93756e-10
4.94867e-10
4.95978e-10
4.97087e-10
4.98196e-10
4.99305e-10
5.00413e-10
5.01521e-10
5.02628e-10
5.03736e-10
5.04843e-10
5.05949e-10
5.07056e-10
5.08163e-10
5.09269e-10
5.10376e-10
5.11482e-10
5.12587e-10
5.13693e-10
5.14798e-10
5.15903e-10
5.17006e-10
5.1811e-10
5.19211e-10
5.20311e-10
5.21407e-10
5.22493e-10
5.23557e-10
5.24572e-10
5.2548e-10
5.26167e-10
5.26423e-10
5.25886e-10
5.23991e-10
5.19926e-10
5.12664e-10
5.01104e-10
4.84395e-10
4.62463e-10
4.36787e-10
4.11431e-10
3.94065e-10
1.90205e-07
1.58665e-07
1.31809e-07
1.0848e-07
8.80579e-08
7.02472e-08
5.4919e-08
4.19924e-08
3.13611e-08
2.28585e-08
1.62563e-08
1.12816e-08
7.64473e-09
5.06472e-09
3.28976e-09
2.10873e-09
1.35518e-09
9.04294e-10
6.62216e-10
5.51564e-10
5.09372e-10
4.95991e-10
4.92989e-10
4.93386e-10
4.94823e-10
4.96551e-10
4.98345e-10
5.0014e-10
5.01919e-10
5.03678e-10
5.05415e-10
5.07131e-10
5.08827e-10
5.10503e-10
5.1216e-10
5.13799e-10
5.1542e-10
5.17023e-10
5.18611e-10
5.20182e-10
5.21739e-10
5.2328e-10
5.24808e-10
5.26322e-10
5.27823e-10
5.29311e-10
5.30788e-10
5.32253e-10
5.33707e-10
5.35151e-10
5.36584e-10
5.38008e-10
5.39423e-10
5.40829e-10
5.42227e-10
5.43616e-10
5.44999e-10
5.46374e-10
5.47742e-10
5.49104e-10
5.5046e-10
5.5181e-10
5.53154e-10
5.54494e-10
5.55828e-10
5.57159e-10
5.58485e-10
5.59807e-10
5.61125e-10
5.6244e-10
5.63752e-10
5.65061e-10
5.66367e-10
5.67671e-10
5.68973e-10
5.70272e-10
5.7157e-10
5.72867e-10
5.74162e-10
5.75455e-10
5.76748e-10
5.7804e-10
5.79331e-10
5.80622e-10
5.81912e-10
5.83201e-10
5.84491e-10
5.8578e-10
5.87068e-10
5.88357e-10
5.89645e-10
5.90934e-10
5.92222e-10
5.9351e-10
5.94797e-10
5.96085e-10
5.97372e-10
5.98658e-10
5.99944e-10
6.01229e-10
6.02514e-10
6.03796e-10
6.05077e-10
6.06352e-10
6.07616e-10
6.08854e-10
6.10034e-10
6.11085e-10
6.11872e-10
6.12139e-10
6.11447e-10
6.09098e-10
6.04076e-10
5.95051e-10
5.8051e-10
5.59046e-10
5.29872e-10
4.93633e-10
4.54158e-10
4.22901e-10
1.90115e-07
1.58374e-07
1.31334e-07
1.07878e-07
8.73967e-08
6.9591e-08
5.43152e-08
4.14696e-08
3.0931e-08
2.25205e-08
1.60014e-08
1.10973e-08
7.5173e-09
4.98188e-09
3.2418e-09
2.08924e-09
1.36114e-09
9.34663e-10
7.14094e-10
6.17827e-10
5.82661e-10
5.72123e-10
5.70266e-10
5.71225e-10
5.73036e-10
5.75079e-10
5.7717e-10
5.79253e-10
5.81315e-10
5.83353e-10
5.85365e-10
5.87354e-10
5.89319e-10
5.91261e-10
5.93182e-10
5.95081e-10
5.96959e-10
5.98818e-10
6.00658e-10
6.02479e-10
6.04283e-10
6.0607e-10
6.0784e-10
6.09595e-10
6.11335e-10
6.1306e-10
6.14771e-10
6.16469e-10
6.18155e-10
6.19828e-10
6.2149e-10
6.23141e-10
6.24781e-10
6.2641e-10
6.28031e-10
6.29642e-10
6.31244e-10
6.32838e-10
6.34425e-10
6.36003e-10
6.37575e-10
6.3914e-10
6.40699e-10
6.42252e-10
6.43799e-10
6.45341e-10
6.46879e-10
6.48411e-10
6.4994e-10
6.51465e-10
6.52985e-10
6.54503e-10
6.56018e-10
6.57529e-10
6.59039e-10
6.60546e-10
6.62051e-10
6.63554e-10
6.65055e-10
6.66555e-10
6.68054e-10
6.69552e-10
6.71049e-10
6.72545e-10
6.74041e-10
6.75536e-10
6.77031e-10
6.78526e-10
6.8002e-10
6.81515e-10
6.83008e-10
6.84502e-10
6.85996e-10
6.87489e-10
6.88982e-10
6.90475e-10
6.91967e-10
6.93459e-10
6.9495e-10
6.9644e-10
6.97929e-10
6.99417e-10
7.00901e-10
7.0238e-10
7.03845e-10
7.0528e-10
7.06645e-10
7.07859e-10
7.08757e-10
7.09035e-10
7.08162e-10
7.05289e-10
6.99158e-10
6.88077e-10
6.70003e-10
6.42747e-10
6.04257e-10
5.5294e-10
4.88953e-10
4.23411e-10
1.89917e-07
1.57753e-07
1.30357e-07
1.06681e-07
8.61268e-08
6.83663e-08
5.32154e-08
4.05366e-08
3.01766e-08
2.19358e-08
1.55656e-08
1.07844e-08
7.30149e-09
4.84027e-09
3.15628e-09
2.04707e-09
1.3545e-09
9.58247e-10
7.60768e-10
6.78046e-10
6.48969e-10
6.40814e-10
6.3992e-10
6.41363e-10
6.43504e-10
6.4583e-10
6.48187e-10
6.5053e-10
6.52847e-10
6.55136e-10
6.57398e-10
6.59632e-10
6.6184e-10
6.64023e-10
6.6618e-10
6.68314e-10
6.70425e-10
6.72514e-10
6.74581e-10
6.76628e-10
6.78655e-10
6.80662e-10
6.82652e-10
6.84624e-10
6.86579e-10
6.88518e-10
6.90441e-10
6.9235e-10
6.94244e-10
6.96125e-10
6.97992e-10
6.99847e-10
7.01691e-10
7.03522e-10
7.05344e-10
7.07154e-10
7.08955e-10
7.10747e-10
7.1253e-10
7.14305e-10
7.16071e-10
7.1783e-10
7.19582e-10
7.21328e-10
7.23067e-10
7.24801e-10
7.26529e-10
7.28252e-10
7.2997e-10
7.31684e-10
7.33393e-10
7.35099e-10
7.36802e-10
7.38501e-10
7.40198e-10
7.41892e-10
7.43583e-10
7.45273e-10
7.46961e-10
7.48647e-10
7.50332e-10
7.52016e-10
7.53699e-10
7.55381e-10
7.57063e-10
7.58743e-10
7.60424e-10
7.62104e-10
7.63784e-10
7.65464e-10
7.67143e-10
7.68822e-10
7.70502e-10
7.7218e-10
7.73859e-10
7.75537e-10
7.77214e-10
7.78891e-10
7.80568e-10
7.82243e-10
7.83917e-10
7.85589e-10
7.87258e-10
7.8892e-10
7.90567e-10
7.92179e-10
7.93712e-10
7.95071e-10
7.96068e-10
7.9635e-10
7.95304e-10
7.91935e-10
7.84754e-10
7.71713e-10
7.50221e-10
7.17212e-10
6.69038e-10
6.00442e-10
5.00311e-10
3.28469e-10
1.89473e-07
1.56432e-07
1.28384e-07
1.04378e-07
8.37803e-08
6.618e-08
5.13069e-08
3.89548e-08
2.89218e-08
2.09782e-08
1.48604e-08
1.02825e-08
6.95648e-09
4.61241e-09
3.01417e-09
1.96783e-09
1.32243e-09
9.61517e-10
7.87461e-10
7.16955e-10
6.92988e-10
6.86753e-10
6.86605e-10
6.88402e-10
6.90774e-10
6.93292e-10
6.95829e-10
6.98346e-10
7.00835e-10
7.03294e-10
7.05723e-10
7.08122e-10
7.10494e-10
7.12837e-10
7.15155e-10
7.17447e-10
7.19714e-10
7.21957e-10
7.24177e-10
7.26376e-10
7.28553e-10
7.30709e-10
7.32846e-10
7.34965e-10
7.37065e-10
7.39147e-10
7.41213e-10
7.43263e-10
7.45298e-10
7.47318e-10
7.49325e-10
7.51317e-10
7.53297e-10
7.55265e-10
7.57222e-10
7.59167e-10
7.61102e-10
7.63026e-10
7.64942e-10
7.66848e-10
7.68746e-10
7.70636e-10
7.72518e-10
7.74394e-10
7.76262e-10
7.78125e-10
7.79981e-10
7.81832e-10
7.83678e-10
7.85519e-10
7.87356e-10
7.89189e-10
7.91018e-10
7.92844e-10
7.94666e-10
7.96486e-10
7.98304e-10
8.00119e-10
8.01933e-10
8.03745e-10
8.05555e-10
8.07364e-10
8.09172e-10
8.1098e-10
8.12786e-10
8.14592e-10
8.16398e-10
8.18203e-10
8.20008e-10
8.21813e-10
8.23617e-10
8.25421e-10
8.27225e-10
8.29029e-10
8.30833e-10
8.32636e-10
8.34438e-10
8.3624e-10
8.38041e-10
8.39841e-10
8.41639e-10
8.43436e-10
8.45229e-10
8.47015e-10
8.48784e-10
8.50516e-10
8.52161e-10
8.53616e-10
8.54676e-10
8.54954e-10
8.53775e-10
8.50037e-10
8.42077e-10
8.27573e-10
8.03502e-10
7.66129e-10
7.10739e-10
6.30352e-10
5.11065e-10
3.08606e-10
1.88426e-07
1.53578e-07
1.24429e-07
1.00039e-07
7.95766e-08
6.24167e-08
4.81246e-08
3.6383e-08
2.69221e-08
1.94763e-08
1.37682e-08
9.51216e-09
6.42932e-09
4.26298e-09
2.79125e-09
1.83346e-09
1.24941e-09
9.29307e-10
7.79001e-10
7.19675e-10
7.00075e-10
6.95368e-10
6.95736e-10
6.97715e-10
7.00167e-10
7.02734e-10
7.05309e-10
7.07862e-10
7.10386e-10
7.1288e-10
7.15342e-10
7.17776e-10
7.2018e-10
7.22557e-10
7.24907e-10
7.27231e-10
7.2953e-10
7.31805e-10
7.34056e-10
7.36286e-10
7.38493e-10
7.40681e-10
7.42848e-10
7.44996e-10
7.47126e-10
7.49238e-10
7.51333e-10
7.53412e-10
7.55476e-10
7.57525e-10
7.59559e-10
7.61581e-10
7.63589e-10
7.65585e-10
7.67569e-10
7.69542e-10
7.71504e-10
7.73456e-10
7.75399e-10
7.77333e-10
7.79258e-10
7.81174e-10
7.83084e-10
7.84986e-10
7.86881e-10
7.8877e-10
7.90653e-10
7.92531e-10
7.94403e-10
7.9627e-10
7.98134e-10
7.99993e-10
8.01848e-10
8.037e-10
8.05549e-10
8.07395e-10
8.09239e-10
8.1108e-10
8.1292e-10
8.14757e-10
8.16594e-10
8.18429e-10
8.20263e-10
8.22096e-10
8.23929e-10
8.25761e-10
8.27592e-10
8.29423e-10
8.31254e-10
8.33085e-10
8.34915e-10
8.36745e-10
8.38575e-10
8.40405e-10
8.42234e-10
8.44063e-10
8.45892e-10
8.47719e-10
8.49546e-10
8.51372e-10
8.53197e-10
8.55019e-10
8.56838e-10
8.58649e-10
8.60444e-10
8.622e-10
8.63867e-10
8.6534e-10
8.66406e-10
8.66668e-10
8.65429e-10
8.61548e-10
8.53291e-10
8.38216e-10
8.131e-10
7.73894e-10
7.15463e-10
6.30471e-10
5.05353e-10
2.98613e-10
1.857e-07
1.47214e-07
1.16486e-07
9.19882e-08
7.22277e-08
5.6127e-08
4.29843e-08
3.23356e-08
2.38379e-08
1.7196e-08
1.21297e-08
8.36673e-09
5.64942e-09
3.74535e-09
2.45609e-09
1.62142e-09
1.1173e-09
8.45382e-10
7.20221e-10
6.71742e-10
6.56088e-10
6.52607e-10
6.53254e-10
6.55205e-10
6.57535e-10
6.59954e-10
6.62375e-10
6.64774e-10
6.67145e-10
6.69487e-10
6.71801e-10
6.74087e-10
6.76346e-10
6.78578e-10
6.80786e-10
6.82969e-10
6.85129e-10
6.87266e-10
6.89382e-10
6.91476e-10
6.9355e-10
6.95605e-10
6.97641e-10
6.99659e-10
7.0166e-10
7.03645e-10
7.05613e-10
7.07567e-10
7.09505e-10
7.1143e-10
7.13342e-10
7.15241e-10
7.17128e-10
7.19003e-10
7.20867e-10
7.22721e-10
7.24565e-10
7.26399e-10
7.28225e-10
7.30041e-10
7.3185e-10
7.33651e-10
7.35445e-10
7.37232e-10
7.39013e-10
7.40788e-10
7.42557e-10
7.44322e-10
7.46081e-10
7.47836e-10
7.49586e-10
7.51333e-10
7.53077e-10
7.54817e-10
7.56554e-10
7.58289e-10
7.60021e-10
7.61752e-10
7.6348e-10
7.65207e-10
7.66933e-10
7.68657e-10
7.7038e-10
7.72103e-10
7.73825e-10
7.75546e-10
7.77267e-10
7.78988e-10
7.80708e-10
7.82429e-10
7.84149e-10
7.85868e-10
7.87588e-10
7.89307e-10
7.91026e-10
7.92745e-10
7.94463e-10
7.9618e-10
7.97897e-10
7.99613e-10
8.01327e-10
8.0304e-10
8.04749e-10
8.06451e-10
8.08137e-10
8.09787e-10
8.11352e-10
8.12734e-10
8.1373e-10
8.13964e-10
8.12771e-10
8.09066e-10
8.0119e-10
7.86798e-10
7.62775e-10
7.2519e-10
6.6909e-10
5.87622e-10
4.68659e-10
2.75161e-10
1.77403e-07
1.32173e-07
1.00237e-07
7.70529e-08
5.94911e-08
4.57359e-08
3.47779e-08
2.60337e-08
1.91243e-08
1.37598e-08
9.68691e-09
6.67221e-09
4.50111e-09
2.98337e-09
1.95838e-09
1.29739e-09
9.00891e-10
6.8936e-10
5.93262e-10
5.56495e-10
5.44812e-10
5.42372e-10
5.43054e-10
5.44721e-10
5.46671e-10
5.48686e-10
5.507e-10
5.52696e-10
5.54668e-10
5.56615e-10
5.58539e-10
5.6044e-10
5.62319e-10
5.64175e-10
5.66011e-10
5.67827e-10
5.69623e-10
5.714e-10
5.73159e-10
5.74901e-10
5.76626e-10
5.78335e-10
5.80028e-10
5.81706e-10
5.8337e-10
5.85021e-10
5.86658e-10
5.88282e-10
5.89895e-10
5.91496e-10
5.93086e-10
5.94665e-10
5.96234e-10
5.97794e-10
5.99344e-10
6.00886e-10
6.02419e-10
6.03945e-10
6.05463e-10
6.06974e-10
6.08478e-10
6.09976e-10
6.11468e-10
6.12955e-10
6.14436e-10
6.15912e-10
6.17384e-10
6.18851e-10
6.20314e-10
6.21773e-10
6.2323e-10
6.24682e-10
6.26132e-10
6.2758e-10
6.29025e-10
6.30467e-10
6.31908e-10
6.33347e-10
6.34785e-10
6.36221e-10
6.37657e-10
6.39091e-10
6.40524e-10
6.41957e-10
6.43389e-10
6.44821e-10
6.46252e-10
6.47683e-10
6.49114e-10
6.50545e-10
6.51976e-10
6.53406e-10
6.54836e-10
6.56266e-10
6.57696e-10
6.59125e-10
6.60554e-10
6.61983e-10
6.63411e-10
6.64838e-10
6.66264e-10
6.67688e-10
6.6911e-10
6.70525e-10
6.71928e-10
6.733e-10
6.74601e-10
6.75749e-10
6.76575e-10
6.76762e-10
6.75756e-10
6.72645e-10
6.66036e-10
6.53954e-10
6.33773e-10
6.02173e-10
5.55e-10
4.86613e-10
3.87244e-10
2.26863e-10
1.44965e-07
9.16748e-08
6.39491e-08
4.72498e-08
3.57939e-08
2.72477e-08
2.0602e-08
1.53665e-08
1.12605e-08
8.08756e-09
5.68633e-09
3.91301e-09
2.63812e-09
1.74819e-09
1.1481e-09
7.61939e-10
5.31127e-10
4.08673e-10
3.53401e-10
3.32382e-10
3.25758e-10
3.24423e-10
3.2487e-10
3.2588e-10
3.2705e-10
3.28257e-10
3.29462e-10
3.30656e-10
3.31836e-10
3.33001e-10
3.34152e-10
3.3529e-10
3.36414e-10
3.37524e-10
3.38623e-10
3.39709e-10
3.40784e-10
3.41847e-10
3.429e-10
3.43942e-10
3.44974e-10
3.45996e-10
3.4701e-10
3.48014e-10
3.49009e-10
3.49997e-10
3.50976e-10
3.51949e-10
3.52913e-10
3.53871e-10
3.54823e-10
3.55767e-10
3.56706e-10
3.5764e-10
3.58567e-10
3.5949e-10
3.60407e-10
3.6132e-10
3.62229e-10
3.63133e-10
3.64033e-10
3.64929e-10
3.65822e-10
3.66711e-10
3.67598e-10
3.68481e-10
3.69361e-10
3.70239e-10
3.71115e-10
3.71988e-10
3.72859e-10
3.73729e-10
3.74596e-10
3.75462e-10
3.76327e-10
3.7719e-10
3.78052e-10
3.78914e-10
3.79774e-10
3.80633e-10
3.81492e-10
3.8235e-10
3.83208e-10
3.84065e-10
3.84922e-10
3.85779e-10
3.86636e-10
3.87492e-10
3.88348e-10
3.89204e-10
3.9006e-10
3.90916e-10
3.91772e-10
3.92628e-10
3.93483e-10
3.94338e-10
3.95194e-10
3.96048e-10
3.96903e-10
3.97757e-10
3.9861e-10
3.99462e-10
4.00313e-10
4.0116e-10
4.01999e-10
4.0282e-10
4.03599e-10
4.04285e-10
4.04778e-10
4.04889e-10
4.04283e-10
4.02413e-10
3.98443e-10
3.91184e-10
3.79055e-10
3.60059e-10
3.31706e-10
2.9064e-10
2.311e-10
1.35299e-10
)
;

boundaryField
{
    upperWall
    {
        type            zeroGradient;
    }
    lowerWall
    {
        type            zeroGradient;
    }
    inlet
    {
        type            zeroGradient;
    }
    outlet
    {
        type            zeroGradient;
    }
    frontAndBack
    {
        type            empty;
    }
}


// ************************************************************************* //
