/*--------------------------------*- C++ -*----------------------------------*\
  =========                 |
  \\      /  F ield         | OpenFOAM: The Open Source CFD Toolbox
   \\    /   O peration     | Website:  https://openfoam.org
    \\  /    A nd           | Version:  7
     \\/     M anipulation  |
\*---------------------------------------------------------------------------*/
FoamFile
{
    version     2.0;
    format      ascii;
    class       volScalarField;
    location    "3.65";
    object      k;
}
// * * * * * * * * * * * * * * * * * * * * * * * * * * * * * * * * * * * * * //

dimensions      [0 2 -2 0 0 0 0];

internalField   nonuniform List<scalar> 
4800
(
0.0148098
0.0794003
0.206488
0.365594
0.532999
0.688066
0.81983
0.921587
0.99546
1.04117
1.06816
1.07279
1.06828
1.05624
1.03511
1.00999
0.982557
0.95406
0.925386
0.897163
0.869813
0.843613
0.818725
0.795242
0.773189
0.752557
0.733309
0.715385
0.698718
0.68323
0.668841
0.655471
0.64304
0.631473
0.620697
0.610646
0.601255
0.592466
0.584222
0.576471
0.569167
0.562268
0.555738
0.549545
0.543654
0.538044
0.532685
0.527559
0.522648
0.517926
0.513381
0.508997
0.504765
0.500672
0.496708
0.492867
0.489139
0.485516
0.481994
0.478565
0.475224
0.471964
0.468784
0.465673
0.462638
0.45966
0.456761
0.453893
0.45113
0.448338
0.445731
0.44295
0.440562
0.437659
0.435605
0.432367
0.430616
0.427046
0.424013
0.428731
4.25186e-05
0.00054701
0.00276387
0.00837784
0.0200909
0.0385074
0.0629153
0.090662
0.120275
0.149028
0.176112
0.200089
0.220589
0.237883
0.251882
0.26295
0.271455
0.277858
0.282496
0.285792
0.287967
0.289386
0.290129
0.290534
0.290521
0.290424
0.290209
0.289924
0.289631
0.289365
0.289138
0.288969
0.288854
0.288805
0.288818
0.288863
0.288961
0.289101
0.289274
0.289472
0.289689
0.289916
0.290153
0.290388
0.290622
0.290846
0.291063
0.291267
0.291454
0.291625
0.291779
0.291911
0.292025
0.292114
0.292184
0.292229
0.292256
0.292252
0.292236
0.292203
0.292138
0.292069
0.291963
0.291867
0.291723
0.291603
0.291419
0.291283
0.291059
0.290914
0.290653
0.290507
0.290214
0.290066
0.289742
0.289597
0.28921
0.289044
0.288348
0.288824
2.00302e-05
2.10466e-05
2.95971e-05
6.71235e-05
0.000186154
0.000473609
0.00107345
0.00213796
0.00373963
0.00589696
0.00856542
0.0116847
0.015116
0.0187635
0.0224929
0.0262147
0.0298285
0.0332848
0.0365236
0.0395303
0.0422775
0.0447741
0.0470164
0.0490245
0.0508105
0.0523935
0.0537971
0.0550371
0.056138
0.057114
0.0579884
0.0587705
0.0594828
0.0601293
0.0607314
0.0612888
0.0618228
0.0623278
0.0628256
0.0633062
0.0637927
0.0642692
0.0647613
0.0652481
0.065758
0.0662637
0.0667989
0.06733
0.0678954
0.0684547
0.0690538
0.0696429
0.0702768
0.0708957
0.0715642
0.07221
0.0729119
0.0735836
0.074318
0.0750121
0.0757768
0.0764884
0.0772829
0.0780114
0.0788344
0.0795735
0.0804239
0.0811695
0.0820483
0.0827966
0.0837057
0.0844508
0.0853944
0.0861315
0.0871185
0.0878432
0.0888902
0.0896014
0.0907566
0.0915167
2.00607e-05
2.00698e-05
2.01126e-05
2.02971e-05
2.09867e-05
2.31239e-05
2.87598e-05
4.15154e-05
7.08578e-05
0.000111834
0.00019478
0.000294998
0.000451694
0.000630783
0.000868618
0.00112607
0.0014365
0.00175753
0.00212179
0.00248413
0.00287865
0.00325895
0.00366177
0.00404015
0.0044345
0.00479653
0.00517061
0.0055074
0.0058549
0.0061622
0.00648088
0.00675752
0.00704745
0.00729416
0.00755677
0.00777576
0.0080145
0.00820878
0.00842655
0.00859967
0.00880027
0.00895572
0.00914267
0.00928329
0.00945954
0.00958778
0.0097556
0.00987381
0.010036
0.0101464
0.0103056
0.0104105
0.0105684
0.0106696
0.0108282
0.0109259
0.0110859
0.0111825
0.0113455
0.0114411
0.0116083
0.0117032
0.0118751
0.0119706
0.0121485
0.0122452
0.01243
0.012529
0.0127216
0.0128234
0.0130245
0.0131295
0.0133393
0.0134491
0.0136699
0.0137864
0.0140237
0.014151
0.0144189
0.014571
2.00721e-05
2.00734e-05
2.00891e-05
2.01326e-05
2.02367e-05
2.03557e-05
2.06056e-05
2.08575e-05
2.14103e-05
2.20234e-05
2.34087e-05
2.49072e-05
2.8229e-05
3.12972e-05
3.79392e-05
4.31714e-05
5.42737e-05
6.19973e-05
7.81412e-05
8.83622e-05
0.000109464
0.000121892
0.000147295
0.000161462
0.000190205
0.0002056
0.000236521
0.000252966
0.000284864
0.000302093
0.000334435
0.00035192
0.00038434
0.000401786
0.000434003
0.000451328
0.000483497
0.000500527
0.000532331
0.000549155
0.00058072
0.000597352
0.000628656
0.00064497
0.000676059
0.000692071
0.000722792
0.000738472
0.000768814
0.000784216
0.000814426
0.000829659
0.000859755
0.000874904
0.000904909
0.000919947
0.000949744
0.000964608
0.000994335
0.00100928
0.001039
0.00105382
0.00108336
0.0010981
0.00112757
0.00114231
0.00117184
0.00118671
0.00121659
0.00123166
0.00126195
0.00127719
0.00130777
0.00132318
0.0013543
0.00137013
0.00140251
0.00141931
0.00145486
0.00147396
2.00801e-05
2.0078e-05
2.00889e-05
2.01237e-05
2.02116e-05
2.03102e-05
2.0524e-05
2.06813e-05
2.10115e-05
2.12149e-05
2.16337e-05
2.18678e-05
2.23462e-05
2.26011e-05
2.31218e-05
2.33939e-05
2.3952e-05
2.42436e-05
2.48455e-05
2.51624e-05
2.58202e-05
2.61684e-05
2.68929e-05
2.72774e-05
2.80769e-05
2.85004e-05
2.93786e-05
2.98421e-05
3.07983e-05
3.13006e-05
3.2334e-05
3.28749e-05
3.39831e-05
3.4561e-05
3.57419e-05
3.63558e-05
3.76091e-05
3.82592e-05
3.95848e-05
4.02713e-05
4.16678e-05
4.23897e-05
4.3857e-05
4.46135e-05
4.61485e-05
4.69374e-05
4.85362e-05
4.93551e-05
5.10124e-05
5.18613e-05
5.35799e-05
5.4462e-05
5.62484e-05
5.71652e-05
5.90207e-05
5.99702e-05
6.18889e-05
6.28683e-05
6.48464e-05
6.58547e-05
6.78889e-05
6.89233e-05
7.10085e-05
7.20678e-05
7.42018e-05
7.52872e-05
7.74758e-05
7.85918e-05
8.0847e-05
8.20009e-05
8.43323e-05
8.55208e-05
8.79168e-05
8.91334e-05
9.15915e-05
9.28433e-05
9.53908e-05
9.67054e-05
9.94351e-05
0.000100869
2.00787e-05
2.00783e-05
2.00897e-05
2.01247e-05
2.02124e-05
2.03111e-05
2.05251e-05
2.06825e-05
2.10127e-05
2.12163e-05
2.16358e-05
2.18701e-05
2.23487e-05
2.26026e-05
2.31205e-05
2.33904e-05
2.39443e-05
2.42335e-05
2.48312e-05
2.51459e-05
2.57991e-05
2.61451e-05
2.68646e-05
2.72466e-05
2.80409e-05
2.84621e-05
2.93341e-05
2.97951e-05
3.07457e-05
3.12459e-05
3.22746e-05
3.28132e-05
3.39169e-05
3.44929e-05
3.56708e-05
3.6284e-05
3.7535e-05
3.81829e-05
3.95021e-05
4.01842e-05
4.15707e-05
4.22863e-05
4.37389e-05
4.44878e-05
4.60079e-05
4.67918e-05
4.83828e-05
4.92031e-05
5.08667e-05
5.17213e-05
5.3451e-05
5.43351e-05
5.61211e-05
5.70315e-05
5.88704e-05
5.98075e-05
6.17002e-05
6.2665e-05
6.4614e-05
6.56065e-05
6.76102e-05
6.86296e-05
7.06866e-05
7.17335e-05
7.38471e-05
7.49184e-05
7.70761e-05
7.81637e-05
8.03498e-05
8.14473e-05
8.36546e-05
8.47657e-05
8.70088e-05
8.8144e-05
9.04443e-05
9.16079e-05
9.39829e-05
9.51873e-05
9.76908e-05
9.89793e-05
2.00691e-05
2.00746e-05
2.00915e-05
2.01351e-05
2.02396e-05
2.03583e-05
2.0607e-05
2.08558e-05
2.14011e-05
2.20034e-05
2.33706e-05
2.48407e-05
2.81188e-05
3.1132e-05
3.76983e-05
4.28646e-05
5.3901e-05
6.15558e-05
7.76271e-05
8.77546e-05
0.000108738
0.000121059
0.000146338
0.000160413
0.000189061
0.000204381
0.000235234
0.0002516
0.00028349
0.000300696
0.000332999
0.000350373
0.000382801
0.000400113
0.00043246
0.000449731
0.000481739
0.000498747
0.000530611
0.000547337
0.000578826
0.000595269
0.000626385
0.000642574
0.000673441
0.000689325
0.00072006
0.000735871
0.000766379
0.000782025
0.000812271
0.000827531
0.000857506
0.000872552
0.000902307
0.000917235
0.000946761
0.000961508
0.000990866
0.00100547
0.00103467
0.00104924
0.00107842
0.00109305
0.00112228
0.00113684
0.00116581
0.00118018
0.00120892
0.0012232
0.00125182
0.00126608
0.00129478
0.00130914
0.00133823
0.00135278
0.00138266
0.00139772
0.00142988
0.00144663
2.00554e-05
2.00716e-05
2.01149e-05
2.02904e-05
2.09528e-05
2.30227e-05
2.85184e-05
4.10229e-05
6.99861e-05
0.000110509
0.000193253
0.000292263
0.000448724
0.000626049
0.0008635
0.00111967
0.00143062
0.00175055
0.00211507
0.00247583
0.0028703
0.00324914
0.00365231
0.00402952
0.00442424
0.00478549
0.00516027
0.00549654
0.00584495
0.00615162
0.00647122
0.00674699
0.00703772
0.00728318
0.00754674
0.00776451
0.00800357
0.00819671
0.00841527
0.00858702
0.00878812
0.0089418
0.00912892
0.00926774
0.00944453
0.00957129
0.00974059
0.0098582
0.0100219
0.0101318
0.0102919
0.0103951
0.0105536
0.0106527
0.0108111
0.0109071
0.0110667
0.0111607
0.0113229
0.0114155
0.0115815
0.0116743
0.0118448
0.011938
0.0121137
0.0122076
0.0123883
0.0124828
0.012669
0.0127652
0.0129574
0.0130567
0.0132559
0.0133585
0.0135657
0.0136722
0.0138911
0.0140048
0.0142492
0.0143839
2.00247e-05
2.09629e-05
2.91451e-05
6.57147e-05
0.000182776
0.000467129
0.00106293
0.00212256
0.00371974
0.00587354
0.00853961
0.011655
0.0150818
0.0187241
0.0224516
0.0261735
0.0297897
0.0332468
0.0364861
0.039491
0.0422373
0.0447325
0.0469751
0.0489827
0.0507697
0.0523525
0.0537578
0.0549982
0.0561016
0.0570773
0.0579538
0.0587345
0.0594481
0.0600919
0.0606956
0.06125
0.0617852
0.0622872
0.0627875
0.0632644
0.0637533
0.0642253
0.0647208
0.0652026
0.0657168
0.0662176
0.0667593
0.0672842
0.0678569
0.0684083
0.0690142
0.0695926
0.0702341
0.0708394
0.0715169
0.0721474
0.0728589
0.0735111
0.0742574
0.0749281
0.0757081
0.0763933
0.0772041
0.0778973
0.078739
0.0794357
0.0803077
0.0810025
0.0819053
0.0825924
0.0835284
0.0842007
0.0851714
0.085822
0.0868304
0.0874561
0.0885086
0.0891228
0.090236
0.0909264
4.04229e-05
0.000533514
0.00272873
0.00831417
0.0199977
0.0383915
0.0627795
0.0905136
0.120122
0.148876
0.175961
0.199937
0.220437
0.237733
0.25174
0.262817
0.271332
0.277742
0.282385
0.285685
0.287864
0.289288
0.290036
0.290446
0.290437
0.290344
0.290134
0.289852
0.289563
0.289299
0.289074
0.288906
0.288792
0.288742
0.288757
0.288803
0.288901
0.289043
0.289218
0.289416
0.289635
0.289864
0.290101
0.290336
0.290571
0.290796
0.291014
0.291218
0.291406
0.291577
0.291728
0.29186
0.291969
0.292059
0.292123
0.292168
0.292188
0.292183
0.292164
0.292127
0.292056
0.291982
0.291869
0.291764
0.291607
0.291477
0.291279
0.291131
0.290891
0.290735
0.290453
0.290292
0.28997
0.2898
0.289436
0.289256
0.28882
0.288577
0.287718
0.288082
0.0148024
0.0794098
0.206514
0.365626
0.533048
0.68814
0.819929
0.921699
0.995576
1.04129
1.06827
1.0729
1.06838
1.05635
1.03522
1.01009
0.982656
0.954154
0.925475
0.897247
0.869891
0.843688
0.818798
0.795313
0.773257
0.752623
0.733372
0.715447
0.698777
0.683287
0.668897
0.655526
0.643094
0.631527
0.620751
0.6107
0.60131
0.592522
0.584278
0.576529
0.569227
0.562331
0.555803
0.549612
0.543724
0.538117
0.532761
0.527639
0.522733
0.518017
0.513478
0.5091
0.504876
0.500793
0.496842
0.493013
0.489301
0.485697
0.482194
0.478788
0.475472
0.472242
0.469092
0.466022
0.463025
0.460101
0.457247
0.454453
0.451737
0.449057
0.446487
0.44388
0.441492
0.438878
0.436734
0.433959
0.431972
0.429036
0.425666
0.430635
0.81326
0.977568
1.00078
0.991984
0.973615
0.955309
0.939547
0.925301
0.912147
0.899976
0.888739
0.878381
0.868812
0.859968
0.851792
0.844221
0.837215
0.830726
0.824706
0.819113
0.813908
0.809059
0.804539
0.800319
0.796376
0.792689
0.789239
0.78601
0.782986
0.780154
0.777501
0.775016
0.77269
0.77051
0.76847
0.766562
0.764777
0.763108
0.76155
0.760097
0.758742
0.75748
0.756309
0.755222
0.754217
0.753289
0.752434
0.75165
0.750933
0.75028
0.749689
0.749156
0.748681
0.748259
0.747887
0.747565
0.747291
0.74706
0.746873
0.746725
0.746617
0.746546
0.74651
0.746511
0.746534
0.746592
0.74668
0.746795
0.746935
0.747098
0.747284
0.747492
0.74772
0.747968
0.748234
0.748517
0.748817
0.749132
0.749461
0.749804
0.75016
0.750528
0.750907
0.751297
0.751698
0.752107
0.752526
0.752953
0.753387
0.753828
0.754276
0.754729
0.755189
0.755654
0.756124
0.756598
0.757077
0.757559
0.758045
0.758535
0.759027
0.759523
0.760021
0.760522
0.761024
0.761529
0.762036
0.762544
0.763054
0.763565
0.764078
0.764592
0.765107
0.765623
0.766139
0.766656
0.767174
0.767692
0.76821
0.768729
0.769247
0.769766
0.770285
0.770803
0.771322
0.771839
0.772357
0.772874
0.773391
0.773907
0.774423
0.774938
0.775453
0.775966
0.776479
0.776992
0.777503
0.778013
0.778523
0.779032
0.779539
0.780046
0.780552
0.781056
0.78156
0.782062
0.782563
0.783062
0.783561
0.784058
0.784554
0.785048
0.785541
0.786032
0.786522
0.78701
0.787496
0.787981
0.788464
0.788946
0.789426
0.789904
0.79038
0.790855
0.791328
0.791799
0.792268
0.792736
0.793202
0.793666
0.794129
0.794589
0.795048
0.795505
0.79596
0.796414
0.796866
0.797315
0.797763
0.79821
0.798654
0.799096
0.799537
0.799976
0.800412
0.800847
0.80128
0.801711
0.802141
0.802568
0.802993
0.803417
0.803839
0.804259
0.804678
0.805094
0.805509
0.805922
0.806333
0.806743
0.807151
0.807558
0.807963
0.808366
0.808767
0.809168
0.809566
0.809963
0.810358
0.810752
0.811145
0.811535
0.811925
0.812313
0.812699
0.813084
0.813467
0.813849
0.814229
0.814608
0.814986
0.815362
0.815737
0.816111
0.816483
0.816854
0.817224
0.817593
0.81796
0.818326
0.818692
0.819056
0.819419
0.819781
0.820142
0.820502
0.820861
0.821219
0.821575
0.821931
0.822286
0.822641
0.822994
0.823346
0.823697
0.824048
0.824397
0.824746
0.825093
0.82544
0.825786
0.826132
0.826476
0.82682
0.827163
0.827505
0.827847
0.828188
0.828529
0.828868
0.829208
0.829546
0.829885
0.830222
0.83056
0.830896
0.831233
0.831568
0.831904
0.832239
0.832573
0.832907
0.833241
0.833574
0.833907
0.834239
0.834571
0.834903
0.835234
0.835565
0.835896
0.836226
0.836556
0.836886
0.837215
0.837544
0.837873
0.838202
0.83853
0.838858
0.839186
0.839514
0.839842
0.84017
0.840498
0.840825
0.841153
0.84148
0.841807
0.842135
0.842462
0.84279
0.843116
0.843444
0.843769
0.844099
0.844422
0.844754
0.845073
0.845412
0.845722
0.846072
0.846365
0.846739
0.846999
0.847417
0.847628
0.848102
0.848256
0.848824
0.43654
0.665165
0.792104
0.849718
0.87027
0.869931
0.86586
0.857041
0.847113
0.837516
0.828557
0.820361
0.81291
0.806147
0.800029
0.79448
0.789424
0.784801
0.780564
0.776669
0.773078
0.769763
0.766697
0.76386
0.761235
0.758808
0.756562
0.754483
0.752563
0.750789
0.749153
0.747646
0.746258
0.744984
0.743818
0.74275
0.741775
0.740888
0.740084
0.739358
0.738705
0.738122
0.737605
0.73715
0.736753
0.736412
0.736124
0.735885
0.735694
0.735546
0.735443
0.735375
0.735353
0.735364
0.735399
0.735474
0.73558
0.735714
0.735875
0.736061
0.736271
0.736504
0.736757
0.73703
0.737321
0.737629
0.737954
0.738295
0.73865
0.739018
0.739399
0.739791
0.740194
0.740608
0.741032
0.741464
0.741905
0.742354
0.74281
0.743273
0.743742
0.744217
0.744697
0.745183
0.745674
0.746169
0.746667
0.74717
0.747676
0.748186
0.748698
0.749213
0.749731
0.75025
0.750772
0.751295
0.75182
0.752347
0.752875
0.753405
0.753935
0.754466
0.754998
0.755531
0.756065
0.756599
0.757133
0.757668
0.758203
0.758739
0.759274
0.75981
0.760345
0.760881
0.761416
0.761952
0.762487
0.763022
0.763557
0.764092
0.764626
0.76516
0.765693
0.766226
0.766758
0.767289
0.76782
0.768351
0.76888
0.769409
0.769937
0.770464
0.77099
0.771516
0.77204
0.772564
0.773086
0.773608
0.774129
0.774648
0.775167
0.775684
0.776201
0.776716
0.777231
0.777744
0.778256
0.778767
0.779277
0.779785
0.780293
0.780799
0.781304
0.781807
0.782309
0.78281
0.783309
0.783807
0.784304
0.784798
0.785292
0.785784
0.786274
0.786763
0.78725
0.787735
0.788219
0.788702
0.789182
0.789662
0.790139
0.790615
0.79109
0.791562
0.792034
0.792503
0.792971
0.793438
0.793903
0.794366
0.794827
0.795287
0.795746
0.796202
0.796657
0.797111
0.797562
0.798012
0.798461
0.798907
0.799352
0.799795
0.800237
0.800676
0.801115
0.801551
0.801986
0.802419
0.802851
0.80328
0.803709
0.804136
0.804561
0.804985
0.805407
0.805828
0.806247
0.806665
0.807082
0.807497
0.80791
0.808322
0.808733
0.809143
0.809551
0.809957
0.810362
0.810766
0.811169
0.81157
0.811969
0.812368
0.812765
0.81316
0.813555
0.813948
0.814339
0.81473
0.815119
0.815507
0.815894
0.81628
0.816665
0.817049
0.817431
0.817813
0.818194
0.818573
0.818952
0.819329
0.819706
0.820082
0.820457
0.820831
0.821204
0.821576
0.821947
0.822317
0.822686
0.823055
0.823423
0.823789
0.824155
0.82452
0.824884
0.825248
0.82561
0.825972
0.826333
0.826694
0.827054
0.827413
0.827771
0.828129
0.828486
0.828843
0.829199
0.829554
0.829909
0.830264
0.830618
0.830971
0.831324
0.831677
0.832029
0.832381
0.832732
0.833083
0.833433
0.833783
0.834132
0.834481
0.83483
0.835178
0.835525
0.835873
0.836219
0.836566
0.836912
0.837258
0.837603
0.837948
0.838293
0.838638
0.838982
0.839326
0.83967
0.840014
0.840357
0.840701
0.841044
0.841388
0.84173
0.842074
0.842414
0.84276
0.843098
0.843446
0.84378
0.844134
0.844458
0.844825
0.845131
0.845522
0.845796
0.846225
0.846457
0.846929
0.847134
0.847679
0.111968
0.175396
0.250681
0.324361
0.386609
0.433128
0.466744
0.490029
0.505729
0.516127
0.522912
0.527289
0.530095
0.531866
0.532964
0.533623
0.534004
0.534217
0.534332
0.534396
0.534439
0.534485
0.534545
0.534629
0.534742
0.534884
0.535059
0.535266
0.535504
0.535769
0.536063
0.536383
0.536726
0.537092
0.537478
0.537886
0.538311
0.538753
0.53921
0.539682
0.540168
0.540665
0.541173
0.54169
0.542216
0.542749
0.543289
0.543834
0.544385
0.544938
0.545495
0.546053
0.546613
0.547175
0.547735
0.548294
0.548853
0.549411
0.549966
0.550519
0.551069
0.551616
0.552159
0.5527
0.553236
0.553768
0.554297
0.554821
0.555342
0.555858
0.556369
0.556877
0.55738
0.557879
0.558374
0.558864
0.559351
0.559833
0.560311
0.560786
0.561257
0.561725
0.562189
0.562649
0.563106
0.563561
0.564013
0.564462
0.564908
0.565352
0.565794
0.566233
0.56667
0.567105
0.567538
0.567969
0.568398
0.568825
0.56925
0.569674
0.570096
0.570517
0.570936
0.571353
0.57177
0.572184
0.572598
0.57301
0.573421
0.573831
0.574239
0.574647
0.575053
0.575459
0.575863
0.576267
0.576669
0.577071
0.577472
0.577873
0.578273
0.578672
0.57907
0.579468
0.579865
0.580262
0.580657
0.581053
0.581448
0.581842
0.582235
0.582628
0.583021
0.583413
0.583804
0.584194
0.584584
0.584974
0.585362
0.58575
0.586138
0.586525
0.586911
0.587297
0.587682
0.588067
0.588451
0.588835
0.589218
0.5896
0.589983
0.590364
0.590745
0.591126
0.591506
0.591886
0.592265
0.592644
0.593022
0.593399
0.593776
0.594153
0.594528
0.594903
0.595278
0.595652
0.596025
0.596397
0.596769
0.59714
0.59751
0.597879
0.598248
0.598616
0.598983
0.59935
0.599716
0.600081
0.600445
0.600809
0.601172
0.601534
0.601896
0.602257
0.602618
0.602977
0.603336
0.603694
0.604052
0.604409
0.604765
0.60512
0.605474
0.605828
0.60618
0.606532
0.606883
0.607233
0.607582
0.60793
0.608278
0.608624
0.60897
0.609315
0.609658
0.610001
0.610344
0.610685
0.611025
0.611365
0.611704
0.612042
0.61238
0.612716
0.613052
0.613387
0.613721
0.614055
0.614387
0.614719
0.61505
0.615381
0.61571
0.616039
0.616366
0.616693
0.617019
0.617345
0.617669
0.617992
0.618315
0.618636
0.618957
0.619277
0.619597
0.619915
0.620233
0.620549
0.620866
0.621181
0.621496
0.62181
0.622123
0.622435
0.622747
0.623059
0.623369
0.623679
0.623989
0.624297
0.624605
0.624913
0.625219
0.625525
0.625831
0.626135
0.626439
0.626742
0.627045
0.627347
0.627648
0.627948
0.628248
0.628547
0.628846
0.629144
0.629441
0.629737
0.630034
0.630329
0.630624
0.630919
0.631213
0.631506
0.631799
0.632092
0.632384
0.632676
0.632967
0.633258
0.633549
0.633839
0.634128
0.634417
0.634706
0.634994
0.635282
0.635569
0.635856
0.636142
0.636428
0.636713
0.636998
0.637282
0.637566
0.63785
0.638133
0.638416
0.638698
0.638981
0.639262
0.639544
0.639824
0.640106
0.640385
0.640668
0.640944
0.641229
0.641501
0.641791
0.642055
0.642354
0.642605
0.642921
0.64315
0.64349
0.643692
0.644059
0.64424
0.644681
0.0163227
0.0220194
0.031376
0.0452201
0.063238
0.0837198
0.105339
0.127
0.14788
0.167406
0.185294
0.201436
0.215895
0.228768
0.240199
0.250356
0.259395
0.267466
0.274706
0.281234
0.287148
0.292535
0.297466
0.302002
0.306196
0.310088
0.313717
0.317106
0.320285
0.323276
0.3261
0.328775
0.331316
0.333736
0.336046
0.338258
0.340378
0.342415
0.344375
0.346263
0.348085
0.349844
0.351544
0.353188
0.354778
0.356316
0.357805
0.359245
0.36064
0.361989
0.363294
0.364556
0.365776
0.366955
0.368093
0.369193
0.370255
0.37128
0.372269
0.373223
0.374144
0.375031
0.375887
0.376713
0.377509
0.378277
0.379018
0.379732
0.380422
0.381087
0.381729
0.38235
0.382949
0.383528
0.384088
0.384629
0.385153
0.38566
0.386151
0.386627
0.387089
0.387536
0.387971
0.388394
0.388805
0.389205
0.389595
0.389974
0.390345
0.390706
0.39106
0.391406
0.391745
0.392077
0.392403
0.392723
0.393037
0.393347
0.393651
0.393951
0.394247
0.394539
0.394827
0.395111
0.395392
0.39567
0.395946
0.396218
0.396487
0.396755
0.39702
0.397282
0.397543
0.397802
0.398059
0.398314
0.398568
0.39882
0.399072
0.399321
0.39957
0.399818
0.400065
0.40031
0.400556
0.4008
0.401044
0.401287
0.40153
0.401772
0.402014
0.402255
0.402496
0.402737
0.402977
0.403217
0.403457
0.403697
0.403937
0.404176
0.404415
0.404654
0.404893
0.405131
0.40537
0.405608
0.405846
0.406084
0.406322
0.40656
0.406798
0.407037
0.407275
0.407513
0.407751
0.40799
0.408229
0.408468
0.408707
0.408946
0.409185
0.409425
0.409665
0.409905
0.410145
0.410386
0.410627
0.410867
0.411108
0.411349
0.411591
0.411832
0.412073
0.412315
0.412556
0.412798
0.413039
0.413281
0.413523
0.413765
0.414007
0.414249
0.414491
0.414733
0.414976
0.415218
0.415461
0.415704
0.415947
0.41619
0.416433
0.416677
0.41692
0.417164
0.417408
0.417651
0.417895
0.418139
0.418383
0.418627
0.41887
0.419114
0.419358
0.419601
0.419844
0.420087
0.42033
0.420573
0.420816
0.421058
0.4213
0.421543
0.421785
0.422027
0.422268
0.42251
0.422752
0.422993
0.423234
0.423476
0.423717
0.423958
0.424199
0.424439
0.42468
0.42492
0.42516
0.4254
0.42564
0.425879
0.426118
0.426357
0.426595
0.426834
0.427071
0.427308
0.427545
0.427782
0.428018
0.428254
0.428489
0.428724
0.428959
0.429193
0.429427
0.429661
0.429894
0.430127
0.43036
0.430592
0.430825
0.431057
0.431288
0.431519
0.43175
0.431981
0.432211
0.432441
0.432671
0.4329
0.433129
0.433357
0.433585
0.433813
0.43404
0.434266
0.434493
0.434718
0.434943
0.435168
0.435392
0.435616
0.435839
0.436062
0.436285
0.436507
0.436729
0.43695
0.437171
0.437392
0.437613
0.437833
0.438053
0.438272
0.438491
0.43871
0.438929
0.439147
0.439365
0.439583
0.4398
0.440017
0.440233
0.440449
0.440664
0.44088
0.441094
0.441309
0.441522
0.441736
0.441948
0.442162
0.442372
0.442586
0.442794
0.44301
0.443215
0.443432
0.443633
0.443855
0.444048
0.444278
0.444461
0.444703
0.44487
0.445129
0.445277
0.445553
0.445689
0.446023
0.00160046
0.00195352
0.00244184
0.0031954
0.00440133
0.00615248
0.0085238
0.0115632
0.0152814
0.0196318
0.0245382
0.0299099
0.0356526
0.0416743
0.0478874
0.0542165
0.060592
0.0669589
0.0732698
0.07949
0.0855911
0.0915535
0.0973621
0.103008
0.108484
0.11379
0.118921
0.123886
0.128685
0.13332
0.137794
0.142109
0.146271
0.15028
0.154141
0.157856
0.16143
0.164867
0.16817
0.171341
0.174386
0.177307
0.180107
0.18279
0.185359
0.187818
0.190169
0.192415
0.194561
0.196609
0.198562
0.200424
0.202197
0.203884
0.205489
0.207014
0.208463
0.209838
0.211144
0.212381
0.213554
0.214666
0.215718
0.216715
0.217659
0.218551
0.219396
0.220195
0.22095
0.221665
0.222341
0.222981
0.223586
0.224158
0.224699
0.225211
0.225695
0.226154
0.226588
0.226999
0.227387
0.227756
0.228105
0.228435
0.228748
0.229045
0.229327
0.229594
0.229848
0.230089
0.230319
0.230538
0.230746
0.230946
0.231137
0.231319
0.231494
0.231662
0.231824
0.23198
0.23213
0.232274
0.232414
0.23255
0.232681
0.232808
0.232932
0.233053
0.233171
0.233285
0.233397
0.233507
0.233614
0.233719
0.233822
0.233924
0.234024
0.234122
0.234218
0.234314
0.234408
0.234501
0.234593
0.234684
0.234775
0.234865
0.234954
0.235043
0.235131
0.235219
0.235306
0.235394
0.235481
0.235569
0.235656
0.235743
0.235831
0.235918
0.236006
0.236094
0.236182
0.23627
0.236359
0.236448
0.236537
0.236626
0.236716
0.236806
0.236896
0.236986
0.237077
0.237168
0.23726
0.237352
0.237444
0.237537
0.23763
0.237724
0.237818
0.237913
0.238009
0.238105
0.238202
0.2383
0.238398
0.238497
0.238597
0.238698
0.238799
0.238901
0.239004
0.239107
0.239211
0.239316
0.239422
0.239528
0.239635
0.239742
0.23985
0.239959
0.240068
0.240177
0.240288
0.240399
0.24051
0.240623
0.240736
0.240849
0.240963
0.241078
0.241194
0.24131
0.241428
0.241545
0.241664
0.241783
0.241903
0.242024
0.242146
0.242268
0.242391
0.242514
0.242638
0.242763
0.242888
0.243014
0.24314
0.243266
0.243393
0.243521
0.243649
0.243777
0.243906
0.244035
0.244164
0.244294
0.244424
0.244555
0.244686
0.244818
0.24495
0.245082
0.245215
0.245348
0.245482
0.245616
0.24575
0.245885
0.246021
0.246156
0.246292
0.246429
0.246565
0.246702
0.246839
0.246977
0.247114
0.247252
0.24739
0.247527
0.247665
0.247803
0.247941
0.24808
0.248218
0.248356
0.248494
0.248632
0.248771
0.248909
0.249048
0.249186
0.249325
0.249464
0.249603
0.249742
0.249881
0.250021
0.25016
0.2503
0.250439
0.250579
0.250718
0.250858
0.250997
0.251137
0.251276
0.251416
0.251555
0.251694
0.251833
0.251971
0.25211
0.252248
0.252386
0.252524
0.252662
0.252799
0.252936
0.253074
0.253211
0.253348
0.253484
0.253621
0.253758
0.253894
0.254031
0.254167
0.254303
0.25444
0.254575
0.254712
0.254847
0.254984
0.255118
0.255255
0.255389
0.255525
0.255658
0.255794
0.255926
0.256063
0.256193
0.256331
0.256458
0.256597
0.256722
0.256864
0.256984
0.257129
0.257244
0.257395
0.257502
0.25766
0.257759
0.257926
0.258015
0.258189
0.258274
0.258485
0.000108064
0.00012504
0.000145164
0.000170057
0.000204634
0.000254014
0.000325558
0.000428777
0.000575498
0.000778476
0.00105048
0.00140475
0.00185266
0.00240557
0.00307065
0.00385519
0.00476317
0.00579689
0.00695582
0.00823832
0.00964007
0.0111564
0.01278
0.014504
0.0163191
0.0182162
0.020185
0.0222158
0.0242984
0.0264225
0.028578
0.0307553
0.0329447
0.0351369
0.0373229
0.0394949
0.0416452
0.0437668
0.0458535
0.0478998
0.0499011
0.051853
0.053752
0.055595
0.0573797
0.0591042
0.0607672
0.0623679
0.0639058
0.065381
0.0667937
0.0681443
0.0694337
0.0706627
0.0718327
0.0729449
0.0740008
0.0750023
0.0759509
0.0768485
0.077697
0.0784983
0.0792543
0.0799669
0.0806378
0.0812694
0.0818634
0.0824217
0.0829461
0.0834386
0.0839007
0.084334
0.0847403
0.0851209
0.0854774
0.0858112
0.0861235
0.0864158
0.0866891
0.0869448
0.0871836
0.0874069
0.0876152
0.0878096
0.0879913
0.088161
0.0883193
0.088467
0.0886048
0.0887331
0.0888525
0.0889636
0.0890668
0.0891627
0.0892518
0.0893344
0.0894111
0.0894823
0.0895482
0.0896094
0.0896661
0.0897185
0.0897671
0.0898121
0.0898537
0.0898923
0.0899281
0.0899613
0.089992
0.0900204
0.0900468
0.0900712
0.0900938
0.0901148
0.0901342
0.0901523
0.0901691
0.0901847
0.0901991
0.0902126
0.0902252
0.0902369
0.0902478
0.090258
0.0902676
0.0902767
0.0902853
0.0902935
0.0903013
0.0903089
0.0903162
0.0903233
0.0903304
0.0903373
0.0903443
0.0903513
0.0903584
0.0903655
0.0903729
0.0903803
0.090388
0.0903958
0.0904038
0.0904121
0.0904206
0.0904294
0.0904384
0.0904477
0.0904572
0.090467
0.0904771
0.0904874
0.090498
0.0905089
0.0905202
0.0905318
0.0905437
0.090556
0.0905686
0.0905817
0.0905952
0.0906091
0.0906235
0.0906384
0.0906538
0.0906698
0.0906862
0.0907032
0.0907208
0.0907389
0.0907575
0.0907767
0.0907964
0.0908166
0.0908374
0.0908587
0.0908805
0.0909028
0.0909256
0.0909488
0.0909725
0.0909967
0.0910213
0.0910464
0.0910719
0.0910979
0.0911244
0.0911513
0.0911787
0.0912066
0.091235
0.091264
0.0912934
0.0913234
0.0913539
0.091385
0.0914166
0.0914488
0.0914815
0.0915148
0.0915485
0.0915829
0.0916177
0.091653
0.0916888
0.0917251
0.0917618
0.091799
0.0918365
0.0918745
0.0919128
0.0919515
0.0919906
0.09203
0.0920698
0.09211
0.0921504
0.0921913
0.0922324
0.092274
0.0923158
0.0923581
0.0924007
0.0924437
0.0924871
0.0925308
0.0925749
0.0926195
0.0926643
0.0927096
0.0927552
0.0928012
0.0928475
0.0928941
0.092941
0.0929882
0.0930357
0.0930834
0.0931313
0.0931795
0.0932278
0.0932764
0.0933251
0.093374
0.093423
0.0934722
0.0935215
0.0935709
0.0936205
0.0936703
0.0937202
0.0937703
0.0938205
0.0938709
0.0939214
0.0939722
0.0940231
0.0940742
0.0941255
0.0941769
0.0942285
0.0942803
0.0943322
0.0943843
0.0944365
0.0944888
0.0945412
0.0945937
0.0946462
0.0946988
0.0947513
0.0948041
0.0948566
0.0949093
0.0949618
0.0950146
0.0950669
0.0951197
0.095172
0.0952248
0.0952769
0.0953298
0.0953818
0.0954348
0.0954867
0.0955399
0.0955917
0.0956452
0.0956968
0.0957505
0.0958019
0.0958561
0.0959072
0.0959618
0.0960124
0.0960676
0.0961176
0.0961734
0.0962226
0.0962791
0.0963273
0.0963847
0.0964315
0.09649
0.0965353
0.096595
0.0966385
0.0966997
0.0967412
0.096804
0.0968433
0.0969078
0.0969451
0.0970112
0.0970466
0.0971141
0.0971482
0.0972164
0.09725
0.0973336
0.000105447
0.000122234
0.000139488
0.000161447
0.000190727
0.000234043
0.000296115
0.000387057
0.000517179
0.000699858
0.000946817
0.00127163
0.00168564
0.00220135
0.00282715
0.00357228
0.00444003
0.00543554
0.00655839
0.00780902
0.00918369
0.010679
0.0122881
0.0140046
0.015819
0.0177231
0.0197068
0.0217603
0.0238733
0.0260355
0.0282366
0.030467
0.0327157
0.0349738
0.0372319
0.0394817
0.0417148
0.043924
0.0461028
0.0482454
0.0503465
0.0524015
0.0544065
0.0563583
0.0582542
0.0600922
0.0618707
0.0635885
0.0652451
0.0668404
0.0683743
0.0698472
0.0712598
0.0726129
0.0739076
0.075145
0.0763268
0.0774544
0.0785296
0.0795542
0.0805299
0.0814585
0.0823419
0.083182
0.0839806
0.0847397
0.0854612
0.086147
0.0867989
0.0874187
0.0880079
0.0885683
0.0891013
0.0896085
0.0900913
0.0905511
0.0909894
0.0914072
0.0918058
0.0921863
0.0925498
0.0928971
0.0932292
0.0935471
0.0938515
0.0941434
0.0944235
0.0946925
0.0949511
0.0951999
0.0954395
0.0956705
0.0958936
0.0961091
0.0963176
0.0965196
0.0967154
0.0969054
0.0970899
0.0972691
0.0974435
0.0976133
0.0977788
0.0979403
0.0980981
0.0982523
0.0984032
0.0985511
0.0986961
0.0988383
0.0989779
0.0991152
0.0992502
0.099383
0.0995138
0.0996428
0.09977
0.0998955
0.100019
0.100142
0.100263
0.100382
0.100501
0.100618
0.100734
0.100849
0.100963
0.101076
0.101188
0.101299
0.10141
0.10152
0.101629
0.101738
0.101846
0.101953
0.10206
0.102167
0.102273
0.102379
0.102484
0.102589
0.102694
0.102798
0.102902
0.103005
0.103108
0.103211
0.103313
0.103415
0.103516
0.103617
0.103718
0.103818
0.103918
0.104017
0.104116
0.104215
0.104313
0.104411
0.104509
0.104606
0.104704
0.104801
0.104897
0.104994
0.10509
0.105186
0.105282
0.105377
0.105472
0.105567
0.105662
0.105757
0.105851
0.105945
0.106038
0.106132
0.106225
0.106317
0.106409
0.106501
0.106593
0.106684
0.106775
0.106865
0.106955
0.107045
0.107134
0.107223
0.107312
0.107401
0.107489
0.107577
0.107665
0.107752