/*--------------------------------*- C++ -*----------------------------------*\
  =========                 |
  \\      /  F ield         | OpenFOAM: The Open Source CFD Toolbox
   \\    /   O peration     | Website:  https://openfoam.org
    \\  /    A nd           | Version:  7
     \\/     M anipulation  |
\*---------------------------------------------------------------------------*/
FoamFile
{
    version     2.0;
    format      ascii;
    class       volScalarField;
    location    "3.65";
    object      nut;
}
// * * * * * * * * * * * * * * * * * * * * * * * * * * * * * * * * * * * * * //

dimensions      [0 2 -1 0 0 0 0];

internalField   nonuniform List<scalar> 
4800
(
0.000180873
0.000418802
0.000675375
0.000898665
0.00108508
0.00123286
0.00134574
0.00142681
0.00148289
0.00151656
0.00153609
0.00153941
0.00153617
0.00152749
0.00151214
0.00149368
0.00147325
0.00145173
0.00142975
0.00140778
0.00138615
0.00136512
0.00134483
0.0013254
0.00130689
0.00128934
0.00127274
0.00125709
0.00124236
0.00122852
0.00121551
0.0012033
0.00119184
0.00118107
0.00117095
0.00116143
0.00115246
0.00114401
0.00113602
0.00112846
0.00112129
0.00111447
0.00110798
0.00110179
0.00109587
0.0010902
0.00108476
0.00107953
0.00107449
0.00106963
0.00106492
0.00106037
0.00105595
0.00105166
0.00104749
0.00104343
0.00103947
0.00103562
0.00103186
0.00102818
0.00102458
0.00102106
0.00101762
0.00101424
0.00101092
0.00100766
0.00100448
0.00100132
0.000998272
0.000995178
0.00099228
0.00098918
0.000986509
0.000983255
0.000980944
0.000977292
0.00097531
0.000971259
0.000967805
0.000973174
9.69141e-06
3.47613e-05
7.8137e-05
0.000136039
0.000210668
0.000291656
0.0003728
0.000447518
0.000515449
0.000573761
0.000623724
0.000664829
0.000698056
0.000724903
0.000745927
0.000762139
0.000774367
0.000783446
0.000789958
0.000794553
0.000797571
0.000799533
0.00080056
0.000801118
0.0008011
0.000800966
0.00080067
0.000800276
0.000799872
0.000799504
0.000799191
0.000798958
0.000798798
0.00079873
0.000798748
0.000798811
0.000798946
0.00079914
0.000799379
0.000799652
0.000799951
0.000800266
0.000800592
0.000800916
0.000801239
0.000801547
0.000801847
0.000802128
0.000802385
0.000802621
0.000802832
0.000803014
0.000803171
0.000803293
0.00080339
0.000803452
0.000803488
0.000803483
0.00080346
0.000803415
0.000803325
0.000803232
0.000803086
0.000802953
0.000802755
0.00080259
0.000802337
0.000802149
0.000801841
0.000801642
0.000801281
0.000801081
0.000800676
0.000800472
0.000800025
0.000799825
0.000799291
0.000799061
0.000798098
0.000798757
6.65182e-06
6.8185e-06
8.08579e-06
1.21769e-05
2.02784e-05
3.2345e-05
4.86956e-05
6.87223e-05
9.08892e-05
0.000114133
0.000137554
0.00016066
0.000182733
0.000203589
0.000222905
0.000240642
0.000256693
0.000271157
0.000284043
0.000295504
0.0003056
0.000314493
0.000322272
0.000329082
0.000335023
0.000340202
0.000344729
0.000348679
0.000352149
0.000355197
0.000357906
0.000360311
0.000362488
0.000364452
0.000366273
0.00036795
0.000369549
0.000371055
0.000372534
0.000373956
0.000375391
0.00037679
0.00037823
0.000379649
0.000381129
0.000382592
0.000384134
0.000385658
0.000387274
0.000388865
0.000390563
0.000392226
0.000394007
0.000395738
0.000397599
0.000399389
0.000401326
0.00040317
0.000405177
0.000407065
0.000409134
0.000411051
0.00041318
0.000415123
0.000417307
0.000419259
0.000421493
0.000423442
0.000425729
0.000427665
0.000430007
0.000431916
0.000434323
0.000436193
0.000438685
0.000440506
0.000443124
0.000444893
0.000447752
0.000449622
6.65689e-06
6.65839e-06
6.66549e-06
6.69599e-06
6.8088e-06
7.14708e-06
7.97059e-06
9.5764e-06
1.2511e-05
1.57175e-05
2.07429e-05
2.55275e-05
3.15879e-05
3.73283e-05
4.38038e-05
4.98747e-05
5.63314e-05
6.23088e-05
6.84619e-05
7.40773e-05
7.9743e-05
8.48471e-05
8.9938e-05
9.44706e-05
9.89738e-05
0.000102935
0.000106873
0.000110299
0.000113725
0.000116672
0.000119651
0.000122178
0.000124771
0.000126936
0.000129201
0.00013106
0.000133057
0.00013466
0.000136434
0.000137828
0.000139427
0.000140653
0.000142113
0.000143202
0.000144555
0.000145531
0.0001468
0.000147686
0.000148894
0.000149711
0.000150881
0.000151647
0.000152793
0.000153523
0.000154659
0.000155355
0.000156489
0.000157169
0.00015831
0.000158976
0.000160134
0.000160787
0.000161963
0.000162613
0.000163817
0.000164468
0.000165704
0.000166363
0.000167637
0.000168306
0.000169621
0.000170303
0.000171658
0.000172363
0.000173772
0.000174512
0.000176006
0.000176804
0.00017847
0.000179408
6.65877e-06
6.65898e-06
6.66159e-06
6.66881e-06
6.68603e-06
6.70565e-06
6.74668e-06
6.7878e-06
6.87716e-06
6.97493e-06
7.19096e-06
7.41754e-06
7.8967e-06
8.31478e-06
9.15465e-06
9.76553e-06
1.09495e-05
1.17027e-05
1.31383e-05
1.39711e-05
1.55501e-05
1.64091e-05
1.80382e-05
1.88857e-05
2.04979e-05
2.13113e-05
2.28577e-05
2.3639e-05
2.50851e-05
2.58326e-05
2.71803e-05
2.78818e-05
2.91377e-05
2.97917e-05
3.09631e-05
3.1575e-05
3.2681e-05
3.32515e-05
3.42917e-05
3.48294e-05
3.58163e-05
3.63256e-05
3.72653e-05
3.77457e-05
3.86447e-05
3.90997e-05
3.99581e-05
4.03892e-05
4.12106e-05
4.16213e-05
4.24154e-05
4.28102e-05
4.35798e-05
4.39621e-05
4.47096e-05
4.50795e-05
4.58037e-05
4.61608e-05
4.68667e-05
4.72176e-05
4.79077e-05
4.82482e-05
4.89198e-05
4.92514e-05
4.9908e-05
5.0233e-05
5.08783e-05
5.12e-05
5.18405e-05
5.21608e-05
5.27982e-05
5.31159e-05
5.37482e-05
5.40639e-05
5.46959e-05
5.50148e-05
5.5661e-05
5.59933e-05
5.66903e-05
5.70611e-05
6.66009e-06
6.65975e-06
6.66156e-06
6.66734e-06
6.68186e-06
6.69815e-06
6.73332e-06
6.75907e-06
6.81281e-06
6.84571e-06
6.91294e-06
6.95025e-06
7.02586e-06
7.06582e-06
7.14674e-06
7.18868e-06
7.27393e-06
7.31806e-06
7.40835e-06
7.45545e-06
7.55227e-06
7.60302e-06
7.70756e-06
7.76246e-06
7.8754e-06
7.93457e-06
8.05589e-06
8.11919e-06
8.24824e-06
8.31523e-06
8.45138e-06
8.52177e-06
8.66422e-06
8.73758e-06
8.88559e-06
8.96158e-06
9.11474e-06
9.19318e-06
9.35109e-06
9.43182e-06
9.59396e-06
9.67672e-06
9.84277e-06
9.92729e-06
1.00966e-05
1.01826e-05
1.03545e-05
1.04415e-05
1.06154e-05
1.07033e-05
1.08792e-05
1.09684e-05
1.11469e-05
1.12373e-05
1.14183e-05
1.15097e-05
1.16924e-05
1.17846e-05
1.19685e-05
1.20612e-05
1.22461e-05
1.2339e-05
1.25243e-05
1.26174e-05
1.28028e-05
1.28961e-05
1.30822e-05
1.31761e-05
1.33638e-05
1.34588e-05
1.36488e-05
1.37447e-05
1.39359e-05
1.40319e-05
1.42241e-05
1.4321e-05
1.45161e-05
1.46158e-05
1.48207e-05
1.49271e-05
6.65988e-06
6.6598e-06
6.66169e-06
6.66749e-06
6.68201e-06
6.69831e-06
6.7335e-06
6.75927e-06
6.813e-06
6.84594e-06
6.91328e-06
6.95062e-06
7.02626e-06
7.06606e-06
7.14655e-06
7.18815e-06
7.27275e-06
7.31655e-06
7.40623e-06
7.453e-06
7.54918e-06
7.59963e-06
7.7035e-06
7.75808e-06
7.87034e-06
7.92924e-06
8.04979e-06
8.11279e-06
8.2412e-06
8.30796e-06
8.44362e-06
8.51377e-06
8.65578e-06
8.72896e-06
8.87675e-06
8.95273e-06
9.10575e-06
9.18401e-06
9.34132e-06
9.42162e-06
9.58278e-06
9.66491e-06
9.82951e-06
9.9133e-06
1.00812e-05
1.01668e-05
1.03382e-05
1.04254e-05
1.06002e-05
1.06889e-05
1.08662e-05
1.09556e-05
1.11342e-05
1.12242e-05
1.14037e-05
1.14941e-05
1.16746e-05
1.17655e-05
1.19471e-05
1.20385e-05
1.22209e-05
1.23127e-05
1.24959e-05
1.25881e-05
1.27722e-05
1.28645e-05
1.30484e-05
1.31402e-05
1.33226e-05
1.34133e-05
1.35939e-05
1.36838e-05
1.38637e-05
1.39539e-05
1.41348e-05
1.42254e-05
1.44086e-05
1.45006e-05
1.46901e-05
1.47867e-05
6.65828e-06
6.65919e-06
6.66199e-06
6.66921e-06
6.6865e-06
6.70609e-06
6.74692e-06
6.78753e-06
6.87569e-06
6.97177e-06
7.1851e-06
7.40764e-06
7.88127e-06
8.2928e-06
9.12555e-06
9.73077e-06
1.09118e-05
1.16609e-05
1.3095e-05
1.3923e-05
1.54985e-05
1.6353e-05
1.79794e-05
1.88243e-05
2.04361e-05
2.1248e-05
2.27954e-05
2.35751e-05
2.50246e-05
2.57728e-05
2.71218e-05
2.78204e-05
2.90793e-05
2.97296e-05
3.0908e-05
3.15191e-05
3.26215e-05
3.31924e-05
3.42362e-05
3.47717e-05
3.57579e-05
3.62622e-05
3.71979e-05
3.76755e-05
3.85698e-05
3.9022e-05
3.98825e-05
4.0318e-05
4.11453e-05
4.15631e-05
4.23593e-05
4.27553e-05
4.35228e-05
4.39029e-05
4.46452e-05
4.5013e-05
4.57318e-05
4.60866e-05
4.67849e-05
4.71283e-05
4.78078e-05
4.81433e-05
4.88081e-05
4.9138e-05
4.97907e-05
5.01127e-05
5.07471e-05
5.1059e-05
5.16769e-05
5.19812e-05
5.25857e-05
5.28845e-05
5.34806e-05
5.37763e-05
5.43705e-05
5.46653e-05
5.52656e-05
5.55658e-05
5.62015e-05
5.65298e-05
6.65601e-06
6.65869e-06
6.66586e-06
6.69489e-06
6.80329e-06
7.13141e-06
7.93708e-06
9.51943e-06
1.24338e-05
1.56241e-05
2.06614e-05
2.54088e-05
3.14838e-05
3.71879e-05
4.36746e-05
4.97328e-05
5.62159e-05
6.21849e-05
6.83533e-05
7.39534e-05
7.96272e-05
8.47192e-05
8.98218e-05
9.43463e-05
9.88592e-05
0.000102816
0.000106766
0.00011019
0.000113629
0.000116572
0.000119561
0.000122082
0.000124685
0.000126841
0.000129115
0.000130965
0.000132966
0.00013456
0.000136343
0.000137727
0.00013933
0.000140543
0.000142006
0.000143082
0.00014444
0.000145406
0.000146687
0.00014757
0.00014879
0.000149603
0.00015078
0.000151535
0.000152685
0.000153401
0.000154537
0.000155222
0.000156353
0.000157016
0.000158153
0.000158798
0.000159949
0.000160588
0.000161756
0.000162392
0.000163583
0.000164215
0.000165426
0.000166056
0.00016729
0.000167923
0.000169183
0.00016983
0.000171121
0.000171782
0.000173109
0.000173787
0.000175172
0.000175888
0.000177416
0.000178253
6.6509e-06
6.80492e-06
8.02381e-06
1.20484e-05
2.00936e-05
3.2123e-05
4.84562e-05
6.84744e-05
9.06471e-05
0.000113906
0.000137346
0.000160455
0.000182526
0.000203375
0.000222701
0.000240452
0.000256526
0.000271002
0.000283897
0.000295357
0.000305454
0.000314347
0.00032213
0.000328942
0.000334888
0.000340069
0.000344603
0.000348556
0.000352035
0.000355083
0.000357799
0.000360201
0.000362382
0.000364339
0.000366165
0.000367833
0.000369437
0.000370934
0.000372421
0.000373833
0.000375275
0.000376661
0.000378111
0.000379516
0.00038101
0.000382459
0.00038402
0.000385527
0.000387164
0.000388734
0.000390451
0.000392084
0.000393887
0.000395581
0.000397468
0.000399216
0.00040118
0.000402972
0.000405012
0.000406837
0.000408949
0.000410795
0.00041297
0.000414819
0.000417055
0.000418896
0.000421188
0.000423007
0.000425357
0.000427138
0.000429551
0.000431276
0.000433755
0.000435409
0.000437959
0.000439535
0.000442171
0.000443703
0.000446465
0.00044817
9.44956e-06
3.43298e-05
7.76387e-05
0.000135521
0.000210178
0.000291216
0.000372397
0.000447152
0.000515121
0.00057347
0.000623457
0.000664576
0.000697814
0.000724674
0.000745716
0.000761947
0.000774192
0.000783282
0.000789802
0.000794404
0.000797428
0.000799398
0.000800431
0.000800996
0.000800983
0.000800856
0.000800566
0.000800178
0.000799778
0.000799413
0.000799103
0.00079887
0.000798712
0.000798644
0.000798663
0.000798728
0.000798863
0.00079906
0.000799301
0.000799575
0.000799877
0.000800193
0.00080052
0.000800845
0.000801169
0.000801479
0.00080178
0.000802061
0.000802319
0.000802554
0.000802762
0.000802944
0.000803094
0.000803217
0.000803306
0.000803367
0.000803395
0.000803388
0.000803362
0.000803311
0.000803213
0.000803112
0.000802957
0.000802812
0.000802596
0.000802417
0.000802144
0.000801941
0.000801609
0.000801395
0.000801006
0.000800785
0.000800339
0.000800105
0.000799602
0.000799354
0.000798751
0.000798416
0.000797226
0.000797731
0.000180827
0.000418827
0.000675417
0.000898704
0.00108513
0.00123292
0.00134582
0.0014269
0.00148298
0.00151664
0.00153617
0.00153949
0.00153625
0.00152757
0.00151222
0.00149375
0.00147333
0.0014518
0.00142982
0.00140784
0.00138621
0.00136518
0.00134489
0.00132546
0.00130695
0.0012894
0.0012728
0.00125715
0.00124242
0.00122857
0.00121556
0.00120335
0.00119189
0.00118112
0.001171
0.00116148
0.00115252
0.00114406
0.00113608
0.00112852
0.00112135
0.00111454
0.00110805
0.00110186
0.00109594
0.00109028
0.00108484
0.00107961
0.00107458
0.00106972
0.00106502
0.00106047
0.00105606
0.00105179
0.00104763
0.00104358
0.00103965
0.00103581
0.00103207
0.00102842
0.00102485
0.00102136
0.00101795
0.00101461
0.00101135
0.00100815
0.00100502
0.00100194
0.000998943
0.000995975
0.000993122
0.000990217
0.000987551
0.000984623
0.000982215
0.000979089
0.000976845
0.00097352
0.000969689
0.000975332
0.00259554
0.00284569
0.00287928
0.00286659
0.00283993
0.0028131
0.0027898
0.00276857
0.00274882
0.00273042
0.00271332
0.00269746
0.00268273
0.00266904
0.00265632
0.00264449
0.00263349
0.00262327
0.00261374
0.00260487
0.00259658
0.00258883
0.00258159
0.00257481
0.00256846
0.00256251
0.00255692
0.00255169
0.00254677
0.00254216
0.00253784
0.00253378
0.00252997
0.0025264
0.00252306
0.00251992
0.00251699
0.00251424
0.00251167
0.00250927
0.00250704
0.00250495
0.00250301
0.00250121
0.00249955
0.00249801
0.00249659
0.00249529
0.0024941
0.00249302
0.00249203
0.00249115
0.00249036
0.00248966
0.00248904
0.0024885
0.00248805
0.00248766
0.00248735
0.0024871
0.00248692
0.0024868
0.00248674
0.00248675
0.00248679
0.00248688
0.00248703
0.00248722
0.00248745
0.00248772
0.00248803
0.00248838
0.00248876
0.00248917
0.00248961
0.00249009
0.00249058
0.00249111
0.00249166
0.00249223
0.00249282
0.00249343
0.00249406
0.00249471
0.00249537
0.00249605
0.00249674
0.00249745
0.00249817
0.0024989
0.00249965
0.0025004
0.00250116
0.00250193
0.00250271
0.00250349
0.00250428
0.00250508
0.00250588
0.00250669
0.00250751
0.00250833
0.00250915
0.00250997
0.0025108
0.00251164
0.00251247
0.00251331
0.00251415
0.00251499
0.00251584
0.00251668
0.00251753
0.00251838
0.00251923
0.00252008
0.00252093
0.00252178
0.00252263
0.00252348
0.00252433
0.00252518
0.00252603
0.00252688
0.00252773
0.00252858
0.00252943
0.00253028
0.00253112
0.00253197
0.00253281
0.00253365
0.00253449
0.00253533
0.00253617
0.00253701
0.00253784
0.00253867
0.00253951
0.00254034
0.00254116
0.00254199
0.00254281
0.00254363
0.00254445
0.00254527
0.00254609
0.0025469
0.00254771
0.00254852
0.00254932
0.00255013
0.00255093
0.00255172
0.00255252
0.00255331
0.0025541
0.00255489
0.00255567
0.00255645
0.00255723
0.002558
0.00255877
0.00255954
0.0025603
0.00256107
0.00256183
0.00256258
0.00256334
0.00256408
0.00256483
0.00256558
0.00256632
0.00256705
0.00256779
0.00256852
0.00256925
0.00256997
0.0025707
0.00257141
0.00257213
0.00257284
0.00257355
0.00257426
0.00257496
0.00257566
0.00257636
0.00257705
0.00257774
0.00257842
0.00257911
0.00257979
0.00258047
0.00258114
0.00258181
0.00258248
0.00258314
0.00258381
0.00258447
0.00258512
0.00258578
0.00258643
0.00258708
0.00258772
0.00258836
0.002589
0.00258964
0.00259028
0.00259091
0.00259154
0.00259217
0.00259279
0.00259341
0.00259403
0.00259465
0.00259526
0.00259587
0.00259648
0.00259709
0.00259769
0.0025983
0.0025989
0.00259949
0.00260009
0.00260068
0.00260127
0.00260186
0.00260245
0.00260303
0.00260362
0.0026042
0.00260477
0.00260535
0.00260593
0.0026065
0.00260707
0.00260764
0.00260821
0.00260878
0.00260934
0.00260991
0.00261047
0.00261103
0.00261159
0.00261215
0.0026127
0.00261325
0.00261381
0.00261436
0.00261491
0.00261546
0.002616
0.00261655
0.00261709
0.00261763
0.00261818
0.00261872
0.00261926
0.00261979
0.00262033
0.00262087
0.0026214
0.00262194
0.00262247
0.002623
0.00262354
0.00262407
0.0026246
0.00262513
0.00262565
0.00262618
0.00262671
0.00262723
0.00262776
0.00262828
0.00262881
0.00262933
0.00262985
0.00263038
0.0026309
0.00263142
0.00263194
0.00263246
0.00263297
0.00263349
0.00263401
0.00263453
0.00263504
0.00263556
0.00263608
0.00263659
0.00263711
0.00263762
0.00263814
0.00263865
0.00263916
0.00263968
0.00264019
0.0026407
0.00264122
0.00264173
0.00264224
0.00264276
0.00264327
0.00264378
0.0026443
0.0026448
0.00264532
0.00264582
0.00264635
0.00264684
0.00264739
0.00264784
0.00264843
0.00264884
0.00264949
0.00264982
0.00265056
0.0026508
0.00265169
0.00190163
0.00234735
0.00256156
0.00265308
0.00268498
0.00268445
0.00267816
0.00266449
0.00264901
0.00263397
0.00261984
0.00260685
0.00259498
0.00258417
0.00257434
0.0025654
0.00255722
0.00254972
0.00254283
0.00253648
0.00253061
0.00252518
0.00252014
0.00251548
0.00251115
0.00250714
0.00250343
0.00249999
0.00249681
0.00249386
0.00249114
0.00248864
0.00248633
0.0024842
0.00248226
0.00248047
0.00247885
0.00247736
0.00247602
0.0024748
0.00247371
0.00247274
0.00247187
0.00247111
0.00247044
0.00246987
0.00246939
0.00246899
0.00246866
0.00246842
0.00246824
0.00246813
0.00246809
0.00246811
0.00246817
0.00246829
0.00246847
0.0024687
0.00246897
0.00246928
0.00246963
0.00247002
0.00247045
0.00247091
0.00247139
0.00247191
0.00247245
0.00247302
0.00247362
0.00247424
0.00247487
0.00247553
0.0024762
0.0024769
0.0024776
0.00247833
0.00247906
0.00247981
0.00248057
0.00248135
0.00248213
0.00248292
0.00248372
0.00248453
0.00248535
0.00248618
0.00248701
0.00248784
0.00248869
0.00248953
0.00249039
0.00249124
0.0024921
0.00249297
0.00249383
0.0024947
0.00249557
0.00249645
0.00249732
0.0024982
0.00249908
0.00249996
0.00250084
0.00250173
0.00250261
0.00250349
0.00250438
0.00250526
0.00250615
0.00250703
0.00250791
0.0025088
0.00250968
0.00251057
0.00251145
0.00251233
0.00251322
0.0025141
0.00251498
0.00251586
0.00251674
0.00251762
0.00251849
0.00251937
0.00252024
0.00252112
0.00252199
0.00252286
0.00252373
0.0025246
0.00252546
0.00252633
0.00252719
0.00252805
0.00252891
0.00252977
0.00253062
0.00253148
0.00253233
0.00253318
0.00253403
0.00253487
0.00253572
0.00253656
0.0025374
0.00253823
0.00253907
0.0025399
0.00254073
0.00254156
0.00254239
0.00254321
0.00254404
0.00254486
0.00254567
0.00254649
0.0025473
0.00254811
0.00254892
0.00254972
0.00255052
0.00255132
0.00255212
0.00255291
0.0025537
0.00255449
0.00255527
0.00255605
0.00255683
0.00255761
0.00255838
0.00255915
0.00255992
0.00256068
0.00256145
0.00256221
0.00256296
0.00256372
0.00256447
0.00256522
0.00256596
0.0025667
0.00256744
0.00256818
0.00256891
0.00256964
0.00257037
0.0025711
0.00257182
0.00257254
0.00257325
0.00257397
0.00257468
0.00257538
0.00257609
0.00257679
0.00257749
0.00257819
0.00257888
0.00257957
0.00258026
0.00258094
0.00258162
0.0025823
0.00258298
0.00258366
0.00258433
0.002585
0.00258566
0.00258633
0.00258699
0.00258765
0.00258831
0.00258896
0.00258962
0.00259027
0.00259091
0.00259156
0.0025922
0.00259284
0.00259348
0.00259412
0.00259475
0.00259538
0.00259601
0.00259664
0.00259726
0.00259789
0.00259851
0.00259913
0.00259974
0.00260036
0.00260097
0.00260158
0.00260219
0.0026028
0.0026034
0.00260401
0.00260461
0.00260521
0.00260581
0.00260641
0.002607
0.0026076
0.00260819
0.00260878
0.00260937
0.00260996
0.00261054
0.00261113
0.00261171
0.00261229
0.00261287
0.00261345
0.00261403
0.0026146
0.00261518
0.00261575
0.00261632
0.00261689
0.00261746
0.00261803
0.0026186
0.00261916
0.00261973
0.00262029
0.00262085
0.00262142
0.00262198
0.00262254
0.0026231
0.00262365
0.00262421
0.00262477
0.00262532
0.00262588
0.00262643
0.00262698
0.00262754
0.00262809
0.00262864
0.00262919
0.00262974
0.00263029
0.00263083
0.00263138
0.00263193
0.00263247
0.00263302
0.00263356
0.0026341
0.00263465
0.00263519
0.00263573
0.00263627
0.00263681
0.00263735
0.00263789
0.00263843
0.00263897
0.00263951
0.00264005
0.00264058
0.00264112
0.00264166
0.0026422
0.00264273
0.00264327
0.0026438
0.00264435
0.00264486
0.00264543
0.00264591
0.00264652
0.00264695
0.00264763
0.00264799
0.00264873
0.00264905
0.0026499
0.000963074
0.00120538
0.00144103
0.00163918
0.00178957
0.00189418
0.00196631
0.00201476
0.00204679
0.00206772
0.00208127
0.00208996
0.00209551
0.00209901
0.00210118
0.00210248
0.00210322
0.00210365
0.00210387
0.002104
0.00210408
0.00210417
0.00210429
0.00210446
0.00210468
0.00210496
0.0021053
0.00210571
0.00210618
0.0021067
0.00210728
0.0021079
0.00210858
0.0021093
0.00211006
0.00211086
0.00211169
0.00211256
0.00211345
0.00211438
0.00211533
0.0021163
0.0021173
0.00211831
0.00211933
0.00212038
0.00212143
0.0021225
0.00212357
0.00212465
0.00212573
0.00212682
0.00212791
0.002129
0.00213009
0.00213118
0.00213227
0.00213335
0.00213443
0.0021355
0.00213657
0.00213763
0.00213868
0.00213973
0.00214076
0.00214179
0.00214282
0.00214383
0.00214483
0.00214583
0.00214682
0.0021478
0.00214877
0.00214973
0.00215068
0.00215163
0.00215256
0.00215349
0.00215441
0.00215532
0.00215623
0.00215712
0.00215802
0.0021589
0.00215978
0.00216065
0.00216151
0.00216237
0.00216323
0.00216408
0.00216492
0.00216576
0.0021666
0.00216743
0.00216826
0.00216908
0.0021699
0.00217071
0.00217153
0.00217233
0.00217314
0.00217394
0.00217474
0.00217553
0.00217633
0.00217712
0.0021779
0.00217869
0.00217947
0.00218025
0.00218102
0.00218179
0.00218257
0.00218334
0.0021841
0.00218487
0.00218563
0.00218639
0.00218715
0.00218791
0.00218867
0.00218942
0.00219018
0.00219093
0.00219168
0.00219243
0.00219318
0.00219392
0.00219467
0.00219541
0.00219615
0.0021969
0.00219763
0.00219837
0.00219911
0.00219985
0.00220058
0.00220131
0.00220204
0.00220277
0.0022035
0.00220423
0.00220495
0.00220568
0.0022064
0.00220712
0.00220785
0.00220856
0.00220928
0.00221
0.00221072
0.00221143
0.00221215
0.00221286
0.00221357
0.00221428
0.00221499
0.0022157
0.0022164
0.00221711
0.00221781
0.00221852
0.00221922
0.00221992
0.00222062
0.00222131
0.00222201
0.0022227
0.00222339
0.00222409
0.00222477
0.00222546
0.00222615
0.00222683
0.00222752
0.0022282
0.00222888
0.00222956
0.00223023
0.00223091
0.00223158
0.00223225
0.00223293
0.0022336
0.00223426
0.00223493
0.0022356
0.00223626
0.00223692
0.00223758
0.00223824
0.0022389
0.00223955
0.00224021
0.00224086
0.00224151
0.00224216
0.0022428
0.00224345
0.00224409
0.00224473
0.00224537
0.00224601
0.00224664
0.00224728
0.00224791
0.00224854
0.00224917
0.0022498
0.00225042
0.00225104
0.00225167
0.00225229
0.00225291
0.00225352
0.00225414
0.00225475
0.00225537
0.00225598
0.00225659
0.00225719
0.0022578
0.0022584
0.00225901
0.00225961
0.00226021
0.0022608
0.0022614
0.00226199
0.00226259
0.00226318
0.00226376
0.00226435
0.00226494
0.00226552
0.0022661
0.00226668
0.00226726
0.00226784
0.00226842
0.00226899
0.00226956
0.00227013
0.0022707
0.00227127
0.00227184
0.00227241
0.00227297
0.00227354
0.0022741
0.00227466
0.00227522
0.00227578
0.00227633
0.00227689
0.00227744
0.002278
0.00227855
0.0022791
0.00227965
0.00228019
0.00228074
0.00228128
0.00228183
0.00228237
0.00228291
0.00228345
0.00228399
0.00228452
0.00228506
0.00228559
0.00228613
0.00228666
0.00228719
0.00228772
0.00228825
0.00228878
0.00228931
0.00228983
0.00229036
0.00229089
0.00229141
0.00229193
0.00229246
0.00229298
0.0022935
0.00229402
0.00229454
0.00229505
0.00229557
0.00229609
0.0022966
0.00229711
0.00229763
0.00229814
0.00229865
0.00229916
0.00229967
0.00230018
0.00230069
0.00230119
0.0023017
0.0023022
0.00230271
0.00230321
0.00230372
0.00230422
0.00230473
0.00230522
0.00230574
0.00230621
0.00230675
0.0023072
0.00230777
0.00230818
0.00230879
0.00230915
0.00230981
0.00231013
0.00231092
0.000367713
0.000427087
0.000509815
0.000612039
0.000723773
0.000832775
0.00093413
0.00102569
0.0011068
0.0011776
0.00123892
0.00129176
0.00133732
0.00137661
0.00141058
0.0014401
0.00146586
0.0014885
0.00150851
0.00152633
0.00154229
0.00155669
0.00156976
0.00158168
0.00159262
0.00160271
0.00161207
0.00162075
0.00162885
0.00163644
0.00164357
0.0016503
0.00165667
0.0016627
0.00166845
0.00167393
0.00167917
0.00168419
0.001689
0.00169362
0.00169807
0.00170236
0.00170649
0.00171047
0.00171432
0.00171803
0.00172162
0.00172508
0.00172842
0.00173165
0.00173477
0.00173778
0.00174069
0.00174349
0.00174619
0.0017488
0.00175131
0.00175374
0.00175607
0.00175832
0.00176049
0.00176257
0.00176458
0.00176652
0.00176839
0.00177018
0.00177192
0.00177359
0.00177519
0.00177675
0.00177824
0.00177969
0.00178108
0.00178243
0.00178373
0.00178499
0.0017862
0.00178738
0.00178851
0.00178962
0.00179068
0.00179172
0.00179272
0.0017937
0.00179465
0.00179557
0.00179647
0.00179735
0.0017982
0.00179903
0.00179985
0.00180064
0.00180142
0.00180218
0.00180293
0.00180367
0.00180439
0.0018051
0.0018058
0.00180649
0.00180716
0.00180783
0.00180849
0.00180914
0.00180979
0.00181042
0.00181105
0.00181168
0.00181229
0.0018129
0.00181351
0.00181411
0.0018147
0.00181529
0.00181588
0.00181646
0.00181704
0.00181762
0.00181819
0.00181876
0.00181932
0.00181989
0.00182045
0.00182101
0.00182157
0.00182212
0.00182268
0.00182323
0.00182378
0.00182433
0.00182488
0.00182543
0.00182597
0.00182652
0.00182706
0.00182761
0.00182815
0.0018287
0.00182924
0.00182978
0.00183032
0.00183086
0.0018314
0.00183194
0.00183248
0.00183302
0.00183356
0.00183409
0.00183463
0.00183517
0.00183571
0.00183624
0.00183678
0.00183732
0.00183785
0.00183839
0.00183893
0.00183947
0.00184001
0.00184054
0.00184108
0.00184162
0.00184216
0.0018427
0.00184324
0.00184378
0.00184432
0.00184486
0.0018454
0.00184595
0.00184649
0.00184703
0.00184757
0.00184811
0.00184865
0.00184919
0.00184973
0.00185027
0.00185082
0.00185136
0.0018519
0.00185244
0.00185298
0.00185352
0.00185406
0.00185461
0.00185515
0.00185569
0.00185623
0.00185677
0.00185732
0.00185786
0.0018584
0.00185895
0.00185949
0.00186003
0.00186058
0.00186112
0.00186166
0.0018622
0.00186274
0.00186329
0.00186383
0.00186437
0.00186491
0.00186545
0.00186599
0.00186653
0.00186706
0.0018676
0.00186814
0.00186868
0.00186921
0.00186975
0.00187028
0.00187082
0.00187135
0.00187189
0.00187242
0.00187296
0.00187349
0.00187402
0.00187455
0.00187509
0.00187562
0.00187615
0.00187668
0.00187721
0.00187774
0.00187826
0.00187879
0.00187932
0.00187984
0.00188037
0.00188089
0.00188141
0.00188193
0.00188246
0.00188297
0.00188349
0.00188401
0.00188453
0.00188504
0.00188556
0.00188607
0.00188658
0.0018871
0.00188761
0.00188812
0.00188863
0.00188914
0.00188965
0.00189015
0.00189066
0.00189117
0.00189167
0.00189218
0.00189268
0.00189318
0.00189368
0.00189418
0.00189468
0.00189518
0.00189568
0.00189617
0.00189667
0.00189716
0.00189766
0.00189815
0.00189864
0.00189913
0.00189961
0.0019001
0.00190059
0.00190107
0.00190156
0.00190204
0.00190252
0.001903
0.00190348
0.00190396
0.00190444
0.00190492
0.0019054
0.00190587
0.00190635
0.00190682
0.0019073
0.00190777
0.00190824
0.00190871
0.00190919
0.00190965
0.00191012
0.00191059
0.00191106
0.00191152
0.00191199
0.00191245
0.00191291
0.00191337
0.00191383
0.00191429
0.00191475
0.0019152
0.00191567
0.00191611
0.00191658
0.00191701
0.00191749
0.00191791
0.00191841
0.0019188
0.00191933
0.00191969
0.00192024
0.00192056
0.00192116
0.00192145
0.00192217
0.000115143
0.000127211
0.000142224
0.000162696
0.000190944
0.000225756
0.000265724
0.000309494
0.000355791
0.000403267
0.000450852
0.000497761
0.000543449
0.000587554
0.000629831
0.000670161
0.000708469
0.000744762
0.000779069
0.000811465
0.00084203
0.000870865
0.000898067
0.000923739
0.000947976
0.000970879
0.000992529
0.00101304
0.00103247
0.0010509
0.00106839
0.00108499
0.00110076
0.00111574
0.00112998
0.00114352
0.00115639
0.00116864
0.00118029
0.00119136
0.0012019
0.00121193
0.00122146
0.00123052
0.00123914
0.00124733
0.00125511
0.00126251
0.00126953
0.00127619
0.00128251
0.00128851
0.0012942
0.00129959
0.00130469
0.00130952
0.0013141
0.00131843
0.00132252
0.00132639
0.00133005
0.00133351
0.00133677
0.00133986
0.00134277
0.00134552
0.00134812
0.00135057
0.00135289
0.00135507
0.00135714
0.00135909
0.00136093
0.00136267
0.00136431
0.00136587
0.00136733
0.00136872
0.00137004
0.00137128
0.00137245
0.00137356
0.00137461
0.00137561
0.00137655
0.00137744
0.00137829
0.00137909
0.00137985
0.00138058
0.00138127
0.00138192
0.00138255
0.00138315
0.00138372
0.00138427
0.00138479
0.00138529
0.00138578
0.00138624
0.00138669
0.00138712
0.00138754
0.00138794
0.00138833
0.00138871
0.00138908
0.00138944
0.00138979
0.00139014
0.00139047
0.0013908
0.00139112
0.00139143
0.00139174
0.00139204
0.00139233
0.00139263
0.00139291
0.0013932
0.00139348
0.00139375
0.00139403
0.0013943
0.00139457
0.00139483
0.0013951
0.00139536
0.00139562
0.00139588
0.00139614
0.0013964
0.00139666
0.00139692
0.00139718
0.00139744
0.0013977
0.00139796
0.00139822
0.00139848
0.00139874
0.001399
0.00139926
0.00139953
0.00139979
0.00140005
0.00140032
0.00140059
0.00140085
0.00140112
0.00140139
0.00140166
0.00140193
0.0014022
0.00140247
0.00140275
0.00140302
0.0014033
0.00140358
0.00140386
0.00140414
0.00140442
0.00140471
0.001405
0.00140529
0.00140558
0.00140587
0.00140617
0.00140647
0.00140677
0.00140707
0.00140737
0.00140768
0.00140799
0.0014083
0.00140861
0.00140893
0.00140924
0.00140956
0.00140988
0.0014102
0.00141052
0.00141085
0.00141117
0.0014115
0.00141183
0.00141216
0.00141249
0.00141283
0.00141316
0.0014135
0.00141384
0.00141419
0.00141453
0.00141488
0.00141523
0.00141558
0.00141593
0.00141629
0.00141665
0.001417
0.00141737
0.00141773
0.00141809
0.00141846
0.00141882
0.00141919
0.00141956
0.00141993
0.0014203
0.00142068
0.00142105
0.00142143
0.0014218
0.00142218
0.00142256
0.00142294
0.00142332
0.0014237
0.00142408
0.00142447
0.00142485
0.00142524
0.00142562
0.00142601
0.0014264
0.00142679
0.00142718
0.00142758
0.00142797
0.00142836
0.00142876
0.00142916
0.00142955
0.00142995
0.00143035
0.00143075
0.00143114
0.00143154
0.00143194
0.00143234
0.00143274
0.00143314
0.00143354
0.00143394
0.00143434
0.00143473
0.00143513
0.00143553
0.00143593
0.00143633
0.00143673
0.00143713
0.00143753
0.00143793
0.00143833
0.00143873
0.00143913
0.00143954
0.00143994
0.00144034
0.00144074
0.00144114
0.00144154
0.00144194
0.00144234
0.00144274
0.00144314
0.00144354
0.00144394
0.00144434
0.00144474
0.00144513
0.00144553
0.00144593
0.00144632
0.00144672
0.00144711
0.0014475
0.00144789
0.00144829
0.00144868
0.00144907
0.00144946
0.00144985
0.00145024
0.00145063
0.00145102
0.00145141
0.0014518
0.00145218
0.00145257
0.00145296
0.00145335
0.00145373
0.00145412
0.0014545
0.00145489
0.00145527
0.00145566
0.00145603
0.00145642
0.00145679
0.00145718
0.00145754
0.00145794
0.00145829
0.0014587
0.00145904
0.00145945
0.00145978
0.0014602
0.00146051
0.00146096
0.00146124
0.00146171
0.00146196
0.00146245
0.0014627
0.00146329
2.99195e-05
3.21838e-05
3.46771e-05
3.75328e-05
4.1172e-05
4.58715e-05
5.19311e-05
5.95976e-05
6.90455e-05
8.03038e-05
9.32839e-05
0.000107873
0.000123883
0.000141164
0.000159488
0.000178705
0.000198638
0.000219135
0.000240042
0.000261236
0.000282588
0.000304001
0.000325371
0.000346623
0.000367673
0.000388457
0.00040891
0.000428988
0.000448645
0.000467844
0.000486552
0.000504746
0.000522404
0.000539505
0.000556034
0.000571984
0.000587349
0.000602124
0.00061631
0.000629913
0.000642937
0.000655391
0.000667284
0.000678627
0.000689434
0.000699717
0.000709493