/*--------------------------------*- C++ -*----------------------------------*\
  =========                 |
  \\      /  F ield         | OpenFOAM: The Open Source CFD Toolbox
   \\    /   O peration     | Website:  https://openfoam.org
    \\  /    A nd           | Version:  7
     \\/     M anipulation  |
\*---------------------------------------------------------------------------*/
FoamFile
{
    version     2.0;
    format      ascii;
    class       volScalarField;
    location    "2.6375";
    object      pPrime2Mean;
}
// * * * * * * * * * * * * * * * * * * * * * * * * * * * * * * * * * * * * * //

dimensions      [2 -2 -4 0 0 0 0];

internalField   nonuniform List<scalar> 
7920
(
661640
660821
660832
659955
659902
658885
658715
657557
657253
655988
655568
654234
653719
652340
651746
650327
649661
648206
647492
646101
661600
660763
660749
659855
659798
658770
658596
657429
657123
655852
655431
654092
653576
652192
651596
650173
649506
648041
647334
645935
661601
660745
660732
659844
659785
658765
658598
657445
657147
655887
655471
654138
653626
652246
651651
650230
649560
648101
647375
645966
661601
660747
660733
659841
659781
658755
658581
657418
657117
655851
655434
654099
653587
652205
651612
650189
649522
648054
647335
645882
661603
660745
660729
659836
659773
658749
658576
657420
657123
655863
655449
654117
653607
652228
651637
650217
649547
648085
647351
645895
661601
660740
660722
659829
659767
658743
658570
657413
657114
655852
655438
654105
653594
652215
651624
650203
649535
648071
647340
645872
661601
660740
660722
659829
659767
658743
658570
657413
657114
655852
655438
654105
653594
652215
651624
650203
649535
648071
647341
645872
661603
660745
660729
659836
659773
658749
658577
657420
657123
655863
655449
654117
653607
652228
651637
650217
649546
648086
647350
645894
661601
660747
660733
659841
659781
658755
658581
657418
657117
655851
655434
654099
653587
652206
651612
650190
649522
648055
647335
645882
661601
660745
660732
659844
659785
658765
658598
657445
657147
655887
655471
654138
653625
652246
651651
650231
649559
648102
647373
645966
661600
660763
660749
659856
659798
658770
658596
657429
657123
655852
655431
654092
653576
652192
651596
650173
649505
648041
647333
645936
661640
660821
660832
659955
659902
658885
658715
657557
657253
655988
655568
654234
653719
652340
651746
650327
649661
648206
647491
646101
660988
659957
660183
659121
659279
658080
658113
656806
656707
655319
655093
653653
653318
651848
651417
649923
649402
647884
647296
645797
661025
659956
660182
659132
659299
658122
658169
656882
656792
655416
655196
653763
653429
651964
651533
650044
649522
648013
647428
645946
661024
659970
660203
659145
659308
658115
658152
656851
656756
655373
655151
653714
653380
651912
651480
649986
649463
647941
647354
645805
661043
659966
660183
659116
659278
658095
658142
656855
656770
655398
655182
653752
653422
651959
651530
650041
649515
648000
647406
645871
661041
659963
660182
659114
659280
658092
658136
656843
656754
655377
655158
653726
653395
651930
651501
650010
649487
647964
647373
645806
661048
659967
660184
659113
659277
658092
658137
656847
656760
655386
655168
653738
653408
651945
651517
650027
649503
647983
647387
645828
661048
659967
660184
659113
659277
658092
658137
656847
656760
655386
655168
653738
653408
651945
651517
650027
649503
647983
647386
645828
661041
659963
660182
659114
659280
658092
658136
656843
656754
655377
655158
653726
653395
651930
651501
650010
649487
647964
647373
645806
661043
659966
660183
659116
659278
658095
658142
656855
656770
655398
655182
653752
653422
651959
651530
650041
649515
648001
647405
645871
661024
659970
660203
659145
659308
658115
658152
656851
656756
655373
655151
653714
653380
651912
651480
649987
649462
647942
647354
645806
661025
659956
660182
659132
659299
658122
658169
656882
656792
655416
655196
653763
653429
651964
651534
650044
649521
648014
647426
645948
660988
659957
660183
659121
659279
658080
658113
656806
656707
655319
655094
653653
653318
651848
651417
649923
649402
647884
647295
645798
660891
659867
659985
658984
659122
658034
658059
656827
656709
655373
655139
653736
653401
651950
651526
650030
649524
647976
647428
645900
660914
659873
659988
658982
659113
658020
658046
656818
656708
655377
655149
653750
653417
651966
651541
650044
649534
647986
647433
645888
660916
659880
659993
658983
659110
658015
658042
656817
656708
655379
655151
653753
653422
651973
651548
650051
649541
647990
647432
645868
660928
659884
659996
658982
659103
658005
658030
656806
656700
655373
655147
653751
653422
651975
651552
650056
649547
647996
647435
645868
660929
659887
659998
658981
659101
658002
658029
656806
656700
655374
655148
653751
653422
651974
651552
650056
649547
647995
647434
645865
660933
659889
659999
658981
659100
658000
658026
656803
656698
655372
655147
653750
653421
651974
651553
650057
649548
647997
647435
645866
660933
659889
659999
658981
659100
658000
658026
656803
656698
655372
655147
653750
653421
651974
651553
650057
649548
647997
647435
645866
660929
659887
659998
658981
659101
658002
658029
656806
656700
655374
655148
653751
653422
651974
651552
650056
649547
647996
647434
645865
660928
659884
659996
658982
659103
658005
658030
656806
656700
655373
655147
653751
653422
651975
651552
650056
649546
647996
647435
645868
660916
659880
659993
658983
659110
658015
658042
656817
656708
655379
655151
653753
653422
651973
651548
650051
649540
647990
647431
645868
660914
659873
659988
658982
659113
658020
658046
656818
656708
655377
655149
653750
653417
651967
651541
650044
649534
647987
647431
645889
660891
659867
659985
658984
659122
658034
658059
656827
656709
655373
655139
653736
653401
651950
651526
650030
649523
647977
647426
645904
660891
659867
659985
658984
659122
658034
658059
656827
656709
655373
655139
653736
653401
651950
651526
650030
649524
647976
647428
645900
660914
659873
659988
658982
659113
658020
658046
656818
656708
655377
655149
653750
653417
651967
651541
650044
649534
647986
647433
645888
660916
659880
659994
658983
659110
658015
658042
656817
656708
655379
655151
653753
653422
651973
651548
650051
649541
647990
647432
645868
660928
659884
659996
658982
659103
658005
658030
656806
656700
655373
655147
653751
653422
651975
651552
650056
649547
647996
647436
645868
660929
659887
659998
658981
659101
658002
658029
656806
656700
655374
655148
653751
653422
651974
651552
650056
649547
647996
647434
645865
660934
659889
659999
658981
659100
658000
658026
656803
656698
655372
655147
653750
653422
651974
651553
650057
649548
647997
647435
645866
660934
659889
659999
658981
659100
658000
658026
656803
656698
655372
655147
653750
653422
651974
651553
650057
649548
647997
647435
645866
660929
659887
659998
658981
659101
658002
658029
656806
656700
655374
655148
653751
653422
651974
651552
650056
649547
647996
647434
645865
660928
659884
659996
658982
659103
658005
658030
656806
656700
655373
655147
653751
653422
651975
651552
650056
649547
647996
647435
645868
660916
659880
659994
658983
659110
658015
658042
656817
656708
655379
655151
653753
653422
651973
651548
650051
649541
647990
647431
645868
660914
659873
659988
658982
659113
658020
658046
656818
656708
655377
655149
653750
653417
651967
651541
650044
649534
647987
647431
645889
660891
659867
659985
658984
659122
658034
658059
656827
656709
655373
655139
653736
653401
651950
651526
650030
649523
647977
647426
645904
660988
659957
660183
659121
659279
658080
658113
656806
656707
655319
655094
653653
653318
651848
651417
649923
649402
647884
647297
645797
661026
659956
660182
659132
659299
658122
658169
656882
656792
655416
655196
653763
653430
651964
651534
650044
649522
648013
647428
645946
661025
659970
660203
659145
659309
658115
658152
656852
656756
655373
655151
653714
653380
651912
651480
649986
649463
647942
647354
645806
661043
659966
660184
659116
659278
658096
658142
656855
656770
655398
655182
653752
653422
651959
651530
650041
649515
648001
647406
645871
661041
659964
660182
659115
659280
658093
658136
656843
656754
655377
655158
653726
653395
651930
651501
650010
649487
647964
647373
645807
661048
659967
660184
659113
659277
658092
658137
656847
656760
655386
655169
653738
653408
651945
651517
650028
649503
647983
647387
645828
661048
659967
660184
659113
659277
658092
658137
656847
656760
655386
655169
653738
653408
651945
651517
650027
649503
647983
647387
645828
661041
659964
660182
659115
659280
658093
658136
656843
656754
655377
655158
653726
653395
651930
651501
650010
649487
647964
647373
645806
661043
659966
660184
659116
659278
658096
658142
656855
656770
655398
655182
653752
653422
651959
651530
650041
649515
648001
647405
645871
661025
659970
660203
659145
659309
658115
658152
656852
656756
655374
655151
653714
653380
651912
651480
649987
649463
647942
647354
645806
661026
659956
660182
659132
659299
658122
658169
656882
656792
655416
655196
653763
653430
651964
651534
650044
649521
648014
647426
645948
660988
659957
660183
659121
659279
658080
658113
656806
656707
655319
655094
653653
653318
651848
651417
649923
649402
647885
647295
645798
661640
660822
660832
659955
659903
658885
658715
657557
657253
655988
655568
654234
653719
652340
651746
650328
649661
648206
647492
646101
661600
660764
660750
659856
659798
658770
658596
657429
657124
655852
655431
654092
653576
652192
651596
650173
649506
648041
647334
645935
661601
660745
660732
659844
659785
658765
658599
657445
657148
655887
655471
654139
653626
652246
651652
650231
649560
648102
647375
645966
661601
660748
660733
659841
659782
658755
658581
657419
657117
655851
655434
654099
653587
652206
651612
650190
649523
648055
647335
645882
661604
660745
660729
659837
659774
658749
658577
657421
657123
655863
655449
654117
653607
652228
651637
650217
649547
648086
647351
645895
661602
660741
660723
659829
659768
658743
658571
657413
657114
655853
655438
654105
653595
652215
651624
650203
649535
648071
647340
645873
661602
660741
660723
659829
659768
658743
658571
657413
657114
655853
655438
654105
653595
652215
651624
650204
649535
648071
647341
645872
661604
660745
660729
659837
659774
658749
658577
657421
657123
655863
655449
654117
653607
652228
651637
650217
649547
648086
647351
645895
661601
660748
660733
659841
659782
658755
658581
657419
657117
655851
655435
654099
653587
652206
651612
650190
649522
648055
647336
645882
661601
660745
660732
659844
659785
658765
658599
657445
657148
655887
655471
654138
653626
652246
651652
650231
649559
648102
647373
645966
661600
660764
660750
659856
659798
658770
658596
657429
657123
655852
655431
654092
653576
652192
651596
650173
649506
648042
647334
645936
661640
660822
660832
659955
659903
658885
658715
657557
657253
655988
655568
654234
653719
652340
651746
650327
649661
648206
647492
646102
644214
637877
634793
628232
624549
617671
613484
606336
601695
594305
589247
581639
576198
568392
562600
554612
548496
540342
533927
525623
518932
510490
503546
494980
487804
479127
471739
462963
455382
446520
438766
429830
421922
412924
404881
395835
387676
378596
370341
361244
352916
343819
335431
326324
317857
308746
300254
291194
282712
273718
265271
256364
247974
239168
230854
222163
213943
205382
197275
188857
180882
172621
164798
156708
149058
141155
133698
126000
118760
111283
104283
97048.1
90317.4
83344.3
76912.1
70228.1
64126.6
57758.1
52029.4
46013.4
40697.7
35075.7
30234.9
25057.7
20748
16125.1
12469.7
8386
5414.58
2405.73
643850
637529
634459
627906
624231
617357
613175
606032
601396
594013
588961
581359
575925
568124
562338
554355
548245
540096
533686
525386
518700
510262
503322
494760
487588
478914
471530
462757
455180
446321
438570
429637
421733
412738
404698
395656
387500
378424
370172
361079
352754
343662
335277
326174
317711
308605
300117
291060
282582
273593
265150
256247
247861
239060
230749
222063
213847
205290
197188
188773
180803
172546
164727
156641
148994
141096
133642
125948
118711
111238
104242
97010
90282.4
83312.7
76883.3
70202.3
64103.5
57737.8
52011.5
45998.1
40684.5
35064.8
30225.7
25050.6
20742.3
16121
12466.7
8384.02
5412.63
2403.98
643830
637502
634412
627854
624172
617297
613110
605966
601325
593942
588886
581284
575847
568047
562260
554279
548168
540022
533612
525315
518630
510195
503257
494698
487527
478857
471475
462705
455130
446274
438526
429596
421694
412702
404664
395624
387469
378395
370145
361053
352729
343638
335254
326152
317690
308584
300096
291040
282562
273573
265131
256228
247842
239040
230729
222043
213827
205270
197166
188752
180781
172523
164704
156618
148971
141072
133618
125923
118686
111213
104217
96984.9
90257.5
83287.7
76858.8
70178
64079.7
57714.5
51989
45976.2
40663.7
35045
30207.3
25033.3
20726.8
16107
12454.8
8374.13
5405.47
2399.38
643750
637461
634380
627830
624154
617281
613097
605953
601316
593933
588881
581279
575845
568045
562259
554277
548167
540020
533611
525312
518627
510191
503253
494692
487521
478849
471466
462695
455120
446262
438513
429582
421679
412686
404647
395606
387452
378377
370126
361034
352711
343619
335236
326134
317671
308566
300079
291023
282546
273558
265116
256214
247828
239027
230718
222032
213817
205260
197158
188745
180775
172518
164700
156615
148968
141071
133618
125923
118687
111215
104219
96988.3
90261.4
83292.4
76863.8
70183.6
64085.6
57720.8
51995.4
45982.9
40670.3
35051.6
30213.7
25039.6
20732.6
16112.4
12459.5
8378.1
5407.93
2400.85
643766
637458
634358
627799
624119
617243
613055
605909
601267
593883
588827
581225
575788
567987
562199
554218
548106
539959
533549
525251
518565
510130
503191
494632
487461
478790
471408
462638
455063
446206
438458
429528
421625
412634
404596
395556
387402
378328
370078
360987
352664
343573
335190
326089
317626
308522
300035
290980
282503
273515
265073
256172
247787
238986
230677
221992
213777
205221
197119
188706
180736
172480
164662
156578
148932
141035
133582
125889
118653
111182
104187
96956.6
90230.7
83262.5
76835
70155.8
64059
57695.3
51971.2
45960
40648.9
35031.6
30195.3
25022.8
20717.7
16099.3
12448.4
8369.06
5401.44
2396.57
643746
637449
634355
627806
624130
617258
613072
605928
601290
593907
588854
581252
575817
568017
562230
554249
548138
539992
533582
525284
518599
510163
503224
494664
487493
478822
471439
462668
455093
446236
438487
429556
421653
412660
404622
395582
387427
378353
370102
361010
352687
343596
335212
326110
317648
308543
300056
291001
282523
273535
265093
256191
247806
239005
230695
222010
213795
205239
197137
188723
180754
172497
164679
156594
148948
141051
133598
125904
118669
111197
104202
96970.9
90244.6
83276
76848
70168.4
64071.1
57706.9
51982.2
45970.4
40658.6
35040.8
30203.7
25030.5
20724.5
16105.3
12453.4
8373.17
5404.18
2398.4
643753
637448
634348
627791
624111
617234
613046
605899
601258
593874
588819
581216
575780
567979
562191
554210
548098
539951
533541
525243
518557
510122
503183
494623
487452
478781
471398
462628
455053
446197
438448
429518
421615
412623
404586
395545
387391
378318
370068
360977
352654
343563
335180
326079
317617
308513
300026
290972
282495
273507
265066
256165
247780
238980
230671
221986
213771
205216
197114
188702
180732
172477
164659
156575
148929
141033
133581
125888
118652
111181
104187
96956.6
90230.9
83263
76835.7
70156.7
64060
57696.5
51972.5
45961.4
40650.4
35033.1
30196.9
25024.3
20719.1
16100.7
12449.7
8370.07
5402.1
2396.87
643760
637457
634361
627809
624133
617261
613075
605931
601292
593909
588855
581254
575818
568018
562231
554250
548139
539993
533583
525285
518600
510164
503226
494666
487495
478824
471441
462671
455096
446239
438490
429560
421657
412664
404626
395586
387431
378357
370107
361015
352691
343600
335217
326115
317652
308547
300060
291004
282527
273539
265096
256194
247809
239008
230698
222012
213797
205240
197138
188725
180754
172498
164679
156594
148948
141050
133597
125903
118668
111195
104200
96969.2
90242.7
83274
76846
70166.2
64068.8
57704.5
51979.9
45968.1
40656.4
35038.5
30201.6
25028.5
20722.6
16103.6
12452
8371.94
5403.4
2397.94
643757
637454
634365
627807
624126
617248
613061
605914
601274
593889
588835
581232
575796
567995
562208
554226
548115
539968
533558
525260
518575
510139
503200
494640
487469
478798
471415
462645
455070
446213
438465
429534
421631
412639
404601
395561
387407
378333
370083
360992
352669
343578
335195
326094
317633
308528
300042
290987
282510
273523
265082
256180
247796
238996
230687
222002
213787
205232
197130
188718
180748
172493
164675
156591
148945
141048
133596
125903
118668
111196
104201
96970.9
90244.9
83276.6
76849
70169.6
64072.4
57708.4
51983.9
45972.2
40660.5
35042.7
30205.7
25032.4
20726.4
16107.1
12455.1
8374.52
5405.48
2399.01
643820
637494
634407
627857
624180
617309
613123
605982
601343
593961
588907
581307
575871
568072
562285
554305
548195
540049
533639
525343
518657
510223
503285
494726
487555
478885
471502
462733
455158
446301
438553
429622
421719
412727
404689
395648
387494
378419
370168
361076
352752
343661
335277
326174
317711
308605
300117
291061
282582
273593
265150
256247
247860
239058
230747
222060
213844
205286
197182
188767
180796
172538
164718
156632
148984
141085
133631
125936
118698
111225
104228
96995.7
90267.9
83297.7
76868.3
70187.1
64088.4
57722.7
51996.8
45983.5
40670.5
35051.3
30213.1
25038.6
20731.4
16111.1
12458.2
8376.92
5407.41
2400.65
643854
637512
634431
627871
624191
617313
613127
605981
601342
593957
588903
581300
575864
568063
562276
554293
548182
540033
533623
525323
518637
510199
503260
494698
487526
478853
471469
462697
455120
446262
438512
429580
421676
412683
404644
395602
387447
378372
370121
361029
352705
343613
335229
326127
317665
308559
300072
291017
282539
273551
265109
256208
247822
239022
230712
222027
213812
205256
197154
188741
180771
172515
164697
156612
148966
141069
133616
125923
118687
111215
104220
96988.9
90262.3
83293.5
76865.2
70185.2
64087.4
57722.8
51997.5
45985.1
40672.6
35054
30216.1
25041.9
20734.9
16114.6
12461.5
8379.8
5409.66
2401.76
644201
637870
634799
628249
624574
617702
613519
606376
601737
594351
589295
581689
576250
568445
562654
554667
548552
540399
533985
525680
518990
510548
503604
495038
487862
479184
471796
463019
455438
446575
438821
429884
421975
412977
404933
395886
387726
378646
370390
361292
352963
343865
335476
326369
317900
308789
300297
291235
282752
273758
265310
256402
248011
239204
230889
222198
213977
205415
197307
188888
180912
172650
164826
156736
149084
141181
133723
126024
118782
111305
104304
97068.2
90336.6
83362.5
76929.4
70244.4
64141.9
57772.4
52042.8
46025.8
40709.1
35086.1
30244.2
25066.1
20755.3
16131.5
12475
8390.3
5417.7
2407.8
644112
637627
634805
628148
624618
617673
613582
606384
601807
594378
589365
581723
576315
568478
562710
554695
548595
540418
534015
525689
519007
510546
503608
495026
487854
479162
471777
462989
455411
446538
438787
429842
421937
412932
404891
395840
387683
378599
370347
361247
352922
343823
335438
326330
317866
308754
300266
291204
282726
273732
265289
256382
247995
239190
230879
222190
213973
205413
197310
188892
180921
172661
164841
156752
149105
141203
133749
126051
118814
111337
104340
97104.2
90375.9
83401.6
76971.4
70285.4
64185.4
57814
52086
46065.9
40749.8
35122.3
30279.3
25095
20780.6
16148.9
12485.9
8390.81
5406.9
2393.56
644491
637973
635145
628488
624957
618015
613925
606728
602151
594720
589705
582061
576650
568810
563037
555019
548915
540734
534326
525996
519309
510844
503901
495314
488138
479442
472052
463259
455677
446799
439044
430094
422184
413175
405130
396073
387912
378824
370567
361462
353132
344029
335639
326526
318057
308940
300447
291381
282897
273898
265450
256538
248147
239337
231021
222326
214105
205540
197432
189009
181033
172768
164944
156850
149198
141292
133833
126130
118889
111407
104406
97166.1
90433.7
83455.2
77021
70330.9
64227.1
57851.7
52120.1
46096.2
40776.7
35145.6
30299.5
25111.8
20794.4
16159.8
12494.2
8396.61
5410.79
2396.19
644200
637796
634974
628323
624795
617851
613761
606564
601987
594559
589546
581903
576494
568657
562887
554871
548770
540591
534185
525858
519173
510711
503770
495186
488011
479317
471930
463139
455558
446683
438929
429981
422073
413065
405022
395968
387809
378722
370467
361364
353036
343935
335548
326436
317970
308856
300364
291300
282819
273823
265377
256468
248079
239271
230958
222266
214047
205484
197378
188958
180985
172722
164900
156809
149159
141255
133799
126098
118859
111380
104381
97142.6
90412
83435.6
77003.1
70314.9
64212.8
57839.2
52109.1
46086.9
40768.7
35139.1
30294.1
25107.8
20791.5
16158
12493.2
8396.36
5410.95
2396.19
644378
637934
635108
628454
624923
617979
613888
606690
602112
594682
589667
582023
576612
568772
563000
554982
548879
540698
534290
525961
519274
510810
503867
495281
488105
479409
472020
463228
455646
446769
439014
430064
422155
413146
405101
396046
387885
378797
370540
361436
353107
344004
335615
326502
318033
308917
300425
291359
282876
273878
265430
256519
248128
239318
231003
222309
214089
205524
197417
188995
181019
172755
164931
156838
149187
141281
133823
126121
118879
111399
104398
97158.4
90426.5
83448.4
77014.8
70325.1
64221.8
57846.9
52115.8
46092.4
40773.2
35142.6
30296.8
25109.6
20792.6
16158.4
12493.1
8395.84
5410.61
2395.86
644226
637836
635013
628367
624843
617900
613810
606612
602036
594608
589596
581953
576544
568705
562935
554918
548817
540637
534231
525903
519218
510755
503813
495228
488053
479358
471970
463178
455597
446721
438967
430018
422110
413101
405057
396002
387842
378755
370500
361396
353068
343965
335577
326465
317998
308883
300391
291326
282844
273847
265401
256490
248100
239292
230978
222285
214065
205502
197395
188975
181000
172737
164914
156822
149172
141267
133810
126109
118868
111388
104389
97150.1
90419
83441.9
77008.9
70320.1
64217.4
57843.3
52112.7
46090
40771.4
35141.4
30296
25109.2
20792.6
16158.7
12493.6
8396.56
5411.15
2396.22
644293
637879
635050
628401
624872
617928
613835
606636
602058
594628
589613
581969
576559
568719
562947
554930
548827
540647
534240
525911
519225
510761
503819
495233
488058
479363
471974
463182
455601
446724
438970
430021
422112
413104
405060
396005
387845
378757
370501
361397
353069
343967
335578
326466
317999
308883
300391
291326
282844
273847
265400
256490
248100
239291
230976
222283
214064
205500
197393
188972
180998
172734
164911
156819
149168
141263
133806
126105
118864
111384
104385
97145.9
90414.7
83437.5
77004.6
70315.7
64213.2
57839
52108.6
46085.9
40767.4
35137.5
30292.4
25105.7
20789.4
16155.8
12491
8394.32
5409.57
2395.06
644285
637885
635065
628420
624897
617956
613866
606670
602094
594666
589654
582011
576602
568763
562992
554975
548873
540693
534286
525957
519271
510807
503866
495280
488104
479408
472020
463227
455646
446768
439013
430064
422155
413146
405101
396045
387885
378796
370540
361436
353107
344004
335615
326502
318034
308918
300425
291359
282877
273879
265431
256520
248129
239320
231005
222311
214091
205526
197419
188997
181022
172758
164934
156841
149190
141284
133826
126124
118883
111403
104402
97162.5
90430.7
83452.7
77019
70329.4
64226
57851.1
52119.9
46096.4
40777.1
35146.4
30300.4
25113
20795.7
16161.3
12495.6
8398.05
5412.34
2396.98
644234
637828
634996
628348
624820
617875
613782
606582
602004
594574
589560
581916
576506
568667
562896
554879
548776
540597
534191
525862
519177
510714
503773
495188
488013
479318
471930
463139
455559
446683
438929
429981
422073
413065
405021
395967
387808
378721
370466
361363
353035
343933
335546
326434
317967
308853
300362
291298
282816
273820
265374
256464
248075
239267
230953
222261
214042
205479
197373
188953
180979
172716
164894
156803
149153
141249
133792
126092
118852
111373
104374
97135.8
90405.4
83428.9
76996.6
70308.4
64206.4
57832.9
52103.1
46081
40763.1
35133.8
30289.2
25103.1
20787.2
16154
12489.7
8393.41
5408.85
2394.57
644368
637936
635120
628474
624950
618010
613922
606727
602152
594725
589712
582070
576660
568821
563050
555033
548930
540750
534343
526013
519327
510862
503920
495333
488157
479461
472072
463279
455697
446819
439063
430113
422203
413194
405149
396092
387931
378842
370585
361480
353150
344046
335656
326543
318074
308957
300463
291397
282913
273914
265466
256554
248162
239352
231036
222341
214120
205554
197446
189024
181048
172782
164958
156864
149212
141305
133846
126143
118901
111420
104418
97177.7
90445
83466.1
77031.6
70341.1
64236.9
57861
52129
46104.7
40784.6
35153
30306.3
25118.1
20800.1
16164.9
12498.5
8400.25
5413.91
2398.08
644207
637782
634952
628298
624767
617821
613728
606528
601950
594520
589505
581862
576452
568614
562843
554827
548725
540546
534141
525813
519129
510666
503726
495142
487967
479274
471887
463096
455516
446641
438888
429941
422033
413026
404983
395930
387771
378685
370431
361328
353001
343901
335514
326403
317937
308824
300333
291270
282789
273794
265348
256440
248051
239244
230931
222240
214022
205460
197355
188936
180963
172701
164879
156789
149140
141237
133781
126081
118842
111364
104365
97127.9
90398.1
83422.3
76990.6
70303.1
64201.6
57828.7
52099.4
46077.9
40760.4
35131.6
30287.4
25101.7
20786.2
16153.4
12489.4
8393.31
5408.72
2394.54
644474
637964
635150
628503
624980
618042
613957
606763
602189
594762
589749
582107
576697
568858
563088
555070
548967
540786
534379
526049
519363
510897
503955
495368
488191
479495
472105
463312
455729
446851
439095
430144
422234
413224
405178
396121
387960
378870
370613
361507
353177
344072
335682
326568
318098
308981
300487
291420
282936
273936
265487
256575
248182
239371
231055
222359
214137
205571
197463
189039
181063
172796
164972
156877
149224
141317
133858
126154
118911
111429
104427
97186.3
90453.1
83473.6
77038.6
70347.5
64242.9
57866.5
52134.1
46109.2
40788.8
35156.7
30309.6
25120.9
20802.5
16166.9
12500.1
8401.47
5414.51
2398.61
644110
637603
634770
628107
624574
617626
613533
606333
601754
594323
589309
581666
576257
568420
562651
554636
548536
540359
533955
525630
518948
510488
503550
494968
487797
479106
471721
462934
455356
446484
438734
429790
421885
412881
404841
395790
387634
378551
370300
361201
352876
343778
335394
326287
317823
308713
300225
291165
282687
273694
265251
256345
247960
239155
230845
222156
213941
205381
197279
188862
180892
172632
164814
156726
149079
141178
133725
126028
118791
111315
104319
97084.6
90357.2
83383.8
76954.5
70269.5
64170.4
57799.9
52072.9
46053.8
40738.6
35112.1
30270.1
25086.7
20773.4
16142.7
12480.8
8386.78
5403.94
2391.36
644415
638257
635453
628920
625434
618529
614493
607295
602767
595316
590341
582666
577285
569412
563661
555609
549518
541305
534904
526544
519860
511367
504425
495812
488634
479915
472523
463709
456124
447228
439468
430502
422588
413564
405515
396445
388280
379179
370919
361803
353470
344356
335964
326841
318369
309243
300746
291672
283185
274178
265727
256808
248413
239596
231277
222576
214351
205780
197669
189240
181261
172989
165162
157062
149407
141494
134032
126323
119077
111589
104584
97336.9
90600
83613.9
77174.7
70476.3
64367
57982.6
52245.1
46211.3
40885.5
35243.5
30391.2
25191.4
20868.3
16220.1
12549.5
8435.25
5444.96
2411.36
644398
638249
635443
628910
625425
618520
614484
607286
602759
595307
590333
582659
577278
569405
563653
555602
549511
541298
534897
526537
519854
511361
504419
495807
488628
479910
472517
463704
456118
447222
439463
430497
422583
413559
405510
396441
388276
379175
370915
361799
353466
344352
335960
326837
318365
309239
300743
291668
283181
274175
265724
256805
248410
239593
231274
222573
214349
205777
197666
189238
181259
172987
165160
157060
149405
141493
134031
126321
119076
111588
104583
97335.8
90599
83612.9
77173.8
70475.5
64366.3
57981.9
52244.5
46210.8
40885.1
35243.1
30390.9
25191.1
20868.1
16219.8
12549.3
8435.11
5444.85
2411.21
644376
638246
635443
628912
625427
618521
614485
607286
602759
595308
590334
582659
577278
569405
563654
555602
549512
541298
534898
526538
519854
511361
504419
495807
488629
479910
472518
463704
456119
447223
439464
430498
422584
413560
405511
396441
388277
379176
370916
361799
353467
344353
335961
326838
318366
309240
300743
291669
283182
274176
265724
256805
248411
239594
231275
222574
214349
205778
197667
189238
181259
172988
165160
157061
149405
141493
134031
126322
119076
111588
104583
97335.9
90599
83613
77173.9
70475.5
64366.2
57981.9
52244.4
46210.7
40885
35243
30390.8
25191
20868
16219.8
12549.3
8435.06
5444.83
2411.05
644378
638237
635431
628903
625420
618514
614477
607278
602751
595300
590326
582652
577271
569398
563646
555595
549504
541291
534891
526531
519847
511354
504412
495800
488622
479903
472511
463698
456112
447216
439457
430491
422578
413553
405505
396435
388270
379169
370909
361794
353461
344347
335955
326832
318360
309235
300738
291664
283177
274171
265720
256801
248406
239589
231270
222569
214345
205774
197663
189234
181255
172984
165157
157057
149402
141490
134028
126319
119074
111586
104581
97333.7
90596.9
83611
77172
70473.8
64364.7
57980.4
52243.1
46209.5
40883.9
35242
30389.9
25190.2
20867.3
16219.2
12548.8
8434.71
5444.55
2410.89
644372
638236
635433
628906
625424
618519
614482
607282
602755
595304
590330
582656
577275
569402
563650
555599
549508
541295
534894
526534
519851
511358
504415
495804
488625
479907
472514
463701
456115
447220
439460
430494
422581
413556
405507
396438
388273
379172
370912
361796
353463
344350
335957
326835
318363
309237
300740
291666
283179
274173
265722
256803
248408
239591
231272
222571
214347
205775
197664
189236
181257
172986
165158
157059
149403
141491
134029
126320
119075
111587
104582
97334.5
90597.7
83611.7
77172.7
70474.4
64365.2
57980.9
52243.6
46209.9
40884.3
35242.3
30390.2
25190.5
20867.6
16219.4
12549
8434.85
5444.67
2410.91
644375
638233
635428
628902
625422
618517
614480
607280
602752
595301
590327
582653
577272
569399
563648
555596
549506
541292
534892
526532
519848
511356
504413
495801
488623
479905
472512
463699
456113
447218
439458
430492
422579
413554
405506
396436
388271
379171
370911
361795
353462
344348
335956
326833
318361
309236
300739
291665
283178
274171
265720
256801
248407
239590
231271
222570
214346
205774
197663
189235
181256
172985
165158
157058
149403
141490
134028
126319
119074
111586
104581
97334
90597.2