/*--------------------------------*- C++ -*----------------------------------*\
  =========                 |
  \\      /  F ield         | OpenFOAM: The Open Source CFD Toolbox
   \\    /   O peration     | Website:  https://openfoam.org
    \\  /    A nd           | Version:  7
     \\/     M anipulation  |
\*---------------------------------------------------------------------------*/
FoamFile
{
    version     2.0;
    format      ascii;
    class       volScalarField;
    location    "2.73";
    object      T;
}
// * * * * * * * * * * * * * * * * * * * * * * * * * * * * * * * * * * * * * //

dimensions      [0 0 0 1 0 0 0];

internalField   nonuniform List<scalar> 
7920
(
282.871
282.989
282.989
283.038
283.013
283.046
283.026
283.051
283.036
283.055
283.043
283.058
283.049
283.059
283.054
283.058
283.061
283.051
283.084
282.999
282.791
282.844
282.86
282.925
282.918
282.956
282.95
282.975
282.974
282.991
282.99
283.001
283.002
283.005
283.012
283.001
283.03
282.976
283.097
282.834
282.731
282.741
282.679
282.748
282.707
282.765
282.737
282.786
282.77
282.811
282.802
282.833
282.831
282.848
282.857
282.851
282.886
282.834
282.937
282.776
282.754
282.758
282.695
282.745
282.708
282.751
282.73
282.768
282.759
282.792
282.793
282.817
282.826
282.84
282.857
282.855
282.882
282.858
282.904
282.851
282.734
282.745
282.658
282.714
282.658
282.706
282.67
282.711
282.69
282.727
282.717
282.748
282.746
282.771
282.774
282.791
282.798
282.807
282.814
282.818
282.739
282.762
282.675
282.735
282.677
282.726
282.687
282.729
282.704
282.741
282.728
282.76
282.754
282.781
282.78
282.802
282.802
282.819
282.817
282.834
282.739
282.762
282.675
282.735
282.677
282.726
282.687
282.729
282.704
282.741
282.727
282.76
282.754
282.781
282.779
282.802
282.802
282.82
282.817
282.834
282.734
282.745
282.658
282.714
282.658
282.706
282.669
282.712
282.69
282.727
282.716
282.749
282.745
282.773
282.772
282.794
282.794
282.811
282.81
282.821
282.754
282.758
282.695
282.745
282.708
282.751
282.73
282.768
282.759
282.793
282.792
282.819
282.824
282.844
282.85
282.864
282.869
282.876
282.88
282.88
282.731
282.741
282.679
282.748
282.707
282.765
282.737
282.787
282.769
282.812
282.801
282.835
282.827
282.854
282.847
282.867
282.861
282.875
282.871
282.879
282.791
282.844
282.86
282.925
282.918
282.956
282.95
282.975
282.974
282.992
282.989
283.002
283
283.009
283.006
283.012
283.01
283.015
283.013
283.017
282.871
282.989
282.989
283.038
283.013
283.046
283.026
283.051
283.036
283.056
283.043
283.058
283.048
283.06
283.052
283.061
283.055
283.063
283.058
283.067
283.227
283.212
283.291
283.248
283.302
283.258
283.3
283.264
283.297
283.267
283.293
283.268
283.288
283.265
283.285
283.258
283.287
283.234
283.341
283.029
283.178
283.14
283.186
283.163
283.197
283.181
283.204
283.195
283.21
283.204
283.218
283.209
283.223
283.206
283.226
283.19
283.242
283.143
283.312
282.984
283.226
283.165
283.238
283.188
283.244
283.206
283.252
283.223
283.261
283.238
283.269
283.247
283.275
283.248
283.277
283.234
283.283
283.198
283.307
283.133
283.197
283.128
283.182
283.131
283.171
283.134
283.165
283.14
283.166
283.149
283.171
283.158
283.175
283.162
283.176
283.156
283.175
283.141
283.17
283.119
283.221
283.143
283.214
283.148
283.199
283.149
283.189
283.153
283.186
283.16
283.187
283.168
283.19
283.173
283.19
283.172
283.183
283.163
283.169
283.149
283.213
283.124
283.196
283.124
283.176
283.122
283.162
283.124
283.156
283.129
283.155
283.135
283.155
283.139
283.153
283.138
283.146
283.131
283.131
283.115
283.213
283.124
283.196
283.124
283.176
283.122
283.162
283.124
283.156
283.129
283.155
283.135
283.155
283.139
283.153
283.139
283.146
283.131
283.131
283.115
283.221
283.143
283.214
283.148
283.199
283.149
283.189
283.153
283.186
283.161
283.187
283.169
283.189
283.174
283.188
283.174
283.181
283.165
283.167
283.151
283.197
283.128
283.182
283.131
283.171
283.134
283.165
283.14
283.166
283.15
283.169
283.16
283.172
283.166
283.171
283.164
283.164
283.156
283.152
283.142
283.226
283.165
283.238
283.188
283.244
283.207
283.252
283.224
283.26
283.239
283.267
283.25
283.27
283.255
283.267
283.251
283.256
283.24
283.243
283.226
283.178
283.14
283.186
283.163
283.197
283.181
283.204
283.195
283.21
283.205
283.217
283.211
283.219
283.212
283.216
283.209
283.209
283.203
283.202
283.196
283.227
283.212
283.291
283.248
283.302
283.258
283.3
283.264
283.297
283.268
283.293
283.269
283.287
283.267
283.281
283.265
283.274
283.262
283.268
283.254
283.151
283.146
283.153
283.152
283.163
283.165
283.177
283.177
283.185
283.181
283.188
283.181
283.19
283.176
283.198
283.157
283.235
283.075
283.418
282.676
283.149
283.14
283.14
283.136
283.141
283.143
283.152
283.158
283.171
283.174
283.189
283.183
283.205
283.177
283.22
283.15
283.252
283.088
283.327
282.976
283.151
283.141
283.143
283.137
283.141
283.14
283.149
283.152
283.165
283.169
283.184
283.184
283.202
283.193
283.215
283.188
283.222
283.172
283.225
283.15
283.15
283.14
283.14
283.133
283.134
283.132
283.137
283.139
283.147
283.151
283.161
283.165
283.174
283.176
283.183
283.179
283.183
283.176
283.173
283.168
283.151
283.141
283.142
283.135
283.137
283.134
283.139
283.14
283.148
283.152
283.16
283.164
283.171
283.175
283.178
283.179
283.177
283.176
283.167
283.169
283.151
283.14
283.141
283.133
283.135
283.131
283.135
283.136
283.143
283.146
283.154
283.158
283.164
283.167
283.17
283.17
283.168
283.166
283.159
283.157
283.151
283.14
283.141
283.133
283.135
283.131
283.135
283.136
283.143
283.146
283.154
283.158
283.164
283.167
283.17
283.17
283.169
283.166
283.16
283.155
283.151
283.141
283.142
283.135
283.137
283.134
283.139
283.14
283.148
283.152
283.16
283.164
283.171
283.174
283.178
283.178
283.178
283.175
283.17
283.164
283.15
283.14
283.14
283.133
283.134
283.132
283.137
283.139
283.146
283.152
283.16
283.166
283.173
283.177
283.181
283.181
283.181
283.177
283.173
283.166
283.151
283.141
283.143
283.137
283.141
283.141
283.148
283.153
283.163
283.171
283.181
283.188
283.197
283.201
283.204
283.203
283.202
283.197
283.194
283.187
283.149
283.14
283.14
283.137
283.141
283.143
283.152
283.159
283.169
283.176
283.185
283.19
283.194
283.194
283.194
283.191
283.188
283.185
283.183
283.183
283.151
283.146
283.153
283.152
283.163
283.165
283.177
283.177
283.184
283.182
283.186
283.184
283.186
283.183
283.185
283.182
283.184
283.182
283.183
283.184
283.151
283.146
283.153
283.152
283.163
283.165
283.177
283.177
283.185
283.181
283.188
283.181
283.19
283.176
283.198
283.157
283.235
283.075
283.418
282.676
283.149
283.14
283.14
283.136
283.141
283.143
283.152
283.158
283.171
283.174
283.189
283.183
283.205
283.177
283.22
283.15
283.252
283.088
283.327
282.976
283.151
283.141
283.143
283.137
283.141
283.14
283.149
283.152
283.165
283.169
283.184
283.184
283.202
283.193
283.215
283.188
283.222
283.172
283.225
283.15
283.15
283.14
283.14
283.133
283.134
283.132
283.137
283.139
283.147
283.151
283.161
283.165
283.174
283.176
283.183
283.179
283.183
283.176
283.173
283.168
283.151
283.141
283.142
283.135
283.137
283.134
283.139
283.14
283.148
283.152
283.16
283.164
283.171
283.175
283.178
283.179
283.177
283.176
283.167
283.169
283.151
283.14
283.141
283.133
283.135
283.131
283.135
283.136
283.143
283.146
283.154
283.158
283.164
283.167
283.17
283.17
283.168
283.166
283.159
283.157
283.151
283.14
283.141
283.133
283.135
283.131
283.135
283.136
283.143
283.146
283.154
283.158
283.164
283.167
283.17
283.17
283.169
283.166
283.16
283.155
283.151
283.141
283.142
283.135
283.137
283.134
283.139
283.14
283.148
283.152
283.16
283.164
283.171
283.174
283.178
283.178
283.178
283.175
283.17
283.164
283.15
283.14
283.14
283.133
283.134
283.132
283.137
283.139
283.146
283.152
283.16
283.166
283.173
283.177
283.181
283.181
283.181
283.177
283.173
283.166
283.151
283.141
283.143
283.137
283.141
283.141
283.148
283.153
283.163
283.171
283.181
283.188
283.197
283.201
283.204
283.203
283.202
283.197
283.194
283.187
283.149
283.14
283.14
283.137
283.141
283.143
283.152
283.159
283.169
283.176
283.185
283.19
283.194
283.194
283.194
283.191
283.188
283.185
283.183
283.182
283.151
283.146
283.153
283.152
283.163
283.165
283.177
283.177
283.184
283.182
283.186
283.184
283.186
283.183
283.185
283.182
283.184
283.182
283.183
283.184
283.227
283.212
283.291
283.248
283.302
283.258
283.3
283.264
283.297
283.267
283.293
283.268
283.288
283.265
283.285
283.258
283.287
283.234
283.341
283.029
283.178
283.14
283.186
283.163
283.197
283.181
283.204
283.195
283.21
283.204
283.218
283.209
283.223
283.206
283.226
283.19
283.242
283.143
283.312
282.984
283.226
283.165
283.238
283.188
283.244
283.206
283.252
283.223
283.261
283.238
283.269
283.247
283.275
283.248
283.277
283.234
283.283
283.198
283.307
283.133
283.197
283.128
283.182
283.131
283.171
283.134
283.165
283.14
283.166
283.149
283.171
283.158
283.175
283.162
283.176
283.156
283.175
283.141
283.17
283.119
283.221
283.143
283.214
283.148
283.199
283.149
283.189
283.153
283.186
283.16
283.187
283.168
283.19
283.173
283.19
283.172
283.183
283.163
283.169
283.149
283.213
283.124
283.196
283.124
283.176
283.122
283.162
283.124
283.156
283.129
283.155
283.135
283.155
283.139
283.153
283.138
283.146
283.131
283.131
283.115
283.213
283.124
283.196
283.124
283.176
283.122
283.162
283.124
283.156
283.129
283.155
283.135
283.155
283.139
283.153
283.139
283.146
283.131
283.131
283.115
283.221
283.143
283.214
283.148
283.199
283.149
283.189
283.153
283.186
283.161
283.187
283.169
283.189
283.174
283.188
283.174
283.181
283.165
283.167
283.151
283.197
283.128
283.182
283.131
283.171
283.134
283.165
283.14
283.166
283.15
283.169
283.16
283.172
283.166
283.171
283.164
283.164
283.156
283.152
283.142
283.226
283.165
283.238
283.188
283.244
283.207
283.252
283.224
283.26
283.239
283.267
283.25
283.27
283.255
283.267
283.251
283.256
283.24
283.243
283.226
283.178
283.14
283.186
283.163
283.197
283.181
283.204
283.195
283.21
283.205
283.217
283.211
283.219
283.212
283.216
283.209
283.209
283.203
283.202
283.196
283.227
283.212
283.291
283.248
283.302
283.258
283.3
283.264
283.297
283.268
283.293
283.269
283.287
283.267
283.281
283.265
283.274
283.262
283.268
283.254
282.871
282.989
282.989
283.038
283.013
283.046
283.026
283.051
283.036
283.055
283.043
283.058
283.049
283.059
283.054
283.058
283.061
283.051
283.084
282.999
282.791
282.844
282.86
282.925
282.918
282.956
282.95
282.975
282.974
282.991
282.99
283.001
283.002
283.005
283.012
283.001
283.03
282.976
283.097
282.834
282.731
282.741
282.679
282.748
282.707
282.765
282.737
282.786
282.77
282.811
282.802
282.833
282.831
282.848
282.857
282.851
282.886
282.834
282.937
282.776
282.754
282.758
282.695
282.745
282.708
282.751
282.73
282.768
282.759
282.792
282.793
282.817
282.826
282.84
282.857
282.855
282.882
282.858
282.904
282.851
282.734
282.745
282.658
282.714
282.658
282.706
282.67
282.711
282.69
282.727
282.717
282.748
282.746
282.771
282.774
282.791
282.798
282.807
282.814
282.818
282.739
282.762
282.675
282.735
282.677
282.726
282.687
282.729
282.704
282.741
282.728
282.76
282.754
282.781
282.78
282.802
282.802
282.819
282.817
282.834
282.739
282.762
282.675
282.735
282.677
282.726
282.687
282.729
282.704
282.741
282.727
282.76
282.754
282.781
282.779
282.802
282.802
282.82
282.817
282.834
282.734
282.745
282.658
282.714
282.658
282.706
282.669
282.712
282.69
282.727
282.716
282.749
282.745
282.773
282.772
282.794
282.794
282.811
282.81
282.821
282.754
282.758
282.695
282.745
282.708
282.751
282.73
282.768
282.759
282.793
282.792
282.819
282.824
282.844
282.85
282.864
282.869
282.876
282.88
282.88
282.731
282.741
282.679
282.748
282.707
282.765
282.737
282.787
282.769
282.812
282.801
282.835
282.827
282.854
282.847
282.867
282.861
282.875
282.871
282.879
282.791
282.844
282.86
282.925
282.918
282.956
282.95
282.975
282.974
282.992
282.989
283.002
283
283.009
283.006
283.012
283.01
283.015
283.013
283.017
282.871
282.989
282.989
283.038
283.013
283.046
283.026
283.051
283.036
283.056
283.043
283.058
283.048
283.06
283.052
283.061
283.055
283.063
283.058
283.067
285.019
286.555
287.579
288.409
289.084
289.692
290.226
290.727
291.182
291.613
292.011
292.394
292.755
293.105
293.438
293.76
294.067
294.365
294.65
294.928
295.195
295.453
295.7
295.937
296.163
296.379
296.584
296.778
296.959
297.128
297.284
297.428
297.559
297.678
297.785
297.879
297.961
298.033
298.094
298.146
298.19
298.225
298.254
298.276
298.293
298.306
298.315
298.322
298.326
298.329
298.33
298.331
298.332
298.332
298.333
298.333
298.333
298.333
298.333
298.333
298.333
298.333
298.333
298.333
298.333
298.333
298.333
298.333
298.333
298.333
298.333
298.333
298.333
298.333
298.333
298.333
298.333
298.333
298.333
298.333
298.332
298.333
298.332
298.332
298.331
298.332
298.329
298.33
298.326
298.323
284.187
285.591
286.579
287.385
288.049
288.644
289.171
289.665
290.117
290.544
290.939
291.318
291.676
292.023
292.355
292.675
292.981
293.277
293.561
293.837
294.103
294.361
294.607
294.844
295.07
295.286
295.491
295.685
295.868
296.038
296.196
296.341
296.475
296.596
296.704
296.801
296.886
296.96
297.023
297.077
297.123
297.16
297.191
297.215
297.233
297.247
297.257
297.264
297.269
297.272
297.274
297.275
297.276
297.276
297.277
297.277
297.277
297.277
297.277
297.277
297.276
297.276
297.276
297.276
297.276
297.276
297.276
297.276
297.276
297.276
297.276
297.276
297.276
297.276
297.276
297.276
297.276
297.276
297.276
297.276
297.276
297.276
297.275
297.276
297.275
297.275
297.273
297.274
297.269
297.266
283.346
284.373
285.213
285.95
286.567
287.129
287.627
288.1
288.535
288.952
289.337
289.706
290.054
290.393
290.718
291.033
291.333
291.624
291.903
292.174
292.436
292.69
292.934
293.168
293.393
293.607
293.812
294.007
294.19
294.362
294.522
294.671
294.807
294.932
295.045
295.146
295.236
295.315
295.383
295.441
295.491
295.532
295.567
295.594
295.616
295.632
295.645
295.654
295.66
295.664
295.667
295.668
295.669
295.67
295.67
295.67
295.67
295.67
295.67
295.67
295.67
295.67
295.669
295.669
295.669
295.669
295.669
295.669
295.669
295.669
295.669
295.669
295.669
295.669
295.669
295.669
295.669
295.669
295.668
295.668
295.668
295.668
295.667
295.667
295.666
295.667
295.664
295.666
295.659
295.654
283.004
283.587
284.196
284.79
285.317
285.805
286.248
286.674
287.075
287.462
287.825
288.171
288.499
288.818
289.126
289.427
289.716
289.994
290.262
290.522
290.774
291.019
291.255
291.482
291.7
291.909
292.109
292.301
292.482
292.653
292.813
292.962
293.1
293.227
293.343
293.448
293.542
293.625
293.697
293.76
293.814
293.86
293.898
293.929
293.955
293.974
293.989
294
294.008
294.013
294.017
294.019
294.02
294.021
294.021
294.022
294.022
294.022
294.021
294.021
294.021
294.021
294.021
294.021
294.021
294.021
294.021
294.021
294.021
294.021
294.02
294.02
294.02
294.02
294.02
294.02
294.02
294.02
294.02
294.02
294.019
294.019
294.019
294.019
294.018
294.019
294.016
294.018
294.013
294.008
282.835
283.132
283.509
283.951
284.361
284.761
285.129
285.494
285.844
286.192
286.519
286.834
287.132
287.424
287.708
287.988
288.257
288.517
288.767
289.009
289.245
289.476
289.699
289.914
290.12
290.318
290.508
290.691
290.866
291.031
291.186
291.331
291.466
291.592
291.707
291.812
291.907
291.992
292.066
292.131
292.187
292.236
292.277
292.311
292.338
292.36
292.377
292.39
292.399
292.406
292.41
292.413
292.414
292.415
292.416
292.416
292.416
292.416
292.416
292.416
292.416
292.416
292.415
292.415
292.415
292.415
292.415
292.415
292.415
292.415
292.415
292.415
292.414
292.414
292.414
292.414
292.414
292.414
292.414
292.414
292.413
292.413
292.413
292.413
292.412
292.412
292.41
292.411
292.407
292.402
282.823
282.968
283.18
283.483
283.778
284.079
284.365
284.655
284.945
285.239
285.521
285.794
286.053
286.309
286.56
286.81
287.052
287.285
287.51
287.728
287.941
288.15
288.354
288.55
288.738
288.919
289.094
289.262
289.424
289.577
289.722
289.858
289.985
290.103
290.213
290.314
290.405
290.487
290.559
290.623
290.678
290.726
290.767
290.802
290.83
290.853
290.871
290.884
290.894
290.901
290.906
290.909
290.911
290.912
290.912
290.912
290.913
290.912
290.912
290.912
290.912
290.912
290.912
290.912
290.912
290.912
290.912
290.912
290.911
290.911
290.911
290.911
290.911
290.911
290.911
290.911
290.911
290.911
290.911
290.911
290.91
290.91
290.91
290.91
290.91
290.91
290.909
290.909
290.908
290.905
282.827
282.909
283.022
283.221
283.419
283.634
283.843
284.063
284.293
284.531
284.763
284.989
285.205
285.42
285.635
285.848
286.057
286.259
286.453
286.642
286.827
287.01
287.187
287.359
287.524
287.683
287.836
287.985
288.128
288.264
288.393
288.514
288.628
288.734
288.833
288.925
289.008
289.082
289.149
289.207
289.259
289.303
289.342
289.374
289.401
289.423
289.44
289.453
289.462
289.469
289.473
289.476
289.478
289.479
289.48
289.48
289.48
289.48
289.48
289.48
289.48
289.48
289.48
289.48
289.48
289.48
289.48
289.479
289.479
289.479
289.479
289.479
289.479
289.479
289.479
289.479
289.479
289.479
289.479
289.479
289.479
289.479
289.478
289.478
289.478
289.478
289.477
289.477
289.477
289.477
282.828
282.887
282.95
283.078
283.204
283.35
283.493
283.658
283.83
284.016
284.197
284.376
284.547
284.721
284.895
285.07
285.24
285.406
285.565
285.721
285.874
286.025
286.172
286.315
286.451
286.583
286.711
286.836
286.955
287.069
287.177
287.279
287.374
287.464
287.548
287.625
287.696
287.76
287.816
287.866
287.91
287.949
287.982
288.01
288.033
288.052
288.067
288.078
288.086
288.092
288.096
288.098
288.1
288.101
288.101
288.102
288.102
288.102
288.102
288.102
288.102
288.102
288.102
288.102
288.101
288.101
288.101
288.101
288.101
288.101
288.101
288.101
288.101
288.101
288.101
288.101
288.101
288.101
288.101
288.101
288.101
288.101
288.1
288.1
288.099
288.099
288.099
288.098
288.098
288.099
282.898
282.937
282.976
283.052
283.127
283.217
283.31
283.422
283.544
283.677
283.808
283.937
284.064
284.193
284.323
284.455
284.583
284.707
284.827
284.946
285.062
285.178
285.29
285.398
285.503
285.604
285.702
285.797
285.889
285.976
286.059
286.137
286.211
286.28
286.345
286.404
286.459
286.508
286.552
286.59
286.624
286.654
286.68
286.701
286.719
286.734
286.745
286.754
286.76
286.764
286.767
286.769
286.771
286.771
286.772
286.772
286.772
286.772
286.772
286.772
286.772
286.772
286.772
286.772
286.772
286.772
286.772
286.772
286.772
286.772
286.772
286.772
286.772
286.772
286.772
286.772
286.772
286.772
286.772
286.772
286.772
286.772
286.772
286.772
286.772
286.772
286.772
286.77
286.773
286.775
282.899
282.939
282.959
283.01
283.05
283.107
283.161
283.235
283.312
283.399
283.481
283.566
283.648
283.734
283.82
283.907
283.992
284.074
284.154
284.233
284.31
284.387
284.462
284.534
284.603
284.671
284.736
284.8
284.861
284.919
284.974
285.026
285.075
285.122
285.165
285.205
285.241
285.273
285.302
285.328
285.351
285.37
285.387
285.402
285.414
285.423
285.43
285.436
285.44
285.443
285.445
285.446
285.447
285.447
285.448
285.448
285.448
285.448
285.448
285.448
285.448
285.448
285.448
285.448
285.448
285.449
285.449
285.449
285.449
285.449
285.449
285.449
285.449
285.449
285.449
285.449
285.449
285.449
285.449
285.449
285.449
285.449
285.449
285.449
285.448
285.448
285.448
285.447
285.449
285.45
283.023
283.04
283.05
283.073
283.091
283.117
283.143
283.179
283.217
283.26
283.301
283.343
283.384
283.427
283.471
283.515
283.557
283.599
283.639
283.68
283.719
283.758
283.796
283.833
283.868
283.903
283.936
283.968
283.999
284.029
284.057
284.084
284.109
284.132
284.154
284.174
284.193
284.209
284.224
284.237
284.248
284.258
284.267
284.274
284.28
284.285
284.288
284.291
284.293
284.294
284.295
284.296
284.296
284.297
284.297
284.297
284.297
284.297
284.297
284.297
284.297
284.298
284.298
284.298
284.298
284.298
284.298
284.298
284.298
284.298
284.298
284.298
284.298
284.298
284.298
284.299
284.299
284.299
284.299
284.299
284.299
284.299
284.299
284.299
284.299
284.299
284.299
284.298
284.3
284.301
283.063
283.072
283.074
283.084
283.088
283.098
283.105
283.117
283.128
283.141
283.153
283.166
283.178
283.191
283.204
283.218
283.23
283.243
283.254
283.267
283.278
283.29
283.301
283.312
283.322
283.333
283.342
283.352
283.361
283.37
283.378
283.386
283.393
283.4
283.407
283.413
283.418
283.423
283.427
283.431
283.435
283.437
283.44
283.442
283.444
283.445
283.446
283.447
283.448
283.448
283.448
283.449
283.449
283.449
283.449
283.449
283.449
283.449
283.449
283.449
283.449
283.449
283.449
283.449
283.449
283.449
283.449
283.449
283.45
283.45
283.45
283.45
283.45
283.45
283.45
283.45
283.45
283.45
283.45
283.45
283.45
283.45
283.45
283.45
283.45
283.45
283.449
283.449
283.45
283.45
285.68
287.383
288.472
289.297
289.996
290.595
291.142
291.637
292.1
292.526
292.929
293.309
293.674
294.022
294.358
294.68
294.989
295.286
295.574
295.852
296.121
296.38
296.628
296.866
297.093
297.31
297.516
297.71
297.892
298.061
298.218
298.362
298.493
298.612
298.718
298.812
298.894
298.965
299.026
299.077
299.12
299.155
299.183
299.205
299.222
299.234
299.243
299.249
299.253
299.256
299.257
299.258
299.259
299.259
299.259
299.259
299.259
299.259
299.259
299.259
299.259
299.259
299.259
299.259
299.259
299.259
299.259
299.259
299.26
299.26
299.26
299.26
299.26
299.26
299.26
299.26
299.26
299.26
299.261
299.261
299.261
299.261
299.262
299.262
299.262
299.263
299.263
299.264
299.269
299.269
284.319
285.74
286.763
287.569
288.25
288.841
289.378
289.869
290.327
290.752
291.152
291.53
291.892
292.239
292.574
292.894
293.203
293.499
293.786
294.063
294.332
294.59
294.839
295.077
295.305
295.523
295.73
295.926
296.11
296.282
296.441
296.588
296.723
296.845
296.955
297.053
297.139
297.214
297.278
297.333
297.379
297.417
297.448
297.473
297.491
297.505
297.516
297.523
297.528
297.531
297.533
297.534
297.535
297.535
297.536
297.536
297.536
297.536
297.536
297.535
297.535
297.535
297.535
297.535
297.535
297.535
297.535
297.535
297.535
297.535
297.535
297.535
297.536
297.536
297.536
297.536
297.536
297.536
297.536
297.536
297.536
297.536
297.536
297.537
297.537
297.537
297.538
297.538
297.542
297.542
283.595
284.519
285.361
286.067
286.692
287.236
287.741
288.204
288.644
289.055
289.444
289.81
290.161
290.498
290.825
291.14
291.443
291.734
292.015
292.287
292.551
292.807
293.053
293.289
293.515
293.732
293.939
294.136
294.322
294.496
294.659
294.809
294.948
295.075
295.19
295.294
295.385
295.466
295.536
295.596
295.647
295.689
295.725
295.753
295.775
295.793
295.806
295.815
295.821
295.826
295.828
295.83
295.831
295.832
295.832
295.832
295.832
295.832
295.832
295.832
295.832
295.832
295.831
295.831
295.831
295.831
295.831
295.831
295.831
295.831
295.831
295.831
295.831
295.831
295.831
295.831
295.832
295.832
295.832
295.832
295.832
295.832
295.832
295.832
295.833
295.833
295.834
295.834
295.838
295.837
283.21
283.686
284.26
284.813
285.331
285.801
286.243
286.66
287.063
287.447
287.812
288.158
288.488
288.807
289.118
289.42
289.712
289.992
290.262
290.523
290.778
291.025
291.264
291.494
291.715
291.927
292.13
292.324
292.508
292.682
292.845
292.997
293.137
293.267
293.386
293.494
293.59
293.676
293.75
293.815
293.871
293.919
293.958
293.991
294.017
294.038
294.054
294.065
294.074
294.079
294.083
294.086
294.087
294.088
294.088
294.088
294.088
294.088
294.088
294.088
294.088
294.088
294.088
294.088
294.088
294.087
294.087
294.087
294.087
294.087
294.087
294.087
294.087
294.087
294.087
294.087
294.087
294.087
294.087
294.087
294.087
294.087
294.088
294.088
294.088
294.088
294.088
294.089
294.091
294.09
283.135
283.311
283.651
284.021
284.411
284.775
285.133
285.478
285.827
286.164
286.493
286.803
287.103
287.392
287.677
287.956
288.228
288.489
288.741
288.984
289.222
289.455
289.68
289.898
290.107
290.308
290.501
290.686
290.864
291.032
291.19
291.339
291.477
291.605
291.724
291.832
291.93
292.017
292.094
292.162
292.22
292.27
292.313
292.349
292.378
292.401
292.419
292.433
292.443
292.449
292.454
292.457
292.459
292.46
292.46
292.461
292.461
292.461
292.46
292.46
292.46
292.46
292.46
292.46
292.46
292.46
292.46
292.46
292.46
292.46
292.46
292.459
292.459
292.459
292.459
292.459
292.459
292.459
292.46
292.46
292.46
292.46
292.46
292.46
292.461
292.461
292.462
292.462
292.464
292.463
283.092
283.126
283.305
283.528
283.796
284.058
284.326
284.598
284.882
285.167
285.448
285.717
285.977
286.23
286.482
286.732
286.976
287.211
287.438
287.658
287.874
288.085
288.291
288.49
288.681
288.865
289.043
289.214
289.379
289.535
289.683
289.823
289.953
290.075
290.187
290.291
290.386
290.471
290.546
290.612
290.67
290.721
290.764
290.8
290.83
290.854
290.873
290.888
290.898
290.906
290.911
290.914
290.916
290.917
290.918
290.918
290.918
290.918
290.918
290.918
290.918
290.918
290.918
290.918
290.918
290.918
290.918
290.917
290.917
290.917
290.917
290.917
290.917
290.917
290.917
290.917
290.917
290.917
290.917
290.917
290.917
290.917
290.917
290.917
290.917
290.917
290.918
290.918
290.919
290.919
283.097
283.079
283.169
283.294
283.467
283.639
283.827
284.027
284.246
284.473
284.702
284.922
285.137
285.349
285.562
285.775
285.985
286.188
286.383
286.574
286.761
286.945
287.125
287.299
287.466
287.628
287.784
287.935
288.081
288.22
288.352
288.476
288.593
288.702
288.804
288.898
288.984
289.062
289.131
289.192
289.246
289.293
289.333
289.367
289.396
289.419
289.437
289.451
289.461
289.468
289.473
289.477
289.479
289.48
289.48
289.481
289.481
289.481
289.481
289.481
289.481
289.48
289.48
289.48
289.48
289.48
289.48
289.48
289.48
289.48
289.48
289.48
289.48
289.48
289.48
289.48
289.48
289.48
289.48
289.48
289.48
289.48
289.48
289.48
289.48
289.48
289.481
289.48
289.481
289.482
283.134
283.105
283.154
283.221
283.328
283.432
283.558
283.695
283.857
284.026
284.202
284.372
284.54
284.708
284.88
285.052
285.222
285.387
285.547
285.702
285.857
286.008
286.157
286.301
286.44
286.574
286.704
286.83
286.952
287.068
287.179
287.283
287.381
287.473
287.56
287.64
287.713
287.779
287.838
287.89
287.936
287.976
288.01
288.04
288.065
288.085
288.1
288.112
288.121
288.128
288.132
288.135
288.136
288.137
288.138
288.138
288.138
288.138
288.138
288.138
288.138
288.138
288.138
288.138
288.138
288.138
288.138
288.138
288.138
288.138
288.138
288.138
288.138
288.138
288.138
288.138
288.138
288.138
288.138
288.138
288.138
288.138
288.139
288.139
288.139
288.139
288.141
288.14
288.142
288.143
283.129
283.113
283.142
283.183
283.245
283.308
283.388
283.482
283.597
283.719
283.846
283.97
284.095
284.221
284.351
284.482
284.612
284.737
284.859
284.979
285.097
285.215
285.33
285.441
285.548
285.651
285.752
285.85
285.944
286.035
286.12
286.201
286.278
286.35
286.417
286.48
286.537
286.588
286.634
286.675
286.71
286.742
286.769
286.792
286.811
286.827
286.839
286.848
286.855
286.86
286.863
286.865
286.866
286.867
286.868
286.868
286.868
286.868
286.868
286.868
286.868
286.868
286.868
286.868
286.868
286.868
286.868
286.868
286.868
286.868
286.868
286.868
286.868
286.868
286.868
286.868
286.868
286.868
286.868
286.868
286.868
286.868
286.869
286.869
286.869
286.869
286.87
286.87
286.87
286.872
283.219
283.198
283.219
283.233
283.268
283.297
283.347
283.403
283.479
283.556
283.64
283.72
283.804
283.888
283.977
284.066
284.154
284.239
284.323
284.405
284.487
284.568
284.647
284.723
284.797
284.868
284.938
285.006
285.071
285.134
285.193
285.249
285.302
285.352
285.399
285.442
285.481
285.516
285.548
285.576
285.6
285.622
285.641
285.656
285.669
285.68
285.688
285.694
285.699
285.702
285.704
285.705
285.706
285.707
285.707
285.707
285.707
285.707
285.707
285.707
285.707
285.707
285.707
285.707
285.707
285.707
285.707
285.707
285.708
285.708
285.708
285.708
285.708
285.708
285.708
285.708
285.708
285.708
285.709
285.709
285.709
285.709
285.71
285.71
285.71
285.71
285.712
285.711
285.713
285.715
283.193
283.184
283.195
283.202
283.219
283.234
283.261
283.293
283.335
283.378
283.424
283.468
283.515
283.563
283.614
283.664
283.714
283.762
283.81
283.856
283.903
283.949
283.994
284.037
284.079
284.12
284.16
284.199
284.236
284.271
284.305
284.337
284.367
284.395
284.422
284.446
284.468
284.488
284.506
284.521
284.535
284.547
284.558
284.566
284.574
284.579
284.584
284.587
284.59
284.591
284.592
284.593
284.594
284.594
284.594
284.594
284.594
284.594
284.594
284.594
284.595
284.595
284.595
284.595
284.595
284.595
284.595
284.595
284.595
284.595
284.595
284.595
284.596
284.596
284.596
284.596
284.596
284.596
284.596
284.596
284.597
284.597
284.597
284.597
284.598
284.597
284.598
284.598
284.598
284.599
283.257
283.245
283.251
283.247
283.253
283.253
283.262
283.269
283.283
283.294
283.309
283.321
283.336
283.351
283.367
283.382
283.397
283.412
283.427
283.441
283.456
283.47
283.484
283.498
283.511
283.524
283.536
283.548
283.56
283.571
283.582
283.592
283.601
283.61
283.618
283.626
283.633
283.639
283.645
283.649
283.654
283.657
283.661
283.663
283.666
283.667
283.669
283.67
283.671
283.671
283.671
283.672
283.672
283.672
283.672
283.672
283.672
283.672
283.672
283.672
283.672
283.672
283.672
283.673
283.673
283.673
283.673
283.673
283.673
283.673
283.673
283.673
283.673
283.673
283.673
283.673
283.673
283.674
283.674
283.674
283.674
283.674
283.674
283.674
283.675
283.675
283.676
283.676
283.676
283.677
286.246
288.499
289.769
290.684
291.434
292.073
292.645
293.161
293.637
294.076
294.49
294.88
295.255
295.611
295.954
296.28
296.596
296.898
297.192
297.474
297.748
298.009
298.261
298.502
298.732
298.951
299.159
299.354
299.537
299.706
299.862
300.005
300.136
300.253
300.358
300.449
300.53
300.598
300.657
300.706
300.747
300.78
300.806
300.826
300.842
300.852
300.86
300.865
300.869
300.871
300.873
300.873
300.874
300.874
300.874
300.874
300.874
300.874
300.874
300.874
300.874
300.874
300.874
300.874
300.874
300.874
300.874
300.874
300.874
300.874
300.874
300.874
300.874
300.874
300.874
300.874
300.875
300.875
300.875
300.875
300.875
300.875
300.876
300.876
300.876
300.876
300.877
300.876
300.883
300.885
284.027
285.642
286.825
287.722
288.461
289.095
289.662
290.178
290.655
291.097
291.511
291.902
292.274
292.632
292.975
293.304
293.62
293.924
294.217
294.501
294.775
295.04
295.293
295.537
295.77
295.992
296.204
296.404
296.591