/*--------------------------------*- C++ -*----------------------------------*\
  =========                 |
  \\      /  F ield         | OpenFOAM: The Open Source CFD Toolbox
   \\    /   O peration     | Website:  https://openfoam.org
    \\  /    A nd           | Version:  7
     \\/     M anipulation  |
\*---------------------------------------------------------------------------*/
FoamFile
{
    version     2.0;
    format      ascii;
    class       volScalarField;
    location    "0.0725";
    object      alphat;
}
// * * * * * * * * * * * * * * * * * * * * * * * * * * * * * * * * * * * * * //

dimensions      [1 -1 -1 0 0 0 0];

internalField   nonuniform List<scalar> 
27000
(
0.00219212
0.00201317
0.00199527
0.00199474
0.00199538
0.00199611
0.00199667
0.00199718
0.00199755
0.0019978
0.00199792
0.00199792
0.0019978
0.00199758
0.00199727
0.00199691
0.00199652
0.00199612
0.00199573
0.00199535
0.00199496
0.00199455
0.00199414
0.00199375
0.00199341
0.00199312
0.00199287
0.00199268
0.00199251
0.00199228
0.00199199
0.00199184
0.00199183
0.00199174
0.00199151
0.00199153
0.00199173
0.00199162
0.00199109
0.00199093
0.00168086
0.00138113
0.001329
0.00132598
0.00132488
0.00132519
0.00132494
0.00132499
0.00132488
0.00132487
0.00132482
0.00132482
0.00132481
0.00132483
0.00132487
0.00132492
0.00132498
0.00132505
0.00132513
0.00132521
0.0013253
0.00132539
0.00132548
0.00132557
0.00132566
0.00132575
0.00132585
0.00132594
0.00132602
0.00132612
0.00132622
0.00132631
0.0013264
0.00132651
0.00132652
0.0013266
0.00132673
0.00132685
0.00132678
0.00132673
0.00167682
0.0013742
0.00132296
0.00131999
0.00131878
0.00131887
0.00131836
0.00131825
0.00131795
0.00131779
0.00131759
0.00131744
0.00131728
0.00131714
0.00131701
0.00131689
0.00131679
0.0013167
0.00131662
0.00131656
0.0013165
0.00131644
0.0013164
0.00131636
0.00131632
0.00131628
0.00131626
0.00131623
0.0013162
0.00131618
0.00131617
0.00131616
0.00131614
0.00131614
0.0013161
0.00131613
0.00131614
0.00131613
0.00131603
0.00131603
0.00167744
0.00137694
0.00132517
0.00132205
0.00132096
0.00132115
0.00132082
0.0013208
0.00132061
0.00132052
0.00132037
0.00132025
0.00132011
0.00131999
0.00131987
0.00131976
0.00131964
0.00131954
0.00131944
0.00131934
0.00131925
0.00131916
0.00131907
0.00131899
0.00131891
0.00131884
0.00131876
0.00131869
0.00131863
0.00131857
0.00131851
0.00131846
0.00131843
0.00131838
0.00131833
0.00131831
0.0013183
0.00131827
0.00131818
0.00131816
0.00167761
0.00137553
0.00132433
0.0013213
0.0013202
0.00132032
0.00131988
0.00131979
0.00131953
0.00131939
0.0013192
0.00131905
0.00131889
0.00131875
0.00131862
0.00131849
0.00131837
0.00131826
0.00131815
0.00131805
0.00131796
0.00131787
0.00131778
0.00131769
0.00131761
0.00131753
0.00131745
0.00131738
0.0013173
0.00131722
0.00131717
0.00131711
0.00131705
0.00131699
0.00131695
0.00131691
0.00131685
0.0013168
0.00131678
0.00131677
0.00167756
0.00137559
0.00132435
0.00132132
0.00132024
0.00132036
0.00131994
0.00131986
0.00131961
0.00131948
0.00131929
0.00131914
0.00131898
0.00131883
0.00131868
0.00131855
0.00131842
0.0013183
0.00131818
0.00131808
0.00131797
0.00131787
0.00131778
0.00131768
0.00131759
0.0013175
0.00131743
0.00131735
0.00131727
0.00131719
0.00131713
0.00131707
0.001317
0.00131694
0.00131691
0.00131687
0.00131678
0.00131673
0.00131672
0.00131671
0.00167742
0.00137687
0.00132509
0.001322
0.00132091
0.00132108
0.00132074
0.0013207
0.00132051
0.00132041
0.00132026
0.00132014
0.00132002
0.00131991
0.00131979
0.00131968
0.00131958
0.00131948
0.00131938
0.00131929
0.0013192
0.00131912
0.00131903
0.00131896
0.00131888
0.00131881
0.00131874
0.00131867
0.00131861
0.00131855
0.00131849
0.00131845
0.00131842
0.00131837
0.00131832
0.0013183
0.0013183
0.00131827
0.00131817
0.00131811
0.00167676
0.00137428
0.00132299
0.00132004
0.00131884
0.00131894
0.00131844
0.00131833
0.00131802
0.00131785
0.00131764
0.00131747
0.0013173
0.00131715
0.001317
0.00131687
0.00131676
0.00131666
0.00131657
0.00131649
0.00131642
0.00131636
0.0013163
0.00131626
0.00131621
0.00131617
0.00131614
0.00131611
0.00131608
0.00131605
0.00131604
0.00131603
0.00131602
0.00131601
0.00131595
0.00131597
0.00131602
0.001316
0.00131582
0.00131576
0.00168105
0.00138115
0.00132903
0.00132598
0.00132497
0.00132532
0.00132512
0.00132521
0.00132514
0.00132516
0.00132513
0.00132513
0.00132513
0.00132516
0.00132519
0.00132523
0.00132528
0.00132534
0.00132541
0.00132548
0.00132555
0.00132563
0.00132571
0.00132579
0.00132587
0.00132595
0.00132603
0.00132613
0.00132622
0.00132631
0.00132637
0.00132648
0.00132662
0.00132669
0.00132663
0.00132675
0.001327
0.00132708
0.00132681
0.00132676
0.00219322
0.00200754
0.00198678
0.00198339
0.00198199
0.00198097
0.00198
0.00197933
0.00197876
0.00197834
0.00197801
0.00197777
0.0019776
0.00197749
0.00197744
0.00197744
0.00197749
0.00197758
0.0019777
0.00197785
0.00197802
0.00197821
0.0019784
0.0019786
0.00197882
0.00197905
0.00197925
0.00197946
0.00197971
0.00197994
0.00198009
0.0019803
0.00198064
0.00198089
0.0019809
0.00198106
0.00198163
0.00198196
0.00198165
0.00198146
0.00107533
0.00118769
0.0011943
0.00120161
0.00120418
0.0012081
0.00121067
0.00121331
0.00121533
0.00121714
0.00121859
0.00121986
0.00122093
0.00122187
0.00122269
0.00122342
0.00122407
0.00122465
0.00122513
0.00122551
0.00122578
0.00122593
0.00122599
0.00122603
0.00122608
0.00122613
0.00122617
0.00122618
0.00122616
0.00122605
0.00122587
0.00122583
0.00122599
0.00122611
0.00122604
0.00122604
0.00122626
0.00122633
0.00122601
0.00122588
0.00107333
0.00119786
0.00120982
0.00122024
0.00122594
0.00123228
0.00123711
0.00124163
0.00124542
0.00124881
0.00125172
0.00125428
0.00125652
0.0012585
0.00126025
0.00126179
0.00126314
0.00126434
0.00126541
0.00126635
0.00126715
0.00126783
0.00126837
0.00126878
0.00126911
0.0012694
0.00126968
0.00126991
0.00127011
0.0012703
0.00127039
0.00127037
0.00127042
0.00127071
0.00127091
0.00127093
0.00127103
0.00127149
0.00127173
0.00127139
0.00106329
0.00118809
0.00119469
0.00120575
0.00120948
0.00121561
0.00121967
0.00122403
0.00122755
0.00123087
0.00123374
0.00123636
0.00123866
0.00124075
0.00124262
0.00124432
0.00124587
0.00124729
0.00124859
0.00124978
0.00125089
0.0012519
0.00125284
0.00125371
0.0012545
0.00125522
0.00125589
0.00125652
0.00125706
0.00125755
0.00125804
0.00125849
0.00125881
0.00125912
0.00125946
0.00125983
0.00126001
0.00126019
0.00126048
0.00126086
0.00106986
0.00119314
0.00120588
0.00121696
0.00122354
0.0012308
0.00123658
0.00124204
0.00124674
0.00125099
0.00125475
0.00125813
0.00126115
0.00126387
0.00126633
0.00126855
0.00127057
0.0012724
0.00127407
0.00127559
0.00127698
0.00127824
0.0012794
0.00128046
0.00128143
0.00128231
0.00128312
0.00128387
0.00128457
0.00128519
0.00128574
0.00128625
0.00128671
0.00128713
0.00128748
0.00128781
0.00128813
0.00128842
0.00128863
0.00128884
0.00106714
0.00119048
0.0012013
0.00121271
0.00121963
0.00122731
0.0012336
0.00123957
0.00124479
0.00124955
0.00125379
0.00125763
0.00126109
0.00126422
0.00126705
0.00126962
0.00127196
0.00127409
0.00127604
0.00127783
0.00127946
0.00128097
0.00128235
0.00128362
0.0012848
0.00128588
0.00128689
0.00128782
0.00128867
0.00128945
0.00129018
0.00129086
0.00129147
0.00129201
0.00129253
0.00129301
0.00129341
0.00129378
0.00129416
0.00129457
0.00106716
0.00119042
0.0012014
0.00121273
0.00121975
0.00122742
0.00123371
0.00123967
0.00124489
0.00124964
0.00125388
0.00125771
0.00126115
0.00126426
0.00126708
0.00126964
0.00127196
0.00127408
0.00127601
0.00127777
0.00127938
0.00128086
0.00128223
0.00128349
0.00128464
0.00128571
0.0012867
0.00128763
0.00128846
0.00128923
0.00128996
0.00129063
0.00129121
0.00129174
0.00129226
0.00129275
0.00129312
0.00129346
0.00129385
0.00129428
0.00106984
0.0011931
0.00120582
0.00121693
0.00122352
0.00123077
0.00123654
0.001242
0.00124669
0.00125093
0.00125467
0.00125803
0.00126102
0.00126371
0.00126613
0.00126831
0.00127028
0.00127207
0.00127368
0.00127515
0.00127649
0.0012777
0.0012788
0.00127981
0.00128073
0.00128157
0.00128234
0.00128304
0.00128369
0.00128428
0.00128479
0.00128526
0.00128571
0.00128611
0.00128643
0.00128672
0.00128702
0.00128733
0.00128753
0.00128767
0.00106328
0.00118807
0.00119469
0.00120587
0.00120963
0.00121578
0.00121983
0.00122413
0.00122755
0.00123073
0.00123342
0.00123581
0.00123788
0.00123973
0.00124136
0.00124283
0.00124415
0.00124536
0.00124646
0.00124749
0.00124844
0.00124932
0.00125014
0.00125092
0.00125164
0.0012523
0.00125294
0.00125354
0.00125407
0.00125456
0.00125506
0.0012555
0.00125586
0.00125623
0.00125661
0.00125696
0.00125717
0.00125746
0.00125783
0.00125814
0.00107312
0.00119782
0.00121019
0.00122086
0.00122674
0.00123303
0.00123764
0.00124174
0.00124494
0.0012476
0.00124973
0.00125151
0.00125299
0.00125428
0.00125542
0.00125644
0.00125739
0.00125828
0.00125912
0.00125991
0.00126066
0.00126138
0.00126204
0.00126264
0.00126321
0.00126379
0.00126432
0.00126475
0.00126521
0.00126577
0.00126619
0.00126641
0.00126682
0.00126755
0.00126792
0.00126787
0.00126826
0.00126943
0.00127002
0.00126929
0.00107851
0.00119694
0.00120867
0.00121998
0.00122545
0.00123126
0.00123488
0.00123788
0.00123976
0.00124111
0.00124192
0.00124248
0.00124286
0.00124318
0.00124346
0.00124373
0.001244
0.00124427
0.00124451
0.00124472
0.00124491
0.00124505
0.00124516
0.00124526
0.00124538
0.00124547
0.00124553
0.00124561
0.00124574
0.0012458
0.00124576
0.00124586
0.00124612
0.00124622
0.00124606
0.00124617
0.00124673
0.00124695
0.00124643
0.00124614
0.000112911
0.000177889
0.000194707
0.0002007
0.000202914
0.000203998
0.000204827
0.000205422
0.000206018
0.000206509
0.000206991
0.000207404
0.000207795
0.000208135
0.000208446
0.000208714
0.000208948
0.000209147
0.000209318
0.000209465
0.000209595
0.00020971
0.00020981
0.000209895
0.000209962
0.000210013
0.000210051
0.000210081
0.000210106
0.000210126
0.000210137
0.000210136
0.000210127
0.000210114
0.000210098
0.000210092
0.000210106
0.000210128
0.00021013
0.000210119
9.0046e-05
0.000222558
0.000234096
0.000247957
0.00024928
0.000250878
0.000251652
0.000251784
0.000251965
0.000251854
0.000251764
0.000251474
0.000251315
0.000251103
0.000250986
0.000250882
0.000250847
0.000250839
0.000250876
0.000250937
0.000251024
0.000251119
0.000251223
0.000251328
0.000251434
0.000251544
0.000251667
0.000251804
0.000251943
0.000252077
0.000252205
0.000252329
0.000252438
0.000252544
0.000252669
0.000252817
0.000252922
0.000252989
0.000253056
0.000253188
8.76617e-05
0.000193694
0.000194005
0.000197815
0.000197107
0.000197308
0.0001977
0.00019826
0.000198766
0.000199231
0.000199654
0.000200035
0.000200387
0.000200709
0.000201012
0.000201297
0.000201567
0.000201824
0.00020207
0.000202305
0.00020253
0.000202745
0.000202952
0.000203148
0.000203335
0.000203514
0.000203689
0.000203857
0.000204014
0.000204168
0.000204319
0.000204461
0.000204588
0.000204714
0.000204843
0.000204966
0.000205064
0.000205162
0.000205272
0.000205392
8.75927e-05
0.00020918
0.000215028
0.000228231
0.000229611
0.000231623
0.000232642
0.000232943
0.000233366
0.000233387
0.000233439
0.000233282
0.000233189
0.000233001
0.000232879
0.000232739
0.000232648
0.000232568
0.000232526
0.0002325
0.000232498
0.000232506
0.000232524
0.000232548
0.00023258
0.00023262
0.000232667
0.00023272
0.000232777
0.000232832
0.00023288
0.000232919
0.000232968
0.000233023
0.000233075
0.000233108
0.000233144
0.000233186
0.000233219
0.000233214
8.73156e-05
0.00020232
0.000203263
0.000213101
0.000214652
0.000216715
0.000217685
0.000217905
0.000218237
0.000218187
0.00021816
0.000217892
0.000217702
0.000217406
0.00021719
0.000216961
0.000216796
0.000216655
0.000216564
0.000216502
0.000216474
0.000216466
0.000216475
0.000216491
0.000216514
0.00021654
0.000216574
0.000216613
0.000216659
0.000216711
0.000216759
0.000216793
0.00021682
0.000216854
0.000216895
0.000216914
0.000216931
0.000216964
0.000217008
0.000217003
8.73133e-05
0.000202031
0.000202894
0.000212644
0.000214204
0.000216258
0.000217213
0.000217412
0.0002177
0.000217622
0.000217552
0.000217221
0.000216979
0.000216633
0.000216366
0.000216091
0.000215884
0.000215706
0.000215584
0.000215495
0.000215445
0.000215418
0.000215412
0.000215419
0.000215437
0.000215466
0.000215505
0.000215549
0.000215594
0.000215642
0.000215689
0.000215726
0.000215755
0.000215798
0.000215852
0.000215879
0.000215876
0.000215889
0.000215952
0.000215974
8.75955e-05
0.000209446
0.000215403
0.000228692
0.00023008
0.000232104
0.000233143
0.000233468
0.000233929
0.000233975
0.00023406
0.000233952
0.000233894
0.00023374
0.000233649
0.000233536
0.000233468
0.000233407
0.000233378
0.000233364
0.000233369
0.000233384
0.000233408
0.000233436
0.000233471
0.000233511
0.000233554
0.000233602
0.000233655
0.000233711
0.000233761
0.000233803
0.000233853
0.00023391
0.000233958
0.000233975
0.000234013
0.000234077
0.000234115
0.000234105
8.80131e-05
0.000193317
0.000193811
0.000197511
0.000196995
0.000197255
0.00019772
0.000198291
0.000198801
0.00019927
0.000199691
0.000200067
0.000200412
0.000200726
0.000201021
0.000201296
0.000201558
0.000201806
0.000202044
0.000202271
0.000202489
0.000202698
0.000202899
0.000203092
0.000203277
0.000203455
0.000203628
0.000203795
0.000203953
0.000204107
0.000204257
0.000204399
0.000204529
0.000204659
0.000204786
0.000204907
0.000205009
0.000205113
0.000205214
0.000205328
9.01952e-05
0.000222848
0.000234574
0.000248517
0.000249983
0.000251695
0.000252629
0.000252852
0.000253141
0.00025311
0.000253099
0.000252876
0.000252764
0.000252586
0.000252492
0.000252401
0.00025237
0.00025236
0.00025239
0.000252439
0.000252511
0.000252591
0.00025268
0.000252771
0.00025287
0.000252972
0.000253076
0.000253189
0.000253309
0.000253423
0.000253525
0.000253638
0.000253755
0.000253851
0.000253923
0.000254027
0.000254133
0.000254211
0.000254215
0.000254291
0.000113069
0.000178986
0.000196646
0.00020339
0.000206292
0.000207953
0.000209259
0.000210223
0.000211095
0.000211779
0.000212382
0.000212857
0.000213259
0.00021357
0.000213819
0.000214003
0.000214136
0.000214223
0.000214274
0.000214295
0.000214295
0.000214276
0.000214246
0.000214209
0.000214165
0.000214115
0.000214063
0.000214009
0.000213953
0.000213889
0.000213823
0.000213761
0.000213699
0.00021363
0.000213568
0.000213523
0.000213488
0.000213442
0.000213386
0.000213353
9.79336e-06
2.63347e-05
3.81555e-05
4.93603e-05
5.66489e-05
6.20776e-05
6.57726e-05
6.83426e-05
7.01206e-05
7.13261e-05
7.21734e-05
7.27468e-05
7.31589e-05
7.34438e-05
7.36559e-05
7.38088e-05
7.39274e-05
7.40173e-05
7.40898e-05
7.41474e-05
7.41953e-05
7.42346e-05
7.42674e-05
7.4295e-05
7.4317e-05
7.4334e-05
7.43484e-05
7.43559e-05
7.43581e-05
7.43546e-05
7.43466e-05
7.43335e-05
7.43116e-05
7.42815e-05
7.42447e-05
7.42007e-05
7.41503e-05
7.40963e-05
7.40412e-05
7.39833e-05
3.87409e-06
1.87087e-05
2.4231e-05
3.28514e-05
3.6781e-05
4.04791e-05
4.26343e-05
4.43302e-05
4.54046e-05
4.61774e-05
4.66799e-05
4.70058e-05
4.7209e-05
4.73255e-05
4.73876e-05
4.74145e-05
4.74158e-05
4.74119e-05
4.74011e-05
4.73858e-05
4.73691e-05
4.73528e-05
4.7339e-05
4.73281e-05
4.73208e-05
4.73174e-05
4.73188e-05
4.73244e-05
4.73313e-05
4.73413e-05
4.73525e-05
4.73654e-05
4.73802e-05
4.73979e-05
4.7417e-05
4.74342e-05
4.74496e-05
4.74653e-05
4.74809e-05
4.74962e-05
3.36577e-06
1.55533e-05
1.94931e-05
2.59365e-05
2.85214e-05
3.14549e-05
3.30604e-05
3.45361e-05
3.54987e-05
3.62905e-05
3.68505e-05
3.72857e-05
3.76051e-05
3.78467e-05
3.80275e-05
3.8163e-05
3.82658e-05
3.83429e-05
3.84022e-05
3.84465e-05
3.84811e-05
3.85066e-05
3.85263e-05
3.85413e-05
3.85515e-05
3.85604e-05
3.85653e-05
3.85689e-05
3.85711e-05
3.85711e-05
3.8569e-05
3.85643e-05
3.85576e-05
3.85498e-05
3.85397e-05
3.85246e-05
3.85063e-05
3.84881e-05
3.84693e-05
3.84434e-05
3.69147e-06
1.7454e-05
2.21381e-05
2.98382e-05
3.31981e-05
3.66894e-05
3.866e-05
4.02881e-05
4.1322e-05
4.20906e-05
4.25966e-05
4.2937e-05
4.31561e-05
4.32843e-05
4.33557e-05
4.33836e-05
4.33817e-05
4.33704e-05
4.33449e-05
4.33115e-05
4.32759e-05
4.3239e-05
4.32025e-05
4.31669e-05
4.31333e-05
4.31021e-05
4.30733e-05
4.30462e-05
4.30202e-05
4.29941e-05
4.29678e-05
4.29421e-05
4.29179e-05
4.28939e-05
4.28682e-05
4.28402e-05
4.28112e-05
4.2781e-05
4.27482e-05
4.27139e-05
3.49857e-06
1.65714e-05
2.07911e-05
2.78416e-05
3.07559e-05
3.41103e-05
3.59622e-05
3.75729e-05
3.8593e-05
3.93801e-05
3.99041e-05
4.02707e-05
4.0509e-05
4.0661e-05
4.07454e-05
4.07923e-05
4.07999e-05
4.07946e-05
4.07798e-05
4.07529e-05
4.07226e-05
4.06902e-05
4.06576e-05
4.06249e-05
4.05931e-05
4.05625e-05
4.05335e-05
4.0506e-05
4.04795e-05
4.04532e-05
4.04257e-05
4.03969e-05
4.03678e-05
4.03387e-05
4.03084e-05
4.02759e-05
4.02426e-05
4.02081e-05
4.01703e-05
4.01289e-05
3.48796e-06
1.65261e-05
2.07336e-05
2.77647e-05
3.0666e-05
3.40142e-05
3.58601e-05
3.74669e-05
3.84823e-05
3.92638e-05
3.97838e-05
4.01432e-05
4.03758e-05
4.052e-05
4.05985e-05
4.06387e-05
4.06389e-05
4.06304e-05
4.06096e-05
4.05778e-05
4.05434e-05
4.05077e-05
4.04725e-05
4.0438e-05
4.04053e-05
4.03743e-05
4.03453e-05
4.03175e-05
4.02907e-05
4.02642e-05
4.02373e-05
4.02099e-05
4.01828e-05
4.01557e-05
4.01265e-05
4.00939e-05
4.00601e-05
4.00266e-05
3.99914e-05
3.99516e-05
3.69995e-06
1.74944e-05
2.21975e-05
2.99232e-05
3.32987e-05
3.67984e-05
3.87762e-05
4.04093e-05
4.14484e-05
4.2223e-05
4.2733e-05
4.30806e-05
4.33044e-05
4.34406e-05
4.35153e-05
4.35524e-05
4.3553e-05
4.35453e-05
4.35255e-05
4.34953e-05
4.34624e-05
4.34279e-05
4.33936e-05
4.33598e-05
4.33273e-05
4.32966e-05
4.32676e-05
4.32404e-05
4.32145e-05
4.31892e-05
4.31638e-05
4.31384e-05
4.31138e-05
4.3089e-05
4.30621e-05
4.30337e-05
4.30062e-05
4.2978e-05
4.29455e-05
4.29103e-05
3.37543e-06
1.55193e-05
1.94508e-05
2.58765e-05
2.84638e-05
3.14014e-05
3.30146e-05
3.4496e-05
3.54626e-05
3.62566e-05
3.68176e-05
3.72526e-05
3.7571e-05
3.7811e-05
3.79898e-05
3.81232e-05
3.82238e-05
3.82991e-05
3.83567e-05
3.83999e-05
3.84334e-05
3.84587e-05
3.84779e-05
3.84932e-05
3.85041e-05
3.8513e-05
3.852e-05
3.85242e-05
3.85274e-05
3.8529e-05
3.85283e-05
3.85251e-05
3.85201e-05
3.85143e-05
3.85064e-05
3.84932e-05
3.84757e-05
3.84594e-05
3.84426e-05
3.84194e-05
3.88526e-06
1.87476e-05
2.42954e-05
3.29478e-05
3.69017e-05
4.06233e-05
4.28017e-05
4.45192e-05
4.56172e-05
4.64112e-05
4.69335e-05
4.72783e-05
4.74999e-05
4.76325e-05
4.77115e-05
4.77504e-05
4.77704e-05
4.77721e-05
4.77705e-05
4.77634e-05
4.7754e-05
4.77449e-05
4.77379e-05
4.77332e-05
4.77314e-05
4.77322e-05
4.7738e-05
4.7746e-05
4.77565e-05
4.77695e-05
4.77841e-05
4.77993e-05
4.78156e-05
4.78328e-05
4.78502e-05
4.7867e-05
4.78829e-05
4.78983e-05
4.79121e-05
4.79256e-05
9.7966e-06
2.64013e-05
3.82412e-05
4.95304e-05
5.68597e-05
6.23402e-05
6.60663e-05
6.86663e-05
7.0465e-05
7.16883e-05
7.25484e-05
7.31316e-05
7.35502e-05
7.3839e-05
7.40523e-05
7.42042e-05
7.43199e-05
7.44053e-05
7.44718e-05
7.45218e-05
7.4561e-05
7.45901e-05
7.4613e-05
7.46282e-05
7.464e-05
7.46473e-05
7.46472e-05
7.46436e-05
7.46345e-05
7.46219e-05
7.46037e-05
7.45781e-05
7.45447e-05
7.45046e-05
7.44591e-05
7.44071e-05
7.43479e-05
7.42845e-05
7.42213e-05
7.41569e-05
7.77111e-06
1.8072e-05
2.85634e-05
3.78982e-05
4.55332e-05
5.13579e-05
5.57497e-05
5.8992e-05
6.14249e-05
6.31957e-05
6.44931e-05
6.54097e-05
6.60673e-05
6.6528e-05
6.68598e-05
6.70939e-05
6.72628e-05
6.73816e-05
6.74665e-05
6.75258e-05
6.75684e-05
6.75982e-05
6.76204e-05
6.76359e-05
6.76483e-05
6.76585e-05
6.76661e-05
6.76716e-05
6.76754e-05
6.76765e-05
6.76765e-05
6.76749e-05
6.76708e-05
6.76628e-05
6.76509e-05
6.76357e-05
6.76182e-05
6.75992e-05
6.75797e-05
6.75606e-05
4.70544e-07
9.93396e-07
1.72983e-06
2.87771e-06
3.9032e-06
5.22877e-06
6.32726e-06
7.42344e-06
8.3966e-06
9.31999e-06
1.01501e-05
1.08998e-05
1.15547e-05
1.21272e-05
1.26274e-05
1.30739e-05
1.34753e-05
1.38344e-05
1.41482e-05
1.44176e-05
1.46494e-05
1.48523e-05
1.50346e-05
1.52014e-05
1.53521e-05
1.54851e-05
1.55983e-05
1.56936e-05
1.57767e-05
1.5853e-05
1.5925e-05
1.59955e-05
1.60635e-05
1.61241e-05
1.6174e-05
1.62123e-05
1.6239e-05
1.62563e-05
1.62679e-05
1.62769e-05
4.47201e-07
7.47161e-07
1.13044e-06
1.81657e-06
2.21115e-06
2.86702e-06
3.30131e-06
3.82097e-06
4.24095e-06
4.66413e-06
5.02728e-06
5.37498e-06
5.69538e-06
5.99564e-06
6.26447e-06
6.50792e-06
6.7335e-06
6.9477e-06
7.14783e-06
7.32895e-06
7.48979e-06
7.63387e-06
7.76897e-06
7.90052e-06
8.02705e-06
8.14289e-06
8.24317e-06
8.32781e-06
8.40107e-06
8.46942e-06
8.54074e-06
8.61697e-06
8.69424e-06
8.7651e-06
8.81916e-06
8.84955e-06
8.85894e-06
8.85878e-06
8.85766e-06
8.85658e-06
4.49447e-07
8.05174e-07
1.25071e-06
2.04152e-06
2.51468e-06
3.28627e-06
3.81379e-06
4.42054e-06
4.90976e-06
5.39552e-06
5.80926e-06
6.19403e-06
6.54068e-06
6.86276e-06
7.14901e-06
7.40383e-06
7.63293e-06
7.8456e-06
8.0422e-06
8.2195e-06
8.37523e-06
8.51214e-06
8.63675e-06
8.75492e-06
8.86755e-06
8.97102e-06
9.06097e-06
9.13521e-06
9.19584e-06
9.25051e-06
9.30747e-06
9.37015e-06
9.43553e-06
9.493e-06
9.53059e-06
9.54545e-06
9.54676e-06
9.54556e-06
9.54383e-06
9.5409e-06
4.48069e-07
7.77299e-07
1.19129e-06
1.92801e-06
2.3577e-06
3.07033e-06
3.5501e-06
4.11764e-06
4.57252e-06
5.03089e-06
5.42046e-06
5.78592e-06
6.11675e-06
6.42641e-06
6.70151e-06
6.94695e-06
7.16897e-06
7.37649e-06
7.56928e-06
7.74312e-06
7.89567e-06
8.03031e-06
8.15403e-06
8.27237e-06
8.38554e-06
8.48936e-06
8.57919e-06
8.65295e-06
8.71361e-06
8.76972e-06
8.82941e-06
8.89539e-06
8.96318e-06
9.02092e-06
9.05717e-06
9.07054e-06
9.07134e-06
9.07016e-06
9.06849e-06
9.0656e-06
4.47988e-07
7.75761e-07
1.18828e-06
1.92272e-06
2.35095e-06
3.06132e-06
3.53984e-06
4.10511e-06
4.55939e-06
5.01642e-06
5.40492e-06
5.7691e-06
6.09911e-06
6.40788e-06
6.68201e-06
6.92653e-06
7.14764e-06
7.35447e-06
7.54649e-06
7.71949e-06
7.87124e-06
8.00518e-06
8.12829e-06
8.24612e-06
8.35892e-06
8.46236e-06
8.55168e-06
8.62485e-06
8.68503e-06
8.74094e-06
8.80073e-06
8.86682e-06
8.93454e-06
8.99195e-06
9.02778e-06
9.04084e-06
9.04157e-06
9.0404e-06
9.03878e-06
9.03597e-06
4.49517e-07
8.06655e-07
1.25373e-06
2.04715e-06
2.52209e-06
3.29647e-06
3.8255e-06
4.43484e-06
4.92508e-06
5.41252e-06
5.82745e-06
6.21385e-06
6.56134e-06
6.8846e-06
7.17185e-06
7.42777e-06
7.65774e-06
7.87113e-06
8.06852e-06
8.24655e-06
8.40293e-06
8.54046e-06
8.66568e-06
8.78427e-06
8.89718e-06
9.00092e-06
9.09124e-06
9.16594e-06
9.22699e-06
9.28189e-06
9.33886e-06
9.40138e-06
9.46664e-06
9.52423e-06
9.56223e-06
9.57755e-06
9.57903e-06
9.57786e-06
9.57613e-06
9.57319e-06
4.47264e-07
7.46213e-07
1.12838e-06
1.8126e-06
2.20645e-06
2.86117e-06
3.29516e-06
3.81484e-06
4.23474e-06
4.65798e-06
5.02153e-06
5.36945e-06
5.68983e-06
5.99032e-06
6.25946e-06
6.50305e-06
6.72856e-06
6.94274e-06
7.14306e-06
7.32443e-06
7.48526e-06
7.62941e-06
7.76439e-06
7.89598e-06
8.02267e-06
8.13865e-06
8.23912e-06
8.3239e-06
8.39728e-06
8.46575e-06
8.53713e-06
8.61351e-06
8.69091e-06
8.76195e-06
8.81639e-06
8.84738e-06
8.85734e-06
8.85732e-06
8.85621e-06
8.85515e-06
4.7064e-07
9.94785e-07
1.7326e-06
2.88329e-06
3.91011e-06
5.23888e-06
6.33975e-06
7.43848e-06
8.41336e-06
9.3394e-06
1.01719e-05
1.09236e-05
1.15797e-05
1.21542e-05
1.2656e-05
1.31042e-05
1.35072e-05
1.3867e-05
1.41826e-05
1.4453e-05
1.4686e-05
1.48901e-05
1.50734e-05
1.52414e-05
1.53924e-05
1.55264e-05
1.56405e-05
1.57368e-05
1.58209e-05
1.58974e-05
1.597e-05
1.60413e-05
1.6109e-05
1.61691e-05
1.622e-05
1.62599e-05
1.62876e-05
1.63051e-05
1.63168e-05
1.63264e-05
7.77111e-06
1.80727e-05
2.85632e-05
3.79e-05
4.55357e-05
5.13614e-05
5.57536e-05
5.89965e-05
6.14297e-05
6.32009e-05
6.44987e-05
6.54155e-05
6.60733e-05
6.65342e-05
6.68661e-05
6.71003e-05
6.72692e-05
6.7388e-05
6.74729e-05
6.75322e-05
6.75747e-05
6.76043e-05
6.76263e-05
6.76417e-05
6.76534e-05
6.76634e-05
6.76707e-05
6.76746e-05
6.76763e-05
6.76775e-05
6.76776e-05
6.76753e-05
6.76704e-05
6.76616e-05
6.76494e-05
6.76343e-05
6.7617e-05
6.75984e-05
6.75792e-05
6.75603e-05
7.76832e-06
1.80617e-05
2.84637e-05
3.77792e-05
4.53586e-05
5.11562e-05
5.54836e-05
5.87025e-05
6.11004e-05
6.28606e-05
6.41368e-05
6.50403e-05
6.56782e-05
6.6123e-05
6.6436e-05
6.66531e-05
6.68034e-05
6.69041e-05
6.69706e-05
6.70107e-05
6.70347e-05
6.70476e-05
6.70477e-05
6.70453e-05
6.70395e-05
6.70325e-05
6.7024e-05
6.70136e-05
6.70014e-05
6.69877e-05
6.6972e-05
6.69539e-05
6.69331e-05
6.69092e-05
6.68825e-05
6.68532e-05
6.68222e-05
6.67904e-05
6.67589e-05
6.67288e-05
4.55905e-07
6.6595e-07
1.15015e-06
1.84013e-06
2.75831e-06
3.74719e-06
4.69712e-06
5.59047e-06
6.43897e-06
7.24699e-06
8.00634e-06
8.69783e-06
9.31027e-06
9.84494e-06
1.03196e-05
1.07546e-05
1.1158e-05
1.1526e-05
1.18501e-05
1.2129e-05
1.23703e-05
1.25863e-05
1.27858e-05
1.29734e-05
1.31452e-05
1.32967e-05
1.34247e-05
1.35328e-05
1.36281e-05
1.37169e-05
1.38048e-05
1.38931e-05
1.39766e-05
1.40525e-05
1.41142e-05
1.41574e-05
1.41846e-05
1.42011e-05
1.42089e-05
1.42115e-05
4.35764e-07
4.36029e-07
4.37631e-07
4.43198e-07
4.54705e-07
4.81224e-07
5.12533e-07
5.60707e-07
6.20124e-07
6.93526e-07
7.67359e-07
8.48638e-07
9.38562e-07
1.03098e-06
1.11625e-06
1.19749e-06
1.28408e-06
1.38019e-06
1.47804e-06
1.5667e-06
1.64235e-06
1.71212e-06
1.78776e-06
1.87408e-06
1.96559e-06
2.04961e-06
2.12029e-06
2.17687e-06
2.2289e-06
2.28534e-06
2.35411e-06
2.43391e-06
2.51752e-06
2.59528e-06
2.65833e-06
2.7007e-06
2.72425e-06
2.73148e-06
2.73149e-06
2.73189e-06
4.35756e-07
4.36032e-07
4.37471e-07
4.42914e-07
4.51487e-07
4.71802e-07
4.9206e-07
5.25532e-07
5.61033e-07
6.09436e-07
6.53662e-07
6.99783e-07
7.5128e-07
8.09863e-07
8.65328e-07
9.15047e-07
9.63907e-07
1.01856e-06
1.07744e-06
1.13362e-06
1.1821e-06
1.22513e-06
1.26968e-06
1.32061e-06
1.37594e-06
1.42861e-06
1.4726e-06
1.50737e-06
1.53801e-06
1.57256e-06
1.61648e-06
1.66851e-06
1.72199e-06
1.76863e-06
1.80168e-06
1.81929e-06
1.8249e-06
1.82512e-06
1.82488e-06
1.82467e-06
4.35752e-07
4.3598e-07
4.37236e-07
4.42069e-07
4.49558e-07
4.67433e-07
4.84912e-07
5.1444e-07
5.45745e-07
5.88959e-07
6.28132e-07
6.69536e-07
7.16682e-07
7.70495e-07
8.20943e-07
8.66067e-07
9.11156e-07
9.62364e-07
1.01736e-06
1.06918e-06
1.11357e-06
1.15343e-06
1.1956e-06
1.24411e-06
1.29629e-06
1.3452e-06
1.38538e-06
1.41698e-06
1.44565e-06
1.47935e-06
1.52241e-06
1.57246e-06
1.62262e-06
1.66463e-06
1.69266e-06
1.70612e-06
1.70935e-06
1.70922e-06
1.70899e-06
1.70878e-06
4.35752e-07
4.35977e-07
4.37224e-07
4.42027e-07
4.49472e-07
4.67227e-07
4.84685e-07
5.13879e-07
5.45156e-07
5.88257e-07
6.27167e-07
6.68316e-07
7.15354e-07
7.69013e-07
8.19252e-07
8.64131e-07
9.09034e-07
9.60114e-07
1.01496e-06
1.06659e-06
1.11076e-06
1.15041e-06
1.19239e-06
1.24081e-06
1.29289e-06
1.34162e-06
1.38157e-06
1.41292e-06
1.44144e-06
1.47508e-06
1.51816e-06
1.56814e-06
1.61812e-06
1.65986e-06
1.68756e-06
1.70077e-06
1.70385e-06
1.70372e-06
1.70349e-06
1.70328e-06
4.35756e-07
4.36034e-07
4.37483e-07
4.42959e-07
4.51584e-07
4.72041e-07
4.92324e-07
5.26178e-07
5.61721e-07
6.10307e-07
6.5481e-07
7.01237e-07
7.52872e-07
8.11618e-07
8.67374e-07
9.17364e-07
9.66406e-07
1.02123e-06
1.0803e-06
1.1367e-06
1.18542e-06
1.22868e-06
1.2734e-06
1.32445e-06
1.37989e-06
1.43275e-06
1.47699e-06
1.512e-06
1.54284e-06
1.57743e-06
1.62138e-06
1.67345e-06
1.72705e-06
1.77395e-06
1.80732e-06
1.82525e-06
1.83108e-06
1.8313e-06
1.83108e-06
1.83087e-06
4.35764e-07
4.36027e-07
4.37624e-07
4.43173e-07
4.5465e-07
4.81037e-07
5.12507e-07
5.6058e-07
6.1959e-07
6.93143e-07
7.67248e-07
8.48241e-07
9.37879e-07
1.0305e-06
1.11595e-06
1.19692e-06
1.28338e-06
1.37961e-06
1.47752e-06
1.56602e-06
1.64161e-06
1.71157e-06
1.78723e-06
1.87336e-06
1.96481e-06
2.04911e-06
2.11984e-06
2.17619e-06
2.22826e-06
2.28483e-06
2.35354e-06
2.43308e-06
2.51668e-06
2.5945e-06
2.65763e-06
2.7004e-06
2.72329e-06
2.73033e-06
2.73007e-06
2.73055e-06
4.55906e-07
6.65972e-07
1.15019e-06
1.8402e-06
2.75811e-06
3.74744e-06
4.69786e-06
5.59103e-06
6.43904e-06
7.24735e-06
8.00684e-06
8.69827e-06
9.31025e-06
9.84516e-06
1.03199e-05
1.07546e-05
1.11579e-05
1.15259e-05
1.18502e-05
1.2129e-05
1.23702e-05
1.25863e-05
1.27865e-05
1.29737e-05
1.31459e-05
1.32975e-05
1.34261e-05
1.35341e-05
1.36287e-05
1.37181e-05
1.38059e-05
1.38929e-05
1.39773e-05
1.40524e-05
1.41133e-05
1.41579e-05
1.4186e-05
1.42011e-05
1.42096e-05
1.42138e-05
7.76832e-06
1.80624e-05
2.84636e-05
3.77788e-05
4.53584e-05
5.11564e-05
5.54837e-05
5.87025e-05
6.11002e-05
6.28604e-05
6.41365e-05
6.50401e-05
6.5678e-05
6.61228e-05
6.64358e-05
6.66531e-05
6.68035e-05
6.69043e-05
6.69709e-05
6.70112e-05
6.70353e-05
6.70483e-05
6.70486e-05
6.70462e-05
6.70403e-05
6.70332e-05
6.70244e-05
6.70135e-05
6.70009e-05
6.69867e-05
6.69706e-05
6.69522e-05
6.69313e-05
6.69076e-05
6.68812e-05
6.68526e-05
6.68225e-05
6.67917e-05
6.67611e-05
6.67318e-05
7.76831e-06
1.80499e-05
2.84584e-05
3.77639e-05
4.5327e-05
5.11102e-05
5.54187e-05
5.86252e-05
6.10049e-05
6.27514e-05
6.40091e-05
6.48981e-05
6.55188e-05
6.59492e-05
6.62463e-05
6.64494e-05
6.65842e-05
6.66719e-05
6.67218e-05
6.67508e-05
6.67599e-05
6.67557e-05
6.67463e-05
6.67308e-05
6.6713e-05
6.66928e-05
6.66706e-05
6.66472e-05
6.66227e-05
6.65967e-05
6.65689e-05
6.65386e-05
6.65057e-05
6.64698e-05
6.64312e-05
6.63902e-05
6.63479e-05
6.63051e-05
6.6263e-05
6.62227e-05
4.558e-07
6.65539e-07
1.14961e-06
1.83903e-06
2.75719e-06
3.74401e-06
4.69208e-06
5.58331e-06
6.42991e-06
7.23653e-06
7.99201e-06
8.68044e-06
9.28847e-06
9.81918e-06
1.02906e-05
1.07225e-05
1.1123e-05
1.14877e-05
1.18077e-05
1.20826e-05
1.23204e-05
1.2533e-05
1.27304e-05
1.29159e-05
1.30852e-05
1.32332e-05
1.33575e-05
1.34623e-05
1.35548e-05
1.36417e-05
1.37284e-05
1.38142e-05
1.38967e-05
1.39698e-05
1.40264e-05
1.40658e-05
1.40893e-05
1.4101e-05
1.41041e-05
1.41026e-05
4.3599e-07
4.35385e-07
4.35644e-07
4.37138e-07
4.41739e-07
4.5193e-07
4.72143e-07
4.99096e-07
5.36937e-07
5.86583e-07
6.43381e-07
7.06921e-07
7.76671e-07
8.47323e-07
9.14193e-07
9.7995e-07
1.05221e-06
1.13271e-06
1.21389e-06
1.28599e-06
1.34693e-06
1.40426e-06
1.46848e-06
1.54309e-06
1.62128e-06
1.69179e-06
1.74965e-06
1.79637e-06
1.83964e-06
1.88987e-06
1.95074e-06
2.02148e-06
2.09468e-06
2.16153e-06
2.21555e-06
2.25173e-06
2.2708e-06
2.27742e-06
2.27782e-06
2.27757e-06
4.35899e-07
4.35474e-07
4.3497e-07
4.34458e-07
4.34088e-07
4.33901e-07
4.33484e-07
4.33146e-07
4.33124e-07
4.33211e-07