/*--------------------------------*- C++ -*----------------------------------*\
  =========                 |
  \\      /  F ield         | OpenFOAM: The Open Source CFD Toolbox
   \\    /   O peration     | Website:  https://openfoam.org
    \\  /    A nd           | Version:  7
     \\/     M anipulation  |
\*---------------------------------------------------------------------------*/
FoamFile
{
    version     2.0;
    format      ascii;
    class       volVectorField;
    location    "0.0075";
    object      U;
}
// * * * * * * * * * * * * * * * * * * * * * * * * * * * * * * * * * * * * * //

dimensions      [0 1 -1 0 0 0 0];

internalField   nonuniform List<vector> 
1440
(
(9.86126 0.0301349 0)
(9.74801 0.118604 0)
(9.53667 0.193961 0)
(9.27579 0.241569 0)
(8.97412 0.278515 0)
(8.6296 0.313641 0)
(8.25068 0.333714 0)
(7.85633 0.326981 0)
(7.46801 0.304043 0)
(7.09548 0.281591 0)
(6.74155 0.259667 0)
(6.40886 0.226664 0)
(6.10467 0.178329 0)
(5.84064 0.120791 0)
(5.63244 0.0644732 0)
(5.4854 0.0213832 0)
(5.38939 -0.00206368 0)
(5.32778 -0.00937428 0)
(5.28611 -0.0082635 0)
(5.25422 -0.00404611 0)
(5.22506 0.000852791 0)
(5.19442 0.00493055 0)
(5.16096 0.00745461 0)
(5.12525 0.00865339 0)
(5.0882 0.00913152 0)
(5.05045 0.00931129 0)
(5.01234 0.00936024 0)
(4.97413 0.00934762 0)
(4.93596 0.00932322 0)
(4.89787 0.0093081 0)
(4.85985 0.00930092 0)
(4.82188 0.00929708 0)
(4.78398 0.00929672 0)
(4.74613 0.00930144 0)
(4.70831 0.00930985 0)
(4.67054 0.00932014 0)
(4.6328 0.00933243 0)
(4.5951 0.00934734 0)
(4.55742 0.00936346 0)
(4.51979 0.0093787 0)
(4.48218 0.00939235 0)
(4.44462 0.00940462 0)
(4.40709 0.00941733 0)
(4.36961 0.00943108 0)
(4.33218 0.00944441 0)
(4.29479 0.00945715 0)
(4.25745 0.00946975 0)
(4.22017 0.00948142 0)
(4.18294 0.00949191 0)
(4.14578 0.00950241 0)
(4.10867 0.0095132 0)
(4.07163 0.00952381 0)
(4.03466 0.0095339 0)
(3.99776 0.00954261 0)
(3.96094 0.00955067 0)
(3.92419 0.00955918 0)
(3.88752 0.00956728 0)
(3.85093 0.00957476 0)
(3.81443 0.00958214 0)
(3.77802 0.00958861 0)
(3.74169 0.00959383 0)
(3.70547 0.00959875 0)
(3.66934 0.00960352 0)
(3.63331 0.00960874 0)
(3.59738 0.009613 0)
(3.56156 0.00961523 0)
(3.52584 0.00961733 0)
(3.49024 0.00961938 0)
(3.45475 0.00962087 0)
(3.41938 0.00962239 0)
(3.38413 0.00962384 0)
(3.349 0.0096241 0)
(3.314 0.00962306 0)
(3.27913 0.00962159 0)
(3.24438 0.00962062 0)
(3.20977 0.00961942 0)
(3.1753 0.00961661 0)
(3.14096 0.00961263 0)
(3.10677 0.00960823 0)
(3.07273 0.00960364 0)
(3.03883 0.00959946 0)
(3.00508 0.00959528 0)
(2.97149 0.00959038 0)
(2.93806 0.00958413 0)
(2.90478 0.00957708 0)
(2.87166 0.00957042 0)
(2.83872 0.00956369 0)
(2.80594 0.00955626 0)
(2.77333 0.00954746 0)
(2.7409 0.00953747 0)
(2.70864 0.00952775 0)
(2.67657 0.00951856 0)
(2.64468 0.00950873 0)
(2.61298 0.0094981 0)
(2.58147 0.00948726 0)
(2.55015 0.00947543 0)
(2.51903 0.00946233 0)
(2.48811 0.00944857 0)
(2.45739 0.00943504 0)
(2.42687 0.00942089 0)
(2.39657 0.00940679 0)
(2.36648 0.00939001 0)
(2.3366 0.00937386 0)
(2.30695 0.00935397 0)
(2.2775 0.00934058 0)
(2.24832 0.00931523 0)
(2.21931 0.00930858 0)
(2.1906 0.00927079 0)
(2.16203 0.00927434 0)
(2.13384 0.00922077 0)
(2.1057 0.00923656 0)
(2.07807 0.00915918 0)
(2.05036 0.00918873 0)
(2.02336 0.00909437 0)
(1.9962 0.00904457 0)
(1.9697 0.00907589 0)
(1.94393 0.008619 0)
(1.91673 0.00885706 0)
(1.89679 0.00717431 0)
(1.86109 0.00608013 0)
(9.87698 0.0418195 0)
(9.87525 0.11693 0)
(9.8903 0.181689 0)
(9.92559 0.232604 0)
(9.96876 0.274902 0)
(10.011 0.317074 0)
(10.0474 0.355803 0)
(10.0717 0.379512 0)
(10.0794 0.385047 0)
(10.0694 0.380711 0)
(10.0471 0.372665 0)
(10.0209 0.358299 0)
(9.99135 0.332935 0)
(9.95059 0.292692 0)
(9.89576 0.235475 0)
(9.83451 0.167821 0)
(9.77533 0.10441 0)
(9.72119 0.0564258 0)
(9.6727 0.0259196 0)
(9.6302 0.0100365 0)
(9.59281 0.00477016 0)
(9.55847 0.00555262 0)
(9.52569 0.00832359 0)
(9.49392 0.0108544 0)
(9.46285 0.0125958 0)
(9.43217 0.0136312 0)
(9.40169 0.014129 0)
(9.37133 0.0142888 0)
(9.3411 0.0142947 0)
(9.31098 0.0142597 0)
(9.28093 0.0142249 0)
(9.25094 0.0141993 0)
(9.22101 0.0141854 0)
(9.19111 0.0141841 0)
(9.16127 0.0141938 0)
(9.13146 0.014212 0)
(9.1017 0.014236 0)
(9.07197 0.0142642 0)
(9.04229 0.0142959 0)
(9.01266 0.0143303 0)
(8.98308 0.0143652 0)
(8.95355 0.0143988 0)
(8.92407 0.014431 0)
(8.89464 0.0144631 0)
(8.86527 0.0144956 0)
(8.83596 0.014528 0)
(8.80671 0.0145597 0)
(8.77753 0.0145907 0)
(8.74842 0.0146206 0)
(8.71937 0.014649 0)
(8.6904 0.0146765 0)
(8.6615 0.0147037 0)
(8.63267 0.0147308 0)
(8.60393 0.0147571 0)
(8.57527 0.0147818 0)
(8.54669 0.0148048 0)
(8.5182 0.0148273 0)
(8.4898 0.01485 0)
(8.4615 0.0148723 0)
(8.43328 0.0148939 0)
(8.40517 0.0149141 0)
(8.37715 0.0149327 0)
(8.34923 0.0149495 0)
(8.32142 0.0149657 0)
(8.29372 0.0149822 0)
(8.26612 0.0149978 0)
(8.23864 0.0150113 0)
(8.21127 0.0150232 0)
(8.18401 0.0150344 0)
(8.15687 0.0150448 0)
(8.12985 0.0150542 0)
(8.10296 0.015063 0)
(8.07619 0.0150712 0)
(8.04955 0.0150778 0)
(8.02303 0.0150822 0)
(7.99665 0.0150862 0)
(7.9704 0.0150905 0)
(7.94429 0.0150936 0)
(7.91832 0.0150944 0)
(7.89249 0.0150934 0)
(7.8668 0.0150918 0)
(7.84126 0.0150899 0)
(7.81587 0.0150876 0)
(7.79062 0.0150846 0)
(7.76554 0.01508 0)
(7.7406 0.0150735 0)
(7.71583 0.0150661 0)
(7.69122 0.0150584 0)
(7.66677 0.0150501 0)
(7.64249 0.01504 0)
(7.61837 0.0150278 0)
(7.59443 0.0150144 0)
(7.57066 0.015001 0)
(7.54707 0.0149871 0)
(7.52366 0.0149721 0)
(7.50043 0.0149561 0)
(7.47739 0.0149392 0)
(7.45453 0.0149208 0)
(7.43186 0.0149004 0)
(7.40939 0.0148777 0)
(7.38711 0.0148559 0)
(7.36504 0.0148303 0)
(7.34314 0.0148078 0)
(7.32149 0.0147745 0)
(7.29999 0.0147506 0)
(7.27877 0.0147104 0)
(7.25765 0.0146887 0)
(7.23693 0.0146382 0)
(7.21613 0.0146216 0)
(7.196 0.014555 0)
(7.17545 0.0145218 0)
(7.15598 0.0144889 0)
(7.13574 0.0143271 0)
(7.11682 0.0144138 0)
(7.09722 0.0140476 0)
(7.07835 0.014094 0)
(7.06049 0.013508 0)
(7.03979 0.0132521 0)
(7.02747 0.0118891 0)
(6.99612 0.00892162 0)
(9.87628 0.0246009 0)
(9.85917 0.0721896 0)
(9.84882 0.117103 0)
(9.86254 0.156071 0)
(9.89677 0.188735 0)
(9.93989 0.218995 0)
(9.98805 0.246686 0)
(10.0442 0.266001 0)
(10.1073 0.274705 0)
(10.1686 0.275945 0)
(10.2238 0.270663 0)
(10.2773 0.25606 0)
(10.3281 0.23024 0)
(10.3656 0.193297 0)
(10.3826 0.1478 0)
(10.3817 0.101396 0)
(10.3662 0.0638045 0)
(10.3368 0.0393929 0)
(10.2972 0.025723 0)
(10.2551 0.0186624 0)
(10.216 0.0155545 0)
(10.1807 0.0146156 0)
(10.1481 0.014317 0)
(10.1177 0.0138932 0)
(10.0892 0.0133866 0)
(10.0617 0.0129777 0)
(10.0346 0.0126704 0)
(10.0077 0.0124213 0)
(9.98094 0.0122313 0)
(9.95425 0.0121068 0)
(9.92761 0.0120332 0)
(9.901 0.0119917 0)
(9.87445 0.0119718 0)
(9.84794 0.0119681 0)
(9.82149 0.0119768 0)
(9.7951 0.0119937 0)
(9.76877 0.0120156 0)
(9.74249 0.0120415 0)
(9.71628 0.0120708 0)
(9.69014 0.0121015 0)
(9.66406 0.0121316 0)
(9.63805 0.0121602 0)
(9.61211 0.0121878 0)
(9.58624 0.0122154 0)
(9.56045 0.0122433 0)
(9.53472 0.0122707 0)
(9.50908 0.0122973 0)
(9.48352 0.0123233 0)
(9.45804 0.0123482 0)
(9.43264 0.0123718 0)
(9.40733 0.0123949 0)
(9.3821 0.0124179 0)
(9.35697 0.0124404 0)
(9.33193 0.0124617 0)
(9.30698 0.0124817 0)
(9.28213 0.0125009 0)
(9.25738 0.01252 0)
(9.23273 0.0125386 0)
(9.20818 0.0125562 0)
(9.18374 0.0125729 0)
(9.15941 0.0125886 0)
(9.13518 0.012603 0)
(9.11107 0.0126164 0)
(9.08706 0.0126295 0)
(9.06318 0.0126423 0)
(9.03941 0.0126537 0)
(9.01575 0.0126636 0)
(8.99222 0.0126725 0)
(8.96881 0.0126811 0)
(8.94553 0.0126886 0)
(8.92237 0.0126953 0)
(8.89934 0.0127016 0)
(8.87644 0.0127069 0)
(8.85367 0.0127105 0)
(8.83103 0.0127129 0)
(8.80853 0.0127151 0)
(8.78616 0.012717 0)
(8.76394 0.0127174 0)
(8.74185 0.0127158 0)
(8.71991 0.0127134 0)
(8.69812 0.0127106 0)
(8.67647 0.0127073 0)
(8.65496 0.0127036 0)
(8.63361 0.012699 0)
(8.61242 0.0126928 0)
(8.59138 0.0126852 0)
(8.57049 0.0126772 0)
(8.54976 0.0126689 0)
(8.5292 0.0126594 0)
(8.5088 0.0126483 0)
(8.48856 0.0126358 0)
(8.4685 0.0126228 0)
(8.4486 0.0126097 0)
(8.42887 0.0125959 0)
(8.40932 0.0125808 0)
(8.38995 0.0125646 0)
(8.37075 0.0125476 0)
(8.35174 0.0125288 0)
(8.3329 0.0125087 0)
(8.31426 0.0124867 0)
(8.29579 0.0124655 0)
(8.27753 0.0124414 0)
(8.25943 0.0124176 0)
(8.24157 0.0123884 0)
(8.22383 0.0123612 0)
(8.2064 0.0123283 0)
(8.18899 0.0123005 0)
(8.17207 0.0122586 0)
(8.1549 0.0122307 0)
(8.13861 0.0121756 0)
(8.12155 0.0121268 0)
(8.10605 0.0120899 0)
(8.08903 0.0119414 0)
(8.07427 0.0119593 0)
(8.05759 0.0116391 0)
(8.04301 0.0115985 0)
(8.02757 0.011024 0)
(8.01132 0.0106929 0)
(8.00048 0.00957222 0)
(7.97419 0.00821114 0)
(9.87616 0.0172894 0)
(9.85764 0.0512203 0)
(9.84322 0.0835761 0)
(9.85053 0.112137 0)
(9.87928 0.135992 0)
(9.91664 0.156977 0)
(9.95448 0.175102 0)
(9.99786 0.187683 0)
(10.0507 0.193577 0)
(10.1038 0.193415 0)
(10.1507 0.187306 0)
(10.1981 0.175607 0)
(10.2474 0.15996 0)
(10.2868 0.14147 0)
(10.3081 0.11991 0)
(10.3148 0.0961836 0)
(10.3109 0.0733017 0)
(10.2952 0.0539606 0)
(10.2697 0.038802 0)
(10.2408 0.0275201 0)
(10.213 0.0198828 0)
(10.186 0.0152884 0)
(10.1587 0.0126567 0)
(10.1314 0.0111058 0)
(10.1046 0.0102078 0)
(10.0781 0.00972575 0)
(10.0515 0.00945775 0)
(10.0249 0.00927886 0)
(9.99836 0.00914979 0)
(9.97186 0.00906213 0)
(9.94539 0.00900483 0)
(9.91896 0.00896709 0)
(9.89258 0.00894382 0)
(9.86625 0.00893271 0)
(9.83997 0.00893122 0)
(9.81375 0.00893651 0)
(9.78759 0.00894659 0)
(9.7615 0.00896041 0)
(9.73547 0.008977 0)
(9.7095 0.0089951 0)
(9.6836 0.00901395 0)
(9.65777 0.00903339 0)
(9.63202 0.00905321 0)
(9.60633 0.00907317 0)
(9.58073 0.00909311 0)
(9.55519 0.00911279 0)
(9.52974 0.00913207 0)
(9.50437 0.00915091 0)
(9.47908 0.00916917 0)
(9.45388 0.0091868 0)
(9.42877 0.00920406 0)
(9.40374 0.00922099 0)
(9.37881 0.00923725 0)
(9.35397 0.00925289 0)
(9.32923 0.00926802 0)
(9.30459 0.00928253 0)
(9.28004 0.00929656 0)
(9.2556 0.00931026 0)
(9.23127 0.00932359 0)
(9.20704 0.00933645 0)
(9.18291 0.00934859 0)
(9.1589 0.00935989 0)
(9.13501 0.00937061 0)
(9.11122 0.0093809 0)
(9.08756 0.00939067 0)
(9.06401 0.00939975 0)
(9.04058 0.00940805 0)
(9.01727 0.00941574 0)
(8.99409 0.00942299 0)
(8.97103 0.00942969 0)
(8.9481 0.00943582 0)
(8.92529 0.00944139 0)
(8.90262 0.00944616 0)
(8.88009 0.00945006 0)
(8.85768 0.00945322 0)
(8.83542 0.00945572 0)
(8.81329 0.00945749 0)
(8.7913 0.00945843 0)
(8.76945 0.00945871 0)
(8.74775 0.00945852 0)
(8.72619 0.00945784 0)
(8.70478 0.00945671 0)
(8.68352 0.00945514 0)
(8.66241 0.00945284 0)
(8.64146 0.00944966 0)
(8.62066 0.00944589 0)
(8.60002 0.00944168 0)
(8.57954 0.0094367 0)
(8.55922 0.00943077 0)
(8.53907 0.00942407 0)
(8.51908 0.0094167 0)
(8.49926 0.00940874 0)
(8.47961 0.00940025 0)
(8.46013 0.00939103 0)
(8.44083 0.0093809 0)
(8.42171 0.00936995 0)
(8.40276 0.00935822 0)
(8.38399 0.00934546 0)
(8.36541 0.00933181 0)
(8.34701 0.00931691 0)
(8.32879 0.00930117 0)
(8.31078 0.00928357 0)
(8.29293 0.00926535 0)
(8.27533 0.00924508 0)
(8.25783 0.00922443 0)
(8.24066 0.00920128 0)
(8.22348 0.00917779 0)
(8.20682 0.0091503 0)
(8.18988 0.0091204 0)
(8.17387 0.00908885 0)
(8.15701 0.00903527 0)
(8.1418 0.00900991 0)
(8.12493 0.0088941 0)
(8.11048 0.00886784 0)
(8.09385 0.00864787 0)
(8.07957 0.00854214 0)
(8.06407 0.00813385 0)
(8.04808 0.00784156 0)
(8.03705 0.00718056 0)
(8.01151 0.00650658 0)
(9.87609 0.0102348 0)
(9.85649 0.0302701 0)
(9.83995 0.0493646 0)
(9.84393 0.066436 0)
(9.86928 0.0805976 0)
(9.90417 0.0926986 0)
(9.93891 0.103163 0)
(9.97706 0.110441 0)
(10.0241 0.113525 0)
(10.073 0.113277 0)
(10.1169 0.11048 0)
(10.1606 0.10484 0)
(10.205 0.0961743 0)
(10.2393 0.0846984 0)
(10.2576 0.0706484 0)
(10.2665 0.0552397 0)
(10.2703 0.0409467 0)
(10.265 0.0297649 0)
(10.2492 0.021852 0)
(10.2278 0.0163812 0)
(10.2054 0.0127279 0)
(10.1818 0.0104629 0)
(10.1563 0.00906549 0)
(10.1299 0.00811317 0)
(10.1036 0.00743043 0)
(10.0774 0.00696217 0)
(10.051 0.00664781 0)
(10.0245 0.00642721 0)
(9.99801 0.0062692 0)
(9.97157 0.00616021 0)
(9.94516 0.00608747 0)
(9.91876 0.00603905 0)
(9.8924 0.00600745 0)
(9.86609 0.00598832 0)
(9.83983 0.00597863 0)
(9.81362 0.00597596 0)
(9.78746 0.00597831 0)
(9.76137 0.0059843 0)
(9.73534 0.00599302 0)
(9.70938 0.00600361 0)
(9.68348 0.00601513 0)
(9.65765 0.00602698 0)
(9.63189 0.00603894 0)
(9.60621 0.006051 0)
(9.5806 0.00606323 0)
(9.55507 0.00607548 0)
(9.52961 0.00608753 0)
(9.50424 0.00609932 0)
(9.47896 0.00611078 0)
(9.45375 0.00612171 0)
(9.42864 0.00613216 0)
(9.40361 0.0061424 0)
(9.37868 0.00615243 0)
(9.35384 0.00616217 0)
(9.3291 0.00617148 0)
(9.30445 0.00618028 0)
(9.27991 0.00618874 0)
(9.25547 0.00619701 0)
(9.23113 0.00620493 0)
(9.2069 0.00621246 0)
(9.18278 0.00621969 0)
(9.15877 0.00622657 0)
(9.13487 0.00623303 0)
(9.11109 0.00623919 0)
(9.08742 0.00624514 0)
(9.06387 0.00625082 0)
(9.04044 0.00625594 0)
(9.01713 0.00626052 0)
(8.99395 0.00626479 0)
(8.97089 0.0062687 0)
(8.94796 0.00627225 0)
(8.92515 0.00627567 0)
(8.90248 0.00627898 0)
(8.87995 0.00628193 0)
(8.85754 0.00628444 0)
(8.83527 0.00628667 0)
(8.81314 0.00628868 0)
(8.79116 0.00629016 0)
(8.76931 0.00629078 0)
(8.74761 0.00629068 0)
(8.72605 0.00629008 0)
(8.70464 0.00628903 0)
(8.68338 0.00628767 0)
(8.66227 0.00628602 0)
(8.64132 0.00628383 0)
(8.62052 0.00628106 0)
(8.59988 0.00627799 0)
(8.5794 0.00627474 0)
(8.55908 0.0062711 0)
(8.53893 0.00626693 0)
(8.51894 0.00626221 0)
(8.49912 0.00625699 0)
(8.47947 0.00625148 0)
(8.45999 0.00624572 0)
(8.44069 0.00623952 0)
(8.42157 0.00623276 0)
(8.40262 0.00622546 0)
(8.38386 0.00621746 0)
(8.36527 0.00620891 0)
(8.34688 0.00619974 0)
(8.32866 0.00619007 0)
(8.31065 0.00617944 0)
(8.29279 0.00616773 0)
(8.27519 0.0061547 0)
(8.25769 0.00614022 0)
(8.24052 0.00612427 0)
(8.22334 0.00610678 0)
(8.20669 0.00608703 0)
(8.18974 0.00606411 0)
(8.17372 0.00604081 0)
(8.15685 0.00600101 0)
(8.14163 0.0059766 0)
(8.12474 0.00589776 0)
(8.11027 0.00586255 0)
(8.09358 0.00571826 0)
(8.07927 0.00562808 0)
(8.06366 0.00537076 0)
(8.04764 0.00518138 0)
(8.03646 0.00480674 0)
(8.01121 0.00447062 0)
(9.87605 0.00344509 0)
(9.85592 0.0102183 0)
(9.83829 0.0167061 0)
(9.84067 0.0224905 0)
(9.86454 0.0273214 0)
(9.89814 0.0315617 0)
(9.93089 0.035145 0)
(9.96667 0.0373855 0)
(10.0122 0.0383532 0)
(10.06 0.0386286 0)
(10.1016 0.0379468 0)
(10.1422 0.035607 0)
(10.1845 0.0317758 0)
(10.2182 0.027313 0)
(10.2372 0.0227971 0)
(10.2479 0.018482 0)
(10.2545 0.014732 0)
(10.2526 0.0118095 0)
(10.2398 0.00959473 0)
(10.221 0.00783574 0)
(10.2007 0.00645856 0)
(10.1788 0.00546988 0)
(10.1545 0.00479137 0)
(10.1289 0.00431062 0)
(10.103 0.00396901 0)
(10.077 0.00374162 0)
(10.0508 0.00359554 0)
(10.0244 0.00349686 0)
(9.99795 0.00342648 0)
(9.97154 0.00337621 0)
(9.94514 0.00334041 0)
(9.91875 0.00331449 0)
(9.89239 0.00329562 0)
(9.86609 0.00328213 0)
(9.83983 0.00327278 0)
(9.81362 0.00326653 0)
(9.78747 0.00326267 0)
(9.76138 0.00326083 0)
(9.73535 0.00326069 0)
(9.70938 0.00326178 0)
(9.68348 0.00326366 0)
(9.65766 0.00326622 0)
(9.6319 0.00326947 0)
(9.60621 0.00327324 0)
(9.5806 0.00327728 0)
(9.55507 0.00328144 0)
(9.52962 0.00328561 0)
(9.50425 0.00328974 0)
(9.47896 0.00329372 0)
(9.45376 0.00329754 0)
(9.42864 0.00330135 0)
(9.40361 0.00330515 0)
(9.37868 0.00330873 0)
(9.35384 0.00331196 0)
(9.3291 0.00331494 0)
(9.30446 0.00331786 0)
(9.27991 0.00332078 0)
(9.25547 0.00332361 0)
(9.23113 0.00332624 0)
(9.2069 0.00332869 0)
(9.18278 0.00333099 0)
(9.15877 0.00333302 0)
(9.13487 0.00333482 0)
(9.11109 0.00333658 0)
(9.08742 0.00333829 0)
(9.06387 0.00333975 0)
(9.04044 0.00334097 0)
(9.01713 0.00334215 0)
(8.99394 0.00334319 0)
(8.97089 0.00334384 0)
(8.94795 0.00334407 0)
(8.92515 0.00334396 0)
(8.90248 0.00334346 0)
(8.87994 0.00334256 0)
(8.85754 0.00334141 0)
(8.83527 0.00334019 0)
(8.81314 0.00333895 0)
(8.79115 0.00333771 0)
(8.7693 0.00333658 0)
(8.7476 0.00333561 0)
(8.72604 0.00333465 0)
(8.70463 0.00333356 0)
(8.68337 0.00333231 0)
(8.66226 0.00333083 0)
(8.64131 0.00332898 0)
(8.62051 0.00332678 0)
(8.59987 0.00332436 0)
(8.57939 0.00332177 0)
(8.55907 0.00331881 0)
(8.53892 0.00331544 0)
(8.51893 0.0033118 0)
(8.49911 0.00330802 0)
(8.47946 0.00330408 0)
(8.45998 0.0032999 0)
(8.44068 0.00329549 0)
(8.42155 0.00329093 0)
(8.40261 0.00328615 0)
(8.38384 0.00328083 0)
(8.36525 0.00327486 0)
(8.34686 0.00326837 0)
(8.32864 0.0032615 0)
(8.31063 0.00325413 0)
(8.29277 0.00324615 0)
(8.27517 0.00323749 0)
(8.25767 0.00322799 0)
(8.2405 0.00321746 0)
(8.22332 0.00320556 0)
(8.20666 0.00319179 0)
(8.18971 0.00317567 0)
(8.17369 0.00315807 0)
(8.15682 0.00313497 0)
(8.14159 0.00311256 0)
(8.12468 0.00307668 0)
(8.1102 0.00304288 0)
(8.09348 0.00298628 0)
(8.07914 0.00292346 0)
(8.06348 0.00283267 0)
(8.04745 0.00271548 0)
(8.03621 0.00259977 0)
(8.0111 0.00239695 0)
(9.87605 -0.00320586 0)
(9.85592 -0.00942866 0)
(9.83831 -0.0152853 0)
(9.8407 -0.0204744 0)
(9.8646 -0.0248099 0)
(9.89822 -0.0285621 0)
(9.93099 -0.0316436 0)
(9.96675 -0.033574 0)
(10.0122 -0.0346303 0)
(10.0599 -0.0353849 0)
(10.1015 -0.0354293 0)
(10.142 -0.0339791 0)
(10.1843 -0.0311848 0)
(10.2181 -0.027797 0)
(10.2372 -0.0241142 0)
(10.2479 -0.0200982 0)
(10.2546 -0.0159746 0)
(10.2527 -0.0120976 0)
(10.2399 -0.00860452 0)
(10.221 -0.00557288 0)
(10.2007 -0.0031758 0)
(10.1787 -0.00152199 0)
(10.1544 -0.000511763 0)
(10.1287 5.85373e-05 0)
(10.1029 0.000351417 0)
(10.0769 0.000471385 0)
(10.0507 0.000497408 0)
(10.0243 0.000484542 0)
(9.99789 0.000459338 0)
(9.97149 0.000430867 0)
(9.9451 0.00040289 0)
(9.91872 0.000377605 0)
(9.89237 0.000355831 0)
(9.86607 0.000337459 0)
(9.83981 0.000322007 0)
(9.81361 0.000309043 0)
(9.78746 0.000298233 0)
(9.76137 0.000289077 0)
(9.73534 0.0002811 0)
(9.70938 0.000274237 0)
(9.68348 0.000268567 0)
(9.65765 0.000263905 0)
(9.6319 0.000259883 0)
(9.60621 0.00025619 0)
(9.5806 0.000252693 0)
(9.55507 0.000249349 0)
(9.52962 0.000246 0)
(9.50425 0.000242573 0)
(9.47896 0.000239207 0)
(9.45376 0.000235886 0)
(9.42864 0.000232393 0)
(9.40362 0.000228743 0)
(9.37869 0.000225183 0)
(9.35385 0.000221796 0)
(9.3291 0.000218491 0)
(9.30446 0.000215178 0)
(9.27992 0.000211806 0)
(9.25547 0.00020848 0)
(9.23114 0.000205363 0)
(9.20691 0.000202424 0)
(9.18278 0.000199611 0)
(9.15877 0.000197048 0)
(9.13487 0.000194721 0)
(9.11109 0.000192488 0)
(9.08742 0.000190391 0)
(9.06387 0.000188527 0)
(9.04044 0.000186867 0)
(9.01713 0.000185356 0)
(8.99395 0.000184101 0)
(8.97089 0.000183222 0)
(8.94795 0.000182678 0)
(8.92515 0.000182348 0)
(8.90248 0.000182271 0)
(8.87994 0.000182461 0)
(8.85754 0.000182737 0)
(8.83527 0.000182854 0)
(8.81314 0.000182755 0)
(8.79115 0.000182471 0)
(8.7693 0.000181922 0)
(8.7476 0.000181081 0)
(8.72604 0.000180089 0)
(8.70464 0.000179149 0)
(8.68338 0.000178293 0)
(8.66227 0.000177559 0)
(8.64131 0.000177067 0)
(8.62051 0.000176837 0)
(8.59987 0.000176671 0)
(8.57939 0.000176504 0)
(8.55907 0.000176509 0)
(8.53892 0.000176781 0)
(8.51893 0.00017722 0)
(8.49911 0.000177723 0)
(8.47946 0.000178187 0)
(8.45998 0.000178627 0)
(8.44068 0.000179011 0)
(8.42155 0.000179221 0)
(8.4026 0.000179323 0)
(8.38384 0.000179562 0)
(8.36525 0.000179798 0)
(8.34686 0.000179748 0)
(8.32864 0.000179362 0)
(8.31063 0.000178611 0)
(8.29277 0.000177432 0)
(8.27517 0.000175605 0)
(8.25766 0.000173386 0)
(8.2405 0.000170379 0)
(8.22331 0.000167319 0)
(8.20665 0.000162919 0)
(8.1897 0.000159254 0)
(8.17367 0.000151734 0)
(8.1568 0.000149959 0)
(8.14157 0.000136757 0)
(8.12466 0.000144441 0)
(8.11018 0.000122568 0)
(8.09345 0.000155515 0)
(8.07911 0.000124497 0)
(8.06344 0.000208995 0)
(8.0474 0.000158563 0)
(8.03615 0.000299412 0)
(8.011 0.000193349 0)
(9.87609 -0.00999823 0)
(9.8565 -0.029493 0)
(9.84 -0.0479649 0)
(9.84403 -0.0644458 0)
(9.86944 -0.0781185 0)
(9.90441 -0.0897248 0)
(9.93921 -0.0996563 0)
(9.97731 -0.106591 0)
(10.0242 -0.109734 0)
(10.0729 -0.109912 0)
(10.1165 -0.107802 0)
(10.16 -0.103103 0)
(10.2044 -0.0956083 0)
(10.2388 -0.0853547 0)
(10.2575 -0.072237 0)
(10.2667 -0.0571199 0)
(10.2706 -0.0423536 0)
(10.2653 -0.0300884 0)
(10.2493 -0.0208223 0)
(10.2278 -0.0140599 0)
(10.2052 -0.00939666 0)
(10.1815 -0.00649782 0)
(10.156 -0.00481368 0)
(10.1296 -0.00381506 0)
(10.1033 -0.00321739 0)
(10.0772 -0.00288535 0)
(10.0508 -0.00271065 0)
(10.0243 -0.00261197 0)
(9.9979 -0.00255339 0)
(9.97149 -0.00252368 0)
(9.9451 -0.00251385 0)
(9.91871 -0.00251531 0)
(9.89237 -0.00252326 0)
(9.86606 -0.00253538 0)
(9.83981 -0.00255015 0)
(9.8136 -0.00256632 0)
(9.78746 -0.00258288 0)
(9.76137 -0.00259932 0)
(9.73534 -0.00261555 0)
(9.70937 -0.00263139 0)
(9.68348 -0.00264651 0)
(9.65765 -0.00266071 0)
(9.63189 -0.00267397 0)
(9.60621 -0.00268647 0)
(9.5806 -0.00269845 0)
(9.55507 -0.00270994 0)
(9.52961 -0.00272102 0)
(9.50424 -0.00273185 0)
(9.47896 -0.00274228 0)
(9.45375 -0.00275221 0)
(9.42864 -0.00276186 0)
(9.40361 -0.00277143 0)
(9.37868 -0.00278078 0)
(9.35384 -0.00278987 0)
(9.3291 -0.00279873 0)
(9.30446 -0.00280734 0)
(9.27991 -0.0028158 0)
(9.25547 -0.00282409 0)
(9.23113 -0.00283207 0)
(9.2069 -0.00283978 0)
(9.18278 -0.00284728 0)
(9.15877 -0.00285437 0)
(9.13487 -0.00286105 0)
(9.11109 -0.00286748 0)
(9.08742 -0.00287375 0)
(9.06387 -0.00287975 0)
(9.04044 -0.00288541 0)
(9.01713 -0.00289079 0)
(8.99395 -0.00289605 0)
(8.97089 -0.0029012 0)
(8.94796 -0.00290624 0)
(8.92516 -0.00291115 0)
(8.90249 -0.00291578 0)
(8.87995 -0.00292001 0)
(8.85754 -0.00292383 0)
(8.83528 -0.00292723 0)
(8.81315 -0.00293019 0)
(8.79116 -0.00293262 0)
(8.76931 -0.00293438 0)
(8.7476 -0.00293558 0)
(8.72605 -0.00293639 0)
(8.70464 -0.00293694 0)
(8.68338 -0.00293738 0)
(8.66227 -0.00293774 0)
(8.64131 -0.00293782 0)
(8.62052 -0.00293746 0)
(8.59988 -0.00293679 0)
(8.5794 -0.00293601 0)
(8.55908 -0.00293507 0)
(8.53892 -0.00293392 0)
(8.51894 -0.00293254 0)
(8.49912 -0.00293097 0)
(8.47947 -0.00292932 0)
(8.45999 -0.00292754 0)
(8.44069 -0.00292545 0)
(8.42156 -0.00292303 0)
(8.40261 -0.00292037 0)
(8.38385 -0.00291733 0)
(8.36526 -0.00291408 0)
(8.34687 -0.00291056 0)
(8.32864 -0.00290696 0)
(8.31063 -0.00290313 0)
(8.29278 -0.00289928 0)
(8.27517 -0.00289562 0)
(8.25767 -0.00289195 0)
(8.2405 -0.00288895 0)
(8.22332 -0.00288599 0)
(8.20666 -0.00288396 0)
(8.18971 -0.00287997 0)
(8.17368 -0.00288123 0)
(8.15681 -0.0028655 0)
(8.14158 -0.00287748 0)
(8.12468 -0.0028249 0)
(8.11021 -0.0028473 0)
(8.09351 -0.0027227 0)
(8.07918 -0.00272815 0)
(8.06356 -0.00247251 0)
(8.0475 -0.00244455 0)
(8.03631 -0.00204198 0)
(8.01095 -0.00198336 0)
(9.87616 -0.0170711 0)
(9.85765 -0.0504944 0)
(9.84331 -0.0822387 0)
(9.8507 -0.110207 0)
(9.87956 -0.133576 0)
(9.91709 -0.15403 0)
(9.95502 -0.171508 0)
(9.99829 -0.183596 0)
(10.0509 -0.189451 0)
(10.1035 -0.18972 0)
(10.1499 -0.184385 0)
(10.1968 -0.17376 0)
(10.246 -0.159416 0)
(10.2859 -0.142189 0)
(10.308 -0.121485 0)
(10.3154 -0.0979388 0)
(10.3117 -0.0745142 0)
(10.296 -0.0540725 0)
(10.2701 -0.0375736 0)
(10.2408 -0.0250375 0)
(10.2127 -0.0164468 0)
(10.1855 -0.0112799 0)
(10.1581 -0.00840015 0)
(10.1308 -0.00680271 0)
(10.104 -0.00595988 0)
(10.0776 -0.00557281 0)
(10.0511 -0.00540495 0)
(10.0246 -0.00531584 0)
(9.9981 -0.00526223 0)
(9.97165 -0.00523657 0)
(9.94523 -0.00522981 0)
(9.91883 -0.00523291 0)
(9.89247 -0.00524221 0)
(9.86616 -0.00525672 0)
(9.8399 -0.00527517 0)
(9.81369 -0.0052959 0)
(9.78754 -0.00531783 0)
(9.76145 -0.00534072 0)
(9.73542 -0.0053641 0)
(9.70945 -0.005387 0)
(9.68356 -0.00540896 0)
(9.65773 -0.00543002 0)
(9.63198 -0.00545026 0)
(9.6063 -0.00546989 0)
(9.58069 -0.00548901 0)
(9.55516 -0.0055077 0)
(9.52971 -0.00552616 0)
(9.50434 -0.00554424 0)
(9.47905 -0.00556178 0)
(9.45385 -0.00557901 0)
(9.42874 -0.00559611 0)
(9.40371 -0.00561281 0)
(9.37878 -0.00562883 0)
(9.35394 -0.00564439 0)
(9.3292 -0.00565955 0)
(9.30456 -0.00567425 0)
(9.28001 -0.00568859 0)
(9.25557 -0.00570243 0)
(9.23124 -0.00571568 0)
(9.20701 -0.00572849 0)
(9.18288 -0.0057407 0)
(9.15887 -0.00575216 0)
(9.13498 -0.00576309 0)
(9.11119 -0.00577345 0)
(9.08752 -0.00578312 0)
(9.06397 -0.00579203 0)
(9.04054 -0.00580016 0)
(9.01723 -0.00580769 0)
(8.99405 -0.0058147 0)
(8.97099 -0.00582113 0)
(8.94806 -0.00582716 0)
(8.92525 -0.0058328 0)
(8.90258 -0.0058378 0)
(8.88004 -0.00584221 0)
(8.85764 -0.00584621 0)
(8.83537 -0.00584958 0)
(8.81324 -0.00585206 0)
(8.79126 -0.00585375 0)
(8.76941 -0.00585497 0)
(8.74771 -0.00585587 0)
(8.72615 -0.00585629 0)
(8.70474 -0.00585632 0)
(8.68348 -0.00585604 0)
(8.66237 -0.00585522 0)
(8.64142 -0.00585376 0)
(8.62062 -0.00585189 0)
(8.59998 -0.00584971 0)
(8.57949 -0.00584699 0)
(8.55917 -0.00584362 0)
(8.53902 -0.0058397 0)
(8.51903 -0.00583519 0)
(8.49921 -0.00583011 0)
(8.47956 -0.00582446 0)
(8.46008 -0.00581815 0)
(8.44078 -0.00581122 0)
(8.42165 -0.00580376 0)
(8.4027 -0.00579574 0)
(8.38394 -0.00578714 0)
(8.36535 -0.00577852 0)
(8.34695 -0.00576948 0)
(8.32873 -0.00576044 0)
(8.31072 -0.00575036 0)
(8.29286 -0.00574062 0)
(8.27525 -0.00573011 0)
(8.25775 -0.00572016 0)
(8.24058 -0.00570944 0)
(8.22339 -0.00569938 0)
(8.20673 -0.00568852 0)
(8.18978 -0.00567591 0)
(8.17375 -0.00566797 0)
(8.15688 -0.00563565 0)
(8.14167 -0.00564519 0)
(8.12478 -0.00555042 0)
(8.11032 -0.00558082 0)
(8.09367 -0.00537076 0)
(8.07937 -0.00536166 0)
(8.06385 -0.00493523 0)
(8.0478 -0.00480943 0)
(8.03677 -0.00408686 0)
(8.01104 -0.00369586 0)
(9.87627 -0.0244327 0)
(9.85923 -0.0716508 0)
(9.849 -0.116059 0)
(9.86282 -0.154497 0)
(9.89722 -0.186733 0)
(9.94063 -0.216393 0)
(9.98892 -0.243192 0)
(10.0449 -0.261744 0)
(10.1073 -0.270171 0)
(10.1679 -0.271643 0)
(10.2222 -0.267233 0)
(10.275 -0.254351 0)
(10.326 -0.230808 0)
(10.3642 -0.195843 0)
(10.3823 -0.151166 0)
(10.3821 -0.104235 0)
(10.3668 -0.065222 0)
(10.3372 -0.0390498 0)
(10.2971 -0.0237051 0)
(10.2545 -0.0153447 0)
(10.215 -0.0114204 0)
(10.1795 -0.0100779 0)
(10.147 -0.0097065 0)
(10.1167 -0.00941304 0)
(10.0883 -0.00910805 0)
(10.061 -0.00889122 0)
(10.0341 -0.00873665 0)
(10.0073 -0.00859992 0)
(9.9806 -0.00849204 0)
(9.95398 -0.00842945 0)
(9.92739 -0.00840379 0)
(9.90082 -0.00839988 0)
(9.8743 -0.00840922 0)
(9.84782 -0.00842796 0)
(9.82139 -0.00845346 0)
(9.79501 -0.008483 0)
(9.76869 -0.00851439 0)
(9.74242 -0.00854728 0)
(9.71622 -0.00858167 0)
(9.69008 -0.00861618 0)
(9.66401 -0.00864896 0)
(9.638 -0.00867911 0)
(9.61207 -0.00870724 0)
(9.5862 -0.0087348 0)
(9.56041 -0.00876209 0)
(9.53469 -0.00878887 0)
(9.50905 -0.00881547 0)
(9.48349 -0.00884163 0)
(9.45801 -0.00886637 0)
(9.43262 -0.00888974 0)
(9.40731 -0.00891291 0)
(9.38209 -0.00893608 0)
(9.35696 -0.0089584 0)
(9.33192 -0.00897951 0)
(9.30698 -0.00899954 0)
(9.28213 -0.00901919 0)
(9.25738 -0.00903904 0)
(9.23273 -0.00905838 0)
(9.20819 -0.00907662 0)
(9.18375 -0.00909418 0)
(9.15941 -0.00911091 0)
(9.13519 -0.00912635 0)
(9.11108 -0.00914075 0)
(9.08708 -0.00915456 0)
(9.06319 -0.00916797 0)
(9.03942 -0.00918039 0)
(9.01577 -0.00919123 0)
(8.99225 -0.00920115 0)
(8.96884 -0.00921078 0)
(8.94556 -0.00921976 0)
(8.9224 -0.00922798 0)
(8.89937 -0.00923555 0)
(8.87647 -0.00924198 0)
(8.8537 -0.00924689 0)
(8.83107 -0.00925093 0)
(8.80857 -0.00925504 0)
(8.78621 -0.00925899 0)
(8.76399 -0.00926175 0)
(8.7419 -0.00926331 0)
(8.71996 -0.00926441 0)
(8.69817 -0.00926507 0)
(8.67652 -0.0092652 0)
(8.65502 -0.00926484 0)
(8.63368 -0.00926366 0)
(8.61248 -0.00926119 0)
(8.59144 -0.00925756 0)
(8.57056 -0.00925333 0)
(8.54984 -0.0092484 0)
(8.52928 -0.00924229 0)
(8.50888 -0.00923485 0)
(8.48865 -0.00922626 0)
(8.46858 -0.00921713 0)
(8.44869 -0.00920797 0)
(8.42896 -0.00919856 0)
(8.40941 -0.00918845 0)
(8.39004 -0.00917764 0)
(8.37084 -0.00916623 0)
(8.35183 -0.00915344 0)
(8.333 -0.00913978 0)
(8.31435 -0.00912465 0)
(8.29588 -0.00911055 0)
(8.27762 -0.0090939 0)
(8.25952 -0.00907873 0)
(8.24166 -0.00905927 0)
(8.22392 -0.00904285 0)
(8.20649 -0.00902222 0)
(8.18907 -0.00900811 0)
(8.17214 -0.00898235 0)
(8.15497 -0.00897225 0)
(8.13867 -0.00893867 0)
(8.1216 -0.00891257 0)
(8.10609 -0.00890817 0)
(8.08905 -0.00878057 0)
(8.07426 -0.00885572 0)
(8.05757 -0.00853486 0)
(8.04295 -0.00859821 0)
(8.02749 -0.00797203 0)
(8.01113 -0.00780925 0)
(8.00031 -0.00657373 0)
(7.97366 -0.00543468 0)
(9.87697 -0.0414061 0)
(9.87515 -0.115944 0)
(9.89004 -0.180196 0)
(9.92518 -0.230688 0)
(9.96831 -0.272736 0)
(10.0105 -0.314255 0)
(10.0466 -0.351681 0)
(10.0704 -0.374153 0)
(10.0775 -0.379052 0)
(10.0667 -0.374615 0)
(10.0435 -0.367252 0)
(10.0161 -0.354851 0)
(9.98573 -0.332368 0)
(9.94461 -0.29468 0)
(9.88956 -0.238688 0)
(9.82769 -0.170707 0)
(9.76754 -0.105863 0)
(9.71258 -0.0560965 0)
(9.66374 -0.0240294 0)
(9.6215 -0.00705266 0)
(9.5849 -0.00122223 0)
(9.55156 -0.00185113 0)
(9.51971 -0.00463425 0)
(9.48871 -0.00721061 0)
(9.45827 -0.00898836 0)
(9.42808 -0.010049 0)
(9.39796 -0.0105645 0)
(9.36788 -0.0107389 0)
(9.33787 -0.0107597 0)
(9.30793 -0.0107403 0)
(9.27803 -0.0107213 0)
(9.24816 -0.0107103 0)
(9.21833 -0.0107091 0)
(9.18854 -0.0107175 0)
(9.15877 -0.0107343 0)
(9.12904 -0.0107573 0)
(9.09934 -0.0107845 0)
(9.06969 -0.010815 0)
(9.04007 -0.0108486 0)
(9.0105 -0.0108846 0)
(8.98097 -0.0109207 0)
(8.95149 -0.0109545 0)
(8.92207 -0.010986 0)
(8.89269 -0.0110166 0)
(8.86338 -0.0110468 0)
(8.83412 -0.0110765 0)
(8.80493 -0.011106 0)
(8.7758 -0.011135 0)
(8.74674 -0.011163 0)
(8.71775 -0.0111893 0)
(8.68883 -0.011215 0)
(8.65998 -0.0112409 0)
(8.63121 -0.0112667 0)
(8.60253 -0.0112913 0)
(8.57392 -0.011314 0)
(8.5454 -0.0113359 0)
(8.51696 -0.0113579 0)
(8.48862 -0.0113795 0)
(8.46036 -0.0114001 0)
(8.4322 -0.0114201 0)
(8.40414 -0.0114392 0)
(8.37618 -0.0114572 0)
(8.34832 -0.0114737 0)
(8.32056 -0.0114893 0)
(8.29291 -0.0115052 0)
(8.26536 -0.0115203 0)
(8.23793 -0.0115334 0)
(8.21062 -0.0115453 0)
(8.18341 -0.011557 0)
(8.15633 -0.0115683 0)
(8.12937 -0.0115789 0)
(8.10252 -0.0115886 0)
(8.07581 -0.0115976 0)
(8.04922 -0.011605 0)
(8.02276 -0.0116109 0)
(7.99643 -0.0116164 0)
(7.97024 -0.0116216 0)
(7.94418 -0.0116249 0)
(7.91827 -0.0116259 0)
(7.89249 -0.0116254 0)
(7.86686 -0.0116244 0)
(7.84137 -0.011623 0)
(7.81603 -0.0116214 0)
(7.79085 -0.0116196 0)
(7.76581 -0.0116167 0)
(7.74093 -0.011612 0)