/*--------------------------------*- C++ -*----------------------------------*\
  =========                 |
  \\      /  F ield         | OpenFOAM: The Open Source CFD Toolbox
   \\    /   O peration     | Website:  https://openfoam.org
    \\  /    A nd           | Version:  7
     \\/     M anipulation  |
\*---------------------------------------------------------------------------*/
FoamFile
{
    version     2.0;
    format      ascii;
    class       volScalarField;
    location    "1.305";
    object      pPrime2Mean;
}
// * * * * * * * * * * * * * * * * * * * * * * * * * * * * * * * * * * * * * //

dimensions      [2 -2 -4 0 0 0 0];

internalField   nonuniform List<scalar> 
13200
(
1.64448e+06
1.6425e+06
1.64259e+06
1.64057e+06
1.64045e+06
1.63811e+06
1.63766e+06
1.63502e+06
1.63425e+06
1.63139e+06
1.63034e+06
1.62733e+06
1.62605e+06
1.62293e+06
1.62145e+06
1.61822e+06
1.61654e+06
1.61319e+06
1.61137e+06
1.60809e+06
1.64417e+06
1.64222e+06
1.64231e+06
1.64027e+06
1.64013e+06
1.63777e+06
1.63732e+06
1.63467e+06
1.63389e+06
1.63103e+06
1.62998e+06
1.62697e+06
1.62568e+06
1.62256e+06
1.62107e+06
1.61784e+06
1.61616e+06
1.61281e+06
1.611e+06
1.60772e+06
1.64428e+06
1.64229e+06
1.64234e+06
1.64032e+06
1.64019e+06
1.63786e+06
1.63741e+06
1.63478e+06
1.63401e+06
1.63115e+06
1.63011e+06
1.6271e+06
1.62582e+06
1.6227e+06
1.62121e+06
1.61798e+06
1.61629e+06
1.61294e+06
1.6111e+06
1.60783e+06
1.64416e+06
1.64222e+06
1.64228e+06
1.64024e+06
1.64009e+06
1.63773e+06
1.63727e+06
1.63463e+06
1.63387e+06
1.63102e+06
1.62997e+06
1.62697e+06
1.62569e+06
1.62257e+06
1.62108e+06
1.61784e+06
1.61616e+06
1.6128e+06
1.61099e+06
1.60766e+06
1.64425e+06
1.64228e+06
1.64232e+06
1.64029e+06
1.64015e+06
1.6378e+06
1.63735e+06
1.63472e+06
1.63396e+06
1.63112e+06
1.63008e+06
1.62708e+06
1.62581e+06
1.62269e+06
1.62121e+06
1.61797e+06
1.61628e+06
1.61293e+06
1.61107e+06
1.60774e+06
1.64416e+06
1.64221e+06
1.64226e+06
1.64022e+06
1.64007e+06
1.63771e+06
1.63726e+06
1.63462e+06
1.63387e+06
1.63102e+06
1.62999e+06
1.62699e+06
1.62571e+06
1.6226e+06
1.62111e+06
1.61788e+06
1.6162e+06
1.61284e+06
1.61101e+06
1.60763e+06
1.64422e+06
1.64226e+06
1.6423e+06
1.64027e+06
1.64012e+06
1.63777e+06
1.63732e+06
1.63469e+06
1.63393e+06
1.63109e+06
1.63005e+06
1.62706e+06
1.62579e+06
1.62267e+06
1.62119e+06
1.61797e+06
1.61628e+06
1.61292e+06
1.61106e+06
1.60768e+06
1.64417e+06
1.64221e+06
1.64225e+06
1.64021e+06
1.64006e+06
1.63771e+06
1.63726e+06
1.63463e+06
1.63387e+06
1.63103e+06
1.63e+06
1.627e+06
1.62573e+06
1.62261e+06
1.62113e+06
1.61791e+06
1.61622e+06
1.61287e+06
1.61102e+06
1.60763e+06
1.6442e+06
1.64224e+06
1.64228e+06
1.64024e+06
1.6401e+06
1.63775e+06
1.63729e+06
1.63467e+06
1.63391e+06
1.63107e+06
1.63003e+06
1.62704e+06
1.62577e+06
1.62265e+06
1.62117e+06
1.61795e+06
1.61626e+06
1.61291e+06
1.61104e+06
1.60765e+06
1.64418e+06
1.64222e+06
1.64226e+06
1.64022e+06
1.64007e+06
1.63772e+06
1.63727e+06
1.63464e+06
1.63389e+06
1.63105e+06
1.63001e+06
1.62702e+06
1.62575e+06
1.62263e+06
1.62115e+06
1.61793e+06
1.61624e+06
1.61289e+06
1.61103e+06
1.60764e+06
1.64418e+06
1.64222e+06
1.64226e+06
1.64022e+06
1.64007e+06
1.63772e+06
1.63727e+06
1.63464e+06
1.63389e+06
1.63105e+06
1.63001e+06
1.62702e+06
1.62575e+06
1.62263e+06
1.62115e+06
1.61793e+06
1.61624e+06
1.61289e+06
1.61103e+06
1.60763e+06
1.6442e+06
1.64224e+06
1.64228e+06
1.64024e+06
1.6401e+06
1.63775e+06
1.63729e+06
1.63467e+06
1.63391e+06
1.63107e+06
1.63003e+06
1.62704e+06
1.62577e+06
1.62265e+06
1.62117e+06
1.61795e+06
1.61626e+06
1.61291e+06
1.61104e+06
1.60765e+06
1.64417e+06
1.64221e+06
1.64225e+06
1.64021e+06
1.64006e+06
1.63771e+06
1.63726e+06
1.63463e+06
1.63387e+06
1.63103e+06
1.63e+06
1.627e+06
1.62573e+06
1.62262e+06
1.62113e+06
1.61791e+06
1.61622e+06
1.61287e+06
1.61102e+06
1.60763e+06
1.64422e+06
1.64226e+06
1.6423e+06
1.64027e+06
1.64012e+06
1.63777e+06
1.63732e+06
1.63469e+06
1.63393e+06
1.63109e+06
1.63005e+06
1.62706e+06
1.62579e+06
1.62267e+06
1.62119e+06
1.61797e+06
1.61627e+06
1.61292e+06
1.61105e+06
1.60768e+06
1.64416e+06
1.64221e+06
1.64226e+06
1.64022e+06
1.64007e+06
1.63771e+06
1.63726e+06
1.63462e+06
1.63387e+06
1.63102e+06
1.62999e+06
1.62699e+06
1.62571e+06
1.6226e+06
1.62111e+06
1.61788e+06
1.6162e+06
1.61284e+06
1.61101e+06
1.60763e+06
1.64425e+06
1.64228e+06
1.64232e+06
1.64029e+06
1.64015e+06
1.6378e+06
1.63735e+06
1.63472e+06
1.63396e+06
1.63112e+06
1.63008e+06
1.62708e+06
1.62581e+06
1.62269e+06
1.62121e+06
1.61797e+06
1.61628e+06
1.61293e+06
1.61107e+06
1.60774e+06
1.64416e+06
1.64222e+06
1.64228e+06
1.64024e+06
1.64009e+06
1.63773e+06
1.63727e+06
1.63463e+06
1.63387e+06
1.63102e+06
1.62997e+06
1.62697e+06
1.62569e+06
1.62257e+06
1.62108e+06
1.61784e+06
1.61616e+06
1.6128e+06
1.61098e+06
1.60766e+06
1.64428e+06
1.64229e+06
1.64234e+06
1.64032e+06
1.64019e+06
1.63786e+06
1.63741e+06
1.63478e+06
1.63401e+06
1.63115e+06
1.63011e+06
1.6271e+06
1.62582e+06
1.6227e+06
1.62121e+06
1.61798e+06
1.61629e+06
1.61294e+06
1.6111e+06
1.60783e+06
1.64417e+06
1.64222e+06
1.64231e+06
1.64027e+06
1.64013e+06
1.63777e+06
1.63732e+06
1.63467e+06
1.63389e+06
1.63103e+06
1.62998e+06
1.62697e+06
1.62568e+06
1.62256e+06
1.62107e+06
1.61784e+06
1.61616e+06
1.61281e+06
1.611e+06
1.60773e+06
1.64448e+06
1.6425e+06
1.64259e+06
1.64057e+06
1.64045e+06
1.63811e+06
1.63766e+06
1.63502e+06
1.63425e+06
1.63139e+06
1.63034e+06
1.62733e+06
1.62605e+06
1.62293e+06
1.62145e+06
1.61822e+06
1.61654e+06
1.61319e+06
1.61137e+06
1.60809e+06
1.64324e+06
1.64115e+06
1.6414e+06
1.63915e+06
1.63926e+06
1.63674e+06
1.63659e+06
1.6338e+06
1.63335e+06
1.63035e+06
1.62962e+06
1.62647e+06
1.62548e+06
1.62224e+06
1.62102e+06
1.61768e+06
1.61624e+06
1.6128e+06
1.61121e+06
1.60781e+06
1.64346e+06
1.64136e+06
1.64161e+06
1.63939e+06
1.63951e+06
1.63702e+06
1.63689e+06
1.63413e+06
1.63368e+06
1.6307e+06
1.62997e+06
1.62683e+06
1.62584e+06
1.6226e+06
1.62139e+06
1.61805e+06
1.61662e+06
1.61317e+06
1.61159e+06
1.60822e+06
1.64331e+06
1.64121e+06
1.64148e+06
1.63923e+06
1.63934e+06
1.63682e+06
1.63668e+06
1.63391e+06
1.63347e+06
1.63048e+06
1.62975e+06
1.62661e+06
1.62562e+06
1.62238e+06
1.62115e+06
1.61781e+06
1.61637e+06
1.61292e+06
1.61134e+06
1.6079e+06
1.64346e+06
1.64133e+06
1.64158e+06
1.63934e+06
1.63947e+06
1.63697e+06
1.63685e+06
1.6341e+06
1.63367e+06
1.63069e+06
1.62997e+06
1.62684e+06
1.62585e+06
1.62262e+06
1.6214e+06
1.61806e+06
1.61662e+06
1.61317e+06
1.61156e+06
1.60814e+06
1.64335e+06
1.64121e+06
1.64147e+06
1.63922e+06
1.63933e+06
1.63681e+06
1.63668e+06
1.63391e+06
1.63348e+06
1.6305e+06
1.62978e+06
1.62665e+06
1.62567e+06
1.62243e+06
1.62121e+06
1.61787e+06
1.61642e+06
1.61297e+06
1.61138e+06
1.60789e+06
1.64346e+06
1.64132e+06
1.64156e+06
1.63932e+06
1.63944e+06
1.63694e+06
1.63681e+06
1.63405e+06
1.63363e+06
1.63065e+06
1.62993e+06
1.62681e+06
1.62583e+06
1.6226e+06
1.62139e+06
1.61805e+06
1.6166e+06
1.61315e+06
1.61153e+06
1.60806e+06
1.64338e+06
1.64122e+06
1.64147e+06
1.63921e+06
1.63932e+06
1.63681e+06
1.63668e+06
1.63392e+06
1.6335e+06
1.63052e+06
1.6298e+06
1.62668e+06
1.6257e+06
1.62246e+06
1.62125e+06
1.61791e+06
1.61647e+06
1.61302e+06
1.61141e+06
1.60791e+06
1.64345e+06
1.64129e+06
1.64154e+06
1.63929e+06
1.63941e+06
1.63691e+06
1.63678e+06
1.63402e+06
1.63359e+06
1.63062e+06
1.6299e+06
1.62678e+06
1.6258e+06
1.62257e+06
1.62136e+06
1.61802e+06
1.61658e+06
1.61312e+06
1.6115e+06
1.60801e+06
1.64341e+06
1.64124e+06
1.64148e+06
1.63923e+06
1.63934e+06
1.63683e+06
1.6367e+06
1.63395e+06
1.63352e+06
1.63055e+06
1.62983e+06
1.62671e+06
1.62573e+06
1.6225e+06
1.62128e+06
1.61795e+06
1.61651e+06
1.61305e+06
1.61144e+06
1.60794e+06
1.64343e+06
1.64126e+06
1.64151e+06
1.63926e+06
1.63938e+06
1.63687e+06
1.63674e+06
1.63398e+06
1.63356e+06
1.63059e+06
1.62987e+06
1.62674e+06
1.62576e+06
1.62253e+06
1.62132e+06
1.61799e+06
1.61654e+06
1.61309e+06
1.61147e+06
1.60797e+06
1.64343e+06
1.64126e+06
1.64151e+06
1.63926e+06
1.63938e+06
1.63687e+06
1.63674e+06
1.63398e+06
1.63356e+06
1.63059e+06
1.62987e+06
1.62674e+06
1.62576e+06
1.62253e+06
1.62132e+06
1.61799e+06
1.61654e+06
1.61309e+06
1.61147e+06
1.60797e+06
1.64341e+06
1.64124e+06
1.64148e+06
1.63923e+06
1.63934e+06
1.63683e+06
1.6367e+06
1.63395e+06
1.63352e+06
1.63055e+06
1.62983e+06
1.62671e+06
1.62573e+06
1.6225e+06
1.62129e+06
1.61795e+06
1.61651e+06
1.61305e+06
1.61144e+06
1.60793e+06
1.64345e+06
1.64129e+06
1.64154e+06
1.63929e+06
1.63941e+06
1.63691e+06
1.63678e+06
1.63402e+06
1.63359e+06
1.63062e+06
1.6299e+06
1.62678e+06
1.6258e+06
1.62257e+06
1.62136e+06
1.61802e+06
1.61658e+06
1.61312e+06
1.61149e+06
1.60801e+06
1.64338e+06
1.64122e+06
1.64147e+06
1.63921e+06
1.63932e+06
1.63681e+06
1.63668e+06
1.63392e+06
1.6335e+06
1.63052e+06
1.6298e+06
1.62668e+06
1.6257e+06
1.62246e+06
1.62125e+06
1.61791e+06
1.61647e+06
1.61302e+06
1.61141e+06
1.60791e+06
1.64346e+06
1.64132e+06
1.64156e+06
1.63932e+06
1.63944e+06
1.63694e+06
1.63681e+06
1.63405e+06
1.63363e+06
1.63065e+06
1.62993e+06
1.62681e+06
1.62583e+06
1.6226e+06
1.62139e+06
1.61805e+06
1.6166e+06
1.61315e+06
1.61152e+06
1.60806e+06
1.64335e+06
1.64121e+06
1.64147e+06
1.63922e+06
1.63933e+06
1.63681e+06
1.63668e+06
1.63391e+06
1.63348e+06
1.6305e+06
1.62978e+06
1.62665e+06
1.62567e+06
1.62243e+06
1.62121e+06
1.61787e+06
1.61642e+06
1.61297e+06
1.61138e+06
1.60789e+06
1.64346e+06
1.64133e+06
1.64158e+06
1.63934e+06
1.63947e+06
1.63697e+06
1.63685e+06
1.6341e+06
1.63367e+06
1.63069e+06
1.62997e+06
1.62684e+06
1.62585e+06
1.62262e+06
1.6214e+06
1.61806e+06
1.61662e+06
1.61317e+06
1.61155e+06
1.60814e+06
1.64331e+06
1.64121e+06
1.64148e+06
1.63923e+06
1.63934e+06
1.63682e+06
1.63668e+06
1.63391e+06
1.63347e+06
1.63048e+06
1.62975e+06
1.62661e+06
1.62562e+06
1.62238e+06
1.62115e+06
1.61781e+06
1.61637e+06
1.61292e+06
1.61134e+06
1.6079e+06
1.64346e+06
1.64136e+06
1.64161e+06
1.63939e+06
1.63951e+06
1.63702e+06
1.63689e+06
1.63413e+06
1.63368e+06
1.6307e+06
1.62997e+06
1.62683e+06
1.62584e+06
1.6226e+06
1.62139e+06
1.61805e+06
1.61662e+06
1.61317e+06
1.61158e+06
1.60822e+06
1.64324e+06
1.64115e+06
1.6414e+06
1.63915e+06
1.63926e+06
1.63674e+06
1.63659e+06
1.6338e+06
1.63335e+06
1.63036e+06
1.62962e+06
1.62647e+06
1.62548e+06
1.62224e+06
1.62102e+06
1.61768e+06
1.61624e+06
1.6128e+06
1.61121e+06
1.60781e+06
1.64425e+06
1.64224e+06
1.64244e+06
1.64035e+06
1.64035e+06
1.63791e+06
1.63765e+06
1.63494e+06
1.63441e+06
1.63149e+06
1.6307e+06
1.62762e+06
1.62659e+06
1.62337e+06
1.62212e+06
1.61876e+06
1.6173e+06
1.61379e+06
1.6122e+06
1.60866e+06
1.64429e+06
1.64224e+06
1.64244e+06
1.64034e+06
1.64034e+06
1.63789e+06
1.63764e+06
1.63495e+06
1.63443e+06
1.63151e+06
1.63073e+06
1.62764e+06
1.62662e+06
1.62339e+06
1.62214e+06
1.61878e+06
1.61731e+06
1.6138e+06
1.6122e+06
1.60867e+06
1.64429e+06
1.64224e+06
1.64243e+06
1.64032e+06
1.64033e+06
1.63789e+06
1.63763e+06
1.63494e+06
1.63443e+06
1.63152e+06
1.63074e+06
1.62766e+06
1.62664e+06
1.62342e+06
1.62216e+06
1.6188e+06
1.61732e+06
1.61381e+06
1.6122e+06
1.60864e+06
1.64432e+06
1.64225e+06
1.64243e+06
1.64031e+06
1.64031e+06
1.63787e+06
1.63762e+06
1.63493e+06
1.63442e+06
1.63152e+06
1.63074e+06
1.62767e+06
1.62665e+06
1.62343e+06
1.62218e+06
1.61882e+06
1.61734e+06
1.61383e+06
1.61221e+06
1.60864e+06
1.64432e+06
1.64225e+06
1.64242e+06
1.6403e+06
1.6403e+06
1.63787e+06
1.63761e+06
1.63493e+06
1.63442e+06
1.63151e+06
1.63074e+06
1.62767e+06
1.62665e+06
1.62344e+06
1.62219e+06
1.61882e+06
1.61735e+06
1.61383e+06
1.61221e+06
1.60863e+06
1.64434e+06
1.64225e+06
1.64242e+06
1.64029e+06
1.64029e+06
1.63786e+06
1.63761e+06
1.63492e+06
1.63441e+06
1.63151e+06
1.63074e+06
1.62767e+06
1.62665e+06
1.62344e+06
1.62219e+06
1.61883e+06
1.61735e+06
1.61384e+06
1.61221e+06
1.60864e+06
1.64434e+06
1.64225e+06
1.64241e+06
1.64029e+06
1.64029e+06
1.63785e+06
1.63761e+06
1.63492e+06
1.63441e+06
1.63151e+06
1.63074e+06
1.62766e+06
1.62665e+06
1.62344e+06
1.62219e+06
1.61883e+06
1.61735e+06
1.61384e+06
1.61221e+06
1.60864e+06
1.64435e+06
1.64225e+06
1.64241e+06
1.64028e+06
1.64028e+06
1.63785e+06
1.6376e+06
1.63492e+06
1.63441e+06
1.63151e+06
1.63074e+06
1.62767e+06
1.62665e+06
1.62344e+06
1.62219e+06
1.61883e+06
1.61736e+06
1.61384e+06
1.61221e+06
1.60864e+06
1.64435e+06
1.64225e+06
1.64241e+06
1.64028e+06
1.64028e+06
1.63785e+06
1.6376e+06
1.63492e+06
1.63441e+06
1.63151e+06
1.63074e+06
1.62767e+06
1.62665e+06
1.62344e+06
1.62219e+06
1.61883e+06
1.61735e+06
1.61384e+06
1.61221e+06
1.60864e+06
1.64435e+06
1.64225e+06
1.64241e+06
1.64028e+06
1.64028e+06
1.63785e+06
1.6376e+06
1.63492e+06
1.63441e+06
1.63151e+06
1.63074e+06
1.62767e+06
1.62665e+06
1.62344e+06
1.62219e+06
1.61883e+06
1.61735e+06
1.61384e+06
1.61221e+06
1.60864e+06
1.64435e+06
1.64225e+06
1.64241e+06
1.64028e+06
1.64028e+06
1.63785e+06
1.6376e+06
1.63492e+06
1.63441e+06
1.63151e+06
1.63074e+06
1.62767e+06
1.62665e+06
1.62344e+06
1.62219e+06
1.61883e+06
1.61735e+06
1.61384e+06
1.61221e+06
1.60864e+06
1.64435e+06
1.64225e+06
1.64241e+06
1.64028e+06
1.64028e+06
1.63785e+06
1.6376e+06
1.63492e+06
1.63441e+06
1.63151e+06
1.63074e+06
1.62767e+06
1.62665e+06
1.62344e+06
1.62219e+06
1.61883e+06
1.61735e+06
1.61384e+06
1.61221e+06
1.60864e+06
1.64435e+06
1.64225e+06
1.64241e+06
1.64028e+06
1.64028e+06
1.63785e+06
1.6376e+06
1.63492e+06
1.63441e+06
1.63151e+06
1.63074e+06
1.62767e+06
1.62665e+06
1.62344e+06
1.62219e+06
1.61883e+06
1.61736e+06
1.61384e+06
1.61221e+06
1.60864e+06
1.64434e+06
1.64225e+06
1.64241e+06
1.64029e+06
1.64029e+06
1.63785e+06
1.63761e+06
1.63492e+06
1.63441e+06
1.63151e+06
1.63074e+06
1.62766e+06
1.62665e+06
1.62344e+06
1.62219e+06
1.61883e+06
1.61735e+06
1.61384e+06
1.61221e+06
1.60864e+06
1.64434e+06
1.64225e+06
1.64242e+06
1.64029e+06
1.64029e+06
1.63786e+06
1.63761e+06
1.63492e+06
1.63441e+06
1.63151e+06
1.63074e+06
1.62767e+06
1.62665e+06
1.62344e+06
1.62219e+06
1.61883e+06
1.61735e+06
1.61384e+06
1.61221e+06
1.60864e+06
1.64432e+06
1.64225e+06
1.64242e+06
1.6403e+06
1.6403e+06
1.63787e+06
1.63761e+06
1.63493e+06
1.63442e+06
1.63151e+06
1.63074e+06
1.62767e+06
1.62665e+06
1.62344e+06
1.62219e+06
1.61882e+06
1.61735e+06
1.61383e+06
1.61221e+06
1.60863e+06
1.64432e+06
1.64225e+06
1.64243e+06
1.64031e+06
1.64031e+06
1.63787e+06
1.63762e+06
1.63493e+06
1.63442e+06
1.63152e+06
1.63074e+06
1.62767e+06
1.62665e+06
1.62343e+06
1.62218e+06
1.61882e+06
1.61734e+06
1.61383e+06
1.61221e+06
1.60864e+06
1.64429e+06
1.64224e+06
1.64243e+06
1.64032e+06
1.64033e+06
1.63789e+06
1.63763e+06
1.63494e+06
1.63443e+06
1.63152e+06
1.63074e+06
1.62766e+06
1.62664e+06
1.62342e+06
1.62216e+06
1.6188e+06
1.61732e+06
1.61381e+06
1.6122e+06
1.60864e+06
1.64429e+06
1.64224e+06
1.64244e+06
1.64034e+06
1.64034e+06
1.63789e+06
1.63764e+06
1.63495e+06
1.63443e+06
1.63151e+06
1.63073e+06
1.62764e+06
1.62662e+06
1.62339e+06
1.62214e+06
1.61878e+06
1.61731e+06
1.61381e+06
1.6122e+06
1.60868e+06
1.64425e+06
1.64224e+06
1.64244e+06
1.64035e+06
1.64035e+06
1.63791e+06
1.63765e+06
1.63494e+06
1.63441e+06
1.63149e+06
1.6307e+06
1.62762e+06
1.62659e+06
1.62337e+06
1.62212e+06
1.61876e+06
1.61729e+06
1.61379e+06
1.61219e+06
1.60867e+06
1.64425e+06
1.64224e+06
1.64244e+06
1.64035e+06
1.64035e+06
1.63791e+06
1.63765e+06
1.63494e+06
1.63441e+06
1.63149e+06
1.63071e+06
1.62762e+06
1.62659e+06
1.62337e+06
1.62212e+06
1.61876e+06
1.6173e+06
1.61379e+06
1.6122e+06
1.60866e+06
1.64429e+06
1.64224e+06
1.64244e+06
1.64034e+06
1.64034e+06
1.63789e+06
1.63764e+06
1.63495e+06
1.63443e+06
1.63151e+06
1.63073e+06
1.62764e+06
1.62662e+06
1.62339e+06
1.62214e+06
1.61878e+06
1.61731e+06
1.6138e+06
1.6122e+06
1.60867e+06
1.64429e+06
1.64224e+06
1.64243e+06
1.64032e+06
1.64033e+06
1.63789e+06
1.63763e+06
1.63494e+06
1.63443e+06
1.63152e+06
1.63074e+06
1.62766e+06
1.62664e+06
1.62342e+06
1.62216e+06
1.6188e+06
1.61732e+06
1.61381e+06
1.6122e+06
1.60864e+06
1.64432e+06
1.64225e+06
1.64243e+06
1.64031e+06
1.64031e+06
1.63787e+06
1.63762e+06
1.63493e+06
1.63442e+06
1.63152e+06
1.63074e+06
1.62767e+06
1.62665e+06
1.62343e+06
1.62218e+06
1.61882e+06
1.61734e+06
1.61383e+06
1.61221e+06
1.60864e+06
1.64432e+06
1.64225e+06
1.64242e+06
1.6403e+06
1.6403e+06
1.63787e+06
1.63761e+06
1.63493e+06
1.63442e+06
1.63151e+06
1.63074e+06
1.62767e+06
1.62665e+06
1.62344e+06
1.62219e+06
1.61882e+06
1.61735e+06
1.61383e+06
1.61221e+06
1.60863e+06
1.64434e+06
1.64225e+06
1.64242e+06
1.6403e+06
1.64029e+06
1.63786e+06
1.63761e+06
1.63492e+06
1.63441e+06
1.63151e+06
1.63074e+06
1.62767e+06
1.62665e+06
1.62344e+06
1.62219e+06
1.61883e+06
1.61735e+06
1.61384e+06
1.61221e+06
1.60864e+06
1.64434e+06
1.64225e+06
1.64241e+06
1.64029e+06
1.64029e+06
1.63785e+06
1.63761e+06
1.63492e+06
1.63441e+06
1.63151e+06
1.63074e+06
1.62767e+06
1.62665e+06
1.62344e+06
1.62219e+06
1.61883e+06
1.61735e+06
1.61384e+06
1.61221e+06
1.60864e+06
1.64435e+06
1.64225e+06
1.64241e+06
1.64028e+06
1.64028e+06
1.63785e+06
1.6376e+06
1.63492e+06
1.63441e+06
1.63151e+06
1.63074e+06
1.62767e+06
1.62665e+06
1.62344e+06
1.62219e+06
1.61883e+06
1.61736e+06
1.61384e+06
1.61221e+06
1.60864e+06
1.64435e+06
1.64225e+06
1.64241e+06
1.64028e+06
1.64028e+06
1.63785e+06
1.6376e+06
1.63492e+06
1.63441e+06
1.63151e+06
1.63074e+06
1.62767e+06
1.62665e+06
1.62344e+06
1.62219e+06
1.61883e+06
1.61735e+06
1.61384e+06
1.61221e+06
1.60864e+06
1.64435e+06
1.64225e+06
1.64241e+06
1.64028e+06
1.64028e+06
1.63785e+06
1.6376e+06
1.63492e+06
1.63441e+06
1.63151e+06
1.63074e+06
1.62767e+06
1.62665e+06
1.62344e+06
1.62219e+06
1.61883e+06
1.61735e+06
1.61384e+06
1.61221e+06
1.60864e+06
1.64435e+06
1.64225e+06
1.64241e+06
1.64028e+06
1.64028e+06
1.63785e+06
1.6376e+06
1.63492e+06
1.63441e+06
1.63151e+06
1.63074e+06
1.62767e+06
1.62665e+06
1.62344e+06
1.62219e+06
1.61883e+06
1.61735e+06
1.61384e+06
1.61221e+06
1.60864e+06
1.64435e+06
1.64225e+06
1.64241e+06
1.64028e+06
1.64028e+06
1.63785e+06
1.6376e+06
1.63492e+06
1.63441e+06
1.63151e+06
1.63074e+06
1.62767e+06
1.62665e+06
1.62344e+06
1.62219e+06
1.61883e+06
1.61735e+06
1.61384e+06
1.61221e+06
1.60864e+06
1.64435e+06
1.64225e+06
1.64241e+06
1.64028e+06
1.64028e+06
1.63785e+06
1.6376e+06
1.63492e+06
1.63441e+06
1.63151e+06
1.63074e+06
1.62767e+06
1.62665e+06
1.62344e+06
1.62219e+06
1.61883e+06
1.61736e+06
1.61384e+06
1.61221e+06
1.60864e+06
1.64434e+06
1.64225e+06
1.64241e+06
1.64029e+06
1.64029e+06
1.63785e+06
1.63761e+06
1.63492e+06
1.63441e+06
1.63151e+06
1.63074e+06
1.62767e+06
1.62665e+06
1.62344e+06
1.62219e+06
1.61883e+06
1.61735e+06
1.61384e+06
1.61221e+06
1.60864e+06
1.64434e+06
1.64225e+06
1.64242e+06
1.6403e+06
1.64029e+06
1.63786e+06
1.63761e+06
1.63492e+06
1.63441e+06
1.63151e+06
1.63074e+06
1.62767e+06
1.62665e+06
1.62344e+06
1.62219e+06
1.61883e+06
1.61735e+06
1.61384e+06
1.61221e+06
1.60864e+06
1.64432e+06
1.64225e+06
1.64242e+06
1.6403e+06
1.6403e+06
1.63787e+06
1.63761e+06
1.63493e+06
1.63442e+06
1.63151e+06
1.63074e+06
1.62767e+06
1.62665e+06
1.62344e+06
1.62219e+06
1.61882e+06
1.61735e+06
1.61383e+06
1.61221e+06
1.60863e+06
1.64432e+06
1.64225e+06
1.64243e+06
1.64031e+06
1.64031e+06
1.63787e+06
1.63762e+06
1.63493e+06
1.63442e+06
1.63152e+06
1.63074e+06
1.62767e+06
1.62665e+06
1.62343e+06
1.62218e+06
1.61882e+06
1.61734e+06
1.61383e+06
1.61221e+06
1.60864e+06
1.64429e+06
1.64224e+06
1.64243e+06
1.64032e+06
1.64033e+06
1.63789e+06
1.63763e+06
1.63494e+06
1.63443e+06
1.63152e+06
1.63074e+06
1.62766e+06
1.62664e+06
1.62342e+06
1.62216e+06
1.6188e+06
1.61732e+06
1.61381e+06
1.6122e+06
1.60864e+06
1.64429e+06
1.64224e+06
1.64244e+06
1.64034e+06
1.64034e+06
1.63789e+06
1.63764e+06
1.63495e+06
1.63443e+06
1.63151e+06
1.63073e+06
1.62764e+06
1.62662e+06
1.62339e+06
1.62214e+06
1.61878e+06
1.61731e+06
1.61381e+06
1.6122e+06
1.60868e+06
1.64425e+06
1.64224e+06
1.64244e+06
1.64035e+06
1.64035e+06
1.63791e+06
1.63765e+06
1.63494e+06
1.63441e+06
1.63149e+06
1.63071e+06
1.62762e+06
1.62659e+06
1.62337e+06
1.62212e+06
1.61876e+06
1.61729e+06
1.61379e+06
1.61219e+06
1.60868e+06
1.64324e+06
1.64115e+06
1.6414e+06
1.63915e+06
1.63926e+06
1.63674e+06
1.63659e+06
1.63381e+06
1.63335e+06
1.63036e+06
1.62962e+06
1.62647e+06
1.62549e+06
1.62224e+06
1.62102e+06
1.61768e+06
1.61624e+06
1.6128e+06
1.61121e+06
1.60781e+06
1.64346e+06
1.64136e+06
1.64161e+06
1.63939e+06
1.63951e+06
1.63702e+06
1.63689e+06
1.63413e+06
1.63369e+06
1.6307e+06
1.62997e+06
1.62683e+06
1.62584e+06
1.6226e+06
1.62139e+06
1.61805e+06
1.61662e+06
1.61317e+06
1.61159e+06
1.60822e+06
1.64331e+06
1.64121e+06
1.64148e+06
1.63923e+06
1.63934e+06
1.63682e+06
1.63668e+06
1.63391e+06
1.63347e+06
1.63048e+06
1.62975e+06
1.62661e+06
1.62562e+06
1.62238e+06
1.62115e+06
1.61781e+06
1.61637e+06
1.61292e+06
1.61134e+06
1.6079e+06
1.64346e+06
1.64133e+06
1.64158e+06
1.63934e+06
1.63947e+06
1.63697e+06
1.63685e+06
1.6341e+06
1.63367e+06
1.63069e+06
1.62997e+06
1.62684e+06
1.62586e+06
1.62262e+06
1.6214e+06
1.61806e+06
1.61662e+06
1.61317e+06
1.61156e+06
1.60814e+06
1.64335e+06
1.64121e+06
1.64147e+06
1.63922e+06
1.63933e+06
1.63681e+06
1.63668e+06
1.63391e+06
1.63348e+06
1.6305e+06
1.62978e+06
1.62665e+06
1.62567e+06
1.62243e+06
1.62121e+06
1.61787e+06
1.61642e+06
1.61297e+06
1.61138e+06
1.60789e+06
1.64346e+06
1.64132e+06
1.64157e+06
1.63932e+06
1.63944e+06
1.63694e+06
1.63681e+06
1.63405e+06
1.63363e+06
1.63065e+06
1.62993e+06
1.62681e+06
1.62583e+06
1.6226e+06
1.62139e+06
1.61805e+06
1.6166e+06
1.61315e+06
1.61153e+06
1.60806e+06
1.64338e+06
1.64122e+06
1.64147e+06
1.63921e+06
1.63932e+06
1.63681e+06
1.63668e+06
1.63392e+06
1.6335e+06
1.63052e+06
1.6298e+06
1.62668e+06
1.6257e+06
1.62246e+06
1.62125e+06
1.61791e+06
1.61647e+06
1.61302e+06
1.61141e+06
1.60791e+06
1.64345e+06
1.64129e+06
1.64154e+06
1.63929e+06
1.63941e+06
1.63691e+06
1.63678e+06
1.63402e+06
1.63359e+06
1.63062e+06
1.6299e+06
1.62678e+06
1.6258e+06
1.62257e+06
1.62136e+06
1.61802e+06
1.61658e+06
1.61312e+06
1.6115e+06
1.60801e+06
1.64341e+06
1.64124e+06
1.64148e+06
1.63923e+06
1.63934e+06
1.63683e+06
1.6367e+06
1.63395e+06
1.63352e+06
1.63055e+06
1.62983e+06
1.62671e+06
1.62573e+06
1.6225e+06
1.62129e+06
1.61795e+06
1.61651e+06
1.61305e+06
1.61144e+06
1.60794e+06
1.64343e+06
1.64126e+06
1.64151e+06
1.63926e+06
1.63938e+06
1.63687e+06
1.63674e+06
1.63398e+06
1.63356e+06
1.63059e+06
1.62987e+06
1.62674e+06
1.62577e+06
1.62253e+06
1.62132e+06
1.61799e+06
1.61654e+06
1.61309e+06
1.61147e+06
1.60797e+06
1.64343e+06
1.64126e+06
1.64151e+06
1.63926e+06
1.63938e+06
1.63687e+06
1.63674e+06
1.63398e+06
1.63356e+06
1.63059e+06
1.62987e+06
1.62674e+06
1.62577e+06
1.62253e+06
1.62132e+06
1.61799e+06
1.61654e+06
1.61309e+06
1.61147e+06
1.60797e+06
1.64341e+06
1.64124e+06
1.64148e+06
1.63923e+06
1.63934e+06
1.63683e+06
1.6367e+06
1.63395e+06
1.63352e+06
1.63055e+06
1.62983e+06
1.62671e+06
1.62573e+06
1.6225e+06
1.62129e+06
1.61795e+06
1.61651e+06
1.61306e+06
1.61144e+06
1.60794e+06
1.64345e+06
1.64129e+06
1.64154e+06
1.63929e+06
1.63941e+06
1.63691e+06
1.63678e+06
1.63402e+06
1.63359e+06
1.63062e+06
1.6299e+06
1.62678e+06
1.6258e+06
1.62257e+06
1.62136e+06
1.61802e+06
1.61658e+06
1.61312e+06
1.61149e+06
1.60801e+06
1.64338e+06
1.64122e+06
1.64147e+06
1.63921e+06
1.63932e+06
1.63681e+06
1.63668e+06
1.63392e+06
1.6335e+06
1.63052e+06
1.6298e+06
1.62668e+06
1.6257e+06
1.62247e+06
1.62125e+06
1.61791e+06
1.61647e+06
1.61302e+06
1.61141e+06
1.60791e+06
1.64346e+06
1.64132e+06
1.64157e+06
1.63932e+06
1.63944e+06
1.63694e+06
1.63681e+06
1.63405e+06
1.63363e+06
1.63065e+06
1.62993e+06
1.62681e+06
1.62583e+06
1.6226e+06
1.62139e+06
1.61805e+06
1.6166e+06
1.61315e+06
1.61152e+06
1.60806e+06
1.64335e+06
1.64121e+06
1.64147e+06
1.63922e+06
1.63933e+06
1.63681e+06
1.63668e+06
1.63391e+06
1.63348e+06
1.6305e+06
1.62978e+06
1.62665e+06
1.62567e+06
1.62243e+06
1.62121e+06
1.61787e+06
1.61642e+06
1.61297e+06
1.61138e+06
1.60789e+06
1.64346e+06
1.64133e+06
1.64158e+06
1.63934e+06
1.63947e+06
1.63697e+06
1.63685e+06
1.6341e+06
1.63367e+06
1.63069e+06
1.62997e+06
1.62684e+06
1.62585e+06
1.62262e+06
1.6214e+06
1.61806e+06
1.61662e+06
1.61317e+06
1.61155e+06
1.60814e+06
1.64331e+06
1.64121e+06
1.64148e+06
1.63923e+06
1.63934e+06
1.63682e+06
1.63668e+06
1.63391e+06
1.63347e+06
1.63048e+06
1.62975e+06
1.62661e+06
1.62562e+06
1.62238e+06
1.62115e+06
1.61781e+06
1.61637e+06
1.61292e+06
1.61134e+06
1.6079e+06
1.64346e+06
1.64136e+06
1.64161e+06
1.63939e+06
1.63951e+06
1.63702e+06
1.63689e+06
1.63413e+06
1.63369e+06
1.6307e+06
1.62997e+06
1.62683e+06
1.62584e+06
1.6226e+06
1.62139e+06
1.61805e+06
1.61662e+06
1.61318e+06
1.61158e+06
1.60822e+06
1.64324e+06
1.64115e+06
1.6414e+06
1.63915e+06
1.63926e+06
1.63674e+06
1.63659e+06
1.63381e+06
1.63335e+06
1.63036e+06
1.62962e+06
1.62647e+06
1.62549e+06
1.62224e+06
1.62102e+06
1.61768e+06
1.61624e+06
1.6128e+06
1.61121e+06
1.60781e+06
1.64448e+06
1.6425e+06
1.64259e+06
1.64058e+06
1.64045e+06
1.63811e+06
1.63766e+06
1.63502e+06
1.63425e+06
1.63139e+06
1.63034e+06
1.62733e+06
1.62605e+06
1.62293e+06
1.62145e+06
1.61822e+06
1.61654e+06
1.6132e+06
1.61137e+06
1.60809e+06
1.64417e+06
1.64223e+06
1.64231e+06
1.64027e+06
1.64013e+06
1.63777e+06
1.63732e+06
1.63467e+06
1.63389e+06
1.63103e+06
1.62998e+06
1.62697e+06
1.62568e+06
1.62256e+06
1.62107e+06
1.61784e+06
1.61616e+06
1.61281e+06
1.611e+06
1.60773e+06
1.64428e+06
1.64229e+06
1.64234e+06
1.64032e+06
1.64019e+06
1.63786e+06
1.63741e+06
1.63478e+06
1.63401e+06
1.63115e+06
1.63011e+06
1.6271e+06
1.62582e+06
1.6227e+06
1.62121e+06
1.61798e+06
1.61629e+06
1.61294e+06
1.6111e+06
1.60783e+06
1.64416e+06
1.64222e+06
1.64228e+06
1.64024e+06
1.64009e+06
1.63773e+06
1.63727e+06
1.63463e+06
1.63387e+06
1.63102e+06
1.62997e+06
1.62697e+06
1.62569e+06
1.62257e+06
1.62108e+06
1.61784e+06
1.61616e+06
1.6128e+06
1.61099e+06
1.60766e+06
1.64425e+06
1.64228e+06
1.64232e+06
1.64029e+06
1.64015e+06
1.6378e+06
1.63735e+06
1.63473e+06
1.63397e+06
1.63112e+06
1.63008e+06
1.62708e+06
1.62581e+06
1.62269e+06
1.62121e+06
1.61797e+06
1.61628e+06
1.61293e+06
1.61107e+06
1.60774e+06
1.64416e+06
1.64221e+06
1.64226e+06
1.64022e+06
1.64007e+06
1.63772e+06
1.63726e+06
1.63463e+06
1.63387e+06
1.63102e+06
1.62999e+06
1.62699e+06
1.62572e+06
1.6226e+06
1.62111e+06
1.61788e+06
1.6162e+06
1.61284e+06
1.61101e+06
1.60764e+06
1.64422e+06
1.64226e+06
1.64231e+06
1.64027e+06
1.64012e+06
1.63777e+06
1.63732e+06
1.63469e+06
1.63393e+06
1.63109e+06
1.63006e+06
1.62706e+06
1.62579e+06
1.62268e+06
1.62119e+06
1.61797e+06
1.61628e+06
1.61292e+06
1.61106e+06
1.60768e+06
1.64417e+06
1.64221e+06
1.64225e+06
1.64021e+06
1.64006e+06
1.63771e+06
1.63726e+06
1.63463e+06
1.63387e+06
1.63103e+06
1.63e+06
1.627e+06
1.62573e+06
1.62262e+06
1.62114e+06
1.61791e+06
1.61622e+06
1.61287e+06
1.61102e+06
1.60763e+06
1.6442e+06
1.64225e+06
1.64228e+06
1.64024e+06
1.6401e+06
1.63775e+06
1.6373e+06
1.63467e+06
1.63391e+06
1.63107e+06
1.63003e+06
1.62704e+06
1.62577e+06
1.62265e+06
1.62117e+06
1.61795e+06
1.61626e+06
1.61291e+06
1.61104e+06
1.60765e+06
1.64418e+06
1.64223e+06
1.64226e+06
1.64022e+06
1.64007e+06
1.63772e+06
1.63727e+06
1.63464e+06
1.63389e+06
1.63105e+06
1.63002e+06
1.62702e+06
1.62575e+06
1.62263e+06
1.62115e+06
1.61793e+06
1.61624e+06
1.61289e+06
1.61103e+06
1.60764e+06
1.64418e+06
1.64223e+06
1.64226e+06
1.64022e+06
1.64007e+06
1.63772e+06
1.63727e+06
1.63464e+06
1.63389e+06
1.63105e+06
1.63002e+06
1.62702e+06
1.62575e+06
1.62263e+06
1.62115e+06
1.61793e+06
1.61624e+06
1.61289e+06
1.61103e+06
1.60764e+06
1.6442e+06
1.64225e+06
1.64228e+06
1.64024e+06
1.6401e+06
1.63775e+06
1.6373e+06
1.63467e+06
1.63391e+06
1.63107e+06
1.63003e+06
1.62704e+06
1.62577e+06
1.62265e+06
1.62117e+06
1.61795e+06
1.61626e+06
1.61291e+06
1.61104e+06
1.60765e+06
1.64417e+06
1.64221e+06
1.64225e+06
1.64021e+06
1.64006e+06
1.63771e+06
1.63726e+06
1.63463e+06
1.63387e+06
1.63103e+06
1.63e+06
1.627e+06
1.62573e+06
1.62262e+06
1.62114e+06
1.61791e+06
1.61622e+06
1.61287e+06
1.61102e+06
1.60763e+06
1.64422e+06
1.64226e+06
1.64231e+06
1.64027e+06
1.64012e+06
1.63777e+06
1.63732e+06
1.63469e+06
1.63393e+06
1.63109e+06
1.63006e+06
1.62706e+06
1.62579e+06
1.62268e+06
1.62119e+06
1.61797e+06
1.61628e+06
1.61292e+06
1.61105e+06
1.60768e+06
1.64416e+06
1.64221e+06
1.64226e+06
1.64022e+06
1.64007e+06
1.63772e+06
1.63726e+06
1.63463e+06
1.63387e+06
1.63102e+06
1.62999e+06
1.62699e+06
1.62572e+06
1.6226e+06
1.62111e+06
1.61789e+06
1.6162e+06
1.61284e+06
1.61101e+06
1.60764e+06
1.64425e+06
1.64228e+06
1.64232e+06
1.64029e+06
1.64015e+06
1.6378e+06
1.63735e+06
1.63473e+06
1.63397e+06
1.63112e+06
1.63008e+06
1.62708e+06
1.62581e+06
1.62269e+06
1.62121e+06
1.61797e+06
1.61628e+06
1.61293e+06
1.61107e+06
1.60774e+06
1.64416e+06
1.64222e+06
1.64228e+06
1.64024e+06
1.64009e+06
1.63773e+06
1.63727e+06
1.63463e+06
1.63387e+06
1.63102e+06
1.62998e+06
1.62697e+06
1.62569e+06
1.62257e+06
1.62108e+06
1.61784e+06
1.61616e+06
1.6128e+06
1.61099e+06
1.60766e+06
1.64428e+06
1.64229e+06
1.64234e+06
1.64032e+06
1.64019e+06
1.63786e+06
1.63741e+06
1.63478e+06
1.63401e+06
1.63115e+06
1.63011e+06
1.6271e+06
1.62582e+06
1.6227e+06
1.62121e+06
1.61798e+06
1.61629e+06
1.61294e+06
1.6111e+06
1.60783e+06
1.64417e+06
1.64223e+06
1.64231e+06
1.64027e+06
1.64013e+06
1.63777e+06
1.63732e+06
1.63467e+06
1.63389e+06
1.63103e+06
1.62998e+06
1.62697e+06
1.62568e+06
1.62256e+06
1.62107e+06
1.61784e+06
1.61616e+06
1.61281e+06
1.611e+06
1.60773e+06
1.64448e+06
1.6425e+06
1.64259e+06
1.64058e+06
1.64045e+06
1.63811e+06
1.63766e+06
1.63502e+06
1.63425e+06
1.63139e+06
1.63034e+06
1.62733e+06
1.62605e+06
1.62293e+06
1.62145e+06
1.61822e+06
1.61654e+06
1.6132e+06
1.61137e+06
1.60809e+06
1.60363e+06
1.58942e+06
1.58121e+06
1.56603e+06
1.55621e+06
1.5401e+06
1.52899e+06
1.51209e+06
1.49983e+06
1.48222e+06
1.46894e+06
1.45069e+06
1.43648e+06
1.41765e+06
1.40259e+06
1.38325e+06
1.36741e+06
1.34759e+06
1.33104e+06
1.31078e+06
1.29358e+06
1.27294e+06
1.25514e+06
1.23414e+06
1.2158e+06
1.19448e+06
1.17565e+06
1.15406e+06
1.13477e+06
1.11293e+06
1.09325e+06
1.0712e+06
1.05116e+06
1.02894e+06
1.00859e+06
986226
965613
943143
922313
899780
878786
856232
835105
812518
791234
768640
747312
724821
703526
681183
659979
637829
616766
594847
573971
552320
531675
510328
489961
468953
448910
428280
408611
388399
369155
349405
330642
311398
293175
274490
256870
238798
221854