/*--------------------------------*- C++ -*----------------------------------*\
  =========                 |
  \\      /  F ield         | OpenFOAM: The Open Source CFD Toolbox
   \\    /   O peration     | Website:  https://openfoam.org
    \\  /    A nd           | Version:  7
     \\/     M anipulation  |
\*---------------------------------------------------------------------------*/
FoamFile
{
    version     2.0;
    format      ascii;
    class       surfaceScalarField;
    location    "1.75";
    object      phi_0;
}
// * * * * * * * * * * * * * * * * * * * * * * * * * * * * * * * * * * * * * //

dimensions      [1 0 -1 0 0 0 0];

internalField   nonuniform List<scalar> 
34160
(
-0.000232263
-0.0081401
0.00908222
0.000157166
-0.00858289
0.00819346
0.000149823
-0.00863778
0.00864513
0.000148618
-0.0086429
0.00864411
0.000146115
-0.00864992
0.00865242
0.000144648
-0.00865045
0.00865193
0.000145006
-0.0086471
0.00864675
0.000154117
-0.00865013
0.00864101
0.000280262
-0.00863383
0.00850769
-0.0085889
0.00851699
0.000352167
0.000204271
-0.00117701
-0.00646675
0.000432876
-0.00132568
-0.00748582
0.00040726
-0.00155731
-0.00705485
0.000397321
-0.00155926
-0.00707371
0.000388388
-0.00156554
-0.00707545
0.000383187
-0.00156245
-0.00708262
0.000381603
-0.0015548
-0.00709058
0.000388744
-0.00155665
-0.00710071
0.0004853
-0.00152282
-0.00720742
-0.00150739
-0.00718568
0.000589405
0.000231338
-0.00121413
0.000511053
0.000640527
-0.00125169
-0.000483176
0.000608704
-0.00149188
-3.3606e-05
0.000597502
-0.00150602
-4.20361e-05
0.000585105
-0.00151339
-3.97629e-05
0.000577243
-0.00151131
-4.32481e-05
0.000575797
-0.00150491
-4.84308e-05
0.000584548
-0.00150683
-5.85992e-05
0.000723452
-0.00147346
-0.000188231
-0.0014803
-0.000166387
0.000862701
0.000290812
-0.000217675
-0.000583466
0.000785846
-0.000188234
-0.00155849
0.000771017
-0.000441847
-0.00103521
0.000761206
-0.00046287
-0.00103333
0.000747306
-0.000472002
-0.0010276
0.00073748
-0.000470822
-0.00103056
0.0007348
-0.00046428
-0.00103789
0.000741317
-0.000467632
-0.00104581
0.000883089
-0.000430814
-0.00118442
-0.000430521
-0.00116283
0.000996137
0.000289557
-0.000187295
0.000384821
0.000877227
-0.00016442
-0.000611482
0.000874822
-0.000271812
-0.00016763
0.000868103
-0.000283477
-0.000172673
0.000853767
-0.000287198
-0.000170384
0.000842714
-0.00028704
-0.000172799
0.000840299
-0.00028453
-0.000177348
0.000844903
-0.000285878
-0.000186271
0.00100178
-0.000271438
-0.000316258
-0.000273306
-0.000293081
0.00113765
0.000288957
2.09667e-09
0.000228224
0.000914074
-2.27756e-09
-0.000789534
0.000925624
5.56281e-09
-0.000283367
0.000922009
-5.54767e-09
-0.000279855
0.000908027
1.59215e-08
-0.000273226
0.000896566
-1.13338e-08
-0.000275571
0.000893822
5.91089e-08
-0.000281845
0.000897377
-2.42021e-08
-0.000289402
0.00105751
2.49236e-07
-0.000431822
3.14433e-07
-0.000406691
0.00119058
0.000288958
0.000187299
0.000228224
0.000914074
0.000164416
-0.000789534
0.000925625
0.000271822
-0.000283366
0.000922009
0.000283467
-0.000279856
0.000908028
0.000287228
-0.000273223
0.000896566
0.000287016
-0.00027557
0.000893829
0.000284634
-0.000281838
0.000897381
0.000285825
-0.000289391
0.00105755
0.000271865
-0.000431784
0.000273781
-0.000406633
0.00119072
0.000289558
0.000217678
0.000384821
0.000877227
0.00018823
-0.000611481
0.000874823
0.000441857
-0.000167631
0.000868105
0.000462859
-0.000172674
0.000853769
0.00047203
-0.000170387
0.000842721
0.000470803
-0.000172803
0.00084031
0.000464386
-0.000177351
0.000844935
0.000467584
-0.000186303
0.00100188
0.000431212
-0.000316294
0.000431114
-0.000293509
0.00113805
0.000290813
0.00121413
-0.000583467
0.000785846
0.00125169
-0.00155849
0.000771019
0.00149189
-0.0010352
0.000761207
0.00150601
-0.00103334
0.000747311
0.00151341
-0.0010276
0.000737484
0.0015113
-0.00103056
0.000734822
0.00150497
-0.00103786
0.000741345
0.0015068
-0.00104584
0.000883218
0.00147367
-0.00118433
0.00148069
-0.001163
0.000996654
0.00023134
0.00117701
0.000511052
0.000640527
0.00132567
-0.000483173
0.000608705
0.00155732
-3.36058e-05
0.000597504
0.00155925
-4.20372e-05
0.000585109
0.00156556
-3.97592e-05
0.000577253
0.00156244
-4.32523e-05
0.000575815
0.00155486
-4.84271e-05
0.000584594
0.00155662
-5.86209e-05
0.000723551
0.00152294
-0.000188202
0.00150756
-0.000166998
0.000863625
0.000204276
0.0081401
-0.00646675
0.000432876
0.0085829
-0.00748582
0.000407261
0.00863778
-0.00705485
0.000397321
0.00864291
-0.00707372
0.000388393
0.00864991
-0.00707542
0.000383189
0.00865048
-0.00708265
0.000381626
0.00864706
-0.00709051
0.000388761
0.00865021
-0.00710081
0.000485351
0.00863361
-0.00720712
0.00858932
-0.00718638
0.000589904
-0.000232261
0.00908221
0.000157167
0.00819347
0.000149823
0.00864512
0.000148619
0.00864412
0.000146115
0.00865241
0.000144654
0.00865195
0.000145008
0.00864671
0.000154139
0.00864108
0.000280196
0.00850757
0.00851692
0.000352594
0.000374426
0.0102301
-0.000820225
0.000140176
0.00977015
-0.00134243
0.000126966
0.00977923
-0.00112089
0.000122992
0.00979244
-0.00114436
0.000119697
0.00979082
-0.0011351
0.000117965
0.00979529
-0.00114158
0.000117032
0.00979944
-0.00115172
0.000118167
0.00979988
-0.00116002
9.42857e-05
0.00976824
-0.00123662
0.00977362
-0.00123588
7.3516e-05
0.000905335
0.00238065
0.00118345
0.000414351
0.00192784
0.000847472
0.000372569
0.00175629
0.00100987
0.0003609
0.00174319
0.000987208
0.000351061
0.00173028
0.000994927
0.000345948
0.00172978
0.000988368
0.000342569
0.00173426
0.000978236
0.000341909
0.00173086
0.000968798
0.000242218
0.00175297
0.000907801
0.00175326
0.000908755
0.000168004
0.00105926
0.00145898
0.00107831
0.000657038
0.00122888
0.000618005
0.000602695
0.000929532
0.000847498
0.000589607
0.000892687
0.000821559
0.000575448
0.000874605
0.000830033
0.000567273
0.00087198
0.000822856
0.000563872
0.000876844
0.00081248
0.00056303
0.000870296
0.000802725
0.000486579
0.000919527
0.000721756
0.000913686
0.00072406
0.000435602
0.00113358
0.000517974
-7.17568e-05
0.00081324
0.000443806
-0.000453069
0.000773219
0.000240335
-0.000305988
0.000762147
0.000208074
-0.000337649
0.000746292
0.000194462
-0.000331814
0.000735976
0.000191816
-0.000339865
0.000731644
0.000194699
-0.000351276
0.000728107
0.000190018
-0.000362175
0.000656573
0.000227469
-0.000420821
0.00021979
-0.000420255
0.000607889
0.00113636
0.000273113
0.000197763
0.00090312
0.000239689
-0.000174127
0.000879734
8.4824e-05
1.1268e-05
0.000872707
5.45774e-05
-1.21475e-05
0.000856793
4.32365e-05
-3.10399e-06
0.000845399
3.96703e-05
-9.3693e-06
0.000841272
4.17184e-05
-2.02551e-05
0.000836395
3.72865e-05
-2.8521e-05
0.000780387
6.76472e-05
-0.000100426
6.24712e-05
-0.000100834
0.000745461
0.00113504
-3.12371e-09
7.05858e-05
0.000941994
5.0913e-09
-0.000356802
0.000931394
-2.90164e-09
-0.000187939
0.000927969
9.34872e-09
-0.000221861
0.000912361
-7.15349e-09
-0.000214341
0.000900533
3.14349e-08
-0.000224128
0.000896379
-2.50937e-08
-0.000235953
0.000889838
1.35763e-07
-0.000245677
0.000838302
-8.07208e-08
-0.000312557
8.95017e-07
-0.000311176
0.000804365
0.00113504
-0.000273119
7.0586e-05
0.000941993
-0.000239679
-0.000356803
0.000931394
-8.48304e-05
-0.000187938
0.000927969
-5.45561e-05
-0.000221864
0.000912362
-4.32531e-05
-0.000214338
0.000900534
-3.95975e-05
-0.000224137
0.000896384
-4.17783e-05
-0.000235942
0.000889844
-3.69686e-05
-0.000245715
0.000838323
-6.78199e-05
-0.000312523
-6.05212e-05
-0.000311311
0.000804417
0.00113636
-0.000517978
0.000197762
0.00090312
-0.000443798
-0.000174125
0.000879735
-0.000240341
1.12666e-05
0.000872708
-0.00020806
-1.21417e-05
0.000856794
-0.000194479
-3.09545e-06
0.000845406
-0.000191767
-9.36484e-06
0.000841281
-0.000194748
-2.02751e-05
0.000836428
-0.000189841
-2.84259e-05
0.000780429
-0.000227637
-0.000100476
-0.000218734
-0.000100482
0.000745601
0.00113358
-0.00145898
-7.1757e-05
0.00081324
-0.00122887
-0.00045307
0.00077322
-0.000929537
-0.000305987
0.000762148
-0.000892674
-0.000337651
0.000746295
-0.000874619
-0.000331808
0.000735984
-0.000871937
-0.000339881
0.000731658
-0.000876886
-0.000351271
0.000728144
-0.000870133
-0.000362204
0.000656633
-0.000919661
-0.00042079
-0.000912722
-0.000420377
0.000608012
0.00105926
-0.00238065
0.0010783
0.000657038
-0.00192783
0.000618007
0.000602695
-0.0017563
0.000847497
0.00058961
-0.00174318
0.00082156
0.00057545
-0.00173029
0.000830028
0.000567283
-0.00172975
0.000822844
0.000563884
-0.0017343
0.000812467
0.000563081
-0.00173076
0.000802729
0.000486653
-0.0017531
0.000721739
-0.00175274
0.000723912
0.000435672
0.000905331
-0.0102301
0.00118345
0.000414351
-0.00977015
0.000847472
0.000372569
-0.00977923
0.00100987
0.000360902
-0.00979245
0.000987208
0.000351061
-0.0097908
0.00099492
0.000345958
-0.0097953
0.000988371
0.000342574
-0.0097994
0.000978244
0.00034195
-0.00979992
0.000968791
0.00024229
-0.00976812
0.000907834
-0.0097736
0.000908706
0.000167935
0.000374424
-0.000820227
0.000140176
-0.00134243
0.000126966
-0.00112089
0.000122993
-0.00114436
0.000119698
-0.0011351
0.000117969
-0.00114155
0.000117034
-0.0011517
0.000118184
-0.00116003
9.42823e-05
-0.0012366
-0.00123594
7.35119e-05
0.00031
0.00118732
-0.00161474
0.000170073
0.000583987
-0.00178649
0.000154086
0.000639624
-0.00174453
0.000142559
0.000652375
-0.0017852
0.000138662
0.0006501
-0.0017813
0.000135588
0.000653402
-0.00179179
0.000131822
0.000655828
-0.0018037
0.000128485
0.000656521
-0.00181324
0.000119442
0.000613947
-0.00184143
0.000604425
-0.00184961
0.000128704
0.000811071
0.00094246
0.0013223
0.0004488
0.000381977
0.00141175
0.000400517
0.000267457
0.00143032
0.000380969
0.000263781
0.00139535
0.000370535
0.000252147
0.0014033
0.000364095
0.000252605
0.00139672
0.00035756
0.000256861
0.00138453
0.000353021
0.000254375
0.00137493
0.000264676
0.000254149
0.00135677
0.00025167
0.00134219
0.000183576
0.000998506
0.00145907
0.000267333
0.000682212
0.00117301
0.000143267
0.000622303
0.00101309
0.000161778
0.000600323
0.000981111
0.000126211
0.000585955
0.000967267
0.00012918
0.000576536
0.000964076
0.000121075
0.000569385
0.000965696
0.000110981
0.000564729
0.00095817
0.000103393
0.000493364
0.000966681
8.0808e-05
0.000964772
7.1117e-05
0.000432847
0.00105133
0.000804458
0.000235884
0.000833893
0.000671154
0.00026622
0.000789351
0.000492861
0.00025878
0.000770473
0.000456447
0.000205894
0.000754316
0.000439917
0.000211168
0.000742884
0.000436563
0.00019958
0.000734771
0.000440524
0.000182308
0.000726361
0.000434398
0.000169555
0.0006649
0.000462565
0.000144758
0.000456315
0.000134877
0.000618216
0.00106301
0.00039319
0.000250255
0.000923138
0.00038091
0.000255997
0.000897233
0.000285461
0.000244575
0.000883285
0.000264455
0.000193793
0.000867276
0.000255362
0.000197911
0.000854965
0.000253709
0.00018546
0.000847135
0.000255784
0.000172249
0.000837279
0.000253734
0.000162381
0.000789127
0.000273551
0.000136742
0.000271935
0.000121723
0.000750952
0.00105573
-4.28152e-09
0.000112263
0.000959575
5.29194e-09
0.000120261
0.000948991
-5.08506e-10
0.000108107
0.000939211
6.34007e-09
5.23688e-05
0.000923795
-2.96855e-09
5.64968e-05
0.000911168
2.51466e-08
4.21374e-05
0.000903252
-7.73978e-09
2.7736e-05
0.000891949
9.038e-08
1.93261e-05
0.000848479
3.51454e-09
4.46113e-06
4.92963e-07
-5.90177e-06
0.000814647
0.00105573
-0.000393198
0.000112264
0.000959575
-0.0003809
0.00012026
0.000948992
-0.000285462
0.000108108
0.000939211
-0.000264444
5.2368e-05
0.000923796
-0.000255365
5.65022e-05
0.00091117
-0.000253668
4.21332e-05
0.000903257
-0.000255793
2.77402e-05
0.000891958
-0.000253589
1.93261e-05
0.000848492
-0.000273529
4.47666e-06
-0.000271137
-5.89938e-06
0.000814706
0.00106301
-0.000804466
0.000250254
0.000923138
-0.000671144
0.000255998
0.000897234
-0.000492864
0.000244574
0.000883287
-0.000456433
0.000193795
0.000867279
-0.000439922
0.000197913
0.000854972
-0.000436514
0.000185456
0.000847145
-0.000440546
0.000172242
0.000837312
-0.000434201
0.000162404
0.000789152
-0.000462556
0.000136713
-0.000455314
0.000121727
0.000751086
0.00105132
-0.00145908
0.000235884
0.000833894
-0.001173
0.00026622
0.000789352
-0.00101309
0.000258781
0.000770475
-0.000981102
0.000205895
0.000754319
-0.000967271
0.00021117
0.000742894
-0.000964048
0.000199578
0.000734786
-0.000965715
0.000182299
0.000726405
-0.000958048
0.000169566
0.000664938
-0.000966652
0.000144776
-0.000964181
0.000135108
0.000618363
0.000998504
-0.000942464
0.000267332
0.000682213
-0.000381971
0.000143267
0.000622304
-0.000267458
0.000161777
0.000600326
-0.000263776
0.000126213
0.000585958
-0.00025215
0.000129179
0.000576549
-0.000252585
0.000121087
0.0005694
-0.000256872
0.000110981
0.000564786
-0.000254308
0.000103396
0.00049343
-0.000254097
8.07885e-05
-0.000251299
7.1237e-05
0.000432898
0.000811067
-0.00118732
0.0013223
0.000448801
-0.000583987
0.00141176
0.000400517
-0.000639622
0.00143032
0.000380972
-0.000652376
0.00139535
0.000370537
-0.000650096
0.00140327
0.000364108
-0.0006534
0.00139673
0.000357568
-0.000655814
0.00138452
0.000353071
-0.000656531
0.00137496
0.00026479
-0.000613886
0.00135673
-0.000604288
0.00134239
0.000183673
0.000309998
-0.00161474
0.000170073
-0.00178649
0.000154086
-0.00174453
0.000142559
-0.0017852
0.000138663
-0.0017813
0.000135592
-0.0017918
0.000131828
-0.00180369
0.000128503
-0.00181325
0.000119495
-0.0018414
-0.00184964
0.000128869
0.000291995
-0.000909082
-0.000293851
0.000222746
-0.00153183
-0.000185415
0.000211598
-0.00149649
-0.000236892
0.000189983
-0.00149679
-0.000266796
0.000184789
-0.00150558
-0.000270526
0.000178896
-0.0015055
-0.000280283
0.000170293
-0.00150595
-0.000289054
0.000161037
-0.00150908
-0.00029489
0.000168951
-0.00155804
-0.00029121
-0.00157404
-0.000299098
0.000192428
0.000748929
0.000184769
0.000183742
0.000515559
-0.000180966
0.000294264
0.000468263
-0.000266922
0.000248051
0.000438428
-0.000290607
0.000219002
0.000426303
-0.000306162
0.000215933
0.000416751
-0.000310339
0.000216017
0.000404834
-0.000310748
0.000204756
0.000394904
-0.00031609
0.00018943
0.000315602
-0.000319547
0.000201154
-0.000332542
0.000182805
0.000231829
0.000904596
0.000439154
-0.000187756
0.000722426
0.000188466
-4.39943e-05
0.000669549
5.67504e-05
-0.000109016
0.000640361
3.17793e-05
-0.000166987
0.000624949
1.17713e-05
-0.000173539
0.000612889
1.4817e-05
-0.000191498
0.00060013
2.15294e-05
-0.00020821
0.000588107
1.74849e-05
-0.000218477
0.000533405
2.97661e-05
-0.000213639
1.78585e-05
-0.000227747
0.000482043
0.000947443
0.000250275
0.00018153
0.000851593
0.000124892
0.000425648
0.000825599
-1.64888e-05
0.000358014
0.000800776
-4.22615e-05
0.000304759
0.000784613
-6.33788e-05
0.000300311
0.000771215
-5.33806e-05
0.000283179
0.000757729
-5.01124e-05
0.000268601
0.000743593
-6.03796e-05
0.000259705
0.000695808
-4.22693e-05
0.000264543
-4.83008e-05
0.000249866
0.000647012
0.000954396
0.000216508
3.37066e-05
0.000929749
0.000210696
0.00019485
0.000925421
0.000141832
9.05836e-05
0.000908146
0.000116691
5.21171e-05
0.000893431
0.000104336
4.67244e-05
0.000879909
0.000103183
4.10313e-05
0.000866862
0.000102827
3.20662e-05
0.000850905
9.70292e-05
2.25263e-05
0.000814367
0.00010491
2.61071e-05
9.89e-05
1.56832e-05
0.000773207
0.00093675
-6.90698e-09
9.61697e-05
0.000957987
5.93125e-09
0.0003097
0.000972802
2.08968e-09
0.000235123
0.000961295
7.29769e-09
0.000180561
0.000947621
3.15375e-09
0.000174657
0.000934067
2.95657e-08
0.000158721
0.000921164
1.66726e-09
0.000143428
0.000903658
8.63446e-08
0.000133909
0.000871812
7.38897e-08
0.000141145
3.7513e-07
0.000127474
0.000836961
0.00093675
-0.000216521
9.61701e-05
0.000957987
-0.000210685
0.000309701
0.000972802
-0.000141829
0.000235124
0.000961296
-0.00011668
0.000180562
0.000947622
-0.000104329
0.000174664
0.00093407
-0.000103135
0.000158721
0.000921169
-0.000102824
0.000143426
0.000903672
-9.68786e-05
0.000133925
0.000871817
-0.000104756
0.000141163
-9.8273e-05
0.00012752
0.000837035
0.000954394
-0.000250288
3.37066e-05
0.000929749
-0.00012488
0.000194849
0.000925422
1.64914e-05
9.05826e-05
0.000908148
4.22743e-05
5.21168e-05
0.000893435
6.33856e-05
4.6724e-05
0.00087992
5.3406e-05
4.10378e-05
0.000866876
5.01092e-05
3.20616e-05
0.000850942
6.05674e-05
2.25101e-05
0.000814379
4.24324e-05
2.60939e-05
4.84847e-05
1.58497e-05
0.000773348
0.00094744
-0.000439164
0.000181529
0.000851593
-0.000188459
0.000425649
0.0008256
-5.67488e-05
0.000358014
0.00080078
-3.17704e-05
0.00030476
0.000784618
-1.17661e-05
0.000300312
0.000771231
-1.47834e-05
0.000283175
0.000757751
-2.15325e-05
0.000268594
0.000743648
-1.73658e-05
0.000259727
0.000695854
-2.95668e-05
0.000264537
-1.74203e-05
0.00024986
0.00064719
0.000904593
-0.000184776
-0.000187756
0.000722426
0.000180971
-4.39944e-05
0.000669549
0.000266923
-0.000109017
0.000640366
0.000290612
-0.000166986
0.000624955
0.000306158
-0.000173535
0.000612909
0.000310361
-0.000191489
0.000600152
0.000310742
-0.000208212
0.000588171
0.000316156
-0.000218459
0.00053347
0.000319734
-0.000213651
0.000332843
-0.000227532
0.000482125
0.000748923
0.000909081
0.000183742
0.000515559
0.00153183
0.000294265
0.000468263
0.00149649
0.00024805
0.000438433
0.00149679
0.000219003
0.000426307
0.00150558
0.000215858
0.000416771
0.00150551
0.000216022
0.00040485
0.00150594
0.000204748
0.000394967
0.00150912
0.000189425
0.000315779
0.00155811
0.000201113
0.00157444
0.000182855
0.000232039
0.000291994
-0.000293851
0.000222746
-0.000185415
0.000211598
-0.000236892
0.000189985
-0.000266797
0.000184791
-0.000270522
0.000178907
-0.000280303
0.000170301
-0.000289066
0.000161071
-0.000294882
0.000169079
-0.000291221
-0.000299032
0.000192875
0.000285355
0.000117465
7.4137e-06
0.00025642
-0.000353076
0.000196597
0.000250835
-0.000339401
0.000108094
0.000226547
-0.000329116
8.66087e-05
0.000219975
-0.000340154
7.62032e-05
0.000210872
-0.000334725
6.34881e-05
0.000198278
-0.000330507
5.40039e-05
0.000185673
-0.00032986
4.77335e-05
0.000205428
-0.000368386
5.73957e-05
-0.000378012
5.09064e-05
0.000233438
0.000673193
0.000331514
5.72528e-07
0.000568237
-7.98271e-05
0.000125972
0.000531518
-0.000137084
8.24533e-05
0.000498584
-0.00014639
6.92116e-05
0.000483945
-0.000171717
6.217e-05
0.00047055
-0.000166978
5.93989e-05
0.000453237
-0.000160289
5.01654e-05
0.000439319
-0.000164241
3.90266e-05
0.000387547
-0.000170166
5.32771e-05
-0.000178654
4.15515e-05
0.000329653
0.000803495
8.81792e-05
-4.38888e-05
0.000754245
-0.00021041
0.000135839
0.00072869
-0.000280593
6.00493e-05
0.000700782
-0.000314714
2.92457e-05
0.00068499
-0.000348779
1.92592e-05
0.000670292
-0.000349254
5.45283e-06
0.000652679
-0.000345841
-5.09852e-06
0.000634828
-0.000352597
-1.22898e-05
0.000605116
-0.000352797
-1.34745e-06
-0.00037283
-7.06791e-06
0.000578691
0.000831361
0.000110034
3.24098e-05
0.000858943
1.52254e-05
0.000172436
0.000866005
-4.10412e-05
0.000111401
0.000848859
-8.59156e-05
9.31072e-05
0.000834102
-0.000118669
8.44916e-05
0.000820046
-0.000124723
7.31159e-05
0.000802974
-0.000125006
6.50524e-05
0.00078423
-0.000134248
5.96941e-05
0.000751522
-0.00012324
6.76831e-05
-0.000135611
6.16763e-05
0.000702505
0.000829522
3.76103e-05
-1.9342e-05
0.000911065
8.38312e-06
0.000120197
0.000946715
-5.06257e-05
6.45197e-05
0.000942833
-8.04909e-05
5.05756e-05
0.000932476
-0.000101752
4.1057e-05
0.000919937
-0.000103154
3.08685e-05
0.000904495
-0.000101375
2.27532e-05
0.000883596
-0.000106253
1.611e-05
0.000860724
-9.99988e-05
2.57294e-05
-0.000107093
2.16637e-05
0.000826227
0.000818683
-8.42829e-09
1.91877e-05
0.000928644
3.51994e-09
0.00020807
0.000985545
6.01433e-09
0.000127592
0.000989196
1.03237e-08
9.64096e-05
0.000981022
1.10069e-08
8.11475e-05
0.000969471
5.91754e-08
6.69763e-05
0.000954707
-1.94722e-08
5.67755e-05
0.000932705
1.80422e-07
4.95435e-05
0.000912374
9.16958e-08
6.13876e-05
9.40426e-07
5.45584e-05
0.000877256
0.000818683
-3.76261e-05
1.91871e-05
0.000928643
-8.37418e-06
0.000208071
0.000985545
5.06385e-05
0.000127591
0.000989198
8.05142e-05
9.64071e-05
0.000981025
0.000101774
8.11448e-05
0.000969477
0.000103282
6.69702e-05
0.000954715
0.000101335
5.6773e-05
0.000932727
0.000106627
4.95249e-05
0.000912385
0.000100255
6.13433e-05
0.000108983
5.44834e-05
0.000877376
0.000829523
-0.000110051
-1.9341e-05
0.000911063
-1.52152e-05
0.000120196
0.000946716
4.10488e-05
6.45206e-05
0.000942835
8.59363e-05
5.05767e-05
0.000932483
0.000118685
4.10668e-05
0.000919957
0.000124832
3.08685e-05
0.000904511
0.000124967
2.27473e-05
0.000883644
0.000134563
1.61365e-05
0.000860749
0.000123461
2.57746e-05
0.000137159
2.18744e-05
0.0008265
0.000831358
-8.81936e-05
3.24096e-05
0.000858941
0.00021042
0.000172435
0.000866006
0.000280598
0.000111401
0.000848865
0.000314732
9.3107e-05
0.000834112
0.00034879
8.44999e-05
0.000820074
0.000349351
7.31134e-05
0.000803002
0.000345801
6.50549e-05
0.000784307
0.000352875
5.9701e-05
0.000751607
0.000353029
6.76674e-05
0.000374114
6.16539e-05
0.000702897
0.000803489
-0.000331524
-4.38879e-05
0.000754244
7.98336e-05
0.000135839
0.00072869
0.000137086
6.00505e-05
0.000700789
0.000146402
2.92451e-05
0.000685
0.000171721
1.92577e-05
0.000670331
0.000167046
5.4349e-06
0.000652709
0.00016025
-5.1118e-06
0.000634935
0.000164423
-1.22469e-05
0.000605096
0.000170449
-1.31373e-06
0.000179323
-6.8754e-06
0.000579323
0.000673183
-0.000117465
5.729e-07
0.000568236
0.000353075
0.000125972
0.000531517
0.000339402
8.24539e-05
0.000498592
0.000329119
6.92114e-05
0.000483952
0.000340154
6.21201e-05
0.000470592
0.000334756
5.94051e-05
0.000453259
0.000330484
5.01592e-05
0.00043942
0.000329961
3.90214e-05
0.00038774
0.00036856
5.32559e-05
0.000378638
4.16018e-05
0.00032989
0.000285354
7.41413e-06
0.000256419
0.000196596
0.000250834
0.000108096
0.000226549
8.66082e-05
0.000219976
7.62075e-05
0.000210901
6.35125e-05
0.000198287
5.40159e-05
0.000185751
4.77613e-05
0.000205681
5.74166e-05
5.10164e-05
0.000234258
0.000332638
0.000322432
5.64221e-05
0.000300029
9.22101e-05
0.000136997
0.000282773
4.1105e-05
8.42454e-05
0.00025863
1.7906e-05
9.28469e-05
0.000252927
-2.54983e-06
8.44605e-05
0.000242031
-1.9133e-06
7.61211e-05
0.000228741
-3.5681e-06
7.07466e-05
0.00021789
-6.78597e-06
6.58374e-05
0.000234456
-2.91965e-05
6.99167e-05
-3.95032e-05
6.78063e-05
0.000257129
0.000638141
0.000340543
4.8393e-05
0.000614566
0.000144333
9.74246e-05
0.00058487
9.50731e-05
5.81822e-05
0.000555276
4.81373e-05
6.85756e-05
0.000540538
1.50549e-05
5.93512e-05
0.000526049
1.36496e-05
5.52968e-05
0.000507597
1.01966e-05
5.28383e-05
0.000495081
-2.96405e-06
4.86156e-05
0.000472072
-8.4713e-06
5.30495e-05
-2.42655e-05
5.54142e-05
0.000444524
0.000737261
0.000217561
4.59025e-05
0.000773098
0.000106188
0.000138149
0.000770796
7.02876e-05
8.71374e-05
0.000754623
1.90904e-06
9.16472e-05
0.000742388
-3.57307e-05
8.22498e-05
0.000729335
-4.08514e-05
7.27775e-05
0.000713442
-4.56475e-05
6.64074e-05
0.000695576
-5.84168e-05
6.10639e-05
0.000683074
-6.36043e-05
6.61294e-05
-8.73013e-05
6.31753e-05
0.000675973
0.000760414
0.000164165
2.9461e-05
0.000844584
0.000106793
8.76625e-05
0.000883082
9.14052e-05
5.17856e-05
0.000886422
3.79436e-05
5.37336e-05
0.00088127
5.77407e-06
4.79668e-05
0.000872563
-3.18077e-07
4.14342e-05
0.000859274
-4.84433e-06
3.76136e-05
0.000842944
-1.7544e-05
3.49982e-05
0.000826433
-1.82306e-05
3.88152e-05
-2.78393e-05
3.85618e-05
0.000790092
0.000754338
5.31096e-05
4.14406e-05
0.000864558
5.89471e-06
0.000110886
0.000941035
1.87262e-05
6.07229e-05
0.000962904
-1.01907e-05
7.68422e-05
0.000966701
-2.492e-05
6.82389e-05
0.000963255
-2.63175e-05
5.99699e-05
0.000953929
-2.7577e-05
5.44464e-05
0.000935582
-3.27453e-05
4.99424e-05
0.000922835
-3.40756e-05
5.43209e-05
-4.13304e-05
5.38041e-05
0.000904187
0.000746525
-5.80729e-09
2.9845e-05
0.0008708
-9.61348e-09
8.96892e-05
0.000966275
1.84019e-08
5.08252e-05
0.000998518
1.3734e-08
5.39637e-05
0.0010072
2.9302e-08
4.75549e-05
0.00100684
1.47273e-07
4.08347e-05
0.000999301
-6.18972e-08
3.67657e-05
0.000981797
4.56253e-07
3.38816e-05
0.0009713
1.58052e-07
3.76511e-05
2.1679e-06
3.7422e-05
0.000944939
0.000746525
-5.31218e-05
2.98448e-05
0.000870798
-5.9105e-06
8.96887e-05
0.000966276
-1.86934e-05
5.08249e-05
0.000998518
1.02166e-05
5.39636e-05
0.0010072
2.49712e-05
4.75529e-05
0.00100685
2.65937e-05
4.0844e-05
0.000999305
2.74626e-05
3.67696e-05
0.000981832
3.35806e-05
3.39072e-05
0.000971292
3.43583e-05
3.76839e-05
4.52442e-05
3.75579e-05
0.00094514
0.00075434
-0.000164178
4.14405e-05
0.00086455
-0.000106803
0.000110889
0.000941038
-9.13843e-05
6.07247e-05
0.000962904
-3.79133e-05
7.6841e-05
0.000966716
-5.73835e-06
6.8239e-05
0.000963282
5.96048e-07
5.99644e-05
0.000953968
4.71138e-06
5.44535e-05
0.00093567
1.84085e-05
4.98838e-05
0.000922913
1.8633e-05
5.42557e-05
3.186e-05
5.34468e-05
0.000904709
0.000760414
-0.000217575
2.94608e-05
0.000844573
-0.000106187
8.76625e-05
0.000883085
-7.02803e-05
5.1786e-05
0.000886427
-1.88165e-06
5.37338e-05
0.000881288
3.57498e-05
4.79704e-05
0.000872619
4.10809e-05
4.14562e-05
0.00085931
4.55322e-05
3.76228e-05
0.000843087
5.9128e-05
3.50356e-05
0.000826552
6.39612e-05
3.88766e-05
9.03915e-05
3.86905e-05
0.000791003
0.000737258
-0.000340554
4.59026e-05
0.000773092
-0.000144329
0.000138148
0.000770794
-9.50704e-05
8.71393e-05
0.000754631
-4.81195e-05
9.16471e-05
0.000742406
-1.50436e-05
8.2254e-05
0.000729417
-1.34838e-05
7.27927e-05
0.000713495
-1.0278e-05
6.6418e-05
0.000695861
3.4876e-06
6.1046e-05
0.000683456
8.83134e-06
6.60906e-05
2.60951e-05
6.29185e-05
0.000678064
0.000638132
-0.000322434
4.83927e-05
0.000614563
-9.22117e-05
9.74246e-05
0.000584867
-4.1103e-05
5.81832e-05
0.000555287
-1.78994e-05
6.85719e-05
0.00054055
2.54711e-06
5.93494e-05
0.000526145
1.9914e-06
5.53035e-05
0.000507622
3.5299e-06
5.28555e-05
0.000495343
6.96601e-06
4.87123e-05
0.00047222
2.94343e-05
5.3268e-05
4.00191e-05
5.55141e-05
0.000445933
0.000332637
5.6422e-05
0.000300026
0.000136997
0.000282772
8.42478e-05
0.000258635
9.28467e-05
0.000252929
8.44671e-05
0.0002421
7.61114e-05
0.000228761
7.07364e-05
0.00021814
6.58544e-05
0.000234961
6.98902e-05
6.76908e-05
0.000258388
0.00045729
0.000233691
6.94858e-05
0.000386359
0.000144525
6.34036e-05
0.000332037
9.74002e-05
4.1168e-05
0.000306355
6.71852e-05
5.13452e-05
0.000299002
4.40215e-05
4.77937e-05
0.000287675
3.92003e-05
4.81707e-05
0.00027912
2.79403e-05
5.13079e-05
0.000272268
2.13864e-05
5.14309e-05
0.000284924
7.33772e-06
4.9869e-05
-9.11979e-07
4.89972e-05
0.00030468
0.000679911
0.000237384
6.88311e-05
0.000680258
0.000176674
6.49294e-05
0.000646832
0.000146837
4.21723e-05
0.000623881
9.7201e-05
6.15119e-05
0.000610592
5.91944e-05
5.74803e-05
0.000598345
4.96606e-05
5.63377e-05
0.00058637
3.66811e-05
5.55572e-05
0.000578815
2.41112e-05
5.37113e-05
0.000570442
1.44592e-05
5.3726e-05
6.36869e-06
5.08821e-05
0.000568004
0.000731864
0.000186209
6.92562e-05
0.000790811
0.000187064
6.88129e-05
0.00080091
0.000179604
4.42715e-05
0.000801455
0.000124218
6.40874e-05
0.000799006
8.33693e-05
6.05145e-05
0.000793702
6.92859e-05
5.83702e-05
0.000787501
5.16177e-05
5.75901e-05
0.000775934
4.00833e-05
5.66781e-05
0.000775218
2.4785e-05
5.64504e-05
1.32271e-05
5.58226e-05
0.00077577
0.000738874
0.0001141
6.67368e-05
0.000821748
0.000127898
6.39571e-05
0.000873325
0.000138343
4.14705e-05
0.000899712
9.19544e-05
5.96109e-05
0.000912078
6.31502e-05
5.57634e-05
0.000918395
5.04824e-05
5.39659e-05
0.000917953
3.61904e-05
5.35004e-05
0.0009135
2.71545e-05
5.23279e-05
0.000909005
1.67408e-05
5.13532e-05
1.36666e-05
4.97866e-05
0.000897344
0.000732069
5.96363e-05
6.78756e-05
0.000827857
7.29844e-05
7.00174e-05
0.000902659
7.6416e-05
4.78494e-05
0.000947581
5.91024e-05
6.47725e-05
0.000974057
4.45613e-05
6.04534e-05
0.000990252
3.61513e-05
5.79809e-05
0.000996183
2.70877e-05
5.74874e-05
0.000994309
2.27823e-05
5.62788e-05
0.00099464
1.48834e-05
5.58478e-05
1.37959e-05
5.57516e-05
0.000992564
0.000727232
6.73042e-09
6.62832e-05
0.000826491
-4.40506e-08
6.34539e-05
0.000912258
3.97195e-08
4.14356e-05
0.000965226
9.01189e-09
6.00902e-05
0.0010008
7.33712e-08
5.64872e-05
0.00102285
3.26477e-07
5.45895e-05
0.00103228
2.6641e-08
5.43858e-05
0.00103484
8.1198e-07
5.33058e-05
0.00103435
6.01524e-07
5.24181e-05
2.93853e-06
5.22495e-05
0.00103038
0.000727233
-5.96246e-05
6.62834e-05
0.000826488
-7.30673e-05
6.3453e-05
0.000912261
-7.63436e-05
4.14365e-05
0.000965218
-5.90721e-05
6.00892e-05
0.00100081
-4.4434e-05
5.64847e-05
0.00102285
-3.54785e-05
5.45888e-05
0.00103231
-2.70759e-05
5.43925e-05
0.00103492
-2.11548e-05
5.3283e-05
0.00103449
-1.37403e-05
5.24572e-05
-7.74294e-06
5.20732e-05
0.00103066
0.000732074
-0.000114093
6.78759e-05
0.000827846
-0.000127958
7.00131e-05
0.000902666
-0.000138299
4.78609e-05
0.000947563
-9.1902e-05
6.47747e-05
0.000974086
-6.30688e-05
6.04507e-05
0.000990283
-4.98299e-05
5.79941e-05
0.000996257
-3.62133e-05
5.74869e-05
0.000994453
-2.56693e-05
5.62913e-05
0.000994841
-1.57253e-05
5.58525e-05
-8.58418e-06
5.58793e-05
0.000993245
0.000738881
-0.00018621
6.67376e-05
0.000821725
-0.000187092
6.39534e-05
0.000873333
-0.000179594
4.14737e-05
0.000899709
-0.000124152
5.96088e-05
0.000912129
-8.33403e-05
5.57618e-05
0.00091847
-6.86548e-05
5.39806e-05
0.000918106
-5.17281e-05
5.35177e-05
0.000913861
-3.8726e-05
5.22864e-05
0.000909483
-2.39265e-05
5.14469e-05
-8.52725e-06
4.94084e-05
0.000898722
0.00073187
-0.000237391
6.9257e-05
0.000790793
-0.000176674
6.88084e-05
0.000800909
-0.000146844
4.42746e-05
0.000801461
-9.71459e-05
6.40895e-05
0.000799051
-5.91987e-05
6.05154e-05
0.000793907
-4.92e-05
5.8399e-05
0.000787694
-3.6773e-05
5.7598e-05
0.000776832
-2.34692e-05
5.66735e-05
0.000775909
-1.34987e-05
5.65212e-05
-4.46891e-06
5.58571e-05
0.000779002
0.000679905
-0.000233693
6.88323e-05
0.000680252
-0.000144522
6.49259e-05
0.000646823
-9.74051e-05
4.21743e-05
0.000623903
-6.71667e-05
6.15136e-05
0.000610623
-4.40292e-05
5.74801e-05
0.000598583
-3.89674e-05
5.6367e-05
0.000586535
-2.79463e-05
5.55609e-05
0.000579396
-2.10583e-05
5.37012e-05
0.000571227
-6.47625e-06
5.38421e-05
1.4278e-06
5.05338e-05
0.000570574
0.000457287
6.94869e-05
0.00038636
6.34018e-05
0.000332034
4.11694e-05
0.000306368
5.13473e-05
0.000299016