/*--------------------------------*- C++ -*----------------------------------*\
  =========                 |
  \\      /  F ield         | OpenFOAM: The Open Source CFD Toolbox
   \\    /   O peration     | Website:  https://openfoam.org
    \\  /    A nd           | Version:  7
     \\/     M anipulation  |
\*---------------------------------------------------------------------------*/
FoamFile
{
    version     2.0;
    format      ascii;
    class       volScalarField;
    location    "0.1";
    object      T;
}
// * * * * * * * * * * * * * * * * * * * * * * * * * * * * * * * * * * * * * //

dimensions      [0 0 0 1 0 0 0];

internalField   nonuniform List<scalar> 
600
(
283.153
283.17
283.268
283.368
283.422
283.44
283.446
283.436
283.478
283.284
283.145
283.153
283.356
283.64
283.832
283.912
283.944
283.913
284.031
283.688
283.137
283.104
283.318
283.716
284.051
284.221
284.295
284.265
284.387
284.124
283.133
283.061
283.253
283.695
284.122
284.372
284.477
284.48
284.54
284.425
283.132
283.045
283.229
283.682
284.134
284.407
284.517
284.542
284.556
284.53
283.132
283.043
283.228
283.683
284.136
284.41
284.519
284.548
284.552
284.549
283.132
283.043
283.228
283.683
284.136
284.41
284.519
284.548
284.551
284.552
283.132
283.045
283.229
283.682
284.134
284.407
284.516
284.546
284.545
284.559
283.133
283.061
283.253
283.695
284.122
284.373
284.471
284.501
284.487
284.534
283.137
283.104
283.318
283.716
284.05
284.224
284.284
284.303
284.284
284.344
283.145
283.153
283.356
283.64
283.831
283.914
283.936
283.943
283.932
283.972
283.153
283.17
283.268
283.368
283.422
283.44
283.444
283.445
283.442
283.454
286.922
287.524
287.552
287.541
287.54
287.535
287.526
287.511
287.487
287.451
287.401
287.338
287.263
287.181
287.099
287.022
286.953
286.896
286.853
286.824
286.807
286.795
286.781
286.758
286.725
286.686
286.646
286.608
286.574
286.542
286.508
286.474
286.44
286.405
286.37
286.333
286.294
286.253
286.219
286.153
285.823
286.425
286.453
286.446
286.443
286.437
286.427
286.41
286.385
286.349
286.299
286.237
286.165
286.089
286.015
285.949
285.894
285.854
285.829
285.82
285.82
285.825
285.826
285.815
285.791
285.76
285.726
285.693
285.664
285.636
285.607
285.576
285.546
285.515
285.484
285.451
285.417
285.383
285.355
285.299
285.193
285.677
285.708
285.7
285.692
285.681
285.666
285.645
285.614
285.571
285.514
285.444
285.363
285.276
285.191
285.113
285.045
284.992
284.955
284.936
284.929
284.928
284.926
284.915
284.893
284.864
284.832
284.804
284.779
284.755
284.731
284.706
284.682
284.658
284.635
284.61
284.586
284.563
284.543
284.503
284.837
285.141
285.166
285.155
285.141
285.125
285.104
285.075
285.038
284.988
284.924
284.845
284.756
284.66
284.564
284.474
284.395
284.328
284.276
284.241
284.217
284.199
284.18
284.152
284.115
284.074
284.032
283.995
283.965
283.939
283.916
283.894
283.875
283.859
283.844
283.829
283.815
283.803
283.793
283.769
284.645
284.783
284.793
284.779
284.762
284.742
284.717
284.685
284.644
284.59
284.523
284.442
284.35
284.252
284.155
284.063
283.983
283.916
283.864
283.828
283.804
283.786
283.767
283.739
283.702
283.659
283.616
283.577
283.544
283.515
283.487
283.461
283.437
283.415
283.394
283.373
283.353
283.335
283.322
283.291
284.563
284.59
284.587
284.575
284.561
284.545
284.524
284.496
284.46
284.412
284.351
284.276
284.19
284.1
284.01
283.926
283.853
283.793
283.749
283.721
283.704
283.693
283.68
283.658
283.626
283.588
283.548
283.512
283.481
283.452
283.423
283.394
283.367
283.341
283.315
283.288
283.261
283.235
283.215
283.17
284.538
284.519
284.513
284.506
284.498
284.488
284.472
284.45
284.418
284.375
284.318
284.247
284.165
284.078
283.991
283.91
283.84
283.782
283.739
283.712
283.697
283.688
283.676
283.654
283.623
283.585
283.546
283.51
283.479
283.45
283.421
283.392
283.365
283.339
283.312
283.285
283.258
283.231
283.211
283.164
284.474
284.414
284.409
284.407
284.404
284.398
284.387
284.37
284.343
284.304
284.252
284.186
284.108
284.025
283.943
283.866
283.799
283.745
283.706
283.683
283.67
283.664
283.654
283.635
283.606
283.57
283.532
283.498
283.468
283.44
283.412
283.384
283.358
283.332
283.307
283.281
283.255
283.229
283.21
283.166
284.327
284.237
284.235
284.234
284.233
284.229
284.22
284.205
284.181
284.145
284.095
284.032
283.958
283.878
283.799
283.726
283.663
283.614
283.579
283.56
283.552
283.55
283.546
283.532
283.508
283.478
283.446
283.417
283.393
283.372
283.35
283.329
283.31
283.291
283.272
283.253
283.234
283.216
283.202
283.167
284.088
284.001
284.002
284.002
284.001
283.998
283.989
283.975
283.951
283.915
283.867
283.804
283.731
283.653
283.575
283.504
283.443
283.396
283.365
283.35
283.347
283.351
283.354
283.348
283.333
283.312
283.291
283.273
283.261
283.252
283.243
283.235
283.228
283.221
283.215
283.207
283.199
283.19
283.185
283.163
283.774
283.715
283.719
283.718
283.717
283.712
283.704
283.689
283.665
283.63
283.581
283.52
283.449
283.374
283.301
283.236
283.184
283.147
283.129
283.128
283.14
283.16
283.178
283.186
283.184
283.176
283.166
283.16
283.158
283.159
283.16
283.161
283.163
283.165
283.167
283.167
283.166
283.166
283.166
283.156
283.378
283.359
283.361
283.359
283.357
283.353
283.345
283.331
283.311
283.282
283.243
283.196
283.145
283.095
283.053
283.022
283.006
283.005
283.017
283.041
283.071
283.101
283.122
283.132
283.13
283.124
283.119
283.117
283.12
283.125
283.128
283.132
283.136
283.14
283.144
283.146
283.147
283.149
283.152
283.15
)
;

boundaryField
{
    upperWall
    {
        type            fixedValue;
        value           uniform 283.15;
    }
    lowerWall
    {
        type            fixedValue;
        value           uniform 283.15;
    }
    heatedWall
    {
        type            externalWallHeatFluxTemperature;
        mode            power;
        kappaMethod     fluidThermo;
        kappa           none;
        alphaAni        Anialpha;
        Q               5040;
        qr              none;
        refValue        nonuniform List<scalar> 
40
(
287.731
288.309
288.351
288.332
288.33
288.322
288.309
288.289
288.256
288.209
288.143
288.058
287.955
287.841
287.724
287.612
287.512
287.429
287.365
287.321
287.294
287.278
287.262
287.238
287.205
287.164
287.12
287.078
287.041
287.005
286.969
286.933
286.896
286.86
286.823
286.785
286.745
286.703
286.669
286.602
)
;
        refGradient     nonuniform List<scalar> 
40
(
96.9814
94.2228
95.907
94.9166
94.8396
94.4577
93.9948
93.3385
92.365
90.976
89.0032
86.366
83.0301
79.1424
74.9731
70.8637
67.1141
63.9378
61.4446
59.6606
58.5349
57.9426
57.7087
57.63
57.5209
57.284
56.9141
56.4667
56.0216
55.6297
55.2921
54.9967
54.7456
54.5354
54.3686
54.2245
54.1312
53.9811
53.9977
53.8706
)
;
        valueFraction   uniform 0;
        value           nonuniform List<scalar> 
40
(
287.731
288.309
288.351
288.332
288.33
288.322
288.309
288.289
288.256
288.209
288.143
288.058
287.955
287.841
287.724
287.612
287.512
287.429
287.365
287.321
287.294
287.278
287.262
287.238
287.205
287.164
287.12
287.078
287.041
287.005
286.969
286.933
286.896
286.86
286.823
286.785
286.745
286.703
286.669
286.602
)
;
    }
    inlet
    {
        type            fixedValue;
        value           uniform 283.15;
    }
    outlet
    {
        type            inletOutlet;
        inletValue      uniform 283.15;
        value           nonuniform List<scalar> 
12
(
286.153
285.299
284.503
283.769
283.291
283.17
283.164
283.166
283.167
283.163
283.156
283.15
)
;
    }
    frontAndBack
    {
        type            empty;
    }
}


// ************************************************************************* //
