/*--------------------------------*- C++ -*----------------------------------*\
  =========                 |
  \\      /  F ield         | OpenFOAM: The Open Source CFD Toolbox
   \\    /   O peration     | Website:  https://openfoam.org
    \\  /    A nd           | Version:  7
     \\/     M anipulation  |
\*---------------------------------------------------------------------------*/
FoamFile
{
    version     2.0;
    format      ascii;
    class       volVectorField;
    location    "0.7475";
    object      UMean;
}
// * * * * * * * * * * * * * * * * * * * * * * * * * * * * * * * * * * * * * //

dimensions      [0 1 -1 0 0 0 0];

internalField   nonuniform List<vector> 
4950
(
(3.5308 0.405261 -27.03)
(2.87658 0.139165 -27.0667)
(2.17059 0.039399 -27.0684)
(2.00272 -0.0237335 -27.0753)
(1.74991 -0.0419648 -27.0733)
(1.75566 -0.0473969 -27.0772)
(1.61438 -0.0479908 -27.0751)
(1.65357 -0.0466742 -27.0781)
(1.55068 -0.0454013 -27.0763)
(1.59403 -0.0440914 -27.0788)
(1.5126 -0.0426052 -27.0775)
(1.55394 -0.0425354 -27.0796)
(1.48745 -0.0397279 -27.0786)
(1.5254 -0.0424597 -27.0802)
(1.46921 -0.0340703 -27.0797)
(1.50439 -0.044167 -27.0806)
(1.45252 -0.0143805 -27.0808)
(1.47701 -0.0438568 -27.0801)
(1.44729 0.0859773 -27.0833)
(1.25586 0.121197 -27.0708)
(4.59388 0.529003 -27.0548)
(4.78853 0.351763 -27.0841)
(4.50713 0.262401 -27.0835)
(4.47787 0.166059 -27.0901)
(4.20894 0.113095 -27.0892)
(4.20681 0.0840321 -27.0932)
(4.00612 0.0666342 -27.0919)
(4.03127 0.0568213 -27.0946)
(3.87904 0.0495307 -27.0938)
(3.91654 0.0450943 -27.0961)
(3.7972 0.0406872 -27.0961)
(3.83917 0.0390373 -27.0981)
(3.74224 0.0343456 -27.0986)
(3.78663 0.0364824 -27.0999)
(3.70228 0.0264745 -27.1012)
(3.75578 0.0376752 -27.1011)
(3.66646 0.00951242 -27.1042)
(3.76477 0.0331601 -27.0999)
(3.61915 -0.021815 -27.1097)
(3.96963 -0.05842 -27.0799)
(4.71083 0.276987 -27.0566)
(5.1762 0.194004 -27.0803)
(5.26147 0.169099 -27.0731)
(5.49134 0.108781 -27.077)
(5.42172 0.072892 -27.0726)
(5.54074 0.0483964 -27.0758)
(5.44468 0.0315455 -27.0725)
(5.52507 0.0200716 -27.0752)
(5.43367 0.0115485 -27.0728)
(5.49528 0.00482762 -27.0753)
(5.41484 0.000317671 -27.074)
(5.4639 -0.00443847 -27.0765)
(5.39623 -0.00602839 -27.0764)
(5.43322 -0.0104643 -27.0788)
(5.3819 -0.00828542 -27.0797)
(5.39865 -0.0138805 -27.0813)
(5.37574 -0.00276915 -27.0836)
(5.34081 -0.00891 -27.0833)
(5.36438 0.0285881 -27.0879)
(5.21819 0.0644641 -27.0681)
(4.68862 0.163036 -27.065)
(5.09626 0.121995 -27.0893)
(5.27458 0.112429 -27.0836)
(5.59433 0.0821185 -27.0856)
(5.62935 0.0636143 -27.082)
(5.83204 0.0514213 -27.0836)
(5.81777 0.042835 -27.0812)
(5.95842 0.0371051 -27.0824)
(5.92741 0.0323194 -27.0807)
(6.0314 0.0287578 -27.0818)
(5.99395 0.0253749 -27.0809)
(6.0745 0.0231692 -27.0823)
(6.03379 0.0199962 -27.0824)
(6.10071 0.0196454 -27.0841)
(6.05571 0.0146201 -27.085)
(6.12103 0.0181797 -27.0866)
(6.06696 0.00652357 -27.0881)
(6.15741 0.0152846 -27.0894)
(6.09117 -0.00374302 -27.0914)
(6.29091 -0.00785756 -27.0729)
(4.68981 -2.5615e-08 -27.0604)
(5.09345 3.57801e-08 -27.0829)
(5.2807 -3.85527e-08 -27.0744)
(5.6136 1.26586e-07 -27.0765)
(5.66057 -5.9053e-08 -27.0709)
(5.87597 3.80726e-07 -27.0731)
(5.87625 6.66108e-08 -27.0691)
(6.03053 1.02811e-06 -27.071)
(6.01559 7.16153e-07 -27.068)
(6.13195 3.04948e-06 -27.0697)
(6.11095 2.7034e-06 -27.0677)
(6.19919 1.04462e-05 -27.0698)
(6.17733 6.18961e-06 -27.069)
(6.24049 3.94866e-05 -27.0714)
(6.22583 7.40074e-06 -27.0714)
(6.25556 0.000140485 -27.0739)
(6.26711 7.16612e-06 -27.0744)
(6.22889 0.000418519 -27.0771)
(6.29329 0.000109754 -27.0778)
(6.13592 0.000744573 -27.0619)
(4.68862 -0.163036 -27.065)
(5.09626 -0.121995 -27.0893)
(5.27458 -0.112429 -27.0836)
(5.59433 -0.0821183 -27.0856)
(5.62935 -0.0636142 -27.082)
(5.83204 -0.0514208 -27.0836)
(5.81777 -0.0428345 -27.0812)
(5.95842 -0.0371038 -27.0824)
(5.92741 -0.0323169 -27.0807)
(6.03141 -0.0287548 -27.0818)
(5.99395 -0.0253663 -27.0809)
(6.07451 -0.0231597 -27.0823)
(6.03379 -0.0199728 -27.0824)
(6.10075 -0.019608 -27.0842)
(6.05574 -0.0145659 -27.0848)
(6.1211 -0.0180421 -27.0868)
(6.0671 -0.00638342 -27.0878)
(6.15758 -0.0148707 -27.0898)
(6.09155 0.00429826 -27.091)
(6.29146 0.00900729 -27.0733)
(4.71083 -0.276987 -27.0566)
(5.1762 -0.194004 -27.0803)
(5.26147 -0.169099 -27.0731)
(5.49134 -0.108781 -27.077)
(5.42172 -0.072892 -27.0726)
(5.54074 -0.0483958 -27.0758)
(5.44468 -0.0315452 -27.0725)
(5.52508 -0.0200702 -27.0752)
(5.43367 -0.0115472 -27.0727)
(5.4953 -0.00482342 -27.0753)
(5.41484 -0.000313688 -27.0739)
(5.46394 0.00445289 -27.0767)
(5.39622 0.00603557 -27.0762)
(5.43332 0.01052 -27.0791)
(5.38192 0.00828604 -27.0793)
(5.39888 0.0140812 -27.082)
(5.37588 0.00274406 -27.0825)
(5.34139 0.0094977 -27.085)
(5.36507 -0.0284827 -27.0855)
(5.2199 -0.0631259 -27.0714)
(4.59388 -0.529003 -27.0548)
(4.78853 -0.351763 -27.0841)
(4.50713 -0.262401 -27.0835)
(4.47787 -0.166059 -27.0901)
(4.20894 -0.113095 -27.0892)
(4.20681 -0.0840321 -27.0932)
(4.00612 -0.0666337 -27.0919)
(4.03128 -0.0568211 -27.0946)
(3.87904 -0.0495288 -27.0938)
(3.91655 -0.0450939 -27.0962)
(3.79721 -0.0406813 -27.096)
(3.8392 -0.0390352 -27.0982)
(3.74226 -0.0343295 -27.0984)
(3.78672 -0.0364687 -27.1003)
(3.70238 -0.026437 -27.1006)
(3.75599 -0.0376098 -27.1021)
(3.66684 -0.00942495 -27.1023)
(3.76529 -0.0329368 -27.1033)
(3.62028 0.0221009 -27.1033)
(3.97144 0.0587463 -27.0913)
(3.5308 -0.405261 -27.03)
(2.87658 -0.139165 -27.0667)
(2.17059 -0.039399 -27.0684)
(2.00272 0.0237335 -27.0753)
(1.74991 0.0419648 -27.0733)
(1.75566 0.0473971 -27.0772)
(1.61438 0.0479907 -27.0751)
(1.65357 0.0466745 -27.0781)
(1.55068 0.0454008 -27.0763)
(1.59404 0.0440922 -27.0788)
(1.51261 0.0426037 -27.0775)
(1.55396 0.0425376 -27.0796)
(1.48747 0.0397238 -27.0786)
(1.52546 0.0424657 -27.0803)
(1.46927 0.0340592 -27.0795)
(1.50453 0.044182 -27.0809)
(1.45278 0.014356 -27.0802)
(1.47737 0.0439157 -27.0813)
(1.44817 -0.0859566 -27.0806)
(1.25741 -0.120665 -27.0789)
(4.49889 0.180622 0.00537327)
(3.78625 0.263925 0.0037895)
(3.23106 0.22369 0.00455777)
(2.72311 0.150799 0.00353824)
(2.49287 0.104398 0.00426401)
(2.27032 0.0745141 0.00344901)
(2.21256 0.0607542 0.00408502)
(2.10667 0.0532572 0.00338706)
(2.09811 0.0500499 0.00392464)
(2.03512 0.0483525 0.00331909)
(2.03756 0.0469242 0.00377053)
(1.995 0.0471528 0.00324636)
(1.99909 0.0443702 0.00362593)
(1.96921 0.0476867 0.00317372)
(1.97207 0.0380085 0.00349359)
(1.95447 0.0517766 0.00310334)
(1.94713 0.0121507 0.00337624)
(1.98092 0.0589697 0.00303406)
(1.88798 -0.11741 0.0033027)
(2.32755 -0.156858 0.0029106)
(4.61935 0.100767 0.00351717)
(4.65945 0.214563 0.00223964)
(4.78245 0.186902 0.00296564)
(4.6721 0.13265 0.00195817)
(4.65035 0.0793423 0.00267762)
(4.5157 0.0399024 0.00186003)
(4.48242 0.0147875 0.00249268)
(4.37871 -0.000249574 0.001793)
(4.35687 -0.00961076 0.00232872)
(4.28238 -0.0152811 0.00172258)
(4.2695 -0.0189154 0.00217263)
(4.21575 -0.022261 0.00164893)
(4.2091 -0.022347 0.00202625)
(4.16795 -0.027096 0.00157651)
(4.16862 -0.0207627 0.00188984)
(4.1277 -0.0318993 0.0015073)
(4.14744 -0.0108302 0.00175698)
(4.06761 -0.0257327 0.00143462)
(4.15212 0.0023756 0.00159927)
(3.80895 0.0772459 0.00124789)
(4.55461 0.0578319 0.00479996)
(4.71438 0.174284 0.00361016)
(5.00992 0.197151 0.00430456)
(5.11288 0.17143 0.00328698)
(5.27024 0.139977 0.00399605)
(5.28227 0.109716 0.0031739)
(5.35134 0.0891365 0.00380744)
(5.33126 0.0739022 0.00310878)
(5.36479 0.0633552 0.00364766)
(5.34036 0.0556948 0.00304304)
(5.35828 0.0492274 0.00349616)
(5.33753 0.0451977 0.0029725)
(5.34565 0.0397179 0.00335396)
(5.33283 0.0389832 0.00290101)
(5.3293 0.0305993 0.00322494)
(5.33487 0.0363609 0.00283114)
(5.30689 0.0118607 0.00311804)
(5.36181 0.0330576 0.00276638)
(5.29453 -0.0494343 0.00308498)
(5.4391 -0.0414162 0.00271887)
(4.51409 0.0267817 0.00335269)
(4.58545 0.0664758 0.00227806)
(4.90249 0.0671947 0.00296103)
(5.0546 0.0575286 0.00196305)
(5.28448 0.0437822 0.00266718)
(5.36775 0.0314428 0.00184425)
(5.50327 0.0224581 0.00247339)
(5.54346 0.0161018 0.00177283)
(5.62839 0.0115341 0.00230849)
(5.64956 0.00817276 0.00170318)
(5.70668 0.00550949 0.0021535)
(5.7176 0.00311629 0.00163079)
(5.75862 0.00173238 0.00200773)
(5.76016 -0.000762966 0.00155901)
(5.79543 -0.000140808 0.00187049)
(5.77803 -0.00371307 0.00148898)
(5.82618 0.000269049 0.00173128)
(5.74321 -0.000785064 0.00140867)
(5.84654 -0.000251713 0.00153645)
(5.53015 0.0312386 0.00123693)
(4.54484 -9.51663e-10 0.00471208)
(4.66532 4.40269e-08 0.00363837)
(4.95671 7.68868e-09 0.0043108)
(5.10028 1.06979e-07 0.00329868)
(5.32164 1.75624e-08 0.00399951)
(5.40651 2.63087e-07 0.00317354)
(5.546 2.31825e-07 0.00380492)
(5.5938 6.17177e-07 0.00310518)
(5.68679 1.05587e-06 0.00364406)
(5.71844 1.56514e-06 0.00303954)
(5.78381 3.64316e-06 0.00349307)
(5.80747 4.44975e-06 0.00296965)
(5.85252 1.04516e-05 0.00335153)
(5.87353 1.43715e-05 0.00289865)
(5.89892 2.92943e-05 0.0032236)
(5.92769 4.40323e-05 0.00282936)
(5.92754 9.69944e-05 0.00312086)
(5.98406 0.000130835 0.0027664)
(5.97079 0.000361792 0.00310098)
(6.04351 0.000516337 0.00273848)
(4.51409 -0.0267817 0.00335269)
(4.58545 -0.0664757 0.00227806)
(4.90249 -0.0671948 0.00296103)
(5.0546 -0.0575283 0.00196305)
(5.28448 -0.0437824 0.00266718)
(5.36775 -0.031442 0.00184425)
(5.50327 -0.0224581 0.00247339)
(5.54346 -0.0160995 0.00177283)
(5.62839 -0.0115337 0.00230848)
(5.64956 -0.00816602 0.00170318)
(5.70667 -0.00550748 0.0021535)
(5.71761 -0.0030946 0.00163079)
(5.75862 -0.0017281 0.00200772)
(5.76019 0.00083682 0.00155901)
(5.79544 0.00014601 0.00187047)
(5.77811 0.00395099 0.00148898)
(5.82624 -0.000244275 0.00173124)
(5.74341 0.0014476 0.00140863)
(5.84683 0.000505437 0.00153651)
(5.53074 -0.0297487 0.00123677)
(4.55461 -0.0578319 0.00479996)
(4.71438 -0.174284 0.00361016)
(5.00992 -0.197151 0.00430456)
(5.11288 -0.17143 0.00328698)
(5.27024 -0.139977 0.00399605)
(5.28228 -0.109715 0.0031739)
(5.35134 -0.0891359 0.00380743)
(5.33126 -0.0739013 0.00310878)
(5.36479 -0.063353 0.00364765)
(5.34036 -0.0556922 0.00304304)
(5.35828 -0.0492203 0.00349614)
(5.33756 -0.0451892 0.00297252)
(5.34565 -0.0396979 0.00335393)
(5.3329 -0.038952 0.00290105)
(5.32934 -0.030545 0.00322487)
(5.33504 -0.0362572 0.00283123)
(5.30706 -0.0116904 0.00311787)
(5.36223 -0.0327722 0.00276656)
(5.29512 0.0500689 0.00308459)
(5.44031 0.0422256 0.00271899)
(4.61935 -0.100767 0.00351717)
(4.65945 -0.214563 0.00223964)
(4.78245 -0.186902 0.00296564)
(4.6721 -0.13265 0.00195817)
(4.65035 -0.0793423 0.00267762)
(4.5157 -0.039902 0.00186003)
(4.48242 -0.0147874 0.00249267)
(4.37871 0.000250605 0.001793)
(4.35687 0.00961132 0.00232872)
(4.28239 0.0152841 0.00172258)
(4.2695 0.0189169 0.00217263)
(4.21579 0.0222709 0.00164894)
(4.20909 0.0223486 0.00202623)
(4.16807 0.0271312 0.00157653)
(4.16863 0.0207565 0.00188977)
(4.12804 0.0320195 0.00150736)
(4.14749 0.0108058 0.00175682)
(4.06866 0.026092 0.00143473)
(4.15237 -0.00229823 0.00159904)
(3.81239 -0.0762061 0.00124796)
(4.49889 -0.180622 0.00537327)
(3.78625 -0.263925 0.0037895)
(3.23106 -0.22369 0.00455777)
(2.72311 -0.150799 0.00353824)
(2.49287 -0.104397 0.00426401)
(2.27032 -0.0745142 0.00344901)
(2.21256 -0.0607539 0.00408502)
(2.10667 -0.0532574 0.00338706)
(2.09811 -0.0500489 0.00392464)
(2.03513 -0.0483531 0.00331909)
(2.03757 -0.0469208 0.00377052)
(1.99502 -0.0471539 0.00324636)
(1.99912 -0.0443602 0.00362591)
(1.96927 -0.047686 0.00317375)
(1.97218 -0.0379823 0.00349352)
(1.95461 -0.0517629 0.00310346)
(1.9475 -0.0120908 0.00337597)
(1.98133 -0.0589467 0.00303452)
(1.88888 0.117511 0.00330149)
(2.32976 0.156431 0.00291291)
(4.44858 0.0615238 -2.04792e-08)
(4.25318 0.106785 -2.05718e-08)
(3.91565 0.112511 -2.06153e-08)
(3.62554 0.0958826 -2.06069e-08)
(3.32993 0.0717001 -2.06943e-08)
(3.11914 0.0496418 -2.0654e-08)
(2.93468 0.0299371 -2.07445e-08)
(2.81988 0.0162577 -2.06256e-08)
(2.72563 0.00553322 -2.06921e-08)
(2.67359 -0.000386358 -2.05795e-08)
(2.63102 -0.00518196 -2.07515e-08)
(2.61037 -0.00650722 -2.07138e-08)
(2.59183 -0.00896782 -2.09146e-08)
(2.58627 -0.00752213 -2.0845e-08)
(2.57476 -0.0108291 -2.10281e-08)
(2.58377 -0.00587517 -2.09652e-08)
(2.55883 -0.0146661 -2.11555e-08)
(2.60734 -0.00400971 -2.10987e-08)
(2.52134 -0.0266598 -2.12951e-08)
(2.6811 -0.0356322 -2.11479e-08)
(4.50877 0.0550113 -2.0439e-08)
(4.64202 0.100361 -2.04667e-08)
(4.71009 0.124537 -2.05065e-08)
(4.7909 0.128604 -2.05115e-08)
(4.79639 0.120028 -2.05982e-08)
(4.80913 0.103227 -2.06118e-08)
(4.77893 0.0851113 -2.07635e-08)
(4.76334 0.0670707 -2.06671e-08)
(4.72729 0.0529222 -2.07242e-08)
(4.70694 0.0408539 -2.06169e-08)
(4.6773 0.0328724 -2.08168e-08)
(4.66062 0.0260501 -2.08175e-08)
(4.63999 0.022145 -2.10353e-08)
(4.62883 0.018571 -2.09433e-08)
(4.61632 0.0159575 -2.10824e-08)
(4.61078 0.0163449 -2.09566e-08)
(4.6033 0.0100059 -2.11559e-08)
(4.60523 0.0225919 -2.10909e-08)
(4.59176 0.0026925 -2.13729e-08)
(4.60319 0.0469758 -2.12104e-08)
(4.49878 0.0205607 -2.04743e-08)
(4.62182 0.0498881 -2.05218e-08)
(4.71321 0.0710595 -2.0543e-08)
(4.86423 0.0796963 -2.05338e-08)
(4.96583 0.0781957 -2.06418e-08)
(5.08542 0.0709777 -2.0643e-08)
(5.15693 0.0601818 -2.07644e-08)
(5.23323 0.049768 -2.06718e-08)
(5.27428 0.0397703 -2.07791e-08)
(5.31966 0.032135 -2.07316e-08)
(5.34202 0.0253026 -2.09795e-08)
(5.37067 0.0209818 -2.10188e-08)
(5.38346 0.0160525 -2.12594e-08)
(5.40472 0.0146447 -2.11502e-08)
(5.41258 0.00899883 -2.12429e-08)
(5.43097 0.0121337 -2.10424e-08)
(5.43829 0.000441015 -2.12037e-08)
(5.45105 0.0133333 -2.11137e-08)
(5.47361 -0.0127339 -2.13977e-08)
(5.46065 0.00893385 -2.13295e-08)
(4.49696 0.0165907 -2.04635e-08)
(4.59768 0.0308033 -2.05291e-08)
(4.67867 0.0397669 -2.05567e-08)
(4.82632 0.0429673 -2.05655e-08)
(4.9364 0.0425822 -2.06708e-08)
(5.07309 0.0392385 -2.06647e-08)
(5.16798 0.0348356 -2.07661e-08)
(5.27113 0.029823 -2.06685e-08)
(5.34082 0.0255222 -2.077e-08)
(5.41415 0.0216011 -2.07162e-08)
(5.46498 0.0186946 -2.09396e-08)
(5.5181 0.0162141 -2.09664e-08)
(5.55814 0.0142917 -2.11918e-08)
(5.59699 0.0130235 -2.11713e-08)
(5.6334 0.0109959 -2.13418e-08)
(5.65677 0.0118333 -2.1081e-08)
(5.70111 0.0072705 -2.11956e-08)
(5.69353 0.0143572 -2.1198e-08)
(5.77128 0.00339957 -2.13777e-08)
(5.69529 0.0248489 -2.12718e-08)
(4.49769 -2.14346e-08 -2.04798e-08)
(4.60889 6.60454e-08 -2.05422e-08)
(4.69061 -5.42228e-08 -2.05844e-08)
(4.83747 1.60472e-07 -2.06018e-08)
(4.94435 -8.12928e-08 -2.07041e-08)
(5.07981 3.99421e-07 -2.06724e-08)
(5.17482 2.99681e-08 -2.07688e-08)
(5.2802 9.90066e-07 -2.06976e-08)
(5.3528 4.98027e-07 -2.0845e-08)
(5.43062 2.83788e-06 -2.08088e-08)
(5.48529 1.69507e-06 -2.0994e-08)
(5.54444 9.21004e-06 -2.09216e-08)
(5.58776 3.72853e-06 -2.10603e-08)
(5.6346 3.06478e-05 -2.09599e-08)
(5.67212 8.88761e-06 -2.11296e-08)
(5.707 9.16558e-05 -2.10272e-08)
(5.74911 4.26088e-05 -2.11798e-08)
(5.75899 0.000233187 -2.11434e-08)
(5.83857 0.000238749 -2.13511e-08)
(5.78785 0.000525135 -2.12303e-08)
(4.49696 -0.0165908 -2.04678e-08)
(4.59768 -0.0308031 -2.05388e-08)
(4.67867 -0.039767 -2.0588e-08)
(4.82632 -0.0429669 -2.06222e-08)
(4.9364 -0.0425825 -2.07124e-08)
(5.07309 -0.0392376 -2.06631e-08)
(5.16798 -0.0348358 -2.07493e-08)
(5.27113 -0.0298207 -2.07131e-08)
(5.34082 -0.0255219 -2.09011e-08)
(5.41415 -0.0215943 -2.0879e-08)
(5.46498 -0.0186936 -2.10157e-08)
(5.51811 -0.0161925 -2.08624e-08)
(5.55814 -0.0142911 -2.09337e-08)
(5.597 -0.0129541 -2.08088e-08)
(5.63343 -0.0109958 -2.10131e-08)
(5.65679 -0.0116318 -2.09929e-08)
(5.7012 -0.00722721 -2.12249e-08)
(5.69362 -0.013857 -2.11627e-08)
(5.77152 -0.00301606 -2.13301e-08)
(5.69562 -0.0237611 -2.11709e-08)
(4.49878 -0.0205607 -2.04848e-08)
(4.62182 -0.049888 -2.05638e-08)
(4.7132 -0.0710596 -2.06301e-08)
(4.86423 -0.079696 -2.06683e-08)
(4.96583 -0.0781958 -2.07546e-08)
(5.08543 -0.0709771 -2.06912e-08)
(5.15693 -0.0601817 -2.0779e-08)
(5.23324 -0.0497663 -2.07459e-08)
(5.27428 -0.0397694 -2.09288e-08)
(5.31967 -0.03213 -2.08762e-08)
(5.34201 -0.0252997 -2.09676e-08)
(5.37069 -0.0209656 -2.07732e-08)
(5.38346 -0.0160467 -2.08318e-08)
(5.40477 -0.0145903 -2.07953e-08)
(5.41261 -0.00898782 -2.10842e-08)
(5.43108 -0.0119693 -2.10128e-08)
(5.43844 -0.000384056 -2.11152e-08)
(5.45134 -0.0129153 -2.11216e-08)
(5.47412 0.0131057 -2.12917e-08)
(5.4615 -0.00801006 -2.11068e-08)
(4.50877 -0.0550113 -2.05003e-08)
(4.64202 -0.100361 -2.06108e-08)
(4.71009 -0.124537 -2.06525e-08)
(4.7909 -0.128604 -2.06777e-08)
(4.79639 -0.120028 -2.0773e-08)
(4.80913 -0.103226 -2.07036e-08)
(4.77893 -0.0851111 -2.07628e-08)
(4.76334 -0.0670696 -2.0738e-08)
(4.72728 -0.0529215 -2.0958e-08)
(4.70696 -0.0408501 -2.095e-08)
(4.67728 -0.0328714 -2.10745e-08)
(4.66067 -0.0260365 -2.09191e-08)
(4.63997 -0.022146 -2.10187e-08)
(4.62897 -0.018524 -2.09391e-08)
(4.6163 -0.0159672 -2.11503e-08)
(4.6111 -0.0162033 -2.11011e-08)
(4.60337 -0.0100109 -2.12776e-08)
(4.60605 -0.02224 -2.11554e-08)
(4.59218 -0.00251021 -2.13153e-08)
(4.60541 -0.0462217 -2.1154e-08)
(4.44858 -0.0615238 -2.04794e-08)
(4.25318 -0.106785 -2.05048e-08)
(3.91565 -0.112511 -2.05438e-08)
(3.62554 -0.0958826 -2.05796e-08)
(3.32993 -0.0716999 -2.06682e-08)
(3.11914 -0.0496418 -2.06272e-08)
(2.93468 -0.0299366 -2.07587e-08)
(2.81988 -0.0162579 -2.07839e-08)
(2.72563 -0.005532 -2.10105e-08)
(2.6736 0.000386 -2.09936e-08)
(2.63103 0.00518489 -2.11325e-08)
(2.61041 0.00650778 -2.1015e-08)
(2.59185 0.00897327 -2.11451e-08)
(2.58635 0.0075294 -2.10509e-08)
(2.57485 0.0108369 -2.12102e-08)
(2.58401 0.00590817 -2.11101e-08)
(2.55909 0.0146831 -2.12657e-08)
(2.60819 0.00410051 -2.11704e-08)
(2.52167 0.0267655 -2.13589e-08)
(2.68479 0.0357447 -2.12834e-08)
(4.49889 0.180622 -0.0053733)
(3.78625 0.263925 -0.00378954)
(3.23106 0.22369 -0.0045578)
(2.72311 0.150799 -0.00353827)
(2.49287 0.104398 -0.00426405)
(2.27032 0.0745141 -0.00344904)
(2.21256 0.0607542 -0.00408505)
(2.10667 0.0532572 -0.00338709)
(2.09811 0.0500499 -0.00392468)
(2.03512 0.0483525 -0.00331912)
(2.03756 0.0469242 -0.00377056)
(1.995 0.0471528 -0.00324639)
(1.99909 0.0443702 -0.00362596)
(1.96921 0.0476867 -0.00317375)
(1.97207 0.0380085 -0.00349363)
(1.95447 0.0517766 -0.00310337)
(1.94713 0.0121507 -0.00337628)
(1.98092 0.0589697 -0.00303409)
(1.88798 -0.11741 -0.00330273)
(2.32755 -0.156858 -0.00291064)
(4.61935 0.100767 -0.00351721)
(4.65945 0.214563 -0.00223968)
(4.78245 0.186902 -0.00296567)
(4.6721 0.13265 -0.00195821)
(4.65035 0.0793423 -0.00267766)
(4.5157 0.0399024 -0.00186006)
(4.48242 0.0147875 -0.00249271)
(4.37871 -0.000249579 -0.00179304)
(4.35687 -0.00961076 -0.00232876)
(4.28238 -0.0152811 -0.00172262)
(4.2695 -0.0189154 -0.00217267)
(4.21575 -0.022261 -0.00164897)
(4.2091 -0.022347 -0.00202629)
(4.16795 -0.027096 -0.00157655)
(4.16862 -0.0207627 -0.00188987)
(4.1277 -0.0318993 -0.00150734)
(4.14744 -0.0108302 -0.00175702)
(4.06761 -0.0257327 -0.00143465)
(4.15212 0.00237559 -0.00159931)
(3.80895 0.0772459 -0.00124793)
(4.55461 0.0578319 -0.0048)
(4.71438 0.174284 -0.00361019)
(5.00992 0.197151 -0.0043046)
(5.11288 0.17143 -0.00328701)
(5.27024 0.139977 -0.00399608)
(5.28227 0.109716 -0.00317394)
(5.35134 0.0891365 -0.00380747)
(5.33126 0.0739022 -0.00310882)
(5.36479 0.0633552 -0.00364769)
(5.34035 0.0556948 -0.00304307)
(5.35828 0.0492274 -0.00349619)
(5.33753 0.0451977 -0.00297254)
(5.34565 0.0397179 -0.003354)
(5.33283 0.0389831 -0.00290105)
(5.3293 0.0305993 -0.00322498)
(5.33487 0.0363609 -0.00283118)
(5.30689 0.0118607 -0.00311808)
(5.36181 0.0330576 -0.00276641)
(5.29453 -0.0494343 -0.00308502)
(5.4391 -0.0414162 -0.00271891)
(4.51409 0.0267817 -0.00335272)
(4.58545 0.0664758 -0.00227809)
(4.90249 0.0671947 -0.00296107)
(5.0546 0.0575286 -0.00196308)
(5.28448 0.0437822 -0.00266721)
(5.36775 0.0314428 -0.00184428)
(5.50327 0.0224581 -0.00247342)
(5.54346 0.0161018 -0.00177287)
(5.62839 0.0115342 -0.00230852)
(5.64956 0.00817276 -0.00170321)
(5.70668 0.0055095 -0.00215353)
(5.7176 0.00311629 -0.00163082)
(5.75862 0.00173238 -0.00200777)
(5.76016 -0.00076298 -0.00155904)
(5.79543 -0.000140816 -0.00187052)
(5.77803 -0.0037131 -0.00148902)
(5.82618 0.000269029 -0.00173131)
(5.74321 -0.000785103 -0.0014087)
(5.84654 -0.000251744 -0.00153649)
(5.53015 0.0312386 -0.00123696)
(4.54484 -3.01967e-09 -0.00471211)
(4.66532 3.3963e-08 -0.0036384)
(4.95671 -1.78286e-10 -0.00431083)
(5.10028 1.01892e-07 -0.00329871)
(5.32164 2.13337e-08 -0.00399954)
(5.40651 2.68459e-07 -0.00317358)
(5.546 2.4157e-07 -0.00380496)
(5.5938 6.23422e-07 -0.00310521)
(5.68679 1.06133e-06 -0.0036441)
(5.71844 1.57045e-06 -0.00303958)
(5.78381 3.64471e-06 -0.0034931)
(5.80747 4.44517e-06 -0.00296969)
(5.85252 1.0424e-05 -0.00335157)
(5.87353 1.43479e-05 -0.00289869)
(5.89892 2.92494e-05 -0.00322364)
(5.92769 4.40077e-05 -0.0028294)
(5.92754 9.69582e-05 -0.0031209)
(5.98406 0.00013081 -0.00276643)
(5.97079 0.000361771 -0.00310101)
(6.04351 0.000516298 -0.00273852)
(4.51409 -0.0267817 -0.00335272)
(4.58545 -0.0664757 -0.00227809)
(4.90249 -0.0671948 -0.00296107)
(5.0546 -0.0575283 -0.00196308)
(5.28448 -0.0437824 -0.00266721)
(5.36775 -0.031442 -0.00184428)
(5.50327 -0.0224581 -0.00247342)
(5.54346 -0.0160995 -0.00177287)
(5.62839 -0.0115337 -0.00230852)
(5.64956 -0.008166 -0.00170321)
(5.70667 -0.00550747 -0.00215353)
(5.71761 -0.00309459 -0.00163082)
(5.75862 -0.00172809 -0.00200776)
(5.76019 0.000836818 -0.00155904)
(5.79544 0.000146013 -0.0018705)
(5.77811 0.00395097 -0.00148902)
(5.82624 -0.000244284 -0.00173128)
(5.74341 0.00144758 -0.00140866)
(5.84683 0.000505418 -0.00153655)
(5.53074 -0.0297487 -0.0012368)
(4.55461 -0.0578319 -0.0048)
(4.71438 -0.174284 -0.00361019)
(5.00992 -0.197151 -0.0043046)
(5.11288 -0.17143 -0.00328701)
(5.27024 -0.139977 -0.00399608)
(5.28228 -0.109715 -0.00317394)
(5.35134 -0.0891359 -0.00380747)
(5.33126 -0.0739013 -0.00310882)
(5.36479 -0.063353 -0.00364769)
(5.34036 -0.0556922 -0.00304308)
(5.35828 -0.0492203 -0.00349618)
(5.33756 -0.0451892 -0.00297255)
(5.34565 -0.0396979 -0.00335397)
(5.3329 -0.038952 -0.00290108)
(5.32934 -0.0305451 -0.00322491)
(5.33504 -0.0362572 -0.00283127)
(5.30706 -0.0116904 -0.00311791)
(5.36223 -0.0327722 -0.0027666)
(5.29512 0.0500689 -0.00308463)
(5.44031 0.0422256 -0.00271903)
(4.61935 -0.100767 -0.00351721)
(4.65945 -0.214563 -0.00223968)
(4.78245 -0.186902 -0.00296567)
(4.6721 -0.13265 -0.00195821)
(4.65035 -0.0793423 -0.00267766)
(4.5157 -0.039902 -0.00186006)
(4.48242 -0.0147874 -0.00249271)
(4.37871 0.000250626 -0.00179304)
(4.35687 0.00961134 -0.00232876)
(4.28239 0.0152842 -0.00172262)
(4.2695 0.0189169 -0.00217266)
(4.21579 0.022271 -0.00164897)
(4.20909 0.0223486 -0.00202627)
(4.16807 0.0271312 -0.00157657)
(4.16863 0.0207566 -0.00188981)
(4.12804 0.0320195 -0.0015074)
(4.14749 0.0108059 -0.00175686)
(4.06866 0.026092 -0.00143476)
(4.15236 -0.00229821 -0.00159908)
(3.81239 -0.0762061 -0.001248)
(4.49889 -0.180622 -0.00537331)
(3.78625 -0.263925 -0.00378954)
(3.23106 -0.22369 -0.0045578)
(2.72311 -0.150799 -0.00353827)
(2.49287 -0.104397 -0.00426405)
(2.27032 -0.0745142 -0.00344904)
(2.21256 -0.0607539 -0.00408505)
(2.10667 -0.0532574 -0.00338709)
(2.09811 -0.0500488 -0.00392468)
(2.03513 -0.0483531 -0.00331912)
(2.03757 -0.0469208 -0.00377056)
(1.99502 -0.0471539 -0.0032464)
(1.99912 -0.0443602 -0.00362594)
(1.96927 -0.047686 -0.00317378)
(1.97218 -0.0379823 -0.00349355)
(1.95461 -0.0517629 -0.0031035)
(1.9475 -0.0120909 -0.00337601)
(1.98133 -0.0589467 -0.00303456)
(1.88888 0.117511 -0.00330153)
(2.32976 0.156431 -0.00291295)
(3.5308 0.405261 27.03)
(2.87658 0.139165 27.0667)
(2.17059 0.039399 27.0684)
(2.00272 -0.0237335 27.0753)
(1.74991 -0.0419648 27.0733)
(1.75566 -0.047397 27.0772)
(1.61438 -0.0479909 27.0751)
(1.65356 -0.0466742 27.0781)
(1.55068 -0.0454013 27.0763)
(1.59403 -0.0440914 27.0788)
(1.5126 -0.0426052 27.0775)
(1.55394 -0.0425354 27.0796)
(1.48745 -0.0397279 27.0786)
(1.5254 -0.0424597 27.0802)
(1.46921 -0.0340703 27.0797)
(1.50439 -0.044167 27.0806)
(1.45252 -0.0143805 27.0808)
(1.47701 -0.0438568 27.0801)
(1.44729 0.0859772 27.0833)
(1.25586 0.121197 27.0708)
(4.59388 0.529003 27.0548)
(4.78853 0.351763 27.0841)
(4.50713 0.262401 27.0835)
(4.47787 0.166059 27.0901)
(4.20894 0.113095 27.0892)
(4.20681 0.0840321 27.0932)
(4.00612 0.0666342 27.0919)
(4.03127 0.0568213 27.0946)
(3.87904 0.0495307 27.0938)
(3.91654 0.0450943 27.0961)
(3.7972 0.0406872 27.0961)
(3.83917 0.0390373 27.0981)
(3.74224 0.0343456 27.0986)
(3.78663 0.0364823 27.0999)
(3.70228 0.0264745 27.1012)
(3.75578 0.0376752 27.1011)
(3.66646 0.00951238 27.1042)
(3.76477 0.0331601 27.0999)
(3.61915 -0.0218151 27.1097)
(3.96963 -0.0584201 27.0799)
(4.71083 0.276987 27.0566)
(5.1762 0.194004 27.0803)
(5.26147 0.169099 27.0731)
(5.49134 0.108781 27.077)
(5.42172 0.072892 27.0726)
(5.54074 0.0483964 27.0758)
(5.44468 0.0315455 27.0725)
(5.52507 0.0200716 27.0752)
(5.43367 0.0115485 27.0728)
(5.49528 0.00482765 27.0753)
(5.41484 0.000317696 27.074)
(5.4639 -0.00443844 27.0765)
(5.39623 -0.00602836 27.0764)
(5.43322 -0.0104643 27.0788)
(5.3819 -0.0082854 27.0797)
(5.39865 -0.0138805 27.0813)
(5.37574 -0.00276913 27.0836)
(5.34081 -0.00891 27.0833)
(5.36438 0.0285881 27.0879)
(5.21819 0.064464 27.0681)
(4.68862 0.163036 27.065)
(5.09626 0.121995 27.0893)
(5.27458 0.112429 27.0836)
(5.59433 0.0821185 27.0856)
(5.62935 0.0636143 27.082)
(5.83204 0.0514213 27.0836)
(5.81777 0.0428351 27.0812)
(5.95842 0.0371051 27.0824)
(5.92741 0.0323194 27.0807)
(6.0314 0.0287579 27.0818)
(5.99395 0.0253749 27.0809)
(6.0745 0.0231692 27.0823)
(6.03379 0.0199962 27.0824)
(6.10071 0.0196454 27.0841)
(6.05571 0.0146201 27.085)
(6.12103 0.0181797 27.0866)
(6.06696 0.00652357 27.0881)
(6.15741 0.0152846 27.0894)
(6.09117 -0.00374303 27.0914)
(6.29091 -0.00785758 27.0729)
(4.68981 5.41737e-09 27.0604)
(5.09345 5.76251e-08 27.0829)
(5.2807 1.43093e-08 27.0744)
(5.6136 1.63312e-07 27.0765)
(5.66057 -1.09656e-09 27.0709)
(5.87597 4.34206e-07 27.0731)
(5.87625 1.41968e-07 27.0691)
(6.03053 1.1025e-06 27.071)
(6.01559 7.93453e-07 27.068)
(6.13194 3.11882e-06 27.0697)
(6.11095 2.76815e-06 27.0677)
(6.19919 1.05067e-05 27.0698)
(6.17733 6.23428e-06 27.069)
(6.24049 3.95261e-05 27.0714)
(6.22583 7.43627e-06 27.0714)
(6.25556 0.000140528 27.0739)
(6.2671 7.21971e-06 27.0744)
(6.22889 0.00041857 27.0771)
(6.29329 0.000109788 27.0778)
(6.13592 0.000744561 27.0619)
(4.68862 -0.163036 27.065)
(5.09626 -0.121995 27.0893)
(5.27458 -0.112429 27.0836)
(5.59433 -0.0821183 27.0856)
(5.62935 -0.0636142 27.082)
(5.83204 -0.0514208 27.0836)
(5.81777 -0.0428345 27.0812)
(5.95842 -0.0371038 27.0824)
(5.92741 -0.0323169 27.0807)
(6.03141 -0.0287547 27.0818)
(5.99395 -0.0253663 27.0809)
(6.07451 -0.0231597 27.0823)
(6.03379 -0.0199727 27.0824)
(6.10075 -0.019608 27.0842)
(6.05574 -0.0145658 27.0848)
(6.1211 -0.0180421 27.0868)
(6.06709 -0.0063834 27.0878)
(6.15758 -0.0148706 27.0898)
(6.09154 0.00429828 27.091)
(6.29146 0.0090073 27.0733)
(4.71083 -0.276987 27.0566)
(5.1762 -0.194004 27.0803)
(5.26147 -0.169099 27.0731)
(5.49134 -0.108781 27.077)
(5.42172 -0.072892 27.0726)
(5.54074 -0.0483958 27.0758)
(5.44468 -0.0315452 27.0725)
(5.52507 -0.0200701 27.0752)
(5.43367 -0.0115472 27.0727)
(5.4953 -0.00482338 27.0753)
(5.41484 -0.00031364 27.0739)
(5.46393 0.00445295 27.0767)
(5.39622 0.00603563 27.0762)
(5.43332 0.0105201 27.0791)
(5.38192 0.00828609 27.0793)
(5.39888 0.0140813 27.082)
(5.37588 0.0027441 27.0825)
(5.34138 0.00949773 27.085)
(5.36507 -0.0284827 27.0855)
(5.2199 -0.0631259 27.0714)
(4.59388 -0.529003 27.0548)
(4.78853 -0.351763 27.0841)
(4.50713 -0.2624 27.0835)
(4.47787 -0.166059 27.0901)
(4.20894 -0.113095 27.0892)
(4.20681 -0.084032 27.0932)
(4.00612 -0.0666337 27.0919)
(4.03128 -0.0568211 27.0946)
(3.87904 -0.0495288 27.0938)
(3.91655 -0.0450939 27.0962)
(3.79721 -0.0406812 27.096)
(3.8392 -0.0390352 27.0982)
(3.74226 -0.0343295 27.0984)
(3.78672 -0.0364687 27.1003)
(3.70238 -0.026437 27.1006)
(3.75599 -0.0376098 27.1021)
(3.66684 -0.00942494 27.1023)
(3.76529 -0.0329368 27.1033)
(3.62028 0.0221009 27.1033)
(3.97144 0.0587463 27.0913)
(3.5308 -0.405261 27.03)
(2.87658 -0.139165 27.0667)
(2.17059 -0.039399 27.0684)
(2.00272 0.0237335 27.0753)
(1.74991 0.0419648 27.0733)
(1.75566 0.0473971 27.0772)
(1.61438 0.0479907 27.0751)
(1.65357 0.0466745 27.0781)
(1.55068 0.0454008 27.0763)
(1.59404 0.0440922 27.0788)
(1.51261 0.0426037 27.0775)
(1.55396 0.0425376 27.0796)
(1.48747 0.0397238 27.0786)
(1.52546 0.0424657 27.0803)
(1.46927 0.0340592 27.0795)
(1.50453 0.0441819 27.0809)
(1.45278 0.014356 27.0802)
(1.47737 0.0439156 27.0813)
(1.44817 -0.0859566 27.0806)
(1.2574 -0.120665 27.0789)
(1.22728 -0.15341 -27.1164)
(1.29119 -0.144494 -27.2191)
(1.23608 -0.112384 -27.2759)
(1.25328 -0.108418 -27.3146)
(1.21852 -0.107768 -27.3379)
(1.23497 -0.107471 -27.3541)
(1.20809 -0.107656 -27.3626)
(1.22232 -0.107479 -27.3684)
(1.20036 -0.107588 -27.3709)
(1.21272 -0.107427 -27.3728)
(1.19432 -0.107493 -27.3733)
(1.20527 -0.10736 -27.3739)
(1.1896 -0.107408 -27.3739)
(1.19946 -0.107301 -27.374)
(1.18593 -0.10734 -27.3739)
(1.19494 -0.107253 -27.3739)
(1.18311 -0.107286 -27.3737)
(1.19142 -0.107214 -27.3737)
(1.18099 -0.107244 -27.3735)
(1.18871 -0.107183 -27.3734)
(1.17943 -0.10721 -27.3732)
(1.18663 -0.107158 -27.373)
(1.17832 -0.107182 -27.3728)
(1.18505 -0.107137 -27.3726)
(1.17758 -0.107159 -27.3724)
(1.18389 -0.10712 -27.3722)
(1.17713 -0.10714 -27.372)
(1.18305 -0.107105 -27.3718)
(1.17693 -0.107123 -27.3716)
(1.18249 -0.107092 -27.3713)
(1.17692 -0.107109 -27.3711)
(1.18214 -0.107081 -27.3709)
(1.17706 -0.107097 -27.3707)
(1.18198 -0.107072 -27.3704)
(1.17734 -0.107086 -27.3702)
(1.18196 -0.107063 -27.37)
(1.17772 -0.107076 -27.3697)
(1.18207 -0.107055 -27.3695)
(1.17819 -0.107067 -27.3693)
(1.18229 -0.107048 -27.369)
(1.17873 -0.107059 -27.3688)
(1.1826 -0.107041 -27.3685)
(1.17934 -0.107051 -27.3683)
(1.18298 -0.107034 -27.368)
(1.18 -0.107043 -27.3678)
(1.18344 -0.107028 -27.3675)
(1.18071 -0.107036 -27.3673)
(1.18396 -0.107021 -27.3671)
(1.18146 -0.107029 -27.3668)
(1.18454 -0.107015 -27.3666)
(1.18224 -0.107022 -27.3663)