/*--------------------------------*- C++ -*----------------------------------*\
  =========                 |
  \\      /  F ield         | OpenFOAM: The Open Source CFD Toolbox
   \\    /   O peration     | Website:  https://openfoam.org
    \\  /    A nd           | Version:  7
     \\/     M anipulation  |
\*---------------------------------------------------------------------------*/
FoamFile
{
    version     2.0;
    format      ascii;
    class       volScalarField;
    location    "2.605";
    object      nut;
}
// * * * * * * * * * * * * * * * * * * * * * * * * * * * * * * * * * * * * * //

dimensions      [0 2 -1 0 0 0 0];

internalField   nonuniform List<scalar> 
7920
(
0.00875607
0.00912533
0.00912904
0.00913362
0.00912787
0.00912873
0.00912417
0.00912514
0.00912206
0.00912313
0.00912087
0.00912183
0.00911996
0.00912068
0.00911938
0.0091198
0.00911964
0.00911812
0.00912486
0.0091352
0.00451625
0.00454401
0.00445018
0.0043583
0.00431393
0.00429659
0.00428161
0.00427708
0.00426919
0.00426746
0.00426239
0.00426149
0.00425854
0.00425826
0.0042563
0.00425598
0.00425489
0.00425384
0.00428287
0.00428459
0.00345171
0.00368663
0.00371057
0.00370782
0.00370017
0.00369832
0.00369354
0.00369271
0.00368934
0.00368868
0.00368593
0.00368538
0.00368316
0.00368272
0.00368095
0.00368056
0.0036792
0.00367868
0.00367938
0.00368442
0.00332057
0.00359167
0.00364331
0.00366203
0.00366703
0.00367391
0.00367512
0.0036788
0.00367907
0.00368123
0.00368107
0.00368244
0.00368208
0.003683
0.00368256
0.00368321
0.00368276
0.00368323
0.00368328
0.00368786
0.00330611
0.00358065
0.00363502
0.00365704
0.00366468
0.00367433
0.00367756
0.00368411
0.0036861
0.00369082
0.00369218
0.00369576
0.0036967
0.00369947
0.00370013
0.00370232
0.00370281
0.00370442
0.0037051
0.00371012
0.00330765
0.00357994
0.00363399
0.00365632
0.00366471
0.00367532
0.00367953
0.00368727
0.0036902
0.00369626
0.0036985
0.00370335
0.00370509
0.00370902
0.00371039
0.0037136
0.0037147
0.00371714
0.00371855
0.0037237
0.00330765
0.00357994
0.00363399
0.00365632
0.00366471
0.00367532
0.00367953
0.00368727
0.0036902
0.00369626
0.0036985
0.00370335
0.00370509
0.00370902
0.00371039
0.0037136
0.0037147
0.00371715
0.00371856
0.00372371
0.00330611
0.00358065
0.00363502
0.00365704
0.00366468
0.00367433
0.00367756
0.00368411
0.0036861
0.00369083
0.00369218
0.00369577
0.0036967
0.00369948
0.00370012
0.00370234
0.0037028
0.00370446
0.0037051
0.00371018
0.00332057
0.00359167
0.00364331
0.00366203
0.00366703
0.00367391
0.00367512
0.0036788
0.00367906
0.00368123
0.00368106
0.00368245
0.00368206
0.00368304
0.00368251
0.00368329
0.00368267
0.0036834
0.00368315
0.00368803
0.00345171
0.00368663
0.00371057
0.00370782
0.00370016
0.00369832
0.00369353
0.00369272
0.00368933
0.00368868
0.00368591
0.00368539
0.00368313
0.00368276
0.00368087
0.00368068
0.00367898
0.00367911
0.00367896
0.00368507
0.00451625
0.00454401
0.00445018
0.0043583
0.00431393
0.00429659
0.00428161
0.00427708
0.00426919
0.00426746
0.00426238
0.0042615
0.00425852
0.0042583
0.00425622
0.0042561
0.00425465
0.00425432
0.00428156
0.00428605
0.00875607
0.00912533
0.00912904
0.00913362
0.00912787
0.00912873
0.00912417
0.00912515
0.00912206
0.00912314
0.00912085
0.00912185
0.00911992
0.00912074
0.00911927
0.00911999
0.00911927
0.00911879
0.00912334
0.00913849
0.00336301
0.00377605
0.00379294
0.00376813
0.00376124
0.00374708
0.00374643
0.00373826
0.00373851
0.00373295
0.00373345
0.0037294
0.00372987
0.00372677
0.00372721
0.0037246
0.00372537
0.00372218
0.00372287
0.00373199
0.00297833
0.00348706
0.00355896
0.00356854
0.00356971
0.00356965
0.00356923
0.00356877
0.0035682
0.00356764
0.0035671
0.00356651
0.00356611
0.00356554
0.0035653
0.00356475
0.00356455
0.00356405
0.0035649
0.00356645
0.00289858
0.00341315
0.00348866
0.003504
0.00350665
0.0035103
0.00351137
0.00351384
0.00351459
0.00351633
0.00351685
0.00351806
0.00351848
0.00351932
0.00351978
0.00352026
0.00352092
0.00352096
0.00352142
0.00352799
0.00289643
0.0034111
0.00348579
0.00350034
0.00350144
0.00350356
0.00350351
0.0035047
0.00350492
0.00350602
0.0035063
0.00350722
0.00350755
0.00350828
0.00350874
0.0035092
0.00350993
0.00351
0.00351073
0.00351498
0.00289342
0.00340774
0.00348243
0.00349734
0.00349823
0.00350009
0.00349956
0.00350038
0.00350006
0.00350073
0.00350055
0.00350109
0.00350103
0.00350147
0.00350151
0.00350189
0.00350203
0.00350238
0.00350266
0.00350708
0.00289503
0.0034095
0.00348395
0.00349875
0.0034996
0.00350142
0.00350085
0.00350163
0.00350122
0.0035018
0.00350149
0.00350192
0.0035017
0.00350202
0.00350188
0.00350213
0.00350209
0.0035023
0.00350234
0.00350638
0.00289503
0.0034095
0.00348395
0.00349875
0.0034996
0.00350142
0.00350085
0.00350163
0.00350122
0.0035018
0.00350149
0.00350192
0.00350169
0.00350202
0.00350188
0.00350214
0.00350209
0.0035023
0.00350235
0.00350637
0.00289342
0.00340774
0.00348243
0.00349734
0.00349823
0.00350009
0.00349956
0.00350038
0.00350006
0.00350073
0.00350055
0.0035011
0.00350102
0.00350148
0.0035015
0.00350191
0.003502
0.00350241
0.00350263
0.00350708
0.00289643
0.0034111
0.00348579
0.00350034
0.00350144
0.00350356
0.0035035
0.0035047
0.00350492
0.00350602
0.0035063
0.00350723
0.00350753
0.00350832
0.00350865
0.00350932
0.00350977
0.00351011
0.00351062
0.00351508
0.00289858
0.00341315
0.00348866
0.003504
0.00350664
0.0035103
0.00351137
0.00351384
0.00351459
0.00351634
0.00351684
0.00351808
0.00351845
0.00351938
0.00351967
0.00352045
0.00352063
0.00352133
0.00352097
0.00352845
0.00297833
0.00348706
0.00355896
0.00356854
0.00356971
0.00356965
0.00356923
0.00356878
0.00356819
0.00356764
0.00356708
0.00356653
0.00356608
0.00356559
0.00356522
0.0035649
0.00356429
0.00356446
0.00356419
0.00356777
0.00336301
0.00377605
0.00379294
0.00376813
0.00376124
0.00374708
0.00374643
0.00373826
0.00373851
0.00373295
0.00373344
0.00372941
0.00372986
0.00372679
0.00372718
0.00372467
0.00372529
0.0037224
0.00372253
0.00373298
0.000838521
0.0012354
0.00129243
0.00127552
0.00123212
0.00119151
0.00115914
0.00113557
0.00111798
0.00110414
0.00109402
0.00108471
0.00107822
0.00107124
0.00106671
0.00106136
0.0010576
0.00105461
0.00104865
0.00105436
0.00035602
0.000750858
0.000881139
0.000931645
0.00094894
0.000959618
0.000964914
0.00097067
0.000973527
0.000976586
0.000977607
0.000978833
0.000978897
0.000979084
0.000978828
0.000978689
0.000978231
0.00097792
0.000977307
0.000979446
0.000307707
0.00066484
0.000783374
0.000836477
0.000852583
0.000864267
0.000866971
0.000872456
0.000874379
0.000878539
0.000880572
0.000884255
0.000886446
0.000889478
0.000891732
0.000894159
0.000896405
0.000898395
0.000899877
0.000903581
0.000316812
0.000668852
0.000784484
0.000835303
0.000851048
0.000860802
0.000862244
0.000864818
0.000864943
0.000865803
0.000866037
0.000866855
0.000867328
0.000868204
0.000869121
0.000869794
0.000871122
0.000871746
0.000872885
0.000875734
0.000312491
0.000664427
0.000779629
0.000830724
0.000846161
0.000855935
0.000857132
0.000859475
0.000859277
0.000859691
0.000859428
0.000859603
0.000859463
0.000859562
0.000859586
0.000859661
0.000859895
0.000859978
0.000860231
0.000862097
0.000314917
0.000666904
0.000782125
0.000832868
0.000848402
0.000858039
0.000859365
0.000861635
0.000861474
0.000861837
0.00086157
0.000861664
0.000861469
0.000861456
0.000861384
0.000861283
0.000861309
0.000861235
0.000861351
0.000862966
0.000314917
0.000666904
0.000782124
0.000832868
0.000848401
0.000858039
0.000859365
0.000861635
0.000861474
0.000861838
0.00086157
0.000861664
0.000861468
0.000861456
0.000861383
0.000861284
0.000861309
0.000861236
0.000861349
0.000862964
0.00031249
0.000664427
0.000779628
0.000830724
0.000846161
0.000855935
0.000857132
0.000859476
0.000859277
0.000859691
0.000859428
0.000859604
0.000859463
0.000859564
0.000859586
0.00085966
0.000859894
0.000859975
0.000860228
0.000862086
0.000316811
0.000668852
0.000784484
0.000835303
0.000851048
0.000860802
0.000862244
0.000864819
0.000864943
0.000865804
0.000866037
0.000866859
0.000867319
0.000868217
0.000869099
0.00086981
0.000871098
0.000871736
0.000872863
0.000875694
0.000307707
0.000664841
0.000783374
0.000836478
0.000852582
0.000864268
0.000866971
0.000872457
0.000874378
0.000878542
0.000880565
0.000884263
0.00088643
0.000889495
0.000891694
0.000894187
0.000896344
0.000898393
0.000899831
0.000903496
0.00035602
0.000750858
0.000881139
0.000931645
0.000948939
0.000959619
0.000964912
0.000970673
0.000973522
0.000976591
0.000977597
0.000978841
0.000978891
0.000979088
0.000978791
0.000978696
0.00097816
0.000977941
0.000977208
0.000979451
0.000838521
0.0012354
0.00129243
0.00127552
0.00123212
0.00119151
0.00115914
0.00113557
0.00111798
0.00110414
0.00109402
0.00108473
0.00107822
0.00107128
0.00106671
0.00106147
0.00105761
0.00105484
0.00104872
0.00105503
0.000838521
0.0012354
0.00129243
0.00127552
0.00123212
0.00119151
0.00115914
0.00113557
0.00111798
0.00110414
0.00109402
0.00108471
0.00107822
0.00107124
0.00106671
0.00106136
0.0010576
0.00105461
0.00104865
0.00105436
0.00035602
0.000750858
0.000881139
0.000931645
0.00094894
0.000959618
0.000964914
0.00097067
0.000973527
0.000976586
0.000977607
0.000978833
0.000978897
0.000979084
0.000978828
0.000978689
0.000978231
0.00097792
0.000977307
0.000979446
0.000307707
0.00066484
0.000783374
0.000836477
0.000852583
0.000864267
0.000866971
0.000872456
0.000874379
0.000878539
0.000880572
0.000884255
0.000886446
0.000889478
0.000891732
0.000894159
0.000896405
0.000898395
0.000899877
0.000903581
0.000316812
0.000668852
0.000784484
0.000835303
0.000851048
0.000860802
0.000862244
0.000864818
0.000864943
0.000865803
0.000866037
0.000866855
0.000867328
0.000868204
0.000869121
0.000869794
0.000871122
0.000871746
0.000872885
0.000875734
0.000312491
0.000664427
0.000779629
0.000830724
0.000846161
0.000855935
0.000857132
0.000859475
0.000859277
0.000859691
0.000859428
0.000859603
0.000859463
0.000859562
0.000859586
0.000859661
0.000859895
0.000859978
0.000860231
0.000862097
0.000314917
0.000666904
0.000782125
0.000832868
0.000848402
0.000858039
0.000859365
0.000861635
0.000861474
0.000861837
0.00086157
0.000861664
0.000861469
0.000861456
0.000861384
0.000861283
0.000861309
0.000861235
0.000861351
0.000862966
0.000314917
0.000666904
0.000782124
0.000832868
0.000848402
0.000858039
0.000859365
0.000861635
0.000861474
0.000861838
0.00086157
0.000861664
0.000861468
0.000861456
0.000861383
0.000861284
0.000861309
0.000861236
0.000861349
0.000862964
0.00031249
0.000664427
0.000779628
0.000830724
0.000846161
0.000855935
0.000857132
0.000859476
0.000859277
0.000859691
0.000859428
0.000859604
0.000859463
0.000859564
0.000859586
0.00085966
0.000859894
0.000859975
0.000860228
0.000862086
0.000316811
0.000668852
0.000784484
0.000835303
0.000851048
0.000860802
0.000862244
0.000864819
0.000864943
0.000865804
0.000866037
0.000866859
0.000867319
0.000868217
0.000869099
0.00086981
0.000871098
0.000871736
0.000872863
0.000875694
0.000307707
0.000664841
0.000783374
0.000836478
0.000852582
0.000864268
0.000866971
0.000872457
0.000874378
0.000878542
0.000880565
0.000884263
0.00088643
0.000889495
0.000891694
0.000894187
0.000896344
0.000898393
0.000899831
0.000903496
0.00035602
0.000750858
0.000881139
0.000931645
0.000948939
0.000959619
0.000964912
0.000970673
0.000973522
0.000976591
0.000977597
0.000978841
0.000978891
0.000979088
0.000978791
0.000978696
0.00097816
0.000977941
0.000977208
0.000979451
0.000838521
0.0012354
0.00129243
0.00127552
0.00123212
0.00119151
0.00115914
0.00113557
0.00111798
0.00110414
0.00109402
0.00108473
0.00107822
0.00107128
0.00106671
0.00106147
0.00105761
0.00105484
0.00104872
0.00105503
0.00336301
0.00377605
0.00379294
0.00376813
0.00376124
0.00374708
0.00374643
0.00373826
0.00373851
0.00373295
0.00373345
0.0037294
0.00372987
0.00372677
0.00372721
0.0037246
0.00372537
0.00372218
0.00372287
0.00373199
0.00297833
0.00348706
0.00355896
0.00356854
0.00356971
0.00356965
0.00356923
0.00356877
0.0035682
0.00356764
0.0035671
0.00356651
0.00356611
0.00356554
0.0035653
0.00356475
0.00356455
0.00356405
0.0035649
0.00356645
0.00289858
0.00341315
0.00348866
0.003504
0.00350665
0.0035103
0.00351137
0.00351384
0.00351459
0.00351633
0.00351685
0.00351806
0.00351848
0.00351932
0.00351978
0.00352026
0.00352092
0.00352096
0.00352142
0.00352799
0.00289643
0.0034111
0.00348579
0.00350034
0.00350144
0.00350356
0.00350351
0.0035047
0.00350492
0.00350602
0.0035063
0.00350722
0.00350755
0.00350828
0.00350874
0.0035092
0.00350993
0.00351
0.00351073
0.00351498
0.00289342
0.00340774
0.00348243
0.00349734
0.00349823
0.00350009
0.00349956
0.00350038
0.00350006
0.00350073
0.00350055
0.00350109
0.00350103
0.00350147
0.00350151
0.00350189
0.00350203
0.00350238
0.00350266
0.00350708
0.00289503
0.0034095
0.00348395
0.00349875
0.0034996
0.00350142
0.00350085
0.00350163
0.00350122
0.0035018
0.00350149
0.00350192
0.0035017
0.00350202
0.00350188
0.00350213
0.00350209
0.0035023
0.00350234
0.00350638
0.00289503
0.0034095
0.00348395
0.00349875
0.0034996
0.00350142
0.00350085
0.00350163
0.00350122
0.0035018
0.00350149
0.00350192
0.00350169
0.00350202
0.00350188
0.00350214
0.00350209
0.0035023
0.00350235
0.00350637
0.00289342
0.00340774
0.00348243
0.00349734
0.00349823
0.00350009
0.00349956
0.00350038
0.00350006
0.00350073
0.00350055
0.0035011
0.00350102
0.00350148
0.0035015
0.00350191
0.003502
0.00350241
0.00350263
0.00350708
0.00289643
0.0034111
0.00348579
0.00350034
0.00350144
0.00350356
0.0035035
0.0035047
0.00350492
0.00350602
0.0035063
0.00350723
0.00350753
0.00350832
0.00350865
0.00350931
0.00350977
0.00351011
0.00351062
0.00351508
0.00289858
0.00341315
0.00348866
0.003504
0.00350664
0.0035103
0.00351137
0.00351384
0.00351459
0.00351634
0.00351684
0.00351808
0.00351845
0.00351938
0.00351967
0.00352045
0.00352063
0.00352133
0.00352097
0.00352845
0.00297833
0.00348706
0.00355896
0.00356854
0.00356971
0.00356965
0.00356923
0.00356878
0.00356819
0.00356764
0.00356708
0.00356653
0.00356608
0.00356559
0.00356522
0.0035649
0.00356429
0.00356446
0.00356419
0.00356777
0.00336301
0.00377605
0.00379294
0.00376813
0.00376124
0.00374708
0.00374643
0.00373826
0.00373851
0.00373295
0.00373344
0.00372941
0.00372986
0.00372679
0.00372718
0.00372467
0.00372529
0.0037224
0.00372253
0.00373298
0.00875607
0.00912533
0.00912904
0.00913362
0.00912787
0.00912873
0.00912417
0.00912514
0.00912206
0.00912313
0.00912087
0.00912183
0.00911996
0.00912068
0.00911938
0.0091198
0.00911964
0.00911812
0.00912486
0.0091352
0.00451625
0.00454401
0.00445018
0.0043583
0.00431393
0.00429659
0.00428161
0.00427708
0.00426919
0.00426746
0.00426239
0.00426149
0.00425854
0.00425826
0.0042563
0.00425598
0.00425489
0.00425384
0.00428287
0.00428459
0.00345171
0.00368663
0.00371057
0.00370782
0.00370017
0.00369832
0.00369354
0.00369271
0.00368934
0.00368868
0.00368593
0.00368538
0.00368316
0.00368272
0.00368095
0.00368056
0.0036792
0.00367868
0.00367938
0.00368442
0.00332057
0.00359167
0.00364331
0.00366203
0.00366703
0.00367391
0.00367512
0.0036788
0.00367907
0.00368123
0.00368107
0.00368244
0.00368208
0.003683
0.00368256
0.00368321
0.00368276
0.00368323
0.00368328
0.00368786
0.00330611
0.00358065
0.00363502
0.00365704
0.00366468
0.00367433
0.00367756
0.00368411
0.0036861
0.00369082
0.00369218
0.00369576
0.0036967
0.00369947
0.00370013
0.00370232
0.00370281
0.00370442
0.0037051
0.00371012
0.00330765
0.00357994
0.00363399
0.00365632
0.00366471
0.00367532
0.00367953
0.00368727
0.0036902
0.00369626
0.0036985
0.00370335
0.00370509
0.00370902
0.00371039
0.0037136
0.0037147
0.00371714
0.00371855
0.0037237
0.00330765
0.00357994
0.00363399
0.00365632
0.00366471
0.00367532
0.00367953
0.00368727
0.0036902
0.00369626
0.0036985
0.00370335
0.00370509
0.00370902
0.00371039
0.0037136
0.0037147
0.00371715
0.00371856
0.00372371
0.00330611
0.00358065
0.00363502
0.00365704
0.00366468
0.00367433
0.00367756
0.00368411
0.0036861
0.00369083
0.00369218
0.00369577
0.0036967
0.00369948
0.00370012
0.00370234
0.0037028
0.00370446
0.0037051
0.00371018
0.00332057
0.00359167
0.00364331
0.00366203
0.00366703
0.00367391
0.00367512
0.0036788
0.00367906
0.00368123
0.00368106
0.00368245
0.00368206
0.00368304
0.00368251
0.00368329
0.00368267
0.0036834
0.00368315
0.00368803
0.00345171
0.00368663
0.00371057
0.00370782
0.00370016
0.00369832
0.00369353
0.00369272
0.00368933
0.00368868
0.00368591
0.00368539
0.00368313
0.00368276
0.00368087
0.00368068
0.00367898
0.00367911
0.00367896
0.00368507
0.00451625
0.00454401
0.00445018
0.0043583
0.00431393
0.00429659
0.00428161
0.00427708
0.00426919
0.00426746
0.00426238
0.0042615
0.00425852
0.0042583
0.00425622
0.0042561
0.00425465
0.00425432
0.00428156
0.00428605
0.00875607
0.00912533
0.00912904
0.00913362
0.00912787
0.00912873
0.00912417
0.00912515
0.00912206
0.00912314
0.00912085
0.00912185
0.00911992
0.00912074
0.00911927
0.00911999
0.00911927
0.00911879
0.00912334
0.00913849
0.0266162
0.0268089
0.0269024
0.0269799
0.0270407
0.0270987
0.027147
0.0271942
0.0272348
0.0272752
0.0273114
0.0273478
0.0273807
0.0274137
0.0274437
0.0274738
0.0275017
0.0275297
0.0275558
0.0275817
0.0276057
0.0276295
0.0276515
0.0276732
0.0276932
0.0277127
0.0277304
0.0277474
0.0277626
0.0277771
0.0277899
0.0278019
0.0278123
0.0278218
0.0278297
0.027837
0.0278428
0.0278481
0.0278522
0.0278558
0.0278584
0.0278607
0.0278622
0.0278635
0.0278642
0.0278649
0.0278651
0.0278655
0.0278655
0.0278657
0.0278656
0.0278657
0.0278656
0.0278657
0.0278656
0.0278657
0.0278655
0.0278656
0.0278655
0.0278656
0.0278655
0.0278655
0.0278655
0.0278655
0.0278654
0.0278655
0.0278654
0.0278654
0.0278654
0.0278654
0.0278653
0.0278654
0.0278653
0.0278653
0.0278652
0.0278653
0.0278652
0.0278652
0.0278651
0.0278652
0.0278651
0.0278651
0.0278649
0.027865
0.0278648
0.0278648
0.0278645
0.0278646
0.0278615
0.0278598
0.0152463
0.0155263
0.0155769
0.0156227
0.0156536
0.0156886
0.0157134
0.015742
0.015763
0.0157877
0.0158066
0.0158288
0.0158461
0.0158661
0.015882
0.0159003
0.0159151
0.0159322
0.015946
0.0159618
0.0159746
0.015989
0.0160008
0.016014
0.0160247
0.0160366
0.016046
0.0160563
0.0160644
0.0160733
0.01608
0.0160874
0.0160928
0.0160987
0.0161027
0.0161073
0.0161102
0.0161137
0.0161155
0.016118
0.0161191
0.0161208
0.0161213
0.0161224
0.0161225
0.0161232
0.016123
0.0161236
0.0161233
0.0161237
0.0161234
0.0161238
0.0161235
0.0161239
0.0161236
0.0161239
0.0161237
0.0161239
0.0161237
0.016124
0.0161238
0.0161241
0.0161239
0.0161241
0.016124
0.0161242
0.016124
0.0161243
0.0161241
0.0161243
0.0161242
0.0161244
0.0161243
0.0161245
0.0161243
0.0161245
0.0161244
0.0161246
0.0161245
0.0161246
0.0161245
0.0161246
0.0161245
0.0161246
0.0161245
0.0161246
0.0161243
0.0161246
0.0161218
0.0161205
0.0122434
0.0126414
0.0126793
0.0127156
0.012734
0.0127629
0.0127782
0.0128025
0.0128157
0.0128367
0.0128487
0.0128677
0.012879
0.0128962
0.0129067
0.0129225
0.0129324
0.0129471
0.0129565
0.0129701
0.0129789
0.0129915
0.0129996
0.0130111
0.0130185
0.0130289
0.0130355
0.0130447
0.0130503
0.0130584
0.013063
0.0130699
0.0130735
0.0130792
0.0130819
0.0130864
0.0130882
0.0130918
0.0130929
0.0130956
0.0130961
0.0130981
0.0130981
0.0130996
0.0130994
0.0131005
0.0131
0.0131009
0.0131004
0.0131012
0.0131007
0.0131014
0.0131009
0.0131015
0.0131011
0.0131017
0.0131013
0.0131019
0.0131015
0.013102
0.0131017
0.0131022
0.0131019
0.0131024
0.0131022
0.0131026
0.0131024
0.0131028
0.0131026
0.0131031
0.0131029
0.0131033
0.0131031
0.0131035
0.0131034
0.0131037
0.0131036
0.0131039
0.0131038
0.0131041
0.013104
0.0131043
0.0131042
0.0131045
0.0131044
0.0131046
0.0131044
0.0131047
0.0131038
0.0131
0.0117855
0.0122797
0.0123181
0.0123503
0.0123625
0.0123886
0.0123997
0.0124223
0.012432
0.0124517
0.0124607
0.0124788
0.0124876
0.0125043
0.0125127
0.0125279
0.0125359
0.0125502
0.0125579
0.0125713
0.0125786
0.0125909
0.0125977
0.0126091
0.0126154
0.0126259
0.0126316
0.012641
0.0126458
0.0126541
0.0126582
0.0126654
0.0126687
0.0126748
0.0126772
0.0126822
0.0126838
0.0126878
0.0126888
0.012692
0.0126924
0.0126948
0.0126949
0.0126967
0.0126964
0.0126978
0.0126973
0.0126984
0.0126979
0.0126989
0.0126983
0.0126992
0.0126986
0.0126995
0.0126989
0.0126997
0.0126993
0.0127
0.0126996
0.0127003
0.0127
0.0127007
0.0127003
0.012701
0.0127007
0.0127013
0.0127011
0.0127017
0.0127015
0.012702
0.0127019
0.0127024
0.0127023
0.0127028
0.0127026
0.0127031
0.012703
0.0127035
0.0127034
0.0127039
0.0127038
0.0127042
0.0127041
0.0127045
0.0127044
0.0127048
0.0127047
0.0127051
0.0127051
0.0127003
0.0117498
0.0122946
0.0123345
0.0123641
0.0123716
0.0123944
0.0124023
0.0124228
0.01243
0.012448
0.0124548
0.0124715
0.0124786
0.0124944
0.0125013
0.0125158
0.0125224
0.0125361
0.0125426
0.0125555
0.0125618
0.0125738
0.0125797
0.0125908
0.0125964
0.0126067
0.0126117
0.0126211
0.0126255
0.0126339
0.0126376
0.012645
0.012648
0.0126543
0.0126567
0.0126619
0.0126635
0.0126677
0.0126688
0.0126722
0.0126727
0.0126753
0.0126754
0.0126775
0.0126772
0.0126788
0.0126783
0.0126796
0.0126791
0.0126802
0.0126796
0.0126806
0.0126801
0.012681
0.0126805
0.0126814
0.0126809
0.0126818
0.0126814
0.0126822
0.0126818
0.0126826
0.0126823
0.0126831
0.0126828
0.0126835
0.0126833
0.012684
0.0126838
0.0126845
0.0126843
0.0126849
0.0126848
0.0126854
0.0126853
0.0126859
0.0126858
0.0126864
0.0126863
0.0126868
0.0126868
0.0126873
0.0126873
0.0126877
0.0126877
0.0126881
0.0126881
0.0126884
0.0126887
0.0126835
0.0117668
0.012341
0.0123814
0.012408
0.0124116
0.0124305
0.0124354
0.012453
0.0124578
0.0124735
0.0124784
0.0124932
0.0124987
0.012513
0.0125186
0.0125319
0.0125373
0.0125498
0.0125553
0.0125674
0.0125727
0.012584
0.012589
0.0125995
0.0126042
0.0126141
0.0126185
0.0126275
0.0126314
0.0126394
0.0126428
0.01265
0.0126528
0.012659
0.0126611
0.0126663
0.0126679
0.0126722
0.0126731
0.0126766
0.0126771
0.0126799
0.01268
0.0126822
0.0126819
0.0126836
0.0126832
0.0126846
0.012684
0.0126852
0.0126846
0.0126857
0.0126851
0.0126861
0.0126856
0.0126866
0.0126861
0.012687
0.0126866
0.0126875
0.0126872
0.012688
0.0126877
0.0126885
0.0126882
0.012689
0.0126888
0.0126896
0.0126894
0.0126901
0.0126899
0.0126906
0.0126905
0.0126912
0.0126911
0.0126917
0.0126917
0.0126923
0.0126923
0.0126928
0.0126928
0.0126933
0.0126933
0.0126938
0.0126938
0.0126943
0.0126943
0.0126946
0.0126952
0.0126897
0.0117671
0.0123391
0.0123759
0.0123984
0.0123983
0.0124134
0.0124156
0.0124301
0.0124327
0.0124459
0.012449
0.0124617
0.0124657
0.0124783
0.0124825
0.0124943
0.0124984
0.0125096
0.012514
0.0125248
0.0125291
0.0125393
0.0125434
0.0125529
0.0125568
0.0125658
0.0125695
0.0125777
0.012581
0.0125884
0.0125913
0.0125979
0.0126004
0.0126062
0.012608
0.0126129
0.0126142
0.0126183
0.0126192
0.0126225
0.0126229
0.0126256
0.0126257
0.0126278
0.0126276
0.0126292
0.0126288
0.0126302
0.0126296
0.0126308
0.0126302
0.0126313
0.0126307
0.0126317
0.0126312
0.0126322
0.0126317
0.0126327
0.0126323
0.0126331
0.0126328
0.0126336
0.0126333
0.0126341
0.0126339
0.0126347
0.0126345
0.0126352
0.012635
0.0126357
0.0126356
0.0126363
0.0126362
0.0126369
0.0126368
0.0126374
0.0126374
0.012638
0.0126379
0.0126385
0.0126385
0.012639
0.012639
0.0126395
0.0126395
0.01264
0.01264
0.0126403
0.012641
0.0126355
0.0117504
0.0122868
0.0123144
0.0123312
0.0123278
0.0123396
0.0123392
0.0123508
0.0123515
0.0123623
0.0123638
0.0123745
0.012377
0.0123877
0.0123905
0.0124005
0.0124034
0.012413
0.0124163
0.0124255
0.0124288
0.0124375
0.0124406
0.0124488
0.0124518
0.0124596
0.0124625
0.0124696
0.0124721
0.0124786
0.0124808
0.0124866
0.0124885
0.0124936
0.0124951
0.0124994
0.0125004
0.012504
0.0125046
0.0125076
0.0125079
0.0125103
0.0125103
0.0125122
0.0125119
0.0125135
0.012513
0.0125143
0.0125137
0.0125148
0.0125142
0.0125153
0.0125147
0.0125157
0.0125152
0.0125161
0.0125156
0.0125165
0.0125161
0.0125169
0.0125165
0.0125173
0.012517
0.0125178
0.0125175
0.0125183
0.012518
0.0125187
0.0125185
0.0125192
0.0125191
0.0125197
0.0125196
0.0125202
0.0125201
0.0125207
0.0125206
0.0125212
0.0125211
0.0125217
0.0125216
0.0125221
0.0125221
0.0125225
0.0125225
0.012523
0.0125229
0.0125232
0.0125238
0.0125188
0.011782
0.0122551
0.0122708
0.0122815
0.012276
0.0122846
0.0122824
0.0122913
0.0122905
0.0122989
0.0122991
0.0123076
0.0123089
0.0123173
0.0123189
0.0123269
0.0123287
0.0123363
0.0123385
0.0123459
0.012348
0.012355
0.0123571
0.0123637
0.0123658
0.012372
0.012374
0.0123797
0.0123814
0.0123866
0.0123882
0.0123929
0.0123942
0.0123983
0.0123992
0.0124028
0.0124034
0.0124063
0.0124067
0.0124092
0.0124092
0.0124112
0.0124111
0.0124127
0.0124123
0.0124137
0.0124131
0.0124143
0.0124137
0.0124147
0.0124141
0.012415
0.0124144
0.0124153
0.0124148
0.0124156
0.0124151
0.0124159
0.0124155
0.0124162
0.0124159
0.0124166
0.0124162
0.0124169
0.0124166
0.0124173
0.012417
0.0124176
0.0124174
0.012418
0.0124178
0.0124184
0.0124182
0.0124188
0.0124186
0.0124191
0.012419
0.0124195
0.0124194
0.0124199
0.0124198
0.0124202
0.0124202
0.0124206
0.0124205
0.0124209
0.0124208
0.0124211
0.0124213
0.0124169
0.0122224
0.0125784
0.0125813
0.0125875
0.0125814
0.0125877
0.0125846
0.0125911
0.0125894
0.0125955
0.0125948
0.012601
0.0126012
0.0126072
0.0126078
0.0126134
0.0126142
0.0126196
0.0126207
0.0126259
0.012627
0.0126319
0.012633
0.0126377
0.0126388
0.0126432
0.0126442
0.0126482
0.0126492
0.0126529
0.0126537
0.012657
0.0126577
0.0126606
0.012661
0.0126635
0.0126637
0.0126659
0.0126659
0.0126677
0.0126676
0.0126691
0.0126688
0.01267
0.0126696
0.0126706
0.0126701
0.0126709
0.0126704
0.0126712
0.0126707
0.0126714
0.0126709
0.0126715
0.0126711
0.0126717
0.0126713
0.0126719
0.0126716
0.0126721
0.0126718
0.0126723
0.012672
0.0126725
0.0126723
0.0126727
0.0126725
0.012673
0.0126728
0.0126732
0.012673
0.0126734
0.0126733
0.0126737
0.0126735
0.0126739
0.0126738
0.0126741
0.012674
0.0126744
0.0126743
0.0126746
0.0126745
0.0126747
0.0126746
0.0126749
0.0126748
0.012675
0.0126745
0.0126711
0.0151802
0.0153864
0.015385
0.0153884
0.0153844
0.0153883
0.0153864
0.0153905
0.0153894
0.0153933
0.0153929
0.0153967
0.015397
0.0154007
0.0154011
0.0154045
0.0154051
0.0154084
0.0154091
0.0154123
0.015413
0.0154159
0.0154167
0.0154195
0.0154203
0.0154228
0.0154236
0.0154259
0.0154266
0.0154287
0.0154293
0.0154312
0.0154317
0.0154334
0.0154337
0.0154352
0.0154354
0.0154366
0.0154367
0.0154377
0.0154377
0.0154385
0.0154384
0.015439
0.0154388
0.0154394
0.0154391
0.0154395
0.0154392
0.0154397
0.0154394
0.0154397
0.0154394
0.0154398
0.0154395
0.0154399
0.0154396
0.0154399
0.0154397
0.01544
0.0154398
0.0154401
0.0154399
0.0154401
0.01544
0.0154402
0.0154401
0.0154403
0.0154402
0.0154404
0.0154403
0.0154405
0.0154404
0.0154406
0.0154404
0.0154406
0.0154405
0.0154407
0.0154406
0.0154408
0.0154407
0.0154408
0.0154407
0.0154408
0.0154407
0.0154408
0.0154407
0.0154408
0.0154384
0.0154373
0.0264635
0.0265212
0.0265229
0.0265256
0.0265244
0.0265274
0.0265277
0.0265309
0.0265317
0.0265347
0.026536
0.0265391
0.0265408
0.0265438
0.0265455
0.0265483
0.0265501
0.0265528
0.0265546
0.0265572
0.026559
0.0265614
0.026563
0.0265653
0.0265669
0.0265691
0.0265706
0.0265725
0.0265738
0.0265756
0.0265768
0.0265784
0.0265794
0.0265808
0.0265816
0.0265827
0.0265834
0.0265843
0.0265848
0.0265855
0.0265858
0.0265864
0.0265866
0.026587
0.026587
0.0265873
0.0265873
0.0265874
0.0265874
0.0265875
0.0265874
0.0265875
0.0265875
0.0265876
0.0265875
0.0265876
0.0265875
0.0265876
0.0265875
0.0265876
0.0265875
0.0265876
0.0265875
0.0265876
0.0265875
0.0265876
0.0265875
0.0265876
0.0265875
0.0265876
0.0265875
0.0265876
0.0265875
0.0265876
0.0265875
0.0265876
0.0265875
0.0265875
0.0265875
0.0265875
0.0265875
0.0265875
0.0265874
0.0265874
0.0265873
0.0265873
0.0265872
0.0265872
0.0265846
0.0265833
0.0121809
0.0123325
0.0123763
0.0124093
0.0124372
0.0124625
0.0124842
0.0125052
0.0125233
0.0125417
0.0125576
0.0125743
0.0125887
0.0126039
0.0126169
0.0126311
0.0126431
0.0126563
0.0126675
0.0126797
0.01269
0.0127013
0.0127107
0.012721
0.0127295
0.0127388
0.0127462
0.0127543
0.0127607
0.0127676
0.0127728
0.0127786
0.0127827
0.0127873
0.0127904
0.0127939
0.0127961
0.0127988
0.0128002
0.0128021
0.0128028
0.0128041
0.0128044
0.0128053
0.0128053
0.0128058
0.0128057
0.0128061
0.0128059
0.0128062
0.012806
0.0128063
0.012806
0.0128063
0.0128061
0.0128063
0.0128061
0.0128063
0.0128062
0.0128064
0.0128062
0.0128064
0.0128063
0.0128065
0.0128063
0.0128065
0.0128064
0.0128066
0.0128065
0.0128066
0.0128065
0.0128067
0.0128066
0.0128067
0.0128067
0.0128068
0.0128068
0.0128069
0.0128068
0.012807
0.012807
0.0128071
0.0128071
0.0128073
0.0128073
0.0128075
0.0128075
0.0128079
0.0128072
0.0128073
0.0117442
0.0120162
0.0120608
0.0120942
0.0121212
0.0121467
0.012168
0.0121889
0.0122067
0.012225
0.0122407
0.0122572
0.0122715
0.0122865
0.0122994
0.0123132
0.0123252
0.0123381
0.0123492
0.0123612
0.0123714
0.0123824
0.0123918
0.0124018
0.0124103
0.0124193
0.0124268
0.0124346
0.012441
0.0124478
0.0124531
0.0124587
0.0124629
0.0124673
0.0124705
0.012474
0.0124762
0.0124788
0.0124803
0.0124821
0.012483
0.0124842
0.0124846
0.0124854
0.0124855
0.012486
0.0124859
0.0124863
0.0124861
0.0124864
0.0124862
0.0124865
0.0124863
0.0124865
0.0124863
0.0124865
0.0124864
0.0124866
0.0124864
0.0124866
0.0124865
0.0124867
0.0124865
0.0124867
0.0124866
0.0124868
0.0124867
0.0124868
0.0124867
0.0124869
0.0124868
0.0124869
0.0124869
0.012487
0.012487
0.0124871
0.0124871
0.0124872
0.0124871
0.0124873
0.0124872
0.0124874
0.0124873
0.0124875
0.0124874
0.0124876
0.0124875
0.0124878
0.0124876
0.0124879
0.011275
0.0116657
0.0117152
0.011746
0.0117712
0.0117947
0.0118151
0.0118346
0.0118518
0.0118687
0.0118839
0.0118993
0.0119132
0.0119273
0.01194
0.0119529
0.0119647
0.0119768
0.0119878
0.011999
0.0120092
0.0120196
0.0120289
0.0120384
0.0120469
0.0120555
0.012063
0.0120706
0.0120771
0.0120836
0.0120891
0.0120946
0.0120991
0.0121035
0.0121069
0.0121103
0.0121129
0.0121154
0.0121173
0.0121191
0.0121202
0.0121214
0.0121221
0.0121228
0.0121231
0.0121236
0.0121237
0.0121239
0.0121239
0.0121241
0.0121241
0.0121242
0.0121241
0.0121242
0.0121242
0.0121243
0.0121242
0.0121243
0.0121243
0.0121244
0.0121243
0.0121244
0.0121244
0.0121245
0.0121244
0.0121245
0.0121245
0.0121246
0.0121246
0.0121247
0.0121246
0.0121247
0.0121247
0.0121248
0.0121248
0.0121249
0.0121249