/*--------------------------------*- C++ -*----------------------------------*\
  =========                 |
  \\      /  F ield         | OpenFOAM: The Open Source CFD Toolbox
   \\    /   O peration     | Website:  https://openfoam.org
    \\  /    A nd           | Version:  7
     \\/     M anipulation  |
\*---------------------------------------------------------------------------*/
FoamFile
{
    version     2.0;
    format      ascii;
    class       volScalarField;
    location    "1.6425";
    object      pPrime2Mean;
}
// * * * * * * * * * * * * * * * * * * * * * * * * * * * * * * * * * * * * * //

dimensions      [2 -2 -4 0 0 0 0];

internalField   nonuniform List<scalar> 
7920
(
1.04627e+06
1.04503e+06
1.04506e+06
1.04373e+06
1.04367e+06
1.04212e+06
1.04186e+06
1.04009e+06
1.03962e+06
1.03768e+06
1.03703e+06
1.03497e+06
1.03417e+06
1.03204e+06
1.03112e+06
1.02892e+06
1.02789e+06
1.02563e+06
1.02453e+06
1.02237e+06
1.0462e+06
1.04494e+06
1.04493e+06
1.04357e+06
1.0435e+06
1.04193e+06
1.04167e+06
1.03988e+06
1.03941e+06
1.03745e+06
1.03681e+06
1.03474e+06
1.03394e+06
1.0318e+06
1.03088e+06
1.02867e+06
1.02764e+06
1.02536e+06
1.02427e+06
1.0221e+06
1.0462e+06
1.04491e+06
1.0449e+06
1.04356e+06
1.04348e+06
1.04193e+06
1.04168e+06
1.03991e+06
1.03946e+06
1.03751e+06
1.03688e+06
1.03482e+06
1.03403e+06
1.03189e+06
1.03097e+06
1.02877e+06
1.02773e+06
1.02546e+06
1.02434e+06
1.02215e+06
1.0462e+06
1.04491e+06
1.0449e+06
1.04355e+06
1.04347e+06
1.04191e+06
1.04165e+06
1.03986e+06
1.0394e+06
1.03745e+06
1.03681e+06
1.03475e+06
1.03396e+06
1.03182e+06
1.0309e+06
1.0287e+06
1.02767e+06
1.02539e+06
1.02427e+06
1.02202e+06
1.04621e+06
1.04491e+06
1.0449e+06
1.04355e+06
1.04346e+06
1.0419e+06
1.04164e+06
1.03987e+06
1.03942e+06
1.03748e+06
1.03684e+06
1.03478e+06
1.03399e+06
1.03186e+06
1.03095e+06
1.02875e+06
1.02771e+06
1.02544e+06
1.0243e+06
1.02204e+06
1.0462e+06
1.0449e+06
1.04489e+06
1.04353e+06
1.04345e+06
1.04189e+06
1.04163e+06
1.03986e+06
1.0394e+06
1.03746e+06
1.03682e+06
1.03476e+06
1.03397e+06
1.03184e+06
1.03092e+06
1.02872e+06
1.02769e+06
1.02542e+06
1.02428e+06
1.02201e+06
1.0462e+06
1.0449e+06
1.04489e+06
1.04353e+06
1.04345e+06
1.04189e+06
1.04163e+06
1.03986e+06
1.0394e+06
1.03746e+06
1.03682e+06
1.03476e+06
1.03397e+06
1.03184e+06
1.03092e+06
1.02872e+06
1.02769e+06
1.02542e+06
1.02429e+06
1.02201e+06
1.04621e+06
1.04491e+06
1.0449e+06
1.04355e+06
1.04346e+06
1.0419e+06
1.04164e+06
1.03987e+06
1.03942e+06
1.03748e+06
1.03684e+06
1.03478e+06
1.03399e+06
1.03186e+06
1.03095e+06
1.02875e+06
1.02771e+06
1.02544e+06
1.0243e+06
1.02204e+06
1.0462e+06
1.04491e+06
1.0449e+06
1.04355e+06
1.04347e+06
1.04191e+06
1.04165e+06
1.03986e+06
1.0394e+06
1.03745e+06
1.03681e+06
1.03475e+06
1.03396e+06
1.03182e+06
1.0309e+06
1.0287e+06
1.02767e+06
1.02539e+06
1.02427e+06
1.02202e+06
1.0462e+06
1.04491e+06
1.0449e+06
1.04356e+06
1.04348e+06
1.04193e+06
1.04168e+06
1.03991e+06
1.03946e+06
1.03751e+06
1.03688e+06
1.03482e+06
1.03403e+06
1.03189e+06
1.03097e+06
1.02877e+06
1.02773e+06
1.02547e+06
1.02434e+06
1.02215e+06
1.0462e+06
1.04494e+06
1.04493e+06
1.04357e+06
1.0435e+06
1.04193e+06
1.04167e+06
1.03988e+06
1.03941e+06
1.03745e+06
1.03681e+06
1.03474e+06
1.03394e+06
1.0318e+06
1.03088e+06
1.02867e+06
1.02764e+06
1.02536e+06
1.02427e+06
1.0221e+06
1.04627e+06
1.04503e+06
1.04506e+06
1.04373e+06
1.04367e+06
1.04212e+06
1.04186e+06
1.04009e+06
1.03962e+06
1.03768e+06
1.03703e+06
1.03497e+06
1.03417e+06
1.03204e+06
1.03112e+06
1.02892e+06
1.02789e+06
1.02563e+06
1.02453e+06
1.02237e+06
1.04527e+06
1.04371e+06
1.04406e+06
1.04246e+06
1.04271e+06
1.04088e+06
1.04094e+06
1.03893e+06
1.03878e+06
1.03664e+06
1.0363e+06
1.03407e+06
1.03356e+06
1.03128e+06
1.03061e+06
1.0283e+06
1.02749e+06
1.02513e+06
1.02422e+06
1.02189e+06
1.04533e+06
1.04372e+06
1.04407e+06
1.04248e+06
1.04275e+06
1.04095e+06
1.04103e+06
1.03906e+06
1.03892e+06
1.03681e+06
1.03647e+06
1.03425e+06
1.03374e+06
1.03147e+06
1.0308e+06
1.0285e+06
1.02769e+06
1.02534e+06
1.02444e+06
1.02213e+06
1.04533e+06
1.04373e+06
1.0441e+06
1.04249e+06
1.04276e+06
1.04093e+06
1.041e+06
1.039e+06
1.03886e+06
1.03673e+06
1.03639e+06
1.03417e+06
1.03365e+06
1.03138e+06
1.03071e+06
1.0284e+06
1.02759e+06
1.02522e+06
1.02431e+06
1.02191e+06
1.04536e+06
1.04373e+06
1.04407e+06
1.04245e+06
1.04271e+06
1.04091e+06
1.04099e+06
1.03902e+06
1.03889e+06
1.03678e+06
1.03644e+06
1.03424e+06
1.03373e+06
1.03146e+06
1.0308e+06
1.02849e+06
1.02767e+06
1.02532e+06
1.0244e+06
1.02202e+06
1.04535e+06
1.04372e+06
1.04407e+06
1.04245e+06
1.04271e+06
1.0409e+06
1.04098e+06
1.03899e+06
1.03886e+06
1.03674e+06
1.0364e+06
1.03419e+06
1.03368e+06
1.03141e+06
1.03075e+06
1.02844e+06
1.02763e+06
1.02526e+06
1.02434e+06
1.02191e+06
1.04537e+06
1.04373e+06
1.04407e+06
1.04245e+06
1.04271e+06
1.0409e+06
1.04098e+06
1.039e+06
1.03887e+06
1.03675e+06
1.03642e+06
1.03421e+06
1.0337e+06
1.03144e+06
1.03077e+06
1.02847e+06
1.02765e+06
1.02529e+06
1.02437e+06
1.02195e+06
1.04537e+06
1.04373e+06
1.04407e+06
1.04245e+06
1.04271e+06
1.0409e+06
1.04098e+06
1.039e+06
1.03887e+06
1.03675e+06
1.03642e+06
1.03421e+06
1.0337e+06
1.03144e+06
1.03077e+06
1.02847e+06
1.02765e+06
1.02529e+06
1.02437e+06
1.02195e+06
1.04535e+06
1.04372e+06
1.04407e+06
1.04245e+06
1.04271e+06
1.0409e+06
1.04098e+06
1.03899e+06
1.03886e+06
1.03674e+06
1.0364e+06
1.03419e+06
1.03368e+06
1.03141e+06
1.03075e+06
1.02844e+06
1.02763e+06
1.02526e+06
1.02435e+06
1.02191e+06
1.04536e+06
1.04373e+06
1.04407e+06
1.04245e+06
1.04271e+06
1.04091e+06
1.04099e+06
1.03902e+06
1.03889e+06
1.03678e+06
1.03644e+06
1.03424e+06
1.03373e+06
1.03146e+06
1.0308e+06
1.02849e+06
1.02767e+06
1.02532e+06
1.0244e+06
1.02202e+06
1.04533e+06
1.04373e+06
1.0441e+06
1.04249e+06
1.04276e+06
1.04093e+06
1.041e+06
1.039e+06
1.03886e+06
1.03673e+06
1.03639e+06
1.03417e+06
1.03365e+06
1.03138e+06
1.03071e+06
1.0284e+06
1.02759e+06
1.02522e+06
1.02431e+06
1.02191e+06
1.04533e+06
1.04372e+06
1.04407e+06
1.04248e+06
1.04275e+06
1.04095e+06
1.04103e+06
1.03906e+06
1.03892e+06
1.03681e+06
1.03647e+06
1.03425e+06
1.03374e+06
1.03147e+06
1.0308e+06
1.0285e+06
1.02768e+06
1.02534e+06
1.02444e+06
1.02214e+06
1.04527e+06
1.04371e+06
1.04406e+06
1.04246e+06
1.04271e+06
1.04088e+06
1.04094e+06
1.03893e+06
1.03878e+06
1.03664e+06
1.0363e+06
1.03407e+06
1.03356e+06
1.03128e+06
1.03061e+06
1.0283e+06
1.02749e+06
1.02513e+06
1.02422e+06
1.02189e+06
1.04515e+06
1.0436e+06
1.04379e+06
1.04227e+06
1.0425e+06
1.04084e+06
1.04088e+06
1.03899e+06
1.03881e+06
1.03675e+06
1.03639e+06
1.03422e+06
1.0337e+06
1.03146e+06
1.0308e+06
1.02848e+06
1.02769e+06
1.02529e+06
1.02444e+06
1.02206e+06
1.04519e+06
1.04361e+06
1.04379e+06
1.04227e+06
1.04248e+06
1.04081e+06
1.04086e+06
1.03897e+06
1.03881e+06
1.03676e+06
1.03641e+06
1.03424e+06
1.03373e+06
1.03148e+06
1.03082e+06
1.0285e+06
1.02771e+06
1.02531e+06
1.02445e+06
1.02204e+06
1.04519e+06
1.04362e+06
1.0438e+06
1.04227e+06
1.04248e+06
1.04081e+06
1.04085e+06
1.03897e+06
1.03881e+06
1.03676e+06
1.03641e+06
1.03425e+06
1.03374e+06
1.03149e+06
1.03083e+06
1.02851e+06
1.02772e+06
1.02531e+06
1.02445e+06
1.02201e+06
1.04521e+06
1.04363e+06
1.04381e+06
1.04227e+06
1.04247e+06
1.04079e+06
1.04083e+06
1.03896e+06
1.03879e+06
1.03675e+06
1.0364e+06
1.03425e+06
1.03374e+06
1.0315e+06
1.03084e+06
1.02852e+06
1.02773e+06
1.02532e+06
1.02445e+06
1.02202e+06
1.04521e+06
1.04363e+06
1.04381e+06
1.04227e+06
1.04246e+06
1.04079e+06
1.04083e+06
1.03896e+06
1.0388e+06
1.03675e+06
1.0364e+06
1.03425e+06
1.03374e+06
1.0315e+06
1.03084e+06
1.02852e+06
1.02773e+06
1.02532e+06
1.02445e+06
1.02201e+06
1.04522e+06
1.04364e+06
1.04381e+06
1.04227e+06
1.04246e+06
1.04078e+06
1.04083e+06
1.03895e+06
1.03879e+06
1.03675e+06
1.0364e+06
1.03424e+06
1.03374e+06
1.0315e+06
1.03084e+06
1.02852e+06
1.02773e+06
1.02532e+06
1.02445e+06
1.02201e+06
1.04522e+06
1.04364e+06
1.04381e+06
1.04227e+06
1.04246e+06
1.04078e+06
1.04083e+06
1.03895e+06
1.03879e+06
1.03675e+06
1.0364e+06
1.03424e+06
1.03374e+06
1.0315e+06
1.03084e+06
1.02852e+06
1.02773e+06
1.02532e+06
1.02445e+06
1.02201e+06
1.04521e+06
1.04363e+06
1.04381e+06
1.04227e+06
1.04246e+06
1.04079e+06
1.04083e+06
1.03896e+06
1.0388e+06
1.03675e+06
1.0364e+06
1.03425e+06
1.03374e+06
1.0315e+06
1.03084e+06
1.02852e+06
1.02773e+06
1.02532e+06
1.02445e+06
1.02201e+06
1.04521e+06
1.04363e+06
1.04381e+06
1.04227e+06
1.04247e+06
1.04079e+06
1.04083e+06
1.03896e+06
1.03879e+06
1.03675e+06
1.0364e+06
1.03425e+06
1.03374e+06
1.0315e+06
1.03084e+06
1.02852e+06
1.02773e+06
1.02532e+06
1.02445e+06
1.02202e+06
1.04519e+06
1.04362e+06
1.0438e+06
1.04227e+06
1.04248e+06
1.04081e+06
1.04085e+06
1.03897e+06
1.03881e+06
1.03676e+06
1.03641e+06
1.03425e+06
1.03374e+06
1.03149e+06
1.03084e+06
1.02851e+06
1.02772e+06
1.02531e+06
1.02444e+06
1.02202e+06
1.04519e+06
1.04361e+06
1.04379e+06
1.04227e+06
1.04248e+06
1.04081e+06
1.04086e+06
1.03897e+06
1.03881e+06
1.03676e+06
1.03641e+06
1.03424e+06
1.03373e+06
1.03148e+06
1.03082e+06
1.0285e+06
1.02771e+06
1.02531e+06
1.02445e+06
1.02205e+06
1.04515e+06
1.0436e+06
1.04379e+06
1.04227e+06
1.0425e+06
1.04084e+06
1.04088e+06
1.03899e+06
1.03881e+06
1.03675e+06
1.03639e+06
1.03422e+06
1.0337e+06
1.03146e+06
1.0308e+06
1.02848e+06
1.02769e+06
1.02529e+06
1.02444e+06
1.02207e+06
1.04515e+06
1.0436e+06
1.04379e+06
1.04227e+06
1.0425e+06
1.04084e+06
1.04088e+06
1.03899e+06
1.03881e+06
1.03675e+06
1.03639e+06
1.03422e+06
1.0337e+06
1.03146e+06
1.0308e+06
1.02848e+06
1.02769e+06
1.02529e+06
1.02444e+06
1.02206e+06
1.04519e+06
1.04361e+06
1.04379e+06
1.04227e+06
1.04248e+06
1.04081e+06
1.04086e+06
1.03898e+06
1.03881e+06
1.03676e+06
1.03641e+06
1.03424e+06
1.03373e+06
1.03148e+06
1.03082e+06
1.0285e+06
1.02771e+06
1.02531e+06
1.02445e+06
1.02204e+06
1.04519e+06
1.04362e+06
1.0438e+06
1.04227e+06
1.04248e+06
1.04081e+06
1.04085e+06
1.03897e+06
1.03881e+06
1.03676e+06
1.03641e+06
1.03425e+06
1.03374e+06
1.03149e+06
1.03084e+06
1.02851e+06
1.02772e+06
1.02531e+06
1.02445e+06
1.02201e+06
1.04521e+06
1.04363e+06
1.04381e+06
1.04227e+06
1.04247e+06
1.04079e+06
1.04083e+06
1.03896e+06
1.0388e+06
1.03675e+06
1.0364e+06
1.03425e+06
1.03374e+06
1.0315e+06
1.03084e+06
1.02852e+06
1.02773e+06
1.02532e+06
1.02445e+06
1.02202e+06
1.04521e+06
1.04363e+06
1.04381e+06
1.04227e+06
1.04246e+06
1.04079e+06
1.04083e+06
1.03896e+06
1.0388e+06
1.03675e+06
1.0364e+06
1.03425e+06
1.03374e+06
1.0315e+06
1.03084e+06
1.02852e+06
1.02773e+06
1.02532e+06
1.02445e+06
1.02201e+06
1.04522e+06
1.04364e+06
1.04381e+06
1.04227e+06
1.04246e+06
1.04078e+06
1.04083e+06
1.03895e+06
1.03879e+06
1.03675e+06
1.0364e+06
1.03425e+06
1.03374e+06
1.0315e+06
1.03084e+06
1.02852e+06
1.02773e+06
1.02532e+06
1.02445e+06
1.02201e+06
1.04522e+06
1.04364e+06
1.04381e+06
1.04227e+06
1.04246e+06
1.04078e+06
1.04083e+06
1.03895e+06
1.03879e+06
1.03675e+06
1.0364e+06
1.03425e+06
1.03374e+06
1.0315e+06
1.03084e+06
1.02852e+06
1.02773e+06
1.02532e+06
1.02445e+06
1.02201e+06
1.04521e+06
1.04363e+06
1.04381e+06
1.04227e+06
1.04246e+06
1.04079e+06
1.04083e+06
1.03896e+06
1.0388e+06
1.03675e+06
1.0364e+06
1.03425e+06
1.03374e+06
1.0315e+06
1.03084e+06
1.02852e+06
1.02773e+06
1.02532e+06
1.02445e+06
1.02201e+06
1.04521e+06
1.04363e+06
1.04381e+06
1.04227e+06
1.04247e+06
1.04079e+06
1.04083e+06
1.03896e+06
1.03879e+06
1.03675e+06
1.0364e+06
1.03425e+06
1.03374e+06
1.0315e+06
1.03084e+06
1.02852e+06
1.02773e+06
1.02532e+06
1.02445e+06
1.02202e+06
1.04519e+06
1.04362e+06
1.0438e+06
1.04227e+06
1.04248e+06
1.04081e+06
1.04085e+06
1.03897e+06
1.03881e+06
1.03676e+06
1.03641e+06
1.03425e+06
1.03374e+06
1.03149e+06
1.03084e+06
1.02851e+06
1.02772e+06
1.02531e+06
1.02445e+06
1.02202e+06
1.04519e+06
1.04361e+06
1.04379e+06
1.04227e+06
1.04248e+06
1.04081e+06
1.04086e+06
1.03897e+06
1.03881e+06
1.03676e+06
1.03641e+06
1.03424e+06
1.03373e+06
1.03148e+06
1.03082e+06
1.0285e+06
1.02771e+06
1.02531e+06
1.02445e+06
1.02205e+06
1.04515e+06
1.0436e+06
1.04379e+06
1.04227e+06
1.0425e+06
1.04084e+06
1.04088e+06
1.03899e+06
1.03881e+06
1.03675e+06
1.03639e+06
1.03422e+06
1.0337e+06
1.03146e+06
1.0308e+06
1.02848e+06
1.02769e+06
1.02529e+06
1.02444e+06
1.02207e+06
1.04527e+06
1.04371e+06
1.04406e+06
1.04246e+06
1.04271e+06
1.04088e+06
1.04094e+06
1.03893e+06
1.03878e+06
1.03665e+06
1.0363e+06
1.03407e+06
1.03356e+06
1.03128e+06
1.03061e+06
1.0283e+06
1.02749e+06
1.02513e+06
1.02422e+06
1.02189e+06
1.04533e+06
1.04372e+06
1.04407e+06
1.04248e+06
1.04275e+06
1.04095e+06
1.04103e+06
1.03906e+06
1.03892e+06
1.03681e+06
1.03647e+06
1.03425e+06
1.03374e+06
1.03147e+06
1.0308e+06
1.0285e+06
1.02769e+06
1.02534e+06
1.02444e+06
1.02213e+06
1.04533e+06
1.04373e+06
1.0441e+06
1.0425e+06
1.04276e+06
1.04094e+06
1.041e+06
1.039e+06
1.03886e+06
1.03673e+06
1.03639e+06
1.03417e+06
1.03365e+06
1.03138e+06
1.03071e+06
1.0284e+06
1.02759e+06
1.02522e+06
1.02431e+06
1.02191e+06
1.04536e+06
1.04373e+06
1.04407e+06
1.04245e+06
1.04271e+06
1.04091e+06
1.04099e+06
1.03902e+06
1.03889e+06
1.03678e+06
1.03644e+06
1.03424e+06
1.03373e+06
1.03146e+06
1.0308e+06
1.02849e+06
1.02767e+06
1.02532e+06
1.0244e+06
1.02202e+06
1.04535e+06
1.04372e+06
1.04407e+06
1.04245e+06
1.04271e+06
1.0409e+06
1.04098e+06
1.03899e+06
1.03886e+06
1.03674e+06
1.0364e+06
1.03419e+06
1.03368e+06
1.03141e+06
1.03075e+06
1.02844e+06
1.02763e+06
1.02526e+06
1.02435e+06
1.02191e+06
1.04537e+06
1.04373e+06
1.04407e+06
1.04245e+06
1.04271e+06
1.0409e+06
1.04098e+06
1.039e+06
1.03887e+06
1.03675e+06
1.03642e+06
1.03421e+06
1.0337e+06
1.03144e+06
1.03077e+06
1.02847e+06
1.02765e+06
1.02529e+06
1.02437e+06
1.02195e+06
1.04537e+06
1.04373e+06
1.04407e+06
1.04245e+06
1.04271e+06
1.0409e+06
1.04098e+06
1.039e+06
1.03887e+06
1.03675e+06
1.03642e+06
1.03421e+06
1.0337e+06
1.03144e+06
1.03077e+06
1.02847e+06
1.02765e+06
1.02529e+06
1.02437e+06
1.02195e+06
1.04535e+06
1.04372e+06
1.04407e+06
1.04245e+06
1.04271e+06
1.0409e+06
1.04098e+06
1.03899e+06
1.03886e+06
1.03674e+06
1.0364e+06
1.03419e+06
1.03368e+06
1.03141e+06
1.03075e+06
1.02844e+06
1.02763e+06
1.02526e+06
1.02435e+06
1.02191e+06
1.04536e+06
1.04373e+06
1.04407e+06
1.04245e+06
1.04271e+06
1.04091e+06
1.04099e+06
1.03902e+06
1.03889e+06
1.03678e+06
1.03644e+06
1.03424e+06
1.03373e+06
1.03146e+06
1.0308e+06
1.02849e+06
1.02767e+06
1.02532e+06
1.0244e+06
1.02202e+06
1.04533e+06
1.04373e+06
1.0441e+06
1.0425e+06
1.04276e+06
1.04094e+06
1.041e+06
1.039e+06
1.03886e+06
1.03673e+06
1.03639e+06
1.03417e+06
1.03365e+06
1.03138e+06
1.03071e+06
1.0284e+06
1.02759e+06
1.02522e+06
1.02431e+06
1.02191e+06
1.04533e+06
1.04372e+06
1.04407e+06
1.04248e+06
1.04275e+06
1.04095e+06
1.04103e+06
1.03906e+06
1.03892e+06
1.03681e+06
1.03647e+06
1.03425e+06
1.03374e+06
1.03147e+06
1.0308e+06
1.0285e+06
1.02768e+06
1.02534e+06
1.02444e+06
1.02214e+06
1.04527e+06
1.04371e+06
1.04406e+06
1.04246e+06
1.04271e+06
1.04088e+06
1.04094e+06
1.03893e+06
1.03878e+06
1.03665e+06
1.0363e+06
1.03407e+06
1.03356e+06
1.03128e+06
1.03061e+06
1.0283e+06
1.02749e+06
1.02513e+06
1.02422e+06
1.02189e+06
1.04627e+06
1.04503e+06
1.04506e+06
1.04374e+06
1.04367e+06
1.04212e+06
1.04186e+06
1.04009e+06
1.03962e+06
1.03768e+06
1.03703e+06
1.03497e+06
1.03417e+06
1.03204e+06
1.03112e+06
1.02892e+06
1.02789e+06
1.02563e+06
1.02453e+06
1.02237e+06
1.0462e+06
1.04494e+06
1.04493e+06
1.04357e+06
1.0435e+06
1.04193e+06
1.04167e+06
1.03988e+06
1.03941e+06
1.03746e+06
1.03681e+06
1.03474e+06
1.03394e+06
1.0318e+06
1.03088e+06
1.02867e+06
1.02764e+06
1.02536e+06
1.02427e+06
1.0221e+06
1.0462e+06
1.04491e+06
1.0449e+06
1.04356e+06
1.04348e+06
1.04193e+06
1.04168e+06
1.03991e+06
1.03946e+06
1.03751e+06
1.03688e+06
1.03482e+06
1.03403e+06
1.03189e+06
1.03097e+06
1.02877e+06
1.02773e+06
1.02546e+06
1.02434e+06
1.02215e+06
1.0462e+06
1.04491e+06
1.0449e+06
1.04355e+06
1.04347e+06
1.04191e+06
1.04165e+06
1.03986e+06
1.03941e+06
1.03745e+06
1.03681e+06
1.03475e+06
1.03396e+06
1.03182e+06
1.0309e+06
1.0287e+06
1.02767e+06
1.02539e+06
1.02427e+06
1.02202e+06
1.04621e+06
1.04491e+06
1.0449e+06
1.04355e+06
1.04346e+06
1.0419e+06
1.04164e+06
1.03987e+06
1.03942e+06
1.03748e+06
1.03684e+06
1.03478e+06
1.034e+06
1.03186e+06
1.03095e+06
1.02875e+06
1.02771e+06
1.02544e+06
1.0243e+06
1.02204e+06
1.0462e+06
1.0449e+06
1.04489e+06
1.04353e+06
1.04345e+06
1.04189e+06
1.04163e+06
1.03986e+06
1.0394e+06
1.03746e+06
1.03682e+06
1.03476e+06
1.03397e+06
1.03184e+06
1.03093e+06
1.02872e+06
1.02769e+06
1.02542e+06
1.02428e+06
1.02201e+06
1.0462e+06
1.0449e+06
1.04489e+06
1.04353e+06
1.04345e+06
1.04189e+06
1.04163e+06
1.03986e+06
1.0394e+06
1.03746e+06
1.03682e+06
1.03476e+06
1.03397e+06
1.03184e+06
1.03093e+06
1.02872e+06
1.02769e+06
1.02542e+06
1.02429e+06
1.02201e+06
1.04621e+06
1.04491e+06
1.0449e+06
1.04355e+06
1.04346e+06
1.0419e+06
1.04164e+06
1.03987e+06
1.03942e+06
1.03748e+06
1.03684e+06
1.03478e+06
1.034e+06
1.03186e+06
1.03095e+06
1.02875e+06
1.02771e+06
1.02544e+06
1.0243e+06
1.02204e+06
1.0462e+06
1.04491e+06
1.0449e+06
1.04355e+06
1.04347e+06
1.04191e+06
1.04165e+06
1.03986e+06
1.03941e+06
1.03745e+06
1.03681e+06
1.03475e+06
1.03396e+06
1.03182e+06
1.0309e+06
1.0287e+06
1.02767e+06
1.02539e+06
1.02427e+06
1.02202e+06
1.0462e+06
1.04491e+06
1.0449e+06
1.04356e+06
1.04348e+06
1.04193e+06
1.04168e+06
1.03991e+06
1.03946e+06
1.03751e+06
1.03688e+06
1.03482e+06
1.03403e+06
1.03189e+06
1.03097e+06
1.02877e+06
1.02773e+06
1.02547e+06
1.02434e+06
1.02215e+06
1.0462e+06
1.04494e+06
1.04493e+06
1.04357e+06
1.0435e+06
1.04193e+06
1.04167e+06
1.03988e+06
1.03941e+06
1.03746e+06
1.03681e+06
1.03474e+06
1.03394e+06
1.0318e+06
1.03088e+06
1.02867e+06
1.02764e+06
1.02537e+06
1.02427e+06
1.0221e+06
1.04627e+06
1.04503e+06
1.04506e+06
1.04374e+06
1.04367e+06
1.04212e+06
1.04186e+06
1.04009e+06
1.03962e+06
1.03768e+06
1.03703e+06
1.03497e+06
1.03417e+06
1.03204e+06
1.03112e+06
1.02892e+06
1.02789e+06
1.02563e+06
1.02453e+06
1.02237e+06
1.01946e+06
1.00961e+06
1.00479e+06
994554
988773
978028
971445
960264
952959
941385
933419
921489
912917
900664
891535
878987
869343
856525
846406
833341
822784
809495
798535
785042
773712
760036
748369
734530
722556
708573
696322
682217
669719
655510
642794
628504
615601
601251
588193
573810
560634
546246
532970
518560
505155
490733
477285
462937
449500
435253
421869
407754
394456
380496
367314
353532
340495
326913
314052
300691
288035
274918
262499
249649
237498
224940
213092
200852
189344
177451
166321
154806
144098
132995
122757
112107
102391
92238.2
83110.7
73513.7
65039.2
56064.7
48342.3
40071.8
33191.8
25801.1
19961
13425.7
8673.08
3853.54
1.01886e+06
1.00904e+06
1.00423e+06
994012
988239
977498
970920
959742
952444
940876
932918
920994
912429
900182
891060
878518
868880
856067
845954
832894
822343
809059
798104
784616
773292
759621
747959
734125
722157
708180
695935
681835
669343
655140
642431
628146
615250
600907
587856
573480
560310
545930
532661
518258
504860
490447
477006
462666
449237
434998
421621
407514
394224
380272
367098
353324
340295
326721
313868
300515
287867
274757
262346
249503
237360
224810
212969
200736
189235
177349
166226
154718
144017
132919
122688
112044
102334
92186.8
83064.4
73472.8
65003
56033.5
48315.5
40049.4
33173.2
25786.2
19949.4
13417
8665.96
3847.96
1.01885e+06
1.00901e+06
1.00418e+06
993952
988170
977430
970845
959668
952364
940798
932835
920915
912347
900104
890980
878443
868805
855998
845886
832833
822284
809006
798054
784572
773251
759586
747927
734099
722133
708161
695919
681823
669334
655135
642428
628146
615252
600911
587861
573487
560318
545938
532671
518269
504871
490457
477016
462676
449246
435007
421629
407521
394230
380277
367101
353326
340296
326720
313865
300511
287861
274750
262337
249493
237348
224796
212954
200720
189218
177330
166206
154697
143995
132897
122665
112021
102310
92162.8
83040.8
73449.3
64980.4
56011.4
48294.6
40029.5
33155
25769.7
19935.1
13405.1
8657.29
3842.55
1.01871e+06
1.00893e+06
1.00411e+06
993897
988123
977383
970802
959624
952323
940757
932797
920875
912310
900065
890942
878402
868764
855955
845842
832786
822235
808954
798001
784517
773194
759526
747866
734035
722069
708095
695851
681754
669264
655064
642357
628075
615180
600839
587790
573416
560247
545869
532601
518200
504804
490391
476952
462613
449185
434947
421572
407466
394176
380226
367052
353279
340251
326678
313825
300473
287826
274717
262306
249465
237322
224773
212933
200701
189201
177315
166193
154686
143985
132889
122659
112016
102307
92161.2
83040.3
73450
64981.7
56013.7
48297.3
40032.9
33158.5
25773.3
19938.5
13408.1
8658.84
3843.23
1.01875e+06
1.00894e+06
1.00409e+06
993862
988083
977340
970754
959574
952268
940701
932738
920816
912248
900003
890879
878340
868701
855893
845780
832725
822175
808896
797943
784461
773139
759473
747813
733984
722018
708046
695804
681708
669218
655019
642313
628032
615138
600797
587748
573375
560207
545829
532562
518161
504765
490352
476913
462574
449146
434908
421533
407427
394137
380186
367013
353240
340212
326638
313786
300434
287786
274678
262267
249425
237283
224734
212894
200662
189163
177278
166156
154649
143950
132854
122625
111983
102275
92130.4
83010.8
73421.9
64955.4
55988.9
48274.4
40011.8
33139.6
25756.6
19924.4
13396.5
8650.49
3837.81
1.01871e+06
1.00892e+06
1.00408e+06
993864
988092
977353
970770
959592
952289
940723
932763
920841
912275
900030
890906
878367
868728
855919
845806
832751
822200
808919
797966
784482
773160
759493
747833
734003
722036
708063
695819
681723
669233
655033
642326
628044
615150
600809
587760
573386
560217
545839
532572
518171
504774
490362
476923
462584
449156
434918
421543
407437
394147
380197
367023
353250
340222
326649
313797
300445
287797
274689
262278
249437
237295
224745
212906
200674
189175
177290
166168
154661
143962
132866
122636
111995
102286
92141.4
83021.4
73432.1
64965
55998.1
48282.9
40019.7
33146.8
25762.9
19929.7
13400.9
8653.36
3839.68
1.01872e+06
1.00892e+06
1.00407e+06
993844
988066
977322
970736
959555
952250
940681
932720
920797
912230
899985
890861
878322
868684
855875
845762
832707
822157
808877
797925
784441
773119
759453
747793
733964
721998
708025
695782
681686
669197
654998
642291
628010
615116
600776
587727
573354
560186
545808
532542
518141
504745
490334
476895
462556
449129
434892
421517
407412
394122
380172
366999
353227
340200
326627
313775
300424
287777
274669
262259
249418
237277
224728
212889
200658
189159
177275
166153
154647
143948
132853
122624
111983
102275
92131
83011.7
73423.1
64956.7
55990.4
48276
40013.4
33141.3
25758.2
19925.9
13397.8
8651.26
3838.1
1.01874e+06
1.00894e+06
1.00409e+06
993875
988102
977364
970780
959603
952299
940733
932772
920851
912283
900039
890915
878376
868737
855929
845816
832761
822210
808930
797977
784494
773171
759505
747845
734016
722049
708076
695833
681737
669247
655048
642341
628059
615165
600824
587775
573401
560232
545853
532586
518185
504788
490376
476936
462596
449168
434930
421554
407448
394157
380206
367032
353259
340231
326657
313804
300451
287803
274694
262283
249441
237298
224749
212909
200676
189176
177291
166169
154662
143962
132866
122636
111994
102285
92139.8
83019.7
73430.2
64963
55996
48280.9
40017.7
33144.8
25761.1
19928.1
13399.6
8652.57
3839.26
1.01873e+06
1.00892e+06
1.00409e+06
993864
988084
977339
970754
959572
952269
940700
932739
920816
912250
900005
890882
878342
868705
855896
845784
832728
822178
808898
797946
784462
773140
759473
747814
733984
722018
708045
695802
681706
669216
655017
642310
628029
615135
600795
587747
573373
560206
545828
532561
518161
504765
490354
476915
462577
449150
434913
421538
407433
394144
380194
367021
353249
340222
326649
313797
300446
287799
274692
262281
249441
237299
224750
212911
200680
189181
177296
166175
154668
143969
132873
122644
112002
102294
92148.7
83028.6
73439.2
64971.8
56004.6
48289.1
40025.5
33152.2
25767.8
19934.1
13404.5
8656.37
3841.31
1.01883e+06
1.009e+06
1.00417e+06
993954
988179
977444
970861
959687
952385
940821
932860
920940
912373
900131
891007
878470
868832
856025
845913
832859
822310
809031
798079
784597
773275
759610
747951
734122
722156
708183
695941
681845
669355
655155
642448
628166
615272
600930
587880
573506
560336
545957
532688
518286
504888
490474
477033
462692
449262
435022
421645
407537
394245
380292
367116
353340
340310
326734
313879
300524
287874
274763
262349
249505
237360
224808
212966
200731
189229
177341
166216
154707
144005
132906
122674
112029
102318
92170.8
83048.5
73456.6
64987.2
56017.8
48300.5
40035
33159.9
25773.9
19938.8
13408.1
8659.41
3843.9
1.01887e+06
1.00901e+06
1.00419e+06
993960
988181
977436
970854
959673
952372
940802
932843
920919
912353
900107
890984
878442
868805
855993
845880
832822
822271
808988
798034
784548
773224
759555
747893
734061
722093
708117
695873
681774
669283
655081
642373
628090
615194
600852
587802
573427
560258
545878
532611
518209
504812
490399
476959
462620
449192
434954
421578
407472
394182
380232
367058
353286
340258
326685
313832
300480
287833
274725
262314
249473
237330
224781
212941
200710
189210
177324
166202
154695
143995
132899
122668
112026
102316
92170.4
83049.2
73458.8
64990.2
56021.8
48305
40040.1
33165.2
25779.3
19943.9
13412.6
8662.83
3845.57
1.01944e+06
1.0096e+06
1.00479e+06
994578
988807
978070
971493
960315
953014
941443
933480
921551
912981
900728
891599
879051
869407
856589
846469
833404
822846
809556
798595
785101
773771
760094
748426
734586
722611
708628
696376
682270
669771
655561
642845
628554
615650
601299
588241
573857
560680
546291
533015
518604
505198
490775
477326
462977
449540
435292
421907
407791
394492
380532
367349
353566
340529
326945
314083
300722
288065
274947
262527
249676
237524
224966
213117
200876
189367
177473
166342
154826
144118
133013
122774
112124
102407
92252.8
83124.4
73526.4
65050.9
56075.4
48352
40080.5
33199.4
25807.7
19966.5
13430.3
8676.42
3855.72
1.01926e+06
1.00919e+06
1.00476e+06
994386
988836
977988
971550
960289
953082
941444
933546
921562
913037
900736
891639
879048
869427
856571
846467
833369
822822
809503
798551
785032
773708
760010
748347
734490
722519
708522
696274
682156
669663
655444
642733
628435
615538
601182
588131
573744
560573
546184
532915
518504
505105
490683
477241
462893
449464
435218
421841
407727
394436
380479
367304
353524
340495
326916
314062
300703
288055
274940
262528
249680
237536
224981
213139
200901
189399
177507
166383
154868
144166
133061
122828
112177
102465
92308.3
83183.3
73581.1
65107.1
56125.1
48400.6
40119.9
33233.6
25830
19979
13426.9
8655.41
3830.3
1.01988e+06
1.00976e+06
1.00533e+06
994952
989403
978562
972129
960873
953667
942031
934132
922147
913620
901317
892217
879622
869997
857136
847028
833924
823372
810047
799089
785563
774233
760528
748858
734993
723016
709010
696756
682629
670128
655901
643183
628876
615971
601606
588547
574151
560972
546573
533296
518876
505468
491037
477587
463230
449791
435536
422150
408027
394727
380760
367577
353788
340750
327161
314298
300931
288273
275150
262729
249872
237720
225156
213306
201059
189549
177648
166516
154993
144283
133170
122930
112270
102551
92386.7
83254.6
73645.1
65164.4
56175.5
48444.5
40157.2
33264.8
25855.5
19998.8
13441.5
8665.66
3837.38
1.01941e+06
1.00946e+06
1.00503e+06
994665
989120
978274
971837
960578
953372
941735
933838
921853
913327
901025
891927
879334
869711
856852
846746
833645
823096
809773
798817
785295
773967
760265
748598
734737
722762
708760
696509
682386
669888
655665
642950
628648
615746
601386
588330
573938
560764
546369
533096
518681
505278
490851
477405
463053
449619
435369
421988
407870
394575
380613
367434
353651
340618
327034
314176
300814
288161
275043
262626
249775
237627
225068
213222
200980
189475
177579
166450
154932
144226
133118
122881
112226
102510
92350.5
83221.9
73616.2
65138.8
56153.4
48425.5
40141.5
33252
25845.4
19991.3
13436.3
8662.34
3834.86
1.0197e+06
1.00969e+06
1.00526e+06
994892
989343
978500
972063
960805
953599
941962
934063
922078
913551
901248
892148
879554
869929
857068
846960
833857
823306
809981
799023
785499
774169
760464
748796
734931
722954
708950
696696
682571
670070
655844
643127
628821
615916
601553
588494
574099
560922
546524
533248
518828
505422
490991
477542
463186
449749
435495
422110
407988
394689
380724
367541
353754
340717
327129
314267
300901
288245
275122
262703
249847
237696
225133
213284
201038
189529
177629
166498
154976
144267
133156
122916
112258
102539
92376.1
83245
73636.4
65156.6
56168.6
48438.4
40152
33260.5
25851.9
19996
13439.4
8664.76
3836.43
1.01946e+06
1.00953e+06
1.0051e+06
994741
989201
978357
971920
960662
953456
941820
933923
921939
913413
901110
892011
879418
869794
856934
846827
833725
823175
809851
798895
785371
774043
760340
748672
734809
722834
708830
696578
682454
669955
655731
643015
628711
615808
601447
588390
573997
560821
546425
533151
518734
505330
490902
477454
463101
449666
435414
422031
407912
394616
380653
367472
353687
340653
327067
314208
300845
288190
275071
262653
249800
237651
225090
213244
201000
189493
177596
166467
154948
144240
133131
122893
112237
102520
92359.3
83229.9
73623.2
65145
56158.6
48430
40145.2
33254.9
25847.6
19992.9
13437.3
8663.19
3835.28
1.01956e+06
1.0096e+06
1.00517e+06
994802
989257
978413
971974
960714
953506
941869
933971
921986
913459
901156
892056
879462
869838
856978
846871
833768
823217
809893
798937
785413
774084
760380
748712
734848
722873
708869
696616
682492
669992
655767
643051
628746
615843
601481
588423
574029
560853
546456
533181
518763
505358
490929
477481
463127
449691
435438
422055
407935
394637
380673
367492
353706
340670
327084
314224
300860
288205
275084
262665
249812
237662
225100
213253
201009
189501
177603
166473
154953
144245
133135
122897
112240
102522
92360.9
83231.1
73623.9
65145.3
56158.6
48429.7
40144.5
33254.1
25846.6
19991.8
13436.3
8662.54
3834.77
1.01955e+06
1.00961e+06
1.00519e+06
994830
989292
978452
972016
960758
953553
941919
934022
922038
913512
901208
892109
879515
869890
857029
846922
833819
823268
809943
798986
785461
774131
760427
748758
734894
722918
708913
696660
682535
670035
655809
643092
628786
615882
601520
588461
574067
560890
546493
533217
518799
505393
490963
477515
463160
449723
435470
422086
407965
394667
380702
367520
353734
340698
327111