/*--------------------------------*- C++ -*----------------------------------*\
  =========                 |
  \\      /  F ield         | OpenFOAM: The Open Source CFD Toolbox
   \\    /   O peration     | Website:  https://openfoam.org
    \\  /    A nd           | Version:  7
     \\/     M anipulation  |
\*---------------------------------------------------------------------------*/
FoamFile
{
    version     2.0;
    format      ascii;
    class       volVectorField;
    location    "0.555";
    object      U;
}
// * * * * * * * * * * * * * * * * * * * * * * * * * * * * * * * * * * * * * //

dimensions      [0 1 -1 0 0 0 0];

internalField   nonuniform List<vector> 
2400
(
(3.17944e-10 -3.62111e-10 0)
(-3.78118e-10 -1.73974e-12 0)
(-2.91684e-09 3.75258e-10 0)
(-6.93867e-09 6.29872e-10 0)
(-1.18436e-08 8.49258e-10 0)
(-1.73025e-08 9.14468e-10 0)
(-2.28021e-08 8.87104e-10 0)
(-2.82111e-08 7.56677e-10 0)
(-3.31978e-08 7.73914e-10 0)
(-3.76799e-08 6.47857e-10 0)
(-4.15233e-08 6.29627e-10 0)
(-4.47505e-08 4.9431e-10 0)
(-4.72498e-08 4.81341e-10 0)
(-4.92355e-08 3.32454e-10 0)
(-5.06002e-08 2.64033e-10 0)
(-5.14323e-08 1.95244e-10 0)
(-5.19436e-08 1.66981e-10 0)
(-5.19933e-08 2.04482e-10 0)
(-5.19133e-08 1.03808e-10 0)
(-5.15128e-08 9.24929e-11 0)
(-5.10656e-08 6.94541e-11 0)
(-5.05252e-08 1.38259e-10 0)
(-4.99624e-08 5.23599e-11 0)
(-4.93857e-08 4.17405e-11 0)
(-4.88102e-08 5.88784e-11 0)
(-4.82021e-08 1.22486e-10 0)
(-4.77264e-08 5.12681e-11 0)
(-4.72659e-08 4.25868e-11 0)
(-4.68575e-08 4.39477e-11 0)
(-4.64651e-08 4.37022e-11 0)
(-4.61108e-08 3.98351e-11 0)
(-4.57862e-08 3.2797e-11 0)
(-4.55635e-08 3.98013e-11 0)
(-4.52757e-08 4.51806e-11 0)
(-4.50207e-08 3.13588e-11 0)
(-4.48017e-08 -5.63294e-11 0)
(-4.46529e-08 2.6567e-11 0)
(-4.44486e-08 3.77171e-11 0)
(-4.43002e-08 2.66504e-11 0)
(-4.41541e-08 2.63464e-11 0)
(-4.40301e-08 2.21472e-11 0)
(-4.38825e-08 1.66598e-11 0)
(-4.37952e-08 -6.73063e-11 0)
(-4.36421e-08 1.74017e-11 0)
(-4.3557e-08 1.70726e-11 0)
(-4.35236e-08 1.22071e-11 0)
(-4.33836e-08 1.50506e-11 0)
(-4.33737e-08 1.30196e-11 0)
(-4.3279e-08 1.24832e-11 0)
(-4.32104e-08 8.06875e-12 0)
(-4.31022e-08 -7.90214e-11 0)
(-4.30897e-08 -4.177e-12 0)
(-4.30478e-08 1.32796e-11 0)
(-4.30126e-08 1.6892e-12 0)
(-4.30246e-08 8.96397e-12 0)
(-4.29175e-08 4.64335e-12 0)
(-4.29371e-08 4.05996e-12 0)
(-4.29402e-08 2.87458e-12 0)
(-4.28765e-08 7.70742e-12 0)
(-4.28367e-08 2.23551e-12 0)
(-4.28254e-08 -3.77928e-13 0)
(-4.28364e-08 -1.50036e-12 0)
(-4.2834e-08 1.36841e-12 0)
(-4.28241e-08 -6.47412e-12 0)
(-4.28461e-08 -3.32698e-12 0)
(-4.28251e-08 5.64799e-12 0)
(-4.27929e-08 3.76051e-12 0)
(-4.28339e-08 -5.44582e-12 0)
(-4.28242e-08 4.27572e-12 0)
(-4.27978e-08 -4.14086e-12 0)
(-4.28396e-08 -6.1458e-12 0)
(-4.28837e-08 -4.97764e-12 0)
(-4.28342e-08 2.17578e-12 0)
(-4.28444e-08 -1.32528e-12 0)
(-4.283e-08 2.91187e-12 0)
(-4.28713e-08 8.40268e-13 0)
(-4.28339e-08 -5.37775e-12 0)
(-4.28872e-08 -9.14908e-12 0)
(-4.29318e-08 2.30066e-12 0)
(-4.28808e-08 -3.32801e-12 0)
(-4.29257e-08 -4.58973e-13 0)
(-4.29004e-08 1.17666e-12 0)
(-4.29086e-08 -1.80973e-12 0)
(-4.29543e-08 -4.51168e-12 0)
(-4.29614e-08 -2.80898e-12 0)
(-4.29868e-08 -5.60774e-13 0)
(-4.29775e-08 3.60077e-12 0)
(-4.29963e-08 2.62574e-13 0)
(-4.30117e-08 -2.29094e-12 0)
(-4.30176e-08 -5.62366e-12 0)
(-4.30339e-08 -1.68679e-12 0)
(-4.30355e-08 -2.31298e-12 0)
(-4.30439e-08 -1.96789e-12 0)
(-4.30764e-08 -6.67707e-12 0)
(-4.30833e-08 -5.03482e-12 0)
(-4.30834e-08 -2.82534e-12 0)
(-4.31004e-08 -1.02576e-11 0)
(-4.31105e-08 4.71827e-13 0)
(-4.31263e-08 1.89668e-12 0)
(-4.3135e-08 1.68567e-12 0)
(-4.31392e-08 2.66215e-12 0)
(-4.31326e-08 -1.12735e-13 0)
(-4.3153e-08 -2.94988e-12 0)
(-4.32064e-08 -2.06576e-12 0)
(-4.32139e-08 6.66667e-12 0)
(-4.31787e-08 -9.02669e-12 0)
(-4.32269e-08 -5.83708e-12 0)
(-4.32225e-08 -5.58801e-12 0)
(-4.32292e-08 -1.62824e-12 0)
(-4.32382e-08 2.96213e-12 0)
(-4.32159e-08 -2.63218e-13 0)
(-4.33051e-08 -5.41846e-12 0)
(-4.32877e-08 1.01937e-12 0)
(-4.32975e-08 -5.54434e-12 0)
(-4.33088e-08 -1.20758e-12 0)
(-4.32721e-08 4.99117e-15 0)
(-4.33321e-08 -2.55441e-12 0)
(-4.33239e-08 2.22561e-12 0)
(-4.3338e-08 4.3591e-12 0)
(-4.32708e-08 4.70761e-12 0)
(-5.72864e-11 5.3367e-10 0)
(-3.55508e-09 3.70109e-09 0)
(-1.06944e-08 6.90295e-09 0)
(-2.0714e-08 9.2987e-09 0)
(-3.25651e-08 1.08053e-08 0)
(-4.54914e-08 1.15161e-08 0)
(-5.8567e-08 1.16377e-08 0)
(-7.13653e-08 1.12511e-08 0)
(-8.33348e-08 1.04817e-08 0)
(-9.40563e-08 9.47236e-09 0)
(-1.0337e-07 8.31629e-09 0)
(-1.11153e-07 7.10012e-09 0)
(-1.17246e-07 5.91465e-09 0)
(-1.22027e-07 4.7391e-09 0)
(-1.25291e-07 3.71357e-09 0)
(-1.27326e-07 2.8378e-09 0)
(-1.28474e-07 2.03564e-09 0)
(-1.28559e-07 1.40154e-09 0)
(-1.2819e-07 8.82855e-10 0)
(-1.27129e-07 4.96e-10 0)
(-1.25866e-07 2.42401e-10 0)
(-1.24366e-07 7.13393e-11 0)
(-1.22751e-07 -5.57073e-11 0)
(-1.21084e-07 -1.18657e-10 0)
(-1.19485e-07 -1.59645e-10 0)
(-1.17845e-07 -1.50906e-10 0)
(-1.1638e-07 -1.45344e-10 0)
(-1.15057e-07 -1.04434e-10 0)
(-1.13836e-07 -8.43225e-11 0)
(-1.12666e-07 -5.3234e-11 0)
(-1.11649e-07 -3.28907e-11 0)
(-1.10728e-07 -1.97337e-11 0)
(-1.09937e-07 -6.0932e-12 0)
(-1.09105e-07 4.57421e-12 0)
(-1.08356e-07 1.75155e-11 0)
(-1.07735e-07 1.20068e-11 0)
(-1.07209e-07 2.55512e-11 0)
(-1.0664e-07 3.31657e-11 0)
(-1.06175e-07 3.11454e-11 0)
(-1.05697e-07 1.74257e-11 0)
(-1.05295e-07 2.29338e-11 0)
(-1.04887e-07 1.49962e-11 0)
(-1.04548e-07 1.46795e-11 0)
(-1.04202e-07 2.12407e-11 0)
(-1.03942e-07 1.96324e-11 0)
(-1.03704e-07 2.29236e-11 0)
(-1.03377e-07 1.33182e-11 0)
(-1.03245e-07 8.43813e-12 0)
(-1.03004e-07 1.11337e-11 0)
(-1.0279e-07 8.29986e-12 0)
(-1.02571e-07 4.53267e-12 0)
(-1.02487e-07 2.65261e-11 0)
(-1.02355e-07 1.33974e-11 0)
(-1.02239e-07 1.52453e-11 0)
(-1.02182e-07 1.02775e-11 0)
(-1.01996e-07 1.35357e-11 0)
(-1.01972e-07 -8.45906e-12 0)
(-1.01915e-07 -2.46642e-12 0)
(-1.01781e-07 -9.07175e-12 0)
(-1.01716e-07 -3.98896e-12 0)
(-1.01709e-07 4.85727e-12 0)
(-1.0169e-07 9.55601e-12 0)
(-1.01674e-07 3.24345e-12 0)
(-1.0162e-07 1.05039e-12 0)
(-1.01655e-07 -6.74209e-13 0)
(-1.01645e-07 -5.93403e-12 0)
(-1.01563e-07 -5.63569e-12 0)
(-1.0164e-07 4.60917e-12 0)
(-1.01618e-07 7.41926e-12 0)
(-1.016e-07 1.43184e-11 0)
(-1.0166e-07 -5.04781e-12 0)
(-1.01718e-07 -4.04503e-12 0)
(-1.01657e-07 -4.26745e-12 0)
(-1.01707e-07 -1.37245e-11 0)
(-1.01695e-07 -5.18158e-12 0)
(-1.01775e-07 1.03482e-11 0)
(-1.01762e-07 9.8814e-12 0)
(-1.01843e-07 -6.88463e-14 0)
(-1.01892e-07 -9.23605e-12 0)
(-1.01851e-07 -1.92397e-12 0)
(-1.01939e-07 -8.00307e-12 0)
(-1.01955e-07 -2.64924e-12 0)
(-1.01972e-07 -5.19071e-12 0)
(-1.02019e-07 -1.50605e-12 0)
(-1.02047e-07 -7.26522e-12 0)
(-1.02085e-07 -6.17876e-12 0)
(-1.0212e-07 -4.00579e-13 0)
(-1.02164e-07 -1.01063e-12 0)
(-1.02216e-07 1.69671e-12 0)
(-1.02252e-07 -8.57434e-13 0)
(-1.02301e-07 -1.18231e-11 0)
(-1.02329e-07 -9.91327e-12 0)
(-1.02362e-07 -9.33446e-12 0)
(-1.02401e-07 -3.09361e-12 0)
(-1.02426e-07 -5.87851e-12 0)
(-1.02463e-07 -6.01527e-12 0)
(-1.02502e-07 2.61436e-12 0)
(-1.02535e-07 -6.54208e-12 0)
(-1.02585e-07 -4.37456e-12 0)
(-1.02605e-07 -8.04142e-12 0)
(-1.02633e-07 -4.8462e-12 0)
(-1.02657e-07 -2.44855e-12 0)
(-1.02688e-07 -4.32169e-14 0)
(-1.0277e-07 -2.88575e-12 0)
(-1.0281e-07 -3.01388e-12 0)
(-1.02773e-07 -5.41861e-12 0)
(-1.02859e-07 -5.95142e-12 0)
(-1.0288e-07 -1.56432e-13 0)
(-1.02907e-07 2.53171e-12 0)
(-1.02934e-07 1.00246e-11 0)
(-1.02927e-07 7.21707e-12 0)
(-1.03048e-07 8.73381e-12 0)
(-1.03043e-07 9.47596e-12 0)
(-1.03102e-07 4.3036e-12 0)
(-1.03182e-07 6.08468e-12 0)
(-1.03128e-07 -1.21435e-12 0)
(-1.03247e-07 -1.05443e-11 0)
(-1.03199e-07 -2.90879e-11 0)
(-1.03249e-07 -5.78546e-11 0)
(-1.03144e-07 -8.14229e-11 0)
(-4.21552e-10 3.42759e-09 0)
(-6.16859e-09 1.14779e-08 0)
(-1.61164e-08 1.86794e-08 0)
(-2.91857e-08 2.41093e-08 0)
(-4.4258e-08 2.76531e-08 0)
(-6.04257e-08 2.94215e-08 0)
(-7.67178e-08 2.97107e-08 0)
(-9.25817e-08 2.88686e-08 0)
(-1.07338e-07 2.70961e-08 0)
(-1.20541e-07 2.46669e-08 0)
(-1.31983e-07 2.18403e-08 0)
(-1.41374e-07 1.88284e-08 0)
(-1.4877e-07 1.57746e-08 0)
(-1.54344e-07 1.29026e-08 0)
(-1.58044e-07 1.02043e-08 0)
(-1.60221e-07 7.86245e-09 0)
(-1.61125e-07 5.86424e-09 0)
(-1.60761e-07 4.18676e-09 0)
(-1.59737e-07 2.85072e-09 0)
(-1.57905e-07 1.80696e-09 0)
(-1.55727e-07 1.06201e-09 0)
(-1.53253e-07 5.31815e-10 0)
(-1.50668e-07 1.73949e-10 0)
(-1.48013e-07 -5.26046e-11 0)
(-1.45431e-07 -1.79082e-10 0)
(-1.42886e-07 -2.1463e-10 0)
(-1.40632e-07 -2.13272e-10 0)
(-1.38454e-07 -1.79143e-10 0)
(-1.36423e-07 -1.18985e-10 0)
(-1.34573e-07 -7.25919e-11 0)
(-1.32853e-07 -3.16458e-11 0)
(-1.31365e-07 -6.91201e-13 0)
(-1.30037e-07 1.66627e-11 0)
(-1.28692e-07 4.56033e-11 0)
(-1.27451e-07 5.41307e-11 0)
(-1.26446e-07 5.8773e-11 0)
(-1.25536e-07 8.46125e-11 0)
(-1.2458e-07 9.01567e-11 0)
(-1.2376e-07 8.3237e-11 0)
(-1.22989e-07 6.55565e-11 0)
(-1.22327e-07 5.39513e-11 0)
(-1.21656e-07 5.6663e-11 0)
(-1.21064e-07 4.30343e-11 0)
(-1.2049e-07 6.24849e-11 0)
(-1.20054e-07 5.88091e-11 0)
(-1.19656e-07 5.37647e-11 0)
(-1.19147e-07 4.66614e-11 0)
(-1.18864e-07 3.18074e-11 0)
(-1.18457e-07 1.97952e-11 0)
(-1.18169e-07 1.06647e-11 0)
(-1.17817e-07 1.40602e-11 0)
(-1.1764e-07 2.28432e-11 0)
(-1.17402e-07 3.38946e-11 0)
(-1.17208e-07 3.92917e-11 0)
(-1.17058e-07 2.08807e-11 0)
(-1.16864e-07 2.57587e-12 0)
(-1.16735e-07 2.51639e-12 0)
(-1.16609e-07 -6.45143e-12 0)
(-1.16484e-07 -6.69545e-12 0)
(-1.16381e-07 2.00321e-12 0)
(-1.16315e-07 1.35239e-11 0)
(-1.16323e-07 2.00463e-11 0)
(-1.16212e-07 4.32587e-12 0)
(-1.16178e-07 9.82826e-12 0)
(-1.16242e-07 3.47245e-12 0)
(-1.16174e-07 -1.44249e-12 0)
(-1.1611e-07 -1.07084e-11 0)
(-1.16212e-07 -2.00669e-12 0)
(-1.16169e-07 2.27795e-12 0)
(-1.16142e-07 2.25321e-12 0)
(-1.16203e-07 6.45172e-12 0)
(-1.1627e-07 -2.98855e-12 0)
(-1.16275e-07 -1.94506e-11 0)
(-1.16349e-07 -9.65521e-12 0)
(-1.16357e-07 -6.55086e-12 0)
(-1.16412e-07 3.06695e-12 0)
(-1.16419e-07 7.87749e-12 0)
(-1.16501e-07 8.60945e-13 0)
(-1.16618e-07 -7.65453e-12 0)
(-1.16583e-07 -1.07018e-11 0)
(-1.16688e-07 -1.22905e-11 0)
(-1.16768e-07 -1.33533e-11 0)
(-1.16787e-07 -1.66194e-11 0)
(-1.1686e-07 -2.14384e-11 0)
(-1.16903e-07 -1.11031e-11 0)
(-1.1698e-07 -7.98429e-12 0)
(-1.1703e-07 4.38522e-13 0)
(-1.1708e-07 1.29388e-11 0)
(-1.17174e-07 1.29218e-11 0)
(-1.17245e-07 -5.16539e-12 0)
(-1.17341e-07 -9.30571e-12 0)
(-1.17376e-07 -1.08347e-11 0)
(-1.17445e-07 -1.52105e-11 0)
(-1.17499e-07 -1.37617e-11 0)
(-1.17537e-07 -1.14096e-11 0)
(-1.17613e-07 -1.02602e-11 0)
(-1.17657e-07 -6.00905e-12 0)
(-1.17737e-07 -8.99413e-12 0)
(-1.17823e-07 -7.13455e-12 0)
(-1.17863e-07 -6.22952e-12 0)
(-1.1791e-07 -5.87969e-12 0)
(-1.17972e-07 -2.86819e-12 0)
(-1.1802e-07 3.31663e-12 0)
(-1.18041e-07 3.75648e-12 0)
(-1.18151e-07 -1.87506e-11 0)
(-1.18121e-07 -1.45685e-11 0)
(-1.18246e-07 -8.8206e-12 0)
(-1.18347e-07 -5.14929e-13 0)
(-1.18335e-07 -1.62562e-12 0)
(-1.18437e-07 2.27964e-12 0)
(-1.18451e-07 1.32181e-11 0)
(-1.18552e-07 2.21239e-11 0)
(-1.18593e-07 2.27509e-11 0)
(-1.18623e-07 2.73592e-11 0)
(-1.18767e-07 3.1479e-11 0)
(-1.18727e-07 2.38062e-11 0)
(-1.18868e-07 1.17705e-11 0)
(-1.18884e-07 7.47567e-12 0)
(-1.18952e-07 -3.02303e-11 0)
(-1.18854e-07 -7.44457e-11 0)
(-5.92578e-10 7.43377e-09 0)
(-6.85925e-09 2.11324e-08 0)
(-1.6897e-08 3.24717e-08 0)
(-2.9442e-08 4.08709e-08 0)
(-4.35035e-08 4.6283e-08 0)
(-5.83262e-08 4.91165e-08 0)
(-7.30136e-08 4.96369e-08 0)
(-8.71329e-08 4.82737e-08 0)
(-1.00126e-07 4.53847e-08 0)
(-1.11581e-07 4.14349e-08 0)
(-1.21298e-07 3.68398e-08 0)
(-1.29033e-07 3.18287e-08 0)
(-1.3489e-07 2.68625e-08 0)
(-1.38902e-07 2.2033e-08 0)
(-1.41181e-07 1.76136e-08 0)
(-1.4205e-07 1.36467e-08 0)
(-1.41635e-07 1.02186e-08 0)
(-1.40039e-07 7.41048e-09 0)
(-1.37834e-07 5.11101e-09 0)
(-1.34869e-07 3.30879e-09 0)
(-1.31654e-07 1.97999e-09 0)
(-1.28143e-07 1.03351e-09 0)
(-1.24546e-07 3.82002e-10 0)
(-1.20988e-07 -1.70002e-11 0)
(-1.17517e-07 -2.48218e-10 0)
(-1.14164e-07 -3.39467e-10 0)
(-1.11148e-07 -3.4565e-10 0)
(-1.0818e-07 -3.10652e-10 0)
(-1.05503e-07 -2.41074e-10 0)
(-1.03006e-07 -1.59506e-10 0)
(-1.00719e-07 -7.9553e-11 0)
(-9.86364e-08 -2.56704e-11 0)
(-9.67972e-08 9.23162e-12 0)
(-9.49835e-08 3.04924e-11 0)
(-9.33028e-08 7.57943e-11 0)
(-9.18864e-08 9.65807e-11 0)
(-9.05912e-08 1.09501e-10 0)
(-8.93044e-08 1.20089e-10 0)
(-8.8141e-08 1.24309e-10 0)
(-8.70972e-08 9.7617e-11 0)
(-8.61375e-08 8.49054e-11 0)
(-8.52322e-08 6.93856e-11 0)
(-8.44101e-08 7.44249e-11 0)
(-8.36614e-08 8.51233e-11 0)
(-8.29853e-08 8.89271e-11 0)
(-8.24144e-08 6.64599e-11 0)
(-8.17702e-08 6.04573e-11 0)
(-8.12928e-08 4.63257e-11 0)
(-8.07897e-08 3.86698e-11 0)
(-8.03668e-08 2.2106e-11 0)
(-7.99616e-08 2.48035e-11 0)
(-7.96214e-08 3.18223e-11 0)
(-7.92899e-08 4.69396e-11 0)
(-7.90514e-08 5.03779e-11 0)
(-7.87807e-08 3.77721e-11 0)
(-7.85623e-08 4.20724e-12 0)
(-7.83801e-08 -7.2019e-12 0)
(-7.82118e-08 -1.14958e-11 0)
(-7.80612e-08 -1.28353e-11 0)
(-7.79464e-08 3.71633e-12 0)
(-7.78441e-08 5.97691e-12 0)
(-7.77572e-08 7.93681e-12 0)
(-7.76682e-08 9.88158e-12 0)
(-7.76327e-08 1.47964e-11 0)
(-7.76705e-08 1.1074e-11 0)
(-7.76006e-08 -1.03278e-11 0)
(-7.75816e-08 -1.90573e-11 0)
(-7.76012e-08 -6.61305e-12 0)
(-7.75887e-08 6.04128e-12 0)
(-7.75773e-08 1.66617e-12 0)
(-7.76632e-08 9.18742e-12 0)
(-7.77117e-08 -6.65109e-12 0)
(-7.77359e-08 -8.64271e-12 0)
(-7.78374e-08 -6.97743e-12 0)
(-7.78789e-08 -6.16374e-12 0)
(-7.79606e-08 -2.05639e-12 0)
(-7.79635e-08 -2.0827e-12 0)
(-7.81017e-08 -3.60454e-12 0)
(-7.81799e-08 -5.53316e-12 0)
(-7.82008e-08 -1.60567e-11 0)
(-7.83717e-08 -1.80356e-11 0)
(-7.8402e-08 -1.99983e-11 0)
(-7.84426e-08 -3.24406e-11 0)
(-7.86188e-08 -2.76296e-11 0)
(-7.86153e-08 -1.70166e-11 0)
(-7.87939e-08 -7.43364e-12 0)
(-7.88389e-08 4.26973e-12 0)
(-7.892e-08 5.63695e-12 0)
(-7.9007e-08 8.36989e-12 0)
(-7.90475e-08 -6.61116e-12 0)
(-7.92351e-08 -1.47813e-11 0)
(-7.92823e-08 -2.02016e-11 0)
(-7.94062e-08 -2.42751e-11 0)
(-7.94551e-08 -2.92855e-11 0)
(-7.95285e-08 -2.95439e-11 0)
(-7.96736e-08 -1.17803e-11 0)
(-7.97269e-08 9.81309e-12 0)
(-7.98155e-08 2.93365e-12 0)
(-7.98967e-08 -1.45691e-11 0)
(-7.99821e-08 -9.25937e-12 0)
(-8.00566e-08 -1.60811e-11 0)
(-8.01224e-08 -1.83005e-11 0)
(-8.02034e-08 -1.49118e-11 0)
(-8.02321e-08 -1.61513e-11 0)
(-8.03663e-08 -1.61216e-11 0)
(-8.04013e-08 -1.09802e-11 0)
(-8.04969e-08 -5.19969e-12 0)
(-8.06229e-08 1.24507e-11 0)
(-8.06648e-08 1.50571e-11 0)
(-8.07554e-08 1.25396e-11 0)
(-8.08074e-08 2.75296e-11 0)
(-8.08785e-08 4.00104e-11 0)
(-8.09803e-08 4.18194e-11 0)
(-8.10467e-08 4.42534e-11 0)
(-8.11555e-08 4.41456e-11 0)
(-8.11643e-08 4.52316e-11 0)
(-8.12805e-08 1.90658e-11 0)
(-8.13821e-08 -1.48442e-11 0)
(-8.14074e-08 -9.91542e-11 0)
(-8.13308e-08 -2.06943e-10 0)
(-6.01124e-10 1.13156e-08 0)
(-5.37282e-09 2.99524e-08 0)
(-1.2505e-08 4.45874e-08 0)
(-2.08822e-08 5.52842e-08 0)
(-2.98715e-08 6.22393e-08 0)
(-3.89139e-08 6.58135e-08 0)
(-4.75745e-08 6.64609e-08 0)
(-5.55551e-08 6.4611e-08 0)
(-6.24986e-08 6.08576e-08 0)
(-6.82297e-08 5.56605e-08 0)
(-7.26193e-08 4.96203e-08 0)
(-7.5585e-08 4.31049e-08 0)
(-7.71375e-08 3.64711e-08 0)
(-7.73872e-08 3.00524e-08 0)
(-7.6432e-08 2.41154e-08 0)
(-7.44396e-08 1.87601e-08 0)
(-7.15799e-08 1.4181e-08 0)
(-6.80231e-08 1.03364e-08 0)
(-6.39956e-08 7.21678e-09 0)
(-5.96062e-08 4.7805e-09 0)
(-5.50724e-08 2.9377e-09 0)
(-5.04969e-08 1.61748e-09 0)
(-4.58312e-08 7.06581e-10 0)
(-4.14469e-08 1.10287e-10 0)
(-3.71393e-08 -2.28747e-10 0)
(-3.31087e-08 -3.88872e-10 0)
(-2.93698e-08 -4.21215e-10 0)
(-2.57653e-08 -3.88889e-10 0)
(-2.25334e-08 -3.15076e-10 0)
(-1.94546e-08 -2.2337e-10 0)
(-1.66259e-08 -1.24139e-10 0)
(-1.39984e-08 -4.82456e-11 0)
(-1.16704e-08 -2.00201e-12 0)
(-9.49261e-09 3.6646e-11 0)
(-7.48013e-09 8.25475e-11 0)
(-5.59366e-09 1.21421e-10 0)
(-3.92246e-09 1.38197e-10 0)
(-2.39011e-09 1.49477e-10 0)
(-8.74511e-10 1.42824e-10 0)
(4.49894e-10 1.36133e-10 0)
(1.64153e-09 1.21055e-10 0)
(2.76343e-09 1.12424e-10 0)
(3.76903e-09 1.05813e-10 0)
(4.71347e-09 1.16236e-10 0)
(5.6147e-09 1.03363e-10 0)
(6.40919e-09 9.63423e-11 0)
(7.16651e-09 7.61026e-11 0)
(7.77466e-09 6.38773e-11 0)
(8.41653e-09 4.00652e-11 0)
(8.93291e-09 3.29686e-11 0)
(9.42435e-09 3.87133e-11 0)
(9.86126e-09 4.53031e-11 0)
(1.02348e-08 5.05626e-11 0)
(1.05922e-08 5.29113e-11 0)
(1.09804e-08 3.52642e-11 0)
(1.12232e-08 1.57069e-11 0)
(1.1436e-08 5.87544e-12 0)
(1.16261e-08 -3.72415e-12 0)
(1.18458e-08 -1.88585e-12 0)
(1.1951e-08 -3.46429e-12 0)
(1.20686e-08 1.41004e-11 0)
(1.22439e-08 5.40128e-12 0)
(1.226e-08 4.5922e-12 0)
(1.23219e-08 9.78471e-12 0)
(1.23988e-08 5.54215e-12 0)
(1.24729e-08 -1.59481e-11 0)
(1.24364e-08 -2.00969e-11 0)
(1.23734e-08 -1.105e-11 0)
(1.24229e-08 -1.02572e-11 0)
(1.23906e-08 5.05635e-12 0)
(1.23587e-08 5.18427e-12 0)
(1.22958e-08 6.32097e-12 0)
(1.22217e-08 -2.27726e-12 0)
(1.21416e-08 -1.20111e-11 0)
(1.20533e-08 -9.29604e-12 0)
(1.19543e-08 -6.93313e-12 0)
(1.19154e-08 -4.34363e-12 0)
(1.17937e-08 2.62515e-12 0)
(1.17027e-08 -7.60911e-12 0)
(1.1601e-08 -1.50262e-11 0)
(1.14358e-08 -1.59617e-11 0)
(1.14294e-08 -2.70024e-11 0)
(1.12818e-08 -3.58141e-11 0)
(1.11109e-08 -3.21001e-11 0)
(1.10777e-08 -2.97341e-11 0)
(1.09151e-08 -1.70713e-11 0)
(1.08292e-08 -8.26145e-12 0)
(1.07257e-08 -4.47135e-12 0)
(1.0625e-08 -5.84588e-12 0)
(1.0566e-08 -4.84559e-12 0)
(1.03513e-08 -5.10507e-12 0)
(1.03187e-08 -1.0053e-11 0)
(1.0141e-08 -2.06671e-11 0)
(1.00567e-08 -3.04557e-11 0)
(9.92133e-09 -1.92588e-11 0)
(9.74722e-09 -6.55476e-12 0)
(9.70477e-09 -1.1215e-11 0)
(9.59183e-09 -1.34874e-11 0)
(9.494e-09 -1.70412e-11 0)
(9.39743e-09 -2.23922e-11 0)
(9.2919e-09 -2.38311e-11 0)
(9.24511e-09 -1.87586e-11 0)
(9.06397e-09 -2.24765e-11 0)
(9.07646e-09 -1.36924e-11 0)
(8.92265e-09 -1.34094e-11 0)
(8.81622e-09 -4.05705e-12 0)
(8.71646e-09 1.19421e-11 0)
(8.56371e-09 1.75452e-11 0)
(8.53967e-09 8.97169e-12 0)
(8.41187e-09 1.24456e-11 0)
(8.28441e-09 2.46577e-11 0)
(8.23538e-09 4.51637e-11 0)
(8.14913e-09 4.80288e-11 0)
(8.08695e-09 6.48101e-11 0)
(7.95194e-09 6.90999e-11 0)
(7.90136e-09 8.32732e-11 0)
(7.76015e-09 1.07054e-10 0)
(7.58487e-09 1.11296e-10 0)
(7.42662e-09 1.10819e-10 0)
(7.47662e-09 1.06532e-10 0)
(-3.38294e-10 1.40336e-08 0)
(-2.04308e-09 3.56604e-08 0)
(-3.79602e-09 5.20496e-08 0)
(-5.06773e-09 6.38267e-08 0)
(-5.74423e-09 7.14241e-08 0)
(-5.73123e-09 7.52689e-08 0)
(-4.84288e-09 7.58919e-08 0)
(-3.40884e-09 7.38269e-08 0)
(-1.06575e-09 6.96689e-08 0)
(1.84476e-09 6.38859e-08 0)
(5.46599e-09 5.6993e-08 0)
(9.68988e-09 4.96113e-08 0)
(1.45375e-08 4.20647e-08 0)
(1.97925e-08 3.48175e-08 0)
(2.54445e-08 2.7997e-08 0)
(3.13756e-08 2.19344e-08 0)
(3.75125e-08 1.66571e-08 0)
(4.37573e-08 1.21973e-08 0)
(4.99632e-08 8.58689e-09 0)
(5.6108e-08 5.75727e-09 0)
(6.20976e-08 3.60338e-09 0)
(6.78639e-08 2.03847e-09 0)
(7.34913e-08 9.47407e-10 0)
(7.86977e-08 2.35439e-10 0)
(8.37752e-08 -1.76551e-10 0)
(8.84345e-08 -3.75652e-10 0)
(9.27928e-08 -4.39539e-10 0)
(9.68923e-08 -4.20899e-10 0)
(1.00669e-07 -3.60635e-10 0)
(1.04195e-07 -2.51882e-10 0)
(1.07453e-07 -1.5793e-10 0)
(1.10485e-07 -7.25773e-11 0)
(1.13241e-07 1.76607e-12 0)
(1.15806e-07 5.24762e-11 0)
(1.18173e-07 9.66549e-11 0)
(1.20364e-07 1.30539e-10 0)
(1.22367e-07 1.53425e-10 0)
(1.24179e-07 1.50794e-10 0)
(1.25995e-07 1.53516e-10 0)
(1.27528e-07 1.49047e-10 0)
(1.28961e-07 1.3159e-10 0)
(1.30286e-07 1.31188e-10 0)
(1.31494e-07 1.24901e-10 0)
(1.3261e-07 1.06626e-10 0)
(1.33663e-07 1.01148e-10 0)
(1.34645e-07 8.51422e-11 0)
(1.35494e-07 7.7045e-11 0)
(1.36267e-07 6.69073e-11 0)
(1.36991e-07 4.97316e-11 0)
(1.37614e-07 4.80324e-11 0)
(1.38202e-07 4.57997e-11 0)
(1.38715e-07 4.675e-11 0)
(1.39166e-07 4.68346e-11 0)
(1.39584e-07 2.93278e-11 0)
(1.40052e-07 2.67812e-11 0)
(1.40335e-07 2.41254e-11 0)
(1.40589e-07 1.2034e-11 0)
(1.40827e-07 5.84125e-12 0)
(1.41044e-07 -3.1086e-12 0)
(1.41208e-07 7.16625e-12 0)
(1.41309e-07 9.85486e-12 0)
(1.41538e-07 1.73652e-12 0)
(1.41562e-07 2.24235e-12 0)
(1.41631e-07 -7.59933e-12 0)
(1.41754e-07 -6.5105e-12 0)
(1.41797e-07 -1.58717e-11 0)
(1.41751e-07 -6.96183e-12 0)
(1.41723e-07 -1.15172e-11 0)
(1.41738e-07 -1.00624e-11 0)
(1.41671e-07 -3.00455e-12 0)
(1.41642e-07 4.88791e-13 0)
(1.41608e-07 1.12719e-11 0)
(1.41507e-07 3.51052e-12 0)
(1.41413e-07 7.40109e-12 0)
(1.41317e-07 -1.76776e-12 0)
(1.4118e-07 -1.06614e-11 0)
(1.41144e-07 -8.08524e-12 0)
(1.41005e-07 -1.41464e-11 0)
(1.40884e-07 -1.53764e-11 0)
(1.40769e-07 -1.30607e-11 0)
(1.40621e-07 -1.94986e-11 0)
(1.40521e-07 -2.7736e-11 0)
(1.40372e-07 -2.71752e-11 0)
(1.40197e-07 -3.48628e-11 0)
(1.4014e-07 -2.91461e-11 0)
(1.39936e-07 -2.50577e-11 0)
(1.39841e-07 -1.50675e-11 0)
(1.39723e-07 -1.59395e-11 0)
(1.39601e-07 -1.64944e-11 0)
(1.39524e-07 5.66658e-13 0)
(1.39309e-07 -5.03806e-12 0)
(1.39222e-07 -6.09439e-12 0)
(1.39046e-07 -3.82971e-12 0)
(1.38913e-07 -4.5382e-12 0)
(1.38761e-07 -7.50874e-12 0)
(1.38578e-07 -8.24978e-12 0)
(1.3854e-07 -1.16189e-11 0)
(1.38355e-07 -1.86697e-11 0)
(1.38254e-07 -2.52031e-11 0)
(1.38157e-07 -3.89404e-11 0)
(1.37979e-07 -3.59697e-11 0)
(1.37961e-07 -3.56762e-11 0)
(1.37748e-07 -3.21515e-11 0)
(1.37743e-07 -3.0486e-11 0)
(1.37577e-07 -1.22131e-11 0)
(1.37446e-07 5.82383e-12 0)
(1.37302e-07 1.71063e-11 0)
(1.3718e-07 2.19544e-11 0)
(1.3714e-07 2.29143e-11 0)
(1.36952e-07 2.20586e-11 0)
(1.36843e-07 2.37622e-11 0)
(1.36799e-07 3.48212e-11 0)
(1.36713e-07 5.01982e-11 0)
(1.36612e-07 6.9632e-11 0)
(1.36487e-07 8.63935e-11 0)
(1.36475e-07 1.0761e-10 0)
(1.36363e-07 1.59089e-10 0)
(1.36265e-07 2.2352e-10 0)
(1.36234e-07 3.21395e-10 0)
(1.36338e-07 5.26274e-10 0)
(3.27395e-11 1.45798e-08 0)
(2.35867e-09 3.63501e-08 0)
(7.39662e-09 5.24517e-08 0)
(1.48966e-08 6.38558e-08 0)
(2.42368e-08 7.11792e-08 0)
(3.50809e-08 7.48582e-08 0)
(4.71009e-08 7.54227e-08 0)
(5.96929e-08 7.33636e-08 0)
(7.28087e-08 6.92296e-08 0)
(8.5859e-08 6.35322e-08 0)
(9.88085e-08 5.68145e-08 0)
(1.11408e-07 4.94899e-08 0)
(1.23644e-07 4.20892e-08 0)
(1.35264e-07 3.48577e-08 0)
(1.46286e-07 2.81633e-08 0)
(1.56751e-07 2.20895e-08 0)
(1.66527e-07 1.68292e-08 0)
(1.7572e-07 1.23932e-08 0)
(1.84299e-07 8.76792e-09 0)
(1.92312e-07 5.92049e-09 0)
(1.99788e-07 3.75082e-09 0)
(2.06713e-07 2.1663e-09 0)
(2.13303e-07 1.04552e-09 0)
(2.1928e-07 3.16848e-10 0)
(2.24966e-07 -1.10302e-10 0)
(2.30177e-07 -3.26846e-10 0)
(2.35007e-07 -4.13383e-10 0)
(2.39566e-07 -3.96384e-10 0)
(2.4371e-07 -3.43316e-10 0)
(2.47636e-07 -2.72225e-10 0)
(2.51269e-07 -1.68148e-10 0)
(2.54675e-07 -7.58086e-11 0)
(2.57724e-07 -1.29898e-11 0)
(2.60592e-07 3.38466e-11 0)
(2.63242e-07 7.42292e-11 0)
(2.6576e-07 1.11287e-10 0)
(2.6799e-07 1.29047e-10 0)
(2.7005e-07 1.43982e-10 0)
(2.72065e-07 1.48468e-10 0)
(2.73851e-07 1.53668e-10 0)
(2.75456e-07 1.49775e-10 0)
(2.76962e-07 1.34051e-10 0)
(2.78321e-07 1.23558e-10 0)
(2.79602e-07 1.02819e-10 0)
(2.80828e-07 9.55667e-11 0)
(2.81874e-07 8.41893e-11 0)
(2.82885e-07 7.35146e-11 0)
(2.8373e-07 6.4376e-11 0)
(2.84583e-07 5.73936e-11 0)
(2.85293e-07 5.4429e-11 0)
(2.85943e-07 4.78202e-11 0)
(2.8653e-07 4.89454e-11 0)
(2.87046e-07 3.67923e-11 0)
(2.87519e-07 3.2274e-11 0)
(2.8802e-07 2.34074e-11 0)
(2.88353e-07 3.07288e-11 0)
(2.88647e-07 1.94524e-11 0)
(2.88914e-07 1.21564e-11 0)
(2.89171e-07 4.59602e-12 0)
(2.89333e-07 6.20253e-12 0)
(2.89494e-07 -2.06675e-12 0)
(2.89719e-07 -7.07666e-12 0)
(2.89752e-07 -1.20155e-11 0)
(2.8983e-07 -4.49314e-12 0)
(2.89921e-07 -1.25672e-11 0)
(2.90007e-07 -7.99698e-12 0)
(2.89957e-07 -2.47226e-12 0)
(2.89895e-07 -5.28855e-12 0)
(2.89944e-07 -8.89164e-12 0)
(2.8989e-07 -1.04479e-11 0)
(2.89844e-07 3.08553e-13 0)
(2.89756e-07 -8.43247e-13 0)
(2.89657e-07 1.61027e-11 0)
(2.89574e-07 9.70623e-12 0)
(2.89453e-07 -3.20078e-13 0)
(2.89324e-07 -6.55853e-12 0)
(2.89261e-07 -1.02418e-11 0)
(2.89096e-07 -3.90372e-12 0)
(2.88967e-07 -6.54541e-12 0)
(2.88832e-07 -9.54125e-12 0)
(2.88644e-07 -9.94598e-12 0)
(2.88583e-07 -1.84399e-11 0)
(2.88394e-07 -2.73598e-11 0)
(2.88182e-07 -4.30748e-11 0)
(2.88119e-07 -3.69402e-11 0)
(2.87928e-07 -2.7235e-11 0)
(2.87794e-07 -2.93261e-11 0)
(2.87642e-07 -2.57348e-11 0)
(2.87506e-07 -2.2362e-11 0)
(2.87399e-07 -8.08177e-12 0)
(2.87158e-07 3.62156e-12 0)
(2.87074e-07 2.31009e-12 0)
(2.86866e-07 5.24317e-12 0)
(2.86742e-07 4.16931e-12 0)
(2.86567e-07 3.56612e-12 0)
(2.86354e-07 -2.02117e-12 0)
(2.86269e-07 -1.04866e-11 0)
(2.86121e-07 -2.16528e-11 0)
(2.85978e-07 -3.52633e-11 0)
(2.85849e-07 -4.11853e-11 0)
(2.85715e-07 -4.13527e-11 0)
(2.85633e-07 -4.44834e-11 0)
(2.8541e-07 -3.71665e-11 0)
(2.85383e-07 -2.01243e-11 0)
(2.852e-07 -4.48446e-12 0)
(2.85064e-07 1.62378e-11 0)
(2.84908e-07 3.18187e-11 0)
(2.84756e-07 2.7498e-11 0)
(2.84696e-07 2.63423e-11 0)
(2.84547e-07 1.64446e-11 0)
(2.84399e-07 1.78984e-11 0)
(2.84322e-07 1.89449e-11 0)
(2.84239e-07 3.53013e-11 0)
(2.84172e-07 5.92775e-11 0)
(2.84045e-07 7.18098e-11 0)
(2.84052e-07 1.01926e-10 0)
(2.83908e-07 1.35638e-10 0)
(2.83794e-07 1.70165e-10 0)
(2.83821e-07 2.19789e-10 0)
(2.83919e-07 3.09879e-10 0)
(4.93177e-10 1.27313e-08 0)
(6.85877e-09 3.143e-08 0)
(1.8782e-08 4.49896e-08 0)
(3.49466e-08 5.44841e-08 0)
(5.41652e-08 6.05422e-08 0)
(7.55895e-08 6.35731e-08 0)
(9.84612e-08 6.4006e-08 0)
(1.21923e-07 6.22658e-08 0)
(1.45363e-07 5.87855e-08 0)
(1.68247e-07 5.39417e-08 0)
(1.90198e-07 4.8274e-08 0)
(2.10867e-07 4.2099e-08 0)
(2.30239e-07 3.58411e-08 0)
(2.47956e-07 2.97357e-08 0)
(2.64175e-07 2.40659e-08 0)
(2.78914e-07 1.8944e-08 0)
(2.92156e-07 1.4458e-08 0)
(3.04183e-07 1.07006e-08 0)
(3.14952e-07 7.61754e-09 0)
(3.24739e-07 5.17316e-09 0)
(3.33513e-07 3.30727e-09 0)
(3.41543e-07 1.93465e-09 0)
(3.48864e-07 9.58135e-10 0)
(3.55542e-07 3.19269e-10 0)
(3.61693e-07 -6.04255e-11 0)
(3.67397e-07 -2.40038e-10 0)
(3.72577e-07 -3.11781e-10 0)
(3.77479e-07 -3.27286e-10 0)
(3.81959e-07 -2.86284e-10 0)
(3.86134e-07 -2.18868e-10 0)
(3.90007e-07 -1.45696e-10 0)
(3.93659e-07 -6.56939e-11 0)
(3.96954e-07 -1.10398e-11 0)
(4.00095e-07 2.44659e-11 0)
(4.03027e-07 6.49187e-11 0)
(4.05701e-07 9.38955e-11 0)
(4.08111e-07 1.17503e-10 0)
(4.10419e-07 1.21284e-10 0)
(4.12561e-07 1.26148e-10 0)
(4.14526e-07 1.32297e-10 0)
(4.16269e-07 1.3135e-10 0)
(4.1795e-07 1.24252e-10 0)
(4.19468e-07 1.06484e-10 0)
(4.20894e-07 8.17357e-11 0)
(4.22163e-07 6.8776e-11 0)
(4.23267e-07 5.89583e-11 0)
(4.24378e-07 5.29283e-11 0)
(4.25354e-07 4.46497e-11 0)
(4.26249e-07 3.71888e-11 0)
(4.27042e-07 3.97676e-11 0)
(4.27763e-07 3.8715e-11 0)
(4.28416e-07 2.84964e-11 0)
(4.2903e-07 1.97291e-11 0)
(4.29472e-07 1.0921e-11 0)
(4.29959e-07 1.53938e-11 0)
(4.30369e-07 1.6868e-11 0)
(4.30716e-07 1.92132e-11 0)
(4.31057e-07 1.11201e-11 0)
(4.31237e-07 7.34496e-12 0)
(4.31488e-07 -1.64318e-12 0)
(4.31668e-07 -5.64243e-12 0)
(4.3187e-07 -1.29029e-11 0)
(4.31964e-07 -1.43801e-11 0)
(4.32018e-07 -7.95923e-12 0)
(4.32061e-07 -1.06967e-11 0)
(4.32099e-07 -8.17033e-12 0)
(4.32156e-07 -1.56001e-11 0)
(4.32092e-07 -1.21467e-11 0)
(4.32091e-07 -1.9281e-11 0)
(4.32087e-07 -8.33997e-12 0)
(4.31961e-07 4.39057e-12 0)
(4.31883e-07 1.34481e-11 0)
(4.3177e-07 1.53986e-11 0)
(4.31705e-07 5.42273e-12 0)
(4.31591e-07 -4.40415e-12 0)
(4.31463e-07 -5.186e-12 0)
(4.31386e-07 -6.58971e-12 0)
(4.31153e-07 -7.11236e-12 0)
(4.31042e-07 4.3313e-13 0)
(4.30906e-07 1.02351e-12 0)
(4.30739e-07 -1.16388e-11 0)
(4.30597e-07 -1.80831e-11 0)
(4.30456e-07 -3.70072e-11 0)
(4.30238e-07 -3.8548e-11 0)
(4.30099e-07 -3.37119e-11 0)
(4.29937e-07 -2.59619e-11 0)
(4.2977e-07 -3.56447e-11 0)
(4.29609e-07 -2.65361e-11 0)
(4.29438e-07 -1.56851e-11 0)
(4.29268e-07 -9.05031e-12 0)
(4.29093e-07 1.2802e-11 0)
(4.28925e-07 1.03999e-11 0)
(4.28761e-07 8.52521e-12 0)
(4.28594e-07 1.63247e-11 0)
(4.28416e-07 1.43107e-11 0)
(4.28262e-07 3.33344e-12 0)
(4.281e-07 -1.22793e-11 0)
(4.27946e-07 -2.38255e-11 0)
(4.27796e-07 -3.53273e-11 0)
(4.27642e-07 -3.56517e-11 0)
(4.27474e-07 -4.45763e-11 0)
(4.2735e-07 -4.68169e-11 0)
(4.27196e-07 -4.62793e-11 0)
(4.27091e-07 -3.05777e-11 0)
(4.26887e-07 3.94049e-12 0)
(4.26777e-07 2.64523e-11 0)
(4.2661e-07 3.27214e-11 0)
(4.26486e-07 2.89817e-11 0)
(4.26366e-07 2.16081e-11 0)
(4.26237e-07 1.13905e-11 0)
(4.26136e-07 6.72606e-12 0)
(4.2599e-07 1.97237e-12 0)
(4.25901e-07 1.65961e-11 0)
(4.25823e-07 3.54292e-11 0)
(4.25732e-07 5.57321e-11 0)
(4.25712e-07 8.66977e-11 0)
(4.256e-07 1.25481e-10 0)
(4.25514e-07 1.51612e-10 0)
(4.25547e-07 1.91273e-10 0)
(4.25604e-07 2.39819e-10 0)
(7.13503e-10 8.70699e-09 0)
(1.05079e-08 2.13081e-08 0)
(2.80372e-08 3.03287e-08 0)
(5.10137e-08 3.66294e-08 0)
(7.81679e-08 4.06279e-08 0)
(1.07948e-07 4.26181e-08 0)
(1.39435e-07 4.289e-08 0)
(1.71346e-07 4.17264e-08 0)
(2.03035e-07 3.93865e-08 0)
(2.33625e-07 3.61914e-08 0)
(2.62658e-07 3.23882e-08 0)
(2.89712e-07 2.82731e-08 0)
(3.14593e-07 2.40702e-08 0)
(3.37147e-07 2.00077e-08 0)
(3.57418e-07 1.62005e-08 0)
(3.75477e-07 1.2777e-08 0)
(3.91562e-07 9.77606e-09 0)
(4.05698e-07 7.23683e-09 0)
(4.18185e-07 5.17281e-09 0)
(4.29311e-07 3.52615e-09 0)
(4.39106e-07 2.25542e-09 0)
(4.47925e-07 1.32146e-09 0)
(4.55865e-07 6.71724e-10 0)
(4.62989e-07 2.34702e-10 0)
(4.69485e-07 -2.34686e-11 0)
(4.7546e-07 -1.58561e-10 0)
(4.80911e-07 -2.03771e-10 0)
(4.86092e-07 -2.12852e-10 0)
(4.90762e-07 -1.85347e-10 0)
(4.95111e-07 -1.43515e-10 0)
(4.99223e-07 -9.36824e-11 0)
(5.02975e-07 -4.93726e-11 0)
(5.06533e-07 -1.56559e-11 0)
(5.09787e-07 6.6147e-12 0)
(5.12825e-07 2.86951e-11 0)
(5.15657e-07 5.85726e-11 0)
(5.18254e-07 7.01994e-11 0)
(5.2066e-07 7.96462e-11 0)
(5.22919e-07 8.46687e-11 0)
(5.25006e-07 9.05874e-11 0)
(5.26859e-07 1.05325e-10 0)
(5.28658e-07 8.40835e-11 0)
(5.30262e-07 6.04442e-11 0)
(5.3173e-07 5.30201e-11 0)
(5.33086e-07 4.42527e-11 0)
(5.3431e-07 4.49096e-11 0)
(5.35441e-07 3.26786e-11 0)
(5.36483e-07 2.01468e-11 0)
(5.37403e-07 1.40811e-11 0)
(5.38252e-07 1.90706e-11 0)
(5.39028e-07 2.04468e-11 0)
(5.39708e-07 2.11414e-11 0)
(5.40335e-07 1.53646e-11 0)
(5.40859e-07 1.16397e-11 0)
(5.41345e-07 1.51473e-11 0)
(5.41779e-07 1.10088e-11 0)
(5.42125e-07 1.67661e-11 0)
(5.42474e-07 1.26987e-11 0)
(5.4274e-07 1.59965e-11 0)
(5.42973e-07 -3.04987e-12 0)
(5.43164e-07 -1.34323e-11 0)