/*--------------------------------*- C++ -*----------------------------------*\
  =========                 |
  \\      /  F ield         | OpenFOAM: The Open Source CFD Toolbox
   \\    /   O peration     | Website:  https://openfoam.org
    \\  /    A nd           | Version:  7
     \\/     M anipulation  |
\*---------------------------------------------------------------------------*/
FoamFile
{
    version     2.0;
    format      ascii;
    class       volScalarField;
    location    "0.6325";
    object      pPrime2Mean;
}
// * * * * * * * * * * * * * * * * * * * * * * * * * * * * * * * * * * * * * //

dimensions      [2 -2 -4 0 0 0 0];

internalField   nonuniform List<scalar> 
1600
(
1.82229
1.80582
1.79405
1.784
1.77487
1.76669
1.75902
1.75208
1.7458
1.73956
1.73368
1.72826
1.72302
1.71787
1.71295
1.70809
1.70375
1.69897
1.69476
1.69057
1.68634
1.68217
1.67821
1.6742
1.67034
1.66646
1.66276
1.65911
1.65536
1.65186
1.64832
1.64457
1.64104
1.6377
1.63444
1.63111
1.62787
1.6248
1.62175
1.61944
1.81924
1.80443
1.79319
1.78349
1.77462
1.76642
1.75902
1.75215
1.74555
1.73946
1.73378
1.72808
1.7228
1.71775
1.71296
1.70803
1.70352
1.69909
1.69461
1.69024
1.68618
1.68217
1.67807
1.67419
1.67039
1.66641
1.66272
1.65905
1.65528
1.65176
1.64832
1.64463
1.64124
1.6376
1.63442
1.63108
1.62773
1.62446
1.62153
1.61869
1.81771
1.80333
1.79248
1.7827
1.77396
1.76607
1.75854
1.75191
1.74544
1.73921
1.73348
1.72799
1.72254
1.71765
1.71281
1.70809
1.70335
1.69897
1.69482
1.69032
1.68629
1.68213
1.67813
1.67412
1.67041
1.66663
1.66278
1.659
1.65549
1.65168
1.64827
1.64454
1.6411
1.63771
1.63432
1.63093
1.62771
1.62445
1.62131
1.61822
1.81504
1.80152
1.79099
1.78187
1.77317
1.76539
1.75818
1.75171
1.74515
1.73891
1.7334
1.72779
1.72263
1.71744
1.71273
1.70785
1.70334
1.69886
1.69453
1.69024
1.68624
1.68217
1.67813
1.674
1.67028
1.66639
1.66264
1.65906
1.65522
1.6517
1.64809
1.64454
1.64101
1.63765
1.63419
1.63086
1.62766
1.62448
1.6209
1.61781
1.81362
1.80017
1.78996
1.78093
1.77262
1.76488
1.75783
1.75113
1.74475
1.73872
1.733
1.72751
1.72239
1.71732
1.71254
1.70798
1.7032
1.69887
1.69448
1.69028
1.68612
1.68216
1.67809
1.67425
1.67028
1.66656
1.66264
1.65888
1.65518
1.65178
1.64813
1.64462
1.64093
1.63763
1.63414
1.63068
1.62751
1.62417
1.62081
1.61746
1.81154
1.79859
1.78857
1.77959
1.77159
1.76421
1.75725
1.75048
1.74431
1.73852
1.73292
1.72746
1.7223
1.71734
1.71244
1.70767
1.7032
1.69882
1.69437
1.69014
1.68611
1.68188
1.67784
1.67401
1.67021
1.66641
1.66258
1.65895
1.65514
1.65158
1.64794
1.64437
1.64099
1.63756
1.63381
1.63058
1.62732
1.62389
1.62053
1.6171
1.8095
1.79706
1.78735
1.77856
1.77066
1.76317
1.7565
1.74992
1.74391
1.738
1.73238
1.72705
1.72189
1.71702
1.71218
1.70773
1.70315
1.69874
1.69422
1.69016
1.68575
1.6819
1.67801
1.67403
1.67004
1.66632
1.66251
1.65876
1.65499
1.65146
1.64798
1.64427
1.64084
1.63732
1.63396
1.63042
1.62709
1.62379
1.62032
1.61697
1.80844
1.79583
1.78596
1.77754
1.76982
1.76247
1.75585
1.74933
1.7435
1.73743
1.73223
1.72675
1.72176
1.71688
1.71221
1.70735
1.70293
1.69843
1.6942
1.69019
1.68597
1.68188
1.67795
1.67394
1.66996
1.66631
1.66271
1.65881
1.65517
1.6515
1.64782
1.64438
1.64098
1.63729
1.63389
1.63053
1.62699
1.62353
1.62021
1.61669
1.80669
1.79422
1.78469
1.77622
1.76864
1.76158
1.75511
1.74881
1.74299
1.73725
1.73183
1.72669
1.72154
1.71659
1.71186
1.70724
1.70291
1.69844
1.69427
1.68978
1.68592
1.68163
1.67765
1.67406
1.67006
1.66607
1.6625
1.6588
1.65501
1.65129
1.64767
1.64424
1.64069
1.63737
1.63368
1.63038
1.6268
1.62341
1.62008
1.61676
1.80499
1.79256
1.78349
1.77529
1.76783
1.76083
1.75442
1.74824
1.74255
1.73669
1.73139
1.72633
1.72112
1.71649
1.71176
1.70708
1.70249
1.69822
1.6938
1.68977
1.68562
1.6817
1.67757
1.67393
1.66987
1.66605
1.66231
1.65874
1.65499
1.6514
1.64766
1.64403
1.6405
1.63703
1.63359
1.62994
1.62673
1.62343
1.61992
1.61643
1.80374
1.7914
1.78222
1.77415
1.76698
1.76024
1.75377
1.74758
1.7418
1.73634
1.73115
1.726
1.72075
1.7163
1.71151
1.70692
1.70235
1.69814
1.69404
1.68977
1.68556
1.68154
1.67753
1.67373
1.66992
1.66611
1.66227
1.65871
1.65477
1.65133
1.64777
1.64396
1.64051
1.63712
1.63349
1.62993
1.62663
1.62308
1.61977
1.61619
1.80086
1.78944
1.78082
1.77306
1.76598
1.75944
1.7531
1.74717
1.74141
1.73586
1.73065
1.72576
1.72093
1.71596
1.7112
1.70677
1.70229
1.69798
1.69405
1.68954
1.68554
1.68158
1.67741
1.6736
1.66972
1.66599
1.66224
1.65852
1.65481
1.65126
1.64749
1.64386
1.64037
1.63682
1.6333
1.62986
1.62646
1.62294
1.61947
1.61606
1.79974
1.78842
1.78003
1.77229
1.76529
1.75881
1.75247
1.74664
1.74099
1.73539
1.73023
1.72535
1.72038
1.71575
1.71108
1.70656
1.70199
1.69785
1.69357
1.68941
1.6853
1.68152
1.67738
1.67364
1.66968
1.66595
1.66225
1.65849
1.6548
1.65118
1.64761
1.64383
1.64018
1.6369
1.63335
1.62996
1.62619
1.62291
1.61936
1.61587
1.79826
1.78737
1.77898
1.7715
1.76453
1.75793
1.75176
1.74612
1.74035
1.73506
1.73001
1.7252
1.72025
1.71557
1.71101
1.70659
1.702
1.6979
1.69362
1.68957
1.68534
1.68132
1.67746
1.6734
1.66969
1.66585
1.66206
1.65829
1.65474
1.6509
1.64738
1.64376
1.64015
1.63659
1.63317
1.62968
1.62621
1.62261
1.6194
1.61577
1.79806
1.78668
1.77806
1.77078
1.76386
1.75747
1.75144
1.74549
1.74014
1.73475
1.72974
1.72473
1.71984
1.7154
1.71076
1.70617
1.70205
1.69755
1.6933
1.68937
1.68533
1.68133
1.67723
1.67348
1.66957
1.66576
1.66206
1.65832
1.65453
1.65093
1.64725
1.64373
1.64013
1.63666
1.63299
1.62967
1.62616
1.6228
1.61912
1.61578
1.79724
1.78582
1.77758
1.77011
1.7633
1.75697
1.75103
1.74517
1.73993
1.73438
1.72944
1.72447
1.71961
1.71509
1.71056
1.7062
1.70183
1.69774
1.69343
1.68928
1.68535
1.68102
1.67739
1.67319
1.66947
1.66565
1.66193
1.65818
1.65446
1.65071
1.64754
1.64366
1.64
1.63658
1.633
1.62943
1.62584
1.62259
1.61919
1.6157
1.79654
1.78531
1.77698
1.76963
1.76284
1.75664
1.75057
1.74501
1.73951
1.73445
1.72901
1.72443
1.71956
1.71495
1.71046
1.70593
1.7018
1.6974
1.69314
1.68913
1.68512
1.68095
1.67712
1.67324
1.6694
1.66571
1.66183
1.65808
1.65458
1.6508
1.64716
1.64372
1.64016
1.63637
1.63298
1.62955
1.62598
1.6225
1.61913
1.61553
1.79614
1.78496
1.77649
1.76927
1.76262
1.75642
1.75033
1.74475
1.73927
1.73414
1.72919
1.72421
1.71948
1.71482
1.7103
1.70599
1.70144
1.69752
1.69315
1.68913
1.68503
1.68102
1.6772
1.67326
1.66945
1.6654
1.66188
1.65792
1.65438
1.65073
1.64709
1.64346
1.63992
1.63633
1.63311
1.62949
1.62583
1.62263
1.61893
1.61553
1.79514
1.78427
1.77614
1.76892
1.7621
1.75606
1.75021
1.74452
1.73925
1.734
1.72862
1.72407
1.7193
1.71469
1.71012
1.70585
1.70143
1.69738
1.69301
1.68892
1.68499
1.68096
1.67706
1.6732
1.66934
1.66542
1.66187
1.6579
1.65427
1.65044
1.64701
1.64347
1.64003
1.63632
1.6328
1.62936
1.62586
1.62218
1.61888
1.61543
1.79589
1.78459
1.77619
1.76897
1.76222
1.75599
1.75013
1.74448
1.73916
1.73379
1.72897
1.72398
1.71936
1.71469
1.7104
1.70576
1.70159
1.69711
1.6931
1.68903
1.68496
1.68088
1.67695
1.67302
1.66923
1.66542
1.66165
1.65798
1.6545
1.65079
1.64697
1.6434
1.63983
1.63626
1.63265
1.62917
1.62568
1.62233
1.61878
1.61544
1.79535
1.78424
1.776
1.76879
1.76211
1.75591
1.75004
1.74438
1.73896
1.73395
1.72894
1.7242
1.71925
1.71463
1.71022
1.70576
1.70145
1.6973
1.69301
1.68904
1.68495
1.6809
1.67698
1.673
1.66919
1.66546
1.66151
1.6579
1.65419
1.65054
1.64692
1.64334
1.63962
1.6363
1.63274
1.62914
1.62561
1.62213
1.61893
1.6155
1.79647
1.78487
1.77652
1.76888
1.76217
1.75601
1.75002
1.74446
1.73901
1.73398
1.72874
1.72402
1.71951
1.7148
1.71021
1.7058
1.70141
1.69717
1.69288
1.68902
1.68494
1.68084
1.67683
1.67299
1.66913
1.66541
1.66168
1.65791
1.65406
1.65055
1.64714
1.64328
1.63966
1.6362
1.63277
1.62902
1.62564
1.62231
1.61879
1.61531
1.7956
1.78466
1.77631
1.76907
1.76246
1.75596
1.75032
1.74459
1.73924
1.73396
1.72897
1.72397
1.71935
1.71475
1.71006
1.70588
1.7014
1.69699
1.69307
1.68881
1.68484
1.68092
1.67693
1.6732
1.66925
1.66544
1.66162
1.6578
1.65423
1.65064
1.64687
1.64338
1.63966
1.63618
1.63268
1.62903
1.62573
1.62222
1.6186
1.61512
1.79625
1.78495
1.7766
1.7695
1.76274
1.75624
1.75041
1.74465
1.73927
1.73398
1.7291
1.72406
1.71936
1.71471
1.71019
1.70599
1.70152
1.69711
1.69293
1.68886
1.68481
1.68084
1.67684
1.67318
1.66917
1.66541
1.66164
1.65785
1.65421
1.65051
1.64683
1.64331
1.63962
1.63597
1.63265
1.6291
1.62548
1.62223
1.61872
1.61537
1.79708
1.78557
1.77713
1.76983
1.76307
1.75659
1.7505
1.74509
1.73944
1.73423
1.72917
1.7242
1.71947
1.7148
1.71039
1.7058
1.70148
1.69711
1.6931
1.68896
1.68483
1.68085
1.67681
1.67306
1.66916
1.66531
1.66157
1.65792
1.65405
1.65038
1.64695
1.64327
1.63964
1.63599
1.63275
1.62903
1.62569
1.62215
1.61862
1.61532
1.79654
1.78581
1.77758
1.77014
1.76334
1.75688
1.751
1.74541
1.7399
1.7346
1.72934
1.72437
1.71954
1.71491
1.71037
1.70585
1.70168
1.69733
1.69316
1.68904
1.68467
1.68084
1.67682
1.67315
1.66911
1.66537
1.66158
1.65784
1.6541
1.65042
1.64685
1.64315
1.63967
1.63601
1.63244
1.62895
1.62559
1.62213
1.61857
1.61526
1.79805
1.78685
1.7783
1.77088
1.7641
1.75758
1.75136
1.74561
1.7399
1.73478
1.72949
1.72454
1.71962
1.71507
1.71058
1.7061
1.70154
1.69748
1.69307
1.68898
1.68483
1.68088
1.67688
1.67302
1.66906
1.66551
1.6615
1.65771
1.65407
1.65036
1.64675
1.64315
1.63943
1.63608
1.63241
1.62899
1.62573
1.622
1.61868
1.61545
1.79944
1.7877
1.77931
1.77166
1.76465
1.75808
1.75187
1.74605
1.74043
1.73519
1.73011
1.72498
1.71996
1.7153
1.71062
1.70627
1.70177
1.69743
1.69316
1.689
1.68488
1.68097
1.6768
1.67306
1.66905
1.66541
1.66145
1.65792
1.65434
1.65042
1.64685
1.64311
1.63955
1.63589
1.63236
1.62899
1.62544
1.62216
1.61879
1.61514
1.79999
1.78872
1.77997
1.77243
1.76528
1.75877
1.75243
1.74644
1.74094
1.73553
1.73029
1.72501
1.7203
1.71545
1.71095
1.70617
1.70189
1.69749
1.6932
1.68921
1.68489
1.68096
1.67693
1.67298
1.66936
1.66528
1.6616
1.65771
1.65414
1.65044
1.64675
1.64315
1.63962
1.63601
1.63238
1.62897
1.62559
1.62203
1.61873
1.6152
1.80171
1.79001
1.78096
1.77327
1.76619
1.75937
1.75307
1.74691
1.7413
1.7359
1.73047
1.7253
1.72041
1.71577
1.71104
1.70644
1.702
1.69769
1.69339
1.68905
1.68513
1.68106
1.67681
1.67315
1.66927
1.66531
1.66154
1.65767
1.65415
1.65029
1.64671
1.64308
1.63964
1.63589
1.63264
1.62892
1.62551
1.62197
1.61854
1.61518
1.80353
1.79144
1.78226
1.7743
1.76702
1.75994
1.75372
1.74766
1.74168
1.73635
1.73082
1.72569
1.7208
1.71585
1.71114
1.70647
1.70213
1.69771
1.69339
1.68931
1.68505
1.68098
1.67703
1.67302
1.66919
1.66539
1.66161
1.65783
1.654
1.6505
1.64679
1.64307
1.63957
1.63605
1.63257
1.62899
1.62536
1.62202
1.61862
1.61525
1.80515
1.79268
1.78355
1.77538
1.76794
1.76089
1.75431
1.74802
1.74233
1.73675
1.73114
1.72586
1.72099
1.71616
1.71147
1.70671
1.70226
1.69773
1.69356
1.68934
1.68507
1.68121
1.67707
1.67317
1.66931
1.66534
1.66161
1.65789
1.65404
1.65049
1.6467
1.64317
1.63962
1.63598
1.63254
1.62881
1.62547
1.62204
1.61869
1.61538
1.80566
1.79383
1.78458
1.77638
1.76876
1.76162
1.75506
1.74872
1.7429
1.73698
1.73153
1.72629
1.7212
1.71629
1.71136
1.70693
1.7024
1.69795
1.69356
1.68945
1.68529
1.68124
1.67729
1.67321
1.66923
1.66537
1.66148
1.65795
1.65418
1.65037
1.64672
1.64298
1.63956
1.63578
1.6325
1.62903
1.6256
1.62204
1.6186
1.61531
1.80762
1.79545
1.78593
1.7774
1.76981
1.7624
1.75563
1.74934
1.74325
1.73743
1.73186
1.72647
1.72143
1.71658
1.71175
1.70702
1.70262
1.69798
1.69377
1.68945
1.68542
1.68122
1.67715
1.67317
1.66928
1.66539
1.66156
1.65775
1.65405
1.65052
1.64683
1.64308
1.6396
1.63605
1.63264
1.62899
1.6257
1.62221
1.61863
1.61526
1.80939
1.79686
1.78697
1.77851
1.77044
1.76325
1.75627
1.74976
1.7438
1.73782
1.73225
1.72685
1.72168
1.71645
1.71171
1.707
1.70263
1.69832
1.69369
1.68959
1.6855
1.68127
1.67709
1.67342
1.66958
1.66572
1.66155
1.65784
1.65406
1.65051
1.64673
1.64325
1.63944
1.636
1.63261
1.62909
1.62568
1.62219
1.6186
1.61519
1.81208
1.79881
1.78876
1.77969
1.77173
1.76397
1.75703
1.75021
1.74399
1.73811
1.73247
1.72701
1.72183
1.71697
1.71194
1.70728
1.70263
1.69816
1.69381
1.68968
1.68546
1.68124
1.67728
1.67326
1.66921
1.66556
1.66171
1.65787
1.65404
1.65068
1.64679
1.64322
1.63966
1.63603
1.63232
1.62906
1.62559
1.62214
1.61875
1.61538
1.81435
1.80051
1.79007
1.78096
1.77249
1.76477
1.75751
1.7509
1.74463
1.7385
1.73283
1.7273
1.72216
1.717
1.71229
1.70736
1.70278
1.69811
1.69406
1.68975
1.68561
1.6813
1.67733
1.6732
1.66934
1.6654
1.66179
1.65789
1.65419
1.65038
1.64669
1.64306
1.63956
1.63615
1.6327
1.62889
1.62557
1.62214
1.6186
1.61537
1.81642
1.80224
1.79129
1.78182
1.77319
1.76526
1.75806
1.75115
1.74487
1.73866
1.73302
1.72746
1.72223
1.71713
1.71229
1.70741
1.70298
1.69836
1.69405
1.68967
1.68567
1.68159
1.67755
1.67319
1.6694
1.66554
1.66166
1.65798
1.65421
1.65055
1.64677
1.64321
1.63947
1.63621
1.63249
1.62912
1.62541
1.62208
1.61869
1.61543
1.8193
1.80394
1.79237
1.78261
1.77382
1.7657
1.75842
1.75152
1.74504
1.73893
1.73314
1.72761
1.72229
1.71728
1.71239
1.70755
1.70296
1.69865
1.6942
1.68972
1.68547
1.68146
1.67745
1.67317
1.66943
1.66564
1.66169
1.65793
1.65422
1.65052
1.64692
1.64317
1.63953
1.63607
1.63258
1.62903
1.62572
1.62214
1.61877
1.61528
1.81942
1.80438
1.793
1.78301
1.77404
1.7662
1.75868
1.75157
1.74528
1.73894
1.73342
1.72786
1.72244
1.71728
1.7122
1.70758
1.70304
1.69851
1.69403
1.68966
1.68552
1.68145
1.67742
1.67322
1.66946
1.66574
1.66164
1.65788
1.65428
1.65052
1.64684
1.64328
1.6396
1.63597
1.6325
1.62902
1.62553
1.62215
1.6186
1.6154
)
;

boundaryField
{
    upperWall
    {
        type            calculated;
        value           nonuniform List<scalar> 
40
(
1.81942
1.80438
1.793
1.78301
1.77404
1.7662
1.75868
1.75157
1.74528
1.73894
1.73342
1.72786
1.72244
1.71728
1.7122
1.70758
1.70304
1.69851
1.69403
1.68966
1.68552
1.68145
1.67742
1.67322
1.66946
1.66574
1.66164
1.65788
1.65428
1.65052
1.64684
1.64328
1.6396
1.63597
1.6325
1.62902
1.62553
1.62215
1.6186
1.6154
)
;
    }
    lowerWall
    {
        type            calculated;
        value           nonuniform List<scalar> 
40
(
1.82229
1.80582
1.79405
1.784
1.77487
1.76669
1.75902
1.75208
1.7458
1.73956
1.73368
1.72826
1.72302
1.71787
1.71295
1.70809
1.70375
1.69897
1.69476
1.69057
1.68634
1.68217
1.67821
1.6742
1.67034
1.66646
1.66276
1.65911
1.65536
1.65186
1.64832
1.64457
1.64104
1.6377
1.63444
1.63111
1.62787
1.6248
1.62175
1.61944
)
;
    }
    inlet
    {
        type            calculated;
        value           nonuniform List<scalar> 
40
(
1.82229
1.81924
1.81771
1.81504
1.81362
1.81154
1.8095
1.80844
1.80669
1.80499
1.80374
1.80086
1.79974
1.79826
1.79806
1.79724
1.79654
1.79614
1.79514
1.79589
1.79535
1.79647
1.7956
1.79625
1.79708
1.79654
1.79805
1.79944
1.79999
1.80171
1.80353
1.80515
1.80566
1.80762
1.80939
1.81208
1.81435
1.81642
1.8193
1.81942
)
;
    }
    outlet
    {
        type            calculated;
        value           nonuniform List<scalar> 
40
(
1.61759
1.61702
1.6166
1.61618
1.61556
1.61551
1.61525
1.61481
1.61478
1.61463
1.61444
1.6144
1.61427
1.61415
1.61409
1.61386
1.6139
1.61382
1.61365
1.61376
1.61368
1.61387
1.61362
1.61346
1.61361
1.61365
1.6135
1.6134
1.61358
1.6135
1.61344
1.61349
1.61358
1.61369
1.61345
1.61358
1.61353
1.6134
1.6135
1.6135
)
;
    }
    frontAndBack
    {
        type            empty;
    }
}


// ************************************************************************* //
