/*--------------------------------*- C++ -*----------------------------------*\
  =========                 |
  \\      /  F ield         | OpenFOAM: The Open Source CFD Toolbox
   \\    /   O peration     | Website:  https://openfoam.org
    \\  /    A nd           | Version:  7
     \\/     M anipulation  |
\*---------------------------------------------------------------------------*/
FoamFile
{
    version     2.0;
    format      ascii;
    class       volVectorField;
    location    "2.4";
    object      U;
}
// * * * * * * * * * * * * * * * * * * * * * * * * * * * * * * * * * * * * * //

dimensions      [0 1 -1 0 0 0 0];

internalField   nonuniform List<vector> 
1200
(
(3.82184 0.24576 0)
(2.79376 0.155677 0)
(2.03865 0.0424285 0)
(1.68422 -0.00686792 0)
(1.52285 -0.0152151 0)
(1.44238 -0.0112883 0)
(1.39396 -0.00647413 0)
(1.35875 -0.0032598 0)
(1.32979 -0.00148999 0)
(1.30487 -0.00065928 0)
(1.28296 -0.000262891 0)
(1.26382 -0.000134822 0)
(1.24665 -2.85568e-06 0)
(1.23171 5.95109e-06 0)
(1.21771 0.000182243 0)
(1.2059 4.00608e-05 0)
(1.19382 0.000420506 0)
(1.18481 -0.000242217 0)
(1.17702 -0.0026936 0)
(1.19703 0.00473163 0)
(4.61644 0.358714 0)
(4.69081 0.365333 0)
(4.44124 0.253611 0)
(4.15625 0.146447 0)
(3.9205 0.0796317 0)
(3.74174 0.0452546 0)
(3.6088 0.0284369 0)
(3.50786 0.0203911 0)
(3.42842 0.0162385 0)
(3.36369 0.0137786 0)
(3.30938 0.0121732 0)
(3.2629 0.0110206 0)
(3.22225 0.0101694 0)
(3.18663 0.00949508 0)
(3.15421 0.00891652 0)
(3.12626 0.00851975 0)
(3.09787 0.00775246 0)
(3.07886 0.00804842 0)
(3.04445 0.0027632 0)
(3.05932 0.00566229 0)
(4.55554 0.189613 0)
(4.96508 0.249505 0)
(5.17689 0.201888 0)
(5.2309 0.142534 0)
(5.20659 0.099857 0)
(5.14906 0.0735523 0)
(5.08176 0.0569858 0)
(5.01408 0.0460718 0)
(4.94959 0.0381999 0)
(4.88942 0.0324861 0)
(4.83432 0.0279113 0)
(4.7839 0.0247059 0)
(4.73831 0.021733 0)
(4.697 0.02015 0)
(4.65894 0.01771 0)
(4.62638 0.0178083 0)
(4.59118 0.0143389 0)
(4.57151 0.0177651 0)
(4.52504 0.00753453 0)
(4.54121 0.022322 0)
(4.53099 0.157337 0)
(4.8771 0.200544 0)
(5.17166 0.167424 0)
(5.36839 0.129515 0)
(5.49155 0.0993889 0)
(5.5708 0.0792033 0)
(5.62467 0.0667358 0)
(5.66174 0.0586003 0)
(5.68674 0.0524384 0)
(5.7021 0.0476359 0)
(5.71012 0.0432604 0)
(5.71233 0.0399097 0)
(5.70974 0.0362631 0)
(5.70477 0.0341475 0)
(5.69492 0.0305545 0)
(5.68821 0.0302378 0)
(5.67025 0.0253213 0)
(5.66998 0.028576 0)
(5.634 0.0181882 0)
(5.6585 0.0302921 0)
(4.52967 0.0751283 0)
(4.83631 0.0968689 0)
(5.11607 0.0782928 0)
(5.31968 0.0574166 0)
(5.46375 0.0415267 0)
(5.57379 0.0324074 0)
(5.66505 0.0279174 0)
(5.74455 0.0258043 0)
(5.81528 0.0246745 0)
(5.87912 0.0241763 0)
(5.93636 0.0236916 0)
(5.98854 0.0237534 0)
(6.03459 0.0231843 0)
(6.07749 0.0237863 0)
(6.11349 0.0224888 0)
(6.1496 0.0243195 0)
(6.17532 0.0210492 0)
(6.20793 0.0258789 0)
(6.22052 0.0179536 0)
(6.25555 0.0299647 0)
(4.52758 0.0285315 0)
(4.81646 0.0417627 0)
(5.08915 0.037577 0)
(5.29012 0.0311313 0)
(5.43334 0.0257596 0)
(5.54354 0.0224344 0)
(5.63598 0.0199605 0)
(5.71806 0.0180391 0)
(5.79326 0.0164896 0)
(5.86318 0.0154455 0)
(5.92888 0.0144941 0)
(5.9907 0.0140597 0)
(6.0496 0.0133226 0)
(6.10504 0.0134561 0)
(6.15888 0.0126037 0)
(6.2085 0.0136219 0)
(6.25891 0.0121198 0)
(6.30153 0.0148492 0)
(6.35131 0.0117863 0)
(6.3838 0.0178628 0)
(4.5276 -0.0341419 0)
(4.81649 -0.0471783 0)
(5.08921 -0.0426593 0)
(5.2902 -0.0357107 0)
(5.43344 -0.029658 0)
(5.54367 -0.025494 0)
(5.63611 -0.0220807 0)
(5.71822 -0.0190812 0)
(5.79341 -0.0164487 0)
(5.86337 -0.0141612 0)
(5.92902 -0.0121119 0)
(5.99091 -0.0102959 0)
(6.0497 -0.00862107 0)
(6.10528 -0.00716905 0)
(6.15893 -0.0057243 0)
(6.20884 -0.00456587 0)
(6.25892 -0.00306874 0)
(6.30216 -0.00194144 0)
(6.35136 1.83521e-05 0)
(6.38496 0.00133165 0)
(4.52969 -0.0803407 0)
(4.83642 -0.101908 0)
(5.11622 -0.0830237 0)
(5.31994 -0.0616691 0)
(5.46403 -0.0451582 0)
(5.5742 -0.0352592 0)
(5.6654 -0.0298899 0)
(5.74509 -0.0267782 0)
(5.81565 -0.0246303 0)
(5.87977 -0.0229834 0)
(5.93667 -0.0214628 0)
(5.98932 -0.0202481 0)
(6.03475 -0.018786 0)
(6.07854 -0.0179103 0)
(6.11348 -0.0160589 0)
(6.15127 -0.0158161 0)
(6.17538 -0.0125669 0)
(6.21107 -0.0136689 0)
(6.22152 -0.0068108 0)
(6.26171 -0.0117164 0)
(4.53102 -0.161815 0)
(4.87727 -0.20487 0)
(5.17191 -0.171482 0)
(5.36881 -0.133177 0)
(5.49202 -0.102508 0)
(5.57145 -0.0816434 0)
(5.62527 -0.0684444 0)
(5.66258 -0.0594149 0)
(5.68735 -0.0524324 0)
(5.70314 -0.046572 0)
(5.71062 -0.0413978 0)
(5.7137 -0.036832 0)
(5.70996 -0.0325725 0)
(5.70679 -0.0289912 0)
(5.69479 -0.0251772 0)
(5.69172 -0.02275 0)
(5.67021 -0.0183057 0)
(5.67679 -0.0177311 0)
(5.63586 -0.00898766 0)
(5.67136 -0.0126452 0)
(4.5556 -0.193044 0)
(4.96528 -0.252817 0)
(5.17724 -0.205009 0)
(5.23144 -0.145325 0)
(5.20724 -0.102256 0)
(5.14989 -0.0754128 0)
(5.08259 -0.058305 0)
(5.01513 -0.0466852 0)
(4.95047 -0.0382035 0)
(4.8907 -0.0316574 0)
(4.83513 -0.0264949 0)
(4.78557 -0.0223252 0)
(4.73884 -0.0189347 0)
(4.69951 -0.0161487 0)
(4.6591 -0.0136953 0)
(4.63097 -0.0119508 0)
(4.59141 -0.00929429 0)
(4.58075 -0.00912054 0)
(4.52803 -0.00108274 0)
(4.5589 -0.00776951 0)
(4.61651 -0.360864 0)
(4.69105 -0.367417 0)
(4.44168 -0.255569 0)
(4.15688 -0.148208 0)
(3.92126 -0.0811358 0)
(3.74268 -0.0464331 0)
(3.60979 -0.0292542 0)
(3.50904 -0.0207975 0)
(3.42952 -0.0162153 0)
(3.36507 -0.0132964 0)
(3.31049 -0.0112381 0)
(3.26457 -0.00959826 0)
(3.22325 -0.00833007 0)
(3.18893 -0.00713295 0)
(3.15515 -0.00624893 0)
(3.1303 -0.00518013 0)
(3.09933 -0.00441037 0)
(3.08711 -0.00338714 0)
(3.04843 0.00108054 0)
(3.07502 0.00146031 0)
(3.82192 -0.246503 0)
(2.79402 -0.156391 0)
(2.03912 -0.0431003 0)
(1.68487 0.0062673 0)
(1.52367 0.0147023 0)
(1.44336 0.0108865 0)
(1.39504 0.00619789 0)
(1.35995 0.00311858 0)
(1.33102 0.00150111 0)
(1.30621 0.000817834 0)
(1.28426 0.000584836 0)
(1.26528 0.000605276 0)
(1.24796 0.00063389 0)
(1.23342 0.000756263 0)
(1.21915 0.000756301 0)
(1.20835 0.000944835 0)
(1.19601 0.000803013 0)
(1.18913 0.001156 0)
(1.18125 0.00425079 0)
(1.20254 -0.00258549 0)
(1.13579 0.00395316 0)
(1.17419 0.00103352 0)
(1.14789 0.000261529 0)
(1.14648 -0.000186544 0)
(1.14894 -0.000320103 0)
(1.1516 -0.000338872 0)
(1.15461 -0.000222221 0)
(1.15762 -2.32982e-05 0)
(1.16036 0.000159907 0)
(1.16277 0.000266997 0)
(1.16487 0.000296692 0)
(1.16673 0.000271475 0)
(1.16839 0.000217421 0)
(1.16994 0.00018014 0)
(1.17144 0.000152338 0)
(1.17296 0.000126332 0)
(1.17448 4.54493e-05 0)
(1.17597 -7.35958e-05 0)
(1.17739 -0.000244398 0)
(1.17867 -0.000425714 0)
(1.17984 -0.000560026 0)
(1.18089 -0.00063501 0)
(1.18186 -0.000584724 0)
(1.18288 -0.000421448 0)
(1.18395 -0.000191033 0)
(1.18511 7.597e-05 0)
(1.18636 0.00032525 0)
(1.18768 0.000495531 0)
(1.189 0.000566946 0)
(1.19029 0.000545238 0)
(1.1915 0.000410272 0)
(1.19256 0.000241412 0)
(1.19354 6.65525e-05 0)
(1.19441 -0.000103749 0)
(1.19519 -0.000198553 0)
(1.19594 -0.000231365 0)
(1.19666 -0.000187502 0)
(1.19742 -7.21369e-05 0)
(1.19822 7.12355e-05 0)
(1.19903 0.000227211 0)
(1.19987 0.000371197 0)
(1.20073 0.000482959 0)
(1.20156 0.000542309 0)
(1.20238 0.00056336 0)
(1.20317 0.000535147 0)
(1.20392 0.000478472 0)
(1.20464 0.00039753 0)
(1.20534 0.00029048 0)
(1.206 0.000175958 0)
(1.20665 5.53312e-05 0)
(1.20726 -6.50439e-05 0)
(1.20785 -0.000175913 0)
(1.20839 -0.000276095 0)
(1.20891 -0.00033055 0)
(1.2094 -0.00035328 0)
(1.20991 -0.000348717 0)
(1.21043 -0.000294972 0)
(1.21097 -0.000227594 0)
(1.21153 -0.000144514 0)
(1.21212 -5.91485e-05 0)
(1.21273 2.30874e-05 0)
(1.21337 8.27996e-05 0)
(1.21401 0.000121347 0)
(1.21464 0.000134099 0)
(1.21525 0.000127301 0)
(1.21584 0.000112125 0)
(1.21642 0.00010018 0)
(1.21699 8.5005e-05 0)
(1.21753 7.44905e-05 0)
(1.21808 8.69453e-05 0)
(1.21862 0.000104203 0)
(1.21921 0.000122714 0)
(1.21977 0.000145458 0)
(1.22039 0.000151148 0)
(1.22093 0.000159456 0)
(1.2216 0.000151929 0)
(1.22205 0.000154654 0)
(1.22282 0.000144527 0)
(1.22311 0.0001539 0)
(1.22414 0.000137351 0)
(2.92292 0.00221978 0)
(2.96305 0.00372426 0)
(2.9221 0.00212446 0)
(2.91737 -0.000166475 0)
(2.92408 -0.000868075 0)
(2.93188 -0.00102036 0)
(2.93964 -0.000708322 0)
(2.94691 -0.000117507 0)
(2.95336 0.000445041 0)
(2.95901 0.000770482 0)
(2.96402 0.000867286 0)
(2.96857 0.000800333 0)
(2.97277 0.000652515 0)
(2.97675 0.000547649 0)
(2.98059 0.000479348 0)
(2.98439 0.000401197 0)
(2.98811 0.000157337 0)
(2.99174 -0.000186872 0)
(2.99526 -0.000697165 0)
(2.99859 -0.00122477 0)
(3.00177 -0.00162575 0)
(3.0048 -0.00184976 0)
(3.00773 -0.00170766 0)
(3.01065 -0.00123184 0)
(3.01358 -0.00054922 0)
(3.01654 0.000224198 0)
(3.01956 0.000954627 0)
(3.02261 0.0014523 0)
(3.02561 0.00165876 0)
(3.02855 0.00159602 0)
(3.03136 0.00120054 0)
(3.034 0.000703608 0)
(3.03652 0.000189114 0)
(3.03891 -0.000298972 0)
(3.04118 -0.000584655 0)
(3.04337 -0.000683227 0)
(3.04549 -0.00055517 0)
(3.04762 -0.000217721 0)
(3.04973 0.000196108 0)
(3.05183 0.000648735 0)
(3.05391 0.0010661 0)
(3.05597 0.00138601 0)
(3.05797 0.00156251 0)
(3.05993 0.00161991 0)
(3.06182 0.00153669 0)
(3.06365 0.00135939 0)
(3.06543 0.00112133 0)
(3.06716 0.000799747 0)
(3.06883 0.000461521 0)
(3.07047 0.00010314 0)
(3.07207 -0.000251496 0)
(3.07363 -0.000579429 0)
(3.07514 -0.000875443 0)
(3.07661 -0.00104312 0)
(3.07806 -0.00111238 0)
(3.07951 -0.0010819 0)
(3.08096 -0.000933641 0)
(3.08243 -0.000734687 0)
(3.08392 -0.000499612 0)
(3.08543 -0.00024965 0)
(3.08696 -1.91491e-05 0)
(3.08851 0.000156129 0)
(3.09006 0.000267329 0)
(3.09161 0.000303557 0)
(3.09313 0.000281971 0)
(3.09464 0.000242134 0)
(3.09613 0.000204598 0)
(3.09762 0.000153827 0)
(3.09907 0.000130282 0)
(3.10054 0.000163178 0)
(3.10199 0.000214426 0)
(3.10351 0.000272894 0)
(3.10496 0.000331305 0)
(3.10655 0.000357925 0)
(3.10791 0.000378535 0)
(3.10963 0.00036001 0)
(3.11079 0.000359762 0)
(3.11279 0.000336459 0)
(3.11349 0.000357118 0)
(3.1162 0.000317382 0)
(4.34249 0.0162016 0)
(4.34271 0.00964291 0)
(4.2977 0.00435726 0)
(4.29273 -0.000137511 0)
(4.30286 -0.00141327 0)
(4.31447 -0.00166091 0)
(4.32531 -0.00112025 0)
(4.33513 -0.000154235 0)
(4.34385 0.000758127 0)
(4.3516 0.00128777 0)
(4.35861 0.00144927 0)
(4.36507 0.00132538 0)
(4.37112 0.00110607 0)
(4.37691 0.000937729 0)
(4.38252 0.000838102 0)
(4.38804 0.000709209 0)
(4.39344 0.000324594 0)
(4.3987 -0.000219957 0)
(4.40381 -0.00104243 0)
(4.40871 -0.00188376 0)
(4.41345 -0.00253088 0)
(4.41802 -0.00289097 0)
(4.42246 -0.00267199 0)
(4.42685 -0.00191776 0)
(4.43122 -0.000835311 0)
(4.43557 0.000398092 0)
(4.43995 0.00155956 0)
(4.4443 0.00235514 0)
(4.44859 0.00268353 0)
(4.45277 0.00256308 0)
(4.45681 0.00194343 0)
(4.46067 0.00115002 0)
(4.4644 0.000328882 0)
(4.46797 -0.000443523 0)
(4.4714 -0.0009062 0)
(4.47474 -0.00106368 0)
(4.47798 -0.000861702 0)
(4.48119 -0.000319311 0)
(4.48436 0.00032847 0)
(4.48747 0.00104489 0)
(4.49054 0.00170478 0)
(4.49355 0.00219979 0)
(4.49649 0.00248592 0)
(4.49935 0.002572 0)
(4.50213 0.00243788 0)
(4.50482 0.00214764 0)
(4.50745 0.00177158 0)
(4.51001 0.00124699 0)
(4.5125 0.000704421 0)
(4.51495 0.000121268 0)
(4.51734 -0.000439669 0)
(4.51969 -0.000963823 0)
(4.52199 -0.0014287 0)
(4.52423 -0.00171931 0)
(4.52645 -0.00183061 0)
(4.52866 -0.00175351 0)
(4.53087 -0.00153062 0)
(4.53308 -0.00121622 0)
(4.53531 -0.000844322 0)
(4.53754 -0.000459848 0)
(4.5398 -9.09222e-05 0)
(4.54207 0.000180782 0)
(4.54434 0.000356196 0)
(4.54661 0.000411405 0)
(4.54885 0.000373885 0)
(4.55108 0.000316268 0)
(4.55329 0.000257984 0)
(4.55551 0.000172046 0)
(4.55768 0.000138235 0)
(4.55989 0.000186314 0)
(4.56205 0.000263199 0)
(4.56431 0.000367257 0)
(4.56644 0.000455398 0)
(4.56879 0.000502193 0)
(4.57081 0.00052971 0)
(4.57335 0.0005064 0)
(4.57506 0.000497096 0)
(4.57803 0.000467212 0)
(4.57906 0.000492442 0)
(4.58309 0.000437464 0)
(5.49197 0.0266701 0)
(5.47816 0.0152315 0)
(5.44026 0.00650613 0)
(5.44004 0.000136938 0)
(5.45325 -0.00179433 0)
(5.4666 -0.0021684 0)
(5.47826 -0.0014431 0)
(5.48865 -0.000160652 0)
(5.49807 0.00103886 0)
(5.50675 0.00174048 0)
(5.51487 0.00196742 0)
(5.52257 0.00176848 0)
(5.52994 0.00150193 0)
(5.53707 0.00127961 0)
(5.54401 0.0011438 0)
(5.55084 0.000987581 0)
(5.55751 0.000482616 0)
(5.56403 -0.000230096 0)
(5.57038 -0.0013105 0)
(5.57652 -0.00241016 0)
(5.58249 -0.00325607 0)
(5.58828 -0.0037282 0)
(5.59393 -0.00342403 0)
(5.59951 -0.00246796 0)
(5.60502 -0.0010701 0)
(5.61049 0.000552545 0)
(5.61592 0.00206673 0)
(5.6213 0.00311051 0)
(5.62658 0.00353872 0)
(5.63175 0.00336428 0)
(5.63677 0.00256334 0)
(5.6416 0.00152622 0)
(5.6463 0.000452754 0)
(5.65084 -0.000557314 0)
(5.65523 -0.00116843 0)
(5.65952 -0.00137195 0)
(5.66369 -0.00111093 0)
(5.6678 -0.000396722 0)
(5.67184 0.000437996 0)
(5.6758 0.00137019 0)
(5.67969 0.00222669 0)
(5.6835 0.00286138 0)
(5.68722 0.00323311 0)
(5.69085 0.00334267 0)
(5.69439 0.0031635 0)
(5.69782 0.0027785 0)
(5.70118 0.00228291 0)
(5.70446 0.00159787 0)
(5.70767 0.000883661 0)
(5.71082 0.000118113 0)
(5.71391 -0.00062209 0)
(5.71694 -0.00130708 0)
(5.71992 -0.00189226 0)
(5.72284 -0.00229987 0)
(5.72573 -0.00243376 0)
(5.7286 -0.00232442 0)
(5.73146 -0.00205198 0)
(5.73432 -0.00164638 0)
(5.73718 -0.00115964 0)
(5.74004 -0.000665741 0)
(5.74291 -0.000187366 0)
(5.74579 0.000165107 0)
(5.74867 0.000393429 0)
(5.75154 0.000464647 0)
(5.75439 0.000418495 0)
(5.75722 0.000341483 0)
(5.76005 0.000266574 0)
(5.76287 0.000159856 0)
(5.76565 0.000110472 0)
(5.76847 0.000171861 0)
(5.77124 0.000272792 0)
(5.77411 0.00040845 0)
(5.77683 0.000524687 0)
(5.77982 0.000583855 0)
(5.78239 0.000618642 0)
(5.78561 0.000593809 0)
(5.7878 0.000568592 0)
(5.79158 0.000543952 0)
(5.79288 0.000558127 0)
(5.79803 0.000505266 0)
(6.26849 0.0343315 0)
(6.34585 0.021085 0)
(6.34807 0.00754859 0)
(6.3602 -0.000294515 0)
(6.37356 -0.00239135 0)
(6.38321 -0.0026149 0)
(6.39094 -0.00162514 0)
(6.39842 -9.15835e-05 0)
(6.40615 0.00132185 0)
(6.41412 0.00212575 0)
(6.4222 0.00238234 0)
(6.43027 0.00214902 0)
(6.43823 0.00182495 0)
(6.44606 0.00156617 0)
(6.45377 0.00140334 0)
(6.46138 0.00122921 0)
(6.46884 0.000627565 0)
(6.47614 -0.000205024 0)
(6.48328 -0.0014651 0)
(6.49021 -0.00275023 0)
(6.49699 -0.00374002 0)
(6.50361 -0.00429456 0)
(6.51008 -0.00391847 0)
(6.51646 -0.0028323 0)
(6.52273 -0.0012022 0)
(6.52893 0.000691704 0)
(6.53505 0.00245631 0)
(6.54111 0.00367162 0)
(6.54704 0.00416995 0)
(6.55286 0.00396746 0)
(6.55852 0.00302892 0)
(6.56402 0.0018175 0)
(6.56938 0.000564479 0)
(6.5746 -0.000620843 0)
(6.57968 -0.00133219 0)
(6.58465 -0.00157382 0)
(6.5895 -0.00126778 0)
(6.59427 -0.000439318 0)
(6.59895 0.000528382 0)
(6.60355 0.00161264 0)
(6.60806 0.00260691 0)
(6.61248 0.00334326 0)
(6.61679 0.00376938 0)
(6.62101 0.00389245 0)
(6.62512 0.00368133 0)
(6.62914 0.00322527 0)
(6.63307 0.00263464 0)
(6.63692 0.0018393 0)
(6.6407 0.00100089 0)
(6.64441 0.000110384 0)
(6.64807 -0.00076461 0)
(6.65167 -0.00157495 0)
(6.65521 -0.00225224 0)
(6.65869 -0.00272369 0)
(6.66214 -0.00287817 0)
(6.66555 -0.00275918 0)
(6.66894 -0.00246072 0)
(6.67232 -0.00198374 0)
(6.67569 -0.00142021 0)
(6.67905 -0.000836791 0)
(6.68241 -0.000288588 0)
(6.68577 0.000120423 0)
(6.68913 0.000382537 0)
(6.69248 0.000466735 0)
(6.69581 0.000420651 0)
(6.69913 0.000329329 0)
(6.70244 0.000237834 0)
(6.70575 0.000115187 0)
(6.70902 5.61468e-05 0)
(6.71233 0.000129152 0)
(6.71558 0.000252973 0)
(6.71894 0.000403481 0)
(6.72213 0.000537953 0)
(6.7256 0.000609122 0)
(6.72862 0.000650873 0)
(6.73237 0.000623446 0)
(6.73495 0.00058751 0)
(6.73937 0.000563681 0)
(6.74089 0.000563542 0)
(6.7469 0.000514442 0)
(6.54729 0.0175072 0)
(6.85307 0.0151274 0)
(6.95268 0.00516596 0)
(6.97654 -0.000564092 0)
(6.97562 -0.00218563 0)
(6.96911 -0.00233235 0)
(6.96476 -0.00132127 0)
(6.96438 0.000213275 0)
(6.96732 0.00162344 0)
(6.97247 0.00241249 0)
(6.97893 0.00263627 0)
(6.98609 0.00238389 0)
(6.99359 0.00200285 0)
(7.0012 0.00171837 0)
(7.00879 0.00154322 0)
(7.01631 0.0013565 0)
(7.02371 0.000711732 0)
(7.03099 -0.00018488 0)
(7.03815 -0.00153446 0)
(7.04517 -0.00291675 0)
(7.05207 -0.00398243 0)
(7.05883 -0.00458009 0)
(7.06546 -0.00417471 0)
(7.07199 -0.0030125 0)
(7.07841 -0.00125671 0)
(7.08474 0.000775728 0)
(7.09097 0.00267037 0)
(7.09707 0.00397467 0)
(7.10307 0.00450994 0)
(7.10896 0.00428767 0)
(7.11472 0.00328123 0)
(7.12037 0.00197854 0)
(7.1259 0.000631539 0)
(7.13131 -0.000648161 0)
(7.1366 -0.00140402 0)
(7.14179 -0.00167286 0)
(7.14688 -0.001343 0)
(7.15189 -0.000461531 0)
(7.15681 0.000578346 0)
(7.16163 0.00174173 0)
(7.16635 0.00280577 0)
(7.17099 0.003595 0)
(7.17554 0.00404403 0)
(7.18002 0.00417204 0)
(7.18441 0.00394104 0)
(7.18873 0.00344784 0)
(7.19298 0.00280572 0)
(7.19717 0.00194828 0)
(7.20129 0.0010395 0)
(7.20535 8.01203e-05 0)
(7.20934 -0.000862292 0)
(7.21327 -0.00174363 0)
(7.21714 -0.00247796 0)
(7.22097 -0.00297391 0)
(7.22475 -0.00314957 0)
(7.22851 -0.00302842 0)
(7.23224 -0.0027111 0)
(7.23595 -0.00220381 0)
(7.23964 -0.00159996 0)
(7.24333 -0.000970152 0)
(7.24701 -0.000380766 0)
(7.25068 5.27275e-05 0)
(7.25434 0.000332233 0)
(7.25799 0.00042202 0)
(7.26163 0.000374394 0)
(7.26525 0.000278743 0)
(7.26885 0.000179978 0)
(7.27246 4.49459e-05 0)
(7.27603 -1.83685e-05 0)
(7.27965 6.12282e-05 0)
(7.28319 0.000195145 0)
(7.28686 0.000357196 0)
(7.29033 0.000501389 0)
(7.29411 0.00057902 0)
(7.29741 0.000620516 0)
(7.30148 0.000596772 0)
(7.3043 0.000553507 0)
(7.30912 0.000529378 0)
(7.31078 0.000517434 0)
(7.31732 0.000475257 0)
(6.54553 -0.0109271 0)
(6.85639 -0.00393182 0)
(6.95506 -0.00294659 0)
(6.97583 -0.00104024 0)
(6.97267 -0.000821168 0)
(6.96422 -0.000979551 0)
(6.95802 -0.000357856 0)
(6.95582 0.000817731 0)
(6.957 0.0019659 0)
(6.96046 0.00259679 0)
(6.96535 0.00273305 0)
(6.97106 0.00243003 0)
(6.9772 0.00202442 0)
(6.98356 0.00172815 0)
(6.98998 0.00155279 0)
(6.99638 0.00136735 0)
(7.00273 0.00072919 0)
(7.00902 -0.000170662 0)
(7.01526 -0.0015224 0)
(7.02143 -0.00290319 0)
(7.02754 -0.00396916 0)
(7.03356 -0.00456835 0)
(7.0395 -0.00416138 0)
(7.04533 -0.00300002 0)
(7.05107 -0.00124147 0)
(7.05671 0.000795467 0)
(7.06223 0.00269363 0)
(7.06764 0.00399988 0)
(7.07296 0.004535 0)
(7.07819 0.00430734 0)
(7.08334 0.00330142 0)
(7.08842 0.00199652 0)
(7.09342 0.00064634 0)
(7.09835 -0.000636673 0)
(7.10319 -0.00139031 0)
(7.10797 -0.00166632 0)
(7.11268 -0.00133833 0)
(7.11732 -0.000460627 0)
(7.12188 0.00058023 0)
(7.12637 0.00174397 0)
(7.13078 0.00280594 0)
(7.13512 0.00359448 0)
(7.13941 0.00403399 0)
(7.14364 0.00415775 0)
(7.14782 0.00392009 0)
(7.15196 0.00341941 0)
(7.15606 0.00277464 0)
(7.16011 0.00191256 0)
(7.16413 0.000996518 0)
(7.16811 3.25185e-05 0)
(7.17204 -0.000914335 0)
(7.17593 -0.00180419 0)
(7.17977 -0.00254353 0)
(7.18359 -0.00303993 0)
(7.18737 -0.00321924 0)
(7.19112 -0.00310573 0)
(7.19485 -0.00279027 0)
(7.19856 -0.00228452 0)
(7.20225 -0.00168157 0)
(7.20593 -0.00105211 0)
(7.20959 -0.000462394 0)
(7.21325 -2.74935e-05 0)
(7.21689 0.000253439 0)
(7.22052 0.00034298 0)
(7.22414 0.000295141 0)
(7.22776 0.000197482 0)
(7.23136 0.000100135 0)
(7.23497 -3.46559e-05 0)
(7.23854 -9.8903e-05 0)
(7.24216 -2.05586e-05 0)
(7.24571 0.000113246 0)
(7.24936 0.000276686 0)
(7.25283 0.000421233 0)
(7.2566 0.000499497 0)
(7.25989 0.000539004 0)
(7.26395 0.000517293 0)
(7.26677 0.000468631 0)
(7.27157 0.000451959 0)
(7.27324 0.00043188 0)
(7.27976 0.00039975 0)
(6.26707 -0.0282415 0)
(6.35237 -0.0104418 0)
(6.34955 -0.00548276 0)
(6.35513 -0.00150836 0)
(6.36402 -0.000625329 0)
(6.3696 -0.000590956 0)
(6.3733 -4.38527e-05 0)
(6.37675 0.000967939 0)
(6.38054 0.00193898 0)
(6.38476 0.00246115 0)
(6.38935 0.0025527 0)
(6.39419 0.00225038 0)
(6.39919 0.0018646 0)
(6.40428 0.00158736 0)
(6.40941 0.00142345 0)
(6.41454 0.0012495 0)
(6.41966 0.000659065 0)
(6.42475 -0.000178661 0)
(6.42982 -0.00143144 0)
(6.43489 -0.00272134 0)
(6.43993 -0.00371584 0)
(6.44495 -0.0042731 0)
(6.44991 -0.00389438 0)
(6.45478 -0.00280872 0)
(6.45954 -0.00116553 0)
(6.46419 0.000739248 0)
(6.46873 0.00250961 0)
(6.47318 0.00372859 0)
(6.47756 0.00422956 0)
(6.48186 0.00401602 0)
(6.48611 0.00307434 0)
(6.49033 0.00185611 0)
(6.49451 0.000596886 0)
(6.49866 -0.000605739 0)
(6.50277 -0.00130642 0)
(6.50684 -0.00156725 0)
(6.51087 -0.00126181 0)
(6.51482 -0.000443528 0)
(6.51872 0.000524611 0)
(6.52257 0.00160889 0)
(6.52636 0.00259646 0)
(6.5301 0.00333371 0)
(6.5338 0.00373557 0)
(6.53746 0.00384696 0)
(6.54109 0.00362268 0)
(6.5447 0.0031581 0)
(6.54828 0.00254923 0)
(6.55184 0.0017411 0)
(6.55539 0.000882709 0)
(6.55893 -1.87722e-05 0)
(6.56245 -0.000905689 0)
(6.56596 -0.00174441 0)
(6.56945 -0.00244049 0)
(6.57293 -0.00290065 0)
(6.57638 -0.00307055 0)
(6.5798 -0.00296982 0)
(6.5832 -0.00267853 0)
(6.58658 -0.00220193 0)
(6.58994 -0.00164179 0)
(6.59328 -0.00105501 0)
(6.59661 -0.000507596 0)
(6.59993 -9.87844e-05 0)
(6.60324 0.000162776 0)
(6.60654 0.000245918 0)
(6.60984 0.000202379 0)
(6.61315 0.00011131 0)
(6.61644 1.95064e-05 0)
(6.61976 -0.000106768 0)
(6.62304 -0.000165829 0)
(6.62637 -9.16953e-05 0)
(6.62961 3.12538e-05 0)
(6.63296 0.00018572 0)
(6.63613 0.000319491 0)
(6.63958 0.000393163 0)
(6.64257 0.000429321 0)
(6.64629 0.000409665 0)
(6.64886 0.000360054 0)
(6.65325 0.000351961 0)
(6.65478 0.000320551 0)
(6.66075 0.000303112 0)
(5.49168 -0.0219249 0)
(5.48265 -0.00606651 0)
(5.43618 -0.00459334 0)
(5.42816 -0.00175937 0)
(5.43632 -0.00103822 0)
(5.44516 -0.000837468 0)
(5.45238 -0.000218604 0)
(5.45829 0.00072676 0)
(5.46327 0.00159183 0)
(5.46769 0.00205593 0)
(5.47184 0.00213786 0)
(5.4759 0.00188124 0)
(5.47994 0.00155736 0)
(5.48398 0.0013218 0)
(5.488 0.00118113 0)
(5.49198 0.00103088 0)
(5.49594 0.000531977 0)
(5.4999 -0.000188286 0)
(5.50386 -0.00126309 0)
(5.50786 -0.0023715 0)
(5.51186 -0.00322392 0)
(5.51587 -0.00370241 0)
(5.51986 -0.00337363 0)
(5.52375 -0.00244008 0)
(5.52754 -0.00102437 0)
(5.53121 0.000613791 0)
(5.53476 0.00213717 0)
(5.53821 0.00318812 0)
(5.54159 0.00361977 0)
(5.54492 0.00343347 0)
(5.54824 0.00262349 0)
(5.55157 0.00157557 0)
(5.55488 0.000492603 0)
(5.5582 -0.000543387 0)
(5.56151 -0.0011458 0)
(5.56479 -0.00137222 0)
(5.56805 -0.00110881 0)
(5.57124 -0.000403993 0)
(5.57438 0.000425206 0)
(5.57747 0.00135643 0)
(5.58051 0.00220383 0)
(5.5835 0.0028307 0)
(5.58647 0.00317877 0)
(5.58942 0.00327362 0)
(5.59236 0.00307583 0)
(5.59531 0.00268339 0)
(5.59824 0.0021518 0)
(5.60118 0.00145673 0)
(5.60412 0.000714641 0)
(5.60705 -6.06135e-05 0)
(5.60999 -0.000828057 0)
(5.61293 -0.00155313 0)
(5.61587 -0.00215323 0)
(5.61881 -0.00255115 0)
(5.62174 -0.00269801 0)
(5.62464 -0.00261358 0)
(5.62753 -0.00235884 0)
(5.6304 -0.00195192 0)
(5.63325 -0.00147029 0)
(5.63609 -0.000966456 0)
(5.63892 -0.000496057 0)
(5.64173 -0.000142175 0)
(5.64453 8.37991e-05 0)
(5.64733 0.000153445 0)
(5.65014 0.000116853 0)
(5.65296 3.85176e-05 0)
(5.65577 -4.09091e-05 0)
(5.65859 -0.00014986 0)
(5.6614 -0.000201203 0)
(5.66425 -0.000136896 0)
(5.66702 -3.16731e-05 0)
(5.66988 0.000104039 0)
(5.67257 0.000217517 0)
(5.67552 0.000281952 0)
(5.67806 0.000311193 0)
(5.68123 0.000299267 0)
(5.68342 0.000250281 0)
(5.68717 0.000250027 0)
(5.68847 0.000211773 0)
(5.69357 0.000208466 0)
(4.34052 -0.0126763 0)
(4.34156 -0.00250937 0)
(4.28658 -0.00291277 0)
(4.27464 -0.00119856 0)
(4.28019 -0.00099016 0)
(4.28783 -0.000856891 0)
(4.29484 -0.000336853 0)
(4.30072 0.000421548 0)
(4.30543 0.00111809 0)
(4.3093 0.00149605 0)
(4.31268 0.00157091 0)
(4.31583 0.00138167 0)
(4.31888 0.00114132 0)
(4.32188 0.000964514 0)
(4.32484 0.000858727 0)
(4.32773 0.000742655 0)
(4.33058 0.000363733 0)
(4.33343 -0.000188056 0)
(4.33629 -0.00101184 0)
(4.33923 -0.00186288 0)
(4.34219 -0.00251578 0)
(4.34519 -0.00288162 0)
(4.34818 -0.00262724 0)
(4.35108 -0.00190845 0)
(4.35388 -0.000818795 0)
(4.35656 0.000438415 0)
(4.35911 0.00161025 0)
(4.36156 0.00242091 0)
(4.36395 0.0027539 0)
(4.3663 0.00260562 0)
(4.36867 0.00198444 0)
(4.37108 0.00117996 0)
(4.3735 0.00034791 0)
(4.37595 -0.000447587 0)
(4.37843 -0.000911198 0)
(4.38089 -0.00108562 0)
(4.38334 -0.000883304 0)
(4.38573 -0.000338979 0)
(4.38806 0.000294953 0)
(4.39035 0.00100995 0)
(4.39259 0.00165982 0)
(4.39479 0.00213128 0)
(4.39697 0.00240568 0)
(4.39915 0.00247769 0)
(4.40132 0.00232197 0)
(4.40352 0.00202215 0)
(4.40572 0.00161353 0)
(4.40793 0.00107934 0)
(4.41017 0.000508261 0)
(4.41241 -8.73419e-05 0)
(4.41466 -0.000680186 0)
(4.41693 -0.00123925 0)
(4.41921 -0.00170105 0)
(4.42151 -0.0020071 0)
(4.4238 -0.00211986 0)
(4.42607 -0.00205711 0)
(4.42833 -0.00185851 0)
(4.43057 -0.00154709 0)
(4.4328 -0.00117663 0)
(4.43501 -0.000789789 0)
(4.43721 -0.000428008 0)
(4.43939 -0.000155554 0)
(4.44157 1.77203e-05 0)
(4.44375 7.12622e-05 0)
(4.44594 4.4409e-05 0)
(4.44815 -1.69993e-05 0)
(4.45035 -7.81595e-05 0)
(4.45257 -0.000162269 0)
(4.45478 -0.000201384 0)
(4.45702 -0.000151959 0)
(4.45919 -7.15005e-05 0)
(4.46144 3.38864e-05 0)
(4.46354 0.000120102 0)
(4.46585 0.000171871 0)
(4.46783 0.000192359 0)
(4.47032 0.000187108 0)
(4.47203 0.00014286 0)
(4.47497 0.000151806 0)
(4.47599 0.000108417 0)
(4.47999 0.0001185 0)
(2.91695 0.000530469 0)
(2.95575 0.000246064 0)
(2.90661 -0.0013097 0)
(2.89728 -0.000695255 0)
(2.9007 -0.000823214 0)
(2.9058 -0.00073809 0)
(2.91099 -0.000376502 0)
(2.91546 0.000145208 0)
(2.91894 0.000611075 0)
(2.92167 0.000868375 0)
(2.92396 0.000930196 0)
(2.92603 0.000822644 0)
(2.92802 0.000676844 0)
(2.92995 0.000568756 0)
(2.93183 0.00050126 0)
(2.93361 0.000428925 0)
(2.93536 0.000191444 0)
(2.93711 -0.000154354 0)
(2.93888 -0.00066961 0)
(2.94073 -0.00120592 0)
(2.94263 -0.00161513 0)
(2.9446 -0.00184404 0)
(2.94658 -0.00168221 0)
(2.94848 -0.00122939 0)
(2.95028 -0.000542132 0)
(2.95197 0.000248242 0)
(2.95352 0.000985493 0)
(2.95496 0.00149788 0)
(2.95636 0.00170821 0)
(2.95774 0.0016137 0)
(2.95916 0.00122252 0)
(2.96065 0.000716319 0)
(2.96216 0.000192762 0)
(2.96373 -0.00030751 0)
(2.96534 -0.000599627 0)
(2.96695 -0.000708704 0)
(2.96856 -0.000581562 0)
(2.97011 -0.000236753 0)
(2.97159 0.000160125 0)
(2.97305 0.000609805 0)
(2.97444 0.00101798 0)
(2.97581 0.00131249 0)
(2.97716 0.00148714 0)
(2.97852 0.00153207 0)
(2.97988 0.00143356 0)
(2.98128 0.0012462 0)
(2.98269 0.00098843 0)
(2.98411 0.000652109 0)
(2.98557 0.00029229 0)
(2.98704 -8.18086e-05 0)
(2.98853 -0.000455985 0)
(2.99003 -0.000808641 0)
(2.99157 -0.00109846 0)
(2.99312 -0.00129158 0)
(2.99467 -0.00136216 0)
(2.99621 -0.00132328 0)
(2.99773 -0.00119631 0)
(2.99925 -0.00100059 0)
(3.00074 -0.000767615 0)
(3.00223 -0.000523949 0)
(3.00369 -0.000296083 0)
(3.00515 -0.000124241 0)
(3.0066 -1.49241e-05 0)
(3.00805 1.89381e-05 0)
(3.00952 2.31869e-06 0)
(3.011 -3.68799e-05 0)
(3.01248 -7.62071e-05 0)
(3.01397 -0.000129192 0)
(3.01547 -0.000153482 0)
(3.01699 -0.000122132 0)
(3.01846 -7.15221e-05 0)
(3.01997 -5.23162e-06 0)
(3.02138 4.91959e-05 0)
(3.02293 8.28956e-05 0)
(3.02425 9.52991e-05 0)
(3.02593 9.27585e-05 0)
(3.02708 6.33232e-05 0)
(3.02906 7.17377e-05 0)
(3.02976 3.96967e-05 0)
(3.03245 5.11191e-05 0)
(1.12744 -0.00279671 0)
(1.16486 -6.16788e-05 0)
(1.13505 3.5086e-05 0)
(1.13225 -0.000130515 0)
(1.13361 -0.000328122 0)
(1.13556 -0.0003314 0)
(1.13781 -0.000208344 0)
(1.13974 -2.107e-05 0)
(1.14113 0.000154125 0)
(1.14213 0.000251915 0)
(1.14292 0.00027992 0)
(1.14363 0.000248775 0)
(1.14435 0.000201431 0)
(1.14506 0.000165769 0)
(1.14571 0.000142968 0)
(1.14627 0.0001179 0)
(1.14679 3.92992e-05 0)
(1.14731 -7.97163e-05 0)
(1.14786 -0.000255188 0)
(1.14852 -0.000437175 0)
(1.14924 -0.000575942 0)
(1.15004 -0.000653497 0)
(1.15088 -0.000596724 0)
(1.15166 -0.000443206 0)
(1.15236 -0.000207745 0)
(1.15294 6.18042e-05 0)
(1.15339 0.000313882 0)
(1.15374 0.000488963 0)
(1.15407 0.00056105 0)
(1.15438 0.000529846 0)
(1.15476 0.000395515 0)
(1.15523 0.000223092 0)
(1.15574 4.47749e-05 0)
(1.15632 -0.000125598 0)
(1.15695 -0.000225389 0)
(1.1576 -0.000262292 0)
(1.15826 -0.000218571 0)
(1.15885 -0.000100868 0)
(1.15939 3.41675e-05 0)
(1.15988 0.000187481 0)
(1.16033 0.000326835 0)
(1.16074 0.000426735 0)
(1.16115 0.000486745 0)
(1.16156 0.000501674 0)
(1.16198 0.000467702 0)
(1.16244 0.000404187 0)
(1.16291 0.000315888 0)
(1.16341 0.000201789 0)
(1.16394 7.92184e-05 0)
(1.16448 -4.81317e-05 0)
(1.16504 -0.000175622 0)
(1.16562 -0.000296608 0)
(1.16622 -0.000395134 0)
(1.16686 -0.000461067 0)
(1.16749 -0.000484942 0)
(1.16812 -0.000471996 0)
(1.16873 -0.000428269 0)
(1.16932 -0.000361242 0)
(1.1699 -0.000281907 0)
(1.17047 -0.000198883 0)
(1.17102 -0.000121076 0)
(1.17156 -6.22107e-05 0)
(1.17209 -2.40926e-05 0)
(1.17263 -1.31284e-05 0)
(1.17318 -1.84166e-05 0)
(1.17375 -3.24292e-05 0)
(1.17431 -4.59305e-05 0)
(1.17489 -6.39806e-05 0)
(1.17548 -7.23608e-05 0)
(1.17608 -6.17216e-05 0)
(1.17665 -4.4224e-05 0)
(1.17724 -2.13715e-05 0)
(1.17777 -3.3034e-06 0)
(1.17836 8.97252e-06 0)
(1.17886 1.25611e-05 0)
(1.1795 1.29002e-05 0)
(1.17995 1.96844e-06 0)
(1.18071 5.9708e-06 0)
(1.18099 -6.59614e-06 0)
(1.18203 -5.16182e-07 0)
)
;

boundaryField
{
    upperWall
    {
        type            noSlip;
    }
    lowerWall
    {
        type            noSlip;
    }
    heatedWall
    {
        type            noSlip;
    }
    inlet
    {
        type            fixedValue;
        value           uniform (4.5 0 0);
    }
    outlet
    {
        type            pressureInletOutletVelocity;
        value           nonuniform List<vector> 
12
(
(1.22414 0.000137351 0)
(3.1162 0.000317382 0)
(4.58309 0.000437464 0)
(5.79803 0.000505266 0)
(6.7469 0.000514442 0)
(7.31732 0.000475257 0)
(7.27976 0.00039975 0)
(6.66075 0.000303112 0)
(5.69357 0.000208466 0)
(4.47999 0.0001185 0)
(3.03245 5.11191e-05 0)
(1.18203 -5.16182e-07 0)
)
;
    }
    frontAndBack
    {
        type            empty;
    }
}


// ************************************************************************* //
