/*--------------------------------*- C++ -*----------------------------------*\
  =========                 |
  \\      /  F ield         | OpenFOAM: The Open Source CFD Toolbox
   \\    /   O peration     | Website:  https://openfoam.org
    \\  /    A nd           | Version:  7
     \\/     M anipulation  |
\*---------------------------------------------------------------------------*/
FoamFile
{
    version     2.0;
    format      ascii;
    class       volVectorField;
    location    "0.0525";
    object      U;
}
// * * * * * * * * * * * * * * * * * * * * * * * * * * * * * * * * * * * * * //

dimensions      [0 1 -1 0 0 0 0];

internalField   nonuniform List<vector> 
1440
(
(34.5375 0.0946844 0)
(34.3143 0.36557 0)
(33.8129 0.61973 0)
(33.062 0.826497 0)
(32.1264 0.979237 0)
(31.0618 1.07546 0)
(29.9175 1.11953 0)
(28.7259 1.11836 0)
(27.5237 1.08332 0)
(26.3285 1.02276 0)
(25.1695 0.944899 0)
(24.0543 0.859874 0)
(22.9931 0.770366 0)
(21.9944 0.680343 0)
(21.0614 0.593712 0)
(20.1953 0.512622 0)
(19.396 0.438142 0)
(18.662 0.370689 0)
(17.9912 0.310262 0)
(17.3806 0.256617 0)
(16.8265 0.209333 0)
(16.3255 0.167907 0)
(15.8736 0.131801 0)
(15.4669 0.100493 0)
(15.1015 0.0734807 0)
(14.7739 0.0502947 0)
(14.4804 0.0305025 0)
(14.2177 0.0137132 0)
(13.9827 -0.000424271 0)
(13.7725 -0.0122254 0)
(13.5844 -0.0219738 0)
(13.416 -0.0299243 0)
(13.2651 -0.0363056 0)
(13.1297 -0.0413229 0)
(13.008 -0.0451599 0)
(12.8984 -0.0479806 0)
(12.7994 -0.049931 0)
(12.7098 -0.0511407 0)
(12.6285 -0.0517244 0)
(12.5544 -0.0517832 0)
(12.4867 -0.0514059 0)
(12.4245 -0.0506703 0)
(12.3672 -0.049644 0)
(12.3142 -0.0483854 0)
(12.2649 -0.046945 0)
(12.2189 -0.0453656 0)
(12.1759 -0.0436838 0)
(12.1353 -0.0419303 0)
(12.097 -0.0401305 0)
(12.0606 -0.0383053 0)
(12.0259 -0.0364714 0)
(11.9927 -0.0346427 0)
(11.9609 -0.032831 0)
(11.9302 -0.031047 0)
(11.9006 -0.0292988 0)
(11.872 -0.0275932 0)
(11.8442 -0.0259348 0)
(11.8171 -0.0243274 0)
(11.7907 -0.0227732 0)
(11.7649 -0.0212738 0)
(11.7397 -0.0198302 0)
(11.7151 -0.0184428 0)
(11.6909 -0.0171112 0)
(11.6672 -0.0158352 0)
(11.6439 -0.0146139 0)
(11.621 -0.0134464 0)
(11.5985 -0.0123317 0)
(11.5764 -0.0112684 0)
(11.5547 -0.010255 0)
(11.5333 -0.00929018 0)
(11.5123 -0.00837237 0)
(11.4916 -0.00750015 0)
(11.4712 -0.00667192 0)
(11.4511 -0.0058863 0)
(11.4314 -0.00514163 0)
(11.412 -0.00443654 0)
(11.393 -0.00376938 0)
(11.3742 -0.00313883 0)
(11.3557 -0.00254326 0)
(11.3376 -0.00198143 0)
(11.3197 -0.00145173 0)
(11.3021 -0.000953034 0)
(11.2848 -0.000483772 0)
(11.2679 -4.29346e-05 0)
(11.2512 0.000371015 0)
(11.2347 0.00075895 0)
(11.2186 0.00112237 0)
(11.2027 0.00146202 0)
(11.1871 0.00177935 0)
(11.1718 0.00207498 0)
(11.1568 0.00235032 0)
(11.142 0.0026059 0)
(11.1274 0.00284302 0)
(11.1132 0.00306224 0)
(11.0991 0.00326458 0)
(11.0854 0.00345089 0)
(11.0719 0.00362154 0)
(11.0586 0.00377825 0)
(11.0456 0.0039199 0)
(11.0328 0.00405029 0)
(11.0203 0.00416501 0)
(11.008 0.00427264 0)
(10.996 0.00436148 0)
(10.9842 0.00445066 0)
(10.9726 0.00451267 0)
(10.9612 0.00458963 0)
(10.9501 0.00461973 0)
(10.9391 0.00469508 0)
(10.9285 0.00467945 0)
(10.9178 0.00477331 0)
(10.9078 0.00467929 0)
(10.8974 0.00483175 0)
(10.888 0.00458568 0)
(10.8777 0.00487525 0)
(10.8694 0.00431796 0)
(10.8589 0.00489355 0)
(10.8523 0.00373493 0)
(10.8409 0.00493149 0)
(10.838 0.00303089 0)
(10.8223 0.00587436 0)
(34.5755 0.136432 0)
(34.6896 0.37995 0)
(34.8834 0.593299 0)
(35.1275 0.783378 0)
(35.394 0.95102 0)
(35.6569 1.09195 0)
(35.896 1.20345 0)
(36.0947 1.28578 0)
(36.2453 1.34167 0)
(36.3434 1.37435 0)
(36.3912 1.38682 0)
(36.3916 1.38232 0)
(36.3496 1.36361 0)
(36.2709 1.33316 0)
(36.1609 1.29336 0)
(36.0248 1.24643 0)
(35.8673 1.19429 0)
(35.6929 1.13855 0)
(35.5057 1.08061 0)
(35.309 1.02166 0)
(35.1058 0.962687 0)
(34.8986 0.904577 0)
(34.6892 0.847971 0)
(34.4794 0.7934 0)
(34.2703 0.741273 0)
(34.0632 0.69186 0)
(33.8586 0.645327 0)
(33.6573 0.601748 0)
(33.4596 0.561132 0)
(33.2659 0.523429 0)
(33.0763 0.48855 0)
(32.891 0.456375 0)
(32.7101 0.426766 0)
(32.5336 0.399569 0)
(32.3615 0.374625 0)
(32.1937 0.351774 0)
(32.0301 0.330855 0)
(31.8707 0.311716 0)
(31.7154 0.294208 0)
(31.5641 0.278192 0)
(31.4167 0.263538 0)
(31.2731 0.250125 0)
(31.1332 0.237841 0)
(30.997 0.226582 0)
(30.8642 0.216254 0)
(30.7349 0.206768 0)
(30.6089 0.198045 0)
(30.4861 0.190011 0)
(30.3665 0.182601 0)
(30.2499 0.175752 0)
(30.1364 0.169409 0)
(30.0257 0.163524 0)
(29.9179 0.158052 0)
(29.8127 0.152951 0)
(29.7103 0.148186 0)
(29.6104 0.143722 0)
(29.5131 0.139531 0)
(29.4182 0.135586 0)
(29.3257 0.131862 0)
(29.2356 0.12834 0)
(29.1477 0.125 0)
(29.062 0.121825 0)
(28.9784 0.118801 0)
(28.8969 0.115914 0)
(28.8175 0.113155 0)
(28.7401 0.110511 0)
(28.6646 0.107974 0)
(28.5909 0.105536 0)
(28.5192 0.103191 0)
(28.4491 0.100931 0)
(28.3809 0.0987524 0)
(28.3143 0.0966491 0)
(28.2494 0.0946173 0)
(28.1861 0.0926528 0)
(28.1243 0.0907524 0)
(28.0641 0.0889125 0)
(28.0054 0.0871305 0)
(27.9481 0.0854035 0)
(27.8922 0.0837293 0)
(27.8377 0.0821054 0)
(27.7846 0.0805301 0)
(27.7327 0.0790013 0)
(27.6821 0.0775176 0)
(27.6327 0.0760772 0)
(27.5845 0.074679 0)
(27.5375 0.0733215 0)
(27.4916 0.0720037 0)
(27.4468 0.0707245 0)
(27.4031 0.0694829 0)
(27.3604 0.0682779 0)
(27.3187 0.0671085 0)
(27.278 0.0659737 0)
(27.2382 0.0648725 0)
(27.1994 0.063804 0)
(27.1615 0.0627668 0)
(27.1245 0.0617603 0)
(27.0883 0.0607825 0)
(27.053 0.0598334 0)
(27.0185 0.0589098 0)
(26.9848 0.0580135 0)
(26.9518 0.0571385 0)
(26.9196 0.0562907 0)
(26.8881 0.0554582 0)
(26.8573 0.0546555 0)
(26.8273 0.0538585 0)
(26.7978 0.0530992 0)
(26.7691 0.0523282 0)
(26.7409 0.0516136 0)
(26.7136 0.050854 0)
(26.6865 0.0501893 0)
(26.6605 0.0494152 0)
(26.6343 0.0488096 0)
(26.6099 0.0479728 0)
(26.5843 0.0474321 0)
(26.562 0.0464484 0)
(26.536 0.0459369 0)
(26.5175 0.0446861 0)
(26.489 0.0440092 0)
(26.4783 0.0425177 0)
(26.4424 0.0412563 0)
(34.571 0.0897605 0)
(34.6285 0.261312 0)
(34.7402 0.418065 0)
(34.9029 0.558375 0)
(35.1108 0.682195 0)
(35.3573 0.788385 0)
(35.6354 0.875524 0)
(35.937 0.943206 0)
(36.2531 0.992234 0)
(36.5754 1.02412 0)
(36.8967 1.04043 0)
(37.2111 1.04306 0)
(37.5142 1.0338 0)
(37.8025 1.01431 0)
(38.0738 0.986369 0)
(38.3262 0.951804 0)
(38.5592 0.912423 0)
(38.7725 0.869865 0)
(38.9665 0.825542 0)
(39.1419 0.780647 0)
(39.2997 0.736154 0)
(39.4409 0.692836 0)
(39.5666 0.65128 0)
(39.6781 0.611913 0)
(39.7763 0.575017 0)
(39.8626 0.54075 0)
(39.9379 0.509169 0)
(40.0032 0.480252 0)
(40.0595 0.453915 0)
(40.1077 0.430035 0)
(40.1486 0.408458 0)
(40.1829 0.389021 0)
(40.2113 0.37155 0)
(40.2344 0.355873 0)
(40.2527 0.34182 0)
(40.2667 0.329229 0)
(40.2768 0.317948 0)
(40.2834 0.307833 0)
(40.2869 0.298754 0)
(40.2875 0.29059 0)
(40.2855 0.283232 0)
(40.2812 0.276584 0)
(40.2747 0.270557 0)
(40.2662 0.265073 0)
(40.256 0.260061 0)
(40.244 0.255461 0)
(40.2306 0.251217 0)
(40.2158 0.247279 0)
(40.1996 0.243604 0)
(40.1823 0.240153 0)
(40.1638 0.236891 0)
(40.1443 0.233787 0)
(40.1238 0.230815 0)
(40.1024 0.227952 0)
(40.0802 0.225181 0)
(40.0571 0.222484 0)
(40.0334 0.21985 0)
(40.0089 0.217268 0)
(39.9838 0.214728 0)
(39.9581 0.212225 0)
(39.9318 0.209751 0)
(39.905 0.207302 0)
(39.8777 0.204875 0)
(39.85 0.202468 0)
(39.8218 0.200078 0)
(39.7933 0.197703 0)
(39.7644 0.195344 0)
(39.7352 0.192999 0)
(39.7057 0.190668 0)
(39.6759 0.188352 0)
(39.6459 0.18605 0)
(39.6156 0.183763 0)
(39.5852 0.181493 0)
(39.5546 0.179239 0)
(39.5238 0.177002 0)
(39.4929 0.174784 0)
(39.4619 0.172585 0)
(39.4308 0.170406 0)
(39.3997 0.168248 0)
(39.3685 0.166111 0)
(39.3373 0.163998 0)
(39.3061 0.161907 0)
(39.2748 0.15984 0)
(39.2437 0.157798 0)
(39.2125 0.155781 0)
(39.1814 0.15379 0)
(39.1503 0.151826 0)
(39.1193 0.149888 0)
(39.0884 0.147978 0)
(39.0577 0.146094 0)
(39.027 0.144239 0)
(38.9964 0.142412 0)
(38.966 0.140613 0)
(38.9358 0.138841 0)
(38.9057 0.137099 0)
(38.8757 0.135382 0)
(38.846 0.133695 0)
(38.8164 0.132032 0)
(38.787 0.130399 0)
(38.7578 0.128786 0)
(38.7288 0.127205 0)
(38.7001 0.125641 0)
(38.6715 0.12411 0)
(38.6432 0.122589 0)
(38.6151 0.121109 0)
(38.5873 0.119622 0)
(38.5597 0.118197 0)
(38.5323 0.116731 0)
(38.5053 0.115367 0)
(38.4783 0.113894 0)
(38.4519 0.112613 0)
(38.4252 0.111073 0)
(38.3999 0.109921 0)
(38.373 0.108183 0)
(38.3493 0.107258 0)
(38.3214 0.105038 0)
(38.301 0.10453 0)
(38.2694 0.101201 0)
(38.2568 0.101404 0)
(38.2159 0.0954811 0)
(34.5706 0.0602643 0)
(34.6208 0.177796 0)
(34.7191 0.287582 0)
(34.8636 0.386255 0)
(35.0488 0.472534 0)
(35.2681 0.545867 0)
(35.5151 0.605727 0)
(35.784 0.6519 0)
(36.0688 0.684863 0)
(36.3642 0.705757 0)
(36.6652 0.71606 0)
(36.9677 0.717367 0)
(37.2684 0.711217 0)
(37.5644 0.698989 0)
(37.8535 0.682001 0)
(38.1336 0.661495 0)
(38.4035 0.638635 0)
(38.662 0.61439 0)
(38.9086 0.589548 0)
(39.1428 0.5647 0)
(39.3646 0.540301 0)
(39.5742 0.516674 0)
(39.7717 0.494043 0)
(39.9578 0.472527 0)
(40.1329 0.452196 0)
(40.2977 0.433074 0)
(40.4528 0.415167 0)
(40.5989 0.398454 0)
(40.7366 0.382908 0)
(40.8668 0.368475 0)
(40.9899 0.355103 0)
(41.1067 0.342728 0)
(41.2177 0.331289 0)
(41.3234 0.32072 0)
(41.4243 0.310958 0)
(41.5209 0.301942 0)
(41.6135 0.293612 0)
(41.7026 0.285912 0)
(41.7883 0.27879 0)
(41.8712 0.272195 0)
(41.9512 0.266081 0)
(42.0288 0.260404 0)
(42.1041 0.255127 0)
(42.1772 0.250211 0)
(42.2484 0.245623 0)
(42.3177 0.241333 0)
(42.3853 0.237313 0)
(42.4512 0.233536 0)
(42.5156 0.229981 0)
(42.5785 0.226623 0)
(42.6401 0.223446 0)
(42.7003 0.220428 0)
(42.7592 0.217556 0)
(42.8168 0.214813 0)
(42.8733 0.212189 0)
(42.9286 0.209672 0)
(42.9829 0.207255 0)
(43.036 0.204928 0)
(43.088 0.202685 0)
(43.139 0.200518 0)
(43.189 0.198422 0)
(43.2379 0.196392 0)
(43.2859 0.194423 0)
(43.333 0.192511 0)
(43.379 0.190653 0)
(43.4242 0.188844 0)
(43.4684 0.187083 0)
(43.5117 0.185366 0)
(43.5542 0.183691 0)
(43.5957 0.182055 0)
(43.6364 0.180457 0)
(43.6763 0.178892 0)
(43.7153 0.177362 0)
(43.7535 0.175862 0)
(43.7909 0.174391 0)
(43.8275 0.172948 0)
(43.8633 0.171532 0)
(43.8983 0.17014 0)
(43.9326 0.168774 0)
(43.9661 0.167429 0)
(43.9989 0.166107 0)
(44.031 0.164805 0)
(44.0624 0.163525 0)
(44.093 0.162264 0)
(44.123 0.161023 0)
(44.1523 0.159799 0)
(44.181 0.158595 0)
(44.209 0.157407 0)
(44.2363 0.156238 0)
(44.263 0.155084 0)
(44.2892 0.153948 0)
(44.3146 0.152825 0)
(44.3396 0.15172 0)
(44.3639 0.150627 0)
(44.3876 0.149551 0)
(44.4108 0.148485 0)
(44.4335 0.147435 0)
(44.4556 0.146393 0)
(44.4771 0.145368 0)
(44.4982 0.144346 0)
(44.5187 0.143343 0)
(44.5388 0.142336 0)
(44.5584 0.141356 0)
(44.5775 0.140357 0)
(44.5961 0.139402 0)
(44.6142 0.1384 0)
(44.6319 0.137477 0)
(44.6493 0.13645 0)
(44.666 0.13558 0)
(44.6826 0.134487 0)
(44.6984 0.133708 0)
(44.7144 0.132468 0)
(44.729 0.13186 0)
(44.7447 0.130309 0)
(44.7578 0.13002 0)
(44.7738 0.127847 0)
(44.7844 0.128114 0)
(44.8021 0.124736 0)
(44.8081 0.1258 0)
(44.8305 0.120006 0)
(34.5705 0.0351777 0)
(34.617 0.104142 0)
(34.7081 0.169237 0)
(34.8432 0.22813 0)
(35.018 0.279635 0)
(35.2262 0.323441 0)
(35.4618 0.359433 0)
(35.719 0.387574 0)
(35.9921 0.408112 0)
(36.2761 0.421693 0)
(36.5663 0.429211 0)
(36.8588 0.43161 0)
(37.1501 0.429775 0)
(37.4375 0.424489 0)
(37.7187 0.416447 0)
(37.9919 0.406263 0)
(38.2558 0.394474 0)
(38.5093 0.381529 0)
(38.7517 0.367799 0)
(38.9828 0.353588 0)
(39.2024 0.339155 0)
(39.4107 0.324718 0)
(39.6078 0.310458 0)
(39.7943 0.296505 0)
(39.9705 0.282962 0)
(40.1373 0.269914 0)
(40.295 0.257432 0)
(40.4445 0.24557 0)
(40.5864 0.234372 0)
(40.7212 0.223871 0)
(40.8496 0.214084 0)
(40.9723 0.205008 0)
(41.0896 0.196628 0)
(41.2022 0.188918 0)
(41.3105 0.181841 0)
(41.4148 0.175361 0)
(41.5157 0.169434 0)
(41.6135 0.164021 0)
(41.7084 0.15908 0)
(41.8007 0.154573 0)
(41.8907 0.150461 0)
(41.9787 0.146711 0)
(42.0647 0.143291 0)
(42.1489 0.140172 0)
(42.2316 0.137326 0)
(42.3129 0.134729 0)
(42.3927 0.132358 0)
(42.4714 0.130192 0)
(42.5488 0.12821 0)
(42.6252 0.126396 0)
(42.7006 0.124734 0)
(42.7751 0.123208 0)
(42.8486 0.121806 0)
(42.9212 0.120516 0)
(42.9931 0.119326 0)
(43.0641 0.118226 0)
(43.1344 0.117205 0)
(43.204 0.116255 0)
(43.2729 0.115366 0)
(43.3411 0.114533 0)
(43.4086 0.113748 0)
(43.4755 0.113005 0)
(43.5417 0.112299 0)
(43.6074 0.111626 0)
(43.6724 0.11098 0)
(43.7368 0.110359 0)
(43.8006 0.109759 0)
(43.8639 0.109178 0)
(43.9265 0.108613 0)
(43.9887 0.108062 0)
(44.0502 0.107523 0)
(44.1113 0.106994 0)
(44.1718 0.106473 0)
(44.2317 0.10596 0)
(44.2912 0.105452 0)
(44.3501 0.10495 0)
(44.4085 0.104453 0)
(44.4664 0.103959 0)
(44.5238 0.103468 0)
(44.5807 0.10298 0)
(44.6372 0.102494 0)
(44.6931 0.102011 0)
(44.7486 0.10153 0)
(44.8036 0.101051 0)
(44.8581 0.100575 0)
(44.9122 0.100102 0)
(44.9659 0.0996307 0)
(45.019 0.0991625 0)
(45.0718 0.0986974 0)
(45.1241 0.0982351 0)
(45.176 0.0977762 0)
(45.2274 0.0973202 0)
(45.2785 0.0968677 0)
(45.3291 0.0964179 0)
(45.3793 0.0959719 0)
(45.4291 0.0955278 0)
(45.4785 0.0950879 0)
(45.5276 0.0946486 0)
(45.5762 0.0942143 0)
(45.6244 0.0937781 0)
(45.6723 0.0933492 0)
(45.7198 0.0929136 0)
(45.7669 0.0924905 0)
(45.8136 0.0920515 0)
(45.86 0.0916364 0)
(45.9061 0.0911867 0)
(45.9516 0.0907851 0)
(45.9971 0.0903113 0)
(46.0418 0.0899351 0)
(46.0869 0.0894106 0)
(46.1304 0.0890842 0)
(46.1755 0.0884568 0)
(46.2172 0.0882267 0)
(46.2632 0.0873957 0)
(46.3019 0.087346 0)
(46.3506 0.086123 0)
(46.3831 0.0863828 0)
(46.439 0.0844025 0)
(46.4581 0.0850543 0)
(46.5311 0.081533 0)
(34.5704 0.0117111 0)
(34.6152 0.0346871 0)
(34.7031 0.0564323 0)
(34.8335 0.0761511 0)
(35.003 0.0933985 0)
(35.206 0.108102 0)
(35.4362 0.120311 0)
(35.6881 0.130076 0)
(35.9562 0.137485 0)
(36.2356 0.142734 0)
(36.5218 0.146093 0)
(36.8108 0.147859 0)
(37.0991 0.148293 0)
(37.3838 0.147634 0)
(37.6627 0.146062 0)
(37.9339 0.143753 0)
(38.196 0.140839 0)
(38.4479 0.137457 0)
(38.689 0.13371 0)
(38.9189 0.12971 0)
(39.1375 0.125542 0)
(39.3448 0.121295 0)
(39.5413 0.117042 0)
(39.7271 0.112856 0)
(39.9029 0.10879 0)
(40.0692 0.104889 0)
(40.2266 0.101177 0)
(40.3758 0.0976764 0)
(40.5174 0.0944002 0)
(40.6521 0.0913628 0)
(40.7803 0.0885693 0)
(40.9028 0.0860207 0)
(41.0199 0.0837063 0)
(41.1323 0.0816133 0)
(41.2404 0.0797229 0)
(41.3445 0.0780185 0)
(41.4451 0.0764804 0)
(41.5426 0.0750925 0)
(41.6372 0.0738371 0)
(41.7292 0.0727004 0)
(41.8189 0.0716683 0)
(41.9065 0.0707303 0)
(41.9923 0.0698761 0)
(42.0762 0.0690988 0)
(42.1586 0.0683907 0)
(42.2396 0.0677464 0)
(42.3192 0.0671596 0)
(42.3977 0.0666257 0)
(42.475 0.0661391 0)
(42.5512 0.0656962 0)
(42.6264 0.0652921 0)
(42.7008 0.064924 0)
(42.7742 0.0645872 0)
(42.8468 0.0642784 0)
(42.9187 0.0639929 0)
(42.9898 0.0637274 0)
(43.0602 0.063478 0)
(43.1299 0.0632418 0)
(43.199 0.0630155 0)
(43.2674 0.062797 0)
(43.3352 0.0625836 0)
(43.4024 0.062374 0)
(43.469 0.0621661 0)
(43.535 0.0619589 0)
(43.6005 0.0617512 0)
(43.6655 0.0615421 0)
(43.7299 0.0613305 0)
(43.7938 0.0611157 0)
(43.8572 0.0608968 0)
(43.9201 0.0606737 0)
(43.9825 0.0604458 0)
(44.0444 0.0602134 0)
(44.1058 0.0599762 0)
(44.1668 0.0597346 0)
(44.2273 0.0594885 0)
(44.2874 0.0592384 0)
(44.347 0.0589843 0)
(44.4062 0.0587268 0)
(44.465 0.0584659 0)
(44.5233 0.0582022 0)
(44.5813 0.0579358 0)
(44.6388 0.0576677 0)
(44.6959 0.0573977 0)
(44.7526 0.0571269 0)
(44.809 0.0568552 0)
(44.8649 0.0565835 0)
(44.9205 0.0563119 0)
(44.9757 0.056041 0)
(45.0305 0.0557708 0)
(45.085 0.055502 0)
(45.1391 0.0552346 0)
(45.1929 0.0549689 0)
(45.2464 0.054705 0)
(45.2995 0.0544429 0)
(45.3522 0.0541828 0)
(45.4047 0.0539245 0)
(45.4568 0.0536682 0)
(45.5086 0.0534131 0)
(45.5601 0.0531603 0)
(45.6113 0.0529077 0)
(45.6622 0.0526578 0)
(45.7128 0.0524061 0)
(45.7631 0.0521585 0)
(45.8132 0.0519059 0)
(45.8628 0.0516605 0)
(45.9124 0.0514036 0)
(45.9614 0.051161 0)
(46.0106 0.0508944 0)
(46.0589 0.0506569 0)
(46.1078 0.0503704 0)
(46.1551 0.0501442 0)
(46.2043 0.0498186 0)
(46.2498 0.0496174 0)
(46.3002 0.0492155 0)
(46.3425 0.0490688 0)
(46.3963 0.0485191 0)
(46.4319 0.0484843 0)
(46.4939 0.0476309 0)
(46.5146 0.0477679 0)
(46.5956 0.0461783 0)
(34.5704 -0.0112948 0)
(34.6152 -0.0334642 0)
(34.703 -0.0544872 0)
(34.8334 -0.0736405 0)
(35.0029 -0.0904613 0)
(35.2059 -0.104725 0)
(35.4362 -0.116288 0)
(35.6882 -0.125077 0)
(35.9565 -0.131149 0)
(36.2361 -0.134718 0)
(36.5225 -0.136072 0)
(36.8116 -0.135521 0)
(37.1 -0.13334 0)
(37.3849 -0.129799 0)
(37.6638 -0.12513 0)
(37.9351 -0.119576 0)
(38.1972 -0.11334 0)
(38.4491 -0.106617 0)
(38.6901 -0.0995625 0)
(38.9199 -0.0923337 0)
(39.1384 -0.0850627 0)
(39.3457 -0.0778793 0)
(39.542 -0.070887 0)
(39.7277 -0.0641761 0)
(39.9033 -0.0578179 0)
(40.0695 -0.0518775 0)
(40.2267 -0.0463997 0)
(40.3757 -0.0414163 0)
(40.5171 -0.0369403 0)
(40.6516 -0.0329788 0)
(40.7796 -0.0295266 0)
(40.9019 -0.0265698 0)
(41.0189 -0.0240802 0)
(41.1311 -0.0220225 0)
(41.239 -0.0203527 0)
(41.343 -0.0190264 0)
(41.4435 -0.017997 0)
(41.5408 -0.0172217 0)
(41.6353 -0.0166585 0)
(41.7272 -0.0162707 0)
(41.8169 -0.0160234 0)
(41.9044 -0.0158868 0)
(41.99 -0.0158331 0)
(42.074 -0.0158399 0)
(42.1563 -0.0158869 0)
(42.2373 -0.0159588 0)
(42.3169 -0.016042 0)
(42.3952 -0.0161267 0)
(42.4725 -0.0162041 0)
(42.5487 -0.0162682 0)
(42.6239 -0.0163142 0)
(42.6982 -0.0163394 0)
(42.7716 -0.0163416 0)
(42.8442 -0.0163205 0)
(42.9161 -0.0162757 0)
(42.9871 -0.0162084 0)
(43.0575 -0.0161188 0)
(43.1272 -0.0160088 0)
(43.1962 -0.0158794 0)
(43.2645 -0.0157324 0)
(43.3323 -0.015569 0)
(43.3994 -0.0153912 0)
(43.466 -0.0151999 0)
(43.532 -0.014997 0)
(43.5974 -0.0147833 0)
(43.6623 -0.0145607 0)
(43.7266 -0.0143301 0)
(43.7905 -0.0140935 0)
(43.8538 -0.0138516 0)
(43.9166 -0.013606 0)
(43.979 -0.0133572 0)
(44.0408 -0.0131065 0)
(44.1022 -0.0128542 0)
(44.1631 -0.0126013 0)
(44.2235 -0.0123483 0)
(44.2835 -0.0120961 0)
(44.3431 -0.0118448 0)
(44.4022 -0.0115953 0)
(44.4609 -0.0113476 0)
(44.5192 -0.0111023 0)
(44.577 -0.0108596 0)
(44.6345 -0.0106199 0)
(44.6915 -0.0103832 0)
(44.7482 -0.0101499 0)
(44.8044 -0.00992007 0)
(44.8603 -0.00969395 0)
(44.9158 -0.00947151 0)
(44.9709 -0.00925303 0)
(45.0257 -0.00903842 0)
(45.0801 -0.00882795 0)
(45.1341 -0.00862154 0)
(45.1879 -0.00841942 0)
(45.2412 -0.00822156 0)
(45.2942 -0.00802816 0)
(45.3469 -0.0078393 0)
(45.3993 -0.00765509 0)
(45.4514 -0.00747579 0)
(45.5031 -0.00730131 0)
(45.5545 -0.00713227 0)
(45.6057 -0.00696811 0)
(45.6565 -0.00681022 0)
(45.7071 -0.00665693 0)
(45.7573 -0.0065113 0)
(45.8073 -0.00636925 0)
(45.8569 -0.00623742 0)
(45.9064 -0.00610646 0)
(45.9554 -0.00599074 0)
(46.0045 -0.00586961 0)
(46.0527 -0.00577376 0)
(46.1016 -0.00565865 0)
(46.1488 -0.00558914 0)
(46.1979 -0.0054709 0)
(46.2434 -0.00543875 0)
(46.2938 -0.00529656 0)
(46.336 -0.00531979 0)
(46.3898 -0.00510769 0)
(46.4253 -0.00520776 0)
(46.4873 -0.00481407 0)
(46.5079 -0.00497996 0)
(46.5888 -0.00412429 0)
(34.5704 -0.0347555 0)
(34.6169 -0.102875 0)
(34.7079 -0.167202 0)
(34.8427 -0.225528 0)
(35.0173 -0.276637 0)
(35.2258 -0.320022 0)
(35.4618 -0.355379 0)
(35.7194 -0.382574 0)
(35.993 -0.401844 0)
(36.2775 -0.413838 0)
(36.5682 -0.419444 0)
(36.8612 -0.419598 0)
(37.1529 -0.415185 0)
(37.4406 -0.407006 0)
(37.7221 -0.395794 0)
(37.9954 -0.382225 0)
(38.2593 -0.366908 0)
(38.5128 -0.350367 0)
(38.7551 -0.33305 0)
(38.9859 -0.315337 0)
(39.2052 -0.29756 0)
(39.413 -0.28 0)
(39.6097 -0.262891 0)
(39.7957 -0.24642 0)
(39.9714 -0.230726 0)
(40.1375 -0.215904 0)
(40.2947 -0.202022 0)
(40.4436 -0.189122 0)
(40.5848 -0.177225 0)
(40.719 -0.166333 0)
(40.8468 -0.156434 0)
(40.9689 -0.147497 0)
(41.0857 -0.139472 0)
(41.1977 -0.1323 0)
(41.3055 -0.12591 0)
(41.4095 -0.120231 0)
(41.51 -0.115192 0)
(41.6074 -0.110726 0)
(41.702 -0.106769 0)
(41.7941 -0.103261 0)
(41.8839 -0.100145 0)
(41.9716 -0.0973672 0)
(42.0574 -0.0948784 0)
(42.1416 -0.0926356 0)
(42.2241 -0.090602 0)
(42.3053 -0.088746 0)
(42.3851 -0.0870408 0)
(42.4636 -0.0854632 0)
(42.5411 -0.0839934 0)
(42.6174 -0.0826147 0)
(42.6928 -0.0813134 0)
(42.7672 -0.0800782 0)
(42.8407 -0.0788998 0)
(42.9133 -0.077771 0)
(42.9851 -0.0766854 0)
(43.0562 -0.0756383 0)
(43.1265 -0.0746256 0)
(43.196 -0.0736441 0)
(43.2649 -0.0726911 0)
(43.3331 -0.0717645 0)
(43.4006 -0.0708626 0)
(43.4675 -0.0699837 0)
(43.5338 -0.0691262 0)
(43.5994 -0.0682884 0)
(43.6644 -0.0674691 0)
(43.7289 -0.0666675 0)
(43.7928 -0.0658834 0)
(43.8561 -0.0651167 0)
(43.9188 -0.0643672 0)
(43.981 -0.0636348 0)
(44.0427 -0.062919 0)
(44.1038 -0.0622197 0)
(44.1644 -0.0615364 0)
(44.2245 -0.060869 0)
(44.284 -0.060217 0)
(44.3431 -0.0595801 0)
(44.4017 -0.0589578 0)
(44.4597 -0.0583499 0)
(44.5173 -0.0577557 0)
(44.5744 -0.0571752 0)
(44.6311 -0.0566078 0)
(44.6872 -0.0560532 0)
(44.743 -0.0555111 0)
(44.7982 -0.0549813 0)
(44.853 -0.0544634 0)
(44.9074 -0.0539571 0)
(44.9613 -0.0534621 0)
(45.0148 -0.0529783 0)
(45.0679 -0.0525053 0)
(45.1205 -0.0520429 0)
(45.1727 -0.051591 0)
(45.2245 -0.0511492 0)
(45.2759 -0.0507176 0)
(45.3269 -0.0502957 0)
(45.3775 -0.0498839 0)
(45.4277 -0.0494815 0)
(45.4776 -0.0490892 0)
(45.527 -0.0487056 0)
(45.5761 -0.048333 0)
(45.6248 -0.0479676 0)
(45.6731 -0.0476152 0)
(45.721 -0.047267 0)
(45.7686 -0.0469361 0)
(45.8158 -0.0466033 0)
(45.8627 -0.0462969 0)
(45.9093 -0.0459751 0)
(45.9553 -0.045699 0)
(46.0013 -0.0453791 0)
(46.0465 -0.0451451 0)
(46.0921 -0.0448071 0)
(46.1361 -0.044638 0)
(46.1818 -0.0442405 0)
(46.2241 -0.0441787 0)
(46.2706 -0.0436379 0)
(46.3098 -0.0437582 0)
(46.3592 -0.0429105 0)
(46.3921 -0.0433215 0)
(46.4488 -0.0418326 0)
(46.4681 -0.0425643 0)
(46.5421 -0.0396395 0)
(34.5706 -0.0598323 0)
(34.6207 -0.176534 0)
(34.7187 -0.285709 0)
(34.8628 -0.384056 0)
(35.0478 -0.470079 0)
(35.2673 -0.542958 0)
(35.5151 -0.602044 0)
(35.7848 -0.647135 0)
(36.0705 -0.678755 0)
(36.3667 -0.698051 0)
(36.6686 -0.706495 0)
(36.972 -0.705661 0)
(37.2734 -0.697065 0)
(37.5701 -0.682098 0)
(37.8595 -0.6621 0)
(38.1399 -0.638316 0)
(38.4098 -0.611899 0)
(38.6681 -0.583837 0)
(38.9142 -0.554977 0)
(39.1478 -0.525995 0)
(39.3687 -0.497451 0)
(39.5773 -0.469768 0)
(39.7737 -0.443271 0)
(39.9585 -0.41818 0)
(40.1324 -0.394632 0)
(40.2959 -0.372694 0)
(40.4497 -0.352389 0)
(40.5947 -0.333701 0)
(40.7314 -0.316595 0)
(40.8606 -0.301005 0)
(40.9829 -0.286852 0)
(41.099 -0.27404 0)
(41.2094 -0.26247 0)
(41.3147 -0.252034 0)
(41.4154 -0.242632 0)
(41.5118 -0.234163 0)
(41.6044 -0.226534 0)
(41.6936 -0.219655 0)
(41.7796 -0.213453 0)
(41.8627 -0.207855 0)
(41.9432 -0.202795 0)
(42.0213 -0.198204 0)
(42.0971 -0.194018 0)
(42.1709 -0.19018 0)
(42.2428 -0.186642 0)
(42.3128 -0.183362 0)
(42.3811 -0.180304 0)
(42.4479 -0.177436 0)
(42.5131 -0.174733 0)
(42.5769 -0.172169 0)
(42.6393 -0.169727 0)
(42.7003 -0.167389 0)
(42.7601 -0.165142 0)
(42.8186 -0.162974 0)
(42.876 -0.160876 0)
(42.9321 -0.158841 0)
(42.9872 -0.156864 0)
(43.0411 -0.154939 0)
(43.094 -0.153063 0)
(43.1458 -0.151232 0)
(43.1967 -0.149446 0)
(43.2464 -0.1477 0)
(43.2953 -0.145993 0)
(43.3431 -0.144321 0)
(43.39 -0.142683 0)
(43.4359 -0.141076 0)
(43.481 -0.139501 0)
(43.5251 -0.137955 0)
(43.5683 -0.136442 0)
(43.6107 -0.134957 0)
(43.6521 -0.133503 0)
(43.6927 -0.132077 0)
(43.7325 -0.13068 0)
(43.7714 -0.129311 0)
(43.8096 -0.12797 0)
(43.8469 -0.126653 0)
(43.8834 -0.125364 0)
(43.9191 -0.124098 0)
(43.954 -0.122857 0)
(43.9882 -0.121637 0)
(44.0217 -0.120442 0)
(44.0543 -0.119266 0)
(44.0863 -0.118113 0)
(44.1175 -0.116978 0)
(44.148 -0.115864 0)
(44.1779 -0.114767 0)
(44.207 -0.11369 0)
(44.2355 -0.112628 0)
(44.2632 -0.111585 0)
(44.2904 -0.110557 0)
(44.3169 -0.109546 0)
(44.3427 -0.108549 0)
(44.3679 -0.107568 0)
(44.3925 -0.1066 0)
(44.4165 -0.105649 0)
(44.4399 -0.104708 0)
(44.4627 -0.103785 0)
(44.4849 -0.102871 0)
(44.5066 -0.101974 0)
(44.5276 -0.101084 0)
(44.5482 -0.100215 0)
(44.5682 -0.0993471 0)
(44.5876 -0.0985057 0)
(44.6066 -0.0976566 0)
(44.625 -0.096847 0)
(44.6429 -0.0960092 0)
(44.6603 -0.0952396 0)
(44.6773 -0.0943979 0)
(44.6936 -0.0936863 0)
(44.7097 -0.0928085 0)
(44.725 -0.0921912 0)
(44.7403 -0.0912097 0)
(44.7544 -0.0907578 0)
(44.7693 -0.0895349 0)
(44.7817 -0.0893796 0)
(44.7967 -0.0876453 0)
(44.8067 -0.0879994 0)
(44.823 -0.0852354 0)
(44.8287 -0.0862892 0)
(44.8489 -0.0813787 0)
(34.571 -0.0890223 0)
(34.6282 -0.259792 0)
(34.7392 -0.416911 0)
(34.9014 -0.55819 0)
(35.1093 -0.682689 0)
(35.3565 -0.788844 0)
(35.6355 -0.875301 0)
(35.9378 -0.941849 0)
(36.2541 -0.989443 0)
(36.5762 -1.01961 0)
(36.8969 -1.03403 0)
(37.2102 -1.03463 0)
(37.5118 -1.02323 0)
(37.7981 -1.00158 0)
(38.067 -0.971514 0)
(38.3167 -0.934894 0)
(38.5467 -0.893476 0)
(38.7569 -0.848848 0)
(38.9476 -0.802405 0)
(39.1197 -0.755345 0)
(39.274 -0.708671 0)
(39.4118 -0.663195 0)
(39.5342 -0.619549 0)
(39.6424 -0.578195 0)
(39.7377 -0.539454 0)
(39.8212 -0.50352 0)
(39.8941 -0.470483 0)
(39.9573 -0.440341 0)
(40.0118 -0.413025 0)
(40.0586 -0.388411 0)
(40.0983 -0.366335 0)
(40.1317 -0.346611 0)
(40.1594 -0.329041 0)
(40.182 -0.313422 0)
(40.2 -0.299555 0)
(40.2138 -0.287244 0)
(40.2238 -0.276306 0)
(40.2304 -0.266567 0)
(40.2338 -0.25788 0)
(40.2344 -0.250118 0)
(40.2323 -0.243163 0)
(40.2278 -0.236901 0)
(40.221 -0.231233 0)
(40.2122 -0.226066 0)
(40.2015 -0.221324 0)
(40.189 -0.216939 0)
(40.1748 -0.212852 0)
(40.1591 -0.209014 0)
(40.1419 -0.205385 0)
(40.1233 -0.201928 0)
(40.1035 -0.198616 0)
(40.0824 -0.195421 0)
(40.0603 -0.192326 0)
(40.037 -0.189313 0)
(40.0128 -0.186368 0)
(39.9877 -0.183482 0)
(39.9616 -0.180646 0)
(39.9348 -0.177853 0)
(39.9071 -0.1751 0)
(39.8788 -0.172383 0)
(39.8497 -0.1697 0)
(39.8201 -0.167049 0)
(39.7898 -0.164432 0)
(39.759 -0.161844 0)
(39.7277 -0.159284 0)
(39.6959 -0.156751 0)
(39.6636 -0.154243 0)
(39.6309 -0.151762 0)
(39.5979 -0.149308 0)
(39.5645 -0.14688 0)
(39.5307 -0.144479 0)
(39.4967 -0.142106 0)
(39.4623 -0.139762 0)
(39.4278 -0.137446 0)
(39.393 -0.13516 0)
(39.358 -0.132903 0)
(39.3228 -0.130678 0)
(39.2875 -0.128483 0)
(39.252 -0.126319 0)
(39.2164 -0.124187 0)
(39.1807 -0.122087 0)
(39.1449 -0.120019 0)
(39.1091 -0.117984 0)
(39.0732 -0.115981 0)
(39.0373 -0.114011 0)
(39.0014 -0.112074 0)
(38.9654 -0.11017 0)
(38.9295 -0.108299 0)
(38.8936 -0.106461 0)
(38.8578 -0.104656 0)
(38.822 -0.102884 0)
(38.7863 -0.101143 0)
(38.7506 -0.099437 0)
(38.7151 -0.0977615 0)
(38.6796 -0.0961199 0)
(38.6442 -0.0945081 0)
(38.609 -0.0929304 0)
(38.5739 -0.0913812 0)
(38.5389 -0.0898666 0)
(38.5041 -0.0883784 0)
(38.4694 -0.0869262 0)
(38.4349 -0.0854968 0)
(38.4005 -0.0841067 0)
(38.3663 -0.082733 0)
(38.3323 -0.081406 0)
(38.2984 -0.0800824 0)
(38.2648 -0.0788217 0)
(38.2313 -0.0775377 0)
(38.1981 -0.0763518 0)
(38.1648 -0.0750852 0)
(38.1323 -0.0739925 0)
(38.0991 -0.0726953 0)
(38.0675 -0.0717356 0)
(38.0339 -0.070303 0)
(38.0041 -0.0695573 0)
(37.9687 -0.0677631 0)
(37.943 -0.0673864 0)
(37.9024 -0.0647438 0)
(37.8864 -0.0649692 0)
(37.8328 -0.0603847 0)
(34.575 -0.131369 0)
(34.6854 -0.369897 0)
(34.874 -0.583305 0)
(35.1127 -0.7755 0)
(35.373 -0.944826 0)
(35.6281 -1.08631 0)
(35.8567 -1.19728 0)
(36.0425 -1.2782 0)
(36.1777 -1.33179 0)
(36.2588 -1.36116 0)
(36.2884 -1.36943 0)
(36.2697 -1.35995 0)
(36.2083 -1.33558 0)
(36.1101 -1.299 0)
(35.9808 -1.25282 0)
(35.8261 -1.19949 0)
(35.6509 -1.14115 0)
(35.4599 -1.07961 0)
(35.2574 -1.01641 0)
(35.0466 -0.952827 0)
(34.8305 -0.889913 0)
(34.6116 -0.828536 0)
(34.3918 -0.769372 0)
(34.1727 -0.712896 0)
(33.9555 -0.659484 0)
(33.741 -0.609364 0)
(33.5301 -0.56266 0)
(33.3231 -0.519396 0)
(33.1204 -0.479527 0)
(32.9222 -0.442946 0)
(32.7285 -0.409505 0)
(32.5394 -0.379035 0)
(32.3548 -0.351332 0)
(32.1747 -0.326198 0)
(31.999 -0.30343 0)
(31.8275 -0.282823 0)
(31.6602 -0.264177 0)
(31.4968 -0.247302 0)
(31.3373 -0.232011 0)
(31.1815 -0.218122 0)
(31.0293 -0.205479 0)
(30.8806 -0.193949 0)
(30.7353 -0.18342 0)
(30.5933 -0.173788 0)
(30.4545 -0.164962 0)
(30.3189 -0.156858 0)
(30.1863 -0.149399 0)
(30.0567 -0.142519 0)
(29.93 -0.136156 0)
(29.8061 -0.130259 0)
(29.685 -0.124781 0)
(29.5667 -0.119677 0)
(29.451 -0.114912 0)
(29.3379 -0.110453 0)
(29.2274 -0.10627 0)
(29.1194 -0.102337 0)
(29.0138 -0.0986295 0)
(28.9106 -0.095128 0)
(28.8098 -0.091814 0)
(28.7113 -0.0886712 0)
(28.615 -0.0856852 0)
(28.521 -0.0828439 0)
(28.4291 -0.0801373 0)
(28.3393 -0.0775591 0)
(28.2516 -0.0751039 0)
(28.1658 -0.0727652 0)
(28.0821 -0.0705356 0)
(28.0003 -0.0684075 0)
(27.9203 -0.066374 0)
(27.8421 -0.064429 0)
(27.7658 -0.062567 0)
(27.6911 -0.0607829 0)
(27.6182 -0.0590724 0)
(27.5469 -0.0574312 0)
(27.4772 -0.0558557 0)
(27.409 -0.0543423 0)
(27.3424 -0.052888 0)
(27.2772 -0.0514899 0)
(27.2135 -0.0501455 0)
(27.1512 -0.0488521 0)
(27.0902 -0.0476075 0)
(27.0306 -0.0464095 0)
(26.9722 -0.0452564 0)
(26.9151 -0.0441459 0)
(26.8592 -0.0430766 0)
(26.8045 -0.0420466 0)
(26.751 -0.0410545 0)
(26.6985 -0.0400988 0)
(26.6471 -0.0391782 0)
(26.5968 -0.0382912 0)
(26.5475 -0.0374366 0)
(26.4992 -0.0366133 0)
(26.4519 -0.0358201 0)
(26.4055 -0.0350558 0)
(26.36 -0.0343194 0)
(26.3153 -0.03361 0)
(26.2716 -0.0329264 0)
(26.2287 -0.0322681 0)
(26.1865 -0.0316334 0)
(26.1452 -0.0310226 0)
(26.1046 -0.0304332 0)
(26.0648 -0.0298669 0)
(26.0257 -0.0293193 0)
(25.9872 -0.0287948 0)
(25.9495 -0.0282852 0)
(25.9124 -0.0278005 0)
(25.876 -0.0273241 0)
(25.8401 -0.0268782 0)
(25.805 -0.0264271 0)
(25.7702 -0.0260204 0)
(25.7364 -0.0255799 0)
(25.7024 -0.0252138 0)
(25.6702 -0.0247542 0)
(25.6365 -0.0244277 0)
(25.6066 -0.0238898 0)
(25.572 -0.0235804 0)
(25.5465 -0.0228629 0)
(25.5078 -0.0224768 0)
(25.4923 -0.0215349 0)
(25.4418 -0.0208965 0)
(34.5157 -0.0901567 0)
(34.2324 -0.356069 0)
(33.6678 -0.60884 0)
(32.8586 -0.815142 0)
(31.8677 -0.966536 0)
(30.7513 -1.06046 0)
(29.5559 -1.10107 0)
(28.3172 -1.09603 0)
(27.0693 -1.05631 0)
(25.8339 -0.99018 0)
(24.6374 -0.907114 0)
(23.4876 -0.815903 0)
(22.3964 -0.719618 0)
(21.3711 -0.622996 0)
(20.4148 -0.529848 0)
(19.5286 -0.442484 0)
(18.7123 -0.362323 0)
(17.9643 -0.290101 0)
(17.2822 -0.226047 0)
(16.663 -0.170027 0)
(16.1029 -0.121664 0)
(15.5979 -0.080416 0)
(15.144 -0.0456552 0)
(14.7369 -0.0167194 0)
(14.3726 0.00705229 0)
(14.047 0.0262995 0)
(13.7563 0.0416261 0)
(13.4969 0.0535862 0)