/*--------------------------------*- C++ -*----------------------------------*\
  =========                 |
  \\      /  F ield         | OpenFOAM: The Open Source CFD Toolbox
   \\    /   O peration     | Website:  https://openfoam.org
    \\  /    A nd           | Version:  7
     \\/     M anipulation  |
\*---------------------------------------------------------------------------*/
FoamFile
{
    version     2.0;
    format      ascii;
    class       surfaceScalarField;
    location    "0.195";
    object      phi;
}
// * * * * * * * * * * * * * * * * * * * * * * * * * * * * * * * * * * * * * //

dimensions      [1 0 -1 0 0 0 0];

internalField   nonuniform List<scalar> 
36620
(
0.000456458
0.000905673
8.75729e-06
0.00024521
0.00020641
5.10499e-06
0.000162932
7.50158e-05
7.65503e-06
0.00013161
2.67827e-05
5.31564e-06
0.000113545
1.21287e-05
7.24537e-06
0.000103912
6.1514e-06
5.41861e-06
9.79369e-05
1.67019e-06
6.96918e-06
9.34924e-05
2.42179e-06
5.5038e-06
8.94916e-05
1.64452e-06
6.71923e-06
8.61264e-05
3.12428e-06
5.5308e-06
8.34801e-05
2.38487e-06
6.47871e-06
8.17393e-05
3.3603e-06
5.52138e-06
8.08625e-05
2.63505e-06
6.25624e-06
8.0739e-05
3.48122e-06
5.48881e-06
8.15095e-05
2.76984e-06
6.04994e-06
8.24511e-05
3.87434e-06
5.43893e-06
8.46723e-05
2.72439e-06
5.85743e-06
8.55728e-05
4.95944e-06
5.37964e-06
7.90643e-05
1.23438e-05
5.70344e-06
2.07903e-06
5.22641e-06
8.35286e-05
0.000992477
0.00128179
2.75805e-06
0.000731506
0.000468695
-5.96585e-07
0.000573789
0.000231113
2.02738e-06
0.000505773
9.57498e-05
-2.78451e-07
0.000473228
4.41731e-05
1.68193e-06
0.000463213
1.80648e-05
-1.39386e-07
0.000459035
6.84774e-06
1.41638e-06
0.000458283
6.42882e-06
-5.41324e-08
0.00045575
7.08888e-06
1.16423e-06
0.000454793
9.14162e-06
-2.99809e-08
0.000453271
8.96019e-06
9.20201e-07
0.000453858
9.73167e-06
-4.13714e-08
0.00045445
9.13772e-06
6.95936e-07
0.000456645
9.98369e-06
-7.46789e-08
0.000459395
8.8957e-06
4.88418e-07
0.000462149
1.12625e-05
-1.21959e-07
0.000468046
7.10501e-06
2.90715e-07
0.000468614
1.55626e-05
-1.70217e-07
0.000493566
-1.39904e-06
6.72805e-08
-1.19157e-06
-3.64301e-07
0.000508819
0.00138257
0.00126416
6.76179e-06
0.00127225
0.000576026
3.60164e-06
0.00113897
0.000358105
6.08084e-06
0.00105613
0.000174753
3.73948e-06
0.00101282
8.22367e-05
5.66505e-06
0.00100149
2.65662e-05
3.82847e-06
0.00100089
3.62111e-06
5.38418e-06
0.00100524
3.85633e-07
3.91358e-06
0.00100682
3.41569e-06
5.13201e-06
0.00100998
6.04971e-06
3.93851e-06
0.00101222
6.84858e-06
4.88802e-06
0.001017
7.03868e-06
3.92666e-06
0.00102172
6.68505e-06
4.6627e-06
0.00102821
7.3921e-06
3.8927e-06
0.00103535
5.82981e-06
4.45436e-06
0.00104219
9.78383e-06
3.8402e-06
0.00105149
3.29719e-06
4.26235e-06
0.00105701
1.64467e-05
3.77215e-06
0.00106138
5.66623e-07
4.13202e-06
3.64094e-05
3.65292e-06
0.00103086
0.00153488
0.00109789
3.00608e-06
0.00155686
0.000554649
-2.52047e-08
0.00151245
0.000399687
2.42395e-06
0.00146674
0.00021993
1.18914e-07
0.00143539
0.000111684
2.08164e-06
0.00142516
3.7409e-05
2.65154e-07
0.00142317
5.18643e-06
1.82422e-06
0.00142606
-9.36427e-07
3.54859e-07
0.00142735
3.11692e-06
1.573e-06
0.00143017
6.321e-06
3.77751e-07
0.00143262
7.58447e-06
1.32695e-06
0.00143744
7.43966e-06
3.64727e-07
0.0014428
6.80438e-06
1.10213e-06
0.00144938
7.95882e-06
3.30828e-07
0.00145776
4.81249e-06
8.9477e-07
0.00146418
1.20042e-05
2.83621e-07
0.00147694
-6.7467e-07
6.96553e-07
0.00148044
2.26122e-05
2.33705e-07
0.00150274
-1.19817e-05
4.62665e-07
4.69561e-05
6.65649e-08
0.00150254
0.00157277
0.000890881
5.9355e-06
0.00165799
0.000466924
3.11635e-06
0.0016801
0.000371689
5.47796e-06
0.0016763
0.000220072
3.16432e-06
0.00166379
0.000119211
5.09402e-06
0.00165595
4.29008e-05
3.26258e-06
0.00165103
6.803e-06
4.82151e-06
0.00165023
-1.5583e-06
3.35135e-06
0.00164913
2.07324e-06
4.5695e-06
0.00165025
5.04415e-06
3.37473e-06
0.00165174
6.03366e-06
4.32353e-06
0.00165575
5.45981e-06
3.36152e-06
0.00166063
4.2873e-06
4.09723e-06
0.00166706
5.59776e-06
3.32724e-06
0.00167452
1.67425e-06
3.88823e-06
0.00168224
9.90621e-06
3.2733e-06
0.00169103
-3.71283e-06
3.69668e-06
0.00169949
2.08443e-05
3.19997e-06
0.0017043
-1.01806e-05
3.56406e-06
5.81105e-05
3.09706e-06
0.00170043
0.00156358
0.00069546
3.46424e-06
0.00166304
0.000367409
6.74598e-07
0.00172026
0.000311081
2.98494e-06
0.00174605
0.000193074
6.71606e-07
0.00175278
0.000109958
2.61218e-06
0.00175301
4.28255e-05
7.87859e-07
0.00174912
9.94069e-06
2.34401e-06
0.00174689
1.77561e-06
8.7342e-07
0.00174476
4.49414e-06
2.08996e-06
0.00174524
6.7716e-06
8.93908e-07
0.00174645
7.09547e-06
1.84208e-06
0.00175012
6.18619e-06
8.80292e-07
0.00175465
4.52264e-06
1.61783e-06
0.00176077
6.00018e-06
8.46907e-07
0.00176782
1.42097e-06
1.41112e-06
0.00177555
1.02742e-05
8.00278e-07
0.00178452
-4.44522e-06
1.21294e-06
0.00179382
2.0699e-05
7.46875e-07
0.00180545
-1.26094e-05
9.8803e-07
4.85086e-05
6.06345e-07
0.00182482
0.00155265
0.000509167
5.31606e-06
0.00164992
0.000268077
2.68091e-06
0.00171962
0.000236006
4.94868e-06
0.00176004
0.000149443
2.64997e-06
0.00177808
8.74219e-05
4.57935e-06
0.00178371
3.54131e-05
2.75253e-06
0.0017818
9.16504e-06
4.31303e-06
0.00178023
2.49717e-06
2.84409e-06
0.0017785
4.51888e-06
4.06166e-06
0.00177939
6.04715e-06
2.86656e-06
0.00178092
5.79535e-06
3.81481e-06
0.00178485
4.62051e-06
2.85293e-06
0.0017893
2.83951e-06
3.58852e-06
0.00179586
3.98476e-06
2.81852e-06
0.00180206
4.75977e-08
3.37971e-06
0.00181112
7.35489e-06
2.76401e-06
0.00181727
-4.32159e-06
3.18754e-06
0.00182953
1.56596e-05
2.68972e-06
0.00183225
-8.16904e-06
3.04042e-06
4.19459e-05
2.58716e-06
0.00184661
0.00154204
0.000334863
3.90127e-06
0.00163344
0.000175998
1.2709e-06
0.00170712
0.000158379
3.50543e-06
0.00175347
0.000101335
1.1966e-06
0.00177753
6.03261e-05
3.12315e-06
0.00178727
2.53567e-05
1.29307e-06
0.00178741
7.80942e-06
2.84667e-06
0.00178709
3.43412e-06
1.37444e-06
0.00178667
4.68957e-06
2.59039e-06
0.00178883
5.51053e-06
1.39473e-06
0.00179128
5.01247e-06
2.34245e-06
0.00179572
3.99717e-06
1.38071e-06
0.00180027
2.51293e-06
2.11786e-06
0.00180688
3.38491e-06
1.34749e-06
0.00181292
3.01162e-07
1.91083e-06
0.00182205
5.83065e-06
1.29998e-06
0.00182857
-3.08691e-06
1.71372e-06
0.00184116
1.17433e-05
1.24145e-06
0.00184824
-6.54955e-06
1.5055e-06
2.73113e-05
1.11807e-06
0.00187215
0.00153615
0.000165575
4.79244e-06
0.00162372
8.67759e-05
2.24069e-06
0.00169806
7.91268e-05
4.45629e-06
0.00174598
5.06896e-05
2.1615e-06
0.00177201
3.03117e-05
4.0878e-06
0.00178327
1.28126e-05
2.2612e-06
0.00178493
3.96108e-06
3.81997e-06
0.0017862
1.79225e-06
2.35053e-06
0.00178718
2.47524e-06
3.56745e-06
0.00179046
2.86371e-06
2.37235e-06
0.00179365
2.51112e-06
3.32057e-06
0.00179859
1.89471e-06
2.35882e-06
0.00180329
1.05426e-06
3.0949e-06
0.00181023
1.48241e-06
2.32454e-06
0.00181595
-1.09323e-07
2.8866e-06
0.00182567
2.75687e-06
2.27128e-06
0.00183107
-1.70782e-06
2.69293e-06
0.00184458
5.9429e-06
2.20001e-06
0.00184843
-2.71845e-06
2.52667e-06
1.54065e-05
2.09246e-06
0.00186863
0.00153288
2.30074e-09
4.33453e-06
0.00161845
-7.24078e-10
1.78343e-06
0.00169313
-2.1902e-09
3.98818e-06
0.00174158
-2.46163e-09
1.6875e-06
0.00176839
-2.34309e-09
3.61036e-06
0.0017804
-2.19819e-09
1.78035e-06
0.00178266
-2.38555e-09
3.33528e-06
0.00178456
-2.25005e-09
1.86381e-06
0.00178629
-3.14484e-09
3.08016e-06
0.00179027
2.26133e-10
1.88488e-06
0.00179396
-3.52455e-09
2.83276e-06
0.00179917
1.20394e-08
1.87109e-06
0.00180396
-8.03498e-09
2.60754e-06
0.00181091
5.31401e-08
1.83747e-06
0.00181663
-2.70867e-08
2.39976e-06
0.00182631
1.98081e-07
1.78765e-06
0.00183196
-8.44589e-08
2.20419e-06
0.00184547
6.14319e-07
1.723e-06
0.00185093
2.02688e-08
2.0157e-06
1.38967e-06
1.61008e-06
0.00187373
0.00153288
-0.000165571
4.33453e-06
0.00161845
-8.67773e-05
1.78343e-06
0.00169313
-7.91312e-05
3.98819e-06
0.00174158
-5.06945e-05
1.6875e-06
0.00176839
-3.03163e-05
3.61037e-06
0.0017804
-1.28171e-05
1.78035e-06
0.00178266
-3.96582e-06
3.33529e-06
0.00178456
-1.79728e-06
1.8638e-06
0.00178629
-2.48134e-06
3.08016e-06
0.00179027
-2.86524e-06
1.88484e-06
0.00179396
-2.51759e-06
2.83276e-06
0.00179918
-1.8764e-06
1.87092e-06
0.00180397
-1.06889e-06
2.60751e-06
0.00181093
-1.38367e-06
1.83703e-06
0.00181664
5.62425e-08
2.39981e-06
0.00182633
-2.36652e-06
1.78624e-06
0.00183195
1.56424e-06
2.20464e-06
0.00184546
-4.70063e-06
1.72067e-06
0.0018509
2.77378e-06
2.01822e-06
-1.25431e-05
1.60699e-06
0.00187361
0.00153615
-0.000334858
4.79244e-06
0.00162372
-0.000176
2.24069e-06
0.00169806
-0.000158383
4.45629e-06
0.00174598
-0.00010134
2.16149e-06
0.00177201
-6.03308e-05
4.08779e-06
0.00178327
-2.5361e-05
2.2612e-06
0.00178493
-7.81414e-06
3.81996e-06
0.0017862
-3.43866e-06
2.35053e-06
0.00178718
-4.6958e-06
3.56745e-06
0.00179046
-5.51037e-06
2.37239e-06
0.00179365
-5.01918e-06
3.32057e-06
0.00179858
-3.97447e-06
2.35899e-06
0.00180329
-2.52761e-06
3.09493e-06
0.00181022
-3.28364e-06
2.32494e-06
0.00181594
-3.51628e-07
2.88655e-06
0.00182566
-5.44725e-06
2.27265e-06
0.00183109
2.9183e-06
2.69251e-06
0.00184462
-1.05273e-05
2.20227e-06
0.00184855
6.53652e-06
2.52438e-06
-2.45433e-05
2.0954e-06
0.00186884
0.00154204
-0.000509162
3.90127e-06
0.00163344
-0.000268079
1.2709e-06
0.00170712
-0.00023601
3.50543e-06
0.00175347
-0.000149448
1.1966e-06
0.00177753
-8.74265e-05
3.12315e-06
0.00178727
-3.54175e-05
1.29307e-06
0.00178741
-9.16971e-06
2.84668e-06
0.00178709
-2.50222e-06
1.37443e-06
0.00178667
-4.52481e-06
2.59039e-06
0.00178883
-6.04919e-06
1.39469e-06
0.00179129
-5.80114e-06
2.34244e-06
0.00179573
-4.60467e-06
1.38055e-06
0.00180028
-2.85103e-06
2.11783e-06
0.0018069
-3.89742e-06
1.34719e-06
0.00181293
-9.10075e-08
1.91087e-06
0.00182209
-6.99213e-06
1.2987e-06
0.00182858
4.18316e-06
1.71419e-06
0.00184117
-1.44528e-05
1.23933e-06
0.00184828
8.13685e-06
1.50813e-06
-3.91013e-05
1.11541e-06
0.0018721
0.00155265
-0.000695456
5.31605e-06
0.00164992
-0.000367411
2.6809e-06
0.00171962
-0.000311086
4.94867e-06
0.00176004
-0.000193078
2.64996e-06
0.00177808
-0.000109963
4.57934e-06
0.00178371
-4.28298e-05
2.75252e-06
0.0017818
-9.94531e-06
4.31301e-06
0.00178023
-1.78032e-06
2.84409e-06
0.0017785
-4.50008e-06
4.06166e-06
0.00177939
-6.77251e-06
2.8666e-06
0.00178092
-7.10081e-06
3.81481e-06
0.00178485
-6.16881e-06
2.85307e-06
0.0017893
-4.53138e-06
3.58853e-06
0.00179586
-5.91815e-06
2.81874e-06
0.00180205
-1.45442e-06
3.37967e-06
0.00181114
-9.94006e-06
2.7652e-06
0.0018173
4.29518e-06
3.18715e-06
0.00182961
-1.95491e-05
2.69179e-06
0.00183246
1.24585e-05
3.0385e-06
-4.58152e-05
2.58968e-06
0.00184696
0.00156358
-0.000890876
3.46423e-06
0.00166304
-0.000466926
6.74593e-07
0.00172026
-0.000371694
2.98494e-06
0.00174605
-0.000220077
6.71601e-07
0.00175278
-0.000119216
2.61218e-06
0.00175301
-4.29051e-05
7.87857e-07
0.00174912
-6.80762e-06
2.34402e-06
0.00174689
1.5531e-06
8.73418e-07
0.00174476
-2.07865e-06
2.08996e-06
0.00174524
-5.04742e-06
8.93876e-07
0.00174645
-6.03732e-06
1.84208e-06
0.00175013
-5.45121e-06
8.80167e-07
0.00175465
-4.2895e-06
1.61782e-06
0.0017608
-5.54007e-06
8.46709e-07
0.00176782
-1.68793e-06
1.41117e-06
0.00177561
-9.62482e-06
7.99252e-07
0.00178453
3.61213e-06
1.21344e-06
0.00179391
-1.97757e-05
7.45023e-07
0.00180557
1.00112e-05
9.907e-07
-5.54234e-05
6.04072e-07
0.00182493
0.00157277
-0.00109789
5.93549e-06
0.00165799
-0.000554651
3.11634e-06
0.0016801
-0.000399691
5.47795e-06
0.0016763
-0.000219935
3.16431e-06
0.00166379
-0.000111688
5.09401e-06
0.00165595
-3.74131e-05
3.26257e-06
0.00165102
-5.19098e-06
4.82151e-06
0.00165022
9.31491e-07
3.35135e-06
0.00164913
-3.12214e-06
4.56949e-06
0.00165025
-6.3238e-06
3.37475e-06
0.00165174
-7.58714e-06
4.32352e-06
0.00165575
-7.43312e-06
3.36162e-06
0.00166062
-6.80115e-06
4.09724e-06
0.00166708
-7.91763e-06
3.3274e-06
0.00167451
-4.8074e-06
3.88821e-06
0.0016823
-1.17907e-05
3.27416e-06
0.00169107
5.92304e-07
3.69639e-06
0.00169969
-2.17057e-05
3.2017e-06
0.00170466
1.16741e-05
3.56271e-06
-4.47027e-05
3.09896e-06
0.00170118
0.00153488
-0.00126415
3.00606e-06
0.00155685
-0.000576027
-2.52156e-08
0.00151245
-0.000358109
2.42394e-06
0.00146674
-0.000174756
1.18904e-07
0.00143539
-8.22399e-05
2.08163e-06
0.00142515
-2.657e-05
2.65149e-07
0.00142317
-3.62543e-06
1.82423e-06
0.00142605
-3.90617e-07
3.54857e-07
0.00142734
-3.42019e-06
1.573e-06
0.00143017
-6.05421e-06
3.77723e-07
0.00143262
-6.85007e-06
1.32695e-06
0.00143745
-7.04045e-06
3.64626e-07
0.00144281
-6.67736e-06
1.10215e-06
0.00144942
-7.38033e-06
3.30652e-07
0.00145777
-5.80483e-06
8.94864e-07
0.0014643
-9.66646e-06
2.82917e-07
0.00147696
-3.30078e-06
6.97046e-07
0.00148075
-1.58137e-05
2.32153e-07
0.00150298
-7.8812e-07
4.65393e-07
-3.46098e-05
6.42979e-08
0.00150316
0.00138257
-0.00128179
6.76178e-06
0.00127225
-0.000468694
3.60163e-06
0.00113897
-0.000231114
6.08082e-06
0.00105612
-9.57516e-05
3.73946e-06
0.00101282
-4.41751e-05
5.66503e-06
0.00100149
-1.80674e-05
3.82845e-06
0.00100089
-6.85099e-06
5.38417e-06
0.00100524
-6.43243e-06
3.91357e-06
0.00100682
-7.09236e-06
5.13199e-06
0.00100998
-9.14458e-06
3.93851e-06
0.00101222
-8.96187e-06
4.88801e-06
0.001017
-9.73298e-06
3.92671e-06
0.00102172
-9.133e-06
4.66271e-06
0.00102822
-9.98099e-06
3.89275e-06
0.00103537
-8.87534e-06
4.45436e-06
0.00104229
-1.12167e-05
3.84079e-06
0.00105156
-7.09729e-06
4.26222e-06
0.00105741
-1.52514e-05
3.77334e-06
0.00106184
1.15511e-06
4.13146e-06
1.93835e-06
3.65387e-06
0.00103222
0.000992477
-0.000905667
2.75804e-06
0.000731504
-0.000206406
-5.96594e-07
0.000573787
-7.50142e-05
2.02737e-06
0.000505771
-2.67817e-05
-2.78464e-07
0.000473226
-1.2128e-05
1.68191e-06
0.00046321
-6.15131e-06
-1.39398e-07
0.000459033
-1.67063e-06
1.41637e-06
0.000458281
-2.42264e-06
-5.41416e-08
0.000455749
-1.64538e-06
1.16422e-06
0.000454792
-3.12536e-06
-3.00017e-08
0.000453272
-2.38545e-06
9.20206e-07
0.000453862
-3.36178e-06
-4.14379e-08
0.000454458
-2.63379e-06
6.95973e-07
0.000456663
-3.48337e-06
-7.48048e-08
0.000459424
-2.76239e-06
4.8853e-07
0.000462223
-3.8663e-06
-1.22415e-07
0.000468111
-2.70985e-06
2.91126e-07
0.000468916
-4.88432e-06
-1.71265e-07
0.000493588
-1.22731e-05
6.95707e-08
-1.84248e-06
-3.65908e-07
0.000509161
0.000456458
8.75727e-06
0.00024521
5.10496e-06
0.000162932
7.65502e-06
0.00013161
5.31563e-06
0.000113544
7.24536e-06
0.000103912
5.4186e-06
9.79362e-05
6.96918e-06
9.34917e-05
5.50379e-06
8.94911e-05
6.71922e-06
8.61261e-05
5.5308e-06
8.34804e-05
6.4787e-06
8.17397e-05
5.52141e-06
8.08656e-05
6.25624e-06
8.07428e-05
5.4889e-06
8.15221e-05
6.04989e-06
8.24751e-05
5.43932e-06
8.47122e-05
5.85723e-06
8.56906e-05
5.38062e-06
7.92636e-05
5.70243e-06
5.23068e-06
8.38951e-05
0.000876475
0.000500559
2.48987e-06
0.00051627
0.000362711
3.12947e-06
0.000359697
0.00016255
2.12695e-06
0.000298903
6.40539e-05
2.8247e-06
0.000272809
3.24434e-05
2.16676e-06
0.000258431
1.90457e-05
2.60715e-06
0.000251746
1.40603e-05
2.16766e-06
0.000246004
1.21649e-05
2.46636e-06
0.000242765
1.20616e-05
2.18853e-06
0.000239147
1.19944e-05
2.37616e-06
0.000237442
1.21432e-05
2.20482e-06
0.000235679
1.20562e-05
2.30947e-06
0.000235596
1.20885e-05
2.21507e-06
0.000235545
1.20656e-05
2.25995e-06
0.000237032
1.18796e-05
2.22117e-06
0.000238139
1.23012e-05
2.2232e-06
0.000242136
1.03815e-05
2.22565e-06
0.000239499
1.70116e-05
2.18991e-06
0.000290269
-3.58461e-05
2.21722e-06
-1.63671e-05
2.22299e-06
0.000321483
0.00136363
0.000505266
5.74544e-06
0.00118235
0.000537647
6.31922e-06
0.00101576
0.000325587
5.46448e-06
0.000907146
0.000166418
5.99423e-06
0.00085222
8.40876e-05
5.46183e-06
0.000827505
3.88212e-05
5.78978e-06
0.000821168
1.79472e-05
5.45528e-06
0.000819172
1.0758e-05
5.67466e-06
0.000821225
8.94809e-06
5.47608e-06
0.000822704
9.12211e-06
5.59566e-06
0.000826472
9.05499e-06
5.48484e-06
0.000829913
9.23606e-06
5.53178e-06
0.000835307
9.01471e-06
5.48476e-06
0.000840398
9.34847e-06
5.48188e-06
0.000847528
8.45381e-06
5.48008e-06
0.000853409
1.01977e-05
5.44187e-06
0.000862291
6.21983e-06
5.47485e-06
0.000869411
1.46631e-05
5.40011e-06
0.000861165
-2.24188e-05
5.48374e-06
3.71874e-05
5.44825e-06
0.000812708
0.00146953
0.00041075
2.99168e-06
0.00147145
0.000536127
3.67109e-06
0.00140314
0.000396973
2.60517e-06
0.00132741
0.000242188
3.35578e-06
0.00127751
0.000137216
2.66346e-06
0.00125068
6.70565e-05
3.16922e-06
0.00124201
3.05336e-05
2.69708e-06
0.00123915
1.62875e-05
3.04575e-06
0.00124129
1.18499e-05
2.74222e-06
0.00124373
1.1319e-05
2.96056e-06
0.00124877
1.08776e-05
2.77243e-06
0.00125373
1.10722e-05
2.89397e-06
0.00126085
1.05001e-05
2.79124e-06
0.00126728
1.15372e-05
2.84416e-06
0.00127681
8.92987e-06
2.80324e-06
0.00128258
1.4458e-05
2.80804e-06
0.00129731
2.51155e-06
2.81031e-06
0.00129724
2.5711e-05
2.78235e-06
0.00132852
-4.2059e-05
2.78665e-06
4.35546e-05
2.81429e-06
0.00133349
0.0014493
0.000330483
5.33239e-06
0.00152378
0.000456088
5.96486e-06
0.00154583
0.000371724
5.13221e-06
0.0015313
0.000250742
5.6608e-06
0.0015125
0.000153182
5.11829e-06
0.00149621
7.89741e-05
5.4535e-06
0.00148848
3.62215e-05
5.11364e-06
0.00148414
1.73281e-05
5.33832e-06
0.00148465
1.01726e-05
5.13535e-06
0.00148609
8.37249e-06
5.25835e-06
0.00149051
7.15771e-06
5.14453e-06
0.00149526
7.11155e-06
5.19436e-06
0.00150223
6.11948e-06
5.14514e-06
0.00150887
7.60775e-06
5.14462e-06
0.00151785
4.01834e-06
5.14113e-06
0.00152536
1.10983e-05
5.10472e-06
0.00153557
-2.60545e-06
5.13674e-06
0.00154426
2.21567e-05
5.06613e-06
0.00153956
-3.17931e-05
5.15521e-06
6.70677e-05
5.12944e-06
0.00152145
0.00144312
0.000261154
3.40666e-06
0.00152851
0.000370169
4.06926e-06
0.00158179
0.000320335
3.08349e-06
0.00160168
0.00022982
3.74122e-06
0.00160803
0.000149059
3.09557e-06
0.00160572
8.18833e-05
3.54498e-06
0.0016039
4.10695e-05
3.11752e-06
0.00160109
2.17334e-05
3.42004e-06
0.00160129
1.36725e-05
3.1476e-06
0.00160214
1.07786e-05
3.33322e-06
0.00160599
8.83963e-06
3.16979e-06
0.00161036
8.36906e-06
3.26903e-06
0.00161705
6.95031e-06
3.18469e-06
0.00162343
8.85692e-06
3.2208e-06
0.00163225
4.21801e-06
3.19277e-06
0.00163925
1.31849e-05
3.18544e-06
0.00165052
-3.81507e-06
3.19529e-06
0.00165695
2.57488e-05
3.16545e-06
0.00167151
-3.56726e-05
3.17146e-06
5.57223e-05
3.20118e-06
0.00169324
0.00142661
0.000204372
4.96278e-06
0.00150606
0.000286182
5.62426e-06
0.00157209
0.00025197
4.79408e-06
0.00161085
0.000185949
5.33284e-06
0.00163405
0.000123924
4.78377e-06
0.00164242
7.00933e-05
5.13398e-06
0.00164612
3.62814e-05
4.78656e-06
0.0016459
1.9475e-05
5.01671e-06
0.00164723
1.18379e-05
4.80574e-06
0.00164851
8.5973e-06
4.93372e-06
0.00165241
6.26007e-06
4.81564e-06
0.00165679
5.49227e-06
4.87049e-06
0.0016632
3.92244e-06
4.81864e-06
0.00166996
5.66556e-06
4.82214e-06
0.00167779
1.32304e-06
4.81622e-06
0.00168662
9.3872e-06
4.78259e-06
0.00169395
-5.16476e-06
4.81285e-06
0.00170607
1.96461e-05
4.74834e-06
0.00170092
-2.405e-05
4.83031e-06
5.58361e-05
4.80205e-06
0.00170711
0.00142822
0.000148995
3.7432e-06
0.00150195
0.000211131
4.41359e-06
0.00156543
0.000189418
3.49226e-06
0.00160758
0.00014189
4.09506e-06
0.00163629
9.65702e-05
3.47768e-06
0.0016498
5.63848e-05
3.8904e-06
0.00165727
3.09939e-05
3.48679e-06
0.00165939
1.80876e-05
3.7617e-06
0.00166206
1.19175e-05
3.50741e-06
0.00166406
8.87928e-06
3.6729e-06
0.00166827
6.60299e-06
3.52426e-06
0.00167278
5.69949e-06
3.60964e-06
0.00167915
4.18419e-06
3.53635e-06
0.00168588
5.72966e-06
3.56242e-06
0.00169358
1.80718e-06
3.54173e-06
0.00170221
9.03086e-06
3.52745e-06
0.00171025
-3.97683e-06
3.54177e-06
0.00172135
1.77574e-05
3.50907e-06
0.00172836
-2.12236e-05
3.52485e-06
3.90101e-05
3.54124e-06
0.00175474
0.00142096
9.86147e-05
4.6358e-06
0.00149027
0.00013818
5.31153e-06
0.0015541
0.000124081
4.47307e-06
0.00159836
9.33548e-05
5.02065e-06
0.0016301
6.37472e-05
4.46029e-06
0.00164643
3.74647e-05
4.82367e-06
0.00165637
2.07902e-05
4.46654e-06
0.00166057
1.22008e-05
4.70402e-06
0.00166484
7.9261e-06
4.48491e-06
0.0016679
5.68074e-06
4.61932e-06
0.00167269
3.91013e-06
4.49606e-06
0.00167753
3.1584e-06
4.55658e-06
0.00168388
2.02416e-06
4.50101e-06
0.00169094
3.05065e-06
4.5087e-06
0.00169814
3.70361e-07
4.50016e-06
0.0017078
5.23581e-06
4.46983e-06
0.00171389
-3.261e-06
4.49747e-06
0.00172745
1.10337e-05
4.4402e-06
0.00172523
-1.16727e-05
4.50884e-06
3.01609e-05
4.48006e-06
0.00174123
0.00142208
4.85585e-05
4.04544e-06
0.00148934
6.8842e-05
4.72474e-06
0.0015511
6.23946e-05
3.84444e-06
0.00159464
4.71092e-05
4.41809e-06
0.00162647
3.24377e-05
3.82271e-06
0.00164355
1.93741e-05
4.21247e-06
0.00165454
1.11327e-05
3.82681e-06
0.00165979
6.86065e-06
4.08432e-06
0.00166493
4.6846e-06
3.84409e-06
0.0016686
3.46478e-06
3.99602e-06
0.00167373
2.49253e-06
3.85785e-06
0.00167872
2.06452e-06
3.93291e-06
0.00168513
1.4241e-06
3.86704e-06
0.00169215
2.0113e-06
3.88568e-06
0.00169937
5.14906e-07
3.86991e-06
0.0017088
3.26344e-06
3.84996e-06
0.00171546
-1.50294e-06
3.86851e-06
0.00172838
6.521e-06
3.82978e-06
0.00173231
-6.60151e-06
3.86091e-06
1.45208e-05
3.85981e-06
0.00175669
0.00141985
-1.19081e-09
4.33562e-06
0.00148586
-1.31364e-09
5.01635e-06
0.00154754
-7.51326e-11
4.1618e-06
0.00159117
5.37951e-10
4.71982e-06
0.00162333
5.03444e-10
4.14378e-06
0.00164091
-9.86113e-12
4.51927e-06
0.00165256
-1.95962e-11
4.14933e-06
0.00165853
5.124e-10
4.3955e-06
0.0016643
1.21838e-09
4.16687e-06
0.00166842
4.5824e-09
4.30902e-06
0.00167382
1.56034e-09
4.17916e-06
0.00167896
1.57529e-08
4.24618e-06
0.00168539
-3.98083e-09
4.18606e-06
0.00169253
5.40861e-08
4.19856e-06
0.00169962
-1.08876e-08
4.18692e-06
0.00170936
1.86672e-07
4.16094e-06
0.00171546
1.38311e-08
4.1849e-06
0.00172901
5.8308e-07
4.13604e-06
0.0017303
2.76773e-07
4.18783e-06
1.72233e-06
4.16728e-06
0.00175105
0.00141985
-4.85609e-05
4.33562e-06
0.00148586
-6.88447e-05
5.01635e-06
0.00154754
-6.23948e-05
4.1618e-06
0.00159117
-4.71081e-05
4.71982e-06
0.00162333
-3.24367e-05
4.14378e-06
0.00164091
-1.9374e-05
4.51927e-06
0.00165256
-1.11328e-05
4.14933e-06
0.00165853
-6.85909e-06
4.3955e-06
0.0016643
-4.68245e-06
4.16687e-06
0.00166842
-3.45438e-06
4.30904e-06
0.00167381
-2.49069e-06
4.17916e-06
0.00167895
-2.02825e-06
4.24626e-06
0.00168539
-1.43519e-06
4.18606e-06
0.00169251
-1.89114e-06
4.19876e-06
0.00169961
-5.45189e-07
4.18688e-06
0.00170935
-2.88687e-06
4.16163e-06
0.00171547
1.50129e-06
4.18447e-06
0.00172904
-5.36691e-06
4.13742e-06
0.00173035
7.13619e-06
4.18617e-06
-1.12009e-05
4.16956e-06
0.00175122
0.00142208
-9.86171e-05
4.04544e-06
0.00148934
-0.000138182
4.72474e-06
0.0015511
-0.000124082
3.84444e-06
0.00159464
-9.33537e-05
4.41809e-06
0.00162647
-6.37461e-05
3.82271e-06
0.00164355
-3.74647e-05
4.21247e-06
0.00165454
-2.07903e-05
3.82681e-06
0.00165979
-1.21998e-05
4.08432e-06
0.00166493
-7.92372e-06
3.84409e-06
0.0016686
-5.67179e-06
3.996e-06
0.00167373
-3.90688e-06
3.85784e-06
0.00167873
-3.12782e-06
3.93283e-06
0.00168513
-2.03171e-06
3.86704e-06
0.00169217
-2.94573e-06
3.88549e-06
0.00169938
-3.91761e-07
3.86993e-06
0.00170883
-4.87152e-06
3.84929e-06
0.00171546
3.28562e-06
3.86892e-06
0.00172839
-9.89008e-06
3.82844e-06
0.00173234
1.21857e-05
3.86253e-06
-2.67154e-05
3.85761e-06
0.00175659
0.00142096
-0.000148997
4.6358e-06
0.00149027
-0.000211133
5.31153e-06
0.0015541
-0.000189418
4.47307e-06
0.00159836
-0.000141889
5.02066e-06
0.0016301
-9.65692e-05
4.46029e-06
0.00164643
-5.63846e-05
4.82368e-06
0.00165637
-3.0994e-05
4.46654e-06
0.00166057
-1.80862e-05
4.70402e-06
0.00166484
-1.19153e-05
4.48491e-06
0.0016679
-8.86965e-06
4.61934e-06
0.00167269
-6.60069e-06
4.49606e-06
0.00167752
-5.66602e-06
4.55666e-06
0.00168388
-4.19374e-06
4.501e-06
0.00169093
-5.61692e-06
4.50889e-06
0.00169814
-1.83504e-06
4.50011e-06
0.00170781
-8.67602e-06
4.47044e-06
0.00171393
3.97048e-06
4.49704e-06
0.00172751
-1.66467e-05
4.44148e-06
0.00172538
2.16546e-05
4.50725e-06
-3.57111e-05
4.48203e-06
0.00174152
0.00142822
-0.000204374
3.7432e-06
0.00150195
-0.000286185
4.41359e-06
0.00156543
-0.00025197
3.49227e-06
0.00160758
-0.000185948
4.09507e-06
0.00163629
-0.000123923
3.47769e-06
0.0016498
-7.00931e-05
3.8904e-06
0.00165727
-3.62816e-05
3.48679e-06
0.00165939
-1.94743e-05
3.7617e-06
0.00166206
-1.18356e-05
3.50741e-06
0.00166406
-8.58943e-06
3.67288e-06
0.00166827
-6.25632e-06
3.52426e-06
0.00167279
-5.46568e-06
3.60958e-06
0.00167915
-3.92718e-06
3.53633e-06
0.00168591
-5.57285e-06
3.56229e-06
0.00169359
-1.33836e-06
3.54172e-06
0.00170225
-9.06156e-06
3.52691e-06
0.00171026
5.19017e-06
3.54212e-06
0.00172141
-1.85879e-05
3.50789e-06
0.00172846
2.44419e-05
3.52634e-06
-5.24165e-05
3.53924e-06
0.00175472
0.00142661
-0.000261156
4.96278e-06
0.00150606
-0.000370172
5.62426e-06
0.00157209
-0.000320335
4.79408e-06
0.00161085
-0.000229819
5.33285e-06
0.00163405
-0.000149058
4.78378e-06
0.00164242
-8.18831e-05
5.13398e-06
0.00164612
-4.10694e-05
4.78656e-06
0.0016459
-2.17323e-05
5.01671e-06
0.00164723
-1.36704e-05
4.80574e-06
0.00164851
-1.07711e-05
4.93374e-06
0.00165241
-8.83652e-06
4.81563e-06
0.00165679
-8.34303e-06
4.87056e-06
0.0016632
-6.95441e-06
4.8186e-06
0.00166996
-8.76534e-06
4.82229e-06
0.00167779
-4.23266e-06
4.81614e-06
0.00168665
-1.28895e-05
4.78305e-06
0.001694
3.8184e-06
4.81244e-06
0.00170619
-2.47635e-05
4.74947e-06
0.00170119
3.59183e-05
4.82881e-06
-5.25573e-05
4.80374e-06
0.00170762
0.00144312
-0.000330485
3.40667e-06
0.00152851
-0.000456091
4.06926e-06
0.00158179
-0.000371725
3.08349e-06
0.00160168
-0.000250741
3.74122e-06
0.00160803
-0.000153181
3.09557e-06
0.00160572
-7.89739e-05
3.54499e-06
0.0016039
-3.62213e-05
3.11753e-06
0.00160109
-1.73275e-05
3.42004e-06
0.00160129
-1.01707e-05
3.1476e-06
0.00160215
-8.36762e-06
3.33321e-06
0.00160598
-7.15352e-06
3.16978e-06
0.00161037
-7.09465e-06
3.269e-06
0.00161704
-6.11636e-06
3.18466e-06
0.00162346
-7.54496e-06
3.22074e-06
0.00163226
-4.01226e-06
3.19274e-06
0.00163932
-1.0866e-05
3.18512e-06
0.00165054
2.65751e-06
3.19553e-06
0.00165712
-2.13172e-05
3.16455e-06
0.00167173
3.20026e-05
3.17264e-06
-6.39237e-05
3.19949e-06
0.00169345
0.0014493
-0.000410752
5.33239e-06
0.00152378
-0.00053613
5.96487e-06
0.00154583
-0.000396974
5.13221e-06
0.0015313
-0.000242189
5.66081e-06
0.0015125
-0.000137216
5.1183e-06
0.00149621
-6.70567e-05
5.45351e-06
0.00148848
-3.05337e-05
5.11364e-06
0.00148414
-1.62874e-05
5.33833e-06
0.00148465
-1.18491e-05
5.13535e-06
0.00148609
-1.13162e-05
5.25836e-06
0.0014905
-1.08748e-05
5.14452e-06
0.00149526
-1.106e-05
5.1944e-06
0.00150223
-1.0495e-05
5.14512e-06
0.00150889
-1.14896e-05
5.14469e-06
0.00151786
-8.91657e-06
5.14108e-06
0.00152543
-1.42886e-05
5.10493e-06
0.00153565
-2.47266e-06
5.13637e-06
0.00154449
-2.50309e-05
5.06716e-06
0.00154006
4.20311e-05
5.15379e-06
-4.11298e-05
5.1309e-06
0.00152261
0.00146953
-0.000505268
2.99169e-06
0.00147145
-0.00053765
3.6711e-06
0.00140314
-0.00032559
2.60518e-06
0.00132741
-0.00016642
3.35579e-06
0.00127751
-8.40893e-05
2.66348e-06
0.00125068
-3.88229e-05
3.16923e-06
0.00124201
-1.79489e-05
2.6971e-06
0.00123915
-1.07598e-05
3.04576e-06
0.00124129
-8.94924e-06
2.74223e-06
0.00124373
-9.12269e-06
2.96055e-06
0.00124877
-9.05379e-06
2.77245e-06
0.00125374
-9.23297e-06
2.89391e-06
0.00126085
-9.00767e-06
2.7913e-06
0.00126732
-9.33175e-06
2.84401e-06
0.00127683
-8.4272e-06
2.80336e-06
0.0012827
-1.01211e-05
2.80769e-06
0.00129737
-6.13481e-06
2.81048e-06
0.0012976
-1.42876e-05
2.78189e-06
0.0013289
2.2401e-05
2.78734e-06
-3.53953e-05
2.81282e-06
0.00133441
0.00136363
-0.000500559
5.74545e-06
0.00118235
-0.000362713
6.31923e-06
0.00101576
-0.000162552
5.46448e-06
0.000907145
-6.40563e-05
5.99423e-06
0.000852219
-3.24456e-05
5.46183e-06
0.000827504
-1.9048e-05
5.78978e-06
0.000821167
-1.40628e-05
5.45528e-06
0.000819171
-1.21673e-05
5.67466e-06
0.000821225
-1.20638e-05
5.47608e-06
0.000822704
-1.19961e-05
5.59566e-06
0.000826473
-1.21444e-05
5.48485e-06
0.000829918
-1.2056e-05
5.53175e-06
0.000835313
-1.20872e-05
5.48481e-06
0.000840418
-1.20592e-05
5.48179e-06
0.000847556
-1.18696e-05
5.48015e-06
0.000853494
-1.22737e-05
5.44187e-06
0.000862431
-1.03599e-05
5.47463e-06
0.000869724
-1.68143e-05
5.40086e-06
0.000861874
3.54774e-05
5.48268e-06
1.66173e-05
5.44943e-06
0.000814776
0.000876475
2.48988e-06
0.00051627
3.12948e-06
0.000359697
2.12696e-06
0.000298902
2.82471e-06
0.000272809
2.16676e-06
0.00025843
2.60716e-06
0.000251746
2.16767e-06
0.000246004
2.46636e-06
0.000242765
2.18853e-06
0.000239148
2.37615e-06
0.000237444
2.20482e-06
0.000235683
2.30944e-06
0.000235602
2.21509e-06
0.000235561
2.25984e-06
0.000237057
2.22124e-06
0.000238197
2.22295e-06
0.000242214
2.22576e-06
0.000239775
2.18981e-06
0.000290214
2.21732e-06
2.22244e-06
0.000321461
0.00106499
0.000308308
-6.34522e-11
0.000780868
0.000287628
-6.3386e-11
0.000589507
0.000193534
-6.00944e-11
0.000501044
9.15581e-05
-5.7357e-11
0.000470946
3.29674e-05
-5.30005e-11
0.000464929
9.88853e-06
-4.9053e-11
0.000464568
4.50298e-06
-4.31959e-11
0.000465424
4.42082e-06
-3.59745e-11
0.000466196
5.1449e-06
-2.74166e-11
0.000467759
5.49335e-06
-2.00398e-11
0.000469936
5.65788e-06
-1.13787e-11
0.000473081
5.72447e-06
-3.62155e-12
0.00047695
5.79331e-06
3.8065e-12
0.000481545
5.94234e-06
1.08372e-11
0.000487164
5.64021e-06
1.62486e-11
0.000491909
7.17722e-06
2.11536e-11
0.000500777
3.61205e-06
2.57957e-11
0.00050035
1.33409e-05
2.96638e-11
0.000516421
-2.92825e-06
3.18025e-11
3.04571e-05
3.46321e-11
0.000499626
0.00141023
0.000274872
-6.24756e-11
0.00137067
0.000333862
-6.31778e-11
0.00129077
0.000278409
-6.12775e-11
0.00122713
0.000160825
-5.95445e-11
0.00119393
7.18056e-05
-5.58124e-11
0.00118421
2.60425e-05
-5.2013e-11
0.00118492
1.03687e-05
-4.54131e-11
0.00118969
7.10292e-06
-3.74424e-11
0.00119563
7.3438e-06
-2.84307e-11
0.00120283
7.59261e-06
-2.11225e-11
0.00121101
7.729e-06
-1.28901e-11
0.00122025
7.77713e-06
-5.39437e-12
0.00123062
7.61233e-06
1.69292e-12
0.0012411
8.47374e-06
9.01988e-12
0.00125422
6.31213e-06
1.43241e-11
0.00126358
1.22117e-05
1.92036e-11
0.00128153
6.56354e-07
2.37236e-11
0.00128536
2.48634e-05
2.75365e-11
0.00130684
-8.66747e-06
2.96607e-11
6.45055e-05
3.22869e-11
0.0012887
0.00142715
0.000221781
-6.32e-11
0.00147903