/*--------------------------------*- C++ -*----------------------------------*\
  =========                 |
  \\      /  F ield         | OpenFOAM: The Open Source CFD Toolbox
   \\    /   O peration     | Website:  https://openfoam.org
    \\  /    A nd           | Version:  7
     \\/     M anipulation  |
\*---------------------------------------------------------------------------*/
FoamFile
{
    version     2.0;
    format      ascii;
    class       surfaceScalarField;
    location    "0.1325";
    object      phi;
}
// * * * * * * * * * * * * * * * * * * * * * * * * * * * * * * * * * * * * * //

dimensions      [1 0 -1 0 0 0 0];

internalField   nonuniform List<scalar> 
21708
(
0.00132621
0.00102737
1.45566e-05
0.000918361
0.000400345
6.96957e-06
0.000712514
0.000192215
1.25533e-05
0.000644532
5.91492e-05
7.45416e-06
0.000623923
7.69026e-06
1.16762e-05
0.000624413
-9.09685e-06
7.70842e-06
0.000625348
-1.25412e-05
1.10051e-05
0.000627108
-1.00351e-05
7.86978e-06
0.000626407
-1.00361e-05
1.04232e-05
0.000626821
-8.61538e-06
7.93591e-06
0.000626026
-9.35151e-06
9.9013e-06
0.000626371
-8.49972e-06
7.92788e-06
0.000625777
-9.05552e-06
9.42302e-06
0.000626055
-8.35603e-06
7.85843e-06
0.000625749
-8.89223e-06
8.97207e-06
0.000624738
-6.97666e-06
7.74027e-06
0.000624744
-8.77009e-06
8.53239e-06
0.000619905
-3.0703e-06
7.5873e-06
0.000573805
3.76326e-05
8.23062e-06
3.95289e-05
7.08381e-06
0.000526797
0.0023017
0.00108986
3.54592e-06
0.00209944
0.000605575
-3.40163e-06
0.00190394
0.000384725
2.29348e-06
0.00181217
0.000152421
-2.65085e-06
0.00178184
3.49239e-05
1.67985e-06
0.00178304
-9.36943e-06
-2.24578e-06
0.00178338
-1.4944e-05
1.0827e-06
0.00178531
-1.05406e-05
-2.05785e-06
0.00178199
-7.63126e-06
5.03087e-07
0.00178131
-6.24915e-06
-1.9916e-06
0.00177803
-6.31312e-06
-2.04009e-08
0.00177731
-6.02724e-06
-1.9994e-06
0.00177457
-6.04919e-06
-5.00108e-07
0.00177365
-5.60875e-06
-2.06886e-06
0.0017721
-6.62113e-06
-9.52715e-07
0.00176781
-7.62839e-07
-2.18569e-06
0.00177499
-1.47853e-05
-1.40247e-06
0.00175389
2.00263e-05
-2.33075e-06
0.00180437
-1.11474e-05
-1.94908e-06
2.4408e-05
-2.95586e-06
0.00182204
0.00263742
0.000809889
1.04363e-05
0.002725
0.000513576
3.97505e-06
0.00271971
0.000380423
9.27065e-06
0.00270089
0.000166417
4.18296e-06
0.00267879
4.72478e-05
8.39448e-06
0.00266531
-2.14681e-06
4.41226e-06
0.0026517
-1.07343e-05
7.70231e-06
0.00264476
-9.33687e-06
4.56015e-06
0.00263723
-7.91603e-06
7.11525e-06
0.0026336
-7.6683e-06
4.62484e-06
0.00262816
-7.75342e-06
6.59259e-06
0.00262515
-7.87791e-06
4.61658e-06
0.00262039
-7.63871e-06
6.11374e-06
0.00261757
-7.57385e-06
4.54665e-06
0.00261318
-8.11075e-06
5.66213e-06
0.00261075
-3.02362e-06
4.42615e-06
0.00260469
-1.41865e-05
5.22344e-06
0.00260075
1.93839e-05
4.25702e-06
0.00258578
-1.38885e-06
4.94976e-06
7.67789e-05
3.88606e-06
0.00252915
0.00264524
0.000527421
4.89484e-06
0.00280927
0.000350359
-1.29474e-06
0.00290693
0.000278619
3.97655e-06
0.00294501
0.000128927
-1.01159e-06
0.00294544
4.22116e-05
3.27423e-06
0.00293788
3.95977e-06
-6.61685e-07
0.00292685
-4.47749e-06
2.66186e-06
0.00292102
-4.5809e-06
-4.76382e-07
0.00291379
-3.69925e-06
2.08529e-06
0.00290963
-3.62562e-06
-4.06406e-07
0.00290363
-3.65484e-06
1.5644e-06
0.00289967
-3.76699e-06
-4.13396e-07
0.00289434
-3.63068e-06
1.08521e-06
0.00289027
-3.26479e-06
-4.83109e-07
0.00288604
-4.73866e-06
6.33133e-07
0.00288138
1.96544e-06
-6.04049e-07
0.00288014
-1.33818e-05
1.90399e-07
0.00287748
2.252e-05
-7.80274e-07
0.00289336
-1.71996e-05
-3.72153e-07
4.72152e-05
-1.29827e-06
0.00292387
0.00263337
0.00025348
8.30823e-06
0.00281074
0.000170175
2.33767e-06
0.00293979
0.000142004
7.45809e-06
0.00299797
6.79724e-05
2.43813e-06
0.00300787
2.43302e-05
6.67098e-06
0.00300285
4.09749e-06
2.70496e-06
0.0029912
-1.06333e-06
6.00421e-06
0.00298407
-1.96504e-06
2.86362e-06
0.00297613
-2.18423e-06
5.42106e-06
0.0029715
-2.47833e-06
2.93123e-06
0.00296521
-2.60453e-06
4.90001e-06
0.00296098
-2.71786e-06
2.92375e-06
0.00295533
-2.64318e-06
4.42124e-06
0.00295148
-2.49884e-06
2.85398e-06
0.00294566
-3.11728e-06
3.96865e-06
0.00294465
-1.46523e-08
2.73176e-06
0.0029341
-6.6122e-06
3.52741e-06
0.00294282
1.09609e-05
2.54537e-06
0.00292663
-4.47614e-06
3.17067e-06
3.5333e-05
2.1805e-06
0.00293599
0.00261462
4.05407e-10
6.53319e-06
0.00278368
4.2655e-10
6.50036e-07
0.00291984
2.95242e-10
5.75212e-06
0.00298674
-1.30621e-10
7.41331e-07
0.00300475
-4.8867e-10
4.98119e-06
0.00300563
-6.93971e-10
1.02441e-06
0.00299798
-6.57307e-10
4.33382e-06
0.00299315
-2.3083e-10
1.19534e-06
0.00298619
8.11538e-10
3.75538e-06
0.00298189
8.64851e-10
1.26551e-06
0.0029757
2.19451e-09
3.23522e-06
0.00297146
4.33107e-09
1.25856e-06
0.00296582
4.43449e-09
2.75626e-06
0.00296187
2.93191e-08
1.18876e-06
0.00295622
-3.35412e-09
2.30394e-06
0.00295475
1.4363e-07
1.06653e-06
0.00294605
-4.08493e-08
1.86241e-06
0.00295533
5.18951e-07
8.80253e-07
0.0029491
6.6782e-08
1.38719e-06
1.12679e-06
4.57989e-07
0.00298251
0.00261462
-0.000253479
6.53319e-06
0.00278368
-0.000170174
6.50036e-07
0.00291984
-0.000142004
5.75212e-06
0.00298674
-6.79727e-05
7.41332e-07
0.00300475
-2.43313e-05
4.98119e-06
0.00300563
-4.09909e-06
1.0244e-06
0.00299798
1.06233e-06
4.33382e-06
0.00299315
1.96472e-06
1.19534e-06
0.00298619
2.18632e-06
3.75541e-06
0.00298189
2.47977e-06
1.26552e-06
0.0029757
2.61072e-06
3.23527e-06
0.00297146
2.72485e-06
1.25857e-06
0.00296581
2.6585e-06
2.75639e-06
0.00296188
2.54218e-06
1.18872e-06
0.0029562
3.1341e-06
2.30428e-06
0.00295477
2.67821e-07
1.06602e-06
0.00294601
6.58601e-06
1.86401e-06
0.00295528
-9.90998e-06
8.78588e-07
0.00294894
4.70693e-06
1.39394e-06
-3.2856e-05
4.56293e-07
0.00298213
0.00263337
-0.000527421
8.30823e-06
0.00281074
-0.000350359
2.33767e-06
0.00293979
-0.000278618
7.45809e-06
0.00299797
-0.000128927
2.43812e-06
0.00300787
-4.22127e-05
6.67098e-06
0.00300285
-3.96129e-06
2.70497e-06
0.0029912
4.47615e-06
6.00421e-06
0.00298407
4.58053e-06
2.86362e-06
0.00297613
3.70065e-06
5.42103e-06
0.0029715
3.62713e-06
2.93122e-06
0.00296521
3.6589e-06
4.89996e-06
0.00296098
3.77429e-06
2.92374e-06
0.00295534
3.64008e-06
4.42111e-06
0.00295148
3.31476e-06
2.85402e-06
0.00294567
4.74001e-06
3.96831e-06
0.00294468
-1.71416e-06
2.73228e-06
0.00293417
1.33034e-05
3.52589e-06
0.00294297
-2.15398e-05
2.54686e-06
0.00292698
1.72244e-05
3.16454e-06
-4.51343e-05
2.18132e-06
0.00293674
0.00264524
-0.000809889
4.89484e-06
0.00280927
-0.000513576
-1.29474e-06
0.00290693
-0.000380422
3.97655e-06
0.00294501
-0.000166417
-1.01159e-06
0.00294544
-4.7249e-05
3.27424e-06
0.00293788
2.14522e-06
-6.61692e-07
0.00292685
1.07334e-05
2.66186e-06
0.00292102
9.33669e-06
-4.76373e-07
0.00291379
7.91761e-06
2.08532e-06
0.00290963
7.66928e-06
-4.06396e-07
0.00290363
7.75864e-06
1.56444e-06
0.00289967
7.88227e-06
-4.13392e-07
0.00289434
7.65352e-06
1.08532e-06
0.00289029
7.60146e-06
-4.83137e-07
0.00288602
8.13813e-06
6.33428e-07
0.00288146
3.20124e-06
-6.04414e-07
0.00288012
1.4185e-05
1.9177e-07
0.0028776
-1.85278e-05
-7.81685e-07
0.00289336
1.5104e-06
-3.65721e-07
-7.46918e-05
-1.30008e-06
0.00292388
0.00263742
-0.00108986
1.04363e-05
0.002725
-0.000605574
3.97505e-06
0.00271971
-0.000384725
9.27065e-06
0.00270089
-0.000152421
4.18296e-06
0.00267879
-3.4925e-05
8.39448e-06
0.00266531
9.3682e-06
4.41227e-06
0.0026517
1.49431e-05
7.70231e-06
0.00264476
1.05406e-05
4.56014e-06
0.00263723
7.63205e-06
7.11523e-06
0.0026336
6.25007e-06
4.62483e-06
0.00262816
6.31571e-06
6.59256e-06
0.00262515
6.03099e-06
4.61657e-06
0.0026204
6.05689e-06
6.11364e-06
0.00261759
5.63158e-06
4.54669e-06
0.0026132
6.63549e-06
5.66186e-06
0.00261084
8.88592e-07
4.42649e-06
0.00260478
1.47555e-05
5.22237e-06
0.00260114
-1.94258e-05
4.25806e-06
0.00258637
1.1026e-05
4.94544e-06
-2.33103e-05
3.88592e-06
0.00253077
0.0023017
-0.00102737
3.54592e-06
0.00209944
-0.000400345
-3.40163e-06
0.00190394
-0.000192216
2.29348e-06
0.00181217
-5.915e-05
-2.65085e-06
0.00178184
-7.69123e-06
1.67986e-06
0.00178304
9.09613e-06
-2.24578e-06
0.00178338
1.25409e-05
1.0827e-06
0.00178531
1.00352e-05
-2.05784e-06
0.00178199
1.00366e-05
5.03099e-07
0.00178131
8.61583e-06
-1.9916e-06
0.00177803
9.35316e-06
-2.03795e-08
0.00177732
8.5008e-06
-1.99941e-06
0.00177457
9.0609e-06
-5.00035e-07
0.00177368
8.35992e-06
-2.06893e-06
0.00177212
8.91053e-06
-9.52439e-07
0.00176794
7.00413e-06
-2.18612e-06
0.00177501
8.81916e-06
-1.4013e-06
0.00175438
3.24332e-06
-2.33222e-06
0.00180445
-3.74024e-05
-1.94373e-06
-3.88976e-05
-2.95891e-06
0.00182265
0.00132621
1.45566e-05
0.000918361
6.96957e-06
0.000712514
1.25533e-05
0.000644532
7.45416e-06
0.000623923
1.16762e-05
0.000624413
7.70842e-06
0.000625348
1.10051e-05
0.000627108
7.86977e-06
0.000626407
1.04232e-05
0.000626822
7.9359e-06
0.000626028
9.90129e-06
0.000626374
7.92788e-06
0.000625785
9.42299e-06
0.000626068
7.85844e-06
0.000625776
8.972e-06
0.000624803
7.74041e-06
0.000624833
8.53202e-06
0.000620212
7.58803e-06
0.000574278
8.2289e-06
7.08488e-06
0.000527966
0.00194566
0.000432148
4.02162e-06
0.00142535
0.000520788
6.02657e-06
0.00110831
0.000325549
3.052e-06
0.000976787
0.000132716
4.81152e-06
0.000943729
4.03198e-05
3.06549e-06
0.000937447
8.60388e-06
4.39608e-06
0.000940908
3.75534e-06
3.16098e-06
0.0009398
4.51906e-06
4.03855e-06
0.000941082
5.64243e-06
3.19145e-06
0.000939102
5.90905e-06
3.73938e-06
0.000939491
6.08099e-06
3.19626e-06
0.000937752
5.93027e-06
3.50905e-06
0.000937672
6.10679e-06
3.1883e-06
0.00093632
5.66242e-06
3.33255e-06
0.000935814
6.09934e-06
3.17798e-06
0.000933526
6.58803e-06
3.19675e-06
0.000940624
-1.93765e-06
3.17865e-06
0.000916717
2.80855e-05
3.08809e-06
0.00102558
-0.000103934
3.1101e-06
-5.25406e-05
3.18572e-06
0.00108162
0.00246395
0.000329672
9.54365e-06
0.00240052
0.000568923
1.14872e-05
0.00229401
0.000424884
8.88392e-06
0.00220374
0.000208937
1.02592e-05
0.00215951
7.58385e-05
8.76054e-06
0.00213716
1.73109e-05
9.8037e-06
0.00213163
3.62312e-07
8.82756e-06
0.00212593
-2.03762e-06
9.48602e-06
0.0021248
-2.00698e-06
8.84544e-06
0.00212073
-1.51971e-06
9.22332e-06
0.00211933
-1.60617e-06
8.83259e-06
0.00211567
-1.63069e-06
9.01105e-06
0.00211367
-1.39042e-06
8.80377e-06
0.00211051
-2.28924e-06
8.83972e-06
0.00210756
-8.62208e-07
8.77056e-06
0.00210502
-1.99436e-06
8.69955e-06
0.00210057
-7.81836e-06
8.74871e-06
0.00209935
1.80793e-05
8.58122e-06
0.00205012
-6.56235e-05
8.76384e-06
5.52341e-05
8.75058e-06
0.00193027
0.00248918
0.000212944
5.21682e-06
0.00261491
0.000439461
7.27866e-06
0.00266914
0.000375215
4.35474e-06
0.00266494
0.000210259
6.15779e-06
0.00265166
9.13993e-05
4.37507e-06
0.00263543
3.0123e-05
5.73827e-06
0.00262863
8.57981e-06
4.54557e-06
0.00262135
3.24628e-06
5.42626e-06
0.00261888
2.31205e-06
4.62175e-06
0.00261389
2.55871e-06
5.16168e-06
0.00261142
2.54654e-06
4.64751e-06
0.00260668
2.5559e-06
4.94692e-06
0.00260387
2.67631e-06
4.64916e-06
0.00259879
2.33978e-06
4.77618e-06
0.0025967
2.0519e-06
4.64228e-06
0.00258864
5.60776e-06
4.64277e-06
0.00259274
-1.15399e-05
4.63889e-06
0.00257712
3.31005e-05
4.55387e-06
0.00259852
-8.68588e-05
4.5418e-06
3.33221e-05
4.6268e-06
0.00261935
0.0024399
0.000136915
8.38169e-06
0.00258459
0.000282702
1.03636e-05
0.00270656
0.000249074
7.87311e-06
0.00275904
0.00014665
9.31235e-06
0.00277716
6.7004e-05
7.75778e-06
0.0027723
2.32403e-05
8.81405e-06
0.00276773
6.01159e-06
7.80559e-06
0.00275993
7.63675e-07
8.48713e-06
0.00275646
-7.01864e-07
7.83089e-06
0.00275082
-8.46521e-07
8.22827e-06
0.00274783
-1.00018e-06
7.82499e-06
0.00274277
-1.03246e-06
8.01747e-06
0.00273943
-9.09471e-07
7.80016e-06
0.00273448
-1.23893e-06
7.84686e-06
0.0027305
-1.3104e-06
7.76993e-06
0.00272673
8.33223e-07
7.71024e-06
0.00271684
-9.41936e-06
7.74458e-06
0.00272173
1.95419e-05
7.61719e-06
0.00267014
-4.36792e-05
7.77707e-06
5.58982e-05
7.77034e-06
0.00263818
0.00244102
6.51516e-05
6.31359e-06
0.00257805
0.000139247
8.33966e-06
0.00270218
0.000126421
5.71686e-06
0.00276582
7.73303e-05
7.29632e-06
0.002794
3.80527e-05
5.6195e-06
0.00279559
1.52044e-05
6.80183e-06
0.0027942
5.63379e-06
5.70507e-06
0.00278772
2.24973e-06
6.47905e-06
0.00278476
1.14254e-06
5.75573e-06
0.00277927
9.17978e-07
6.22108e-06
0.00277629
8.3363e-07
5.76627e-06
0.00277112
8.19615e-07
6.01001e-06
0.00276781
8.579e-07
5.75449e-06
0.00276254
8.3208e-07
5.84045e-06
0.00275886
3.96753e-07
5.73573e-06
0.00275383
2.65403e-06
5.70862e-06
0.0027475
-5.50945e-06
5.72042e-06
0.00274989
1.37975e-05
5.63026e-06
0.00273339
-2.9947e-05
5.66284e-06
2.03193e-05
5.69628e-06
0.00276513
0.00243167
4.69014e-10
7.32526e-06
0.00256181
5.10341e-10
9.32926e-06
0.0026869
9.9992e-11
6.82508e-06
0.00275581
-2.63052e-10
8.32269e-06
0.0027903
1.02278e-10
6.71624e-06
0.00279635
6.63943e-10
7.81782e-06
0.00279747
1.15557e-09
6.77344e-06
0.00279203
1.08303e-09
7.49055e-06
0.00278933
1.88938e-09
6.80859e-06
0.00278384
9.55655e-10
7.23272e-06
0.00278082
3.0924e-09
6.80952e-06
0.00277564
3.33116e-09
7.02228e-06
0.00277225
7.87692e-09
6.79003e-06
0.00276718
2.21213e-08
6.85245e-06
0.00276289
1.73373e-08
6.76425e-06
0.00275956
1.04798e-07
6.71902e-06
0.00274887
6.56855e-08
6.74164e-06
0.00275623
4.13895e-07
6.63748e-06
0.00272028
3.7807e-07
6.73856e-06
1.26745e-06
6.73151e-06
0.00273274
0.00243167
-6.51507e-05
7.32526e-06
0.00256181
-0.000139246
9.32926e-06
0.0026869
-0.00012642
6.82508e-06
0.00275581
-7.73308e-05
8.32269e-06
0.0027903
-3.80525e-05
6.71624e-06
0.00279635
-1.5203e-05
7.81782e-06
0.00279747
-5.63171e-06
6.77345e-06
0.00279203
-2.24751e-06
7.49056e-06
0.00278933
-1.13917e-06
6.80859e-06
0.00278384
-9.15333e-07
7.23272e-06
0.00278082
-8.2921e-07
6.80951e-06
0.00277564
-8.09737e-07
7.0223e-06
0.00277225
-8.49549e-07
6.78999e-06
0.00276717
-7.74384e-07
6.85252e-06
0.00276291
-3.89291e-07
6.76407e-06
0.00275956
-2.42939e-06
6.71937e-06
0.00274895
5.56812e-06
6.74069e-06
0.00275634
-1.30028e-05
6.6384e-06
0.00272053
3.05692e-05
6.73482e-06
-1.81103e-05
6.73264e-06
0.00273332
0.00244102
-0.000136914
6.31359e-06
0.00257805
-0.000282701
8.33966e-06
0.00270218
-0.000249073
5.71686e-06
0.00276582
-0.00014665
7.29632e-06
0.002794
-6.7004e-05
5.6195e-06
0.0027956
-2.32392e-05
6.80183e-06
0.0027942
-6.00948e-06
5.70506e-06
0.00278772
-7.6164e-07
6.47904e-06
0.00278476
7.05159e-07
5.75573e-06
0.00277927
8.48234e-07
6.22107e-06
0.00277629
1.00579e-06
5.76627e-06
0.00277113
1.03842e-06
6.01e-06
0.00276781
9.2423e-07
5.75452e-06
0.00276256
1.27748e-06
5.8404e-06
0.00275884
1.3442e-06
5.73584e-06
0.00275386
-6.45686e-07
5.70835e-06
0.00274746
9.53732e-06
5.72115e-06
0.00274989
-1.87813e-05
5.62944e-06
0.0027333
4.43789e-05
5.66617e-06
-5.34514e-05
5.69515e-06
0.00276482
0.0024399
-0.000212944
8.38169e-06
0.00258459
-0.00043946
1.03636e-05
0.00270656
-0.000375215
7.87311e-06
0.00275904
-0.000210259
9.31235e-06
0.00277716
-9.13993e-05
7.75778e-06
0.0027723
-3.01222e-05
8.81405e-06
0.00276773
-8.57834e-06
7.8056e-06
0.00275993
-3.2446e-06
8.48714e-06
0.00275646
-2.30971e-06
7.83089e-06
0.00275082
-2.55682e-06
8.22827e-06
0.00274783
-2.54291e-06
7.82498e-06
0.00274277
-2.54861e-06
8.01749e-06
0.00273944
-2.66822e-06
7.8001e-06
0.00273449
-2.29888e-06
7.84693e-06
0.00273052
-2.04119e-06
7.76969e-06
0.00272678
-5.42835e-06
7.71057e-06
0.00271695
1.15761e-05
7.74356e-06
0.00272195
-3.24303e-05
7.61803e-06
0.00267062
8.72907e-05
7.77343e-06
-3.1463e-05
7.77106e-06
0.00263926
0.00248918
-0.000329672
5.21682e-06
0.00261491
-0.000568923
7.27866e-06
0.00266914
-0.000424884
4.35475e-06
0.00266494
-0.000208937
6.15779e-06
0.00265166
-7.58385e-05
4.37507e-06
0.00263543
-1.73108e-05
5.73826e-06
0.00262863
-3.61663e-07
4.54556e-06
0.00262135
2.03836e-06
5.42625e-06
0.00261888
2.00851e-06
4.62175e-06
0.00261389
1.52049e-06
5.16168e-06
0.00261142
1.60989e-06
4.64751e-06
0.00260668
1.63364e-06
4.94691e-06
0.00260387
1.40199e-06
4.64917e-06
0.00259882
2.30765e-06
4.77615e-06
0.00259669
8.94066e-07
4.6423e-06
0.00258873
2.09531e-06
4.64263e-06
0.00259274
7.91321e-06
4.63925e-06
0.00257736
-1.76046e-05
4.5532e-06
0.00259865
6.61228e-05
4.54424e-06
-5.34907e-05
4.62581e-06
0.00261962
0.00246395
-0.000432148
9.54365e-06
0.00240052
-0.000520787
1.14872e-05
0.00229401
-0.000325548
8.88392e-06
0.00220374
-0.000132716
1.02592e-05
0.00215951
-4.03198e-05
8.76055e-06
0.00213716
-8.604e-06
9.8037e-06
0.00213163
-3.75532e-06
8.82757e-06
0.00212593
-4.51885e-06
9.48602e-06
0.0021248
-5.64191e-06
8.84544e-06
0.00212073
-5.90847e-06
9.22332e-06
0.00211933
-6.07955e-06
8.83258e-06
0.00211567
-5.92799e-06
9.01104e-06
0.00211367
-6.10273e-06
8.80375e-06
0.00211053
-5.65063e-06
8.83969e-06
0.00210759
-6.09173e-06
8.77054e-06
0.00210512
-6.52609e-06
8.69947e-06
0.00210072
1.93277e-06
8.74834e-06
0.00209974
-2.77845e-05
8.58153e-06
0.00205103
0.00010385
8.76102e-06
5.27726e-05
8.75185e-06
0.00193275
0.00194566
4.02162e-06
0.00142535
6.02657e-06
0.00110831
3.052e-06
0.000976787
4.81152e-06
0.000943729
3.06549e-06
0.000937447
4.39608e-06
0.000940909
3.16097e-06
0.0009398
4.03855e-06
0.000941082
3.19145e-06
0.000939103
3.73937e-06
0.000939493
3.19626e-06
0.000937757
3.50902e-06
0.000937679
3.18834e-06
0.000936342
3.33237e-06
0.000935835
3.17826e-06
0.000933629
3.19607e-06
0.000940681
3.17931e-06
0.000917139
3.08731e-06
0.00102583
3.11063e-06
3.18484e-06
0.00108219
0.00219646
0.000174521
-8.2968e-11
0.00197489
0.000227248
-8.26975e-11
0.00178861
0.000188743
-8.29221e-11
0.00168524
0.000106878
-8.39971e-11
0.00164405
4.26722e-05
-8.37728e-11
0.00163619
1.097e-05
-8.4006e-11
0.00163838
1.69128e-07
-8.30623e-11
0.00164377
-1.82617e-06
-8.28298e-11
0.00164863
-1.9656e-06
-8.23767e-11
0.00165381
-1.66852e-06
-8.28869e-11
0.00165849
-1.69107e-06
-8.24323e-11
0.00166341
-1.59903e-06
-8.27724e-11
0.00166815
-1.7352e-06
-8.23001e-11
0.00167265
-1.36253e-06
-8.24318e-11
0.00167851
-2.83273e-06
-8.20651e-11
0.00167895
2.48277e-06
-8.21447e-11
0.00169391
-1.18993e-05
-8.20465e-11
0.00167194
2.47224e-05
-8.19043e-11
0.00171003
-3.51652e-05
-8.1922e-11
6.40928e-05
-8.18026e-11
0.00164873
0.00242504
0.000125935
-8.28293e-11
0.00246673
0.000196673
-8.3917e-11
0.00247674
0.000187301
-8.39997e-11
0.00247334
0.000119556
-8.26901e-11
0.0024662
5.67799e-05
-8.13729e-11
0.00246398
2.1051e-05
-8.25099e-11
0.0024652
6.29168e-06
-8.24455e-11
0.00247012
1.84056e-06
-8.35151e-11
0.0024757
8.07685e-07
-8.30293e-11
0.0024822
7.49215e-07
-8.31504e-11
0.0024884
7.21913e-07
-8.24694e-11
0.00249487
7.35273e-07
-8.27142e-11
0.00250108
6.69078e-07
-8.21722e-11
0.00250728
1.06655e-06
-8.23736e-11
0.0025139
-8.54789e-07
-8.19647e-11
0.00251835
6.47385e-06
-8.19227e-11
0.0025283
-1.32611e-05
-8.22446e-11
0.00252493
3.63279e-05
-8.1492e-11
0.00254014
-4.18023e-05
-8.1942e-11
0.000102028
-8.17632e-11
0.00251057
0.00241405
8.40094e-05
-8.28779e-11
0.00247934
0.00013829
-8.38959e-11
0.00252978
0.000140961
-8.36338e-11
0.00255876
9.57841e-05
-8.24214e-11
0.00256892
4.91262e-05
-8.12792e-11
0.00257376
1.98103e-05
-8.26164e-11
0.00257716
5.75032e-06
-8.29814e-11
0.00258262
7.77279e-07
-8.38239e-11
0.00258832
-8.21579e-07
-8.31928e-11
0.0025949
-9.89797e-07
-8.32737e-11
0.00260117
-1.12218e-06
-8.25562e-11
0.00260766
-1.01369e-06
-8.27358e-11
0.002614
-1.21067e-06
-8.22482e-11
0.0026202
-5.50088e-07
-8.23901e-11
0.00262664
-2.8375e-06
-8.20005e-11
0.00263286
4.66981e-06
-8.21061e-11
0.00263817
-1.41301e-05
-8.19797e-11
0.00264802
3.07493e-05
-8.18238e-11
0.00264841
-3.78851e-05
-8.19459e-11
8.55631e-05
-8.15621e-11
0.00266916
0.00240304
5.62529e-05
-8.29605e-11
0.00246021
9.11171e-05
-8.36456e-11
0.00251482
9.39755e-05
-8.34749e-11
0.00255329
6.56786e-05
-8.31059e-11
0.00257287
3.54203e-05
-8.21602e-11
0.00258377
1.55545e-05
-8.3009e-11
0.00258993
5.67637e-06
-8.29919e-11
0.00259623
1.90702e-06
-8.31766e-11
0.00260203
6.39928e-07
-8.2724e-11
0.00260855
3.94576e-07
-8.295e-11
0.00261472
2.95557e-07
-8.2411e-11
0.00262119
3.28996e-07
-8.26496e-11
0.00262737
2.17808e-07
-8.22042e-11
0.0026338
6.63574e-07
-8.22931e-11
0.00263947
-9.39082e-07
-8.20032e-11
0.00264724
4.39146e-06
-8.20189e-11
0.00264931
-8.682e-06
-8.18624e-11
0.00266457
2.28442e-05
-8.19015e-11
0.00265689
-2.2698e-05
-8.17244e-11
6.44321e-05
-8.15647e-11
0.00268547
0.00240311
2.6351e-05
-8.2932e-11
0.00245825
4.39531e-05
-8.33631e-11
0.00251134
4.63518e-05
-8.32034e-11
0.00255054
3.28268e-05
-8.34024e-11
0.00257171
1.79836e-05
-8.25146e-11
0.00258394
7.9584e-06
-8.3205e-11
0.00259089
2.70679e-06
-8.26856e-11
0.00259761
6.16325e-07
-8.31034e-11
0.00260359
-1.57818e-07
-8.24644e-11
0.00261018
-3.02249e-07
-8.29207e-11
0.0026164
-3.80741e-07
-8.24192e-11
0.00262287
-3.37408e-07
-8.26944e-11
0.00262908
-4.32059e-07
-8.22708e-11
0.00263552
-1.20703e-07
-8.23608e-11
0.0026412
-1.08112e-06
-8.20779e-11
0.00264917
1.90924e-06
-8.20685e-11
0.00265106
-5.0715e-06
-8.19301e-11
0.00266791
1.13706e-05
-8.19132e-11
0.00266243
-1.1827e-05
-8.17905e-11
3.18637e-05
-8.1756e-11
0.00270038
0.00240057
4.43096e-10
-8.29496e-11
0.00245349
4.84478e-10
-8.33959e-11
0.00250641
2.6123e-10
-8.31602e-11
0.00254661
1.56529e-10
-8.34878e-11
0.00256942
4.33227e-10
-8.28042e-11
0.00258303
6.89548e-10
-8.32625e-11
0.00259079
7.08398e-10
-8.30825e-11
0.00259784
9.36259e-10
-8.30661e-11
0.00260392
8.9772e-10
-8.25896e-11
0.00261052
1.39143e-09
-8.28668e-11
0.00261672
-3.27594e-11
-8.23809e-11
0.0026232
5.5201e-09
-8.26468e-11
0.00262936
-2.26988e-09
-8.22151e-11
0.00263587
2.61036e-08
-8.23466e-11
0.00264137
-1.24619e-08
-8.20376e-11
0.00264967
1.06724e-07
-8.20708e-11
0.00265112
-9.64755e-09
-8.18868e-11
0.00266851
3.69088e-07
-8.18621e-11
0.00266293
2.09628e-07
-8.17711e-11
1.05371e-06
-8.16841e-11
0.00270016
0.00240057
-2.63502e-05
-8.29125e-11
0.00245349
-4.39522e-05
-8.33575e-11
0.00250641
-4.63513e-05
-8.29344e-11
0.00254661
-3.28265e-05
-8.33016e-11
0.00256942
-1.79828e-05
-8.28047e-11
0.00258303
-7.95705e-06
-8.34375e-11
0.00259079
-2.70541e-06
-8.26195e-11
0.00259784
-6.1444e-07
-8.35161e-11
0.00260392
1.59475e-07
-8.27162e-11
0.00261052
3.05132e-07
-8.30529e-11
0.00261672
3.8023e-07
-8.24737e-11
0.0026232
3.48887e-07
-8.26922e-11
0.00262936
4.25916e-07
-8.22722e-11
0.00263587
1.74234e-07
-8.24045e-11
0.00264137
1.05165e-06
-8.20966e-11
0.00264968
-1.69626e-06
-8.21353e-11
0.00265114
5.03987e-06
-8.19333e-11
0.00266854
-1.06484e-05
-8.19266e-11
0.002663
1.22094e-05
-8.18296e-11
-2.98133e-05
-8.17428e-11
0.00270029
0.00240311
-5.62521e-05
-8.29204e-11
0.00245825
-9.11163e-05
-8.33758e-11
0.00251134
-9.39751e-05
-8.28752e-11
0.00255054
-6.56785e-05
-8.33783e-11
0.00257171
-3.54196e-05
-8.31185e-11
0.00258394
-1.55533e-05
-8.35406e-11
0.00259089
-5.67507e-06
-8.30243e-11
0.00259761
-1.90533e-06
-8.34821e-11
0.00260359
-6.38308e-07
-8.28303e-11
0.00261019
-3.92202e-07
-8.29943e-11
0.0026164
-2.9552e-07
-8.2425e-11
0.00262287
-3.19362e-07
-8.26384e-11
0.00262908
-2.21879e-07
-8.22221e-11
0.00263552
-6.16467e-07
-8.23801e-11
0.0026412
9.14447e-07
-8.20561e-11
0.00264919
-4.19341e-06
-8.21135e-11
0.00265108
8.64714e-06
-8.1905e-11
0.00266795
-2.21403e-05
-8.18689e-11
0.00266252
2.30239e-05
-8.17602e-11
-6.23719e-05
-8.16452e-11
0.00270047
0.00240304
-8.40087e-05
-8.29131e-11
0.00246021
-0.00013829
-8.30892e-11
0.00251482
-0.00014096
-8.26331e-11
0.00255329
-9.5784e-05
-8.37262e-11
0.00257287
-4.91257e-05
-8.3504e-11
0.00258377
-1.98095e-05
-8.37743e-11
0.00258993
-5.7493e-06
-8.27357e-11
0.00259623
-7.7589e-07
-8.33715e-11
0.00260203
8.22816e-07
-8.25355e-11
0.00260855
9.91808e-07
-8.2951e-11
0.00261472
1.12198e-06
-8.24368e-11
0.00262119
1.02224e-06
-8.26783e-11
0.00262737
1.20589e-06
-8.22798e-11
0.00263381
5.9273e-07
-8.24262e-11
0.00263948
2.80947e-06
-8.2131e-11
0.00264727
-4.48817e-06
-8.21809e-11
0.00264936
1.40709e-05
-8.19965e-11
0.00266468
-3.00974e-05
-8.19709e-11
0.00265711
3.80881e-05
-8.18579e-11
-8.36391e-05
-8.17212e-11
0.00268583
0.00241405
-0.000125935
-8.29481e-11
0.00247934
-0.000196672
-8.27748e-11
0.00252978
-0.000187301
-8.24957e-11
0.00255876
-0.000119556
-8.44965e-11
0.00256892
-5.67796e-05
-8.44038e-11
0.00257376
-2.10506e-05
-8.41554e-11
0.00257716
-6.29116e-06
-8.26859e-11
0.00258262
-1.83978e-06
-8.27012e-11
0.00258832
-8.06832e-07
-8.20728e-11
0.0025949
-7.48074e-07
-8.26549e-11
0.00260117
-7.21567e-07
-8.23035e-11
0.00260767
-7.29697e-07
-8.26133e-11
0.002614
-6.71343e-07
-8.22297e-11
0.00262022
-1.03553e-06
-8.23715e-11
0.00262664
8.34018e-07
-8.20829e-11
0.00263291
-6.32826e-06
-8.21194e-11
0.0026382
1.32006e-05
-8.1923e-11
0.00264817
-3.57637e-05
-8.18468e-11
0.00264861
4.19149e-05
-8.1754e-11
-0.000100232
-8.16372e-11
0.00266953
0.00242504
-0.00017452
-8.29533e-11
0.00246673
-0.000227248
-8.27106e-11
0.00247675
-0.000188743
-8.23469e-11
0.00247334
-0.000106878
-8.44917e-11
0.0024662
-4.26722e-05
-8.43168e-11
0.00246398
-1.09699e-05
-8.4036e-11
0.0024652
-1.68997e-07
-8.30781e-11
0.00247012
1.8265e-06
-8.29025e-11
0.0024757
1.96593e-06
-8.22314e-11
0.00248221
1.66911e-06
-8.28066e-11
0.0024884
1.69113e-06
-8.2392e-11
0.00249487
1.60239e-06
-8.26419e-11
0.00250108
1.73286e-06
-8.22493e-11
0.0025073
1.38156e-06
-8.23982e-11
0.00251389
2.81621e-06
-8.21021e-11
0.00251844
-2.38896e-06
-8.21389e-11
0.00252832
1.18404e-05
-8.19518e-11
0.00252523
-2.43457e-05
-8.18906e-11
0.00254044
3.51818e-05
-8.1796e-11
-6.29048e-05
-8.15983e-11
0.00251156
0.00219646
-8.27721e-11
0.00197489
-8.37679e-11
0.00178861
-8.33688e-11
0.00168524
-8.33041e-11
0.00164405
-8.20991e-11
0.00163619
-8.26524e-11
0.00163838
-8.22296e-11
0.00164377
-8.35903e-11
0.00164863
-8.28952e-11
0.00165381
-8.30843e-11
0.00165849
-8.24482e-11
0.00166341
-8.25751e-11
0.00166815
-8.215e-11
0.00167268
-8.23104e-11
0.00167849
-8.19997e-11
0.00167909
-8.20527e-11
0.00169389
-8.18624e-11
0.00167239
-8.17973e-11
0.00171042
-8.16877e-11
-8.15281e-11
0.00165041
0.00219646
0.000174521
-4.02175e-06
0.00197489
0.000227248
-6.02671e-06
0.00178861
0.000188743
-3.05212e-06
0.00168524
0.000106878
-4.81165e-06
0.00164405
4.26724e-05
-3.06561e-06
0.00163619
1.09703e-05
-4.39622e-06
0.00163838
1.6935e-07
-3.1611e-06
0.00164377
-1.82605e-06
-4.03868e-06
0.00164863
-1.96558e-06
-3.19158e-06
0.00165381
-1.66852e-06
-3.73951e-06
0.00165849
-1.6911e-06
-3.19638e-06
0.00166341
-1.59906e-06
-3.50918e-06
0.00166815
-1.73523e-06
-3.18843e-06
0.00167265
-1.36256e-06
-3.33268e-06
0.00167851
-2.83276e-06
-3.1781e-06
0.00167895
2.48276e-06
-3.19688e-06
0.00169391
-1.18994e-05
-3.17878e-06
0.00167194
2.47224e-05
-3.08822e-06
0.00171003
-3.51653e-05
-3.11023e-06
6.40927e-05
-3.18585e-06
0.00164873
0.00242504
0.000125935
-9.54379e-06
0.00246673
0.000196673
-1.14873e-05
0.00247674
0.000187301
-8.88406e-06
0.00247334
0.000119556
-1.02593e-05
0.0024662
5.678e-05
-8.76069e-06
0.00246398
2.10512e-05
-9.80384e-06
0.0024652
6.2917e-06
-8.8277e-06
0.00247012
1.84051e-06
-9.48616e-06
0.0024757
8.07601e-07
-8.84558e-06
0.0024822
7.49166e-07
-9.22346e-06
0.0024884
7.21878e-07
-8.83273e-06
0.00249487
7.35247e-07
-9.01119e-06
0.00250108
6.69064e-07
-8.80391e-06
0.00250728
1.06653e-06
-8.83987e-06
0.0025139
-8.5475e-07
-8.77071e-06
0.00251834
6.4738e-06
-8.69969e-06
0.0025283
-1.32611e-05
-8.74886e-06
0.00252493
3.63279e-05
-8.58136e-06
0.00254014
-4.18023e-05
-8.76399e-06
0.000102028
-8.75072e-06
0.00251057
0.00241405
8.40094e-05
-5.21695e-06
0.00247934
0.00013829
-7.2788e-06
0.00252978
0.000140961
-4.35488e-06
0.00255876
9.57844e-05
-6.15792e-06
0.00256892
4.91263e-05
-4.3752e-06
0.00257376
1.98102e-05
-5.7384e-06
0.00257716
5.74991e-06
-4.5457e-06
0.00258262
7.7687e-07
-5.42639e-06
0.00258832
-8.21886e-07
-4.62189e-06
0.0025949
-9.89958e-07
-5.16181e-06
0.00260117
-1.12227e-06
-4.64765e-06
0.00260766
-1.01373e-06
-4.94705e-06
0.002614
-1.2107e-06
-4.6493e-06
0.0026202
-5.50122e-07
-4.77631e-06
0.00262664
-2.83745e-06
-4.64241e-06
0.00263286
4.66975e-06
-4.6429e-06
0.00263817
-1.41301e-05
-4.63903e-06
0.00264802
3.07493e-05
-4.554e-06
0.00264841
-3.78851e-05
-4.54194e-06
8.55631e-05
-4.62693e-06
0.00266916
0.00240304
5.62529e-05
-8.38183e-06
0.00246021
9.11171e-05
-1.03637e-05
0.00251482
9.39757e-05
-7.87325e-06
0.00255329
6.5679e-05
-9.31249e-06
0.00257287
3.54204e-05
-7.75791e-06
0.00258377
1.55542e-05
-8.81419e-06
0.00258993
5.67576e-06
-7.80573e-06
0.00259623
1.90643e-06
-8.48728e-06
0.00260203
6.39513e-07
-7.83103e-06
0.00260855
3.94361e-07
-8.22841e-06
0.00261472
2.95457e-07
-7.82513e-06
0.00262119
3.28953e-07
-8.01761e-06
0.00262737
2.17785e-07
-7.8003e-06
0.0026338
6.63559e-07
-7.847e-06
0.00263947
-9.39027e-07
-7.77008e-06
0.00264724
4.39142e-06
-7.71039e-06
0.00264931
-8.68198e-06
-7.74472e-06
0.00266457
2.28441e-05
-7.61733e-06
0.00265689
-2.2698e-05
-7.77721e-06
6.44321e-05
-7.77048e-06
0.00268547
0.00240311
2.6351e-05
-6.31372e-06
0.00245825
4.39531e-05
-8.3398e-06
0.00251134
4.6352e-05
-5.71699e-06
0.00255054
3.28271e-05
-7.29646e-06
0.00257171
1.79837e-05
-5.61963e-06
0.00258394
7.95799e-06
-6.80197e-06
0.00259089
2.70612e-06
-5.70521e-06
0.00259761
6.15697e-07
-6.47919e-06
0.00260359
-1.5826e-07
-5.75587e-06
0.00261018
-3.02488e-07
-6.22121e-06
0.0026164
-3.80848e-07
-5.7664e-06
0.00262287
-3.37458e-07
-6.01015e-06
0.00262908
-4.32082e-07
-5.75463e-06
0.00263552
-1.20721e-07
-5.84059e-06
0.0026412
-1.08107e-06
-5.73587e-06
0.00264917
1.90921e-06
-5.70876e-06
0.00265106
-5.07149e-06
-5.72055e-06
0.00266791
1.13706e-05
-5.63039e-06
0.00266243
-1.18269e-05
-5.66298e-06
3.18637e-05
-5.69642e-06
0.00270038
0.00240057
4.46354e-10
-7.3254e-06
0.00245349
4.73436e-10
-9.3294e-06
0.00250641
4.7373e-10
-6.82521e-06
0.00254661
4.47528e-10
-8.32283e-06
0.00256942
4.43315e-10
-6.71637e-06
0.00258303
2.72339e-10
-7.81796e-06
0.00259079
4.69278e-11
-6.77357e-06
0.00259784
3.19261e-10
-7.49069e-06
0.00260392
4.70241e-10
-6.80873e-06
0.00261052
1.16394e-09
-7.23286e-06
0.00261672
-1.31342e-10
-6.80965e-06
0.00262319
5.47889e-09
-7.02242e-06
0.00262936
-2.28001e-09
-6.79017e-06
0.00263587
2.60964e-08
-6.85259e-06
0.00264137
-1.24279e-08
-6.76439e-06
0.00264967
1.06715e-07
-6.71916e-06
0.00265112
-9.62576e-09
-6.74178e-06
0.00266851
3.69081e-07
-6.63762e-06
0.00266293
2.09659e-07
-6.7387e-06
1.05373e-06
-6.73166e-06
0.00270016
0.00240057
-2.63502e-05
-7.3254e-06
0.00245349
-4.39522e-05
-9.3294e-06