/*--------------------------------*- C++ -*----------------------------------*\
  =========                 |
  \\      /  F ield         | OpenFOAM: The Open Source CFD Toolbox
   \\    /   O peration     | Website:  https://openfoam.org
    \\  /    A nd           | Version:  7
     \\/     M anipulation  |
\*---------------------------------------------------------------------------*/
FoamFile
{
    version     2.0;
    format      ascii;
    class       volScalarField;
    location    "0.0325";
    object      k_0;
}
// * * * * * * * * * * * * * * * * * * * * * * * * * * * * * * * * * * * * * //

dimensions      [0 2 -2 0 0 0 0];

internalField   nonuniform List<scalar> 
1440
(
0.024407
0.132442
0.335248
0.580106
0.822281
1.02908
1.18603
1.29319
1.35636
1.38396
1.38059
1.36643
1.3363
1.29765
1.25547
1.21182
1.16838
1.12671
1.08758
1.05128
1.01808
0.988148
0.961445
0.937951
0.9178
0.901173
0.888094
0.878311
0.871296
0.866361
0.862915
0.86058
0.859115
0.858372
0.85821
0.858472
0.859098
0.859629
0.859972
0.860079
0.859977
0.859557
0.859004
0.858435
0.857901
0.857439
0.857062
0.856763
0.856523
0.856325
0.856152
0.855992
0.855838
0.855684
0.85553
0.855375
0.855217
0.855057
0.854896
0.854733
0.854568
0.854402
0.854235
0.854066
0.853895
0.853724
0.853551
0.853376
0.853201
0.853024
0.852846
0.852667
0.852487
0.852305
0.852123
0.85194
0.851755
0.85157
0.851383
0.851196
0.851008
0.850819
0.850629
0.850438
0.850247
0.850054
0.849861
0.849668
0.849473
0.849279
0.849083
0.848887
0.84869
0.848493
0.848295
0.848097
0.847899
0.8477
0.847501
0.847302
0.847102
0.846902
0.846701
0.846501
0.8463
0.8461
0.845899
0.845699
0.845498
0.845298
0.845098
0.844897
0.844701
0.844496
0.844308
0.844094
0.843925
0.84369
0.843557
0.843255
8.10726e-05
0.00135548
0.00657147
0.0191036
0.0445629
0.0820342
0.126335
0.17272
0.217229
0.258461
0.293646
0.322619
0.345321
0.362599
0.37444
0.382703
0.387793
0.391474
0.393479
0.393408
0.392781
0.391262
0.388953
0.386258
0.383314
0.380075
0.376184
0.371459
0.366193
0.360826
0.355649
0.350828
0.346404
0.342362
0.338657
0.335248
0.332268
0.329968
0.328457
0.327616
0.327202
0.326967
0.326744
0.326465
0.32614
0.325812
0.325527
0.325316
0.325187
0.32513
0.325118
0.325128
0.325186
0.325294
0.3254
0.325507
0.325615
0.325725
0.325836
0.325948
0.326061
0.326174
0.326287
0.326402
0.326516
0.326631
0.326746
0.326862
0.326978
0.327094
0.327211
0.327328
0.327445
0.327563
0.327681
0.327799
0.327917
0.328036
0.328155
0.328274
0.328393
0.328513
0.328633
0.328753
0.328873
0.328994
0.329114
0.329236
0.329356
0.329477
0.329599
0.32972
0.329842
0.329964
0.330085
0.330209
0.330328
0.330453
0.330573
0.330696
0.330819
0.330941
0.331062
0.331189
0.331304
0.331435
0.331548
0.33168
0.331793
0.331924
0.332037
0.33217
0.332276
0.332419
0.332513
0.332663
0.332749
0.332902
0.332978
0.333158
2.00659e-05
2.40898e-05
5.57443e-05
0.000186133
0.000580972
0.00148398
0.00338306
0.00633416
0.0100313
0.0149764
0.020919
0.0272846
0.0337932
0.0398403
0.0456633
0.0515611
0.056495
0.0606847
0.0646823
0.0682321
0.0714557
0.0741784
0.0756531
0.0764429
0.0774584
0.0779954
0.0779703
0.0777467
0.0772236
0.0761191
0.0745588
0.0729055
0.0712144
0.069345
0.0672872
0.0652075
0.0631993
0.0611847
0.0591023
0.057021
0.0549824
0.0530089
0.0511297
0.0493883
0.0478349
0.0465102
0.0454347
0.0446055
0.0439999
0.0435833
0.0433173
0.0431652
0.0430929
0.0430685
0.0430652
0.043068
0.0430842
0.0431341
0.0431927
0.0432487
0.0433038
0.043359
0.0434145
0.0434705
0.0435271
0.0435843
0.043642
0.0437001
0.0437587
0.0438177
0.0438772
0.0439368
0.0439972
0.0440574
0.0441184
0.0441795
0.0442407
0.0443035
0.0443638
0.0444291
0.0444879
0.0445557
0.044614
0.044682
0.0447429
0.0448078
0.0448737
0.0449352
0.0450034
0.0450668
0.0451306
0.0452014
0.0452586
0.0453346
0.0453913
0.0454645
0.0455268
0.045596
0.0456595
0.0457322
0.0457906
0.0458681
0.0459248
0.046003
0.0460587
0.0461392
0.0461943
0.0462729
0.046331
0.0464099
0.046464
0.0465473
0.0465993
0.0466839
0.0467329
0.0468201
0.0468674
0.0469548
0.0469989
0.047106
2.00047e-05
2.00393e-05
2.02163e-05
2.10573e-05
2.43083e-05
3.41584e-05
5.98237e-05
0.000118393
0.000218364
0.000367874
0.000622732
0.00102339
0.0014929
0.0018862
0.00240158
0.00316092
0.00394366
0.00452023
0.00495319
0.00563552
0.00656181
0.00735738
0.00785098
0.00812627
0.00835606
0.00871046
0.00915095
0.00942804
0.00947611
0.00945403
0.00937701
0.0091853
0.00887558
0.00851511
0.00813498
0.00775989
0.00738395
0.00698084
0.00653059
0.00602885
0.00548235
0.00490916
0.00433581
0.00379116
0.00330027
0.00288014
0.00253818
0.00227304
0.00207695
0.00193851
0.00184517
0.00178511
0.0017483
0.00172703
0.00171583
0.00171096
0.00170965
0.00170966
0.0017107
0.00171478
0.00172029
0.00172546
0.00173053
0.00173562
0.00174077
0.00174598
0.00175128
0.00175662
0.00176205
0.0017675
0.00177306
0.00177858
0.00178425
0.00178984
0.00179559
0.00180132
0.00180701
0.00181306
0.0018185
0.00182504
0.00183011
0.00183708
0.00184211
0.00184891
0.00185462
0.00186061
0.00186735
0.0018727
0.00187964
0.00188564
0.00189144
0.00189896
0.00190358
0.00191175
0.00191668
0.00192399
0.00193001
0.0019368
0.00194263
0.00195035
0.00195525
0.00196352
0.00196851
0.00197665
0.00198156
0.00198998
0.00199499
0.00200295
0.00200841
0.00201656
0.00202145
0.00202998
0.00203492
0.00204342
0.0020481
0.00205679
0.00206145
0.00207006
0.00207441
0.00208498
1.99954e-05
2.00083e-05
2.00581e-05
2.01696e-05
2.04141e-05
2.07284e-05
2.12189e-05
2.22856e-05
2.39778e-05
2.64382e-05
3.07158e-05
4.02874e-05
5.45435e-05
6.54315e-05
7.84362e-05
0.000107324
0.000148425
0.000178672
0.000196128
0.000220739
0.000277633
0.000344523
0.000390537
0.000411274
0.000421726
0.000440653
0.000484963
0.000526199
0.000544158
0.000545839
0.000543573
0.000535728
0.000514575
0.000486906
0.000459303
0.000431123
0.000401377
0.000370035
0.000337886
0.000305585
0.000273138
0.000240313
0.000207266
0.000174773
0.000144019
0.000116214
9.2256e-05
7.25782e-05
5.71563e-05
4.56094e-05
3.73367e-05
3.16561e-05
2.79116e-05
2.55401e-05
2.40991e-05
2.32655e-05
2.28179e-05
2.26108e-05
2.25435e-05
2.25372e-05
2.25493e-05
2.26081e-05
2.27218e-05
2.28324e-05
2.29414e-05
2.30508e-05
2.31619e-05
2.32738e-05
2.33879e-05
2.35024e-05
2.36199e-05
2.3736e-05
2.38564e-05
2.39744e-05
2.40966e-05
2.42182e-05
2.43384e-05
2.4469e-05
2.45813e-05
2.47256e-05
2.48277e-05
2.49829e-05
2.50852e-05
2.52338e-05
2.53569e-05
2.5481e-05
2.56335e-05
2.57404e-05
2.58962e-05
2.60242e-05
2.61461e-05
2.63164e-05
2.64082e-05
2.65917e-05
2.66971e-05
2.68546e-05
2.69881e-05
2.71362e-05
2.72598e-05
2.74355e-05
2.75353e-05
2.77226e-05
2.78276e-05
2.80097e-05
2.81144e-05
2.83021e-05
2.84111e-05
2.85868e-05
2.8706e-05
2.88882e-05
2.89931e-05
2.91837e-05
2.92911e-05
2.94802e-05
2.9582e-05
2.97743e-05
2.98764e-05
3.00654e-05
3.01597e-05
3.03893e-05
1.99867e-05
1.99945e-05
2.00343e-05
2.01289e-05
2.03111e-05
2.06092e-05
2.0936e-05
2.13737e-05
2.19338e-05
2.23748e-05
2.28689e-05
2.37168e-05
2.45643e-05
2.50323e-05
2.5438e-05
2.63614e-05
2.77656e-05
2.87617e-05
2.9229e-05
2.96943e-05
3.08165e-05
3.29369e-05
3.4529e-05
3.5241e-05
3.54578e-05
3.56945e-05
3.64133e-05
3.778e-05
3.84345e-05
3.85157e-05
3.84532e-05
3.82294e-05
3.76518e-05
3.66467e-05
3.5355e-05
3.38915e-05
3.2507e-05
3.146e-05
3.08814e-05
3.07131e-05
3.07657e-05
3.13869e-05
3.28322e-05
3.35294e-05
3.36512e-05
3.35552e-05
3.2917e-05
3.02098e-05
2.28508e-05
1.59556e-05
1.06685e-05
6.8699e-06
4.288e-06
2.61631e-06
1.58035e-06
9.63702e-07
6.10164e-07
4.14488e-07
3.09728e-07
2.55468e-07
2.28454e-07
2.15784e-07
2.10412e-07
2.08565e-07
2.08207e-07
2.08253e-07
2.0864e-07
2.09701e-07
2.10789e-07
2.1182e-07
2.12853e-07
2.13854e-07
2.1489e-07
2.15893e-07
2.16933e-07
2.17961e-07
2.1897e-07
2.20082e-07
2.21004e-07
2.2225e-07
2.2307e-07
2.24414e-07
2.25243e-07
2.26512e-07
2.27557e-07
2.28578e-07
2.29919e-07
2.30776e-07
2.32141e-07
2.33225e-07
2.34249e-07
2.35748e-07
2.3652e-07
2.38087e-07
2.39035e-07
2.40377e-07
2.41546e-07
2.42843e-07
2.43905e-07
2.45466e-07
2.46314e-07
2.47985e-07
2.48889e-07
2.50503e-07
2.51415e-07
2.53084e-07
2.54045e-07
2.55601e-07
2.56655e-07
2.5829e-07
2.59212e-07
2.60925e-07
2.61863e-07
2.63572e-07
2.6448e-07
2.66215e-07
2.67123e-07
2.68824e-07
2.69681e-07
2.71764e-07
1.99866e-05
1.99943e-05
2.00341e-05
2.01279e-05
2.03152e-05
2.05968e-05
2.09408e-05
2.13813e-05
2.19234e-05
2.23789e-05
2.28776e-05
2.37199e-05
2.45496e-05
2.5003e-05
2.54066e-05
2.63258e-05
2.76762e-05
2.86098e-05
2.90344e-05
2.94595e-05
3.05006e-05
3.23716e-05
3.37311e-05
3.42803e-05
3.43755e-05
3.44334e-05
3.47354e-05
3.55251e-05
3.58137e-05
3.58133e-05
3.57272e-05
3.5481e-05
3.48557e-05
3.35774e-05
3.22077e-05
3.09241e-05
2.98669e-05
2.91428e-05
2.87867e-05
2.87178e-05
2.88458e-05
2.98132e-05
3.16461e-05
3.25938e-05
3.28314e-05
3.27797e-05
3.22554e-05
2.98493e-05
2.27519e-05
1.5824e-05
1.05404e-05
6.75013e-06
4.17614e-06
2.51058e-06
1.47885e-06
8.64884e-07
5.129e-07
3.1807e-07
2.13751e-07
1.59654e-07
1.32519e-07
1.19432e-07
1.13441e-07
1.10928e-07
1.10059e-07
1.09882e-07
1.09894e-07
1.10039e-07
1.10431e-07
1.10818e-07
1.1119e-07
1.1154e-07
1.119e-07
1.12242e-07
1.12601e-07
1.12949e-07
1.13294e-07
1.13672e-07
1.13984e-07
1.14415e-07
1.14687e-07
1.15159e-07
1.1543e-07
1.15883e-07
1.16231e-07
1.16592e-07
1.17064e-07
1.17345e-07
1.17858e-07
1.18197e-07
1.18605e-07
1.19099e-07
1.19385e-07
1.19967e-07
1.20267e-07
1.20806e-07
1.21177e-07
1.21683e-07
1.22064e-07
1.22624e-07
1.22961e-07
1.23553e-07
1.23906e-07
1.24513e-07
1.2484e-07
1.25497e-07
1.25834e-07
1.26465e-07
1.26816e-07
1.27489e-07
1.2783e-07
1.28508e-07
1.28872e-07
1.29562e-07
1.29912e-07
1.30618e-07
1.30983e-07
1.31701e-07
1.32063e-07
1.3297e-07
1.9995e-05
2.00077e-05
2.0057e-05
2.01678e-05
2.04112e-05
2.0719e-05
2.12099e-05
2.22675e-05
2.38908e-05
2.63957e-05
3.0495e-05
3.99967e-05
5.36285e-05
6.40695e-05
7.66395e-05
0.000104218
0.0001443
0.000173234
0.000189706
0.000212933
0.000265265
0.000326489
0.000368842
0.000386792
0.000393738
0.000405085
0.000438306
0.000472198
0.000483944
0.000484172
0.000481348
0.000473009
0.000450346
0.00041248
0.000379152
0.000353439
0.000330449
0.000305805
0.000278829
0.000251434
0.000224594
0.000197344
0.000169511
0.000141865
0.000115612
9.18835e-05
7.14576e-05
5.47025e-05
4.1636e-05
3.19748e-05
2.51698e-05
2.05499e-05
1.75274e-05
1.56238e-05
1.44714e-05
1.38066e-05
1.3452e-05
1.32915e-05
1.3242e-05
1.32371e-05
1.32438e-05
1.32767e-05
1.3347e-05
1.34156e-05
1.34825e-05
1.35486e-05
1.36151e-05
1.36817e-05
1.37493e-05
1.3817e-05
1.38868e-05
1.39553e-05
1.40271e-05
1.40968e-05
1.41701e-05
1.42422e-05
1.43145e-05
1.43924e-05
1.44598e-05
1.45471e-05
1.46075e-05
1.47027e-05
1.47623e-05
1.48542e-05
1.49268e-05
1.50026e-05
1.50959e-05
1.51574e-05
1.52577e-05
1.53272e-05
1.54102e-05
1.55058e-05
1.55656e-05
1.56787e-05
1.57366e-05
1.58415e-05
1.59152e-05
1.60092e-05
1.60868e-05
1.61888e-05
1.62569e-05
1.63661e-05
1.64349e-05
1.6546e-05
1.66084e-05
1.67295e-05
1.67918e-05
1.69059e-05
1.6975e-05
1.70933e-05
1.7156e-05
1.72767e-05
1.73434e-05
1.74645e-05
1.75268e-05
1.7652e-05
1.77156e-05
1.78404e-05
1.7903e-05
1.80589e-05
2.00044e-05
2.00382e-05
2.02115e-05
2.10365e-05
2.42313e-05
3.39285e-05
5.91589e-05
0.000116695
0.000212467
0.000369729
0.000604836
0.00101952
0.00146616
0.00184854
0.0023634
0.00309014
0.00387747
0.00443329
0.00487509
0.00552568
0.00638365
0.00716679
0.00764889
0.00785689
0.00802444
0.00835412
0.00875286
0.00896371
0.00898232
0.00895292
0.00886436
0.00866399
0.00830643
0.00786801
0.00743422
0.00707074
0.00676399
0.00644761
0.00605994
0.00558488
0.00504779
0.0044789
0.00390599
0.00336068
0.00287109
0.00245607
0.00212321
0.00187005
0.00168714
0.00156148
0.00147946
0.00142877
0.00139928
0.00138343
0.00137599
0.0013734
0.00137305
0.0013735
0.00137606
0.00138125
0.00138608
0.00139067
0.00139517
0.00139966
0.00140416
0.00140869
0.00141327
0.00141788
0.00142254
0.00142722
0.001432
0.00143673
0.00144161
0.0014464
0.00145137
0.00145628
0.00146121
0.0014664
0.0014711
0.00147674
0.00148109
0.00148714
0.00149142
0.00149735
0.00150222
0.00150739
0.00151327
0.0015177
0.00152399
0.00152872
0.00153421
0.00154024
0.00154447
0.00155154
0.00155547
0.00156221
0.00156706
0.00157293
0.00157826
0.00158443
0.00158914
0.00159589
0.00160046
0.00160736
0.00161153
0.00161905
0.0016231
0.00163012
0.00163487
0.00164179
0.00164619
0.00165336
0.00165787
0.00166506
0.00166918
0.00167673
0.00168075
0.00168826
0.00169204
0.00170127
2.00642e-05
2.39922e-05
5.50862e-05
0.000183727
0.000574322
0.001469
0.00335123
0.00624311
0.00994199
0.0149137
0.020691
0.0271419
0.0335421
0.0394137
0.0452713
0.0510911
0.0560421
0.0603169
0.0641783
0.067594
0.0708762
0.0734975
0.0747121
0.0754804
0.0764792
0.0768281
0.0767515
0.0764551
0.0758208
0.0745832
0.0730012
0.071263
0.0694032
0.0674182
0.0653706
0.0633661
0.0614788
0.0597134
0.0579477
0.0560414
0.0539896
0.0519055
0.0498697
0.0479531
0.0462313
0.0447653
0.0435861
0.0426918
0.0420532
0.0416266
0.0413655
0.0412253
0.041165
0.0411483
0.0411474
0.0411535
0.0411816
0.0412423
0.0413011
0.0413578
0.0414135
0.0414689
0.0415245
0.0415805
0.0416368
0.0416936
0.0417508
0.0418084
0.0418665
0.0419248
0.0419839
0.0420428
0.0421027
0.0421624
0.042223
0.0422835
0.0423443
0.0424064
0.0424663
0.0425311
0.0425893
0.0426569
0.0427143
0.0427821
0.0428424
0.0429066
0.0429726
0.0430322
0.0431019
0.043162
0.0432284
0.0432958
0.0433543
0.0434295
0.0434841
0.0435595
0.0436188
0.0436884
0.0437525
0.0438223
0.0438827
0.0439578
0.0440152
0.0440923
0.0441474
0.0442289
0.0442811
0.0443613
0.0444184
0.0444961
0.0445511
0.0446327
0.0446858
0.0447688
0.0448181
0.0449052
0.0449519
0.0450395
0.0450837
0.0451913
8.00164e-05
0.00133659
0.00650792
0.0189674
0.0443017
0.0816675
0.125736
0.171877
0.216364
0.257446
0.292482
0.321562
0.34402
0.361141
0.373106
0.381636
0.387178
0.39075
0.392691
0.392649
0.392101
0.390767
0.388528
0.385883
0.38303
0.37962
0.375354
0.370537
0.36528
0.359743
0.354539
0.350005
0.345968
0.34218
0.338622
0.335474
0.332873
0.330826
0.329322
0.328337
0.327738
0.327317
0.326942
0.326561
0.32618
0.325836
0.325568
0.325393
0.325307
0.325283
0.325286
0.325322
0.325428
0.325544
0.325658
0.325772
0.325886
0.326001
0.326115
0.32623
0.326346
0.326461
0.326578
0.326694
0.326811
0.326928
0.327046
0.327164
0.327283
0.327402
0.327521
0.327641
0.327761
0.327881
0.328002
0.328123
0.328244
0.328366
0.328488
0.32861
0.328732
0.328855
0.328977
0.329101
0.329223
0.329347
0.32947
0.329594
0.329718
0.329842
0.329967
0.33009
0.330216
0.33034
0.330464
0.330591
0.330713
0.330842
0.330964
0.331091
0.331216
0.331342
0.331466
0.331595
0.331715
0.331849
0.331965
0.332101
0.332216
0.332351
0.332467
0.332602
0.332714
0.332858
0.332957
0.333111
0.333199
0.333359
0.333438
0.333627
0.0243954
0.132232
0.335038
0.579531
0.821088
1.02669
1.18256
1.28805
1.35024
1.37553
1.37143
1.3562
1.32463
1.28526
1.24223
1.198
1.15444
1.1128
1.07369
1.03747
1.00451
0.974978
0.948863
0.92617
0.906983
0.891377
0.879268
0.870324
0.863963
0.859453
0.856202
0.854048
0.85285
0.852358
0.852327
0.852656
0.853233
0.853775
0.854165
0.854319
0.854268
0.853944
0.853464
0.852976
0.852521
0.852132
0.851816
0.851567
0.851366
0.851195
0.851042
0.850896
0.850753
0.850609
0.850463
0.850314
0.850164
0.850012
0.849858
0.849703
0.849546
0.849388
0.849229
0.849068
0.848906
0.848743
0.848579
0.848413
0.848246
0.848078
0.847909
0.847738
0.847567
0.847394
0.847221
0.847046
0.84687
0.846694
0.846516
0.846338
0.846158
0.845978
0.845797
0.845615
0.845432
0.845249
0.845065
0.84488
0.844694
0.844508
0.844321
0.844134
0.843946
0.843758
0.843569
0.84338
0.84319
0.843
0.84281
0.842619
0.842428
0.842237
0.842045
0.841854
0.841661
0.84147
0.841277
0.841085
0.840892
0.840701
0.840509
0.840316
0.840127
0.83993
0.839749
0.839545
0.839378
0.839154
0.839028
0.838732
)
;

boundaryField
{
    upperWall
    {
        type            fixedValue;
        value           uniform 0;
    }
    lowerWall
    {
        type            fixedValue;
        value           uniform 0;
    }
    inlet
    {
        type            fixedValue;
        value           uniform 2e-05;
    }
    outlet
    {
        type            inletOutlet;
        inletValue      uniform 0;
        value           nonuniform List<scalar> 
12
(
0.843255
0.333158
0.047106
0.00208498
3.03893e-05
2.71764e-07
1.3297e-07
1.80589e-05
0.00170127
0.0451913
0.333627
0.838732
)
;
    }
    frontAndBack
    {
        type            empty;
    }
}


// ************************************************************************* //
