/*--------------------------------*- C++ -*----------------------------------*\
  =========                 |
  \\      /  F ield         | OpenFOAM: The Open Source CFD Toolbox
   \\    /   O peration     | Website:  https://openfoam.org
    \\  /    A nd           | Version:  7
     \\/     M anipulation  |
\*---------------------------------------------------------------------------*/
FoamFile
{
    version     2.0;
    format      ascii;
    class       volScalarField;
    location    "2.31";
    object      nut;
}
// * * * * * * * * * * * * * * * * * * * * * * * * * * * * * * * * * * * * * //

dimensions      [0 2 -1 0 0 0 0];

internalField   nonuniform List<scalar> 
7920
(
0.00875249
0.00911823
0.00911894
0.00912411
0.00911781
0.00911963
0.00911432
0.00911563
0.00911182
0.00911324
0.00911064
0.0091119
0.00910996
0.00911065
0.00910964
0.00910948
0.00911058
0.00910702
0.0091174
0.00912229
0.00451469
0.00454183
0.00444711
0.00435513
0.00431054
0.00429349
0.00427836
0.00427391
0.00426582
0.00426412
0.00425899
0.00425812
0.00425506
0.00425469
0.00425285
0.00425227
0.00425164
0.00424989
0.00428008
0.00428084
0.00345124
0.0036861
0.00370964
0.00370675
0.00369895
0.00369716
0.00369245
0.00369171
0.0036884
0.00368776
0.00368504
0.00368448
0.00368226
0.00368175
0.00367997
0.00367943
0.00367811
0.00367731
0.00367814
0.00368302
0.00332037
0.00359145
0.00364295
0.0036616
0.00366657
0.00367353
0.00367482
0.00367866
0.00367905
0.0036814
0.00368135
0.0036828
0.00368249
0.0036834
0.00368293
0.00368348
0.00368296
0.00368327
0.00368322
0.00368765
0.00330596
0.00358045
0.00363475
0.00365674
0.00366442
0.00367417
0.00367751
0.00368425
0.0036864
0.00369135
0.00369287
0.00369664
0.00369768
0.00370054
0.00370121
0.00370335
0.00370377
0.00370525
0.0037058
0.00371066
0.0033075
0.00357974
0.00363372
0.00365604
0.00366449
0.00367521
0.00367956
0.00368749
0.00369059
0.00369691
0.00369933
0.00370441
0.00370629
0.00371035
0.00371175
0.00371497
0.00371602
0.00371835
0.00371963
0.00372463
0.0033075
0.00357974
0.00363372
0.00365604
0.00366449
0.00367521
0.00367956
0.0036875
0.00369059
0.00369692
0.00369933
0.00370442
0.00370628
0.00371035
0.00371175
0.00371497
0.00371602
0.00371836
0.00371964
0.00372464
0.00330596
0.00358045
0.00363475
0.00365674
0.00366442
0.00367417
0.00367751
0.00368426
0.0036864
0.00369136
0.00369286
0.00369665
0.00369767
0.00370055
0.0037012
0.00370338
0.00370376
0.00370529
0.00370581
0.00371072
0.00332037
0.00359145
0.00364295
0.0036616
0.00366657
0.00367353
0.00367482
0.00367867
0.00367905
0.00368141
0.00368133
0.00368282
0.00368246
0.00368344
0.00368287
0.00368358
0.00368285
0.00368346
0.00368307
0.00368784
0.00345124
0.0036861
0.00370964
0.00370675
0.00369895
0.00369716
0.00369245
0.00369171
0.00368839
0.00368778
0.00368502
0.00368451
0.00368221
0.00368181
0.00367984
0.0036796
0.0036778
0.00367787
0.00367766
0.00368369
0.00451469
0.00454183
0.00444711
0.00435513
0.00431054
0.00429349
0.00427835
0.00427392
0.0042658
0.00426414
0.00425896
0.00425816
0.00425498
0.0042548
0.00425266
0.00425258
0.00425109
0.00425084
0.00427809
0.0042829
0.00875249
0.00911823
0.00911894
0.00912411
0.00911781
0.00911964
0.00911431
0.00911565
0.0091118
0.00911328
0.00911058
0.00911201
0.00910979
0.00911092
0.0091092
0.00911021
0.00910933
0.00910914
0.0091135
0.00912884
0.00336143
0.00377304
0.0037889
0.00376447
0.00375746
0.00374367
0.00374272
0.00373461
0.00373462
0.00372919
0.0037296
0.00372568
0.00372614
0.00372304
0.00372364
0.00372081
0.00372217
0.00371809
0.00372041
0.00372731
0.00297775
0.00348557
0.00355647
0.00356592
0.00356694
0.00356703
0.00356656
0.00356611
0.00356536
0.00356481
0.00356419
0.00356361
0.00356321
0.00356254
0.00356237
0.00356161
0.00356171
0.00356075
0.00356237
0.00356307
0.0028984
0.00341266
0.00348771
0.00350281
0.00350531
0.00350899
0.00351008
0.0035126
0.00351337
0.00351511
0.00351562
0.00351678
0.00351717
0.00351787
0.00351833
0.00351859
0.00351924
0.00351903
0.00351955
0.00352592
0.00289628
0.0034108
0.00348532
0.00349976
0.00350081
0.00350296
0.00350297
0.00350425
0.00350457
0.00350579
0.00350614
0.00350711
0.00350744
0.00350811
0.00350851
0.0035088
0.0035094
0.00350929
0.00350987
0.00351391
0.00289327
0.00340745
0.00348204
0.00349691
0.00349781
0.00349975
0.00349931
0.00350025
0.00350007
0.00350089
0.00350085
0.0035015
0.00350151
0.00350196
0.00350197
0.00350225
0.00350227
0.00350242
0.00350253
0.00350673
0.00289489
0.0034092
0.00348356
0.00349834
0.00349922
0.00350114
0.00350068
0.00350159
0.00350133
0.00350209
0.00350194
0.00350251
0.00350239
0.00350276
0.00350262
0.00350281
0.00350265
0.00350271
0.00350255
0.00350641
0.00289489
0.0034092
0.00348356
0.00349834
0.00349922
0.00350114
0.00350068
0.00350159
0.00350133
0.00350209
0.00350194
0.00350252
0.00350239
0.00350277
0.00350261
0.00350281
0.00350265
0.00350272
0.00350256
0.00350641
0.00289327
0.00340745
0.00348204
0.00349691
0.00349781
0.00349975
0.00349931
0.00350025
0.00350007
0.00350089
0.00350085
0.00350151
0.0035015
0.00350198
0.00350195
0.00350227
0.00350224
0.00350246
0.0035025
0.00350673
0.00289628
0.0034108
0.00348532
0.00349976
0.00350081
0.00350297
0.00350297
0.00350425
0.00350456
0.0035058
0.00350613
0.00350713
0.00350742
0.00350816
0.00350841
0.00350893
0.00350923
0.0035094
0.00350976
0.00351402
0.0028984
0.00341266
0.00348771
0.00350281
0.00350531
0.00350899
0.00351008
0.00351261
0.00351336
0.00351513
0.0035156
0.00351681
0.00351712
0.00351796
0.00351817
0.00351882
0.0035189
0.00351946
0.00351903
0.00352641
0.00297775
0.00348557
0.00355647
0.00356593
0.00356694
0.00356704
0.00356655
0.00356612
0.00356535
0.00356483
0.00356416
0.00356366
0.00356312
0.00356266
0.0035622
0.0035619
0.00356125
0.00356145
0.00356117
0.00356472
0.00336143
0.00377304
0.00378889
0.00376448
0.00375746
0.00374367
0.00374272
0.00373462
0.00373461
0.00372921
0.00372958
0.00372572
0.00372608
0.00372315
0.00372348
0.0037211
0.00372172
0.00371896
0.00371906
0.00372964
0.000838215
0.00123515
0.00129226
0.00127551
0.00123225
0.00119169
0.00115925
0.00113567
0.00111803
0.00110423
0.00109414
0.00108488
0.00107844
0.00107146
0.00106705
0.00106164
0.00105815
0.00105488
0.00104939
0.00105482
0.000355571
0.000750282
0.000880398
0.000930913
0.000948172
0.000958866
0.000964135
0.000969894
0.000972716
0.000975767
0.000976763
0.000977974
0.000978026
0.00097818
0.000977922
0.000977757
0.0009773
0.000976955
0.000976388
0.0009785
0.000307399
0.000664499
0.000782972
0.000836066
0.00085216
0.000863844
0.000866545
0.000872023
0.000873935
0.000878071
0.000880083
0.000883733
0.000885902
0.00088889
0.000891129
0.000893512
0.000895741
0.000897711
0.000899185
0.000902877
0.000316516
0.000668544
0.000784185
0.000835027
0.00085079
0.000860575
0.000862038
0.000864624
0.000864758
0.000865625
0.000865851
0.000866642
0.000867087
0.000867919
0.000868798
0.000869431
0.00087071
0.000871296
0.000872411
0.000875228
0.000312193
0.000664117
0.000779343
0.000830483
0.000845956
0.000855768
0.000856998
0.000859364
0.000859182
0.000859609
0.000859351
0.00085952
0.000859363
0.000859441
0.000859433
0.000859466
0.000859635
0.00085968
0.000859891
0.000861713
0.000314623
0.000666593
0.000781841
0.00083263
0.000848197
0.000857882
0.000859245
0.000861546
0.000861405
0.000861787
0.000861531
0.000861626
0.000861427
0.000861396
0.000861283
0.000861127
0.000861119
0.000860999
0.000861085
0.000862655
0.000314623
0.000666593
0.000781841
0.00083263
0.000848197
0.000857882
0.000859245
0.000861546
0.000861405
0.000861787
0.000861531
0.000861626
0.000861427
0.000861397
0.000861282
0.000861128
0.000861119
0.000861
0.000861084
0.000862653
0.000312193
0.000664118
0.000779343
0.000830484
0.000845956
0.000855768
0.000856997
0.000859364
0.000859181
0.00085961
0.000859351
0.00085952
0.000859362
0.000859441
0.000859431
0.000859465
0.000859633
0.000859678
0.000859889
0.000861704
0.000316515
0.000668545
0.000784184
0.000835028
0.000850789
0.000860575
0.000862037
0.000864625
0.000864758
0.000865626
0.00086585
0.000866646
0.000867078
0.000867933
0.000868776
0.000869441
0.000870688
0.000871286
0.000872388
0.000875189
0.000307398
0.0006645
0.000782971
0.000836067
0.000852159
0.000863845
0.000866545
0.000872024
0.000873934
0.000878075
0.000880074
0.000883743
0.000885884
0.000888914
0.000891084
0.000893545
0.000895675
0.000897715
0.000899139
0.000902793
0.00035557
0.000750282
0.000880397
0.000930914
0.000948171
0.000958868
0.000964131
0.000969899
0.000972707
0.000975777
0.000976748
0.000977988
0.000978018
0.000978188
0.000977875
0.00097777
0.000977214
0.000977003
0.000976265
0.000978499
0.000838215
0.00123515
0.00129226
0.00127551
0.00123224
0.00119169
0.00115925
0.00113567
0.00111803
0.00110425
0.00109413
0.00108492
0.00107842
0.00107155
0.001067
0.00106184
0.00105803
0.00105531
0.00104927
0.0010556
0.000838215
0.00123515
0.00129226
0.00127551
0.00123225
0.00119169
0.00115925
0.00113567
0.00111803
0.00110423
0.00109414
0.00108488
0.00107844
0.00107146
0.00106705
0.00106164
0.00105815
0.00105488
0.00104939
0.00105482
0.000355571
0.000750282
0.000880398
0.000930913
0.000948173
0.000958866
0.000964135
0.000969894
0.000972716
0.000975767
0.000976763
0.000977974
0.000978026
0.00097818
0.000977922
0.000977757
0.0009773
0.000976955
0.000976388
0.0009785
0.000307399
0.000664499
0.000782972
0.000836066
0.00085216
0.000863844
0.000866545
0.000872023
0.000873935
0.000878071
0.000880083
0.000883733
0.000885902
0.00088889
0.000891129
0.000893512
0.000895741
0.000897711
0.000899185
0.000902877
0.000316516
0.000668544
0.000784185
0.000835027
0.00085079
0.000860575
0.000862038
0.000864624
0.000864758
0.000865625
0.000865851
0.000866642
0.000867087
0.000867919
0.000868798
0.000869431
0.00087071
0.000871296
0.000872411
0.000875228
0.000312193
0.000664117
0.000779343
0.000830483
0.000845956
0.000855768
0.000856998
0.000859364
0.000859182
0.000859609
0.000859351
0.00085952
0.000859363
0.000859441
0.000859433
0.000859466
0.000859635
0.00085968
0.000859891
0.000861713
0.000314623
0.000666593
0.000781841
0.00083263
0.000848197
0.000857882
0.000859245
0.000861546
0.000861405
0.000861787
0.000861531
0.000861626
0.000861427
0.000861396
0.000861283
0.000861127
0.000861119
0.000860999
0.000861085
0.000862655
0.000314623
0.000666593
0.000781841
0.00083263
0.000848197
0.000857882
0.000859245
0.000861546
0.000861405
0.000861787
0.000861531
0.000861626
0.000861427
0.000861397
0.000861282
0.000861128
0.000861119
0.000861
0.000861084
0.000862653
0.000312193
0.000664118
0.000779343
0.000830484
0.000845956
0.000855768
0.000856997
0.000859364
0.000859181
0.00085961
0.000859351
0.00085952
0.000859362
0.000859441
0.000859431
0.000859465
0.000859633
0.000859678
0.000859889
0.000861704
0.000316515
0.000668545
0.000784184
0.000835028
0.000850789
0.000860575
0.000862037
0.000864625
0.000864758
0.000865626
0.00086585
0.000866646
0.000867078
0.000867933
0.000868776
0.000869441
0.000870688
0.000871286
0.000872388
0.000875189
0.000307398
0.0006645
0.000782971
0.000836067
0.000852159
0.000863845
0.000866545
0.000872024
0.000873934
0.000878075
0.000880074
0.000883743
0.000885884
0.000888914
0.000891084
0.000893545
0.000895675
0.000897715
0.000899139
0.000902793
0.00035557
0.000750283
0.000880397
0.000930914
0.000948171
0.000958868
0.000964131
0.000969899
0.000972707
0.000975777
0.000976748
0.000977988
0.000978018
0.000978188
0.000977875
0.00097777
0.000977214
0.000977003
0.000976265
0.000978499
0.000838215
0.00123515
0.00129226
0.00127551
0.00123224
0.00119169
0.00115925
0.00113567
0.00111803
0.00110425
0.00109413
0.00108492
0.00107842
0.00107155
0.001067
0.00106184
0.00105803
0.00105531
0.00104927
0.0010556
0.00336143
0.00377304
0.0037889
0.00376447
0.00375746
0.00374367
0.00374272
0.00373461
0.00373462
0.00372919
0.0037296
0.00372568
0.00372614
0.00372304
0.00372364
0.00372081
0.00372217
0.00371809
0.00372041
0.00372731
0.00297775
0.00348557
0.00355647
0.00356592
0.00356694
0.00356703
0.00356656
0.00356611
0.00356536
0.00356481
0.00356419
0.00356361
0.00356321
0.00356254
0.00356237
0.00356161
0.00356171
0.00356075
0.00356237
0.00356307
0.0028984
0.00341266
0.00348771
0.00350281
0.00350531
0.00350899
0.00351008
0.0035126
0.00351337
0.00351511
0.00351562
0.00351678
0.00351717
0.00351787
0.00351833
0.00351859
0.00351924
0.00351903
0.00351955
0.00352592
0.00289628
0.0034108
0.00348532
0.00349976
0.00350081
0.00350296
0.00350297
0.00350425
0.00350457
0.00350579
0.00350614
0.00350711
0.00350744
0.00350811
0.00350851
0.0035088
0.0035094
0.00350929
0.00350987
0.00351391
0.00289327
0.00340745
0.00348204
0.00349691
0.00349781
0.00349975
0.00349931
0.00350025
0.00350007
0.00350089
0.00350085
0.0035015
0.00350151
0.00350196
0.00350197
0.00350225
0.00350227
0.00350242
0.00350253
0.00350673
0.00289489
0.0034092
0.00348356
0.00349834
0.00349922
0.00350114
0.00350068
0.00350159
0.00350133
0.00350209
0.00350194
0.00350251
0.00350239
0.00350276
0.00350262
0.00350281
0.00350265
0.00350271
0.00350255
0.00350641
0.00289489
0.0034092
0.00348356
0.00349834
0.00349922
0.00350114
0.00350068
0.00350159
0.00350133
0.00350209
0.00350194
0.00350252
0.00350239
0.00350277
0.00350261
0.00350281
0.00350265
0.00350272
0.00350256
0.00350641
0.00289327
0.00340745
0.00348204
0.00349691
0.00349781
0.00349975
0.00349931
0.00350025
0.00350007
0.00350089
0.00350085
0.00350151
0.0035015
0.00350198
0.00350195
0.00350227
0.00350224
0.00350246
0.0035025
0.00350673
0.00289628
0.0034108
0.00348532
0.00349976
0.00350081
0.00350297
0.00350297
0.00350425
0.00350456
0.0035058
0.00350613
0.00350713
0.00350742
0.00350816
0.00350841
0.00350893
0.00350923
0.0035094
0.00350976
0.00351402
0.0028984
0.00341266
0.00348771
0.00350281
0.00350531
0.00350899
0.00351008
0.00351261
0.00351336
0.00351513
0.0035156
0.00351681
0.00351712
0.00351796
0.00351817
0.00351882
0.0035189
0.00351946
0.00351903
0.00352641
0.00297775
0.00348557
0.00355647
0.00356593
0.00356694
0.00356704
0.00356655
0.00356612
0.00356535
0.00356483
0.00356416
0.00356366
0.00356312
0.00356266
0.0035622
0.0035619
0.00356125
0.00356145
0.00356117
0.00356472
0.00336143
0.00377304
0.00378889
0.00376448
0.00375746
0.00374367
0.00374272
0.00373462
0.00373461
0.00372921
0.00372958
0.00372572
0.00372608
0.00372315
0.00372348
0.0037211
0.00372172
0.00371896
0.00371906
0.00372964
0.00875249
0.00911823
0.00911894
0.00912411
0.00911781
0.00911963
0.00911432
0.00911563
0.00911182
0.00911324
0.00911064
0.0091119
0.00910996
0.00911065
0.00910964
0.00910948
0.00911058
0.00910702
0.0091174
0.00912229
0.00451469
0.00454183
0.00444711
0.00435513
0.00431054
0.00429349
0.00427836
0.00427391
0.00426582
0.00426412
0.00425899
0.00425812
0.00425506
0.00425469
0.00425285
0.00425227
0.00425164
0.00424989
0.00428008
0.00428084
0.00345124
0.0036861
0.00370964
0.00370675
0.00369895
0.00369716
0.00369245
0.00369171
0.0036884
0.00368776
0.00368504
0.00368448
0.00368226
0.00368175
0.00367997
0.00367943
0.00367811
0.00367731
0.00367814
0.00368302
0.00332037
0.00359145
0.00364295
0.0036616
0.00366657
0.00367353
0.00367482
0.00367866
0.00367905
0.0036814
0.00368135
0.0036828
0.00368249
0.0036834
0.00368293
0.00368348
0.00368296
0.00368327
0.00368322
0.00368765
0.00330596
0.00358045
0.00363475
0.00365674
0.00366442
0.00367417
0.00367751
0.00368425
0.0036864
0.00369135
0.00369287
0.00369664
0.00369768
0.00370054
0.00370121
0.00370335
0.00370377
0.00370525
0.0037058
0.00371066
0.0033075
0.00357974
0.00363372
0.00365604
0.00366449
0.00367521
0.00367956
0.00368749
0.00369059
0.00369691
0.00369933
0.00370441
0.00370629
0.00371035
0.00371175
0.00371497
0.00371602
0.00371835
0.00371963
0.00372463
0.0033075
0.00357974
0.00363372
0.00365604
0.00366449
0.00367521
0.00367956
0.0036875
0.00369059
0.00369692
0.00369933
0.00370442
0.00370628
0.00371035
0.00371175
0.00371497
0.00371602
0.00371836
0.00371964
0.00372464
0.00330596
0.00358045
0.00363475
0.00365674
0.00366442
0.00367417
0.00367751
0.00368426
0.0036864
0.00369136
0.00369286
0.00369665
0.00369767
0.00370055
0.0037012
0.00370338
0.00370376
0.00370529
0.00370581
0.00371072
0.00332037
0.00359145
0.00364295
0.0036616
0.00366657
0.00367353
0.00367482
0.00367867
0.00367905
0.00368141
0.00368133
0.00368282
0.00368246
0.00368344
0.00368287
0.00368357
0.00368285
0.00368346
0.00368307
0.00368784
0.00345124
0.0036861
0.00370964
0.00370675
0.00369895
0.00369716
0.00369245
0.00369171
0.00368839
0.00368778
0.00368502
0.00368451
0.00368221
0.00368181
0.00367984
0.0036796
0.0036778
0.00367787
0.00367766
0.00368369
0.00451469
0.00454183
0.00444711
0.00435513
0.00431054
0.00429349
0.00427835
0.00427392
0.0042658
0.00426414
0.00425896
0.00425816
0.00425498
0.0042548
0.00425266
0.00425258
0.00425109
0.00425084
0.00427809
0.0042829
0.00875249
0.00911823
0.00911894
0.00912411
0.00911781
0.00911964
0.00911431
0.00911565
0.0091118
0.00911328
0.00911058
0.00911201
0.00910979
0.00911092
0.0091092
0.00911021
0.00910933
0.00910914
0.0091135
0.00912884
0.0266006
0.026802
0.0268988
0.0269771
0.0270377
0.0270957
0.0271445
0.0271923
0.0272334
0.0272738
0.0273096
0.0273458
0.0273788
0.0274122
0.0274427
0.0274733
0.0275016
0.0275302
0.027557
0.027584
0.0276092
0.0276342
0.0276575
0.0276804
0.0277017
0.0277224
0.0277412
0.0277591
0.0277748
0.0277895
0.0278019
0.0278131
0.0278222
0.0278301
0.0278361
0.0278411
0.0278446
0.0278474
0.0278491
0.0278505
0.0278512
0.0278518
0.027852
0.0278523
0.0278522
0.0278524
0.0278522
0.0278523
0.0278522
0.0278523
0.0278521
0.0278522
0.027852
0.0278521
0.027852
0.027852
0.0278519
0.0278519
0.0278518
0.0278519
0.0278517
0.0278518
0.0278516
0.0278517
0.0278516
0.0278516
0.0278515
0.0278515
0.0278514
0.0278514
0.0278512
0.0278513
0.0278511
0.0278511
0.027851
0.027851
0.0278509
0.0278509
0.0278507
0.0278507
0.0278505
0.0278505
0.0278503
0.0278503
0.02785
0.02785
0.0278496
0.0278496
0.0278466
0.0278446
0.0152379
0.0155238
0.0155765
0.015623
0.0156539
0.015689
0.0157142
0.0157435
0.0157649
0.0157898
0.0158086
0.0158309
0.0158484
0.015869
0.0158853
0.0159042
0.0159194
0.0159371
0.0159516
0.0159682
0.015982
0.0159974
0.0160102
0.0160244
0.0160361
0.016049
0.0160594
0.0160706
0.0160793
0.0160887
0.0160955
0.0161028
0.0161078
0.0161132
0.0161164
0.0161201
0.0161219
0.0161243
0.016125
0.0161266
0.0161268
0.0161278
0.0161277
0.0161285
0.0161284
0.016129
0.0161288
0.0161295
0.0161293
0.0161299
0.0161297
0.0161303
0.0161302
0.0161307
0.0161306
0.0161311
0.016131
0.0161315
0.0161314
0.0161319
0.0161318
0.0161323
0.0161322
0.0161326
0.0161325
0.016133
0.0161329
0.0161333
0.0161333
0.0161337
0.0161336
0.016134
0.0161339
0.0161343
0.0161342
0.0161345
0.0161345
0.0161348
0.0161347
0.016135
0.0161349
0.0161352
0.0161351
0.0161354
0.0161352
0.0161355
0.0161352
0.0161356
0.0161328
0.0161314
0.0122383
0.0126407
0.0126809
0.0127182
0.0127368
0.0127657
0.0127814
0.0128064
0.0128204
0.012842
0.0128542
0.0128735
0.0128852
0.0129032
0.0129145
0.0129311
0.0129418
0.0129573
0.0129676
0.0129824
0.0129924
0.0130063
0.0130157
0.0130286
0.0130374
0.0130493
0.0130572
0.0130678
0.0130745
0.0130837
0.013089
0.0130966
0.0131005
0.0131064
0.013109
0.0131134
0.0131148
0.013118
0.0131186
0.0131209
0.013121
0.0131227
0.0131226
0.0131241
0.0131239
0.0131252
0.013125
0.0131263
0.0131261
0.0131273
0.0131272
0.0131284
0.0131282
0.0131294
0.0131293
0.0131304
0.0131303
0.0131314
0.0131313
0.0131324
0.0131324
0.0131333
0.0131333
0.0131343
0.0131343
0.0131353
0.0131353
0.0131362
0.0131362
0.0131371
0.0131371
0.013138
0.013138
0.0131388
0.0131389
0.0131396
0.0131397
0.0131404
0.0131405
0.0131412
0.0131412
0.0131419
0.0131419
0.0131426
0.0131425
0.0131431
0.013143
0.0131437
0.0131428
0.0131392
0.0117828
0.0122797
0.0123203
0.0123541
0.0123666
0.0123925
0.0124036
0.0124269
0.0124377
0.0124584
0.0124679
0.0124864
0.0124957
0.0125132
0.0125226
0.0125392
0.0125482
0.0125637
0.0125726
0.0125875
0.0125964
0.0126105
0.0126191
0.0126324
0.0126405
0.012653
0.0126605
0.0126719
0.0126785
0.0126885
0.012694
0.0127024
0.0127066
0.0127135
0.0127163
0.0127217
0.0127233
0.0127273
0.0127281
0.0127311
0.0127313
0.0127336
0.0127336
0.0127355
0.0127354
0.0127372
0.012737
0.0127387
0.0127386
0.0127402
0.0127401
0.0127416
0.0127416
0.0127431
0.0127431
0.0127446
0.0127446
0.012746
0.0127461
0.0127474
0.0127475
0.0127489
0.012749
0.0127503
0.0127504
0.0127516
0.0127518
0.012753
0.0127532
0.0127544
0.0127545
0.0127557
0.0127558
0.012757
0.0127571
0.0127582
0.0127583
0.0127594
0.0127595
0.0127606
0.0127607
0.0127617
0.0127618
0.0127628
0.0127628
0.0127638
0.0127637
0.0127647
0.0127648
0.0127605
0.0117488
0.0122951
0.0123371
0.0123685
0.0123765
0.012399
0.0124066
0.0124276
0.0124359
0.0124553
0.0124628
0.0124801
0.0124878
0.0125046
0.0125127
0.012529
0.012537
0.0125523
0.0125603
0.0125752
0.0125835
0.0125979
0.012606
0.0126196
0.0126275
0.0126404
0.0126479
0.0126598
0.0126666
0.0126773
0.012683
0.0126922
0.0126966
0.0127042
0.0127074
0.0127135
0.0127154
0.01272
0.0127211
0.0127245
0.0127249
0.0127276
0.0127276
0.0127299
0.0127298
0.0127319
0.0127318
0.0127337
0.0127337
0.0127355
0.0127355
0.0127373
0.0127373
0.0127391
0.0127391
0.0127408
0.0127409
0.0127426
0.0127427
0.0127443
0.0127445
0.0127461
0.0127463
0.0127478
0.012748
0.0127495
0.0127497
0.0127511
0.0127514
0.0127528
0.012753
0.0127544
0.0127547
0.012756
0.0127562
0.0127575
0.0127578
0.0127591
0.0127593
0.0127605
0.0127607
0.0127619
0.0127621
0.0127633
0.0127634
0.0127645
0.0127646
0.0127656
0.0127662
0.0127614
0.0117667
0.0123417
0.012384
0.0124126
0.0124166
0.0124352
0.0124396
0.0124576
0.0124637
0.012481
0.0124868
0.0125025
0.0125087
0.0125243
0.0125314
0.0125469
0.0125541
0.0125689
0.0125763
0.0125908
0.0125986
0.0126129
0.0126208
0.0126344
0.0126421
0.0126552
0.0126626
0.0126749
0.0126817
0.0126927
0.0126985
0.0127081
0.0127127
0.0127208
0.0127241
0.0127306
0.0127327
0.0127377
0.0127388
0.0127425
0.012743
0.0127459
0.012746
0.0127484
0.0127484
0.0127506
0.0127505
0.0127526
0.0127526
0.0127545
0.0127546
0.0127565
0.0127566
0.0127584
0.0127586
0.0127604
0.0127605
0.0127623
0.0127625
0.0127642
0.0127644
0.0127661
0.0127663
0.012768
0.0127682
0.0127698
0.0127701
0.0127717
0.012772
0.0127735
0.0127738
0.0127753
0.0127756
0.012777
0.0127773
0.0127787
0.012779
0.0127804
0.0127807
0.012782
0.0127823
0.0127836
0.0127838
0.0127851
0.0127853
0.0127865
0.0127867
0.0127877
0.0127886
0.0127835
0.0117671
0.0123398
0.0123782
0.0124026
0.0124029
0.0124176
0.0124193
0.0124343
0.0124383
0.0124534
0.0124576
0.0124716
0.0124766
0.012491
0.0124972
0.0125117
0.0125183
0.0125323
0.0125392
0.0125532
0.0125606
0.0125746
0.0125822
0.0125957
0.0126032
0.0126161
0.0126235
0.0126357
0.0126424
0.0126534
0.0126592
0.0126688
0.0126734
0.0126814
0.0126848
0.0126912
0.0126934
0.0126983
0.0126994
0.0127031
0.0127036
0.0127065
0.0127066
0.012709
0.012709
0.0127112
0.0127112
0.0127132
0.0127132
0.0127152
0.0127152
0.0127171
0.0127172
0.012719
0.0127192
0.012721
0.0127211
0.0127229
0.0127231
0.0127248
0.012725
0.0127267
0.012727
0.0127286
0.0127289
0.0127305
0.0127307
0.0127323
0.0127326
0.0127341
0.0127344
0.0127359
0.0127362
0.0127377
0.012738
0.0127394
0.0127397
0.012741
0.0127413
0.0127427
0.0127429
0.0127442
0.0127445
0.0127457
0.012746
0.0127472
0.0127474
0.0127484
0.0127493
0.0127442
0.0117494
0.0122868
0.0123161
0.0123344
0.0123313
0.0123428
0.0123422
0.0123546
0.0123569
0.0123698
0.0123728
0.0123853
0.0123894
0.0124026
0.0124081
0.0124216
0.0124276
0.0124409
0.0124474
0.0124609
0.012468
0.0124815
0.0124889
0.012502
0.0125094
0.012522
0.0125292
0.012541
0.0125476
0.0125582
0.0125637
0.0125729
0.0125773
0.0125849
0.012588
0.0125941
0.012596
0.0126006
0.0126016
0.0126051
0.0126054
0.0126081
0.0126082
0.0126104
0.0126104
0.0126124
0.0126123
0.0126143
0.0126142
0.0126161
0.0126161
0.0126178
0.0126179
0.0126196
0.0126197
0.0126214
0.0126215
0.0126232
0.0126233
0.0126249
0.0126251
0.0126267
0.0126269
0.0126284
0.0126286
0.0126301
0.0126303
0.0126318
0.012632
0.0126334
0.0126337
0.012635
0.0126353
0.0126366
0.0126369
0.0126382
0.0126384
0.0126397
0.0126399
0.0126412
0.0126414
0.0126426
0.0126428
0.0126439
0.0126441
0.0126452
0.0126454
0.0126463
0.012647
0.0126424
0.011779
0.0122539
0.0122709
0.0122829
0.0122775
0.0122862
0.0122843
0.0122946
0.0122957
0.0123066
0.012309
0.0123201
0.0123239
0.012336
0.0123412
0.0123536
0.0123595
0.012372
0.0123785
0.0123913
0.0123985
0.0124113
0.0124187
0.0124312
0.0124387
0.0124506
0.0124578
0.0124689
0.0124753
0.0124851
0.0124904
0.0124988
0.0125029
0.0125097
0.0125125
0.0125178
0.0125195
0.0125235
0.0125242
0.0125272
0.0125274
0.0125297
0.0125297
0.0125316
0.0125315
0.0125333
0.0125331
0.0125348
0.0125347
0.0125363
0.0125362
0.0125378
0.0125377
0.0125392
0.0125392
0.0125407
0.0125407
0.0125421
0.0125422
0.0125436
0.0125437
0.012545
0.0125451
0.0125464
0.0125465
0.0125478
0.012548
0.0125492
0.0125493
0.0125505
0.0125507
0.0125519
0.012552
0.0125532
0.0125533
0.0125544
0.0125546
0.0125556
0.0125558
0.0125568
0.012557
0.012558
0.0125581
0.012559
0.0125591
0.01256
0.0125601
0.0125609
0.0125612
0.012557
0.012216
0.0125744
0.0125783
0.0125854
0.0125796
0.0125865
0.0125847
0.0125935
0.0125945
0.012604
0.0126066
0.0126168
0.0126211
0.0126323
0.0126379
0.0126495
0.0126558
0.0126677
0.0126749
0.0126872
0.012695
0.0127072
0.0127152
0.0127272
0.0127351
0.0127464
0.0127538
0.0127641
0.0127706
0.0127795
0.0127847
0.0127921
0.0127959
0.0128018
0.0128043
0.0128086
0.01281
0.0128131
0.0128137
0.012816
0.0128161
0.0128178
0.0128177
0.0128192
0.012819
0.0128203
0.0128201
0.0128214
0.0128212
0.0128224
0.0128223
0.0128235
0.0128234
0.0128245
0.0128244
0.0128255
0.0128254
0.0128265
0.0128265
0.0128275
0.0128275
0.0128285
0.0128285
0.0128295
0.0128295
0.0128304
0.0128304
0.0128314
0.0128314
0.0128323
0.0128323
0.0128332
0.0128332
0.012834
0.0128341
0.0128349
0.0128349
0.0128357
0.0128357
0.0128364
0.0128364
0.0128372
0.0128371
0.0128378
0.0128378
0.0128384
0.0128383
0.0128389
0.0128384
0.012835
0.0151672
0.015376
0.0153752
0.0153794
0.015376
0.0153819
0.0153826
0.0153905
0.0153938
0.0154029
0.015408
0.0154184
0.0154256
0.0154372
0.0154457
0.0154578
0.0154672
0.0154799
0.0154903
0.0155035
0.0155144
0.0155277
0.0155387
0.0155516
0.0155622
0.0155744
0.0155841
0.0155949
0.0156032
0.0156123
0.0156189
0.015626
0.0156308
0.0156361
0.0156392
0.0156428
0.0156445
0.0156468
0.0156475
0.015649
0.0156492
0.0156502
0.0156501
0.0156509
0.0156507
0.0156514
0.0156512
0.0156519
0.0156517
0.0156523
0.0156521
0.0156527
0.0156525
0.0156531
0.0156529
0.0156535
0.0156533
0.0156539
0.0156537
0.0156542
0.0156541
0.0156546
0.0156545
0.015655
0.0156549
0.0156553
0.0156553
0.0156557
0.0156556
0.015656
0.0156559
0.0156563
0.0156562
0.0156566
0.0156565
0.0156569
0.0156568
0.0156572
0.0156571
0.0156574
0.0156573
0.0156576
0.0156575
0.0156577
0.0156576
0.0156578
0.0156576
0.0156579
0.0156553
0.0156541
0.0264365
0.0264977
0.0264998
0.026504
0.026504
0.0265109
0.0265165
0.0265271
0.0265361
0.0265488
0.0265606
0.0265759
0.0265909
0.0266084
0.0266252
0.0266439
0.0266621
0.0266821
0.0267016
0.0267226
0.0267429
0.026764
0.0267842
0.0268049
0.0268243
0.0268437
0.0268614
0.0268785
0.0268936
0.0269077
0.0269197
0.0269306
0.0269393
0.026947
0.0269528
0.0269576
0.0269609
0.0269636
0.0269652
0.0269666
0.0269672
0.0269678
0.0269679
0.0269682
0.0269681
0.0269682
0.0269681
0.0269682
0.026968
0.0269681
0.0269679
0.026968
0.0269678
0.0269679
0.0269677
0.0269678
0.0269676
0.0269677
0.0269675
0.0269676
0.0269674
0.0269675
0.0269673
0.0269674
0.0269672
0.0269672
0.0269671
0.0269671
0.026967
0.026967
0.0269669
0.0269669
0.0269667
0.0269667
0.0269666
0.0269666
0.0269664
0.0269664
0.0269662
0.0269662
0.026966
0.026966
0.0269658
0.0269658
0.0269655
0.0269655
0.0269651
0.0269651
0.0269622
0.0269606
0.0121746
0.0123309
0.0123762
0.0124095
0.0124375
0.0124629
0.0124851
0.0125067
0.012525
0.0125435
0.0125594
0.0125762
0.0125908
0.0126064
0.0126198
0.0126343
0.0126466
0.0126603
0.012672
0.0126849
0.0126959
0.0127079
0.012718
0.0127291
0.0127383
0.0127484
0.0127565
0.0127652
0.0127719
0.0127791
0.0127843
0.0127899
0.0127937
0.0127978
0.0128001
0.0128029
0.0128041
0.0128059
0.0128064
0.0128076
0.0128077
0.0128085
0.0128084
0.012809
0.0128088
0.0128094
0.0128092
0.0128097
0.0128095
0.01281
0.0128099
0.0128103
0.0128102
0.0128107
0.0128105
0.012811
0.0128109
0.0128113
0.0128112
0.0128116
0.0128115
0.0128118
0.0128118
0.0128121
0.0128121
0.0128124
0.0128123
0.0128127
0.0128126
0.0128129
0.0128129
0.0128132
0.0128131
0.0128134
0.0128134
0.0128137
0.0128136
0.0128139
0.0128138
0.0128141
0.0128141
0.0128144
0.0128143
0.0128146
0.0128146
0.012815
0.0128149
0.0128155
0.0128147
0.0128148
0.0117369
0.0120139
0.0120602
0.0120941
0.012121
0.0121465
0.0121681
0.0121896
0.0122077
0.0122261
0.0122417
0.0122583
0.0122727
0.0122881
0.0123014
0.0123155
0.0123279
0.0123412
0.0123528
0.0123654
0.0123764
0.0123882
0.0123983
0.0124091
0.0124184
0.0124282
0.0124365
0.012445
0.0124519
0.012459
0.0124645
0.01247
0.012474
0.0124781
0.0124806
0.0124834
0.0124848
0.0124866
0.0124872
0.0124883
0.0124885
0.0124892
0.0124892
0.0124897
0.0124896
0.01249
0.0124899
0.0124903
0.0124902
0.0124906
0.0124905
0.0124908
0.0124907
0.0124911
0.012491
0.0124913
0.0124913
0.0124916
0.0124915
0.0124918
0.0124918
0.012492
0.012492
0.0124923
0.0124923
0.0124925
0.0124925
0.0124928
0.0124927
0.012493
0.012493
0.0124932
0.0124932
0.0124934
0.0124934
0.0124936
0.0124936
0.0124938
0.0124938
0.012494
0.012494
0.0124942
0.0124942
0.0124945
0.0124944
0.0124947
0.0124945
0.0124949
0.0124947
0.0124951
0.0112681
0.0116626
0.0117139
0.0117454
0.0117703
0.0117936
0.011814
0.0118339
0.0118514
0.0118685
0.0118837
0.0118989
0.0119129
0.0119273
0.0119404
0.0119537
0.0119658
0.0119783
0.0119899
0.0120018
0.0120127
0.012024
0.0120342
0.0120446
0.012054
0.0120636
0.012072
0.0120805
0.0120878
0.0120949
0.0121008
0.0121064
0.0121109
0.012115
0.0121181
0.0121209
0.0121228
0.0121245
0.0121255
0.0121265
0.0121269
0.0121275
0.0121276
0.0121279
0.0121279
0.0121282
0.0121281
0.0121283
0.0121283
0.0121285
0.0121284
0.0121286
0.0121286
0.0121287
0.0121287
0.0121289
0.0121289
0.012129
0.012129
0.0121292
0.0121291
0.0121293
0.0121293
0.0121294
0.0121294
0.0121296
0.0121296
0.0121297
0.0121297
0.0121298
0.0121298
0.01213
0.01213
0.0121301
0.0121301
0.0121303