/*--------------------------------*- C++ -*----------------------------------*\
  =========                 |
  \\      /  F ield         | OpenFOAM: The Open Source CFD Toolbox
   \\    /   O peration     | Website:  https://openfoam.org
    \\  /    A nd           | Version:  7
     \\/     M anipulation  |
\*---------------------------------------------------------------------------*/
FoamFile
{
    version     2.0;
    format      ascii;
    class       volVectorField;
    location    "0.02";
    object      U;
}
// * * * * * * * * * * * * * * * * * * * * * * * * * * * * * * * * * * * * * //

dimensions      [0 1 -1 0 0 0 0];

internalField   nonuniform List<vector> 
27000
(
(8.56726 -0.872827 -239.324)
(10.5289 -2.36933 -245.97)
(8.6865 -3.30119 -247.017)
(9.10543 -4.05265 -248.802)
(8.32251 -4.62013 -250.084)
(8.24302 -5.10312 -251.476)
(7.78958 -5.48833 -252.73)
(7.59261 -5.83258 -254.057)
(7.27921 -6.12748 -255.372)
(7.07046 -6.3754 -256.659)
(6.84363 -6.57859 -257.872)
(6.68006 -6.7759 -259.011)
(6.51644 -6.96811 -259.988)
(6.36362 -7.13073 -260.702)
(6.20738 -7.22022 -261.132)
(6.08774 -7.25471 -261.366)
(6.0301 -7.28126 -261.522)
(6.01865 -7.35693 -261.677)
(5.98919 -7.46152 -261.812)
(5.91395 -7.53678 -261.854)
(5.80987 -7.5286 -261.75)
(5.73159 -7.43879 -261.523)
(5.73437 -7.31601 -261.269)
(5.81301 -7.24018 -261.1)
(5.90726 -7.22233 -261.065)
(5.96886 -7.24525 -261.135)
(5.9889 -7.28328 -261.249)
(5.98142 -7.31097 -261.36)
(5.9649 -7.32402 -261.445)
(5.95262 -7.32665 -261.5)
(5.94874 -7.32549 -261.533)
(5.95149 -7.32444 -261.552)
(5.95733 -7.32444 -261.563)
(5.96374 -7.32507 -261.57)
(5.96959 -7.32586 -261.576)
(5.97463 -7.32648 -261.581)
(5.97905 -7.32674 -261.585)
(5.98318 -7.32666 -261.59)
(5.98731 -7.3264 -261.595)
(5.99148 -7.32613 -261.599)
(9.85278 1.2476 -240.731)
(11.9106 1.9462 -244.907)
(11.0307 2.93202 -245.311)
(11.7426 3.49457 -245.689)
(11.5583 4.05034 -246.043)
(11.8189 4.42992 -246.317)
(11.815 4.76954 -246.601)
(11.9419 5.04002 -246.895)
(11.9631 5.28808 -247.264)
(12.0072 5.46962 -247.701)
(12.0188 5.60658 -248.206)
(12.0569 5.74318 -248.782)
(12.0635 5.90685 -249.458)
(12.012 6.05594 -250.219)
(11.9015 6.10947 -250.98)
(11.8131 6.05553 -251.631)
(11.8155 5.98003 -252.078)
(11.8828 6.02376 -252.352)
(11.8972 6.18283 -252.54)
(11.7778 6.32731 -252.596)
(11.5805 6.33011 -252.523)
(11.4455 6.1571 -252.284)
(11.4392 5.89852 -251.789)
(11.5343 5.74196 -251.163)
(11.6583 5.73885 -250.583)
(11.7346 5.82836 -250.182)
(11.7562 5.92926 -250.014)
(11.7457 5.98967 -250.061)
(11.7221 6.00581 -250.253)
(11.7022 5.99505 -250.507)
(11.6916 5.97807 -250.752)
(11.6892 5.96631 -250.949)
(11.6912 5.9616 -251.083)
(11.6949 5.96138 -251.162)
(11.6988 5.96298 -251.202)
(11.7024 5.96472 -251.22)
(11.7056 5.96576 -251.229)
(11.7089 5.96595 -251.235)
(11.7123 5.96566 -251.241)
(11.716 5.96535 -251.248)
(9.58899 -0.390301 -239.979)
(11.3359 -1.35231 -244.861)
(10.3456 -2.09931 -244.698)
(11.1142 -2.72209 -245.302)
(10.9478 -3.2357 -245.472)
(11.3089 -3.66065 -245.801)
(11.3673 -4.02508 -246.049)
(11.5794 -4.32704 -246.396)
(11.6966 -4.57645 -246.775)
(11.8601 -4.80229 -247.231)
(11.9763 -5.02312 -247.758)
(12.0821 -5.21281 -248.385)
(12.1772 -5.32605 -249.087)
(12.3037 -5.36833 -249.821)
(12.4421 -5.43318 -250.542)
(12.5535 -5.58811 -251.237)
(12.5762 -5.76665 -251.865)
(12.5395 -5.85998 -252.405)
(12.543 -5.80432 -252.813)
(12.6374 -5.68715 -252.964)
(12.7886 -5.67884 -252.939)
(12.9045 -5.7867 -252.827)
(12.9052 -5.88692 -252.53)
(12.7895 -5.9164 -252.052)
(12.6358 -5.89044 -251.471)
(12.5333 -5.84276 -250.933)
(12.4955 -5.79992 -250.589)
(12.5001 -5.77915 -250.519)
(12.5261 -5.77783 -250.702)
(12.5538 -5.78748 -251.051)
(12.5749 -5.79926 -251.458)
(12.5888 -5.80826 -251.831)
(12.5979 -5.81348 -252.118)
(12.6045 -5.81591 -252.305)
(12.61 -5.81679 -252.409)
(12.6149 -5.81698 -252.457)
(12.6197 -5.81698 -252.474)
(12.6243 -5.817 -252.48)
(12.6286 -5.81704 -252.483)
(12.6328 -5.817 -252.489)
(9.72239 0.489396 -240.583)
(11.6339 1.18524 -244.86)
(10.7809 1.95107 -245.285)
(11.4907 2.47563 -245.702)
(11.3403 2.99246 -246.064)
(11.6392 3.37615 -246.342)
(11.6802 3.72577 -246.625)
(11.8541 4.00522 -246.924)
(11.9493 4.25165 -247.272)
(12.0881 4.45503 -247.666)
(12.1889 4.63456 -248.129)
(12.291 4.78907 -248.676)
(12.3806 4.92289 -249.3)
(12.4905 5.0174 -249.958)
(12.6096 5.08383 -250.598)
(12.7044 5.13295 -251.19)
(12.7544 5.18182 -251.715)
(12.7794 5.23412 -252.131)
(12.8239 5.27208 -252.412)
(12.9167 5.28069 -252.522)
(13.0168 5.26645 -252.453)
(13.065 5.23078 -252.212)
(13.0532 5.17814 -251.793)
(13.0153 5.12886 -251.198)
(12.9849 5.11128 -250.515)
(12.9763 5.1183 -249.871)
(12.9868 5.12897 -249.401)
(13.0068 5.13662 -249.188)
(13.0273 5.13746 -249.24)
(13.0436 5.13389 -249.497)
(13.055 5.12965 -249.859)
(13.063 5.12691 -250.228)
(13.0692 5.12602 -250.536)
(13.0743 5.12635 -250.755)
(13.0788 5.12725 -250.889)
(13.0829 5.12821 -250.96)
(13.0866 5.12893 -250.993)
(13.0902 5.1293 -251.008)
(13.0938 5.12941 -251.016)
(13.0974 5.12934 -251.024)
(9.62188 -0.324642 -240.362)
(11.3872 -1.03624 -244.862)
(10.4698 -1.70996 -245.122)
(11.1914 -2.24395 -245.668)
(11.0404 -2.74319 -246.107)
(11.3701 -3.1388 -246.488)
(11.4281 -3.49515 -246.875)
(11.627 -3.78695 -247.282)
(11.7382 -4.03738 -247.736)
(11.8922 -4.25184 -248.238)
(12.0116 -4.44868 -248.809)
(12.1341 -4.61796 -249.462)
(12.2417 -4.74612 -250.184)
(12.3613 -4.8193 -250.932)
(12.4883 -4.87496 -251.658)
(12.6123 -4.95579 -252.33)
(12.7026 -5.06603 -252.925)
(12.7544 -5.15858 -253.407)
(12.7943 -5.17911 -253.745)
(12.8575 -5.13456 -253.904)
(12.9482 -5.09324 -253.881)
(13.0346 -5.0947 -253.693)
(13.0799 -5.12014 -253.336)
(13.075 -5.14083 -252.806)
(13.0389 -5.14639 -252.176)
(13.003 -5.1375 -251.567)
(12.9831 -5.11989 -251.123)
(12.9813 -5.10333 -250.944)
(12.9931 -5.09246 -251.045)
(13.0107 -5.08841 -251.362)
(13.0281 -5.08914 -251.786)
(13.0426 -5.0921 -252.21)
(13.0537 -5.09527 -252.563)
(13.0619 -5.09768 -252.814)
(13.0682 -5.09916 -252.968)
(13.0733 -5.09992 -253.05)
(13.0779 -5.10028 -253.089)
(13.0823 -5.1005 -253.107)
(13.0865 -5.10068 -253.116)
(13.0906 -5.10079 -253.124)
(9.62188 0.324642 -240.362)
(11.3872 1.03624 -244.862)
(10.4698 1.70996 -245.122)
(11.1914 2.24395 -245.668)
(11.0404 2.74319 -246.107)
(11.3701 3.1388 -246.488)
(11.4281 3.49514 -246.875)
(11.627 3.78695 -247.282)
(11.7382 4.03738 -247.736)
(11.8922 4.25184 -248.238)
(12.0116 4.44868 -248.809)
(12.1341 4.61796 -249.462)
(12.2417 4.74612 -250.184)
(12.3613 4.81933 -250.932)
(12.4883 4.87499 -251.658)
(12.6123 4.95577 -252.33)
(12.7027 5.06595 -252.925)
(12.7544 5.15853 -253.407)
(12.7942 5.17928 -253.745)
(12.8574 5.13488 -253.904)
(12.9481 5.09341 -253.881)
(13.0344 5.09459 -253.693)
(13.0799 5.11987 -253.336)
(13.0751 5.14053 -252.806)
(13.0392 5.14619 -252.176)
(13.0034 5.13749 -251.567)
(12.9833 5.12009 -251.123)
(12.9814 5.1036 -250.944)
(12.9931 5.09262 -251.045)
(13.0105 5.08841 -251.362)
(13.028 5.0891 -251.786)
(13.0425 5.09211 -252.211)
(13.0535 5.09527 -252.563)
(13.0618 5.09763 -252.814)
(13.0682 5.09908 -252.968)
(13.0734 5.09991 -253.05)
(13.078 5.10037 -253.089)
(13.0822 5.10064 -253.107)
(13.0863 5.10079 -253.116)
(13.0904 5.10081 -253.124)
(9.72239 -0.489396 -240.583)
(11.6339 -1.18524 -244.86)
(10.7809 -1.95107 -245.285)
(11.4907 -2.47563 -245.702)
(11.3403 -2.99245 -246.064)
(11.6392 -3.37615 -246.342)
(11.6802 -3.72577 -246.625)
(11.8541 -4.00522 -246.924)
(11.9493 -4.25164 -247.272)
(12.0881 -4.45503 -247.666)
(12.1889 -4.63458 -248.129)
(12.291 -4.78907 -248.676)
(12.3807 -4.92285 -249.3)
(12.4906 -5.01735 -249.958)
(12.6097 -5.08385 -250.598)
(12.7043 -5.13303 -251.19)
(12.7543 -5.1819 -251.715)
(12.7795 -5.23405 -252.131)
(12.8241 -5.27183 -252.412)
(12.9167 -5.28043 -252.522)
(13.0168 -5.26632 -252.453)
(13.0651 -5.23098 -252.212)
(13.0534 -5.17872 -251.793)
(13.0154 -5.12952 -251.198)
(12.9848 -5.11168 -250.515)
(12.976 -5.11825 -249.871)
(12.9863 -5.12846 -249.401)
(13.0063 -5.136 -249.188)
(13.027 -5.13711 -249.24)
(13.0436 -5.13386 -249.497)
(13.0552 -5.12968 -249.859)
(13.0633 -5.12688 -250.228)
(13.0693 -5.12607 -250.536)
(13.0743 -5.12657 -250.755)
(13.0788 -5.12748 -250.889)
(13.0829 -5.12824 -250.96)
(13.0866 -5.12872 -250.993)
(13.0902 -5.12898 -251.007)
(13.0938 -5.12915 -251.016)
(13.0976 -5.12931 -251.024)
(9.58899 0.3903 -239.979)
(11.3359 1.35231 -244.861)
(10.3456 2.09931 -244.698)
(11.1142 2.72209 -245.302)
(10.9478 3.2357 -245.472)
(11.3089 3.66066 -245.801)
(11.3673 4.02508 -246.049)
(11.5794 4.32702 -246.396)
(11.6966 4.57643 -246.775)
(11.8601 4.80232 -247.231)
(11.9763 5.02319 -247.758)
(12.0821 5.21277 -248.385)
(12.1772 5.32589 -249.087)
(12.3038 5.36832 -249.821)
(12.442 5.43344 -250.542)
(12.5533 5.58823 -251.237)
(12.5761 5.76636 -251.865)
(12.5397 5.85966 -252.405)
(12.5432 5.80462 -252.813)
(12.6372 5.68787 -252.964)
(12.7881 5.67905 -252.939)
(12.9041 5.78639 -252.827)
(12.9054 5.88661 -252.53)
(12.7902 5.91633 -252.052)
(12.6366 5.89053 -251.471)
(12.5338 5.84302 -250.932)
(12.4953 5.80027 -250.589)
(12.4992 5.77934 -250.519)
(12.5251 5.77759 -250.703)
(12.5534 5.78698 -251.051)
(12.5753 5.79895 -251.458)
(12.5894 5.80835 -251.831)
(12.5981 5.81373 -252.117)
(12.6045 5.816 -252.305)
(12.61 5.81672 -252.409)
(12.6151 5.81696 -252.457)
(12.6198 5.81707 -252.474)
(12.6241 5.81709 -252.48)
(12.6283 5.81701 -252.483)
(12.6326 5.81685 -252.489)
(9.85278 -1.2476 -240.731)
(11.9106 -1.9462 -244.907)
(11.0307 -2.93202 -245.311)
(11.7426 -3.49457 -245.689)
(11.5583 -4.05034 -246.043)
(11.8189 -4.42991 -246.317)
(11.815 -4.76954 -246.601)
(11.9419 -5.04005 -246.895)
(11.9631 -5.28808 -247.264)
(12.0072 -5.46957 -247.701)
(12.0188 -5.60654 -248.206)
(12.057 -5.74321 -248.782)
(12.0635 -5.90694 -249.458)
(12.0119 -6.05584 -250.219)
(11.9016 -6.10914 -250.98)
(11.8133 -6.05551 -251.631)
(11.8155 -5.98055 -252.078)
(11.8825 -6.02399 -252.352)
(11.897 -6.18218 -252.54)
(11.7783 -6.32625 -252.595)
(11.5813 -6.32981 -252.523)
(11.446 -6.15804 -252.284)
(11.4392 -5.90002 -251.79)
(11.5336 -5.74305 -251.164)
(11.6574 -5.73901 -250.584)
(11.7339 -5.82733 -250.182)
(11.7562 -5.92746 -250.014)
(11.7464 -5.98833 -250.06)
(11.7229 -6.00603 -250.253)
(11.7025 -5.99632 -250.507)
(11.6914 -5.97889 -250.753)
(11.6889 -5.96606 -250.949)
(11.6912 -5.96114 -251.083)
(11.695 -5.96152 -251.162)
(11.6988 -5.9634 -251.202)
(11.7022 -5.96469 -251.22)
(11.7057 -5.96515 -251.229)
(11.7092 -5.96527 -251.234)
(11.7128 -5.96545 -251.241)
(11.7164 -5.96581 -251.248)
(8.56726 0.872827 -239.324)
(10.5289 2.36933 -245.97)
(8.6865 3.30119 -247.017)
(9.10542 4.05265 -248.802)
(8.32251 4.62013 -250.084)
(8.24303 5.10312 -251.476)
(7.78958 5.48833 -252.73)
(7.59261 5.83259 -254.057)
(7.27921 6.12748 -255.372)
(7.07046 6.37537 -256.659)
(6.84365 6.57858 -257.872)
(6.68009 6.77593 -259.011)
(6.51644 6.96813 -259.988)
(6.36358 7.13065 -260.702)
(6.20741 7.22009 -261.132)
(6.08792 7.25478 -261.366)
(6.03022 7.2815 -261.522)
(6.01852 7.35691 -261.677)
(5.98904 7.46111 -261.812)
(5.9141 7.53628 -261.853)
(5.81034 7.52858 -261.75)
(5.73201 7.43934 -261.524)
(5.73436 7.31673 -261.27)
(5.81261 7.24072 -261.101)
(5.9067 7.22241 -261.065)
(5.96842 7.24469 -261.134)
(5.98889 7.28235 -261.248)
(5.98196 7.31036 -261.359)
(5.96564 7.32414 -261.445)
(5.95299 7.32716 -261.5)
(5.94861 7.32573 -261.533)
(5.95126 7.3243 -261.552)
(5.95734 7.32432 -261.563)
(5.96389 7.32522 -261.57)
(5.9696 7.32604 -261.576)
(5.97452 7.32639 -261.58)
(5.97901 7.32639 -261.585)
(5.98336 7.32631 -261.59)
(5.98762 7.32631 -261.595)
(5.99177 7.3264 -261.6)
(14.5396 1.59151 0.211339)
(11.8037 3.54542 0.0853331)
(12.6281 4.68117 0.156827)
(11.4364 5.40201 0.111444)
(11.0535 5.89681 0.135757)
(10.2405 6.21562 0.119153)
(9.65826 6.43671 0.12725)
(9.00751 6.58889 0.120954)
(8.44283 6.68191 0.123632)
(7.9234 6.75546 0.121261)
(7.47766 6.84346 0.122277)
(7.04267 6.91214 0.121591)
(6.63379 6.91882 0.121922)
(6.30972 6.89633 0.12109)
(6.10162 6.909 0.12021)
(5.97504 6.96264 0.119048)
(5.87874 7.01359 0.118656)
(5.78508 7.02794 0.118486)
(5.69175 7.01387 0.117891)
(5.61436 6.99865 0.116693)
(5.5774 7.00705 0.115265)
(5.59641 7.04477 0.114172)
(5.66031 7.10022 0.114486)
(5.73678 7.15487 0.115794)
(5.79471 7.1958 0.11714)
(5.82324 7.2187 0.117958)
(5.82956 7.22866 0.118193)
(5.82641 7.23359 0.117961)
(5.82347 7.23751 0.1175)
(5.82482 7.24141 0.11697)
(5.83019 7.24455 0.116477)
(5.8377 7.24637 0.116057)
(5.84564 7.24684 0.115716)
(5.85329 7.24633 0.115446)
(5.86057 7.24537 0.115231)
(5.86762 7.24438 0.115051)
(5.87455 7.24358 0.114888)
(5.88147 7.24302 0.114732)
(5.88839 7.24265 0.114577)
(5.89526 7.24241 0.11442)
(14.011 -0.641477 0.0284363)
(10.9911 -1.42023 -0.0899625)
(12.5348 -1.9768 -0.0275261)
(11.8983 -2.5052 -0.0691883)
(12.3154 -2.84534 -0.0471002)
(12.1909 -3.16628 -0.0621247)
(12.2628 -3.41305 -0.0551042)
(12.1823 -3.61547 -0.0609814)
(12.125 -3.79291 -0.0592003)
(12.0086 -3.97912 -0.0617178)
(11.8919 -4.1326 -0.0615341)
(11.7757 -4.2333 -0.0628491)
(11.6648 -4.33282 -0.0635333)
(11.536 -4.48638 -0.0644506)
(11.3937 -4.67424 -0.0647295)
(11.2581 -4.82938 -0.0649202)
(11.1436 -4.90834 -0.0646599)
(11.045 -4.92262 -0.0648824)
(10.9486 -4.92275 -0.0653434)
(10.8532 -4.96257 -0.0659742)
(10.7764 -5.06806 -0.0658372)
(10.7271 -5.21217 -0.0648981)
(10.6992 -5.33162 -0.0635824)
(10.6845 -5.38718 -0.0619214)
(10.6748 -5.38753 -0.0611595)
(10.664 -5.36455 -0.061066)
(10.6529 -5.34509 -0.0610228)
(10.644 -5.33989 -0.0612927)
(10.6387 -5.3452 -0.0616165)
(10.637 -5.35341 -0.0620162)
(10.6376 -5.35881 -0.062441)
(10.6394 -5.35999 -0.0628559)
(10.6417 -5.35823 -0.0632241)
(10.6444 -5.35539 -0.0635275)
(10.6475 -5.35267 -0.063768)
(10.6511 -5.35052 -0.0639621)
(10.6551 -5.34894 -0.0641292)
(10.6596 -5.34779 -0.0642847)
(10.6645 -5.34684 -0.064438)
(10.6697 -5.34593 -0.0645937)
(14.0927 0.449364 0.125211)
(11.6548 1.55796 0.0219024)
(13.0048 2.28816 0.0837324)
(12.4063 2.96476 0.0432972)
(12.7334 3.4529 0.0662942)
(12.6435 3.85087 0.0509724)
(12.762 4.14937 0.0584476)
(12.7917 4.38193 0.0524343)
(12.8801 4.55254 0.0545491)
(12.9447 4.69026 0.0519808)
(13.0079 4.8051 0.0523333)
(13.0639 4.88521 0.0508934)
(13.13 4.92171 0.0507445)
(13.1893 4.94403 0.049887)
(13.2228 4.98192 0.0491358)
(13.2249 5.03293 0.0481302)
(13.2068 5.07274 0.047048)
(13.1818 5.08812 0.0464897)
(13.1615 5.08446 0.0463378)
(13.1527 5.07449 0.0461108)
(13.1526 5.0695 0.0450544)
(13.1526 5.08584 0.0437772)
(13.1374 5.13363 0.0429752)
(13.0933 5.19604 0.042883)
(13.0259 5.24739 0.0438253)
(12.9549 5.27494 0.0449412)
(12.8984 5.28131 0.045508)
(12.8666 5.27608 0.0458083)
(12.8595 5.26852 0.0456561)
(12.869 5.26401 0.0452408)
(12.8857 5.26271 0.0447147)
(12.9018 5.26316 0.0442135)
(12.914 5.2638 0.0438023)
(12.922 5.26386 0.0434938)
(12.9269 5.26328 0.0432679)
(12.9303 5.26235 0.043093)
(12.9333 5.26136 0.0429408)
(12.9364 5.2605 0.0427936)
(12.9397 5.25984 0.0426441)
(12.9433 5.25933 0.0424913)
(14.0166 -0.20008 0.0625973)
(11.0808 -0.806637 -0.048458)
(12.397 -1.22889 0.0119001)
(11.6654 -1.68837 -0.0280999)
(12.0354 -2.00428 -0.00603223)
(11.9397 -2.30811 -0.0205518)
(12.1134 -2.53414 -0.0133707)
(12.1873 -2.72778 -0.0189309)
(12.3292 -2.88754 -0.0169375)
(12.4455 -3.03809 -0.0192731)
(12.5789 -3.15603 -0.0190536)
(12.7145 -3.24084 -0.020314)
(12.8528 -3.32302 -0.0206698)
(12.9711 -3.43869 -0.0215235)
(13.0639 -3.57957 -0.0219092)
(13.1356 -3.70234 -0.0227242)
(13.1976 -3.76888 -0.0232616)
(13.2594 -3.78507 -0.0237056)
(13.3224 -3.80086 -0.0238712)
(13.374 -3.87447 -0.0238307)
(13.3915 -4.01488 -0.0238215)
(13.3626 -4.16722 -0.0238243)
(13.3039 -4.26378 -0.0235193)
(13.2508 -4.28065 -0.0228695)
(13.2263 -4.25169 -0.022075)
(13.2291 -4.22615 -0.0214219)
(13.2457 -4.23028 -0.0209669)
(13.2624 -4.26083 -0.0208677)
(13.2717 -4.29896 -0.0210877)
(13.2724 -4.32817 -0.0215338)
(13.2675 -4.34089 -0.0220717)
(13.2615 -4.34 -0.0225794)
(13.2569 -4.33234 -0.0229862)
(13.2544 -4.32374 -0.0232781)
(13.2538 -4.31708 -0.0234798)
(13.2544 -4.31288 -0.0236301)
(13.2558 -4.3105 -0.0237622)
(13.2578 -4.3091 -0.0238958)
(13.2602 -4.30809 -0.0240381)
(13.2631 -4.30724 -0.0241887)
(14.0644 0.188488 0.090447)
(11.3883 0.851756 -0.0139872)
(12.6815 1.30762 0.0462805)
(11.9758 1.82005 0.00700152)
(12.2722 2.18815 0.0294865)
(12.1336 2.52849 0.0148974)
(12.2439 2.78591 0.0222232)
(12.2695 3.00146 0.0165666)
(12.3672 3.17027 0.0185927)
(12.4488 3.31599 0.0161861)
(12.5491 3.43266 0.0164733)
(12.6563 3.52005 0.0150984)
(12.7768 3.58846 0.0147126)
(12.8896 3.66413 0.01381)
(12.9808 3.75485 0.0132489)
(13.0481 3.84182 0.012461)
(13.104 3.89804 0.0116566)
(13.1627 3.91977 0.0109066)
(13.2277 3.93262 0.010431)
(13.2863 3.97285 0.0101667)
(13.3136 4.05256 0.00995801)
(13.296 4.14723 0.00963222)
(13.249 4.22212 0.00946925)
(13.2025 4.26129 0.00954498)
(13.1787 4.27005 0.0100325)
(13.183 4.26933 0.0107091)
(13.2037 4.27644 0.0111926)
(13.2266 4.29316 0.0114006)
(13.2422 4.31303 0.0112354)
(13.2492 4.32649 0.0108044)
(13.2508 4.33193 0.010255)
(13.2499 4.33062 0.00973148)
(13.2489 4.32593 0.00931697)
(13.2486 4.32073 0.00902789)
(13.2492 4.31652 0.00883552)
(13.2506 4.31361 0.00869623)
(13.2527 4.31172 0.00857352)
(13.2552 4.31047 0.00844633)
(13.258 4.30959 0.0083078)
(13.2612 4.30891 0.00815918)
(14.0644 -0.188488 0.0904471)
(11.3883 -0.851757 -0.0139871)
(12.6815 -1.30762 0.0462805)
(11.9758 -1.82005 0.00700152)
(12.2722 -2.18815 0.0294865)
(12.1336 -2.52849 0.0148974)
(12.2439 -2.78591 0.0222231)
(12.2695 -3.00145 0.0165666)
(12.3672 -3.17026 0.0185927)
(12.4488 -3.31599 0.0161863)
(12.5491 -3.43267 0.0164733)
(12.6563 -3.52004 0.0150986)
(12.7768 -3.58845 0.0147128)
(12.8896 -3.66414 0.0138106)
(12.9807 -3.75486 0.0132502)
(13.0481 -3.84178 0.0124619)
(13.1041 -3.89797 0.0116574)
(13.1627 -3.91977 0.0109075)
(13.2276 -3.93271 0.0104327)
(13.286 -3.97297 0.0101696)
(13.3135 -4.05258 0.00996086)
(13.2961 -4.1471 0.00963435)
(13.2493 -4.22189 0.00947242)
(13.2028 -4.2611 0.00954681)
(13.1789 -4.27 0.0100363)
(13.1829 -4.26946 0.010708)
(13.2035 -4.27666 0.0111916)
(13.2264 -4.29332 0.0113995)
(13.2423 -4.31305 0.0112349)
(13.2494 -4.32644 0.0108043)
(13.2509 -4.33193 0.0102548)
(13.2498 -4.33067 0.00973135)
(13.2487 -4.32591 0.00931724)
(13.2485 -4.3206 0.0090284)
(13.2493 -4.31638 0.00883574)
(13.2507 -4.31357 0.00869592)
(13.2527 -4.31179 0.00857291)
(13.2551 -4.31057 0.00844585)
(13.258 -4.30964 0.00830782)
(13.2613 -4.30887 0.00815988)
(14.0166 0.20008 0.0625972)
(11.0808 0.806637 -0.048458)
(12.397 1.22889 0.0119001)
(11.6654 1.68837 -0.0281)
(12.0354 2.00428 -0.00603224)
(11.9397 2.30811 -0.0205518)
(12.1134 2.53414 -0.0133706)
(12.1873 2.72777 -0.0189309)
(12.3292 2.88755 -0.0169373)
(12.4455 3.0381 -0.0192732)
(12.5789 3.15603 -0.0190536)
(12.7145 3.24083 -0.0203141)
(12.8528 3.32303 -0.02067)
(12.9712 3.43872 -0.021524)
(13.064 3.57959 -0.0219111)
(13.1356 3.70231 -0.0227249)
(13.1976 3.76886 -0.0232623)
(13.2594 3.78516 -0.0237063)
(13.3224 3.80101 -0.0238731)
(13.374 3.87446 -0.0238339)
(13.3916 4.01466 -0.0238239)
(13.3627 4.167 -0.023825)
(13.304 4.26383 -0.0235221)
(13.2508 4.28096 -0.0228713)
(13.2262 4.25203 -0.0220803)
(13.2289 4.22633 -0.0214227)
(13.2456 4.23016 -0.0209677)
(13.2623 4.26049 -0.0208671)
(13.2717 4.29864 -0.0210864)
(13.2725 4.32815 -0.0215327)
(13.2675 4.34115 -0.0220714)
(13.2614 4.34025 -0.0225799)
(13.2568 4.33237 -0.0229868)
(13.2544 4.32363 -0.0232784)
(13.2538 4.31705 -0.0234799)
(13.2544 4.31297 -0.0236302)
(13.2558 4.31057 -0.0237622)
(13.2578 4.30903 -0.0238956)
(13.2603 4.30794 -0.0240377)
(13.2632 4.30713 -0.0241885)
(14.0927 -0.449364 0.125211)
(11.6548 -1.55796 0.0219024)
(13.0048 -2.28816 0.0837324)
(12.4063 -2.96476 0.0432972)
(12.7334 -3.4529 0.0662942)
(12.6435 -3.85087 0.0509724)
(12.762 -4.14937 0.0584476)
(12.7917 -4.38192 0.0524344)
(12.8801 -4.55253 0.0545492)
(12.9447 -4.69027 0.0519808)
(13.0079 -4.80509 0.0523336)
(13.0639 -4.88521 0.0508936)
(13.13 -4.92173 0.0507448)
(13.1893 -4.94404 0.0498868)
(13.2228 -4.98189 0.0491363)
(13.2249 -5.03288 0.0481308)
(13.2068 -5.07272 0.0470509)
(13.1818 -5.08815 0.046491)
(13.1615 -5.08453 0.0463377)
(13.1527 -5.07461 0.0461137)
(13.1525 -5.06963 0.0450585)
(13.1525 -5.08579 0.0437832)
(13.1375 -5.13334 0.042968)
(13.0935 -5.1957 0.0428796)
(13.0262 -5.24722 0.0438204)
(12.9552 -5.27508 0.0449348)
(12.8985 -5.28165 0.0455034)
(12.8664 -5.2764 0.0458091)
(12.8591 -5.26866 0.0456619)
(12.8687 -5.26397 0.0452465)
(12.8855 -5.2626 0.0447158)
(12.9019 -5.26308 0.0442113)
(12.9142 -5.26376 0.0438008)
(12.9221 -5.26381 0.0434941)
(12.927 -5.26322 0.0432679)
(12.9304 -5.26234 0.0430915)
(12.9333 -5.26145 0.042939)
(12.9363 -5.26065 0.0427935)
(12.9396 -5.25993 0.0426465)
(12.9433 -5.25928 0.0424948)
(14.011 0.641476 0.0284364)
(10.9911 1.42024 -0.0899623)
(12.5348 1.9768 -0.0275261)
(11.8983 2.50519 -0.0691883)
(12.3154 2.84534 -0.0471002)
(12.1909 3.1663 -0.0621247)
(12.2628 3.41305 -0.0551043)
(12.1823 3.61546 -0.0609815)
(12.125 3.79292 -0.0592002)
(12.0086 3.97913 -0.0617175)
(11.8919 4.1326 -0.0615339)
(11.7757 4.23331 -0.0628487)
(11.6647 4.33283 -0.063533)
(11.536 4.48638 -0.0644508)
(11.3938 4.67425 -0.0647291)
(11.2582 4.82941 -0.0649195)
(11.1435 4.90835 -0.0646606)
(11.045 4.92266 -0.0648839)
(10.9487 4.92289 -0.0653431)
(10.8534 4.96272 -0.0659742)
(10.7765 5.06796 -0.0658353)
(10.7271 5.21182 -0.0649003)
(10.6992 5.33133 -0.0635773)
(10.6845 5.38722 -0.0619239)
(10.6748 5.38786 -0.0611608)
(10.6641 5.36494 -0.0610629)
(10.6531 5.34534 -0.0610178)
(10.6442 5.33992 -0.0612882)
(10.6387 5.34502 -0.0616156)
(10.6369 5.35319 -0.0620191)
(10.6375 5.35868 -0.0624446)
(10.6394 5.35998 -0.0628575)
(10.6418 5.35824 -0.0632238)
(10.6445 5.35535 -0.0635271)
(10.6476 5.35267 -0.0637683)
(10.6511 5.35063 -0.0639618)
(10.6552 5.34909 -0.0641276)
(10.6597 5.34781 -0.0642828)
(10.6646 5.34669 -0.0644373)
(10.6698 5.34571 -0.0645948)
(14.5396 -1.59151 0.211339)
(11.8037 -3.54542 0.085333)
(12.6282 -4.68117 0.156827)
(11.4364 -5.40201 0.111444)
(11.0534 -5.89681 0.135756)
(10.2406 -6.21562 0.119153)
(9.65827 -6.43671 0.12725)
(9.0075 -6.58889 0.120954)
(8.44283 -6.68191 0.123632)
(7.92341 -6.75548 0.121261)
(7.47765 -6.84346 0.122278)
(7.04268 -6.9121 0.121592)
(6.63385 -6.91883 0.121923)
(6.30974 -6.89642 0.121089)
(6.10157 -6.909 0.120211)
(5.97507 -6.96249 0.119051)
(5.87889 -7.0135 0.118656)
(5.78522 -7.02806 0.118483)
(5.69181 -7.01407 0.117889)
(5.61442 -6.99878 0.116694)
(5.57746 -7.00707 0.115271)
(5.59635 -7.04467 0.114177)
(5.66013 -7.09996 0.114485)
(5.73671 -7.15456 0.115787)
(5.7949 -7.19572 0.117132)
(5.82356 -7.21897 0.117954)
(5.82983 -7.22903 0.118195)
(5.8266 -7.23372 0.11797)
(5.82366 -7.23739 0.117509)
(5.82498 -7.24132 0.116972)
(5.83024 -7.2446 0.116473)
(5.83765 -7.24642 0.116053)
(5.84561 -7.24677 0.115716)
(5.85333 -7.2462 0.115447)
(5.86065 -7.24529 0.11523)
(5.86773 -7.24441 0.115049)
(5.8747 -7.24372 0.114888)
(5.88158 -7.24318 0.114735)
(5.88838 -7.24272 0.114581)
(5.89514 -7.2423 0.114423)
(11.7969 -0.144968 -0.0940842)
(11.6523 -0.202952 0.0215087)
(11.8498 -0.202424 -0.0504571)
(11.5822 -0.170219 -0.0275393)
(11.7001 -0.0971002 -0.0431006)
(11.5284 -0.0191411 -0.0409724)
(11.5427 0.0722757 -0.0450683)
(11.4314 0.167655 -0.0465999)
(11.3875 0.265922 -0.0485589)
(11.2872 0.361088 -0.0503194)
(11.2147 0.453998 -0.0517829)
(11.1251 0.548862 -0.0536498)
(11.036 0.64475 -0.0551763)
(10.9224 0.733655 -0.0564584)
(10.8038 0.808379 -0.0572894)
(10.694 0.872642 -0.0582457)
(10.6071 0.939804 -0.0593704)
(10.5296 1.01982 -0.0605885)
(10.4387 1.10702 -0.0616409)
(10.3218 1.18407 -0.0625085)
(10.1968 1.23899 -0.0630925)
(10.0976 1.27403 -0.0633607)
(10.0478 1.30174 -0.0632166)
(10.0477 1.33249 -0.0627577)
(10.0818 1.36826 -0.0620763)
(10.1306 1.40493 -0.0613588)
(10.1796 1.43697 -0.0608254)
(10.2219 1.46119 -0.0606545)
(10.2562 1.47731 -0.0609021)
(10.2839 1.48697 -0.0615024)
(10.3071 1.49216 -0.0622961)
(10.3275 1.49451 -0.0631172)
(10.3458 1.49506 -0.0638421)
(10.3627 1.49441 -0.0644186)
(10.3785 1.49297 -0.064853)
(10.3934 1.49103 -0.0651834)
(10.4078 1.48883 -0.0654542)
(10.4219 1.48657 -0.0657005)
(10.4356 1.4844 -0.065942)
(10.4491 1.48234 -0.0661862)
(11.8797 -4.20568e-05 0.0294737)
(11.8713 -0.0416696 0.163806)
(12.2131 -0.0782571 0.100194)
(12.0521 -0.150491 0.132797)
(12.2914 -0.224679 0.119081)
(12.2411 -0.309259 0.12468)
(12.3747 -0.402062 0.121323)
(12.386 -0.491867 0.120948)
(12.4663 -0.578022 0.119311)
(12.4993 -0.66683 0.11792)
(12.5536 -0.763959 0.116736)
(12.5865 -0.856797 0.115098)
(12.6223 -0.936493 0.113351)
(12.6479 -1.01085 0.111604)
(12.6724 -1.09771 0.110383)
(12.6878 -1.20102 0.109196)
(12.6916 -1.30506 0.107849)
(12.6798 -1.38809 0.106155)
(12.6596 -1.44451 0.104507)
(12.6429 -1.49343 0.102877)
(12.639 -1.56215 0.10167)
(12.6465 -1.65838 0.100564)
(12.6571 -1.76623 0.0998692)
(12.661 -1.8649 0.0994599)
(12.6538 -1.94119 0.0994131)
(12.6386 -1.99259 0.099698)
(12.6218 -2.02344 0.100152)
(12.6099 -2.04048 0.100515)
(12.6056 -2.04935 0.100633)
(12.6083 -2.05359 0.100415)
(12.6153 -2.05485 0.0999322)
(12.6241 -2.05398 0.0993065)
(12.633 -2.05163 0.098672)
(12.6414 -2.04844 0.0981159)
(12.6495 -2.04497 0.09767)
(12.6575 -2.04158 0.0973224)
(12.6658 -2.03845 0.0970419)
(12.6744 -2.03559 0.0967966)
(12.6833 -2.03299 0.096564)
(12.6925 -2.03056 0.0963325)
(11.838 0.0135836 -0.0479437)
(11.8006 0.0896162 0.0637699)
(12.0891 0.137463 -0.00011245)
(11.9302 0.21407 0.0256706)
(12.1599 0.296577 0.0112469)
(12.121 0.388058 0.0142916)
(12.2662 0.487339 0.0102559)
(12.2965 0.590325 0.00870925)
(12.4016 0.695043 0.00646989)
(12.4674 0.798068 0.0042771)
(12.5598 0.902462 0.00244874)
(12.6328 1.00769 0.000293157)
(12.7121 1.10844 -0.00172424)
(12.786 1.19805 -0.00371711)
(12.8633 1.27648 -0.00513703)
(12.934 1.35224 -0.00624702)
(12.9941 1.43526 -0.00726939)
(13.0376 1.52428 -0.00837954)
(13.0693 1.60332 -0.00945785)
(13.0975 1.65606 -0.0101966)
(13.1291 1.68497 -0.0107051)
(13.1597 1.70831 -0.0106505)
(13.1803 1.74295 -0.0104387)
(13.1858 1.79363 -0.0100502)
(13.1768 1.8545 -0.00963807)
(13.1606 1.91105 -0.00929183)
(13.1479 1.95213 -0.00905358)
(13.1469 1.97515 -0.00896543)
(13.1595 1.98425 -0.00913733)
(13.1825 1.98564 -0.00954331)
(13.2103 1.98404 -0.0101297)
(13.238 1.98175 -0.0107799)
(13.2627 1.9793 -0.0113922)
(13.2835 1.97661 -0.0119073)
(13.3011 1.97361 -0.012315)
(13.3164 1.97039 -0.0126372)
(13.3303 1.96711 -0.0129067)
(13.3435 1.96394 -0.0131516)
(13.3562 1.96099 -0.0133887)
(13.3685 1.95827 -0.013626)
(11.8567 -0.0310767 -0.00916366)
(11.8291 -0.144188 0.1179)
(12.1521 -0.218023 0.056011)
(11.9887 -0.330049 0.0878535)
(12.2246 -0.423672 0.0742439)
(12.1719 -0.527958 0.0800997)
(12.3082 -0.629275 0.0768395)
(12.3268 -0.729842 0.0767041)
(12.4212 -0.82771 0.075225)
(12.4735 -0.925343 0.073961)
(12.5541 -1.02265 0.0727336)
(12.6223 -1.11393 0.0711368)
(12.7038 -1.1977 0.0696279)
(12.7813 -1.28011 0.0681387)
(12.8576 -1.36935 0.0670306)
(12.922 -1.46316 0.0658509)
(12.9784 -1.54867 0.0645747)
(13.0334 -1.61493 0.0631495)
(13.0957 -1.66699 0.0618575)
(13.1602 -1.72391 0.0608342)
(13.2115 -1.80021 0.0600896)
(13.2382 -1.89092 0.0595741)
(13.2408 -1.97865 0.0592309)
(13.2303 -2.04929 0.0591381)
(13.2221 -2.10219 0.0592327)
(13.2247 -2.14318 0.0593302)
(13.2384 -2.17802 0.0593741)
(13.2581 -2.2083 0.0591935)
(13.2783 -2.23211 0.0587919)
(13.296 -2.2474 0.0581978)
(13.3104 -2.25391 0.05754)
(13.3224 -2.2536 0.0569068)
(13.333 -2.24928 0.0563665)
(13.343 -2.24342 0.0559363)
(13.3527 -2.23756 0.0556006)
(13.3625 -2.23237 0.0553277)
(13.3724 -2.22794 0.0550872)
(13.3824 -2.22413 0.0548575)
(13.3924 -2.22076 0.0546274)
(13.4026 -2.21769 0.0543933)
(11.8468 0.0343217 -0.0284631)
(11.8205 0.156104 0.0903692)
(12.1211 0.238398 0.0282421)
(11.9578 0.342574 0.0574197)
(12.1931 0.436684 0.0439843)
(12.1453 0.539166 0.0488741)
(12.2845 0.640214 0.0456004)
(12.3064 0.742871 0.0450581)
(12.4024 0.844123 0.0434251)
(12.456 0.944909 0.0418424)
(12.537 1.04516 0.0403897)
(12.6036 1.14223 0.0385622)
(12.6812 1.23366 0.0368365)
(12.7538 1.3207 0.0350618)
(12.8265 1.40745 0.0336534)
(12.8902 1.49502 0.0323174)
(12.9474 1.57878 0.031002)
(12.9998 1.6517 0.029653)
(13.0523 1.71186 0.0284438)
(13.1018 1.7664 0.0274981)
(13.1415 1.82468 0.0268238)
(13.1639 1.89082 0.0263795)
(13.1699 1.95706 0.0262334)
(13.1679 2.01979 0.0263267)
(13.1668 2.07504 0.0265746)
(13.173 2.12133 0.0268668)
(13.1876 2.1584 0.0269609)
(13.2083 2.18598 0.0268143)
(13.2316 2.20441 0.0263796)
(13.2545 2.21438 0.0257664)
(13.2754 2.21756 0.0250739)
(13.2937 2.21599 0.0244273)
(13.3096 2.21177 0.0238841)
(13.3237 2.20654 0.0234607)
(13.3365 2.2013 0.0231353)
(13.3486 2.19649 0.0228722)
(13.3603 2.19221 0.0226382)
(13.3718 2.18839 0.0224118)
(13.3832 2.18495 0.022183)
(13.3946 2.18181 0.0219491)
(11.8468 -0.0343221 -0.0284631)
(11.8205 -0.156104 0.0903692)
(12.1211 -0.238399 0.0282421)
(11.9578 -0.342575 0.0574197)
(12.1931 -0.436684 0.0439843)
(12.1453 -0.539167 0.0488741)
(12.2845 -0.640215 0.0456004)
(12.3064 -0.74287 0.045058)
(12.4024 -0.844121 0.0434249)
(12.456 -0.944907 0.0418424)
(12.537 -1.04516 0.0403897)
(12.6036 -1.14223 0.0385622)
(12.6812 -1.23365 0.0368366)
(12.7538 -1.32069 0.0350619)
(12.8265 -1.40745 0.0336536)
(12.8902 -1.49503 0.0323175)
(12.9474 -1.57878 0.0310023)
(12.9998 -1.65167 0.0296531)
(13.0523 -1.71182 0.0284442)
(13.1018 -1.76638 0.027499)
(13.1415 -1.8247 0.0268254)
(13.1639 -1.89086 0.0263803)
(13.1699 -1.95706 0.0262326)
(13.1679 -2.01972 0.026325)
(13.1668 -2.07493 0.0265721)
(13.173 -2.12124 0.0268667)
(13.1876 -2.15839 0.0269623)
(13.2083 -2.18606 0.0268164)
(13.2316 -2.20455 0.026383)
(13.2545 -2.21448 0.025767)
(13.2754 -2.21758 0.0250734)
(13.2936 -2.21595 0.0244267)
(13.3096 -2.21172 0.0238841)
(13.3236 -2.20651 0.0234611)
(13.3365 -2.20129 0.0231356)
(13.3486 -2.19649 0.0228721)
(13.3603 -2.19221 0.0226384)
(13.3718 -2.1884 0.0224126)
(13.3832 -2.18496 0.0221839)
(13.3946 -2.18181 0.0219496)
(11.8567 0.0310766 -0.00916367)
(11.8291 0.144188 0.1179)
(12.1521 0.218023 0.056011)