/*--------------------------------*- C++ -*----------------------------------*\
  =========                 |
  \\      /  F ield         | OpenFOAM: The Open Source CFD Toolbox
   \\    /   O peration     | Website:  https://openfoam.org
    \\  /    A nd           | Version:  7
     \\/     M anipulation  |
\*---------------------------------------------------------------------------*/
FoamFile
{
    version     2.0;
    format      ascii;
    class       volScalarField;
    location    "0.125";
    object      rho_0;
}
// * * * * * * * * * * * * * * * * * * * * * * * * * * * * * * * * * * * * * //

dimensions      [1 -3 0 0 0 0 0];

internalField   nonuniform List<scalar> 
4950
(
1.3273
1.30833
1.31004
1.30671
1.30783
1.30713
1.30774
1.30756
1.30774
1.30759
1.30756
1.30744
1.30735
1.30726
1.30714
1.30708
1.3069
1.30688
1.30689
1.30658
1.33781
1.32417
1.31471
1.31183
1.31037
1.31076
1.3111
1.31164
1.31181
1.31188
1.31183
1.31177
1.31183
1.3118
1.31211
1.31213
1.31297
1.31298
1.31546
1.31533
1.35766
1.33981
1.33217
1.32271
1.32228
1.32121
1.32269
1.32332
1.32417
1.32426
1.32432
1.32414
1.3241
1.32396
1.32408
1.32399
1.3244
1.32458
1.32501
1.32677
1.35345
1.3484
1.33683
1.33153
1.32819
1.328
1.32877
1.33015
1.33104
1.33149
1.3316
1.3315
1.33161
1.3315
1.33207
1.33194
1.33334
1.33357
1.33532
1.33962
1.35992
1.35004
1.34116
1.33234
1.32997
1.32817
1.3296
1.33068
1.33194
1.33231
1.3325
1.33232
1.33231
1.33211
1.33236
1.33214
1.33299
1.33314
1.33434
1.33924
1.35345
1.3484
1.33683
1.33153
1.32819
1.328
1.32877
1.33015
1.33104
1.33149
1.3316
1.3315
1.33161
1.3315
1.33206
1.33195
1.33332
1.33361
1.33525
1.33969
1.35766
1.33981
1.33217
1.3227
1.32228
1.32121
1.32269
1.32332
1.32417
1.32426
1.32432
1.32414
1.32409
1.32396
1.32408
1.324
1.32437
1.32463
1.32489
1.32693
1.33781
1.32417
1.3147
1.31183
1.31037
1.31076
1.31109
1.31163
1.31181
1.31188
1.31183
1.31177
1.31182
1.31181
1.31211
1.31213
1.31295
1.31302
1.31537
1.3155
1.3273
1.30833
1.31004
1.30671
1.30783
1.30713
1.30774
1.30756
1.30774
1.30759
1.30756
1.30744
1.30735
1.30726
1.30714
1.30708
1.3069
1.30689
1.30687
1.30654
1.2679
1.27773
1.26514
1.27081
1.26707
1.26926
1.26807
1.26887
1.2684
1.26865
1.26851
1.26862
1.26878
1.26888
1.26944
1.26955
1.27093
1.27099
1.27515
1.27512
1.28947
1.30446
1.29196
1.29868
1.29511
1.29806
1.29725
1.29851
1.29817
1.29849
1.29838
1.29849
1.29881
1.29896
1.29998
1.30019
1.30268
1.30291
1.31112
1.31177
1.27953
1.30423
1.29025
1.29942
1.29441
1.29864
1.29797
1.30017
1.30006
1.30067
1.30059
1.30074
1.30122
1.3014
1.3029
1.30313
1.30672
1.30699
1.31635
1.31926
1.28988
1.31609
1.30814
1.31608
1.31356
1.31738
1.31793
1.32035
1.32088
1.32156
1.3216
1.32165
1.32209
1.32216
1.32358
1.32375
1.32704
1.32757
1.3348
1.33958
1.28239
1.31164
1.30317
1.31281
1.30922
1.31388
1.31394
1.31684
1.31735
1.31827
1.31833
1.31845
1.31897
1.31907
1.32072
1.32091
1.32448
1.3252
1.33107
1.33647
1.28988
1.31609
1.30814
1.31608
1.31356
1.31738
1.31793
1.32035
1.32088
1.32156
1.3216
1.32165
1.32209
1.32216
1.32358
1.32376
1.32702
1.3276
1.33475
1.33962
1.27953
1.30423
1.29025
1.29942
1.29441
1.29864
1.29797
1.30017
1.30006
1.30067
1.30059
1.30074
1.30122
1.3014
1.3029
1.30314
1.30669
1.30703
1.31628
1.31935
1.28947
1.30445
1.29196
1.29868
1.29511
1.29806
1.29725
1.29851
1.29817
1.29849
1.29838
1.29849
1.29881
1.29896
1.29997
1.30019
1.30266
1.30293
1.31107
1.31191
1.2679
1.27773
1.26514
1.27081
1.26707
1.26926
1.26807
1.26887
1.2684
1.26865
1.26851
1.26862
1.26878
1.26888
1.26944
1.26955
1.27093
1.271
1.27514
1.27505
1.28869
1.28879
1.28365
1.28627
1.2852
1.28713
1.28696
1.28773
1.28751
1.28768
1.28756
1.28762
1.28774
1.28779
1.28821
1.28825
1.28928
1.28904
1.29215
1.29471
1.28898
1.2953
1.28869
1.29244
1.2916
1.29458
1.29517
1.2966
1.29666
1.29691
1.29683
1.29684
1.2971
1.29715
1.29801
1.29807
1.30018
1.29986
1.30598
1.31028
1.287
1.2959
1.29102
1.2955
1.29546
1.29922
1.30095
1.3033
1.30403
1.30453
1.30454
1.30448
1.30476
1.30471
1.30571
1.30563
1.30801
1.30784
1.31231
1.3194
1.28886
1.30128
1.29909
1.30447
1.30536
1.30935
1.31173
1.31461
1.31589
1.31665
1.31677
1.31669
1.31694
1.31683
1.31782
1.31773
1.31997
1.32029
1.32359
1.33145
1.28694
1.29881
1.29762
1.30341
1.30441
1.30864
1.31113
1.3143
1.31577
1.31669
1.31687
1.3168
1.31706
1.31692
1.31792
1.31782
1.3199
1.32057
1.32247
1.33053
1.28886
1.30128
1.29909
1.30447
1.30536
1.30935
1.31173
1.31461
1.31589
1.31665
1.31677
1.31669
1.31694
1.31683
1.31782
1.31774
1.31994
1.32033
1.32354
1.33144
1.287
1.2959
1.29102
1.2955
1.29546
1.29922
1.30095
1.3033
1.30403
1.30453
1.30454
1.30448
1.30476
1.30472
1.3057
1.30564
1.30797
1.3079
1.31223
1.31931
1.28898
1.29529
1.28869
1.29244
1.29159
1.29458
1.29517
1.2966
1.29666
1.29691
1.29683
1.29684
1.2971
1.29715
1.29801
1.29807
1.30015
1.29991
1.30591
1.31014
1.28869
1.28879
1.28364
1.28627
1.2852
1.28713
1.28696
1.28773
1.28751
1.28768
1.28756
1.28762
1.28774
1.28779
1.28821
1.28826
1.28927
1.28906
1.29217
1.29403
1.2679
1.27773
1.26514
1.27081
1.26707
1.26926
1.26807
1.26887
1.2684
1.26865
1.26851
1.26862
1.26878
1.26888
1.26944
1.26955
1.27093
1.27099
1.27516
1.27512
1.28947
1.30446
1.29196
1.29868
1.29511
1.29806
1.29725
1.29851
1.29817
1.29849
1.29838
1.29849
1.29881
1.29896
1.29998
1.30019
1.30268
1.30291
1.31112
1.31177
1.27953
1.30423
1.29025
1.29942
1.29441
1.29864
1.29797
1.30017
1.30006
1.30067
1.30059
1.30074
1.30122
1.3014
1.3029
1.30313
1.30672
1.30699
1.31635
1.31926
1.28988
1.31609
1.30814
1.31608
1.31356
1.31738
1.31793
1.32035
1.32088
1.32156
1.3216
1.32165
1.32209
1.32216
1.32358
1.32375
1.32704
1.32757
1.3348
1.33959
1.28239
1.31164
1.30317
1.31281
1.30922
1.31388
1.31394
1.31684
1.31735
1.31827
1.31833
1.31845
1.31897
1.31907
1.32072
1.32091
1.32449
1.3252
1.33107
1.33647
1.28988
1.31609
1.30814
1.31608
1.31356
1.31738
1.31793
1.32035
1.32088
1.32156
1.32161
1.32165
1.32209
1.32216
1.32358
1.32376
1.32703
1.3276
1.33475
1.33962
1.27953
1.30423
1.29025
1.29942
1.29441
1.29864
1.29797
1.30017
1.30006
1.30067
1.30059
1.30074
1.30122
1.3014
1.3029
1.30314
1.3067
1.30703
1.31628
1.31935
1.28947
1.30445
1.29196
1.29868
1.29511
1.29806
1.29725
1.29851
1.29817
1.29849
1.29838
1.29849
1.29881
1.29896
1.29997
1.30019
1.30267
1.30293
1.31107
1.31191
1.2679
1.27773
1.26514
1.27081
1.26707
1.26926
1.26807
1.26887
1.2684
1.26865
1.26851
1.26862
1.26878
1.26888
1.26944
1.26955
1.27093
1.271
1.27514
1.27506
1.3273
1.30833
1.31004
1.30671
1.30783
1.30713
1.30774
1.30756
1.30774
1.30759
1.30756
1.30744
1.30735
1.30726
1.30714
1.30708
1.3069
1.30689
1.30689
1.30658
1.33781
1.32417
1.31471
1.31183
1.31037
1.31076
1.3111
1.31164
1.31181
1.31188
1.31183
1.31178
1.31183
1.31181
1.31211
1.31213
1.31297
1.31298
1.31546
1.31533
1.35766
1.33981
1.33217
1.3227
1.32228
1.32121
1.32269
1.32332
1.32417
1.32426
1.32432
1.32414
1.3241
1.32396
1.32408
1.32399
1.3244
1.32458
1.32501
1.32677
1.35345
1.3484
1.33683
1.33153
1.32819
1.328
1.32877
1.33015
1.33104
1.33149
1.3316
1.3315
1.33162
1.3315
1.33207
1.33194
1.33334
1.33357
1.33532
1.33962
1.35992
1.35004
1.34116
1.33234
1.32997
1.32817
1.3296
1.33068
1.33194
1.33232
1.3325
1.33232
1.33231
1.33211
1.33237
1.33214
1.33299
1.33314
1.33434
1.33924
1.35345
1.3484
1.33683
1.33153
1.3282
1.328
1.32877
1.33015
1.33104
1.33149
1.3316
1.3315
1.33162
1.3315
1.33207
1.33195
1.33332
1.33361
1.33525
1.3397
1.35766
1.33981
1.33217
1.32271
1.32228
1.32121
1.32269
1.32332
1.32417
1.32426
1.32432
1.32414
1.3241
1.32396
1.32408
1.324
1.32438
1.32463
1.32489
1.32693
1.33781
1.32417
1.31471
1.31183
1.31037
1.31076
1.3111
1.31164
1.31181
1.31188
1.31183
1.31178
1.31183
1.31181
1.31211
1.31213
1.31295
1.31302
1.31537
1.3155
1.3273
1.30833
1.31004
1.30671
1.30783
1.30713
1.30774
1.30756
1.30774
1.30759
1.30756
1.30744
1.30735
1.30726
1.30714
1.30708
1.3069
1.30689
1.30687
1.30654
1.31242
1.31213
1.31577
1.31757
1.31808
1.31789
1.31751
1.31701
1.31648
1.31593
1.31538
1.31483
1.31428
1.31372
1.31314
1.31251
1.31183
1.31106
1.3102
1.30924
1.3082
1.30709
1.30593
1.30474
1.30356
1.30242
1.30133
1.3003
1.29937
1.29851
1.29775
1.29706
1.29645
1.2959
1.29542
1.29497
1.29457
1.29419
1.29383
1.2935
1.29317
1.29285
1.29254
1.29223
1.29191
1.29159
1.29127
1.29094
1.2906
1.29025
1.28988
1.28948
1.28906
1.2886
1.28811
1.28758
1.287
1.28638
1.2857
1.28498
1.28422
1.28341
1.28257
1.2817
1.28083
1.27994
1.27907
1.27821
1.27738
1.27657
1.27579
1.27502
1.27428
1.27355
1.27284
1.27213
1.27143
1.27073
1.27005
1.26937
1.2687
1.26804
1.26739
1.26676
1.2662
1.26572
1.26578
1.26614
1.26707
1.25458
1.3002
1.29867
1.30269
1.30463
1.30524
1.30509
1.30473
1.30424
1.30373
1.30318
1.30264
1.3021
1.30156
1.301
1.30043
1.29981
1.29913
1.29837
1.29752
1.29658
1.29555
1.29445
1.2933
1.29213
1.29096
1.28983
1.28875
1.28773
1.2868
1.28596
1.2852
1.28452
1.28391
1.28337
1.28289
1.28245
1.28205
1.28167
1.28132
1.28099
1.28066
1.28035
1.28004
1.27973
1.27942
1.2791
1.27878
1.27846
1.27812
1.27777
1.2774
1.27701
1.27659
1.27614
1.27565
1.27512
1.27455
1.27393
1.27326
1.27255
1.27179
1.27099
1.27016
1.2693
1.26843
1.26756
1.26669
1.26584
1.26502
1.26422
1.26344
1.26269
1.26196
1.26124
1.26053
1.25983
1.25914
1.25845
1.25777
1.25709
1.25643
1.25578
1.25514
1.25451
1.25396
1.25348
1.25352
1.25386
1.25492
1.24257
1.30747
1.30312
1.30651
1.30855
1.30921
1.30908
1.30873
1.30824
1.30772
1.30718
1.30664
1.30609
1.30555
1.30499
1.30442
1.30379
1.30311
1.30235
1.3015
1.30055
1.29952
1.29841
1.29726
1.29608
1.29492
1.29378
1.29269
1.29168
1.29075
1.2899
1.28914
1.28846
1.28785
1.28731
1.28682
1.28638
1.28597
1.2856
1.28524
1.28491
1.28458
1.28427
1.28395
1.28364
1.28333
1.28301
1.28269
1.28236
1.28202
1.28167
1.2813
1.2809
1.28048
1.28003
1.27954
1.279
1.27843
1.2778
1.27713
1.27642
1.27565
1.27485
1.27401
1.27315
1.27228
1.2714
1.27053
1.26968
1.26885
1.26804
1.26727
1.26651
1.26577
1.26504
1.26433
1.26363
1.26293
1.26224
1.26156
1.26088
1.26022
1.25956
1.25892
1.25829
1.25773
1.25723
1.25725
1.25754
1.25876
1.24665
1.31103
1.30415
1.30772
1.30984
1.31061
1.31052
1.31018
1.3097
1.30918
1.30863
1.30809
1.30754
1.307
1.30644
1.30586
1.30524
1.30456
1.30379
1.30294
1.30199
1.30096
1.29985
1.2987
1.29752
1.29635
1.2952
1.29412
1.2931
1.29217
1.29131
1.29055
1.28987
1.28926
1.28871
1.28822
1.28778
1.28737
1.28699
1.28664
1.2863
1.28597
1.28565
1.28533
1.28502
1.2847
1.28438
1.28406
1.28373
1.28338
1.28303
1.28265
1.28225
1.28183
1.28137
1.28088
1.28034
1.27976
1.27913
1.27846
1.27773
1.27697
1.27616
1.27532
1.27445
1.27357
1.27268
1.27181
1.27095
1.27012
1.2693
1.26852
1.26776
1.26702
1.26628
1.26557
1.26486
1.26416
1.26346
1.26277
1.26209
1.26142
1.26076
1.26011
1.25948
1.25892
1.2584
1.25838
1.25859
1.25972
1.24823
1.313
1.30507
1.30821
1.31019
1.31091
1.31081
1.31046
1.30996
1.30944
1.30889
1.30834
1.30779
1.30724
1.30668
1.3061
1.30547
1.30478
1.30401
1.30316
1.30221
1.30117
1.30006
1.2989
1.29772
1.29655
1.2954
1.29431
1.29329
1.29236
1.2915
1.29074
1.29005
1.28944
1.28889
1.28839
1.28795
1.28754
1.28716
1.2868
1.28646
1.28612
1.2858
1.28548
1.28516
1.28484
1.28452
1.28419
1.28386
1.28351
1.28315
1.28277
1.28237
1.28194
1.28147
1.28098
1.28043
1.27985
1.27922
1.27854
1.27781
1.27704
1.27622
1.27538
1.2745
1.27362
1.27273
1.27185
1.27098
1.27014
1.26932
1.26853
1.26776
1.26701
1.26627
1.26555
1.26483
1.26412
1.26342
1.26272
1.26203
1.26136
1.26068
1.26003
1.25939
1.25881
1.25827
1.25819
1.2583
1.25925
1.2488
1.31095
1.30335
1.30586
1.30745
1.30799
1.30782
1.30743
1.30692
1.30639
1.30582
1.30526
1.3047
1.30414
1.30357
1.30298
1.30235
1.30166
1.30088
1.30002
1.29906
1.29802
1.2969
1.29574
1.29456
1.29338
1.29224
1.29114
1.29012
1.28918
1.28833
1.28756
1.28687
1.28625
1.2857
1.2852
1.28475
1.28434
1.28395
1.28359
1.28325
1.28291
1.28258
1.28226
1.28194
1.28161
1.28128
1.28095
1.28061
1.28026
1.27989
1.27951
1.2791
1.27867
1.2782
1.2777
1.27715
1.27656
1.27593
1.27524
1.27451
1.27373
1.27291
1.27206
1.27118
1.27029
1.26939
1.2685
1.26763
1.26678
1.26595
1.26515
1.26437
1.26361
1.26287
1.26213
1.2614
1.26068
1.25996
1.25926
1.25856
1.25787
1.25719
1.25653
1.25587
1.25527
1.25471
1.25453
1.2545
1.25517
1.24629
1.30706
1.30145
1.30269
1.30365
1.30384
1.30354
1.3031
1.30255
1.30199
1.30141
1.30083
1.30025
1.29967
1.29908
1.29848
1.29782
1.29711
1.29631
1.29543
1.29446
1.2934
1.29228
1.2911
1.28991
1.28873
1.28757
1.28648
1.28545
1.2845
1.28364
1.28287
1.28217
1.28155
1.281
1.2805
1.28004
1.27962
1.27923
1.27887
1.27851
1.27817
1.27784
1.27751
1.27718
1.27685
1.27652
1.27618
1.27584
1.27548
1.27511
1.27472
1.27431
1.27387
1.2734
1.27289
1.27234
1.27174
1.2711
1.27041
1.26967
1.26888
1.26805
1.26719
1.26631
1.2654
1.2645
1.2636
1.26271
1.26185
1.26101
1.2602
1.2594
1.25862
1.25786
1.25711
1.25636
1.25563
1.25489
1.25417
1.25345
1.25275
1.25206
1.25137
1.2507
1.25007
1.24947
1.24916
1.24895
1.24929
1.24254
1.2985
1.29563
1.29641
1.29673
1.29663
1.29621
1.29571
1.29513
1.29455
1.29395
1.29336
1.29275
1.29216
1.29155
1.29091
1.29023
1.28949
1.28866
1.28775
1.28675
1.28566
1.2845
1.2833
1.28208
1.28087
1.2797
1.27858
1.27754
1.27658
1.2757
1.27492
1.27421
1.27358
1.27302
1.27251
1.27205
1.27163
1.27123
1.27086
1.2705
1.27015
1.26981
1.26948
1.26914
1.26881
1.26847
1.26813
1.26777
1.26741
1.26703
1.26664
1.26622
1.26577
1.26529
1.26478
1.26422
1.26361
1.26296
1.26225
1.2615
1.2607
1.25986
1.25898
1.25808
1.25716
1.25623
1.25531
1.2544
1.25352
1.25265
1.25182
1.251
1.2502
1.24941
1.24864
1.24788
1.24712
1.24637
1.24563
1.2449
1.24418
1.24347
1.24277
1.24208
1.24142
1.24078
1.24031
1.23989
1.23973
1.23557
1.30625
1.30517
1.30463
1.3043
1.30384
1.3033
1.30274
1.30213
1.30153
1.30092
1.30031
1.2997
1.29909
1.29846
1.29781
1.29711
1.29634
1.29548
1.29453
1.29348
1.29233
1.29112
1.28985
1.28857
1.28729
1.28606
1.28489
1.28379
1.28279
1.28187
1.28105
1.28032
1.27966
1.27908
1.27855
1.27807
1.27763
1.27722
1.27684
1.27647
1.27611
1.27576
1.27542
1.27507
1.27473
1.27438
1.27403
1.27367
1.27329
1.27291
1.2725
1.27206
1.2716
1.27111
1.27057
1.26999
1.26936
1.26868
1.26794
1.26716
1.26632
1.26544
1.26453
1.26358
1.26261
1.26164
1.26068
1.25973
1.25881
1.25791
1.25704
1.25619
1.25537
1.25456
1.25376
1.25297
1.2522
1.25143
1.25067
1.24992
1.24919
1.24847
1.24775
1.24705
1.24635
1.24567
1.24504
1.24443
1.24392
1.24214
1.26149
1.26149
1.26732
1.26929
1.27003
1.2699
1.26957
1.2691
1.26861
1.26808
1.26755
1.26702
1.26649
1.26596
1.2654
1.26479
1.26413
1.26339
1.26256
1.26164
1.26064
1.25956
1.25845
1.2573
1.25617
1.25506
1.25401
1.25303
1.25212
1.2513
1.25056
1.2499
1.24931
1.24878
1.24831
1.24789
1.2475
1.24713
1.24679
1.24647
1.24615
1.24585
1.24554
1.24524
1.24494
1.24464
1.24433
1.24401
1.24368
1.24334
1.24298
1.2426
1.2422
1.24176
1.24129
1.24077
1.24022
1.23962
1.23897
1.23828
1.23754
1.23676
1.23596
1.23512
1.23428
1.23343
1.23259
1.23177
1.23097
1.23019
1.22944
1.2287
1.22799
1.22729
1.2266
1.22592
1.22525
1.22458
1.22392
1.22326
1.22262
1.22198
1.22136
1.22076
1.22022
1.21976
1.21982
1.22019
1.22108
1.20867
1.29182
1.29099
1.29689
1.29901
1.29982
1.29971
1.29938
1.29891
1.2984
1.29786
1.29732
1.29678
1.29624
1.29569
1.29512
1.29451
1.29383
1.29307
1.29223
1.29129
1.29026
1.28916
1.28802
1.28685
1.28569
1.28455
1.28348
1.28247
1.28154
1.2807
1.27994
1.27926
1.27866
1.27812
1.27764
1.2772
1.2768
1.27643
1.27608
1.27575
1.27543
1.27511
1.2748
1.27449
1.27418
1.27387
1.27355
1.27323
1.27289
1.27254
1.27218
1.27179
1.27137
1.27092
1.27043
1.26991
1.26934
1.26872
1.26806
1.26734
1.26659
1.26579
1.26496
1.26411
1.26324
1.26237
1.26151
1.26067
1.25985
1.25905
1.25828
1.25752
1.2568
1.25608
1.25537
1.25467
1.25399
1.2533
1.25263
1.25196
1.2513
1.25065
1.25001
1.24939
1.24884
1.24836
1.24841
1.24875
1.24976
1.23726
1.29701
1.29413
1.30018
1.30249
1.30343
1.30336
1.30306
1.30258
1.30208
1.30154
1.301
1.30046
1.29992
1.29937
1.2988
1.29818
1.2975
1.29674
1.2959
1.29495
1.29392
1.29282
1.29167
1.2905
1.28934
1.2882
1.28712
1.28611
1.28518
1.28433
1.28357
1.28289
1.28229
1.28175
1.28126
1.28082
1.28042
1.28004
1.27969
1.27936
1.27904
1.27872
1.27841
1.2781
1.27779
1.27747
1.27715
1.27682
1.27649
1.27613
1.27576
1.27537
1.27495
1.2745
1.27401
1.27348
1.27291
1.27229
1.27162
1.2709
1.27014
1.26934
1.26851
1.26765
1.26678
1.2659
1.26504
1.26419
1.26336
1.26256
1.26178
1.26103
1.2603
1.25957
1.25887
1.25816
1.25747
1.25678
1.2561
1.25543
1.25477
1.25411
1.25348
1.25285
1.2523
1.25181
1.25182
1.25211
1.2532
1.24097
1.30898
1.3036
1.30872
1.311
1.31191
1.31185
1.31154
1.31106
1.31055
1.31
1.30946
1.30891
1.30837
1.30781
1.30723
1.30661
1.30593
1.30516
1.30431
1.30336
1.30233
1.30122
1.30006
1.29888
1.29771
1.29656
1.29548
1.29446
1.29352
1.29267
1.2919
1.29122
1.29061
1.29006
1.28957
1.28913
1.28872
1.28834
1.28799
1.28765
1.28732
1.287
1.28668
1.28637
1.28605
1.28573
1.28541
1.28508
1.28473
1.28438
1.284
1.2836
1.28318
1.28272
1.28223
1.28169
1.28111
1.28048
1.27981
1.27908
1.27831
1.27751
1.27666
1.2758
1.27492
1.27403
1.27316
1.2723
1.27146
1.27065
1.26987
1.2691
1.26836
1.26763
1.26692
1.2662
1.2655
1.2648
1.26412
1.26344
1.26277
1.26211
1.26146
1.26083
1.26027
1.25975
1.25974
1.25996
1.26102
1.24929
1.30973
1.30327
1.30765
1.30973
1.31056
1.31047
1.31014
1.30966
1.30914
1.30859
1.30804
1.30749
1.30694
1.30638
1.3058
1.30517
1.30449
1.30372
1.30287
1.30192
1.30088
1.29977
1.29861
1.29743
1.29626
1.29512
1.29403
1.29301
1.29207
1.29122
1.29045
1.28976
1.28915
1.2886
1.28811
1.28766
1.28725
1.28687
1.28651
1.28617
1.28584
1.28552
1.2852
1.28488
1.28456
1.28424
1.28391
1.28357
1.28323
1.28287
1.28249
1.28208
1.28166
1.28119
1.28069
1.28015
1.27957
1.27894
1.27826
1.27753
1.27676
1.27594
1.2751
1.27422
1.27334
1.27245
1.27157
1.27071
1.26987
1.26905
1.26826
1.26749
1.26674
1.266
1.26528
1.26456
1.26385
1.26315
1.26245
1.26176
1.26109
1.26042
1.25977
1.25912
1.25855
1.25802
1.25794
1.25805
1.25893
1.24831
1.3097
1.30362
1.30759
1.30931
1.30999
1.30984
1.30948
1.30897
1.30844
1.30788
1.30732
1.30676
1.3062
1.30563
1.30504
1.3044
1.30371
1.30294
1.30207
1.30111
1.30007
1.29896
1.29779
1.29661
1.29543
1.29428
1.29319
1.29216
1.29122
1.29036
1.28959
1.2889
1.28828
1.28773
1.28724
1.28678
1.28637
1.28598
1.28562
1.28527
1.28494
1.28461
1.28428
1.28396
1.28364
1.28331
1.28298
1.28263
1.28228
1.28192
1.28153
1.28112
1.28069
1.28022
1.27971
1.27917
1.27858
1.27794
1.27725
1.27652
1.27574
1.27492
1.27406
1.27318
1.27229
1.27139
1.2705
1.26963
1.26878
1.26795
1.26715
1.26637
1.26561
1.26486
1.26412
1.26339
1.26267
1.26195
1.26125
1.26055
1.25986
1.25917
1.25851
1.25785
1.25726
1.25669
1.25651
1.25648
1.25703
1.24808
1.29921
1.29515
1.29888
1.3001
1.30056
1.30032
1.29992
1.29939
1.29884
1.29826
1.29768
1.2971
1.29653
1.29595
1.29534
1.29469
1.29398
1.2932
1.29232
1.29135
1.2903
1.28918
1.28801
1.28682
1.28564
1.28448
1.28339
1.28236
1.28142
1.28056
1.27979
1.27909
1.27847
1.27792
1.27742
1.27696
1.27655
1.27616
1.27579
1.27544
1.2751
1.27477
1.27444
1.27411
1.27378
1.27345
1.27311
1.27276
1.27241
1.27204
1.27165
1.27124
1.2708
1.27033
1.26982
1.26927
1.26867
1.26803
1.26734
1.2666
1.26581
1.26499
1.26413
1.26324
1.26234
1.26144
1.26054
1.25966
1.2588
1.25796
1.25715
1.25635
1.25558
1.25482
1.25407
1.25332
1.25259
1.25186
1.25114
1.25042
1.24972
1.24902
1.24835
1.24767
1.24705
1.24644
1.24612
1.2459
1.24603
1.23934
1.29749
1.29543
1.29774
1.29824
1.29831
1.29792
1.29745
1.29688
1.29631
1.2957
1.29511
1.2945
1.29391
1.29329
1.29266
1.29198
1.29124
1.29042
1.28951
1.28851
1.28742
1.28627
1.28507
1.28386
1.28265
1.28148
1.28036
1.27932
1.27836
1.27749
1.27671
1.276
1.27537
1.27481
1.2743
1.27384
1.27341
1.27302
1.27264
1.27229
1.27194
1.2716
1.27126
1.27093
1.27059
1.27025
1.26991
1.26956
1.2692
1.26882
1.26842
1.268
1.26756
1.26708
1.26656
1.266
1.26539
1.26474
1.26404
1.26329
1.26249
1.26165
1.26077
1.25987
1.25895
1.25802
1.2571
1.2562
1.25531
1.25445
1.25361
1.2528
1.252
1.25121
1.25044
1.24967
1.24892
1.24817
1.24743
1.24669
1.24597
1.24526
1.24456
1.24387
1.24321
1.24256
1.24208
1.24166
1.24138
1.23717
1.27405
1.27334
1.27428
1.27413
1.27386
1.27337
1.27285
1.27227
1.27168
1.27108
1.27048
1.26988
1.26928
1.26867
1.26803
1.26734
1.26658
1.26574
1.26481
1.26378
1.26267
1.26148
1.26026
1.25901
1.25777
1.25658
1.25544
1.25438
1.2534
1.25252
1.25172
1.25101
1.25037
1.2498
1.24929
1.24882
1.2484
1.248
1.24762
1.24726
1.24691
1.24657
1.24624
1.2459
1.24557
1.24523
1.24488
1.24453
1.24416
1.24379
1.24339
1.24297
1.24252
1.24203
1.24151
1.24095
1.24034
1.23968
1.23897
1.2382
1.23739
1.23654
1.23565
1.23473
1.23379
1.23285
1.23192
1.23099
1.23009
1.22922
1.22837
1.22754
1.22673
1.22594
1.22516
1.22439
1.22363
1.22288
1.22214
1.22141
1.22069
1.21998
1.21928
1.21859
1.21791
1.21724
1.21663
1.21604
1.21545
1.21363
1.27703
1.2757
1.2813
1.28324
1.28396
1.28382
1.28349
1.28301
1.28251
1.28197
1.28144
1.2809
1.28036
1.27981
1.27925
1.27863
1.27796
1.27721
1.27637
1.27544
1.27443
1.27334
1.27222
1.27106
1.26992
1.26881
1.26775
1.26675
1.26584
1.26501
1.26427
1.2636
1.26301
1.26248
1.262
1.26157
1.26118
1.26081
1.26046
1.26014
1.25982
1.25951
1.2592
1.2589
1.25859
1.25829
1.25797
1.25765
1.25732
1.25698
1.25662
1.25623
1.25582
1.25538
1.2549
1.25438
1.25382
1.25322
1.25256
1.25186
1.25112
1.25034
1.24952
1.24868
1.24783
1.24697
1.24612
1.24529
1.24448
1.24369
1.24293
1.24219
1.24147
1.24075
1.24006
1.23937
1.23868
1.238
1.23734
1.23667
1.23602
1.23537
1.23475
1.23413
1.23359
1.23311
1.23317
1.23353
1.2347
1.22194
1.29089
1.28859
1.29416
1.29629
1.29711
1.29701
1.29669
1.29621
1.29571
1.29517
1.29463
1.29409
1.29355
1.293
1.29243
1.29181
1.29114
1.29038
1.28954
1.2886
1.28758
1.28648
1.28534
1.28418
1.28302
1.2819
1.28083
1.27982
1.2789
1.27806
1.27731
1.27663
1.27603
1.2755
1.27502
1.27458
1.27418
1.27381
1.27346
1.27313
1.27281
1.2725
1.27219
1.27188
1.27157
1.27126
1.27095
1.27062
1.27029
1.26994
1.26957
1.26919
1.26877
1.26832
1.26784
1.26732
1.26675
1.26614
1.26548
1.26477
1.26402
1.26322
1.2624
1.26155
1.26069
1.25982
1.25896
1.25812
1.2573
1.2565
1.25574
1.25499
1.25426
1.25354
1.25284
1.25214
1.25145
1.25077
1.2501
1.24943
1.24877
1.24812
1.24749
1.24686
1.24632
1.24583
1.24588
1.24621
1.24751
1.23477
1.29961
1.295
1.30029
1.30258
1.30349
1.30343
1.30312
1.30265
1.30214
1.3016
1.30106
1.30051
1.29998
1.29942
1.29885
1.29823
1.29755
1.29679
1.29594
1.295
1.29397
1.29287
1.29173
1.29056
1.2894
1.28827
1.28719
1.28618
1.28526
1.28441
1.28366
1.28298
1.28238
1.28184
1.28135
1.28091
1.28051
1.28014
1.27979
1.27945
1.27913
1.27881
1.2785
1.27819
1.27788
1.27757
1.27725
1.27692
1.27659
1.27623
1.27587
1.27547
1.27506
1.2746
1.27412
1.27359
1.27302
1.2724
1.27173
1.27102
1.27026
1.26947
1.26864
1.26778
1.26691
1.26604
1.26518
1.26433
1.2635
1.2627
1.26193
1.26117
1.26044
1.25972
1.25901
1.25831
1.25762
1.25693
1.25625
1.25558
1.25492
1.25426
1.25363
1.253
1.25245
1.25195
1.25198
1.25228
1.25362
1.24102
1.3085
1.30171
1.30624
1.30851
1.30943
1.30937
1.30906
1.30858
1.30807
1.30753
1.30699
1.30644
1.3059
1.30534
1.30476
1.30414
1.30346
1.30269
1.30184
1.3009
1.29987
1.29876
1.29761
1.29644
1.29527
1.29413
1.29305
1.29204
1.29111
1.29026
1.2895
1.28882
1.28821
1.28767
1.28718
1.28674
1.28633
1.28595
1.2856
1.28526
1.28494
1.28462
1.2843
1.28399
1.28368
1.28336
1.28303
1.2827
1.28236
1.28201
1.28163
1.28124
1.28081
1.28036
1.27987
1.27933
1.27876
1.27813
1.27746
1.27674
1.27598
1.27517
1.27433
1.27347
1.2726
1.27172
1.27085
1.26999
1.26916
1.26835
1.26757
1.26681
1.26607
1.26534
1.26463
1.26392
1.26322
1.26252
1.26184
1.26116
1.2605
1.25983
1.25919
1.25856
1.258
1.25749
1.25749
1.25773
1.25897
1.24682
1.30992
1.30211
1.30595
1.30803
1.30888
1.3088
1.30848
1.308
1.30748
1.30693
1.30639
1.30584
1.30529
1.30473
1.30416
1.30353
1.30285
1.30208
1.30123
1.30028
1.29925
1.29815
1.297
1.29582
1.29465
1.29352
1.29243
1.29142
1.29049
1.28964
1.28887
1.28819
1.28758
1.28704
1.28655
1.2861
1.28569
1.28531
1.28496
1.28462
1.28429
1.28397
1.28365
1.28333
1.28301
1.28269
1.28236
1.28203
1.28168
1.28133
1.28095
1.28055
1.28012
1.27966
1.27916
1.27863
1.27804
1.27742
1.27674
1.27601
1.27525
1.27444
1.2736
1.27273
1.27185
1.27096
1.27009
1.26923
1.26839
1.26758
1.26679
1.26602
1.26528
1.26454
1.26382
1.26311
1.2624
1.2617
1.26101
1.26032
1.25965
1.25898
1.25834
1.2577
1.25713
1.2566
1.25654
1.25668
1.25773
1.24657
1.30911
1.30163
1.30508
1.30684
1.30754
1.30741
1.30706
1.30656
1.30604
1.30548
1.30493
1.30437
1.30382
1.30325
1.30267
1.30204
1.30135
1.30058
1.29973
1.29878
1.29774
1.29663
1.29548
1.2943
1.29313
1.29199
1.29091
1.28989
1.28896
1.2881
1.28734
1.28665
1.28604
1.28549
1.285
1.28455
1.28414
1.28375
1.28339
1.28305
1.28271
1.28239
1.28206
1.28174
1.28142
1.28109
1.28076
1.28042
1.28007
1.27971
1.27933
1.27892
1.27849
1.27802
1.27752
1.27698
1.27639
1.27576
1.27507
1.27434
1.27357
1.27275
1.27191
1.27103
1.27014
1.26925
1.26837
1.2675
1.26666
1.26584
1.26504
1.26426
1.26351
1.26277
1.26204
1.26131
1.2606
1.25988
1.25918
1.25848
1.2578
1.25712
1.25647
1.25581
1.25522
1.25467
1.25452
1.25452
1.25526
1.2457
1.30157
1.29582
1.29893
1.30022
1.30069
1.30047
1.30008
1.29956
1.29901
1.29844
1.29788
1.2973
1.29674
1.29616
1.29557
1.29493
1.29423
1.29345
1.29259
1.29163
1.29059
1.28948
1.28832
1.28714
1.28597
1.28483
1.28374
1.28272
1.28179
1.28093
1.28017
1.27948
1.27886
1.27831
1.27781
1.27736
1.27695
1.27656
1.2762
1.27585
1.27551
1.27518
1.27485
1.27452
1.2742
1.27387
1.27353
1.27319
1.27283
1.27246
1.27208
1.27167
1.27123
1.27076
1.27025
1.26971
1.26911
1.26848
1.26779
1.26706
1.26628
1.26546
1.2646
1.26372
1.26283
1.26193
1.26104
1.26017
1.25932
1.25848
1.25768
1.25689
1.25613
1.25537
1.25463
1.25389
1.25316
1.25244
1.25172
1.25101
1.25032
1.24962
1.24895
1.24828
1.24767
1.24707
1.2468
1.24663
1.24698
1.23956
1.29592
1.29243
1.29468
1.29533
1.29548
1.29513
1.29468
1.29413
1.29356
1.29296
1.29237
1.29178
1.29119
1.29059
1.28997
1.2893
1.28858
1.28778
1.28689
1.28591
1.28485
1.28373
1.28255
1.28136
1.28018
1.27903
1.27793
1.27691
1.27596
1.2751
1.27433
1.27364
1.27301
1.27246
1.27196
1.2715
1.27108
1.27069
1.27032
1.26996
1.26962
1.26928
1.26895
1.26862
1.26828
1.26795
1.26761
1.26726
1.2669
1.26652
1.26613
1.26572
1.26527
1.2648
1.26429
1.26373
1.26314
1.26249
1.2618
1.26106
1.26027
1.25944
1.25858
1.25769
1.25679
1.25587
1.25497
1.25408
1.25321
1.25236
1.25154
1.25074
1.24995
1.24918
1.24842
1.24766
1.24691
1.24617
1.24544
1.24471
1.24399
1.24329
1.24259
1.2419
1.24125
1.24062
1.24019
1.23983
1.23976
1.23472
1.28875
1.28716
1.28803
1.28796
1.28775
1.28727
1.28675
1.28616
1.28557
1.28496
1.28435
1.28374
1.28313
1.28251
1.28186
1.28117
1.28041
1.27957
1.27864
1.27761
1.27651
1.27533
1.27412
1.27288
1.27166
1.27047
1.26934
1.26829
1.26732
1.26644
1.26565
1.26494
1.26431
1.26374
1.26323
1.26276
1.26233
1.26193
1.26156
1.2612
1.26085
1.2605
1.26017
1.25983
1.25949
1.25915
1.2588
1.25845
1.25808
1.2577
1.2573
1.25688
1.25643
1.25595
1.25542
1.25486
1.25425
1.25359
1.25288
1.25212
1.25132
1.25047
1.24958
1.24867
1.24773
1.24679
1.24586
1.24494
1.24404
1.24317
1.24232
1.24148
1.24068
1.23988
1.23909
1.23832
1.23755
1.23679
1.23604
1.2353
1.23458
1.23386
1.23315
1.23245
1.23177
1.2311
1.23051
1.22994
1.22944
1.22707
1.26149
1.26149
1.26732
1.26929
1.27003
1.2699
1.26957
1.2691
1.26861
1.26808
1.26755
1.26702
1.26649
1.26595
1.2654
1.26479
1.26413
1.26339
1.26256
1.26164
1.26064
1.25956
1.25844
1.2573
1.25617
1.25506
1.25401
1.25303
1.25212
1.2513
1.25056
1.2499
1.24931
1.24878
1.24831
1.24789
1.24749
1.24713
1.24679
1.24647
1.24615
1.24585
1.24554
1.24524
1.24494
1.24464
1.24433
1.24401
1.24368
1.24334
1.24298
1.2426
1.2422
1.24176
1.24129
1.24077
1.24022
1.23962
1.23897
1.23828
1.23754
1.23676
1.23596
1.23512
1.23428
1.23343
1.23259
1.23177
1.23097
1.23019
1.22944
1.2287
1.22799
1.22729
1.2266
1.22592
1.22525
1.22458
1.22392
1.22326
1.22262
1.22198
1.22136
1.22076
1.22022
1.21976
1.21982
1.22019
1.22108
1.20867
1.29182
1.29099
1.29689
1.29901
1.29982
1.29971
1.29938
1.2989
1.2984
1.29786
1.29732
1.29678
1.29624
1.29569
1.29512
1.29451
1.29383
1.29307
1.29223
1.29129
1.29026
1.28916
1.28802
1.28685
1.28569
1.28455
1.28348
1.28247
1.28154
1.2807
1.27994
1.27926
1.27866
1.27812
1.27764
1.2772
1.2768
1.27643
1.27608
1.27575
1.27542
1.27511
1.2748
1.27449
1.27418
1.27387
1.27355
1.27323
1.27289
1.27254
1.27218
1.27179
1.27137
1.27092
1.27043
1.26991
1.26934
1.26872
1.26806
1.26734
1.26659
1.26579
1.26496
1.26411
1.26324
1.26237
1.26151
1.26067
1.25984
1.25905
1.25828
1.25752
1.2568
1.25608
1.25537
1.25467
1.25399
1.2533
1.25263
1.25195
1.2513
1.25065
1.25001
1.24939
1.24884
1.24836
1.24841
1.24875
1.24976
1.23726
1.29701
1.29413
1.30017
1.30249
1.30343
1.30336
1.30306
1.30258
1.30208
1.30154
1.301
1.30046
1.29992
1.29937
1.2988
1.29818
1.2975
1.29674
1.29589
1.29495
1.29392
1.29282
1.29167
1.2905
1.28934
1.2882
1.28712
1.28611
1.28518
1.28433
1.28357
1.28289
1.28229
1.28175
1.28126
1.28082
1.28042
1.28004
1.27969
1.27936
1.27903
1.27872
1.27841
1.2781
1.27779
1.27747
1.27715
1.27682
1.27649
1.27613
1.27576
1.27537
1.27495
1.2745
1.27401
1.27348
1.27291
1.27229
1.27162
1.2709
1.27014
1.26934
1.26851
1.26765
1.26678
1.2659
1.26504
1.26419
1.26336
1.26256
1.26178
1.26103
1.2603
1.25957
1.25887
1.25816
1.25747
1.25678
1.2561
1.25543
1.25477
1.25411
1.25348
1.25285
1.2523
1.25181
1.25182
1.25211
1.2532
1.24097
1.30898
1.3036
1.30872
1.311
1.31191
1.31185
1.31154
1.31106
1.31055
1.31
1.30946
1.30891
1.30837
1.30781
1.30723
1.30661
1.30593
1.30516
1.30431
1.30336
1.30233
1.30122
1.30006
1.29888
1.29771
1.29656
1.29548
1.29446
1.29352
1.29267
1.2919
1.29122
1.29061
1.29006
1.28957
1.28913
1.28872
1.28834
1.28799
1.28765
1.28732
1.287
1.28668
1.28637
1.28605
1.28573
1.28541
1.28508
1.28473
1.28438
1.284
1.2836
1.28318
1.28272
1.28223
1.28169
1.28111
1.28048
1.27981
1.27908
1.27831
1.2775
1.27666
1.2758
1.27492
1.27403
1.27316
1.2723
1.27146
1.27065
1.26987
1.2691
1.26836
1.26763
1.26692
1.2662
1.2655
1.2648
1.26412
1.26344
1.26277
1.26211
1.26146
1.26083
1.26027
1.25975
1.25974
1.25996
1.26102
1.24929
1.30973
1.30327
1.30765
1.30973
1.31056
1.31047
1.31014
1.30966
1.30914
1.30859
1.30804
1.30749
1.30694
1.30638
1.3058
1.30517
1.30449
1.30372
1.30287
1.30192
1.30088
1.29977
1.29861
1.29743
1.29626
1.29512
1.29403
1.29301