/*--------------------------------*- C++ -*----------------------------------*\
  =========                 |
  \\      /  F ield         | OpenFOAM: The Open Source CFD Toolbox
   \\    /   O peration     | Website:  https://openfoam.org
    \\  /    A nd           | Version:  7
     \\/     M anipulation  |
\*---------------------------------------------------------------------------*/
FoamFile
{
    version     2.0;
    format      ascii;
    class       volVectorField;
    location    "2.435";
    object      UMean;
}
// * * * * * * * * * * * * * * * * * * * * * * * * * * * * * * * * * * * * * //

dimensions      [0 1 -1 0 0 0 0];

internalField   nonuniform List<vector> 
4950
(
(3.51757 0.415774 -27.029)
(2.82451 0.147075 -27.0659)
(2.08511 0.0432487 -27.0679)
(1.88798 -0.0235909 -27.0752)
(1.61706 -0.0438355 -27.0734)
(1.60614 -0.0502704 -27.0776)
(1.45412 -0.0511639 -27.0754)
(1.4823 -0.0499751 -27.0786)
(1.37174 -0.0486467 -27.0767)
(1.40682 -0.0473189 -27.0792)
(1.31931 -0.0456614 -27.0777)
(1.35403 -0.0455018 -27.0797)
(1.28263 -0.0423909 -27.0786)
(1.31508 -0.0451013 -27.08)
(1.25509 -0.0363753 -27.0793)
(1.2851 -0.046509 -27.0802)
(1.23119 -0.0155674 -27.0804)
(1.24889 -0.0449638 -27.0796)
(1.22332 0.0918885 -27.0828)
(1.00625 0.122749 -27.0714)
(4.59908 0.543093 -27.054)
(4.79162 0.370959 -27.0829)
(4.502 0.282211 -27.0828)
(4.45251 0.183685 -27.0899)
(4.16507 0.128094 -27.0898)
(4.14031 0.0971331 -27.0943)
(3.92051 0.078075 -27.0937)
(3.92556 0.0670999 -27.0966)
(3.75608 0.0588398 -27.0962)
(3.7767 0.0536452 -27.0982)
(3.6424 0.0486019 -27.0979)
(3.67029 0.0463943 -27.0993)
(3.56058 0.0412809 -27.0993)
(3.59292 0.0429576 -27.1)
(3.49818 0.0325776 -27.1008)
(3.54057 0.0430242 -27.1)
(3.44494 0.0143207 -27.1031)
(3.53027 0.0355877 -27.098)
(3.38959 -0.0195463 -27.1086)
(3.73302 -0.0699363 -27.0776)
(4.7178 0.285321 -27.0556)
(5.19607 0.206624 -27.0791)
(5.30248 0.184507 -27.0717)
(5.54237 0.12435 -27.076)
(5.48569 0.087615 -27.072)
(5.60746 0.0623099 -27.0758)
(5.51832 0.0443488 -27.0729)
(5.59748 0.0319742 -27.0761)
(5.50952 0.0224903 -27.0739)
(5.56788 0.0148771 -27.0766)
(5.48878 0.00960922 -27.0752)
(5.53357 0.00395647 -27.0773)
(5.46602 0.00186767 -27.0765)
(5.49825 -0.00362371 -27.078)
(5.44655 -0.00136246 -27.0781)
(5.45806 -0.00864362 -27.0785)
(5.43479 0.00403478 -27.0801)
(5.39397 -0.00625484 -27.0784)
(5.4166 0.0359813 -27.0829)
(5.2619 0.057691 -27.0615)
(4.69577 0.167443 -27.0644)
(5.11409 0.128735 -27.0881)
(5.31833 0.12098 -27.0823)
(5.65675 0.0911966 -27.0844)
(5.71827 0.0726649 -27.0812)
(5.93809 0.0604736 -27.083)
(5.94817 0.0516797 -27.081)
(6.10352 0.0458312 -27.0823)
(6.09429 0.0408047 -27.0811)
(6.2109 0.0370151 -27.0821)
(6.1926 0.033365 -27.0814)
(6.28412 0.0308406 -27.0822)
(6.25988 0.0274237 -27.0818)
(6.33676 0.0266332 -27.0825)
(6.30512 0.0214683 -27.0824)
(6.38076 0.0242409 -27.0827)
(6.33527 0.0127316 -27.0832)
(6.43921 0.0194244 -27.0831)
(6.37029 0.00171295 -27.0842)
(6.59369 -0.00980178 -27.0635)
(4.69705 -1.78067e-08 -27.0596)
(5.11071 7.061e-08 -27.0818)
(5.32461 -3.52877e-08 -27.0731)
(5.67758 2.20174e-07 -27.0754)
(5.75326 -5.10001e-09 -27.07)
(5.9885 6.07572e-07 -27.0724)
(6.01677 2.99313e-07 -27.0686)
(6.18981 1.55855e-06 -27.0707)
(6.20168 1.61981e-06 -27.0679)
(6.33559 4.25425e-06 -27.0698)
(6.33965 5.58677e-06 -27.0678)
(6.44412 1.39237e-05 -27.0695)
(6.44513 1.35735e-05 -27.068)
(6.52335 5.1497e-05 -27.0695)
(6.52876 2.26656e-05 -27.0685)
(6.57331 0.000179698 -27.0698)
(6.59995 4.28369e-05 -27.0692)
(6.58054 0.000516064 -27.0704)
(6.64625 0.000176525 -27.07)
(6.51992 0.000834447 -27.0514)
(4.69577 -0.167443 -27.0644)
(5.11409 -0.128735 -27.0881)
(5.31833 -0.12098 -27.0823)
(5.65675 -0.0911963 -27.0844)
(5.71827 -0.0726647 -27.0812)
(5.93809 -0.0604728 -27.083)
(5.94817 -0.0516786 -27.0809)
(6.10353 -0.0458292 -27.0823)
(6.09428 -0.0408005 -27.081)
(6.21091 -0.0370102 -27.0822)
(6.1926 -0.0333512 -27.0813)
(6.28415 -0.0308261 -27.0823)
(6.25988 -0.0273875 -27.0817)
(6.33682 -0.0265796 -27.0826)
(6.30516 -0.021388 -27.0823)
(6.38089 -0.0240523 -27.083)
(6.33545 -0.012542 -27.0829)
(6.43948 -0.0188949 -27.0835)
(6.37081 -0.00102775 -27.0837)
(6.59444 0.0111386 -27.0639)
(4.7178 -0.285321 -27.0556)
(5.19607 -0.206624 -27.0791)
(5.30248 -0.184507 -27.0717)
(5.54237 -0.12435 -27.076)
(5.48569 -0.0876149 -27.072)
(5.60746 -0.062309 -27.0758)
(5.51832 -0.0443482 -27.0729)
(5.59748 -0.0319719 -27.0761)
(5.50952 -0.0224878 -27.0739)
(5.5679 -0.0148711 -27.0767)
(5.48877 -0.00960128 -27.0751)
(5.53362 -0.00393712 -27.0775)
(5.46602 -0.00185097 -27.0763)
(5.49839 0.00369487 -27.0784)
(5.44659 0.001379 -27.0775)
(5.4584 0.00888946 -27.0793)
(5.43503 -0.00403758 -27.0788)
(5.39478 0.00694286 -27.0804)
(5.41757 -0.0358045 -27.0801)
(5.26418 -0.0562231 -27.0654)
(4.59908 -0.543093 -27.054)
(4.79162 -0.370959 -27.0829)
(4.502 -0.28221 -27.0828)
(4.45251 -0.183685 -27.0899)
(4.16507 -0.128094 -27.0898)
(4.14031 -0.0971329 -27.0943)
(3.92051 -0.0780742 -27.0937)
(3.92557 -0.0670995 -27.0967)
(3.75609 -0.058837 -27.0962)
(3.77671 -0.0536443 -27.0983)
(3.64241 -0.0485934 -27.0979)
(3.67034 -0.0463905 -27.0995)
(3.56061 -0.0412591 -27.0991)
(3.59306 -0.0429379 -27.1004)
(3.49833 -0.0325286 -27.1001)
(3.54088 -0.0429381 -27.1012)
(3.4455 -0.0142082 -27.1011)
(3.53097 -0.0353344 -27.1018)
(3.3911 0.0199067 -27.1015)
(3.73508 0.0701732 -27.0906)
(3.51757 -0.415774 -27.029)
(2.82451 -0.147075 -27.0659)
(2.08511 -0.0432487 -27.0679)
(1.88798 0.023591 -27.0752)
(1.61706 0.0438354 -27.0734)
(1.60614 0.0502706 -27.0776)
(1.45412 0.0511638 -27.0754)
(1.48231 0.0499755 -27.0786)
(1.37174 0.0486462 -27.0767)
(1.40683 0.0473199 -27.0792)
(1.31932 0.0456594 -27.0777)
(1.35406 0.0455041 -27.0797)
(1.28265 0.0423845 -27.0785)
(1.31516 0.045108 -27.0801)
(1.25518 0.0363607 -27.0792)
(1.28529 0.0465253 -27.0805)
(1.23154 0.0155253 -27.0798)
(1.24934 0.0450178 -27.0809)
(1.22439 -0.0918485 -27.0801)
(1.00805 -0.12215 -27.0794)
(4.49808 0.189162 0.00523595)
(3.74771 0.276329 0.00362067)
(3.15877 0.237549 0.0044076)
(2.59588 0.161936 0.00336697)
(2.33552 0.112828 0.00411903)
(2.07069 0.0803532 0.00329192)
(1.99689 0.0650799 0.00395749)
(1.86143 0.0566078 0.00325086)
(1.84491 0.0529132 0.0038169)
(1.75956 0.0509778 0.0032031)
(1.75762 0.049458 0.00368045)
(1.69695 0.0496823 0.00314787)
(1.69856 0.0469595 0.00355103)
(1.65322 0.050282 0.00309058)
(1.65544 0.0407956 0.00343225)
(1.62305 0.0541853 0.00303432)
(1.61939 0.0141143 0.0033279)
(1.63466 0.0605183 0.0029784)
(1.55922 -0.124883 0.00326792)
(1.99179 -0.167284 0.0028659)
(4.62978 0.107108 0.00336004)
(4.66453 0.228591 0.00205555)
(4.80052 0.206348 0.0028008)
(4.6733 0.153067 0.00177304)
(4.64922 0.0982788 0.00251884)
(4.48878 0.0559066 0.0016891)
(4.44648 0.02809 0.00235094)
(4.31541 0.0107212 0.00164245)
(4.28312 -0.000449277 0.00220629)
(4.18269 -0.00753659 0.00159179)
(4.15969 -0.0123281 0.00206748)
(4.08217 -0.0166798 0.00153529)
(4.06638 -0.017493 0.00193593)
(4.00352 -0.0232243 0.00147798)
(3.99681 -0.0170016 0.0018129)
(3.93486 -0.0297573 0.00142284)
(3.95147 -0.00717458 0.00169276)
(3.84661 -0.0267283 0.0013632)
(3.94104 0.00634426 0.00154766)
(3.54317 0.0695647 0.00117965)
(4.56223 0.0604865 0.00465898)
(4.72086 0.183359 0.00344474)
(5.04466 0.212406 0.00415765)
(5.15575 0.189147 0.00311864)
(5.33915 0.158594 0.00385316)
(5.35529 0.127618 0.00301804)
(5.44216 0.106287 0.00368071)
(5.4211 0.0900933 0.00297304)
(5.4663 0.0787734 0.00354031)
(5.43797 0.0703562 0.00292737)
(5.46369 0.0632262 0.00340649)
(5.43764 0.058503 0.00287442)
(5.4509 0.0525277 0.00327954)
(5.43234 0.0508799 0.00281837)
(5.43178 0.0425649 0.00316412)
(5.4323 0.0463432 0.00276273)
(5.40433 0.023614 0.00307028)
(5.45714 0.0395443 0.00271125)
(5.38222 -0.039906 0.00305119)
(5.53202 -0.0449136 0.00267261)
(4.52031 0.0284193 0.00319377)
(4.58581 0.0706269 0.00209604)
(4.93166 0.0739178 0.00279819)
(5.09572 0.0656947 0.00178001)
(5.35963 0.0525954 0.0025099)
(5.45812 0.0401563 0.00167427)
(5.62423 0.0309673 0.00233229)
(5.67826 0.0242939 0.00162271)
(5.78984 0.0194753 0.00218651)
(5.82341 0.0158572 0.00157294)
(5.90404 0.0129782 0.00204906)
(5.92615 0.0103019 0.00151811)
(5.98788 0.00875978 0.00191855)
(5.99973 0.0058255 0.00146184)
(6.05267 0.00651711 0.00179493)
(6.04591 0.00201228 0.00140598)
(6.10661 0.00657424 0.00166829)
(6.03921 0.0029843 0.00133838)
(6.14127 0.00434749 0.00148564)
(5.85056 0.0310146 0.0011721)
(4.55211 -1.72764e-08 0.00457026)
(4.66835 6.26972e-08 0.00347398)
(4.987 -1.34399e-09 0.00416488)
(5.14196 1.74869e-07 0.00313139)
(5.3975 8.24419e-08 0.00385733)
(5.49897 4.39621e-07 0.00301798)
(5.67134 4.97624e-07 0.00367824)
(5.73603 1.05924e-06 0.00296928)
(5.85931 1.93587e-06 0.00353651)
(5.90766 2.67951e-06 0.00292367)
(6.00104 6.08935e-06 0.00340327)
(6.04118 7.49319e-06 0.00287157)
(6.1118 1.67338e-05 0.00327723)
(6.14929 2.18662e-05 0.00281628)
(6.19688 4.49457e-05 0.00316315)
(6.24341 5.82831e-05 0.00276147)
(6.25884 0.000133535 0.00307388)
(6.33794 0.000158876 0.00271175)
(6.32477 0.000448712 0.00306896)
(6.42574 0.000643897 0.00269565)
(4.52031 -0.0284193 0.00319377)
(4.58581 -0.0706268 0.00209604)
(4.93166 -0.0739179 0.00279819)
(5.09572 -0.0656942 0.00178001)
(5.35963 -0.0525954 0.0025099)
(5.45812 -0.040155 0.00167427)
(5.62423 -0.030967 0.00233229)
(5.67826 -0.0242904 0.00162271)
(5.78984 -0.0194735 0.00218651)
(5.82342 -0.0158476 0.00157294)
(5.90404 -0.0129719 0.00204906)
(5.92617 -0.0102725 0.00151811)
(5.98788 -0.00874442 0.00191854)
(5.99978 -0.00573164 0.00146184)
(6.05269 -0.00648544 0.00179491)
(6.04602 -0.00172424 0.00140597)
(6.1067 -0.006489 0.00166824)
(6.03952 -0.00220254 0.00133833)
(6.14171 -0.00400821 0.00148573)
(5.85141 -0.0293076 0.00117193)
(4.56223 -0.0604865 0.00465898)
(4.72086 -0.183359 0.00344474)
(5.04466 -0.212406 0.00415765)
(5.15575 -0.189147 0.00311864)
(5.33915 -0.158594 0.00385316)
(5.35529 -0.127618 0.00301805)
(5.44215 -0.106286 0.0036807)
(5.4211 -0.0900917 0.00297304)
(5.4663 -0.0787696 0.0035403)
(5.43798 -0.0703517 0.00292737)
(5.46369 -0.0632146 0.00340647)
(5.43768 -0.0584893 0.00287444)
(5.45091 -0.0524963 0.00327951)
(5.43245 -0.050835 0.00281841)
(5.43184 -0.0424821 0.00316404)
(5.43255 -0.0462063 0.00276283)
(5.4046 -0.0233715 0.0030701)
(5.45776 -0.0391954 0.00271145)
(5.38308 0.0407026 0.00305077)
(5.53367 0.0457945 0.00267268)
(4.62978 -0.107108 0.00336004)
(4.66453 -0.228591 0.00205555)
(4.80052 -0.206348 0.0028008)
(4.6733 -0.153067 0.00177304)
(4.64922 -0.0982787 0.00251884)
(4.48879 -0.055906 0.0016891)
(4.44648 -0.0280896 0.00235094)
(4.31541 -0.0107195 0.00164245)
(4.28313 0.00045066 0.00220629)
(4.18271 0.00754114 0.00159179)
(4.15969 0.0123319 0.00206747)
(4.08223 0.0166938 0.0015353)
(4.06639 0.0175001 0.0019359)
(4.00369 0.0232699 0.00147801)
(3.99686 0.0170079 0.00181283)
(3.93533 0.0299005 0.0014229)
(3.95165 0.00717338 0.00169258)
(3.84799 0.0271341 0.00136332)
(3.94156 -0.00620715 0.00154743)
(3.54755 -0.0684028 0.00117976)
(4.49808 -0.189162 0.00523595)
(3.74771 -0.276329 0.00362067)
(3.15877 -0.237548 0.0044076)
(2.59588 -0.161936 0.00336697)
(2.33552 -0.112828 0.00411903)
(2.07069 -0.0803533 0.00329192)
(1.99689 -0.0650794 0.00395749)
(1.86143 -0.0566081 0.00325086)
(1.84491 -0.0529117 0.00381689)
(1.75957 -0.0509784 0.0032031)
(1.75763 -0.0494537 0.00368044)
(1.69699 -0.0496834 0.00314789)
(1.6986 -0.0469472 0.00355101)
(1.65331 -0.0502816 0.00309062)
(1.65559 -0.0407636 0.00343217)
(1.62328 -0.0541739 0.00303445)
(1.61988 -0.0140423 0.00332764)
(1.63521 -0.0605096 0.00297887)
(1.5604 0.124936 0.00326668)
(1.99407 0.166635 0.00286833)
(4.45371 0.0648559 -9.24294e-09)
(4.23207 0.117644 -9.28464e-09)
(3.86681 0.127533 -9.30617e-09)
(3.52299 0.112375 -9.30051e-09)
(3.1813 0.087798 -9.33507e-09)
(2.90898 0.0641153 -9.31563e-09)
(2.67834 0.0420565 -9.35468e-09)
(2.50929 0.025825 -9.30475e-09)
(2.37907 0.0126036 -9.33016e-09)
(2.28515 0.00451276 -9.27587e-09)
(2.21825 -0.00213145 -9.33601e-09)
(2.16659 -0.00484599 -9.31127e-09)
(2.1329 -0.00841371 -9.38774e-09)
(2.10351 -0.00766764 -9.36256e-09)
(2.08377 -0.0114787 -9.44305e-09)
(2.07171 -0.00688196 -9.43215e-09)
(2.04644 -0.0155847 -9.52266e-09)
(2.06996 -0.00606528 -9.51633e-09)
(2.00247 -0.0274927 -9.60844e-09)
(2.1227 -0.0484111 -9.56386e-09)
(4.51261 0.0574062 -9.22693e-09)
(4.64418 0.109165 -9.23597e-09)
(4.72945 0.139553 -9.24065e-09)
(4.80894 0.148682 -9.23219e-09)
(4.82386 0.143627 -9.27214e-09)
(4.82614 0.128231 -9.28644e-09)
(4.79475 0.110045 -9.36572e-09)
(4.76058 0.090577 -9.33798e-09)
(4.71575 0.074617 -9.36772e-09)
(4.67212 0.0602385 -9.31599e-09)
(4.62952 0.0503292 -9.38435e-09)
(4.5875 0.0413261 -9.37328e-09)
(4.55236 0.0360962 -9.4564e-09)
(4.5151 0.0304862 -9.42426e-09)
(4.48881 0.0275794 -9.48367e-09)
(4.45618 0.0252006 -9.44609e-09)
(4.4387 0.020467 -9.52984e-09)
(4.4103 0.0269832 -9.51839e-09)
(4.3954 0.0115117 -9.64143e-09)
(4.37153 0.0399024 -9.59021e-09)
(4.50239 0.0216228 -9.24071e-09)
(4.62203 0.0547782 -9.26106e-09)
(4.73253 0.0802283 -9.26636e-09)
(4.89205 0.0929375 -9.25436e-09)
(5.02086 0.0946922 -9.29705e-09)
(5.15458 0.0895357 -9.29606e-09)
(5.25361 0.0796663 -9.35363e-09)
(5.34264 0.0692815 -9.32027e-09)
(5.40642 0.058787 -9.37115e-09)
(5.46024 0.0503002 -9.35285e-09)
(5.49935 0.0426322 -9.45478e-09)
(5.53232 0.0372916 -9.47419e-09)
(5.55653 0.0317735 -9.57736e-09)
(5.57937 0.0292111 -9.54594e-09)
(5.59392 0.0236501 -9.58632e-09)
(5.61323 0.0248825 -9.5132e-09)
(5.62147 0.0146718 -9.5709e-09)
(5.63839 0.0231394 -9.53767e-09)
(5.65012 0.000299901 -9.64629e-09)
(5.65165 0.00969964 -9.62336e-09)
(4.50072 0.0173503 -9.23463e-09)
(4.59663 0.0334938 -9.26149e-09)
(4.69503 0.0444399 -9.27131e-09)
(4.8501 0.0495043 -9.27041e-09)
(4.98785 0.0507501 -9.31391e-09)
(5.14145 0.0485021 -9.30941e-09)
(5.26892 0.0447642 -9.35509e-09)
(5.39224 0.0399333 -9.31577e-09)
(5.49398 0.0356199 -9.35998e-09)
(5.58686 0.0314362 -9.33702e-09)
(5.66682 0.0283262 -9.42892e-09)
(5.73791 0.0254793 -9.44205e-09)
(5.80372 0.023439 -9.53982e-09)
(5.85958 0.0217319 -9.5368e-09)
(5.91807 0.01984 -9.60868e-09)
(5.95927 0.0199033 -9.52233e-09)
(6.02 0.0159383 -9.57421e-09)
(6.03484 0.0211607 -9.56789e-09)
(6.11648 0.0109813 -9.64436e-09)
(6.07225 0.0278527 -9.60346e-09)
(4.5014 -3.67892e-08 -9.24153e-09)
(4.60869 1.05209e-07 -9.2668e-09)
(4.70806 -7.39376e-08 -9.28307e-09)
(4.86219 2.67608e-07 -9.28597e-09)
(4.99626 -3.52452e-08 -9.33042e-09)
(5.14831 6.68239e-07 -9.31672e-09)
(5.27592 3.56134e-07 -9.36127e-09)
(5.40206 1.64565e-06 -9.33109e-09)
(5.50778 1.7314e-06 -9.39384e-09)
(5.60687 4.47747e-06 -9.37888e-09)
(5.6928 5.15922e-06 -9.45807e-09)
(5.77266 1.38503e-05 -9.43321e-09)
(5.84481 1.1861e-05 -9.49406e-09)
(5.91223 4.37867e-05 -9.45694e-09)
(5.97574 2.62757e-05 -9.52397e-09)
(6.03244 0.000124376 -9.48941e-09)
(6.09582 7.99151e-05 -9.55309e-09)
(6.13128 0.00029815 -9.54131e-09)
(6.22143 0.000316292 -9.62171e-09)
(6.20099 0.000617758 -9.57206e-09)
(4.50072 -0.0173503 -9.23565e-09)
(4.59663 -0.0334935 -9.26448e-09)
(4.69503 -0.0444401 -9.28332e-09)
(4.8501 -0.0495038 -9.29407e-09)
(4.98785 -0.0507503 -9.33521e-09)
(5.14145 -0.0485007 -9.31672e-09)
(5.26892 -0.0447638 -9.35746e-09)
(5.39224 -0.0399296 -9.34101e-09)
(5.49398 -0.0356175 -9.41992e-09)
(5.58686 -0.0314261 -9.41211e-09)
(5.66682 -0.0283189 -9.4738e-09)
(5.73792 -0.0254483 -9.41526e-09)
(5.80373 -0.0234233 -9.44448e-09)
(5.8596 -0.0216359 -9.38996e-09)
(5.91811 -0.0198081 -9.46455e-09)
(5.95931 -0.0196346 -9.45784e-09)
(6.02013 -0.0158285 -9.54745e-09)
(6.03496 -0.020524 -9.5322e-09)
(6.11685 -0.010465 -9.59386e-09)
(6.07266 -0.0265661 -9.5312e-09)
(4.50239 -0.0216229 -9.24212e-09)
(4.62203 -0.0547781 -9.27281e-09)
(4.73253 -0.0802284 -9.30146e-09)
(4.89205 -0.0929371 -9.31741e-09)
(5.02086 -0.0946923 -9.35995e-09)
(5.15458 -0.0895345 -9.33374e-09)
(5.25361 -0.0796656 -9.37137e-09)
(5.34264 -0.0692786 -9.35144e-09)
(5.40641 -0.0587839 -9.42524e-09)
(5.46025 -0.0502923 -9.40337e-09)
(5.49934 -0.042623 -9.44588e-09)
(5.53236 -0.0372672 -9.36971e-09)
(5.55653 -0.0317532 -9.39351e-09)
(5.57945 -0.029134 -9.36913e-09)
(5.59397 -0.0236084 -9.48023e-09)
(5.61343 -0.0246631 -9.46312e-09)
(5.62171 -0.0145491 -9.52225e-09)
(5.63884 -0.0226191 -9.52274e-09)
(5.65092 0.000205053 -9.58669e-09)
(5.65285 -0.0086684 -9.51085e-09)
(4.51261 -0.0574062 -9.24664e-09)
(4.64418 -0.109165 -9.29431e-09)
(4.72945 -0.139553 -9.32148e-09)
(4.80894 -0.148682 -9.33505e-09)
(4.82386 -0.143627 -9.37385e-09)
(4.82614 -0.128231 -9.33437e-09)
(4.79475 -0.110044 -9.35044e-09)
(4.76059 -0.090575 -9.32853e-09)
(4.71574 -0.0746146 -9.41906e-09)
(4.67215 -0.0602326 -9.42459e-09)
(4.62951 -0.0503236 -9.49329e-09)
(4.58758 -0.041307 -9.4464e-09)
(4.55235 -0.036087 -9.49687e-09)
(4.51531 -0.030424 -9.46872e-09)
(4.48884 -0.0275687 -9.55271e-09)
(4.45667 -0.0250233 -9.53069e-09)
(4.4389 -0.0204312 -9.59626e-09)
(4.41148 -0.0265707 -9.53731e-09)
(4.39616 -0.0112577 -9.59447e-09)
(4.3745 -0.0391189 -9.50846e-09)
(4.45371 -0.0648559 -9.24436e-09)
(4.23207 -0.117644 -9.25436e-09)
(3.86681 -0.127533 -9.26719e-09)
(3.52299 -0.112375 -9.27328e-09)
(3.1813 -0.0877977 -9.31216e-09)
(2.90899 -0.0641153 -9.29419e-09)
(2.67835 -0.0420558 -9.35584e-09)
(2.50929 -0.0258251 -9.36862e-09)
(2.37907 -0.0126015 -9.4735e-09)
(2.28517 -0.00451294 -9.47825e-09)
(2.21826 0.00213658 -9.55019e-09)
(2.16665 0.00484699 -9.5144e-09)
(2.13295 0.00842413 -9.57353e-09)
(2.10366 0.00767619 -9.53818e-09)
(2.08395 0.0114968 -9.59585e-09)
(2.07206 0.00691583 -9.54957e-09)
(2.04694 0.0156244 -9.59658e-09)
(2.07101 0.00614335 -9.54894e-09)
(2.00328 0.0276363 -9.61034e-09)
(2.12679 0.0483866 -9.57225e-09)
(4.49808 0.189162 -0.00523596)
(3.74771 0.276329 -0.00362069)
(3.15877 0.237549 -0.00440761)
(2.59588 0.161936 -0.00336698)
(2.33552 0.112828 -0.00411905)
(2.07069 0.0803532 -0.00329193)
(1.99689 0.0650799 -0.00395751)
(1.86143 0.0566078 -0.00325087)
(1.84491 0.0529132 -0.00381691)
(1.75956 0.0509778 -0.00320311)
(1.75762 0.049458 -0.00368046)
(1.69695 0.0496823 -0.00314789)
(1.69856 0.0469595 -0.00355104)
(1.65322 0.050282 -0.00309059)
(1.65544 0.0407956 -0.00343227)
(1.62305 0.0541853 -0.00303434)
(1.61939 0.0141143 -0.00332792)
(1.63466 0.0605183 -0.00297842)
(1.55922 -0.124883 -0.00326794)
(1.99179 -0.167284 -0.00286592)
(4.62978 0.107108 -0.00336006)
(4.66453 0.228591 -0.00205557)
(4.80052 0.206348 -0.00280082)
(4.6733 0.153067 -0.00177306)
(4.64922 0.0982788 -0.00251885)
(4.48878 0.0559066 -0.00168912)
(4.44648 0.02809 -0.00235095)
(4.31541 0.0107212 -0.00164246)
(4.28312 -0.000449282 -0.00220631)
(4.18269 -0.00753659 -0.0015918)
(4.15969 -0.0123281 -0.00206749)
(4.08217 -0.0166798 -0.0015353)
(4.06638 -0.017493 -0.00193594)
(4.00352 -0.0232243 -0.001478)
(3.99681 -0.0170016 -0.00181292)
(3.93486 -0.0297573 -0.00142285)
(3.95147 -0.00717459 -0.00169277)
(3.84661 -0.0267283 -0.00136322)
(3.94104 0.00634426 -0.00154768)
(3.54317 0.0695647 -0.00117967)
(4.56223 0.0604865 -0.00465899)
(4.72086 0.183359 -0.00344476)
(5.04466 0.212406 -0.00415767)
(5.15575 0.189147 -0.00311865)
(5.33915 0.158594 -0.00385318)
(5.35529 0.127618 -0.00301806)
(5.44216 0.106287 -0.00368072)
(5.42109 0.0900933 -0.00297306)
(5.4663 0.0787734 -0.00354032)
(5.43797 0.0703562 -0.00292738)
(5.46369 0.0632262 -0.0034065)
(5.43764 0.058503 -0.00287444)
(5.4509 0.0525277 -0.00327956)
(5.43234 0.0508799 -0.00281838)
(5.43178 0.0425649 -0.00316413)
(5.4323 0.0463432 -0.00276274)
(5.40433 0.023614 -0.00307029)
(5.45714 0.0395443 -0.00271127)
(5.38222 -0.039906 -0.0030512)
(5.53202 -0.0449136 -0.00267263)
(4.52031 0.0284193 -0.00319379)
(4.58581 0.0706269 -0.00209605)
(4.93166 0.0739178 -0.00279821)
(5.09572 0.0656947 -0.00178003)
(5.35963 0.0525953 -0.00250991)
(5.45812 0.0401563 -0.00167429)
(5.62423 0.0309673 -0.0023323)
(5.67826 0.0242939 -0.00162273)
(5.78984 0.0194753 -0.00218652)
(5.82341 0.0158572 -0.00157296)
(5.90404 0.0129782 -0.00204908)
(5.92615 0.0103019 -0.00151812)
(5.98788 0.00875978 -0.00191856)
(5.99973 0.00582549 -0.00146186)
(6.05267 0.0065171 -0.00179494)
(6.04591 0.00201227 -0.001406)
(6.10661 0.00657424 -0.00166831)
(6.03921 0.00298429 -0.00133839)
(6.14127 0.00434748 -0.00148566)
(5.85056 0.0310146 -0.00117211)
(4.55211 -1.79143e-08 -0.00457027)
(4.66835 5.94466e-08 -0.003474)
(4.987 -4.4868e-09 -0.00416489)
(5.14196 1.71815e-07 -0.0031314)
(5.3975 8.13932e-08 -0.00385735)
(5.49897 4.38949e-07 -0.003018)
(5.67134 4.98406e-07 -0.00367826)
(5.73603 1.05916e-06 -0.0029693)
(5.85931 1.9355e-06 -0.00353653)
(5.90766 2.67924e-06 -0.00292369)
(6.00104 6.0884e-06 -0.00340329)
(6.04118 7.49165e-06 -0.00287159)
(6.1118 1.67268e-05 -0.00327724)
(6.14929 2.18621e-05 -0.0028163)
(6.19688 4.49361e-05 -0.00316317)
(6.24341 5.82794e-05 -0.00276148)
(6.25883 0.000133527 -0.00307389)
(6.33794 0.000158871 -0.00271176)
(6.32477 0.000448707 -0.00306898)
(6.42574 0.000643885 -0.00269566)
(4.52031 -0.0284193 -0.00319379)
(4.58581 -0.0706268 -0.00209605)
(4.93166 -0.0739179 -0.00279821)
(5.09572 -0.0656942 -0.00178003)
(5.35963 -0.0525954 -0.00250991)
(5.45812 -0.040155 -0.00167429)
(5.62423 -0.030967 -0.0023323)
(5.67826 -0.0242904 -0.00162273)
(5.78984 -0.0194735 -0.00218652)
(5.82342 -0.0158476 -0.00157296)
(5.90404 -0.0129719 -0.00204908)
(5.92617 -0.0102725 -0.00151812)
(5.98788 -0.00874442 -0.00191855)
(5.99978 -0.00573164 -0.00146186)
(6.05269 -0.00648544 -0.00179492)
(6.04602 -0.00172424 -0.00140599)
(6.1067 -0.006489 -0.00166826)
(6.03952 -0.00220255 -0.00133834)
(6.14171 -0.00400821 -0.00148574)
(5.85141 -0.0293076 -0.00117195)
(4.56223 -0.0604865 -0.00465899)
(4.72086 -0.183359 -0.00344476)
(5.04466 -0.212406 -0.00415767)
(5.15575 -0.189147 -0.00311865)
(5.33915 -0.158594 -0.00385317)
(5.35529 -0.127618 -0.00301806)
(5.44215 -0.106286 -0.00368072)
(5.4211 -0.0900917 -0.00297306)
(5.4663 -0.0787696 -0.00354032)
(5.43798 -0.0703517 -0.00292739)
(5.46369 -0.0632146 -0.00340649)
(5.43768 -0.0584893 -0.00287446)
(5.45091 -0.0524963 -0.00327953)
(5.43245 -0.050835 -0.00281843)
(5.43184 -0.0424821 -0.00316406)
(5.43255 -0.0462064 -0.00276285)
(5.4046 -0.0233715 -0.00307011)
(5.45776 -0.0391954 -0.00271147)
(5.38308 0.0407026 -0.00305078)
(5.53367 0.0457945 -0.0026727)
(4.62978 -0.107108 -0.00336006)
(4.66453 -0.228591 -0.00205557)
(4.80052 -0.206348 -0.00280082)
(4.6733 -0.153067 -0.00177306)
(4.64922 -0.0982787 -0.00251885)
(4.48879 -0.055906 -0.00168912)
(4.44648 -0.0280896 -0.00235095)
(4.31541 -0.0107195 -0.00164246)
(4.28312 0.000450668 -0.0022063)
(4.18271 0.00754115 -0.00159181)
(4.15969 0.0123319 -0.00206748)
(4.08223 0.0166938 -0.00153531)
(4.06639 0.0175001 -0.00193592)
(4.00369 0.0232699 -0.00147803)
(3.99686 0.0170079 -0.00181285)
(3.93533 0.0299006 -0.00142292)
(3.95165 0.00717338 -0.0016926)
(3.84799 0.0271342 -0.00136334)
(3.94156 -0.00620715 -0.00154745)
(3.54755 -0.0684028 -0.00117978)
(4.49808 -0.189162 -0.00523596)
(3.74771 -0.276329 -0.00362069)
(3.15877 -0.237548 -0.00440761)
(2.59588 -0.161936 -0.00336698)
(2.33552 -0.112828 -0.00411905)
(2.07069 -0.0803533 -0.00329193)
(1.99689 -0.0650794 -0.00395751)
(1.86143 -0.0566081 -0.00325087)
(1.84491 -0.0529117 -0.00381691)
(1.75957 -0.0509784 -0.00320312)
(1.75763 -0.0494536 -0.00368046)
(1.69699 -0.0496834 -0.0031479)
(1.6986 -0.0469472 -0.00355103)
(1.65331 -0.0502816 -0.00309063)
(1.65559 -0.0407636 -0.00343219)
(1.62328 -0.0541739 -0.00303447)
(1.61988 -0.0140423 -0.00332765)
(1.63521 -0.0605096 -0.00297888)
(1.5604 0.124936 -0.0032667)
(1.99407 0.166635 -0.00286834)
(3.51757 0.415774 27.029)
(2.82451 0.147075 27.0659)
(2.08511 0.0432487 27.0679)
(1.88798 -0.0235909 27.0752)
(1.61706 -0.0438355 27.0734)
(1.60614 -0.0502704 27.0776)
(1.45412 -0.051164 27.0754)
(1.4823 -0.0499751 27.0786)
(1.37174 -0.0486467 27.0767)
(1.40682 -0.0473189 27.0792)
(1.31931 -0.0456614 27.0777)
(1.35403 -0.0455018 27.0797)
(1.28263 -0.0423909 27.0786)
(1.31508 -0.0451013 27.08)
(1.25509 -0.0363753 27.0793)
(1.2851 -0.046509 27.0802)
(1.23119 -0.0155674 27.0804)
(1.24889 -0.0449639 27.0796)
(1.22332 0.0918885 27.0828)
(1.00625 0.122749 27.0714)
(4.59908 0.543093 27.054)
(4.79162 0.370959 27.0829)
(4.502 0.282211 27.0828)
(4.45251 0.183685 27.0899)
(4.16507 0.128094 27.0898)
(4.14031 0.0971331 27.0943)
(3.92051 0.078075 27.0937)
(3.92556 0.0670999 27.0966)
(3.75608 0.0588398 27.0962)
(3.7767 0.0536452 27.0982)
(3.6424 0.0486019 27.0979)
(3.67028 0.0463943 27.0993)
(3.56058 0.0412809 27.0993)
(3.59292 0.0429576 27.1)
(3.49818 0.0325776 27.1008)
(3.54057 0.0430242 27.1)
(3.44494 0.0143206 27.1031)
(3.53027 0.0355877 27.098)
(3.38959 -0.0195464 27.1086)
(3.73302 -0.0699363 27.0776)
(4.7178 0.285321 27.0556)
(5.19607 0.206624 27.0791)
(5.30248 0.184507 27.0717)
(5.54237 0.124351 27.076)
(5.48569 0.087615 27.072)
(5.60746 0.0623099 27.0758)
(5.51832 0.0443488 27.0729)
(5.59748 0.0319742 27.0761)
(5.50952 0.0224904 27.0739)
(5.56788 0.0148771 27.0766)
(5.48878 0.00960922 27.0752)
(5.53357 0.00395647 27.0773)
(5.46602 0.00186766 27.0765)
(5.49825 -0.00362371 27.078)
(5.44655 -0.00136247 27.0781)
(5.45806 -0.00864362 27.0785)
(5.43479 0.00403478 27.0801)
(5.39397 -0.00625485 27.0784)
(5.4166 0.0359813 27.0829)
(5.2619 0.057691 27.0615)
(4.69577 0.167443 27.0644)
(5.11409 0.128735 27.0881)
(5.31833 0.12098 27.0823)
(5.65675 0.0911966 27.0844)
(5.71827 0.0726649 27.0812)
(5.93809 0.0604736 27.083)
(5.94817 0.0516797 27.081)
(6.10352 0.0458312 27.0823)
(6.09429 0.0408047 27.0811)
(6.2109 0.0370151 27.0821)
(6.1926 0.033365 27.0814)
(6.28412 0.0308406 27.0822)
(6.25987 0.0274237 27.0818)
(6.33676 0.0266332 27.0825)
(6.30512 0.0214683 27.0824)
(6.38076 0.0242409 27.0827)
(6.33527 0.0127316 27.0832)
(6.43921 0.0194243 27.0831)
(6.37029 0.00171294 27.0842)
(6.59369 -0.0098018 27.0635)
(4.69705 -7.40135e-09 27.0596)
(5.11071 8.09594e-08 27.0818)
(5.32461 -1.32364e-08 27.0731)
(5.67758 2.37635e-07 27.0754)
(5.75326 1.77483e-08 27.07)
(5.9885 6.26925e-07 27.0724)
(6.01677 3.22884e-07 27.0686)
(6.18981 1.57922e-06 27.0707)
(6.20168 1.6391e-06 27.0679)
(6.33559 4.2692e-06 27.0698)
(6.33965 5.59861e-06 27.0678)
(6.44412 1.39331e-05 27.0695)
(6.44513 1.3578e-05 27.068)
(6.52335 5.15008e-05 27.0695)
(6.52876 2.26676e-05 27.0685)
(6.57331 0.000179702 27.0698)
(6.59995 4.28468e-05 27.0692)
(6.58054 0.000516071 27.0704)
(6.64625 0.000176529 27.07)
(6.51992 0.000834437 27.0514)
(4.69577 -0.167443 27.0644)
(5.11409 -0.128735 27.0881)
(5.31833 -0.12098 27.0823)
(5.65675 -0.0911963 27.0844)
(5.71827 -0.0726647 27.0812)
(5.93809 -0.0604728 27.083)
(5.94817 -0.0516786 27.0809)
(6.10352 -0.0458292 27.0823)
(6.09428 -0.0408005 27.081)
(6.21091 -0.0370102 27.0822)
(6.1926 -0.0333512 27.0813)
(6.28415 -0.0308261 27.0823)
(6.25988 -0.0273875 27.0817)
(6.33682 -0.0265796 27.0826)
(6.30516 -0.021388 27.0823)
(6.38089 -0.0240523 27.083)
(6.33545 -0.012542 27.0829)
(6.43948 -0.0188949 27.0835)
(6.37081 -0.00102775 27.0837)
(6.59444 0.0111386 27.0639)
(4.7178 -0.285321 27.0556)
(5.19607 -0.206624 27.0791)
(5.30248 -0.184507 27.0717)
(5.54237 -0.12435 27.076)
(5.48569 -0.0876149 27.072)
(5.60746 -0.062309 27.0758)
(5.51831 -0.0443482 27.0729)
(5.59748 -0.0319719 27.0761)
(5.50952 -0.0224878 27.0739)
(5.5679 -0.0148711 27.0767)
(5.48877 -0.00960127 27.0751)
(5.53362 -0.00393711 27.0775)
(5.46602 -0.00185096 27.0763)
(5.49839 0.00369488 27.0784)
(5.44659 0.00137901 27.0775)
(5.4584 0.00888948 27.0793)
(5.43502 -0.00403758 27.0788)
(5.39478 0.00694286 27.0804)
(5.41757 -0.0358045 27.0801)
(5.26418 -0.0562231 27.0654)
(4.59908 -0.543093 27.054)
(4.79162 -0.370959 27.0829)
(4.502 -0.28221 27.0828)
(4.45251 -0.183685 27.0899)
(4.16507 -0.128094 27.0898)
(4.14031 -0.0971329 27.0943)
(3.92051 -0.0780742 27.0937)
(3.92557 -0.0670995 27.0967)
(3.75609 -0.058837 27.0962)
(3.77671 -0.0536443 27.0983)
(3.64241 -0.0485934 27.0979)
(3.67034 -0.0463905 27.0995)
(3.56061 -0.0412591 27.0991)
(3.59306 -0.0429379 27.1004)
(3.49833 -0.0325286 27.1001)
(3.54088 -0.0429381 27.1012)
(3.4455 -0.0142082 27.1011)
(3.53097 -0.0353344 27.1018)
(3.3911 0.0199067 27.1015)
(3.73508 0.0701732 27.0906)
(3.51757 -0.415774 27.029)
(2.82451 -0.147075 27.0659)
(2.08511 -0.0432487 27.0679)
(1.88798 0.023591 27.0752)
(1.61706 0.0438354 27.0734)
(1.60614 0.0502706 27.0776)
(1.45412 0.0511638 27.0754)
(1.48231 0.0499755 27.0786)
(1.37174 0.0486462 27.0767)
(1.40683 0.0473199 27.0792)
(1.31932 0.0456594 27.0777)
(1.35406 0.045504 27.0797)
(1.28265 0.0423845 27.0785)
(1.31516 0.0451079 27.0801)
(1.25518 0.0363607 27.0792)
(1.28529 0.0465252 27.0805)
(1.23154 0.0155253 27.0798)
(1.24934 0.0450178 27.0809)
(1.22439 -0.0918485 27.0801)
(1.00805 -0.12215 27.0794)
(1.09211 -0.156063 -27.1277)
(1.18669 -0.144996 -27.246)
(1.14346 -0.11406 -27.3197)
(1.16294 -0.110568 -27.3777)
(1.13279 -0.110294 -27.422)
(1.14929 -0.110391 -27.4612)
(1.12614 -0.110955 -27.4935)
(1.14008 -0.111164 -27.523)
(1.12152 -0.111623 -27.5482)
(1.13344 -0.1118 -27.5716)
(1.11815 -0.112164 -27.5919)
(1.12855 -0.112313 -27.6108)
(1.11571 -0.112606 -27.6275)
(1.12495 -0.112732 -27.6429)
(1.11399 -0.11297 -27.6566)
(1.12233 -0.113074 -27.6692)
(1.11285 -0.113269 -27.6804)
(1.12046 -0.113353 -27.6906)
(1.11217 -0.113512 -27.6997)
(1.11917 -0.113577 -27.7078)
(1.11184 -0.113705 -27.715)
(1.11833 -0.113753 -27.7214)
(1.11181 -0.113854 -27.727)
(1.11785 -0.113887 -27.7319)
(1.11201 -0.113966 -27.7361)
(1.11764 -0.113986 -27.7397)
(1.11238 -0.114046 -27.7428)
(1.11766 -0.114054 -27.7454)
(1.1129 -0.1141 -27.7475)
(1.11784 -0.1141 -27.7492)
(1.11353 -0.114134 -27.7506)
(1.11817 -0.114127 -27.7517)
(1.11425 -0.114152 -27.7525)
(1.11862 -0.11414 -27.7531)
(1.11505 -0.114159 -27.7535)
(1.11915 -0.114146 -27.7538)
(1.1159 -0.11416 -27.754)
(1.11977 -0.114146 -27.7541)
(1.1168 -0.114158 -27.7541)
(1.12045 -0.114143 -27.7541)
(1.11774 -0.114154 -27.7541)
(1.12118 -0.11414 -27.754)
(1.11871 -0.114149 -27.7539)
(1.12196 -0.114136 -27.7538)
(1.1197 -0.114144 -27.7537)
(1.12277 -0.114132 -27.7536)
(1.1207 -0.11414 -27.7535)
(1.12361 -0.114129 -27.7533)
(1.12172 -0.114135 -27.7532)
(1.12447 -0.114125 -27.7531)
(1.12275 -0.114132 -27.753)
(1.12536 -0.114122 -27.7529)