/*--------------------------------*- C++ -*----------------------------------*\
  =========                 |
  \\      /  F ield         | OpenFOAM: The Open Source CFD Toolbox
   \\    /   O peration     | Website:  https://openfoam.org
    \\  /    A nd           | Version:  7
     \\/     M anipulation  |
\*---------------------------------------------------------------------------*/
FoamFile
{
    version     2.0;
    format      ascii;
    class       volVectorField;
    location    "5.66";
    object      U;
}
// * * * * * * * * * * * * * * * * * * * * * * * * * * * * * * * * * * * * * //

dimensions      [0 1 -1 0 0 0 0];

internalField   nonuniform List<vector> 
5760
(
(2.25629 0.123039 0)
(1.31028 0.0179282 0)
(1.06879 -0.00281542 0)
(0.939649 -0.00073629 0)
(0.868212 -0.000434657 0)
(0.828668 -0.000491608 0)
(0.808317 -0.000221333 0)
(0.793544 7.89019e-05 0)
(0.778305 0.000152368 0)
(0.763541 0.000100183 0)
(0.750972 5.91502e-05 0)
(0.740623 5.60253e-05 0)
(0.731754 6.36126e-05 0)
(0.723859 6.54421e-05 0)
(0.716768 6.25511e-05 0)
(0.710411 5.92011e-05 0)
(0.704701 5.68492e-05 0)
(0.699541 5.50448e-05 0)
(0.694851 5.32432e-05 0)
(0.690571 5.14007e-05 0)
(0.686653 4.96318e-05 0)
(0.683056 4.79818e-05 0)
(0.679745 4.6436e-05 0)
(0.67669 4.49751e-05 0)
(0.673865 4.35932e-05 0)
(0.671248 4.22862e-05 0)
(0.668819 4.10503e-05 0)
(0.666562 3.9881e-05 0)
(0.664461 3.87732e-05 0)
(0.662503 3.77225e-05 0)
(0.660677 3.67248e-05 0)
(0.658972 3.57771e-05 0)
(0.657378 3.48747e-05 0)
(0.655888 3.40171e-05 0)
(0.654494 3.31975e-05 0)
(0.653189 3.24171e-05 0)
(0.651968 3.16767e-05 0)
(0.650823 3.09577e-05 0)
(0.649751 3.02738e-05 0)
(0.648747 2.9627e-05 0)
(0.647807 2.90014e-05 0)
(0.646926 2.83985e-05 0)
(0.646102 2.78197e-05 0)
(0.645331 2.72626e-05 0)
(0.64461 2.67241e-05 0)
(0.643936 2.62062e-05 0)
(0.643308 2.56952e-05 0)
(0.642723 2.52153e-05 0)
(0.642179 2.47251e-05 0)
(0.641674 2.4318e-05 0)
(0.641205 2.38717e-05 0)
(0.640772 2.34088e-05 0)
(0.640373 2.29902e-05 0)
(0.640007 2.25865e-05 0)
(0.639672 2.21847e-05 0)
(0.639368 2.17939e-05 0)
(0.639094 2.1411e-05 0)
(0.638848 2.10397e-05 0)
(0.638629 2.06795e-05 0)
(0.638436 2.03231e-05 0)
(0.63827 1.99574e-05 0)
(0.638129 1.96219e-05 0)
(0.638011 1.93142e-05 0)
(0.637917 1.89781e-05 0)
(0.637845 1.8635e-05 0)
(0.637796 1.83096e-05 0)
(0.637768 1.80187e-05 0)
(0.637761 1.7725e-05 0)
(0.637774 1.74233e-05 0)
(0.637806 1.71368e-05 0)
(0.637856 1.6856e-05 0)
(0.637925 1.65808e-05 0)
(0.638011 1.63136e-05 0)
(0.638113 1.60537e-05 0)
(0.638232 1.5801e-05 0)
(0.638366 1.55552e-05 0)
(0.638514 1.53163e-05 0)
(0.638677 1.50846e-05 0)
(0.638853 1.48605e-05 0)
(0.639042 1.46433e-05 0)
(0.639243 1.44324e-05 0)
(0.639456 1.42283e-05 0)
(0.63968 1.40311e-05 0)
(0.639914 1.38404e-05 0)
(0.640158 1.36564e-05 0)
(0.640412 1.34782e-05 0)
(0.640675 1.3306e-05 0)
(0.640946 1.31403e-05 0)
(0.641225 1.29801e-05 0)
(0.641511 1.28255e-05 0)
(0.641804 1.26765e-05 0)
(0.642104 1.25328e-05 0)
(0.64241 1.23943e-05 0)
(0.642722 1.22608e-05 0)
(0.64304 1.21322e-05 0)
(0.643362 1.20083e-05 0)
(0.643689 1.18889e-05 0)
(0.644021 1.1774e-05 0)
(0.644357 1.16632e-05 0)
(0.644696 1.15565e-05 0)
(0.645039 1.14537e-05 0)
(0.645385 1.13545e-05 0)
(0.645735 1.12589e-05 0)
(0.646087 1.11666e-05 0)
(0.646442 1.10775e-05 0)
(0.646799 1.09914e-05 0)
(0.647159 1.09082e-05 0)
(0.64752 1.08278e-05 0)
(0.647884 1.07501e-05 0)
(0.648249 1.06749e-05 0)
(0.648615 1.06022e-05 0)
(0.648983 1.05319e-05 0)
(0.649353 1.04639e-05 0)
(0.649723 1.03981e-05 0)
(0.650095 1.03345e-05 0)
(0.650467 1.02729e-05 0)
(0.650841 1.02134e-05 0)
(0.651215 1.01557e-05 0)
(0.651589 1.00998e-05 0)
(0.651964 1.00458e-05 0)
(0.65234 9.99324e-06 0)
(0.652716 9.94229e-06 0)
(0.653092 9.89277e-06 0)
(0.653469 9.84464e-06 0)
(0.653846 9.79779e-06 0)
(0.654223 9.75218e-06 0)
(0.6546 9.70776e-06 0)
(0.654977 9.66449e-06 0)
(0.655354 9.62235e-06 0)
(0.655731 9.58133e-06 0)
(0.656108 9.54142e-06 0)
(0.656484 9.50266e-06 0)
(0.656861 9.46504e-06 0)
(0.657237 9.42861e-06 0)
(0.657613 9.39338e-06 0)
(0.657989 9.35937e-06 0)
(0.658365 9.3266e-06 0)
(0.65874 9.29511e-06 0)
(0.659115 9.26489e-06 0)
(0.659489 9.23598e-06 0)
(0.659863 9.2084e-06 0)
(0.660237 9.18215e-06 0)
(0.66061 9.15729e-06 0)
(0.660983 9.13383e-06 0)
(0.661355 9.11182e-06 0)
(0.661727 9.0914e-06 0)
(0.662098 9.07257e-06 0)
(0.662469 9.05545e-06 0)
(0.662839 9.04016e-06 0)
(0.663208 9.02686e-06 0)
(0.663577 9.01575e-06 0)
(0.663946 9.00691e-06 0)
(0.664314 9.0006e-06 0)
(0.664681 8.99699e-06 0)
(0.665048 8.99627e-06 0)
(0.665414 8.99872e-06 0)
(0.665779 9.00446e-06 0)
(0.666144 9.01376e-06 0)
(0.666508 9.02673e-06 0)
(0.666871 9.04366e-06 0)
(0.667234 9.06473e-06 0)
(0.667596 9.0901e-06 0)
(0.667958 9.11993e-06 0)
(0.668318 9.15448e-06 0)
(0.668678 9.19394e-06 0)
(0.669037 9.23858e-06 0)
(0.669396 9.28857e-06 0)
(0.669754 9.34415e-06 0)
(0.670111 9.40551e-06 0)
(0.670467 9.47299e-06 0)
(0.670822 9.54702e-06 0)
(0.671177 9.62774e-06 0)
(0.671531 9.71524e-06 0)
(0.671884 9.8099e-06 0)
(0.672236 9.91215e-06 0)
(0.672587 1.00223e-05 0)
(0.672938 1.01407e-05 0)
(0.673287 1.02677e-05 0)
(0.673636 1.04032e-05 0)
(0.673984 1.05474e-05 0)
(0.674331 1.07008e-05 0)
(0.674678 1.08635e-05 0)
(0.675023 1.10356e-05 0)
(0.675367 1.12172e-05 0)
(0.675711 1.14088e-05 0)
(0.676053 1.16099e-05 0)
(0.676395 1.18212e-05 0)
(0.676735 1.20433e-05 0)
(0.677075 1.22742e-05 0)
(0.677414 1.25169e-05 0)
(0.677752 1.27699e-05 0)
(0.678088 1.30345e-05 0)
(0.678424 1.3312e-05 0)
(0.678759 1.35981e-05 0)
(0.679093 1.38979e-05 0)
(0.679425 1.42063e-05 0)
(0.679757 1.45281e-05 0)
(0.680088 1.48613e-05 0)
(0.680417 1.52063e-05 0)
(0.680746 1.55645e-05 0)
(0.681073 1.59337e-05 0)
(0.6814 1.63159e-05 0)
(0.681725 1.67088e-05 0)
(0.682049 1.71157e-05 0)
(0.682372 1.75325e-05 0)
(0.682694 1.79644e-05 0)
(0.683015 1.8405e-05 0)
(0.683335 1.88605e-05 0)
(0.683654 1.93247e-05 0)
(0.683971 1.98051e-05 0)
(0.684288 2.02913e-05 0)
(0.684603 2.07986e-05 0)
(0.684918 2.13062e-05 0)
(0.685231 2.18389e-05 0)
(0.685543 2.23672e-05 0)
(0.685853 2.29291e-05 0)
(0.686163 2.34751e-05 0)
(0.686472 2.40682e-05 0)
(0.686779 2.46257e-05 0)
(0.687085 2.52599e-05 0)
(0.68739 2.58151e-05 0)
(0.687694 2.64978e-05 0)
(0.687997 2.7041e-05 0)
(0.688299 2.78117e-05 0)
(0.6886 2.83092e-05 0)
(0.688898 2.91635e-05 0)
(0.689197 2.95799e-05 0)
(0.689493 3.06001e-05 0)
(0.68979 3.08764e-05 0)
(0.690085 3.20966e-05 0)
(0.690377 3.2162e-05 0)
(0.690673 3.36799e-05 0)
(0.690957 3.35059e-05 0)
(0.69126 3.5238e-05 0)
(0.691527 3.49496e-05 0)
(0.691853 3.66492e-05 0)
(0.69208 3.68734e-05 0)
(0.692462 3.73604e-05 0)
(0.6926 4.00075e-05 0)
(0.693133 3.69898e-05 0)
(3.80457 0.346854 0)
(3.11419 0.13889 0)
(2.74463 0.0360982 0)
(2.47102 0.0208803 0)
(2.2912 0.0130726 0)
(2.181 0.00710068 0)
(2.11785 0.0045966 0)
(2.07466 0.00430138 0)
(2.03595 0.00424764 0)
(1.9998 0.00379709 0)
(1.9683 0.00322441 0)
(1.94176 0.00278797 0)
(1.919 0.00249481 0)
(1.89894 0.00226808 0)
(1.881 0.00206697 0)
(1.86494 0.00188723 0)
(1.85051 0.00173178 0)
(1.83748 0.00159829 0)
(1.82567 0.0014818 0)
(1.8149 0.00137863 0)
(1.80506 0.00128663 0)
(1.79604 0.00120431 0)
(1.78776 0.00113033 0)
(1.78012 0.00106352 0)
(1.77308 0.00100289 0)
(1.76656 0.000947643 0)
(1.76053 0.000897123 0)
(1.75493 0.000850772 0)
(1.74974 0.000808114 0)
(1.7449 0.000768739 0)
(1.74041 0.000732297 0)
(1.73622 0.00069848 0)
(1.73231 0.000667026 0)
(1.72867 0.000637704 0)
(1.72528 0.000610303 0)
(1.72211 0.000584666 0)
(1.71915 0.000560616 0)
(1.71639 0.000537993 0)
(1.71382 0.000516729 0)
(1.71141 0.000496695 0)
(1.70917 0.000477757 0)
(1.70708 0.00045983 0)
(1.70513 0.000442846 0)
(1.70332 0.000426724 0)
(1.70164 0.000411397 0)
(1.70007 0.000396792 0)
(1.69862 0.000382833 0)
(1.69728 0.000369498 0)
(1.69604 0.000356677 0)
(1.6949 0.000344697 0)
(1.69386 0.000333089 0)
(1.6929 0.000321797 0)
(1.69203 0.000310925 0)
(1.69124 0.000300459 0)
(1.69053 0.000290371 0)
(1.68989 0.000280629 0)
(1.68933 0.000271171 0)
(1.68884 0.0002621 0)
(1.68842 0.000253334 0)
(1.68807 0.000244726 0)
(1.68778 0.000236367 0)
(1.68755 0.000228323 0)
(1.68738 0.000220582 0)
(1.68726 0.000213007 0)
(1.68721 0.000205607 0)
(1.6872 0.000198437 0)
(1.68725 0.000191526 0)
(1.68735 0.000184825 0)
(1.6875 0.000178313 0)
(1.6877 0.000172026 0)
(1.68794 0.000165942 0)
(1.68822 0.000160052 0)
(1.68855 0.000154365 0)
(1.68892 0.00014888 0)
(1.68932 0.000143594 0)
(1.68977 0.000138503 0)
(1.69024 0.000133604 0)
(1.69075 0.000128893 0)
(1.6913 0.000124371 0)
(1.69187 0.000120032 0)
(1.69247 0.000115868 0)
(1.6931 0.000111877 0)
(1.69376 0.000108057 0)
(1.69444 0.000104402 0)
(1.69515 0.000100908 0)
(1.69588 9.75663e-05 0)
(1.69662 9.43735e-05 0)
(1.69739 9.1327e-05 0)
(1.69818 8.84191e-05 0)
(1.69898 8.56445e-05 0)
(1.69981 8.29994e-05 0)
(1.70064 8.04782e-05 0)
(1.70149 7.80752e-05 0)
(1.70236 7.57853e-05 0)
(1.70323 7.36038e-05 0)
(1.70412 7.15257e-05 0)
(1.70502 6.95462e-05 0)
(1.70593 6.76608e-05 0)
(1.70685 6.58648e-05 0)
(1.70778 6.41541e-05 0)
(1.70872 6.25242e-05 0)
(1.70966 6.09711e-05 0)
(1.71061 5.94909e-05 0)
(1.71157 5.80797e-05 0)
(1.71253 5.67341e-05 0)
(1.7135 5.54506e-05 0)
(1.71448 5.4226e-05 0)
(1.71546 5.30573e-05 0)
(1.71644 5.19416e-05 0)
(1.71743 5.08761e-05 0)
(1.71842 4.98583e-05 0)
(1.71941 4.88857e-05 0)
(1.72041 4.79559e-05 0)
(1.72141 4.70668e-05 0)
(1.72241 4.62163e-05 0)
(1.72341 4.54022e-05 0)
(1.72442 4.46228e-05 0)
(1.72542 4.3876e-05 0)
(1.72643 4.31601e-05 0)
(1.72744 4.24738e-05 0)
(1.72845 4.1815e-05 0)
(1.72946 4.11824e-05 0)
(1.73047 4.05745e-05 0)
(1.73148 3.99901e-05 0)
(1.7325 3.94279e-05 0)
(1.73351 3.88867e-05 0)
(1.73452 3.83655e-05 0)
(1.73553 3.78634e-05 0)
(1.73654 3.73794e-05 0)
(1.73756 3.69127e-05 0)
(1.73857 3.64626e-05 0)
(1.73958 3.60285e-05 0)
(1.74059 3.56097e-05 0)
(1.7416 3.52057e-05 0)
(1.74261 3.48159e-05 0)
(1.74361 3.44397e-05 0)
(1.74462 3.40768e-05 0)
(1.74563 3.37266e-05 0)
(1.74663 3.33887e-05 0)
(1.74764 3.30627e-05 0)
(1.74864 3.27482e-05 0)
(1.74964 3.24448e-05 0)
(1.75064 3.21524e-05 0)
(1.75164 3.18705e-05 0)
(1.75264 3.15991e-05 0)
(1.75364 3.1338e-05 0)
(1.75464 3.10872e-05 0)
(1.75563 3.08465e-05 0)
(1.75662 3.06162e-05 0)
(1.75762 3.03963e-05 0)
(1.75861 3.01871e-05 0)
(1.7596 2.99886e-05 0)
(1.76058 2.98014e-05 0)
(1.76157 2.96255e-05 0)
(1.76255 2.94614e-05 0)
(1.76354 2.93095e-05 0)
(1.76452 2.91699e-05 0)
(1.7655 2.90431e-05 0)
(1.76647 2.89293e-05 0)
(1.76745 2.8829e-05 0)
(1.76842 2.87425e-05 0)
(1.7694 2.86699e-05 0)
(1.77037 2.86118e-05 0)
(1.77134 2.85685e-05 0)
(1.7723 2.85405e-05 0)
(1.77327 2.85281e-05 0)
(1.77423 2.85319e-05 0)
(1.77519 2.85523e-05 0)
(1.77615 2.85898e-05 0)
(1.77711 2.86455e-05 0)
(1.77806 2.87201e-05 0)
(1.77902 2.88141e-05 0)
(1.77997 2.89276e-05 0)
(1.78092 2.90614e-05 0)
(1.78186 2.92168e-05 0)
(1.78281 2.93942e-05 0)
(1.78375 2.95946e-05 0)
(1.78469 2.98186e-05 0)
(1.78563 3.00662e-05 0)
(1.78657 3.03378e-05 0)
(1.7875 3.06345e-05 0)
(1.78843 3.09565e-05 0)
(1.78936 3.13042e-05 0)
(1.79029 3.1678e-05 0)
(1.79121 3.20787e-05 0)
(1.79213 3.25059e-05 0)
(1.79305 3.29604e-05 0)
(1.79397 3.34431e-05 0)
(1.79488 3.39503e-05 0)
(1.79579 3.4488e-05 0)
(1.7967 3.50544e-05 0)
(1.79761 3.56521e-05 0)
(1.79851 3.62834e-05 0)
(1.79942 3.69397e-05 0)
(1.80031 3.76312e-05 0)
(1.80121 3.83488e-05 0)
(1.8021 3.91014e-05 0)
(1.80299 3.98861e-05 0)
(1.80388 4.0701e-05 0)
(1.80477 4.15489e-05 0)
(1.80565 4.24299e-05 0)
(1.80653 4.33454e-05 0)
(1.8074 4.42884e-05 0)
(1.80827 4.52687e-05 0)
(1.80915 4.62772e-05 0)
(1.81001 4.73236e-05 0)
(1.81088 4.83962e-05 0)
(1.81174 4.95064e-05 0)
(1.8126 5.06418e-05 0)
(1.81345 5.1818e-05 0)
(1.8143 5.3014e-05 0)
(1.81515 5.42624e-05 0)
(1.816 5.55159e-05 0)
(1.81684 5.68292e-05 0)
(1.81768 5.8141e-05 0)
(1.81852 5.95352e-05 0)
(1.81935 6.08936e-05 0)
(1.82018 6.2367e-05 0)
(1.82101 6.37605e-05 0)
(1.82184 6.53405e-05 0)
(1.82266 6.67348e-05 0)
(1.82348 6.84428e-05 0)
(1.82429 6.98076e-05 0)
(1.8251 7.17302e-05 0)
(1.82591 7.29861e-05 0)
(1.82672 7.51348e-05 0)
(1.82752 7.61779e-05 0)
(1.82832 7.87582e-05 0)
(1.82912 7.94205e-05 0)
(1.82991 8.25661e-05 0)
(1.8307 8.2621e-05 0)
(1.8315 8.66265e-05 0)
(1.83226 8.58874e-05 0)
(1.83308 9.07114e-05 0)
(1.83379 8.92883e-05 0)
(1.83467 9.44931e-05 0)
(1.83528 9.3676e-05 0)
(1.83631 9.64772e-05 0)
(1.83667 9.97335e-05 0)
(1.8381 9.50258e-05 0)
(4.41373 0.422873 0)
(4.229 0.212939 0)
(3.97256 0.0753611 0)
(3.67485 0.0501074 0)
(3.43806 0.0343711 0)
(3.27993 0.0202718 0)
(3.18336 0.0131075 0)
(3.11717 0.0110946 0)
(3.06122 0.0104103 0)
(3.01043 0.00935841 0)
(2.96585 0.00809799 0)
(2.92776 0.00705021 0)
(2.89494 0.0062864 0)
(2.86604 0.00569345 0)
(2.84027 0.00518479 0)
(2.81719 0.00473695 0)
(2.79644 0.00434825 0)
(2.7777 0.0040124 0)
(2.76071 0.00371911 0)
(2.74525 0.00345985 0)
(2.73112 0.00322895 0)
(2.71817 0.00302238 0)
(2.70629 0.00283673 0)
(2.69535 0.00266907 0)
(2.68527 0.00251696 0)
(2.67596 0.0023784 0)
(2.66734 0.0022517 0)
(2.65936 0.00213547 0)
(2.65196 0.0020285 0)
(2.64509 0.00192977 0)
(2.63871 0.0018384 0)
(2.63278 0.00175361 0)
(2.62726 0.00167475 0)
(2.62212 0.00160123 0)
(2.61734 0.00153253 0)
(2.6129 0.00146824 0)
(2.60876 0.00140791 0)
(2.6049 0.00135121 0)
(2.60132 0.00129791 0)
(2.59799 0.00124764 0)
(2.59489 0.00120013 0)
(2.59201 0.00115518 0)
(2.58934 0.00111259 0)
(2.58687 0.00107216 0)
(2.58459 0.00103374 0)
(2.58248 0.000997129 0)
(2.58053 0.000962171 0)
(2.57875 0.000928755 0)
(2.57711 0.000896676 0)
(2.57562 0.000866504 0)
(2.57427 0.00083743 0)
(2.57304 0.000809288 0)
(2.57193 0.000782107 0)
(2.57095 0.000755918 0)
(2.57008 0.000730707 0)
(2.56933 0.00070639 0)
(2.56867 0.000682842 0)
(2.56812 0.000660143 0)
(2.56767 0.000638226 0)
(2.56732 0.000616863 0)
(2.56705 0.000596116 0)
(2.56688 0.000576115 0)
(2.56679 0.0005568 0)
(2.56678 0.000537989 0)
(2.56685 0.0005197 0)
(2.567 0.000501961 0)
(2.56723 0.000484828 0)
(2.56752 0.000468245 0)
(2.56789 0.000452159 0)
(2.56832 0.000436631 0)
(2.56881 0.000421618 0)
(2.56937 0.000407101 0)
(2.56998 0.000393091 0)
(2.57065 0.000379584 0)
(2.57138 0.000366575 0)
(2.57215 0.000354053 0)
(2.57298 0.000342009 0)
(2.57385 0.000330433 0)
(2.57477 0.000319322 0)
(2.57573 0.000308663 0)
(2.57673 0.00029844 0)
(2.57777 0.000288643 0)
(2.57885 0.000279264 0)
(2.57996 0.000270293 0)
(2.5811 0.000261716 0)
(2.58227 0.000253513 0)
(2.58347 0.000245676 0)
(2.5847 0.000238195 0)
(2.58595 0.000231052 0)
(2.58723 0.000224236 0)
(2.58853 0.000217735 0)
(2.58986 0.000211536 0)
(2.5912 0.000205625 0)
(2.59256 0.000199989 0)
(2.59393 0.000194616 0)
(2.59533 0.000189495 0)
(2.59674 0.000184613 0)
(2.59816 0.000179959 0)
(2.59959 0.000175522 0)
(2.60104 0.000171292 0)
(2.6025 0.000167258 0)
(2.60396 0.00016341 0)
(2.60544 0.000159739 0)
(2.60693 0.000156236 0)
(2.60842 0.000152892 0)
(2.60992 0.000149699 0)
(2.61143 0.000146649 0)
(2.61294 0.000143734 0)
(2.61446 0.000140948 0)
(2.61599 0.000138284 0)
(2.61752 0.000135735 0)
(2.61905 0.000133296 0)
(2.62058 0.000130961 0)
(2.62212 0.000128724 0)
(2.62367 0.00012658 0)
(2.62521 0.000124525 0)
(2.62676 0.000122554 0)
(2.62831 0.000120662 0)
(2.62986 0.000118845 0)
(2.63141 0.000117099 0)
(2.63296 0.000115421 0)
(2.63452 0.000113806 0)
(2.63607 0.000112252 0)
(2.63763 0.000110755 0)
(2.63918 0.000109313 0)
(2.64074 0.000107922 0)
(2.64229 0.00010658 0)
(2.64385 0.000105284 0)
(2.6454 0.000104032 0)
(2.64695 0.000102823 0)
(2.64851 0.000101654 0)
(2.65006 0.000100524 0)
(2.65161 9.94303e-05 0)
(2.65316 9.83722e-05 0)
(2.6547 9.73481e-05 0)
(2.65625 9.63565e-05 0)
(2.6578 9.53962e-05 0)
(2.65934 9.4466e-05 0)
(2.66088 9.35647e-05 0)
(2.66242 9.26913e-05 0)
(2.66396 9.18447e-05 0)
(2.6655 9.1024e-05 0)
(2.66704 9.02283e-05 0)
(2.66857 8.94568e-05 0)
(2.6701 8.87088e-05 0)
(2.67163 8.79839e-05 0)
(2.67316 8.72815e-05 0)
(2.67468 8.66013e-05 0)
(2.67621 8.59429e-05 0)
(2.67773 8.53063e-05 0)
(2.67925 8.46915e-05 0)
(2.68077 8.40985e-05 0)
(2.68228 8.35274e-05 0)
(2.68379 8.29784e-05 0)
(2.6853 8.24518e-05 0)
(2.68681 8.19478e-05 0)
(2.68831 8.14667e-05 0)
(2.68982 8.10088e-05 0)
(2.69132 8.05743e-05 0)
(2.69281 8.01637e-05 0)
(2.69431 7.97771e-05 0)
(2.6958 7.94149e-05 0)
(2.69729 7.90774e-05 0)
(2.69878 7.87649e-05 0)
(2.70026 7.84782e-05 0)
(2.70174 7.82173e-05 0)
(2.70322 7.7983e-05 0)
(2.70469 7.77755e-05 0)
(2.70617 7.75957e-05 0)
(2.70764 7.74449e-05 0)
(2.7091 7.73241e-05 0)
(2.71057 7.72338e-05 0)
(2.71203 7.71742e-05 0)
(2.71348 7.71465e-05 0)
(2.71494 7.71522e-05 0)
(2.71639 7.71919e-05 0)
(2.71784 7.72667e-05 0)
(2.71928 7.73776e-05 0)
(2.72072 7.75246e-05 0)
(2.72216 7.77085e-05 0)
(2.72359 7.79307e-05 0)
(2.72502 7.81913e-05 0)
(2.72645 7.84909e-05 0)
(2.72787 7.88306e-05 0)
(2.72929 7.92112e-05 0)
(2.73071 7.96323e-05 0)
(2.73212 8.00942e-05 0)
(2.73353 8.0598e-05 0)
(2.73494 8.114e-05 0)
(2.73634 8.17255e-05 0)
(2.73774 8.23552e-05 0)
(2.73913 8.30319e-05 0)
(2.74052 8.37582e-05 0)
(2.74191 8.45244e-05 0)
(2.74329 8.53397e-05 0)
(2.74466 8.61986e-05 0)
(2.74604 8.71063e-05 0)
(2.74741 8.80639e-05 0)
(2.74877 8.90674e-05 0)
(2.75013 9.01185e-05 0)
(2.75149 9.12205e-05 0)
(2.75284 9.23743e-05 0)
(2.75419 9.35706e-05 0)
(2.75554 9.48202e-05 0)
(2.75687 9.6116e-05 0)
(2.75821 9.74651e-05 0)
(2.75954 9.88572e-05 0)
(2.76087 0.000100303 0)
(2.76219 0.00010179 0)
(2.7635 0.000103335 0)
(2.76482 0.000104913 0)
(2.76613 0.000106565 0)
(2.76743 0.000108231 0)
(2.76873 0.00010998 0)
(2.77002 0.000111734 0)
(2.77131 0.000113605 0)
(2.7726 0.000115428 0)
(2.77388 0.000117416 0)
(2.77515 0.000119296 0)
(2.77642 0.000121442 0)
(2.77769 0.000123331 0)
(2.77895 0.00012567 0)
(2.78021 0.000127516 0)
(2.78146 0.000130147 0)
(2.78271 0.000131849 0)
(2.78395 0.00013483 0)
(2.78519 0.000136228 0)
(2.78642 0.000139813 0)
(2.78765 0.000140674 0)
(2.78888 0.000145088 0)
(2.79009 0.0001451 0)
(2.79132 0.000150686 0)
(2.7925 0.000149615 0)
(2.79376 0.000156312 0)
(2.79486 0.000154385 0)
(2.79622 0.000161352 0)
(2.79716 0.000160543 0)
(2.79875 0.00016382 0)
(2.7993 0.000169108 0)
(2.80149 0.000160736 0)
(4.59134 0.395181 0)
(4.81462 0.238565 0)
(4.80026 0.101827 0)
(4.60297 0.0789976 0)
(4.38149 0.0596148 0)
(4.21203 0.0376611 0)
(4.09901 0.0247591 0)
(4.01905 0.0200746 0)
(3.95281 0.0182294 0)
(3.89376 0.016342 0)
(3.84177 0.0142697 0)
(3.79683 0.0124986 0)
(3.75777 0.0111514 0)
(3.72326 0.0100914 0)
(3.69245 0.00919086 0)
(3.66481 0.00840387 0)
(3.63991 0.00772006 0)
(3.6174 0.00712685 0)
(3.59697 0.00660779 0)
(3.57835 0.00614882 0)
(3.56134 0.00574001 0)
(3.54576 0.00537408 0)
(3.53145 0.00504502 0)
(3.51829 0.00474771 0)
(3.50617 0.00447788 0)
(3.49498 0.00423199 0)
(3.48464 0.0040071 0)
(3.47507 0.00380073 0)
(3.46621 0.00361075 0)
(3.458 0.00343536 0)
(3.45038 0.003273 0)
(3.44332 0.0031223 0)
(3.43676 0.00298211 0)
(3.43067 0.00285136 0)
(3.42503 0.00272919 0)
(3.41978 0.00261482 0)
(3.41492 0.00250744 0)
(3.41041 0.00240659 0)
(3.40623 0.00231174 0)
(3.40236 0.00222221 0)
(3.39879 0.00213761 0)
(3.39548 0.00205756 0)
(3.39244 0.00198172 0)
(3.38963 0.00190972 0)
(3.38706 0.00184129 0)
(3.3847 0.00177608 0)
(3.38255 0.00171384 0)
(3.38059 0.00165433 0)
(3.37882 0.00159722 0)
(3.37722 0.0015434 0)
(3.3758 0.00149157 0)
(3.37453 0.00144146 0)
(3.37342 0.00139315 0)
(3.37245 0.00134659 0)
(3.37163 0.00130175 0)
(3.37094 0.00125849 0)
(3.37038 0.00121667 0)
(3.36995 0.00117634 0)
(3.36964 0.00113735 0)
(3.36944 0.00109943 0)
(3.36936 0.00106272 0)
(3.36939 0.00102726 0)
(3.36952 0.000992959 0)
(3.36975 0.000959682 0)
(3.37007 0.000927387 0)
(3.37049 0.000896063 0)
(3.371 0.00086579 0)
(3.3716 0.000836513 0)
(3.37228 0.000808155 0)
(3.37304 0.000780792 0)
(3.37387 0.000754358 0)
(3.37478 0.000728819 0)
(3.37576 0.000704186 0)
(3.3768 0.000680452 0)
(3.37791 0.000657604 0)
(3.37908 0.000635624 0)
(3.38031 0.000614492 0)
(3.38159 0.000594191 0)
(3.38292 0.000574712 0)
(3.38431 0.000556031 0)
(3.38574 0.00053812 0)
(3.38722 0.000520961 0)
(3.38874 0.000504536 0)
(3.39029 0.000488827 0)
(3.39189 0.000473809 0)
(3.39352 0.000459448 0)
(3.39519 0.000445727 0)
(3.39688 0.000432627 0)
(3.39861 0.00042012 0)
(3.40036 0.000408182 0)
(3.40214 0.000396793 0)
(3.40394 0.00038593 0)
(3.40577 0.000375569 0)
(3.40761 0.000365685 0)
(3.40948 0.00035626 0)
(3.41136 0.000347271 0)
(3.41326 0.000338698 0)
(3.41518 0.000330521 0)
(3.41711 0.000322722 0)
(3.41905 0.000315281 0)
(3.42101 0.00030818 0)
(3.42298 0.000301403 0)
(3.42496 0.000294933 0)
(3.42694 0.000288754 0)
(3.42894 0.000282851 0)
(3.43094 0.00027721 0)
(3.43295 0.000271818 0)
(3.43497 0.000266661 0)
(3.437 0.000261727 0)
(3.43903 0.000257005 0)
(3.44106 0.000252484 0)
(3.4431 0.000248152 0)
(3.44514 0.000244 0)
(3.44719 0.00024002 0)
(3.44923 0.000236201 0)
(3.45129 0.000232535 0)
(3.45334 0.000229015 0)
(3.45539 0.000225633 0)
(3.45745 0.000222381 0)
(3.45951 0.000219253 0)
(3.46156 0.000216243 0)
(3.46362 0.000213344 0)
(3.46568 0.00021055 0)
(3.46774 0.000207856 0)
(3.4698 0.000205258 0)
(3.47186 0.000202749 0)
(3.47391 0.000200326 0)
(3.47597 0.000197984 0)
(3.47803 0.00019572 0)
(3.48008 0.000193529 0)
(3.48213 0.000191409 0)
(3.48418 0.000189355 0)
(3.48624 0.000187366 0)
(3.48828 0.000185438 0)
(3.49033 0.000183569 0)
(3.49238 0.000181756 0)
(3.49442 0.000179997 0)
(3.49646 0.000178291 0)
(3.4985 0.000176634 0)
(3.50053 0.000175025 0)
(3.50257 0.000173462 0)
(3.5046 0.000171944 0)
(3.50663 0.000170469 0)
(3.50866 0.000169036 0)
(3.51068 0.000167643 0)
(3.5127 0.000166289 0)
(3.51472 0.000164972 0)
(3.51674 0.000163694 0)
(3.51875 0.000162451 0)
(3.52076 0.000161244 0)
(3.52277 0.000160073 0)
(3.52477 0.000158936 0)
(3.52677 0.000157835 0)
(3.52877 0.000156768 0)
(3.53076 0.000155736 0)
(3.53276 0.000154739 0)
(3.53474 0.000153777 0)
(3.53673 0.00015285 0)
(3.53871 0.000151959 0)
(3.54069 0.000151103 0)
(3.54267 0.000150283 0)
(3.54464 0.000149499 0)
(3.54661 0.000148751 0)
(3.54857 0.00014804 0)
(3.55053 0.000147366 0)
(3.55249 0.00014673 0)
(3.55444 0.000146131 0)
(3.5564 0.00014557 0)
(3.55834 0.000145048 0)
(3.56028 0.000144566 0)
(3.56222 0.000144125 0)
(3.56416 0.000143726 0)
(3.56609 0.000143368 0)
(3.56802 0.000143054 0)
(3.56994 0.000142785 0)
(3.57186 0.000142561 0)
(3.57378 0.000142383 0)
(3.57569 0.000142253 0)
(3.57759 0.000142172 0)
(3.5795 0.000142138 0)
(3.58139 0.000142156 0)
(3.58329 0.000142224 0)
(3.58518 0.000142343 0)
(3.58706 0.000142515 0)
(3.58894 0.00014274 0)
(3.59082 0.000143019 0)
(3.59269 0.000143351 0)
(3.59455 0.000143737 0)
(3.59641 0.000144174 0)
(3.59827 0.000144666 0)
(3.60012 0.000145214 0)
(3.60197 0.000145823 0)
(3.60381 0.000146495 0)
(3.60565 0.000147219 0)
(3.60748 0.000148003 0)
(3.6093 0.000148845 0)
(3.61112 0.000149748 0)
(3.61294 0.000150715 0)
(3.61475 0.000151741 0)
(3.61656 0.000152826 0)
(3.61836 0.000153976 0)
(3.62015 0.000155193 0)
(3.62194 0.000156464 0)
(3.62372 0.000157801 0)
(3.6255 0.0001592 0)
(3.62727 0.000160665 0)
(3.62904 0.000162187 0)
(3.6308 0.000163775 0)
(3.63255 0.000165417 0)
(3.6343 0.000167131 0)
(3.63605 0.000168891 0)
(3.63779 0.000170738 0)
(3.63952 0.000172611 0)
(3.64124 0.00017458 0)
(3.64296 0.000176565 0)
(3.64468 0.000178688 0)
(3.64639 0.000180761 0)
(3.64809 0.000183027 0)
(3.64979 0.000185178 0)
(3.65148 0.000187638 0)
(3.65316 0.000189811 0)
(3.65484 0.000192504 0)
(3.65651 0.000194639 0)
(3.65818 0.000197668 0)
(3.65984 0.000199656 0)
(3.6615 0.0002031 0)
(3.66314 0.00020476 0)
(3.66479 0.000208882 0)
(3.66642 0.000209964 0)
(3.66806 0.000215018 0)
(3.66967 0.000215206 0)
(3.67132 0.000221483 0)
(3.67288 0.000220597 0)
(3.67457 0.000227927 0)
(3.67603 0.000226349 0)
(3.67785 0.000233603 0)
(3.67909 0.000233599 0)
(3.68122 0.000236371 0)
(3.68194 0.000243743 0)
(3.68486 0.000231511 0)
(4.58431 0.329867 0)
(5.00584 0.225822 0)
(5.21607 0.103869 0)
(5.19394 0.0942426 0)
(5.06808 0.0802844 0)
(4.94063 0.0548671 0)
(4.84258 0.037371 0)
(4.76744 0.0299888 0)
(4.70314 0.0267113 0)
(4.64515 0.023819 0)
(4.59348 0.0208807 0)
(4.54813 0.0183739 0)
(4.50819 0.0164299 0)
(4.47258 0.0148838 0)
(4.44056 0.0135727 0)
(4.41166 0.0124289 0)
(4.38552 0.0114331 0)
(4.36178 0.0105664 0)
(4.34016 0.00980596 0)
(4.32042 0.00913229 0)
(4.30234 0.00853133 0)
(4.28576 0.00799258 0)
(4.27053 0.00750741 0)
(4.25651 0.00706848 0)
(4.24359 0.00666969 0)
(4.23166 0.00630592 0)
(4.22065 0.00597291 0)
(4.21047 0.00566706 0)
(4.20106 0.00538531 0)
(4.19235 0.005125 0)
(4.18429 0.00488388 0)
(4.17682 0.00465994 0)
(4.16992 0.00445149 0)
(4.16353 0.004257 0)
(4.15762 0.00407517 0)
(4.15216 0.00390487 0)
(4.14711 0.00374495 0)
(4.14246 0.00359461 0)
(4.13817 0.00345317 0)
(4.13423 0.00331967 0)
(4.13061 0.00319345 0)
(4.12729 0.00307399 0)
(4.12426 0.00296077 0)
(4.1215 0.00285326 0)
(4.11899 0.00275105 0)
(4.11672 0.00265364 0)
(4.11469 0.00256066 0)
(4.11287 0.00247175 0)
(4.11127 0.00238641 0)
(4.10985 0.00230587 0)
(4.10863 0.00222841 0)
(4.10758 0.00215352 0)
(4.10671 0.00208132 0)
(4.106 0.00201179 0)
(4.10545 0.00194482 0)
(4.10505 0.00188023 0)
(4.1048 0.00181785 0)
(4.10469 0.00175764 0)
(4.10471 0.0016994 0)
(4.10486 0.00164291 0)
(4.10513 0.00158826 0)
(4.10552 0.00153547 0)
(4.10603 0.00148443 0)
(4.10665 0.00143496 0)
(4.10737 0.00138701 0)
(4.1082 0.00134057 0)
(4.10912 0.00129568 0)
(4.11014 0.00125231 0)
(4.11124 0.00121036 0)
(4.11243 0.00116991 0)
(4.11371 0.00113086 0)
(4.11506 0.00109318 0)
(4.11648 0.00105686 0)
(4.11798 0.0010219 0)
(4.11954 0.000988264 0)
(4.12117 0.00095593 0)
(4.12286 0.000924865 0)
(4.12461 0.000895042 0)
(4.12641 0.00086644 0)
(4.12826 0.000839023 0)
(4.13017 0.000812751 0)
(4.13212 0.000787592 0)
(4.13411 0.000763517 0)
(4.13614 0.000740498 0)
(4.13821 0.000718497 0)
(4.14032 0.000697463 0)
(4.14246 0.000677368 0)
(4.14463 0.000658184 0)
(4.14684 0.000639869 0)
(4.14907 0.000622386 0)
(4.15133 0.000605706 0)
(4.15361 0.000589792 0)
(4.15591 0.00057461 0)
(4.15823 0.000560125 0)
(4.16058 0.000546306 0)
(4.16294 0.000533123 0)
(4.16532 0.000520543 0)
(4.16771 0.00050854 0)
(4.17012 0.000497084 0)
(4.17254 0.000486149 0)
(4.17497 0.000475709 0)
(4.17742 0.000465738 0)
(4.17987 0.000456212 0)
(4.18233 0.000447109 0)
(4.1848 0.000438408 0)
(4.18728 0.000430086 0)
(4.18977 0.000422125 0)
(4.19226 0.000414506 0)
(4.19476 0.000407211 0)
(4.19726 0.000400222 0)
(4.19977 0.000393524 0)
(4.20228 0.000387102 0)
(4.20479 0.000380941 0)
(4.20731 0.000375027 0)
(4.20982 0.000369348 0)
(4.21235 0.000363891 0)
(4.21487 0.000358645 0)
(4.21739 0.000353598 0)
(4.21991 0.000348741 0)
(4.22244 0.000344065 0)
(4.22496 0.000339559 0)
(4.22749 0.000335215 0)
(4.23001 0.000331025 0)
(4.23253 0.000326981 0)
(4.23506 0.000323075 0)
(4.23758 0.000319301 0)
(4.2401 0.000315652 0)
(4.24262 0.000312122 0)
(4.24514 0.000308705 0)
(4.24765 0.000305395 0)
(4.25017 0.000302188 0)
(4.25268 0.000299079 0)
(4.25519 0.000296063 0)
(4.25769 0.000293137 0)
(4.2602 0.000290295 0)
(4.2627 0.000287536 0)
(4.2652 0.000284855 0)
(4.2677 0.000282249 0)
(4.27019 0.000279715 0)
(4.27268 0.000277252 0)
(4.27517 0.000274856 0)
(4.27766 0.000272524 0)
(4.28014 0.000270255 0)
(4.28262 0.000268047 0)
(4.2851 0.000265897 0)
(4.28757 0.000263804 0)
(4.29004 0.000261766 0)
(4.2925 0.000259782 0)
(4.29497 0.00025785 0)
(4.29742 0.000255969 0)
(4.29988 0.000254138 0)
(4.30233 0.000252356 0)
(4.30478 0.000250623 0)
(4.30722 0.000248938 0)
(4.30966 0.000247301 0)
(4.3121 0.000245711 0)
(4.31453 0.000244169 0)
(4.31696 0.000242675 0)
(4.31939 0.000241228 0)
(4.32181 0.000239829 0)
(4.32423 0.000238477 0)
(4.32664 0.000237174 0)
(4.32905 0.000235919 0)
(4.33145 0.000234712 0)
(4.33385 0.000233554 0)
(4.33625 0.000232445 0)
(4.33864 0.000231386 0)
(4.34103 0.000230375 0)
(4.34341 0.000229414 0)
(4.34579 0.000228504 0)
(4.34817 0.000227647 0)
(4.35054 0.000226841 0)
(4.3529 0.000226088 0)
(4.35526 0.000225389 0)
(4.35762 0.000224744 0)
(4.35997 0.000224155 0)
(4.36232 0.000223622 0)
(4.36466 0.000223147 0)
(4.36699 0.00022273 0)
(4.36932 0.000222372 0)
(4.37165 0.000222075 0)
(4.37397 0.000221838 0)
(4.37629 0.000221664 0)
(4.3786 0.000221553 0)
(4.3809 0.000221507 0)
(4.3832 0.000221525 0)
(4.3855 0.000221606 0)
(4.38779 0.000221753 0)
(4.39007 0.000221961 0)
(4.39235 0.000222232 0)
(4.39462 0.000222571 0)
(4.39689 0.000222981 0)
(4.39915 0.000223465 0)
(4.4014 0.00022401 0)
(4.40365 0.000224623 0)
(4.4059 0.000225306 0)
(4.40813 0.000226057 0)
(4.41036 0.000226882 0)
(4.41259 0.000227777 0)
(4.41481 0.000228739 0)
(4.41702 0.000229776 0)
(4.41923 0.00023089 0)
(4.42143 0.000232069 0)
(4.42362 0.000233323 0)
(4.42581 0.000234649 0)
(4.42799 0.000236051 0)
(4.43016 0.000237522 0)
(4.43233 0.000239067 0)
(4.43449 0.000240677 0)
(4.43664 0.000242368 0)
(4.43879 0.000244117 0)
(4.44093 0.000245961 0)
(4.44307 0.00024784 0)
(4.44519 0.000249822 0)
(4.44731 0.000251833 0)
(4.44943 0.00025399 0)
(4.45154 0.000256101 0)
(4.45363 0.000258416 0)
(4.45573 0.000260626 0)
(4.45781 0.000263154 0)
(4.45989 0.000265402 0)
(4.46196 0.000268179 0)
(4.46403 0.000270409 0)
(4.46609 0.00027353 0)
(4.46814 0.000275641 0)
(4.47018 0.000279182 0)
(4.47222 0.000281006 0)
(4.47425 0.000285197 0)
(4.47627 0.000286526 0)
(4.4783 0.000291576 0)
(4.48028 0.00029218 0)
(4.48233 0.000298227 0)
(4.48425 0.000298076 0)
(4.48635 0.000304774 0)
(4.48815 0.000304414 0)
(4.49041 0.000310427 0)
(4.49193 0.000312251 0)
(4.49459 0.000313028 0)
(4.49547 0.00032323 0)
(4.49907 0.000306749 0)
(4.55124 0.271045 0)
(4.99864 0.199507 0)
(5.30902 0.0872702 0)
(5.43079 0.089096 0)
(5.43714 0.0865818 0)
(5.40282 0.0646039 0)
(5.36314 0.0466287 0)
(5.32371 0.0383383 0)
(5.28255 0.0343116 0)
(5.24074 0.0306876 0)
(5.20092 0.0270262 0)
(5.16445 0.0238787 0)
(5.13128 0.0214075 0)
(5.10096 0.0194295 0)
(5.07316 0.0177529 0)
(5.04768 0.0162924 0)
(5.02432 0.0150187 0)
(5.0029 0.0139063 0)
(4.98322 0.0129271 0)
(4.96513 0.0120574 0)
(4.94847 0.0112795 0)
(4.93312 0.0105803 0)
(4.91898 0.00994902 0)
(4.90592 0.00937661 0)
(4.89387 0.00885543 0)
(4.88274 0.00837908 0)
(4.87246 0.00794221 0)
(4.86296 0.00754031 0)
(4.85418 0.00716949 0)
(4.84608 0.00682641 0)
(4.8386 0.00650818 0)
(4.8317 0.00621229 0)
(4.82534 0.00593654 0)
(4.81948 0.00567901 0)
(4.81409 0.005438 0)