/*--------------------------------*- C++ -*----------------------------------*\
  =========                 |
  \\      /  F ield         | OpenFOAM: The Open Source CFD Toolbox
   \\    /   O peration     | Website:  https://openfoam.org
    \\  /    A nd           | Version:  7
     \\/     M anipulation  |
\*---------------------------------------------------------------------------*/
FoamFile
{
    version     2.0;
    format      ascii;
    class       volScalarField;
    location    "3.3";
    object      nut;
}
// * * * * * * * * * * * * * * * * * * * * * * * * * * * * * * * * * * * * * //

dimensions      [0 2 -1 0 0 0 0];

internalField   nonuniform List<scalar> 
3600
(
0.000321089
0.000748366
0.00117513
0.00149708
0.00172021
0.00185836
0.00193397
0.00195994
0.00195438
0.00193593
0.0018992
0.00185664
0.00181202
0.0017678
0.00172547
0.00168588
0.00164942
0.00161622
0.00158617
0.00155907
0.00153467
0.00151268
0.00149282
0.00147482
0.00145843
0.00144343
0.00142961
0.00141682
0.00140492
0.00139378
0.00138331
0.00137342
0.00136404
0.00135512
0.0013466
0.00133843
0.00133059
0.00132304
0.00131576
0.00130874
0.00130195
0.00129537
0.001289
0.00128283
0.00127683
0.00127101
0.00126536
0.00125985
0.00125452
0.00124927
0.00124428
0.00123919
0.00123459
0.00122951
0.00122547
0.00122009
0.00121666
0.00121091
0.00120577
0.00121215
2.02857e-05
9.30577e-05
0.000204716
0.000344087
0.000509708
0.000658042
0.000780511
0.000876886
0.000947232
0.00099911
0.00103479
0.00105836
0.00107309
0.00108173
0.00108614
0.00108794
0.00108778
0.00108715
0.00108585
0.00108435
0.00108286
0.00108149
0.00108027
0.0010792
0.00107827
0.00107747
0.00107677
0.00107613
0.00107555
0.00107498
0.00107442
0.00107386
0.00107327
0.00107265
0.00107199
0.00107129
0.00107054
0.00106975
0.00106891
0.00106803
0.00106709
0.00106614
0.00106512
0.00106411
0.00106299
0.00106194
0.00106073
0.00105966
0.00105835
0.00105732
0.00105588
0.00105491
0.00105332
0.00105246
0.00105072
0.00104989
0.00104801
0.00104717
0.00104436
0.00104517
7.7033e-06
9.81875e-06
2.00902e-05
4.07339e-05
7.2441e-05
0.000114327
0.000164184
0.000215488
0.000263602
0.00030755
0.000346187
0.000379463
0.000407462
0.00043083
0.000450035
0.000465835
0.000478697
0.000489257
0.000497934
0.000505146
0.000511202
0.000516404
0.000520951
0.000525044
0.000528799
0.000532352
0.000535761
0.000539123
0.000542459
0.000545835
0.000549233
0.000552711
0.000556232
0.000559847
0.000563509
0.00056727
0.000571063
0.000574951
0.000578848
0.000582828
0.000586794
0.000590836
0.00059484
0.000598914
0.000602923
0.000606995
0.000610977
0.00061502
0.000618966
0.000622947
0.000626825
0.000630715
0.000634552
0.000638302
0.000642118
0.000645656
0.000649546
0.00065279
0.000656953
0.000659989
7.67994e-06
7.70249e-06
7.83125e-06
8.49761e-06
1.07197e-05
1.55218e-05
2.32504e-05
3.35873e-05
4.71647e-05
6.07418e-05
7.53947e-05
8.91926e-05
0.000102937
0.000115337
0.000127219
0.000137657
0.000147509
0.000156005
0.000164022
0.000170843
0.000177345
0.000182828
0.000188185
0.000192661
0.000197158
0.00020087
0.000204738
0.00020789
0.000211325
0.000214091
0.00021723
0.000219708
0.000222646
0.000224913
0.000227731
0.000229864
0.000232625
0.000234668
0.000237419
0.000239395
0.000242163
0.000244099
0.000246912
0.000248825
0.000251707
0.000253603
0.00025657
0.000258456
0.000261518
0.000263398
0.000266577
0.000268438
0.000271737
0.000273599
0.000277028
0.000278879
0.00028246
0.000284363
0.00028817
0.000290323
7.68196e-06
7.69246e-06
7.71783e-06
7.76916e-06
7.87123e-06
8.03188e-06
8.3515e-06
8.90895e-06
1.0087e-05
1.14255e-05
1.39716e-05
1.58765e-05
1.93587e-05
2.14372e-05
2.52413e-05
2.7257e-05
3.09873e-05
3.28411e-05
3.63059e-05
3.79805e-05
4.1103e-05
4.26229e-05
4.54436e-05
4.68199e-05
4.93844e-05
5.06438e-05
5.30182e-05
5.41725e-05
5.63961e-05
5.74942e-05
5.96053e-05
6.06424e-05
6.26456e-05
6.36264e-05
6.55435e-05
6.6487e-05
6.83362e-05
6.92487e-05
7.104e-05
7.19249e-05
7.36638e-05
7.45238e-05
7.62159e-05
7.70552e-05
7.87103e-05
7.95335e-05
8.11585e-05
8.19687e-05
8.35706e-05
8.43723e-05
8.59599e-05
8.67553e-05
8.83331e-05
8.91258e-05
9.0704e-05
9.14998e-05
9.30984e-05
9.39157e-05
9.5602e-05
9.65004e-05
7.68293e-06
7.69016e-06
7.71038e-06
7.75203e-06
7.84639e-06
7.92618e-06
8.09342e-06
8.19578e-06
8.40355e-06
8.51524e-06
8.74212e-06
8.86075e-06
9.10512e-06
9.23385e-06
9.5012e-06
9.64285e-06
9.93621e-06
1.00914e-05
1.04106e-05
1.05779e-05
1.09187e-05
1.10966e-05
1.14568e-05
1.16442e-05
1.2022e-05
1.22177e-05
1.2611e-05
1.2814e-05
1.32211e-05
1.34315e-05
1.38529e-05
1.40699e-05
1.45034e-05
1.47254e-05
1.51677e-05
1.53938e-05
1.58446e-05
1.60752e-05
1.65348e-05
1.67694e-05
1.72364e-05
1.74735e-05
1.7945e-05
1.81839e-05
1.8659e-05
1.88997e-05
1.93789e-05
1.96217e-05
2.01045e-05
2.03489e-05
2.08353e-05
2.10814e-05
2.15713e-05
2.18196e-05
2.23147e-05
2.25657e-05
2.30691e-05
2.33262e-05
2.38498e-05
2.4123e-05
7.68337e-06
7.68996e-06
7.71008e-06
7.75161e-06
7.84594e-06
7.9258e-06
8.09318e-06
8.1957e-06
8.40394e-06
8.51641e-06
8.74505e-06
8.86514e-06
9.11241e-06
9.24298e-06
9.51404e-06
9.65783e-06
9.95567e-06
1.01123e-05
1.04345e-05
1.06029e-05
1.09469e-05
1.11259e-05
1.14888e-05
1.16767e-05
1.20557e-05
1.22515e-05
1.26454e-05
1.2849e-05
1.32577e-05
1.34679e-05
1.38887e-05
1.41046e-05
1.45367e-05
1.47587e-05
1.52027e-05
1.54299e-05
1.58833e-05
1.61139e-05
1.65731e-05
1.68061e-05
1.727e-05
1.75053e-05
1.79744e-05
1.8212e-05
1.86852e-05
1.89236e-05
1.93974e-05
1.96356e-05
2.011e-05
2.03483e-05
2.0823e-05
2.10605e-05
2.15335e-05
2.1769e-05
2.22406e-05
2.2474e-05
2.29465e-05
2.31786e-05
2.36617e-05
2.3901e-05
7.68286e-06
7.69177e-06
7.71688e-06
7.76832e-06
7.87142e-06
8.0352e-06
8.36852e-06
8.9357e-06
1.01347e-05
1.1491e-05
1.40563e-05
1.59798e-05
1.94743e-05
2.15682e-05
2.53816e-05
2.74083e-05
3.11411e-05
3.29996e-05
3.64639e-05
3.81341e-05
4.12744e-05
4.27857e-05
4.56122e-05
4.69782e-05
4.95489e-05
5.07911e-05
5.31686e-05
5.43303e-05
5.65567e-05
5.76369e-05
5.97353e-05
6.07608e-05
6.27638e-05
6.37488e-05
6.56745e-05
6.66188e-05
6.84683e-05
6.93767e-05
7.11592e-05
7.20381e-05
7.3767e-05
7.46219e-05
7.6307e-05
7.71403e-05
7.87842e-05
7.95972e-05
8.12029e-05
8.19978e-05
8.35714e-05
8.43514e-05
8.58986e-05
8.66644e-05
8.81855e-05
8.89362e-05
9.04381e-05
9.11761e-05
9.26723e-05
9.3404e-05
9.49496e-05
9.5728e-05
7.68159e-06
7.70232e-06
7.83757e-06
8.52897e-06
1.08021e-05
1.56648e-05
2.35997e-05
3.37302e-05
4.74766e-05
6.09342e-05
7.57059e-05
8.94258e-05
0.000103243
0.000115586
0.000127532
0.000137914
0.000147811
0.000156244
0.000164299
0.000171065
0.000177625
0.000183062
0.000188455
0.000192866
0.000197405
0.00020106
0.000204982
0.000208086
0.000211567
0.000214258
0.000217443
0.000219853
0.000222853
0.000225066
0.000227953
0.00023002
0.000232845
0.000234806
0.000237616
0.000239512
0.000242344
0.000244195
0.000247073
0.000248889
0.000251827
0.000253619
0.000256631
0.000258401
0.000261498
0.00026325
0.000266436
0.000268166
0.000271433
0.000273143
0.000276484
0.000278189
0.00028159
0.000283317
0.000286857
0.000288767
7.71005e-06
9.92636e-06
2.0347e-05
4.10928e-05
7.28815e-05
0.000114787
0.000164641
0.000215919
0.000263997
0.000307913
0.000346537
0.000379806
0.000407803
0.000431159
0.000450353
0.000466138
0.000478993
0.000489535
0.000498208
0.000505406
0.000511464
0.000516652
0.000521199
0.000525274
0.000529032
0.000532564
0.000535983
0.000539325
0.00054267
0.000546015
0.000549432
0.00055288
0.000556428
0.00056001
0.000563704
0.000567417
0.000571247
0.000575069
0.000579012
0.000582915
0.000586943
0.000590887
0.000594964
0.000598908
0.000603009
0.000606916
0.000611017
0.000614848
0.000618929
0.000622643
0.000626695
0.000630246
0.000634276
0.000637614
0.000641629
0.000644694
0.000648716
0.000651471
0.000655528
0.000658214
2.09054e-05
9.38167e-05
0.000205566
0.000344907
0.000510406
0.000658654
0.000781055
0.00087736
0.000947644
0.000999479
0.00103513
0.00105867
0.00107338
0.001082
0.00108638
0.00108816
0.00108798
0.00108734
0.00108602
0.00108451
0.00108301
0.00108163
0.00108039
0.00107932
0.00107839
0.00107758
0.00107687
0.00107623
0.00107564
0.00107507
0.00107451
0.00107394
0.00107335
0.00107272
0.00107206
0.00107136
0.0010706
0.0010698
0.00106895
0.00106807
0.00106712
0.00106617
0.00106512
0.0010641
0.00106297
0.00106191
0.00106068
0.00105961
0.00105827
0.00105722
0.00105574
0.00105476
0.00105312
0.00105223
0.00105044
0.00104956
0.0010476
0.00104664
0.00104351
0.00104415
0.000321151
0.000748312
0.00117505
0.00149698
0.00172008
0.00185822
0.00193383
0.0019598
0.00195424
0.00193579
0.00189906
0.0018565
0.00181189
0.00176767
0.00172534
0.00168575
0.00164929
0.00161609
0.00158604
0.00155895
0.00153455
0.00151256
0.00149271
0.00147471
0.00145833
0.00144333
0.00142952
0.00141674
0.00140484
0.0013937
0.00138323
0.00137335
0.00136399
0.00135507
0.00134656
0.0013384
0.00133057
0.00132303
0.00131578
0.00130877
0.001302
0.00129546
0.00128912
0.00128299
0.00127704
0.00127128
0.00126568
0.00126027
0.001255
0.00124991
0.00124497
0.00124016
0.00123556
0.00123097
0.00122677
0.00122227
0.00121839
0.00121397
0.00120837
0.00121528
0.00322461
0.0034743
0.00349323
0.00347081
0.00343604
0.00340696
0.00338039
0.0033562
0.00333408
0.00331403
0.00329598
0.00327974
0.00326512
0.00325195
0.00324008
0.00322935
0.00321969
0.00321097
0.00320311
0.00319604
0.00318969
0.003184
0.00317891
0.00317438
0.00317036
0.00316682
0.00316372
0.00316104
0.00315874
0.00315679
0.00315517
0.00315387
0.00315283
0.00315206
0.00315153
0.00315123
0.00315113
0.00315121
0.00315144
0.00315185
0.00315239
0.00315305
0.00315382
0.0031547
0.00315566
0.0031567
0.00315782
0.003159
0.00316023
0.00316151
0.00316284
0.00316421
0.00316561
0.00316704
0.00316849
0.00316997
0.00317146
0.00317297
0.00317449
0.00317602
0.00317756
0.00317911
0.00318066
0.00318221
0.00318377
0.00318533
0.00318689
0.00318845
0.00319
0.00319156
0.00319311
0.00319466
0.00319621
0.00319776
0.0031993
0.00320084
0.00320238
0.00320391
0.00320543
0.00320696
0.00320847
0.00320998
0.00321149
0.00321299
0.00321449
0.00321598
0.00321746
0.00321894
0.00322041
0.00322188
0.00322334
0.00322479
0.00322624
0.00322769
0.00322912
0.00323055
0.00323198
0.0032334
0.00323481
0.00323622
0.00323761
0.00323901
0.00324039
0.00324177
0.00324314
0.00324451
0.00324586
0.00324721
0.00324855
0.00324988
0.00325121
0.00325253
0.00325384
0.00325514
0.00325644
0.00325772
0.003259
0.00326028
0.00326154
0.0032628
0.00326405
0.00326529
0.00326652
0.00326775
0.00326896
0.00327017
0.00327137
0.00327257
0.00327375
0.00327493
0.00327609
0.00327726
0.00327841
0.00327955
0.00328069
0.00328182
0.00328294
0.00328406
0.00328516
0.00328626
0.00328736
0.00328844
0.00328952
0.00329059
0.00329166
0.00329272
0.00329377
0.00329482
0.00329586
0.00329689
0.00329791
0.00329893
0.00329995
0.00330095
0.00330195
0.00330295
0.00330394
0.00330492
0.0033059
0.00330687
0.00330784
0.00330881
0.00330976
0.00331072
0.00331167
0.00331261
0.00331355
0.00331449
0.00331542
0.00331635
0.00331727
0.00331819
0.0033191
0.00332002
0.00332092
0.00332183
0.00332273
0.00332362
0.00332451
0.0033254
0.00332629
0.00332717
0.00332805
0.00332893
0.00332981
0.00333068
0.00333155
0.00333242
0.00333328
0.00333415
0.00333501
0.00333587
0.00333672
0.00333758
0.00333843
0.00333928
0.00334013
0.00334098
0.00334182
0.00334266
0.0033435
0.00334434
0.00334518
0.00334602
0.00334685
0.00334769
0.00334852
0.00334935
0.00335018
0.00335101
0.00335184
0.00335267
0.0033535
0.00335433
0.00335515
0.00335598
0.0033568
0.00335763
0.00335845
0.00335927
0.00336009
0.00336091
0.00336173
0.00336255
0.00336337
0.00336419
0.003365
0.00336583
0.00336663
0.00336748
0.00336826
0.00336913
0.00336987
0.00337079
0.00337146
0.00337249
0.00337302
0.00337421
0.00337458
0.00337601
0.00264445
0.00317056
0.00335155
0.00340221
0.00339982
0.00338793
0.00336747
0.00334825
0.00333094
0.00331554
0.00330197
0.00328996
0.00327932
0.0032699
0.00326156
0.00325417
0.00324766
0.00324194
0.00323692
0.00323255
0.00322876
0.0032255
0.00322271
0.00322037
0.00321841
0.00321683
0.00321557
0.00321462
0.00321395
0.00321352
0.00321333
0.00321337
0.00321354
0.0032139
0.00321443
0.0032151
0.00321588
0.00321677
0.00321775
0.00321882
0.00321997
0.00322118
0.00322245
0.00322377
0.00322514
0.00322654
0.00322797
0.00322944
0.00323093
0.00323244
0.00323397
0.00323551
0.00323706
0.00323863
0.00324021
0.00324179
0.00324337
0.00324496
0.00324656
0.00324815
0.00324974
0.00325134
0.00325293
0.00325452
0.00325611
0.0032577
0.00325928
0.00326086
0.00326244
0.00326401
0.00326558
0.00326714
0.0032687
0.00327026
0.00327181
0.00327336
0.0032749
0.00327644
0.00327798
0.00327951
0.00328103
0.00328255
0.00328407
0.00328558
0.00328709
0.00328859
0.00329008
0.00329158
0.00329306
0.00329454
0.00329602
0.00329749
0.00329895
0.00330041
0.00330186
0.00330331
0.00330475
0.00330619
0.00330762
0.00330905
0.00331047
0.00331189
0.0033133
0.0033147
0.0033161
0.00331749
0.00331888
0.00332026
0.00332163
0.003323
0.00332436
0.00332572
0.00332706
0.0033284
0.00332974
0.00333107
0.00333239
0.0033337
0.00333501
0.00333631
0.0033376
0.00333889
0.00334017
0.00334144
0.00334271
0.00334397
0.00334522
0.00334647
0.0033477
0.00334894
0.00335016
0.00335138
0.00335259
0.00335379
0.00335499
0.00335618
0.00335736
0.00335853
0.0033597
0.00336086
0.00336202
0.00336317
0.00336431
0.00336544
0.00336657
0.0033677
0.00336881
0.00336992
0.00337103
0.00337213
0.00337322
0.00337431
0.00337539
0.00337646
0.00337753
0.00337859
0.00337965
0.0033807
0.00338175
0.00338279
0.00338383
0.00338486
0.00338588
0.00338691
0.00338792
0.00338893
0.00338994
0.00339094
0.00339194
0.00339294
0.00339393
0.00339491
0.0033959
0.00339688
0.00339785
0.00339882
0.00339979
0.00340075
0.00340171
0.00340267
0.00340362
0.00340457
0.00340551
0.00340646
0.00340739
0.00340833
0.00340927
0.0034102
0.00341113
0.00341205
0.00341298
0.0034139
0.00341482
0.00341574
0.00341665
0.00341756
0.00341848
0.00341938
0.00342029
0.0034212
0.0034221
0.003423
0.0034239
0.0034248
0.00342569
0.00342659
0.00342748
0.00342837
0.00342926
0.00343015
0.00343104
0.00343192
0.00343281
0.00343369
0.00343457
0.00343546
0.00343634
0.00343722
0.0034381
0.00343898
0.00343986
0.00344073
0.00344161
0.00344249
0.00344336
0.00344424
0.0034451
0.00344599
0.00344684
0.00344774
0.00344857
0.0034495
0.00345029
0.00345127
0.00345198
0.00345307
0.00345366
0.00345487
0.00345537
0.00345677
0.00148372
0.0019607
0.00230837
0.00252755
0.0026491
0.00271485
0.00274831
0.00276473
0.00277236
0.00277556
0.00277665
0.0027768
0.00277676
0.00277679
0.00277694
0.00277732
0.002778
0.00277891
0.00278004
0.00278135
0.00278282
0.00278444
0.00278618
0.00278803
0.00278997
0.00279198
0.00279405
0.00279617
0.00279831
0.00280047
0.00280263
0.00280481
0.00280695
0.00280908
0.00281119
0.00281326
0.0028153
0.00281731
0.00281927
0.00282119
0.00282308
0.00282492
0.00282673
0.00282849
0.00283022
0.00283192
0.00283358
0.00283522
0.00283682
0.0028384
0.00283995
0.00284148
0.00284298
0.00284447
0.00284594
0.00284739
0.00284883
0.00285025
0.00285166
0.00285306
0.00285445
0.00285583
0.0028572
0.00285856
0.00285991
0.00286126
0.0028626
0.00286393
0.00286526
0.00286658
0.0028679
0.00286921
0.00287051
0.00287181
0.00287311
0.0028744
0.00287569
0.00287697
0.00287825
0.00287952
0.0028808
0.00288206
0.00288333
0.00288459
0.00288585
0.00288711
0.00288836
0.00288961
0.00289085
0.0028921
0.00289334
0.00289457
0.0028958
0.00289703
0.00289826
0.00289948
0.0029007
0.00290191
0.00290312
0.00290433
0.00290554
0.00290674
0.00290794
0.00290914
0.00291033
0.00291152
0.00291271
0.00291389
0.00291507
0.00291625
0.00291742
0.00291859
0.00291976
0.00292092
0.00292208
0.00292324
0.00292439
0.00292554
0.00292668
0.00292782
0.00292895
0.00293009
0.00293121
0.00293234
0.00293346
0.00293458
0.00293569
0.0029368
0.0029379
0.002939
0.0029401
0.00294119
0.00294228
0.00294337
0.00294445
0.00294553
0.0029466
0.00294767
0.00294873
0.00294979
0.00295084
0.00295189
0.00295294
0.00295398
0.00295501
0.00295605
0.00295707
0.0029581
0.00295912
0.00296013
0.00296115
0.00296215
0.00296316
0.00296416
0.00296515
0.00296614
0.00296713
0.00296812
0.00296909
0.00297007
0.00297104
0.00297201
0.00297297
0.00297393
0.00297488
0.00297583
0.00297678
0.00297772
0.00297866
0.0029796
0.00298053
0.00298146
0.00298238
0.00298331
0.00298423
0.00298514
0.00298606
0.00298697
0.00298787
0.00298878
0.00298968
0.00299057
0.00299147
0.00299236
0.00299324
0.00299413
0.00299501
0.00299589
0.00299676
0.00299764
0.00299851
0.00299937
0.00300024
0.0030011
0.00300196
0.00300282
0.00300368
0.00300453
0.00300538
0.00300623
0.00300708
0.00300793
0.00300877
0.00300961
0.00301045
0.00301129
0.00301213
0.00301296
0.00301379
0.00301462
0.00301545
0.00301628
0.0030171
0.00301793
0.00301875
0.00301957
0.00302039
0.00302121
0.00302202
0.00302284
0.00302365
0.00302447
0.00302528
0.00302609
0.0030269
0.00302771
0.00302851
0.00302933
0.00303012
0.00303094
0.00303171
0.00303256
0.00303329
0.00303419
0.00303486
0.00303583
0.0030364
0.00303746
0.00303798
0.00303925
0.000617178
0.000775836
0.000998033
0.00123212
0.00143781
0.00160598
0.00173876
0.00184177
0.00192121
0.00198265
0.00203069
0.00206883
0.00209972
0.00212531
0.00214693
0.00216554
0.00218188
0.00219645
0.00220963
0.00222169
0.00223284
0.0022432
0.0022529
0.00226202
0.0022706
0.00227869
0.00228633
0.00229354
0.00230033
0.00230672
0.00231273
0.00231838
0.00232367
0.00232861
0.00233324
0.00233756
0.00234158
0.00234534
0.00234884
0.0023521
0.00235513
0.00235797
0.00236061
0.00236308
0.0023654
0.00236756
0.0023696
0.00237151
0.00237332
0.00237503
0.00237665
0.00237819
0.00237965
0.00238105
0.0023824
0.00238369
0.00238494
0.00238614
0.00238731
0.00238845
0.00238957
0.00239065
0.00239172
0.00239277
0.0023938
0.00239482
0.00239582
0.00239682
0.0023978
0.00239877
0.00239974
0.0024007
0.00240166
0.00240261
0.00240355
0.00240449
0.00240543
0.00240636
0.00240729
0.00240821
0.00240914
0.00241006
0.00241098
0.0024119
0.00241282
0.00241374
0.00241465
0.00241557
0.00241648
0.0024174
0.00241831
0.00241923
0.00242014
0.00242105
0.00242196
0.00242287
0.00242378
0.00242469
0.0024256
0.0024265
0.00242741
0.00242832
0.00242922
0.00243013
0.00243103
0.00243194
0.00243284
0.00243374
0.00243465
0.00243555
0.00243646
0.00243736
0.00243827
0.00243917
0.00244008
0.00244098
0.00244189
0.00244279
0.0024437
0.0024446
0.0024455
0.0024464
0.0024473
0.0024482
0.0024491
0.00245
0.0024509
0.0024518
0.00245269
0.00245359
0.00245449
0.00245539
0.00245628
0.00245718
0.00245808
0.00245897
0.00245987
0.00246076
0.00246165
0.00246254
0.00246343
0.00246432
0.00246521
0.00246609
0.00246698
0.00246786
0.00246874
0.00246962
0.00247049
0.00247137
0.00247224
0.00247312
0.00247399
0.00247486
0.00247573
0.00247659
0.00247746
0.00247832
0.00247918
0.00248004
0.0024809
0.00248176
0.00248261
0.00248346
0.00248431
0.00248516
0.002486
0.00248684
0.00248768
0.00248851
0.00248935
0.00249018
0.002491
0.00249183
0.00249266
0.00249348
0.0024943
0.00249512
0.00249593
0.00249675
0.00249756
0.00249837
0.00249918
0.00249998
0.00250078
0.00250158
0.00250238
0.00250318
0.00250397
0.00250476
0.00250554
0.00250633
0.00250711
0.00250789
0.00250866
0.00250944
0.00251021
0.00251098
0.00251175
0.00251251
0.00251328
0.00251404
0.0025148
0.00251556
0.00251632
0.00251708
0.00251783
0.00251858
0.00251933
0.00252007
0.00252082
0.00252156
0.0025223
0.00252304
0.00252377
0.0025245
0.00252523
0.00252597
0.00252669
0.00252742
0.00252814
0.00252887
0.00252959
0.00253031
0.00253103
0.00253175
0.00253246
0.00253319
0.00253388
0.00253462
0.0025353
0.00253605
0.00253669
0.00253749
0.00253808
0.00253893
0.00253945
0.00254036
0.00254082
0.00254195
0.000199292
0.000234221
0.000284988
0.000364529
0.000464757
0.000574239
0.000685647
0.000793885
0.000895631
0.000989121
0.0010739
0.0011501
0.00121827
0.0012791
0.0013334
0.00138196
0.0014255
0.00146466
0.00149999
0.00153196
0.00156097
0.00158735
0.0016114
0.00163334
0.00165338
0.00167169
0.00168842
0.00170371
0.00171766
0.00173038
0.00174197
0.00175252
0.00176211
0.00177081
0.0017787
0.00178585
0.00179232
0.00179817
0.00180345
0.00180821
0.00181251
0.00181639
0.00181989
0.00182305
0.0018259
0.00182847
0.0018308
0.0018329
0.0018348
0.00183653
0.0018381
0.00183952
0.00184082
0.00184201
0.00184309
0.0018441
0.00184502
0.00184587
0.00184667
0.00184741
0.00184811
0.00184876
0.00184938
0.00184998
0.00185055
0.00185109
0.00185161
0.00185212
0.00185262
0.0018531
0.00185358
0.00185405
0.00185451
0.00185497
0.00185543
0.00185588
0.00185633
0.00185678
0.00185723
0.00185767
0.00185812
0.00185857
0.00185901
0.00185946
0.00185991
0.00186036
0.00186081
0.00186127
0.00186173
0.00186219
0.00186265
0.00186312
0.00186359
0.00186406
0.00186454
0.00186501
0.0018655
0.00186598
0.00186646
0.00186695
0.00186744
0.00186793
0.00186843
0.00186892
0.00186942
0.00186993
0.00187043
0.00187094
0.00187145
0.00187197
0.00187249
0.00187301
0.00187354
0.00187407
0.0018746
0.00187514
0.00187569
0.00187623
0.00187678
0.00187733
0.00187789
0.00187845
0.00187901
0.00187958
0.00188014
0.00188072
0.00188129
0.00188187
0.00188245
0.00188303
0.00188362
0.00188421
0.0018848
0.0018854
0.001886
0.00188661
0.00188722
0.00188783
0.00188845
0.00188907
0.00188969
0.00189031
0.00189094
0.00189157
0.0018922
0.00189283
0.00189347
0.0018941
0.00189474
0.00189538
0.00189602
0.00189666
0.0018973
0.00189795
0.0018986
0.00189925
0.0018999
0.00190055
0.00190121
0.00190186
0.00190252
0.00190318
0.00190384
0.0019045
0.00190516
0.00190582
0.00190648
0.00190714
0.0019078
0.00190845
0.00190911
0.00190977
0.00191043
0.00191108
0.00191174
0.0019124
0.00191305
0.00191371
0.00191437
0.00191502
0.00191568
0.00191633
0.00191699
0.00191764
0.00191829
0.00191895
0.0019196
0.00192025
0.0019209
0.00192154
0.00192219
0.00192283
0.00192347
0.00192411
0.00192475
0.00192538
0.00192602
0.00192665
0.00192728
0.00192791
0.00192854
0.00192917
0.00192979
0.00193042
0.00193104
0.00193167
0.00193229
0.00193291
0.00193353
0.00193414
0.00193476
0.00193537
0.00193598
0.00193659
0.00193719
0.0019378
0.0019384
0.001939
0.0019396
0.00194019
0.00194078
0.00194138
0.00194196
0.00194256
0.00194314
0.00194374
0.00194431
0.00194491
0.00194547
0.00194609
0.00194662
0.00194726
0.00194776
0.00194843
0.00194889
0.0019496
0.00195001
0.00195076
0.00195113
0.00195205
4.94007e-05
5.60868e-05
6.38431e-05
7.5117e-05
9.26585e-05
0.00011718
0.000149093
0.000187694
0.000231819
0.000279947
0.00033079
0.000383204
0.000436224
0.000489022
0.000540905
0.000591352
0.000639953
0.00068642
0.000730545
0.000772193
0.00081129
0.000847809
0.00088177
0.000913229
0.000942264
0.000968973
0.000993468
0.00101587
0.0010363
0.00105488
0.00107175
0.00108703
0.00110083
0.00111328
0.00112449
0.00113456
0.0011436
0.00115169
0.00115892
0.00116537
0.00117113
0.00117626
0.00118081
0.00118486
0.00118845
0.00119164
0.00119446
0.00119695
0.00119916
0.00120111
0.00120282
0.00120434
0.00120567
0.00120685
0.00120788
0.00120878
0.00120958
0.00121028
0.0012109
0.00121144
0.00121191
0.00121233
0.00121271
0.00121304
0.00121334
0.0012136
0.00121385
0.00121407
0.00121428
0.00121447
0.00121464
0.00121481
0.00121497
0.00121511
0.00121525
0.00121539
0.00121552
0.00121565
0.00121578
0.0012159
0.00121602
0.00121615
0.00121627
0.00121639
0.00121652
0.00121665
0.00121677
0.00121691
0.00121704
0.00121718
0.00121732
0.00121747
0.00121762
0.00121777
0.00121793
0.00121809
0.00121825
0.00121842
0.00121859
0.00121877
0.00121895
0.00121913
0.00121932
0.00121951
0.0012197
0.0012199
0.0012201
0.00122031
0.00122052
0.00122073
0.00122095
0.00122117
0.0012214
0.00122163
0.00122187
0.00122211
0.00122236
0.00122261
0.00122287
0.00122313
0.0012234
0.00122367
0.00122394
0.00122422
0.0012245
0.00122479
0.00122508
0.00122537
0.00122567
0.00122597
0.00122627
0.00122658
0.0012269
0.00122722
0.00122754
0.00122787
0.0012282
0.00122854
0.00122888
0.00122923
0.00122958
0.00122993
0.00123029
0.00123065
0.00123102
0.00123138
0.00123176
0.00123213
0.0012325
0.00123288
0.00123326
0.00123365
0.00123404
0.00123443
0.00123482
0.00123521
0.00123561
0.00123601
0.00123642
0.00123682
0.00123723
0.00123764
0.00123806
0.00123847
0.00123889
0.00123931
0.00123973
0.00124015
0.00124058
0.001241
0.00124142
0.00124185
0.00124227
0.0012427
0.00124313
0.00124355
0.00124398
0.00124441
0.00124484
0.00124527
0.0012457
0.00124613
0.00124657
0.001247
0.00124743
0.00124787
0.0012483
0.00124873
0.00124917
0.0012496
0.00125003
0.00125047
0.0012509
0.00125133
0.00125175
0.00125218
0.00125261
0.00125303
0.00125346
0.00125388
0.00125431
0.00125473
0.00125515
0.00125558
0.001256
0.00125642
0.00125684
0.00125726
0.00125768
0.0012581
0.00125851
0.00125893
0.00125934
0.00125976
0.00126017
0.00126058
0.00126098
0.0012614
0.00126179
0.00126221
0.0012626
0.00126301
0.0012634
0.00126382
0.00126419
0.00126462
0.00126497
0.00126541
0.00126576
0.00126621
0.00126653
0.001267
0.00126731
0.00126779
0.00126808
0.00126857
0.00126884
0.00126935
0.0012696
0.00127023
4.89894e-05
5.54541e-05
6.23843e-05
7.26041e-05
8.87811e-05
0.000112164
0.000142947
0.000180672
0.000224094
0.000271798
0.000322471
0.000374992
0.000428347
0.000481673
0.000534252
0.000585519
0.000635052
0.000682522
0.000727707
0.000770446
0.000810649
0.000848281
0.000883347
0.000915895
0.000946002
0.000973765
0.000999292
0.0010227
0.00104412
0.00106368
0.0010815
0.00109772
0.00111245
0.00112581
0.00113792
0.00114887
0.00115878
0.00116774
0.00117584
0.00118315
0.00118976
0.00119573
0.00120113
0.00120601
0.00121044
0.00121445
0.0012181
0.00122141
0.00122444
0.0012272
0.00122973
0.00123205
0.00123418
0.00123616
0.00123798
0.00123968
0.00124126
0.00124274
0.00124414
0.00124545
0.00124669
0.00124787
0.001249
0.00125008
0.00125112
0.00125213
0.0012531
0.00125405
0.00125498
0.00125589
0.00125677
0.00125764
0.0012585
0.00125934
0.00126017
0.00126099
0.0012618
0.0012626
0.0012634
0.00126418
0.00126496
0.00126573
0.0012665
0.00126726
0.00126802
0.00126877
0.00126952
0.00127027
0.00127102
0.00127176
0.0012725
0.00127324
0.00127398
0.00127471
0.00127545
0.00127618
0.00127691
0.00127763
0.00127836
0.00127908
0.0012798
0.00128052
0.00128124
0.00128195
0.00128266
0.00128337
0.00128407
0.00128477
0.00128547
0.00128617
0.00128686
0.00128756
0.00128825
0.00128894
0.00128963
0.00129031
0.001291
0.00129168
0.00129236
0.00129303
0.00129371
0.00129438
0.00129505
0.00129571
0.00129637
0.00129703
0.00129768
0.00129833
0.00129898
0.00129962
0.00130026
0.0013009
0.00130154
0.00130217
0.0013028
0.00130343
0.00130406
0.00130468
0.0013053
0.00130592
0.00130654
0.00130715
0.00130776
0.00130837
0.00130897
0.00130957
0.00131017
0.00131076
0.00131135
0.00131194
0.00131252
0.0013131
0.00131368
0.00131425
0.00131482
0.00131539
0.00131595
0.00131652
0.00131708
0.00131764
0.00131819
0.00131875
0.0013193
0.00131985
0.00132039
0.00132094
0.00132148
0.00132201
0.00132255
0.00132308
0.0013236
0.00132413
0.00132465
0.00132516
0.00132568
0.00132619
0.0013267
0.0013272
0.00132771
0.00132821
0.00132871
0.00132921
0.00132971
0.0013302
0.00133069
0.00133118
0.00133167
0.00133216
0.00133264
0.00133312
0.0013336
0.00133407
0.00133455
0.00133502
0.00133548
0.00133595
0.00133641
0.00133687
0.00133732
0.00133778
0.00133823
0.00133868
0.00133913
0.00133958
0.00134003
0.00134047
0.00134092
0.00134136
0.0013418
0.00134224
0.00134268
0.00134311
0.00134354
0.00134398
0.0013444
0.00134483
0.00134525
0.00134568
0.00134609
0.00134652
0.00134693
0.00134736
0.00134775
0.00134819
0.00134857
0.00134901
0.00134938
0.00134984
0.00135019
0.00135066
0.00135099
0.00135148
0.00135179
0.00135229
0.00135258
0.0013531
0.00135337
0.0013539
0.00135416
0.00135481
0.00019802
0.000231986
0.000279976
0.000356225
0.000454444
0.000563106
0.000674498
0.000783411
0.000886321
0.000981348
0.00106788
0.00114598
0.00121609
0.00127888
0.0013351
0.00138557
0.00143099
0.00147196
0.00150905
0.0015427
0.00157332
0.00160124
0.00162674
0.00165006
0.0016714
0.00169093
0.00170882
0.00172519
0.00174017
0.00175386
0.00176637
0.00177779
0.00178821
0.0017977
0.00180634
0.00181421
0.00182137
0.00182788
0.0018338
0.00183919
0.0018441
0.00184856
0.00185263
0.00185635
0.00185975
0.00186286
0.00186571
0.00186833
0.00187075
0.00187297
0.00187504
0.00187695
0.00187873
0.0018804
0.00188196
0.00188342
0.00188481
0.00188612
0.00188736
0.00188855
0.00188969
0.00189078
0.00189183
0.00189286
0.00189385
0.00189481
0.00189575
0.00189668
0.00189758
0.00189847
0.00189934
0.00190021
0.00190106
0.00190191
0.00190275
0.00190359
0.00190441
0.00190523
0.00190605
0.00190687
0.00190768
0.00190848
0.00190929
0.00191009
0.00191089
0.00191169
0.00191249
0.00191329
0.00191409
0.00191488
0.00191568
0.00191648
0.00191727
0.00191807
0.00191886
0.00191966
0.00192045
0.00192125
0.00192204
0.00192283
0.00192361
0.0019244
0.00192519
0.00192597
0.00192675
0.00192754
0.00192832
0.0019291
0.00192988
0.00193065
0.00193143
0.00193221
0.00193299
0.00193376
0.00193454
0.00193532
0.00193609
0.00193686
0.00193764
0.00193841
0.00193918
0.00193994
0.00194071
0.00194147
0.00194223
0.001943
0.00194375
0.00194451
0.00194527
0.00194602
0.00194678
0.00194753
0.00194828
0.00194903
0.00194979
0.00195054
0.00195129
0.00195204
0.00195278
0.00195353
0.00195427
0.00195502
0.00195576
0.0019565
0.00195724
0.00195798
0.00195871
0.00195944
0.00196017
0.0019609
0.00196163
0.00196236
0.00196308
0.0019638
0.00196453
0.00196525
0.00196597
0.00196669
0.00196741
0.00196813
0.00196884
0.00196956
0.00197027
0.00197098
0.00197169
0.0019724
0.0019731
0.00197381
0.00197451
0.00197521
0.0019759
0.0019766
0.00197729
0.00197798
0.00197867
0.00197935
0.00198004
0.00198072
0.0019814
0.00198209
0.00198277
0.00198344
0.00198412
0.0019848
0.00198547
0.00198614
0.00198681
0.00198748
0.00198814
0.0019888
0.00198946
0.00199012
0.00199078
0.00199143
0.00199208
0.00199273
0.00199337
0.00199402
0.00199466
0.0019953
0.00199594
0.00199658
0.00199721
0.00199785
0.00199848
0.00199911
0.00199974
0.00200037
0.00200099
0.00200162
0.00200224
0.00200286
0.00200348
0.00200409
0.0020047
0.00200532
0.00200592
0.00200653
0.00200713
0.00200774
0.00200833
0.00200894
0.00200953
0.00201013
0.00201071
0.00201132
0.0020119
0.00201251
0.00201307
0.0020137
0.00201423
0.00201488
0.00201539
0.00201606
0.00201653
0.00201725
0.00201766
0.00201842
0.0020188
0.00201973
0.000614452