/*--------------------------------*- C++ -*----------------------------------*\
  =========                 |
  \\      /  F ield         | OpenFOAM: The Open Source CFD Toolbox
   \\    /   O peration     | Website:  https://openfoam.org
    \\  /    A nd           | Version:  7
     \\/     M anipulation  |
\*---------------------------------------------------------------------------*/
FoamFile
{
    version     2.0;
    format      ascii;
    class       volScalarField;
    location    "0.8325";
    object      T;
}
// * * * * * * * * * * * * * * * * * * * * * * * * * * * * * * * * * * * * * //

dimensions      [0 0 0 1 0 0 0];

internalField   nonuniform List<scalar> 
4950
(
282.94
283.041
283.082
283.16
283.175
283.225
283.221
283.244
283.225
283.23
283.205
283.202
283.178
283.175
283.162
283.162
283.165
283.158
283.2
283.102
282.91
282.964
283.016
283.115
283.197
283.306
283.372
283.422
283.43
283.424
283.392
283.351
283.299
283.245
283.206
283.158
283.171
283.104
283.237
283.018
282.874
282.897
282.886
282.964
283.005
283.13
283.211
283.316
283.345
283.379
283.359
283.347
283.293
283.229
283.142
283.039
282.979
282.874
282.904
282.78
282.909
282.938
282.951
283.007
283.058
283.162
283.264
283.365
283.423
283.453
283.456
283.448
283.426
283.374
283.3
283.179
283.082
282.944
282.898
282.795
282.875
282.896
282.876
282.94
282.965
283.078
283.16
283.274
283.318
283.361
283.353
283.36
283.335
283.303
283.229
283.12
283.008
282.872
282.794
282.697
282.909
282.938
282.951
283.007
283.058
283.162
283.264
283.365
283.423
283.453
283.455
283.449
283.425
283.375
283.298
283.182
283.077
282.95
282.89
282.804
282.874
282.897
282.886
282.964
283.004
283.13
283.211
283.316
283.345
283.379
283.358
283.348
283.291
283.232
283.136
283.049
282.962
282.9
282.865
282.835
282.91
282.964
283.016
283.115
283.197
283.306
283.372
283.422
283.43
283.425
283.391
283.352
283.298
283.249
283.201
283.169
283.149
283.148
283.149
283.187
282.94
283.041
283.082
283.16
283.175
283.225
283.221
283.244
283.225
283.231
283.205
283.203
283.178
283.176
283.16
283.165
283.159
283.171
283.17
283.195
283.224
283.259
283.365
283.405
283.504
283.515
283.562
283.533
283.544
283.502
283.501
283.46
283.459
283.426
283.435
283.41
283.443
283.396
283.535
283.191
283.19
283.212
283.285
283.34
283.453
283.549
283.646
283.689
283.712
283.696
283.667
283.604
283.542
283.457
283.411
283.337
283.356
283.272
283.419
283.212
283.227
283.257
283.356
283.386
283.51
283.601
283.738
283.8
283.864
283.861
283.871
283.825
283.782
283.675
283.589
283.456
283.404
283.286
283.319
283.202
283.189
283.212
283.279
283.319
283.415
283.517
283.635
283.715
283.766
283.781
283.787
283.771
283.741
283.665
283.569
283.435
283.334
283.206
283.166
283.07
283.226
283.259
283.358
283.385
283.502
283.59
283.727
283.795
283.862
283.865
283.884
283.862
283.847
283.771
283.687
283.545
283.442
283.3
283.248
283.156
283.189
283.212
283.279
283.319
283.415
283.517
283.635
283.715
283.766
283.781
283.787
283.772
283.74
283.666
283.567
283.437
283.33
283.211
283.16
283.076
283.227
283.257
283.356
283.387
283.51
283.601
283.738
283.8
283.864
283.862
283.87
283.826
283.779
283.678
283.583
283.466
283.388
283.31
283.286
283.248
283.19
283.212
283.285
283.34
283.453
283.549
283.645
283.69
283.711
283.697
283.666
283.606
283.539
283.463
283.402
283.353
283.327
283.325
283.324
283.378
283.224
283.259
283.365
283.405
283.504
283.515
283.562
283.533
283.544
283.503
283.501
283.461
283.458
283.428
283.432
283.416
283.43
283.428
283.443
283.461
283.173
283.214
283.274
283.354
283.461
283.535
283.574
283.558
283.525
283.479
283.455
283.432
283.434
283.419
283.441
283.413
283.487
283.368
283.671
283.071
283.171
283.213
283.26
283.325
283.434
283.555
283.659
283.718
283.745
283.734
283.7
283.621
283.538
283.425
283.366
283.265
283.289
283.191
283.355
283.198
283.172
283.217
283.266
283.325
283.429
283.552
283.669
283.744
283.787
283.802
283.803
283.77
283.707
283.597
283.484
283.353
283.275
283.172
283.171
283.077
283.171
283.215
283.259
283.317
283.418
283.541
283.653
283.726
283.763
283.778
283.783
283.768
283.722
283.629
283.513
283.375
283.273
283.156
283.12
283.026
283.172
283.217
283.266
283.325
283.43
283.555
283.67
283.744
283.783
283.799
283.807
283.794
283.755
283.666
283.554
283.414
283.31
283.19
283.147
283.06
283.171
283.215
283.259
283.317
283.418
283.541
283.653
283.726
283.763
283.779
283.783
283.768
283.722
283.63
283.513
283.375
283.272
283.156
283.12
283.024
283.172
283.217
283.266
283.325
283.429
283.553
283.669
283.744
283.786
283.802
283.802
283.771
283.705
283.6
283.479
283.359
283.266
283.184
283.156
283.094
283.171
283.213
283.26
283.326
283.434
283.555
283.659
283.719
283.744
283.736
283.698
283.625
283.532
283.435
283.351
283.29
283.25
283.253
283.259
283.335
283.173
283.214
283.274
283.354
283.461
283.535
283.574
283.559
283.525
283.48
283.454
283.434
283.43
283.425
283.43
283.432
283.447
283.455
283.473
283.503
283.224
283.259
283.365
283.405
283.504
283.515
283.562
283.533
283.544
283.502
283.501
283.46
283.459
283.426
283.435
283.41
283.443
283.396
283.535
283.191
283.19
283.212
283.285
283.34
283.453
283.549
283.646
283.689
283.712
283.696
283.667
283.604
283.542
283.457
283.411
283.337
283.356
283.272
283.419
283.212
283.227
283.257
283.356
283.386
283.51
283.601
283.738
283.8
283.864
283.861
283.871
283.825
283.782
283.675
283.589
283.456
283.404
283.286
283.319
283.202
283.189
283.212
283.279
283.319
283.415
283.517
283.635
283.715
283.766
283.781
283.787
283.771
283.741
283.665
283.569
283.435
283.334
283.206
283.166
283.07
283.226
283.259
283.358
283.385
283.502
283.59
283.727
283.795
283.862
283.865
283.884
283.862
283.847
283.771
283.687
283.545
283.442
283.3
283.248
283.156
283.189
283.212
283.279
283.319
283.415
283.517
283.635
283.715
283.766
283.781
283.787
283.772
283.74
283.666
283.567
283.437
283.33
283.211
283.16
283.076
283.227
283.257
283.356
283.387
283.51
283.601
283.738
283.8
283.864
283.862
283.87
283.826
283.779
283.678
283.583
283.466
283.388
283.31
283.286
283.248
283.19
283.212
283.285
283.34
283.453
283.549
283.645
283.69
283.711
283.697
283.666
283.606
283.539
283.463
283.402
283.353
283.327
283.325
283.324
283.378
283.224
283.259
283.365
283.405
283.504
283.515
283.562
283.533
283.544
283.503
283.501
283.461
283.458
283.428
283.432
283.416
283.43
283.428
283.443
283.461
282.94
283.041
283.082
283.16
283.175
283.225
283.221
283.244
283.225
283.23
283.205
283.202
283.178
283.175
283.162
283.162
283.165
283.158
283.2
283.102
282.91
282.964
283.016
283.115
283.197
283.306
283.372
283.422
283.43
283.424
283.392
283.351
283.299
283.245
283.206
283.158
283.171
283.104
283.237
283.018
282.874
282.897
282.886
282.964
283.005
283.13
283.211
283.316
283.345
283.379
283.359
283.347
283.293
283.229
283.142
283.039
282.979
282.874
282.904
282.78
282.909
282.938
282.951
283.007
283.058
283.162
283.264
283.365
283.423
283.453
283.456
283.448
283.426
283.374
283.3
283.179
283.082
282.944
282.898
282.795
282.875
282.896
282.876
282.94
282.965
283.078
283.16
283.274
283.318
283.361
283.353
283.36
283.335
283.303
283.229
283.12
283.008
282.872
282.794
282.697
282.909
282.938
282.951
283.007
283.058
283.162
283.264
283.365
283.423
283.453
283.455
283.449
283.425
283.375
283.298
283.182
283.077
282.95
282.89
282.804
282.874
282.897
282.886
282.964
283.004
283.13
283.211
283.316
283.345
283.379
283.358
283.348
283.291
283.232
283.136
283.049
282.962
282.9
282.865
282.835
282.91
282.964
283.016
283.115
283.197
283.306
283.372
283.422
283.43
283.425
283.391
283.352
283.297
283.249
283.201
283.169
283.149
283.148
283.149
283.187
282.94
283.041
283.082
283.16
283.175
283.225
283.221
283.244
283.225
283.231
283.205
283.203
283.178
283.176
283.16
283.165
283.159
283.171
283.17
283.195
285.047
286.414
287.17
287.731
288.228
288.747
289.217
289.617
289.905
290.107
290.228
290.304
290.342
290.364
290.371
290.375
290.373
290.372
290.368
290.366
290.362
290.358
290.354
290.351
290.347
290.343
290.339
290.335
290.331
290.328
290.324
290.32
290.316
290.312
290.308
290.304
290.3
290.296
290.292
290.288
290.284
290.28
290.276
290.271
290.267
290.263
290.259
290.255
290.251
290.247
290.242
290.238
290.234
290.23
290.226
290.222
290.218
290.214
290.209
290.205
290.201
290.197
290.193
290.189
290.184
290.18
290.176
290.172
290.168
290.163
290.159
290.155
290.151
290.147
290.143
290.138
290.134
290.13
290.125
290.121
290.117
290.112
290.108
290.103
290.101
290.091
290.094
290.081
290.08
290.076
284.015
285.257
286.031
286.565
287.011
287.48
287.935
288.346
288.663
288.891
289.037
289.128
289.178
289.206
289.217
289.223
289.222
289.221
289.217
289.214
289.21
289.207
289.203
289.199
289.195
289.191
289.187
289.183
289.179
289.175
289.171
289.167
289.163
289.159
289.155
289.151
289.147
289.143
289.139
289.135
289.131
289.127
289.122
289.118
289.114
289.11
289.106
289.101
289.097
289.093
289.089
289.085
289.08
289.076
289.072
289.068
289.064
289.06
289.055
289.051
289.047
289.043
289.038
289.034
289.03
289.026
289.022
289.017
289.013
289.009
289.005
289
288.996
288.992
288.988
288.983
288.979
288.975
288.97
288.966
288.962
288.957
288.954
288.947
288.946
288.937
288.938
288.927
288.924
288.92
283.107
284.012
284.727
285.206
285.528
285.875
286.261
286.671
287.022
287.3
287.489
287.615
287.688
287.731
287.751
287.762
287.763
287.764
287.761
287.758
287.755
287.751
287.747
287.744
287.74
287.736
287.732
287.729
287.725
287.721
287.717
287.713
287.709
287.705
287.701
287.697
287.693
287.689
287.685
287.681
287.677
287.673
287.668
287.664
287.66
287.656
287.652
287.648
287.643
287.639
287.635
287.631
287.627
287.623
287.618
287.614
287.61
287.606
287.602
287.598
287.593
287.589
287.585
287.581
287.576
287.572
287.568
287.564
287.56
287.555
287.551
287.547
287.543
287.538
287.534
287.53
287.526
287.521
287.517
287.513
287.508
287.503
287.5
287.494
287.492
287.483
287.482
287.475
287.469
287.463
282.798
283.378
283.992
284.375
284.554
284.736
285.007
285.361
285.713
286.013
286.232
286.383
286.475
286.53
286.558
286.572
286.576
286.577
286.575
286.572
286.568
286.564
286.56
286.557
286.553
286.549
286.545
286.541
286.537
286.533
286.529
286.525
286.521
286.517
286.513
286.509
286.505
286.501
286.497
286.493
286.489
286.485
286.48
286.476
286.472
286.468
286.464
286.46
286.455
286.451
286.447
286.443
286.439
286.435
286.431
286.427
286.422
286.418
286.414
286.41
286.406
286.402
286.397
286.393
286.389
286.385
286.381
286.377
286.372
286.368
286.364
286.36
286.356
286.352
286.347
286.343
286.339
286.335
286.33
286.326
286.322
286.317
286.314
286.308
286.306
286.299
286.296
286.291
286.285
286.279
282.631
283.066
283.559
283.843
283.896
283.948
284.106
284.389
284.701
284.987
285.203
285.357
285.452
285.512
285.542
285.559
285.564
285.566
285.563
285.561
285.557
285.554
285.55
285.547
285.543
285.539
285.535
285.532
285.528
285.524
285.52
285.516
285.512
285.508
285.504
285.501
285.497
285.493
285.489
285.485
285.481
285.477
285.472
285.468
285.464
285.46
285.456
285.452
285.448
285.444
285.439
285.435
285.431
285.427
285.423
285.419
285.415
285.411
285.407
285.402
285.398
285.394
285.39
285.386
285.382
285.377
285.373
285.369
285.365
285.361
285.357
285.353
285.348
285.344
285.34
285.336
285.331
285.327
285.323
285.319
285.314
285.31
285.306
285.3
285.297
285.292
285.287
285.283
285.278
285.271
282.768
283.119
283.495
283.657
283.622
283.596
283.685
283.894
284.143
284.375
284.553
284.68
284.76
284.809
284.835
284.847
284.851
284.852
284.849
284.846
284.843
284.839
284.835
284.832
284.828
284.824
284.82
284.816
284.812
284.808
284.805
284.801
284.797
284.793
284.789
284.785
284.781
284.778
284.774
284.77
284.766
284.762
284.758
284.754
284.75
284.746
284.741
284.737
284.733
284.729
284.725
284.721
284.717
284.713
284.709
284.705
284.701
284.697
284.693
284.689
284.685
284.681
284.677
284.673
284.669
284.665
284.661
284.657
284.652
284.648
284.644
284.64
284.636
284.632
284.628
284.624
284.62
284.616
284.612
284.607
284.603
284.599
284.595
284.59
284.587
284.582
284.577
284.573
284.57
284.564
282.881
283.165
283.388
283.449
283.374
283.342
283.4
283.551
283.722
283.882
284.001
284.086
284.138
284.171
284.187
284.195
284.197
284.197
284.194
284.192
284.188
284.185
284.181
284.178
284.175
284.171
284.168
284.164
284.161
284.157
284.153
284.15
284.146
284.143
284.139
284.136
284.132
284.129
284.125
284.122
284.118
284.114
284.111
284.107
284.103
284.099
284.096
284.092
284.088
284.085
284.081
284.078
284.074
284.07
284.067
284.063
284.059
284.056
284.052
284.049
284.045
284.041
284.038
284.034
284.03
284.027
284.023
284.019
284.016
284.012
284.009
284.005
284.001
283.998
283.994
283.991
283.987
283.983
283.979
283.976
283.972
283.968
283.965
283.96
283.957
283.953
283.948
283.945
283.942
283.937
283.139
283.268
283.359
283.356
283.301
283.285
283.323
283.406
283.495
283.574
283.631
283.671
283.695
283.709
283.715
283.717
283.716
283.715
283.712
283.709
283.706
283.703
283.7
283.697
283.694
283.691
283.688
283.685
283.682
283.68
283.677
283.674
283.671
283.669
283.666
283.663
283.661
283.658
283.655
283.653
283.65
283.647
283.645
283.642
283.639
283.637
283.634
283.632
283.629
283.626
283.624
283.622
283.619
283.617
283.614
283.612
283.609
283.607
283.605
283.602
283.6
283.597
283.595
283.593
283.59
283.588
283.586
283.583
283.581
283.579
283.577
283.574
283.572
283.57
283.567
283.565
283.563
283.561
283.558
283.556
283.554
283.552
283.549
283.547
283.545
283.542
283.54
283.538
283.536
283.533
283.131
283.171
283.19
283.188
283.168
283.168
283.18
283.207
283.232
283.256
283.271
283.282
283.288
283.292
283.292
283.292
283.291
283.29
283.289
283.287
283.286
283.284
283.283
283.281
283.28
283.278
283.277
283.276
283.275
283.274
283.272
283.271
283.27
283.269
283.269
283.268
283.267
283.266
283.265
283.264
283.263
283.262
283.261
283.26
283.259
283.258
283.258
283.257
283.256
283.255
283.254
283.254
283.253
283.252
283.252
283.251
283.25
283.249
283.249
283.248
283.247
283.247
283.246
283.245
283.245
283.244
283.243
283.243
283.242
283.241
283.241
283.24
283.239
283.239
283.238
283.237
283.237
283.236
283.235
283.235
283.234
283.233
283.233
283.232
283.231
283.231
283.23
283.229
283.228
283.228
285.568
287.069
287.864
288.411
288.939
289.451
289.932
290.315
290.602
290.787
290.905
290.97
291.006
291.02
291.026
291.025
291.023
291.018
291.013
291.008
291.003
290.998
290.994
290.989
290.984
290.979
290.975
290.97
290.966
290.961
290.957
290.953
290.949
290.944
290.94
290.936
290.932
290.928
290.924
290.919
290.915
290.911
290.907
290.903
290.898
290.894
290.89
290.886
290.882
290.878
290.874
290.869
290.865
290.861
290.857
290.853
290.849
290.845
290.841
290.837
290.832
290.828
290.824
290.82
290.816
290.812
290.808
290.804
290.8
290.796
290.792
290.787
290.783
290.779
290.775
290.771
290.767
290.763
290.759
290.755
290.752
290.747
290.745
290.739
290.739
290.729
290.735
290.72
290.729
290.728
284.147
285.359
286.147
286.666
287.117
287.573
288.035
288.444
288.77
288.999
289.15
289.24
289.292
289.317
289.329
289.331
289.33
289.326
289.322
289.317
289.312
289.307
289.302
289.298
289.293
289.288
289.284
289.279
289.275
289.27
289.266
289.262
289.257
289.253
289.249
289.244
289.24
289.236
289.232
289.227
289.223
289.219
289.215
289.21
289.206
289.202
289.197
289.193
289.189
289.185
289.181
289.176
289.172
289.168
289.164
289.16
289.155
289.151
289.147
289.143
289.139
289.134
289.13
289.126
289.122
289.118
289.114
289.109
289.105
289.101
289.097
289.093
289.089
289.085
289.08
289.076
289.072
289.068
289.064
289.06
289.056
289.051
289.049
289.042
289.042
289.033
289.037
289.025
289.028
289.027
283.455
284.257
284.971
285.407
285.722
286.035
286.421
286.819
287.181
287.458
287.657
287.781
287.858
287.898
287.918
287.925
287.926
287.922
287.918
287.913
287.908
287.903
287.898
287.893
287.888
287.883
287.878
287.874
287.869
287.865
287.86
287.856
287.851
287.847
287.843
287.838
287.834
287.83
287.826
287.821
287.817
287.813
287.808
287.804
287.8
287.796
287.791
287.787
287.783
287.779
287.774
287.77
287.766
287.762
287.758
287.754
287.749
287.745
287.741
287.737
287.733
287.729
287.724
287.72
287.716
287.712
287.708
287.704
287.699
287.695
287.691
287.687
287.683
287.679
287.675
287.671
287.667
287.663
287.659
287.655
287.651
287.646
287.644
287.638
287.638
287.629
287.631
287.623
287.622
287.62
283.072
283.592
284.179
284.521
284.68
284.828
285.086
285.428
285.786
286.09
286.319
286.473
286.57
286.626
286.655
286.668
286.671
286.67
286.667
286.662
286.657
286.653
286.648
286.643
286.638
286.634
286.629
286.625
286.62
286.616
286.611
286.607
286.603
286.599
286.594
286.59
286.586
286.582
286.578
286.574
286.569
286.565
286.561
286.557
286.553
286.548
286.544
286.54
286.536
286.532
286.528
286.524
286.519
286.515
286.511
286.507
286.503
286.499
286.495
286.491
286.487
286.483
286.478
286.474
286.47
286.466
286.462
286.458
286.454
286.45
286.446
286.442
286.438
286.434
286.43
286.425
286.421
286.417
286.413
286.409
286.406
286.401
286.398
286.392
286.391
286.385
286.383
286.379
286.375
286.371
283.067
283.425
283.908
284.14
284.171
284.174
284.314
284.572
284.887
285.17
285.395
285.549
285.65
285.708
285.74
285.754
285.758
285.757
285.754
285.749
285.744
285.739
285.734
285.729
285.724
285.72
285.715
285.711
285.706
285.702
285.697
285.693
285.689
285.685
285.681
285.677
285.672
285.668
285.664
285.66
285.656
285.652
285.648
285.644
285.639
285.635
285.631
285.627
285.623
285.619
285.615
285.611
285.607
285.603
285.599
285.595
285.591
285.587
285.583
285.578
285.574
285.57
285.566
285.562
285.558
285.554
285.55
285.546
285.542
285.538
285.534
285.53
285.526
285.522
285.518
285.514
285.51
285.506
285.502
285.498
285.494
285.49
285.487
285.482
285.48
285.475
285.472
285.469
285.465
285.46
283.052
283.373
283.738
283.863
283.804
283.739
283.81
284.003
284.253
284.485
284.67
284.799
284.884
284.933
284.96
284.972
284.975
284.974
284.971
284.966
284.962
284.957
284.953
284.948
284.944
284.939
284.935
284.931
284.926
284.922
284.918
284.914
284.91
284.906
284.902
284.898
284.894
284.89
284.886
284.882
284.878
284.874
284.87
284.866
284.862
284.858
284.853
284.849
284.845
284.841
284.837
284.833
284.829
284.825
284.821
284.817
284.813
284.809
284.805
284.801
284.797
284.793
284.789
284.785
284.781
284.777
284.773
284.769
284.765
284.761
284.757
284.753
284.749
284.745
284.741
284.737
284.733
284.729
284.725
284.721
284.717
284.713
284.71
284.704
284.702
284.697
284.694
284.691
284.686
284.681
283.282
283.521
283.752
283.766
283.674
283.601
283.651
283.787
283.965
284.122
284.248
284.332
284.389
284.419
284.435
284.44
284.441
284.438
284.434
284.43
284.425
284.42
284.416
284.411
284.407
284.403
284.399
284.394
284.39
284.386
284.382
284.378
284.374
284.371
284.367
284.363
284.359
284.355
284.351
284.348
284.344
284.34
284.336
284.332
284.328
284.324
284.321
284.317
284.313
284.309
284.305
284.302
284.298
284.294
284.29
284.286
284.283
284.279
284.275
284.271
284.267
284.264
284.26
284.256
284.252
284.248
284.245
284.241
284.237
284.233
284.23
284.226
284.222
284.218
284.215
284.211
284.207
284.203
284.2
284.196
284.193
284.189
284.186
284.181
284.179
284.175
284.172
284.169
284.165
284.161
283.357
283.478
283.573
283.541
283.469
283.433
283.474
283.559
283.661
283.746
283.812
283.855
283.883
283.897
283.904
283.905
283.903
283.9
283.897
283.893
283.889
283.885
283.882
283.878
283.874
283.871
283.867
283.863
283.86
283.857
283.853
283.85
283.847
283.843
283.84
283.837
283.834
283.831
283.828
283.825
283.821
283.818
283.815
283.812
283.809
283.806
283.803
283.8
283.796
283.793
283.79
283.787
283.785
283.782
283.779
283.776
283.773
283.77
283.767
283.764
283.761
283.758
283.755
283.752
283.749
283.747
283.744
283.741
283.738
283.735
283.732
283.73
283.727
283.724
283.721
283.718
283.716
283.713
283.71
283.707
283.705
283.702
283.7
283.696
283.695
283.692
283.689
283.687
283.684
283.681
283.357
283.373
283.397
283.37
283.348
283.335
283.352
283.377
283.409
283.431
283.45
283.459
283.466
283.467
283.468
283.466
283.464
283.461
283.459
283.456
283.453
283.451
283.448
283.446
283.444
283.441
283.439
283.437
283.435
283.433
283.432
283.43
283.428
283.427
283.425
283.424
283.422
283.421
283.42
283.418
283.417
283.415
283.414
283.413
283.411
283.41
283.409
283.407
283.406
283.405
283.404
283.403
283.402
283.401
283.399
283.398
283.397
283.396
283.395
283.394
283.393
283.392
283.391
283.39
283.389
283.388
283.387
283.386
283.385
283.384
283.383
283.383
283.382
283.381
283.38
283.379
283.378
283.377
283.376
283.376
283.375
283.374
283.374
283.373
283.372
283.371
283.371
283.37
283.37
283.369
285.841
287.594
288.451
289.05
289.623
290.17
290.662
291.043
291.318
291.493
291.601
291.659
291.691
291.703
291.708
291.705
291.703
291.698
291.693
291.688
291.683
291.678
291.674
291.669
291.664
291.66
291.655
291.651
291.646
291.642
291.638
291.634
291.63
291.625
291.621
291.617
291.613
291.609
291.605
291.601
291.597
291.593
291.589
291.584
291.58
291.576
291.572
291.568
291.564
291.56
291.556
291.552
291.548
291.543
291.539
291.535
291.531
291.527
291.523
291.519
291.515
291.511
291.507
291.503
291.499
291.494
291.49
291.486
291.482
291.478
291.474
291.47
291.466
291.462
291.458
291.454
291.45
291.446
291.442
291.438
291.434
291.429
291.427
291.421
291.421
291.41
291.417
291.4
291.412
291.411
283.972
285.232
286.069
286.619
287.096
287.578
288.061
288.485
288.819
289.053
289.206
289.297
289.349
289.374
289.384
289.386
289.384
289.38
289.375
289.37
289.365
289.36
289.355
289.35
289.345
289.34
289.335
289.33
289.325
289.321
289.316
289.312
289.307
289.303
289.298
289.294
289.289
289.285
289.281
289.276
289.272
289.267
289.263
289.259
289.254
289.25
289.245
289.241
289.237
289.232
289.228
289.224
289.22
289.215
289.211
289.207
289.203
289.198
289.194
289.19
289.185
289.181
289.177
289.173
289.168
289.164
289.16
289.156
289.152
289.147
289.143
289.139
289.135
289.131
289.127
289.122
289.118
289.114
289.11
289.106
289.102
289.098
289.095
289.088
289.089
289.079
289.083
289.071
289.075
289.075
283.272
284.034
284.735
285.175
285.483
285.8
286.193
286.61
286.992
287.291
287.503
287.64
287.722
287.767
287.79
287.798
287.799
287.796
287.792
287.787
287.781
287.776
287.771
287.766
287.761
287.756
287.751
287.746
287.741
287.737
287.732
287.727
287.723
287.718
287.714
287.71
287.705
287.701
287.696
287.692
287.688
287.683
287.679
287.675
287.67
287.666
287.661
287.657
287.653
287.649
287.644
287.64
287.636
287.632
287.627
287.623
287.619
287.615
287.61
287.606
287.602
287.598
287.594
287.589
287.585
287.581
287.577
287.573
287.568
287.564
287.56
287.556
287.552
287.548
287.544
287.54
287.536
287.531
287.528
287.523
287.52
287.515
287.513
287.506
287.506
287.498
287.499
287.492
287.49
287.488
283.006
283.488
284.053
284.38
284.508
284.622
284.858
285.201
285.574
285.902
286.153
286.325
286.435
286.498
286.533
286.548
286.553
286.552
286.549
286.544
286.539
286.534
286.529
286.524
286.519
286.514
286.51
286.505
286.501
286.496
286.492
286.487
286.483
286.479
286.475
286.47
286.466
286.462
286.458
286.454
286.449
286.445
286.441
286.437
286.433
286.428
286.424
286.42
286.416
286.412
286.408
286.404
286.4
286.396
286.391
286.387
286.383
286.379
286.375
286.371
286.367
286.363
286.359
286.355
286.351
286.347
286.342
286.338
286.334
286.33
286.326
286.322
286.318
286.314
286.31
286.306
286.302
286.298
286.294
286.29
286.287
286.282
286.28
286.274
286.273
286.266
286.264
286.26
286.257
286.253
282.981
283.345
283.82
284.047
284.038
283.993
284.089
284.333
284.651
284.955
285.2
285.374
285.489
285.558
285.596
285.613
285.62
285.619
285.616
285.612
285.607
285.602
285.597
285.592
285.588
285.583
285.578
285.574
285.569
285.565
285.561
285.556
285.552
285.548
285.544
285.54
285.536
285.532
285.528
285.524
285.519
285.515
285.511
285.507
285.503
285.499
285.495
285.491
285.487
285.483
285.479
285.475
285.471
285.467
285.463
285.459
285.455
285.451
285.447
285.443
285.439
285.435
285.431
285.427
285.423
285.419
285.415
285.411
285.407
285.403
285.399
285.395
285.391
285.387
285.383
285.379
285.375
285.371
285.367
285.363
285.36
285.355
285.353
285.347
285.345
285.34
285.337
285.334
285.33
285.325
283.015
283.373
283.751
283.867
283.768
283.655
283.686
283.861
284.111
284.355
284.554
284.696
284.791
284.847
284.878
284.892
284.897
284.896
284.893
284.889
284.884
284.879
284.874
284.87
284.865
284.861
284.856
284.852
284.848
284.843
284.839
284.835
284.831
284.827
284.823
284.819
284.815
284.811
284.807
284.803
284.799
284.795
284.791
284.787
284.782
284.778
284.774
284.77
284.766
284.762
284.758
284.754
284.75
284.746
284.742
284.738
284.734
284.73
284.726
284.722
284.718
284.714
284.71
284.706
284.702
284.698
284.694
284.69
284.686
284.682
284.678
284.674
284.67
284.666
284.662
284.658
284.654
284.65
284.646
284.642
284.638
284.633
284.63
284.625
284.623
284.618
284.614
284.612
284.607
284.601
283.212
283.521
283.754
283.754
283.624
283.525
283.555
283.688
283.867
284.032
284.165
284.256
284.316
284.35
284.368
284.375
284.376
284.374
284.37
284.366
284.361
284.357
284.352
284.347
284.343
284.339
284.334
284.33
284.326
284.322
284.318
284.314
284.31
284.306
284.302
284.298
284.294
284.29
284.286
284.282
284.278
284.274
284.27
284.266
284.262
284.258
284.254
284.25
284.246
284.242
284.238
284.234
284.23
284.226
284.222
284.218
284.214
284.21
284.206
284.202
284.198
284.194
284.19
284.186
284.182
284.178
284.174
284.17
284.166
284.162
284.158
284.154
284.15
284.146
284.142
284.138
284.134
284.13
284.126
284.122
284.118
284.114
284.111
284.106
284.103
284.099
284.094
284.092
284.087
284.082
283.409
283.553
283.632
283.575
283.482
283.438
283.478
283.568
283.672
283.76
283.828
283.873
283.901
283.916
283.923
283.924
283.922
283.919
283.916
283.911
283.908
283.903
283.899
283.895
283.891
283.887
283.884
283.88
283.876
283.872
283.869
283.865
283.862
283.858
283.855
283.851
283.847
283.844
283.84
283.837
283.833
283.83
283.826
283.822
283.819
283.815
283.812
283.808
283.805
283.801
283.798
283.794
283.791
283.787
283.784
283.78
283.777
283.773
283.77
283.766
283.763
283.759
283.755
283.752
283.748
283.745
283.741
283.738
283.734
283.731
283.728
283.724
283.721
283.717
283.714
283.71
283.707
283.703
283.7
283.696
283.693
283.69
283.687
283.683
283.68
283.676
283.673
283.671
283.666
283.662
283.372
283.386
283.395
283.362
283.333
283.325
283.345
283.375
283.408
283.432
283.451
283.461
283.467
283.469
283.469
283.467
283.465
283.463
283.46
283.457
283.454
283.451
283.448
283.445
283.443
283.44
283.438
283.435
283.433
283.43
283.428
283.426
283.424
283.422
283.419
283.417
283.415
283.413
283.411
283.409
283.407
283.405
283.403
283.401
283.4
283.398
283.396
283.394
283.392
283.39
283.389
283.387
283.385
283.384
283.382
283.38
283.379
283.377
283.376
283.374
283.372
283.371
283.369
283.368
283.366
283.365
283.363
283.362
283.36
283.359
283.357
283.356
283.354
283.353
283.352
283.35
283.349
283.347
283.346
283.345
283.343
283.342
283.341
283.339
283.338
283.337
283.336
283.335
283.333
283.332
285.568
287.069
287.864
288.411
288.939
289.451
289.932
290.315
290.602
290.787
290.905
290.97
291.006
291.02
291.026
291.025
291.023
291.018
291.013
291.008
291.003
290.998
290.994
290.989
290.984
290.979
290.975
290.97
290.966
290.961
290.957
290.953
290.949
290.944
290.94
290.936
290.932
290.928
290.924
290.919
290.915
290.911
290.907
290.903
290.898
290.894
290.89
290.886
290.882
290.878
290.874
290.869
290.865
290.861
290.857
290.853
290.849
290.845
290.841
290.837
290.832
290.828
290.824
290.82
290.816
290.812
290.808
290.804
290.8
290.796
290.792
290.787
290.783
290.779
290.775
290.771
290.767
290.763
290.759
290.755
290.752
290.747
290.745
290.739
290.739
290.729
290.735
290.72
290.729
290.728
284.147
285.359
286.147
286.666
287.117
287.573
288.035
288.444
288.77
288.999
289.15
289.24
289.292
289.317
289.329
289.331
289.33
289.326
289.322
289.317
289.312
289.307
289.302
289.298
289.293
289.288
289.284
289.279
289.275
289.27
289.266
289.262
289.257
289.253
289.249
289.244
289.24
289.236
289.232
289.227
289.223
289.219
289.215
289.21
289.206
289.202
289.197
289.193
289.189
289.185
289.181
289.176
289.172
289.168
289.164
289.16
289.155
289.151
289.147
289.143
289.139
289.134
289.13
289.126
289.122
289.118
289.114
289.109
289.105
289.101
289.097
289.093
289.089
289.085
289.08
289.076
289.072
289.068
289.064
289.06
289.056
289.051
289.049
289.042
289.042
289.033
289.037
289.025
289.028
289.027
283.455
284.257
284.971
285.407
285.722
286.035
286.421
286.819
287.181
287.458
287.657
287.781
287.858
287.898
287.918
287.925
287.926
287.922
287.918
287.913
287.908
287.903
287.898
287.893
287.888
287.883
287.878
287.874
287.869
287.865
287.86
287.856
287.851
287.847
287.843
287.838
287.834
287.83
287.826
287.821
287.817
287.813
287.808
287.804
287.8
287.796
287.791
287.787
287.783
287.779
287.774
287.77
287.766
287.762
287.758
287.754
287.749
287.745
287.741
287.737
287.733
287.729
287.724
287.72
287.716
287.712
287.708
287.704
287.699
287.695
287.691
287.687
287.683
287.679
287.675
287.671
287.667
287.663
287.659
287.655
287.651
287.646
287.644
287.638
287.638
287.629
287.631
287.623
287.622
287.62
283.072
283.592
284.178
284.521
284.68
284.828
285.086
285.428
285.786
286.09
286.319
286.473
286.57
286.626
286.655
286.668
286.671
286.67
286.667
286.662
286.657
286.653
286.648
286.643
286.638
286.634
286.629
286.625
286.62
286.616
286.611
286.607
286.603
286.599
286.594
286.59
286.586
286.582
286.578
286.574
286.569
286.565
286.561
286.557
286.553
286.548
286.544
286.54
286.536
286.532
286.528
286.524
286.519
286.515
286.511
286.507
286.503
286.499
286.495
286.491
286.487
286.483
286.478
286.474
286.47
286.466
286.462
286.458
286.454
286.45
286.446
286.442
286.438
286.434
286.43
286.425
286.421
286.417
286.413
286.409
286.406
286.401
286.398
286.392
286.391
286.385
286.383
286.379
286.375
286.371
283.067
283.425
283.908
284.14
284.171
284.174
284.314
284.572
284.887
285.17
285.395
285.549
285.65
285.708
285.74
285.754
285.758
285.757
285.754
285.749
285.744
285.739
285.734
285.729
285.724
285.72
285.715