/*--------------------------------*- C++ -*----------------------------------*\
  =========                 |
  \\      /  F ield         | OpenFOAM: The Open Source CFD Toolbox
   \\    /   O peration     | Website:  https://openfoam.org
    \\  /    A nd           | Version:  7
     \\/     M anipulation  |
\*---------------------------------------------------------------------------*/
FoamFile
{
    version     2.0;
    format      ascii;
    class       volScalarField;
    location    "0.25";
    object      p;
}
// * * * * * * * * * * * * * * * * * * * * * * * * * * * * * * * * * * * * * //

dimensions      [1 -1 -2 0 0 0 0];

internalField   nonuniform List<scalar> 
3000
(
102331
102250
102280
102258
102258
102251
102244
102238
102227
102225
102186
102100
102130
102108
102108
102100
102093
102087
102075
102073
102239
102168
102197
102175
102175
102168
102161
102155
102144
102142
102199
102116
102144
102122
102122
102115
102107
102102
102090
102088
102220
102148
102177
102155
102155
102148
102140
102135
102123
102122
102210
102133
102161
102139
102139
102132
102124
102119
102107
102105
102210
102133
102161
102139
102139
102132
102124
102119
102107
102105
102220
102148
102177
102155
102155
102148
102140
102135
102123
102122
102199
102116
102144
102122
102122
102115
102107
102102
102090
102088
102239
102168
102197
102175
102175
102168
102161
102155
102144
102142
102186
102100
102130
102108
102108
102100
102093
102087
102075
102073
102331
102250
102280
102258
102258
102251
102244
102238
102227
102225
102091
102118
102094
102094
102090
102087
102085
102083
102085
102081
102229
102262
102240
102240
102236
102233
102231
102230
102232
102229
102135
102160
102134
102135
102131
102128
102126
102124
102126
102123
102196
102231
102210
102210
102206
102202
102200
102199
102201
102199
102159
102187
102163
102162
102158
102155
102153
102151
102153
102150
102176
102208
102185
102186
102181
102178
102176
102174
102177
102174
102176
102208
102185
102186
102181
102178
102176
102174
102177
102174
102159
102187
102163
102162
102158
102155
102153
102151
102153
102150
102196
102231
102210
102210
102206
102202
102200
102199
102201
102199
102135
102160
102134
102135
102131
102128
102126
102124
102126
102123
102229
102262
102240
102240
102236
102233
102231
102230
102232
102229
102091
102118
102094
102094
102090
102087
102085
102083
102085
102081
102174
102173
102165
102165
102162
102160
102158
102156
102152
102149
102175
102174
102166
102167
102164
102161
102159
102157
102153
102151
102173
102172
102164
102164
102161
102159
102157
102155
102151
102149
102174
102174
102166
102167
102164
102161
102159
102157
102153
102151
102173
102173
102165
102165
102162
102160
102158
102155
102152
102149
102174
102174
102165
102166
102163
102161
102158
102156
102152
102150
102174
102174
102165
102166
102163
102161
102158
102156
102152
102150
102173
102173
102165
102165
102162
102160
102158
102155
102152
102149
102174
102174
102166
102167
102164
102161
102159
102157
102153
102151
102173
102172
102164
102164
102161
102159
102157
102155
102151
102149
102175
102174
102166
102167
102164
102161
102159
102157
102153
102151
102174
102173
102165
102165
102162
102160
102158
102156
102152
102149
102091
102118
102094
102094
102090
102087
102085
102083
102085
102081
102229
102262
102240
102240
102236
102233
102231
102230
102232
102229
102135
102160
102134
102135
102131
102128
102126
102124
102126
102123
102196
102231
102210
102210
102206
102202
102200
102199
102201
102199
102159
102187
102163
102162
102158
102155
102153
102151
102153
102150
102176
102208
102185
102186
102181
102178
102176
102174
102177
102174
102176
102208
102185
102186
102181
102178
102176
102174
102177
102174
102159
102187
102163
102162
102158
102155
102153
102151
102153
102150
102196
102231
102210
102210
102206
102202
102200
102199
102201
102199
102135
102160
102134
102135
102131
102128
102126
102124
102126
102123
102229
102262
102240
102240
102236
102233
102231
102230
102232
102229
102091
102118
102094
102094
102090
102087
102085
102083
102085
102081
102331
102250
102280
102258
102258
102251
102244
102238
102227
102225
102186
102100
102130
102108
102108
102100
102093
102087
102075
102073
102239
102168
102197
102175
102175
102168
102161
102155
102144
102142
102199
102116
102144
102122
102122
102115
102107
102102
102090
102088
102220
102148
102177
102155
102155
102148
102140
102135
102123
102122
102210
102133
102161
102139
102139
102132
102124
102119
102107
102105
102210
102133
102161
102139
102139
102132
102124
102119
102107
102105
102220
102148
102177
102155
102155
102148
102140
102135
102123
102122
102199
102116
102144
102122
102122
102115
102107
102102
102090
102088
102239
102168
102197
102175
102175
102168
102161
102155
102144
102142
102186
102100
102130
102108
102108
102100
102093
102087
102075
102073
102331
102250
102280
102258
102258
102251
102244
102238
102227
102225
102391
102310
102265
102204
102158
102105
102058
102008
101959
101910
101861
101811
101761
101710
101660
101609
101557
101505
101453
101401
101348
101295
101241
101188
101134
101080
101026
100972
100917
100863
100808
100753
100698
100642
100587
100531
100475
100419
100363
100308
102049
101965
101920
101859
101813
101761
101713
101663
101615
101566
101517
101467
101418
101367
101317
101266
101215
101163
101111
101059
101006
100953
100900
100847
100793
100740
100686
100631
100577
100523
100468
100413
100358
100303
100248
100192
100137
100081
100026
99970.7
102174
102093
102047
101986
101941
101888
101840
101790
101742
101693
101644
101594
101544
101494
101443
101392
101341
101289
101237
101185
101132
101079
101026
100973
100919
100865
100811
100757
100703
100648
100594
100539
100484
100429
100373
100318
100262
100206
100151
100095
102081
101997
101951
101891
101845
101792
101745
101695
101647
101598
101549
101499
101449
101399
101348
101297
101246
101194
101142
101090
101038
100985
100932
100878
100825
100771
100717
100663
100609
100554
100499
100445
100390
100335
100279
100224
100168
100112
100057
100002
102127
102044
101999
101938
101892
101839
101792
101742
101694
101645
101596
101546
101496
101446
101395
101344
101293
101241
101189
101137
101084
101032
100978
100925
100871
100818
100764
100709
100655
100601
100546
100491
100436
100381
100326
100270
100214
100158
100103
100048
102105
102022
101976
101915
101870
101817
101770
101720
101672
101622
101573
101524
101474
101424
101373
101322
101271
101219
101167
101115
101062
101009
100956
100903
100849
100795
100741
100687
100633
100578
100524
100469
100414
100359
100304
100248
100192
100137
100081
100026
102105
102022
101976
101915
101870
101817
101770
101720
101672
101622
101573
101524
101474
101424
101373
101322
101271
101219
101167
101115
101062
101009
100956
100903
100849
100795
100741
100687
100633
100578
100524
100469
100414
100359
100304
100248
100192
100137
100081
100026
102127
102044
101999
101938
101892
101839
101792
101742
101694
101645
101596
101546
101496
101446
101395
101344
101293
101241
101189
101137
101084
101032
100978
100925
100871
100818
100764
100709
100655
100601
100546
100491
100436
100381
100326
100270
100214
100158
100103
100048
102081
101997
101952
101891
101845
101793
101745
101695
101647
101598
101549
101499
101449
101399
101349
101298
101246
101195
101143
101090
101038
100985
100932
100879
100825
100771
100717
100663
100609
100554
100500
100445
100390
100335
100279
100224
100168
100112
100057
100002
102174
102093
102047
101986
101941
101888
101840
101790
101742
101693
101644
101594
101544
101494
101443
101392
101341
101289
101237
101185
101132
101079
101026
100973
100919
100865
100811
100757
100703
100648
100594
100539
100484
100429
100373
100318
100262
100206
100151
100095
102049
101966
101920
101859
101814
101761
101714
101664
101616
101566
101517
101468
101418
101368
101317
101266
101215
101163
101111
101059
101006
100954
100901
100847
100794
100740
100686
100632
100577
100523
100468
100414
100359
100304
100248
100193
100137
100081
100026
99971
102391
102309
102264
102203
102157
102104
102057
102007
101958
101909
101860
101810
101760
101710
101659
101608
101556
101504
101452
101400
101347
101294
101241
101187
101133
101079
101025
100971
100916
100862
100807
100752
100697
100642
100586
100530
100474
100418
100363
100307
101933
101865
101831
101772
101727
101675
101628
101578
101530
101481
101432
101382
101333
101283
101232
101181
101130
101078
101026
100974
100922
100869
100816
100763
100709
100655
100601
100547
100493
100439
100384
100330
100275
100220
100164
100109
100053
99997
99939.9
99883.7
102276
102210
102176
102117
102072
102020
101972
101922
101874
101825
101776
101726
101676
101626
101575
101524
101472
101420
101368
101316
101263
101210
101157
101104
101050
100996
100942
100887
100833
100778
100724
100669
100614
100558
100503
100447
100391
100335
100278
100221
102063
101994
101960
101902
101857
101805
101757
101707
101659
101610
101561
101511
101462
101411
101361
101310
101258
101207
101155
101102
101050
100997
100944
100890
100837
100783
100729
100675
100621
100566
100512
100457
100402
100347
100291
100236
100180
100124
100067
100010
102194
102126
102092
102034
101989
101937
101889
101839
101791
101742
101693
101643
101593
101543
101492
101441
101390
101338
101286
101233
101181
101128
101075
101021
100968
100914
100860
100805
100751
100696
100642
100587
100532
100477
100421
100366
100309
100253
100196
100140
102120
102051
102017
101959
101914
101862
101814
101764
101716
101667
101618
101568
101518
101468
101417
101366
101315
101263
101211
101159
101106
101054
101000
100947
100893
100840
100786
100731
100677
100622
100568
100513
100458
100403
100347
100292
100236
100180
100123
100066
102154
102085
102051
101993
101948
101896
101848
101798
101750
101701
101652
101602
101552
101502
101451
101400
101349
101297
101245
101193
101140
101087
101034
100981
100927
100873
100819
100765
100711
100656
100601
100547
100492
100436
100381
100325
100269
100213
100156
100099
102154
102085
102051
101993
101948
101896
101848
101798
101750
101701
101652
101602
101552
101502
101451
101400
101349
101297
101245
101193
101140
101087
101034
100981
100927
100873
100819
100765
100710
100656
100601
100546
100491
100436
100381
100325
100269
100213
100156
100099
102120
102051
102017
101959
101914
101862
101814
101764
101716
101667
101618
101568
101518
101468
101418
101366
101315
101263
101211
101159
101106
101054
101000
100947
100893
100840
100786
100731
100677
100623
100568
100513
100458
100403
100347
100292
100236
100180
100123
100066
102194
102126
102092
102034
101989
101936
101889
101839
101791
101741
101692
101643
101593
101543
101492
101441
101389
101338
101286
101233
101181
101128
101074
101021
100967
100913
100859
100805
100751
100696
100642
100587
100532
100476
100421
100365
100309
100253
100196
100139
102063
101994
101960
101902
101857
101805
101757
101708
101659
101610
101561
101511
101462
101411
101361
101310
101258
101207
101155
101102
101050
100997
100944
100891
100837
100783
100729
100675
100621
100566
100512
100457
100402
100347
100291
100236
100180
100124
100067
100010
102276
102209
102175
102116
102071
102019
101972
101922
101873
101824
101775
101725
101675
101625
101574
101523
101472
101420
101368
101315
101263
101210
101156
101103
101049
100995
100941
100887
100832
100778
100723
100668
100613
100558
100502
100446
100390
100334
100277
100220
101933
101865
101831
101773
101728
101676
101628
101579
101531
101481
101432
101383
101333
101283
101232
101182
101130
101079
101027
100975
100922
100869
100816
100763
100710
100656
100602
100548
100494
100439
100385
100330
100275
100220
100165
100109
100053
99997.5
99940.4
99884.2
102122
102049
102015
101958
101913
101862
101814
101764
101716
101667
101618
101568
101518
101468
101417
101366
101315
101263
101211
101159
101106
101054
101000
100947
100893
100840
100785
100731
100677
100622
100568
100513
100458
100403
100347
100292
100236
100179
100122
100065
102132
102059
102026
101968
101924
101872
101825
101775
101727
101677
101628
101579
101529
101478
101428
101377
101325
101274
101222
101169
101117
101064
101011
100957
100904
100850
100796
100742
100687
100633
100578
100523
100468
100413
100358
100302
100246
100190
100132
100075
102119
102046
102012
101955
101910
101858
101811
101761
101713
101664
101615
101565
101515
101465
101414
101363
101312
101260
101208
101156
101103
101050
100997
100944
100890
100836
100782
100728
100674
100619
100565
100510
100455
100400
100344
100289
100232
100176
100118
100062
102132
102059
102025
101968
101924
101872
101824
101775
101726
101677
101628
101578
101529
101478
101428
101376
101325
101273
101221
101169
101116
101064
101010
100957
100903
100850
100795
100741
100687
100632
100578
100523
100468
100413
100357
100302
100246
100189
100132
100075
102123
102050
102016
101959
101914
101863
101815
101765
101717
101668
101619
101569
101519
101469
101418
101367
101316
101264
101212
101160
101107
101055
101001
100948
100894
100840
100786
100732
100678
100623
100569
100514
100459
100404
100348
100293
100237
100180
100123
100066
102128
102055
102021
101964
101919
101868
101820
101771
101722
101673
101624
101574
101524
101474
101423
101372
101321
101269
101217
101165
101112
101060
101006
100953
100899
100845
100791
100737
100683
100628
100574
100519
100464
100409
100353
100298
100242
100185
100128
100071
102128
102055
102021
101964
101919
101868
101820
101770
101722
101673
101624
101574
101524
101474
101423
101372
101321
101269
101217
101165
101112
101059
101006
100953
100899
100845
100791
100737
100683
100628
100574
100519
100464
100409
100353
100298
100241
100185
100127
100071
102123
102050
102016
101959
101914
101863
101815
101766
101717
101668
101619
101569
101519
101469
101419
101367
101316
101264
101212
101160
101107
101055
101001
100948
100894
100841
100787
100732
100678
100623
100569
100514
100459
100404
100348
100293
100237
100181
100123
100066
102132
102059
102025
101968
101924
101872
101824
101775
101726
101677
101628
101578
101528
101478
101427
101376
101325
101273
101221
101169
101116
101063
101010
100957
100903
100849
100795
100741
100687
100632
100578
100523
100468
100413
100357
100302
100245
100189
100131
100075
102119
102046
102012
101955
101910
101858
101811
101761
101713
101664
101615
101565
101515
101465
101414
101363
101312
101260
101208
101156
101103
101050
100997
100944
100890
100836
100782
100728
100674
100619
100565
100510
100455
100400
100344
100289
100233
100176
100119
100062
102132
102059
102026
101968
101924
101872
101825
101775
101726
101677
101628
101579
101529
101478
101428
101377
101325
101274
101222
101169
101117
101064
101011
100957
100904
100850
100796
100742
100687
100633
100578
100523
100468
100413
100358
100302
100246
100190
100132
100075
102122
102049
102015
101958
101913
101862
101814
101764
101716
101667
101618
101568
101518
101468
101417
101366
101315
101263
101211
101159
101106
101054
101000
100947
100893
100840
100785
100731
100677
100622
100568
100513
100458
100403
100347
100292
100236
100180
100122
100065
101933
101865
101831
101772
101727
101675
101628
101578
101530
101481
101432
101382
101333
101283
101232
101181
101130
101078
101026
100974
100922
100869
100816
100763
100709
100655
100601
100547
100493
100439
100384
100330
100275
100220
100164
100109
100053
99997
99939.9
99883.7
102276
102210
102176
102117
102072
102020
101972
101922
101874
101825
101776
101726
101676
101626
101575
101524
101472
101420
101368
101316
101263
101210
101157
101104
101050
100996
100942
100887
100833
100778
100724
100669
100614
100558
100503
100447
100391
100335
100278
100221
102063
101994
101960
101902
101857
101805
101757
101707
101659
101610
101561
101511
101462
101411
101361
101310
101258
101207
101155
101102
101050
100997
100944
100890
100837
100783
100729
100675
100621
100566
100512
100457
100402
100347
100291
100236
100180
100124
100067
100010
102194
102126
102092
102034
101989
101937
101889
101839
101791
101742
101693
101643
101593
101543
101492
101441
101390
101338
101286
101233
101181
101128
101075
101021
100968
100914
100860
100805
100751
100696
100642
100587
100532
100477
100421
100366
100309
100253
100196
100140
102120
102051
102017
101959
101914
101862
101814
101764
101716
101667
101618
101568
101518
101468
101417
101366
101315
101263
101211
101159
101106
101054
101000
100947
100893
100840
100786
100731
100677
100622
100568
100513
100458
100403
100347
100292
100236
100180
100123
100066
102154
102085
102051
101993
101948
101896
101848
101798
101750
101701
101652
101602
101552
101502
101451
101400
101349
101297
101245
101193
101140
101087
101034
100981
100927
100873
100819
100765
100711
100656
100601
100547
100492
100436
100381
100325
100269
100213
100156
100099
102154
102085
102051
101993
101948
101896
101848
101798
101750
101701
101652
101602
101552
101502
101451
101400
101349
101297
101245
101193
101140
101087
101034
100981
100927
100873
100819
100765
100710
100656
100601
100546
100491
100436
100381
100325
100269
100213
100156
100099
102120
102051
102017
101959
101914
101862
101814
101764
101716
101667
101618
101568
101518
101468
101418
101366
101315
101263
101211
101159
101106
101054
101000
100947
100893
100840
100786
100731
100677
100623
100568
100513
100458
100403
100347
100292
100236
100180
100123
100066
102194
102126
102092
102034
101989
101936
101889
101839
101791
101741
101692
101643
101593
101543
101492
101441
101389
101338
101286
101233
101181
101128
101074
101021
100967
100913
100859
100805
100751
100696
100642
100587
100532
100476
100421
100365
100309
100253
100196
100139
102063
101994
101960
101902
101857
101805
101757
101708
101659
101610
101561
101511
101462
101411
101361
101310
101258
101207
101155
101102
101050
100997
100944
100891
100837
100783
100729
100675
100621
100566
100512
100457
100402
100347
100291
100236
100180
100124
100067
100010
102276
102209
102175
102116
102071
102019
101972
101922
101873
101824
101775
101725
101675
101625
101574
101523
101472
101420
101368
101315
101263
101210
101156
101103
101049
100995
100941
100887
100832
100778
100723
100668
100613
100558
100502
100446
100390
100334
100277
100220
101933
101865
101831
101773
101728
101676
101628
101579
101531
101481
101432
101383
101333
101283
101232
101182
101130
101079
101027
100975
100922
100869
100816
100763
100710
100656
100602
100548
100494
100439
100385
100330
100275
100220
100165
100109
100053
99997.5
99940.4
99884.2
102391
102310
102265
102204
102158
102105
102058
102008
101959
101910
101861
101811
101761
101710
101660
101609
101557
101505
101453
101401
101348
101295
101241
101188
101134
101080
101026
100972
100917
100863
100808
100753
100698
100642
100587
100531
100475
100419
100363
100308
102049
101965
101920
101859
101813
101761
101713
101663
101615
101566
101517
101467
101418
101367
101317
101266
101215
101163
101111
101059
101006
100953
100900
100847
100793
100740
100686
100631
100577
100523
100468
100413
100358
100303
100248
100192
100137
100081
100026
99970.7
102174
102093
102047
101986
101941
101888
101840
101790
101742
101693
101644
101594
101544
101494
101443
101392
101341
101289
101237
101185
101132
101079
101026
100973
100919
100865
100811
100757
100703
100648
100594
100539
100484
100429
100373
100318
100262
100206
100151
100095
102081
101997
101951
101891
101845
101792
101745
101695
101647
101598
101549
101499
101449
101399
101348
101297
101246
101194
101142
101090
101038
100985
100932
100878
100825
100771
100717
100663
100609
100554
100499
100445
100390
100335
100279
100224
100168
100112
100057
100002
102127
102044
101999
101938
101892
101839
101792
101742
101694
101645
101596
101546
101496
101446
101395
101344
101293
101241
101189
101137
101084
101032
100978
100925
100871
100818
100764
100709
100655
100601
100546
100491
100436
100381
100326
100270
100214
100158
100103
100048
102105
102022
101976
101915
101870
101817
101770
101720
101672
101622
101573
101524
101474
101424
101373
101322
101271
101219
101167
101115
101062
101009
100956
100903
100849
100795
100741
100687
100633
100578
100524
100469
100414
100359
100304
100248
100192
100137
100081
100026
102105
102022
101976
101915
101870
101817
101770
101720
101672
101622
101573
101524
101474
101424
101373
101322
101271
101219
101167
101115
101062
101009
100956
100903
100849
100795
100741
100687
100633
100578
100524
100469
100414
100359
100304
100248
100192
100137
100081
100026
102127
102044
101999
101938
101892
101839
101792
101742
101694
101645
101596
101546
101496
101446
101395
101344
101293
101241
101189
101137
101084
101032
100978
100925
100871
100818
100764
100709
100655
100601
100546
100491
100436
100381
100326
100270
100214
100158
100103
100048
102081
101997
101952
101891
101845
101793
101745
101695
101647
101598
101549
101499
101449
101399
101349
101298
101246
101195
101143
101090
101038
100985
100932
100879
100825
100771
100717
100663
100609
100554
100500
100445
100390
100335
100279
100224
100168
100112
100057
100002
102174
102093
102047
101986
101941
101888
101840
101790
101742
101693
101644
101594
101544
101494
101443
101392
101341
101289
101237
101185
101132
101079
101026
100973
100919
100865
100811
100757
100703
100648
100594
100539
100484
100429
100373
100318
100262
100206
100151
100095
102049
101966
101920
101859
101814
101761
101714
101664
101616
101566
101517
101468
101418
101368
101317
101266
101215
101163
101111
101059
101006
100954
100901
100847
100794
100740
100686
100632
100577
100523
100468
100414
100359
100304
100248
100193
100137
100081
100026
99971
102391
102309
102264
102203
102157
102104
102057
102007
101958
101909
101860
101810
101760
101710
101659
101608
101556
101504
101452
101400
101347
101294
101241
101187
101133
101079
101025
100971
100916
100862
100807
100752
100697
100642
100586
100530
100474
100418
100363
100307
)
;

boundaryField
{
    upperWall
    {
        type            zeroGradient;
    }
    lowerWall
    {
        type            zeroGradient;
    }
    heatedWall
    {
        type            zeroGradient;
    }
    inlet
    {
        type            zeroGradient;
    }
    outlet
    {
        type            waveTransmissive;
        gamma           1.3;
        fieldInf        100000;
        lInf            0.3;
        value           nonuniform List<scalar> 
60
(
100176
99983.3
100054
100001
100027
100015
100015
100027
100001
100054
99983.5
100176
99933.6
100126
100006
100080
100038
100057
100057
100038
100080
100006
100126
99933.9
100037
100043
100035
100043
100038
100041
100041
100038
100043
100035
100043
100037
99933.6
100126
100006
100080
100038
100057
100057
100038
100080
100006
100126
99933.9
100176
99983.3
100054
100001
100027
100015
100015
100027
100001
100054
99983.5
100176
)
;
    }
    frontAndBack
    {
        type            empty;
    }
}


// ************************************************************************* //
