/*--------------------------------*- C++ -*----------------------------------*\
  =========                 |
  \\      /  F ield         | OpenFOAM: The Open Source CFD Toolbox
   \\    /   O peration     | Website:  https://openfoam.org
    \\  /    A nd           | Version:  7
     \\/     M anipulation  |
\*---------------------------------------------------------------------------*/
FoamFile
{
    version     2.0;
    format      ascii;
    class       volScalarField;
    location    "4.9";
    object      alphat;
}
// * * * * * * * * * * * * * * * * * * * * * * * * * * * * * * * * * * * * * //

dimensions      [1 -1 -1 0 0 0 0];

internalField   nonuniform List<scalar> 
12000
(
0.107277
0.107048
0.10694
0.106882
0.106855
0.106833
0.106821
0.106802
0.106859
0.106924
0.0935376
0.0937097
0.0936002
0.0935729
0.0935573
0.093545
0.0935374
0.0935251
0.0935633
0.0936047
0.09201
0.0921797
0.0920541
0.0920314
0.0920151
0.0920036
0.0919964
0.0919845
0.092022
0.0920632
0.0923196
0.0925449
0.0924544
0.0924385
0.0924242
0.0924139
0.0924064
0.0923955
0.0924217
0.0924695
0.0921557
0.0923887
0.0922981
0.0922856
0.0922724
0.0922629
0.0922554
0.0922453
0.0922679
0.0923185
0.0921952
0.0924311
0.0923552
0.0923457
0.0923334
0.0923244
0.0923168
0.0923073
0.0923263
0.0923797
0.0921954
0.0924313
0.0923555
0.0923459
0.0923336
0.0923246
0.092317
0.0923074
0.0923265
0.0923795
0.0921548
0.092388
0.0922975
0.0922851
0.0922721
0.0922624
0.0922548
0.0922444
0.0922668
0.0923163
0.0923198
0.0925452
0.0924552
0.0924393
0.0924251
0.0924147
0.0924069
0.0923954
0.0924216
0.092468
0.0920093
0.0921787
0.0920535
0.0920309
0.0920147
0.092003
0.0919955
0.0919829
0.0920202
0.0920594
0.0935373
0.0937097
0.0936008
0.0935736
0.0935581
0.0935455
0.0935375
0.0935244
0.0935625
0.0936018
0.107276
0.107048
0.10694
0.106882
0.106856
0.106832
0.10682
0.1068
0.106858
0.106919
0.0834985
0.0836907
0.0835359
0.0834739
0.0834505
0.0834281
0.0834167
0.0833987
0.0834669
0.0835306
0.0888495
0.0892678
0.0891673
0.08912
0.0891033
0.0890854
0.0890748
0.0890589
0.0891055
0.0891574
0.0883648
0.0889883
0.0889646
0.0889331
0.0889227
0.0889086
0.088899
0.0888859
0.0889029
0.0889441
0.0885686
0.0891203
0.0891286
0.0891024
0.0890962
0.0890831
0.0890731
0.0890603
0.0890625
0.089107
0.0884792
0.08915
0.0891955
0.0891812
0.0891792
0.0891685
0.0891592
0.0891487
0.0891381
0.0891849
0.0884737
0.0891003
0.0891528
0.0891397
0.0891394
0.0891292
0.08912
0.0891106
0.0890971
0.0891458
0.0884734
0.0891002
0.0891525
0.0891393
0.0891388
0.0891286
0.0891195
0.08911
0.0890967
0.0891451
0.088479
0.0891497
0.0891955
0.0891814
0.0891798
0.0891688
0.0891593
0.0891484
0.0891374
0.0891831
0.088568
0.0891198
0.0891286
0.0891024
0.0890962
0.089083
0.0890727
0.0890593
0.0890618
0.0891049
0.0883638
0.0889872
0.0889641
0.0889326
0.0889222
0.0889078
0.0888981
0.0888842
0.0889013
0.0889405
0.088849
0.0892675
0.0891674
0.0891202
0.0891035
0.0890852
0.0890745
0.0890576
0.0891046
0.0891538
0.0834978
0.0836901
0.0835358
0.0834738
0.0834505
0.0834276
0.0834162
0.083397
0.083466
0.0835262
0.0362727
0.0363573
0.0363515
0.0363183
0.0363098
0.0362979
0.0362903
0.0362788
0.0362872
0.0363282
0.0394527
0.0395778
0.0396728
0.039637
0.0396349
0.0396217
0.0396097
0.0395943
0.039568
0.0396158
0.0392857
0.0393738
0.0395579
0.0395316
0.039534
0.0395228
0.039511
0.0394973
0.0394377
0.0394835
0.0386917
0.0389966
0.0390799
0.0390698
0.0390712
0.0390643
0.0390572
0.0390493
0.0390229
0.0390719
0.0387997
0.0390538
0.0391611
0.0391546
0.0391593
0.039155
0.0391486
0.0391435
0.0391093
0.0391602
0.0387121
0.0390008
0.0391071
0.0391065
0.0391126
0.0391084
0.039102
0.039098
0.0390622
0.0391155
0.0387123
0.0390009
0.039107
0.0391064
0.0391125
0.0391083
0.039102
0.039098
0.0390623
0.0391153
0.0387993
0.0390536
0.0391605
0.0391544
0.0391592
0.0391547
0.0391485
0.0391432
0.0391089
0.0391591
0.0386918
0.0389967
0.0390802
0.03907
0.0390714
0.0390646
0.0390571
0.0390489
0.0390229
0.0390709
0.0392853
0.0393731
0.0395577
0.0395315
0.0395338
0.0395225
0.0395108
0.0394966
0.0394373
0.0394818
0.0394527
0.039578
0.0396729
0.0396372
0.039635
0.0396216
0.0396096
0.0395937
0.0395677
0.0396138
0.0362725
0.0363572
0.0363515
0.0363184
0.0363099
0.0362977
0.0362902
0.0362781
0.0362871
0.0363258
0.0156189
0.0157397
0.0157609
0.0157373
0.0157339
0.0157256
0.0157192
0.0157104
0.0157035
0.0157337
0.0176295
0.0178301
0.0179063
0.017881
0.0178829
0.0178738
0.0178638
0.017852
0.0178244
0.0178643
0.0171844
0.0172985
0.0174116
0.0173904
0.0173944
0.0173853
0.0173748
0.0173646
0.0173184
0.0173629
0.0169283
0.0171827
0.0172527
0.0172375
0.0172437
0.0172369
0.0172272
0.0172201
0.0171851
0.0172326
0.0169675
0.0171851
0.0172583
0.0172487
0.0172566
0.017253
0.0172451
0.0172413
0.0172029
0.0172502
0.0168907
0.0171251
0.0171997
0.0171899
0.0171989
0.0171943
0.0171859
0.0171837
0.0171479
0.0171994
0.0168908
0.0171252
0.0171997
0.0171899
0.0171989
0.0171942
0.0171859
0.0171836
0.0171479
0.0171993
0.0169672
0.0171849
0.0172582
0.0172486
0.0172566
0.0172529
0.0172452
0.0172414
0.0172028
0.0172496
0.0169284
0.0171828
0.0172527
0.0172374
0.0172436
0.0172369
0.0172267
0.0172195
0.0171852
0.0172319
0.0171843
0.0172984
0.0174118
0.0173906
0.0173946
0.0173854
0.0173748
0.0173643
0.0173186
0.017362
0.0176296
0.0178301
0.0179063
0.0178809
0.0178829
0.0178736
0.0178637
0.0178515
0.0178243
0.017863
0.0156188
0.0157397
0.015761
0.0157373
0.0157339
0.0157255
0.0157192
0.01571
0.0157037
0.0157321
0.00670181
0.00687194
0.00688151
0.00686098
0.00685786
0.00685066
0.00684461
0.00683743
0.00683165
0.00685714
0.00768188
0.00791262
0.00794551
0.00792588
0.00792559
0.00791731
0.00790911
0.00790081
0.00788232
0.00792192
0.00740552
0.00758181
0.00763777
0.00762621
0.00762923
0.00762289
0.00761513
0.007609
0.00758193
0.00762982
0.00736653
0.00765954
0.0076878
0.00767153
0.0076758
0.00766956
0.00766016
0.00765531
0.00763298
0.00767837
0.00732918
0.00758049
0.00759441
0.00758515
0.00759176
0.00758953
0.00758288
0.00758233
0.00755743
0.00760493
0.00732006
0.00759623
0.00761902
0.00760334
0.00760928
0.0076048
0.0075956
0.0075949
0.00757299
0.00762041
0.00732006
0.00759622
0.00761898
0.00760331
0.00760928
0.00760479
0.0075956
0.00759485
0.00757302
0.00762029
0.00732913
0.00758044
0.00759449
0.00758518
0.00759182
0.00758947
0.00758304
0.00758232
0.00755746
0.00760463
0.00736655
0.00765951
0.00768778
0.00767148
0.0076758
0.00766953
0.00766016
0.00765513
0.00763306
0.00767795
0.0074055
0.00758184
0.00763782
0.00762624
0.00762928
0.00762287
0.00761519
0.00760881
0.0075821
0.0076291
0.00768184
0.00791261
0.00794556
0.00792589
0.00792564
0.00791725
0.00790918
0.00790057
0.00788256
0.00792103
0.00670179
0.00687194
0.00688156
0.00686098
0.00685791
0.00685057
0.00684469
0.00683719
0.00683197
0.006856
0.00287349
0.00309594
0.00307876
0.00305248
0.00304646
0.00303653
0.00302788
0.00302018
0.00301772
0.00304154
0.00325293
0.00351399
0.00352301
0.00351393
0.00351169
0.00350443
0.00349793
0.00349261
0.00348246
0.00352704
0.00313685
0.00337331
0.00338182
0.00337153
0.00337119
0.0033649
0.00335875
0.0033567
0.00334202
0.00339271
0.00312433
0.00340114
0.00340649
0.00339842
0.00340073
0.00339707
0.00339083
0.00338991
0.00337818
0.00342758
0.00309519
0.00335249
0.00335063
0.00334526
0.00334781
0.00334576
0.00334073
0.00334255
0.00333071
0.00338081
0.00309733
0.00338399
0.0033805
0.00336556
0.00336527
0.00336153
0.00335475
0.00335597
0.00334657
0.00339483
0.00309731
0.00338398
0.00338052
0.00336556
0.00336528
0.00336154
0.00335477
0.00335596
0.0033466
0.00339474
0.0030952
0.00335247
0.00335064
0.00334526
0.00334784
0.00334575
0.00334078
0.00334253
0.00333079
0.00338061
0.00312434
0.00340116
0.00340654
0.00339843
0.00340078
0.00339707
0.00339091
0.00338985
0.00337835
0.00342725
0.00313686
0.00337332
0.00338186
0.00337155
0.00337124
0.00336489
0.00335885
0.0033566
0.00334225
0.00339215
0.00325295
0.003514
0.00352306
0.00351395
0.00351178
0.00350441
0.00349807
0.00349246
0.00348284
0.00352629
0.00287351
0.00309597
0.00307883
0.00305252
0.00304655
0.00303653
0.00302806
0.00302007
0.0030182
0.00304071
0.00132754
0.00152227
0.00148955
0.00145336
0.00144483
0.00143371
0.00142324
0.00141881
0.00141225
0.00144097
0.0013256
0.00158528
0.00158991
0.0015992
0.00159666
0.00159303
0.00159013
0.00159075
0.00158398
0.00163262
0.00127428
0.00151948
0.00152262
0.00152628
0.00152667
0.00152448
0.00152181
0.0015248
0.00151909
0.00156453
0.00125726
0.00150508
0.0015121
0.00151248
0.00151355
0.00151304
0.00151123
0.00151562
0.00151185
0.00156046
0.00124903
0.00149208
0.00149418
0.00149605
0.00149465
0.00149257
0.00148953
0.00149323
0.00149017
0.00153534
0.00124415
0.00149725
0.00150313
0.00149883
0.00149495
0.0014916
0.00148741
0.00149027
0.00148785
0.00153245
0.00124415
0.00149725
0.00150315
0.00149883
0.00149496
0.0014916
0.00148743
0.00149027
0.00148787
0.0015324
0.00124903
0.00149203
0.00149421
0.00149609
0.0014947
0.00149259
0.0014896
0.0014932
0.00149026
0.00153509
0.00125729
0.00150513
0.00151216
0.0015125
0.00151359
0.00151305
0.0015113
0.00151558
0.00151203
0.00156021
0.00127429
0.00151949
0.00152266
0.0015263
0.00152674
0.00152448
0.00152193
0.00152472
0.0015193
0.00156399
0.00132564
0.00158533
0.00158998
0.00159924
0.00159677
0.00159306
0.00159035
0.00159072
0.00158455
0.00163206
0.00132758
0.00152232
0.00148961
0.00145344
0.00144495
0.00143378
0.00142349
0.0014188
0.00141297
0.00144037
0.000818583
0.00100292
0.00097089
0.000915596
0.00089152
0.000877843
0.000861238
0.000865507
0.000850686
0.000885888
0.000497269
0.000733266
0.0007589
0.000788984
0.000792879
0.000799475
0.000800636
0.000810061
0.000805391
0.000840832
0.000446829
0.000663076
0.000685538
0.000703024
0.000708284
0.00071526
0.000719421
0.000731457
0.000734403
0.000768098
0.000436884
0.000648737
0.000676509
0.000686023
0.000687296
0.000688439
0.000689673
0.000695945
0.000698571
0.000733105
0.00043366
0.000644925
0.00067351
0.000682571
0.000682646
0.000680143
0.0006773
0.000678674
0.000679514
0.000708463
0.000430222
0.0006438
0.000674705
0.00068361
0.000683605
0.000680534
0.000676357
0.000674831
0.000674545
0.000701709
0.000430221
0.000643808
0.000674713
0.000683614
0.000683612
0.000680539
0.000676354
0.000674826
0.000674541
0.000701636
0.000433655
0.000644904
0.000673544
0.000682593
0.000682692
0.000680163
0.000677352
0.000678643
0.000679577
0.000708326
0.000436893
0.000648753
0.000676547
0.000686033
0.000687328
0.000688424
0.000689726
0.000695878
0.000698627
0.000732718
0.000446827
0.000663078
0.000685574
0.00070304
0.000708339
0.000715233
0.000719518
0.000731367
0.000734513
0.000767634
0.000497243
0.000733265
0.000758907
0.000789008
0.000792905
0.000799475
0.000800825
0.000810008
0.000805766
0.000840453
0.000818574
0.00100301
0.000970922
0.000915761
0.000891584
0.000878045
0.000861676
0.000865681
0.000851857
0.000885578
0.000708419
0.000896246
0.000886288
0.000849185
0.000816387
0.000803505
0.000781501
0.000792068
0.000772486
0.000806624
0.000175783
0.000390465
0.000438748
0.000470449
0.000479212
0.000498077
0.000503685
0.000521667
0.000521613
0.000538815
9.35046e-05
0.000241649
0.000295992
0.00032426
0.000333507
0.0003462
0.000353555
0.00036943
0.00037792
0.000400257
8.90824e-05
0.000225112
0.000283605
0.000307365
0.000315809
0.000318763
0.000320483
0.000323603
0.000327294
0.000344568
8.81937e-05
0.000222622
0.000281402
0.000305819
0.000315464
0.000318057
0.000317734
0.000317374
0.000316473
0.000329717
8.73248e-05
0.000221482
0.00028111
0.000306263
0.000316562
0.000320309
0.000319875
0.000319219
0.000316178
0.000329121
8.7324e-05
0.000221489
0.000281106
0.000306275
0.000316552
0.000320319
0.000319865
0.000319224
0.000316186
0.000329117
8.81919e-05
0.000222615
0.00028143
0.000305817
0.000315501
0.000318063
0.000317787
0.000317356
0.000316493
0.000329653
8.90809e-05
0.00022511
0.000283621
0.000307379
0.000315816
0.000318749
0.000320479
0.000323559
0.000327214
0.000344201
9.34869e-05
0.000241586
0.000296012
0.000324195
0.000333546
0.000346029
0.000353453
0.000369245
0.000377704
0.000399531
0.000175624
0.000390244
0.000438709
0.000470314
0.000479159
0.000497729
0.000503638
0.000521505
0.000521409
0.000538059
0.000708353
0.000896369
0.000886333
0.000849406
0.000816356
0.000803771
0.000782258
0.000792411
0.000773806
0.000806733
0.000690867
0.000879909
0.000877256
0.000855999
0.000826751
0.000819016
0.000798549
0.000812415
0.000792099
0.000824193
0.000135288
0.000306763
0.000365251
0.000389385
0.000396004
0.000411131
0.000417167
0.000433534
0.000437048
0.000448264
2.01309e-05
7.16327e-05
0.000124991
0.000161672
0.000176571
0.000190184
0.000196118
0.000207372
0.000213687
0.000226011
1.18009e-05
4.25265e-05
7.74014e-05
0.000108479
0.000127557
0.000139466
0.000146333
0.000151636
0.000154459
0.000164093
1.15779e-05
4.11139e-05
7.43067e-05
0.000103976
0.000122427
0.000135516
0.000141839
0.000147497
0.000149085
0.000157682
1.14691e-05
4.08009e-05
7.35559e-05
0.00010394
0.000121973
0.000136061
0.000142221
0.00014872
0.000150061
0.000158551
1.14689e-05
4.08027e-05
7.35354e-05
0.000103957
0.000121961
0.00013607
0.000142213
0.000148721
0.000150067
0.000158551
1.15779e-05
4.11139e-05
7.43046e-05
0.000103971
0.000122434
0.000135506
0.000141852
0.000147488
0.000149084
0.000157649
1.17974e-05
4.25187e-05
7.71863e-05
0.000108608
0.000127382
0.00013952
0.000146091
0.000151635
0.00015435
0.000163782
2.00536e-05
7.14843e-05
0.000124849
0.000161506
0.000176441
0.000189681
0.000195638
0.000207106
0.000213197
0.000224767
0.000135104
0.00030631
0.000365297
0.000389002
0.000395852
0.000410078
0.000416726
0.000433445
0.00043684
0.000446634
0.00069076
0.00088006
0.000877284
0.000856281
0.000826615
0.000819374
0.000799508
0.0008128
0.000793407
0.000824375
0.000690867
0.000879909
0.000877256
0.000855999
0.000826751
0.000819016
0.000798549
0.000812415
0.000792099
0.000824193
0.000135288
0.000306763
0.000365251
0.000389385
0.000396004
0.00041113
0.000417167
0.000433534
0.000437048
0.000448264
2.01309e-05
7.16327e-05
0.000124991
0.000161672
0.000176571
0.000190184
0.000196117
0.000207372
0.000213687
0.000226011
1.18009e-05
4.25265e-05
7.74014e-05
0.00010848
0.000127557
0.000139466
0.000146333
0.000151636
0.000154459
0.000164093
1.15779e-05
4.11139e-05
7.43066e-05
0.000103976
0.000122427
0.000135516
0.00014184
0.000147497
0.000149085
0.000157682
1.14691e-05
4.0801e-05
7.35559e-05
0.00010394
0.000121973
0.000136061
0.000142221
0.00014872
0.000150061
0.000158551
1.14689e-05
4.08027e-05
7.35353e-05
0.000103957
0.000121961
0.00013607
0.000142213
0.000148721
0.000150067
0.000158551
1.15779e-05
4.11139e-05
7.43047e-05
0.000103971
0.000122434
0.000135507
0.000141852
0.000147488
0.000149084
0.000157648
1.17974e-05
4.25187e-05
7.71864e-05
0.000108608
0.000127382
0.00013952
0.000146091
0.000151636
0.00015435
0.000163782
2.00536e-05
7.14843e-05
0.000124849
0.000161506
0.000176441
0.000189681
0.000195639
0.000207106
0.000213197
0.000224767
0.000135104
0.00030631
0.000365297
0.000389002
0.000395852
0.000410079
0.000416726
0.000433445
0.00043684
0.000446634
0.00069076
0.00088006
0.000877284
0.000856281
0.000826615
0.000819374
0.000799508
0.0008128
0.000793407
0.000824375
0.000708419
0.000896246
0.000886288
0.000849185
0.000816387
0.000803505
0.000781502
0.000792068
0.000772486
0.000806624
0.000175783
0.000390465
0.000438748
0.000470449
0.000479213
0.000498076
0.000503684
0.000521667
0.000521613
0.000538815
9.35047e-05
0.000241649
0.000295992
0.00032426
0.000333507
0.0003462
0.000353555
0.00036943
0.00037792
0.000400257
8.90823e-05
0.000225112
0.000283605
0.000307366
0.000315809
0.000318763
0.000320484
0.000323603
0.000327294
0.000344568
8.81936e-05
0.000222622
0.000281402
0.000305819
0.000315464
0.000318057
0.000317734
0.000317374
0.000316473
0.000329717
8.73248e-05
0.000221482
0.00028111
0.000306263
0.000316562
0.000320309
0.000319875
0.000319219
0.000316178
0.000329121
8.73241e-05
0.000221489
0.000281106
0.000306275
0.000316552
0.000320319
0.000319865
0.000319224
0.000316186
0.000329116
8.81919e-05
0.000222615
0.00028143
0.000305817
0.000315501
0.000318063
0.000317787
0.000317356
0.000316493
0.000329653
8.9081e-05
0.00022511
0.000283621
0.000307379
0.000315816
0.00031875
0.000320479
0.000323559
0.000327214
0.0003442
9.3487e-05
0.000241586
0.000296012
0.000324195
0.000333546
0.000346029
0.000353453
0.000369245
0.000377704
0.00039953
0.000175624
0.000390244
0.000438709
0.000470314
0.000479158
0.00049773
0.000503639
0.000521505
0.000521409
0.000538059
0.000708353
0.000896369
0.000886333
0.000849406
0.000816356
0.000803771
0.000782257
0.000792411
0.000773806
0.000806733
0.000818583
0.00100292
0.00097089
0.000915596
0.00089152
0.000877843
0.000861238
0.000865507
0.000850686
0.000885889
0.000497269
0.000733266
0.000758901
0.000788984
0.00079288
0.000799475
0.000800636
0.000810061
0.000805391
0.000840832
0.000446829
0.000663076
0.000685538
0.000703025
0.000708284
0.00071526
0.000719421
0.000731457
0.000734403
0.000768099
0.000436883
0.000648737
0.000676509
0.000686023
0.000687295
0.000688439
0.000689674
0.000695945
0.000698571
0.000733106
0.00043366
0.000644925
0.000673509
0.000682571
0.000682646
0.000680143
0.0006773
0.000678674
0.000679514
0.000708463
0.000430222
0.0006438
0.000674705
0.00068361
0.000683605
0.000680534
0.000676357
0.00067483
0.000674545
0.00070171
0.000430221
0.000643808
0.000674713
0.000683614
0.000683612
0.000680539
0.000676354
0.000674826
0.000674541
0.000701637
0.000433655
0.000644904
0.000673544
0.000682593
0.000682692
0.000680163
0.000677352
0.000678643
0.000679577
0.000708326
0.000436893
0.000648753
0.000676547
0.000686033
0.000687328
0.000688424
0.000689726
0.000695877
0.000698627
0.000732718
0.000446827
0.000663078
0.000685574
0.00070304
0.000708339
0.000715233
0.000719518
0.000731367
0.000734513
0.000767636
0.000497243
0.000733265
0.000758907
0.000789008
0.000792905
0.000799475
0.000800825
0.000810008
0.000805763
0.000840454
0.000818574
0.00100301
0.000970923
0.000915761
0.000891584
0.000878046
0.000861676
0.000865681
0.000851857
0.000885579
0.00132754
0.00152227
0.00148955
0.00145336
0.00144483
0.00143371
0.00142324
0.00141881
0.00141225
0.00144097
0.0013256
0.00158528
0.00158991
0.0015992
0.00159667
0.00159303
0.00159013
0.00159075
0.00158398
0.00163263
0.00127428
0.00151948
0.00152262
0.00152628
0.00152667
0.00152448
0.00152181
0.0015248
0.00151909
0.00156453
0.00125726
0.00150508
0.0015121
0.00151248
0.00151355
0.00151304
0.00151123
0.00151562
0.00151185
0.00156046
0.00124903
0.00149208
0.00149418
0.00149605
0.00149465
0.00149257
0.00148953
0.00149323
0.00149017
0.00153534
0.00124415
0.00149725
0.00150313
0.00149883
0.00149495
0.0014916
0.00148741
0.00149027
0.00148784
0.00153245
0.00124415
0.00149725
0.00150315
0.00149883
0.00149496
0.00149161
0.00148743
0.00149027
0.00148787
0.0015324
0.00124903
0.00149203
0.00149421
0.00149608
0.0014947
0.00149259
0.0014896
0.0014932
0.00149026
0.00153509
0.0012573
0.00150513
0.00151216
0.0015125
0.00151359
0.00151305
0.0015113
0.00151558
0.00151203
0.00156021
0.00127429
0.00151949
0.00152266
0.0015263
0.00152674
0.00152448
0.00152193
0.00152472
0.0015193
0.00156399
0.00132564
0.00158533
0.00158998
0.00159924
0.00159677
0.00159306
0.00159035
0.00159072
0.00158454
0.00163206
0.00132758
0.00152232
0.00148961
0.00145344
0.00144495
0.00143378
0.00142349
0.0014188
0.00141297
0.00144037
0.00287349
0.00309594
0.00307877
0.00305248
0.00304646
0.00303653
0.00302789
0.00302018
0.00301772
0.00304154
0.00325293
0.00351399
0.00352301
0.00351393
0.00351169
0.00350443
0.00349793
0.00349261
0.00348246
0.00352704
0.00313685
0.00337331
0.00338182
0.00337153
0.00337119
0.0033649
0.00335875
0.0033567
0.00334202
0.0033927
0.00312433
0.00340114
0.00340649
0.00339842
0.00340073
0.00339707
0.00339083
0.00338991
0.00337818
0.00342758
0.00309519
0.00335249
0.00335063
0.00334526
0.00334781
0.00334576
0.00334073
0.00334255
0.00333071
0.00338081
0.00309733
0.00338399
0.0033805
0.00336555
0.00336527
0.00336153
0.00335475
0.00335597
0.00334657
0.00339483
0.00309731
0.00338398
0.00338052
0.00336556
0.00336528
0.00336154
0.00335477
0.00335596
0.0033466
0.00339474
0.0030952
0.00335247
0.00335063
0.00334526
0.00334784
0.00334575
0.00334078
0.00334253
0.00333079
0.00338061
0.00312434
0.00340116
0.00340654
0.00339843
0.00340078
0.00339707
0.00339091
0.00338985
0.00337835
0.00342726
0.00313685
0.00337332
0.00338186
0.00337155
0.00337124
0.00336489
0.00335885
0.0033566
0.00334225
0.00339215
0.00325295
0.003514
0.00352306
0.00351395
0.00351177
0.00350441
0.00349807
0.00349246
0.00348283
0.00352624
0.00287351
0.00309597
0.00307883
0.00305252
0.00304655
0.00303653
0.00302806
0.00302007
0.0030182
0.00304072
0.00670182
0.00687194
0.00688152
0.00686098
0.00685786
0.00685065
0.00684461
0.00683744
0.00683164
0.00685715
0.00768188
0.00791263
0.00794552
0.00792588
0.0079256
0.00791731
0.00790911
0.00790081
0.00788232
0.00792192
0.00740551
0.00758181
0.00763777
0.00762621
0.00762923
0.0076229
0.00761513
0.007609
0.00758193
0.00762981
0.00736653
0.00765954
0.0076878
0.00767153
0.0076758
0.00766954
0.00766016
0.00765531
0.00763298
0.00767837
0.00732918
0.00758049
0.00759441
0.00758515
0.00759175
0.00758954
0.00758288
0.00758233
0.00755742
0.00760494
0.00732005
0.00759623
0.00761902
0.00760334
0.00760928
0.0076048
0.00759561
0.0075949
0.00757299
0.00762042
0.00732006
0.00759622
0.00761898
0.00760331
0.00760927
0.00760479
0.0075956
0.00759485
0.00757302
0.0076203
0.00732913
0.00758044
0.00759449
0.00758518
0.00759183
0.00758947
0.00758304
0.00758231
0.00755746
0.00760464
0.00736655
0.00765951
0.00768778
0.00767148
0.0076758
0.00766953
0.00766016
0.00765513
0.00763307
0.00767796
0.0074055
0.00758184
0.00763782
0.00762624
0.00762928
0.00762286
0.00761519
0.00760882
0.00758209
0.00762909
0.00768184
0.00791261
0.00794556
0.00792589
0.00792564
0.00791725
0.00790918
0.00790057
0.00788256
0.0079211
0.00670179
0.00687194
0.00688156
0.00686098
0.00685791
0.00685058
0.0068447
0.00683718
0.00683198
0.00685601
0.0156189
0.0157397
0.0157609
0.0157373
0.0157339
0.0157256
0.0157192
0.0157104
0.0157035
0.0157337
0.0176295
0.0178301
0.0179063
0.017881
0.0178829
0.0178738
0.0178638
0.017852
0.0178244
0.0178643
0.0171844
0.0172985
0.0174116
0.0173904
0.0173944
0.0173853
0.0173748
0.0173646
0.0173184
0.0173629
0.0169283
0.0171827
0.0172527
0.0172375
0.0172437
0.0172369
0.0172271
0.0172201
0.0171851
0.0172326
0.0169675
0.0171851
0.0172583
0.0172487
0.0172566
0.017253
0.0172451
0.0172413
0.0172029
0.0172502
0.0168907
0.0171251
0.0171997
0.0171899
0.0171989
0.0171943
0.0171859
0.0171837
0.0171479
0.0171994
0.0168908
0.0171252
0.0171997
0.0171899
0.0171989
0.0171942
0.0171859
0.0171836
0.017148
0.0171993
0.0169672
0.0171849
0.0172582
0.0172486
0.0172566
0.0172529
0.0172452
0.0172414
0.0172028
0.0172496
0.0169284
0.0171828
0.0172527
0.0172374
0.0172436
0.0172369
0.0172267
0.0172195
0.0171852
0.0172319
0.0171843
0.0172984
0.0174118
0.0173906
0.0173946
0.0173854
0.0173748
0.0173643
0.0173186
0.0173619
0.0176296
0.0178301
0.0179063
0.0178809
0.0178829
0.0178736
0.0178637
0.0178515
0.0178243
0.0178635
0.0156188
0.0157397
0.015761
0.0157373
0.0157339
0.0157255
0.0157192
0.01571
0.0157037
0.0157322
0.0362727
0.0363573
0.0363515
0.0363183
0.0363098
0.0362979
0.0362903
0.0362788
0.0362872
0.0363282
0.0394527
0.0395778
0.0396728
0.039637
0.0396349
0.0396217
0.0396097
0.0395943
0.0395679
0.0396158
0.0392857
0.0393738
0.0395579
0.0395316
0.039534
0.0395228
0.039511
0.0394973
0.0394376
0.0394835
0.0386917
0.0389966
0.0390799
0.0390698
0.0390712
0.0390644
0.0390571
0.0390493
0.0390229
0.0390719
0.0387997
0.0390538
0.0391611
0.0391546
0.0391593
0.039155
0.0391486
0.0391435
0.0391093
0.0391602
0.0387121
0.0390008
0.0391071
0.0391065
0.0391126
0.0391084
0.039102
0.039098
0.0390622
0.0391155
0.0387123
0.0390009
0.039107
0.0391064
0.0391125
0.0391083
0.039102
0.039098
0.0390623
0.0391153
0.0387993
0.0390536
0.0391605
0.0391544
0.0391592
0.0391547
0.0391484
0.0391432
0.0391089
0.0391591
0.0386918
0.0389967
0.0390802
0.03907
0.0390714
0.0390646
0.0390571
0.0390489
0.0390229
0.0390709
0.0392853
0.0393731
0.0395577
0.0395315
0.0395338
0.0395225
0.0395108
0.0394966
0.0394374
0.0394821
0.0394527
0.039578
0.0396729
0.0396372
0.039635
0.0396216
0.0396096
0.0395937
0.0395677
0.0396142
0.0362725
0.0363572
0.0363515
0.0363184
0.0363099
0.0362977
0.0362902
0.0362781
0.036287
0.0363259
0.0834985
0.0836907
0.0835359
0.0834739
0.0834505
0.0834281
0.0834167
0.0833986
0.0834669
0.0835306
0.0888495
0.0892678
0.0891673
0.08912
0.0891033
0.0890854
0.0890748
0.0890589
0.0891055
0.0891574
0.0883648
0.0889883
0.0889646
0.0889331
0.0889227
0.0889086
0.088899
0.0888859
0.0889029
0.0889441
0.0885686
0.0891203
0.0891286
0.0891024
0.0890962
0.0890831
0.0890731
0.0890603
0.0890624
0.089107
0.0884792
0.08915
0.0891955
0.0891812
0.0891792
0.0891685
0.0891592
0.0891487
0.0891381
0.0891849
0.0884737
0.0891003
0.0891528
0.0891397
0.0891394
0.0891292
0.08912
0.0891106
0.0890971
0.0891458
0.0884735
0.0891002
0.0891525
0.0891393
0.0891388
0.0891286
0.0891195
0.0891099
0.0890967
0.089145
0.088479
0.0891497
0.0891955
0.0891814
0.0891798
0.0891688
0.0891593
0.0891484
0.0891374
0.0891831
0.088568
0.0891198
0.0891286
0.0891024
0.0890962
0.089083
0.0890727
0.0890593
0.0890618
0.0891049
0.0883638
0.0889872
0.0889641
0.0889326
0.0889222
0.0889079
0.0888981
0.0888842
0.0889013
0.0889408
0.0888491
0.0892675
0.0891674
0.0891202
0.0891035
0.0890852
0.0890745
0.0890576
0.0891046
0.0891542
0.0834978
0.0836901
0.0835358
0.0834738
0.0834505
0.0834276
0.0834162
0.083397
0.083466
0.0835263
0.107277
0.107048
0.10694
0.106882
0.106855
0.106833
0.106821
0.106802
0.106859
0.106924
0.0935376
0.0937097
0.0936002
0.0935729
0.0935573
0.093545
0.0935374
0.0935251
0.0935633
0.0936047
0.09201
0.0921797
0.0920541
0.0920314
0.0920151
0.0920036
0.0919964
0.0919845
0.0920219
0.0920632
0.0923196
0.0925449
0.0924544
0.0924385
0.0924242
0.0924139
0.0924064
0.0923955
0.0924217
0.0924695
0.0921557
0.0923887
0.0922981
0.0922856
0.0922724
0.0922629
0.0922554
0.0922453
0.0922679
0.0923185
0.0921952
0.0924311
0.0923552
0.0923457
0.0923334
0.0923244
0.0923168
0.0923073
0.0923263
0.0923797
0.0921954
0.0924313
0.0923555
0.0923459
0.0923336
0.0923246
0.092317
0.0923074
0.0923265
0.0923795
0.0921548
0.092388
0.0922975
0.0922851
0.0922721
0.0922624
0.0922548
0.0922444
0.0922668
0.0923164
0.0923198
0.0925452
0.0924552
0.0924393
0.0924251
0.0924147
0.0924069
0.0923954
0.0924216
0.092468
0.0920093
0.0921787
0.0920535
0.0920309
0.0920147
0.092003
0.0919955
0.0919829
0.0920202
0.0920596
0.0935373
0.0937097
0.0936008
0.0935736
0.0935581
0.0935455
0.0935375
0.0935244
0.0935625
0.0936021
0.107276
0.107048
0.10694
0.106882
0.106856
0.106832
0.10682
0.1068
0.106858
0.106919
0.317877
0.317506
0.317264
0.316981
0.316746
0.316482
0.31624
0.315985
0.31574
0.315489
0.315243
0.314994
0.314747
0.314498
0.314251
0.314003
0.313755
0.313507
0.313259
0.313011
0.312763
0.312516
0.312267
0.312019
0.311771
0.311523
0.311275
0.311027
0.310779
0.310529
0.310281
0.310031
0.309786
0.309537
0.309295
0.309038
0.308799
0.308523
0.308305
0.30799
0.301443
0.301137
0.300923
0.300667
0.300454
0.300216
0.299997
0.299766
0.299545
0.299318
0.299094
0.298869
0.298645
0.29842
0.298196
0.297971
0.297747
0.297522
0.297298
0.297073
0.296848
0.296624
0.296399
0.296174
0.295949
0.295723
0.295499
0.295274
0.295049
0.294822
0.294597
0.29437
0.294147
0.293921
0.293701
0.29347
0.293252
0.293004
0.292802
0.292512
0.298528
0.29824
0.298028
0.297779
0.297569
0.297336
0.297122
0.296896
0.296678
0.296456
0.296237
0.296016
0.295796
0.295576
0.295356
0.295136
0.294916
0.294695
0.294475
0.294255
0.294034
0.293814
0.293593
0.293372
0.293151
0.292931
0.29271
0.292489
0.292268
0.292047
0.291825
0.291602
0.291383
0.291162
0.290946
0.290719
0.290506
0.290262
0.290065
0.289772
0.298811
0.298507
0.298291
0.298043
0.297832
0.2976
0.297385
0.29716
0.296942
0.29672
0.296501
0.29628
0.296061
0.29584
0.295621
0.2954
0.29518
0.29496
0.29474
0.294519
0.294299
0.294078
0.293858
0.293637
0.293416
0.293195
0.292975
0.292754
0.292534
0.292312
0.29209
0.291868
0.291649
0.291427
0.291211
0.290985
0.290771
0.290528
0.29033
0.290032
0.298714
0.298404
0.298186
0.297939
0.297729
0.297497
0.297283
0.297059
0.296842
0.29662
0.296402
0.296181
0.295962
0.295742
0.295523
0.295303
0.295083
0.294863
0.294644
0.294424
0.294204
0.293984
0.293763
0.293543
0.293323
0.293102
0.292882
0.292662
0.292442
0.29222
0.291999
0.291777
0.291558
0.291337
0.291122
0.290895
0.290683
0.290439
0.290243
0.289941
0.298771
0.298456
0.298237
0.297991
0.29778
0.29755
0.297335
0.297111
0.296894
0.296673
0.296455
0.296234
0.296015
0.295795
0.295576
0.295356
0.295136
0.294916
0.294697
0.294477
0.294257
0.294037
0.293816
0.293596
0.293376
0.293155
0.292935
0.292715
0.292494
0.292273
0.292052
0.29183
0.291611
0.29139
0.291175
0.290948
0.290735
0.290492
0.290295
0.289991
0.298779
0.298468
0.298251
0.298005
0.297795
0.297565
0.29735
0.297127
0.29691
0.296689
0.296471
0.29625
0.296031
0.295811
0.295592
0.295372
0.295152
0.294933
0.294713
0.294493
0.294273
0.294053
0.293832
0.293612
0.293391
0.293171
0.292951
0.292731
0.29251
0.292289
0.292068
0.291846
0.291627
0.291405
0.29119
0.290964
0.290751
0.290508
0.290311
0.290007
0.298738
0.298442
0.298228
0.297983
0.297773
0.297543
0.297329
0.297106
0.29689
0.296668
0.29645
0.29623
0.296011
0.295791
0.295572
0.295352
0.295132
0.294912
0.294692
0.294472
0.294252
0.294032
0.293812
0.293592
0.293371
0.293151
0.292931
0.29271
0.29249
0.292268
0.292047
0.291825
0.291606
0.291385
0.29117
0.290943
0.290731
0.290487
0.29029
0.289988
0.298853
0.298572
0.298362
0.298116
0.297907
0.297676
0.297463
0.297239
0.297023
0.296801
0.296583
0.296362
0.296143
0.295923
0.295703
0.295482
0.295262
0.295042
0.294822
0.294601
0.294381
0.29416
0.29394
0.293719
0.293498
0.293277
0.293056
0.292836
0.292615
0.292393
0.292171
0.291949
0.29173
0.291508
0.291292
0.291066
0.290852
0.290608
0.290411
0.290112
0.298589
0.298333
0.298129
0.297882
0.297675
0.297444
0.297232
0.297008
0.296792
0.29657
0.296352
0.296131
0.295912
0.295691
0.295471
0.295251
0.295031
0.29481
0.29459
0.294369
0.294149
0.293928
0.293708
0.293487
0.293266
0.293045
0.292824