/*--------------------------------*- C++ -*----------------------------------*\
  =========                 |
  \\      /  F ield         | OpenFOAM: The Open Source CFD Toolbox
   \\    /   O peration     | Website:  https://openfoam.org
    \\  /    A nd           | Version:  7
     \\/     M anipulation  |
\*---------------------------------------------------------------------------*/
FoamFile
{
    version     2.0;
    format      ascii;
    class       surfaceScalarField;
    location    "0.12";
    object      phi_0;
}
// * * * * * * * * * * * * * * * * * * * * * * * * * * * * * * * * * * * * * //

dimensions      [1 0 -1 0 0 0 0];

internalField   nonuniform List<scalar> 
2748
(
0.00483555
2.32323e-05
0.00477122
6.43366e-05
0.00467224
9.8975e-05
0.00454492
0.000127322
0.00439568
0.000149238
0.00423122
0.000164466
0.00405779
0.000173428
0.00388075
0.000177036
0.00370427
0.000176482
0.0035316
0.00017267
0.00336507
0.000166529
0.00320621
0.000158859
0.00305619
0.000150017
0.00291573
0.000140464
0.00278515
0.000130576
0.00266453
0.000120623
0.00255372
0.00011081
0.00245243
0.000101294
0.00236024
9.21893e-05
0.00227666
8.35787e-05
0.00220114
7.55153e-05
0.00213311
6.80324e-05
0.00207197
6.11424e-05
0.00201713
5.48426e-05
0.00196801
4.91169e-05
0.00192411
4.39028e-05
0.00188494
3.91613e-05
0.00184995
3.49963e-05
0.00181865
3.12989e-05
0.00179063
2.80197e-05
0.00176551
2.5121e-05
0.00174294
2.25669e-05
0.00172262
2.03217e-05
0.00170427
1.83516e-05
0.00168764
1.66258e-05
0.00167253
1.51161e-05
0.00165873
1.37973e-05
0.00164608
1.26465e-05
0.00163444
1.16426e-05
0.00162367
1.07671e-05
0.00161367
1.00034e-05
0.00160433
9.3368e-06
0.00159558
8.75447e-06
0.00158733
8.24503e-06
0.00157953
7.79859e-06
0.00157213
7.40662e-06
0.00156506
7.06177e-06
0.00155831
6.75776e-06
0.00155182
6.48907e-06
0.00154557
6.25072e-06
0.00153953
6.03837e-06
0.00153368
5.8483e-06
0.001528
5.67734e-06
0.00152248
5.52279e-06
0.0015171
5.38233e-06
0.00151184
5.25396e-06
0.00150671
5.13597e-06
0.00150168
5.02688e-06
0.00149675
4.92544e-06
0.00149192
4.83054e-06
0.00148718
4.74125e-06
0.00148252
4.65675e-06
0.00147795
4.57636e-06
0.00147345
4.49952e-06
0.00146902
4.42578e-06
0.00146467
4.35473e-06
0.00146038
4.28604e-06
0.00145616
4.21942e-06
0.00145201
4.15463e-06
0.00144792
4.09144e-06
0.00144389
4.02971e-06
0.00143992
3.96927e-06
0.00143601
3.91001e-06
0.00143215
3.85183e-06
0.00142836
3.79465e-06
0.00142462
3.73838e-06
0.00142094
3.68298e-06
0.00141731
3.62839e-06
0.00141374
3.57463e-06
0.00141021
3.52166e-06
0.00140674
3.46948e-06
0.00140333
3.41805e-06
0.00139996
3.36734e-06
0.00139664
3.31732e-06
0.00139337
3.26802e-06
0.00139015
3.21946e-06
0.00138698
3.17169e-06
0.00138386
3.12466e-06
0.00138078
3.07835e-06
0.00137775
3.03269e-06
0.00137476
2.98771e-06
0.00137181
2.94343e-06
0.00136891
2.89994e-06
0.00136606
2.85724e-06
0.00136324
2.8153e-06
0.00136047
2.77398e-06
0.00135773
2.73322e-06
0.00135504
2.69305e-06
0.00135239
2.65353e-06
0.00134977
2.61493e-06
0.0013472
2.57708e-06
0.00134466
2.54029e-06
0.00134215
2.50371e-06
0.00133968
2.46817e-06
0.00133725
2.43198e-06
0.00133485
2.39767e-06
0.00133249
2.36165e-06
0.00133016
2.3299e-06
0.00132787
2.2936e-06
0.0013256
2.26598e-06
0.00132338
2.22621e-06
0.00132117
2.20434e-06
0.00131902
2.15351e-06
0.00131688
2.14114e-06
0.00131481
2.06535e-06
0.00131274
2.07079e-06
0.00131079
1.94804e-06
0.0013088
1.9914e-06
0.00130699
1.81061e-06
1.99508e-06
0.00486771
1.42259e-05
0.00488912
4.29234e-05
0.0049189
6.91914e-05
0.00495366
9.2564e-05
0.00498964
0.000113265
0.00502317
0.000130935
0.00505152
0.000145069
0.00507309
0.000155466
0.00508724
0.000162339
0.00509384
0.000166065
0.00509329
0.000167081
0.00508631
0.000165841
0.00507361
0.000162718
0.005056
0.00015807
0.00503432
0.000152252
0.00500936
0.000145589
0.00498181
0.000138361
0.0049523
0.000130806
0.00492136
0.000123121
0.00488947
0.00011547
0.00485701
0.000107982
0.00482428
0.000100761
0.00479154
9.38776e-05
0.00475901
8.73795e-05
0.00472683
8.12945e-05
0.0046951
7.56334e-05
0.00466385
7.04086e-05
0.00463321
6.56343e-05
0.00460322
6.12907e-05
0.00457389
5.73471e-05
0.00454524
5.37738e-05
0.00451726
5.05433e-05
0.00448996
4.76276e-05
0.00446331
4.49985e-05
0.00443731
4.26286e-05
0.00441193
4.04916e-05
0.00438717
3.85628e-05
0.00436299
3.68197e-05
0.00433939
3.52411e-05
0.00431635
3.38082e-05
0.00429385
3.25037e-05
0.00427188
3.13121e-05
0.00425041
3.02201e-05
0.00422944
2.92154e-05
0.00420895
2.82871e-05
0.00418893
2.7426e-05
0.00416937
2.66244e-05
0.00415025
2.58762e-05
0.00413157
2.5175e-05
0.0041133
2.45151e-05
0.00409545
2.38918e-05
0.004078
2.33008e-05
0.00406093
2.27386e-05
0.00404426
2.22023e-05
0.00402795
2.16892e-05
0.00401201
2.1197e-05
0.00399642
2.0724e-05
0.00398118
2.02683e-05
0.00396627
1.98287e-05
0.0039517
1.94037e-05
0.00393745
1.89923e-05
0.00392351
1.85934e-05
0.00390988
1.82063e-05
0.00389655
1.78302e-05
0.00388351
1.74646e-05
0.00387076
1.71089e-05
0.00385828
1.67626e-05
0.00384607
1.64254e-05
0.00383413
1.60969e-05
0.00382245
1.57767e-05
0.00381101
1.54644e-05
0.00379982
1.51599e-05
0.00378887
1.48629e-05
0.00377815
1.45731e-05
0.00376765
1.42904e-05
0.00375738
1.40145e-05
0.00374731
1.37453e-05
0.00373746
1.34825e-05
0.00372781
1.32262e-05
0.00371835
1.2976e-05
0.00370909
1.2732e-05
0.00370001
1.24938e-05
0.00369112
1.22615e-05
0.0036824
1.20349e-05
0.00367386
1.18138e-05
0.00366548
1.15981e-05
0.00365726
1.13878e-05
0.0036492
1.11827e-05
0.0036413
1.09827e-05
0.00363354
1.07876e-05
0.00362593
1.05974e-05
0.00361847
1.04118e-05
0.00361114
1.0231e-05
0.00360394
1.00547e-05
0.00359687
9.88288e-06
0.00358993
9.71525e-06
0.00358311
9.55185e-06
0.00357641
9.39229e-06
0.00356983
9.23683e-06
0.00356336
9.08514e-06
0.003557
8.93757e-06
0.00355074
8.79351e-06
0.00354459
8.65328e-06
0.00353855
8.51595e-06
0.0035326
8.38219e-06
0.00352674
8.25081e-06
0.00352098
8.1233e-06
0.00351531
7.99763e-06
0.00350973
7.87644e-06
0.00350424
7.7554e-06
0.00349883
7.63951e-06
0.00349351
7.51969e-06
0.00348826
7.40685e-06
0.00348312
7.28127e-06
0.00347802
7.1686e-06
0.00347306
7.02239e-06
0.0034681
6.90708e-06
0.00346339
6.70761e-06
0.00345859
6.60731e-06
6.38811e-06
0.00486271
1.01652e-05
0.00487505
3.05923e-05
0.00489463
4.96059e-05
0.00492063
6.65676e-05
0.0049525
8.13947e-05
0.00498939
9.40419e-05
0.0050301
0.000104357
0.00507332
0.00011225
0.00511784
0.000117821
0.00516258
0.000121319
0.00520665
0.000123012
0.00524933
0.000123161
0.00529004
0.000122007
0.00532836
0.000119749
0.00536403
0.000116587
0.0053969
0.000112718
0.00542693
0.000108327
0.00545416
0.000103578
0.00547867
9.86142e-05
0.00550057
9.35619e-05
0.00552003
8.85282e-05
0.00553719
8.35968e-05
0.00555224
7.8832e-05
0.00556533
7.42809e-05
0.00557665
6.99772e-05
0.00558634
6.59438e-05
0.00559456
6.21918e-05
0.00560146
5.87295e-05
0.00560719
5.55597e-05
0.00561187
5.26718e-05
0.00561559
5.00487e-05
0.00561847
4.76717e-05
0.00562057
4.55229e-05
0.00562198
4.35835e-05
0.00562278
4.18351e-05
0.00562301
4.0259e-05
0.00562274
3.88377e-05
0.005622
3.75545e-05
0.00562085
3.63942e-05
0.00561931
3.53423e-05
0.00561743
3.43863e-05
0.00561523
3.35145e-05
0.00561273
3.27165e-05
0.00560996
3.1983e-05
0.00560694
3.13058e-05
0.00560369
3.06771e-05
0.00560023
3.0091e-05
0.00559656
2.95445e-05
0.0055927
2.90317e-05
0.00558867
2.8548e-05
0.00558447
2.80899e-05
0.00558012
2.7654e-05
0.00557562
2.72375e-05
0.00557098
2.68379e-05
0.00556622
2.64533e-05
0.00556133
2.60819e-05
0.00555633
2.57223e-05
0.00555123
2.53731e-05
0.00554603
2.50334e-05
0.00554073
2.47021e-05
0.00553534
2.43783e-05
0.00552987
2.40612e-05
0.00552433
2.37504e-05
0.00551871
2.34453e-05
0.00551303
2.31458e-05
0.00550729
2.28512e-05
0.00550149
2.25616e-05
0.00549564
2.22766e-05
0.00548974
2.19961e-05
0.0054838
2.17197e-05
0.00547781
2.14474e-05
0.00547179
2.1179e-05
0.00546574
2.09144e-05
0.00545966
2.06535e-05
0.00545356
2.03963e-05
0.00544743
2.01426e-05
0.00544128
1.98924e-05
0.00543512
1.96456e-05
0.00542894
1.94023e-05
0.00542276
1.91624e-05
0.00541656
1.89258e-05
0.00541036
1.86925e-05
0.00540416
1.84626e-05
0.00539796
1.82359e-05
0.00539176
1.80125e-05
0.00538557
1.77922e-05
0.00537938
1.75752e-05
0.0053732
1.73612e-05
0.00536703
1.71506e-05
0.00536088
1.69428e-05
0.00535474
1.67383e-05
0.00534861
1.65366e-05
0.0053425
1.63381e-05
0.00533642
1.61424e-05
0.00533035
1.59499e-05
0.0053243
1.576e-05
0.00531828
1.55733e-05
0.00531229
1.53889e-05
0.00530632
1.52077e-05
0.00530037
1.50287e-05
0.00529446
1.48532e-05
0.00528857
1.46793e-05
0.00528271
1.45096e-05
0.00527689
1.43401e-05
0.0052711
1.41759e-05
0.00526534
1.40096e-05
0.00525961
1.38519e-05
0.00525392
1.36869e-05
0.00524826
1.35376e-05
0.00524264
1.33699e-05
0.00523705
1.32327e-05
0.00523152
1.30527e-05
0.00522599
1.29348e-05
0.00522055
1.27222e-05
0.00521508
1.26396e-05
0.00520975
1.2354e-05
0.00520431
1.23394e-05
0.00519913
1.18945e-05
0.00519376
1.19725e-05
1.12325e-05
0.0048622
6.58721e-06
0.00487312
1.9665e-05
0.00489066
3.20734e-05
0.00491396
4.32623e-05
0.00494232
5.30378e-05
0.004975
6.13576e-05
0.00501118
6.81798e-05
0.00504997
7.34641e-05
0.00509054
7.72449e-05
0.0051322
7.96569e-05
0.00517435
8.08685e-05
0.00521645
8.10549e-05
0.00525808
8.03767e-05
0.00529886
7.89723e-05
0.00533847
7.69728e-05
0.00537668
7.45076e-05
0.00541331
7.16995e-05
0.00544823
6.86561e-05
0.00548139
6.54617e-05
0.00551274
6.22068e-05
0.0055423
5.89686e-05
0.0055701
5.5796e-05
0.0055962
5.27309e-05
0.00562068
4.98024e-05
0.00564363
4.70298e-05
0.00566514
4.44271e-05
0.00568533
4.20032e-05
0.0057043
3.9764e-05
0.00572215
3.77121e-05
0.00573897
3.5843e-05
0.00575488
3.41465e-05
0.00576994
3.26106e-05
0.00578424
3.12232e-05
0.00579785
2.99724e-05
0.00581084
2.88467e-05
0.00582326
2.78343e-05
0.00583517
2.69237e-05
0.00584662
2.61043e-05
0.00585765
2.53662e-05
0.00586829
2.47001e-05
0.00587858
2.40978e-05
0.00588855
2.35516e-05
0.00589821
2.30549e-05
0.00590759
2.26016e-05
0.00591671
2.21862e-05
0.00592558
2.18039e-05
0.00593422
2.14511e-05
0.00594264
2.11246e-05
0.00595085
2.08212e-05
0.00595886
2.05378e-05
0.00596668
2.02717e-05
0.00597431
2.00206e-05
0.00598177
1.97828e-05
0.00598905
1.95564e-05
0.00599616
1.93401e-05
0.00600311
1.91327e-05
0.0060099
1.89331e-05
0.00601653
1.87405e-05
0.00602301
1.85541e-05
0.00602934
1.83733e-05
0.00603552
1.81974e-05
0.00604156
1.80255e-05
0.00604745
1.78575e-05
0.0060532
1.7693e-05
0.00605882
1.75317e-05
0.00606429
1.73734e-05
0.00606964
1.72181e-05
0.00607485
1.70655e-05
0.00607993
1.69156e-05
0.00608488
1.6768e-05
0.0060897
1.66227e-05
0.0060944
1.64795e-05
0.00609898
1.63384e-05
0.00610343
1.61992e-05
0.00610777
1.60619e-05
0.00611198
1.59265e-05
0.00611608
1.57928e-05
0.00612007
1.56609e-05
0.00612394
1.55308e-05
0.0061277
1.54022e-05
0.00613135
1.52755e-05
0.00613489
1.51503e-05
0.00613833
1.50268e-05
0.00614166
1.49048e-05
0.00614489
1.47845e-05
0.00614801
1.46657e-05
0.00615104
1.45486e-05
0.00615397
1.44329e-05
0.0061568
1.43188e-05
0.00615954
1.42061e-05
0.00616218
1.4095e-05
0.00616473
1.39852e-05
0.00616719
1.3877e-05
0.00616956
1.377e-05
0.00617185
1.36647e-05
0.00617405
1.35604e-05
0.00617616
1.34578e-05
0.0061782
1.33561e-05
0.00618015
1.32563e-05
0.00618202
1.3157e-05
0.00618381
1.30598e-05
0.00618553
1.29627e-05
0.00618717
1.28685e-05
0.00618874
1.27728e-05
0.00619023
1.26817e-05
0.00619166
1.25865e-05
0.00619301
1.24993e-05
0.00619429
1.24024e-05
0.00619551
1.23215e-05
0.00619666
1.22187e-05
0.00619774
1.21483e-05
0.00619877
1.20301e-05
0.00619972
1.19783e-05
0.00620062
1.18258e-05
0.00620145
1.18088e-05
0.00620222
1.15848e-05
0.00620293
1.16299e-05
0.00620357
1.1258e-05
0.00620414
1.13961e-05
1.07101e-05
0.00486195
3.23055e-06
0.00487199
9.62861e-06
0.00488832
1.57456e-05
0.00491027
2.13061e-05
0.00493714
2.61731e-05
0.00496818
3.03117e-05
0.00500264
3.372e-05
0.00503972
3.63872e-05
0.00507865
3.8317e-05
0.00511874
3.95653e-05
0.0051594
4.02119e-05
0.00520011
4.03434e-05
0.00524044
4.00403e-05
0.00528004
3.93742e-05
0.0053186
3.84109e-05
0.0053559
3.72138e-05
0.00539175
3.58415e-05
0.00542606
3.43497e-05
0.00545874
3.27847e-05
0.00548976
3.1189e-05
0.00551913
2.95986e-05
0.00554688
2.80386e-05
0.00557308
2.65322e-05
0.00559779
2.50937e-05
0.00562109
2.37251e-05
0.00564309
2.2436e-05
0.00566386
2.12324e-05
0.0056835
2.01181e-05
0.00570212
1.90944e-05
0.0057198
1.81602e-05
0.00573664
1.73112e-05
0.00575271
1.65421e-05
0.00576808
1.58467e-05
0.00578284
1.52194e-05
0.00579703
1.46543e-05
0.00581072
1.41458e-05
0.00582395
1.36881e-05
0.00583678
1.3276e-05
0.00584924
1.29043e-05
0.00586137
1.25685e-05
0.00587321
1.22644e-05
0.00588477
1.19884e-05
0.00589609
1.17372e-05
0.00590718
1.15079e-05
0.00591807
1.1298e-05
0.00592877
1.11052e-05
0.00593929
1.09275e-05
0.00594965
1.07634e-05
0.00595986
1.06112e-05
0.00596993
1.04696e-05
0.00597986
1.03371e-05
0.00598967
1.02126e-05
0.00599936
1.0095e-05
0.00600893
9.98365e-06
0.0060184
9.87767e-06
0.00602775
9.77648e-06
0.006037
9.67952e-06
0.00604616
9.58634e-06
0.00605522
9.49654e-06
0.00606418
9.40977e-06
0.00607305
9.32557e-06
0.00608183
9.24357e-06
0.00609053
9.16357e-06
0.00609913
9.08545e-06
0.00610766
9.00898e-06
0.0061161
8.93411e-06
0.00612445
8.86101e-06
0.00613273
8.78946e-06
0.00614093
8.71934e-06
0.00614904
8.65054e-06
0.00615708
8.58295e-06
0.00616505
8.51648e-06
0.00617293
8.45107e-06
0.00618075
8.38667e-06
0.00618848
8.32323e-06
0.00619615
8.26074e-06
0.00620374
8.19915e-06
0.00621127
8.13844e-06
0.00621872
8.07861e-06
0.0062261
8.01963e-06
0.00623341
7.9615e-06
0.00624066
7.90421e-06
0.00624784
7.84775e-06
0.00625495
7.79211e-06
0.006262
7.73728e-06
0.00626898
7.68326e-06
0.0062759
7.63003e-06
0.00628275
7.5776e-06
0.00628955
7.52597e-06
0.00629628
7.47509e-06
0.00630295
7.42499e-06
0.00630956
7.37562e-06
0.00631611
7.32701e-06
0.0063226
7.2791e-06
0.00632903
7.23198e-06
0.00633541
7.1855e-06
0.00634172
7.13982e-06
0.00634799
7.09467e-06
0.00635419
7.05037e-06
0.00636034
7.00646e-06
0.00636644
6.96358e-06
0.00637248
6.92079e-06
0.00637847
6.87939e-06
0.0063844
6.83739e-06
0.00639029
6.79755e-06
0.00639612
6.75571e-06
0.0064019
6.71782e-06
0.00640763
6.67512e-06
0.00641331
6.64015e-06
0.00641893
6.59452e-06
0.00642452
6.56426e-06
0.00643004
6.51127e-06
0.00643552
6.489e-06
0.00644093
6.42005e-06
0.00644633
6.4118e-06
0.0064516
6.31016e-06
0.00645691
6.32257e-06
0.00646202
6.14931e-06
0.00646724
6.17518e-06
5.88455e-06
0.00486181
3.92222e-09
0.00487143
1.16777e-08
0.00488715
1.89186e-08
0.00490844
2.4814e-08
0.00493458
2.98655e-08
0.00496486
3.51569e-08
0.00499853
4.19365e-08
0.00503487
5.10629e-08
0.00507312
6.28357e-08
0.00511261
7.69663e-08
0.00515273
9.34511e-08
0.00519296
1.12404e-07
0.00523287
1.33529e-07
0.00527209
1.56593e-07
0.00531032
1.81186e-07
0.00534732
2.06936e-07
0.00538293
2.33407e-07
0.00541702
2.60784e-07
0.00544952
2.87856e-07
0.00548039
3.14626e-07
0.00550965
3.4081e-07
0.00553732
3.65685e-07
0.00556346
3.88445e-07
0.00558815
4.07822e-07
0.00561145
4.23356e-07
0.00563345
4.34882e-07
0.00565424
4.44845e-07
0.0056739
4.53397e-07
0.00569254
4.61003e-07
0.00571023
4.68185e-07
0.00572707
4.74986e-07
0.00574313
4.81006e-07
0.00575849
4.85788e-07
0.00577322
4.89089e-07
0.00578738
4.90885e-07
0.00580104
4.91222e-07
0.00581423
4.90115e-07
0.00582702
4.87528e-07
0.00583944
4.83431e-07
0.00585153
4.77891e-07
0.00586333
4.71165e-07
0.00587485
4.63648e-07
0.00588613
4.55739e-07
0.00589719
4.47745e-07
0.00590805
4.39882e-07
0.00591872
4.32336e-07
0.00592923
4.25285e-07
0.00593957
4.18901e-07
0.00594977
4.13291e-07
0.00595983
4.0845e-07
0.00596976
4.04306e-07
0.00597957
4.00776e-07
0.00598927
3.97801e-07
0.00599886
3.95343e-07
0.00600834
3.93366e-07
0.00601773
3.91833e-07
0.00602702
3.90703e-07
0.00603621
3.89933e-07
0.00604532
3.89474e-07
0.00605434
3.89278e-07
0.00606328
3.89282e-07
0.00607213
3.89402e-07
0.0060809
3.89552e-07
0.0060896
3.89715e-07
0.00609822
3.8992e-07
0.00610676
3.90242e-07
0.00611523
3.9076e-07
0.00612363
3.9145e-07
0.00613196
3.92241e-07
0.00614021
3.93061e-07
0.0061484
3.9385e-07
0.00615653
3.94575e-07
0.00616458
3.95215e-07
0.00617257
3.95759e-07
0.0061805
3.96199e-07
0.00618836
3.96531e-07
0.00619617
3.96751e-07
0.00620391
3.96862e-07
0.00621159
3.96865e-07
0.00621921
3.96764e-07
0.00622678
3.96564e-07
0.00623428
3.96271e-07
0.00624174
3.95888e-07
0.00624913
3.9542e-07
0.00625647
3.94872e-07
0.00626376
3.94249e-07
0.006271
3.93554e-07
0.00627818
3.92795e-07
0.00628532
3.91973e-07
0.0062924
3.91092e-07
0.00629944
3.9015e-07
0.00630642
3.8915e-07
0.00631336
3.88096e-07
0.00632025
3.86993e-07
0.0063271
3.85847e-07
0.0063339
3.84657e-07
0.00634066
3.83421e-07
0.00634737
3.8213e-07
0.00635404
3.80789e-07
0.00636067
3.79396e-07
0.00636725
3.7797e-07
0.0063738
3.76496e-07
0.0063803
3.74985e-07
0.00638676
3.73381e-07
0.00639319
3.71705e-07
0.00639958
3.69878e-07
0.00640593
3.67989e-07
0.00641224
3.65914e-07
0.00641851
3.63835e-07
0.00642474
3.61463e-07
0.00643095
3.59116e-07
0.0064371
3.56185e-07
0.00644324
3.53365e-07
0.00644931
3.49515e-07
0.00645538
3.46256e-07
0.00646135
3.41298e-07
0.00646733
3.38085e-07
0.00647315
3.31257e-07
0.00647899
3.28185e-07
3.20633e-07
0.00486181
-3.22212e-06
0.00487143
-9.6041e-06
0.00488715
-1.57071e-05
0.00490843
-2.12564e-05
0.00493458
-2.61141e-05
0.00496486
-3.02431e-05
0.00499854
-3.36384e-05
0.00503487
-3.62875e-05
0.00507313
-3.81938e-05
0.00511262
-3.94134e-05
0.00515274
-4.00266e-05
0.00519297
-4.01201e-05
0.00523288
-3.97746e-05
0.0052721
-3.90621e-05
0.00531033
-3.80493e-05
0.00534734
-3.68002e-05
0.00538295
-3.53748e-05
0.00541703
-3.38284e-05
0.00544953
-3.22102e-05
0.00548041
-3.05596e-05
0.00550966
-2.89157e-05
0.00553733
-2.73055e-05
0.00556347
-2.57519e-05
0.00558816
-2.42743e-05
0.00561145
-2.28746e-05
0.00563345
-2.15613e-05
0.00565423
-2.03385e-05
0.00567389
-1.9208e-05
0.00569252
-1.81693e-05
0.00571021
-1.72201e-05
0.00572704
-1.63568e-05
0.0057431
-1.55753e-05
0.00575846
-1.48703e-05
0.00577318
-1.42367e-05
0.00578734
-1.36683e-05
0.00580099
-1.31595e-05
0.00581419
-1.27043e-05
0.00582697
-1.22977e-05
0.00583939
-1.19346e-05
0.00585148
-1.16105e-05
0.00586327
-1.13206e-05
0.00587479
-1.10601e-05
0.00588607
-1.08252e-05
0.00589713
-1.06123e-05
0.00590799
-1.04184e-05
0.00591867
-1.0241e-05
0.00592917
-1.00776e-05
0.00593951
-9.92622e-06
0.00594971
-9.78524e-06
0.00595977
-9.65322e-06
0.00596971
-9.52894e-06
0.00597952
-9.41142e-06
0.00598922
-9.29975e-06
0.0059988
-9.1932e-06
0.00600829
-9.09108e-06
0.00601767
-8.99286e-06
0.00602696
-8.89806e-06
0.00603616
-8.80633e-06
0.00604526
-8.71732e-06
0.00605428
-8.63081e-06
0.00606322
-8.54651e-06
0.00607207
-8.46411e-06
0.00608085
-8.38371e-06
0.00608954
-8.30515e-06
0.00609816
-8.22823e-06
0.0061067
-8.15278e-06
0.00611517
-8.0786e-06
0.00612357
-8.00564e-06
0.0061319
-7.93391e-06
0.00614015
-7.86345e-06
0.00614834
-7.79425e-06
0.00615646
-7.72631e-06
0.00616452
-7.65959e-06
0.00617251
-7.59407e-06
0.00618043
-7.52972e-06
0.00618829
-7.46653e-06
0.0061961
-7.40447e-06
0.00620384
-7.34353e-06
0.00621152
-7.28368e-06
0.00621914
-7.22489e-06
0.0062267
-7.16715e-06
0.00623421
-7.11045e-06
0.00624166
-7.05475e-06
0.00624905
-7.00005e-06
0.00625639
-6.94633e-06
0.00626368
-6.89356e-06
0.00627092
-6.84173e-06
0.0062781
-6.79083e-06
0.00628523
-6.74086e-06
0.00629232
-6.69176e-06
0.00629935
-6.64356e-06
0.00630634
-6.59621e-06
0.00631327
-6.54974e-06
0.00632016
-6.50407e-06
0.00632701
-6.45926e-06
0.00633381
-6.4152e-06
0.00634056
-6.37201e-06
0.00634728
-6.32949e-06
0.00635394
-6.2879e-06
0.00636057
-6.24681e-06
0.00636716
-6.20681e-06
0.0063737
-6.16701e-06
0.0063802
-6.12866e-06
0.00638667
-6.08992e-06
0.00639309
-6.05346e-06
0.00639948
-6.01533e-06
0.00640583
-5.98122e-06
0.00641213
-5.94273e-06
0.00641841
-5.9119e-06
0.00642464
-5.87107e-06
0.00643085
-5.84548e-06
0.006437
-5.7984e-06
0.00644314
-5.78177e-06
0.00644921
-5.72061e-06
0.00645527
-5.71915e-06
0.00646124
-5.6275e-06
0.00646723
-5.64694e-06
0.00647304
-5.48529e-06
0.00647889
-5.51656e-06
-5.24456e-06
0.00486195
-6.57658e-06
0.00487198
-1.96359e-05
0.00488831
-3.20314e-05
0.00491026
-4.32116e-05
0.00493713
-5.29813e-05
0.00496818
-6.12942e-05
0.00500265
-6.8105e-05
0.00503973
-7.33719e-05
0.00507867
-7.71298e-05
0.00511877
-7.95128e-05
0.00515943
-8.06899e-05
0.00520015
-8.08368e-05
0.00524049
-8.01149e-05
0.00528009
-7.86629e-05
0.00531865
-7.66125e-05
0.00535594
-7.40939e-05
0.0053918
-7.12304e-05
0.0054261
-6.81314e-05
0.00545878
-6.48871e-05
0.00548979
-6.15737e-05
0.00551916
-5.82796e-05
0.00554691
-5.50551e-05
0.0055731
-5.19431e-05
0.0055978
-4.89748e-05
0.00562109
-4.61701e-05
0.00564307
-4.3543e-05
0.00566384
-4.1102e-05
0.00568348
-3.88494e-05
0.00570209
-3.67836e-05
0.00571977
-3.48987e-05
0.0057366
-3.31865e-05
0.00575266
-3.16372e-05
0.00576803
-3.02397e-05
0.00578278
-2.89821e-05
0.00579696
-2.78527e-05
0.00581064
-2.68395e-05
0.00582387
-2.59311e-05
0.00583669
-2.5117e-05
0.00584914
-2.4388e-05
0.00586127
-2.37347e-05
0.00587309
-2.31477e-05
0.00588465
-2.26181e-05
0.00589596
-2.21386e-05
0.00590705
-2.17026e-05
0.00591794
-2.13042e-05
0.00592864
-2.09383e-05
0.00593916
-2.06005e-05
0.00594952
-2.02872e-05
0.00595973
-1.99951e-05
0.0059698
-1.97214e-05
0.00597973
-1.94637e-05
0.00598954
-1.92198e-05
0.00599923
-1.89881e-05
0.0060088
-1.87667e-05
0.00601827
-1.85545e-05
0.00602762
-1.83503e-05
0.00603688
-1.81531e-05
0.00604603
-1.79621e-05
0.00605509
-1.77767e-05
0.00606406
-1.75963e-05
0.00607293
-1.74206e-05
0.00608172
-1.72488e-05
0.00609041
-1.70807e-05
0.00609903
-1.69161e-05
0.00610755
-1.67547e-05
0.00611599
-1.65961e-05
0.00612436
-1.64399e-05
0.00613264
-1.62862e-05
0.00614084
-1.61349e-05
0.00614896
-1.59859e-05
0.006157
-1.58394e-05
0.00616497
-1.56952e-05
0.00617287
-1.55532e-05
0.00618069
-1.54133e-05
0.00618843
-1.52756e-05
0.00619611
-1.51399e-05
0.00620371
-1.50063e-05
0.00621124
-1.48746e-05
0.0062187
-1.4745e-05
0.00622609
-1.46172e-05
0.00623342
-1.44913e-05
0.00624067
-1.43672e-05
0.00624786
-1.4245e-05
0.00625499
-1.41245e-05
0.00626205
-1.40058e-05
0.00626904
-1.38888e-05
0.00627597
-1.37736e-05
0.00628284
-1.36599e-05
0.00628965
-1.3548e-05
0.00629639
-1.34376e-05
0.00630308
-1.3329e-05
0.00630971
-1.32218e-05
0.00631627
-1.31163e-05
0.00632278
-1.30121e-05
0.00632923
-1.29096e-05
0.00633562
-1.28083e-05
0.00634196
-1.27088e-05
0.00634824
-1.26103e-05
0.00635447
-1.25137e-05
0.00636064
-1.24178e-05
0.00636675
-1.23241e-05
0.00637282
-1.22306e-05
0.00637883
-1.21399e-05
0.00638479
-1.20482e-05
0.0063907
-1.19609e-05
0.00639655
-1.18701e-05
0.00640236
-1.17872e-05
0.00640811
-1.16952e-05
0.00641381
-1.16188e-05
0.00641947
-1.15214e-05
0.00642508
-1.14558e-05
0.00643062
-1.13444e-05
0.00643614
-1.12982e-05
0.00644157
-1.11547e-05
0.006447
-1.11445e-05
0.0064523
-1.09324e-05
0.00645764
-1.09847e-05
0.00646278
-1.06266e-05
0.00646803
-1.07657e-05
-1.01024e-05
0.00486219
-1.01513e-05
0.00487311
-3.05529e-05
0.00489063
-4.95556e-05
0.00491394
-6.65143e-05
0.0049423
-8.13426e-05
0.00497499
-9.39872e-05
0.00501118
-0.000104292
0.00504998
-0.000112169
0.00509057
-0.00011772
0.00513224
-0.00012119
0.0051744
-0.000122849
0.00521652
-0.000122956
0.00525816
-0.000121754
0.00529894
-0.000119444
0.00533855
-0.000116226
0.00537676
-0.0001123
0.00541338
-0.000107852
0.0054483
-0.000103045
0.00548143
-9.80231e-05
0.00551277
-9.29117e-05
0.00554231
-8.78209e-05
0.00557009
-8.28368e-05
0.00559617
-7.80259e-05
0.00562064
-7.34368e-05
0.00564357
-6.91043e-05
0.00566508
-6.50501e-05
0.00568526
-6.12862e-05
0.00570423
-5.78152e-05
0.00572208
-5.46332e-05
0.00573891
-5.17303e-05
0.00575482
-4.90933e-05
0.00576988
-4.67056e-05
0.00578419
-4.45495e-05
0.00579782
-4.26058e-05
0.00581082
-4.08554e-05
0.00582326
-3.92801e-05
0.00583519
-3.78625e-05
0.00584666
-3.65868e-05
0.00585771
-3.5439e-05
0.00586838
-3.44037e-05
0.0058787
-3.34662e-05
0.00588869
-3.26137e-05
0.00589839
-3.18353e-05
0.00590781
-3.11217e-05
0.00591697
-3.04643e-05
0.00592589
-2.98544e-05
0.00593457
-2.92859e-05
0.00594304
-2.87538e-05
0.0059513
-2.82535e-05
0.00595936
-2.77808e-05
0.00596722
-2.73323e-05
0.00597491
-2.69047e-05
0.00598242
-2.64955e-05
0.00598975
-2.61023e-05
0.00599692
-2.57231e-05
0.00600393
-2.53562e-05
0.00601077
-2.50003e-05
0.00601746
-2.46542e-05
0.006024
-2.43168e-05
0.0060304
-2.39873e-05
0.00603664
-2.36652e-05
0.00604274
-2.33498e-05
0.0060487
-2.30407e-05
0.00605452
-2.27373e-05
0.00606021
-2.24391e-05
0.00606576
-2.21454e-05
0.00607117
-2.18561e-05
0.00607646
-2.15711e-05
0.00608161
-2.12904e-05
0.00608664
-2.10141e-05
0.00609154
-2.07421e-05
0.00609632
-2.04741e-05
0.00610098
-2.02103e-05
0.00610552
-1.99503e-05
0.00610993
-1.96942e-05
0.00611424
-1.94419e-05
0.00611842
-1.91934e-05
0.0061225
-1.89484e-05
0.00612646
-1.87072e-05
0.00613031
-1.84694e-05
0.00613405
-1.82353e-05
0.00613769
-1.80045e-05
0.00614122
-1.77773e-05
0.00614465
-1.75535e-05
0.00614798
-1.73331e-05
0.00615121
-1.71159e-05
0.00615434
-1.69022e-05
0.00615737
-1.66916e-05
0.0061603
-1.64844e-05
0.00616315
-1.62803e-05
0.0061659
-1.60794e-05
0.00616856
-1.58816e-05
0.00617113
-1.5687e-05
0.00617361
-1.54952e-05
0.00617601
-1.53067e-05
0.00617832
-1.51209e-05
0.00618055
-1.49383e-05
0.0061827
-1.47582e-05
0.00618476
-1.45815e-05
0.00618675
-1.44069e-05
0.00618867
-1.42359e-05
0.0061905
-1.40666e-05
0.00619226
-1.39014e-05
0.00619395
-1.37366e-05
0.00619557
-1.35774e-05
0.00619711
-1.34164e-05
0.00619859
-1.3264e-05
0.0062
-1.31047e-05
0.00620134
-1.29607e-05
0.00620262
-1.27989e-05
0.00620383
-1.26672e-05
0.00620498
-1.2494e-05
0.00620606
-1.23826e-05
0.00620709
-1.2179e-05
0.00620805
-1.21044e-05
0.00620895
-1.18303e-05
0.00620979
-1.18245e-05
0.00621055
-1.13943e-05
0.00621127
-1.14837e-05
-1.07482e-05
0.00486271
-1.421e-05
0.00487503
-4.28694e-05
0.0048946
-6.91246e-05
0.00492059
-9.25053e-05
0.00495246
-0.000113214
0.00498935
-0.000130882
0.00503006
-0.000145001
0.00507327
-0.000155381
0.00511779
-0.000162235
0.00516254
-0.000165937
0.00520661
-0.000166923
0.0052493
-0.000165647
0.00529003
-0.00016248
0.00532837
-0.000157783
0.00536405
-0.000151913
0.00539695
-0.000145195
0.00542701
-0.000137911
0.00545426
-0.0001303
0.0054788
-0.000122561
0.00550075
-0.000114857
0.00552024
-0.00010732
0.00553746
-0.000100053
0.00555257
-9.31315e-05
0.00556573
-8.66045e-05
0.00557713
-8.05043e-05
0.00558693
-7.48461e-05
0.00559528
-6.96321e-05
0.00560231
-6.48544e-05
0.00560818
-6.04974e-05
0.00561299
-5.654e-05
0.00561685
-5.29572e-05
0.00561987
-4.97216e-05
0.00562212
-4.68048e-05
0.0056237
-4.4178e-05
0.00562465
-4.18121e-05
0.00562505
-3.96791e-05
0.00562494
-3.7755e-05
0.00562438
-3.60249e-05
0.00562341
-3.44667e-05
0.00562206
-3.30568e-05
0.00562037
-3.17757e-05
0.00561837
-3.06076e-05
0.00561607
-2.95385e-05
0.0056135
-2.85563e-05
0.00561069
-2.76506e-05
0.00560765
-2.68116e-05
0.00560439
-2.60284e-05
0.00560093
-2.52958e-05
0.00559729
-2.46082e-05
0.00559346
-2.39602e-05
0.00558948
-2.33474e-05
0.00558534
-2.27658e-05
0.00558106
-2.2212e-05
0.00557664
-2.16832e-05
0.00557209
-2.11768e-05
0.00556743
-2.06906e-05
0.00556265
-2.02227e-05
0.00555777
-1.97716e-05
0.00555278
-1.93359e-05
0.00554771
-1.89144e-05
0.00554255
-1.85061e-05
0.00553731
-1.81103e-05
0.005532
-1.77268e-05
0.00552662
-1.73548e-05
0.00552117
-1.69924e-05
0.00551566
-1.66387e-05
0.0055101
-1.62939e-05
0.00550449
-1.59578e-05
0.00549883
-1.56302e-05
0.00549312
-1.53112e-05
0.00548738
-1.50004e-05
0.00548161
-1.46975e-05
0.0054758
-1.44023e-05
0.00546996
-1.41145e-05
0.0054641
-1.3834e-05
0.00545822
-1.35605e-05
0.00545232
-1.32939e-05
0.00544641
-1.30339e-05
0.00544048
-1.27804e-05
0.00543454
-1.25332e-05
0.0054286
-1.22922e-05
0.00542265
-1.20573e-05
0.0054167
-1.18283e-05
0.00541075
-1.16049e-05
0.00540481
-1.13873e-05
0.00539887
-1.11751e-05
0.00539293
-1.09684e-05
0.00538701
-1.07669e-05
0.00538109
-1.05705e-05
0.00537519
-1.03791e-05
0.00536931
-1.01927e-05
0.00536344
-1.0011e-05
0.00535758
-9.83401e-06
0.00535175
-9.66149e-06
0.00534594
-9.49353e-06
0.00534014
-9.32978e-06
0.00533438
-9.17038e-06
0.00532863
-9.01494e-06
0.00532292
-8.86369e-06
0.00531722
-8.71613e-06
0.00531156
-8.57261e-06
0.00530593
-8.43248e-06
0.00530032
-8.29631e-06
0.00529475
-8.16311e-06
0.0052892
-8.03389e-06
0.0052837
-7.90709e-06
0.00527822
-7.78445e-06
0.00527277
-7.66326e-06
0.00526736
-7.54673e-06
0.00526199
-7.42985e-06
0.00525664
-7.31872e-06
0.00525135
-7.20368e-06
0.00524607
-7.09663e-06
0.00524087
-6.97804e-06
0.00523563
-6.87221e-06
0.00523054
-6.73733e-06
0.00522534
-6.62673e-06
0.00522039
-6.44566e-06
0.00521525
-6.33934e-06
-6.12743e-06
0.00486762
-2.31253e-05
0.0048889
-6.41533e-05
0.00491858
-9.88047e-05
0.00495326
-0.000127188
0.00498918
-0.000149128
0.00502266
-0.000164368
0.00505099
-0.000173332
0.00507256
-0.000176945
0.00508672
-0.000176394
0.00509336
-0.000172584
0.00509289
-0.00016645
0.00508602
-0.000158778
0.00507347
-0.000149926
0.00505604
-0.000140358
0.00503458
-0.000130449
0.00500985
-0.00012047
0.00498257
-0.000110628
0.00495335
-0.000101081
0.00492273
-9.19447e-05
0.00489118
-8.33027e-05
0.00485907
-7.52089e-05
0.00482671
-6.76973e-05
0.00479436
-6.07807e-05
0.00476221
-5.44562e-05
0.00473042
-4.87105e-05
0.00469909
-4.35208e-05
0.00466832
-3.88578e-05
0.00463815
-3.46882e-05
0.00460863
-3.09764e-05
0.00457978
-2.76851e-05
0.0045516
-2.47774e-05
0.00452409
-2.22168e-05
0.00449726
-1.99685e-05
0.00447108
-1.79993e-05
0.00444554
-1.62781e-05
0.00442063
-1.47708e-05
0.00439632
-1.34367e-05
0.00437259
-1.22958e-05
0.00434943
-1.13097e-05
0.00432682
-1.04523e-05
0.00430476
-9.70641e-06
0.00428321
-9.05758e-06
0.00426216
-8.4923e-06
0.0042416
-7.99905e-06
0.00422152
-7.56764e-06
0.0042019
-7.18908e-06
0.00418272
-6.85558e-06
0.00416399
-6.56112e-06
0.00414568
-6.30057e-06
0.00412779
-6.06923e-06
0.00411031
-5.86295e-06
0.00409322
-5.67815e-06
0.00407652
-5.51177e-06
0.0040602
-5.36116e-06
0.00404424
-5.22406e-06
0.00402865
-5.09851e-06
0.00401341
-4.98285e-06
0.00399851
-4.87565e-06
0.00398395
-4.7757e-06
0.00396972
-4.68194e-06
0.00395581
-4.59353e-06
0.00394221
-4.50973e-06
0.00392891
-4.43064e-06
0.00391592
-4.35808e-06
0.00390321
-4.28635e-06
0.00389079
-4.21582e-06
0.00387864