/*--------------------------------*- C++ -*----------------------------------*\
  =========                 |
  \\      /  F ield         | OpenFOAM: The Open Source CFD Toolbox
   \\    /   O peration     | Website:  https://openfoam.org
    \\  /    A nd           | Version:  7
     \\/     M anipulation  |
\*---------------------------------------------------------------------------*/
FoamFile
{
    version     2.0;
    format      ascii;
    class       volVectorField;
    location    "0.3";
    object      UMean;
}
// * * * * * * * * * * * * * * * * * * * * * * * * * * * * * * * * * * * * * //

dimensions      [0 1 -1 0 0 0 0];

internalField   nonuniform List<vector> 
1352
(
(7.9045 0.388312 0)
(5.52961 0.263147 0)
(4.22642 0.0396515 0)
(3.49555 -0.0568571 0)
(3.15914 -0.0722295 0)
(2.82855 -0.145432 0)
(10.1196 0.786399 0)
(10.1217 0.936079 0)
(9.8547 0.688231 0)
(9.4777 0.462187 0)
(9.16707 0.32478 0)
(8.8794 0.198975 0)
(10.0719 0.464067 0)
(10.5865 0.686104 0)
(10.9913 0.545159 0)
(11.1661 0.370228 0)
(11.2258 0.250915 0)
(11.2045 0.154839 0)
(10.0013 0.254999 0)
(10.3737 0.447675 0)
(10.7716 0.385994 0)
(11.0394 0.270778 0)
(11.1805 0.182952 0)
(11.2511 0.122623 0)
(10.0248 0.135486 0)
(10.2742 0.262349 0)
(10.5796 0.240816 0)
(10.8215 0.173958 0)
(10.9664 0.113867 0)
(11.0452 0.0724675 0)
(9.9983 0.00578699 0)
(10.1855 0.00314572 0)
(10.4302 -0.00771153 0)
(10.6437 -0.021513 0)
(10.789 -0.0367815 0)
(10.8701 -0.0494524 0)
(10.0085 -0.160962 0)
(10.258 -0.281187 0)
(10.5643 -0.256973 0)
(10.8008 -0.203412 0)
(10.9451 -0.168558 0)
(11.0163 -0.152916 0)
(10.0555 -0.420364 0)
(10.5292 -0.632096 0)
(10.9032 -0.508321 0)
(11.0805 -0.359777 0)
(11.1299 -0.26606 0)
(11.1261 -0.211331 0)
(10.1193 -0.796009 0)
(10.1407 -0.97061 0)
(9.88989 -0.730688 0)
(9.51833 -0.516261 0)
(9.17392 -0.378055 0)
(8.89161 -0.279402 0)
(7.79551 -0.403368 0)
(5.37004 -0.26257 0)
(4.04347 -0.0377545 0)
(3.303 0.0560477 0)
(2.90345 0.0763321 0)
(2.6936 0.0981904 0)
(-0.0705754 0.103414 1.27545e-16)
(0.080239 -0.146979 -5.96191e-17)
(0.327205 -0.282119 -8.52391e-18)
(0.619745 -0.318475 1.16782e-17)
(0.905657 -0.293951 8.67481e-17)
(1.15972 -0.236747 1.95846e-16)
(1.36225 -0.163032 -3.36679e-16)
(1.50042 -0.0815467 -1.82711e-16)
(1.56763 0.0029689 -1.16918e-16)
(1.55657 0.0873593 -3.68536e-17)
(1.46271 0.167545 -2.14128e-17)
(1.28689 0.236726 -7.72868e-17)
(1.03939 0.285263 2.98313e-16)
(0.736461 0.298196 -8.99999e-18)
(0.414001 0.2588 5.34984e-17)
(0.121288 0.170282 -1.7705e-16)
(-0.102973 0.0660633 -2.66527e-16)
(-0.236551 -0.0328638 3.75983e-16)
(-0.27781 -0.0945323 -2.60159e-17)
(-0.24476 -0.124408 1.704e-16)
(-0.171248 -0.123754 -4.21803e-16)
(-0.08295 -0.105754 -2.9594e-17)
(-0.00454043 -0.0831242 -1.67185e-16)
(0.0478969 -0.0616372 2.0114e-16)
(0.0665524 -0.0346611 4.51184e-16)
(0.0464078 -0.00796307 4.33653e-17)
(-0.00835372 0.0175682 -1.9047e-16)
(-0.0967434 0.0426327 1.26923e-16)
(-0.22364 0.062374 2.77073e-16)
(-0.394179 0.0822654 -2.04044e-16)
(-0.618679 0.115213 -1.67247e-16)
(-0.883715 0.145852 2.09205e-16)
(-1.16371 0.162233 -6.8124e-16)
(-1.44767 0.161401 -2.83962e-16)
(-1.70807 0.142645 -2.37211e-16)
(-1.92563 0.121412 6.73319e-17)
(-2.0932 0.103829 2.50631e-16)
(-2.19884 0.082156 -4.57585e-16)
(-2.23668 0.058613 -8.79081e-17)
(-2.21204 0.0368938 1.29833e-16)
(-2.12883 0.0169137 -5.36655e-18)
(-1.98638 -0.0010553 -5.72465e-17)
(-1.78962 -0.0153749 6.13594e-16)
(-1.54307 -0.026152 -2.37019e-16)
(-1.25548 -0.0335448 1.65931e-16)
(-0.941139 -0.036354 -3.24356e-16)
(-0.613597 -0.0357288 -6.607e-17)
(-0.283222 -0.0340921 -1.07086e-15)
(0.0404517 -0.0311759 -7.48901e-16)
(0.351591 -0.0277187 -2.10674e-16)
(0.64252 -0.0225375 5.93643e-16)
(0.904485 -0.016393 -8.94222e-17)
(1.12913 -0.00702918 2.07129e-16)
(1.31468 0.00369714 -9.26084e-16)
(1.45174 0.0160676 5.39382e-16)
(1.52956 0.0292471 -1.18142e-16)
(1.54963 0.0401543 -8.3722e-16)
(1.49383 0.0481016 7.27254e-17)
(1.44441 0.055464 -3.23388e-16)
(1.21922 0.0449991 4.72061e-16)
(0.0569046 -0.117351 -2.88974e-16)
(0.334211 -0.681731 3.85611e-18)
(0.580821 -0.918539 -3.28076e-16)
(0.789436 -0.938543 -1.25998e-17)
(0.968978 -0.842268 -8.40671e-16)
(1.11545 -0.687933 1.95615e-16)
(1.22393 -0.503934 5.33343e-16)
(1.2923 -0.306849 -1.82851e-16)
(1.31896 -0.107499 -1.17063e-16)
(1.30638 0.0846328 -4.81307e-17)
(1.25532 0.260736 1.29055e-16)
(1.16709 0.412754 7.26545e-16)
(1.04492 0.531099 -9.31143e-16)
(0.894438 0.601544 -4.73483e-16)
(0.726129 0.608206 5.32756e-17)
(0.555524 0.542412 -9.57671e-17)
(0.394777 0.416824 -2.65433e-16)
(0.259962 0.257966 3.81508e-16)
(0.179049 0.0867374 9.693e-18)
(0.130176 -0.052546 -1.23199e-15)
(0.0901213 -0.124911 2.39548e-16)
(0.0420874 -0.137082 3.07958e-16)
(-0.0287929 -0.101045 -2.3447e-16)
(-0.124003 -0.0423379 2.38115e-17)
(-0.243507 0.0183059 2.66042e-16)
(-0.390468 0.0764759 4.32823e-17)
(-0.560538 0.13601 -2.45084e-16)
(-0.763452 0.19575 -6.50798e-16)
(-1.00396 0.258013 2.76192e-16)
(-1.27356 0.317851 -7.02634e-16)
(-1.55352 0.354412 2.25986e-16)
(-1.81121 0.360457 1.54482e-16)
(-2.03716 0.342216 1.56485e-15)
(-2.22704 0.300972 1.54446e-16)
(-2.36754 0.237221 -2.36681e-16)
(-2.44369 0.157813 3.03471e-16)
(-2.44237 0.0679978 -1.9307e-16)
(-2.36146 -0.0233819 4.63677e-16)
(-2.20772 -0.106597 1.00119e-15)
(-1.99311 -0.17896 5.42131e-17)
(-1.72075 -0.241011 1.05623e-15)
(-1.39206 -0.295538 -4.80818e-17)
(-1.01408 -0.340607 -9.88014e-16)
(-0.593469 -0.375178 1.28117e-15)
(-0.142196 -0.396961 4.08333e-16)
(0.327492 -0.405097 -3.24235e-16)
(0.801062 -0.399232 -2.11937e-16)
(1.26912 -0.383969 -5.47399e-16)
(1.71981 -0.360705 4.04257e-16)
(2.14516 -0.331539 -4.56891e-17)
(2.5328 -0.296197 5.92425e-16)
(2.87496 -0.256644 1.37048e-16)
(3.16635 -0.214108 2.06567e-16)
(3.40197 -0.170771 -5.50868e-16)
(3.57504 -0.119931 -2.49375e-15)
(3.67104 -0.0699624 4.22452e-16)
(3.71143 -0.0126103 -8.35217e-16)
(3.64003 0.0207022 -7.30083e-17)
(3.58748 0.0714916 4.54888e-16)
(3.29984 0.0842503 3.49512e-16)
(0.131561 -0.730584 1.5047e-16)
(0.283887 -1.27058 -1.41337e-17)
(0.375111 -1.2834 6.53276e-16)
(0.395626 -1.12888 -1.26188e-16)
(0.407923 -0.929932 8.96697e-16)
(0.418134 -0.712827 3.22078e-16)
(0.427656 -0.483197 8.68981e-17)
(0.429965 -0.247386 -8.32683e-17)
(0.421998 -0.013375 7.87806e-16)
(0.401852 0.205876 -1.13579e-15)
(0.372625 0.400577 2.39888e-16)
(0.339797 0.564211 -6.19922e-16)
(0.306332 0.689857 1.85361e-15)
(0.270651 0.765521 6.58441e-16)
(0.231978 0.772064 -1.38646e-16)
(0.19369 0.693828 1.1744e-16)
(0.16753 0.532559 1.24888e-15)
(0.147158 0.309909 4.31798e-16)
(0.0951945 0.109915 2.36705e-16)
(-0.0189804 0.0162531 2.01422e-15)
(-0.1784 0.0259103 -9.06234e-17)
(-0.369865 0.0808707 -6.15749e-16)
(-0.579956 0.148735 -4.00504e-16)
(-0.794612 0.216182 1.5428e-16)
(-1.00485 0.279361 -7.68636e-16)
(-1.21057 0.344103 5.48589e-16)
(-1.41002 0.412384 2.93693e-16)
(-1.60201 0.478542 9.41746e-16)
(-1.77549 0.533492 -6.21641e-16)
(-1.92094 0.564174 7.21634e-16)
(-2.02718 0.560862 1.19062e-15)
(-2.08091 0.524873 -2.34736e-16)
(-2.08167 0.460877 3.99758e-16)
(-2.02819 0.368818 6.41483e-16)
(-1.92048 0.251252 -2.36741e-16)
(-1.76111 0.118034 6.67216e-16)
(-1.54991 -0.0222751 -5.13896e-16)
(-1.29212 -0.159279 -1.24245e-15)
(-0.992178 -0.285167 -3.16559e-15)
(-0.653776 -0.39556 -9.22538e-16)
(-0.273759 -0.491767 -3.68964e-15)
(0.143761 -0.576254 -1.50481e-15)
(0.59383 -0.645224 1.62705e-16)
(1.0711 -0.696694 -1.63413e-15)
(1.56772 -0.726288 3.64653e-17)
(2.07239 -0.732427 6.88672e-16)
(2.57459 -0.715373 5.92936e-16)
(3.06272 -0.681322 4.08629e-16)
(3.52737 -0.633309 9.62511e-16)
(3.96202 -0.574825 -7.32402e-16)
(4.35348 -0.505467 5.89379e-16)
(4.68935 -0.429155 1.36312e-16)
(4.96418 -0.349453 -2.14238e-15)
(5.17225 -0.269744 1.15158e-15)
(5.30861 -0.180061 1.3212e-15)
(5.36614 -0.0944323 5.28495e-16)
(5.36599 -0.00268726 4.39181e-15)
(5.27677 0.0639367 1.14578e-15)
(5.19151 0.140522 1.16589e-15)
(4.92135 0.182912 8.95624e-16)
(0.0681109 -0.995511 4.78315e-16)
(-0.0338789 -1.17487 3.85653e-18)
(-0.135473 -1.03086 5.69723e-16)
(-0.262323 -0.913442 -4.68169e-16)
(-0.360498 -0.782322 -7.8091e-16)
(-0.445699 -0.610321 -7.90051e-16)
(-0.506398 -0.407144 -1.79313e-15)
(-0.548066 -0.186262 -2.85221e-16)
(-0.564629 0.0394728 7.1713e-16)
(-0.563573 0.255756 1.00329e-15)
(-0.54693 0.448324 5.35739e-16)
(-0.515487 0.605138 8.5923e-16)
(-0.467868 0.713988 -2.49802e-15)
(-0.403071 0.758121 -1.15641e-15)
(-0.327767 0.720832 -2.85558e-16)
(-0.258978 0.600019 1.177e-16)
(-0.225816 0.441867 -1.50191e-15)
(-0.27564 0.333532 -8.26466e-16)
(-0.418542 0.296696 -1.90024e-16)
(-0.61112 0.291207 -2.0669e-15)
(-0.820139 0.316669 -8.89601e-16)
(-1.02908 0.363574 1.40918e-15)
(-1.22672 0.412994 -5.82215e-20)
(-1.40311 0.456913 -2.43052e-16)
(-1.54526 0.494113 -4.9111e-16)
(-1.64767 0.528792 1.10564e-16)
(-1.70757 0.563046 -2.43594e-16)
(-1.72446 0.59164 1.2817e-15)
(-1.69448 0.603348 1.32455e-15)
(-1.61654 0.587268 -1.12683e-15)
(-1.49008 0.53608 -7.59724e-16)
(-1.31514 0.451375 -7.47278e-17)
(-1.0974 0.341455 -4.00509e-15)
(-0.842031 0.211819 9.56199e-16)
(-0.554773 0.061323 2.86396e-15)
(-0.243239 -0.103056 -2.17112e-15)
(0.0870743 -0.273183 -5.87029e-16)
(0.429319 -0.435482 4.49283e-16)
(0.788388 -0.584105 -6.04401e-16)
(1.17069 -0.717242 -3.26904e-16)
(1.58325 -0.835071 4.2105e-15)
(2.02012 -0.934957 4.50637e-15)
(2.47504 -1.01292 2.25933e-15)
(2.94462 -1.06685 1.69347e-15)
(3.4217 -1.09358 -1.32818e-15)
(3.89648 -1.08933 -8.35335e-16)
(4.36126 -1.05664 -7.20634e-16)
(4.80724 -1.00076 2.06081e-15)
(5.22776 -0.926922 -2.96724e-15)
(5.61546 -0.839362 1.10879e-15)
(5.95911 -0.736477 -6.54032e-16)
(6.25026 -0.622503 -2.33328e-15)
(6.48209 -0.502528 6.33967e-15)
(6.64232 -0.380129 -2.12834e-15)
(6.72622 -0.248825 2.7559e-15)
(6.73263 -0.123903 2.42571e-15)
(6.68536 -0.00116634 -4.84598e-15)
(6.56512 0.0910386 -2.13812e-15)
(6.44584 0.188152 4.50903e-16)
(6.20343 0.251634 -1.17623e-15)
(-0.0621371 -0.726177 -5.82232e-16)
(-0.354895 -0.78101 -8.31828e-16)
(-0.572976 -0.730429 -2.43676e-17)
(-0.780494 -0.642834 1.61313e-15)
(-0.960873 -0.537582 -7.10908e-17)
(-1.10948 -0.418424 -9.68642e-16)
(-1.21656 -0.27925 4.38946e-16)
(-1.28274 -0.124932 -3.54661e-16)
(-1.30819 0.0373434 -1.50201e-15)
(-1.29791 0.195279 1.04439e-15)
(-1.25678 0.337642 -1.63074e-15)
(-1.19093 0.453679 -1.98869e-15)
(-1.10747 0.53523 7.75481e-16)
(-1.01753 0.578356 1.67038e-15)
(-0.94288 0.586133 -1.42359e-15)
(-0.90937 0.575133 1.44528e-15)
(-0.932923 0.567626 3.19882e-16)
(-0.999467 0.56088 -8.28852e-16)
(-1.0905 0.554513 -4.34795e-16)
(-1.18788 0.558378 1.76996e-15)
(-1.2743 0.570958 3.09539e-15)
(-1.33443 0.580679 -2.35942e-15)
(-1.35727 0.57929 1.13711e-15)
(-1.33704 0.564262 6.92919e-17)
(-1.26946 0.539895 -1.30499e-17)
(-1.1577 0.513791 -1.30049e-16)
(-1.00176 0.489793 5.24825e-16)
(-0.804209 0.46464 -1.51681e-15)
(-0.566781 0.429593 -4.55515e-15)
(-0.294634 0.376549 -1.61289e-15)
(0.00361818 0.296441 -3.24224e-15)
(0.32571 0.187223 4.59707e-16)
(0.665946 0.056242 5.95121e-15)
(1.01944 -0.0913108 -6.09873e-16)
(1.3826 -0.252359 -2.38014e-16)
(1.75007 -0.419802 -1.76544e-16)
(2.1137 -0.585812 -2.23448e-16)
(2.47264 -0.745137 -1.4753e-15)
(2.83499 -0.894483 5.45059e-15)
(3.20966 -1.03239 7.32453e-16)
(3.59992 -1.15575 -3.0632e-15)
(4.00161 -1.25786 -2.97872e-15)
(4.40902 -1.33428 -3.80285e-15)
(4.81718 -1.38197 -5.3518e-15)
(5.21972 -1.3985 4.90543e-15)
(5.61012 -1.38086 -1.13785e-15)
(5.98559 -1.33126 5.00577e-15)
(6.34266 -1.2546 -3.0925e-15)
(6.67699 -1.15652 -2.39731e-15)
(6.98128 -1.04029 -4.07194e-15)
(7.24492 -0.905777 -4.24259e-15)
(7.46181 -0.757179 1.29735e-15)
(7.62667 -0.598256 -1.25495e-15)
(7.72688 -0.43303 4.02552e-15)
(7.76112 -0.261344 -1.71334e-15)
(7.7294 -0.10072 -2.55225e-15)
(7.65277 0.0477979 5.01688e-15)
(7.52037 0.161138 -2.13074e-15)
(7.38273 0.268681 -3.77081e-15)
(7.17175 0.341417 7.09072e-16)
(-0.129788 -0.110643 -1.22026e-15)
(-0.52906 -0.12775 8.6016e-16)
(-0.853266 -0.145663 -1.58755e-15)
(-1.12459 -0.17192 -4.34368e-16)
(-1.34415 -0.154464 5.42369e-16)
(-1.51754 -0.115573 -2.3598e-16)
(-1.64394 -0.0507598 4.16317e-16)
(-1.72391 0.0317234 1.72359e-15)
(-1.75711 0.127726 -3.76092e-16)
(-1.74909 0.228537 -3.59925e-16)
(-1.70419 0.326585 1.61891e-15)
(-1.62928 0.414456 1.89443e-15)
(-1.5323 0.48715 4.36716e-16)
(-1.42291 0.540841 -9.91606e-16)
(-1.31113 0.573416 1.52414e-15)
(-1.20449 0.586849 -1.71788e-15)
(-1.10345 0.587436 1.64973e-15)
(-1.00495 0.580135 2.78898e-16)
(-0.903741 0.561582 -1.26383e-15)
(-0.78888 0.533736 1.04373e-15)
(-0.652272 0.502686 -1.10867e-15)
(-0.488263 0.464557 -4.13566e-16)
(-0.293589 0.416359 6.46058e-16)
(-0.0680912 0.357989 2.31717e-16)
(0.186586 0.295503 7.48966e-16)
(0.468587 0.234589 6.21223e-17)
(0.779808 0.1782 -3.40559e-15)
(1.11367 0.124698 2.86206e-15)
(1.46529 0.0689356 2.15752e-15)
(1.83246 0.00318722 2.50617e-15)
(2.20769 -0.081902 2.67422e-15)
(2.58428 -0.189998 -1.00259e-17)
(2.95265 -0.317499 -6.36855e-15)
(3.30836 -0.460718 -8.69497e-16)
(3.65346 -0.613319 -6.57776e-16)
(3.98671 -0.7688 1.86201e-15)
(4.30738 -0.921468 4.95609e-16)
(4.61925 -1.06855 5.07507e-15)
(4.9303 -1.21022 -3.66604e-15)
(5.24538 -1.34304 1.23773e-15)
(5.56299 -1.46012 6.51179e-15)
(5.87977 -1.55398 -3.38204e-16)
(6.19129 -1.62004 -1.46391e-15)
(6.49406 -1.65508 4.39717e-15)
(6.78484 -1.6564 -4.59329e-15)
(7.06108 -1.62205 3.60624e-15)
(7.32248 -1.5538 -2.95904e-16)
(7.56824 -1.45697 -1.97467e-15)
(7.79456 -1.33704 4.80331e-15)
(7.99326 -1.19554 3.77523e-15)
(8.15613 -1.03254 -2.20019e-16)
(8.27768 -0.852841 1.29952e-15)
(8.35476 -0.660184 -9.49484e-15)
(8.38223 -0.460577 -1.07469e-15)
(8.36643 -0.259132 -8.97238e-15)
(8.30893 -0.0726724 -1.52376e-15)
(8.22409 0.0938397 -5.4446e-16)
(8.10451 0.220889 2.28641e-15)
(7.97717 0.333567 -1.56367e-15)
(7.81778 0.411825 2.26042e-15)
(-0.0622015 0.414096 1.26919e-15)
(-0.31081 0.505247 -9.37886e-16)
(-0.450741 0.352643 1.60021e-15)
(-0.65971 0.229289 -1.86656e-16)
(-0.839922 0.140286 -1.13619e-16)
(-1.00941 0.0876776 1.95113e-15)
(-1.13909 0.0661881 1.20408e-15)
(-1.22937 0.0692733 -3.00243e-15)
(-1.27192 0.0904683 1.24252e-15)
(-1.26699 0.122932 -8.25332e-16)
(-1.21388 0.160801 -1.75811e-15)
(-1.11617 0.198888 -3.9642e-15)
(-0.977973 0.233462 1.55202e-15)
(-0.8046 0.261699 3.06031e-15)
(-0.600878 0.281594 2.99766e-15)
(-0.373292 0.291383 8.73704e-16)
(-0.125953 0.292825 -1.52101e-15)
(0.138901 0.287164 -6.93922e-16)
(0.419489 0.26867 3.75909e-15)
(0.713562 0.236436 3.54574e-16)
(1.02234 0.194276 1.36002e-15)
(1.34446 0.143227 1.95753e-16)
(1.67684 0.082595 -1.88427e-15)
(2.01479 0.0137583 -1.71314e-15)
(2.35545 -0.058909 2.24726e-17)
(2.69771 -0.128855 -2.19751e-15)
(3.04245 -0.193573 6.11013e-15)
(3.39096 -0.255375 1.56118e-16)
(3.74304 -0.31815 2.67885e-15)
(4.09676 -0.386645 2.5479e-15)
(4.44687 -0.465983 2.95033e-15)
(4.78905 -0.559091 -2.25098e-15)
(5.11718 -0.665352 7.28788e-15)
(5.42349 -0.782883 4.73282e-16)
(5.70544 -0.909554 -2.8533e-15)
(5.9677 -1.04054 -1.30138e-15)
(6.218 -1.17251 -4.47529e-16)
(6.46143 -1.30503 -5.92269e-15)
(6.70028 -1.43703 2.03864e-15)
(6.93369 -1.56235 -3.3907e-15)
(7.15845 -1.67133 -7.65906e-15)
(7.37165 -1.75477 -3.23641e-16)
(7.57078 -1.80782 1.76448e-15)
(7.75576 -1.8279 3.0758e-15)
(7.92677 -1.8135 -4.01055e-15)
(8.08401 -1.76371 -1.90755e-15)
(8.22926 -1.68058 -4.55614e-15)
(8.36234 -1.56901 6.80625e-15)
(8.4785 -1.43262 3.08995e-15)
(8.5687 -1.27115 2.05748e-15)
(8.62725 -1.08598 7.23735e-15)
(8.65127 -0.881984 2.60521e-15)
(8.64273 -0.664901 1.02275e-14)
(8.60459 -0.443893 -3.21469e-15)
(8.54875 -0.227657 1.29193e-14)
(8.47756 -0.0293808 4.49074e-15)
(8.40113 0.145226 -1.06131e-14)
(8.31364 0.279832 4.10599e-15)
(8.22147 0.393828 1.33549e-15)
(8.13054 0.473092 -5.69426e-15)
(-0.0410555 0.591703 1.05351e-15)
(0.0980397 0.514193 2.36151e-15)
(0.257984 0.434575 -1.02356e-15)
(0.337676 0.371443 -1.13246e-16)
(0.39715 0.302874 2.12184e-16)
(0.410289 0.23961 1.09849e-15)
(0.409365 0.181816 1.04873e-15)
(0.401648 0.132467 4.58539e-15)
(0.407522 0.0943643 1.01453e-15)
(0.44002 0.0683073 1.0207e-15)
(0.511604 0.0525017 -1.88947e-15)
(0.62746 0.0437472 4.82497e-15)
(0.789123 0.0386288 -2.40022e-15)
(0.994801 0.0346792 -2.236e-15)
(1.24078 0.0302164 -2.23562e-15)
(1.51944 0.0227673 5.13278e-16)
(1.8236 0.010297 8.95001e-16)
(2.14512 -0.00668052 1.25112e-16)
(2.47941 -0.0313502 -2.65164e-15)
(2.81819 -0.0660844 -4.21514e-15)
(3.15491 -0.111026 -4.2058e-15)
(3.4854 -0.165043 2.74721e-15)
(3.80762 -0.2271 -1.08138e-15)
(4.11952 -0.294558 3.06348e-15)
(4.42046 -0.364663 1.37154e-15)
(4.71249 -0.43352 3.23481e-15)
(4.99911 -0.498126 -2.88552e-15)
(5.28534 -0.558031 -5.15565e-15)
(5.57396 -0.614758 -3.25277e-15)
(5.86477 -0.671898 -5.23319e-15)
(6.15125 -0.735516 -4.01468e-15)
(6.42686 -0.809293 2.27809e-15)
(6.68789 -0.893204 -3.93902e-15)
(6.93166 -0.987291 1.21627e-15)
(7.15704 -1.09154 1.38442e-15)
(7.36789 -1.20588 -1.12282e-16)
(7.56929 -1.32882 1.62029e-15)
(7.76194 -1.45643 1.68077e-15)
(7.94154 -1.58227 9.22281e-16)
(8.10191 -1.69764 2.57122e-15)
(8.2403 -1.7933 1.34757e-15)
(8.35665 -1.862 -5.44348e-16)
(8.45208 -1.89979 6.01347e-15)
(8.53061 -1.9059 -4.49817e-15)
(8.59592 -1.87995 2.508e-15)
(8.65046 -1.82092 2.48704e-15)
(8.69669 -1.7299 -1.54717e-15)
(8.7338 -1.60954 -4.51711e-15)
(8.75495 -1.46113 -6.59848e-15)
(8.75023 -1.28422 -3.64972e-15)
(8.71636 -1.08213 -1.76461e-15)
(8.65428 -0.861659 -3.30824e-15)
(8.57336 -0.632106 -1.93039e-15)
(8.48283 -0.404368 6.0846e-15)
(8.39809 -0.187921 9.70437e-16)
(8.32312 0.00841696 -2.12545e-16)
(8.26715 0.179814 4.53645e-15)
(8.2201 0.315145 -5.09179e-15)
(8.17615 0.426297 1.94574e-15)
(8.15077 0.50647 -1.36503e-15)
(0.501456 0.372166 2.35048e-17)
(0.714721 0.358742 -1.38792e-15)
(1.06791 0.271127 4.62725e-16)
(1.35041 0.222844 -1.16304e-15)
(1.58344 0.185854 3.70825e-16)
(1.78526 0.149429 -1.815e-15)
(1.97131 0.112085 -2.11996e-15)
(2.14753 0.0763511 -2.3095e-15)
(2.32103 0.0420683 -2.11959e-15)
(2.49709 0.00797518 -1.00687e-15)
(2.6807 -0.0264315 3.47657e-15)
(2.87529 -0.0601451 -1.21896e-15)
(3.08418 -0.0920516 3.99879e-16)
(3.3092 -0.121567 -1.84864e-15)
(3.55136 -0.14938 -2.12637e-15)
(3.80921 -0.176333 -1.33204e-15)
(4.07991 -0.203428 -1.47022e-15)
(4.35857 -0.231552 1.47517e-15)
(4.64167 -0.262783 9.02073e-16)
(4.92561 -0.298743 8.32529e-16)
(5.20591 -0.339497 1.27591e-15)
(5.47761 -0.385302 -1.82354e-17)
(5.73827 -0.436168 2.26813e-15)
(5.98607 -0.491318 -1.99189e-15)
(6.22045 -0.549012 -2.17776e-15)
(6.44273 -0.60789 -1.90722e-15)
(6.65516 -0.666276 7.39182e-16)
(6.86214 -0.723103 -1.03234e-16)
(7.06678 -0.779027 1.964e-15)
(7.27132 -0.83493 3.13339e-15)
(7.47461 -0.893529 4.24878e-16)
(7.67316 -0.958934 -3.24046e-16)
(7.86341 -1.03366 5.1543e-17)
(8.04527 -1.11879 -2.04643e-15)
(8.22072 -1.21484 2.89377e-16)
(8.38984 -1.32234 9.10057e-16)
(8.54812 -1.43845 -4.18748e-18)
(8.68785 -1.55604 1.31179e-15)
(8.80186 -1.66693 -1.92474e-15)
(8.88608 -1.76368 1.03457e-16)
(8.94096 -1.84082 5.447e-16)
(8.96911 -1.89378 1.69829e-15)
(8.97495 -1.91951 -4.11757e-15)
(8.96528 -1.9176 7.44737e-16)
(8.94471 -1.88629 2.94218e-15)
(8.91589 -1.82351 -2.82091e-15)
(8.88079 -1.72912 1.32827e-15)
(8.83604 -1.60324 2.42105e-15)
(8.77148 -1.44494 3.24463e-15)
(8.67733 -1.25494 1.64499e-15)
(8.55454 -1.03904 -2.19648e-15)
(8.41061 -0.80824 -3.58956e-17)
(8.26159 -0.574561 -1.86884e-15)
(8.12061 -0.349891 -3.39301e-15)
(8.00803 -0.143404 -5.10814e-15)
(7.93015 0.0405723 -3.62751e-15)
(7.89564 0.19883 3.97007e-15)
(7.88597 0.327603 1.79035e-15)
(7.89352 0.431882 4.02237e-16)
(7.92428 0.513167 3.56804e-15)
(3.17222 -0.202269 -1.53287e-15)
(3.35747 -0.123075 -1.44722e-15)
(3.58056 -0.0936535 -1.3169e-15)
(3.81901 -0.087455 7.305e-16)
(4.04874 -0.0898734 2.64827e-15)
(4.26471 -0.099328 2.01593e-15)
(4.4714 -0.115617 -3.52002e-15)
(4.67298 -0.137145 4.83681e-16)
(4.87248 -0.162366 2.97765e-15)
(5.0715 -0.189913 -2.08797e-15)
(5.27052 -0.218808 1.33091e-15)
(5.46907 -0.248273 -1.75321e-15)
(5.66679 -0.277939 -1.53692e-15)
(5.86338 -0.307546 2.59202e-15)
(6.05907 -0.336901 -2.23001e-15)
(6.25402 -0.365553 1.63069e-15)
(6.44871 -0.39347 -4.99682e-16)
(6.64291 -0.421039 8.32189e-16)
(6.83606 -0.449347 -1.6212e-15)
(7.02727 -0.479933 3.83192e-15)
(7.21493 -0.513498 -1.01508e-15)
(7.39736 -0.550431 1.29019e-16)
(7.57307 -0.59113 7.45186e-16)
(7.74078 -0.635671 -6.73325e-16)
(7.89974 -0.682964 1.20427e-15)
(8.04972 -0.731697 -4.10599e-16)
(8.19011 -0.780876 -2.20906e-16)
(8.322 -0.830029 -1.18806e-16)
(8.44717 -0.879766 -1.84363e-16)
(8.56783 -0.931397 1.6996e-15)
(8.68643 -0.986526 -1.42422e-15)
(8.80511 -1.04744 8.41706e-16)
(8.92328 -1.11678 2.91761e-16)
(9.03842 -1.19712 9.95711e-16)
(9.14806 -1.28864 1.7458e-15)
(9.24836 -1.38921 -3.99083e-15)
(9.33141 -1.4939 1.89441e-15)
(9.38857 -1.5959 -8.64966e-16)
(9.41542 -1.68896 2.89923e-15)
(9.41152 -1.76847 -3.69796e-15)
(9.37943 -1.83108 -1.81322e-15)
(9.32371 -1.87338 2.15246e-15)
(9.25112 -1.89295 -2.7378e-16)
(9.16746 -1.88744 3.38778e-16)
(9.07402 -1.85334 5.6564e-16)
(8.97154 -1.78838 -3.48435e-16)
(8.85873 -1.69112 2.30614e-15)
(8.72669 -1.5583 1.82309e-15)
(8.56268 -1.38727 4.36919e-15)
(8.36281 -1.18172 -1.81677e-15)
(8.13877 -0.953229 -1.97901e-15)
(7.9072 -0.71695 -1.83525e-15)
(7.68807 -0.486914 -2.2567e-16)
(7.49855 -0.275847 2.76533e-15)
(7.35912 -0.0917035 -3.81365e-16)
(7.27151 0.0682429 -4.35884e-16)
(7.24201 0.203158 -2.13714e-15)
(7.24984 0.317246 6.55221e-17)
(7.29782 0.408495 1.51329e-15)
(7.36793 0.48755 1.97284e-15)
(8.80381 0.111319 5.20822e-16)
(8.74905 0.0757397 5.33247e-16)
(8.71885 0.046746 3.003e-16)
(8.72182 0.0147275 1.25478e-15)
(8.74377 -0.0194019 -1.67383e-15)
(8.77359 -0.0539843 2.6592e-15)
(8.80881 -0.0893591 5.20175e-15)
(8.84988 -0.126154 1.08611e-15)
(8.89702 -0.164276 -4.12955e-15)
(8.94973 -0.203062 5.87857e-15)
(9.00719 -0.241749 -2.44447e-15)
(9.06816 -0.279744 -1.04547e-16)
(9.13147 -0.316449 5.04116e-15)
(9.19579 -0.351344 2.24543e-15)
(9.26007 -0.384221 1.02177e-15)
(9.32342 -0.415221 -2.16547e-15)
(9.38529 -0.444957 2.29438e-15)
(9.44548 -0.474234 -2.40014e-15)
(9.50387 -0.504019 1.90558e-15)
(9.56023 -0.535345 -4.57171e-15)
(9.61396 -0.568954 -4.5114e-15)
(9.66457 -0.604989 -4.41773e-16)
(9.71126 -0.643623 4.45293e-16)
(9.7535 -0.684357 -2.44003e-15)
(9.79034 -0.726655 -5.01348e-15)
(9.82127 -0.76968 2.82978e-15)
(9.84624 -0.812809 7.21958e-16)
(9.86557 -0.856382 -4.87243e-15)
(9.88042 -0.901528 -4.21048e-15)
(9.89203 -0.950157 -2.721e-15)
(9.90219 -1.00458 2.59774e-15)
(9.91252 -1.06726 4.16123e-17)
(9.92394 -1.13946 -2.41726e-15)
(9.93506 -1.22125 -1.51984e-15)
(9.94108 -1.31064 2.97815e-15)
(9.93474 -1.40393 1.1019e-15)
(9.90888 -1.49613 2.03853e-16)
(9.85856 -1.58289 5.12091e-16)
(9.78336 -1.66066 -1.43646e-15)
(9.68645 -1.72679 7.92017e-15)
(9.57223 -1.77861 1.27558e-15)
(9.44474 -1.81332 1.99423e-16)
(9.30728 -1.82831 1.62722e-15)
(9.1584 -1.81911 1.73872e-15)
(8.99467 -1.78138 3.88734e-15)
(8.81385 -1.71239 -2.51036e-15)
(8.60752 -1.60699 1.59195e-15)
(8.36033 -1.45786 -2.43162e-15)
(8.064 -1.26499 -6.70367e-15)
(7.73296 -1.04099 1.96266e-15)
(7.39733 -0.805459 1.11729e-14)
(7.08288 -0.575585 2.82479e-15)
(6.81201 -0.365358 2.10441e-15)
(6.59901 -0.184901 1.75255e-15)
(6.44626 -0.0337629 1.48223e-15)
(6.34553 0.0957264 2.52712e-15)
(6.30567 0.201074 -5.16023e-15)
(6.30988 0.292193 4.29334e-15)
(6.3787 0.36197 -6.07467e-16)
(6.45753 0.429097 -4.78531e-17)
(11.2055 0.0884153 4.36648e-16)
(11.2091 0.0491812 -2.53934e-15)
(11.2172 0.0193919 3.3967e-15)
(11.2314 -0.00796566 1.35543e-16)
(11.2493 -0.0361257 -1.30088e-15)
(11.2671 -0.0654994 -6.10419e-15)
(11.2829 -0.0961291 -6.94982e-16)
(11.2966 -0.128193 -4.12221e-15)
(11.3085 -0.161599 3.76316e-15)
(11.3183 -0.195881 -3.97487e-15)
(11.3255 -0.230277 -2.97381e-16)
(11.3296 -0.26392 -1.83688e-15)
(11.3305 -0.295951 -3.7361e-15)
(11.3282 -0.32577 -2.71433e-15)
(11.3229 -0.353166 -1.26683e-15)
(11.3145 -0.378441 1.26882e-15)
(11.3031 -0.402193 3.00056e-15)
(11.2886 -0.425233 4.52032e-15)
(11.2706 -0.448555 7.62767e-16)
(11.2487 -0.473122 5.82633e-15)
(11.2223 -0.499758 8.72699e-15)
(11.1909 -0.528949 2.43631e-15)
(11.1535 -0.560977 -1.44872e-15)
(11.1098 -0.595939 4.46745e-15)
(11.0594 -0.633713 5.03264e-15)
(11.0025 -0.67409 -1.33758e-15)
(10.9398 -0.716809 1.32581e-16)
(10.8727 -0.762174 7.02022e-15)
(10.8033 -0.811183 3.09482e-15)
(10.7332 -0.865412 1.90399e-15)
(10.6633 -0.926658 1.11107e-15)
(10.5931 -0.996415 -1.91258e-15)
(10.521 -1.07494 -5.04191e-15)
(10.4439 -1.16012 -1.53278e-15)
(10.3572 -1.24825 -2.93384e-15)
(10.2558 -1.33521 -3.58849e-16)
(10.1367 -1.41795 -5.38277e-15)
(10.0001 -1.49515 3.23777e-15)
(9.85033 -1.56601 -6.0641e-15)
(9.69158 -1.62847 -1.42333e-15)
(9.52446 -1.67833 3.71374e-15)
(9.34596 -1.7111 -4.67367e-15)
(9.14968 -1.72238 -1.54241e-15)
(8.92728 -1.7069 -3.99471e-15)
(8.67496 -1.66098 -1.11073e-15)
(8.38511 -1.57797 -4.89814e-15)
(8.04197 -1.447 -6.71494e-15)
(7.63546 -1.26437 2.21149e-15)
(7.18273 -1.04531 9.11465e-15)
(6.73011 -0.817385 5.71404e-15)
(6.31945 -0.601395 -2.38894e-15)
(5.97291 -0.407632 -1.8795e-15)
(5.70131 -0.24102 -4.46522e-15)
(5.49727 -0.0998884 -1.56536e-15)
(5.34708 0.0201409 -2.57956e-15)
(5.24683 0.120437 -1.42167e-15)
(5.20623 0.194505 -3.893e-16)
(5.20757 0.257074 -5.84915e-15)
(5.2865 0.300985 -7.12474e-15)
(5.35411 0.350739 -6.23609e-15)
(11.2793 0.0821561 -3.62546e-15)
(11.2954 0.0532796 8.45698e-15)
(11.3113 0.0266188 -9.16118e-16)
(11.3286 0.000628682 -6.76181e-16)
(11.3457 -0.0263693 -1.96496e-15)
(11.36 -0.0550996 8.60732e-15)
(11.3702 -0.0855037 -6.72453e-15)
(11.3758 -0.117276 9.45124e-15)
(11.3771 -0.150037 -8.60992e-15)
(11.374 -0.183257 -1.05881e-15)
(11.3664 -0.216239 3.66721e-15)
(11.3544 -0.248227 9.91545e-15)
(11.3382 -0.278652 2.15692e-15)
(11.3183 -0.307227 1.41803e-15)
(11.2954 -0.333931 -6.57991e-16)
(11.2699 -0.359033 6.57512e-15)
(11.2425 -0.383005 -1.18099e-14)
(11.2134 -0.406526 1.97832e-15)
(11.1826 -0.43035 2.73659e-15)
(11.1502 -0.455278 -5.50936e-15)
(11.1156 -0.481993 -1.15559e-15)
(11.0786 -0.511031 -7.42513e-15)
(11.0384 -0.542619 -5.21769e-15)
(10.995 -0.576817 -7.02452e-15)
(10.9485 -0.613497 -1.27028e-14)
(10.8993 -0.65274 -5.35922e-15)
(10.8482 -0.694695 5.86868e-15)
(10.7962 -0.739695 4.21004e-16)
(10.7439 -0.788347 -8.0294e-16)
(10.6909 -0.84157 -8.98419e-15)
(10.6354 -0.900117 -7.26568e-15)
(10.5745 -0.964608 -2.46322e-15)
(10.5044 -1.03478 1.73728e-14)
(10.4205 -1.10863 7.11487e-16)
(10.3187 -1.18302 -6.7565e-15)
(10.1965 -1.2556 3.24105e-15)
(10.0549 -1.32633 7.94441e-15)
(9.89756 -1.39607 -7.78111e-15)
(9.72777 -1.46355 1.43745e-14)
(9.54306 -1.52338 -6.34961e-15)
(9.33591 -1.56752 7.86183e-16)
(9.09659 -1.58939 3.36465e-15)
(8.81268 -1.58395 -1.02352e-14)
(8.47767 -1.54831 4.27034e-15)
(8.08976 -1.47823 3.52678e-15)
(7.63595 -1.36029 1.08003e-14)
(7.1098 -1.18583 1.34475e-15)
(6.53534 -0.972234 -9.1303e-15)
(5.9709 -0.757211 -1.47416e-15)
(5.47263 -0.566488 -7.77232e-15)
(5.05754 -0.401601 -9.08214e-15)
(4.72841 -0.258254 -1.89305e-15)
(4.47978 -0.136515 1.89752e-14)
(4.29402 -0.030485 5.63218e-15)
(4.16136 0.0597879 -3.33101e-15)
(4.08042 0.130772 7.05501e-15)
(4.05134 0.174653 5.16111e-15)
(4.05402 0.209163 -4.06453e-15)
(4.13861 0.227013 1.04543e-14)
(4.18129 0.261694 3.61124e-15)
(11.0781 0.041922 3.27741e-16)
(11.096 0.0184254 5.18759e-16)
(11.1131 -0.00491881 -1.50322e-15)
(11.1304 -0.028614 -3.74792e-15)
(11.1465 -0.0532665 1.48375e-15)
(11.1595 -0.0791891 8.05171e-16)
(11.1686 -0.106259 -1.55956e-15)
(11.1737 -0.134141 9.02176e-16)
(11.1749 -0.162486 3.31464e-15)
(11.1726 -0.190947 4.55928e-15)
(11.1669 -0.21916 -3.69455e-15)
(11.1577 -0.246779 -6.6137e-15)
(11.1454 -0.27357 -3.15728e-15)
(11.1302 -0.299422 1.74119e-15)
(11.1127 -0.324416 -4.28638e-16)
(11.0933 -0.348754 -1.98241e-15)
(11.0724 -0.372803 5.36773e-15)
(11.0504 -0.397006 -2.20184e-15)
(11.0275 -0.421842 -1.36655e-15)
(11.0037 -0.447819 1.29421e-15)
(10.9791 -0.475376 -4.99254e-15)
(10.9535 -0.504843 4.61718e-15)
(10.9268 -0.536397 5.26137e-15)
(10.8988 -0.570066 6.08911e-15)
(10.8693 -0.60594 1.05439e-14)
(10.8381 -0.644148 -2.11746e-15)
(10.8049 -0.68504 1.37203e-15)
(10.769 -0.729004 -4.12854e-15)
(10.7293 -0.776048 1.48708e-15)
(10.6835 -0.826146 2.52779e-15)
(10.6278 -0.879177 -4.45757e-16)
(10.5582 -0.935261 5.02685e-15)
(10.4705 -0.993503 -1.19494e-14)
(10.3609 -1.05264 3.28941e-15)
(10.2281 -1.11168 5.05637e-15)
(10.0726 -1.17136 4.18573e-15)
(9.89561 -1.2335 3.79213e-17)
(9.69619 -1.29679 -8.07702e-15)
(9.4692 -1.35432 -1.82429e-14)
(9.2054 -1.39614 -2.47598e-16)
(8.89623 -1.41451 -1.23971e-14)
(8.53095 -1.40436 5.2315e-15)
(8.09745 -1.36255 5.07118e-15)
(7.59323 -1.2867 -1.95896e-15)
(7.01557 -1.16806 -3.96358e-15)
(6.36753 -0.998708 4.68494e-15)
(5.68936 -0.797641 5.06696e-15)
(5.04375 -0.605054 6.13112e-15)
(4.4879 -0.449973 -4.93225e-15)
(4.02994 -0.325508 -2.40433e-15)
(3.6581 -0.219774 -2.0197e-15)
(3.37421 -0.129671 5.1771e-15)
(3.16558 -0.0531525 -4.45335e-15)
(3.01857 0.0183133 -1.04486e-14)
(2.92699 0.0807162 8.29228e-15)
(2.88223 0.127076 -2.26251e-15)
(2.87452 0.148007 1.27665e-14)
(2.88685 0.158998 4.89371e-16)
(2.9751 0.157922 4.84213e-15)
(2.99509 0.179052 4.42523e-15)
(10.9087 -0.0617294 1.4246e-15)
(10.9303 -0.0722258 -1.04004e-15)
(10.9499 -0.0834193 2.22978e-16)
(10.9694 -0.0955201 1.66345e-15)
(10.9877 -0.108758 7.99504e-16)
(11.0033 -0.123268 -1.51214e-15)
(11.0156 -0.139037 1.37322e-15)
(11.0245 -0.155949 -2.27262e-15)
(11.0305 -0.173838 -4.60451e-16)
(11.0336 -0.192523 -2.21718e-15)
(11.0341 -0.211824 1.33739e-15)
(11.0319 -0.231566 2.04868e-15)
(11.0272 -0.251594 1.78416e-15)
(11.0199 -0.271817 -5.78384e-16)
(11.0103 -0.292238 1.94175e-15)
(10.9987 -0.312945 -1.2388e-15)
(10.9852 -0.334107 9.69252e-16)
(10.97 -0.355955 9.80669e-17)
(10.9531 -0.378761 -1.04987e-16)
(10.9345 -0.402796 -1.09597e-15)
(10.9138 -0.428324 2.92041e-15)
(10.8908 -0.455545 9.29553e-16)
(10.8648 -0.484638 -7.7105e-16)
(10.835 -0.515672 -1.42417e-15)
(10.8001 -0.548723 -2.69344e-15)
(10.7586 -0.583603 1.39435e-15)
(10.7088 -0.62034 -3.90798e-15)