/*--------------------------------*- C++ -*----------------------------------*\
  =========                 |
  \\      /  F ield         | OpenFOAM: The Open Source CFD Toolbox
   \\    /   O peration     | Website:  https://openfoam.org
    \\  /    A nd           | Version:  7
     \\/     M anipulation  |
\*---------------------------------------------------------------------------*/
FoamFile
{
    version     2.0;
    format      ascii;
    class       volSymmTensorField;
    location    "0.255";
    object      UPrime2Mean;
}
// * * * * * * * * * * * * * * * * * * * * * * * * * * * * * * * * * * * * * //

dimensions      [0 2 -2 0 0 0 0];

internalField   nonuniform List<symmTensor> 
400
(
(9.03127e-07 -1.05674e-06 0 1.28488e-05 0 0)
(5.95505e-05 -1.09008e-05 0 2.29903e-06 0 0)
(8.54953e-05 -4.92129e-06 0 4.34079e-07 0 0)
(0.000121759 -2.3686e-06 0 1.61036e-07 0 0)
(0.000147189 -1.27722e-06 0 8.8248e-08 0 0)
(0.000166029 -8.80379e-07 0 6.08669e-08 0 0)
(0.000180474 -7.49284e-07 0 4.79421e-08 0 0)
(0.000192326 -6.85821e-07 0 4.05401e-08 0 0)
(0.000202193 -6.34345e-07 0 3.47649e-08 0 0)
(0.00021043 -5.56417e-07 0 2.96123e-08 0 0)
(0.000217285 -4.59583e-07 0 2.47982e-08 0 0)
(0.000222877 -3.52942e-07 0 2.03084e-08 0 0)
(0.000227299 -2.3925e-07 0 1.62233e-08 0 0)
(0.000230632 -1.22543e-07 0 1.26029e-08 0 0)
(0.000232956 -6.61829e-09 0 9.52707e-09 0 0)
(0.000234354 1.08106e-07 0 7.01724e-09 0 0)
(0.000235045 2.09058e-07 0 5.26665e-09 0 0)
(0.000234463 2.95751e-07 0 4.74928e-09 0 0)
(0.000234987 5.59763e-07 0 3.36743e-09 0 0)
(0.000231523 5.54037e-07 0 6.8044e-09 0 0)
(3.24612e-06 9.55418e-06 0 3.65945e-05 0 0)
(2.76095e-05 -3.09921e-05 0 3.82917e-05 0 0)
(7.7838e-05 -3.93405e-05 0 2.204e-05 0 0)
(0.000161642 -4.03157e-05 0 1.27815e-05 0 0)
(0.000250321 -3.61723e-05 0 8.21894e-06 0 0)
(0.00033183 -3.16282e-05 0 6.00026e-06 0 0)
(0.000403382 -2.76886e-05 0 4.7521e-06 0 0)
(0.000465878 -2.43415e-05 0 3.93652e-06 0 0)
(0.000520133 -2.13673e-05 0 3.33036e-06 0 0)
(0.00056683 -1.85782e-05 0 2.83081e-06 0 0)
(0.000606561 -1.59053e-05 0 2.39649e-06 0 0)
(0.00063988 -1.32984e-05 0 2.00585e-06 0 0)
(0.000667248 -1.07727e-05 0 1.65388e-06 0 0)
(0.000689051 -8.34256e-06 0 1.33772e-06 0 0)
(0.00070566 -6.03317e-06 0 1.05764e-06 0 0)
(0.000717501 -3.87918e-06 0 8.15219e-07 0 0)
(0.000724993 -1.90041e-06 0 6.12042e-07 0 0)
(0.000728579 -3.04993e-07 0 4.56007e-07 0 0)
(0.000731177 1.90316e-06 0 3.44173e-07 0 0)
(0.00072626 2.27589e-06 0 2.9473e-07 0 0)
(5.51775e-06 1.67259e-05 0 5.83766e-05 0 0)
(7.6944e-06 -2.49935e-05 0 9.73893e-05 0 0)
(3.02246e-05 -4.93781e-05 0 8.5404e-05 0 0)
(9.23503e-05 -7.18646e-05 0 6.23946e-05 0 0)
(0.000182959 -8.07267e-05 0 4.42527e-05 0 0)
(0.000284119 -8.05606e-05 0 3.291e-05 0 0)
(0.00038485 -7.63116e-05 0 2.59608e-05 0 0)
(0.000479934 -7.04483e-05 0 2.13673e-05 0 0)
(0.000566848 -6.3933e-05 0 1.80066e-05 0 0)
(0.000644578 -5.71457e-05 0 1.53258e-05 0 0)
(0.000712985 -5.02467e-05 0 1.30502e-05 0 0)
(0.000772196 -4.33239e-05 0 1.10448e-05 0 0)
(0.000822485 -3.64352e-05 0 9.24074e-06 0 0)
(0.000864267 -2.97031e-05 0 7.61689e-06 0 0)
(0.000897941 -2.32221e-05 0 6.16073e-06 0 0)
(0.000924009 -1.71044e-05 0 4.86961e-06 0 0)
(0.000942854 -1.14554e-05 0 3.74163e-06 0 0)
(0.000955866 -6.52044e-06 0 2.79784e-06 0 0)
(0.000963774 -1.81581e-06 0 2.01431e-06 0 0)
(0.000965477 5.0219e-07 0 1.45116e-06 0 0)
(5.63548e-06 1.79532e-05 0 6.57033e-05 0 0)
(2.65614e-06 -1.44749e-05 0 0.000144135 0 0)
(7.56797e-06 -3.29969e-05 0 0.000159777 0 0)
(3.44377e-05 -6.5935e-05 0 0.000139002 0 0)
(8.93301e-05 -9.175e-05 0 0.000109887 0 0)
(0.000165536 -0.000105129 0 8.55352e-05 0 0)
(0.000253607 -0.000108896 0 6.81113e-05 0 0)
(0.000345427 -0.000106622 0 5.59397e-05 0 0)
(0.000435118 -0.000100762 0 4.70512e-05 0 0)
(0.000519165 -9.28022e-05 0 4.01017e-05 0 0)
(0.000595789 -8.36189e-05 0 3.43214e-05 0 0)
(0.000664259 -7.37799e-05 0 2.93104e-05 0 0)
(0.000724295 -6.36133e-05 0 2.48418e-05 0 0)
(0.000775873 -5.33801e-05 0 2.08071e-05 0 0)
(0.000819195 -4.33234e-05 0 1.7158e-05 0 0)
(0.00085458 -3.36516e-05 0 1.38663e-05 0 0)
(0.000882121 -2.45368e-05 0 1.09097e-05 0 0)
(0.000903313 -1.63386e-05 0 8.30516e-06 0 0)
(0.000916717 -8.93807e-06 0 6.03812e-06 0 0)
(0.000925221 -3.77074e-06 0 4.00825e-06 0 0)
(5.20022e-06 1.69733e-05 0 6.56031e-05 0 0)
(1.67183e-06 -8.64595e-06 0 0.00016594 0 0)
(1.31524e-06 -1.26142e-05 0 0.000215577 0 0)
(8.38745e-06 -3.84974e-05 0 0.000215256 0 0)
(3.04097e-05 -6.90194e-05 0 0.000188892 0 0)
(6.99315e-05 -9.29364e-05 0 0.000156621 0 0)
(0.00012465 -0.000107312 0 0.000128168 0 0)
(0.000189488 -0.000113072 0 0.00010586 0 0)
(0.00025878 -0.000112325 0 8.88299e-05 0 0)
(0.000327953 -0.000107117 0 7.55463e-05 0 0)
(0.000394001 -9.90341e-05 0 6.47439e-05 0 0)
(0.000455185 -8.91931e-05 0 5.55817e-05 0 0)
(0.000510567 -7.8383e-05 0 4.757e-05 0 0)
(0.000559653 -6.70803e-05 0 4.03817e-05 0 0)
(0.000602236 -5.5681e-05 0 3.38601e-05 0 0)
(0.000638355 -4.44946e-05 0 2.79026e-05 0 0)
(0.000667824 -3.3721e-05 0 2.24366e-05 0 0)
(0.000691539 -2.37571e-05 0 1.74224e-05 0 0)
(0.000707482 -1.45912e-05 0 1.29334e-05 0 0)
(0.000718483 -7.08679e-06 0 8.28409e-06 0 0)
(5.39025e-06 1.7293e-05 0 6.43102e-05 0 0)
(1.23028e-06 -5.89989e-06 0 0.000172766 0 0)
(5.47327e-07 1.58788e-06 0 0.000245595 0 0)
(1.41e-06 -1.01172e-05 0 0.000269769 0 0)
(6.71196e-06 -3.22482e-05 0 0.000257636 0 0)
(2.01587e-05 -5.55936e-05 0 0.000227737 0 0)
(4.37478e-05 -7.47837e-05 0 0.00019399 0 0)
(7.69378e-05 -8.73958e-05 0 0.00016337 0 0)
(0.000117136 -9.327e-05 0 0.000137935 0 0)
(0.000161118 -9.35112e-05 0 0.000117361 0 0)
(0.000206067 -8.95776e-05 0 0.000100589 0 0)
(0.000249906 -8.27934e-05 0 8.65765e-05 0 0)
(0.000291289 -7.42197e-05 0 7.45308e-05 0 0)
(0.000329303 -6.4619e-05 0 6.39053e-05 0 0)
(0.000363361 -5.449e-05 0 5.42973e-05 0 0)
(0.000393173 -4.4243e-05 0 4.54644e-05 0 0)
(0.000418391 -3.41035e-05 0 3.72455e-05 0 0)
(0.000439096 -2.44598e-05 0 2.94659e-05 0 0)
(0.000454011 -1.5129e-05 0 2.24011e-05 0 0)
(0.000463306 -6.96391e-06 0 1.42048e-05 0 0)
(5.29727e-06 1.70481e-05 0 6.41372e-05 0 0)
(1.08208e-06 -6.14812e-06 0 0.000171759 0 0)
(8.26919e-07 7.57807e-06 0 0.000254413 0 0)
(1.26737e-06 8.5465e-06 0 0.000296724 0 0)
(1.92135e-06 3.02505e-08 0 0.000301849 0 0)
(4.22899e-06 -1.36751e-05 0 0.000282156 0 0)
(1.01083e-05 -2.89395e-05 0 0.000250857 0 0)
(2.09317e-05 -4.23996e-05 0 0.00021732 0 0)
(3.67925e-05 -5.19783e-05 0 0.000186411 0 0)
(5.67319e-05 -5.71239e-05 0 0.000159798 0 0)
(7.93458e-05 -5.82812e-05 0 0.000137451 0 0)
(0.000103235 -5.62987e-05 0 0.000118672 0 0)
(0.000127215 -5.20607e-05 0 0.00010264 0 0)
(0.000150386 -4.6349e-05 0 8.86566e-05 0 0)
(0.000172068 -3.97203e-05 0 7.61082e-05 0 0)
(0.000191713 -3.2587e-05 0 6.45448e-05 0 0)
(0.000208925 -2.51871e-05 0 5.36857e-05 0 0)
(0.000223168 -1.78944e-05 0 4.31464e-05 0 0)
(0.000234279 -1.02727e-05 0 3.35486e-05 0 0)
(0.0002397 -3.56892e-06 0 2.13239e-05 0 0)
(5.12582e-06 1.64206e-05 0 6.26966e-05 0 0)
(9.90136e-07 -7.21384e-06 0 0.000165315 0 0)
(8.72286e-07 8.83869e-06 0 0.000248924 0 0)
(2.00998e-06 1.73818e-05 0 0.000300514 0 0)
(2.97535e-06 2.04065e-05 0 0.000319121 0 0)
(3.56321e-06 1.86782e-05 0 0.000311544 0 0)
(4.10751e-06 1.26759e-05 0 0.000287796 0 0)
(5.44111e-06 4.37827e-06 0 0.00025695 0 0)
(8.34264e-06 -3.91487e-06 0 0.000225185 0 0)
(1.3162e-05 -1.06579e-05 0 0.000195779 0 0)
(1.98115e-05 -1.52184e-05 0 0.000169945 0 0)
(2.79169e-05 -1.76012e-05 0 0.000147718 0 0)
(3.69781e-05 -1.81355e-05 0 0.000128592 0 0)
(4.64899e-05 -1.72588e-05 0 0.00011188 0 0)
(5.59887e-05 -1.53686e-05 0 9.69252e-05 0 0)
(6.50304e-05 -1.27684e-05 0 8.30962e-05 0 0)
(7.33071e-05 -9.63362e-06 0 6.99916e-05 0 0)
(8.01216e-05 -6.27168e-06 0 5.69675e-05 0 0)
(8.60201e-05 -2.07475e-06 0 4.51971e-05 0 0)
(8.73403e-05 1.09721e-06 0 2.89231e-05 0 0)
(5.27058e-06 1.66534e-05 0 6.14798e-05 0 0)
(9.39448e-07 -6.74865e-06 0 0.000159281 0 0)
(7.76495e-07 9.12111e-06 0 0.00023842 0 0)
(2.27412e-06 2.0534e-05 0 0.000290825 0 0)
(4.29119e-06 3.02671e-05 0 0.000315845 0 0)
(6.37507e-06 3.77767e-05 0 0.000317262 0 0)
(7.90411e-06 4.12137e-05 0 0.000301797 0 0)
(8.63141e-06 4.0539e-05 0 0.000276712 0 0)
(8.75106e-06 3.70372e-05 0 0.000247924 0 0)
(8.63421e-06 3.2175e-05 0 0.000219317 0 0)
(8.61143e-06 2.70446e-05 0 0.000192932 0 0)
(8.88705e-06 2.22794e-05 0 0.000169493 0 0)
(9.53506e-06 1.81516e-05 0 0.000148934 0 0)
(1.05325e-05 1.47057e-05 0 0.000130766 0 0)
(1.17993e-05 1.18843e-05 0 0.00011438 0 0)
(1.32203e-05 9.62137e-06 0 9.90685e-05 0 0)
(1.46882e-05 7.86941e-06 0 8.4371e-05 0 0)
(1.58511e-05 6.49878e-06 0 6.93626e-05 0 0)
(1.71989e-05 6.16045e-06 0 5.60219e-05 0 0)
(1.61719e-05 4.28235e-06 0 3.61091e-05 0 0)
(5.3976e-06 1.68364e-05 0 6.14913e-05 0 0)
(9.00582e-07 -6.54083e-06 0 0.000153807 0 0)
(7.30479e-07 9.08539e-06 0 0.000226359 0 0)
(2.27124e-06 2.1201e-05 0 0.000274639 0 0)
(4.88396e-06 3.38577e-05 0 0.000300031 0 0)
(8.56945e-06 4.65942e-05 0 0.000305677 0 0)
(1.26549e-05 5.66307e-05 0 0.000296243 0 0)
(1.63544e-05 6.25228e-05 0 0.000277072 0 0)
(1.9189e-05 6.43522e-05 0 0.000253004 0 0)
(2.10063e-05 6.29191e-05 0 0.000227657 0 0)
(2.18715e-05 5.91676e-05 0 0.000203268 0 0)
(2.19709e-05 5.39268e-05 0 0.000180917 0 0)
(2.15373e-05 4.78241e-05 0 0.000160849 0 0)
(2.08098e-05 4.13012e-05 0 0.000142786 0 0)
(1.99845e-05 3.46424e-05 0 0.000126203 0 0)
(1.92598e-05 2.80767e-05 0 0.000110403 0 0)
(1.86686e-05 2.17034e-05 0 9.49532e-05 0 0)
(1.84946e-05 1.56853e-05 0 7.86652e-05 0 0)
(1.8354e-05 1.05479e-05 0 6.45306e-05 0 0)
(1.88925e-05 3.18808e-06 0 4.18628e-05 0 0)
(5.1163e-06 1.61142e-05 0 5.99394e-05 0 0)
(9.48585e-07 -7.0581e-06 0 0.000147408 0 0)
(6.71307e-07 8.44208e-06 0 0.000212613 0 0)
(2.22177e-06 2.0883e-05 0 0.000254661 0 0)
(5.1688e-06 3.46679e-05 0 0.000276961 0 0)
(1.00357e-05 4.96927e-05 0 0.00028306 0 0)
(1.65057e-05 6.31159e-05 0 0.000276761 0 0)
(2.38069e-05 7.29341e-05 0 0.000262066 0 0)
(3.11854e-05 7.8458e-05 0 0.000242679 0 0)
(3.80791e-05 7.98373e-05 0 0.000221534 0 0)
(4.41598e-05 7.76392e-05 0 0.000200598 0 0)
(4.93388e-05 7.25912e-05 0 0.00018093 0 0)
(5.3721e-05 6.5418e-05 0 0.000162863 0 0)
(5.75473e-05 5.67862e-05 0 0.000146243 0 0)
(6.10758e-05 4.72161e-05 0 0.000130594 0 0)
(6.46179e-05 3.72107e-05 0 0.000115279 0 0)
(6.81553e-05 2.69739e-05 0 9.99567e-05 0 0)
(7.24866e-05 1.70765e-05 0 8.32591e-05 0 0)
(7.57364e-05 7.61813e-06 0 6.91882e-05 0 0)
(8.31733e-05 -4.3124e-06 0 4.51607e-05 0 0)
(5.27008e-06 1.62779e-05 0 5.95523e-05 0 0)
(9.18633e-07 -6.13618e-06 0 0.000140867 0 0)
(7.73143e-07 9.29565e-06 0 0.000197859 0 0)
(2.48906e-06 2.17425e-05 0 0.000232454 0 0)
(5.89291e-06 3.56024e-05 0 0.000249729 0 0)
(1.196e-05 5.09602e-05 0 0.000253857 0 0)
(2.07688e-05 6.51763e-05 0 0.000248369 0 0)
(3.17892e-05 7.61697e-05 0 0.000236445 0 0)
(4.43229e-05 8.29349e-05 0 0.000220855 0 0)
(5.76979e-05 8.52431e-05 0 0.000203774 0 0)
(7.13846e-05 8.33633e-05 0 0.000186668 0 0)
(8.5076e-05 7.78677e-05 0 0.000170336 0 0)
(9.86987e-05 6.94797e-05 0 0.000155027 0 0)
(0.000112328 5.89637e-05 0 0.000140593 0 0)
(0.000126066 4.69775e-05 0 0.000126597 0 0)
(0.000140045 3.42563e-05 0 0.000112504 0 0)
(0.000154011 2.10287e-05 0 9.8091e-05 0 0)
(0.000168701 8.39964e-06 0 8.19814e-05 0 0)
(0.000180712 -4.41149e-06 0 6.88292e-05 0 0)
(0.000199807 -1.8785e-05 0 4.52646e-05 0 0)
(5.52759e-06 1.66334e-05 0 5.86065e-05 0 0)
(7.66887e-07 -4.86282e-06 0 0.000133536 0 0)
(1.01255e-06 1.09868e-05 0 0.000181726 0 0)
(3.2667e-06 2.37176e-05 0 0.000208217 0 0)
(7.68339e-06 3.74006e-05 0 0.000219547 0 0)
(1.56772e-05 5.20815e-05 0 0.000220471 0 0)
(2.7667e-05 6.53541e-05 0 0.000214418 0 0)
(4.34032e-05 7.53131e-05 0 0.000204001 0 0)
(6.24e-05 8.09711e-05 0 0.000191229 0 0)
(8.40926e-05 8.20302e-05 0 0.000177575 0 0)
(0.000107938 7.86758e-05 0 0.00016396 0 0)
(0.000133506 7.14479e-05 0 0.000150868 0 0)
(0.000160499 6.1087e-05 0 0.000138381 0 0)
(0.000188632 4.84115e-05 0 0.000126305 0 0)
(0.000217654 3.41909e-05 0 0.000114275 0 0)
(0.000247121 1.93365e-05 0 0.000101912 0 0)
(0.000276495 4.02556e-06 0 8.90892e-05 0 0)
(0.000305496 -9.98829e-06 0 7.46517e-05 0 0)
(0.000330221 -2.48397e-05 0 6.32145e-05 0 0)
(0.000362211 -3.86243e-05 0 4.2081e-05 0 0)
(5.61453e-06 1.6634e-05 0 5.73085e-05 0 0)
(6.49811e-07 -3.46507e-06 0 0.000124513 0 0)
(1.42556e-06 1.30649e-05 0 0.00016331 0 0)
(4.7996e-06 2.63764e-05 0 0.000181368 0 0)
(1.12863e-05 3.9758e-05 0 0.000186486 0 0)
(2.28304e-05 5.30392e-05 0 0.000183846 0 0)
(4.01859e-05 6.40628e-05 0 0.000176712 0 0)
(6.33481e-05 7.1242e-05 0 0.000167149 0 0)
(9.20309e-05 7.38416e-05 0 0.000156464 0 0)
(0.000125746 7.17514e-05 0 0.000145511 0 0)
(0.000163855 6.53273e-05 0 0.000134805 0 0)
(0.0002056 5.52139e-05 0 0.000124521 0 0)
(0.000250146 4.2214e-05 0 0.000114591 0 0)
(0.000296527 2.72331e-05 0 0.000104838 0 0)
(0.000343893 1.11266e-05 0 9.498e-05 0 0)
(0.000390829 -5.08105e-06 0 8.48e-05 0 0)
(0.000436713 -2.13073e-05 0 7.42302e-05 0 0)
(0.000479132 -3.51152e-05 0 6.24847e-05 0 0)
(0.000516219 -5.02628e-05 0 5.33906e-05 0 0)
(0.000555166 -5.98907e-05 0 3.628e-05 0 0)
(5.499e-06 1.61767e-05 0 5.51287e-05 0 0)
(5.34938e-07 -2.67767e-06 0 0.000112446 0 0)
(2.20142e-06 1.48419e-05 0 0.000140503 0 0)
(7.7709e-06 2.88388e-05 0 0.000149913 0 0)
(1.83745e-05 4.15591e-05 0 0.000149175 0 0)
(3.67122e-05 5.25239e-05 0 0.000143413 0 0)
(6.3823e-05 5.99361e-05 0 0.000135465 0 0)
(9.96508e-05 6.2733e-05 0 0.000126751 0 0)
(0.000143657 6.07074e-05 0 0.000117989 0 0)
(0.000194926 5.42046e-05 0 0.000109509 0 0)
(0.000252061 4.38636e-05 0 0.000101443 0 0)
(0.000313284 3.04939e-05 0 9.37609e-05 0 0)
(0.000376773 1.50441e-05 0 8.63467e-05 0 0)
(0.000440564 -1.50054e-06 0 7.90537e-05 0 0)
(0.000503095 -1.82699e-05 0 7.16742e-05 0 0)
(0.000561903 -3.42275e-05 0 6.41055e-05 0 0)
(0.000616892 -4.94099e-05 0 5.63019e-05 0 0)
(0.000662799 -6.08723e-05 0 4.78313e-05 0 0)
(0.00070375 -7.38582e-05 0 4.13267e-05 0 0)
(0.000733696 -7.58995e-05 0 2.88523e-05 0 0)
(5.09688e-06 1.47491e-05 0 5.14311e-05 0 0)
(4.2187e-07 -1.584e-06 0 9.63338e-05 0 0)
(4.04532e-06 1.73561e-05 0 0.000112906 0 0)
(1.44184e-05 3.1552e-05 0 0.000114442 0 0)
(3.35295e-05 4.22859e-05 0 0.000109203 0 0)
(6.48855e-05 4.90555e-05 0 0.000101421 0 0)
(0.000109076 5.08695e-05 0 9.33878e-05 0 0)
(0.00016478 4.76377e-05 0 8.59318e-05 0 0)
(0.000229786 3.9947e-05 0 7.92369e-05 0 0)
(0.000301312 2.87064e-05 0 7.32494e-05 0 0)
(0.000376305 1.49321e-05 0 6.78074e-05 0 0)
(0.000451682 -3.46309e-07 0 6.27512e-05 0 0)
(0.000524663 -1.61603e-05 0 5.79153e-05 0 0)
(0.000592648 -3.16413e-05 0 5.31534e-05 0 0)
(0.000654022 -4.60971e-05 0 4.83208e-05 0 0)
(0.000706134 -5.8717e-05 0 4.33753e-05 0 0)
(0.000750483 -6.96916e-05 0 3.83021e-05 0 0)
(0.000779722 -7.61884e-05 0 3.29075e-05 0 0)
(0.000807155 -8.40639e-05 0 2.86873e-05 0 0)
(0.000806956 -7.72913e-05 0 2.04713e-05 0 0)
(5.28024e-06 1.3734e-05 0 4.38638e-05 0 0)
(4.59505e-07 1.97293e-06 0 7.14285e-05 0 0)
(9.86165e-06 2.08307e-05 0 7.54152e-05 0 0)
(3.12626e-05 3.19739e-05 0 7.02498e-05 0 0)
(6.67631e-05 3.65638e-05 0 6.31835e-05 0 0)
(0.000119087 3.5678e-05 0 5.70248e-05 0 0)
(0.000185667 3.00897e-05 0 5.20908e-05 0 0)
(0.000261121 2.08293e-05 0 4.80642e-05 0 0)
(0.000340059 9.19524e-06 0 4.46407e-05 0 0)
(0.000417832 -3.55078e-06 0 4.16037e-05 0 0)
(0.000490598 -1.64029e-05 0 3.87889e-05 0 0)
(0.000555389 -2.86385e-05 0 3.60728e-05 0 0)
(0.000610246 -3.9736e-05 0 3.33671e-05 0 0)
(0.000653854 -4.93224e-05 0 3.06131e-05 0 0)
(0.00068617 -5.71559e-05 0 2.77714e-05 0 0)
(0.000706166 -6.29446e-05 0 2.48601e-05 0 0)
(0.000717334 -6.69695e-05 0 2.1898e-05 0 0)
(0.000713039 -6.74557e-05 0 1.88558e-05 0 0)
(0.000712587 -6.89443e-05 0 1.63379e-05 0 0)
(0.000677024 -5.75798e-05 0 1.17734e-05 0 0)
(5.51524e-06 1.26906e-05 0 3.70045e-05 0 0)
(1.85857e-06 6.71992e-06 0 4.89316e-05 0 0)
(2.50629e-05 2.30922e-05 0 4.33487e-05 0 0)
(6.68362e-05 2.66055e-05 0 3.46948e-05 0 0)
(0.00012396 2.13935e-05 0 2.85016e-05 0 0)
(0.000192211 1.1961e-05 0 2.50907e-05 0 0)
(0.000262456 1.36723e-06 0 2.31375e-05 0 0)
(0.000327366 -8.66456e-06 0 2.16708e-05 0 0)
(0.000383022 -1.72912e-05 0 2.02817e-05 0 0)
(0.000427582 -2.42213e-05 0 1.88554e-05 0 0)
(0.000460449 -2.95114e-05 0 1.73805e-05 0 0)
(0.000481911 -3.33756e-05 0 1.58749e-05 0 0)
(0.00049289 -3.60291e-05 0 1.436e-05 0 0)
(0.000494474 -3.76423e-05 0 1.28541e-05 0 0)
(0.000488241 -3.8322e-05 0 1.13688e-05 0 0)
(0.000474845 -3.81362e-05 0 9.93344e-06 0 0)
(0.000457545 -3.7189e-05 0 8.54504e-06 0 0)
(0.00043279 -3.4969e-05 0 7.25845e-06 0 0)
(0.000414944 -3.31686e-05 0 6.11026e-06 0 0)
(0.00037379 -2.51665e-05 0 4.51503e-06 0 0)
(7.15347e-06 8.75584e-06 0 1.36355e-05 0 0)
(8.94707e-06 6.41974e-06 0 1.0232e-05 0 0)
(4.99404e-05 6.67595e-06 0 8.85878e-06 0 0)
(9.34597e-05 -1.1224e-06 0 8.68642e-06 0 0)
(0.000133851 -9.29976e-06 0 9.00343e-06 0 0)
(0.000168554 -1.46998e-05 0 8.8068e-06 0 0)
(0.000193159 -1.70036e-05 0 7.99726e-06 0 0)
(0.000207323 -1.70402e-05 0 6.86542e-06 0 0)
(0.00021361 -1.58318e-05 0 5.70637e-06 0 0)
(0.000214444 -1.41886e-05 0 4.68606e-06 0 0)
(0.000211451 -1.25789e-05 0 3.85235e-06 0 0)
(0.000205747 -1.11967e-05 0 3.18886e-06 0 0)
(0.000198163 -1.00688e-05 0 2.65893e-06 0 0)
(0.000189249 -9.15147e-06 0 2.22785e-06 0 0)
(0.000179494 -8.36691e-06 0 1.8675e-06 0 0)
(0.000169032 -7.66563e-06 0 1.56518e-06 0 0)
(0.000158694 -6.95272e-06 0 1.29992e-06 0 0)
(0.000147469 -6.18699e-06 0 1.10201e-06 0 0)
(0.000139362 -5.39132e-06 0 9.09046e-07 0 0)
(0.000125949 -3.28528e-06 0 7.92415e-07 0 0)
(7.66162e-06 6.38903e-06 0 6.79978e-06 0 0)
(1.26223e-05 1.47036e-06 0 6.64039e-07 0 0)
(2.77749e-05 -2.51258e-06 0 7.41829e-07 0 0)
(2.61141e-05 -3.27959e-06 0 1.00269e-06 0 0)
(2.44705e-05 -2.4945e-06 0 8.07139e-07 0 0)
(2.47399e-05 -1.48384e-06 0 4.89767e-07 0 0)
(2.64095e-05 -7.55999e-07 0 2.58045e-07 0 0)
(2.92798e-05 -3.5647e-07 0 1.25378e-07 0 0)
(3.2929e-05 -1.59721e-07 0 5.87905e-08 0 0)
(3.689e-05 -7.08947e-08 0 2.83683e-08 0 0)
(4.08443e-05 -3.46125e-08 0 1.49826e-08 0 0)
(4.46076e-05 -2.05854e-08 0 8.97329e-09 0 0)
(4.80805e-05 -1.45284e-08 0 6.10501e-09 0 0)
(5.12106e-05 -1.22983e-08 0 4.61556e-09 0 0)
(5.39795e-05 -1.19107e-08 0 3.67747e-09 0 0)
(5.63789e-05 -1.38326e-08 0 3.0721e-09 0 0)
(5.84412e-05 -1.21293e-08 0 2.472e-09 0 0)
(6.02003e-05 2.84793e-09 0 2.98037e-09 0 0)
(6.16677e-05 1.26937e-08 0 1.47585e-09 0 0)
(6.44399e-05 2.31785e-07 0 1.01761e-08 0 0)
)
;

boundaryField
{
    upperWall
    {
        type            calculated;
        value           uniform (0 0 0 0 0 0);
    }
    lowerWall
    {
        type            calculated;
        value           uniform (0 0 0 0 0 0);
    }
    inlet
    {
        type            calculated;
        value           nonuniform List<symmTensor> 
20
(
(1.93941e-06 1.78955e-08 5.25318e-08 1.01451e-05 4.12116e-07 1.96549e-06)
(1.89132e-06 -1.69578e-07 1.7757e-07 1.02903e-05 -2.74144e-07 1.81603e-06)
(1.99092e-06 -2.60436e-09 -7.25296e-08 1.07564e-05 1.77752e-07 1.75209e-06)
(1.92908e-06 -2.08404e-07 -4.11289e-08 1.04575e-05 1.10959e-07 1.77917e-06)
(1.90401e-06 -2.46638e-07 4.35833e-08 1.02433e-05 -3.43864e-07 2.05869e-06)
(2.07836e-06 -2.39646e-08 4.14617e-08 9.9502e-06 -1.56211e-07 2.01898e-06)
(1.87681e-06 5.73966e-08 -2.58338e-08 1.00908e-05 2.41236e-08 1.86332e-06)
(1.80151e-06 1.59732e-07 -8.66758e-08 9.92017e-06 1.11989e-07 2.09765e-06)
(1.83281e-06 6.25945e-08 -4.4334e-08 9.88382e-06 1.83548e-09 1.84509e-06)
(1.80741e-06 1.84376e-07 1.12813e-07 1.06639e-05 7.24265e-08 2.05004e-06)
(2.03957e-06 7.91635e-08 -4.24832e-08 1.00721e-05 -2.60732e-07 1.84097e-06)
(1.97284e-06 2.80868e-08 8.01432e-08 1.06943e-05 -1.44482e-07 1.78291e-06)
(1.99534e-06 1.19398e-07 -9.92381e-09 1.06509e-05 1.27391e-07 1.9815e-06)
(1.99541e-06 4.14947e-08 -6.79549e-08 1.05463e-05 -1.47627e-07 1.98522e-06)
(2.09535e-06 8.86591e-08 1.50257e-08 1.03628e-05 6.64502e-08 1.98501e-06)
(1.80509e-06 -1.48949e-07 9.89922e-08 1.01623e-05 -1.81383e-07 2.05255e-06)
(1.91395e-06 -1.19303e-07 -1.00858e-07 1.05597e-05 -7.0112e-08 1.88648e-06)
(1.84608e-06 -5.15528e-08 -2.84954e-08 1.0509e-05 -1.36469e-07 2.03393e-06)
(1.77575e-06 1.44871e-07 9.2412e-09 1.02181e-05 1.64436e-08 1.87194e-06)
(1.90348e-06 1.668e-09 7.23903e-08 1.0773e-05 -3.09995e-07 2.14027e-06)
)
;
    }
    outlet
    {
        type            calculated;
        value           nonuniform List<symmTensor> 
20
(
(0.000231523 5.54037e-07 0 6.8044e-09 0 0)
(0.00072626 2.27589e-06 0 2.9473e-07 0 0)
(0.000965477 5.0219e-07 0 1.45116e-06 0 0)
(0.000925221 -3.77074e-06 0 4.00825e-06 0 0)
(0.000718483 -7.08679e-06 0 8.28409e-06 0 0)
(0.000463306 -6.96391e-06 0 1.42048e-05 0 0)
(0.0002397 -3.56892e-06 0 2.13239e-05 0 0)
(8.73403e-05 1.09721e-06 0 2.89231e-05 0 0)
(1.61719e-05 4.28235e-06 0 3.61091e-05 0 0)
(1.88925e-05 3.18808e-06 0 4.18628e-05 0 0)
(8.31733e-05 -4.3124e-06 0 4.51607e-05 0 0)
(0.000199807 -1.8785e-05 0 4.52646e-05 0 0)
(0.000362211 -3.86243e-05 0 4.2081e-05 0 0)
(0.000555166 -5.98907e-05 0 3.628e-05 0 0)
(0.000733696 -7.58995e-05 0 2.88523e-05 0 0)
(0.000806956 -7.72913e-05 0 2.04713e-05 0 0)
(0.000677024 -5.75798e-05 0 1.17734e-05 0 0)
(0.00037379 -2.51665e-05 0 4.51503e-06 0 0)
(0.000125949 -3.28528e-06 0 7.92415e-07 0 0)
(6.44399e-05 2.31785e-07 0 1.01761e-08 0 0)
)
;
    }
    frontAndBack
    {
        type            empty;
    }
}


// ************************************************************************* //
