/*--------------------------------*- C++ -*----------------------------------*\
  =========                 |
  \\      /  F ield         | OpenFOAM: The Open Source CFD Toolbox
   \\    /   O peration     | Website:  https://openfoam.org
    \\  /    A nd           | Version:  7
     \\/     M anipulation  |
\*---------------------------------------------------------------------------*/
FoamFile
{
    version     2.0;
    format      ascii;
    class       volVectorField;
    location    "0.155";
    object      UMean;
}
// * * * * * * * * * * * * * * * * * * * * * * * * * * * * * * * * * * * * * //

dimensions      [0 1 -1 0 0 0 0];

internalField   nonuniform List<vector> 
1440
(
(24.663 0.0726228 0)
(24.5254 0.271885 0)
(24.1913 0.454612 0)
(23.674 0.601162 0)
(23.0216 0.708542 0)
(22.2766 0.775611 0)
(21.4762 0.805722 0)
(20.6432 0.803909 0)
(19.8035 0.778562 0)
(18.9687 0.735902 0)
(18.1599 0.681762 0)
(17.3826 0.623501 0)
(16.6441 0.563078 0)
(15.9506 0.502576 0)
(15.3039 0.444072 0)
(14.7044 0.388639 0)
(14.1515 0.336997 0)
(13.6444 0.289566 0)
(13.1813 0.246502 0)
(12.7601 0.207772 0)
(12.3784 0.17321 0)
(12.0337 0.14258 0)
(11.7231 0.115603 0)
(11.4439 0.0919847 0)
(11.1934 0.0714219 0)
(10.9691 0.0536189 0)
(10.7686 0.0382959 0)
(10.5894 0.0251921 0)
(10.4293 0.0140661 0)
(10.2865 0.00469513 0)
(10.1591 -0.00312507 0)
(10.0452 -0.00958097 0)
(9.9435 -0.0148423 0)
(9.8525 -0.0190629 0)
(9.77097 -0.0223816 0)
(9.6978 -0.024923 0)
(9.63198 -0.0267983 0)
(9.57263 -0.0281062 0)
(9.51896 -0.0289335 0)
(9.47027 -0.0293566 0)
(9.42595 -0.0294421 0)
(9.38545 -0.0292479 0)
(9.3483 -0.0288236 0)
(9.31407 -0.0282117 0)
(9.2824 -0.0274484 0)
(9.25297 -0.026564 0)
(9.22548 -0.0255839 0)
(9.19969 -0.024529 0)
(9.17539 -0.023416 0)
(9.15238 -0.0222594 0)
(9.13049 -0.0210731 0)
(9.10959 -0.01987 0)
(9.08954 -0.0186614 0)
(9.07025 -0.0174566 0)
(9.0516 -0.0162628 0)
(9.03354 -0.015086 0)
(9.01598 -0.0139308 0)
(8.99887 -0.0128012 0)
(8.98216 -0.0117004 0)
(8.96582 -0.0106305 0)
(8.94979 -0.00959333 0)
(8.93406 -0.00859036 0)
(8.91861 -0.00762224 0)
(8.9034 -0.00668934 0)
(8.88844 -0.00579182 0)
(8.8737 -0.00492975 0)
(8.85917 -0.00410299 0)
(8.84485 -0.00331126 0)
(8.83072 -0.00255413 0)
(8.8168 -0.00183117 0)
(8.80306 -0.00114174 0)
(8.78951 -0.000485219 0)
(8.77615 0.000139415 0)
(8.76296 0.000732835 0)
(8.74996 0.00129606 0)
(8.73714 0.00182977 0)
(8.7245 0.00233514 0)
(8.71203 0.00281324 0)
(8.69973 0.00326504 0)
(8.68761 0.00369175 0)
(8.67567 0.00409471 0)
(8.6639 0.004475 0)
(8.65231 0.00483401 0)
(8.6409 0.00517265 0)
(8.62967 0.00549225 0)
(8.61861 0.00579365 0)
(8.60774 0.00607818 0)
(8.59704 0.00634646 0)
(8.58653 0.00659934 0)
(8.57619 0.0068372 0)
(8.56603 0.00706087 0)
(8.55604 0.0072705 0)
(8.54622 0.00746696 0)
(8.53657 0.00765057 0)
(8.52708 0.00782176 0)
(8.51775 0.00798098 0)
(8.50857 0.00812865 0)
(8.49956 0.00826626 0)
(8.49069 0.00839295 0)
(8.48198 0.00851222 0)
(8.47343 0.00862085 0)
(8.46504 0.00872552 0)
(8.4568 0.00881744 0)
(8.44872 0.00891122 0)
(8.44082 0.00898664 0)
(8.43305 0.00907374 0)
(8.42549 0.00912755 0)
(8.41802 0.00921361 0)
(8.41081 0.00923452 0)
(8.40361 0.00933107 0)
(8.39678 0.00929401 0)
(8.38977 0.00942638 0)
(8.3834 0.00927806 0)
(8.37648 0.00950149 0)
(8.37077 0.00913019 0)
(8.36375 0.00956305 0)
(8.35917 0.00876344 0)
(8.35157 0.00969217 0)
(8.34922 0.00835268 0)
(8.33864 0.0106588 0)
(24.6872 0.102112 0)
(24.7743 0.281159 0)
(24.9186 0.433947 0)
(25.0952 0.567574 0)
(25.285 0.684707 0)
(25.4715 0.783078 0)
(25.6418 0.860782 0)
(25.7845 0.917956 0)
(25.8937 0.956662 0)
(25.9662 0.979327 0)
(26.0035 0.988142 0)
(26.0076 0.985341 0)
(25.9818 0.972803 0)
(25.9302 0.951974 0)
(25.8562 0.92427 0)
(25.7639 0.891165 0)
(25.6566 0.854078 0)
(25.5377 0.814266 0)
(25.41 0.772816 0)
(25.2759 0.73062 0)
(25.1373 0.688458 0)
(24.9961 0.64697 0)
(24.8535 0.606631 0)
(24.7107 0.567826 0)
(24.5685 0.530826 0)
(24.4278 0.495807 0)
(24.289 0.462872 0)
(24.1526 0.432062 0)
(24.0188 0.403374 0)
(23.888 0.37677 0)
(23.7601 0.352181 0)
(23.6354 0.329519 0)
(23.5138 0.308684 0)
(23.3953 0.289565 0)
(23.28 0.272048 0)
(23.1679 0.256018 0)
(23.0588 0.241363 0)
(22.9526 0.227973 0)
(22.8495 0.215744 0)
(22.7491 0.204577 0)
(22.6516 0.194379 0)
(22.5568 0.185064 0)
(22.4647 0.176551 0)
(22.3751 0.168766 0)
(22.288 0.16164 0)
(22.2034 0.155109 0)
(22.1211 0.149114 0)
(22.0411 0.143602 0)
(21.9633 0.138526 0)
(21.8877 0.133841 0)
(21.8141 0.129511 0)
(21.7426 0.1255 0)
(21.6731 0.121775 0)
(21.6054 0.118308 0)
(21.5396 0.115072 0)
(21.4756 0.112044 0)
(21.4134 0.109204 0)
(21.3528 0.106532 0)
(21.2939 0.104012 0)
(21.2365 0.101629 0)
(21.1807 0.0993699 0)
(21.1264 0.0972225 0)
(21.0736 0.0951764 0)
(21.0221 0.0932229 0)
(20.972 0.0913542 0)
(20.9233 0.0895635 0)
(20.8759 0.0878451 0)
(20.8297 0.0861936 0)
(20.7847 0.0846043 0)
(20.7409 0.0830729 0)
(20.6983 0.0815957 0)
(20.6568 0.0801691 0)
(20.6164 0.0787904 0)
(20.5771 0.0774566 0)
(20.5387 0.0761653 0)
(20.5014 0.0749142 0)
(20.4651 0.0737014 0)
(20.4296 0.072525 0)
(20.3951 0.0713836 0)
(20.3615 0.0702756 0)
(20.3288 0.0692001 0)
(20.2969 0.0681556 0)
(20.2658 0.0671415 0)
(20.2355 0.0661566 0)
(20.206 0.0652 0)
(20.1772 0.0642706 0)
(20.1492 0.0633678 0)
(20.1218 0.0624904 0)
(20.0952 0.0616373 0)
(20.0692 0.0608073 0)
(20.0439 0.0599997 0)
(20.0192 0.0592132 0)
(19.9952 0.0584471 0)
(19.9717 0.0577006 0)
(19.9488 0.0569729 0)
(19.9265 0.0562635 0)
(19.9048 0.0555718 0)
(19.8836 0.0548982 0)
(19.8629 0.0542413 0)
(19.8427 0.053603 0)
(19.823 0.0529799 0)
(19.8038 0.0523768 0)
(19.7851 0.0517856 0)
(19.7668 0.051217 0)
(19.749 0.0506538 0)
(19.7316 0.0501187 0)
(19.7147 0.0495755 0)
(19.6982 0.0490727 0)
(19.6822 0.0485362 0)
(19.6664 0.0480665 0)
(19.6512 0.0475144 0)
(19.6361 0.047082 0)
(19.6219 0.0464768 0)
(19.6072 0.0460863 0)
(19.5944 0.0453659 0)
(19.5796 0.0449998 0)
(19.5689 0.0440746 0)
(19.5531 0.0436219 0)
(19.5467 0.0425136 0)
(19.5272 0.0418216 0)
(24.684 0.0637492 0)
(24.7294 0.1853 0)
(24.8136 0.295804 0)
(24.931 0.394255 0)
(25.0781 0.481092 0)
(25.2515 0.555762 0)
(25.4474 0.617164 0)
(25.66 0.664804 0)
(25.8828 0.699104 0)
(26.1099 0.721088 0)
(26.3358 0.731803 0)
(26.5564 0.732541 0)
(26.7687 0.724514 0)
(26.9703 0.709089 0)
(27.1596 0.6878 0)
(27.3356 0.662169 0)
(27.4981 0.633561 0)
(27.6469 0.603128 0)
(27.7823 0.571818 0)
(27.9049 0.540397 0)
(28.0151 0.509485 0)
(28.1137 0.479576 0)
(28.2016 0.451037 0)
(28.2795 0.424123 0)
(28.3481 0.398987 0)
(28.4084 0.375706 0)
(28.461 0.354289 0)
(28.5067 0.3347 0)
(28.5462 0.316873 0)
(28.58 0.30072 0)
(28.6088 0.286137 0)
(28.6331 0.273011 0)
(28.6533 0.261226 0)
(28.6698 0.250664 0)
(28.6831 0.24121 0)
(28.6935 0.232754 0)
(28.7013 0.225191 0)
(28.7068 0.218424 0)
(28.7101 0.212365 0)
(28.7115 0.206932 0)
(28.7113 0.202051 0)
(28.7094 0.197656 0)
(28.7062 0.193687 0)
(28.7017 0.19009 0)
(28.696 0.186818 0)
(28.6893 0.183827 0)
(28.6816 0.181077 0)
(28.673 0.178534 0)
(28.6636 0.176166 0)
(28.6535 0.173942 0)
(28.6426 0.171837 0)
(28.6311 0.16983 0)
(28.6191 0.167904 0)
(28.6064 0.166046 0)
(28.5933 0.164244 0)
(28.5796 0.162487 0)
(28.5656 0.160768 0)
(28.5511 0.159081 0)
(28.5363 0.157421 0)
(28.5211 0.155783 0)
(28.5056 0.154164 0)
(28.4898 0.15256 0)
(28.4737 0.15097 0)
(28.4574 0.149392 0)
(28.4409 0.147824 0)
(28.4241 0.146266 0)
(28.4072 0.144717 0)
(28.3901 0.143177 0)
(28.3728 0.141647 0)
(28.3554 0.140125 0)
(28.3379 0.138613 0)
(28.3204 0.13711 0)
(28.3027 0.135618 0)
(28.2849 0.134136 0)
(28.2671 0.132666 0)
(28.2493 0.131207 0)
(28.2314 0.129761 0)
(28.2135 0.128329 0)
(28.1956 0.126911 0)
(28.1777 0.125507 0)
(28.1598 0.124119 0)
(28.1419 0.122746 0)
(28.1241 0.12139 0)
(28.1063 0.120051 0)
(28.0886 0.118729 0)
(28.0709 0.117425 0)
(28.0533 0.116138 0)
(28.0357 0.114869 0)
(28.0183 0.113617 0)
(28.0009 0.112382 0)
(27.9837 0.111164 0)
(27.9665 0.109963 0)
(27.9495 0.108779 0)
(27.9325 0.107611 0)
(27.9157 0.10646 0)
(27.899 0.105325 0)
(27.8825 0.104208 0)
(27.866 0.103105 0)
(27.8497 0.102023 0)
(27.8336 0.100954 0)
(27.8176 0.0999059 0)
(27.8018 0.0988696 0)
(27.7861 0.097857 0)
(27.7706 0.0968504 0)
(27.7552 0.0958723 0)
(27.74 0.0948886 0)
(27.7251 0.0939449 0)
(27.7102 0.0929721 0)
(27.6956 0.0920654 0)
(27.6811 0.091081 0)
(27.6669 0.0902228 0)
(27.6527 0.0891842 0)
(27.639 0.0884043 0)
(27.6249 0.0872221 0)
(27.6122 0.0865859 0)
(27.5976 0.0850671 0)
(27.5866 0.0847043 0)
(27.5705 0.0824173 0)
(27.5634 0.0825132 0)
(27.5429 0.0783796 0)
(24.6837 0.0430744 0)
(24.7241 0.127106 0)
(24.7986 0.205523 0)
(24.9031 0.27584 0)
(25.0342 0.337163 0)
(25.1884 0.389199 0)
(25.3622 0.431616 0)
(25.5515 0.464236 0)
(25.752 0.487361 0)
(25.9597 0.501807 0)
(26.1709 0.508665 0)
(26.3828 0.509135 0)
(26.5931 0.504395 0)
(26.7999 0.495576 0)
(27.0017 0.48375 0)
(27.1972 0.469831 0)
(27.3854 0.454567 0)
(27.5656 0.438535 0)
(27.7374 0.422181 0)
(27.9004 0.405834 0)
(28.0547 0.389737 0)
(28.2003 0.374054 0)
(28.3375 0.358907 0)
(28.4666 0.344381 0)
(28.5879 0.330542 0)
(28.7021 0.317428 0)
(28.8094 0.305058 0)
(28.9104 0.29343 0)
(29.0056 0.282534 0)
(29.0954 0.27235 0)
(29.1804 0.262854 0)
(29.261 0.254014 0)
(29.3375 0.245797 0)
(29.4104 0.238166 0)
(29.4799 0.231086 0)
(29.5464 0.224518 0)
(29.6102 0.218427 0)
(29.6715 0.212777 0)
(29.7305 0.207534 0)
(29.7874 0.202665 0)
(29.8425 0.198139 0)
(29.8958 0.193927 0)
(29.9476 0.190003 0)
(29.9978 0.186341 0)
(30.0467 0.182919 0)
(30.0943 0.179715 0)
(30.1407 0.176712 0)
(30.186 0.173888 0)
(30.2303 0.171229 0)
(30.2735 0.168715 0)
(30.3157 0.166333 0)
(30.3571 0.164069 0)
(30.3975 0.161914 0)
(30.4371 0.159858 0)
(30.4759 0.157893 0)
(30.5139 0.156013 0)
(30.5512 0.154212 0)
(30.5877 0.152483 0)
(30.6235 0.150822 0)
(30.6586 0.149223 0)
(30.693 0.147684 0)
(30.7267 0.1462 0)
(30.7598 0.14477 0)
(30.7922 0.143389 0)
(30.824 0.142055 0)
(30.8551 0.140764 0)
(30.8857 0.139514 0)
(30.9156 0.1383 0)
(30.945 0.137121 0)
(30.9738 0.135973 0)
(31.002 0.134856 0)
(31.0297 0.133765 0)
(31.0568 0.1327 0)
(31.0834 0.131659 0)
(31.1095 0.130641 0)
(31.135 0.129643 0)
(31.16 0.128666 0)
(31.1845 0.127708 0)
(31.2086 0.126768 0)
(31.2321 0.125846 0)
(31.2552 0.124941 0)
(31.2778 0.124052 0)
(31.2999 0.123179 0)
(31.3216 0.122321 0)
(31.3428 0.121478 0)
(31.3636 0.120648 0)
(31.384 0.119832 0)
(31.4039 0.119027 0)
(31.4235 0.118236 0)
(31.4426 0.117454 0)
(31.4614 0.116683 0)
(31.4797 0.115921 0)
(31.4977 0.11517 0)
(31.5153 0.114426 0)
(31.5326 0.113691 0)
(31.5494 0.112963 0)
(31.566 0.112245 0)
(31.5821 0.111532 0)
(31.598 0.11083 0)
(31.6135 0.11013 0)
(31.6287 0.109444 0)
(31.6436 0.108755 0)
(31.6582 0.108086 0)
(31.6724 0.107405 0)
(31.6864 0.106753 0)
(31.7001 0.106069 0)
(31.7135 0.105439 0)
(31.7267 0.104736 0)
(31.7395 0.104137 0)
(31.7522 0.103384 0)
(31.7643 0.10284 0)
(31.7768 0.10198 0)
(31.7881 0.101544 0)
(31.8005 0.100466 0)
(31.8107 0.100234 0)
(31.8235 0.0987308 0)
(31.8318 0.0988616 0)
(31.8463 0.0965445 0)
(31.8506 0.097187 0)
(31.8692 0.0932179 0)
(24.6836 0.0252939 0)
(24.7213 0.0748716 0)
(24.7908 0.121607 0)
(24.8884 0.163726 0)
(25.0119 0.200349 0)
(25.1582 0.231323 0)
(25.3239 0.256667 0)
(25.5048 0.276403 0)
(25.6971 0.290725 0)
(25.8967 0.300111 0)
(26.1005 0.305241 0)
(26.3055 0.306838 0)
(26.5094 0.305582 0)
(26.7104 0.30205 0)
(26.907 0.296709 0)
(27.0978 0.289932 0)
(27.2818 0.282028 0)
(27.4585 0.273263 0)
(27.6273 0.263876 0)
(27.788 0.254082 0)
(27.9406 0.24406 0)
(28.0852 0.233953 0)
(28.2219 0.223888 0)
(28.3512 0.213973 0)
(28.4734 0.204306 0)
(28.5889 0.194972 0)
(28.6981 0.186045 0)
(28.8016 0.177583 0)
(28.8997 0.169626 0)
(28.9929 0.162192 0)
(29.0818 0.155286 0)
(29.1665 0.148897 0)
(29.2476 0.143008 0)
(29.3254 0.137594 0)
(29.4001 0.132627 0)
(29.4722 0.128079 0)
(29.5419 0.12392 0)
(29.6093 0.120121 0)
(29.6748 0.116654 0)
(29.7385 0.113492 0)
(29.8006 0.11061 0)
(29.8612 0.107986 0)
(29.9205 0.105597 0)
(29.9786 0.103424 0)
(30.0355 0.101448 0)
(30.0914 0.0996532 0)
(30.1464 0.0980222 0)
(30.2005 0.0965406 0)
(30.2538 0.0951952 0)
(30.3063 0.0939749 0)
(30.3582 0.0928691 0)
(30.4093 0.0918673 0)
(30.4598 0.0909591 0)
(30.5097 0.0901349 0)
(30.559 0.0893855 0)
(30.6078 0.0887025 0)
(30.6561 0.0880782 0)
(30.7038 0.0875054 0)
(30.7511 0.0869776 0)
(30.7978 0.086489 0)
(30.8441 0.0860349 0)
(30.89 0.0856115 0)
(30.9354 0.0852153 0)
(30.9804 0.084843 0)
(31.0249 0.0844914 0)
(31.0691 0.0841574 0)
(31.1128 0.0838382 0)
(31.1561 0.0835311 0)
(31.1991 0.083234 0)
(31.2416 0.0829446 0)
(31.2838 0.0826612 0)
(31.3255 0.0823823 0)
(31.367 0.0821065 0)
(31.408 0.0818327 0)
(31.4487 0.08156 0)
(31.489 0.0812876 0)
(31.529 0.0810151 0)
(31.5686 0.0807423 0)
(31.6079 0.0804689 0)
(31.6469 0.0801949 0)
(31.6855 0.0799203 0)
(31.7238 0.0796452 0)
(31.7617 0.0793697 0)
(31.7993 0.0790937 0)
(31.8367 0.0788174 0)
(31.8737 0.0785407 0)
(31.9103 0.0782636 0)
(31.9467 0.0779859 0)
(31.9828 0.0777077 0)
(32.0186 0.0774287 0)
(32.0541 0.077149 0)
(32.0893 0.0768682 0)
(32.1242 0.0765866 0)
(32.1588 0.0763039 0)
(32.1931 0.0760209 0)
(32.2272 0.0757366 0)
(32.2609 0.075453 0)
(32.2944 0.0751678 0)
(32.3277 0.0748846 0)
(32.3606 0.0745989 0)
(32.3933 0.0743173 0)
(32.4258 0.0740303 0)
(32.458 0.0737513 0)
(32.4899 0.0734603 0)
(32.5216 0.0731847 0)
(32.5531 0.0728838 0)
(32.5842 0.0726137 0)
(32.6153 0.0722916 0)
(32.6457 0.0720326 0)
(32.6766 0.0716694 0)
(32.7062 0.0714356 0)
(32.7371 0.0709952 0)
(32.7655 0.0708159 0)
(32.7969 0.0702316 0)
(32.8233 0.0701615 0)
(32.8567 0.0693091 0)
(32.8787 0.0694301 0)
(32.9171 0.0680718 0)
(32.9297 0.0684353 0)
(32.9799 0.0660903 0)
(24.6835 0.00855869 0)
(24.72 0.0253271 0)
(24.787 0.0411424 0)
(24.8812 0.0553852 0)
(25.0008 0.0677313 0)
(25.1433 0.0781802 0)
(25.3052 0.0868374 0)
(25.4824 0.093782 0)
(25.6712 0.0990913 0)
(25.8677 0.10291 0)
(26.0687 0.105441 0)
(26.2714 0.106909 0)
(26.4733 0.107504 0)
(26.6726 0.107376 0)
(26.8675 0.10663 0)
(27.0569 0.105366 0)
(27.2397 0.10367 0)
(27.4153 0.101631 0)
(27.5831 0.0993274 0)
(27.743 0.0968406 0)
(27.8949 0.0942448 0)
(28.0389 0.0916144 0)
(28.1752 0.089004 0)
(28.3041 0.0864558 0)
(28.426 0.083995 0)
(28.5412 0.0816442 0)
(28.6503 0.0794227 0)
(28.7536 0.0773485 0)
(28.8516 0.0754307 0)
(28.9448 0.0736712 0)
(29.0335 0.0720626 0)
(29.1181 0.0705953 0)
(29.1991 0.0692564 0)
(29.2767 0.0680342 0)
(29.3513 0.0669155 0)
(29.4232 0.0658893 0)
(29.4926 0.064944 0)
(29.5599 0.0640707 0)
(29.6251 0.063261 0)
(29.6886 0.0625089 0)
(29.7504 0.0618086 0)
(29.8108 0.0611568 0)
(29.8699 0.0605502 0)
(29.9278 0.0599871 0)
(29.9845 0.0594652 0)
(30.0403 0.058983 0)
(30.0951 0.0585384 0)
(30.1491 0.0581299 0)
(30.2023 0.0577558 0)
(30.2548 0.0574148 0)
(30.3065 0.0571046 0)
(30.3576 0.0568227 0)
(30.4082 0.0565655 0)
(30.4581 0.0563301 0)
(30.5075 0.0561131 0)
(30.5563 0.0559123 0)
(30.6047 0.0557247 0)
(30.6526 0.0555485 0)
(30.7 0.0553812 0)
(30.747 0.055221 0)
(30.7936 0.0550658 0)
(30.8397 0.0549139 0)
(30.8854 0.0547635 0)
(30.9307 0.0546133 0)
(30.9757 0.0544624 0)
(31.0203 0.0543102 0)
(31.0645 0.0541561 0)
(31.1083 0.0539998 0)
(31.1518 0.0538407 0)
(31.195 0.0536789 0)
(31.2378 0.0535138 0)
(31.2802 0.0533456 0)
(31.3224 0.0531742 0)
(31.3642 0.0529996 0)
(31.4057 0.0528219 0)
(31.4469 0.0526412 0)
(31.4878 0.0524576 0)
(31.5284 0.0522718 0)
(31.5687 0.0520841 0)
(31.6087 0.0518949 0)
(31.6484 0.0517047 0)
(31.6878 0.051514 0)
(31.727 0.051323 0)
(31.7659 0.0511322 0)
(31.8045 0.0509415 0)
(31.8428 0.0507515 0)
(31.8809 0.050562 0)
(31.9188 0.0503733 0)
(31.9564 0.0501853 0)
(31.9937 0.049998 0)
(32.0308 0.0498115 0)
(32.0676 0.0496257 0)
(32.1042 0.0494407 0)
(32.1406 0.0492566 0)
(32.1768 0.0490735 0)
(32.2127 0.0488914 0)
(32.2484 0.0487108 0)
(32.2839 0.0485313 0)
(32.3191 0.0483538 0)
(32.3542 0.048177 0)
(32.389 0.0480029 0)
(32.4236 0.0478281 0)
(32.458 0.0476568 0)
(32.4923 0.0474821 0)
(32.5263 0.0473125 0)
(32.5602 0.047134 0)
(32.5937 0.0469648 0)
(32.6273 0.0467766 0)
(32.6603 0.0466075 0)
(32.6938 0.0464005 0)
(32.726 0.0462342 0)
(32.7597 0.0459932 0)
(32.7907 0.045839 0)
(32.8252 0.0455374 0)
(32.854 0.0454172 0)
(32.8908 0.0450043 0)
(32.9149 0.0449613 0)
(32.9575 0.0443262 0)
(32.9712 0.0444085 0)
(33.0268 0.0432388 0)
(24.6835 -0.00785438 0)
(24.72 -0.023282 0)
(24.7868 -0.0379329 0)
(24.8809 -0.0512934 0)
(25.0004 -0.0630083 0)
(25.143 -0.0728864 0)
(25.3049 -0.080808 0)
(25.4824 -0.0867139 0)
(25.6713 -0.0906521 0)
(25.8679 -0.0927861 0)
(26.0691 -0.0933313 0)
(26.2719 -0.0925129 0)
(26.4739 -0.0905314 0)
(26.6733 -0.0875804 0)
(26.8683 -0.0838287 0)
(27.0577 -0.0794417 0)
(27.2405 -0.0745585 0)
(27.4161 -0.069315 0)
(27.5839 -0.0638288 0)
(27.7438 -0.0582182 0)
(27.8956 -0.0525837 0)
(28.0395 -0.0470221 0)
(28.1757 -0.041617 0)
(28.3045 -0.0364518 0)
(28.4262 -0.0315938 0)
(28.5413 -0.0270973 0)
(28.6502 -0.0230001 0)
(28.7533 -0.0193297 0)
(28.8511 -0.0161007 0)
(28.944 -0.013317 0)
(29.0325 -0.0109653 0)
(29.117 -0.00901976 0)
(29.1977 -0.00744271 0)
(29.2752 -0.00619319 0)
(29.3496 -0.00522779 0)
(29.4213 -0.00450548 0)
(29.4907 -0.00398637 0)
(29.5578 -0.00363491 0)
(29.6229 -0.00341841 0)
(29.6863 -0.00330882 0)
(29.7481 -0.0032804 0)
(29.8084 -0.00331138 0)
(29.8674 -0.00338236 0)
(29.9253 -0.00347775 0)
(29.982 -0.00358427 0)
(30.0377 -0.00369169 0)
(30.0925 -0.00379134 0)
(30.1465 -0.00387697 0)
(30.1997 -0.00394343 0)
(30.2521 -0.00398787 0)
(30.3038 -0.00400836 0)
(30.3549 -0.00400464 0)
(30.4054 -0.00397673 0)
(30.4553 -0.00392554 0)
(30.5046 -0.00385183 0)
(30.5535 -0.00375706 0)
(30.6018 -0.0036424 0)
(30.6496 -0.0035095 0)
(30.697 -0.00335963 0)
(30.744 -0.00319429 0)
(30.7905 -0.00301483 0)
(30.8366 -0.0028232 0)
(30.8822 -0.00262089 0)
(30.9275 -0.00240947 0)
(30.9724 -0.00219 0)
(31.0169 -0.00196376 0)
(31.0611 -0.00173176 0)
(31.1048 -0.00149526 0)
(31.1483 -0.00125521 0)
(31.1913 -0.00101279 0)
(31.2341 -0.000768743 0)
(31.2765 -0.000523992 0)
(31.3186 -0.00027914 0)
(31.3603 -3.49012e-05 0)
(31.4018 0.00020833 0)
(31.4429 0.000450022 0)
(31.4837 0.000689816 0)
(31.5242 0.00092714 0)
(31.5644 0.00116177 0)
(31.6044 0.00139346 0)
(31.644 0.00162217 0)
(31.6834 0.00184769 0)
(31.7225 0.00206996 0)
(31.7613 0.00228873 0)
(31.7998 0.0025039 0)
(31.8381 0.00271524 0)
(31.8761 0.00292263 0)
(31.9139 0.00312582 0)
(31.9514 0.00332471 0)
(31.9887 0.00351907 0)
(32.0257 0.00370885 0)
(32.0625 0.00389391 0)
(32.099 0.00407423 0)
(32.1353 0.00424979 0)
(32.1714 0.00442057 0)
(32.2073 0.0045867 0)
(32.2429 0.00474812 0)
(32.2783 0.00490514 0)
(32.3135 0.00505763 0)
(32.3485 0.00520607 0)
(32.3832 0.00534974 0)
(32.4178 0.00548947 0)
(32.4522 0.00562343 0)
(32.4864 0.00575358 0)
(32.5203 0.00587598 0)
(32.5541 0.0059953 0)
(32.5876 0.00610332 0)
(32.6212 0.00621083 0)
(32.6541 0.00630071 0)
(32.6875 0.00639699 0)
(32.7197 0.00646384 0)
(32.7533 0.00655307 0)
(32.7843 0.00659003 0)
(32.8187 0.00668387 0)
(32.8475 0.00668188 0)
(32.8843 0.00680938 0)
(32.9083 0.00676022 0)
(32.9509 0.0069903 0)
(32.9645 0.00690089 0)
(33.02 0.00739145 0)
(24.6836 -0.0245416 0)
(24.7211 -0.0726706 0)
(24.7902 -0.118163 0)
(24.8874 -0.159399 0)
(25.0106 -0.195436 0)
(25.1571 -0.225881 0)
(25.3231 -0.250522 0)
(25.5045 -0.26928 0)
(25.6972 -0.282341 0)
(25.8973 -0.290193 0)
(26.1015 -0.293493 0)
(26.307 -0.29293 0)
(26.5113 -0.289145 0)
(26.7126 -0.282707 0)
(26.9094 -0.274136 0)
(27.1003 -0.263904 0)
(27.2843 -0.252437 0)
(27.4609 -0.240105 0)
(27.6296 -0.227229 0)
(27.7901 -0.214086 0)
(27.9425 -0.200918 0)
(28.0867 -0.187935 0)
(28.2231 -0.175309 0)
(28.3519 -0.163173 0)
(28.4735 -0.151628 0)
(28.5884 -0.140748 0)
(28.6971 -0.130592 0)
(28.8 -0.121197 0)
(28.8975 -0.112587 0)
(28.9901 -0.104761 0)
(29.0783 -0.0976995 0)
(29.1625 -0.0913653 0)
(29.243 -0.0857114 0)
(29.3203 -0.0806841 0)
(29.3946 -0.0762277 0)
(29.4663 -0.0722856 0)
(29.5356 -0.0688035 0)
(29.6027 -0.0657299 0)
(29.6679 -0.0630169 0)
(29.7313 -0.060619 0)
(29.7932 -0.0584932 0)
(29.8536 -0.0565996 0)
(29.9127 -0.0549026 0)
(29.9706 -0.0533716 0)
(30.0275 -0.0519807 0)
(30.0833 -0.0507078 0)
(30.1382 -0.0495336 0)
(30.1922 -0.0484419 0)
(30.2455 -0.0474187 0)
(30.298 -0.046453 0)
(30.3497 -0.045536 0)
(30.4008 -0.0446607 0)
(30.4513 -0.0438214 0)
(30.5012 -0.0430137 0)
(30.5505 -0.0422338 0)
(30.5992 -0.0414789 0)
(30.6475 -0.0407464 0)
(30.6952 -0.0400346 0)
(30.7424 -0.0393415 0)
(30.7892 -0.0386657 0)
(30.8355 -0.038006 0)
(30.8814 -0.0373616 0)
(30.9268 -0.0367316 0)
(30.9718 -0.0361152 0)
(31.0164 -0.0355117 0)
(31.0606 -0.0349207 0)
(31.1044 -0.0343422 0)
(31.1477 -0.0337765 0)
(31.1908 -0.0332237 0)
(31.2334 -0.032684 0)
(31.2756 -0.032157 0)
(31.3175 -0.0316427 0)
(31.3591 -0.0311407 0)
(31.4003 -0.0306509 0)
(31.4411 -0.0301727 0)
(31.4816 -0.0297061 0)
(31.5217 -0.0292506 0)
(31.5615 -0.0288062 0)
(31.601 -0.0283725 0)
(31.6402 -0.0279492 0)
(31.679 -0.0275359 0)
(31.7175 -0.0271324 0)
(31.7558 -0.0267382 0)
(31.7937 -0.0263532 0)
(31.8313 -0.0259772 0)
(31.8686 -0.0256099 0)
(31.9056 -0.0252511 0)
(31.9423 -0.0249007 0)
(31.9787 -0.0245586 0)
(32.0148 -0.0242246 0)
(32.0507 -0.0238985 0)
(32.0863 -0.0235804 0)
(32.1216 -0.02327 0)
(32.1566 -0.0229672 0)
(32.1914 -0.0226718 0)
(32.2259 -0.0223834 0)
(32.2601 -0.0221024 0)
(32.2941 -0.0218276 0)
(32.3278 -0.0215603 0)
(32.3613 -0.0212982 0)
(32.3945 -0.0210447 0)
(32.4274 -0.0207946 0)
(32.4602 -0.0205559 0)
(32.4927 -0.0203172 0)
(32.5249 -0.020096 0)
(32.5569 -0.0198674 0)
(32.5886 -0.0196686 0)
(32.6203 -0.0194459 0)
(32.6514 -0.0192781 0)
(32.6828 -0.0190504 0)
(32.7131 -0.0189282 0)
(32.7445 -0.0186708 0)
(32.7736 -0.0186202 0)
(32.8057 -0.0182815 0)
(32.8327 -0.018347 0)
(32.8668 -0.0178232 0)
(32.8893 -0.0180682 0)
(32.9287 -0.017143 0)
(32.9416 -0.0175808 0)
(32.9929 -0.0157445 0)
(24.6837 -0.0422484 0)
(24.7237 -0.124753 0)
(24.7976 -0.202048 0)
(24.9013 -0.271701 0)
(25.032 -0.332553 0)
(25.1864 -0.383984 0)
(25.3608 -0.425521 0)
(25.5508 -0.457008 0)
(25.7521 -0.478813 0)
(25.9605 -0.491772 0)
(26.1725 -0.496972 0)
(26.3853 -0.495571 0)
(26.5964 -0.488671 0)
(26.8039 -0.47728 0)
(27.0062 -0.462365 0)
(27.2019 -0.444831 0)
(27.39 -0.425508 0)
(27.5699 -0.405103 0)
(27.7411 -0.38421 0)
(27.9034 -0.363304 0)
(28.0567 -0.342769 0)
(28.2013 -0.322893 0)
(28.3374 -0.303891 0)
(28.4653 -0.285904 0)
(28.5854 -0.26902 0)
(28.6984 -0.253287 0)
(28.8046 -0.238727 0)
(28.9046 -0.225335 0)
(28.9988 -0.213081 0)
(29.0878 -0.201917 0)
(29.1721 -0.191781 0)
(29.2521 -0.182608 0)
(29.3281 -0.174329 0)
(29.4006 -0.166871 0)
(29.47 -0.160163 0)
(29.5364 -0.154134 0)
(29.6002 -0.148716 0)
(29.6617 -0.143847 0)
(29.7209 -0.139471 0)
(29.7783 -0.135534 0)
(29.8338 -0.131983 0)
(29.8877 -0.128763 0)
(29.94 -0.125829 0)
(29.991 -0.123138 0)
(30.0406 -0.120656 0)
(30.089 -0.118354 0)
(30.1362 -0.116205 0)
(30.1823 -0.114186 0)
(30.2274 -0.112278 0)
(30.2715 -0.110464 0)
(30.3147 -0.108731 0)
(30.357 -0.107066 0)
(30.3984 -0.105462 0)
(30.4389 -0.10391 0)
(30.4787 -0.102405 0)
(30.5177 -0.100943 0)
(30.5559 -0.0995199 0)
(30.5934 -0.0981327 0)
(30.6302 -0.0967802 0)
(30.6662 -0.0954596 0)
(30.7016 -0.0941711 0)
(30.7364 -0.0929124 0)
(30.7705 -0.0916836 0)
(30.8039 -0.0904819 0)
(30.8367 -0.0893063 0)
(30.8689 -0.0881541 0)
(30.9005 -0.0870257 0)
(30.9315 -0.0859198 0)
(30.9619 -0.0848374 0)
(30.9918 -0.0837768 0)
(31.0211 -0.0827389 0)
(31.0498 -0.0817218 0)
(31.078 -0.0807263 0)
(31.1056 -0.0797504 0)
(31.1327 -0.078795 0)
(31.1593 -0.0778579 0)
(31.1854 -0.0769402 0)
(31.211 -0.0760394 0)
(31.2361 -0.0751565 0)
(31.2607 -0.0742893 0)
(31.2848 -0.0734389 0)
(31.3084 -0.072603 0)
(31.3316 -0.0717829 0)
(31.3543 -0.0709762 0)
(31.3766 -0.0701844 0)
(31.3984 -0.0694049 0)
(31.4198 -0.0686394 0)
(31.4407 -0.0678853 0)
(31.4613 -0.0671446 0)
(31.4814 -0.0664145 0)
(31.5011 -0.0656972 0)
(31.5204 -0.0649897 0)
(31.5393 -0.0642944 0)
(31.5578 -0.0636081 0)
(31.576 -0.0629336 0)
(31.5937 -0.062267 0)
(31.6111 -0.061612 0)
(31.6281 -0.0609637 0)
(31.6448 -0.0603275 0)
(31.6611 -0.0596964 0)
(31.6771 -0.0590791 0)
(31.6927 -0.0584641 0)
(31.708 -0.057867 0)
(31.723 -0.0572664 0)
(31.7376 -0.0566927 0)
(31.7519 -0.0561032 0)
(31.7659 -0.0555595 0)
(31.7797 -0.054973 0)
(31.793 -0.054472 0)
(31.8062 -0.0538691 0)
(31.8188 -0.0534349 0)
(31.8317 -0.0527732 0)
(31.8434 -0.0524507 0)
(31.8561 -0.0516412 0)
(31.8667 -0.0515134 0)
(31.8798 -0.0503813 0)
(31.8882 -0.0505856 0)
(31.9029 -0.0487914 0)
(31.9075 -0.0494514 0)
(31.9261 -0.0462384 0)
(24.6839 -0.0627114 0)
(24.7287 -0.183004 0)
(24.8116 -0.293562 0)
(24.9281 -0.392773 0)
(25.0748 -0.48009 0)
(25.2487 -0.554496 0)
(25.4452 -0.614996 0)
(25.6583 -0.661349 0)
(25.8812 -0.694177 0)
(26.1078 -0.714554 0)
(26.333 -0.723694 0)
(26.5525 -0.722984 0)
(26.7635 -0.713719 0)
(26.9636 -0.697175 0)
(27.1511 -0.674696 0)
(27.325 -0.647642 0)
(27.4849 -0.617296 0)
(27.6309 -0.584805 0)
(27.7631 -0.55117 0)
(27.8823 -0.517245 0)
(27.9892 -0.483736 0)
(28.0845 -0.451211 0)
(28.1691 -0.420105 0)
(28.244 -0.39074 0)
(28.3099 -0.363333 0)
(28.3677 -0.33801 0)
(28.4183 -0.314819 0)
(28.4622 -0.293743 0)
(28.5002 -0.274717 0)
(28.5329 -0.257638 0)
(28.5609 -0.242381 0)
(28.5846 -0.228806 0)
(28.6045 -0.216765 0)
(28.621 -0.206108 0)
(28.6344 -0.196686 0)
(28.6451 -0.188354 0)
(28.6532 -0.180975 0)
(28.6591 -0.174425 0)
(28.6628 -0.168601 0)
(28.6647 -0.163412 0)
(28.6648 -0.158767 0)
(28.6634 -0.154585 0)
(28.6605 -0.150794 0)
(28.6563 -0.14733 0)
(28.6508 -0.144141 0)
(28.6442 -0.141182 0)
(28.6364 -0.138413 0)
(28.6277 -0.135804 0)
(28.618 -0.133327 0)
(28.6075 -0.130959 0)
(28.5962 -0.128683 0)
(28.5841 -0.126481 0)
(28.5712 -0.124342 0)
(28.5578 -0.122255 0)
(28.5437 -0.120211 0)
(28.529 -0.118206 0)
(28.5138 -0.116234 0)
(28.4981 -0.114293 0)
(28.4819 -0.11238 0)
(28.4653 -0.110493 0)
(28.4483 -0.108633 0)
(28.4309 -0.106798 0)
(28.4132 -0.104988 0)
(28.3951 -0.103205 0)
(28.3768 -0.101444 0)
(28.3582 -0.0997057 0)
(28.3393 -0.0979882 0)
(28.3203 -0.096291 0)
(28.301 -0.0946142 0)
(28.2815 -0.0929578 0)
(28.2619 -0.0913222 0)
(28.2421 -0.0897074 0)
(28.2221 -0.088114 0)
(28.2021 -0.0865421 0)
(28.1819 -0.0849924 0)
(28.1617 -0.0834648 0)
(28.1414 -0.0819599 0)
(28.121 -0.0804775 0)
(28.1006 -0.0790183 0)
(28.0801 -0.0775822 0)
(28.0596 -0.0761696 0)
(28.0391 -0.0747803 0)
(28.0186 -0.0734148 0)
(27.9981 -0.0720727 0)
(27.9776 -0.0707545 0)
(27.9571 -0.0694597 0)
(27.9367 -0.0681888 0)
(27.9163 -0.066941 0)
(27.8959 -0.0657173 0)
(27.8756 -0.0645163 0)
(27.8554 -0.063339 0)
(27.8352 -0.062184 0)
(27.8151 -0.0610526 0)
(27.7951 -0.0599425 0)
(27.7752 -0.0588558 0)
(27.7553 -0.0577895 0)
(27.7356 -0.0567464 0)
(27.716 -0.0557227 0)
(27.6965 -0.0547225 0)
(27.6771 -0.0537402 0)
(27.6578 -0.0527824 0)
(27.6386 -0.0518403 0)
(27.6196 -0.0509252 0)
(27.6007 -0.0500218 0)
(27.5819 -0.0491509 0)
(27.5632 -0.0482834 0)
(27.5447 -0.04746 0)
(27.5263 -0.0466223 0)
(27.5082 -0.045853 0)
(27.49 -0.0450312 0)
(27.4722 -0.0443287 0)
(27.4542 -0.0434912 0)
(27.4369 -0.0428814 0)
(27.4188 -0.0419582 0)
(27.4025 -0.0414927 0)
(27.3836 -0.0403355 0)
(27.3694 -0.0401168 0)
(27.3481 -0.03841 0)
(27.3389 -0.0385923 0)
(27.3108 -0.0356151 0)
(24.6867 -0.0957474 0)
(24.7693 -0.268399 0)
(24.9075 -0.420997 0)
(25.0781 -0.556945 0)
(25.2616 -0.675897 0)
(25.4405 -0.77476 0)
(25.6007 -0.851734 0)
(25.7309 -0.907216 0)
(25.8254 -0.943242 0)
(25.8815 -0.962112 0)
(25.9013 -0.966124 0)
(25.8869 -0.957651 0)
(25.8426 -0.938739 0)
(25.7727 -0.911303 0)
(25.6812 -0.877233 0)
(25.572 -0.83826 0)
(25.4489 -0.795896 0)
(25.3151 -0.751414 0)
(25.1735 -0.705893 0)
(25.0267 -0.660238 0)
(24.8766 -0.615186 0)
(24.725 -0.571357 0)
(24.5731 -0.52922 0)
(24.4222 -0.489118 0)
(24.273 -0.451307 0)
(24.1262 -0.415938 0)
(23.9821 -0.383082 0)
(23.8411 -0.352741 0)
(23.7034 -0.324867 0)
(23.5691 -0.299374 0)
(23.4382 -0.276144 0)
(23.3107 -0.255048 0)
(23.1866 -0.235934 0)
(23.0657 -0.218652 0)
(22.948 -0.203049 0)
(22.8334 -0.188973 0)
(22.7217 -0.176275 0)
(22.6129 -0.164812 0)
(22.5068 -0.154442 0)
(22.4034 -0.145037 0)
(22.3025 -0.136489 0)
(22.2041 -0.128708 0)
(22.1081 -0.121613 0)
(22.0144 -0.115133 0)
(21.923 -0.109201 0)
(21.8337 -0.103758 0)
(21.7466 -0.0987521 0)
(21.6616 -0.0941376 0)
(21.5786 -0.0898741 0)
(21.4976 -0.0859242 0)
(21.4185 -0.0822593 0)
(21.3413 -0.0788491 0)
(21.2659 -0.0756675 0)
(21.1924 -0.0726925 0)
(21.1207 -0.0699047 0)
(21.0507 -0.0672864 0)
(20.9823 -0.064822 0)
(20.9157 -0.062498 0)
(20.8507 -0.0603022 0)
(20.7873 -0.0582237 0)
(20.7254 -0.0562528 0)
(20.665 -0.0543808 0)
(20.6062 -0.0526004 0)
(20.5487 -0.0509061 0)
(20.4927 -0.0492945 0)
(20.4381 -0.0477617 0)
(20.3848 -0.046303 0)
(20.3328 -0.044913 0)
(20.282 -0.0435865 0)
(20.2325 -0.0423191 0)
(20.1843 -0.0411069 0)
(20.1371 -0.0399465 0)
(20.0912 -0.038835 0)
(20.0463 -0.0377693 0)
(20.0025 -0.0367471 0)
(19.9598 -0.0357658 0)
(19.9181 -0.0348235 0)
(19.8773 -0.0339178 0)
(19.8376 -0.0330473 0)
(19.7987 -0.0322099 0)
(19.7608 -0.0314042 0)
(19.7237 -0.0306284 0)
(19.6875 -0.0298814 0)
(19.6521 -0.0291617 0)
(19.6176 -0.0284681 0)
(19.5838 -0.0277994 0)
(19.5507 -0.0271548 0)
(19.5185 -0.0265331 0)
(19.4869 -0.0259335 0)
(19.456 -0.025355 0)
(19.4258 -0.0247969 0)
(19.3962 -0.0242584 0)
(19.3673 -0.0237387 0)
(19.339 -0.0232369 0)
(19.3113 -0.0227527 0)
(19.2842 -0.0222852 0)
(19.2576 -0.0218339 0)
(19.2316 -0.0213982 0)
(19.2062 -0.0209778 0)
(19.1812 -0.0205721 0)
(19.1568 -0.0201806 0)
(19.1328 -0.0198032 0)
(19.1093 -0.0194393 0)
(19.0863 -0.0190893 0)
(19.0638 -0.0187516 0)
(19.0416 -0.0184284 0)
(19.0199 -0.0181153 0)
(18.9986 -0.0178186 0)
(18.9777 -0.0175265 0)
(18.9571 -0.0172559 0)
(18.9371 -0.0169771 0)
(18.9171 -0.0167316 0)
(18.8981 -0.0164486 0)
(18.8783 -0.0162246 0)
(18.8606 -0.0159016 0)
(18.8405 -0.015681 0)
(18.8253 -0.0152549 0)
(18.803 -0.0149749 0)
(18.7934 -0.0144196 0)
(18.7646 -0.0139912 0)
(24.6436 -0.0668863 0)
(24.4468 -0.259912 0)
(24.0501 -0.441116 0)
(23.476 -0.587545 0)
(22.7706 -0.693932 0)
(21.9762 -0.758922 0)
(21.1271 -0.785689 0)
(20.2493 -0.779977 0)
(19.3664 -0.749752 0)
(18.4938 -0.701086 0)
(17.6498 -0.640825 0)
(16.8402 -0.575113 0)
(16.0731 -0.506197 0)
(15.3537 -0.437418 0)
(14.6839 -0.371413 0)