/*--------------------------------*- C++ -*----------------------------------*\
  =========                 |
  \\      /  F ield         | OpenFOAM: The Open Source CFD Toolbox
   \\    /   O peration     | Website:  https://openfoam.org
    \\  /    A nd           | Version:  7
     \\/     M anipulation  |
\*---------------------------------------------------------------------------*/
FoamFile
{
    version     2.0;
    format      ascii;
    class       volScalarField;
    location    "1.77";
    object      k_0;
}
// * * * * * * * * * * * * * * * * * * * * * * * * * * * * * * * * * * * * * //

dimensions      [0 2 -2 0 0 0 0];

internalField   nonuniform List<scalar> 
7920
(
52.0286
56.4786
56.4773
56.5116
56.404
56.41
56.3443
56.3703
56.3343
56.3583
56.3287
56.3456
56.3234
56.3344
56.3237
56.3218
56.3346
56.2895
56.4161
56.4771
13.8432
14.0099
13.43
12.8745
12.6057
12.501
12.4111
12.3859
12.3408
12.3323
12.3035
12.2987
12.2827
12.2811
12.2709
12.2676
12.2638
12.2535
12.4277
12.4263
8.08992
9.22839
9.3461
9.33022
9.2877
9.2754
9.24767
9.24183
9.22325
9.21954
9.20576
9.20327
9.19298
9.19119
9.18358
9.18184
9.17637
9.1733
9.17764
9.20234
7.48807
8.7605
9.01351
9.10492
9.12765
9.1594
9.16313
9.17833
9.17778
9.1863
9.18455
9.1908
9.18912
9.19419
9.19292
9.19719
9.19619
9.19957
9.20076
9.22476
7.42321
8.70693
8.97298
9.08081
9.11718
9.16315
9.17739
9.20739
9.21549
9.2365
9.24196
9.25842
9.26287
9.27685
9.28077
9.29294
9.29641
9.30635
9.31085
9.33782
7.43013
8.70348
8.9679
9.07732
9.11749
9.16846
9.18755
9.22407
9.23688
9.26466
9.27442
9.29708
9.30535
9.32497
9.33225
9.34947
9.35598
9.37012
9.3785
9.40636
7.43013
8.70348
8.9679
9.07733
9.11749
9.16846
9.18755
9.22408
9.23688
9.26467
9.27442
9.2971
9.30534
9.32499
9.33224
9.3495
9.35598
9.37018
9.37857
9.40644
7.42321
8.70693
8.97297
9.08081
9.11718
9.16316
9.17738
9.20741
9.21548
9.23653
9.24194
9.25847
9.26282
9.27694
9.28071
9.29308
9.29635
9.30656
9.31089
9.33813
7.48807
8.76051
9.0135
9.10492
9.12763
9.15942
9.16312
9.17835
9.17775
9.18635
9.18448
9.1909
9.18898
9.19442
9.19264
9.19765
9.19568
9.20063
9.20021
9.22551
8.08992
9.22839
9.34609
9.33022
9.28769
9.27541
9.24765
9.24186
9.22321
9.2196
9.20564
9.20341
9.19271
9.19154
9.18294
9.18267
9.17491
9.17599
9.17528
9.20572
13.8432
14.0099
13.43
12.8745
12.6056
12.501
12.411
12.386
12.3407
12.3323
12.3033
12.299
12.2822
12.2817
12.2698
12.2694
12.2607
12.2589
12.4163
12.4382
52.0286
56.4786
56.4773
56.5116
56.4039
56.4101
56.3442
56.3705
56.334
56.3588
56.3279
56.347
56.3212
56.3378
56.3182
56.3309
56.3192
56.3157
56.3683
56.557
7.67412
9.66937
9.74711
9.61618
9.57486
9.50264
9.49863
9.45981
9.46156
9.43474
9.43665
9.41658
9.41889
9.40317
9.40601
9.39121
9.39745
9.37632
9.38731
9.42167
6.02259
8.25326
8.59133
8.6336
8.63371
8.63153
8.62733
8.626
8.62386
8.62239
8.62019
8.61786
8.61649
8.61387
8.61357
8.61029
8.61082
8.60614
8.61365
8.61694
5.70585
7.91149
8.26329
8.33363
8.34293
8.3573
8.36005
8.36938
8.37224
8.38007
8.38281
8.38911
8.39203
8.39668
8.40026
8.40285
8.40754
8.40755
8.4106
8.44187
5.69751
7.90275
8.25204
8.31976
8.32328
8.33067
8.32848
8.33215
8.33136
8.33477
8.33544
8.33938
8.34142
8.34575
8.34909
8.35248
8.35738
8.35893
8.36359
8.38502
5.68572
7.88725
8.23651
8.30626
8.30931
8.31602
8.31198
8.31407
8.31071
8.31217
8.31005
8.3119
8.31151
8.31402
8.31505
8.31841
8.32022
8.32405
8.32657
8.34947
5.69207
7.89536
8.2437
8.31301
8.31596
8.32273
8.31863
8.32072
8.31703
8.31815
8.31531
8.31653
8.31516
8.31705
8.31705
8.31953
8.32054
8.32378
8.32539
8.34672
5.69207
7.89536
8.2437
8.31301
8.31596
8.32273
8.31863
8.32072
8.31703
8.31816
8.31531
8.31654
8.31515
8.31707
8.31704
8.31954
8.32052
8.32378
8.32541
8.34667
5.68572
7.88726
8.23651
8.30627
8.30931
8.31603
8.31197
8.31408
8.3107
8.31219
8.31003
8.31194
8.31146
8.3141
8.31498
8.31852
8.3201
8.32417
8.32643
8.34949
5.69751
7.90276
8.25204
8.31977
8.32328
8.33068
8.32846
8.33217
8.33133
8.33483
8.3354
8.33948
8.3413
8.34599
8.34857
8.35315
8.35647
8.35972
8.36302
8.38547
5.70585
7.9115
8.26329
8.33364
8.34291
8.35731
8.36004
8.36941
8.3722
8.38014
8.38273
8.38929
8.3917
8.39721
8.39937
8.40419
8.40564
8.40975
8.40821
8.44419
6.02259
8.25326
8.59133
8.63361
8.6337
8.63154
8.6273
8.62603
8.62381
8.6225
8.62003
8.61811
8.61609
8.61448
8.61278
8.61162
8.60862
8.60951
8.60789
8.62493
7.67412
9.66937
9.7471
9.61618
9.57485
9.50265
9.49861
9.45984
9.46151
9.43482
9.43653
9.41679
9.41857
9.40373
9.40518
9.39271
9.39512
9.38074
9.38049
9.43331
0.477113
1.03558
1.133
1.10329
1.02907
0.962183
0.910419
0.873787
0.846829
0.825876
0.810601
0.796711
0.787118
0.776789
0.770231
0.762198
0.75694
0.752172
0.743936
0.751722
0.0859278
0.382406
0.526387
0.588307
0.61012
0.623895
0.630751
0.638382
0.642234
0.64641
0.647863
0.64959
0.649749
0.650104
0.649824
0.649674
0.64916
0.64867
0.647994
0.650774
0.0642252
0.299989
0.416384
0.474614
0.492901
0.506358
0.50945
0.5158
0.518051
0.522976
0.525423
0.529859
0.532545
0.536238
0.539038
0.542013
0.544823
0.547236
0.549078
0.553597
0.0680837
0.30365
0.417683
0.473464
0.491391
0.502593
0.504174
0.507101
0.507192
0.508125
0.508391
0.509358
0.509957
0.51104
0.512185
0.513045
0.514685
0.515479
0.516861
0.520272
0.0662427
0.299641
0.412542
0.468331
0.485846
0.497024
0.498333
0.500958
0.500672
0.50111
0.500777
0.500982
0.500843
0.50099
0.501076
0.501241
0.501628
0.501794
0.502159
0.504405
0.067277
0.301879
0.415188
0.47075
0.488419
0.499484
0.500945
0.503511
0.503269
0.503649
0.503309
0.503418
0.503209
0.503237
0.503187
0.503191
0.503306
0.503312
0.503501
0.505469
0.0672769
0.301879
0.415188
0.470751
0.488419
0.499484
0.500945
0.503511
0.503268
0.503649
0.503309
0.503418
0.503208
0.503238
0.503187
0.503192
0.503305
0.503313
0.5035
0.505467
0.0662424
0.299641
0.412542
0.468331
0.485846
0.497024
0.498333
0.500959
0.500672
0.50111
0.500777
0.500983
0.500843
0.500991
0.501074
0.501241
0.501627
0.501791
0.502155
0.504393
0.0680833
0.303651
0.417682
0.473464
0.491391
0.502594
0.504173
0.507102
0.507192
0.508126
0.508391
0.509366
0.509941
0.511058
0.512154
0.513071
0.514648
0.515476
0.516837
0.520223
0.0642247
0.29999
0.416384
0.474615
0.4929
0.506359
0.50945
0.515801
0.51805
0.522982
0.525411
0.529875
0.532516
0.53627
0.538979
0.542061
0.544737
0.547245
0.549024
0.553493
0.0859275
0.382407
0.526386
0.588308
0.610118
0.623897
0.630747
0.638388
0.642223
0.646423
0.647842
0.649609
0.649737
0.650115
0.649762
0.649691
0.649044
0.648753
0.647816
0.650767
0.477113
1.03558
1.133
1.10329
1.02907
0.962186
0.910415
0.873795
0.846821
0.825897
0.810582
0.796761
0.787079
0.776907
0.77015
0.762482
0.756768
0.752753
0.743784
0.752838
0.477113
1.03558
1.133
1.10329
1.02907
0.962183
0.910419
0.873787
0.846829
0.825876
0.810601
0.796711
0.787118
0.776789
0.770231
0.762198
0.75694
0.752172
0.743936
0.751722
0.0859279
0.382406
0.526387
0.588307
0.61012
0.623895
0.630751
0.638382
0.642234
0.64641
0.647863
0.64959
0.649749
0.650104
0.649824
0.649674
0.64916
0.64867
0.647994
0.650774
0.0642252
0.299989
0.416384
0.474614
0.492901
0.506358
0.50945
0.5158
0.518051
0.522976
0.525423
0.529859
0.532545
0.536238
0.539038
0.542013
0.544823
0.547236
0.549078
0.553597
0.0680838
0.30365
0.417683
0.473464
0.491391
0.502593
0.504174
0.507101
0.507192
0.508125
0.508391
0.509358
0.509957
0.51104
0.512185
0.513045
0.514685
0.515479
0.516861
0.520272
0.0662427
0.299641
0.412542
0.468331
0.485846
0.497024
0.498333
0.500959
0.500672
0.50111
0.500777
0.500982
0.500843
0.50099
0.501076
0.501241
0.501628
0.501794
0.502159
0.504405
0.067277
0.301879
0.415188
0.470751
0.488419
0.499484
0.500945
0.503511
0.503269
0.503649
0.503309
0.503418
0.503209
0.503237
0.503187
0.503191
0.503306
0.503313
0.503501
0.505469
0.0672769
0.301879
0.415188
0.470751
0.488419
0.499484
0.500945
0.503511
0.503269
0.503649
0.503309
0.503418
0.503209
0.503238
0.503187
0.503192
0.503305
0.503313
0.5035
0.505467
0.0662425
0.299642
0.412542
0.468331
0.485846
0.497024
0.498333
0.500959
0.500672
0.50111
0.500777
0.500983
0.500843
0.500991
0.501074
0.501241
0.501627
0.501791
0.502155
0.504393
0.0680833
0.303651
0.417682
0.473464
0.491391
0.502594
0.504173
0.507102
0.507192
0.508126
0.508391
0.509366
0.509941
0.511058
0.512154
0.513071
0.514648
0.515476
0.516837
0.520223
0.0642247
0.29999
0.416384
0.474615
0.4929
0.506359
0.50945
0.515801
0.51805
0.522982
0.525411
0.529875
0.532516
0.53627
0.538979
0.542061
0.544737
0.547245
0.549024
0.553493
0.0859275
0.382407
0.526386
0.588308
0.610118
0.623897
0.630747
0.638388
0.642223
0.646423
0.647842
0.649609
0.649737
0.650116
0.649762
0.649691
0.649044
0.648753
0.647816
0.650767
0.477113
1.03558
1.133
1.10329
1.02907
0.962186
0.910415
0.873795
0.846821
0.825897
0.810582
0.796761
0.787079
0.776907
0.77015
0.762482
0.756768
0.752753
0.743784
0.752838
7.67412
9.66937
9.74711
9.61618
9.57486
9.50264
9.49863
9.45981
9.46156
9.43474
9.43665
9.41658
9.41889
9.40317
9.40601
9.39121
9.39745
9.37632
9.38731
9.42167
6.02259
8.25326
8.59133
8.6336
8.63371
8.63153
8.62733
8.626
8.62387
8.62239
8.62019
8.61786
8.61649
8.61387
8.61357
8.61029
8.61082
8.60614
8.61365
8.61694
5.70585
7.91149
8.26329
8.33363
8.34293
8.3573
8.36005
8.36938
8.37224
8.38007
8.38281
8.38911
8.39203
8.39668
8.40026
8.40285
8.40753
8.40755
8.41059
8.44187
5.69751
7.90275
8.25204
8.31976
8.32328
8.33067
8.32848
8.33215
8.33136
8.33477
8.33544
8.33938
8.34142
8.34575
8.34909
8.35248
8.35738
8.35893
8.36359
8.38502
5.68572
7.88725
8.23651
8.30626
8.30931
8.31602
8.31198
8.31407
8.31071
8.31217
8.31005
8.3119
8.31151
8.31402
8.31505
8.31841
8.32022
8.32405
8.32657
8.34947
5.69207
7.89536
8.2437
8.31301
8.31596
8.32273
8.31863
8.32072
8.31703
8.31815
8.31531
8.31653
8.31516
8.31705
8.31705
8.31953
8.32054
8.32378
8.32539
8.34672
5.69207
7.89536
8.2437
8.31301
8.31596
8.32273
8.31863
8.32072
8.31703
8.31816
8.31531
8.31654
8.31515
8.31707
8.31704
8.31954
8.32052
8.32378
8.32541
8.34667
5.68572
7.88726
8.23651
8.30627
8.30931
8.31603
8.31197
8.31408
8.3107
8.31219
8.31003
8.31194
8.31146
8.3141
8.31498
8.31852
8.3201
8.32417
8.32643
8.34949
5.69751
7.90276
8.25204
8.31977
8.32328
8.33068
8.32846
8.33217
8.33133
8.33483
8.3354
8.33948
8.3413
8.34599
8.34857
8.35315
8.35647
8.35972
8.36302
8.38547
5.70585
7.9115
8.26329
8.33364
8.34291
8.35731
8.36004
8.36941
8.3722
8.38013
8.38273
8.38929
8.3917
8.39721
8.39937
8.40419
8.40564
8.40975
8.40821
8.44419
6.02259
8.25326
8.59133
8.63361
8.6337
8.63154
8.6273
8.62603
8.62381
8.6225
8.62003
8.61811
8.61609
8.61448
8.61279
8.61163
8.60862
8.60951
8.60789
8.62493
7.67412
9.66937
9.7471
9.61618
9.57485
9.50265
9.49861
9.45984
9.46151
9.43482
9.43653
9.4168
9.41857
9.40373
9.40518
9.39271
9.39512
9.38074
9.38049
9.43331
52.0286
56.4786
56.4773
56.5116
56.404
56.41
56.3443
56.3703
56.3343
56.3583
56.3287
56.3456
56.3234
56.3344
56.3237
56.3218
56.3346
56.2895
56.4161
56.4771
13.8432
14.0099
13.43
12.8745
12.6057
12.501
12.4111
12.3859
12.3408
12.3323
12.3035
12.2987
12.2827
12.2811
12.2709
12.2676
12.2638
12.2535
12.4277
12.4263
8.08992
9.22839
9.3461
9.33022
9.2877
9.2754
9.24767
9.24183
9.22325
9.21954
9.20576
9.20327
9.19298
9.19119
9.18358
9.18183
9.17637
9.17329
9.17764
9.20234
7.48807
8.7605
9.01351
9.10492
9.12765
9.1594
9.16313
9.17833
9.17778
9.1863
9.18455
9.1908
9.18912
9.19419
9.19292
9.19719
9.19619
9.19957
9.20075
9.22476
7.42321
8.70693
8.97298
9.08081
9.11718
9.16315
9.17739
9.20739
9.21549
9.2365
9.24196
9.25842
9.26287
9.27685
9.28077
9.29293
9.29641
9.30635
9.31085
9.33782
7.43013
8.70348
8.9679
9.07732
9.11749
9.16846
9.18755
9.22407
9.23688
9.26466
9.27442
9.29708
9.30535
9.32497
9.33225
9.34947
9.35598
9.37012
9.3785
9.40636
7.43013
8.70348
8.9679
9.07733
9.11749
9.16846
9.18755
9.22408
9.23688
9.26467
9.27442
9.2971
9.30534
9.32499
9.33224
9.3495
9.35598
9.37018
9.37857
9.40644
7.42321
8.70693
8.97297
9.08081
9.11718
9.16316
9.17738
9.20741
9.21548
9.23652
9.24194
9.25847
9.26282
9.27694
9.28071
9.29308
9.29635
9.30656
9.31089
9.33813
7.48807
8.76051
9.0135
9.10492
9.12763
9.15942
9.16312
9.17835
9.17775
9.18635
9.18448
9.1909
9.18898
9.19442
9.19264
9.19765
9.19568
9.20063
9.20021
9.22551
8.08992
9.22839
9.34609
9.33022
9.28769
9.27541
9.24765
9.24186
9.22321
9.2196
9.20564
9.20341
9.19271
9.19154
9.18294
9.18267
9.17491
9.17599
9.17528
9.20572
13.8432
14.0099
13.43
12.8745
12.6056
12.501
12.411
12.386
12.3407
12.3324
12.3033
12.299
12.2822
12.2817
12.2698
12.2694
12.2607
12.2589
12.4163
12.4382
52.0286
56.4786
56.4773
56.5116
56.4039
56.4101
56.3442
56.3705
56.334
56.3588
56.3279
56.347
56.3212
56.3378
56.3182
56.3309
56.3192
56.3157
56.3683
56.557
144.087
146.212
147.258
148.144
148.836
149.475
149.99
150.493
150.937
151.388
151.791
152.186
152.535
152.88
153.194
153.505
153.786
154.057
154.294
154.517
154.71
154.889
155.039
155.173
155.277
155.364
155.424
155.472
155.499
155.521
155.53
155.539
155.54
155.543
155.541
155.542
155.539
155.54
155.537
155.537
155.534
155.534
155.532
155.532
155.529
155.529
155.527
155.527
155.525
155.525
155.523
155.523
155.521
155.521
155.519
155.519
155.517
155.517
155.516
155.516
155.514
155.514
155.513
155.513
155.512
155.512
155.511
155.511
155.51
155.51
155.509
155.51
155.509
155.509
155.508
155.509
155.508
155.508
155.507
155.508
155.507
155.507
155.506
155.507
155.505
155.506
155.503
155.504
155.471
155.455
47.2736
49.0267
49.3519
49.6521
49.8554
50.0769
50.2281
50.4035
50.5343
50.6918
50.812
50.9505
51.0549
51.1756
51.2694
51.3786
51.4631
51.5585
51.6295
51.7087
51.7658
51.8301
51.8738
51.9227
51.9517
51.9847
51.9995
52.0189
52.0233
52.0336
52.0322
52.0377
52.0339
52.0373
52.0327
52.0353
52.0307
52.0329
52.0285
52.0306
52.0265
52.0284
52.0246
52.0264
52.0229
52.0246
52.0213
52.023
52.0199
52.0215
52.0187
52.0202
52.0176
52.0191
52.0167
52.0181
52.0159
52.0173
52.0153
52.0167
52.0149
52.0163
52.0146
52.016
52.0145
52.0159
52.0145
52.0159
52.0147
52.0161
52.0151
52.0165
52.0155
52.0169
52.0161
52.0175
52.0167
52.0182
52.0175
52.0189
52.0182
52.0196
52.0189
52.0203
52.0194
52.0208
52.0194
52.0214
52.0043
51.9967
30.493
32.4955
32.6862
32.8758
32.9762
33.1268
33.2022
33.3206
33.384
33.4907
33.5529
33.6498
33.7049
33.7891
33.8382
33.9149
33.9608
34.0301
34.0695
34.1285
34.16
34.2091
34.233
34.2725
34.2881
34.3171
34.3239
34.3428
34.3428
34.3542
34.3502
34.3576
34.3517
34.3572
34.3509
34.3556
34.3495
34.3537
34.348
34.352
34.3467
34.3505
34.3457
34.3493
34.3449
34.3484
34.3443
34.3476
34.3439
34.3472
34.3438
34.3469
34.3438
34.3469
34.3441
34.3472
34.3446
34.3476
34.3454
34.3483
34.3463
34.3492
34.3474
34.3503
34.3487
34.3516
34.3502
34.3531
34.3519
34.3548
34.3538
34.3566
34.3558
34.3586
34.3579
34.3608
34.3602
34.363
34.3625
34.3653
34.3649
34.3677
34.3673
34.37
34.3695
34.3723
34.3715
34.3745
34.37
34.3524
28.2688
30.6691
30.8469
31.005
31.0719
31.2083
31.2618
31.3677
31.4092
31.5037
31.5498
31.6412
31.684
31.7638
31.8012
31.8742
31.9114
31.9803
32.0144
32.0748
32.1024
32.1538
32.1755
32.2187
32.2339
32.2675
32.275
32.2982
32.2988
32.3135
32.3095
32.3194
32.3131
32.3205
32.3137
32.32
32.3133
32.3191
32.3129
32.3184
32.3127
32.318
32.3127
32.3178
32.3131
32.318
32.3137
32.3185
32.3146
32.3192
32.3157
32.3203
32.3171
32.3216
32.3188
32.3232
32.3207
32.325
32.3228
32.3271
32.3252
32.3294
32.3278
32.332
32.3307
32.3348
32.3337
32.3378
32.337
32.3411
32.3404
32.3445
32.344
32.3481
32.3477
32.3518
32.3516
32.3557
32.3556
32.3596
32.3597
32.3636
32.3637
32.3677
32.3677
32.3717
32.3717
32.3755
32.3763
32.355
28.1076
30.7513
30.9303
31.0698
31.1124
31.2355
31.275
31.3704
31.3971
31.4811
31.5166
31.6034
31.6392
31.7162
31.7471
31.8176
31.8504
31.9199
31.9521
32.0149
32.0416
32.0959
32.1177
32.1644
32.181
32.2188
32.2279
32.255
32.2567
32.2744
32.2709
32.2827
32.2766
32.2855
32.2785
32.2861
32.2792
32.2862
32.2798
32.2864
32.2806
32.2869
32.2816
32.2878
32.283
32.289
32.2848
32.2905
32.2868
32.2924
32.289
32.2946
32.2916
32.297
32.2945
32.2998
32.2976
32.3028
32.3009
32.3061
32.3046
32.3097
32.3084
32.3135
32.3125
32.3176
32.3169
32.3219
32.3214
32.3265
32.3262
32.3312
32.3311
32.3361
32.3362
32.3412
32.3415
32.3464
32.3468
32.3517
32.3522
32.3571
32.3575
32.3624
32.3629
32.3677
32.3682
32.3726
32.3751
32.3523
28.1938
30.9893
31.1675
31.2888
31.3104
31.4156
31.4417
31.5233
31.5373
31.6089
31.6351
31.7144
31.7442
31.8161
31.8418
31.9083
31.9378
32.0058
32.0366
32.1
32.1262
32.1815
32.2034
32.2519
32.2693
32.3093
32.3196
32.3488
32.3514
32.3707
32.3677
32.3806
32.3747
32.3844
32.3774
32.3857
32.3788
32.3863
32.38
32.3871
32.3814
32.3883
32.3831
32.3898
32.3851
32.3916
32.3875
32.3938
32.3902
32.3964
32.3932
32.3992
32.3965
32.4024
32.4
32.4059
32.4039
32.4097
32.408
32.4137
32.4124
32.418
32.417
32.4226
32.4219
32.4275
32.427
32.4326
32.4324
32.4379
32.4379
32.4435
32.4436
32.4492
32.4495
32.4551
32.4556
32.461
32.4617
32.4671
32.4679
32.4733
32.4741
32.4794
32.4802
32.4855
32.4865
32.491
32.495
32.4707
28.1954
30.9794
31.1385
31.2387
31.2417
31.3273
31.3395
31.406
31.4093
31.4694
31.4876
31.5582
31.582
31.6475
31.6689
31.7309
31.7576
31.8228
31.8518
31.9136
31.939
31.9934
32.0149
32.0629
32.0801
32.1199
32.1301
32.1592
32.1618
32.181
32.1781
32.1909
32.185
32.1947
32.1878
32.196
32.1891
32.1967
32.1903
32.1975
32.1918
32.1987
32.1935
32.2002
32.1956
32.2021
32.198
32.2044
32.2007
32.2069
32.2038
32.2098
32.2071
32.213
32.2107
32.2165
32.2145
32.2203
32.2187
32.2244
32.2231
32.2288
32.2278
32.2334
32.2327
32.2383
32.2378
32.2434
32.2432
32.2487
32.2487
32.2543
32.2545
32.26
32.2604
32.2659
32.2664
32.2719
32.2726
32.278
32.2788
32.2841
32.285
32.2903
32.2912
32.2964
32.2974
32.3019
32.306
32.2819
28.1104
30.7106
30.8257
30.8998
30.8867
30.9532
30.9517
31.0037
30.9998
31.0511
31.0633
31.1252
31.1438
31.2024
31.221
31.2787
31.3035
31.365
31.3924
31.4509
31.4751
31.5269
31.5474
31.5929
31.6088
31.646
31.6549
31.6816
31.6833
31.7007
31.6973
31.7091
31.703
31.7119
31.705
31.7125
31.7057
31.7127
31.7064
31.713
31.7072
31.7136
31.7084
31.7146
31.7099
31.7159
31.7117
31.7175
31.7138
31.7194
31.7162
31.7217
31.7188
31.7242
31.7217
31.7271
31.7249
31.7302
31.7284
31.7336
31.7321
31.7372
31.736
31.7411
31.7402
31.7453
31.7446
31.7496
31.7492
31.7542
31.754
31.759
31.759
31.764
31.7641
31.7691
31.7694
31.7743
31.7747
31.7797
31.7801
31.785
31.7856
31.7904
31.791
31.7957
31.7964
31.8005
31.8037
31.7819
28.2502
30.5407
30.6007
30.6493
30.6262
30.6747
30.6633
30.7036
30.6966
30.7414
30.7509
30.8047
30.8203
30.8727
30.8909
30.9452
30.97
31.0276
31.0543
31.1087
31.1322
31.1804
31.2001
31.2414
31.2557
31.2884
31.2955
31.3182
31.3186
31.333
31.3291
31.3388
31.3327
31.3401
31.3333
31.3396
31.333
31.3389
31.3327
31.3382
31.3326
31.3379
31.3328
31.3379
31.3333
31.3382
31.334
31.3388
31.3351
31.3397
31.3363
31.3409
31.3379
31.3423
31.3396
31.344
31.3416
31.3459
31.3439
31.3481
31.3463
31.3506
31.349
31.3532
31.352
31.3561
31.3551
31.3592
31.3584
31.3625
31.3619
31.366
31.3656
31.3697
31.3694
31.3735
31.3733
31.3774
31.3773
31.3814
31.3814
31.3854
31.3855
31.3895
31.3896
31.3935
31.3937
31.3972
31.3986
31.3785
30.3814
32.156
32.1603
32.1924
32.1669
32.203
32.188
32.2219
32.2181
32.2605
32.2721
32.3213
32.3386
32.3886
32.4114
32.4654
32.4946
32.5504
32.5802
32.6318
32.6582
32.7033
32.7246
32.7619
32.7761
32.8039
32.81
32.8283
32.828
32.8391
32.8351
32.8424
32.8365
32.842
32.8358
32.8404
32.8344
32.8387
32.8331
32.8371
32.8319
32.8357
32.831
32.8346
32.8303
32.8338
32.8298
32.8332
32.8296
32.8329
32.8296
32.8328
32.8297
32.8329
32.8302
32.8332
32.8308
32.8338
32.8316
32.8346
32.8326
32.8356
32.8338
32.8367
32.8352
32.8381
32.8368
32.8397
32.8386
32.8415
32.8405
32.8434
32.8426
32.8454
32.8448
32.8476
32.8471
32.8499
32.8494
32.8523
32.8519
32.8547
32.8543
32.8571
32.8567
32.8594
32.8588
32.8614
32.8587
32.8426
46.8344
48.098
48.0845
48.1152
48.1005
48.1345
48.1295
48.1675
48.1822
48.2363
48.2685
48.33
48.3696
48.4354
48.4849
48.5581
48.615
48.689
48.7444
48.8119
48.8605
48.9184
48.9575
49.0028
49.0292
49.0601
49.0735
49.0917
49.0954
49.1052
49.1036
49.1088
49.1049
49.1082
49.1036
49.1062
49.1016
49.1038
49.0995
49.1015
49.0975
49.0994
49.0956
49.0974
49.094
49.0957
49.0925
49.0941
49.0911
49.0927
49.0899
49.0915
49.0889
49.0904
49.0881
49.0895
49.0874
49.0888
49.0869
49.0883
49.0865
49.0879
49.0863
49.0877
49.0862
49.0876
49.0863
49.0877
49.0865
49.088
49.0869
49.0883
49.0874
49.0888
49.088
49.0894
49.0887
49.0901
49.0894
49.0909
49.0902
49.0916
49.0909
49.0923
49.0915
49.0928
49.0916
49.0933
49.0777
49.0712
142.309
142.911
142.923
142.992
143.018
143.091
143.128
143.218
143.306
143.446
143.579
143.742
143.893
144.072
144.251
144.454
144.651
144.857
145.046
145.234
145.4
145.56
145.695
145.818
145.914
145.994
146.049
146.093
146.119
146.139
146.147
146.155
146.155
146.158
146.156
146.157
146.153
146.154
146.151
146.151
146.148
146.148
146.145
146.146
146.143
146.143
146.141
146.141
146.138
146.138
146.136
146.136
146.134
146.134
146.132
146.133
146.131
146.131
146.129
146.129
146.128
146.128
146.127
146.127
146.125
146.126
146.124
146.125
146.124
146.124
146.123
146.123
146.122
146.123
146.122
146.122
146.121
146.122
146.121
146.121
146.12
146.121
146.12
146.12
146.119
146.119
146.117
146.117
146.088
146.075
30.1738
30.9318
31.157
31.3293
31.4736
31.5993
31.7047
31.8067
31.8967
31.9898
32.0698
32.1518
32.2201
32.2926
32.3535
32.4194
32.4733
32.5306
32.5751
32.6225
32.6579
32.6962
32.7228
32.7515
32.7685
32.7873
32.7954
32.8061
32.808
32.8134
32.8119
32.8147
32.8119
32.8135
32.8103
32.8115
32.8083
32.8094
32.8063
32.8073
32.8044
32.8053
32.8025
32.8034
32.8008
32.8016
32.7992
32.8
32.7978
32.7985
32.7964
32.7971
32.7951
32.7958
32.794
32.7946
32.7929
32.7936
32.792
32.7926
32.7912
32.7918
32.7905
32.7912
32.79
32.7906
32.7895
32.7902
32.7892
32.7899
32.789
32.7897
32.7889
32.7897
32.789
32.7898
32.7892
32.79
32.7895
32.7904
32.7901
32.791
32.7908
32.7919
32.7917
32.7932
32.7931
32.7954
32.7921
32.793
28.0588
29.3713
29.5933
29.7638
29.9013
30.0268
30.1284
30.2282
30.3147
30.4053
30.4836
30.5639
30.6313
30.7017
30.7617
30.8259
30.8798
30.9361
30.9813
31.0282
31.0646
31.1028
31.131
31.1601
31.1792
31.1988
31.2092
31.2207
31.2246
31.2308
31.2311
31.2344
31.2332
31.2352
31.2335
31.2351
31.2333
31.2347
31.2329
31.2342
31.2327
31.2339
31.2324
31.2336
31.2323
31.2334
31.2322
31.2333
31.2322
31.2333
31.2323
31.2333
31.2324
31.2335
31.2326
31.2337
31.2329
31.2339
31.2333
31.2343
31.2337
31.2347
31.2342
31.2352
31.2347
31.2357
31.2353
31.2363
31.236
31.237
31.2368
31.2378
31.2376
31.2386
31.2384
31.2394
31.2393
31.2403
31.2402
31.2413
31.2412
31.2423
31.2422
31.2435
31.2432
31.2447
31.2442
31.246
31.2453
31.2478
25.8757
27.6915
27.9243
28.0761
28.2033
28.3198
28.416
28.5055
28.5852
28.6667
28.7418
28.8166
28.8825
28.9475
29.0057
29.0653
29.1191
29.1731
29.2199
29.2657
29.3042
29.342
29.3729
29.4028
29.4255
29.4466
29.4607
29.4735
29.4806
29.4874
29.4901
29.4936
29.4942
29.4961
29.4959
29.4973
29.4969
29.498
29.4976
29.4987
29.4983
29.4993
29.499
29.5
29.4998
29.5007
29.5005
29.5015
29.5014
29.5023
29.5022
29.5031
29.5031
29.504
29.504
29.5049
29.5049
29.5058
29.5058
29.5067
29.5068
29.5076
29.5078
29.5086
29.5088
29.5096
29.5098
29.5106
29.5108
29.5117
29.5119
29.5127
29.513
29.5138
29.514
29.5149
29.5151
29.516
29.5162
29.5171
29.5173
29.5182
29.5183
29.5193
29.5192
29.5203
29.5199
29.5211
29.52
29.5023
25.1527
27.2171
27.4379
27.5615
27.6709
27.7771
27.8654
27.9457
28.0166
28.0899
28.1606
28.2321
28.2963
28.3581
28.4143
28.4711
28.5247
28.5786
28.6273
28.674
28.7149
28.754
28.7878
28.8199
28.8464
28.8702
28.8881
28.9031
28.913
28.9211
28.9255
28.9295
28.9311
28.933
28.9334
28.9346
28.9347
28.9355
28.9355
28.9363
28.9363
28.9371
28.9371
28.9378
28.9379
28.9386
28.9387
28.9394
28.9395
28.9402
28.9404
28.9411
28.9412
28.9419
28.9421
28.9428
28.943
28.9437
28.9439
28.9445
28.9448
28.9454
28.9457
28.9464
28.9466
28.9473
28.9475
28.9482
28.9485
28.9491
28.9494
28.9501
28.9504
28.951
28.9513
28.952
28.9523
28.9529
28.9532
28.9539
28.9541
28.9548
28.955
28.9557
28.9557
28.9565
28.9563
28.9572
28.9568
28.9445
24.7122
26.9382
27.1378
27.229
27.3132
27.4035
27.4794
27.5479
27.6069
27.6698
27.7327
27.7987
27.8587
27.9161
27.9681
28.021
28.0723
28.1248
28.1734
28.2203
28.2618
28.3016
28.3368
28.3704
28.3991
28.4251
28.4452
28.4622
28.4738
28.483
28.4885
28.4928
28.4948
28.4968
28.4973
28.4984
28.4984
28.4991
28.499
28.4996
28.4995
28.5001
28.5
28.5006
28.5005
28.5011
28.5011
28.5016
28.5016
28.5022
28.5022
28.5028
28.5028
28.5034
28.5034
28.504
28.5041
28.5046
28.5047
28.5053
28.5054
28.5059
28.5061
28.5066
28.5068
28.5073
28.5075
28.508
28.5082
28.5088
28.509
28.5095
28.5097
28.5103
28.5105
28.511
28.5113
28.5118
28.512
28.5126
28.5128
28.5133
28.5134
28.5141
28.514
28.5146
28.5144
28.5149
28.5144
28.4939
24.6242
26.8934
27.0664
27.1258
27.185
27.2565
27.3181
27.3731
27.4199
27.4716
27.5259
27.585
27.6395
27.6921
27.7396
27.7889
27.8372
27.8881
27.9357
27.9825
28.0239
28.064
28.0995
28.1341
28.1637
28.191
28.2123
28.2305
28.2431
28.2531
28.259
28.2638
28.2659
28.2681
28.2686
28.2696
28.2696
28.2702
28.27
28.2705
28.2704
28.2708
28.2707
28.2712
28.271
28.2715
28.2714
28.2719
28.2718
28.2723
28.2722
28.2727
28.2727
28.2731
28.2731
28.2736
28.2736
28.274
28.2741
28.2745
28.2746
28.2751
28.2751
28.2756
28.2757
28.2762
28.2763
28.2767
28.2768
28.2773
28.2774
28.2779
28.2781
28.2785
28.2787
28.2792
28.2793
28.2798
28.2799
28.2805
28.2806
28.2811
28.2812
28.2817
28.2817
28.2822
28.2821
28.2826
28.2821
28.2639
24.6244
26.8818
27.0358
27.0746
27.1149
27.1695
27.2165
27.2583
27.294
27.3358
27.3817
27.4333
27.4814
27.5286
27.5715
27.6169
27.6622
27.7107
27.7565
27.8018
27.8422
27.8816
27.9166
27.9507
27.98
28.0071
28.0283
28.0464
28.0588
28.0688
28.0746
28.0794
28.0815
28.0836
28.0841
28.0851
28.0851
28.0857
28.0855
28.086
28.0859
28.0863
28.0862
28.0867
28.0865
28.087
28.0869
28.0874
28.0873
28.0877
28.0877
28.0882
28.0881
28.0886
28.0886
28.0891
28.0891
28.0895
28.0896
28.09
28.0901
28.0906
28.0906
28.0911
28.0912
28.0917
28.0918
28.0922
28.0923
28.0928
28.0929
28.0934
28.0936
28.094
28.0942
28.0947
28.0948
28.0953
28.0955
28.096
28.0961
28.0966
28.0967
28.0972
28.0972
28.0977
28.0976
28.0981
28.0977
28.0798
24.7118
26.894
27.0339
27.0636
27.0928
27.1339
27.1679
27.1992
27.2266
27.2614
27.3004
27.3451
27.3871
27.4291
27.4683
27.5104
27.5532
27.599
27.6425
27.6856
27.7243
27.7621
27.7957
27.8282
27.856
27.8814
27.9011
27.9177
27.9291
27.9381
27.9434
27.9477
27.9496
27.9516
27.9521
27.9531
27.9531
27.9538
27.9537
27.9543
27.9542
27.9547
27.9547
27.9552
27.9552
27.9557
27.9557
27.9562
27.9563
27.9568
27.9569
27.9574
27.9575
27.958
27.9581
27.9586
27.9587
27.9592
27.9594
27.9599
27.96
27.9606
27.9607
27.9613
27.9614
27.962
27.9622
27.9627
27.9629
27.9634
27.9636
27.9642
27.9644
27.9649
27.9651
27.9657
27.9659
27.9665
27.9667
27.9672
27.9674
27.968
27.9681
27.9687
27.9687
27.9693
27.9691
27.9695
27.9694
27.95
25.132
27.0924
27.2015
27.224
27.2455
27.275
27.2981
27.3212
27.3431
27.3733
27.4069
27.4457
27.4822
27.5202
27.5567
27.5974
27.6383
27.6822
27.7233
27.7645
27.8012
27.8373
27.8689
27.8994
27.9246
27.9475
27.9646
27.9792
27.9887
27.9965
28.0008
28.0046
28.0061
28.008
28.0084
28.0095
28.0095
28.0104
28.0104
28.0111
28.0111
28.0119
28.0119
28.0126
28.0127
28.0134
28.0135
28.0142
28.0143
28.015
28.0151
28.0158
28.016
28.0167
28.0169
28.0175
28.0177
28.0184
28.0186
28.0193
28.0195
28.0202
28.0205
28.0211
28.0214
28.0221
28.0223
28.023
28.0233
28.0239
28.0242
28.0249
28.0252
28.0258
28.0261
28.0268
28.0271
28.0277
28.028
28.0287
28.0289
28.0296
28.0298
28.0305
28.0306
28.0313
28.0313
28.0318
28.0316
28.0207
25.7923
27.4151
27.4864
27.5037
27.5181
27.538
27.5522
27.5706
27.5893
27.6173
27.6463
27.6809
27.7126
27.7486
27.7831
27.8234
27.8621
27.9045
27.9426
27.9819
28.0157
28.0499
28.0783
28.1062
28.1275
28.1475
28.1608
28.173
28.1797
28.1862
28.1887
28.1921
28.1926
28.1945
28.1943
28.1956
28.1952
28.1963
28.1959
28.1969
28.1966
28.1976
28.1973
28.1983
28.1981
28.199
28.1989
28.1998
28.1997
28.2006
28.2005
28.2015
28.2014
28.2023
28.2023
28.2032
28.2032
28.2041
28.2042
28.2051
28.2052
28.206
28.2062
28.207
28.2072
28.208
28.2082
28.2091
28.2092
28.2101
28.2103
28.2112
28.2114
28.2122
28.2125
28.2133
28.2136
28.2144
28.2147
28.2156
28.2158
28.2167
28.2168
28.2177
28.2178
28.2187
28.2186
28.2194
28.2196
28.2034
27.8261
28.8517
28.8702
28.8799
28.8856
28.8996
28.9068
28.9247
28.941
28.9702
28.9954
29.0297
29.058
29.0957
29.129
29.1717
29.2089
29.2525
29.2883
29.3282
29.3596
29.3939
29.4193
29.4462
29.4637
29.4821
29.4916
29.5025
29.506
29.5119
29.512
29.5151
29.5139
29.5159
29.5141
29.5157
29.5139
29.5153
29.5136
29.5149
29.5133
29.5146
29.5131
29.5143
29.513
29.5142
29.513
29.5141
29.513
29.5141
29.5131
29.5142
29.5133
29.5144
29.5136
29.5146
29.5139
29.5149
29.5143
29.5153
29.5147
29.5157
29.5152
29.5162
29.5158
29.5168
29.5164
29.5174
29.5171
29.5181
29.5179
29.5189
29.5187
29.5197
29.5195
29.5205
29.5204
29.5215
29.5214
29.5224
29.5224
29.5235
29.5234
29.5246
29.5244
29.5258
29.5255
29.5271
29.5271
29.5302
29.7662
30.19
30.1942
30.1942
30.1973
30.2041
30.2085
30.2235
30.2384
30.2661
30.2893
30.3224
30.3492
30.3869
30.4197
30.463
30.4995
30.5434
30.5781
30.6182
30.6483
30.6826
30.7062
30.7326
30.748
30.7654
30.7727
30.7826
30.7841
30.7892
30.7876
30.7902
30.7873
30.7889
30.7857
30.7869
30.7837
30.7848
30.7817
30.7827
30.7799
30.7808
30.7781
30.7789
30.7764
30.7772
30.7749
30.7756
30.7735
30.7742
30.7721
30.7728
30.7709
30.7716
30.7698
30.7705
30.7688
30.7695
30.7679
30.7686
30.7672
30.7678
30.7665
30.7672
30.766
30.7667
30.7656
30.7663
30.7653
30.766
30.7651
30.7658
30.7651
30.7658
30.7651
30.7659
30.7654
30.7662
30.7657
30.7666
30.7662
30.7672
30.7669
30.768
30.7679
30.7693
30.7693
30.7714
30.7682
30.7693
3.61333
3.80673
3.82608
3.83514
3.85049
3.86394
3.87669
3.89167
3.90197
3.91739
3.92508
3.93973
3.94506
3.95877
3.96254
3.97527
3.97762
3.98899
3.98993
3.99983
3.9996
4.00808
4.00677
4.01378
4.01138
4.01695
4.01365
4.01805
4.01422
4.01782
4.0138
4.01688
4.0129
4.01564
4.0118
4.01431
4.01065
4.01296
4.0095
4.01164
4.00838
4.01038
4.00731
4.00917
4.00629
4.00804
4.00535
4.007
4.00448
4.00605
4.0037
4.00519