/*--------------------------------*- C++ -*----------------------------------*\
  =========                 |
  \\      /  F ield         | OpenFOAM: The Open Source CFD Toolbox
   \\    /   O peration     | Website:  https://openfoam.org
    \\  /    A nd           | Version:  7
     \\/     M anipulation  |
\*---------------------------------------------------------------------------*/
FoamFile
{
    version     2.0;
    format      ascii;
    class       volVectorField;
    location    "2.46";
    object      U_0;
}
// * * * * * * * * * * * * * * * * * * * * * * * * * * * * * * * * * * * * * //

dimensions      [0 1 -1 0 0 0 0];

internalField   nonuniform List<vector> 
5760
(
(2.25624 0.12302 0)
(1.30988 0.017878 0)
(1.06818 -0.00285623 0)
(0.938964 -0.00076703 0)
(0.867506 -0.00046615 0)
(0.827935 -0.000529013 0)
(0.807576 -0.000264121 0)
(0.792804 3.39709e-05 0)
(0.777556 0.000107323 0)
(0.762763 5.60657e-05 0)
(0.750154 1.63605e-05 0)
(0.739763 1.45908e-05 0)
(0.730855 2.3375e-05 0)
(0.722932 2.60336e-05 0)
(0.715819 2.36638e-05 0)
(0.709445 2.06533e-05 0)
(0.703719 1.84273e-05 0)
(0.698543 1.661e-05 0)
(0.693835 1.47094e-05 0)
(0.689536 1.27403e-05 0)
(0.685599 1.08864e-05 0)
(0.681983 9.25944e-06 0)
(0.678652 7.90659e-06 0)
(0.675575 6.84738e-06 0)
(0.672723 6.06309e-06 0)
(0.670076 5.4858e-06 0)
(0.667616 5.02761e-06 0)
(0.665326 4.60687e-06 0)
(0.663195 4.16222e-06 0)
(0.66121 3.65983e-06 0)
(0.659359 3.09909e-06 0)
(0.657633 2.49742e-06 0)
(0.65602 1.87476e-06 0)
(0.654512 1.26407e-06 0)
(0.653101 6.83866e-07 0)
(0.651778 1.4312e-07 0)
(0.650537 -3.19808e-07 0)
(0.649372 -6.90955e-07 0)
(0.648277 -9.69646e-07 0)
(0.647247 -1.151e-06 0)
(0.646278 -1.24025e-06 0)
(0.645368 -1.25287e-06 0)
(0.644512 -1.22135e-06 0)
(0.643709 -1.17238e-06 0)
(0.642957 -1.12126e-06 0)
(0.642254 -1.09032e-06 0)
(0.641597 -1.06673e-06 0)
(0.640987 -1.07438e-06 0)
(0.640418 -1.05047e-06 0)
(0.639889 -1.03559e-06 0)
(0.639398 -1.02193e-06 0)
(0.638944 -9.60709e-07 0)
(0.638522 -8.3887e-07 0)
(0.638133 -6.21308e-07 0)
(0.637772 -2.76607e-07 0)
(0.637438 2.021e-07 0)
(0.63713 8.13543e-07 0)
(0.636846 1.57541e-06 0)
(0.636585 2.51039e-06 0)
(0.636347 3.60015e-06 0)
(0.63613 4.88432e-06 0)
(0.635934 6.32245e-06 0)
(0.635758 7.91461e-06 0)
(0.635602 9.67223e-06 0)
(0.635466 1.16009e-05 0)
(0.635349 1.36921e-05 0)
(0.635249 1.59383e-05 0)
(0.635167 1.83443e-05 0)
(0.635101 2.09189e-05 0)
(0.63505 2.36579e-05 0)
(0.635013 2.65631e-05 0)
(0.634988 2.9635e-05 0)
(0.634974 3.28718e-05 0)
(0.634971 3.62707e-05 0)
(0.634976 3.9825e-05 0)
(0.63499 4.35291e-05 0)
(0.635011 4.7376e-05 0)
(0.635039 5.13452e-05 0)
(0.635073 5.5426e-05 0)
(0.635114 5.96041e-05 0)
(0.635161 6.38593e-05 0)
(0.635214 6.81758e-05 0)
(0.635274 7.25349e-05 0)
(0.635341 7.69251e-05 0)
(0.635414 8.13278e-05 0)
(0.635494 8.573e-05 0)
(0.635581 9.01229e-05 0)
(0.635675 9.44978e-05 0)
(0.635774 9.88486e-05 0)
(0.63588 0.000103169 0)
(0.63599 0.000107456 0)
(0.636106 0.000111708 0)
(0.636225 0.000115923 0)
(0.636348 0.000120101 0)
(0.636473 0.000124239 0)
(0.636601 0.000128335 0)
(0.636731 0.000132388 0)
(0.636862 0.000136395 0)
(0.636996 0.000140351 0)
(0.637131 0.000144249 0)
(0.637268 0.000148084 0)
(0.637407 0.000151849 0)
(0.637549 0.00015554 0)
(0.637695 0.000159148 0)
(0.637843 0.000162667 0)
(0.637996 0.000166096 0)
(0.638152 0.000169432 0)
(0.638312 0.000172669 0)
(0.638477 0.000175812 0)
(0.638645 0.000178864 0)
(0.638816 0.000181827 0)
(0.638991 0.000184697 0)
(0.639168 0.000187488 0)
(0.639347 0.00019021 0)
(0.639528 0.000192852 0)
(0.63971 0.000195431 0)
(0.639893 0.000197954 0)
(0.640076 0.000200415 0)
(0.64026 0.000202817 0)
(0.640445 0.000205167 0)
(0.64063 0.000207462 0)
(0.640817 0.000209697 0)
(0.641004 0.000211873 0)
(0.641193 0.000213987 0)
(0.641385 0.000216037 0)
(0.641579 0.00021802 0)
(0.641775 0.000219934 0)
(0.641974 0.000221779 0)
(0.642176 0.000223556 0)
(0.642381 0.000225266 0)
(0.642589 0.000226913 0)
(0.642799 0.000228498 0)
(0.643011 0.000230028 0)
(0.643224 0.000231507 0)
(0.643439 0.000232941 0)
(0.643655 0.000234336 0)
(0.64387 0.000235695 0)
(0.644086 0.000237024 0)
(0.644302 0.000238326 0)
(0.644518 0.000239603 0)
(0.644734 0.000240856 0)
(0.644949 0.000242085 0)
(0.645165 0.000243289 0)
(0.645382 0.000244464 0)
(0.645599 0.000245608 0)
(0.645818 0.00024672 0)
(0.646038 0.000247797 0)
(0.64626 0.000248836 0)
(0.646484 0.000249836 0)
(0.646711 0.000250797 0)
(0.646939 0.000251717 0)
(0.647169 0.000252597 0)
(0.647401 0.000253441 0)
(0.647635 0.000254252 0)
(0.647869 0.000255034 0)
(0.648105 0.000255792 0)
(0.64834 0.000256528 0)
(0.648576 0.000257247 0)
(0.648812 0.000257955 0)
(0.649047 0.000258653 0)
(0.649282 0.000259343 0)
(0.649517 0.000260025 0)
(0.649751 0.000260695 0)
(0.649985 0.000261358 0)
(0.65022 0.000262014 0)
(0.650455 0.000262659 0)
(0.65069 0.000263288 0)
(0.650927 0.000263899 0)
(0.651165 0.000264484 0)
(0.651404 0.00026505 0)
(0.651645 0.000265596 0)
(0.651888 0.000266113 0)
(0.652133 0.000266604 0)
(0.652379 0.000267071 0)
(0.652626 0.000267514 0)
(0.652874 0.000267946 0)
(0.653123 0.000268367 0)
(0.653372 0.00026876 0)
(0.653622 0.000269154 0)
(0.653871 0.000269547 0)
(0.65412 0.000269927 0)
(0.654368 0.000270309 0)
(0.654616 0.000270689 0)
(0.654864 0.000271073 0)
(0.655112 0.000271456 0)
(0.655359 0.000271846 0)
(0.655606 0.000272237 0)
(0.655854 0.000272626 0)
(0.656102 0.000273012 0)
(0.656351 0.000273397 0)
(0.6566 0.00027377 0)
(0.656851 0.000274122 0)
(0.657104 0.00027446 0)
(0.657357 0.000274785 0)
(0.657613 0.00027509 0)
(0.657869 0.000275372 0)
(0.658127 0.000275645 0)
(0.658385 0.000275915 0)
(0.658644 0.000276178 0)
(0.658903 0.000276433 0)
(0.659162 0.000276694 0)
(0.65942 0.000276968 0)
(0.659678 0.000277243 0)
(0.659935 0.000277514 0)
(0.660192 0.000277792 0)
(0.660448 0.000278079 0)
(0.660704 0.000278366 0)
(0.66096 0.000278652 0)
(0.661216 0.000278941 0)
(0.661473 0.00027923 0)
(0.66173 0.000279522 0)
(0.661989 0.000279818 0)
(0.662248 0.000280117 0)
(0.662508 0.000280417 0)
(0.662768 0.000280731 0)
(0.66303 0.000281039 0)
(0.663292 0.000281359 0)
(0.663554 0.00028167 0)
(0.663817 0.000282002 0)
(0.66408 0.000282302 0)
(0.664344 0.000282645 0)
(0.664608 0.000282919 0)
(0.664871 0.000283291 0)
(0.665135 0.000283505 0)
(0.665398 0.000283931 0)
(0.665665 0.000284032 0)
(0.665927 0.0002846 0)
(0.666197 0.000284474 0)
(0.666455 0.000285329 0)
(0.666732 0.000284738 0)
(0.666984 0.000286266 0)
(0.667273 0.00028465 0)
(0.667508 0.000287688 0)
(0.667825 0.000283825 0)
(0.668021 0.000290151 0)
(0.668391 0.000281814 0)
(0.66851 0.000294592 0)
(0.668976 0.000277063 0)
(0.668968 0.000299282 0)
(0.669495 0.000277452 0)
(3.80448 0.346832 0)
(3.11345 0.138838 0)
(2.74324 0.0360338 0)
(2.4692 0.0208191 0)
(2.28906 0.0130139 0)
(2.17857 0.00703281 0)
(2.11515 0.00451639 0)
(2.0717 0.0042172 0)
(2.03271 0.00416595 0)
(1.99621 0.00372003 0)
(1.96433 0.00315138 0)
(1.93739 0.0027177 0)
(1.91426 0.00242617 0)
(1.89383 0.00220033 0)
(1.87555 0.00200018 0)
(1.85915 0.00182166 0)
(1.84438 0.00166732 0)
(1.83102 0.00153459 0)
(1.81887 0.00141841 0)
(1.80776 0.00131521 0)
(1.79758 0.00122317 0)
(1.78822 0.00114117 0)
(1.77959 0.00106813 0)
(1.7716 0.00100291 0)
(1.76419 0.000944353 0)
(1.7573 0.000891337 0)
(1.75088 0.000842877 0)
(1.7449 0.000798214 0)
(1.73932 0.000756817 0)
(1.73411 0.000718342 0)
(1.72925 0.00068257 0)
(1.7247 0.000649317 0)
(1.72044 0.000618398 0)
(1.71645 0.000589654 0)
(1.71271 0.000562899 0)
(1.70919 0.000537985 0)
(1.70588 0.000514842 0)
(1.70277 0.000493357 0)
(1.69984 0.000473398 0)
(1.69707 0.000454832 0)
(1.69446 0.000437502 0)
(1.692 0.000421229 0)
(1.68967 0.00040582 0)
(1.68748 0.000391127 0)
(1.68542 0.000377059 0)
(1.68348 0.000363547 0)
(1.68165 0.000350551 0)
(1.67994 0.000338073 0)
(1.67834 0.000326414 0)
(1.67684 0.000315282 0)
(1.67543 0.000304553 0)
(1.67411 0.000294381 0)
(1.67289 0.00028487 0)
(1.67174 0.000276096 0)
(1.67067 0.000268063 0)
(1.66966 0.000260727 0)
(1.66873 0.000254024 0)
(1.66785 0.000247972 0)
(1.66704 0.0002426 0)
(1.66628 0.000237848 0)
(1.66557 0.000233825 0)
(1.66492 0.000230347 0)
(1.66431 0.000227385 0)
(1.66375 0.000225002 0)
(1.66324 0.000223237 0)
(1.66277 0.00022206 0)
(1.66234 0.000221461 0)
(1.66196 0.000221478 0)
(1.66161 0.000222144 0)
(1.6613 0.000223468 0)
(1.66102 0.000225447 0)
(1.66077 0.000228091 0)
(1.66055 0.000231395 0)
(1.66036 0.000235335 0)
(1.66018 0.000239896 0)
(1.66003 0.000245044 0)
(1.6599 0.000250728 0)
(1.65978 0.000256891 0)
(1.65968 0.000263469 0)
(1.6596 0.000270417 0)
(1.65952 0.000277666 0)
(1.65946 0.000285161 0)
(1.65942 0.000292854 0)
(1.65939 0.000300706 0)
(1.65937 0.000308677 0)
(1.65937 0.000316741 0)
(1.65938 0.000324883 0)
(1.65941 0.000333102 0)
(1.65945 0.000341395 0)
(1.6595 0.000349753 0)
(1.65957 0.000358181 0)
(1.65965 0.000366677 0)
(1.65974 0.000375232 0)
(1.65984 0.000383844 0)
(1.65995 0.000392498 0)
(1.66007 0.00040117 0)
(1.66019 0.000409842 0)
(1.66032 0.000418487 0)
(1.66046 0.000427065 0)
(1.6606 0.00043554 0)
(1.66074 0.000443883 0)
(1.6609 0.000452062 0)
(1.66105 0.000460059 0)
(1.66122 0.00046785 0)
(1.6614 0.000475421 0)
(1.66158 0.000482772 0)
(1.66177 0.000489911 0)
(1.66197 0.000496846 0)
(1.66219 0.00050359 0)
(1.66241 0.000510166 0)
(1.66264 0.000516592 0)
(1.66289 0.000522884 0)
(1.66314 0.000529061 0)
(1.6634 0.00053514 0)
(1.66366 0.000541123 0)
(1.66393 0.000547017 0)
(1.66421 0.000552821 0)
(1.66449 0.00055852 0)
(1.66478 0.000564102 0)
(1.66507 0.000569556 0)
(1.66536 0.000574863 0)
(1.66566 0.000580003 0)
(1.66596 0.000584964 0)
(1.66626 0.000589734 0)
(1.66658 0.000594309 0)
(1.66689 0.000598689 0)
(1.66722 0.000602879 0)
(1.66755 0.00060689 0)
(1.66789 0.000610738 0)
(1.66824 0.000614441 0)
(1.66859 0.000618019 0)
(1.66896 0.000621494 0)
(1.66933 0.000624884 0)
(1.66971 0.000628208 0)
(1.67009 0.000631479 0)
(1.67048 0.000634707 0)
(1.67087 0.000637896 0)
(1.67126 0.000641042 0)
(1.67166 0.000644143 0)
(1.67206 0.000647188 0)
(1.67246 0.000650166 0)
(1.67287 0.000653062 0)
(1.67328 0.00065586 0)
(1.67368 0.000658547 0)
(1.6741 0.000661115 0)
(1.67451 0.000663557 0)
(1.67493 0.000665873 0)
(1.67536 0.000668067 0)
(1.67579 0.000670146 0)
(1.67623 0.00067212 0)
(1.67667 0.000674003 0)
(1.67712 0.000675807 0)
(1.67758 0.00067755 0)
(1.67804 0.000679252 0)
(1.6785 0.000680927 0)
(1.67898 0.000682587 0)
(1.67945 0.00068424 0)
(1.67993 0.000685891 0)
(1.68041 0.000687541 0)
(1.68089 0.000689184 0)
(1.68138 0.000690814 0)
(1.68186 0.000692413 0)
(1.68235 0.000693968 0)
(1.68284 0.000695475 0)
(1.68333 0.000696927 0)
(1.68382 0.000698307 0)
(1.68432 0.000699607 0)
(1.68481 0.000700824 0)
(1.68531 0.000701944 0)
(1.68582 0.000702988 0)
(1.68633 0.000703966 0)
(1.68685 0.000704871 0)
(1.68737 0.000705721 0)
(1.6879 0.000706534 0)
(1.68843 0.000707321 0)
(1.68897 0.000708116 0)
(1.68951 0.000708921 0)
(1.69005 0.000709708 0)
(1.6906 0.000710525 0)
(1.69115 0.000711368 0)
(1.6917 0.000712203 0)
(1.69226 0.000713053 0)
(1.69281 0.000713899 0)
(1.69337 0.000714746 0)
(1.69393 0.000715577 0)
(1.69449 0.0007164 0)
(1.69505 0.000717197 0)
(1.69561 0.000717956 0)
(1.69617 0.00071867 0)
(1.69674 0.000719342 0)
(1.69731 0.000719949 0)
(1.69788 0.000720482 0)
(1.69846 0.000720961 0)
(1.69904 0.000721402 0)
(1.69963 0.000721803 0)
(1.70022 0.000722174 0)
(1.70081 0.000722553 0)
(1.70141 0.000722969 0)
(1.70202 0.000723412 0)
(1.70263 0.000723878 0)
(1.70324 0.000724396 0)
(1.70385 0.000724969 0)
(1.70446 0.000725558 0)
(1.70507 0.000726139 0)
(1.70569 0.000726728 0)
(1.7063 0.000727314 0)
(1.70692 0.000727876 0)
(1.70754 0.000728402 0)
(1.70816 0.000728907 0)
(1.70878 0.000729388 0)
(1.7094 0.000729858 0)
(1.71003 0.000730326 0)
(1.71066 0.000730799 0)
(1.71129 0.000731276 0)
(1.71193 0.000731792 0)
(1.71257 0.000732311 0)
(1.71321 0.000732865 0)
(1.71386 0.000733419 0)
(1.7145 0.000734025 0)
(1.71516 0.000734583 0)
(1.71581 0.000735226 0)
(1.71647 0.000735744 0)
(1.71712 0.000736448 0)
(1.71779 0.000736859 0)
(1.71845 0.00073766 0)
(1.71912 0.000737854 0)
(1.71978 0.000738911 0)
(1.72046 0.000738677 0)
(1.72112 0.000740264 0)
(1.72182 0.000739162 0)
(1.72246 0.000742025 0)
(1.7232 0.000738994 0)
(1.7238 0.000744795 0)
(1.72461 0.000737453 0)
(1.72511 0.000750013 0)
(1.72606 0.00073348 0)
(1.72637 0.000761464 0)
(1.72756 0.000723205 0)
(1.72753 0.000774147 0)
(1.729 0.000721024 0)
(4.41368 0.422855 0)
(4.22817 0.212895 0)
(3.97083 0.075295 0)
(3.67245 0.0500365 0)
(3.43508 0.0343033 0)
(3.27642 0.0201952 0)
(3.17937 0.0130172 0)
(3.1127 0.0110009 0)
(3.05625 0.0103223 0)
(3.00488 0.00927823 0)
(2.95968 0.0080232 0)
(2.92095 0.00697779 0)
(2.8875 0.00621401 0)
(2.858 0.00562042 0)
(2.83164 0.00511234 0)
(2.80799 0.00466632 0)
(2.78667 0.0042799 0)
(2.76736 0.00394595 0)
(2.7498 0.00365361 0)
(2.73375 0.00339436 0)
(2.71905 0.00316314 0)
(2.70553 0.00295667 0)
(2.69307 0.00277213 0)
(2.68154 0.00260667 0)
(2.67086 0.0024575 0)
(2.66093 0.00232199 0)
(2.65168 0.0021979 0)
(2.64307 0.00208351 0)
(2.63504 0.00197763 0)
(2.62755 0.00187944 0)
(2.62055 0.00178835 0)
(2.61402 0.00170381 0)
(2.6079 0.00162529 0)
(2.60218 0.00155224 0)
(2.59681 0.00148411 0)
(2.59178 0.00142057 0)
(2.58706 0.00136129 0)
(2.58262 0.00130592 0)
(2.57844 0.0012542 0)
(2.57451 0.00120583 0)
(2.57081 0.00116041 0)
(2.56732 0.00111757 0)
(2.56403 0.0010769 0)
(2.56094 0.00103811 0)
(2.55803 0.001001 0)
(2.5553 0.000965437 0)
(2.55274 0.000931279 0)
(2.55034 0.000898515 0)
(2.54809 0.000867726 0)
(2.546 0.000838322 0)
(2.54404 0.000809946 0)
(2.54221 0.000782828 0)
(2.54052 0.000757162 0)
(2.53894 0.000733068 0)
(2.53747 0.000710487 0)
(2.5361 0.000689289 0)
(2.53483 0.000669355 0)
(2.53366 0.000650698 0)
(2.53257 0.000633318 0)
(2.53156 0.000617128 0)
(2.53063 0.000602299 0)
(2.52977 0.000588495 0)
(2.52898 0.000575642 0)
(2.52826 0.000563856 0)
(2.5276 0.000553184 0)
(2.52701 0.000543568 0)
(2.52648 0.00053499 0)
(2.526 0.000527517 0)
(2.52557 0.000521199 0)
(2.5252 0.000516056 0)
(2.52487 0.000512084 0)
(2.52458 0.000509294 0)
(2.52433 0.00050769 0)
(2.52412 0.000507239 0)
(2.52394 0.00050792 0)
(2.52379 0.000509681 0)
(2.52367 0.00051244 0)
(2.52356 0.000516096 0)
(2.52348 0.000520558 0)
(2.52342 0.000525743 0)
(2.52337 0.000531541 0)
(2.52335 0.00053786 0)
(2.52334 0.000544623 0)
(2.52334 0.000551761 0)
(2.52336 0.000559207 0)
(2.5234 0.00056692 0)
(2.52346 0.000574883 0)
(2.52354 0.000583094 0)
(2.52363 0.000591557 0)
(2.52374 0.000600263 0)
(2.52386 0.00060922 0)
(2.52401 0.000618431 0)
(2.52416 0.000627886 0)
(2.52433 0.000637578 0)
(2.52451 0.000647487 0)
(2.5247 0.000657572 0)
(2.5249 0.000667798 0)
(2.52511 0.000678116 0)
(2.52533 0.00068845 0)
(2.52555 0.000698736 0)
(2.52578 0.000708916 0)
(2.52602 0.000718934 0)
(2.52627 0.00072875 0)
(2.52652 0.000738324 0)
(2.52679 0.000747626 0)
(2.52706 0.000756656 0)
(2.52735 0.000765426 0)
(2.52765 0.000773952 0)
(2.52796 0.000782257 0)
(2.52829 0.000790378 0)
(2.52863 0.000798352 0)
(2.52898 0.000806204 0)
(2.52935 0.000813966 0)
(2.52972 0.000821669 0)
(2.53011 0.00082931 0)
(2.53051 0.000836898 0)
(2.53091 0.000844425 0)
(2.53132 0.000851862 0)
(2.53174 0.000859182 0)
(2.53216 0.000866358 0)
(2.53259 0.00087335 0)
(2.53303 0.000880121 0)
(2.53347 0.000886643 0)
(2.53392 0.000892893 0)
(2.53437 0.00089886 0)
(2.53483 0.000904542 0)
(2.53531 0.000909949 0)
(2.53579 0.000915101 0)
(2.53628 0.000920025 0)
(2.53679 0.000924753 0)
(2.5373 0.000929323 0)
(2.53783 0.00093377 0)
(2.53836 0.00093813 0)
(2.53891 0.000942433 0)
(2.53946 0.000946702 0)
(2.54003 0.00095095 0)
(2.5406 0.000955178 0)
(2.54117 0.000959382 0)
(2.54175 0.000963546 0)
(2.54234 0.000967652 0)
(2.54293 0.000971674 0)
(2.54352 0.00097558 0)
(2.54412 0.00097934 0)
(2.54472 0.000982929 0)
(2.54532 0.000986329 0)
(2.54593 0.000989527 0)
(2.54655 0.000992523 0)
(2.54717 0.000995326 0)
(2.5478 0.000997949 0)
(2.54844 0.00100041 0)
(2.54909 0.00100275 0)
(2.54974 0.00100497 0)
(2.55041 0.00100711 0)
(2.55108 0.00100922 0)
(2.55176 0.00101131 0)
(2.55245 0.0010134 0)
(2.55314 0.00101552 0)
(2.55385 0.00101765 0)
(2.55455 0.00101981 0)
(2.55526 0.00102198 0)
(2.55597 0.00102414 0)
(2.55669 0.00102626 0)
(2.55741 0.00102833 0)
(2.55813 0.00103031 0)
(2.55885 0.0010322 0)
(2.55958 0.00103396 0)
(2.56031 0.00103559 0)
(2.56105 0.00103708 0)
(2.56179 0.00103841 0)
(2.56253 0.00103961 0)
(2.56329 0.00104069 0)
(2.56405 0.00104166 0)
(2.56481 0.00104255 0)
(2.56559 0.0010434 0)
(2.56637 0.00104422 0)
(2.56716 0.00104506 0)
(2.56796 0.00104594 0)
(2.56877 0.00104683 0)
(2.56957 0.00104777 0)
(2.57039 0.00104878 0)
(2.57121 0.00104979 0)
(2.57203 0.00105084 0)
(2.57285 0.00105189 0)
(2.57368 0.00105294 0)
(2.5745 0.00105397 0)
(2.57533 0.00105498 0)
(2.57617 0.00105594 0)
(2.577 0.00105684 0)
(2.57784 0.00105765 0)
(2.57868 0.00105837 0)
(2.57953 0.00105899 0)
(2.58038 0.00105949 0)
(2.58124 0.00105988 0)
(2.5821 0.00106021 0)
(2.58297 0.00106048 0)
(2.58385 0.00106071 0)
(2.58474 0.00106097 0)
(2.58563 0.00106129 0)
(2.58653 0.00106168 0)
(2.58743 0.00106215 0)
(2.58834 0.0010627 0)
(2.58925 0.00106336 0)
(2.59016 0.00106405 0)
(2.59108 0.00106475 0)
(2.59199 0.00106546 0)
(2.59292 0.00106616 0)
(2.59384 0.00106681 0)
(2.59476 0.0010674 0)
(2.59569 0.00106793 0)
(2.59662 0.00106842 0)
(2.59756 0.00106887 0)
(2.5985 0.00106931 0)
(2.59944 0.00106975 0)
(2.60039 0.00107019 0)
(2.60134 0.00107069 0)
(2.60229 0.00107121 0)
(2.60326 0.00107178 0)
(2.60422 0.00107236 0)
(2.60519 0.00107302 0)
(2.60617 0.00107364 0)
(2.60714 0.00107438 0)
(2.60813 0.00107497 0)
(2.60911 0.00107578 0)
(2.61011 0.00107627 0)
(2.6111 0.00107721 0)
(2.61211 0.00107744 0)
(2.6131 0.00107867 0)
(2.61412 0.00107841 0)
(2.61511 0.00108028 0)
(2.61616 0.001079 0)
(2.61713 0.00108238 0)
(2.61823 0.00107883 0)
(2.61914 0.0010858 0)
(2.62034 0.00107704 0)
(2.62113 0.00109265 0)
(2.62252 0.00107218 0)
(2.62304 0.00110951 0)
(2.62478 0.00105896 0)
(2.62481 0.00113285 0)
(2.62695 0.00104476 0)
(4.59134 0.395173 0)
(4.81384 0.238547 0)
(4.79852 0.101784 0)
(4.60042 0.0789355 0)
(4.3782 0.0595508 0)
(4.20805 0.0375881 0)
(4.09439 0.0246717 0)
(4.01382 0.0199861 0)
(3.94694 0.0181515 0)
(3.8872 0.0162757 0)
(3.83448 0.0142095 0)
(3.78878 0.0124388 0)
(3.74897 0.0110879 0)
(3.71375 0.0100238 0)
(3.68224 0.00912218 0)
(3.65391 0.00833695 0)
(3.62833 0.00765656 0)
(3.60513 0.00706672 0)
(3.584 0.00654961 0)
(3.56468 0.0060909 0)
(3.54698 0.0056814 0)
(3.53071 0.00531504 0)
(3.51572 0.00498674 0)
(3.50187 0.00469163 0)
(3.48903 0.00442491 0)
(3.47712 0.00418215 0)
(3.46604 0.0039596 0)
(3.45573 0.00375441 0)
(3.44613 0.00356456 0)
(3.43718 0.00338866 0)
(3.42884 0.00322567 0)
(3.42106 0.00307454 0)
(3.41379 0.00293425 0)
(3.40699 0.00280369 0)
(3.40065 0.00268181 0)
(3.39471 0.00256802 0)
(3.38915 0.00246162 0)
(3.38394 0.00236185 0)
(3.37906 0.00226836 0)
(3.37449 0.00218064 0)
(3.3702 0.00209804 0)
(3.36618 0.00201994 0)
(3.3624 0.00194571 0)
(3.35887 0.0018749 0)
(3.35556 0.00180719 0)
(3.35247 0.00174239 0)
(3.34958 0.00168027 0)
(3.3469 0.00162078 0)
(3.3444 0.00156472 0)
(3.34209 0.00151118 0)
(3.33994 0.00145958 0)
(3.33796 0.00141021 0)
(3.33614 0.00136323 0)
(3.33446 0.00131877 0)
(3.33292 0.00127673 0)
(3.33151 0.00123688 0)
(3.33023 0.00119901 0)
(3.32905 0.00116312 0)
(3.32799 0.00112918 0)
(3.32703 0.00109708 0)
(3.32616 0.00106706 0)
(3.32539 0.00103865 0)
(3.3247 0.00101171 0)
(3.32409 0.000986433 0)
(3.32356 0.000962864 0)
(3.3231 0.000940915 0)
(3.32272 0.000920549 0)
(3.3224 0.00090186 0)
(3.32214 0.000884901 0)
(3.32194 0.000869695 0)
(3.3218 0.000856218 0)
(3.3217 0.000844471 0)
(3.32165 0.00083446 0)
(3.32165 0.000826123 0)
(3.32168 0.000819445 0)
(3.32175 0.000814351 0)
(3.32184 0.000810714 0)
(3.32196 0.000808416 0)
(3.32211 0.000807333 0)
(3.32228 0.000807353 0)
(3.32246 0.00080834 0)
(3.32266 0.000810172 0)
(3.32288 0.000812754 0)
(3.32312 0.000815993 0)
(3.32337 0.000819803 0)
(3.32364 0.000824132 0)
(3.32392 0.000828961 0)
(3.32422 0.000834291 0)
(3.32453 0.000840127 0)
(3.32487 0.00084646 0)
(3.32521 0.000853295 0)
(3.32558 0.000860635 0)
(3.32595 0.000868462 0)
(3.32634 0.000876757 0)
(3.32675 0.000885491 0)
(3.32716 0.000894604 0)
(3.32758 0.000904044 0)
(3.32801 0.000913735 0)
(3.32845 0.000923571 0)
(3.3289 0.000933462 0)
(3.32935 0.000943325 0)
(3.32981 0.000953085 0)
(3.33027 0.000962687 0)
(3.33075 0.000972076 0)
(3.33123 0.000981217 0)
(3.33172 0.00099011 0)
(3.33222 0.000998773 0)
(3.33274 0.00100723 0)
(3.33327 0.00101552 0)
(3.33381 0.00102367 0)
(3.33436 0.00103175 0)
(3.33493 0.00103978 0)
(3.33551 0.00104781 0)
(3.3361 0.00105585 0)
(3.3367 0.00106391 0)
(3.33732 0.00107198 0)
(3.33794 0.00108005 0)
(3.33858 0.00108806 0)
(3.33922 0.00109598 0)
(3.33987 0.00110376 0)
(3.34052 0.00111134 0)
(3.34119 0.00111867 0)
(3.34186 0.00112571 0)
(3.34253 0.00113244 0)
(3.34321 0.00113883 0)
(3.34391 0.0011449 0)
(3.34461 0.00115065 0)
(3.34532 0.00115612 0)
(3.34604 0.00116135 0)
(3.34677 0.00116637 0)
(3.34751 0.00117125 0)
(3.34827 0.00117603 0)
(3.34904 0.00118075 0)
(3.34982 0.00118545 0)
(3.35061 0.00119016 0)
(3.3514 0.00119488 0)
(3.35221 0.00119961 0)
(3.35303 0.00120433 0)
(3.35385 0.00120902 0)
(3.35468 0.00121364 0)
(3.35551 0.00121816 0)
(3.35635 0.00122253 0)
(3.3572 0.00122671 0)
(3.35804 0.00123067 0)
(3.3589 0.00123438 0)
(3.35975 0.00123783 0)
(3.36062 0.00124102 0)
(3.36149 0.00124398 0)
(3.36237 0.00124672 0)
(3.36326 0.00124927 0)
(3.36415 0.00125168 0)
(3.36506 0.00125398 0)
(3.36597 0.00125621 0)
(3.3669 0.00125842 0)
(3.36783 0.00126064 0)
(3.36878 0.00126289 0)
(3.36973 0.0012652 0)
(3.37069 0.00126754 0)
(3.37165 0.00126993 0)
(3.37262 0.00127233 0)
(3.3736 0.00127472 0)
(3.37458 0.00127706 0)
(3.37556 0.0012793 0)
(3.37655 0.00128143 0)
(3.37754 0.00128343 0)
(3.37854 0.00128525 0)
(3.37954 0.00128687 0)
(3.38054 0.00128831 0)
(3.38155 0.00128955 0)
(3.38256 0.00129062 0)
(3.38359 0.00129155 0)
(3.38462 0.00129234 0)
(3.38565 0.00129305 0)
(3.3867 0.00129372 0)
(3.38775 0.00129439 0)
(3.38882 0.00129511 0)
(3.38989 0.00129588 0)
(3.39097 0.00129671 0)
(3.39205 0.00129762 0)
(3.39314 0.0012986 0)
(3.39424 0.00129962 0)
(3.39534 0.00130065 0)
(3.39645 0.0013017 0)
(3.39756 0.00130273 0)
(3.39867 0.00130372 0)
(3.39979 0.00130466 0)
(3.40091 0.00130553 0)
(3.40203 0.00130631 0)
(3.40316 0.00130696 0)
(3.40429 0.00130749 0)
(3.40542 0.00130788 0)
(3.40656 0.00130812 0)
(3.40771 0.00130823 0)
(3.40886 0.00130825 0)
(3.41002 0.00130822 0)
(3.41119 0.00130817 0)
(3.41236 0.00130816 0)
(3.41355 0.00130825 0)
(3.41474 0.00130846 0)
(3.41593 0.00130879 0)
(3.41713 0.00130925 0)
(3.41834 0.00130983 0)
(3.41955 0.00131048 0)
(3.42077 0.00131113 0)
(3.42199 0.00131178 0)
(3.42321 0.00131241 0)
(3.42444 0.00131296 0)
(3.42567 0.0013134 0)
(3.4269 0.00131374 0)
(3.42813 0.00131402 0)
(3.42937 0.00131425 0)
(3.43062 0.00131444 0)
(3.43187 0.00131464 0)
(3.43312 0.00131484 0)
(3.43438 0.00131511 0)
(3.43564 0.00131544 0)
(3.43691 0.00131583 0)
(3.43819 0.00131627 0)
(3.43946 0.00131679 0)
(3.44075 0.00131733 0)
(3.44204 0.00131797 0)
(3.44333 0.0013185 0)
(3.44463 0.00131924 0)
(3.44594 0.00131971 0)
(3.44724 0.00132058 0)
(3.44856 0.00132082 0)
(3.44987 0.00132193 0)
(3.45121 0.00132175 0)
(3.45252 0.00132345 0)
(3.45389 0.00132235 0)
(3.45517 0.00132545 0)
(3.4566 0.00132229 0)
(3.45782 0.00132882 0)
(3.45936 0.00132075 0)
(3.46043 0.00133612 0)
(3.4622 0.00131625 0)
(3.46296 0.00135657 0)
(3.46514 0.00130208 0)
(3.46533 0.00138991 0)
(3.46802 0.00127666 0)
(4.58434 0.329861 0)
(5.00517 0.22583 0)
(5.2145 0.10386 0)
(5.19154 0.0942069 0)
(5.06489 0.0802397 0)
(4.93666 0.0548074 0)
(4.83787 0.037294 0)
(4.76204 0.0299126 0)
(4.69705 0.0266512 0)
(4.63832 0.0237755 0)
(4.58589 0.0208447 0)
(4.53978 0.018336 0)
(4.49909 0.0163837 0)
(4.46275 0.0148286 0)
(4.43002 0.0135133 0)
(4.40042 0.0123706 0)
(4.37357 0.011379 0)
(4.34912 0.0105174 0)
(4.32677 0.00976035 0)
(4.3063 0.00908776 0)
(4.28751 0.00848626 0)
(4.27021 0.00794689 0)
(4.25427 0.00746229 0)
(4.23954 0.00702554 0)
(4.2259 0.00662989 0)
(4.21325 0.00626906 0)
(4.2015 0.00593778 0)
(4.19058 0.00563205 0)
(4.18042 0.00534905 0)
(4.17096 0.00508688 0)
(4.16216 0.004844 0)
(4.15396 0.0046189 0)
(4.14632 0.00441004 0)
(4.1392 0.00421571 0)
(4.13257 0.00403428 0)
(4.12638 0.00386464 0)
(4.12062 0.00370577 0)
(4.11525 0.00355663 0)
(4.11025 0.00341651 0)
(4.10559 0.00328467 0)
(4.10124 0.00316027 0)
(4.0972 0.00304242 0)
(4.09343 0.00293027 0)
(4.08993 0.00282326 0)
(4.08669 0.00272095 0)
(4.08368 0.00262308 0)
(4.0809 0.00252938 0)
(4.07834 0.0024398 0)
(4.07599 0.0023553 0)
(4.07384 0.00227466 0)
(4.07187 0.00219709 0)
(4.07009 0.00212283 0)
(4.06848 0.00205205 0)
(4.06704 0.00198484 0)
(4.06575 0.00192102 0)
(4.06461 0.00186021 0)
(4.06361 0.00180212 0)
(4.06274 0.00174674 0)
(4.06199 0.00169398 0)
(4.06137 0.00164371 0)
(4.06084 0.0015963 0)
(4.06042 0.00155107 0)
(4.0601 0.00150792 0)
(4.05987 0.00146708 0)
(4.05972 0.00142861 0)
(4.05965 0.0013924 0)
(4.05965 0.0013584 0)
(4.05972 0.00132671 0)
(4.05986 0.0012974 0)
(4.06006 0.00127046 0)
(4.06032 0.00124583 0)
(4.06063 0.0012235 0)
(4.06099 0.00120343 0)
(4.06139 0.00118554 0)
(4.06184 0.00116978 0)
(4.06231 0.00115605 0)
(4.06282 0.00114419 0)
(4.06336 0.00113403 0)
(4.06392 0.00112544 0)
(4.0645 0.00111828 0)
(4.0651 0.00111241 0)
(4.06572 0.00110768 0)
(4.06635 0.001104 0)
(4.06699 0.00110127 0)
(4.06764 0.00109939 0)
(4.06831 0.00109832 0)
(4.06898 0.00109804 0)
(4.06967 0.00109855 0)
(4.07036 0.00109987 0)
(4.07107 0.00110199 0)
(4.07179 0.0011049 0)
(4.07252 0.0011086 0)
(4.07326 0.00111304 0)
(4.07402 0.0011182 0)
(4.07478 0.00112403 0)
(4.07555 0.00113043 0)
(4.07632 0.00113734 0)
(4.07711 0.00114466 0)
(4.0779 0.00115224 0)
(4.07869 0.00115998 0)
(4.07949 0.00116778 0)
(4.0803 0.00117555 0)
(4.08111 0.00118324 0)
(4.08192 0.00119078 0)
(4.08274 0.00119816 0)
(4.08357 0.00120537 0)
(4.0844 0.00121246 0)
(4.08524 0.00121945 0)
(4.08609 0.0012264 0)
(4.08695 0.00123335 0)
(4.08782 0.00124037 0)
(4.0887 0.00124747 0)
(4.08959 0.0012547 0)
(4.0905 0.00126208 0)
(4.09141 0.00126958 0)
(4.09233 0.00127719 0)
(4.09327 0.00128485 0)
(4.09421 0.0012925 0)
(4.09516 0.00130009 0)
(4.09612 0.00130754 0)
(4.09709 0.00131479 0)
(4.09806 0.00132177 0)
(4.09904 0.00132843 0)
(4.10002 0.00133476 0)
(4.10101 0.00134074 0)
(4.10201 0.00134639 0)
(4.10301 0.00135173 0)
(4.10403 0.00135683 0)
(4.10505 0.00136172 0)
(4.10608 0.00136648 0)
(4.10712 0.00137116 0)
(4.10817 0.00137581 0)
(4.10923 0.00138048 0)
(4.1103 0.0013852 0)
(4.11138 0.00138999 0)
(4.11248 0.00139485 0)
(4.11358 0.00139975 0)
(4.11469 0.00140466 0)
(4.1158 0.00140953 0)
(4.11693 0.00141432 0)
(4.11806 0.00141897 0)
(4.1192 0.00142343 0)
(4.12034 0.00142763 0)
(4.12149 0.00143156 0)
(4.12265 0.00143519 0)
(4.1238 0.00143851 0)
(4.12497 0.00144155 0)
(4.12614 0.00144432 0)
(4.12731 0.00144688 0)
(4.12849 0.00144927 0)
(4.12968 0.00145154 0)
(4.13088 0.00145374 0)
(4.13209 0.00145592 0)
(4.1333 0.00145812 0)
(4.13453 0.00146038 0)
(4.13576 0.00146273 0)
(4.137 0.00146516 0)
(4.13825 0.00146765 0)
(4.13951 0.00147019 0)
(4.14077 0.00147273 0)
(4.14204 0.00147524 0)
(4.14332 0.00147765 0)
(4.1446 0.00147992 0)
(4.14589 0.00148202 0)
(4.14718 0.00148392 0)
(4.14847 0.00148559 0)
(4.14977 0.00148701 0)
(4.15107 0.00148821 0)
(4.15238 0.00148917 0)
(4.15369 0.00148995 0)
(4.15501 0.00149058 0)
(4.15634 0.0014911 0)
(4.15767 0.00149155 0)
(4.15901 0.001492 0)
(4.16036 0.00149249 0)
(4.16171 0.00149308 0)
(4.16308 0.00149377 0)
(4.16445 0.00149455 0)
(4.16583 0.00149543 0)
(4.16721 0.00149641 0)
(4.1686 0.0014974 0)
(4.17 0.0014984 0)
(4.17141 0.00149939 0)
(4.17282 0.00150032 0)
(4.17423 0.00150117 0)
(4.17565 0.00150191 0)
(4.17707 0.00150255 0)
(4.17849 0.00150304 0)
(4.17992 0.00150338 0)
(4.18136 0.00150355 0)
(4.18279 0.00150355 0)
(4.18423 0.0015034 0)
(4.18568 0.00150311 0)
(4.18713 0.00150275 0)
(4.18859 0.00150235 0)
(4.19006 0.00150197 0)
(4.19153 0.00150169 0)
(4.19301 0.00150155 0)
(4.19449 0.00150158 0)
(4.19599 0.00150177 0)
(4.19749 0.00150212 0)
(4.199 0.00150262 0)
(4.20051 0.00150318 0)
(4.20203 0.00150373 0)
(4.20355 0.00150426 0)
(4.20507 0.00150471 0)
(4.2066 0.00150504 0)
(4.20814 0.00150521 0)
(4.20968 0.00150523 0)
(4.21122 0.00150516 0)
(4.21276 0.001505 0)
(4.21431 0.0015048 0)
(4.21587 0.0015046 0)
(4.21743 0.00150442 0)
(4.21899 0.00150432 0)
(4.22056 0.00150432 0)
(4.22213 0.00150439 0)
(4.22371 0.00150455 0)
(4.2253 0.00150482 0)
(4.22689 0.00150515 0)
(4.22848 0.00150558 0)
(4.23008 0.00150595 0)
(4.23168 0.00150648 0)
(4.2333 0.00150687 0)
(4.2349 0.00150751 0)
(4.23653 0.00150771 0)
(4.23815 0.00150853 0)
(4.23979 0.00150844 0)
(4.2414 0.0015097 0)
(4.24308 0.00150894 0)
(4.24467 0.00151126 0)
(4.24641 0.001509 0)
(4.24793 0.0015141 0)
(4.24979 0.00150796 0)
(4.25115 0.00152108 0)
(4.25325 0.00150443 0)
(4.25428 0.00154351 0)
(4.25684 0.00149126 0)
(4.25723 0.00158391 0)
(4.2604 0.00145905 0)
(4.55127 0.271037 0)
(4.99802 0.199526 0)
(5.30759 0.0872833 0)
(5.42863 0.0890885 0)
(5.43426 0.086565 0)
(5.39917 0.064567 0)
(5.35873 0.0465688 0)
(5.31855 0.0382774 0)
(5.27667 0.0342701 0)
(5.23413 0.0306671 0)
(5.19357 0.0270154 0)
(5.15636 0.0238648 0)
(5.12248 0.0213816 0)
(5.09147 0.01939 0)
(5.063 0.0177056 0)
(5.03685 0.0162444 0)
(5.01282 0.0149753 0)
(4.99071 0.0138694 0)
(4.97033 0.0128954 0)
(4.95153 0.012028 0)
(4.93417 0.0112502 0)
(4.91812 0.0105508 0)
(4.90328 0.0099205 0)
(4.88954 0.00935071 0)
(4.87681 0.00883309 0)
(4.86499 0.00835982 0)
(4.85401 0.00792431 0)
(4.84382 0.00752157 0)
(4.83434 0.00714819 0)
(4.82553 0.00680183 0)
(4.81735 0.0064807 0)
(4.80974 0.00618294 0)
(4.80268 0.00590658 0)
(4.79612 0.00564941 0)
(4.79003 0.00540929 0)
(4.78438 0.00518465 0)
(4.77915 0.00497397 0)
(4.77431 0.00477593 0)
(4.76984 0.00458961 0)
(4.76571 0.00441398 0)
(4.76191 0.00424792 0)
(4.75841 0.00409032 0)
(4.75519 0.00394013 0)
(4.75225 0.00379667 0)
(4.74956 0.00365943 0)
(4.74712 0.00352809 0)
(4.7449 0.0034024 0)
(4.7429 0.00328238 0)
(4.74112 0.00316908 0)
(4.73953 0.003061 0)
(4.73813 0.00295727 0)
(4.73691 0.00285806 0)
(4.73587 0.00276346 0)