/*--------------------------------*- C++ -*----------------------------------*\
  =========                 |
  \\      /  F ield         | OpenFOAM: The Open Source CFD Toolbox
   \\    /   O peration     | Website:  https://openfoam.org
    \\  /    A nd           | Version:  7
     \\/     M anipulation  |
\*---------------------------------------------------------------------------*/
FoamFile
{
    version     2.0;
    format      ascii;
    class       volVectorField;
    location    "0.1925";
    object      UMean;
}
// * * * * * * * * * * * * * * * * * * * * * * * * * * * * * * * * * * * * * //

dimensions      [0 1 -1 0 0 0 0];

internalField   nonuniform List<vector> 
1440
(
(9.86496 0.0404755 0)
(9.84472 0.133549 0)
(9.74634 0.210095 0)
(9.5666 0.267408 0)
(9.32765 0.308402 0)
(9.05091 0.33402 0)
(8.75235 0.345701 0)
(8.44067 0.345757 0)
(8.12566 0.338037 0)
(7.81416 0.325149 0)
(7.51271 0.307599 0)
(7.22367 0.286992 0)
(6.9485 0.264249 0)
(6.68972 0.240488 0)
(6.44842 0.217021 0)
(6.22497 0.194493 0)
(6.01929 0.173255 0)
(5.83094 0.153493 0)
(5.65929 0.13531 0)
(5.5035 0.118734 0)
(5.36265 0.103741 0)
(5.23572 0.0902736 0)
(5.12169 0.0782544 0)
(5.0195 0.0675928 0)
(4.92816 0.0581954 0)
(4.84668 0.0499617 0)
(4.77413 0.0427843 0)
(4.70965 0.0365003 0)
(4.65246 0.0309636 0)
(4.60182 0.026074 0)
(4.55705 0.0217627 0)
(4.51752 0.0179741 0)
(4.48266 0.0146583 0)
(4.45194 0.0117682 0)
(4.42489 0.00925927 0)
(4.40108 0.00708851 0)
(4.38013 0.00521395 0)
(4.36171 0.00359199 0)
(4.3455 0.00217886 0)
(4.33127 0.000928172 0)
(4.31876 -0.000193594 0)
(4.3078 -0.00119577 0)
(4.29816 -0.00201694 0)
(4.28966 -0.00262434 0)
(4.28211 -0.0030358 0)
(4.27537 -0.00328864 0)
(4.26932 -0.0034144 0)
(4.26387 -0.00343446 0)
(4.25892 -0.00336466 0)
(4.25441 -0.00321908 0)
(4.25027 -0.00301066 0)
(4.24645 -0.00275071 0)
(4.24291 -0.00244881 0)
(4.23961 -0.00211308 0)
(4.23652 -0.00175073 0)
(4.23361 -0.00136814 0)
(4.23085 -0.000970777 0)
(4.22822 -0.000563169 0)
(4.22572 -0.000149052 0)
(4.22331 0.000268482 0)
(4.22099 0.000686827 0)
(4.21875 0.00110376 0)
(4.21657 0.00151743 0)
(4.21446 0.00192623 0)
(4.2124 0.00232894 0)
(4.2104 0.00272452 0)
(4.20844 0.00311218 0)
(4.20652 0.00349122 0)
(4.20465 0.0038611 0)
(4.20281 0.00422137 0)
(4.20101 0.00457176 0)
(4.19924 0.00491203 0)
(4.19751 0.00524214 0)
(4.19582 0.00556203 0)
(4.19416 0.00587186 0)
(4.19254 0.00617172 0)
(4.19095 0.00646183 0)
(4.1894 0.0067423 0)
(4.18789 0.00701339 0)
(4.18641 0.0072752 0)
(4.18497 0.00752807 0)
(4.18357 0.00777214 0)
(4.1822 0.00800779 0)
(4.18088 0.00823518 0)
(4.17959 0.00845469 0)
(4.17835 0.00866634 0)
(4.17714 0.00887045 0)
(4.17597 0.00906707 0)
(4.17485 0.00925666 0)
(4.17377 0.00943945 0)
(4.17272 0.00961586 0)
(4.17172 0.00978609 0)
(4.17076 0.00995029 0)
(4.16984 0.0101086 0)
(4.16896 0.0102609 0)
(4.16812 0.0104078 0)
(4.16732 0.0105486 0)
(4.16656 0.010685 0)
(4.16584 0.0108153 0)
(4.16516 0.0109428 0)
(4.16452 0.0110632 0)
(4.16392 0.0111827 0)
(4.16337 0.011292 0)
(4.16285 0.011404 0)
(4.16239 0.0115005 0)
(4.16194 0.0116068 0)
(4.16157 0.0116877 0)
(4.1612 0.0117946 0)
(4.16093 0.0118559 0)
(4.16062 0.0119724 0)
(4.16049 0.012002 0)
(4.16025 0.0121432 0)
(4.16028 0.0121126 0)
(4.16013 0.0123055 0)
(4.16036 0.0121573 0)
(4.16035 0.0124511 0)
(4.16079 0.0120988 0)
(4.16109 0.0125843 0)
(4.1617 0.0120192 0)
(4.1622 0.013028 0)
(9.87237 0.0519341 0)
(9.91565 0.135929 0)
(9.98138 0.199255 0)
(10.0577 0.250157 0)
(10.138 0.294281 0)
(10.217 0.332131 0)
(10.2904 0.362731 0)
(10.3542 0.385871 0)
(10.4054 0.402369 0)
(10.4421 0.412946 0)
(10.4642 0.41759 0)
(10.4731 0.416715 0)
(10.4703 0.411177 0)
(10.4577 0.401944 0)
(10.4367 0.389893 0)
(10.4086 0.375751 0)
(10.3747 0.360111 0)
(10.3362 0.343489 0)
(10.2942 0.326322 0)
(10.2496 0.308979 0)
(10.2032 0.291774 0)
(10.1557 0.274929 0)
(10.1075 0.258621 0)
(10.0591 0.242981 0)
(10.0109 0.228095 0)
(9.96315 0.214018 0)
(9.91598 0.200784 0)
(9.86957 0.188442 0)
(9.82409 0.177023 0)
(9.77966 0.166526 0)
(9.73638 0.156919 0)
(9.6943 0.148152 0)
(9.65346 0.140167 0)
(9.61387 0.132905 0)
(9.57553 0.126306 0)
(9.53843 0.120318 0)
(9.50256 0.114889 0)
(9.46789 0.109973 0)
(9.4344 0.105529 0)
(9.40207 0.101523 0)
(9.37089 0.0979193 0)
(9.3409 0.0946961 0)
(9.31207 0.091798 0)
(9.28432 0.0891601 0)
(9.25758 0.0867316 0)
(9.23181 0.0844804 0)
(9.20697 0.0823867 0)
(9.18303 0.0804358 0)
(9.15995 0.0786137 0)
(9.13771 0.0769056 0)
(9.11628 0.0752976 0)
(9.09564 0.0737787 0)
(9.07575 0.0723412 0)
(9.05659 0.0709796 0)
(9.03814 0.0696885 0)
(9.02037 0.0684629 0)
(9.00327 0.0672976 0)
(8.9868 0.0661879 0)
(8.97096 0.0651295 0)
(8.95572 0.0641185 0)
(8.94105 0.0631514 0)
(8.92695 0.0622248 0)
(8.9134 0.0613357 0)
(8.90037 0.0604814 0)
(8.88785 0.0596596 0)
(8.87583 0.058868 0)
(8.86429 0.0581048 0)
(8.85321 0.0573681 0)
(8.84257 0.0566562 0)
(8.83237 0.0559677 0)
(8.8226 0.0553012 0)
(8.81323 0.0546553 0)
(8.80425 0.0540291 0)
(8.79565 0.0534215 0)
(8.78742 0.0528314 0)
(8.77955 0.0522581 0)
(8.77203 0.0517007 0)
(8.76484 0.0511584 0)
(8.75797 0.0506307 0)
(8.75142 0.0501167 0)
(8.74518 0.0496162 0)
(8.73923 0.0491285 0)
(8.73356 0.0486535 0)
(8.72817 0.0481906 0)
(8.72305 0.0477397 0)
(8.71819 0.0473005 0)
(8.71358 0.0468726 0)
(8.70922 0.0464559 0)
(8.70509 0.0460502 0)
(8.70119 0.0456554 0)
(8.69751 0.0452712 0)
(8.69404 0.0448977 0)
(8.69078 0.0445345 0)
(8.68772 0.0441815 0)
(8.68485 0.0438382 0)
(8.68218 0.0435048 0)
(8.67968 0.0431804 0)
(8.67736 0.0428662 0)
(8.67521 0.0425599 0)
(8.67322 0.0422644 0)
(8.6714 0.0419751 0)
(8.66973 0.0416978 0)
(8.66821 0.0414235 0)
(8.66683 0.0411638 0)
(8.6656 0.0409012 0)
(8.6645 0.0406593 0)
(8.66355 0.0404042 0)
(8.66271 0.0401819 0)
(8.66202 0.0399279 0)
(8.66143 0.0397286 0)
(8.661 0.0394647 0)
(8.66066 0.0392921 0)
(8.66047 0.0389978 0)
(8.6604 0.0388518 0)
(8.66043 0.0384921 0)
(8.66071 0.0383534 0)
(8.6609 0.0378785 0)
(8.66177 0.0376803 0)
(8.66206 0.0371038 0)
(8.66403 0.0368333 0)
(9.87072 0.0261114 0)
(9.89417 0.0757444 0)
(9.93214 0.120288 0)
(9.98203 0.159347 0)
(10.043 0.193708 0)
(10.114 0.223585 0)
(10.1937 0.248354 0)
(10.2798 0.267358 0)
(10.3697 0.280253 0)
(10.4605 0.287375 0)
(10.5505 0.289759 0)
(10.6383 0.288421 0)
(10.7231 0.284094 0)
(10.8041 0.277328 0)
(10.8805 0.268653 0)
(10.9519 0.2586 0)
(11.0179 0.247657 0)
(11.0786 0.236233 0)
(11.1341 0.224655 0)
(11.1845 0.213181 0)
(11.2301 0.202009 0)
(11.2712 0.191286 0)
(11.308 0.181113 0)
(11.3409 0.171556 0)
(11.3702 0.162649 0)
(11.3963 0.154409 0)
(11.4194 0.146841 0)
(11.4398 0.139959 0)
(11.4578 0.133764 0)
(11.4737 0.128225 0)
(11.4877 0.123293 0)
(11.4998 0.118912 0)
(11.5104 0.115027 0)
(11.5196 0.111586 0)
(11.5275 0.108544 0)
(11.5343 0.105863 0)
(11.5402 0.103508 0)
(11.5451 0.101451 0)
(11.5493 0.09967 0)
(11.5529 0.0981448 0)
(11.5558 0.0968538 0)
(11.5582 0.0957517 0)
(11.5601 0.0947596 0)
(11.5616 0.0938176 0)
(11.5626 0.0929027 0)
(11.5633 0.0920148 0)
(11.5637 0.0911594 0)
(11.5638 0.0903396 0)
(11.5637 0.0895548 0)
(11.5633 0.0888015 0)
(11.5628 0.0880726 0)
(11.562 0.087362 0)
(11.5611 0.0866662 0)
(11.5601 0.0859827 0)
(11.5589 0.0853098 0)
(11.5577 0.084646 0)
(11.5563 0.0839899 0)
(11.5548 0.0833405 0)
(11.5532 0.0826973 0)
(11.5516 0.0820597 0)
(11.5499 0.0814274 0)
(11.5482 0.0808 0)
(11.5464 0.0801774 0)
(11.5445 0.0795597 0)
(11.5426 0.078947 0)
(11.5407 0.0783396 0)
(11.5388 0.0777379 0)
(11.5369 0.077142 0)
(11.5349 0.076552 0)
(11.533 0.0759681 0)
(11.531 0.0753904 0)
(11.5291 0.0748189 0)
(11.5272 0.074254 0)
(11.5253 0.0736956 0)
(11.5234 0.073144 0)
(11.5215 0.0725992 0)
(11.5197 0.0720614 0)
(11.5179 0.0715306 0)
(11.5161 0.071007 0)
(11.5143 0.0704905 0)
(11.5126 0.0699814 0)
(11.511 0.0694797 0)
(11.5094 0.0689856 0)
(11.5078 0.0684989 0)
(11.5063 0.0680201 0)
(11.5048 0.0675489 0)
(11.5034 0.0670856 0)
(11.502 0.0666299 0)
(11.5007 0.0661822 0)
(11.4995 0.0657421 0)
(11.4983 0.0653101 0)
(11.4972 0.0648857 0)
(11.4962 0.0644692 0)
(11.4952 0.0640601 0)
(11.4942 0.0636588 0)
(11.4934 0.0632645 0)
(11.4926 0.062878 0)
(11.4919 0.062498 0)
(11.4912 0.0621259 0)
(11.4907 0.0617594 0)
(11.4901 0.0614011 0)
(11.4897 0.0610471 0)
(11.4893 0.0607018 0)
(11.489 0.0603584 0)
(11.4888 0.0600257 0)
(11.4887 0.05969 0)
(11.4886 0.0593701 0)
(11.4886 0.059037 0)
(11.4887 0.0587315 0)
(11.4888 0.0583914 0)
(11.489 0.0581051 0)
(11.4894 0.0577377 0)
(11.4897 0.0574824 0)
(11.4902 0.0570442 0)
(11.4906 0.0568458 0)
(11.4915 0.0562437 0)
(11.4918 0.0561547 0)
(11.4932 0.0551805 0)
(11.4933 0.0552606 0)
(11.4959 0.0533831 0)
(9.87064 0.0190212 0)
(9.892 0.0560646 0)
(9.92545 0.0901836 0)
(9.96905 0.119953 0)
(10.0227 0.145138 0)
(10.0855 0.166089 0)
(10.1558 0.183 0)
(10.2319 0.195843 0)
(10.3122 0.20474 0)
(10.3951 0.21024 0)
(10.4794 0.213163 0)
(10.5639 0.214184 0)
(10.648 0.213696 0)
(10.7307 0.21192 0)
(10.8114 0.209062 0)
(10.8896 0.205353 0)
(10.9648 0.201025 0)
(11.0368 0.196269 0)
(11.1053 0.191236 0)
(11.1703 0.186038 0)
(11.2319 0.180772 0)
(11.29 0.175516 0)
(11.3448 0.170336 0)
(11.3965 0.165284 0)
(11.4452 0.160401 0)
(11.491 0.155715 0)
(11.5343 0.151244 0)
(11.5752 0.146975 0)
(11.6138 0.142886 0)
(11.6503 0.138967 0)
(11.685 0.135218 0)
(11.7179 0.131642 0)
(11.7492 0.128244 0)
(11.7791 0.125024 0)
(11.8078 0.121983 0)
(11.8352 0.119114 0)
(11.8616 0.116413 0)
(11.8871 0.113871 0)
(11.9117 0.111477 0)
(11.9355 0.109213 0)
(11.9585 0.107063 0)
(11.9808 0.104994 0)
(12.0025 0.103001 0)
(12.0235 0.10109 0)
(12.0441 0.0992705 0)
(12.0641 0.0975453 0)
(12.0838 0.0959136 0)
(12.103 0.0943707 0)
(12.1218 0.0929117 0)
(12.1403 0.0915337 0)
(12.1583 0.0902377 0)
(12.1761 0.0890225 0)
(12.1935 0.087884 0)
(12.2105 0.0868154 0)
(12.2273 0.0858099 0)
(12.2438 0.084861 0)
(12.2599 0.0839636 0)
(12.2758 0.0831126 0)
(12.2914 0.082304 0)
(12.3068 0.0815335 0)
(12.3219 0.0807978 0)
(12.3367 0.0800935 0)
(12.3513 0.0794181 0)
(12.3657 0.0787689 0)
(12.3798 0.078144 0)
(12.3937 0.0775417 0)
(12.4073 0.0769609 0)
(12.4208 0.0764002 0)
(12.434 0.0758587 0)
(12.447 0.0753349 0)
(12.4599 0.0748282 0)
(12.4725 0.074337 0)
(12.4849 0.073861 0)
(12.4971 0.0733987 0)
(12.5091 0.0729498 0)
(12.521 0.0725132 0)
(12.5327 0.0720884 0)
(12.5442 0.0716746 0)
(12.5555 0.0712714 0)
(12.5667 0.070878 0)
(12.5777 0.0704942 0)
(12.5885 0.0701191 0)
(12.5992 0.0697527 0)
(12.6098 0.0693943 0)
(12.6202 0.0690438 0)
(12.6304 0.0687005 0)
(12.6405 0.0683646 0)
(12.6505 0.0680351 0)
(12.6604 0.0677125 0)
(12.6701 0.0673959 0)
(12.6796 0.0670857 0)
(12.6891 0.066781 0)
(12.6985 0.0664824 0)
(12.7077 0.0661887 0)
(12.7168 0.065901 0)
(12.7258 0.0656174 0)
(12.7347 0.0653397 0)
(12.7435 0.0650652 0)
(12.7522 0.0647971 0)
(12.7608 0.0645307 0)
(12.7693 0.0642717 0)
(12.7777 0.0640116 0)
(12.786 0.0637615 0)
(12.7943 0.0635051 0)
(12.8024 0.0632645 0)
(12.8105 0.0630076 0)
(12.8184 0.0627784 0)
(12.8264 0.0625135 0)
(12.8342 0.062301 0)
(12.842 0.0620139 0)
(12.8496 0.061829 0)
(12.8574 0.0614927 0)
(12.8647 0.0613566 0)
(12.8727 0.0609201 0)
(12.8793 0.060872 0)
(12.8879 0.0602416 0)
(12.8934 0.0603454 0)
(12.9033 0.0593515 0)
(12.9063 0.0596602 0)
(12.9193 0.0579375 0)
(9.87055 0.0114327 0)
(9.89021 0.0335405 0)
(9.92062 0.0537828 0)
(9.96051 0.0713766 0)
(10.0106 0.0861574 0)
(10.07 0.0983844 0)
(10.137 0.108345 0)
(10.21 0.11618 0)
(10.2871 0.122013 0)
(10.3672 0.126061 0)
(10.4488 0.128609 0)
(10.5308 0.129904 0)
(10.6123 0.130112 0)
(10.6926 0.129342 0)
(10.7709 0.127699 0)
(10.8469 0.125314 0)
(10.9201 0.122335 0)
(10.9903 0.118913 0)
(11.0574 0.115182 0)
(11.1213 0.111261 0)
(11.1819 0.107247 0)
(11.2395 0.103227 0)
(11.2941 0.0992774 0)
(11.3458 0.09545 0)
(11.3947 0.0917794 0)
(11.4411 0.0882829 0)
(11.4852 0.0849655 0)
(11.527 0.0818236 0)
(11.5668 0.0788549 0)
(11.6048 0.0760629 0)
(11.641 0.0734535 0)
(11.6758 0.0710304 0)
(11.7091 0.0687917 0)
(11.7411 0.0667319 0)
(11.772 0.0648415 0)
(11.8019 0.0631096 0)
(11.8308 0.0615229 0)
(11.8588 0.060067 0)
(11.8862 0.0587256 0)
(11.9128 0.0574867 0)
(11.9387 0.0563387 0)
(11.9641 0.0552906 0)
(11.9889 0.0543632 0)
(12.0132 0.0535652 0)
(12.0372 0.0528865 0)
(12.0607 0.052308 0)
(12.0839 0.0518101 0)
(12.1067 0.051378 0)
(12.1292 0.0510013 0)
(12.1515 0.050675 0)
(12.1734 0.0503987 0)
(12.1951 0.0501714 0)
(12.2166 0.0499892 0)
(12.2378 0.049845 0)
(12.2587 0.0497317 0)
(12.2795 0.0496438 0)
(12.3 0.049577 0)
(12.3203 0.0495281 0)
(12.3404 0.0494941 0)
(12.3603 0.0494718 0)
(12.38 0.0494587 0)
(12.3996 0.0494525 0)
(12.4189 0.0494511 0)
(12.4381 0.0494528 0)
(12.457 0.049456 0)
(12.4759 0.049459 0)
(12.4945 0.0494602 0)
(12.513 0.0494587 0)
(12.5313 0.0494538 0)
(12.5495 0.0494449 0)
(12.5675 0.0494319 0)
(12.5853 0.0494146 0)
(12.603 0.0493928 0)
(12.6205 0.0493664 0)
(12.6379 0.0493355 0)
(12.6552 0.0493 0)
(12.6723 0.04926 0)
(12.6892 0.0492157 0)
(12.7061 0.049167 0)
(12.7228 0.049114 0)
(12.7393 0.0490571 0)
(12.7557 0.0489962 0)
(12.772 0.0489315 0)
(12.7882 0.0488634 0)
(12.8042 0.0487919 0)
(12.8201 0.0487173 0)
(12.8359 0.0486398 0)
(12.8516 0.0485597 0)
(12.8671 0.0484771 0)
(12.8825 0.0483923 0)
(12.8979 0.0483056 0)
(12.913 0.0482171 0)
(12.9281 0.0481271 0)
(12.9431 0.0480356 0)
(12.958 0.0479433 0)
(12.9727 0.0478494 0)
(12.9874 0.0477553 0)
(13.0019 0.0476597 0)
(13.0164 0.0475646 0)
(13.0307 0.0474674 0)
(13.045 0.0473718 0)
(13.0591 0.0472728 0)
(13.0732 0.0471774 0)
(13.0871 0.0470754 0)
(13.101 0.046981 0)
(13.1148 0.0468738 0)
(13.1284 0.0467821 0)
(13.1421 0.0466656 0)
(13.1555 0.0465797 0)
(13.1691 0.0464455 0)
(13.1822 0.0463713 0)
(13.1958 0.0462033 0)
(13.2084 0.0461511 0)
(13.2223 0.0459195 0)
(13.234 0.0459068 0)
(13.2488 0.0455583 0)
(13.2586 0.0456093 0)
(13.2758 0.045058 0)
(13.2815 0.0451984 0)
(13.304 0.0443263 0)
(9.8705 0.00423228 0)
(9.8893 0.0123887 0)
(9.91821 0.0198294 0)
(9.95628 0.0262773 0)
(10.0045 0.0316755 0)
(10.0623 0.0361536 0)
(10.1279 0.0398871 0)
(10.1995 0.0429997 0)
(10.2754 0.0455485 0)
(10.3543 0.0475651 0)
(10.4348 0.0490858 0)
(10.5159 0.0501767 0)
(10.5966 0.050912 0)
(10.676 0.0513646 0)
(10.7537 0.051593 0)
(10.8291 0.05166 0)
(10.9019 0.0516245 0)
(10.9718 0.0515402 0)
(11.0386 0.0514458 0)
(11.1023 0.051365 0)
(11.1629 0.0513089 0)
(11.2204 0.0512769 0)
(11.2749 0.051263 0)
(11.3265 0.0512634 0)
(11.3754 0.0512733 0)
(11.4217 0.0512871 0)
(11.4656 0.051296 0)
(11.5073 0.0512907 0)
(11.547 0.0512613 0)
(11.5847 0.0512 0)
(11.6208 0.0511015 0)
(11.6553 0.0509633 0)
(11.6884 0.0507847 0)
(11.7202 0.0505669 0)
(11.7508 0.0503133 0)
(11.7805 0.0500279 0)
(11.8092 0.0497163 0)
(11.837 0.0493787 0)
(11.8641 0.049016 0)
(11.8905 0.048634 0)
(11.9163 0.0482434 0)
(11.9415 0.0478591 0)
(11.9663 0.0474944 0)
(11.9905 0.0471552 0)
(12.0143 0.04684 0)
(12.0378 0.0465448 0)
(12.0609 0.0462666 0)
(12.0836 0.0460045 0)
(12.1061 0.0457587 0)
(12.1283 0.0455278 0)
(12.1503 0.0453081 0)
(12.172 0.0450966 0)
(12.1934 0.0448953 0)
(12.2146 0.0447023 0)
(12.2356 0.0445153 0)
(12.2564 0.0443329 0)
(12.277 0.044155 0)
(12.2974 0.0439817 0)
(12.3177 0.0438131 0)
(12.3377 0.0436489 0)
(12.3576 0.0434892 0)
(12.3773 0.0433337 0)
(12.3968 0.0431821 0)
(12.4162 0.0430343 0)
(12.4354 0.0428897 0)
(12.4545 0.0427477 0)
(12.4734 0.0426074 0)
(12.4922 0.0424685 0)
(12.5108 0.0423309 0)
(12.5293 0.0421945 0)
(12.5476 0.0420594 0)
(12.5659 0.0419257 0)
(12.5839 0.0417937 0)
(12.6019 0.0416633 0)
(12.6197 0.0415347 0)
(12.6374 0.041408 0)
(12.655 0.0412833 0)
(12.6725 0.0411608 0)
(12.6898 0.0410403 0)
(12.7071 0.0409221 0)
(12.7242 0.0408063 0)
(12.7412 0.0406928 0)
(12.7581 0.0405818 0)
(12.7749 0.0404734 0)
(12.7916 0.0403675 0)
(12.8082 0.0402643 0)
(12.8246 0.0401639 0)
(12.841 0.0400661 0)
(12.8573 0.0399712 0)
(12.8735 0.039879 0)
(12.8896 0.0397896 0)
(12.9056 0.0397029 0)
(12.9214 0.0396189 0)
(12.9373 0.0395374 0)
(12.953 0.0394585 0)
(12.9686 0.0393819 0)
(12.9842 0.0393078 0)
(12.9996 0.0392355 0)
(13.015 0.0391658 0)
(13.0303 0.0390974 0)
(13.0455 0.0390315 0)
(13.0606 0.038966 0)
(13.0757 0.0389034 0)
(13.0907 0.0388395 0)
(13.1056 0.0387797 0)
(13.1205 0.0387157 0)
(13.1352 0.0386585 0)
(13.1499 0.0385917 0)
(13.1644 0.0385373 0)
(13.1792 0.0384633 0)
(13.1934 0.0384132 0)
(13.2082 0.0383233 0)
(13.2219 0.0382811 0)
(13.2371 0.0381598 0)
(13.2499 0.0381346 0)
(13.2661 0.0379527 0)
(13.2768 0.0379651 0)
(13.2957 0.0376629 0)
(13.3018 0.0377354 0)
(13.3266 0.037135 0)
(9.87049 -0.00265085 0)
(9.88915 -0.00786018 0)
(9.91784 -0.0128271 0)
(9.95566 -0.0174012 0)
(10.0037 -0.0214584 0)
(10.0614 -0.0248974 0)
(10.127 -0.0276212 0)
(10.1986 -0.0295619 0)
(10.2746 -0.0307161 0)
(10.3535 -0.0311456 0)
(10.4341 -0.0309356 0)
(10.5153 -0.0301578 0)
(10.596 -0.0288632 0)
(10.6756 -0.0270992 0)
(10.7534 -0.0249216 0)
(10.8289 -0.0224 0)
(10.9018 -0.0196109 0)
(10.9717 -0.0166402 0)
(11.0385 -0.0135696 0)
(11.1021 -0.0104833 0)
(11.1626 -0.00745946 0)
(11.2199 -0.00457797 0)
(11.2742 -0.0019064 0)
(11.3256 0.000510725 0)
(11.3743 0.0026519 0)
(11.4204 0.0045126 0)
(11.4641 0.00609978 0)
(11.5056 0.00742711 0)
(11.545 0.00851279 0)
(11.5826 0.00937803 0)
(11.6185 0.0100464 0)
(11.6528 0.0105432 0)
(11.6857 0.0108937 0)
(11.7174 0.011122 0)
(11.748 0.0112485 0)
(11.7775 0.0112926 0)
(11.8061 0.0112701 0)
(11.8339 0.011201 0)
(11.8609 0.0111024 0)
(11.8873 0.0109863 0)
(11.913 0.010861 0)
(11.9382 0.010734 0)
(11.9629 0.0106127 0)
(11.9872 0.010504 0)
(12.011 0.0104127 0)
(12.0344 0.010343 0)
(12.0575 0.010298 0)
(12.0803 0.0102794 0)
(12.1027 0.0102866 0)
(12.1249 0.0103173 0)
(12.1468 0.0103668 0)
(12.1685 0.0104309 0)
(12.1899 0.0105044 0)
(12.2111 0.0105887 0)
(12.2321 0.0106869 0)
(12.2528 0.0108002 0)
(12.2734 0.0109273 0)
(12.2938 0.011066 0)
(12.314 0.0112145 0)
(12.334 0.0113712 0)
(12.3538 0.0115348 0)
(12.3735 0.0117042 0)
(12.3929 0.0118779 0)
(12.4123 0.0120548 0)
(12.4314 0.0122338 0)
(12.4505 0.0124144 0)
(12.4693 0.0125958 0)
(12.4881 0.0127776 0)
(12.5066 0.012959 0)
(12.5251 0.0131398 0)
(12.5434 0.0133192 0)
(12.5615 0.0134971 0)
(12.5796 0.0136729 0)
(12.5975 0.0138465 0)
(12.6153 0.0140176 0)
(12.6329 0.0141861 0)
(12.6504 0.0143516 0)
(12.6678 0.0145142 0)
(12.6851 0.0146737 0)
(12.7023 0.0148301 0)
(12.7194 0.0149832 0)
(12.7363 0.0151332 0)
(12.7532 0.0152799 0)
(12.7699 0.0154235 0)
(12.7866 0.0155639 0)
(12.8031 0.0157013 0)
(12.8195 0.0158355 0)
(12.8358 0.0159669 0)
(12.8521 0.0160953 0)
(12.8682 0.0162209 0)
(12.8842 0.0163437 0)
(12.9002 0.0164637 0)
(12.9161 0.016581 0)
(12.9318 0.0166957 0)
(12.9475 0.0168077 0)
(12.9631 0.0169171 0)
(12.9786 0.0170239 0)
(12.994 0.0171281 0)
(13.0094 0.0172298 0)
(13.0246 0.0173288 0)
(13.0398 0.0174253 0)
(13.0549 0.0175191 0)
(13.0699 0.0176101 0)
(13.0849 0.0176985 0)
(13.0998 0.0177837 0)
(13.1146 0.0178662 0)
(13.1293 0.0179449 0)
(13.1441 0.0180212 0)
(13.1586 0.0180924 0)
(13.1733 0.0181619 0)
(13.1875 0.0182239 0)
(13.2023 0.0182866 0)
(13.216 0.0183373 0)
(13.2312 0.0183943 0)
(13.2439 0.0184318 0)
(13.2602 0.0184873 0)
(13.2709 0.0185096 0)
(13.2897 0.0185704 0)
(13.2958 0.0185701 0)
(13.3205 0.0186434 0)
(9.87052 -0.00956822 0)
(9.88964 -0.0283196 0)
(9.91919 -0.0459732 0)
(9.95819 -0.0619051 0)
(10.0076 -0.0757544 0)
(10.0667 -0.0873689 0)
(10.1339 -0.0966685 0)
(10.2071 -0.103618 0)
(10.2846 -0.108275 0)
(10.3649 -0.110819 0)
(10.4467 -0.111506 0)
(10.529 -0.110611 0)
(10.6107 -0.108389 0)
(10.6912 -0.105061 0)
(10.7697 -0.100825 0)
(10.8459 -0.095876 0)
(10.9192 -0.0903996 0)
(10.9895 -0.0845653 0)
(11.0566 -0.0785242 0)
(11.1204 -0.072399 0)
(11.1809 -0.0662952 0)
(11.2382 -0.0603034 0)
(11.2923 -0.0545046 0)
(11.3436 -0.048968 0)
(11.392 -0.0437478 0)
(11.4379 -0.0388821 0)
(11.4814 -0.0343953 0)
(11.5226 -0.0302988 0)
(11.5619 -0.0265935 0)
(11.5993 -0.0232702 0)
(11.635 -0.020312 0)
(11.6692 -0.0176958 0)
(11.7021 -0.0153952 0)
(11.7337 -0.0133819 0)
(11.7642 -0.0116286 0)
(11.7936 -0.0101078 0)
(11.8222 -0.00879329 0)
(11.85 -0.00765362 0)
(11.877 -0.00665905 0)
(11.9034 -0.00578563 0)
(11.9291 -0.00501407 0)
(11.9543 -0.00432737 0)
(11.979 -0.00370989 0)
(12.0032 -0.00314782 0)
(12.027 -0.0026286 0)
(12.0504 -0.00214393 0)
(12.0735 -0.00169011 0)
(12.0963 -0.0012654 0)
(12.1187 -0.000868123 0)
(12.1409 -0.000496111 0)
(12.1627 -0.000148181 0)
(12.1843 0.000176502 0)
(12.2057 0.00047668 0)
(12.2268 0.000757188 0)
(12.2477 0.00102466 0)
(12.2684 0.00128301 0)
(12.2889 0.00153373 0)
(12.3092 0.0017771 0)
(12.3293 0.00201366 0)
(12.3492 0.00224401 0)
(12.3689 0.00246893 0)
(12.3884 0.0026888 0)
(12.4078 0.00290406 0)
(12.4269 0.00311479 0)
(12.446 0.00332127 0)
(12.4648 0.00352359 0)
(12.4835 0.00372194 0)
(12.5021 0.00391618 0)
(12.5205 0.00410628 0)
(12.5387 0.00429202 0)
(12.5568 0.00447342 0)
(12.5748 0.0046504 0)
(12.5926 0.00482309 0)
(12.6102 0.00499143 0)
(12.6278 0.00515557 0)
(12.6452 0.00531544 0)
(12.6625 0.00547121 0)
(12.6796 0.00562286 0)
(12.6966 0.00577066 0)
(12.7135 0.00591462 0)
(12.7303 0.006055 0)
(12.747 0.00619182 0)
(12.7635 0.00632533 0)
(12.7799 0.00645552 0)
(12.7963 0.00658265 0)
(12.8124 0.00670671 0)
(12.8285 0.00682792 0)
(12.8445 0.00694626 0)
(12.8604 0.00706191 0)
(12.8761 0.00717486 0)
(12.8918 0.00728528 0)
(12.9074 0.00739316 0)
(12.9228 0.00749865 0)
(12.9382 0.00760177 0)
(12.9534 0.00770259 0)
(12.9686 0.0078012 0)
(12.9837 0.00789754 0)
(12.9987 0.00799185 0)
(13.0135 0.00808376 0)
(13.0283 0.00817393 0)
(13.0431 0.00826132 0)
(13.0577 0.00834749 0)
(13.0722 0.00843 0)
(13.0867 0.00851239 0)
(13.101 0.00858921 0)
(13.1153 0.0086683 0)
(13.1295 0.00873787 0)
(13.1437 0.00881491 0)
(13.1576 0.0088744 0)
(13.1718 0.00895263 0)
(13.1854 0.0089972 0)
(13.1996 0.00908427 0)
(13.2127 0.0091058 0)
(13.2273 0.00921843 0)
(13.2395 0.00920373 0)
(13.255 0.00937621 0)
(13.2653 0.00930607 0)
(13.2832 0.00960838 0)
(13.2891 0.00947485 0)
(13.3126 0.0100749 0)
(9.87056 -0.0167125 0)
(9.89067 -0.0494643 0)
(9.92219 -0.0802971 0)
(9.96386 -0.108116 0)
(10.0163 -0.132327 0)
(10.0787 -0.152657 0)
(10.1492 -0.168939 0)
(10.2259 -0.181108 0)
(10.3069 -0.189297 0)
(10.3905 -0.193841 0)
(10.4755 -0.195193 0)
(10.5606 -0.193847 0)
(10.645 -0.190276 0)
(10.7279 -0.184917 0)
(10.8085 -0.178187 0)
(10.8865 -0.17047 0)
(10.9614 -0.162111 0)
(11.0329 -0.153391 0)
(11.1009 -0.144538 0)
(11.1652 -0.135724 0)
(11.2261 -0.12708 0)
(11.2834 -0.118704 0)
(11.3373 -0.110675 0)
(11.3881 -0.103055 0)
(11.4358 -0.0958907 0)
(11.4808 -0.0892136 0)
(11.5231 -0.0830422 0)
(11.5631 -0.0773817 0)
(11.6009 -0.0722278 0)
(11.6367 -0.0675658 0)
(11.6707 -0.0633736 0)
(11.7032 -0.0596229 0)
(11.7341 -0.0562814 0)
(11.7638 -0.0533138 0)
(11.7923 -0.0506837 0)
(11.8197 -0.0483564 0)
(11.8462 -0.0462994 0)
(11.8718 -0.0444861 0)
(11.8966 -0.0428886 0)
(11.9207 -0.0414759 0)
(11.9441 -0.0402179 0)
(11.9669 -0.0390876 0)
(11.9892 -0.0380607 0)
(12.0109 -0.0371153 0)
(12.0322 -0.0362326 0)
(12.053 -0.0353998 0)
(12.0733 -0.0346108 0)
(12.0933 -0.0338614 0)
(12.1129 -0.0331476 0)
(12.1321 -0.0324654 0)
(12.1509 -0.0318102 0)
(12.1695 -0.0311774 0)
(12.1877 -0.0305604 0)
(12.2056 -0.029957 0)
(12.2232 -0.0293675 0)
(12.2405 -0.0287911 0)
(12.2576 -0.0282271 0)
(12.2744 -0.027674 0)
(12.2909 -0.0271312 0)
(12.3072 -0.0265976 0)
(12.3232 -0.0260732 0)
(12.339 -0.0255572 0)
(12.3545 -0.0250497 0)
(12.3699 -0.0245503 0)
(12.3849 -0.0240593 0)
(12.3998 -0.0235762 0)
(12.4144 -0.0231015 0)
(12.4289 -0.0226347 0)
(12.4431 -0.0221763 0)
(12.4571 -0.0217257 0)
(12.4709 -0.0212835 0)
(12.4845 -0.0208488 0)
(12.498 -0.020422 0)
(12.5112 -0.0200023 0)
(12.5243 -0.0195902 0)
(12.5371 -0.0191851 0)
(12.5498 -0.0187876 0)
(12.5624 -0.0183971 0)
(12.5747 -0.0180139 0)
(12.5869 -0.0176373 0)
(12.5989 -0.0172677 0)
(12.6108 -0.0169044 0)
(12.6225 -0.0165477 0)
(12.634 -0.016197 0)
(12.6454 -0.0158526 0)
(12.6567 -0.0155138 0)
(12.6678 -0.0151812 0)
(12.6787 -0.0148538 0)
(12.6895 -0.0145323 0)
(12.7002 -0.0142158 0)
(12.7107 -0.0139049 0)
(12.7212 -0.0135988 0)
(12.7314 -0.0132982 0)
(12.7416 -0.0130021 0)
(12.7516 -0.0127114 0)
(12.7615 -0.0124249 0)
(12.7713 -0.0121439 0)
(12.781 -0.0118668 0)
(12.7905 -0.0115953 0)
(12.8 -0.0113272 0)
(12.8093 -0.0110653 0)
(12.8185 -0.0108057 0)
(12.8276 -0.0105539 0)
(12.8367 -0.0103022 0)
(12.8456 -0.0100613 0)
(12.8544 -0.00981599 0)
(12.8631 -0.00958831 0)
(12.8718 -0.00934609 0)
(12.8802 -0.00913594 0)
(12.8888 -0.00888969 0)
(12.897 -0.00870559 0)
(12.9054 -0.00843978 0)
(12.9133 -0.00829784 0)
(12.9219 -0.0079794 0)
(12.9291 -0.00790845 0)
(12.9382 -0.0074695 0)
(12.9441 -0.00751562 0)
(12.9546 -0.00681864 0)
(12.9579 -0.00702342 0)
(12.9715 -0.00576896 0)
(9.87063 -0.0241234 0)
(9.89227 -0.070638 0)
(9.92707 -0.113684 0)
(9.97371 -0.152454 0)
(10.0326 -0.186652 0)
(10.1029 -0.215867 0)
(10.1823 -0.239636 0)
(10.2682 -0.257753 0)
(10.3578 -0.27038 0)
(10.4486 -0.277899 0)
(10.5386 -0.280777 0)
(10.6262 -0.279561 0)
(10.7102 -0.274785 0)
(10.7897 -0.266997 0)
(10.8641 -0.256795 0)
(10.933 -0.244787 0)
(10.9964 -0.231543 0)
(11.0542 -0.217564 0)
(11.1067 -0.203274 0)
(11.154 -0.189032 0)
(11.1967 -0.17513 0)
(11.2349 -0.161793 0)
(11.269 -0.149185 0)
(11.2995 -0.137415 0)
(11.3266 -0.12655 0)
(11.3507 -0.11662 0)
(11.3721 -0.107624 0)
(11.3911 -0.0995381 0)
(11.4079 -0.0923189 0)
(11.4229 -0.085911 0)
(11.4361 -0.0802506 0)
(11.4478 -0.0752694 0)
(11.4582 -0.0708968 0)
(11.4673 -0.0670616 0)
(11.4754 -0.0636967 0)
(11.4825 -0.0607374 0)
(11.4887 -0.0581366 0)
(11.4941 -0.0558537 0)
(11.4987 -0.0538458 0)
(11.5027 -0.0520681 0)
(11.5061 -0.0504798 0)
(11.5089 -0.0490458 0)
(11.5113 -0.0477364 0)
(11.5131 -0.0465264 0)
(11.5145 -0.045399 0)
(11.5155 -0.0443406 0)
(11.5162 -0.0433383 0)
(11.5165 -0.0423807 0)
(11.5164 -0.0414582 0)
(11.5161 -0.040563 0)
(11.5155 -0.0396891 0)
(11.5146 -0.0388319 0)
(11.5135 -0.0379884 0)
(11.5122 -0.0371582 0)
(11.5107 -0.0363415 0)
(11.509 -0.035538 0)
(11.5071 -0.0347465 0)
(11.5051 -0.033966 0)
(11.5029 -0.033196 0)
(11.5005 -0.0324363 0)
(11.4981 -0.0316872 0)
(11.4955 -0.0309488 0)
(11.4928 -0.0302215 0)
(11.49 -0.0295055 0)
(11.4872 -0.0288011 0)
(11.4843 -0.0281085 0)
(11.4812 -0.0274281 0)
(11.4782 -0.0267601 0)
(11.475 -0.0261049 0)
(11.4719 -0.0254627 0)
(11.4687 -0.0248338 0)
(11.4654 -0.0242181 0)
(11.4621 -0.0236152 0)
(11.4588 -0.0230247 0)
(11.4555 -0.0224463 0)
(11.4522 -0.02188 0)
(11.4488 -0.0213258 0)
(11.4455 -0.0207833 0)
(11.4422 -0.0202525 0)
(11.4388 -0.0197331 0)
(11.4355 -0.019225 0)
(11.4321 -0.0187279 0)
(11.4288 -0.0182418 0)
(11.4255 -0.0177663 0)
(11.4223 -0.0173014 0)
(11.419 -0.0168467 0)
(11.4158 -0.0164024 0)
(11.4126 -0.0159678 0)
(11.4094 -0.0155432 0)
(11.4063 -0.0151279 0)
(11.4032 -0.0147224 0)
(11.4002 -0.0143259 0)
(11.3971 -0.0139388 0)
(11.3942 -0.0135602 0)
(11.3912 -0.0131907 0)
(11.3884 -0.0128293 0)
(11.3855 -0.0124768 0)
(11.3827 -0.0121319 0)
(11.38 -0.0117959 0)
(11.3773 -0.0114668 0)
(11.3747 -0.011147 0)
(11.3721 -0.0108328 0)
(11.3696 -0.010529 0)
(11.3671 -0.0102289 0)
(11.3647 -0.00994155 0)
(11.3624 -0.00965393 0)
(11.36 -0.00938417 0)
(11.3578 -0.00910597 0)
(11.3556 -0.00885654 0)
(11.3535 -0.00858133 0)
(11.3514 -0.00835814 0)
(11.3494 -0.00807221 0)
(11.3474 -0.00788704 0)
(11.3456 -0.00756038 0)
(11.3437 -0.00743554 0)
(11.342 -0.00700291 0)
(11.3403 -0.00697779 0)
(11.3385 -0.00629776 0)
(11.3372 -0.00642048 0)
(11.335 -0.00517094 0)
(9.87166 -0.0410437 0)
(9.90806 -0.113586 0)
(9.96468 -0.175699 0)
(10.0325 -0.229657 0)
(10.1053 -0.276256 0)
(10.1765 -0.314648 0)
(10.2403 -0.344169 0)
(10.2921 -0.365002 0)
(10.3295 -0.378015 0)
(10.3516 -0.384165 0)
(10.3593 -0.384389 0)
(10.3536 -0.379629 0)
(10.3361 -0.370701 0)
(10.3087 -0.358375 0)
(10.273 -0.34342 0)
(10.2307 -0.326548 0)
(10.1832 -0.308391 0)
(10.1319 -0.289488 0)
(10.078 -0.2703 0)
(10.0224 -0.251218 0)
(9.96599 -0.232554 0)
(9.90941 -0.214565 0)
(9.85317 -0.197425 0)
(9.79765 -0.181258 0)
(9.74315 -0.166144 0)
(9.68989 -0.152126 0)
(9.638 -0.139215 0)
(9.58757 -0.127397 0)
(9.53863 -0.116636 0)
(9.49119 -0.106884 0)
(9.44523 -0.0980794 0)
(9.40072 -0.0901573 0)
(9.35761 -0.0830433 0)
(9.31584 -0.0766681 0)
(9.27536 -0.0709598 0)
(9.23611 -0.0658496 0)
(9.19802 -0.061266 0)
(9.16102 -0.057142 0)
(9.12508 -0.0534219 0)
(9.09017 -0.0500598 0)
(9.05623 -0.0470153 0)
(9.02324 -0.0442509 0)
(8.99114 -0.0417343 0)
(8.95992 -0.0394377 0)
(8.92953 -0.0373393 0)
(8.89996 -0.035419 0)
(8.87119 -0.0336571 0)
(8.8432 -0.0320351 0)
(8.81597 -0.0305372 0)
(8.78949 -0.0291496 0)
(8.76375 -0.0278606 0)
(8.73871 -0.0266598 0)
(8.71437 -0.0255384 0)
(8.69071 -0.0244886 0)
(8.66772 -0.0235037 0)
(8.64539 -0.0225774 0)
(8.62369 -0.0217035 0)
(8.60261 -0.0208772 0)
(8.58215 -0.020094 0)
(8.56228 -0.0193501 0)
(8.54299 -0.0186423 0)
(8.52427 -0.0179681 0)
(8.5061 -0.0173249 0)
(8.48848 -0.0167106 0)
(8.47138 -0.0161232 0)
(8.4548 -0.015561 0)
(8.43872 -0.0150225 0)
(8.42312 -0.0145063 0)
(8.408 -0.0140112 0)
(8.39335 -0.0135359 0)
(8.37914 -0.0130798 0)
(8.36536 -0.0126419 0)
(8.35201 -0.0122221 0)
(8.33907 -0.0118198 0)
(8.32654 -0.0114343 0)
(8.31438 -0.0110645 0)
(8.30261 -0.0107096 0)
(8.2912 -0.0103686 0)
(8.28014 -0.0100409 0)
(8.26942 -0.00972589 0)
(8.25904 -0.00942288 0)
(8.24898 -0.00913126 0)
(8.23923 -0.00885056 0)
(8.22979 -0.00858022 0)
(8.22064 -0.00831985 0)
(8.21177 -0.00806895 0)
(8.20318 -0.0078272 0)
(8.19486 -0.00759416 0)
(8.1868 -0.00736956 0)
(8.17899 -0.00715299 0)
(8.17142 -0.00694424 0)
(8.16409 -0.0067429 0)
(8.15699 -0.00654881 0)
(8.15011 -0.00636151 0)
(8.14344 -0.00618091 0)
(8.13699 -0.00600653 0)
(8.13073 -0.00583841 0)
(8.12468 -0.005676 0)
(8.1188 -0.00551955 0)
(8.11312 -0.00536828 0)
(8.1076 -0.00522276 0)
(8.10227 -0.0050818 0)
(8.0971 -0.00494664 0)
(8.09209 -0.0048152 0)
(8.08723 -0.00469005 0)
(8.08254 -0.00456733 0)
(8.07797 -0.00445205 0)
(8.07357 -0.00433681 0)
(8.06928 -0.00423125 0)
(8.06516 -0.0041213 0)
(8.06113 -0.00402519 0)
(8.05725 -0.00391617 0)
(8.05348 -0.00382832 0)
(8.04982 -0.00371042 0)
(8.04636 -0.0036274 0)
(8.04281 -0.00347654 0)
(8.03982 -0.0033911 0)
(8.03615 -0.00314704 0)
(8.03415 -0.0030589 0)
(8.02959 -0.00259874 0)
(9.8526 -0.0303735 0)
(9.77705 -0.112447 0)
(9.61917 -0.186776 0)
(9.38755 -0.245208 0)
(9.10309 -0.286625 0)