/*--------------------------------*- C++ -*----------------------------------*\
  =========                 |
  \\      /  F ield         | OpenFOAM: The Open Source CFD Toolbox
   \\    /   O peration     | Website:  https://openfoam.org
    \\  /    A nd           | Version:  7
     \\/     M anipulation  |
\*---------------------------------------------------------------------------*/
FoamFile
{
    version     2.0;
    format      ascii;
    class       volVectorField;
    location    "0.49";
    object      UMean;
}
// * * * * * * * * * * * * * * * * * * * * * * * * * * * * * * * * * * * * * //

dimensions      [0 1 -1 0 0 0 0];

internalField   nonuniform List<vector> 
13200
(
(1.99368 0.034658 -32.2551)
(1.19102 -0.365203 -32.3097)
(0.755754 -0.413509 -32.3116)
(0.754532 -0.423904 -32.3171)
(0.643323 -0.429324 -32.3145)
(0.687737 -0.430521 -32.3175)
(0.614759 -0.4318 -32.315)
(0.658026 -0.431169 -32.3171)
(0.600611 -0.431929 -32.3151)
(0.639029 -0.431227 -32.3168)
(0.592293 -0.431723 -32.3153)
(0.625754 -0.43111 -32.3167)
(0.587035 -0.431534 -32.3158)
(0.616097 -0.431111 -32.3169)
(0.583309 -0.431383 -32.3165)
(0.608848 -0.431399 -32.3173)
(0.579684 -0.430412 -32.3175)
(0.602646 -0.432841 -32.3173)
(0.572102 -0.410848 -32.3195)
(0.53199 -0.418015 -32.3122)
(3.68452 0.902891 -32.3812)
(2.98348 0.54983 -32.4453)
(2.19515 0.46084 -32.4534)
(2.14389 0.424462 -32.4643)
(1.89291 0.419182 -32.4614)
(1.97325 0.417833 -32.4662)
(1.81147 0.416052 -32.4623)
(1.89835 0.415907 -32.4652)
(1.77256 0.4148 -32.4619)
(1.85283 0.414854 -32.464)
(1.75121 0.413979 -32.4618)
(1.82264 0.414127 -32.4637)
(1.73875 0.413487 -32.4627)
(1.80171 0.413821 -32.4644)
(1.73042 0.413213 -32.4647)
(1.78693 0.414079 -32.4655)
(1.72172 0.412319 -32.4678)
(1.78167 0.416209 -32.4653)
(1.70008 0.403317 -32.4747)
(1.88828 0.410882 -32.4442)
(4.53116 0.459839 -32.4062)
(4.5616 -0.0786277 -32.4592)
(3.93342 -0.24337 -32.4632)
(3.85817 -0.342667 -32.4783)
(3.53048 -0.37618 -32.4754)
(3.58818 -0.389386 -32.4828)
(3.37821 -0.395943 -32.4773)
(3.46334 -0.398512 -32.4812)
(3.30527 -0.400949 -32.4757)
(3.39016 -0.40169 -32.4783)
(3.26442 -0.402918 -32.4742)
(3.34298 -0.403117 -32.4766)
(3.24033 -0.403916 -32.4747)
(3.31132 -0.403837 -32.477)
(3.22434 -0.404494 -32.4779)
(3.28919 -0.404086 -32.479)
(3.20985 -0.404835 -32.4841)
(3.27069 -0.403322 -32.4792)
(3.1895 -0.402715 -32.4967)
(3.20588 -0.397617 -32.4551)
(4.79698 0.839968 -32.4222)
(5.20875 0.613083 -32.4652)
(4.93099 0.538524 -32.4651)
(4.97889 0.459321 -32.4785)
(4.71692 0.429507 -32.477)
(4.77738 0.413657 -32.4845)
(4.58191 0.405464 -32.4804)
(4.65191 0.400632 -32.4835)
(4.49913 0.397339 -32.4782)
(4.56857 0.394914 -32.4791)
(4.44648 0.393065 -32.4746)
(4.51193 0.391581 -32.4751)
(4.41245 0.39038 -32.4727)
(4.47328 0.389853 -32.4733)
(4.38847 0.388716 -32.4745)
(4.44812 0.389831 -32.4746)
(4.36364 0.387347 -32.4811)
(4.44433 0.392835 -32.4764)
(4.3175 0.384646 -32.4933)
(4.51423 0.41073 -32.4574)
(4.84981 0.316871 -32.4231)
(5.38695 -0.0721901 -32.4598)
(5.32946 -0.18218 -32.4545)
(5.48804 -0.281302 -32.4661)
(5.31187 -0.322008 -32.4634)
(5.40241 -0.343212 -32.4715)
(5.24149 -0.355756 -32.4675)
(5.31545 -0.363202 -32.4712)
(5.18075 -0.368928 -32.4655)
(5.24549 -0.372782 -32.4665)
(5.13388 -0.376025 -32.4611)
(5.19171 -0.378125 -32.4611)
(5.09912 -0.380134 -32.4571)
(5.15141 -0.380776 -32.4569)
(5.07315 -0.382766 -32.456)
(5.1213 -0.380887 -32.4563)
(5.05275 -0.38614 -32.4604)
(5.09501 -0.375815 -32.4592)
(5.03498 -0.394175 -32.4697)
(5.04242 -0.373736 -32.4449)
(4.83577 0.600043 -32.4299)
(5.34563 0.507524 -32.4655)
(5.39475 0.492208 -32.4591)
(5.62717 0.438983 -32.4694)
(5.51951 0.417197 -32.4664)
(5.6521 0.403042 -32.4742)
(5.53207 0.39498 -32.4707)
(5.62644 0.389561 -32.4745)
(5.51555 0.38554 -32.4692)
(5.58861 0.382295 -32.4701)
(5.49098 0.379852 -32.4648)
(5.55033 0.377771 -32.4645)
(5.46576 0.375987 -32.4599)
(5.51586 0.375098 -32.459)
(5.44266 0.373302 -32.4565)
(5.48734 0.37439 -32.4564)
(5.42113 0.371148 -32.4579)
(5.4687 0.376032 -32.4586)
(5.40161 0.370785 -32.4647)
(5.47303 0.403876 -32.4443)
(4.82301 0.133348 -32.4301)
(5.29286 -0.146576 -32.4636)
(5.37719 -0.215248 -32.4555)
(5.6388 -0.284652 -32.4651)
(5.56591 -0.313517 -32.4612)
(5.7245 -0.329199 -32.469)
(5.63015 -0.339186 -32.4651)
(5.74291 -0.3455 -32.4692)
(5.65126 -0.350727 -32.4638)
(5.73611 -0.354517 -32.4649)
(5.65168 -0.358025 -32.4595)
(5.71733 -0.36054 -32.4595)
(5.64154 -0.363141 -32.4546)
(5.69329 -0.364079 -32.4537)
(5.62734 -0.36685 -32.45)
(5.66715 -0.364632 -32.4498)
(5.61557 -0.371219 -32.4493)
(5.63519 -0.358892 -32.4509)
(5.61517 -0.380834 -32.4543)
(5.57648 -0.365413 -32.4361)
(4.81103 0.39108 -32.4347)
(5.23934 0.398933 -32.4678)
(5.33754 0.41421 -32.4597)
(5.61125 0.392438 -32.4689)
(5.55367 0.384424 -32.4648)
(5.72655 0.377972 -32.4724)
(5.64709 0.374454 -32.4685)
(5.77227 0.371977 -32.4725)
(5.69318 0.37007 -32.4671)
(5.78765 0.368406 -32.4683)
(5.71317 0.367149 -32.463)
(5.78538 0.366036 -32.4632)
(5.7168 0.36506 -32.4582)
(5.772 0.364467 -32.4574)
(5.71113 0.363402 -32.4532)
(5.75213 0.363564 -32.4529)
(5.70294 0.362318 -32.4515)
(5.72841 0.362648 -32.4531)
(5.70395 0.365016 -32.4555)
(5.70382 0.390399 -32.4373)
(4.80402 -0.0380477 -32.4358)
(5.20891 -0.224835 -32.4673)
(5.31159 -0.272221 -32.4586)
(5.58756 -0.311427 -32.4675)
(5.53556 -0.327963 -32.463)
(5.71388 -0.336488 -32.4704)
(5.64002 -0.342028 -32.4663)
(5.77106 -0.345455 -32.4702)
(5.69818 -0.348423 -32.4647)
(5.79824 -0.350531 -32.466)
(5.72958 -0.352692 -32.4606)
(5.80629 -0.35422 -32.4609)
(5.74276 -0.356062 -32.456)
(5.80071 -0.356592 -32.4553)
(5.74461 -0.358654 -32.4509)
(5.78499 -0.356795 -32.4505)
(5.74376 -0.361884 -32.4488)
(5.75751 -0.351977 -32.4503)
(5.75355 -0.369968 -32.4523)
(5.70922 -0.367282 -32.4341)
(4.80029 0.208576 -32.4388)
(5.1923 0.306834 -32.4695)
(5.29755 0.33941 -32.4606)
(5.57505 0.348184 -32.4692)
(5.52483 0.35262 -32.4645)
(5.70511 0.353828 -32.4719)
(5.63335 0.354914 -32.4676)
(5.76665 0.355467 -32.4715)
(5.69616 0.356046 -32.4659)
(5.7986 0.356325 -32.4672)
(5.73245 0.356804 -32.4618)
(5.81131 0.357049 -32.4622)
(5.75005 0.357548 -32.4572)
(5.8096 0.357519 -32.4566)
(5.75531 0.358073 -32.4521)
(5.79683 0.357137 -32.4518)
(5.75625 0.359177 -32.4499)
(5.7732 0.354212 -32.4513)
(5.76696 0.36498 -32.4533)
(5.73694 0.377558 -32.4348)
(4.80029 -0.208576 -32.4388)
(5.1923 -0.306835 -32.4695)
(5.29755 -0.33941 -32.4606)
(5.57505 -0.348183 -32.4692)
(5.52483 -0.35262 -32.4645)
(5.70511 -0.353827 -32.4719)
(5.63336 -0.354914 -32.4676)
(5.76665 -0.355465 -32.4715)
(5.69616 -0.356045 -32.4659)
(5.7986 -0.35632 -32.4672)
(5.73246 -0.356801 -32.4618)
(5.81131 -0.357036 -32.4622)
(5.75008 -0.357536 -32.4572)
(5.80958 -0.357471 -32.4566)
(5.75539 -0.358042 -32.4521)
(5.79676 -0.35695 -32.4518)
(5.75641 -0.359108 -32.4499)
(5.77306 -0.353559 -32.4513)
(5.767 -0.364594 -32.4533)
(5.73699 -0.375821 -32.4348)
(4.80402 0.0380475 -32.4358)
(5.20891 0.224835 -32.4673)
(5.31159 0.272221 -32.4586)
(5.58756 0.311428 -32.4675)
(5.53556 0.327963 -32.463)
(5.71388 0.336489 -32.4704)
(5.64002 0.342028 -32.4663)
(5.77106 0.345457 -32.4703)
(5.69818 0.348423 -32.4647)
(5.79824 0.350535 -32.466)
(5.72958 0.352696 -32.4606)
(5.8063 0.35423 -32.4609)
(5.74274 0.356075 -32.456)
(5.80073 0.356629 -32.4553)
(5.74456 0.358689 -32.4509)
(5.78505 0.356956 -32.4505)
(5.74371 0.361959 -32.4488)
(5.7577 0.3526 -32.4503)
(5.75377 0.370314 -32.4524)
(5.70963 0.368994 -32.4339)
(4.81103 -0.39108 -32.4347)
(5.23934 -0.398933 -32.4678)
(5.33754 -0.41421 -32.4597)
(5.61125 -0.392438 -32.4689)
(5.55367 -0.384424 -32.4648)
(5.72655 -0.377972 -32.4724)
(5.64709 -0.374454 -32.4685)
(5.77227 -0.371975 -32.4725)
(5.69318 -0.37007 -32.467)
(5.78765 -0.3684 -32.4683)
(5.71318 -0.367147 -32.4629)
(5.78538 -0.366018 -32.4632)
(5.71682 -0.365049 -32.4582)
(5.77199 -0.364404 -32.4575)
(5.71122 -0.363376 -32.4532)
(5.75209 -0.363334 -32.4529)
(5.70319 -0.362271 -32.4515)
(5.72834 -0.3619 -32.4532)
(5.70431 -0.364713 -32.4556)
(5.7042 -0.388609 -32.4371)
(4.82301 -0.133348 -32.4301)
(5.29286 0.146576 -32.4636)
(5.37719 0.215247 -32.4555)
(5.6388 0.284652 -32.4651)
(5.56591 0.313517 -32.4612)
(5.7245 0.329199 -32.469)
(5.63015 0.339187 -32.4651)
(5.74291 0.345501 -32.4692)
(5.65126 0.350728 -32.4637)
(5.73611 0.35452 -32.465)
(5.65167 0.358029 -32.4595)
(5.71735 0.360545 -32.4596)
(5.64153 0.363155 -32.4545)
(5.69333 0.364099 -32.4538)
(5.62732 0.366886 -32.4498)
(5.66726 0.364731 -32.45)
(5.61565 0.371299 -32.449)
(5.63549 0.359376 -32.4513)
(5.61575 0.381139 -32.454)
(5.57749 0.366951 -32.4364)
(4.83577 -0.600043 -32.4299)
(5.34563 -0.507524 -32.4655)
(5.39475 -0.492208 -32.4591)
(5.62717 -0.438983 -32.4694)
(5.51951 -0.417198 -32.4664)
(5.6521 -0.403042 -32.4742)
(5.53207 -0.39498 -32.4707)
(5.62644 -0.389559 -32.4745)
(5.51555 -0.385541 -32.4692)
(5.58861 -0.38229 -32.4702)
(5.49099 -0.379851 -32.4647)
(5.55034 -0.377753 -32.4646)
(5.46578 -0.375979 -32.4597)
(5.51589 -0.375036 -32.4593)
(5.44275 -0.37328 -32.4561)
(5.4874 -0.374143 -32.457)
(5.42146 -0.371134 -32.457)
(5.46883 -0.37527 -32.4598)
(5.40244 -0.37064 -32.4632)
(5.47384 -0.402219 -32.4461)
(4.84981 -0.316871 -32.4231)
(5.38695 0.0721899 -32.4599)
(5.32946 0.18218 -32.4545)
(5.48804 0.281302 -32.4661)
(5.31187 0.322008 -32.4633)
(5.40242 0.343212 -32.4715)
(5.24149 0.355757 -32.4675)
(5.31545 0.363203 -32.4713)
(5.18075 0.36893 -32.4655)
(5.2455 0.372783 -32.4666)
(5.13387 0.376029 -32.461)
(5.19174 0.378124 -32.4613)
(5.0991 0.380148 -32.4568)
(5.1515 0.380777 -32.4574)
(5.07314 0.382804 -32.4552)
(5.12155 0.380915 -32.4575)
(5.0529 0.386229 -32.4585)
(5.09567 0.376127 -32.462)
(5.03598 0.394411 -32.4656)
(5.0446 0.375049 -32.4506)
(4.79698 -0.839968 -32.4222)
(5.20875 -0.613083 -32.4652)
(4.93099 -0.538524 -32.4651)
(4.97889 -0.459321 -32.4785)
(4.71692 -0.429508 -32.477)
(4.77738 -0.413657 -32.4846)
(4.58191 -0.405464 -32.4804)
(4.65192 -0.400631 -32.4835)
(4.49913 -0.39734 -32.4781)
(4.56858 -0.39491 -32.4792)
(4.44648 -0.393063 -32.4745)
(4.51196 -0.391566 -32.4753)
(4.41247 -0.390373 -32.4723)
(4.47336 -0.389804 -32.474)
(4.38855 -0.388703 -32.4734)
(4.44836 -0.389641 -32.4763)
(4.364 -0.387367 -32.4782)
(4.44491 -0.392219 -32.4813)
(4.31883 -0.3847 -32.485)
(4.51594 -0.409667 -32.4707)
(4.53116 -0.459839 -32.4062)
(4.5616 0.0786275 -32.4592)
(3.93342 0.24337 -32.4632)
(3.85817 0.342667 -32.4783)
(3.53048 0.37618 -32.4754)
(3.58818 0.389386 -32.4828)
(3.37821 0.395943 -32.4773)
(3.46334 0.398511 -32.4812)
(3.30526 0.40095 -32.4757)
(3.39016 0.401688 -32.4783)
(3.26442 0.402921 -32.4741)
(3.34301 0.403109 -32.4767)
(3.24033 0.403928 -32.4744)
(3.31143 0.403816 -32.4775)
(3.22436 0.404531 -32.477)
(3.28952 0.404039 -32.4805)
(3.21012 0.404939 -32.4814)
(3.27161 0.403366 -32.4844)
(3.19092 0.402929 -32.4863)
(3.20942 0.398441 -32.4765)
(3.68452 -0.902891 -32.3812)
(2.98348 -0.54983 -32.4453)
(2.19515 -0.46084 -32.4534)
(2.14389 -0.424462 -32.4643)
(1.89291 -0.419182 -32.4614)
(1.97325 -0.417833 -32.4662)
(1.81147 -0.416052 -32.4623)
(1.89835 -0.415906 -32.4652)
(1.77256 -0.414801 -32.4619)
(1.85283 -0.414851 -32.464)
(1.75122 -0.413979 -32.4617)
(1.82266 -0.414116 -32.4637)
(1.73877 -0.413489 -32.4626)
(1.80178 -0.413787 -32.4646)
(1.73049 -0.413222 -32.4643)
(1.78711 -0.413969 -32.4662)
(1.72205 -0.412381 -32.4665)
(1.78206 -0.415942 -32.468)
(1.70154 -0.403543 -32.4684)
(1.88852 -0.410853 -32.4623)
(1.99368 -0.0346581 -32.2551)
(1.19102 0.365203 -32.3096)
(0.755754 0.413509 -32.3116)
(0.754532 0.423904 -32.3171)
(0.643323 0.429324 -32.3145)
(0.687737 0.430521 -32.3175)
(0.614759 0.4318 -32.315)
(0.658027 0.431168 -32.3171)
(0.600611 0.43193 -32.3151)
(0.639031 0.431224 -32.3168)
(0.592295 0.431724 -32.3153)
(0.625762 0.4311 -32.3167)
(0.58704 0.431539 -32.3157)
(0.616125 0.431081 -32.317)
(0.583329 0.431401 -32.3164)
(0.608934 0.431309 -32.3175)
(0.579804 0.430492 -32.3171)
(0.602858 0.43267 -32.318)
(0.572745 0.411198 -32.3178)
(0.533075 0.418328 -32.3174)
(3.75888 0.54479 0.00670055)
(2.22908 0.617423 0.00447628)
(1.62551 0.597093 0.00566987)
(1.37577 0.593916 0.00445569)
(1.33136 0.600255 0.00542054)
(1.25623 0.604527 0.0044066)
(1.25329 0.606223 0.0051994)
(1.2114 0.606955 0.00435467)
(1.21316 0.607015 0.00501201)
(1.18787 0.607113 0.00430717)
(1.18908 0.60688 0.00484872)
(1.17379 0.606878 0.00425999)
(1.17323 0.606603 0.0047032)
(1.16426 0.6067 0.00421268)
(1.16149 0.606252 0.0045725)
(1.15674 0.607362 0.0041655)
(1.15141 0.603736 0.00445487)
(1.15491 0.614974 0.00411694)
(1.12049 0.556343 0.00436146)
(1.44143 0.570839 0.00404616)
(4.76198 -0.018721 0.00440571)
(4.20617 -0.241253 0.00249715)
(3.7215 -0.431515 0.0037132)
(3.30623 -0.526371 0.00250845)
(3.14268 -0.56051 0.00348137)
(2.97859 -0.574729 0.0024699)
(2.93463 -0.580594 0.00326533)
(2.85465 -0.584078 0.00242015)
(2.84031 -0.585646 0.00307907)
(2.79617 -0.586825 0.00237347)
(2.78991 -0.587363 0.00291596)
(2.76512 -0.587892 0.00232654)
(2.76031 -0.588095 0.00277045)
(2.74683 -0.588383 0.00227945)
(2.74029 -0.588309 0.00263965)
(2.73401 -0.589345 0.00223275)
(2.72418 -0.586959 0.00252056)
(2.72144 -0.593462 0.0021864)
(2.71813 -0.584532 0.0023979)
(2.56189 -0.573138 0.00211455)
(4.74006 0.507899 0.00557742)
(4.84574 0.741307 0.00370592)
(4.75062 0.702955 0.00483744)
(4.48423 0.645774 0.0036166)
(4.3481 0.6155 0.00458044)
(4.1824 0.599286 0.00356605)
(4.12024 0.590193 0.00436064)
(4.02998 0.585391 0.00351459)
(4.00088 0.581496 0.0041727)
(3.95017 0.579469 0.00346661)
(3.93442 0.577103 0.00400874)
(3.90621 0.576068 0.00341914)
(3.89547 0.574477 0.00386298)
(3.88088 0.574313 0.00337185)
(3.86935 0.572963 0.00373249)
(3.8665 0.574326 0.00332461)
(3.84229 0.570104 0.00361583)
(3.87438 0.580295 0.0032754)
(3.78038 0.541757 0.00352987)
(4.00853 0.580492 0.00322478)
(4.6152 -0.0733378 0.00431196)
(4.84708 -0.200856 0.00265496)
(5.03384 -0.326322 0.00377713)
(4.97389 -0.419509 0.00257088)
(4.95701 -0.469775 0.00354173)
(4.85892 -0.50053 0.00253325)
(4.82526 -0.518275 0.00333002)
(4.75274 -0.530298 0.00248548)
(4.72709 -0.538153 0.00314459)
(4.68029 -0.543689 0.00243897)
(4.66223 -0.547615 0.00298128)
(4.63403 -0.550246 0.00239179)
(4.62043 -0.552312 0.00283558)
(4.60474 -0.553188 0.00234468)
(4.59222 -0.554796 0.00270504)
(4.5851 -0.554044 0.00229823)
(4.57069 -0.557416 0.00258628)
(4.56676 -0.551772 0.00225255)
(4.55784 -0.571181 0.00246034)
(4.44659 -0.544196 0.00219714)
(4.6023 0.395246 0.0052041)
(4.83447 0.628708 0.00361054)
(5.08447 0.643189 0.00466932)
(5.11934 0.617681 0.00345119)
(5.18522 0.597899 0.00440857)
(5.15341 0.583422 0.00339549)
(5.16504 0.572951 0.00419097)
(5.12652 0.565976 0.00334556)
(5.12117 0.560096 0.00400411)
(5.0896 0.55641 0.00329821)
(5.07916 0.552712 0.0038404)
(5.05668 0.550772 0.00325073)
(5.04501 0.548236 0.00369433)
(5.03077 0.547656 0.00320314)
(5.01785 0.54541 0.00356346)
(5.01219 0.546844 0.00315572)
(4.99177 0.542101 0.00344614)
(5.00637 0.5503 0.00310712)
(4.9561 0.524368 0.00335722)
(5.03803 0.574669 0.00306609)
(4.57888 -0.116396 0.0043953)
(4.75699 -0.252705 0.00290851)
(5.03282 -0.341827 0.00394824)
(5.11245 -0.408215 0.00273503)
(5.22897 -0.445582 0.00369304)
(5.24201 -0.470733 0.0026827)
(5.2904 -0.486144 0.00347862)
(5.28191 -0.497769 0.0026338)
(5.29897 -0.50606 0.00329281)
(5.28499 -0.51265 0.00258712)
(5.2868 -0.517824 0.00312934)
(5.27323 -0.521692 0.0025398)
(5.26768 -0.525147 0.00298344)
(5.25638 -0.526729 0.00249259)
(5.24816 -0.52981 0.00285271)
(5.23807 -0.528156 0.002446)
(5.23272 -0.534954 0.00273386)
(5.2122 -0.523213 0.00240048)
(5.23072 -0.549863 0.00261061)
(5.1026 -0.529002 0.0023526)
(4.59092 0.315671 0.00495208)
(4.75872 0.523429 0.00352091)
(5.01701 0.557957 0.00452651)
(5.09897 0.556036 0.00331189)
(5.22682 0.550726 0.00426231)
(5.25611 0.545941 0.00324952)
(5.32233 0.541558 0.00404498)
(5.3315 0.538545 0.00319982)
(5.36424 0.535369 0.00385864)
(5.36406 0.533454 0.00315291)
(5.37696 0.531147 0.00369525)
(5.37228 0.529989 0.00310578)
(5.37357 0.528254 0.00354948)
(5.36691 0.527886 0.00305846)
(5.36237 0.526265 0.00341861)
(5.35483 0.526874 0.00301103)
(5.34802 0.524335 0.00330055)
(5.3399 0.526993 0.00296257)
(5.33699 0.515917 0.00320563)
(5.32123 0.559493 0.00292122)
(4.58015 -0.1565 0.00449473)
(4.72204 -0.307629 0.00311437)
(4.98259 -0.378943 0.00410664)
(5.06887 -0.426988 0.00289205)
(5.20508 -0.453292 0.00384082)
(5.24252 -0.471083 0.0028287)
(5.31775 -0.481595 0.00362378)
(5.33574 -0.489747 0.00277846)
(5.37733 -0.49541 0.00343721)
(5.38532 -0.500263 0.0027313)
(5.40584 -0.504123 0.00327343)
(5.40745 -0.507229 0.00268383)
(5.41469 -0.510184 0.00312741)
(5.41159 -0.511565 0.00263663)
(5.41246 -0.514613 0.00299664)
(5.40353 -0.512809 0.00258995)
(5.40792 -0.519721 0.00287783)
(5.37999 -0.507643 0.00254401)
(5.41473 -0.530846 0.00276033)
(5.29338 -0.525467 0.00249776)
(4.58564 0.252559 0.00475931)
(4.72517 0.438756 0.00341034)
(4.97745 0.486013 0.00438754)
(5.06109 0.501618 0.00317493)
(5.19609 0.507425 0.00412097)
(5.23395 0.510749 0.00310828)
(5.31101 0.511806 0.00390348)
(5.33181 0.512903 0.00305827)
(5.37688 0.512948 0.00371713)
(5.38865 0.513503 0.00301136)
(5.41301 0.513418 0.00355369)
(5.41821 0.513798 0.00296426)
(5.42886 0.513751 0.00340802)
(5.42849 0.513968 0.00291713)
(5.43177 0.514103 0.00327733)
(5.42516 0.513571 0.00286994)
(5.42883 0.514808 0.003159)
(5.40899 0.511142 0.00282205)
(5.43249 0.514436 0.00305687)
(5.36725 0.543676 0.00277789)
(4.58219 -0.200712 0.00461259)
(4.71375 -0.36831 0.00327841)
(4.96661 -0.426857 0.00425096)
(5.05095 -0.458602 0.00303744)
(5.18755 -0.474719 0.00398241)
(5.22651 -0.485434 0.00296962)
(5.30479 -0.491313 0.00376452)
(5.32673 -0.496014 0.0029191)
(5.37321 -0.498916 0.00357783)
(5.38641 -0.501671 0.0028719)
(5.41245 -0.503641 0.00341407)
(5.41913 -0.505443 0.00282454)
(5.43154 -0.50705 0.00326816)
(5.43227 -0.50784 0.00277739)
(5.43755 -0.509723 0.00313741)
(5.43062 -0.508225 0.00273056)
(5.43834 -0.512998 0.00301874)
(5.41224 -0.503818 0.00268389)
(5.44752 -0.518748 0.00290839)
(5.35089 -0.530381 0.00263826)
(4.58219 0.200712 0.00461259)
(4.71375 0.36831 0.00327841)
(4.96661 0.426857 0.00425096)
(5.05095 0.458603 0.00303744)
(5.18755 0.474719 0.00398241)
(5.22651 0.485435 0.00296962)
(5.30479 0.491312 0.00376452)
(5.32673 0.496016 0.0029191)
(5.37321 0.498916 0.00357783)
(5.38641 0.501675 0.00287189)
(5.41244 0.503643 0.00341408)
(5.41913 0.505458 0.00282451)
(5.43151 0.507059 0.00326817)
(5.43228 0.507893 0.00277731)
(5.43746 0.509758 0.00313744)
(5.4307 0.508408 0.0027303)
(5.43813 0.513133 0.00301893)
(5.41254 0.504416 0.00268327)
(5.44746 0.519306 0.00290929)
(5.35107 0.532158 0.00263743)
(4.58564 -0.252559 0.00475931)
(4.72517 -0.438756 0.00341034)
(4.97745 -0.486013 0.00438754)
(5.06109 -0.501618 0.00317493)
(5.19609 -0.507425 0.00412097)
(5.23395 -0.510748 0.00310828)
(5.31101 -0.511807 0.00390348)
(5.33181 -0.512901 0.00305827)
(5.37688 -0.512948 0.00371713)
(5.38865 -0.513497 0.00301136)
(5.41302 -0.513417 0.00355368)
(5.41821 -0.513779 0.00296428)
(5.42889 -0.513744 0.00340801)
(5.42848 -0.513902 0.00291722)
(5.43189 -0.514075 0.00327729)
(5.4251 -0.513358 0.00287019)
(5.42912 -0.514694 0.00315879)
(5.40877 -0.510525 0.00282262)
(5.43282 -0.513855 0.00305595)
(5.36739 -0.54193 0.00277846)
(4.58015 0.1565 0.00449473)
(4.72204 0.307629 0.00311437)
(4.98259 0.378943 0.00410664)
(5.06887 0.426988 0.00289205)
(5.20508 0.453291 0.00384082)
(5.24252 0.471084 0.0028287)
(5.31775 0.481594 0.00362378)
(5.33574 0.489748 0.00277846)
(5.37733 0.49541 0.00343721)
(5.38532 0.500267 0.0027313)
(5.40583 0.504125 0.00327343)
(5.40746 0.507238 0.00268381)
(5.41467 0.510195 0.00312742)
(5.41161 0.511596 0.00263656)
(5.41241 0.514649 0.00299666)
(5.40363 0.512915 0.00258971)
(5.40783 0.519863 0.00287798)
(5.38036 0.508078 0.00254345)
(5.41495 0.531423 0.00276115)
(5.29409 0.527085 0.00249688)
(4.59092 -0.315671 0.00495208)
(4.75872 -0.523429 0.00352091)
(5.01701 -0.557957 0.00452651)
(5.09897 -0.556035 0.0033119)
(5.22682 -0.550726 0.00426231)
(5.25611 -0.54594 0.00324952)
(5.32233 -0.541558 0.00404497)
(5.3315 -0.538543 0.00319982)
(5.36424 -0.53537 0.00385864)
(5.36406 -0.533447 0.00315291)
(5.37697 -0.531146 0.00369524)
(5.37228 -0.529966 0.00310581)
(5.37361 -0.528249 0.00354946)
(5.36691 -0.527804 0.00305854)
(5.36249 -0.526243 0.00341854)
(5.35481 -0.526599 0.00301126)
(5.34838 -0.524251 0.0033003)
(5.3398 -0.526249 0.00296306)
(5.33767 -0.515469 0.00320468)
(5.3216 -0.557667 0.00292145)
(4.57888 0.116396 0.0043953)
(4.75699 0.252705 0.00290851)
(5.03282 0.341827 0.00394824)
(5.11245 0.408215 0.00273503)
(5.22897 0.445582 0.00369304)
(5.24201 0.470733 0.0026827)
(5.2904 0.486144 0.00347862)
(5.28191 0.49777 0.0026338)
(5.29896 0.50606 0.0032928)
(5.285 0.512651 0.00258712)
(5.28679 0.517828 0.00312934)
(5.27325 0.521695 0.00253979)
(5.26766 0.525159 0.00298342)
(5.25644 0.526733 0.00249255)
(5.24813 0.529845 0.00285269)
(5.23823 0.528179 0.00244585)
(5.23274 0.535096 0.00273391)
(5.21275 0.523447 0.0024001)
(5.23127 0.550416 0.00261122)
(5.1042 0.530404 0.00235191)
(4.6023 -0.395246 0.0052041)
(4.83447 -0.628708 0.00361054)
(5.08447 -0.643188 0.00466932)
(5.11934 -0.617681 0.00345119)
(5.18522 -0.597899 0.00440857)
(5.15341 -0.583421 0.00339549)
(5.16504 -0.572951 0.00419097)
(5.12652 -0.565974 0.00334556)
(5.12117 -0.560096 0.0040041)
(5.08961 -0.556403 0.00329822)
(5.07916 -0.552712 0.00384038)
(5.0567 -0.550748 0.00325077)
(5.04503 -0.548232 0.00369427)
(5.03082 -0.547569 0.00320325)
(5.01795 -0.545394 0.00356331)
(5.01231 -0.546546 0.00315601)
(4.99214 -0.54206 0.00344571)
(5.0066 -0.549535 0.00310774)
(4.95715 -0.524138 0.003356)
(5.03901 -0.573035 0.00306643)
(4.6152 0.0733378 0.00431196)
(4.84708 0.200856 0.00265496)
(5.03384 0.326322 0.00377713)
(4.97389 0.419509 0.00257088)
(4.95701 0.469775 0.00354173)
(4.85892 0.50053 0.00253325)
(4.82526 0.518275 0.00333002)
(4.75274 0.530298 0.00248548)
(4.72708 0.538154 0.00314458)
(4.68031 0.543688 0.00243897)
(4.66222 0.547619 0.00298127)
(4.63407 0.550239 0.00239179)
(4.62041 0.552323 0.00283554)
(4.60485 0.553164 0.00234468)
(4.59219 0.55483 0.00270495)
(4.58544 0.553978 0.00229822)
(4.57073 0.557558 0.00258611)
(4.56784 0.551765 0.00225256)
(4.55841 0.571698 0.00246032)
(4.45034 0.54537 0.00219728)
(4.74006 -0.507899 0.00557742)
(4.84574 -0.741307 0.00370592)
(4.75062 -0.702955 0.00483744)
(4.48423 -0.645774 0.0036166)
(4.3481 -0.6155 0.00458044)
(4.1824 -0.599286 0.00356605)
(4.12024 -0.590193 0.00436064)
(4.02998 -0.58539 0.0035146)
(4.00088 -0.581496 0.00417269)
(3.95018 -0.579464 0.00346662)
(3.93442 -0.577103 0.00400872)
(3.90624 -0.576049 0.00341918)
(3.89548 -0.574473 0.00386292)
(3.88098 -0.57424 0.00337197)
(3.86942 -0.572956 0.0037323)
(3.86679 -0.574082 0.00332497)
(3.84259 -0.570117 0.00361518)
(3.87524 -0.579637 0.0032764)
(3.7814 -0.541891 0.00352778)
(4.01127 -0.579653 0.00322677)
(4.76198 0.018721 0.00440571)
(4.20617 0.241253 0.00249715)
(3.7215 0.431515 0.0037132)
(3.30622 0.526371 0.00250845)
(3.14268 0.56051 0.00348137)
(2.97859 0.574729 0.0024699)
(2.93463 0.580594 0.00326533)
(2.85465 0.584078 0.00242015)
(2.84031 0.585647 0.00307907)
(2.79618 0.586821 0.00237346)
(2.78991 0.587366 0.00291596)
(2.76515 0.587878 0.00232653)
(2.76031 0.588103 0.00277044)
(2.74693 0.588334 0.00227943)
(2.74033 0.588337 0.0026396)
(2.73434 0.589195 0.00223274)
(2.72436 0.587087 0.00252039)
(2.72266 0.593152 0.00218653)
(2.71854 0.585037 0.00239741)
(2.56853 0.573792 0.00211582)
(3.75888 -0.54479 0.00670055)
(2.22908 -0.617423 0.00447628)
(1.62551 -0.597093 0.00566987)
(1.37577 -0.593916 0.00445569)
(1.33136 -0.600255 0.00542054)
(1.25623 -0.604527 0.0044066)
(1.25329 -0.606223 0.0051994)
(1.2114 -0.606954 0.00435468)
(1.21316 -0.607015 0.00501201)
(1.18788 -0.607108 0.00430717)
(1.18909 -0.606881 0.00484871)
(1.1738 -0.606862 0.00426)
(1.17325 -0.606606 0.00470317)
(1.1643 -0.606642 0.00421272)
(1.16156 -0.606266 0.00457242)
(1.15687 -0.607177 0.00416564)
(1.15169 -0.60383 0.00445457)
(1.15528 -0.614497 0.00411739)
(1.12162 -0.55707 0.00436021)
(1.44099 -0.571239 0.00404883)
(4.0345 0.142608 0.00124292)
(3.15228 0.105804 0.00147042)
(2.44054 0.0616541 0.000971961)
(2.1147 0.0330283 0.00129974)
(1.94862 0.0242477 0.000997504)
(1.91187 0.0259438 0.00118895)
(1.87399 0.0301 0.00098548)
(1.87446 0.0341777 0.00110079)
(1.854 0.0369209 0.000977392)
(1.85742 0.0389191 0.00104044)
(1.84449 0.0400317 0.000972769)
(1.84966 0.0408695 0.000999024)
(1.84171 0.0412855 0.000970608)
(1.84758 0.0416852 0.000972474)
(1.84129 0.0418061 0.000972094)
(1.84888 0.0422494 0.000958276)
(1.83731 0.0415968 0.000978843)
(1.85954 0.0437309 0.000951979)
(1.80798 0.038277 0.00098709)
(1.9058 0.0439997 0.000980556)
(4.59708 0.160371 0.0030414)
(4.61932 0.161851 0.00337652)
(4.38543 0.111871 0.00285639)
(4.19653 0.050479 0.00317043)
(4.00909 0.0101867 0.00286108)
(3.91446 -0.0122116 0.00305117)
(3.82033 -0.0232437 0.00284653)
(3.78378 -0.029727 0.00296217)
(3.73614 -0.0334764 0.00283819)
(3.72684 -0.0363443 0.00290161)
(3.70417 -0.0381497 0.00283371)
(3.70851 -0.0395027 0.00286039)
(3.69795 -0.0403554 0.00283211)
(3.70818 -0.0407655 0.00283428)
(3.69997 -0.0414391 0.00283454)
(3.71669 -0.040746 0.00282011)
(3.69792 -0.0428064 0.0028434)
(3.73846 -0.0378973 0.00281123)
(3.67125 -0.0457241 0.0028713)
(3.78052 -0.0282919 0.00285973)
(4.54816 0.1118 0.0015013)
(4.76846 0.146481 0.00174854)
(4.8289 0.136288 0.00124412)
(4.86221 0.100783 0.00156052)
(4.80889 0.0753449 0.0012597)
(4.78623 0.0621303 0.00145338)
(4.72965 0.0559281 0.00125159)
(4.71101 0.052778 0.00136692)
(4.67047 0.050491 0.00124378)
(4.66255 0.0487459 0.00130636)
(4.63785 0.047203 0.00123874)
(4.64038 0.0463605 0.00126464)
(4.62721 0.045468 0.00123642)
(4.6379 0.0457744 0.00123816)
(4.62862 0.0444832 0.00123809)
(4.64857 0.0470332 0.00122443)
(4.63075 0.0419665 0.00124461)
(4.67268 0.052734 0.00122142)
(4.62063 0.0350876 0.00124239)
(4.70935 0.066705 0.00124884)
(4.53088 0.108625 0.00278593)
(4.71395 0.117694 0.0031521)
(4.82653 0.0973065 0.00265357)
(4.93728 0.0560506 0.0029626)
(4.95865 0.0240326 0.00265124)
(4.99709 0.00299832 0.00284176)
(4.98846 -0.00957312 0.00263708)
(5.0062 -0.0181095 0.00275243)
(4.9925 -0.0243033 0.00262827)
(5.00321 -0.0293045 0.00269133)
(4.99058 -0.0333448 0.00262317)
(4.99991 -0.0361852 0.00264943)
(4.99089 -0.0387834 0.0026208)
(5.00206 -0.0394577 0.00262278)
(4.99619 -0.0420176 0.00262268)
(5.01102 -0.0395401 0.00260867)
(5.00524 -0.0456122 0.00263103)
(5.02553 -0.0346118 0.0026022)
(5.01704 -0.050656 0.0026613)
(5.03468 -0.0203871 0.00265438)
(4.53282 0.0755297 0.00169089)
(4.70269 0.102197 0.0019812)
(4.80656 0.102853 0.00148175)
(4.92528 0.0834167 0.00178261)
(4.96351 0.0690916 0.00147427)
(5.02154 0.0615261 0.00166633)
(5.03217 0.0580741 0.00146389)
(5.06821 0.0562728 0.00157914)
(5.07092 0.0546384 0.00145582)
(5.09564 0.0531092 0.00151832)
(5.09451 0.0513971 0.00145056)
(5.11224 0.050284 0.0014763)
(5.11009 0.0487925 0.00144786)
(5.12459 0.048871 0.00144949)
(5.12379 0.0467502 0.00144926)
(5.13693 0.0495436 0.00143578)
(5.13963 0.0433846 0.00145556)
(5.14855 0.0548021 0.00143545)
(5.16407 0.0374787 0.00145293)
(5.15005 0.0696734 0.00146488)
(4.52847 0.0710337 0.00256197)
(4.67948 0.075104 0.00293699)
(4.78112 0.0617533 0.00245016)
(4.89986 0.032559 0.00275656)
(4.94283 0.00961792 0.00244539)
(5.00769 -0.00602919 0.00263745)
(5.02607 -0.0157628 0.00243366)
(5.07003 -0.0223922 0.00254938)
(5.08064 -0.027322 0.00242549)
(5.11266 -0.0312257 0.00248857)
(5.11848 -0.0345751 0.00242064)
(5.14168 -0.0368794 0.00244688)
(5.14511 -0.0392915 0.00241843)
(5.16234 -0.0398696 0.0024203)
(5.16678 -0.042455 0.00242017)
(5.17857 -0.0402861 0.00240609)
(5.18953 -0.0458431 0.00242782)
(5.18898 -0.0367516 0.00240123)
(5.22257 -0.0491297 0.00245557)
(5.18494 -0.0266267 0.00244728)
(4.52882 0.0448313 0.00186154)
(4.67569 0.0647232 0.00218738)
(4.7728 0.0695454 0.00169657)
(4.89005 0.0607695 0.00199151)
(4.93322 0.054486 0.00167879)
(4.9989 0.0516796 0.00186935)
(5.01844 0.0510005 0.00166563)
(5.06413 0.0510054 0.00178035)
(5.07696 0.0508371 0.0016564)
(5.11157 0.0505037 0.00171859)
(5.12029 0.0498568 0.00165055)
(5.14624 0.049456 0.00167622)
(5.15262 0.0486552 0.00164769)
(5.17206 0.048841 0.00164934)
(5.17924 0.0474144 0.001649)
(5.19216 0.0493603 0.00163568)
(5.206 0.0450984 0.00165527)
(5.20504 0.052929 0.00163644)
(5.24317 0.0416908 0.0016569)
(5.20634 0.0640131 0.00166569)
(4.5263 0.0391368 0.00236667)
(4.66281 0.0378194 0.00274073)
(4.75923 0.028026 0.00225876)
(4.87619 0.00885437 0.00256097)
(4.9208 -0.00649073 0.00224901)
(4.9881 -0.0174629 0.00244132)
(5.00931 -0.0246505 0.00223784)
(5.0565 -0.0296064 0.0023536)
(5.07086 -0.0332749 0.00222983)
(5.10691 -0.036061 0.00229278)
(5.11727 -0.0384175 0.00222497)
(5.14463 -0.0399898 0.00225116)
(5.1528 -0.0416537 0.00222289)
(5.1733 -0.0420651 0.00222475)
(5.18256 -0.0438028 0.00222476)
(5.19549 -0.0424846 0.00221072)
(5.21244 -0.0459077 0.00223204)
(5.20923 -0.040645 0.00220762)
(5.25265 -0.0471962 0.00225447)
(5.21156 -0.0359268 0.00224545)
(4.5264 0.0167932 0.00202582)
(4.66092 0.0302082 0.00237681)
(4.75536 0.0370567 0.00189224)
(4.87172 0.0378246 0.00218687)
(4.91635 0.0388693 0.0018729)
(4.9837 0.0406339 0.00206345)
(5.00488 0.0425874 0.00185935)
(5.05212 0.0442505 0.0019741)
(5.06666 0.0454026 0.00184992)
(5.10305 0.0461394 0.00191211)
(5.11391 0.0465293 0.00184397)
(5.14186 0.0468108 0.00186968)
(5.15073 0.046845 0.00184115)
(5.17193 0.0471277 0.00184288)
(5.18193 0.0467401 0.00184255)
(5.19561 0.0476489 0.00182923)
(5.21315 0.0459095 0.00184898)
(5.21091 0.0495261 0.00182969)
(5.25472 0.0444788 0.00185696)
(5.21722 0.0559456 0.00185948)
(4.5256 0.0105528 0.00219086)
(4.65678 0.00335626 0.0025568)
(4.75098 -0.0047212 0.00207536)
(4.86722 -0.0146138 0.00237326)
(4.91228 -0.0227676 0.00206011)
(4.98011 -0.029125 0.00225167)
(5.00174 -0.0337174 0.00204794)
(5.04932 -0.0370304 0.00216326)
(5.06418 -0.0394566 0.0020393)
(5.10084 -0.0412103 0.00210188)
(5.11202 -0.0425931 0.00203394)