/*--------------------------------*- C++ -*----------------------------------*\
  =========                 |
  \\      /  F ield         | OpenFOAM: The Open Source CFD Toolbox
   \\    /   O peration     | Website:  https://openfoam.org
    \\  /    A nd           | Version:  7
     \\/     M anipulation  |
\*---------------------------------------------------------------------------*/
FoamFile
{
    version     2.0;
    format      ascii;
    class       volScalarField;
    location    "0.055";
    object      k;
}
// * * * * * * * * * * * * * * * * * * * * * * * * * * * * * * * * * * * * * //

dimensions      [0 2 -2 0 0 0 0];

internalField   nonuniform List<scalar> 
8640
(
22.8178
21.4698
20.9752
20.9047
20.9
20.9483
20.9875
21.03
21.0394
21.0526
21.0475
21.051
21.0463
21.0492
21.0452
21.0475
21.0442
21.0461
21.0433
21.0448
21.0424
21.0436
21.0417
21.0427
21.0411
21.0419
21.0407
21.0415
21.0405
21.0412
21.0404
21.0411
21.0405
21.0412
21.0408
21.0415
21.0413
21.042
21.0418
21.0426
21.0426
21.0433
21.0433
21.0441
21.044
21.0447
21.0448
21.0455
21.0455
21.0462
21.0469
21.0472
21.0495
21.0484
21.0505
21.0465
21.0505
21.0453
21.0553
21.2758
8.8209
6.09515
4.73662
4.06588
3.67411
3.39379
3.22985
3.13968
3.09402
3.07532
3.06928
3.06839
3.06644
3.06601
3.06462
3.06435
3.06322
3.06305
3.06228
3.06217
3.0615
3.06145
3.061
3.06098
3.06061
3.06061
3.06035
3.06034
3.0595
3.06038
3.0612
3.06047
3.06085
3.06129
3.06045
3.06051
3.06052
3.06045
3.05934
3.05964
3.05979
3.05868
3.05894
3.05942
3.05922
3.05919
3.05797
3.05835
3.05861
3.05772
3.05811
3.05846
3.05839
3.05774
3.07119
3.06839
3.12351
3.13212
3.23007
3.53297
8.21004
5.43475
3.74788
2.99907
2.63249
2.48573
2.43589
2.42538
2.42106
2.42053
2.41877
2.4184
2.417
2.4167
2.41554
2.41535
2.41457
2.41445
2.4138
2.41373
2.41327
2.41324
2.41292
2.41291
2.41264
2.41264
2.41233
2.41234
2.41217
2.41214
2.41104
2.41174
2.41228
2.41224
2.41227
2.4121
2.41115
2.41143
2.41166
2.41061
2.41097
2.41137
2.41023
2.41072
2.41104
2.41024
2.41062
2.4108
2.41018
2.41047
2.41054
2.41053
2.41051
2.41041
2.41006
2.41005
2.40901
2.41039
2.4136
2.45399
8.20422
5.40503
3.6956
2.94705
2.59238
2.46054
2.41994
2.41417
2.41205
2.41202
2.41072
2.41052
2.40925
2.40902
2.40794
2.40778
2.40701
2.40691
2.40627
2.40622
2.40582
2.4058
2.40543
2.40544
2.40524
2.40526
2.40495
2.40496
2.40482
2.40478
2.40365
2.40434
2.40486
2.40481
2.40484
2.40467
2.40372
2.40399
2.40428
2.40331
2.40372
2.40416
2.40308
2.40361
2.40385
2.40306
2.40346
2.40365
2.40327
2.40329
2.40329
2.40327
2.40319
2.40318
2.40312
2.40301
2.40269
2.4003
2.40157
2.42472
8.20248
5.40227
3.69194
2.94382
2.58988
2.45856
2.41817
2.41251
2.41042
2.4104
2.40915
2.40897
2.40771
2.40749
2.40645
2.40629
2.40544
2.40534
2.40476
2.40472
2.40437
2.40436
2.40398
2.40399
2.40381
2.40382
2.40352
2.40353
2.4034
2.40336
2.40224
2.40293
2.40345
2.4034
2.40343
2.40326
2.40231
2.40256
2.4029
2.40199
2.40244
2.40286
2.40177
2.40227
2.40248
2.40171
2.4021
2.4023
2.40193
2.40193
2.4019
2.4019
2.40187
2.40185
2.4017
2.40164
2.4014
2.40018
2.4015
2.42441
8.20457
5.39956
3.68724
2.93945
2.58743
2.45769
2.41815
2.41282
2.41086
2.41089
2.40973
2.40957
2.40831
2.4081
2.40708
2.40693
2.40606
2.40597
2.4054
2.40536
2.40496
2.40495
2.40465
2.40467
2.40448
2.4045
2.4042
2.40421
2.40407
2.40404
2.40291
2.4036
2.40412
2.40407
2.4041
2.40393
2.40298
2.40324
2.40356
2.40263
2.40307
2.40353
2.40245
2.40296
2.40317
2.40237
2.40276
2.40295
2.40259
2.40263
2.40263
2.4026
2.40246
2.40245
2.40242
2.40237
2.40222
2.40031
2.40182
2.42448
8.20457
5.39956
3.68724
2.93945
2.58743
2.45769
2.41815
2.41282
2.41086
2.41089
2.40973
2.40957
2.40831
2.4081
2.40708
2.40693
2.40606
2.40597
2.4054
2.40536
2.40495
2.40495
2.40465
2.40467
2.40448
2.4045
2.4042
2.40421
2.40407
2.40404
2.40291
2.4036
2.40412
2.40407
2.4041
2.40393
2.40298
2.40324
2.40356
2.40263
2.40307
2.40353
2.40245
2.40295
2.40317
2.40241
2.40279
2.40302
2.40273
2.40274
2.40274
2.40273
2.40258
2.40257
2.40253
2.40247
2.40229
2.40034
2.40183
2.42449
8.20248
5.40227
3.69194
2.94382
2.58988
2.45856
2.41817
2.41251
2.41042
2.4104
2.40915
2.40897
2.40771
2.40749
2.40645
2.40629
2.40544
2.40534
2.40476
2.40471
2.40437
2.40436
2.40398
2.40399
2.40381
2.40382
2.40352
2.40353
2.4034
2.40336
2.40224
2.40293
2.40345
2.4034
2.40343
2.40326
2.40231
2.40256
2.4029
2.40199
2.40244
2.40286
2.40177
2.40227
2.40248
2.40171
2.4021
2.40234
2.40205
2.40206
2.40206
2.40205
2.40192
2.4019
2.40174
2.40168
2.40144
2.4002
2.40152
2.42444
8.20422
5.40503
3.6956
2.94705
2.59238
2.46054
2.41994
2.41417
2.41205
2.41202
2.41072
2.41052
2.40925
2.40902
2.40794
2.40778
2.40701
2.40691
2.40627
2.40622
2.40582
2.4058
2.40543
2.40544
2.40524
2.40526
2.40495
2.40496
2.40482
2.40478
2.40365
2.40434
2.40486
2.40481
2.40484
2.40467
2.40372
2.40399
2.40428
2.40332
2.40373
2.40417
2.40309
2.40362
2.40386
2.40306
2.40347
2.40366
2.40328
2.4033
2.4033
2.40328
2.4032
2.40318
2.40312
2.40301
2.4027
2.40034
2.40158
2.42475
8.21004
5.43475
3.74788
2.99907
2.63249
2.48573
2.43589
2.42538
2.42106
2.42053
2.41877
2.4184
2.417
2.4167
2.41554
2.41535
2.41457
2.41445
2.4138
2.41373
2.41327
2.41324
2.41292
2.41291
2.41264
2.41264
2.41233
2.41234
2.41217
2.41214
2.41104
2.41174
2.41228
2.41224
2.41227
2.4121
2.41115
2.4114
2.4117
2.41078
2.41122
2.41167
2.41062
2.41113
2.4113
2.4105
2.41087
2.41111
2.41082
2.41083
2.41081
2.41081
2.41054
2.41052
2.40988
2.40994
2.40904
2.41048
2.41358
2.45391
8.8209
6.09515
4.73662
4.06588
3.67411
3.3938
3.22985
3.13968
3.09402
3.07532
3.06928
3.06839
3.06643
3.06601
3.06462
3.06435
3.06322
3.06305
3.06227
3.06217
3.0615
3.06144
3.061
3.06098
3.06061
3.06061
3.06033
3.06033
3.05949
3.06037
3.0612
3.06047
3.06086
3.0613
3.06047
3.06053
3.06054
3.06047
3.05936
3.05966
3.0598
3.05868
3.05894
3.05942
3.0592
3.05916
3.05797
3.05835
3.05864
3.05778
3.05815
3.05845
3.05835
3.05775
3.07098
3.06794
3.12286
3.13134
3.22854
3.53061
22.8178
21.4699
20.9752
20.9047
20.8999
20.9483
20.9875
21.03
21.0394
21.0526
21.0475
21.0511
21.0463
21.0492
21.0452
21.0475
21.0442
21.0461
21.0433
21.0448
21.0424
21.0436
21.0417
21.0427
21.0411
21.042
21.0407
21.0415
21.0405
21.0412
21.0404
21.0411
21.0405
21.0412
21.0408
21.0415
21.0413
21.042
21.0418
21.0426
21.0426
21.0433
21.0434
21.0441
21.044
21.0447
21.0448
21.0455
21.0455
21.0462
21.0468
21.0472
21.0495
21.0484
21.0504
21.0469
21.05
21.047
21.0533
21.2781
1.08387
2.29677
2.71187
2.80148
2.82381
2.81981
2.82327
2.82077
2.82349
2.82092
2.82246
2.82022
2.82137
2.81957
2.82036
2.81895
2.81949
2.81833
2.81865
2.81777
2.81795
2.81717
2.81721
2.81672
2.81668
2.81596
2.81581
2.81518
2.81485
2.8143
2.81396
2.81349
2.813
2.81257
2.81208
2.81171
2.81122
2.81089
2.81025
2.80991
2.80932
2.80898
2.80834
2.80799
2.8073
2.80691
2.80619
2.80575
2.80494
2.80441
2.80366
2.80282
2.80216
2.80085
2.79946
2.79816
2.79314
2.79314
2.77636
2.81881
0.701938
1.73387
2.11164
2.22046
2.24259
2.24562
2.24454
2.24545
2.24575
2.24619
2.24582
2.24637
2.24637
2.24634
2.24606
2.2471
2.24744
2.24736
2.24715
2.24759
2.24771
2.24701
2.24743
2.248
2.24704
2.24677
2.24681
2.24636
2.24654
2.2473
2.24666
2.24653
2.24734
2.24762
2.2474
2.24676
2.24668
2.2473
2.24676
2.24675
2.24728
2.24679
2.24686
2.24755
2.24712
2.24768
2.24852
2.24748
2.24772
2.24862
2.24852
2.2486
2.24803
2.24824
2.24769
2.24926
2.25124
2.25293
2.25162
2.27862
0.697993
1.71141
2.08058
2.18792
2.2126
2.22113
2.22366
2.22724
2.22873
2.22941
2.2286
2.22918
2.22917
2.22916
2.22891
2.23009
2.23048
2.23039
2.23016
2.23065
2.2308
2.23069
2.23045
2.23087
2.2311
2.23094
2.23068
2.23021
2.23011
2.22962
2.22988
2.2307
2.22983
2.2298
2.23038
2.22983
2.22996
2.2307
2.23012
2.23012
2.23068
2.23022
2.23042
2.23124
2.2306
2.23087
2.23178
2.23099
2.23113
2.23225
2.23237
2.23222
2.23145
2.23169
2.23249
2.23226
2.23255
2.23269
2.2322
2.25242
0.696049
1.7105
2.08157
2.18983
2.21515
2.2239
2.22632
2.23008
2.23208
2.2326
2.23187
2.23202
2.23187
2.23198
2.23135
2.23222
2.23264
2.23192
2.23215
2.233
2.23263
2.23259
2.23203
2.23277
2.23323
2.2331
2.23291
2.23243
2.23225
2.23167
2.23194
2.23282
2.23196
2.23188
2.23237
2.23187
2.23201
2.23277
2.23217
2.23216
2.23273
2.23228
2.23254
2.23337
2.23266
2.23291
2.23381
2.23304
2.23324
2.23423
2.23429
2.23423
2.2335
2.23387
2.23478
2.23386
2.23443
2.23507
2.23448
2.2536
0.696927
1.7101
2.08039
2.18831
2.21346
2.22217
2.22455
2.22844
2.2299
2.23023
2.23054
2.23132
2.23068
2.23069
2.22991
2.23074
2.23115
2.23043
2.23066
2.23153
2.23117
2.23112
2.23055
2.2313
2.23178
2.23167
2.23149
2.23103
2.23084
2.23023
2.2305
2.23139
2.23053
2.23044
2.23092
2.23042
2.23057
2.23132
2.23088
2.23078
2.23175
2.23218
2.23201
2.23157
2.23134
2.23219
2.23249
2.23203
2.23266
2.23327
2.23322
2.23324
2.23216
2.23226
2.233
2.23223
2.23264
2.23337
2.23237
2.25095
0.696367
1.71011
2.08106
2.18923
2.21454
2.22324
2.22559
2.22939
2.23089
2.23132
2.23161
2.23216
2.23155
2.23157
2.23069
2.2315
2.23192
2.23119
2.23142
2.23229
2.23191
2.23187
2.23133
2.23206
2.23252
2.2324
2.23221
2.23174
2.23156
2.23096
2.23123
2.23211
2.23125
2.23116
2.23165
2.23115
2.23129
2.23205
2.23146
2.23145
2.23201
2.23158
2.23187
2.23271
2.23195
2.23222
2.23312
2.23233
2.23251
2.23364
2.23374
2.2336
2.23282
2.23307
2.23396
2.2331
2.23357
2.23429
2.23347
2.25216
0.696367
1.71011
2.08106
2.18923
2.21454
2.22324
2.22559
2.2294
2.23087
2.23129
2.23158
2.23216
2.23154
2.23156
2.23069
2.2315
2.23191
2.23119
2.23142
2.23229
2.23191
2.23187
2.23131
2.23205
2.23251
2.23239
2.2322
2.23173
2.23155
2.23095
2.23123
2.23211
2.23125
2.23117
2.23165
2.23115
2.23129
2.23205
2.2316
2.2315
2.23248
2.2329
2.23273
2.23229
2.23206
2.23292
2.23322
2.23276
2.23339
2.234
2.23393
2.23396
2.23291
2.23306
2.23386
2.23308
2.23357
2.23429
2.23348
2.25217
0.696927
1.7101
2.08039
2.18831
2.21346
2.22216
2.22455
2.22844
2.2299
2.23022
2.23054
2.23133
2.2307
2.23072
2.22991
2.23075
2.23117
2.23045
2.23066
2.23152
2.23113
2.23108
2.23058
2.23133
2.23178
2.23166
2.23146
2.23099
2.23081
2.23022
2.23047
2.23133
2.2305
2.23043
2.23093
2.23043
2.23057
2.23132
2.23073
2.23072
2.23129
2.23084
2.2311
2.23193
2.23121
2.23146
2.23235
2.23159
2.23175
2.23288
2.23298
2.23284
2.23206
2.23228
2.23313
2.23225
2.23265
2.23337
2.23236
2.25095
0.696049
1.7105
2.08157
2.18983
2.21515
2.22391
2.22632
2.2302
2.23158
2.23184
2.23214
2.2329
2.2323
2.23232
2.23144
2.23223
2.23264
2.23191
2.23215
2.23301
2.23264
2.2326
2.23204
2.23278
2.23323
2.2331
2.2329
2.23243
2.23225
2.23167
2.23194
2.23281
2.23196
2.23188
2.23237
2.23187
2.23201
2.23277
2.23217
2.23216
2.23273
2.23227
2.23249
2.23332
2.23265
2.23289
2.23377
2.23302
2.23321
2.23422
2.23429
2.23422
2.2335
2.23387
2.23477
2.23386
2.23441
2.23508
2.23446
2.25361
0.697993
1.71141
2.08058
2.18792
2.2126
2.22113
2.22366
2.22724
2.22873
2.2294
2.2286
2.22918
2.22917
2.22916
2.22891
2.23007
2.23045
2.23036
2.23013
2.23062
2.23078
2.23069
2.23046
2.23083
2.23099
2.23082
2.23053
2.2301
2.23008
2.22962
2.22986
2.23066
2.22982
2.22979
2.23038
2.22983
2.22995
2.2307
2.23011
2.23011
2.23068
2.23022
2.23046
2.23129
2.2306
2.23082
2.23169
2.23096
2.23114
2.23227
2.23238
2.23223
2.23145
2.23171
2.23251
2.23223
2.23241
2.23254
2.23202
2.25236
0.701938
1.73387
2.11164
2.22046
2.24258
2.24563
2.24455
2.24547
2.24575
2.24619
2.24582
2.24637
2.24637
2.24634
2.24606
2.2471
2.24743
2.24696
2.24681
2.24743
2.24747
2.24705
2.24748
2.24801
2.24704
2.24676
2.24682
2.24636
2.24653
2.24727
2.24664
2.24652
2.24734
2.24761
2.24739
2.24674
2.24668
2.24731
2.24676
2.24675
2.24728
2.24679
2.24686
2.24756
2.24712
2.24768
2.24852
2.24748
2.24771
2.24861
2.24856
2.24864
2.24771
2.24855
2.24973
2.25027
2.24907
2.25075
2.25047
2.27809
1.08387
2.29677
2.71186
2.80147
2.82381
2.81981
2.82327
2.82077
2.8235
2.82092
2.82246
2.82023
2.82137
2.81957
2.82036
2.81895
2.81949
2.81832
2.81864
2.81777
2.81794
2.81717
2.81721
2.81672
2.81668
2.81596
2.81582
2.81518
2.81485
2.8143
2.81397
2.8135
2.813
2.81257
2.81208
2.81172
2.81123
2.81089
2.81026
2.80992
2.80932
2.80898
2.80835
2.808
2.8073
2.80692
2.8062
2.80575
2.80495
2.80442
2.80367
2.80284
2.80217
2.80088
2.7995
2.79824
2.79292
2.79318
2.77617
2.81899
0.00985173
0.0609643
0.0877711
0.0981039
0.0997796
0.100355
0.100052
0.100183
0.0999893
0.100103
0.0999238
0.100006
0.0998387
0.0998902
0.0997234
0.0997451
0.0995934
0.0995972
0.0994724
0.0994838
0.0993922
0.0994018
0.0992769
0.0992802
0.0991595
0.0991649
0.0990507
0.0990578
0.0989487
0.0989572
0.0988535
0.0988648
0.0987722
0.0987882
0.0987065
0.0987292
0.0986687
0.0986999
0.0986614
0.0986999
0.0986777
0.0987222
0.098717
0.0987665
0.0987667
0.0988448
0.0988965
0.0989776
0.0990401
0.0991341
0.0992151
0.0992841
0.0993172
0.0993432
0.0992938
0.0993625
0.0992797
0.0993751
0.0987714
0.100456
0.000670716
0.00540637
0.00910189
0.0106628
0.010825
0.0108903
0.0108353
0.0109117
0.0108834
0.0109381
0.0109036
0.0109383
0.0109081
0.010932
0.0109107
0.0109416
0.010929
0.0109591
0.0109703
0.0109868
0.010957
0.0109668
0.0109911
0.0109996
0.0109654
0.0109732
0.0109883
0.0109859
0.0109822
0.0109928
0.0109864
0.010994
0.0110292
0.0110517
0.0110512
0.0110513
0.0110462
0.0110696
0.011076
0.0110856
0.0111167
0.0111147
0.0111201
0.0111599
0.011198
0.0112263
0.0112457
0.0112377
0.0112457
0.0112883
0.0113245
0.0113504
0.011364
0.0113847
0.011364
0.0114211
0.0113798
0.0115357
0.0113814
0.0120754
0.000627712
0.00501486
0.00824476
0.00998297
0.0104717
0.0109567
0.010896
0.0110004
0.0109269
0.0109959
0.0109299
0.0109825
0.0109325
0.0109707
0.0109327
0.0109754
0.0109534
0.0109822
0.0109618
0.0109885
0.0109773
0.0110107
0.0110284
0.0110526
0.0110278
0.0110334
0.011023
0.0110447
0.0110722
0.0110701
0.0110723
0.0111024
0.0111011
0.0111196
0.0111598
0.0111584
0.0111672
0.0112136
0.0112194
0.0112302
0.0112796
0.0113252
0.011341
0.0113807
0.0114006
0.0114195
0.0114616
0.01149
0.0115103
0.0115573
0.0115853
0.0116302
0.0116403
0.0116635
0.011702
0.0117615
0.0117753
0.0117878
0.0117538
0.0120228
0.000646359
0.00513004
0.0084268
0.0102588
0.0108589
0.0113881
0.011343
0.0114466
0.0113817
0.0114467
0.0113844
0.0114319
0.0113829
0.0114172
0.0113768
0.0114139
0.0113929
0.0114172
0.0113991
0.0114263
0.0114142
0.0114464
0.0114649
0.0114871
0.0114627
0.0114673
0.0114562
0.0114766
0.0115031
0.0114992
0.0115012
0.0115308
0.0115283
0.0115459
0.0115855
0.0115832
0.0115918
0.0116355
0.011638
0.0116497
0.0117018
0.0117476
0.0117621
0.0117987
0.0118197
0.0118402
0.0118842
0.0119097
0.0119294
0.0119757
0.0120052
0.0120473
0.0120636
0.0120877
0.0121446
0.0121673
0.012223
0.012266
0.0123195
0.0126159
0.000633577
0.00504468
0.00829682
0.0100921
0.0106205
0.011115
0.0110569
0.0111612
0.011091
0.0111565
0.0110949
0.0111476
0.0110967
0.0111332
0.0110913
0.0111296
0.0111076
0.0111331
0.0111146
0.0111428
0.0111305
0.0111637
0.0111806
0.0112047
0.0111808
0.0111864
0.0111759
0.0111969
0.011223
0.0112202
0.0112225
0.0112527
0.0112507
0.0112687
0.0113086
0.011307
0.0113158
0.0113611
0.0113654
0.0113767
0.0114252
0.0114809
0.0115118
0.0115281
0.0115413
0.0115807
0.0116133
0.0116458
0.0116703
0.0117135
0.0117356
0.0117791
0.0117884
0.011808
0.0118564
0.0118973
0.0119168
0.0119582
0.0119512
0.0122054
0.000639687
0.00508367
0.00836056
0.0101779
0.0107435
0.0112536
0.011202
0.0113056
0.0112377
0.0113025
0.0112421
0.0112926
0.0112423
0.0112775
0.0112358
0.0112734
0.011252
0.0112769
0.0112586
0.0112863
0.0112742
0.011307
0.0113242
0.0113472
0.0113231
0.0113283
0.0113175
0.0113381
0.0113642
0.0113607
0.0113628
0.0113926
0.0113903
0.011408
0.0114478
0.0114458
0.0114545
0.011499
0.0115021
0.0115135
0.0115648
0.0116105
0.0116262
0.0116659
0.0116848
0.0117008
0.0117395
0.0117718
0.0117933
0.011841
0.0118694
0.0119123
0.0119268
0.0119492
0.0120037
0.0120324
0.0120748
0.0121223
0.0121475
0.012413
0.000639688
0.00508367
0.00836056
0.0101779
0.0107435
0.0112536
0.011202
0.0113056
0.0112376
0.0113024
0.0112419
0.0112925
0.0112423
0.0112774
0.0112358
0.0112733
0.011252
0.0112769
0.0112585
0.0112861
0.0112739
0.0113067
0.0113238
0.0113472
0.0113233
0.0113287
0.0113178
0.0113383
0.0113642
0.0113607
0.0113628
0.0113925
0.0113903
0.0114081
0.0114478
0.0114458
0.0114545
0.011499
0.0115023
0.011514
0.0115633
0.011619
0.0116499
0.0116657
0.0116784
0.0117174
0.0117504
0.0117827
0.0118073
0.0118501
0.0118728
0.0119149
0.0119276
0.0119482
0.0120019
0.0120321
0.0120743
0.0121222
0.0121471
0.0124125
0.000633576
0.00504468
0.00829681
0.0100921
0.0106205
0.011115
0.0110568
0.0111612
0.0110911
0.0111565
0.0110949
0.0111476
0.0110967
0.0111333
0.0110914
0.0111298
0.011108
0.0111336
0.0111149
0.0111431
0.011131
0.0111644
0.011181
0.0112047
0.0111807
0.0111863
0.0111757
0.0111967
0.011223
0.0112202
0.0112223
0.0112523
0.0112507
0.0112689
0.0113088
0.0113071
0.0113159
0.0113611
0.0113653
0.0113763
0.0114267
0.0114726
0.0114882
0.0115275
0.0115472
0.0115653
0.0116066
0.0116359
0.0116563
0.0117036
0.0117318
0.0117763
0.0117878
0.0118095
0.0118578
0.0118974
0.0119169
0.0119586
0.0119519
0.0122059
0.00064636
0.00513004
0.0084268
0.0102588
0.0108589
0.0113882
0.0113431
0.011447
0.0113802
0.011443
0.0113835
0.0114339
0.0113844
0.0114189
0.0113775
0.0114141
0.011393
0.0114172
0.0113991
0.0114264
0.0114144
0.0114466
0.011465
0.0114872
0.0114627
0.0114673
0.0114562
0.0114766
0.0115031
0.0114992
0.0115012
0.0115307
0.0115283
0.0115459
0.0115855
0.0115832
0.0115918
0.0116355
0.0116381
0.0116498
0.0117019
0.0117476
0.0117618
0.0117982
0.0118197
0.0118402
0.0118841
0.0119096
0.0119292
0.0119755
0.0120051
0.0120472
0.0120634
0.0120874
0.0121441
0.0121671
0.0122227
0.0122656
0.0123186
0.0126148
0.000627712
0.00501486
0.00824476
0.00998297
0.0104717
0.0109567
0.010896
0.0110004
0.0109269
0.0109958
0.0109299
0.0109825
0.0109325
0.0109707
0.0109325
0.010975
0.0109528
0.0109816
0.0109614
0.0109885
0.0109775
0.0110109
0.0110289
0.0110524
0.0110271
0.0110328
0.0110224
0.0110444
0.0110724
0.0110702
0.0110723
0.0111023
0.0111011
0.0111196
0.0111599
0.0111584
0.0111672
0.0112135
0.0112192
0.0112299
0.011279
0.0113247
0.0113404
0.0113801
0.0114001
0.0114181
0.011459
0.0114888
0.0115096
0.0115571
0.0115852
0.01163
0.0116401
0.0116633
0.0117021
0.011761
0.0117745
0.011787
0.0117532
0.0120218
0.000670715
0.00540636
0.00910189
0.0106628
0.010825
0.0108903
0.0108354
0.0109119
0.0108835
0.0109382
0.0109036
0.0109383
0.0109081
0.010932
0.0109108
0.0109418
0.0109292
0.010958
0.0109696
0.0109866
0.0109564
0.0109674
0.0109921
0.0109997
0.0109654
0.0109732
0.0109884
0.0109859
0.0109821
0.0109928
0.0109864
0.0109941
0.0110293
0.0110518
0.0110518
0.0110518
0.0110462
0.0110695
0.011076
0.0110856
0.0111167
0.0111147
0.01112
0.0111597
0.011198
0.0112264
0.0112457
0.0112377
0.0112457
0.0112877
0.0113274
0.0113394
0.0113284
0.0113522
0.0113915
0.0114636
0.0113814
0.0115227
0.0113722
0.0120608
0.00985174
0.0609643
0.0877711
0.0981038
0.0997796
0.100355
0.100052
0.100183
0.0999893
0.100103
0.0999238
0.100006
0.0998386
0.0998902
0.0997233
0.0997451
0.0995934
0.0995972
0.0994724
0.0994838
0.0993921
0.0994018
0.0992768
0.0992802
0.0991596
0.0991649
0.0990507
0.0990579
0.0989487
0.0989572
0.0988536
0.0988649
0.0987722
0.0987882
0.0987065
0.0987292
0.0986687
0.0986999
0.0986614
0.0987
0.0986778
0.0987222
0.0987171
0.0987666
0.0987669
0.098845
0.0988971
0.0989783
0.0990409
0.0991352
0.0992186
0.0992872
0.0993169
0.0993442
0.0992976
0.0993691
0.0992827
0.0993876
0.0987765
0.100471
0.00985174
0.0609643
0.0877711
0.0981039
0.0997796
0.100355
0.100052
0.100183
0.0999893
0.100103
0.0999238
0.100006
0.0998387
0.0998902
0.0997233
0.0997451
0.0995934
0.0995972
0.0994724
0.0994837
0.0993921
0.0994017
0.0992768
0.0992802
0.0991595
0.0991648
0.0990506
0.0990578
0.0989486
0.0989571
0.0988535
0.0988648
0.0987721
0.0987881
0.0987065
0.0987292
0.0986687
0.0986998
0.0986614
0.0986999
0.0986777
0.0987222
0.098717
0.0987665
0.0987667
0.0988448
0.0988965
0.0989775
0.0990401
0.0991341
0.099215
0.099284
0.0993172
0.0993432
0.0992938
0.0993624
0.0992796
0.099375
0.0987713
0.100456
0.000670721
0.0054064
0.00910192
0.0106628
0.010825
0.0108903
0.0108354
0.0109117
0.0108834
0.0109381
0.0109036
0.0109383
0.0109081
0.010932
0.0109107
0.0109416
0.010929
0.0109591
0.0109703
0.0109868
0.010957
0.0109668
0.0109911
0.0109997
0.0109654
0.0109732
0.0109884
0.010986
0.0109822
0.0109928
0.0109864
0.0109941
0.0110293
0.0110516
0.0110503
0.0110505
0.0110462
0.0110695
0.0110761
0.0110857
0.0111168
0.0111147
0.0111201
0.0111597
0.0111981
0.0112265
0.0112459
0.0112379
0.0112458
0.0112884
0.0113245
0.0113505
0.011364
0.0113847
0.011364
0.0114212
0.0113799
0.0115359
0.0113816
0.0120755
0.000627717
0.00501489
0.00824478
0.009983
0.0104717
0.0109568
0.0108961
0.0110005
0.0109269
0.0109959
0.0109299
0.0109825
0.0109325
0.0109708
0.0109327
0.0109755
0.0109535
0.0109823
0.0109619
0.0109887
0.0109775
0.0110109
0.0110285
0.0110527
0.0110278
0.0110335
0.011023
0.0110447
0.0110722
0.0110701
0.0110724
0.0111024
0.0111011
0.0111196
0.0111599
0.0111585
0.0111673
0.0112136
0.0112195
0.0112303
0.0112797
0.0113253
0.0113411
0.011381
0.0114007
0.0114193
0.0114611
0.0114899
0.0115104
0.0115578
0.0115858
0.0116306
0.0116407
0.011664
0.0117024
0.0117616
0.011775
0.0117873
0.0117534
0.0120226
0.000646365
0.00513007
0.00842683
0.0102588
0.010859
0.0113883
0.0113432
0.011447
0.0113803
0.0114431
0.0113835
0.0114339
0.0113845
0.0114189
0.0113774
0.0114139
0.0113926
0.0114176
0.0114014
0.0114299
0.0114174
0.0114488
0.0114657
0.0114875
0.011463
0.0114677
0.0114567
0.011477
0.0115032
0.0114993
0.0115013
0.0115308
0.0115284
0.011546
0.0115856
0.0115833
0.0115919
0.0116356
0.0116381
0.0116498
0.0117019
0.0117477
0.0117619
0.0117983
0.0118198
0.0118401
0.0118838
0.0119096
0.0119293
0.0119758
0.0120056
0.0120475
0.0120638
0.0120878
0.0121447
0.0121674
0.0122231
0.0122661
0.0123196
0.012616
0.000633583
0.00504471
0.00829684
0.0100921
0.0106206
0.0111151
0.011057
0.0111613
0.0110912
0.0111566
0.011095
0.0111477
0.0110968
0.0111333
0.0110914
0.0111296
0.0111076
0.0111332
0.0111146
0.0111429
0.0111306
0.0111638
0.0111807
0.0112048
0.0111808
0.0111865
0.011176
0.0111969
0.0112231
0.0112203
0.0112226
0.0112527
0.0112507
0.0112688
0.0113087
0.0113071
0.0113159
0.0113614
0.0113659
0.0113769
0.0114275
0.0114731
0.0114886
0.011528
0.0115478
0.0115658
0.0116071
0.0116365
0.011657
0.011704
0.0117319
0.0117765
0.0117878
0.0118097
0.0118579
0.0118977
0.0119171
0.0119584
0.0119512
0.0122054
0.000639692
0.00508371
0.00836057
0.010178
0.0107435
0.0112536
0.0112021
0.0113056
0.0112377
0.0113024
0.011242
0.0112926
0.0112423
0.0112775
0.0112359
0.0112736
0.0112523
0.0112773
0.0112591
0.0112867
0.0112744
0.0113071
0.0113242
0.0113473
0.0113232
0.0113284
0.0113176
0.0113382
0.0113642
0.0113608
0.0113629
0.0113926
0.0113903
0.0114081
0.0114478
0.0114459
0.0114546
0.0114991
0.0115025
0.0115138
0.011565
0.0116107
0.0116259
0.0116652
0.0116849
0.011701
0.0117397
0.0117717
0.0117932
0.0118407
0.011869
0.011912
0.0119267
0.0119494
0.012004
0.0120325
0.0120749
0.0121224
0.0121477
0.0124132
0.000639693
0.00508371
0.00836057
0.010178
0.0107435
0.0112536
0.0112021
0.0113055
0.0112389
0.0113049
0.0112418
0.0112907
0.0112412
0.0112763
0.0112355
0.0112735
0.0112524
0.0112773
0.0112591
0.0112867
0.0112744
0.0113071
0.0113242
0.0113473
0.0113232
0.0113284
0.0113176
0.0113382
0.0113642
0.0113607
0.0113628
0.0113926
0.0113904
0.0114081
0.0114478
0.0114461
0.0114518
0.0114974
0.0115354
0.011571
0.0115978
0.01163
0.0116484
0.0116654
0.0116938
0.0117159
0.0117337
0.0117792
0.0118032
0.0118411
0.0118667
0.0119061
0.011925
0.0119543
0.012007
0.0120339
0.0120759
0.0121236
0.0121486
0.012414
0.000633582
0.00504471
0.00829683
0.0100922
0.0106206
0.011115
0.0110569
0.011161
0.0110928
0.0111604
0.011096
0.0111461
0.0110959
0.0111322
0.0110911
0.0111299
0.0111084
0.0111341
0.0111156
0.0111437
0.0111312
0.0111644
0.0111809
0.0112048
0.0111807
0.0111863
0.0111758
0.0111967
0.0112231
0.0112203
0.0112226
0.0112526
0.0112507
0.0112687
0.0113086
0.0113073
0.0113132
0.0113589
0.0113968
0.0114328
0.0114598
0.0114933
0.0115115
0.0115299
0.0115583
0.0115794
0.0115967
0.0116418
0.0116666
0.0117052
0.0117299
0.0117703
0.0117866
0.0118163
0.0118608
0.0118985
0.0119178
0.0119594
0.0119529
0.012207
0.000646365
0.00513007
0.00842682
0.0102588
0.0108589
0.0113883
0.0113432
0.0114471
0.0113803
0.0114431
0.0113836
0.011434
0.0113845
0.0114189
0.0113775
0.0114139
0.0113926
0.0114168
0.0113988
0.0114262
0.0114141
0.0114463
0.0114649
0.0114873
0.011463
0.0114677
0.0114567
0.011477
0.0115032
0.0114993
0.0115012
0.0115307
0.0115283
0.0115459
0.0115855
0.0115835
0.011589
0.0116344
0.0116727
0.0117086
0.0117357
0.011769
0.0117874
0.0118037
0.0118319
0.0118534
0.0118703
0.0119155
0.0119383
0.0119751
0.0120035
0.0120424
0.0120644
0.0120937
0.0121492
0.0121709
0.0122251
0.0122686
0.0123221
0.0126186
0.000627717
0.00501489
0.00824478
0.00998301
0.0104717
0.0109568
0.0108961
0.0110005
0.0109269
0.0109959
0.0109299
0.0109825
0.0109325
0.0109708
0.0109328
0.0109755
0.0109536
0.0109822
0.0109619
0.0109889
0.0109777
0.011011
0.0110296
0.0110523
0.0110267
0.0110323
0.0110213
0.0110435
0.0110725
0.0110703
0.0110723
0.0111022
0.0111011
0.0111196
0.0111599
0.0111587
0.0111648
0.0112106
0.0112484
0.0112847
0.0113114
0.0113436
0.0113622
0.0113811
0.0114094
0.0114318
0.01145
0.011495
0.0115234
0.0115655
0.0115769
0.0115999
0.011646
0.0116837
0.0117054
0.0117565
0.0117742
0.0117929
0.0117529
0.0120184
0.00067072
0.00540639
0.00910191
0.0106629
0.010825
0.0108904
0.0108356
0.0109121
0.0108837
0.0109383
0.0109037
0.0109383
0.0109081
0.0109321
0.0109108
0.0109418
0.0109292
0.0109581
0.0109697
0.0109867
0.0109565
0.0109675
0.0109922
0.0109998
0.0109654
0.0109732
0.0109884
0.010986
0.0109822
0.0109927
0.0109863
0.0109941
0.0110292
0.0110517
0.0110514
0.0110515
0.0110461
0.0110695
0.0110763
0.011086
0.0111169
0.011115
0.0111233
0.0111625
0.0111669
0.0111756
0.0112228
0.011239
0.0112417
0.0112725
0.0113212
0.011337
0.0113269
0.0113507
0.0113909
0.0114636
0.0113815
0.0115229
0.0113723
0.0120608
0.00985175
0.0609643
0.0877711
0.0981038
0.0997796
0.100355
0.100052
0.100183
0.0999893
0.100103
0.0999238
0.100006
0.0998386
0.0998901
0.0997233
0.0997451
0.0995934
0.0995972
0.0994724
0.0994837
0.0993921
0.0994018
0.0992768
0.0992802
0.0991595
0.0991649
0.0990506
0.0990578
0.0989487
0.0989571
0.0988534
0.0988647
0.0987721
0.0987881
0.0987064
0.0987291
0.0986686
0.0986997
0.0986613
0.0986999
0.0986777
0.0987221
0.098717
0.0987665
0.0987667
0.0988445
0.0988957
0.0989776
0.0990426
0.0991368
0.099217
0.099286
0.0993187
0.0993453
0.0992977
0.099369
0.0992826
0.0993875
0.0987764
0.100471
1.08387
2.29677
2.71186
2.80147
2.82381
2.81981
2.82327
2.82077
2.8235
2.82092
2.82246
2.82023
2.82137
2.81957
2.82036
2.81895
2.81949
2.81833
2.81865
2.81777
2.81795
2.81717
2.81721
2.81672
2.81668
2.81596
2.81582
2.81518
2.81485
2.8143
2.81396
2.8135
2.813
2.81257
2.81208
2.81171
2.81123
2.81089
2.81025
2.80991
2.80932
2.80898
2.80835
2.808
2.8073
2.80692
2.8062
2.80575
2.80495
2.80442
2.80366
2.80282
2.80216
2.80085
2.79946
2.79816
2.79314
2.79315
2.77636
2.81881
0.701939
1.73388
2.11164
2.22046
2.24259
2.24563
2.24454
2.24546
2.24575
2.24619
2.24582
2.24637
2.24637
2.24634
2.24606
2.2471
2.24744
2.24736
2.24715
2.24759
2.24771
2.24701
2.24743
2.248
2.24704
2.24677
2.24681
2.24636
2.24654
2.24729
2.24666
2.24653
2.24734
2.24762
2.2474
2.24676
2.24668
2.2473
2.24676
2.24675
2.24728
2.24679
2.24686
2.24756
2.24712
2.24768
2.24852
2.24748
2.24772
2.24862
2.24852
2.2486
2.24803
2.24824
2.24769
2.24926
2.25124
2.25294
2.25162
2.27862
0.697993
1.71141
2.08058
2.18792
2.2126
2.22113
2.22367
2.22724
2.22873
2.2294
2.2286
2.22918
2.22917
2.22916
2.22891
2.23009
2.23047
2.23039
2.23016
2.23065
2.2308
2.23069
2.23045
2.23087
2.2311
2.23094
2.23068
2.23021
2.23011
2.22962
2.22987
2.23069
2.22984
2.2298
2.23038
2.22983
2.22995
2.2307
2.23012
2.23012
2.23068
2.23022
2.23043
2.23126
2.2306
2.23085
2.23174
2.23097
2.23113
2.23226
2.23237
2.23223
2.23146
2.2317
2.23249
2.23222
2.23249
2.23262
2.23215
2.25239
0.696049
1.7105
2.08157
2.18982
2.21515
2.22391
2.22631
2.2302
2.23158
2.23184
2.23214
2.23289
2.23229
2.23231
2.23143
2.23223
2.23262
2.23189
2.23213
2.233
2.23264
2.23259
2.23202
2.23276
2.23324
2.23312
2.23294
2.23247
2.23228
2.23167
2.23194
2.23282
2.23197
2.23188
2.23237
2.23187
2.23201
2.23277
2.23217
2.23216
2.23273
2.23227
2.23249
2.23333
2.23265
2.23288
2.23376
2.23302
2.23319
2.23433
2.23444
2.2343
2.23355
2.23386
2.23475
2.23386
2.23443
2.23507
2.23448
2.2536
0.696927
1.7101
2.08039
2.1883
2.21346
2.22217
2.22455
2.22844
2.2299
2.23022
2.23054
2.23133
2.23069
2.2307
2.22991
2.23074
2.23115
2.23043
2.23066
2.23153
2.23117
2.23112
2.23055
2.2313
2.23178
2.23167
2.23149
2.23103
2.23084
2.23023
2.2305
2.23138
2.23053
2.23044
2.23092
2.23042
2.23057
2.23132
2.23074
2.23073
2.23128
2.23082
2.23104
2.23187
2.2312
2.23144
2.23233
2.23157
2.23175
2.23277
2.23285
2.23276
2.23202
2.23229
2.23315
2.23225
2.23265
2.23337
2.23237
2.25096
0.696367
1.71011
2.08105
2.18923
2.21454
2.22324
2.22559
2.2294
2.23087
2.23129
2.23158
2.23215
2.23154
2.23156
2.23069
2.23151
2.23193
2.2312
2.23146
2.23234
2.23196
2.23192
2.23132
2.23205
2.23251
2.2324
2.23222
2.23175
2.23157
2.23096
2.23123
2.23211
2.23126
2.23117
2.23165
2.23115
2.23129
2.23204
2.23136
2.23137
2.23205
2.23157
2.2318
2.23263
2.23194
2.23215
2.233
2.2323
2.23251
2.23349
2.23355
2.23349
2.23276
2.23307
2.23399
2.2331
2.23357
2.23429
2.23347
2.25216
0.696367
1.71011
2.08105
2.18923
2.21454
2.22324
2.2256
2.22932
2.23128
2.2318
2.23107
2.23145
2.23144
2.23139
2.23065
2.2315
2.23193
2.23121
2.23146
2.23234
2.23197
2.23192
2.23132
2.23205
2.23251
2.2324
2.23222
2.23175
2.23157
2.23096
2.23123
2.23211
2.23127
2.23117
2.23164
2.23133
2.23127
2.23168
2.23133
2.23188
2.23286
2.23242
2.23274
2.23284
2.23267
2.23201
2.23224
2.23319
2.23266
2.23325
2.23367
2.23358
2.23336
2.23321
2.23364
2.23308
2.23362
2.23435
2.23354
2.25223
0.696927
1.7101
2.08039
2.18831
2.21346
2.22216
2.22456
2.22833
2.23041
2.23097
2.23025
2.23067
2.23065
2.2306
2.22989
2.23075
2.23119
2.23047
2.23072
2.23159
2.23121
2.23117
2.23058
2.23132
2.23178
2.23166
2.23147
2.231
2.23082
2.23022
2.2305
2.23138
2.23054
2.23044
2.23091
2.23061
2.23055
2.23095