/*--------------------------------*- C++ -*----------------------------------*\
  =========                 |
  \\      /  F ield         | OpenFOAM: The Open Source CFD Toolbox
   \\    /   O peration     | Website:  https://openfoam.org
    \\  /    A nd           | Version:  7
     \\/     M anipulation  |
\*---------------------------------------------------------------------------*/
FoamFile
{
    version     2.0;
    format      ascii;
    class       surfaceScalarField;
    location    "0.5";
    object      phi;
}
// * * * * * * * * * * * * * * * * * * * * * * * * * * * * * * * * * * * * * //

dimensions      [1 0 -1 0 0 0 0];

internalField   nonuniform List<scalar> 
3120
(
2.88475e-08
3.7627e-08
1.1735e-08
1.71065e-08
4.21784e-09
7.5202e-09
8.46831e-10
3.37629e-09
-7.52491e-10
1.60431e-09
-1.54963e-09
8.01699e-10
-1.96139e-09
4.16136e-10
-2.17637e-09
2.19272e-10
-2.28377e-09
1.11631e-10
-2.32814e-09
4.85421e-11
-2.33505e-09
1.10125e-11
-2.31679e-09
-1.42305e-11
-2.28403e-09
-2.879e-11
-2.24008e-09
-4.00602e-11
-2.18866e-09
-4.76184e-11
-2.13183e-09
-5.31298e-11
-2.07069e-09
-5.75714e-11
-2.00547e-09
-6.1805e-11
-1.93692e-09
-6.52769e-11
-1.86539e-09
-6.84227e-11
-1.79132e-09
-7.11247e-11
-1.7149e-09
-7.36102e-11
-1.63643e-09
-7.5811e-11
-1.55619e-09
-7.76992e-11
-1.4745e-09
-7.92743e-11
-1.39161e-09
-8.0577e-11
-1.30775e-09
-8.16472e-11
-1.22309e-09
-8.25686e-11
-1.13767e-09
-8.34653e-11
-1.0514e-09
-8.45193e-11
-9.64009e-10
-8.59982e-11
-8.74853e-10
-8.83193e-11
-7.82477e-10
-9.23628e-11
-6.8448e-10
-9.90123e-11
-5.75658e-10
-1.10947e-10
-4.44283e-10
-1.3487e-10
-2.70728e-10
-1.80241e-10
-4.08346e-11
-2.46532e-10
3.66162e-10
-4.61563e-10
-9.93812e-10
3.72981e-08
4.49314e-08
2.55254e-08
2.88908e-08
1.61539e-08
1.69044e-08
9.80092e-09
9.73924e-09
5.65253e-09
5.76017e-09
2.92697e-09
3.53329e-09
1.11311e-09
2.23535e-09
-1.07e-10
1.44442e-09
-9.36139e-10
9.45593e-10
-1.50417e-09
6.21207e-10
-1.89217e-09
4.03487e-10
-2.15877e-09
2.56712e-10
-2.33469e-09
1.51352e-10
-2.44551e-09
7.48573e-11
-2.50603e-09
1.68808e-11
-2.52698e-09
-2.83381e-11
-2.51619e-09
-6.46588e-11
-2.47851e-09
-9.59638e-11
-2.41806e-09
-1.22366e-10
-2.33807e-09
-1.45243e-10
-2.24124e-09
-1.64959e-10
-2.12991e-09
-1.82119e-10
-2.00623e-09
-1.96826e-10
-1.87211e-09
-2.09299e-10
-1.72929e-09
-2.19725e-10
-1.57929e-09
-2.28319e-10
-1.42351e-09
-2.35297e-10
-1.26314e-09
-2.40942e-10
-1.09915e-09
-2.456e-10
-9.32318e-10
-2.49725e-10
-7.631e-10
-2.5393e-10
-5.91554e-10
-2.59128e-10
-4.17286e-10
-2.66699e-10
-2.38799e-10
-2.78577e-10
-5.34478e-11
-2.98423e-10
1.40881e-10
-3.32331e-10
3.46322e-10
-3.90208e-10
5.76606e-10
-4.85011e-10
7.62459e-10
-6.645e-10
-8.58485e-10
4.82932e-08
5.28746e-08
3.85478e-08
3.86459e-08
2.89335e-08
2.65294e-08
2.09447e-08
1.77371e-08
1.47819e-08
1.19298e-08
1.01866e-08
8.13399e-09
6.82436e-09
5.60249e-09
4.38517e-09
3.88826e-09
2.61601e-09
2.71927e-09
1.32663e-09
1.91497e-09
3.80696e-10
1.35367e-09
-3.13838e-10
9.55383e-10
-8.23994e-10
6.6555e-10
-1.19482e-09
4.49646e-10
-1.45678e-09
2.82706e-10
-1.63197e-09
1.50621e-10
-1.73711e-09
4.41203e-11
-1.78369e-09
-4.58944e-11
-1.7812e-09
-1.21532e-10
-1.73726e-09
-1.86046e-10
-1.65798e-09
-2.4129e-10
-1.54889e-09
-2.88439e-10
-1.41467e-09
-3.28454e-10
-1.2593e-09
-3.6224e-10
-1.08638e-09
-3.9036e-10
-8.99037e-10
-4.13528e-10
-6.99996e-10
-4.32331e-10
-4.91647e-10
-4.47417e-10
-2.76041e-10
-4.59483e-10
-5.49355e-11
-4.69313e-10
1.70229e-10
-4.77884e-10
3.98276e-10
-4.86449e-10
6.28255e-10
-4.96669e-10
8.59661e-10
-5.10891e-10
1.09179e-09
-5.32392e-10
1.32262e-09
-5.65726e-10
1.54649e-09
-6.17046e-10
1.75163e-09
-6.93176e-10
1.8845e-09
-8.00767e-10
-8.90162e-10
5.33491e-08
5.2909e-08
4.73737e-08
4.46268e-08
3.92063e-08
3.47042e-08
3.11219e-08
2.58279e-08
2.40334e-08
1.90228e-08
1.82262e-08
1.39445e-08
1.3663e-08
1.0169e-08
1.01569e-08
7.39804e-09
7.48703e-09
5.39288e-09
5.45593e-09
3.94987e-09
3.90653e-09
2.90683e-09
2.7218e-09
2.14383e-09
1.81581e-09
1.57524e-09
1.1272e-09
1.14194e-09
6.10198e-10
8.03375e-10
2.3177e-10
5.32672e-10
-3.23322e-11
3.11765e-10
-2.02724e-10
1.27921e-10
-2.95133e-10
-2.58513e-11
-3.20515e-10
-1.57571e-10
-2.89722e-10
-2.69182e-10
-2.1176e-10
-3.63699e-10
-9.41156e-11
-4.43591e-10
5.66575e-11
-5.10688e-10
2.35002e-10
-5.66547e-10
4.3595e-10
-6.12471e-10
6.55279e-10
-6.49795e-10
8.89325e-10
-6.79734e-10
1.13491e-09
-7.03478e-10
1.38925e-09
-7.22244e-10
1.64987e-09
-7.37357e-10
1.91451e-09
-7.50324e-10
2.18096e-09
-7.62937e-10
2.44685e-09
-7.77378e-10
2.70927e-09
-7.96233e-10
2.96389e-09
-8.22387e-10
3.2034e-09
-8.58778e-10
3.416e-09
-9.07543e-10
3.58088e-09
-9.66168e-10
-1.00491e-09
5.61813e-08
5.75119e-08
5.13176e-08
4.94923e-08
4.52974e-08
4.07278e-08
3.84765e-08
3.26515e-08
3.17609e-08
2.574e-08
2.5738e-08
1.99688e-08
2.06435e-08
1.52657e-08
1.64811e-08
1.15632e-08
1.31438e-08
8.7334e-09
1.04918e-08
6.60526e-09
8.39151e-09
5.01053e-09
6.73063e-09
3.80812e-09
5.42016e-09
2.88916e-09
4.39158e-09
2.17402e-09
3.59208e-09
1.60642e-09
2.98086e-09
1.14745e-09
2.52594e-09
7.70205e-10
2.20136e-09
4.55925e-10
1.98717e-09
1.91629e-10
1.86408e-09
-3.13735e-11
1.81943e-09
-2.21627e-10
1.84076e-09
-3.82351e-10
1.91731e-09
-5.17693e-10
2.03993e-09
-6.31064e-10
2.20078e-09
-7.25353e-10
2.39318e-09
-8.03003e-10
2.61134e-09
-8.66239e-10
2.85025e-09
-9.17082e-10
3.1056e-09
-9.57392e-10
3.37355e-09
-9.88925e-10
3.65067e-09
-1.0134e-09
3.93369e-09
-1.03256e-09
4.21931e-09
-1.04821e-09
4.50396e-09
-1.06228e-09
4.78341e-09
-1.07664e-09
5.05241e-09
-1.09294e-09
5.30409e-09
-1.1123e-09
5.52984e-09
-1.13493e-09
5.72129e-09
-1.15851e-09
-1.16769e-09
5.15201e-08
5.99815e-08
5.04269e-08
5.05867e-08
4.76569e-08
4.35e-08
4.30783e-08
3.72313e-08
3.76646e-08
3.11541e-08
3.22325e-08
2.54015e-08
2.72416e-08
2.02583e-08
2.2882e-08
1.59254e-08
1.91874e-08
1.2431e-08
1.61131e-08
9.68276e-09
1.35827e-08
7.54416e-09
1.15145e-08
5.87951e-09
9.83429e-09
4.57268e-09
8.47882e-09
3.53288e-09
7.39572e-09
2.69301e-09
6.54177e-09
2.00496e-09
5.88122e-09
1.43432e-09
5.38432e-09
9.56332e-10
5.02618e-09
5.5314e-10
4.78638e-09
2.11607e-10
4.64451e-09
-7.68087e-11
4.58769e-09
-3.2284e-10
4.60223e-09
-5.29807e-10
4.67602e-09
-7.02677e-10
4.7992e-09
-8.46584e-10
4.96323e-09
-9.65304e-10
5.1608e-09
-1.06225e-09
5.3856e-09
-1.14049e-09
5.63218e-09
-1.20272e-09
5.89574e-09
-1.25138e-09
6.17196e-09
-1.28866e-09
6.45673e-09
-1.31659e-09
6.74598e-09
-1.33703e-09
7.03539e-09
-1.35167e-09
7.32015e-09
-1.36191e-09
7.59481e-09
-1.36867e-09
7.85331e-09
-1.37224e-09
8.08934e-09
-1.3725e-09
8.29868e-09
-1.36916e-09
-1.35774e-09
5.18661e-08
6.24127e-08
5.08092e-08
5.16441e-08
4.92795e-08
4.50306e-08
4.62432e-08
4.02677e-08
4.2171e-08
3.5226e-08
3.76795e-08
2.98935e-08
3.32099e-08
2.47297e-08
2.90304e-08
2.01076e-08
2.52803e-08
1.61842e-08
2.20086e-08
1.29575e-08
1.92081e-08
1.03479e-08
1.68422e-08
8.24846e-09
1.48645e-08
6.55361e-09
1.32274e-08
5.17328e-09
1.18866e-08
4.03726e-09
1.08021e-08
3.09299e-09
9.93867e-09
2.30142e-09
9.26525e-09
1.63334e-09
8.75502e-09
1.06684e-09
8.38454e-09
5.85366e-10
8.13445e-09
1.76307e-10
7.98433e-09
-1.69985e-10
7.9207e-09
-4.63752e-10
7.92956e-09
-7.09412e-10
7.99878e-09
-9.13948e-10
8.11813e-09
-1.08305e-09
8.27884e-09
-1.22157e-09
8.47338e-09
-1.33382e-09
8.69527e-09
-1.42355e-09
8.93884e-09
-1.49402e-09
9.19901e-09
-1.54804e-09
9.47106e-09
-1.588e-09
9.7504e-09
-1.61592e-09
1.00323e-08
-1.63342e-09
1.03118e-08
-1.64163e-09
1.05837e-08
-1.64114e-09
1.08426e-08
-1.63204e-09
1.10833e-08
-1.61443e-09
1.13029e-08
-1.58996e-09
-1.56229e-09
4.88984e-08
6.08281e-08
5.03649e-08
5.01777e-08
5.01411e-08
4.52545e-08
4.84454e-08
4.19631e-08
4.56577e-08
3.80136e-08
4.22089e-08
3.33432e-08
3.84662e-08
2.84743e-08
3.47136e-08
2.38628e-08
3.11501e-08
1.97508e-08
2.78929e-08
1.62177e-08
2.49947e-08
1.32491e-08
2.24653e-08
1.07808e-08
2.02907e-08
8.73123e-09
1.84452e-08
7.02196e-09
1.68982e-08
5.58764e-09
1.56179e-08
4.37692e-09
1.45732e-08
3.3498e-09
1.37352e-08
2.475e-09
1.30776e-08
1.72798e-09
1.25768e-08
1.08959e-09
1.22114e-08
5.44792e-10
1.19625e-08
8.16773e-11
1.18116e-08
-3.10394e-10
1.17451e-08
-6.40787e-10
1.17491e-08
-9.16261e-10
1.1812e-08
-1.14441e-09
1.19235e-08
-1.33191e-09
1.20753e-08
-1.48453e-09
1.22598e-08
-1.60723e-09
1.24708e-08
-1.70426e-09
1.27025e-08
-1.77916e-09
1.29498e-08
-1.83485e-09
1.32079e-08
-1.87362e-09
1.34719e-08
-1.8972e-09
1.37369e-08
-1.90669e-09
1.39981e-08
-1.9026e-09
1.42506e-08
-1.88508e-09
1.449e-08
-1.85458e-09
1.47132e-08
-1.81406e-09
-1.77314e-09
5.13293e-08
5.3777e-08
5.2585e-08
4.89222e-08
5.19903e-08
4.58489e-08
5.06368e-08
4.33162e-08
4.86121e-08
4.00385e-08
4.6008e-08
3.59484e-08
4.2997e-08
3.14873e-08
3.97906e-08
2.70718e-08
3.65836e-08
2.29606e-08
3.35204e-08
1.92837e-08
3.06911e-08
1.60812e-08
2.81416e-08
1.33331e-08
2.58882e-08
1.09875e-08
2.39282e-08
8.98497e-09
2.22477e-08
7.27149e-09
2.08261e-08
5.80207e-09
1.964e-08
4.53959e-09
1.86654e-08
3.45332e-09
1.7879e-08
2.51797e-09
1.7259e-08
1.71308e-09
1.67848e-08
1.02219e-09
1.64376e-08
4.31714e-10
1.61988e-08
-6.91333e-11
1.60528e-08
-4.92753e-10
1.59863e-08
-8.48075e-10
1.59859e-08
-1.14263e-09
1.60407e-08
-1.38558e-09
1.61412e-08
-1.58421e-09
1.62795e-08
-1.74485e-09
1.64486e-08
-1.87287e-09
1.66425e-08
-1.9727e-09
1.68559e-08
-2.0479e-09
1.70837e-08
-2.10122e-09
1.73212e-08
-2.13464e-09
1.75639e-08
-2.1494e-09
1.78073e-08
-2.14615e-09
1.80471e-08
-2.12518e-09
1.82794e-08
-2.08722e-09
1.85006e-08
-2.03585e-09
-1.98463e-09
5.82496e-08
6.0056e-08
5.55035e-08
5.16681e-08
5.38985e-08
4.74533e-08
5.25603e-08
4.46541e-08
5.10432e-08
4.15559e-08
4.9123e-08
3.78698e-08
4.67943e-08
3.38179e-08
4.41797e-08
2.96886e-08
4.14371e-08
2.57057e-08
3.8706e-08
2.20174e-08
3.60898e-08
1.86999e-08
3.36568e-08
1.57686e-08
3.14462e-08
1.32007e-08
2.94758e-08
1.09583e-08
2.77479e-08
9.0026e-09
2.62546e-08
7.29883e-09
2.4982e-08
5.81589e-09
2.3913e-08
4.52605e-09
2.30295e-08
3.40512e-09
2.23134e-08
2.43278e-09
2.17465e-08
1.59232e-09
2.13113e-08
8.69765e-10
2.09918e-08
2.52914e-10
2.07703e-08
-2.69224e-10
2.06338e-08
-7.09846e-10
2.05689e-08
-1.07654e-09
2.05643e-08
-1.37996e-09
2.06098e-08
-1.62908e-09
2.06971e-08
-1.83171e-09
2.0819e-08
-1.99446e-09
2.09693e-08
-2.12277e-09
2.11425e-08
-2.22099e-09
2.13337e-08
-2.29243e-09
2.15386e-08
-2.33949e-09
2.17528e-08
-2.36372e-09
2.19725e-08
-2.366e-09
2.21939e-08
-2.34686e-09
2.24136e-08
-2.30718e-09
2.26279e-08
-2.25054e-09
-2.19254e-09
5.83148e-08
6.25584e-08
5.57396e-08
5.42426e-08
5.44628e-08
4.87295e-08
5.36922e-08
4.54245e-08
5.28219e-08
4.24267e-08
5.15654e-08
3.91272e-08
4.98844e-08
3.55005e-08
4.78688e-08
3.17062e-08
4.56454e-08
2.79312e-08
4.3336e-08
2.4329e-08
4.1042e-08
2.09962e-08
3.88402e-08
1.79728e-08
3.67837e-08
1.52598e-08
3.49049e-08
1.28399e-08
3.32197e-08
1.06909e-08
3.17318e-08
8.79009e-09
3.04371e-08
7.11422e-09
2.93265e-08
5.64035e-09
2.83883e-08
4.34695e-09
2.76095e-08
3.21516e-09
2.6976e-08
2.22918e-09
2.64731e-08
1.37561e-09
2.60861e-08
6.42448e-10
2.58006e-08
1.83406e-11
2.56014e-08
-5.08944e-10
2.54771e-08
-9.51055e-10
2.54159e-08
-1.31789e-09
2.54077e-08
-1.62035e-09
2.5444e-08
-1.86768e-09
2.55175e-08
-2.06783e-09
2.5622e-08
-2.22731e-09
2.57523e-08
-2.35136e-09
2.59037e-08
-2.44397e-09
2.60721e-08
-2.50806e-09
2.62538e-08
-2.54564e-09
2.64455e-08
-2.55794e-09
2.66441e-08
-2.54575e-09
2.68466e-08
-2.51007e-09
2.70498e-08
-2.45403e-09
-2.39348e-09
4.94766e-08
5.23421e-08
5.27975e-08
5.09208e-08
5.40053e-08
4.75213e-08
5.44402e-08
4.49895e-08
5.42707e-08
4.25966e-08
5.35635e-08
3.98354e-08
5.24172e-08
3.66481e-08
5.0937e-08
3.3188e-08
4.92228e-08
2.96473e-08
4.73691e-08
2.61848e-08
4.54616e-08
2.29058e-08
4.35729e-08
1.98636e-08
4.17596e-08
1.70755e-08
4.00612e-08
1.4541e-08
3.85025e-08
1.22527e-08
3.70962e-08
1.01997e-08
3.58467e-08
8.36724e-09
3.47527e-08
6.73801e-09
3.38093e-08
5.29404e-09
3.30091e-08
4.01895e-09
3.23428e-08
2.89883e-09
3.17996e-08
1.92179e-09
3.13677e-08
1.07696e-09
3.10348e-08
3.53365e-10
3.07872e-08
-2.59723e-10
3.06143e-08
-7.76947e-10
3.05049e-08
-1.20775e-09
3.04494e-08
-1.56438e-09
3.04394e-08
-1.85749e-09
3.04678e-08
-2.09628e-09
3.05288e-08
-2.28841e-09
3.06172e-08
-2.44004e-09
3.07289e-08
-2.55594e-09
3.08601e-08
-2.63966e-09
3.10079e-08
-2.69372e-09
3.11693e-08
-2.7198e-09
3.13422e-08
-2.71905e-09
3.15243e-08
-2.6926e-09
3.17128e-08
-2.64296e-09
-2.58464e-09
5.33186e-08
5.13472e-08
5.54339e-08
4.88038e-08
5.61111e-08
4.68432e-08
5.61979e-08
4.49024e-08
5.59237e-08
4.28709e-08
5.53562e-08
4.04036e-08
5.45288e-08
3.74766e-08
5.3468e-08
3.42504e-08
5.22101e-08
3.09069e-08
5.0805e-08
2.75919e-08
4.93105e-08
2.44024e-08
4.77842e-08
2.13921e-08
4.62766e-08
1.85855e-08
4.48275e-08
1.59928e-08
4.34651e-08
1.36181e-08
4.2208e-08
1.146e-08
4.10669e-08
9.51173e-09
4.00472e-08
7.76131e-09
3.915e-08
6.19482e-09
3.83736e-08
4.79892e-09
3.77136e-08
3.56223e-09
3.71633e-08
2.47512e-09
3.67144e-08
1.52853e-09
3.6357e-08
7.12867e-10
3.60815e-08
1.74855e-11
3.58758e-08
-5.7006e-10
3.57318e-08
-1.06307e-09
3.56402e-08
-1.47244e-09
3.55933e-08
-1.81048e-09
3.55845e-08
-2.08755e-09
3.56081e-08
-2.31237e-09
3.56598e-08
-2.49205e-09
3.57356e-08
-2.63214e-09
3.58323e-08
-2.7369e-09
3.59476e-08
-2.80942e-09
3.60792e-08
-2.85195e-09
3.62257e-08
-2.86606e-09
3.63856e-08
-2.85312e-09
3.65572e-08
-2.81505e-09
-2.76396e-09
5.983e-08
5.60383e-08
5.84202e-08
5.02113e-08
5.79478e-08
4.73143e-08
5.75596e-08
4.52901e-08
5.71601e-08
4.32705e-08
5.67059e-08
4.08584e-08
5.6152e-08
3.80317e-08
5.54635e-08
3.49403e-08
5.46281e-08
3.17441e-08
5.36579e-08
2.8564e-08
5.25833e-08
2.5479e-08
5.14438e-08
2.25337e-08
5.02797e-08
1.9752e-08
4.91261e-08
1.71491e-08
4.80114e-08
1.47357e-08
4.69569e-08
1.25177e-08
4.59777e-08
1.04943e-08
4.5084e-08
8.6585e-09
4.4282e-08
7.00043e-09
4.35744e-08
5.50999e-09
4.29613e-08
4.17868e-09
4.244e-08
2.99944e-09
4.20057e-08
1.96547e-09
4.16518e-08
1.06892e-09
4.13709e-08
3.00108e-10
4.11534e-08
-3.51419e-10
4.09928e-08
-9.01681e-10
4.08807e-08
-1.36005e-09
4.08105e-08
-1.74024e-09
4.07763e-08
-2.05351e-09
4.0773e-08
-2.30951e-09
4.07968e-08
-2.51623e-09
4.08441e-08
-2.68003e-09
4.09125e-08
-2.80585e-09
4.09999e-08
-2.89745e-09
4.1105e-08
-2.95764e-09
4.12269e-08
-2.98857e-09
4.13651e-08
-2.99198e-09
4.15189e-08
-2.96947e-09
-2.93023e-09
5.97301e-08
5.96852e-08
5.82256e-08
5.17127e-08
5.78788e-08
4.76596e-08
5.77213e-08
4.54471e-08
5.75868e-08
4.34053e-08
5.7434e-08
4.1012e-08
5.72267e-08
3.82402e-08
5.69269e-08
3.52417e-08
5.6508e-08
3.21647e-08
5.59634e-08
2.91107e-08
5.53053e-08
2.61393e-08
5.45586e-08
2.32827e-08
5.37533e-08
2.05597e-08
5.29196e-08
1.79855e-08
5.20838e-08
1.55743e-08
5.12685e-08
1.33361e-08
5.04912e-08
1.12748e-08
4.97653e-08
9.38779e-09
4.91003e-08
7.66885e-09
4.85025e-08
6.11127e-09
4.7975e-08
4.70944e-09
4.75185e-08
3.45893e-09
4.71314e-08
2.35523e-09
4.68101e-08
1.39241e-09
4.65496e-08
5.62276e-10
4.63445e-08
-1.45032e-10
4.61875e-08
-7.44006e-10
4.60736e-08
-1.24581e-09
4.59969e-08
-1.66352e-09
4.59524e-08
-2.00928e-09
4.5936e-08
-2.29345e-09
4.5944e-08
-2.52479e-09
4.59737e-08
-2.71036e-09
4.6023e-08
-2.85581e-09
4.60905e-08
-2.96555e-09
4.61752e-08
-3.04304e-09
4.6277e-08
-3.09104e-09
4.63962e-08
-3.11186e-09
4.6533e-08
-3.10712e-09
-3.08334e-09
6.13624e-08
5.61801e-08
5.98943e-08
5.31784e-08
5.86429e-08
4.89101e-08
5.80306e-08
4.60595e-08
5.78302e-08
4.36063e-08
5.78424e-08
4.10009e-08
5.79228e-08
3.81614e-08
5.79764e-08
3.519e-08
5.79449e-08
3.21984e-08
5.77998e-08
2.9258e-08
5.7537e-08
2.64045e-08
5.71691e-08
2.36531e-08
5.67175e-08
2.10138e-08
5.62072e-08
1.84986e-08
5.56625e-08
1.61218e-08
5.51058e-08
1.38959e-08
5.45557e-08
1.1828e-08
5.40274e-08
9.91944e-09
5.35319e-08
8.16762e-09
5.30775e-08
6.56905e-09
5.26692e-08
5.12091e-09
5.231e-08
3.82107e-09
5.20007e-08
2.66709e-09
5.17405e-08
1.65481e-09
5.15271e-08
7.77491e-10
5.13575e-08
2.57426e-11
5.12268e-08
-6.12438e-10
5.11313e-08
-1.14996e-09
5.10668e-08
-1.59901e-09
5.10294e-08
-1.97211e-09
5.10156e-08
-2.28012e-09
5.10226e-08
-2.53233e-09
5.1048e-08
-2.73643e-09
5.10902e-08
-2.89867e-09
5.11481e-08
-3.02412e-09
5.12212e-08
-3.1169e-09
5.13099e-08
-3.18042e-09
5.1415e-08
-3.21771e-09
5.15378e-08
-3.2308e-09
-3.22432e-09
6.19049e-08
6.03216e-08
6.01274e-08
5.49549e-08
5.88207e-08
5.02169e-08
5.80942e-08
4.67868e-08
5.79008e-08
4.38011e-08
5.80588e-08
4.08446e-08
5.83872e-08
3.7835e-08
5.87505e-08
3.48289e-08
5.90608e-08
3.18904e-08
5.92708e-08
2.90505e-08
5.93635e-08
2.63143e-08
5.9342e-08
2.36772e-08
5.92208e-08
2.11377e-08
5.90202e-08
1.8702e-08
5.87624e-08
1.63826e-08
5.84686e-08
1.41927e-08
5.81575e-08
1.21422e-08
5.78442e-08
1.02359e-08
5.75401e-08
8.47492e-09
5.72536e-08
6.85871e-09
5.69907e-08
5.3869e-09
5.67554e-08
4.05922e-09
5.65503e-08
2.87475e-09
5.63766e-08
1.83065e-09
5.62345e-08
9.21377e-10
5.6123e-08
1.38548e-10
5.604e-08
-5.28586e-10
5.59832e-08
-1.09277e-09
5.595e-08
-1.56577e-09
5.59377e-08
-1.95998e-09
5.59436e-08
-2.28643e-09
5.59654e-08
-2.55473e-09
5.60014e-08
-2.77299e-09
5.605e-08
-2.94799e-09
5.61105e-08
-3.08537e-09
5.61828e-08
-3.18988e-09
5.62672e-08
-3.26564e-09
5.63652e-08
-3.31646e-09
5.64787e-08
-3.34507e-09
-3.35541e-09
5.81716e-08
6.296e-08
5.81249e-08
5.50024e-08
5.78761e-08
5.04672e-08
5.76857e-08
4.69791e-08
5.77917e-08
4.36973e-08
5.81928e-08
4.0446e-08
5.87712e-08
3.72591e-08
5.94015e-08
3.42014e-08
5.99934e-08
3.13012e-08
6.04958e-08
2.85508e-08
6.08869e-08
2.59259e-08
6.11637e-08
2.34032e-08
6.13353e-08
2.09689e-08
6.14176e-08
1.86226e-08
6.14299e-08
1.63732e-08
6.13914e-08
1.42342e-08
6.13193e-08
1.22174e-08
6.12273e-08
1.0331e-08
6.11258e-08
8.57956e-09
6.10222e-08
6.96538e-09
6.09221e-08
5.48995e-09
6.08299e-08
4.15423e-09
6.0749e-08
2.95813e-09
6.06822e-08
1.89956e-09
6.06316e-08
9.73786e-10
6.05981e-08
1.73331e-10
6.0582e-08
-5.11618e-10
6.05825e-08
-1.09285e-09
6.05986e-08
-1.58172e-09
6.06286e-08
-1.99013e-09
6.06708e-08
-2.32893e-09
6.07233e-08
-2.60777e-09
6.07847e-08
-2.835e-09
6.08538e-08
-3.01777e-09
6.093e-08
-3.1622e-09
6.1013e-08
-3.27363e-09
6.11034e-08
-3.35681e-09
6.12025e-08
-3.41634e-09
6.13125e-08
-3.45586e-09
-3.47976e-09
5.4304e-08
5.62825e-08
5.59031e-08
5.34064e-08
5.65603e-08
4.98132e-08
5.70767e-08
4.64659e-08
5.76717e-08
4.31055e-08
5.8406e-08
3.97147e-08
5.92318e-08
3.64365e-08
6.0074e-08
3.33623e-08
6.08733e-08
3.0505e-08
6.1593e-08
2.7834e-08
6.22146e-08
2.53073e-08
6.27325e-08
2.28882e-08
6.31509e-08
2.05534e-08
6.34813e-08
1.82951e-08
6.37388e-08
1.61186e-08
6.39395e-08
1.40365e-08
6.40974e-08
1.20625e-08
6.42236e-08
1.02078e-08
6.43261e-08
8.48004e-09
6.44107e-08
6.88373e-09
6.44818e-08
5.42163e-09
6.45435e-08
4.09521e-09
6.45996e-08
2.90445e-09
6.46539e-08
1.84739e-09
6.47097e-08
9.19663e-10
6.47699e-08
1.14456e-10
6.48364e-08
-5.77208e-10
6.491e-08
-1.1659e-09
6.49909e-08
-1.6624e-09
6.50785e-08
-2.07779e-09
6.51718e-08
-2.42247e-09
6.52694e-08
-2.70587e-09
6.53702e-08
-2.93637e-09
6.54731e-08
-3.1213e-09
6.55774e-08
-3.26713e-09
6.56827e-08
-3.37966e-09
6.57894e-08
-3.46421e-09
6.58984e-08
-3.5261e-09
6.60116e-08
-3.56983e-09
-3.60111e-09
5.43443e-08
5.87876e-08
5.48473e-08
5.29093e-08
5.60053e-08
4.866e-08
5.7047e-08
4.54285e-08
5.80084e-08
4.21481e-08
5.89657e-08
3.87613e-08
5.9932e-08
3.54738e-08
6.08869e-08
3.2411e-08
6.18044e-08
2.95909e-08
6.26631e-08
2.69787e-08
6.34474e-08
2.45262e-08
6.41491e-08
2.21896e-08
6.47676e-08
1.99379e-08
6.53091e-08
1.77566e-08
6.57836e-08
1.56471e-08
6.62021e-08
1.36209e-08
6.65744e-08
1.16931e-08
6.69079e-08
9.8773e-09
6.72076e-08
8.18324e-09
6.74772e-08
6.61706e-09
6.77195e-08
5.18202e-09
6.7938e-08
3.87927e-09
6.81366e-08
2.70823e-09
6.83195e-08
1.66648e-09
6.84912e-08
7.49611e-10
6.86558e-08
-4.87389e-11
6.88163e-08
-7.36807e-10
6.8975e-08
-1.32391e-09
6.91329e-08
-1.82002e-09
6.92904e-08
-2.23523e-09
6.9447e-08
-2.57925e-09
6.96018e-08
-2.86107e-09
6.97538e-08
-3.08886e-09
6.99019e-08
-3.26998e-09
7.00453e-08
-3.41108e-09
7.01832e-08
-3.51826e-09
7.03155e-08
-3.59726e-09
7.04427e-08
-3.65395e-09
7.05657e-08
-3.69359e-09
-3.72324e-09
4.38747e-08
5.34173e-08
5.04951e-08
4.62963e-08
5.46128e-08
4.45485e-08
5.70105e-08
4.30361e-08
5.85669e-08
4.05966e-08
5.97615e-08
3.75711e-08
6.08231e-08
3.44164e-08
6.18348e-08
3.14031e-08
6.2816e-08
2.86135e-08
6.37616e-08
2.60366e-08
6.46604e-08
2.36308e-08
6.55025e-08
2.13507e-08
6.62835e-08
1.916e-08
6.70042e-08
1.7039e-08
6.76686e-08
1.49857e-08
6.82821e-08
1.30104e-08
6.88495e-08
1.11288e-08
6.9374e-08
9.35573e-09
6.98576e-08
7.70247e-09
7.03018e-08
6.17565e-09
7.07083e-08
4.77819e-09
7.10797e-08
3.51032e-09
7.14198e-08
2.37035e-09
7.17332e-08
1.35499e-09
7.2025e-08
4.59514e-10
7.22997e-08
-3.22155e-10
7.25615e-08
-9.97583e-10
7.28132e-08
-1.57493e-09
7.30567e-08
-2.06315e-09
7.32929e-08
-2.47129e-09
7.35218e-08
-2.8082e-09
7.37428e-08
-3.08227e-09
7.39548e-08
-3.30131e-09
7.41569e-08
-3.47251e-09
7.43477e-08
-3.6025e-09
7.45264e-08
-3.69751e-09
7.4692e-08
-3.76353e-09
7.4844e-08
-3.8067e-09
7.49825e-08
-3.83282e-09
-3.84936e-09
5.5444e-08
5.45775e-08
5.59905e-08
4.57577e-08
5.72605e-08
4.32852e-08
5.85537e-08
4.17488e-08
5.97137e-08
3.9442e-08
6.07888e-08
3.6501e-08
6.18282e-08
3.33817e-08
6.28588e-08
3.03768e-08
6.38867e-08
2.75897e-08
6.49045e-08
2.50226e-08
6.59002e-08
2.26388e-08
6.68628e-08
2.03916e-08
6.7785e-08
1.82411e-08
6.86631e-08
1.61641e-08
6.94958e-08
1.41562e-08
7.02831e-08
1.22262e-08
7.1025e-08
1.03899e-08
7.17213e-08
8.66234e-09
7.23715e-08
7.05503e-09
7.29756e-08
5.57424e-09
7.35345e-08
4.22192e-09
7.40503e-08
2.99691e-09
7.45266e-08
1.89616e-09
7.49681e-08
9.15358e-10
7.53799e-08
4.93579e-11
7.57669e-08
-7.07835e-10
7.61333e-08
-1.36295e-09
7.64825e-08
-1.9233e-09
7.68165e-08
-2.39672e-09
7.71366e-08
-2.79119e-09
7.74432e-08
-3.11467e-09
7.77356e-08
-3.37486e-09
7.80131e-08
-3.57906e-09
7.82743e-08
-3.73415e-09
7.85179e-08
-3.84658e-09
7.87423e-08
-3.92249e-09
7.8946e-08
-3.96785e-09
7.91274e-08
-3.98878e-09
7.92853e-08
-3.99139e-09
-3.98138e-09
5.48159e-08
4.64061e-08
5.6923e-08
4.36582e-08
5.80542e-08
4.21611e-08
5.92378e-08
4.05716e-08
6.04204e-08
3.82653e-08
6.15707e-08
3.5356e-08
6.27015e-08
3.2256e-08
6.38286e-08
2.92543e-08
6.49564e-08
2.64662e-08
6.60798e-08
2.39034e-08
6.71903e-08
2.15322e-08
6.82796e-08
1.93059e-08
6.93405e-08
1.71837e-08
7.03667e-08
1.51413e-08
7.13533e-08
1.31727e-08
7.22968e-08
1.12859e-08
7.31941e-08
9.49556e-09
7.4043e-08
7.81641e-09
7.48417e-08
6.25909e-09
7.55897e-08
4.82892e-09
7.62875e-08
3.52654e-09
7.69374e-08
2.34935e-09
7.75427e-08
1.29295e-09
7.81077e-08
3.52169e-10
7.86372e-08
-4.78558e-10
7.91358e-08
-1.20511e-09
7.96075e-08
-1.83351e-09
8.00553e-08
-2.3703e-09
8.04814e-08
-2.82231e-09
8.08872e-08
-3.1966e-09
8.1273e-08
-3.50028e-09
8.16384e-08
-3.74033e-09
8.19826e-08
-3.9235e-09
8.23044e-08
-4.05622e-09
8.2602e-08
-4.14459e-09
8.28735e-08
-4.19445e-09
8.31165e-08
-4.21148e-09
8.33285e-08
-4.20138e-09
8.35069e-08
-4.17051e-09
-4.1192e-09
6.15931e-08
5.15121e-08
5.92111e-08
4.60482e-08
5.9004e-08
4.23757e-08
5.97829e-08
3.97995e-08
6.0921e-08
3.71333e-08
6.21696e-08
3.41132e-08
6.34492e-08
3.09816e-08
6.47368e-08
2.79717e-08
6.60218e-08
2.51858e-08
6.72968e-08
2.26327e-08
6.85557e-08
2.02774e-08
6.97926e-08
1.80728e-08
7.10014e-08
1.59786e-08
7.21753e-08
1.39709e-08
7.33083e-08
1.20431e-08
7.43952e-08
1.02021e-08
7.54324e-08
8.46139e-09
7.64175e-08
6.8343e-09
7.7349e-08
5.33033e-09
7.82269e-08
3.95364e-09
7.90522e-08
2.70367e-09
7.98271e-08
1.57668e-09
8.05547e-08
5.67381e-10
8.12386e-08
-3.29928e-10
8.18829e-08
-1.12123e-09
8.2491e-08
-1.81189e-09
8.30663e-08
-2.40769e-09
8.36113e-08
-2.91445e-09
8.4128e-08
-3.33828e-09
8.46173e-08
-3.68552e-09
8.50798e-08
-3.96257e-09
8.55154e-08
-4.17581e-09
8.59232e-08
-4.33142e-09
8.63021e-08
-4.4353e-09
8.66502e-08
-4.49306e-09
8.69653e-08
-4.50997e-09
8.72445e-08
-4.49121e-09
8.74841e-08
-4.44157e-09
8.76807e-08
-4.36776e-09
-4.26001e-09
5.50455e-08
4.56553e-08
5.75518e-08
4.35505e-08
5.88158e-08
4.11196e-08
6.00122e-08
3.86103e-08
6.13243e-08
3.58278e-08
6.27245e-08
3.2719e-08
6.41782e-08
2.95336e-08
6.56544e-08
2.65006e-08
6.71302e-08
2.37148e-08
6.85911e-08
2.11764e-08
7.00282e-08
1.88445e-08
7.14348e-08
1.66702e-08
7.28043e-08
1.46129e-08
7.41302e-08
1.26486e-08
7.54067e-08
1.077e-08
7.66298e-08
8.98231e-09
7.7797e-08
7.29725e-09
7.89076e-08
5.72669e-09
7.99617e-08
4.27893e-09
8.09607e-08
2.95726e-09
8.19063e-08
1.7605e-09
8.28007e-08
6.84523e-10
8.36463e-08
-2.76182e-10
8.44458e-08
-1.12765e-09
8.52015e-08
-1.8754e-09
8.59159e-08
-2.52494e-09
8.65911e-08
-3.08167e-09
8.72287e-08
-3.55112e-09
8.78301e-08
-3.93904e-09
8.83965e-08
-4.25135e-09
8.89282e-08
-4.49404e-09
8.94256e-08
-4.67301e-09
8.98881e-08
-4.79393e-09
9.03148e-08
-4.86214e-09
9.07041e-08
-4.88259e-09
9.10536e-08
-4.85983e-09
9.13601e-08
-4.79825e-09
9.16192e-08
-4.70121e-09
9.1827e-08
-4.57615e-09
-4.3975e-09
6.37294e-08
5.20135e-08
6.1413e-08
4.5876e-08
6.09043e-08
4.16364e-08
6.12542e-08
3.82678e-08
6.21964e-08
3.48923e-08
6.35218e-08
3.13999e-08
6.50572e-08
2.8004e-08
6.66899e-08
2.48734e-08
6.83544e-08
2.20554e-08
7.00136e-08
1.95219e-08
7.16459e-08
1.72167e-08
7.32375e-08
1.50828e-08
7.47786e-08
1.30758e-08
7.62621e-08
1.11688e-08
7.76837e-08
9.35188e-09
7.90415e-08
7.62784e-09
8.03358e-08
6.00606e-09
8.15686e-08
4.49689e-09
8.27424e-08
3.10789e-09
8.386e-08
1.84223e-09
8.49238e-08
6.99094e-10
8.59356e-08
-3.25092e-10
8.6897e-08
-1.23557e-09
8.78087e-08
-2.03755e-09
8.86715e-08
-2.7366e-09
8.9486e-08
-3.3381e-09
9.02531e-08
-3.84752e-09
9.09734e-08
-4.27052e-09
9.16481e-08
-4.61298e-09
9.22782e-08
-4.88087e-09
9.28647e-08
-5.08006e-09
9.34081e-08
-5.21621e-09
9.39088e-08
-5.29456e-09
9.43665e-08
-5.31985e-09
9.478e-08
-5.2963e-09
9.51473e-08
-5.22749e-09
9.54655e-08
-5.11684e-09
9.57295e-08
-4.96575e-09
9.59357e-08
-4.78297e-09
-4.52124e-09
5.88992e-08
4.86595e-08
6.04448e-08
4.43393e-08
6.09915e-08
4.10979e-08
6.17553e-08
3.75115e-08
6.291e-08
3.37446e-08
6.4389e-08
2.99274e-08
6.60822e-08
2.63169e-08
6.78941e-08
2.30671e-08
6.97558e-08
2.0199e-08
7.16204e-08
1.76622e-08
7.34562e-08
1.53856e-08
7.52414e-08
1.33019e-08
7.69621e-08
1.13592e-08
7.861e-08
9.52465e-09
8.01821e-08
7.78338e-09
8.16792e-08
6.1342e-09
8.31046e-08
4.58383e-09
8.44632e-08
3.14132e-09
8.57597e-08
1.81417e-09
8.6998e-08
6.06482e-10
8.81805e-08
-4.81013e-10
8.93085e-08
-1.45086e-09
9.03814e-08
-2.30645e-09
9.13983e-08
-3.05264e-09
9.23579e-08
-3.69463e-09
9.32592e-08
-4.23806e-09
9.41019e-08
-4.68894e-09
9.4886e-08
-5.05366e-09
9.56126e-08
-5.33877e-09
9.62832e-08
-5.55077e-09
9.68994e-08
-5.69582e-09
9.7463e-08
-5.77952e-09
9.79754e-08
-5.8068e-09
9.84373e-08
-5.78178e-09
9.88487e-08
-5.70785e-09
9.92084e-08
-5.58747e-09
9.95141e-08
-5.42293e-09
9.97611e-08
-5.21321e-09
9.99465e-08
-4.96896e-09
-4.61628e-09
6.15148e-08
4.69684e-08
6.10891e-08
4.47731e-08
6.14749e-08
4.072e-08
6.24342e-08
3.65597e-08
6.38134e-08
3.23725e-08
6.5493e-08
2.82544e-08
6.73715e-08
2.44446e-08
6.93701e-08
2.10743e-08
7.14275e-08
1.8147e-08
7.34951e-08
1.55997e-08
7.55344e-08
1.33511e-08
7.75166e-08
1.13241e-08
7.94229e-08
9.45711e-09
8.1243e-08
7.70842e-09
8.29743e-08
6.05577e-09
8.46194e-08
4.49261e-09
8.61839e-08
3.02253e-09
8.76747e-08
1.65355e-09
8.90978e-08
3.93876e-10
9.04573e-08
-7.50361e-10
9.17551e-08
-1.77639e-09
9.29904e-08
-2.68398e-09
9.41612e-08
-3.47531e-09
9.52647e-08
-4.15429e-09
9.62979e-08
-4.72617e-09
9.72585e-08
-5.19728e-09
9.81456e-08
-5.57482e-09
9.89595e-08
-5.86649e-09
9.97017e-08
-6.08011e-09
1.00375e-07
-6.22318e-09
1.00982e-07
-6.30246e-09
1.01526e-07
-6.3237e-09
1.02011e-07
-6.29154e-09
1.02439e-07
-6.20949e-09
1.02811e-07
-6.08001e-09
1.03128e-07
-5.90433e-09
1.03388e-07
-5.68346e-09
1.03588e-07
-5.41372e-09
1.03727e-07
-5.1081e-09
-4.6634e-09
6.4751e-08
5.07037e-08
6.27832e-08
4.67492e-08
6.26864e-08
4.08248e-08
6.36066e-08
3.56472e-08
6.51267e-08
3.08596e-08
6.699e-08
2.63978e-08
6.90516e-08
2.23894e-08
7.12333e-08
1.88986e-08
7.34815e-08
1.59043e-08
7.57486e-08
1.33379e-08
7.79913e-08
1.11133e-08
8.01745e-08
9.1455e-09
8.22735e-08
7.36239e-09
8.42749e-08
5.71111e-09
8.61745e-08
4.1599e-09
8.79753e-08
2.69539e-09
8.96836e-08
1.31753e-09
9.13067e-08
3.34505e-11
9.28509e-08
-1.14744e-09
9.43193e-08
-2.21615e-09
9.57123e-08
-3.16697e-09
9.70278e-08
-3.99727e-09
9.82622e-08
-4.70768e-09
9.94114e-08
-5.30163e-09
1.00472e-07
-5.78494e-09
1.01441e-07
-6.16527e-09
1.02319e-07
-6.45159e-09
1.03107e-07
-6.65353e-09
1.03809e-07
-6.78063e-09
1.04428e-07
-6.84167e-09
1.0497e-07
-6.84419e-09
1.05441e-07
-6.79416e-09
1.05846e-07
-6.69593e-09
1.06189e-07
-6.55228e-09
1.06473e-07
-6.36469e-09
1.06702e-07
-6.13309e-09
1.06875e-07
-5.8572e-09
1.06992e-07
-5.5307e-09
1.07052e-07
-5.16875e-09
-4.64042e-09
5.86193e-08
4.63036e-08
6.14083e-08
4.39687e-08
6.29697e-08
3.92715e-08
6.46733e-08
3.39513e-08
6.6665e-08
2.88753e-08
6.88492e-08
2.42204e-08
7.11606e-08
2.00844e-08
7.35646e-08
1.65006e-08
7.60291e-08
1.34455e-08
7.85137e-08
1.08586e-08
8.09738e-08
8.65813e-09
8.33694e-08
6.7547e-09
8.56702e-08
5.06598e-09
8.78585e-08
3.52692e-09
8.99275e-08
2.0947e-09
9.18791e-08
7.47401e-10
9.37184e-08
-5.1845e-10
9.5453e-08
-1.69798e-09
9.70871e-08
-2.77866e-09
9.86231e-08
-3.74947e-09
1.0006e-07
-4.60158e-09
1.01395e-07
-5.33031e-09
1.02625e-07
-5.93531e-09
1.03746e-07
-6.42029e-09
1.04755e-07
-6.79232e-09
1.05652e-07
-7.06101e-09
1.06439e-07
-7.23763e-09
1.07121e-07
-7.33398e-09
1.07702e-07
-7.36148e-09
1.08192e-07
-7.33024e-09
1.08597e-07
-7.24846e-09
1.08925e-07
-7.12218e-09
1.09185e-07
-6.9553e-09
1.09382e-07
-6.74978e-09
1.09524e-07
-6.50601e-09
1.09613e-07
-6.22269e-09
1.09654e-07
-5.89822e-09
1.09647e-07
-5.52429e-09
1.09595e-07
-5.117e-09
-4.52507e-09
6.16875e-08
5.11818e-08
6.17215e-08
4.39437e-08
6.34832e-08
3.75182e-08
6.58265e-08
3.16158e-08
6.83951e-08
2.63142e-08
7.10402e-08
2.15823e-08
7.37258e-08
1.74054e-08
7.64509e-08
1.37817e-08
7.92043e-08
1.06979e-08
8.19554e-08
8.11302e-09
8.46623e-08
5.95633e-09
8.72835e-08
4.13831e-09
8.97854e-08
2.56861e-09
9.21473e-08
1.1692e-09
9.43595e-08
-1.13519e-10
9.64231e-08
-1.31259e-09
9.83428e-08
-2.43476e-09
1.00124e-07
-3.47588e-09
1.01771e-07
-4.4229e-09
1.03286e-07
-5.26185e-09
1.04669e-07
-5.98173e-09