/*--------------------------------*- C++ -*----------------------------------*\
  =========                 |
  \\      /  F ield         | OpenFOAM: The Open Source CFD Toolbox
   \\    /   O peration     | Website:  https://openfoam.org
    \\  /    A nd           | Version:  7
     \\/     M anipulation  |
\*---------------------------------------------------------------------------*/
FoamFile
{
    version     2.0;
    format      ascii;
    class       volScalarField;
    location    "0.58";
    object      alphat;
}
// * * * * * * * * * * * * * * * * * * * * * * * * * * * * * * * * * * * * * //

dimensions      [1 -1 -1 0 0 0 0];

internalField   nonuniform List<scalar> 
2400
(
1.68154e-07
1.07136e-07
7.6194e-08
5.83768e-08
4.68148e-08
3.86241e-08
3.24704e-08
2.76575e-08
2.37816e-08
2.05888e-08
1.79103e-08
1.56293e-08
1.36629e-08
1.19507e-08
1.04485e-08
9.12294e-09
7.94881e-09
6.90663e-09
5.98106e-09
5.15968e-09
4.43219e-09
3.78979e-09
3.22468e-09
2.72985e-09
2.29879e-09
1.92545e-09
1.60411e-09
1.32937e-09
1.09618e-09
8.99805e-10
7.35862e-10
6.00347e-10
4.89635e-10
4.00481e-10
3.29994e-10
2.75577e-10
2.34831e-10
2.05451e-10
1.85173e-10
1.71819e-10
1.63437e-10
1.58426e-10
1.55593e-10
1.54111e-10
1.53441e-10
1.53247e-10
1.53326e-10
1.53559e-10
1.53876e-10
1.54238e-10
1.54623e-10
1.55019e-10
1.55421e-10
1.55823e-10
1.56225e-10
1.56626e-10
1.57025e-10
1.57422e-10
1.57817e-10
1.58211e-10
1.58602e-10
1.58992e-10
1.59381e-10
1.59768e-10
1.60153e-10
1.60537e-10
1.6092e-10
1.61301e-10
1.61682e-10
1.62061e-10
1.62439e-10
1.62817e-10
1.63194e-10
1.63569e-10
1.63945e-10
1.64319e-10
1.64693e-10
1.65067e-10
1.65439e-10
1.65812e-10
1.66184e-10
1.66555e-10
1.66926e-10
1.67297e-10
1.67667e-10
1.68036e-10
1.68403e-10
1.68769e-10
1.69133e-10
1.69492e-10
1.69847e-10
1.70194e-10
1.7053e-10
1.70852e-10
1.71152e-10
1.71425e-10
1.7166e-10
1.71845e-10
1.71965e-10
1.72002e-10
1.71932e-10
1.7173e-10
1.71365e-10
1.70803e-10
1.70004e-10
1.68925e-10
1.67519e-10
1.65736e-10
1.6352e-10
1.60809e-10
1.57536e-10
1.53613e-10
1.4893e-10
1.43321e-10
1.36529e-10
1.28139e-10
1.17456e-10
1.03255e-10
8.30616e-11
4.94775e-11
2.06003e-07
1.54973e-07
1.19994e-07
9.56975e-08
7.82222e-08
6.51733e-08
5.50993e-08
4.71009e-08
4.06006e-08
3.52135e-08
3.06748e-08
2.67973e-08
2.34463e-08
2.05229e-08
1.79539e-08
1.56841e-08
1.36715e-08
1.18834e-08
1.02942e-08
8.88303e-09
7.63246e-09
6.52761e-09
5.55531e-09
4.70361e-09
3.96146e-09
3.31851e-09
2.76498e-09
2.29164e-09
1.88981e-09
1.55137e-09
1.26879e-09
1.03519e-09
8.44319e-10
6.90606e-10
5.69069e-10
4.75234e-10
4.04969e-10
3.54301e-10
3.19327e-10
2.96295e-10
2.81837e-10
2.73194e-10
2.68308e-10
2.65751e-10
2.64595e-10
2.6426e-10
2.64396e-10
2.64797e-10
2.65343e-10
2.65967e-10
2.66631e-10
2.67315e-10
2.68007e-10
2.68701e-10
2.69394e-10
2.70085e-10
2.70773e-10
2.71458e-10
2.7214e-10
2.72818e-10
2.73493e-10
2.74166e-10
2.74835e-10
2.75502e-10
2.76167e-10
2.76829e-10
2.77489e-10
2.78147e-10
2.78803e-10
2.79457e-10
2.80109e-10
2.8076e-10
2.8141e-10
2.82058e-10
2.82705e-10
2.83351e-10
2.83996e-10
2.8464e-10
2.85283e-10
2.85925e-10
2.86566e-10
2.87207e-10
2.87847e-10
2.88485e-10
2.89123e-10
2.89759e-10
2.90393e-10
2.91024e-10
2.91651e-10
2.92271e-10
2.92882e-10
2.93481e-10
2.94061e-10
2.94615e-10
2.95134e-10
2.95604e-10
2.96009e-10
2.96329e-10
2.96536e-10
2.96599e-10
2.96479e-10
2.96132e-10
2.95503e-10
2.94535e-10
2.9316e-10
2.91303e-10
2.88885e-10
2.8582e-10
2.82012e-10
2.77361e-10
2.7175e-10
2.6504e-10
2.57049e-10
2.47509e-10
2.36006e-10
2.21863e-10
2.0394e-10
1.80174e-10
1.46186e-10
8.83825e-11
2.1585e-07
1.7316e-07
1.40185e-07
1.15046e-07
9.57506e-08
8.0707e-08
6.87597e-08
5.90934e-08
5.11351e-08
4.44785e-08
3.88318e-08
3.39828e-08
2.97752e-08
2.60929e-08
2.28485e-08
1.9976e-08
1.74245e-08
1.51545e-08
1.31345e-08
1.13389e-08
9.74631e-09
8.33825e-09
7.09833e-09
6.01161e-09
5.06422e-09
4.24312e-09
3.53597e-09
2.93109e-09
2.41745e-09
1.98474e-09
1.62338e-09
1.3246e-09
1.08044e-09
8.83784e-10
7.28276e-10
6.08201e-10
5.18276e-10
4.53425e-10
4.08658e-10
3.79173e-10
3.60662e-10
3.49596e-10
3.43338e-10
3.40064e-10
3.38583e-10
3.38154e-10
3.38327e-10
3.3884e-10
3.39538e-10
3.40337e-10
3.41187e-10
3.42061e-10
3.42946e-10
3.43834e-10
3.44722e-10
3.45606e-10
3.46486e-10
3.47362e-10
3.48235e-10
3.49103e-10
3.49967e-10
3.50827e-10
3.51684e-10
3.52537e-10
3.53388e-10
3.54235e-10
3.55079e-10
3.55921e-10
3.5676e-10
3.57597e-10
3.58432e-10
3.59265e-10
3.60096e-10
3.60926e-10
3.61753e-10
3.6258e-10
3.63405e-10
3.64229e-10
3.65051e-10
3.65873e-10
3.66694e-10
3.67513e-10
3.68332e-10
3.69149e-10
3.69965e-10
3.70779e-10
3.7159e-10
3.72398e-10
3.732e-10
3.73994e-10
3.74776e-10
3.75541e-10
3.76283e-10
3.76993e-10
3.77656e-10
3.78258e-10
3.78777e-10
3.79186e-10
3.79452e-10
3.79533e-10
3.79381e-10
3.78938e-10
3.78137e-10
3.76902e-10
3.75148e-10
3.72782e-10
3.69702e-10
3.65802e-10
3.60964e-10
3.55066e-10
3.47971e-10
3.39517e-10
3.29499e-10
3.17622e-10
3.0343e-10
2.86181e-10
2.64619e-10
2.36383e-10
1.95934e-10
1.24032e-10
2.19211e-07
1.81194e-07
1.50554e-07
1.26075e-07
1.06508e-07
9.07563e-08
7.79393e-08
6.73792e-08
5.85658e-08
5.11171e-08
4.47479e-08
3.92442e-08
3.44448e-08
3.02279e-08
2.65007e-08
2.31919e-08
2.02467e-08
1.76216e-08
1.52822e-08
1.32e-08
1.13513e-08
9.71529e-09
8.27353e-09
7.00907e-09
5.9061e-09
4.94968e-09
4.12564e-09
3.42051e-09
2.82156e-09
2.31683e-09
1.89523e-09
1.54657e-09
1.2616e-09
1.03203e-09
8.50476e-10
7.10266e-10
6.05249e-10
5.29504e-10
4.77209e-10
4.42762e-10
4.21133e-10
4.08202e-10
4.00888e-10
3.9706e-10
3.95328e-10
3.94825e-10
3.95027e-10
3.95625e-10
3.9644e-10
3.97372e-10
3.98364e-10
3.99385e-10
4.00419e-10
4.01455e-10
4.02491e-10
4.03524e-10
4.04551e-10
4.05575e-10
4.06593e-10
4.07606e-10
4.08615e-10
4.0962e-10
4.1062e-10
4.11616e-10
4.12609e-10
4.13598e-10
4.14584e-10
4.15567e-10
4.16546e-10
4.17524e-10
4.18498e-10
4.19471e-10
4.20441e-10
4.21409e-10
4.22376e-10
4.23341e-10
4.24304e-10
4.25266e-10
4.26226e-10
4.27186e-10
4.28144e-10
4.29101e-10
4.30056e-10
4.31011e-10
4.31963e-10
4.32914e-10
4.33861e-10
4.34803e-10
4.35739e-10
4.36666e-10
4.37579e-10
4.38473e-10
4.3934e-10
4.40168e-10
4.40943e-10
4.41646e-10
4.42252e-10
4.4273e-10
4.4304e-10
4.43136e-10
4.42961e-10
4.42446e-10
4.41515e-10
4.40079e-10
4.38041e-10
4.35294e-10
4.31723e-10
4.27204e-10
4.21612e-10
4.14813e-10
4.06664e-10
3.97008e-10
3.8565e-10
3.72327e-10
3.56645e-10
3.37984e-10
3.15355e-10
2.86942e-10
2.4792e-10
1.76742e-10
2.20593e-07
1.85054e-07
1.56116e-07
1.32521e-07
1.13226e-07
9.73602e-08
8.42117e-08
7.32129e-08
6.39195e-08
5.59868e-08
4.91491e-08
4.32022e-08
3.79892e-08
3.33893e-08
2.93095e-08
2.56774e-08
2.24368e-08
1.95428e-08
1.69595e-08
1.46572e-08
1.26107e-08
1.07979e-08
9.19895e-09
7.79565e-09
6.57082e-09
5.50817e-09
4.59218e-09
3.80806e-09
3.14178e-09
2.58015e-09
2.1109e-09
1.72275e-09
1.40544e-09
1.14978e-09
9.47546e-10
7.91348e-10
6.74338e-10
5.8993e-10
5.31645e-10
4.93247e-10
4.69133e-10
4.54714e-10
4.46558e-10
4.42288e-10
4.40355e-10
4.39793e-10
4.40016e-10
4.40681e-10
4.41589e-10
4.42627e-10
4.43732e-10
4.44869e-10
4.4602e-10
4.47175e-10
4.48328e-10
4.49478e-10
4.50623e-10
4.51763e-10
4.52897e-10
4.54025e-10
4.55149e-10
4.56268e-10
4.57382e-10
4.58492e-10
4.59597e-10
4.60699e-10
4.61797e-10
4.62892e-10
4.63983e-10
4.65072e-10
4.66157e-10
4.6724e-10
4.68321e-10
4.69399e-10
4.70476e-10
4.7155e-10
4.72623e-10
4.73695e-10
4.74765e-10
4.75833e-10
4.769e-10
4.77966e-10
4.79031e-10
4.80093e-10
4.81154e-10
4.82213e-10
4.83268e-10
4.84318e-10
4.8536e-10
4.86393e-10
4.8741e-10
4.88405e-10
4.8937e-10
4.90293e-10
4.91156e-10
4.91939e-10
4.92615e-10
4.93148e-10
4.93495e-10
4.93603e-10
4.9341e-10
4.9284e-10
4.91808e-10
4.90218e-10
4.87961e-10
4.84921e-10
4.80973e-10
4.75988e-10
4.69833e-10
4.62373e-10
4.53475e-10
4.43e-10
4.30797e-10
4.16681e-10
4.00404e-10
3.81636e-10
3.6002e-10
3.35431e-10
3.0868e-10
2.8416e-10
2.2124e-07
1.87029e-07
1.59194e-07
1.36338e-07
1.17435e-07
1.01692e-07
8.848e-08
7.73006e-08
6.77589e-08
5.95439e-08
5.24114e-08
4.61706e-08
4.06725e-08
3.58011e-08
3.14657e-08
2.75953e-08
2.4134e-08
2.1037e-08
1.82681e-08
1.5797e-08
1.35979e-08
1.16482e-08
9.92702e-09
8.41539e-09
7.09521e-09
5.94924e-09
4.96099e-09
4.11468e-09
3.39532e-09
2.78878e-09
2.28187e-09
1.86247e-09
1.51956e-09
1.24322e-09
1.0246e-09
8.5571e-10
7.29176e-10
6.37884e-10
5.74834e-10
5.33291e-10
5.07199e-10
4.91595e-10
4.82766e-10
4.78143e-10
4.7605e-10
4.75439e-10
4.75679e-10
4.76397e-10
4.77378e-10
4.78499e-10
4.79694e-10
4.80923e-10
4.82167e-10
4.83415e-10
4.84662e-10
4.85905e-10
4.87143e-10
4.88375e-10
4.896e-10
4.90821e-10
4.92035e-10
4.93245e-10
4.94449e-10
4.95649e-10
4.96844e-10
4.98035e-10
4.99222e-10
5.00405e-10
5.01585e-10
5.02761e-10
5.03935e-10
5.05105e-10
5.06274e-10
5.07439e-10
5.08603e-10
5.09765e-10
5.10924e-10
5.12083e-10
5.13239e-10
5.14394e-10
5.15548e-10
5.167e-10
5.1785e-10
5.18999e-10
5.20146e-10
5.2129e-10
5.22431e-10
5.23565e-10
5.24693e-10
5.25808e-10
5.26908e-10
5.27984e-10
5.29028e-10
5.30025e-10
5.30958e-10
5.31805e-10
5.32536e-10
5.33112e-10
5.33488e-10
5.33607e-10
5.33401e-10
5.32789e-10
5.3168e-10
5.2997e-10
5.27545e-10
5.24282e-10
5.2005e-10
5.14715e-10
5.08145e-10
5.00211e-10
4.90794e-10
4.79789e-10
4.67104e-10
4.5266e-10
4.3639e-10
4.18281e-10
3.98517e-10
3.77894e-10
3.58608e-10
3.45332e-10
2.2157e-07
1.88085e-07
1.60933e-07
1.3861e-07
1.20059e-07
1.045e-07
9.13389e-08
8.01123e-08
7.04574e-08
6.20877e-08
5.47772e-08
4.83476e-08
4.26585e-08
3.75993e-08
3.30831e-08
2.90411e-08
2.54187e-08
2.2172e-08
1.9265e-08
1.66675e-08
1.43536e-08
1.23001e-08
1.04862e-08
8.89199e-09
7.49896e-09
6.2892e-09
5.24551e-09
4.35142e-09
3.59122e-09
2.95007e-09
2.41411e-09
1.9706e-09
1.6079e-09
1.31557e-09
1.08426e-09
9.05553e-10
7.7164e-10
6.7501e-10
6.08264e-10
5.64278e-10
5.36648e-10
5.20122e-10
5.1077e-10
5.05872e-10
5.03653e-10
5.03005e-10
5.03257e-10
5.04016e-10
5.05053e-10
5.06239e-10
5.07503e-10
5.08803e-10
5.10119e-10
5.1144e-10
5.12759e-10
5.14074e-10
5.15383e-10
5.16686e-10
5.17983e-10
5.19274e-10
5.20559e-10
5.21838e-10
5.23112e-10
5.24381e-10
5.25646e-10
5.26906e-10
5.28161e-10
5.29413e-10
5.30661e-10
5.31906e-10
5.33147e-10
5.34386e-10
5.35622e-10
5.36855e-10
5.38086e-10
5.39315e-10
5.40542e-10
5.41767e-10
5.4299e-10
5.44212e-10
5.45433e-10
5.46652e-10
5.47869e-10
5.49084e-10
5.50298e-10
5.51508e-10
5.52714e-10
5.53915e-10
5.55107e-10
5.56288e-10
5.57451e-10
5.5859e-10
5.59693e-10
5.60748e-10
5.61736e-10
5.62632e-10
5.63406e-10
5.64016e-10
5.64415e-10
5.64543e-10
5.64327e-10
5.63684e-10
5.62517e-10
5.60718e-10
5.58167e-10
5.54738e-10
5.50296e-10
5.44707e-10
5.3784e-10
5.29577e-10
5.19817e-10
5.08492e-10
4.95573e-10
4.81086e-10
4.6514e-10
4.4798e-10
4.30141e-10
4.12745e-10
3.97918e-10
3.88898e-10
2.21744e-07
1.88662e-07
1.61917e-07
1.39947e-07
1.2166e-07
1.06269e-07
9.31887e-08
8.1973e-08
7.22764e-08
6.38286e-08
5.64162e-08
4.98708e-08
4.40591e-08
3.88759e-08
3.42374e-08
3.00775e-08
2.63431e-08
2.29911e-08
1.99862e-08
1.72986e-08
1.49024e-08
1.27745e-08
1.08935e-08
9.23961e-09
7.79376e-09
6.53764e-09
5.45361e-09
4.52469e-09
3.73468e-09
3.06824e-09
2.51105e-09
2.04988e-09
1.6727e-09
1.36865e-09
1.12804e-09
9.42128e-10
8.02797e-10
7.02245e-10
6.32781e-10
5.86999e-10
5.58237e-10
5.41032e-10
5.31295e-10
5.26194e-10
5.23882e-10
5.23205e-10
5.23466e-10
5.24255e-10
5.25333e-10
5.26567e-10
5.27881e-10
5.29233e-10
5.30602e-10
5.31975e-10
5.33347e-10
5.34715e-10
5.36077e-10
5.37432e-10
5.38781e-10
5.40124e-10
5.4146e-10
5.42791e-10
5.44116e-10
5.45436e-10
5.46751e-10
5.48061e-10
5.49367e-10
5.50669e-10
5.51968e-10
5.53262e-10
5.54553e-10
5.55842e-10
5.57127e-10
5.5841e-10
5.5969e-10
5.60968e-10
5.62245e-10
5.63519e-10
5.64791e-10
5.66062e-10
5.67331e-10
5.68599e-10
5.69865e-10
5.7113e-10
5.72391e-10
5.7365e-10
5.74905e-10
5.76154e-10
5.77394e-10
5.78622e-10
5.79832e-10
5.81016e-10
5.82164e-10
5.83262e-10
5.84289e-10
5.85222e-10
5.86026e-10
5.86662e-10
5.87078e-10
5.87212e-10
5.8699e-10
5.86325e-10
5.85116e-10
5.83254e-10
5.80614e-10
5.77068e-10
5.72479e-10
5.66714e-10
5.59646e-10
5.51166e-10
5.41193e-10
5.2969e-10
5.16684e-10
5.0229e-10
4.86749e-10
4.70489e-10
4.54236e-10
4.39175e-10
4.27086e-10
4.20169e-10
2.21835e-07
1.88966e-07
1.62451e-07
1.40691e-07
1.22574e-07
1.07303e-07
9.42919e-08
8.31017e-08
7.33958e-08
6.49123e-08
5.74462e-08
5.08355e-08
4.49518e-08
3.96936e-08
3.498e-08
3.07465e-08
2.69414e-08
2.35226e-08
2.04552e-08
1.77097e-08
1.52604e-08
1.30842e-08
1.11598e-08
9.46706e-09
7.9868e-09
6.70044e-09
5.59005e-09
4.63835e-09
3.82883e-09
3.14583e-09
2.57472e-09
2.10197e-09
1.71528e-09
1.40354e-09
1.15682e-09
9.66168e-10
8.23274e-10
7.20142e-10
6.4889e-10
6.01925e-10
5.72417e-10
5.54764e-10
5.44772e-10
5.39538e-10
5.37164e-10
5.36468e-10
5.36735e-10
5.37543e-10
5.38649e-10
5.39913e-10
5.4126e-10
5.42647e-10
5.4405e-10
5.45459e-10
5.46865e-10
5.48268e-10
5.49664e-10
5.51053e-10
5.52437e-10
5.53813e-10
5.55184e-10
5.56548e-10
5.57907e-10
5.5926e-10
5.60608e-10
5.61952e-10
5.63291e-10
5.64626e-10
5.65957e-10
5.67284e-10
5.68608e-10
5.69929e-10
5.71247e-10
5.72562e-10
5.73875e-10
5.75185e-10
5.76494e-10
5.778e-10
5.79105e-10
5.80408e-10
5.8171e-10
5.83009e-10
5.84308e-10
5.85604e-10
5.86898e-10
5.88188e-10
5.89475e-10
5.90755e-10
5.92027e-10
5.93286e-10
5.94526e-10
5.95741e-10
5.96918e-10
5.98043e-10
5.99097e-10
6.00053e-10
6.00878e-10
6.01531e-10
6.01958e-10
6.02096e-10
6.0187e-10
6.01191e-10
5.99956e-10
5.98053e-10
5.95357e-10
5.91735e-10
5.87054e-10
5.81179e-10
5.73988e-10
5.65378e-10
5.55284e-10
5.43693e-10
5.30671e-10
5.16393e-10
5.01188e-10
4.85589e-10
4.70412e-10
4.56819e-10
4.46314e-10
4.40501e-10
2.21874e-07
1.89098e-07
1.62685e-07
1.41024e-07
1.22989e-07
1.07779e-07
9.48063e-08
8.36339e-08
7.39282e-08
6.54317e-08
5.79428e-08
5.13029e-08
4.53861e-08
4.00927e-08
3.53434e-08
3.10746e-08
2.72354e-08
2.37841e-08
2.06862e-08
1.79124e-08
1.54371e-08
1.32372e-08
1.12914e-08
9.57956e-09
8.08233e-09
6.78104e-09
5.65763e-09
4.69467e-09
3.87549e-09
3.18429e-09
2.60628e-09
2.1278e-09
1.7364e-09
1.42084e-09
1.1711e-09
9.78093e-10
8.33432e-10
7.29019e-10
6.56878e-10
6.09325e-10
5.79447e-10
5.61572e-10
5.51453e-10
5.46152e-10
5.43748e-10
5.43043e-10
5.43312e-10
5.4413e-10
5.45249e-10
5.46529e-10
5.47892e-10
5.49296e-10
5.50716e-10
5.52142e-10
5.53566e-10
5.54985e-10
5.56398e-10
5.57805e-10
5.59205e-10
5.60599e-10
5.61986e-10
5.63367e-10
5.64742e-10
5.66112e-10
5.67477e-10
5.68837e-10
5.70192e-10
5.71543e-10
5.72891e-10
5.74234e-10
5.75575e-10
5.76912e-10
5.78246e-10
5.79577e-10
5.80906e-10
5.82232e-10
5.83557e-10
5.84879e-10
5.862e-10
5.87519e-10
5.88836e-10
5.90152e-10
5.91466e-10
5.92778e-10
5.94088e-10
5.95394e-10
5.96696e-10
5.97992e-10
5.9928e-10
6.00554e-10
6.0181e-10
6.03039e-10
6.04231e-10
6.0537e-10
6.06436e-10
6.07404e-10
6.0824e-10
6.089e-10
6.09333e-10
6.09474e-10
6.09246e-10
6.0856e-10
6.07312e-10
6.05389e-10
6.02665e-10
5.99008e-10
5.94281e-10
5.88354e-10
5.81104e-10
5.72434e-10
5.62287e-10
5.50661e-10
5.37643e-10
5.23438e-10
5.08417e-10
4.9316e-10
4.78516e-10
4.6562e-10
4.55836e-10
4.50506e-10
2.21874e-07
1.89098e-07
1.62685e-07
1.41024e-07
1.22989e-07
1.07779e-07
9.48063e-08
8.36339e-08
7.39282e-08
6.54317e-08
5.79428e-08
5.13029e-08
4.53861e-08
4.00927e-08
3.53434e-08
3.10746e-08
2.72354e-08
2.37841e-08
2.06862e-08
1.79124e-08
1.54371e-08
1.32372e-08
1.12914e-08
9.57956e-09
8.08233e-09
6.78104e-09
5.65763e-09
4.69467e-09
3.87549e-09
3.18429e-09
2.60628e-09
2.1278e-09
1.7364e-09
1.42084e-09
1.1711e-09
9.78093e-10
8.33432e-10
7.29019e-10
6.56878e-10
6.09325e-10
5.79447e-10
5.61571e-10
5.51453e-10
5.46152e-10
5.43748e-10
5.43042e-10
5.43312e-10
5.4413e-10
5.45248e-10
5.46529e-10
5.47892e-10
5.49295e-10
5.50716e-10
5.52142e-10
5.53566e-10
5.54985e-10
5.56398e-10
5.57805e-10
5.59205e-10
5.60598e-10
5.61985e-10
5.63367e-10
5.64742e-10
5.66112e-10
5.67477e-10
5.68837e-10
5.70192e-10
5.71543e-10
5.72891e-10
5.74234e-10
5.75574e-10
5.76911e-10
5.78245e-10
5.79577e-10
5.80906e-10
5.82232e-10
5.83557e-10
5.84879e-10
5.862e-10
5.87519e-10
5.88836e-10
5.90152e-10
5.91466e-10
5.92778e-10
5.94088e-10
5.95394e-10
5.96696e-10
5.97992e-10
5.99279e-10
6.00554e-10
6.01809e-10
6.03039e-10
6.0423e-10
6.05369e-10
6.06436e-10
6.07404e-10
6.0824e-10
6.089e-10
6.09333e-10
6.09474e-10
6.09246e-10
6.0856e-10
6.07312e-10
6.05389e-10
6.02665e-10
5.99008e-10
5.94281e-10
5.88353e-10
5.81104e-10
5.72434e-10
5.62286e-10
5.5066e-10
5.37642e-10
5.23438e-10
5.08417e-10
4.9316e-10
4.78516e-10
4.6562e-10
4.55836e-10
4.50505e-10
2.21835e-07
1.88966e-07
1.62451e-07
1.40691e-07
1.22574e-07
1.07303e-07
9.42919e-08
8.31017e-08
7.33958e-08
6.49123e-08
5.74462e-08
5.08355e-08
4.49518e-08
3.96936e-08
3.498e-08
3.07465e-08
2.69414e-08
2.35226e-08
2.04552e-08
1.77097e-08
1.52604e-08
1.30842e-08
1.11598e-08
9.46707e-09
7.9868e-09
6.70044e-09
5.59005e-09
4.63836e-09
3.82883e-09
3.14583e-09
2.57472e-09
2.10197e-09
1.71528e-09
1.40354e-09
1.15682e-09
9.66168e-10
8.23275e-10
7.20142e-10
6.4889e-10
6.01925e-10
5.72417e-10
5.54764e-10
5.44772e-10
5.39537e-10
5.37163e-10
5.36468e-10
5.36735e-10
5.37543e-10
5.38648e-10
5.39913e-10
5.4126e-10
5.42646e-10
5.4405e-10
5.45458e-10
5.46865e-10
5.48267e-10
5.49663e-10
5.51053e-10
5.52436e-10
5.53813e-10
5.55183e-10
5.56547e-10
5.57906e-10
5.59259e-10
5.60608e-10
5.61951e-10
5.6329e-10
5.64625e-10
5.65956e-10
5.67284e-10
5.68608e-10
5.69928e-10
5.71246e-10
5.72562e-10
5.73874e-10
5.75185e-10
5.76493e-10
5.778e-10
5.79104e-10
5.80408e-10
5.81709e-10
5.83009e-10
5.84307e-10
5.85603e-10
5.86897e-10
5.88188e-10
5.89474e-10
5.90755e-10
5.92026e-10
5.93285e-10
5.94526e-10
5.9574e-10
5.96917e-10
5.98042e-10
5.99096e-10
6.00052e-10
6.00878e-10
6.0153e-10
6.01957e-10
6.02096e-10
6.0187e-10
6.0119e-10
5.99956e-10
5.98052e-10
5.95356e-10
5.91735e-10
5.87053e-10
5.81178e-10
5.73987e-10
5.65378e-10
5.55284e-10
5.43693e-10
5.30671e-10
5.16393e-10
5.01187e-10
4.85589e-10
4.70411e-10
4.56817e-10
4.46312e-10
4.40498e-10
2.21744e-07
1.88662e-07
1.61917e-07
1.39947e-07
1.2166e-07
1.06269e-07
9.31887e-08
8.1973e-08
7.22764e-08
6.38286e-08
5.64162e-08
4.98708e-08
4.40591e-08
3.88759e-08
3.42374e-08
3.00775e-08
2.63431e-08
2.29911e-08
1.99862e-08
1.72986e-08
1.49024e-08
1.27745e-08
1.08935e-08
9.23962e-09
7.79376e-09
6.53765e-09
5.45361e-09
4.52469e-09
3.73468e-09
3.06824e-09
2.51105e-09
2.04988e-09
1.6727e-09
1.36865e-09
1.12804e-09
9.42128e-10
8.02797e-10
7.02244e-10
6.32781e-10
5.86999e-10
5.58237e-10
5.41031e-10
5.31294e-10
5.26193e-10
5.23881e-10
5.23204e-10
5.23465e-10
5.24254e-10
5.25332e-10
5.26566e-10
5.2788e-10
5.29232e-10
5.30601e-10
5.31974e-10
5.33347e-10
5.34714e-10
5.36076e-10
5.37431e-10
5.3878e-10
5.40123e-10
5.41459e-10
5.4279e-10
5.44115e-10
5.45435e-10
5.4675e-10
5.48061e-10
5.49367e-10
5.50669e-10
5.51967e-10
5.53261e-10
5.54553e-10
5.55841e-10
5.57126e-10
5.58409e-10
5.59689e-10
5.60967e-10
5.62244e-10
5.63518e-10
5.6479e-10
5.66061e-10
5.6733e-10
5.68598e-10
5.69864e-10
5.71129e-10
5.7239e-10
5.73649e-10
5.74904e-10
5.76153e-10
5.77393e-10
5.78621e-10
5.79831e-10
5.81015e-10
5.82163e-10
5.83261e-10
5.84288e-10
5.85221e-10
5.86025e-10
5.86661e-10
5.87077e-10
5.87211e-10
5.86989e-10
5.86323e-10
5.85115e-10
5.83253e-10
5.80613e-10
5.77067e-10
5.72478e-10
5.66713e-10
5.59645e-10
5.51165e-10
5.41192e-10
5.2969e-10
5.16684e-10
5.02289e-10
4.86748e-10
4.70488e-10
4.54234e-10
4.39171e-10
4.27081e-10
4.20162e-10
2.2157e-07
1.88085e-07
1.60933e-07
1.3861e-07
1.20059e-07
1.045e-07
9.13389e-08
8.01123e-08
7.04574e-08
6.20877e-08
5.47772e-08
4.83476e-08
4.26585e-08
3.75993e-08
3.30831e-08
2.90411e-08
2.54188e-08
2.2172e-08
1.9265e-08
1.66675e-08
1.43536e-08
1.23001e-08
1.04862e-08
8.89199e-09
7.49896e-09
6.2892e-09
5.24552e-09
4.35143e-09
3.59122e-09
2.95007e-09
2.41412e-09
1.9706e-09
1.6079e-09
1.31557e-09
1.08426e-09
9.05554e-10
7.7164e-10
6.7501e-10
6.08263e-10
5.64278e-10
5.36648e-10
5.20121e-10
5.10769e-10
5.05871e-10
5.03652e-10
5.03004e-10
5.03256e-10
5.04015e-10
5.05052e-10
5.06238e-10
5.07502e-10
5.08802e-10
5.10118e-10
5.11439e-10
5.12758e-10
5.14073e-10
5.15382e-10
5.16685e-10
5.17982e-10
5.19273e-10
5.20558e-10
5.21837e-10
5.23111e-10
5.2438e-10
5.25645e-10
5.26904e-10
5.2816e-10
5.29412e-10
5.3066e-10
5.31905e-10
5.33146e-10
5.34385e-10
5.3562e-10
5.36854e-10
5.38085e-10
5.39314e-10
5.40541e-10
5.41766e-10
5.42989e-10
5.44211e-10
5.45431e-10
5.4665e-10
5.47868e-10
5.49083e-10
5.50296e-10
5.51507e-10
5.52713e-10
5.53914e-10
5.55106e-10
5.56286e-10
5.5745e-10
5.58588e-10
5.59692e-10
5.60747e-10
5.61735e-10
5.62631e-10
5.63404e-10
5.64015e-10
5.64414e-10
5.64541e-10
5.64326e-10
5.63682e-10
5.62515e-10
5.60716e-10
5.58166e-10
5.54737e-10
5.50295e-10
5.44705e-10
5.37839e-10
5.29575e-10
5.19816e-10
5.08491e-10
4.95572e-10
4.81085e-10
4.65138e-10
4.47978e-10
4.30137e-10
4.12738e-10
3.97906e-10
3.88882e-10
2.2124e-07
1.87029e-07
1.59194e-07
1.36338e-07
1.17435e-07
1.01692e-07
8.848e-08
7.73006e-08
6.77589e-08
5.95439e-08
5.24114e-08
4.61706e-08
4.06725e-08
3.58011e-08
3.14657e-08
2.75953e-08
2.4134e-08
2.1037e-08
1.82681e-08
1.5797e-08
1.3598e-08
1.16482e-08
9.92702e-09
8.41539e-09
7.09521e-09
5.94924e-09
4.96099e-09
4.11469e-09
3.39533e-09
2.78878e-09
2.28187e-09
1.86248e-09
1.51956e-09
1.24322e-09
1.0246e-09
8.55711e-10
7.29176e-10
6.37884e-10
5.74834e-10
5.33291e-10
5.07198e-10
4.91594e-10
4.82765e-10
4.78142e-10
4.76048e-10
4.75438e-10
4.75678e-10
4.76396e-10
4.77377e-10
4.78498e-10
4.79692e-10
4.80922e-10
4.82166e-10
4.83414e-10
4.84661e-10
4.85904e-10
4.87141e-10
4.88373e-10
4.89599e-10
4.90819e-10
4.92034e-10
4.93243e-10
4.94448e-10
4.95647e-10
4.96842e-10
4.98033e-10
4.9922e-10
5.00403e-10
5.01583e-10
5.0276e-10
5.03933e-10
5.05104e-10
5.06272e-10
5.07438e-10
5.08602e-10
5.09763e-10
5.10923e-10
5.12081e-10
5.13238e-10
5.14393e-10
5.15546e-10
5.16698e-10
5.17849e-10
5.18998e-10
5.20145e-10
5.21289e-10
5.22429e-10
5.23564e-10
5.24691e-10
5.25807e-10
5.26906e-10
5.27983e-10
5.29026e-10
5.30023e-10
5.30957e-10
5.31804e-10
5.32534e-10
5.33111e-10
5.33487e-10
5.33606e-10
5.33399e-10
5.32787e-10
5.31678e-10
5.29969e-10
5.27544e-10
5.2428e-10
5.20048e-10
5.14714e-10
5.08143e-10
5.00209e-10
4.90793e-10
4.79788e-10
4.67103e-10
4.52659e-10
4.36389e-10
4.18278e-10
3.98511e-10
3.77882e-10
3.58589e-10
3.45307e-10
2.20593e-07
1.85054e-07
1.56116e-07
1.32521e-07
1.13226e-07
9.73602e-08
8.42117e-08
7.32129e-08
6.39195e-08
5.59868e-08
4.91491e-08
4.32022e-08
3.79892e-08
3.33893e-08
2.93095e-08
2.56774e-08
2.24368e-08
1.95428e-08
1.69595e-08
1.46572e-08
1.26107e-08
1.07979e-08
9.19896e-09
7.79566e-09
6.57082e-09
5.50817e-09
4.59218e-09
3.80806e-09
3.14178e-09
2.58015e-09
2.1109e-09
1.72275e-09
1.40544e-09
1.14978e-09
9.47547e-10
7.91349e-10
6.74338e-10
5.8993e-10
5.31645e-10
4.93246e-10
4.69132e-10
4.54713e-10
4.46557e-10
4.42287e-10
4.40354e-10
4.39792e-10
4.40015e-10
4.4068e-10
4.41588e-10
4.42626e-10
4.4373e-10
4.44868e-10
4.46019e-10
4.47173e-10
4.48327e-10
4.49477e-10
4.50622e-10
4.51761e-10
4.52895e-10
4.54024e-10
4.55148e-10
4.56266e-10
4.5738e-10
4.5849e-10
4.59596e-10
4.60698e-10
4.61796e-10
4.6289e-10
4.63982e-10
4.6507e-10
4.66156e-10
4.67239e-10
4.68319e-10
4.69398e-10
4.70474e-10
4.71549e-10
4.72622e-10
4.73693e-10
4.74763e-10
4.75831e-10
4.76899e-10
4.77964e-10
4.79029e-10
4.80092e-10
4.81153e-10
4.82211e-10
4.83266e-10
4.84316e-10
4.85359e-10
4.86391e-10
4.87408e-10
4.88404e-10
4.89369e-10
4.90291e-10
4.91155e-10
4.91938e-10
4.92613e-10
4.93146e-10
4.93493e-10
4.93601e-10
4.93408e-10
4.92838e-10
4.91806e-10
4.90216e-10
4.87959e-10
4.84919e-10
4.80972e-10
4.75987e-10
4.69831e-10
4.62372e-10
4.53474e-10
4.42999e-10
4.30796e-10
4.1668e-10
4.00402e-10
3.81632e-10
3.60013e-10
3.35417e-10
3.08657e-10
2.8413e-10
2.19211e-07
1.81194e-07
1.50554e-07
1.26075e-07
1.06508e-07
9.07563e-08
7.79393e-08
6.73792e-08
5.85658e-08
5.11171e-08
4.47479e-08
3.92442e-08
3.44448e-08
3.02279e-08
2.65007e-08
2.31919e-08
2.02467e-08
1.76216e-08
1.52822e-08
1.32e-08
1.13513e-08
9.71529e-09
8.27353e-09
7.00908e-09
5.9061e-09
4.94969e-09
4.12565e-09
3.42052e-09
2.82156e-09
2.31683e-09
1.89523e-09
1.54657e-09
1.2616e-09
1.03204e-09
8.50477e-10
7.10267e-10
6.05249e-10
5.29504e-10
4.77209e-10
4.42762e-10
4.21132e-10
4.08201e-10
4.00887e-10
3.97059e-10
3.95327e-10
3.94824e-10
3.95026e-10
3.95623e-10
3.96439e-10
3.97371e-10
3.98363e-10
3.99384e-10
4.00417e-10
4.01454e-10
4.0249e-10
4.03522e-10
4.0455e-10
4.05573e-10
4.06591e-10
4.07605e-10
4.08614e-10
4.09618e-10
4.10618e-10
4.11615e-10
4.12607e-10
4.13596e-10
4.14582e-10
4.15565e-10
4.16545e-10
4.17522e-10
4.18497e-10
4.19469e-10
4.2044e-10
4.21408e-10
4.22374e-10
4.23339e-10
4.24302e-10
4.25264e-10
4.26225e-10
4.27184e-10
4.28142e-10
4.29099e-10
4.30055e-10
4.31009e-10
4.31962e-10
4.32912e-10
4.33859e-10
4.34802e-10
4.35738e-10
4.36665e-10
4.37578e-10
4.38472e-10
4.39338e-10
4.40166e-10
4.40941e-10
4.41644e-10
4.4225e-10
4.42728e-10
4.43039e-10
4.43135e-10
4.42959e-10
4.42444e-10
4.41513e-10
4.40078e-10
4.3804e-10
4.35293e-10
4.31721e-10
4.27203e-10
4.21611e-10
4.14811e-10
4.06663e-10
3.97006e-10
3.85648e-10
3.72326e-10
3.56643e-10
3.37981e-10
3.15348e-10
2.8693e-10
2.47901e-10
1.76722e-10
2.1585e-07
1.7316e-07
1.40185e-07
1.15046e-07
9.57506e-08
8.0707e-08
6.87597e-08
5.90934e-08
5.11351e-08
4.44785e-08
3.88318e-08
3.39828e-08
2.97752e-08
2.60929e-08
2.28485e-08
1.9976e-08
1.74245e-08
1.51545e-08
1.31345e-08
1.13389e-08
9.74631e-09
8.33825e-09
7.09833e-09
6.01161e-09
5.06422e-09
4.24312e-09
3.53598e-09
2.93109e-09
2.41746e-09
1.98474e-09
1.62338e-09
1.3246e-09
1.08044e-09
8.83786e-10
7.28278e-10
6.08202e-10
5.18276e-10
4.53425e-10
4.08657e-10
3.79172e-10
3.60661e-10
3.49595e-10
3.43337e-10
3.40063e-10
3.38582e-10
3.38152e-10
3.38326e-10
3.38838e-10
3.39537e-10
3.40335e-10
3.41185e-10
3.4206e-10
3.42945e-10
3.43833e-10
3.4472e-10
3.45604e-10
3.46485e-10
3.47361e-10
3.48233e-10
3.49101e-10
3.49965e-10
3.50826e-10
3.51683e-10
3.52536e-10
3.53386e-10
3.54233e-10
3.55078e-10
3.5592e-10
3.56759e-10
3.57596e-10
3.58431e-10
3.59264e-10
3.60095e-10
3.60924e-10
3.61752e-10
3.62578e-10
3.63403e-10
3.64227e-10
3.6505e-10
3.65872e-10
3.66692e-10
3.67512e-10
3.68331e-10
3.69148e-10
3.69964e-10
3.70778e-10
3.71589e-10
3.72396e-10
3.73198e-10
3.73992e-10
3.74774e-10
3.7554e-10
3.76282e-10
3.76991e-10
3.77655e-10
3.78257e-10
3.78776e-10
3.79185e-10
3.7945e-10
3.79531e-10
3.79379e-10
3.78936e-10
3.78135e-10
3.769e-10
3.75146e-10
3.7278e-10
3.69701e-10
3.658e-10
3.60963e-10
3.55065e-10
3.47969e-10
3.39516e-10
3.29498e-10
3.1762e-10
3.03428e-10
2.86179e-10
2.64614e-10
2.36375e-10
1.95921e-10
1.24021e-10
2.06003e-07
1.54973e-07
1.19994e-07
9.56975e-08
7.82222e-08
6.51733e-08
5.50993e-08
4.71009e-08
4.06006e-08
3.52135e-08
3.06748e-08
2.67973e-08
2.34463e-08
2.05229e-08
1.79539e-08
1.56841e-08
1.36715e-08
1.18834e-08
1.02942e-08
8.88303e-09
7.63246e-09
6.52761e-09
5.55531e-09
4.70361e-09
3.96147e-09
3.31851e-09
2.76498e-09
2.29165e-09
1.88982e-09
1.55137e-09
1.26879e-09
1.03519e-09
8.44321e-10
6.90608e-10
5.6907e-10
4.75235e-10
4.04969e-10
3.54301e-10
3.19327e-10
2.96295e-10
2.81836e-10
2.73194e-10
2.68307e-10
2.6575e-10
2.64594e-10
2.64259e-10
2.64395e-10
2.64796e-10
2.65342e-10
2.65966e-10
2.6663e-10
2.67314e-10
2.68006e-10
2.687e-10
2.69393e-10
2.70084e-10
2.70772e-10
2.71457e-10
2.72139e-10
2.72817e-10
2.73492e-10
2.74165e-10
2.74834e-10
2.75501e-10
2.76166e-10
2.76828e-10
2.77488e-10
2.78146e-10
2.78802e-10
2.79456e-10
2.80108e-10
2.80759e-10
2.81409e-10
2.82057e-10
2.82704e-10
2.8335e-10
2.83994e-10
2.84638e-10
2.85281e-10
2.85924e-10
2.86565e-10
2.87206e-10
2.87845e-10
2.88484e-10
2.89122e-10
2.89758e-10
2.90392e-10
2.91023e-10
2.91649e-10
2.9227e-10
2.92881e-10
2.9348e-10
2.94059e-10
2.94614e-10
2.95132e-10
2.95603e-10
2.96008e-10
2.96327e-10
2.96535e-10
2.96597e-10
2.96478e-10
2.9613e-10
2.95502e-10
2.94534e-10
2.93158e-10
2.91302e-10
2.88884e-10
2.85818e-10
2.82011e-10
2.77359e-10
2.71749e-10
2.65039e-10
2.57047e-10
2.47508e-10
2.36005e-10
2.21862e-10
2.03937e-10
1.80169e-10
1.46179e-10
8.83762e-11
1.68154e-07
1.07136e-07
7.6194e-08
5.83768e-08
4.68148e-08
3.86241e-08
3.24704e-08
2.76575e-08
2.37816e-08
2.05888e-08
1.79103e-08
1.56293e-08
1.36629e-08
1.19507e-08
1.04485e-08
9.12294e-09
7.94881e-09
6.90663e-09
5.98106e-09
5.15968e-09
4.4322e-09
3.78979e-09
3.22469e-09
2.72985e-09
2.29879e-09
1.92545e-09
1.60411e-09
1.32937e-09
1.09618e-09
8.99807e-10
7.35864e-10
6.00348e-10
4.89636e-10
4.00482e-10
3.29995e-10
2.75578e-10
2.34831e-10
2.05451e-10
1.85173e-10
1.71819e-10
1.63436e-10
1.58426e-10
1.55593e-10
1.54111e-10
1.53441e-10
1.53247e-10
1.53326e-10
1.53558e-10
1.53875e-10
1.54237e-10
1.54622e-10
1.55019e-10
1.5542e-10
1.55822e-10
1.56224e-10
1.56625e-10
1.57024e-10
1.57421e-10
1.57817e-10
1.5821e-10
1.58602e-10
1.58992e-10
1.5938e-10
1.59767e-10
1.60152e-10
1.60536e-10
1.60919e-10
1.613e-10
1.61681e-10
1.6206e-10
1.62439e-10
1.62816e-10
1.63193e-10
1.63569e-10
1.63944e-10
1.64318e-10
1.64692e-10
1.65066e-10
1.65439e-10
1.65811e-10
1.66183e-10
1.66555e-10
1.66926e-10
1.67296e-10
1.67666e-10
1.68035e-10
1.68403e-10
1.68768e-10
1.69132e-10
1.69492e-10
1.69846e-10
1.70193e-10
1.70529e-10
1.70851e-10
1.71152e-10
1.71424e-10
1.71659e-10
1.71845e-10
1.71965e-10
1.72001e-10
1.71931e-10
1.71729e-10
1.71364e-10
1.70802e-10
1.70003e-10
1.68924e-10
1.67518e-10
1.65735e-10
1.63519e-10
1.60809e-10
1.57535e-10
1.53613e-10
1.48929e-10
1.4332e-10
1.36529e-10
1.28138e-10
1.17454e-10
1.03253e-10
8.30583e-11
4.94747e-11
)
;

boundaryField
{
    upperWall
    {
        type            zeroGradient;
    }
    lowerWall
    {
        type            zeroGradient;
    }
    inlet
    {
        type            zeroGradient;
    }
    outlet
    {
        type            zeroGradient;
    }
    frontAndBack
    {
        type            empty;
    }
}


// ************************************************************************* //
