/*--------------------------------*- C++ -*----------------------------------*\
  =========                 |
  \\      /  F ield         | OpenFOAM: The Open Source CFD Toolbox
   \\    /   O peration     | Website:  https://openfoam.org
    \\  /    A nd           | Version:  7
     \\/     M anipulation  |
\*---------------------------------------------------------------------------*/
FoamFile
{
    version     2.0;
    format      ascii;
    class       volScalarField;
    location    "0.58";
    object      k_0;
}
// * * * * * * * * * * * * * * * * * * * * * * * * * * * * * * * * * * * * * //

dimensions      [0 2 -2 0 0 0 0];

internalField   nonuniform List<scalar> 
2400
(
9.53536e-06
3.8707e-06
1.95777e-06
1.14921e-06
7.39072e-07
5.0308e-07
3.55544e-07
2.57954e-07
1.90721e-07
1.42948e-07
1.08173e-07
8.23741e-08
6.29493e-08
4.81606e-08
3.68133e-08
2.80647e-08
2.13054e-08
1.60846e-08
1.20622e-08
8.97651e-09
6.62355e-09
4.84255e-09
3.50597e-09
2.51246e-09
1.7816e-09
1.24987e-09
8.67469e-10
5.95756e-10
4.05069e-10
2.72928e-10
1.82529e-10
1.21488e-10
8.08105e-11
5.4061e-11
3.67061e-11
2.55992e-11
1.85898e-11
1.42302e-11
1.15607e-11
9.95425e-12
9.00728e-12
8.46391e-12
8.1642e-12
8.00958e-12
7.94021e-12
7.92022e-12
7.92844e-12
7.95252e-12
7.98538e-12
8.023e-12
8.06313e-12
8.10453e-12
8.14653e-12
8.18878e-12
8.2311e-12
8.27338e-12
8.3156e-12
8.35772e-12
8.39974e-12
8.44167e-12
8.48352e-12
8.52529e-12
8.56698e-12
8.60862e-12
8.65019e-12
8.69172e-12
8.73321e-12
8.77467e-12
8.81611e-12
8.85753e-12
8.89895e-12
8.94036e-12
8.98177e-12
9.0232e-12
9.06464e-12
9.10611e-12
9.1476e-12
9.18913e-12
9.23069e-12
9.2723e-12
9.31395e-12
9.35564e-12
9.39736e-12
9.43912e-12
9.4809e-12
9.52267e-12
9.56439e-12
9.606e-12
9.64741e-12
9.6885e-12
9.72908e-12
9.76887e-12
9.80752e-12
9.84453e-12
9.87923e-12
9.91074e-12
9.93794e-12
9.95939e-12
9.97331e-12
9.97754e-12
9.96947e-12
9.94607e-12
9.90386e-12
9.83896e-12
9.74712e-12
9.62382e-12
9.46434e-12
9.26392e-12
9.01782e-12
8.72138e-12
8.36989e-12
7.95831e-12
7.48042e-12
6.92753e-12
6.28653e-12
5.53759e-12
4.65263e-12
3.59553e-12
2.32661e-12
8.25512e-13
1.43109e-05
8.09901e-06
4.85553e-06
3.08831e-06
2.06338e-06
1.43238e-06
1.02379e-06
7.48126e-07
5.55879e-07
4.1815e-07
3.17303e-07
2.42153e-07
1.85375e-07
1.4203e-07
1.08696e-07
8.2949e-08
6.30255e-08
4.7617e-08
3.57321e-08
2.66063e-08
1.96418e-08
1.43665e-08
1.04052e-08
7.45907e-09
5.29081e-09
3.71266e-09
2.57733e-09
1.77039e-09
1.20393e-09
8.11302e-10
5.42651e-10
3.61216e-10
2.4029e-10
1.60761e-10
1.09158e-10
7.61298e-11
5.52847e-11
4.23194e-11
3.43798e-11
2.96016e-11
2.67849e-11
2.51687e-11
2.42771e-11
2.38172e-11
2.36108e-11
2.35512e-11
2.35756e-11
2.36472e-11
2.37449e-11
2.38568e-11
2.39761e-11
2.40992e-11
2.42241e-11
2.43497e-11
2.44755e-11
2.46013e-11
2.47268e-11
2.4852e-11
2.4977e-11
2.51017e-11
2.52261e-11
2.53503e-11
2.54742e-11
2.5598e-11
2.57217e-11
2.58452e-11
2.59685e-11
2.60918e-11
2.6215e-11
2.63382e-11
2.64613e-11
2.65844e-11
2.67076e-11
2.68308e-11
2.6954e-11
2.70773e-11
2.72007e-11
2.73241e-11
2.74477e-11
2.75714e-11
2.76953e-11
2.78192e-11
2.79433e-11
2.80675e-11
2.81917e-11
2.83159e-11
2.84399e-11
2.85637e-11
2.86868e-11
2.8809e-11
2.89296e-11
2.9048e-11
2.91629e-11
2.92729e-11
2.93761e-11
2.94698e-11
2.95507e-11
2.96145e-11
2.96559e-11
2.96686e-11
2.96446e-11
2.95752e-11
2.94499e-11
2.92573e-11
2.89847e-11
2.86188e-11
2.81457e-11
2.75515e-11
2.68224e-11
2.59449e-11
2.49059e-11
2.36912e-11
2.2284e-11
2.06606e-11
1.87847e-11
1.66007e-11
1.40266e-11
1.09476e-11
7.20658e-12
2.63407e-12
1.57117e-05
1.01115e-05
6.6271e-06
4.46339e-06
3.09173e-06
2.19655e-06
1.59435e-06
1.17759e-06
8.81764e-07
6.67134e-07
5.08494e-07
3.89427e-07
2.9896e-07
2.29585e-07
1.7604e-07
1.34557e-07
1.02378e-07
7.74391e-08
5.81696e-08
4.33513e-08
3.20282e-08
2.34419e-08
1.69881e-08
1.21844e-08
8.6464e-09
6.06973e-09
4.21507e-09
2.89623e-09
1.97005e-09
1.32787e-09
8.88339e-10
5.9142e-10
3.9348e-10
2.63277e-10
1.78779e-10
1.2469e-10
9.05491e-11
6.93116e-11
5.63054e-11
4.84775e-11
4.38627e-11
4.12145e-11
3.97535e-11
3.89997e-11
3.86614e-11
3.85637e-11
3.86035e-11
3.87206e-11
3.88805e-11
3.90636e-11
3.9259e-11
3.94605e-11
3.9665e-11
3.98707e-11
4.00767e-11
4.02826e-11
4.04881e-11
4.06932e-11
4.08978e-11
4.11019e-11
4.13056e-11
4.1509e-11
4.1712e-11
4.19146e-11
4.21171e-11
4.23193e-11
4.25212e-11
4.27231e-11
4.29248e-11
4.31265e-11
4.33281e-11
4.35297e-11
4.37313e-11
4.3933e-11
4.41348e-11
4.43366e-11
4.45386e-11
4.47408e-11
4.49432e-11
4.51457e-11
4.53485e-11
4.55514e-11
4.57546e-11
4.59579e-11
4.61613e-11
4.63646e-11
4.65677e-11
4.67703e-11
4.69719e-11
4.7172e-11
4.73695e-11
4.75632e-11
4.77514e-11
4.79316e-11
4.81005e-11
4.8254e-11
4.83865e-11
4.8491e-11
4.8559e-11
4.85798e-11
4.8541e-11
4.84277e-11
4.82232e-11
4.79088e-11
4.7464e-11
4.68673e-11
4.60963e-11
4.51288e-11
4.39431e-11
4.25189e-11
4.08365e-11
3.88764e-11
3.66159e-11
3.40237e-11
3.1051e-11
2.76208e-11
2.36149e-11
1.88435e-11
1.29455e-11
5.18733e-12
1.62049e-05
1.10715e-05
7.64371e-06
5.36016e-06
3.82544e-06
2.77761e-06
2.04847e-06
1.53097e-06
1.15665e-06
8.8114e-07
6.75236e-07
5.19347e-07
4.00084e-07
3.08117e-07
2.36814e-07
1.81369e-07
1.38226e-07
1.04705e-07
7.87476e-08
5.875e-08
4.34451e-08
3.18238e-08
2.30788e-08
1.65631e-08
1.17601e-08
8.25948e-09
5.73812e-09
3.94418e-09
2.68374e-09
1.80942e-09
1.21077e-09
8.06243e-10
5.36492e-10
3.59011e-10
2.43808e-10
1.70052e-10
1.23489e-10
9.4522e-11
7.67799e-11
6.61007e-11
5.98044e-11
5.61908e-11
5.41972e-11
5.31683e-11
5.27063e-11
5.25727e-11
5.26267e-11
5.27862e-11
5.30041e-11
5.32536e-11
5.35199e-11
5.37946e-11
5.40734e-11
5.43538e-11
5.46346e-11
5.49152e-11
5.51954e-11
5.54749e-11
5.57538e-11
5.60321e-11
5.63098e-11
5.6587e-11
5.68637e-11
5.714e-11
5.74159e-11
5.76915e-11
5.79669e-11
5.8242e-11
5.8517e-11
5.87919e-11
5.90667e-11
5.93415e-11
5.96164e-11
5.98913e-11
6.01663e-11
6.04415e-11
6.07169e-11
6.09925e-11
6.12683e-11
6.15444e-11
6.18208e-11
6.20975e-11
6.23744e-11
6.26515e-11
6.29288e-11
6.32059e-11
6.34828e-11
6.37589e-11
6.40338e-11
6.43065e-11
6.45757e-11
6.48398e-11
6.50964e-11
6.5342e-11
6.55723e-11
6.57816e-11
6.59623e-11
6.61049e-11
6.61978e-11
6.62265e-11
6.6174e-11
6.60204e-11
6.57429e-11
6.53162e-11
6.47128e-11
6.39037e-11
6.28594e-11
6.15507e-11
5.99499e-11
5.80319e-11
5.57743e-11
5.31569e-11
5.01589e-11
4.67531e-11
4.28973e-11
3.85253e-11
3.35383e-11
2.77657e-11
2.07258e-11
1.05326e-11
1.64098e-05
1.15482e-05
8.21893e-06
5.92227e-06
4.32326e-06
3.19654e-06
2.39145e-06
1.80755e-06
1.37778e-06
1.05702e-06
8.14591e-07
6.29387e-07
4.86656e-07
3.75936e-07
2.89674e-07
2.22326e-07
1.69747e-07
1.2878e-07
9.69828e-08
7.24374e-08
5.36201e-08
3.93113e-08
2.85304e-08
2.04892e-08
1.45562e-08
1.02285e-08
7.10924e-09
4.88855e-09
3.32745e-09
2.24409e-09
1.50201e-09
1.00039e-09
6.658e-10
4.456e-10
3.02639e-10
2.11092e-10
1.53291e-10
1.17326e-10
9.52956e-11
8.20337e-11
7.42139e-11
6.97256e-11
6.72489e-11
6.59705e-11
6.53962e-11
6.52297e-11
6.52964e-11
6.54941e-11
6.57643e-11
6.60738e-11
6.64041e-11
6.6745e-11
6.70908e-11
6.74387e-11
6.77871e-11
6.81352e-11
6.84828e-11
6.88296e-11
6.91756e-11
6.95209e-11
6.98654e-11
7.02093e-11
7.05526e-11
7.08954e-11
7.12377e-11
7.15796e-11
7.19212e-11
7.22626e-11
7.26038e-11
7.29448e-11
7.32858e-11
7.36267e-11
7.39677e-11
7.43088e-11
7.465e-11
7.49914e-11
7.5333e-11
7.56749e-11
7.60171e-11
7.63597e-11
7.67026e-11
7.70458e-11
7.73894e-11
7.77332e-11
7.80771e-11
7.8421e-11
7.87645e-11
7.91071e-11
7.94481e-11
7.97864e-11
8.01205e-11
8.04481e-11
8.07664e-11
8.10712e-11
8.1357e-11
8.16167e-11
8.1841e-11
8.20181e-11
8.21337e-11
8.21698e-11
8.21055e-11
8.19161e-11
8.15736e-11
8.10469e-11
8.03025e-11
7.93051e-11
7.80193e-11
7.64106e-11
7.44472e-11
7.2102e-11
6.93536e-11
6.61865e-11
6.25903e-11
5.85556e-11
5.40698e-11
4.91191e-11
4.37114e-11
3.79426e-11
3.21297e-11
2.72263e-11
1.65062e-05
1.1796e-05
8.54617e-06
6.26833e-06
4.65067e-06
3.48731e-06
2.64001e-06
2.01502e-06
1.54827e-06
1.1956e-06
9.26316e-07
7.18845e-07
5.57832e-07
4.32205e-07
3.33862e-07
2.56778e-07
1.96399e-07
1.49225e-07
1.12526e-07
8.41411e-08
6.23443e-08
4.57462e-08
3.32252e-08
2.38763e-08
1.69722e-08
1.19322e-08
8.29701e-09
5.7075e-09
3.88618e-09
2.62166e-09
1.75517e-09
1.16925e-09
7.78315e-10
5.20971e-10
3.53857e-10
2.46826e-10
1.79236e-10
1.37175e-10
1.11407e-10
9.58942e-11
8.67459e-11
8.14945e-11
7.85963e-11
7.71e-11
7.64274e-11
7.62321e-11
7.63095e-11
7.65403e-11
7.6856e-11
7.72176e-11
7.76035e-11
7.80018e-11
7.84059e-11
7.88124e-11
7.92196e-11
7.96264e-11
8.00325e-11
8.04378e-11
8.08421e-11
8.12456e-11
8.16482e-11
8.20501e-11
8.24513e-11
8.28518e-11
8.32518e-11
8.36514e-11
8.40506e-11
8.44495e-11
8.48482e-11
8.52467e-11
8.56452e-11
8.60436e-11
8.64421e-11
8.68406e-11
8.72394e-11
8.76383e-11
8.80375e-11
8.84371e-11
8.8837e-11
8.92373e-11
8.9638e-11
9.00391e-11
9.04405e-11
9.08423e-11
9.12442e-11
9.16461e-11
9.20474e-11
9.24478e-11
9.28463e-11
9.32416e-11
9.3632e-11
9.40149e-11
9.43868e-11
9.4743e-11
9.50771e-11
9.53806e-11
9.56429e-11
9.58502e-11
9.59856e-11
9.60284e-11
9.59542e-11
9.57343e-11
9.53363e-11
9.47242e-11
9.38595e-11
9.2702e-11
9.12115e-11
8.93499e-11
8.70835e-11
8.43854e-11
8.12381e-11
7.76358e-11
7.35849e-11
6.91041e-11
6.42255e-11
5.9005e-11
5.35598e-11
4.8158e-11
4.33659e-11
4.02126e-11
1.65554e-05
1.19297e-05
8.73389e-06
6.47899e-06
4.86081e-06
3.68258e-06
2.81337e-06
2.16427e-06
1.67404e-06
1.29993e-06
1.01183e-06
7.88233e-07
6.13637e-07
4.76712e-07
3.69066e-07
2.84389e-07
2.17866e-07
1.65762e-07
1.25142e-07
9.36696e-08
6.94654e-08
5.10104e-08
3.70734e-08
2.66573e-08
1.89588e-08
1.33348e-08
9.276e-09
6.38315e-09
4.34754e-09
2.93367e-09
1.9645e-09
1.30895e-09
8.7144e-10
5.83372e-10
3.9627e-10
2.76417e-10
2.00719e-10
1.53607e-10
1.24742e-10
1.07362e-10
9.71117e-11
9.12272e-11
8.79792e-11
8.63019e-11
8.55476e-11
8.53281e-11
8.54142e-11
8.56723e-11
8.60254e-11
8.64301e-11
8.6862e-11
8.73077e-11
8.776e-11
8.8215e-11
8.86706e-11
8.9126e-11
8.95806e-11
9.00341e-11
9.04867e-11
9.09383e-11
9.13889e-11
9.18387e-11
9.22877e-11
9.2736e-11
9.31837e-11
9.3631e-11
9.40778e-11
9.45242e-11
9.49704e-11
9.54165e-11
9.58624e-11
9.63083e-11
9.67543e-11
9.72004e-11
9.76467e-11
9.80932e-11
9.854e-11
9.89872e-11
9.94348e-11
9.98828e-11
1.00331e-10
1.0078e-10
1.0123e-10
1.01679e-10
1.02129e-10
1.02579e-10
1.03028e-10
1.03476e-10
1.03922e-10
1.04365e-10
1.04802e-10
1.0523e-10
1.05646e-10
1.06045e-10
1.06419e-10
1.06759e-10
1.07053e-10
1.07285e-10
1.07437e-10
1.07485e-10
1.07403e-10
1.07159e-10
1.06716e-10
1.06034e-10
1.05072e-10
1.03785e-10
1.0213e-10
1.00066e-10
9.75588e-11
9.45841e-11
9.11302e-11
8.72026e-11
8.28277e-11
7.80559e-11
7.29667e-11
6.76817e-11
6.2398e-11
5.74518e-11
5.33967e-11
5.10021e-11
1.65815e-05
1.20029e-05
8.84109e-06
6.60461e-06
4.99131e-06
3.8083e-06
2.92848e-06
2.26597e-06
1.76159e-06
1.37385e-06
1.07328e-06
8.38679e-07
6.54594e-07
5.09631e-07
3.9527e-07
3.05049e-07
2.33998e-07
1.78235e-07
1.34687e-07
1.00898e-07
7.48794e-08
5.50204e-08
4.00096e-08
2.87824e-08
2.04787e-08
1.44092e-08
1.00266e-08
6.9016e-09
4.70182e-09
3.17341e-09
2.12543e-09
1.4164e-09
9.43093e-10
6.31398e-10
4.28918e-10
2.99196e-10
2.17255e-10
1.66253e-10
1.35e-10
1.16182e-10
1.05082e-10
9.87095e-11
9.51917e-11
9.33747e-11
9.25573e-11
9.23191e-11
9.24118e-11
9.26906e-11
9.30725e-11
9.35103e-11
9.39775e-11
9.44597e-11
9.4949e-11
9.54412e-11
9.59342e-11
9.64268e-11
9.69186e-11
9.74093e-11
9.78989e-11
9.83875e-11
9.8875e-11
9.93616e-11
9.98474e-11
1.00332e-10
1.00817e-10
1.01301e-10
1.01784e-10
1.02267e-10
1.0275e-10
1.03232e-10
1.03715e-10
1.04197e-10
1.0468e-10
1.05162e-10
1.05645e-10
1.06128e-10
1.06612e-10
1.07095e-10
1.0758e-10
1.08064e-10
1.08549e-10
1.09035e-10
1.09521e-10
1.10008e-10
1.10494e-10
1.10981e-10
1.11467e-10
1.11952e-10
1.12434e-10
1.12913e-10
1.13386e-10
1.13849e-10
1.143e-10
1.14731e-10
1.15136e-10
1.15503e-10
1.15821e-10
1.16073e-10
1.16238e-10
1.16291e-10
1.16203e-10
1.1594e-10
1.15463e-10
1.14729e-10
1.13693e-10
1.12308e-10
1.10529e-10
1.08315e-10
1.0563e-10
1.02453e-10
9.87792e-11
9.46248e-11
9.00349e-11
8.50881e-11
7.99039e-11
7.46544e-11
6.9585e-11
6.50461e-11
6.15137e-11
5.95366e-11
1.65951e-05
1.20417e-05
8.89941e-06
6.67501e-06
5.06659e-06
3.88274e-06
2.99822e-06
2.32881e-06
1.81658e-06
1.4209e-06
1.11283e-06
8.7144e-07
6.81389e-07
5.31297e-07
4.12602e-07
3.1877e-07
2.44748e-07
1.8657e-07
1.41082e-07
1.05749e-07
7.85198e-08
5.77209e-08
4.19895e-08
3.02168e-08
2.15057e-08
1.51357e-08
1.05345e-08
7.2527e-09
4.94187e-09
3.33594e-09
2.23458e-09
1.4893e-09
9.9172e-10
6.63997e-10
4.51082e-10
3.1466e-10
2.2848e-10
1.74835e-10
1.41961e-10
1.22165e-10
1.10488e-10
1.03784e-10
1.00082e-10
9.81705e-11
9.731e-11
9.70589e-11
9.7156e-11
9.7449e-11
9.78504e-11
9.83106e-11
9.88017e-11
9.93086e-11
9.9823e-11
1.00341e-10
1.00859e-10
1.01377e-10
1.01894e-10
1.0241e-10
1.02924e-10
1.03438e-10
1.0395e-10
1.04462e-10
1.04973e-10
1.05483e-10
1.05992e-10
1.065e-10
1.07009e-10
1.07516e-10
1.08024e-10
1.08531e-10
1.09038e-10
1.09546e-10
1.10053e-10
1.1056e-10
1.11068e-10
1.11576e-10
1.12084e-10
1.12592e-10
1.13101e-10
1.13611e-10
1.14121e-10
1.14632e-10
1.15143e-10
1.15654e-10
1.16166e-10
1.16677e-10
1.17188e-10
1.17698e-10
1.18205e-10
1.18708e-10
1.19205e-10
1.19693e-10
1.20166e-10
1.2062e-10
1.21045e-10
1.21432e-10
1.21766e-10
1.22031e-10
1.22204e-10
1.22261e-10
1.22169e-10
1.21894e-10
1.21394e-10
1.20625e-10
1.1954e-10
1.1809e-10
1.16229e-10
1.13915e-10
1.11113e-10
1.07805e-10
1.0399e-10
9.96939e-11
9.49753e-11
8.99333e-11
8.47147e-11
7.95232e-11
7.46294e-11
7.03781e-11
6.71781e-11
6.54394e-11
1.6601e-05
1.20586e-05
8.92513e-06
6.70659e-06
5.10094e-06
3.91727e-06
3.03102e-06
2.35873e-06
1.84303e-06
1.44373e-06
1.13216e-06
8.87537e-07
6.94617e-07
5.42034e-07
4.21218e-07
3.25609e-07
2.50118e-07
1.90741e-07
1.44286e-07
1.08184e-07
8.03486e-08
5.90787e-08
4.29858e-08
3.09392e-08
2.20232e-08
1.5502e-08
1.07908e-08
7.42987e-09
5.06305e-09
3.41801e-09
2.28971e-09
1.52613e-09
1.01629e-09
6.80471e-10
4.62283e-10
3.22475e-10
2.34153e-10
1.79171e-10
1.45478e-10
1.25187e-10
1.13219e-10
1.06346e-10
1.02552e-10
1.00592e-10
9.97099e-11
9.94524e-11
9.95517e-11
9.98518e-11
1.00263e-10
1.00734e-10
1.01238e-10
1.01757e-10
1.02284e-10
1.02814e-10
1.03345e-10
1.03876e-10
1.04406e-10
1.04934e-10
1.05462e-10
1.05988e-10
1.06513e-10
1.07037e-10
1.07561e-10
1.08083e-10
1.08605e-10
1.09126e-10
1.09647e-10
1.10167e-10
1.10687e-10
1.11207e-10
1.11727e-10
1.12246e-10
1.12766e-10
1.13286e-10
1.13806e-10
1.14326e-10
1.14847e-10
1.15368e-10
1.1589e-10
1.16412e-10
1.16934e-10
1.17458e-10
1.17981e-10
1.18505e-10
1.19029e-10
1.19554e-10
1.20077e-10
1.20599e-10
1.21119e-10
1.21635e-10
1.22144e-10
1.22643e-10
1.23129e-10
1.23593e-10
1.24029e-10
1.24426e-10
1.24768e-10
1.25039e-10
1.25217e-10
1.25275e-10
1.25182e-10
1.249e-10
1.24389e-10
1.23602e-10
1.22493e-10
1.21011e-10
1.19109e-10
1.16744e-10
1.13885e-10
1.10513e-10
1.06629e-10
1.02265e-10
9.74871e-11
9.24038e-11
8.71761e-11
8.20224e-11
7.7223e-11
7.31165e-11
7.00756e-11
6.8446e-11
1.6601e-05
1.20586e-05
8.92513e-06
6.70659e-06
5.10094e-06
3.91727e-06
3.03102e-06
2.35873e-06
1.84303e-06
1.44373e-06
1.13216e-06
8.87537e-07
6.94617e-07
5.42034e-07
4.21218e-07
3.25609e-07
2.50118e-07
1.90741e-07
1.44286e-07
1.08184e-07
8.03486e-08
5.90787e-08
4.29858e-08
3.09392e-08
2.20232e-08
1.5502e-08
1.07908e-08
7.42987e-09
5.06305e-09
3.41801e-09
2.28971e-09
1.52613e-09
1.01629e-09
6.80471e-10
4.62283e-10
3.22475e-10
2.34153e-10
1.79171e-10
1.45478e-10
1.25187e-10
1.13219e-10
1.06346e-10
1.02552e-10
1.00592e-10
9.97099e-11
9.94523e-11
9.95516e-11
9.98517e-11
1.00263e-10
1.00734e-10
1.01238e-10
1.01757e-10
1.02284e-10
1.02814e-10
1.03345e-10
1.03876e-10
1.04406e-10
1.04934e-10
1.05462e-10
1.05988e-10
1.06513e-10
1.07037e-10
1.07561e-10
1.08083e-10
1.08605e-10
1.09126e-10
1.09647e-10
1.10167e-10
1.10687e-10
1.11207e-10
1.11726e-10
1.12246e-10
1.12766e-10
1.13286e-10
1.13806e-10
1.14326e-10
1.14847e-10
1.15368e-10
1.1589e-10
1.16412e-10
1.16934e-10
1.17457e-10
1.17981e-10
1.18505e-10
1.19029e-10
1.19554e-10
1.20077e-10
1.20599e-10
1.21119e-10
1.21635e-10
1.22144e-10
1.22643e-10
1.23129e-10
1.23593e-10
1.24029e-10
1.24425e-10
1.24768e-10
1.25039e-10
1.25217e-10
1.25275e-10
1.25182e-10
1.249e-10
1.24389e-10
1.23602e-10
1.22492e-10
1.2101e-10
1.19108e-10
1.16744e-10
1.13885e-10
1.10512e-10
1.06629e-10
1.02265e-10
9.7487e-11
9.24038e-11
8.71761e-11
8.20223e-11
7.72229e-11
7.31163e-11
7.00754e-11
6.84458e-11
1.65951e-05
1.20417e-05
8.89941e-06
6.67501e-06
5.06659e-06
3.88274e-06
2.99822e-06
2.32881e-06
1.81658e-06
1.4209e-06
1.11283e-06
8.7144e-07
6.81389e-07
5.31297e-07
4.12602e-07
3.1877e-07
2.44748e-07
1.8657e-07
1.41082e-07
1.05749e-07
7.85198e-08
5.77209e-08
4.19895e-08
3.02169e-08
2.15057e-08
1.51357e-08
1.05346e-08
7.25271e-09
4.94188e-09
3.33594e-09
2.23458e-09
1.4893e-09
9.91721e-10
6.63998e-10
4.51082e-10
3.1466e-10
2.2848e-10
1.74835e-10
1.41961e-10
1.22165e-10
1.10488e-10
1.03784e-10
1.00082e-10
9.81703e-11
9.73098e-11
9.70588e-11
9.71559e-11
9.74489e-11
9.78502e-11
9.83104e-11
9.88015e-11
9.93085e-11
9.98228e-11
1.0034e-10
1.00859e-10
1.01376e-10
1.01893e-10
1.02409e-10
1.02924e-10
1.03438e-10
1.0395e-10
1.04462e-10
1.04972e-10
1.05482e-10
1.05992e-10
1.065e-10
1.07008e-10
1.07516e-10
1.08024e-10
1.08531e-10
1.09038e-10
1.09545e-10
1.10053e-10
1.1056e-10
1.11068e-10
1.11575e-10
1.12084e-10
1.12592e-10
1.13101e-10
1.13611e-10
1.14121e-10
1.14631e-10
1.15142e-10
1.15654e-10
1.16166e-10
1.16677e-10
1.17188e-10
1.17698e-10
1.18205e-10
1.18708e-10
1.19205e-10
1.19693e-10
1.20166e-10
1.2062e-10
1.21045e-10
1.21432e-10
1.21766e-10
1.22031e-10
1.22204e-10
1.22261e-10
1.22169e-10
1.21893e-10
1.21393e-10
1.20624e-10
1.19539e-10
1.1809e-10
1.16229e-10
1.13914e-10
1.11113e-10
1.07805e-10
1.0399e-10
9.96937e-11
9.49751e-11
8.99331e-11
8.47145e-11
7.9523e-11
7.46291e-11
7.03777e-11
6.71774e-11
6.54385e-11
1.65815e-05
1.20029e-05
8.84109e-06
6.60461e-06
4.99131e-06
3.8083e-06
2.92848e-06
2.26597e-06
1.76159e-06
1.37385e-06
1.07328e-06
8.38679e-07
6.54594e-07
5.09631e-07
3.9527e-07
3.05049e-07
2.33998e-07
1.78235e-07
1.34687e-07
1.00898e-07
7.48794e-08
5.50205e-08
4.00096e-08
2.87824e-08
2.04787e-08
1.44092e-08
1.00266e-08
6.90161e-09
4.70182e-09
3.17342e-09
2.12544e-09
1.4164e-09
9.43094e-10
6.31399e-10
4.28919e-10
2.99196e-10
2.17256e-10
1.66252e-10
1.35e-10
1.16181e-10
1.05082e-10
9.87093e-11
9.51915e-11
9.33745e-11
9.2557e-11
9.23188e-11
9.24115e-11
9.26904e-11
9.30722e-11
9.351e-11
9.39772e-11
9.44594e-11
9.49487e-11
9.54409e-11
9.59339e-11
9.64265e-11
9.69183e-11
9.7409e-11
9.78986e-11
9.83872e-11
9.88747e-11
9.93613e-11
9.9847e-11
1.00332e-10
1.00816e-10
1.013e-10
1.01784e-10
1.02267e-10
1.02749e-10
1.03232e-10
1.03714e-10
1.04197e-10
1.04679e-10
1.05162e-10
1.05645e-10
1.06128e-10
1.06611e-10
1.07095e-10
1.07579e-10
1.08064e-10
1.08549e-10
1.09035e-10
1.09521e-10
1.10007e-10
1.10494e-10
1.10981e-10
1.11467e-10
1.11951e-10
1.12434e-10
1.12912e-10
1.13385e-10
1.13849e-10
1.14299e-10
1.14731e-10
1.15135e-10
1.15503e-10
1.15821e-10
1.16072e-10
1.16237e-10
1.1629e-10
1.16202e-10
1.15939e-10
1.15462e-10
1.14728e-10
1.13693e-10
1.12308e-10
1.10529e-10
1.08314e-10
1.0563e-10
1.02453e-10
9.87788e-11
9.46245e-11
9.00346e-11
8.50878e-11
7.99036e-11
7.4654e-11
6.95844e-11
6.50451e-11
6.15121e-11
5.95345e-11
1.65554e-05
1.19297e-05
8.73389e-06
6.47899e-06
4.86081e-06
3.68258e-06
2.81337e-06
2.16427e-06
1.67404e-06
1.29993e-06
1.01183e-06
7.88233e-07
6.13637e-07
4.76712e-07
3.69066e-07
2.84389e-07
2.17866e-07
1.65762e-07
1.25142e-07
9.36696e-08
6.94654e-08
5.10104e-08
3.70734e-08
2.66573e-08
1.89588e-08
1.33348e-08
9.27601e-09
6.38316e-09
4.34755e-09
2.93368e-09
1.96451e-09
1.30895e-09
8.71441e-10
5.83373e-10
3.96271e-10
2.76417e-10
2.0072e-10
1.53607e-10
1.24742e-10
1.07362e-10
9.71114e-11
9.12269e-11
8.79788e-11
8.63015e-11
8.55472e-11
8.53278e-11
8.54139e-11
8.56719e-11
8.6025e-11
8.64297e-11
8.68616e-11
8.73073e-11
8.77596e-11
8.82146e-11
8.86703e-11
8.91256e-11
8.95802e-11
9.00337e-11
9.04863e-11
9.09379e-11
9.13885e-11
9.18383e-11
9.22873e-11
9.27356e-11
9.31833e-11
9.36305e-11
9.40773e-11
9.45238e-11
9.497e-11
9.54161e-11
9.5862e-11
9.63079e-11
9.67539e-11
9.72e-11
9.76462e-11
9.80928e-11
9.85396e-11
9.89867e-11
9.94343e-11
9.98823e-11
1.00331e-10
1.0078e-10
1.01229e-10
1.01679e-10
1.02129e-10
1.02578e-10
1.03028e-10
1.03476e-10
1.03922e-10
1.04364e-10
1.04801e-10
1.0523e-10
1.05646e-10
1.06045e-10
1.06419e-10
1.06758e-10
1.07052e-10
1.07284e-10
1.07436e-10
1.07485e-10
1.07403e-10
1.07158e-10
1.06715e-10
1.06034e-10
1.05072e-10
1.03784e-10
1.02129e-10
1.00065e-10
9.75584e-11
9.45837e-11
9.11298e-11
8.72022e-11
8.28273e-11
7.80555e-11
7.29663e-11
6.76812e-11
6.23969e-11
5.74499e-11
5.33935e-11
5.0998e-11
1.65062e-05
1.1796e-05
8.54617e-06
6.26833e-06
4.65067e-06
3.48731e-06
2.64001e-06
2.01502e-06
1.54827e-06
1.1956e-06
9.26316e-07
7.18845e-07
5.57832e-07
4.32205e-07
3.33862e-07
2.56778e-07
1.96399e-07
1.49225e-07
1.12526e-07
8.41411e-08
6.23443e-08
4.57462e-08
3.32252e-08
2.38764e-08
1.69722e-08
1.19322e-08
8.29702e-09
5.70751e-09
3.88619e-09
2.62167e-09
1.75518e-09
1.16925e-09
7.78317e-10
5.20972e-10
3.53858e-10
2.46826e-10
1.79236e-10
1.37175e-10
1.11407e-10
9.58939e-11
8.67456e-11
8.14942e-11
7.8596e-11
7.70997e-11
7.6427e-11
7.62317e-11
7.63091e-11
7.65399e-11
7.68555e-11
7.72172e-11
7.76031e-11
7.80014e-11
7.84055e-11
7.8812e-11
7.92191e-11
7.9626e-11
8.00321e-11
8.04374e-11
8.08417e-11
8.12452e-11
8.16478e-11
8.20496e-11
8.24508e-11
8.28514e-11
8.32514e-11
8.3651e-11
8.40502e-11
8.44491e-11
8.48477e-11
8.52463e-11
8.56447e-11
8.60431e-11
8.64416e-11
8.68401e-11
8.72389e-11
8.76378e-11
8.8037e-11
8.84366e-11
8.88365e-11
8.92368e-11
8.96374e-11
9.00385e-11
9.044e-11
9.08418e-11
9.12437e-11
9.16455e-11
9.20469e-11
9.24473e-11
9.28457e-11
9.3241e-11
9.36314e-11
9.40143e-11
9.43863e-11
9.47425e-11
9.50765e-11
9.53801e-11
9.56423e-11
9.58496e-11
9.5985e-11
9.60278e-11
9.59536e-11
9.57337e-11
9.53357e-11
9.47237e-11
9.3859e-11
9.27014e-11
9.1211e-11
8.93494e-11
8.7083e-11
8.43849e-11
8.12377e-11
7.76354e-11
7.35844e-11
6.91037e-11
6.42251e-11
5.90043e-11
5.35583e-11
4.81552e-11
4.33613e-11
4.02067e-11
1.64098e-05
1.15482e-05
8.21893e-06
5.92227e-06
4.32326e-06
3.19654e-06
2.39145e-06
1.80755e-06
1.37778e-06
1.05702e-06
8.14591e-07
6.29387e-07
4.86657e-07
3.75936e-07
2.89674e-07
2.22327e-07
1.69747e-07
1.2878e-07
9.69829e-08
7.24374e-08
5.36202e-08
3.93113e-08
2.85304e-08
2.04892e-08
1.45562e-08
1.02285e-08
7.10925e-09
4.88856e-09
3.32746e-09
2.24409e-09
1.50202e-09
1.0004e-09
6.65802e-10
4.45602e-10
3.02639e-10
2.11093e-10
1.53291e-10
1.17326e-10
9.52954e-11
8.20335e-11
7.42136e-11
6.97253e-11
6.72486e-11
6.59701e-11
6.53958e-11
6.52293e-11
6.5296e-11
6.54937e-11
6.57639e-11
6.60734e-11
6.64037e-11
6.67446e-11
6.70904e-11
6.74382e-11
6.77866e-11
6.81348e-11
6.84823e-11
6.88291e-11
6.91751e-11
6.95204e-11
6.98649e-11
7.02088e-11
7.05521e-11
7.08949e-11
7.12372e-11
7.15791e-11
7.19208e-11
7.22621e-11
7.26033e-11
7.29443e-11
7.32853e-11
7.36262e-11
7.39672e-11
7.43083e-11
7.46495e-11
7.49909e-11
7.53325e-11
7.56744e-11
7.60166e-11
7.63592e-11
7.67021e-11
7.70453e-11
7.73889e-11
7.77327e-11
7.80766e-11
7.84205e-11
7.8764e-11
7.91066e-11
7.94476e-11
7.97859e-11
8.01199e-11
8.04476e-11
8.07658e-11
8.10706e-11
8.13564e-11
8.16161e-11
8.18404e-11
8.20176e-11
8.21331e-11
8.21692e-11
8.21049e-11
8.19155e-11
8.1573e-11
8.10463e-11
8.03019e-11
7.93046e-11
7.80188e-11
7.641e-11
7.44467e-11
7.21015e-11
6.93531e-11
6.61861e-11
6.25899e-11
5.85551e-11
5.40693e-11
4.91183e-11
4.37097e-11
3.79395e-11
3.21249e-11
2.72205e-11
1.62049e-05
1.10715e-05
7.64371e-06
5.36016e-06
3.82544e-06
2.77761e-06
2.04847e-06
1.53097e-06
1.15665e-06
8.8114e-07
6.75236e-07
5.19347e-07
4.00084e-07
3.08117e-07
2.36814e-07
1.81369e-07
1.38226e-07
1.04705e-07
7.87476e-08
5.875e-08
4.34451e-08
3.18239e-08
2.30788e-08
1.65631e-08
1.17601e-08
8.2595e-09
5.73813e-09
3.94418e-09
2.68374e-09
1.80942e-09
1.21078e-09
8.06246e-10
5.36494e-10
3.59012e-10
2.43809e-10
1.70052e-10
1.2349e-10
9.4522e-11
7.67798e-11
6.61005e-11
5.98041e-11
5.61905e-11
5.41968e-11
5.31679e-11
5.27059e-11
5.25723e-11
5.26263e-11
5.27858e-11
5.30037e-11
5.32533e-11
5.35195e-11
5.37942e-11
5.4073e-11
5.43534e-11
5.46342e-11
5.49148e-11
5.5195e-11
5.54745e-11
5.57534e-11
5.60317e-11
5.63094e-11
5.65866e-11
5.68633e-11
5.71396e-11
5.74155e-11
5.76911e-11
5.79664e-11
5.82416e-11
5.85166e-11
5.87915e-11
5.90663e-11
5.93411e-11
5.96159e-11
5.98909e-11
6.01659e-11
6.04411e-11
6.07164e-11
6.0992e-11
6.12679e-11
6.1544e-11
6.18203e-11
6.2097e-11
6.23739e-11
6.26511e-11
6.29283e-11
6.32055e-11
6.34823e-11
6.37585e-11
6.40333e-11
6.4306e-11
6.45753e-11
6.48394e-11
6.50959e-11
6.53415e-11
6.55718e-11
6.57811e-11
6.59618e-11
6.61044e-11
6.61973e-11
6.6226e-11
6.61735e-11
6.60199e-11
6.57424e-11
6.53157e-11
6.47123e-11
6.39032e-11
6.28589e-11
6.15502e-11
5.99495e-11
5.80315e-11
5.57739e-11
5.31565e-11
5.01585e-11
4.67527e-11
4.28968e-11
3.85246e-11
3.3537e-11
2.77634e-11
2.07227e-11
1.05303e-11
1.57117e-05
1.01115e-05
6.6271e-06
4.46339e-06
3.09173e-06
2.19655e-06
1.59435e-06
1.17759e-06
8.81764e-07
6.67134e-07
5.08494e-07
3.89427e-07
2.9896e-07
2.29585e-07
1.7604e-07
1.34557e-07
1.02378e-07
7.74392e-08
5.81696e-08
4.33514e-08
3.20282e-08
2.34419e-08
1.69881e-08
1.21844e-08
8.64641e-09
6.06974e-09
4.21508e-09
2.89623e-09
1.97006e-09
1.32788e-09
8.88343e-10
5.91422e-10
3.93482e-10
2.63278e-10
1.7878e-10
1.24691e-10
9.05492e-11
6.93116e-11
5.63053e-11
4.84773e-11
4.38625e-11
4.12142e-11
3.97533e-11
3.89995e-11
3.86611e-11
3.85634e-11
3.86032e-11
3.87203e-11
3.88802e-11
3.90633e-11
3.92587e-11
3.94602e-11
3.96647e-11
3.98704e-11
4.00764e-11
4.02823e-11
4.04878e-11
4.06928e-11
4.08974e-11
4.11016e-11
4.13053e-11
4.15086e-11
4.17116e-11
4.19143e-11
4.21167e-11
4.23189e-11
4.25209e-11
4.27228e-11
4.29245e-11
4.31261e-11
4.33278e-11
4.35294e-11
4.3731e-11
4.39326e-11
4.41344e-11
4.43363e-11
4.45383e-11
4.47405e-11
4.49428e-11
4.51454e-11
4.53481e-11
4.55511e-11
4.57542e-11
4.59575e-11
4.61609e-11
4.63642e-11
4.65673e-11
4.67699e-11
4.69715e-11
4.71716e-11
4.73691e-11
4.75628e-11
4.7751e-11
4.79312e-11
4.81001e-11
4.82536e-11
4.83861e-11
4.84906e-11
4.85586e-11
4.85794e-11
4.85406e-11
4.84273e-11
4.82228e-11
4.79084e-11
4.74636e-11
4.68669e-11
4.60959e-11
4.51284e-11
4.39428e-11
4.25185e-11
4.08361e-11
3.88761e-11
3.66156e-11
3.40234e-11
3.10506e-11
2.76204e-11
2.36141e-11
1.88422e-11
1.29439e-11
5.18636e-12
1.43109e-05
8.09901e-06
4.85553e-06
3.08831e-06
2.06338e-06
1.43238e-06
1.02379e-06
7.48126e-07
5.55879e-07
4.1815e-07
3.17303e-07
2.42153e-07
1.85375e-07
1.4203e-07
1.08696e-07
8.2949e-08
6.30255e-08
4.7617e-08
3.57321e-08
2.66063e-08
1.96418e-08
1.43665e-08
1.04052e-08
7.45909e-09
5.29082e-09
3.71267e-09
2.57734e-09
1.77039e-09
1.20393e-09
8.11305e-10
5.42653e-10
3.61218e-10
2.40291e-10
1.60762e-10
1.09158e-10
7.61301e-11
5.52849e-11
4.23194e-11
3.43797e-11
2.96015e-11
2.67848e-11
2.51685e-11
2.4277e-11
2.3817e-11
2.36106e-11
2.35511e-11
2.35755e-11
2.3647e-11
2.37447e-11
2.38566e-11
2.39759e-11
2.4099e-11
2.42239e-11
2.43495e-11
2.44753e-11
2.46011e-11
2.47266e-11
2.48518e-11
2.49768e-11
2.51014e-11
2.52259e-11
2.53501e-11
2.5474e-11
2.55978e-11
2.57215e-11
2.58449e-11
2.59683e-11
2.60916e-11
2.62148e-11
2.6338e-11
2.64611e-11
2.65842e-11
2.67074e-11
2.68305e-11
2.69538e-11
2.70771e-11
2.72004e-11
2.73239e-11
2.74475e-11
2.75712e-11
2.7695e-11
2.7819e-11
2.79431e-11
2.80672e-11
2.81915e-11
2.83156e-11
2.84397e-11
2.85634e-11
2.86866e-11
2.88087e-11
2.89294e-11
2.90477e-11
2.91626e-11
2.92727e-11
2.93758e-11
2.94695e-11
2.95504e-11
2.96142e-11
2.96557e-11
2.96683e-11
2.96444e-11
2.95749e-11
2.94497e-11
2.9257e-11
2.89844e-11
2.86185e-11
2.81455e-11
2.75513e-11
2.68222e-11
2.59447e-11
2.49056e-11
2.3691e-11
2.22838e-11
2.06604e-11
1.87845e-11
1.66004e-11
1.40262e-11
1.0947e-11
7.20587e-12
2.6337e-12
9.53536e-06
3.8707e-06
1.95777e-06
1.14921e-06
7.39072e-07
5.0308e-07
3.55544e-07
2.57954e-07
1.90721e-07
1.42948e-07
1.08173e-07
8.23741e-08
6.29493e-08
4.81606e-08
3.68133e-08
2.80647e-08
2.13054e-08
1.60846e-08
1.20622e-08
8.97651e-09
6.62356e-09
4.84255e-09
3.50597e-09
2.51247e-09
1.78161e-09
1.24987e-09
8.67471e-10
5.95758e-10
4.0507e-10
2.72929e-10
1.8253e-10
1.21489e-10
8.08109e-11
5.40613e-11
3.67063e-11
2.55993e-11
1.85898e-11
1.42302e-11
1.15607e-11
9.95422e-12
9.00724e-12
8.46386e-12
8.16414e-12
8.00952e-12
7.94015e-12
7.92016e-12
7.92838e-12
7.95246e-12
7.98532e-12
8.02293e-12
8.06306e-12
8.10446e-12
8.14646e-12
8.18872e-12
8.23103e-12
8.27331e-12
8.31553e-12
8.35765e-12
8.39967e-12
8.4416e-12
8.48345e-12
8.52522e-12
8.56691e-12
8.60854e-12
8.65012e-12
8.69165e-12
8.73314e-12
8.7746e-12
8.81604e-12
8.85746e-12
8.89887e-12
8.94028e-12
8.98169e-12
9.02312e-12
9.06456e-12
9.10603e-12
9.14752e-12
9.18905e-12
9.23061e-12
9.27222e-12
9.31387e-12
9.35555e-12
9.39728e-12
9.43904e-12
9.48082e-12
9.52258e-12
9.5643e-12
9.60591e-12
9.64733e-12
9.68842e-12
9.72899e-12
9.76878e-12
9.80743e-12
9.84444e-12
9.87914e-12
9.91065e-12
9.93785e-12
9.9593e-12
9.97323e-12
9.97745e-12
9.96938e-12
9.94598e-12
9.90377e-12
9.83888e-12
9.74704e-12
9.62373e-12
9.46426e-12
9.26384e-12
9.01774e-12
8.7213e-12
8.36982e-12
7.95824e-12
7.48035e-12
6.92747e-12
6.28646e-12
5.53751e-12
4.65252e-12
3.59536e-12
2.32643e-12
8.25417e-13
)
;

boundaryField
{
    upperWall
    {
        type            fixedValue;
        value           uniform 0;
    }
    lowerWall
    {
        type            fixedValue;
        value           uniform 0;
    }
    inlet
    {
        type            fixedValue;
        value           uniform 2e-05;
    }
    outlet
    {
        type            inletOutlet;
        inletValue      uniform 0;
        value           nonuniform List<scalar> 
20
(
0
0
0
0
2.72263e-11
4.02126e-11
5.10021e-11
5.95366e-11
6.54394e-11
6.8446e-11
6.84458e-11
6.54385e-11
5.95345e-11
5.0998e-11
4.02067e-11
2.72205e-11
0
0
0
0
)
;
    }
    frontAndBack
    {
        type            empty;
    }
}


// ************************************************************************* //
