/*--------------------------------*- C++ -*----------------------------------*\
  =========                 |
  \\      /  F ield         | OpenFOAM: The Open Source CFD Toolbox
   \\    /   O peration     | Website:  https://openfoam.org
    \\  /    A nd           | Version:  7
     \\/     M anipulation  |
\*---------------------------------------------------------------------------*/
FoamFile
{
    version     2.0;
    format      ascii;
    class       volScalarField;
    location    "0.85";
    object      nut;
}
// * * * * * * * * * * * * * * * * * * * * * * * * * * * * * * * * * * * * * //

dimensions      [0 2 -1 0 0 0 0];

internalField   nonuniform List<scalar> 
2640
(
0.000717628
0.00172076
0.00237266
0.00266393
0.00270892
0.00267338
0.0025827
0.00247022
0.00236725
0.00227861
0.00220479
0.00214405
0.00209388
0.00205198
0.00201639
0.0019856
0.00195849
0.00193424
0.00191223
0.00189207
0.00187345
0.00185615
0.00184001
0.00182491
0.00181074
0.00179745
0.00178493
0.00177316
0.00176204
0.00175154
0.00174164
0.00173215
0.00172339
0.00171457
0.00170705
0.00169828
0.00169242
0.00168297
0.0016768
0.00168442
8.25965e-05
0.000384446
0.000731755
0.00112586
0.00136606
0.00150949
0.00158872
0.00162495
0.00164031
0.00164223
0.00164075
0.00163711
0.00163205
0.00162685
0.00162169
0.00161664
0.0016117
0.00160684
0.00160205
0.00159733
0.00159263
0.00158795
0.00158324
0.00157855
0.0015738
0.00156909
0.00156432
0.00155968
0.00155488
0.00155037
0.0015455
0.00154128
0.00153622
0.00153254
0.00152709
0.00152419
0.00151827
0.00151573
0.00150788
0.00150864
1.06661e-05
4.96058e-05
0.000126918
0.000240809
0.000382534
0.000509397
0.000609591
0.000683009
0.000736428
0.000774731
0.000802801
0.000824228
0.000841183
0.000855445
0.000867952
0.000879567
0.000890521
0.000901288
0.000911703
0.000922188
0.00093234
0.000942658
0.000952519
0.000962644
0.000972071
0.000981856
0.000990646
0.001
0.00100804
0.00101697
0.00102413
0.00103259
0.00103879
0.00104684
0.0010521
0.00105965
0.00106431
0.00107082
0.00107574
0.00108062
9.42379e-06
1.06875e-05
1.90021e-05
3.84774e-05
6.86037e-05
0.000107634
0.00015141
0.000190927
0.000225247
0.000254119
0.000278455
0.000298862
0.000316422
0.000331472
0.000344986
0.000356933
0.00036817
0.000378361
0.000388274
0.000397422
0.000406527
0.000415074
0.000423784
0.00043201
0.000440634
0.000448658
0.000457313
0.000465202
0.000473967
0.000481721
0.000490676
0.000498249
0.000507458
0.000514816
0.000524331
0.000531349
0.000541371
0.000547789
0.000558656
0.000564919
9.41035e-06
9.51814e-06
9.89317e-06
1.1046e-05
1.38656e-05
1.89481e-05
2.78801e-05
3.50539e-05
4.6936e-05
5.32021e-05
6.41471e-05
6.93926e-05
7.88834e-05
8.34114e-05
9.17853e-05
9.58503e-05
0.000103515
0.000107304
0.000114449
0.000118085
0.000124799
0.000128263
0.000134658
0.000137948
0.000144231
0.0001474
0.000153548
0.000156665
0.000162708
0.000165793
0.000171801
0.000174871
0.000180859
0.000183947
0.000189938
0.000193065
0.000199126
0.000202315
0.000208641
0.00021213
9.4054e-06
9.48952e-06
9.75371e-06
1.01192e-05
1.08798e-05
1.13291e-05
1.22361e-05
1.27319e-05
1.37753e-05
1.4331e-05
1.5477e-05
1.60695e-05
1.727e-05
1.78915e-05
1.91413e-05
1.97998e-05
2.11215e-05
2.18255e-05
2.32342e-05
2.39843e-05
2.54782e-05
2.6267e-05
2.78325e-05
2.86555e-05
3.02917e-05
3.11515e-05
3.28604e-05
3.37573e-05
3.55392e-05
3.64738e-05
3.83293e-05
3.93019e-05
4.12285e-05
4.22397e-05
4.42384e-05
4.52941e-05
4.73826e-05
4.85007e-05
5.07552e-05
5.1998e-05
9.4054e-06
9.48952e-06
9.75371e-06
1.01192e-05
1.08799e-05
1.1329e-05
1.2236e-05
1.27316e-05
1.37749e-05
1.43306e-05
1.54765e-05
1.6069e-05
1.72697e-05
1.78912e-05
1.91414e-05
1.97998e-05
2.11212e-05
2.18243e-05
2.32317e-05
2.39795e-05
2.5471e-05
2.62577e-05
2.78222e-05
2.86427e-05
3.02729e-05
3.11254e-05
3.28193e-05
3.37032e-05
3.54598e-05
3.63723e-05
3.81844e-05
3.91177e-05
4.09691e-05
4.19116e-05
4.37826e-05
4.47185e-05
4.65912e-05
4.75077e-05
4.94098e-05
5.03428e-05
9.41035e-06
9.51814e-06
9.89318e-06
1.1046e-05
1.38656e-05
1.89313e-05
2.78845e-05
3.50466e-05
4.69362e-05
5.31962e-05
6.41464e-05
6.9388e-05
7.8891e-05
8.34075e-05
9.17945e-05
9.58551e-05
0.000103519
0.000107287
0.000114466
0.000118017
0.000124815
0.000128189
0.000134681
0.000137924
0.000144196
0.000147346
0.000153465
0.000156549
0.000162559
0.000165594
0.000171524
0.000174517
0.000180376
0.000183326
0.00018911
0.000191999
0.000197693
0.000200511
0.00020621
0.000209117
9.42379e-06
1.06875e-05
1.90021e-05
3.84774e-05
6.86028e-05
0.000107369
0.00015159
0.000190778
0.000225368
0.000254004
0.000278558
0.000298761
0.000316516
0.000331375
0.000345073
0.000356838
0.000368254
0.00037826
0.000388357
0.000397301
0.000406617
0.000414921
0.000423876
0.000431808
0.000440721
0.000448389
0.000457373
0.000464833
0.000473962
0.000481197
0.000490539
0.000497485
0.000507072
0.000513667
0.00052349
0.000529608
0.000539675
0.00054514
0.000555428
0.000560843
1.06661e-05
4.96057e-05
0.000126918
0.000240809
0.000382528
0.000509401
0.000609592
0.000683009
0.000736429
0.000774728
0.000802804
0.000824221
0.000841186
0.000855434
0.000867955
0.000879551
0.000890524
0.000901263
0.000911704
0.000922149
0.000932337
0.000942596
0.000952509
0.000962543
0.000972047
0.00098169
0.000990597
0.000999732
0.00100794
0.00101652
0.00102394
0.00103185
0.00103846
0.00104563
0.00105148
0.00105778
0.00106305
0.00106808
0.00107298
0.00107684
8.25966e-05
0.000384446
0.000731756
0.00112586
0.00136606
0.00150949
0.00158872
0.00162495
0.00164031
0.00164223
0.00164075
0.00163711
0.00163205
0.00162685
0.00162169
0.00161664
0.00161169
0.00160683
0.00160205
0.00159732
0.00159262
0.00158794
0.00158322
0.00157853
0.00157377
0.00156908
0.00156426
0.00155966
0.00155479
0.00155036
0.00154536
0.00154127
0.00153602
0.0015325
0.00152686
0.00152401
0.00151796
0.00151541
0.00150724
0.00150767
0.000717628
0.00172076
0.00237266
0.00266393
0.00270892
0.00267338
0.0025827
0.00247022
0.00236725
0.00227861
0.00220479
0.00214405
0.00209389
0.00205199
0.0020164
0.00198561
0.00195851
0.00193426
0.00191226
0.00189211
0.0018735
0.00185622
0.00184009
0.00182503
0.00181089
0.00179766
0.00178519
0.00177353
0.00176249
0.00175218
0.00174239
0.00173329
0.00172461
0.00171659
0.00170901
0.00170188
0.00169541
0.00168924
0.00168192
0.00169226
0.00403432
0.00429941
0.00435528
0.0043501
0.00433446
0.0043237
0.00431768
0.00431416
0.00431212
0.00431177
0.00431293
0.00431623
0.00432164
0.00432883
0.00433752
0.00434733
0.00435786
0.00436878
0.00437984
0.0043909
0.00440194
0.00441296
0.00442403
0.00443522
0.00444658
0.00445815
0.0044699
0.00448182
0.00449381
0.00450582
0.00451776
0.00452959
0.00454127
0.00455283
0.00456428
0.00457567
0.00458705
0.00459845
0.00460992
0.00462146
0.00463308
0.00464478
0.00465654
0.00466835
0.00468021
0.0046921
0.004704
0.00471592
0.00472785
0.00473978
0.00475171
0.00476364
0.00477557
0.00478749
0.00479941
0.00481132
0.00482323
0.00483513
0.00484702
0.0048589
0.00487077
0.00488263
0.00489447
0.00490629
0.0049181
0.00492988
0.00494164
0.00495337
0.00496507
0.00497674
0.00498837
0.00499996
0.00501151
0.00502302
0.00503448
0.00504589
0.00505725
0.00506855
0.0050798
0.00509099
0.00510213
0.0051132
0.00512422
0.00513518
0.00514608
0.00515691
0.0051677
0.00517842
0.0051891
0.00519972
0.0052103
0.00522083
0.00523131
0.00524177
0.00525218
0.00526257
0.00527294
0.00528329
0.00529362
0.00530395
0.00531428
0.00532461
0.00533495
0.00534531
0.00535569
0.00536609
0.00537653
0.00538701
0.00539753
0.00540809
0.00541872
0.00542939
0.00544013
0.00545093
0.0054618
0.00547274
0.00548376
0.00549484
0.00550601
0.00551724
0.00552856
0.00553995
0.00555142
0.00556296
0.00557458
0.00558626
0.00559801
0.00560983
0.00562171
0.00563364
0.00564563
0.00565766
0.00566974
0.00568185
0.005694
0.00570616
0.00571835
0.00573054
0.00574274
0.00575494
0.00576713
0.0057793
0.00579144
0.00580355
0.00581562
0.00582765
0.00583961
0.00585151
0.00586334
0.0058751
0.00588676
0.00589833
0.0059098
0.00592116
0.00593241
0.00594353
0.00595452
0.00596538
0.00597609
0.00598666
0.00599707
0.00600732
0.00601741
0.00602733
0.00603706
0.00604664
0.00605599
0.00606522
0.00607414
0.00608306
0.00609147
0.00610014
0.00610792
0.00611649
0.0061234
0.0061322
0.0061377
0.00614743
0.00615102
0.00616273
0.00362782
0.00413364
0.00428015
0.00431764
0.00431853
0.00431439
0.00430778
0.00430406
0.00430292
0.00430386
0.00430629
0.00431073
0.00431696
0.00432478
0.00433396
0.00434419
0.00435515
0.00436655
0.00437815
0.00438979
0.00440138
0.00441291
0.00442436
0.00443576
0.00444714
0.00445852
0.00446992
0.00448134
0.00449277
0.00450418
0.00451553
0.0045268
0.00453794
0.00454896
0.00455987
0.00457069
0.00458146
0.00459221
0.00460298
0.00461378
0.00462462
0.0046355
0.00464642
0.00465738
0.00466837
0.00467937
0.00469039
0.00470143
0.00471247
0.00472351
0.00473456
0.00474561
0.00475666
0.00476771
0.00477875
0.00478979
0.00480083
0.00481186
0.00482289
0.0048339
0.00484492
0.00485592
0.00486692
0.00487791
0.00488889
0.00489987
0.00491083
0.00492179
0.00493274
0.00494368
0.00495461
0.00496554
0.00497645
0.00498735
0.00499825
0.00500913
0.00502001
0.00503088
0.00504174
0.00505259
0.00506343
0.00507426
0.00508509
0.0050959
0.00510671
0.0051175
0.00512829
0.00513908
0.00514985
0.00516061
0.00517137
0.00518212
0.00519286
0.00520359
0.00521431
0.00522502
0.00523573
0.00524642
0.00525711
0.00526778
0.00527845
0.0052891
0.00529975
0.00531038
0.005321
0.0053316
0.00534219
0.00535277
0.00536333
0.00537388
0.0053844
0.00539491
0.0054054
0.00541588
0.00542632
0.00543675
0.00544716
0.00545754
0.00546789
0.00547822
0.00548852
0.00549879
0.00550903
0.00551923
0.00552941
0.00553955
0.00554966
0.00555973
0.00556976
0.00557975
0.00558971
0.00559962
0.00560949
0.00561932
0.0056291
0.00563884
0.00564853
0.00565818
0.00566778
0.00567733
0.00568683
0.00569628
0.00570568
0.00571502
0.00572432
0.00573356
0.00574275
0.00575188
0.00576097
0.00576999
0.00577896
0.00578788
0.00579674
0.00580554
0.00581429
0.00582298
0.00583162
0.0058402
0.00584872
0.00585718
0.00586559
0.00587394
0.00588223
0.00589048
0.00589864
0.00590679
0.00591482
0.00592289
0.00593074
0.0059388
0.00594639
0.00595453
0.00596173
0.00597017
0.00597667
0.00598582
0.00599108
0.00600146
0.00600568
0.00601752
0.00243796
0.00307432
0.00338339
0.00352195
0.00357795
0.00360038
0.00360961
0.0036153
0.00362077
0.00362692
0.00363366
0.00364094
0.00364873
0.00365702
0.00366584
0.00367521
0.00368508
0.00369538
0.003706
0.00371677
0.00372755
0.0037382
0.00374861
0.0037587
0.0037684
0.00377772
0.00378667
0.00379533
0.0038038
0.00381216
0.00382048
0.00382879
0.00383708
0.00384534
0.00385352
0.00386161
0.00386958
0.00387744
0.00388518
0.00389282
0.00390037
0.00390786
0.00391528
0.00392267
0.00393002
0.00393736
0.00394469
0.00395201
0.00395933
0.00396665
0.00397398
0.00398132
0.00398867
0.00399603
0.0040034
0.00401078
0.00401817
0.00402556
0.00403297
0.00404039
0.00404781
0.00405525
0.00406269
0.00407014
0.0040776
0.00408507
0.00409255
0.00410003
0.00410752
0.00411502
0.00412252
0.00413004
0.00413755
0.00414508
0.0041526
0.00416014
0.00416768
0.00417522
0.00418277
0.00419032
0.00419788
0.00420543
0.004213
0.00422056
0.00422813
0.00423569
0.00424326
0.00425083
0.0042584
0.00426597
0.00427354
0.00428111
0.00428867
0.00429624
0.0043038
0.00431135
0.00431891
0.00432646
0.004334
0.00434154
0.00434908
0.0043566
0.00436412
0.00437164
0.00437914
0.00438664
0.00439413
0.00440162
0.00440909
0.00441655
0.004424
0.00443145
0.00443888
0.0044463
0.00445371
0.00446111
0.0044685
0.00447587
0.00448324
0.00449059
0.00449793
0.00450525
0.00451257
0.00451987
0.00452716
0.00453443
0.0045417
0.00454894
0.00455618
0.00456341
0.00457062
0.00457782
0.004585
0.00459217
0.00459933
0.00460648
0.00461362
0.00462074
0.00462785
0.00463495
0.00464204
0.00464911
0.00465617
0.00466323
0.00467027
0.0046773
0.00468431
0.00469132
0.00469832
0.00470531
0.00471228
0.00471925
0.00472621
0.00473315
0.00474009
0.00474702
0.00475394
0.00476085
0.00476775
0.00477464
0.00478152
0.0047884
0.00479526
0.00480214
0.00480896
0.00481584
0.00482262
0.00482953
0.00483623
0.00484322
0.00484976
0.00485694
0.00486318
0.00487074
0.00487641
0.0048847
0.00488946
0.00489861
0.0049029
0.00491357
0.00118925
0.00160362
0.00201215
0.00231448
0.00251346
0.00264037
0.00272264
0.00277868
0.00281953
0.00285146
0.00287777
0.0029001
0.00291934
0.00293608
0.00295089
0.0029643
0.00297676
0.0029887
0.00300039
0.00301193
0.0030233
0.00303441
0.00304508
0.00305517
0.00306454
0.0030731
0.00308085
0.00308786
0.00309429
0.00310033
0.00310619
0.00311202
0.00311793
0.00312396
0.00313008
0.00313624
0.00314236
0.00314838
0.00315424
0.00315991
0.00316539
0.00317066
0.00317576
0.00318071
0.00318554
0.00319027
0.00319493
0.00319954
0.00320411
0.00320866
0.0032132
0.00321774
0.00322228
0.00322681
0.00323136
0.00323591
0.00324046
0.00324503
0.0032496
0.00325419
0.00325878
0.00326338
0.00326799
0.00327261
0.00327724
0.00328188
0.00328653
0.00329119
0.00329585
0.00330053
0.00330521
0.0033099
0.0033146
0.00331931
0.00332403
0.00332876
0.00333349
0.00333824
0.00334299
0.00334775
0.00335251
0.00335729
0.00336207
0.00336686
0.00337166
0.00337646
0.00338128
0.00338609
0.00339092
0.00339575
0.00340059
0.00340543
0.00341028
0.00341514
0.00342
0.00342487
0.00342974
0.00343462
0.0034395
0.00344439
0.00344928
0.00345418
0.00345908
0.00346399
0.0034689
0.00347381
0.00347873
0.00348365
0.00348858
0.00349351
0.00349844
0.00350338
0.00350832
0.00351327
0.00351822
0.00352318
0.00352813
0.0035331
0.00353806
0.00354303
0.00354801
0.00355298
0.00355797
0.00356295
0.00356795
0.00357294
0.00357794
0.00358295
0.00358796
0.00359297
0.00359799
0.00360302
0.00360805
0.00361309
0.00361813
0.00362318
0.00362823
0.00363329
0.00363835
0.00364343
0.0036485
0.00365359
0.00365868
0.00366377
0.00366887
0.00367398
0.0036791
0.00368422
0.00368935
0.00369449
0.00369963
0.00370478
0.00370994
0.00371511
0.00372028
0.00372546
0.00373064
0.00373584
0.00374104
0.00374626
0.00375147
0.00375671
0.00376192
0.00376719
0.0037724
0.00377771
0.00378291
0.00378828
0.00379342
0.00379891
0.00380393
0.00380962
0.00381439
0.00382045
0.00382479
0.0038314
0.00383519
0.0038423
0.00384583
0.00385443
0.000432153
0.00055671
0.000749933
0.000990353
0.00122071
0.00142142
0.00158988
0.0017288
0.00184255
0.00193576
0.00201231
0.00207512
0.00212636
0.00216787
0.00220137
0.00222849
0.00225072
0.0022694
0.00228566
0.0023003
0.00231382
0.00232644
0.00233819
0.00234904
0.00235886
0.00236759
0.00237517
0.00238166
0.00238716
0.00239191
0.00239616
0.0024002
0.00240427
0.00240851
0.00241302
0.00241778
0.00242272
0.00242774
0.00243273
0.0024376
0.00244227
0.00244672
0.00245095
0.00245496
0.00245878
0.00246245
0.00246599
0.00246943
0.00247281
0.00247613
0.00247942
0.00248268
0.00248592
0.00248915
0.00249238
0.0024956
0.00249882
0.00250203
0.00250525
0.00250847
0.00251169
0.00251491
0.00251814
0.00252136
0.00252459
0.00252782
0.00253105
0.00253429
0.00253752
0.00254076
0.002544
0.00254725
0.00255049
0.00255374
0.00255699
0.00256024
0.0025635
0.00256675
0.00257001
0.00257327
0.00257653
0.0025798
0.00258307
0.00258633
0.0025896
0.00259288
0.00259615
0.00259943
0.00260271
0.00260599
0.00260927
0.00261255
0.00261584
0.00261912
0.00262241
0.0026257
0.00262899
0.00263228
0.00263558
0.00263887
0.00264217
0.00264547
0.00264877
0.00265207
0.00265537
0.00265867
0.00266198
0.00266528
0.00266859
0.0026719
0.00267521
0.00267852
0.00268183
0.00268515
0.00268847
0.00269179
0.00269511
0.00269843
0.00270176
0.00270509
0.00270842
0.00271175
0.00271508
0.00271842
0.00272176
0.00272511
0.00272846
0.00273181
0.00273516
0.00273852
0.00274188
0.00274524
0.00274861
0.00275198
0.00275536
0.00275874
0.00276213
0.00276552
0.00276891
0.00277231
0.00277571
0.00277912
0.00278253
0.00278595
0.00278937
0.0027928
0.00279624
0.00279968
0.00280312
0.00280657
0.00281003
0.00281349
0.00281695
0.00282043
0.00282391
0.0028274
0.00283088
0.00283439
0.00283788
0.00284141
0.00284491
0.00284845
0.00285196
0.00285553
0.00285903
0.00286265
0.00286612
0.0028698
0.00287322
0.002877
0.00288031
0.00288428
0.00288739
0.00289162
0.00289446
0.00289901
0.00290159
0.00290637
0.00290881
0.00291472
0.000107244
0.000133561
0.000176316
0.000242169
0.000336616
0.000447395
0.000567668
0.000691236
0.000812759
0.00092865
0.00103615
0.00113312
0.00121821
0.00129094
0.00135181
0.00140215
0.00144361
0.00147795
0.00150683
0.00153159
0.00155323
0.00157243
0.00158958
0.00160489
0.00161846
0.00163032
0.00164047
0.00164895
0.00165589
0.00166149
0.00166607
0.00166996
0.00167351
0.001677
0.00168062
0.00168446
0.00168852
0.00169274
0.00169702
0.00170126
0.00170538
0.00170933
0.00171307
0.00171662
0.00171997
0.00172316
0.00172621
0.00172914
0.00173199
0.00173477
0.0017375
0.0017402
0.00174287
0.00174552
0.00174815
0.00175078
0.00175339
0.00175601
0.00175862
0.00176122
0.00176382
0.00176642
0.00176902
0.00177161
0.0017742
0.00177679
0.00177937
0.00178196
0.00178454
0.00178711
0.00178969
0.00179226
0.00179483
0.00179739
0.00179995
0.00180251
0.00180507
0.00180762
0.00181017
0.00181271
0.00181525
0.00181779
0.00182033
0.00182286
0.00182539
0.00182791
0.00183043
0.00183295
0.00183546
0.00183797
0.00184048
0.00184298
0.00184547
0.00184797
0.00185046
0.00185294
0.00185542
0.0018579
0.00186037
0.00186284
0.00186531
0.00186777
0.00187022
0.00187267
0.00187512
0.00187757
0.00188001
0.00188244
0.00188487
0.0018873
0.00188972
0.00189214
0.00189455
0.00189697
0.00189937
0.00190178
0.00190417
0.00190657
0.00190896
0.00191135
0.00191374
0.00191612
0.00191849
0.00192087
0.00192324
0.00192561
0.00192797
0.00193034
0.00193269
0.00193505
0.0019374
0.00193975
0.0019421
0.00194445
0.00194679
0.00194913
0.00195147
0.0019538
0.00195614
0.00195847
0.0019608
0.00196313
0.00196545
0.00196777
0.00197009
0.00197241
0.00197473
0.00197705
0.00197936
0.00198167
0.00198398
0.00198629
0.0019886
0.00199091
0.00199321
0.00199552
0.00199781
0.00200013
0.00200241
0.00200474
0.002007
0.00200934
0.00201158
0.00201395
0.00201615
0.00201857
0.00202071
0.0020232
0.00202525
0.00202784
0.00202978
0.00203249
0.00203429
0.00203715
0.00203881
0.00204178
0.00204337
0.00204638
0.00204793
0.00205168
0.000104003
0.000126294
0.000161467
0.000217728
0.000301078
0.000405663
0.000523958
0.000649684
0.000776143
0.000898399
0.00101278
0.00111659
0.00120854
0.00128793
0.00135515
0.00141178
0.00145925
0.00149917
0.00153308
0.00156233
0.0015879
0.0016105
0.00163055
0.0016483
0.00166388
0.00167736
0.0016888
0.00169831
0.00170604
0.00171226
0.00171732
0.00172159
0.00172545
0.00172921
0.00173307
0.00173714
0.00174143
0.00174587
0.00175037
0.00175483
0.00175917
0.00176333
0.00176728
0.00177102
0.00177457
0.00177796
0.0017812
0.00178433
0.00178738
0.00179036
0.00179329
0.00179618
0.00179905
0.0018019
0.00180473
0.00180756
0.00181038
0.00181319
0.001816
0.00181881
0.00182161
0.00182441
0.00182721
0.00183
0.00183279
0.00183558
0.00183837
0.00184116
0.00184394
0.00184672
0.0018495
0.00185227
0.00185504
0.00185781
0.00186058
0.00186334
0.0018661
0.00186886
0.00187161
0.00187436
0.00187711
0.00187986
0.0018826
0.00188534
0.00188807
0.0018908
0.00189353
0.00189626
0.00189898
0.0019017
0.00190442
0.00190713
0.00190984
0.00191254
0.00191525
0.00191795
0.00192064
0.00192333
0.00192602
0.00192871
0.00193139
0.00193407
0.00193675
0.00193942
0.00194209
0.00194476
0.00194742
0.00195008
0.00195274
0.00195539
0.00195804
0.00196069
0.00196333
0.00196598
0.00196861
0.00197125
0.00197388
0.00197651
0.00197914
0.00198177
0.00198439
0.00198701
0.00198963
0.00199224
0.00199486
0.00199747
0.00200007
0.00200268
0.00200528
0.00200788
0.00201048
0.00201308
0.00201568
0.00201827
0.00202086
0.00202345
0.00202603
0.00202862
0.0020312
0.00203378
0.00203636
0.00203894
0.00204151
0.00204408
0.00204666
0.00204923
0.00205179
0.00205436
0.00205692
0.00205949
0.00206205
0.00206461
0.00206716
0.00206973
0.00207227
0.00207484
0.00207738
0.00207995
0.00208247
0.00208505
0.00208756
0.00209015
0.00209264
0.00209526
0.00209771
0.00210037
0.00210276
0.0021055
0.00210778
0.00211063
0.0021128
0.00211578
0.0021178
0.00212092
0.0021228
0.00212606
0.0021278
0.00213118
0.00213286
0.00213707
0.000424373
0.000541277
0.000721741
0.000950418
0.00117998
0.00138765
0.00156776
0.00172031
0.00184778
0.00195362
0.00204142
0.00211424
0.00217446
0.0022242
0.0022652
0.00229882
0.0023267
0.00235023
0.00237055
0.00238854
0.00240473
0.00241941
0.00243267
0.00244453
0.00245497
0.00246399
0.00247162
0.00247796
0.00248317
0.00248753
0.00249133
0.00249489
0.00249848
0.0025023
0.00250644
0.00251092
0.00251566
0.00252056
0.00252551
0.0025304
0.00253516
0.00253975
0.00254417
0.00254842
0.00255252
0.0025565
0.00256038
0.00256418
0.00256792
0.00257162
0.00257529
0.00257893
0.00258256
0.00258617
0.00258978
0.00259338
0.00259698
0.00260058
0.00260418
0.00260778
0.00261138
0.00261498
0.00261858
0.00262219
0.00262579
0.0026294
0.00263301
0.00263662
0.00264023
0.00264384
0.00264746
0.00265107
0.00265469
0.00265831
0.00266193
0.00266555
0.00266917
0.00267279
0.00267642
0.00268004
0.00268367
0.0026873
0.00269093
0.00269456
0.00269819
0.00270183
0.00270546
0.0027091
0.00271273
0.00271637
0.00272001
0.00272365
0.00272729
0.00273094
0.00273458
0.00273823
0.00274187
0.00274552
0.00274917
0.00275282
0.00275647
0.00276013
0.00276378
0.00276744
0.0027711
0.00277476
0.00277842
0.00278208
0.00278574
0.00278941
0.00279308
0.00279675
0.00280042
0.00280409
0.00280777
0.00281145
0.00281512
0.00281881
0.00282249
0.00282618
0.00282986
0.00283355
0.00283725
0.00284094
0.00284464
0.00284834
0.00285204
0.00285575
0.00285946
0.00286317
0.00286688
0.00287059
0.00287431
0.00287803
0.00288176
0.00288548
0.00288921
0.00289294
0.00289668
0.00290042
0.00290416
0.0029079
0.00291164
0.00291539
0.00291914
0.0029229
0.00292666
0.00293042
0.00293418
0.00293795
0.00294171
0.00294549
0.00294926
0.00295304
0.00295682
0.0029606
0.00296439
0.00296818
0.00297197
0.00297577
0.00297956
0.00298338
0.00298716
0.002991
0.00299477
0.00299865
0.00300238
0.00300632
0.00300998
0.00301403
0.00301757
0.00302179
0.00302513
0.0030296
0.00303268
0.00303744
0.00304022
0.0030453
0.00304788
0.00305428
0.00117878
0.00158656
0.00199204
0.00230529
0.0025216
0.00266642
0.00276484
0.0028344
0.00288605
0.0029264
0.00295935
0.00298716
0.00301104
0.00303177
0.00304985
0.00306579
0.00308008
0.00309315
0.00310531
0.00311676
0.00312757
0.00313774
0.0031472
0.00315588
0.00316374
0.00317076
0.00317699
0.00318253
0.00318755
0.00319226
0.00319689
0.0032016
0.00320651
0.00321166
0.00321703
0.00322257
0.00322819
0.00323382
0.0032394
0.00324489
0.00325028
0.00325557
0.00326075
0.00326584
0.00327086
0.00327582
0.00328074
0.00328563
0.00329049
0.00329534
0.00330018
0.00330502
0.00330985
0.00331469
0.00331954
0.00332438
0.00332924
0.0033341
0.00333897
0.00334384
0.00334872
0.00335361
0.00335851
0.00336341
0.00336832
0.00337323
0.00337816
0.00338309
0.00338802
0.00339297
0.00339792
0.00340287
0.00340783
0.0034128
0.00341778
0.00342275
0.00342774
0.00343273
0.00343773
0.00344273
0.00344774
0.00345275
0.00345777
0.00346279
0.00346782
0.00347285
0.00347789
0.00348293
0.00348797
0.00349303
0.00349808
0.00350314
0.0035082
0.00351327
0.00351834
0.00352341
0.00352849
0.00353357
0.00353866
0.00354374
0.00354884
0.00355393
0.00355903
0.00356413
0.00356924
0.00357434
0.00357945
0.00358457
0.00358969
0.00359481
0.00359993
0.00360506
0.00361019
0.00361532
0.00362045
0.00362559
0.00363073
0.00363588
0.00364103
0.00364618
0.00365133
0.00365649
0.00366164
0.00366681
0.00367197
0.00367714
0.00368231
0.00368748
0.00369266
0.00369784
0.00370302
0.00370821
0.0037134
0.00371859
0.00372378
0.00372898
0.00373418
0.00373938
0.00374459
0.00374979
0.00375501
0.00376022
0.00376543
0.00377065
0.00377587
0.00378109
0.00378632
0.00379155
0.00379678
0.00380201
0.00380724
0.00381248
0.00381772
0.00382296
0.00382821
0.00383345
0.0038387
0.00384395
0.0038492
0.00385446
0.00385971
0.00386497
0.00387022
0.0038755
0.00388074
0.00388605
0.00389125
0.00389661
0.00390175
0.00390721
0.00391222
0.00391788
0.00392262
0.00392863
0.00393294
0.00393945
0.00394323
0.00395026
0.00395374
0.00396239
0.00243261
0.0030821
0.00340886
0.00356507
0.00363441
0.00366575
0.00368029
0.00368845
0.00369437
0.00369974
0.00370524
0.00371109
0.00371727
0.00372372
0.0037303
0.00373706
0.00374397
0.00375102
0.00375817
0.00376539
0.00377264
0.00377988
0.00378706
0.00379415
0.00380116
0.00380806
0.00381489
0.00382172
0.00382859
0.00383557
0.0038427
0.00384997
0.00385735
0.00386479
0.00387226
0.00387971
0.00388711
0.00389446
0.00390176
0.00390902
0.00391625
0.00392345
0.00393063
0.0039378
0.00394497
0.00395213
0.00395929
0.00396645
0.00397362
0.00398079
0.00398798
0.00399517
0.00400237
0.00400958
0.0040168
0.00402402
0.00403126
0.0040385
0.00404575
0.004053
0.00406027
0.00406754
0.00407482
0.0040821
0.00408939
0.00409669
0.00410399
0.00411129
0.00411861
0.00412592
0.00413324
0.00414057
0.0041479
0.00415523
0.00416257
0.00416991
0.00417725
0.00418459
0.00419194
0.00419929
0.00420664
0.00421399
0.00422134
0.0042287
0.00423605
0.0042434
0.00425076
0.00425811
0.00426546
0.00427281
0.00428016
0.0042875
0.00429485
0.00430219
0.00430953
0.00431686
0.00432419
0.00433152
0.00433884
0.00434616
0.00435347
0.00436078
0.00436808
0.00437537
0.00438266
0.00438995
0.00439722
0.00440449
0.00441175
0.00441901
0.00442626
0.00443349
0.00444072
0.00444795
0.00445516
0.00446236
0.00446956
0.00447675
0.00448392
0.00449109
0.00449825
0.00450539
0.00451253
0.00451965
0.00452677
0.00453387
0.00454097
0.00454805
0.00455512
0.00456218
0.00456923
0.00457627
0.00458329
0.0045903
0.00459731
0.0046043
0.00461127
0.00461824
0.00462519
0.00463213
0.00463906
0.00464598
0.00465288
0.00465977
0.00466665
0.00467352
0.00468037
0.00468721
0.00469404
0.00470085
0.00470766
0.00471445
0.00472122
0.00472799
0.00473474
0.00474148
0.00474821
0.00475492
0.00476162
0.00476832
0.00477499
0.00478166
0.0047883
0.00479496
0.00480156
0.00480821
0.00481476
0.00482143
0.00482789
0.00483463
0.00484093
0.00484784
0.00485382
0.00486112
0.00486652
0.00487451
0.00487905
0.00488784
0.00489193
0.00490234
0.0036452
0.00416747
0.00432058
0.00435731
0.00435491
0.00434471
0.0043299
0.00431706
0.00430666
0.00429883
0.00429354
0.00429057
0.00428975
0.00429053
0.00429257
0.00429593
0.00430016
0.00430508
0.00431058
0.0043166
0.00432312
0.00433014
0.00433768
0.00434574
0.00435431
0.00436335
0.00437282
0.00438266
0.00439278
0.0044031
0.00441352
0.00442395
0.00443433
0.0044446
0.00445477
0.00446485
0.00447487
0.00448486
0.00449486
0.00450487
0.00451492
0.004525
0.00453512
0.00454527
0.00455544
0.00456564
0.00457586
0.00458609
0.00459633
0.00460658
0.00461683
0.00462709
0.00463735
0.00464761
0.00465787
0.00466813
0.00467838
0.00468864
0.00469889
0.00470913
0.00471937
0.00472961
0.00473984
0.00475007
0.00476029
0.00477051
0.00478072
0.00479092
0.00480112
0.00481131
0.00482149
0.00483166
0.00484183
0.00485199
0.00486214
0.00487228
0.00488242
0.00489254
0.00490266
0.00491277
0.00492287
0.00493296
0.00494304
0.00495312
0.00496319
0.00497324
0.00498329
0.00499333
0.00500337
0.00501339
0.00502341
0.00503341
0.00504341
0.0050534
0.00506338
0.00507335
0.00508331
0.00509326
0.00510321
0.00511314
0.00512306
0.00513298
0.00514288
0.00515277
0.00516265
0.00517252
0.00518238
0.00519222
0.00520205
0.00521187
0.00522167
0.00523146
0.00524123
0.00525098
0.00526072
0.00527044
0.00528013
0.00528981
0.00529947
0.00530911
0.00531872
0.00532831
0.00533787
0.00534741
0.00535693
0.00536641
0.00537587
0.00538529
0.00539469
0.00540405
0.00541338
0.00542267
0.00543193
0.00544116
0.00545035
0.0054595
0.00546861
0.00547768
0.00548671
0.0054957
0.00550465
0.00551356
0.00552242
0.00553124
0.00554001
0.00554873
0.00555742
0.00556605
0.00557464
0.00558318
0.00559167
0.00560011
0.0056085
0.00561685
0.00562514
0.00563339
0.00564158
0.00564972
0.00565782
0.00566586
0.00567385
0.0056818
0.00568968
0.00569753
0.00570529
0.00571306
0.0057207
0.0057284
0.00573588
0.00574356
0.00575081
0.00575858
0.00576544
0.00577353
0.00577968
0.00578849
0.00579349
0.00580339
0.00580747
0.00581882
0.00401838
0.00425821
0.00429261
0.00427489
0.0042459
0.00422209
0.00420159
0.00418424
0.00416976
0.00415825
0.00414966
0.00414375
0.00414024
0.00413883
0.00413908
0.00414077
0.00414381
0.00414779
0.00415263
0.00415825
0.00416461
0.00417172
0.00417956
0.00418815
0.00419745
0.00420738
0.00421785
0.00422873
0.00423987
0.00425113
0.00426238
0.00427353
0.00428453
0.00429538
0.0043061
0.00431673
0.00432732
0.0043379
0.00434851
0.00435917
0.00436989
0.00438067
0.0043915
0.00440237
0.00441328
0.00442422
0.00443519
0.00444616
0.00445715
0.00446814
0.00447914
0.00449013
0.00450113
0.00451212
0.00452311
0.00453409
0.00454507
0.00455605
0.00456702
0.00457798
0.00458893
0.00459987
0.00461079
0.00462171
0.0046326
0.00464348
0.00465434
0.00466518
0.00467599
0.00468678
0.00469754
0.00470826
0.00471896
0.00472962
0.00474024
0.00475082
0.00476136
0.00477185
0.0047823
0.00479271
0.00480307
0.00481338
0.00482365
0.00483387
0.00484404
0.00485417
0.00486425
0.00487428
0.00488428
0.00489423
0.00490414
0.00491402
0.00492386
0.00493368
0.00494347
0.00495323
0.00496298
0.00497271
0.00498243
0.00499214
0.00500185
0.00501156
0.00502128
0.00503101
0.00504076
0.00505053
0.00506032
0.00507014
0.00507999
0.00508987
0.0050998
0.00510977
0.00511978
0.00512985
0.00513996
0.00515013
0.00516035
0.00517063
0.00518096
0.00519135
0.0052018
0.0052123
0.00522286
0.00523348
0.00524415
0.00525487
0.00526564
0.00527645
0.00528731
0.00529821
0.00530914
0.00532011
0.0053311
0.00534212
0.00535316
0.00536421
0.00537527
0.00538633
0.00539739
0.00540843
0.00541947
0.00543048
0.00544147
0.00545242
0.00546334
0.0054742
0.00548502
0.00549578
0.00550648
0.0055171
0.00552765
0.00553812
0.0055485
0.00555879
0.00556897
0.00557906
0.00558903
0.00559889
0.00560862
0.00561824
0.00562772
0.00563707
0.00564627
0.00565535
0.00566425
0.00567305
0.00568163
0.00569014
0.00569836
0.00570661
0.0057144
0.00572246
0.0057297
0.00573774
0.00574414
0.00575252
0.00575761
0.00576687
0.00577026
0.00578088
)
;

boundaryField
{
    upperWall
    {
        type            zeroGradient;
    }
    lowerWall
    {
        type            zeroGradient;
    }
    heatedWall
    {