/*--------------------------------*- C++ -*----------------------------------*\
  =========                 |
  \\      /  F ield         | OpenFOAM: The Open Source CFD Toolbox
   \\    /   O peration     | Website:  https://openfoam.org
    \\  /    A nd           | Version:  7
     \\/     M anipulation  |
\*---------------------------------------------------------------------------*/
FoamFile
{
    version     2.0;
    format      ascii;
    class       volVectorField;
    location    "1.795";
    object      U_0;
}
// * * * * * * * * * * * * * * * * * * * * * * * * * * * * * * * * * * * * * //

dimensions      [0 1 -1 0 0 0 0];

internalField   nonuniform List<vector> 
7920
(
(2.92854 0.101123 -32.368)
(2.1021 -0.462797 -32.4125)
(1.38932 -0.617143 -32.4032)
(1.28007 -0.673125 -32.4115)
(1.04535 -0.689712 -32.3967)
(1.07052 -0.694473 -32.4021)
(0.929399 -0.69845 -32.3943)
(0.974033 -0.698637 -32.4034)
(0.86852 -0.700979 -32.4007)
(0.912767 -0.700753 -32.408)
(0.828717 -0.702312 -32.4049)
(0.8687 -0.701806 -32.4093)
(0.800135 -0.702755 -32.4076)
(0.835197 -0.702179 -32.4106)
(0.778542 -0.702549 -32.4112)
(0.808668 -0.702621 -32.4104)
(0.760582 -0.698687 -32.4157)
(0.781193 -0.705116 -32.4063)
(0.746327 -0.646726 -32.4255)
(0.573575 -0.659449 -32.3892)
(4.41023 0.967328 -32.4293)
(4.33022 0.872792 -32.4711)
(3.67598 0.818433 -32.4682)
(3.52634 0.751276 -32.4767)
(3.12529 0.723482 -32.4677)
(3.11833 0.71 -32.4694)
(2.85464 0.703406 -32.4629)
(2.89524 0.699954 -32.4667)
(2.69834 0.697861 -32.4654)
(2.74922 0.696194 -32.4698)
(2.59289 0.695112 -32.4692)
(2.64311 0.693946 -32.4719)
(2.51558 0.693238 -32.4723)
(2.56195 0.692286 -32.4737)
(2.45606 0.691646 -32.4764)
(2.4993 0.691711 -32.4745)
(2.40489 0.688519 -32.4822)
(2.46421 0.693288 -32.4711)
(2.34314 0.683836 -32.4935)
(2.61689 0.675265 -32.4438)
(4.75098 0.19275 -32.4367)
(5.25546 -0.22944 -32.4738)
(5.10921 -0.37535 -32.4653)
(5.21889 -0.49379 -32.476)
(4.97253 -0.55862 -32.4675)
(5.02047 -0.595238 -32.4722)
(4.80438 -0.619643 -32.4631)
(4.84514 -0.633493 -32.4659)
(4.66709 -0.644092 -32.4594)
(4.70579 -0.650805 -32.4626)
(4.5593 -0.656291 -32.459)
(4.59537 -0.660342 -32.4621)
(4.47399 -0.663503 -32.4612)
(4.50646 -0.666212 -32.4638)
(4.4061 -0.668383 -32.4662)
(4.43154 -0.669307 -32.4667)
(4.3553 -0.672631 -32.4737)
(4.35404 -0.668569 -32.4683)
(4.32616 -0.669345 -32.4838)
(4.22902 -0.691414 -32.4508)
(4.75195 0.64924 -32.447)
(5.28156 0.749594 -32.4822)
(5.3807 0.796793 -32.4743)
(5.68413 0.766974 -32.4833)
(5.62378 0.748929 -32.477)
(5.79377 0.73448 -32.4814)
(5.69841 0.724101 -32.4745)
(5.8091 0.716127 -32.476)
(5.71286 0.710099 -32.4698)
(5.79231 0.704578 -32.4701)
(5.70403 0.700663 -32.4655)
(5.76467 0.696539 -32.4655)
(5.68587 0.694038 -32.4637)
(5.73504 0.690609 -32.4645)
(5.66367 0.689738 -32.4661)
(5.70912 0.685816 -32.4671)
(5.63723 0.688793 -32.4718)
(5.69749 0.681466 -32.4716)
(5.60629 0.696356 -32.4795)
(5.7478 0.705911 -32.4562)
(4.74407 -0.0883633 -32.4461)
(5.24529 -0.387376 -32.4811)
(5.4017 -0.47995 -32.4705)
(5.76077 -0.545724 -32.4802)
(5.76999 -0.581462 -32.4721)
(6.00036 -0.601423 -32.4776)
(5.97183 -0.615668 -32.4696)
(6.13535 -0.623674 -32.4724)
(6.09836 -0.630602 -32.4651)
(6.22151 -0.635035 -32.466)
(6.18374 -0.639281 -32.4594)
(6.27935 -0.642358 -32.4595)
(6.24324 -0.645508 -32.4549)
(6.31895 -0.647394 -32.4559)
(6.28592 -0.651051 -32.4543)
(6.34524 -0.649555 -32.4568)
(6.31982 -0.658891 -32.458)
(6.3568 -0.647686 -32.4614)
(6.35172 -0.671282 -32.4647)
(6.34992 -0.69383 -32.4462)
(4.73152 0.352112 -32.4497)
(5.18852 0.557253 -32.4854)
(5.35494 0.635614 -32.4747)
(5.72948 0.655671 -32.4846)
(5.76259 0.66575 -32.476)
(6.01679 0.668957 -32.4817)
(6.0151 0.671047 -32.4735)
(6.20323 0.671159 -32.4765)
(6.1936 0.671497 -32.4691)
(6.34028 0.670807 -32.4702)
(6.3286 0.670722 -32.4632)
(6.44564 0.669891 -32.4632)
(6.43311 0.669954 -32.4577)
(6.52803 0.668725 -32.4584)
(6.51483 0.670115 -32.4557)
(6.59319 0.666524 -32.4582)
(6.58007 0.673924 -32.4581)
(6.64593 0.6629 -32.4621)
(6.63697 0.686539 -32.4642)
(6.70095 0.708653 -32.4452)
(4.73153 -0.352112 -32.4497)
(5.18852 -0.557252 -32.4854)
(5.35494 -0.635614 -32.4747)
(5.72948 -0.65567 -32.4846)
(5.76259 -0.66575 -32.476)
(6.01679 -0.668955 -32.4817)
(6.01511 -0.671047 -32.4735)
(6.20323 -0.671155 -32.4765)
(6.1936 -0.671493 -32.4691)
(6.34028 -0.670797 -32.4702)
(6.32861 -0.670708 -32.4632)
(6.44563 -0.669866 -32.4633)
(6.43314 -0.669914 -32.4577)
(6.528 -0.668634 -32.4585)
(6.51494 -0.670041 -32.4557)
(6.59312 -0.666186 -32.4583)
(6.58031 -0.673819 -32.4581)
(6.64579 -0.661899 -32.4621)
(6.6373 -0.686067 -32.4642)
(6.70082 -0.706831 -32.4451)
(4.74407 0.0883633 -32.4461)
(5.24529 0.387376 -32.4811)
(5.4017 0.47995 -32.4705)
(5.76077 0.545725 -32.4802)
(5.76998 0.581463 -32.4721)
(6.00037 0.601425 -32.4777)
(5.97183 0.615669 -32.4696)
(6.13536 0.623677 -32.4724)
(6.09835 0.630607 -32.465)
(6.22153 0.635042 -32.466)
(6.18372 0.639298 -32.4593)
(6.2794 0.642377 -32.4596)
(6.24319 0.645553 -32.4547)
(6.31908 0.647467 -32.4561)
(6.28586 0.651135 -32.454)
(6.34553 0.649858 -32.4572)
(6.31986 0.659002 -32.4575)
(6.35746 0.648664 -32.4619)
(6.35233 0.671693 -32.4642)
(6.35157 0.695792 -32.4467)
(4.75195 -0.64924 -32.447)
(5.28156 -0.749594 -32.4822)
(5.3807 -0.796793 -32.4743)
(5.68413 -0.766973 -32.4833)
(5.62378 -0.748929 -32.477)
(5.79377 -0.734478 -32.4814)
(5.69841 -0.724101 -32.4744)
(5.80911 -0.716123 -32.4761)
(5.71286 -0.710098 -32.4697)
(5.79233 -0.704567 -32.4702)
(5.70403 -0.700655 -32.4653)
(5.76472 -0.696511 -32.4658)
(5.68589 -0.694014 -32.4633)
(5.73517 -0.690519 -32.4651)
(5.66379 -0.689701 -32.4652)
(5.70939 -0.685507 -32.4683)
(5.63772 -0.688775 -32.4701)
(5.69801 -0.680603 -32.4739)
(5.60769 -0.696107 -32.4766)
(5.74912 -0.704474 -32.4598)
(4.75098 -0.19275 -32.4367)
(5.25546 0.22944 -32.4738)
(5.10921 0.37535 -32.4653)
(5.21889 0.49379 -32.4761)
(4.97253 0.55862 -32.4675)
(5.02047 0.595238 -32.4722)
(4.80437 0.619645 -32.4631)
(4.84515 0.633494 -32.466)
(4.66708 0.644097 -32.4593)
(4.70583 0.650806 -32.4627)
(4.55928 0.656306 -32.4587)
(4.59548 0.660343 -32.4625)
(4.47396 0.663542 -32.4606)
(4.50674 0.666232 -32.4649)
(4.40608 0.668455 -32.4647)
(4.43223 0.669448 -32.4691)
(4.35558 0.67272 -32.4699)
(4.35561 0.669148 -32.4741)
(4.32767 0.669571 -32.475)
(4.23341 0.692518 -32.4636)
(4.41023 -0.967328 -32.4293)
(4.33022 -0.872792 -32.4711)
(3.67598 -0.818433 -32.4682)
(3.52634 -0.751275 -32.4768)
(3.12529 -0.723482 -32.4677)
(3.11834 -0.709999 -32.4694)
(2.85464 -0.703407 -32.4628)
(2.89525 -0.699951 -32.4668)
(2.69835 -0.697862 -32.4652)
(2.74924 -0.696187 -32.47)
(2.5929 -0.695113 -32.4689)
(2.64317 -0.693928 -32.4724)
(2.51561 -0.693237 -32.4716)
(2.56214 -0.692229 -32.4748)
(2.45622 -0.691656 -32.4747)
(2.49972 -0.691524 -32.4774)
(2.40559 -0.688608 -32.4773)
(2.46486 -0.692807 -32.4795)
(2.34551 -0.684091 -32.4787)
(2.6175 -0.675343 -32.4702)
(2.92854 -0.101123 -32.368)
(2.1021 0.462797 -32.4125)
(1.38932 0.617143 -32.4032)
(1.28007 0.673125 -32.4115)
(1.04535 0.689713 -32.3967)
(1.07053 0.694472 -32.4021)
(0.929399 0.698451 -32.3943)
(0.974038 0.698635 -32.4034)
(0.868521 0.700982 -32.4006)
(0.91278 0.700748 -32.4082)
(0.828719 0.702319 -32.4047)
(0.868741 0.701792 -32.4097)
(0.800139 0.70277 -32.4071)
(0.835313 0.70214 -32.4115)
(0.778578 0.702587 -32.4097)
(0.808935 0.702519 -32.413)
(0.760837 0.698812 -32.4113)
(0.781732 0.70495 -32.4138)
(0.747457 0.647293 -32.412)
(0.575677 0.660136 -32.4133)
(4.32448 0.56583 0.00687899)
(3.07731 0.847717 0.00441243)
(2.31194 0.869548 0.00568505)
(1.74315 0.852724 0.00420823)
(1.60397 0.8552 0.00535167)
(1.39886 0.866876 0.00418293)
(1.39149 0.876667 0.00513785)
(1.26847 0.884732 0.00415893)
(1.27467 0.888989 0.00494145)
(1.18714 0.892727 0.00411502)
(1.19414 0.894468 0.00475616)
(1.12984 0.89654 0.00406207)
(1.1353 0.897303 0.00458932)
(1.08605 0.898802 0.00400862)
(1.09029 0.898675 0.00444136)
(1.04911 0.901085 0.00395485)
(1.05502 0.893669 0.00431119)
(1.03072 0.915189 0.0038981)
(0.986213 0.791372 0.00422467)
(1.42597 0.818952 0.00378811)
(4.75797 -0.100145 0.00430227)
(4.60959 -0.27731 0.00227105)
(4.52234 -0.477397 0.00357496)
(4.13823 -0.643412 0.00213327)
(3.99402 -0.739735 0.00328624)
(3.71357 -0.794968 0.00212386)
(3.63767 -0.822324 0.00308213)
(3.44833 -0.839365 0.00210498)
(3.40658 -0.849574 0.00288922)
(3.27183 -0.857391 0.00206491)
(3.24456 -0.862721 0.00270798)
(3.14429 -0.867219 0.00201549)
(3.12359 -0.870139 0.00254368)
(3.0454 -0.873414 0.00196393)
(3.02966 -0.874139 0.00239656)
(2.9619 -0.87857 0.00191194)
(2.96006 -0.875512 0.00226236)
(2.87291 -0.882639 0.00185945)
(2.94642 -0.885936 0.00211515)
(2.54064 -0.895171 0.00173711)
(4.63668 0.435124 0.0056006)
(4.82387 0.871318 0.00364558)
(5.13793 0.969477 0.00483108)
(5.07643 0.960225 0.00334906)
(5.13644 0.941855 0.00447644)
(4.99876 0.928573 0.00330151)
(5.00283 0.919139 0.0042542)
(4.88166 0.913355 0.00327315)
(4.87419 0.906973 0.00405519)
(4.77587 0.903448 0.00322855)
(4.76361 0.898924 0.00387004)
(4.68439 0.896829 0.00317612)
(4.6696 0.893859 0.00370311)
(4.60594 0.892427 0.00312233)
(4.58813 0.890908 0.00355478)
(4.54089 0.888872 0.00306867)
(4.50998 0.887713 0.00342507)
(4.50319 0.887547 0.00301225)
(4.42065 0.849055 0.00333702)
(4.53814 0.888307 0.00292621)
(4.57488 -0.201749 0.00442191)
(4.69748 -0.398317 0.00268647)
(5.12672 -0.518977 0.00387675)
(5.225 -0.623685 0.00242384)
(5.44039 -0.691401 0.0035531)
(5.43927 -0.738494 0.00238264)
(5.54888 -0.76502 0.00333866)
(5.52109 -0.784328 0.00236088)
(5.58347 -0.796889 0.0031459)
(5.55046 -0.807439 0.00232201)
(5.58676 -0.81525 0.00296531)
(5.55464 -0.822075 0.00227338)
(5.57545 -0.827414 0.00280125)
(5.54586 -0.832107 0.00222207)
(5.55774 -0.836158 0.00265415)
(5.52876 -0.838789 0.00217034)
(5.53959 -0.846159 0.00251973)
(5.49423 -0.840479 0.0021167)
(5.53197 -0.876026 0.00237028)
(5.33569 -0.897966 0.00202028)
(4.58795 0.341372 0.00507522)
(4.69345 0.688387 0.00337921)
(5.10261 0.803281 0.00452201)
(5.22168 0.844769 0.00305504)
(5.47731 0.861646 0.0041715)
(5.52528 0.871273 0.00299435)
(5.68581 0.874918 0.00394717)
(5.71057 0.877438 0.00296719)
(5.82161 0.876741 0.00375129)
(5.83666 0.876938 0.00292626)
(5.91537 0.875331 0.003569)
(5.92463 0.875006 0.00287617)
(5.98091 0.873637 0.00340348)
(5.98709 0.872887 0.00282351)
(6.02632 0.872761 0.00325546)
(6.03342 0.869821 0.00277047)
(6.05394 0.874173 0.00312432)
(6.07026 0.865688 0.00271467)
(6.06843 0.870064 0.00302033)
(6.06561 0.915797 0.00264442)
(4.58191 -0.269068 0.00470436)
(4.66529 -0.539398 0.00307279)
(5.06934 -0.65382 0.00421487)
(5.18978 -0.72462 0.00275501)
(5.4569 -0.764989 0.00386974)
(5.52001 -0.792555 0.00269259)
(5.69852 -0.807077 0.00364537)
(5.74261 -0.817786 0.00266568)
(5.87367 -0.82354 0.00345027)
(5.90942 -0.828923 0.00262584)
(6.00847 -0.832119 0.00326903)
(6.03786 -0.835512 0.00257677)
(6.11374 -0.837841 0.00310433)
(6.13777 -0.839829 0.00252486)
(6.19653 -0.842669 0.00295653)
(6.21549 -0.841579 0.0024724)
(6.26178 -0.850574 0.00282302)
(6.26758 -0.839793 0.00241728)
(6.31678 -0.870713 0.00269368)
(6.22943 -0.905692 0.00234196)
(4.58191 0.269067 0.00470436)
(4.66529 0.539398 0.00307279)
(5.06934 0.65382 0.00421487)
(5.18978 0.724621 0.00275501)
(5.4569 0.764988 0.00386974)
(5.52001 0.792557 0.00269259)
(5.69852 0.807077 0.00364537)
(5.74262 0.81779 0.00266568)
(5.87366 0.823544 0.00345028)
(5.90943 0.828934 0.00262583)
(6.00845 0.832132 0.00326905)
(6.03789 0.835547 0.00257674)
(6.1137 0.837875 0.00310437)
(6.13785 0.839944 0.00252476)
(6.19644 0.842757 0.00295664)
(6.2157 0.841911 0.00247214)
(6.26164 0.85087 0.00282336)
(6.26823 0.84062 0.0024167)
(6.31703 0.871735 0.00269489)
(6.23048 0.907683 0.00234115)
(4.58795 -0.341372 0.00507522)
(4.69345 -0.688387 0.00337921)
(5.10261 -0.803281 0.00452201)
(5.22168 -0.844768 0.00305504)
(5.47731 -0.861646 0.00417149)
(5.52528 -0.871271 0.00299435)
(5.68581 -0.874918 0.00394716)
(5.71057 -0.877433 0.00296719)
(5.82161 -0.876738 0.00375128)
(5.83666 -0.876925 0.00292628)
(5.91538 -0.875322 0.00356898)
(5.92464 -0.874966 0.00287621)
(5.98095 -0.873615 0.00340342)
(5.9871 -0.872761 0.00282362)
(6.02647 -0.872707 0.00325531)
(6.0334 -0.869477 0.00277074)
(6.05437 -0.87398 0.00312388)
(6.0701 -0.864974 0.00271517)
(6.06922 -0.86929 0.00301911)
(6.06575 -0.914039 0.00264471)
(4.57488 0.201749 0.00442191)
(4.69748 0.398317 0.00268647)
(5.12672 0.518977 0.00387674)
(5.225 0.623685 0.00242384)
(5.44039 0.691401 0.0035531)
(5.43927 0.738495 0.00238264)
(5.54888 0.765021 0.00333866)
(5.5211 0.78433 0.00236088)
(5.58346 0.796894 0.0031459)
(5.55049 0.807445 0.00232201)
(5.58674 0.815265 0.00296531)
(5.55472 0.822098 0.00227337)
(5.57542 0.827453 0.00280126)
(5.54605 0.832184 0.00222202)
(5.55773 0.836256 0.00265418)
(5.52926 0.839031 0.00217022)
(5.53976 0.846479 0.0025199)
(5.49559 0.841181 0.00211633)
(5.53306 0.877107 0.00237138)
(5.3391 0.899701 0.00201944)
(4.63668 -0.435124 0.0056006)
(4.82387 -0.871318 0.00364558)
(5.13793 -0.969478 0.00483107)
(5.07643 -0.960224 0.00334907)
(5.13644 -0.941856 0.00447644)
(4.99876 -0.928571 0.00330152)
(5.00283 -0.919139 0.00425419)
(4.88167 -0.91335 0.00327316)
(4.87418 -0.906973 0.00405516)
(4.77589 -0.903436 0.00322858)
(4.76361 -0.898923 0.00386999)
(4.68447 -0.896792 0.00317619)
(4.66963 -0.893858 0.00370299)
(4.60612 -0.892318 0.00312252)
(4.5883 -0.890915 0.00355448)
(4.54129 -0.888588 0.00306911)
(4.51061 -0.887711 0.00342432)
(4.50408 -0.887081 0.00301308)
(4.42228 -0.848808 0.00333529)
(4.5406 -0.887711 0.00292675)
(4.75797 0.100145 0.00430227)
(4.60959 0.27731 0.00227105)
(4.52233 0.477397 0.00357496)
(4.13823 0.643412 0.00213327)
(3.99402 0.739736 0.00328624)
(3.71358 0.794968 0.00212386)
(3.63767 0.822326 0.00308212)
(3.44835 0.839364 0.00210498)
(3.40657 0.849579 0.00288921)
(3.27187 0.857389 0.00206492)
(3.24455 0.862735 0.00270796)
(3.14441 0.867215 0.00201551)
(3.12359 0.870172 0.00254364)
(3.0457 0.873409 0.00196397)
(3.02973 0.874226 0.00239646)
(2.96265 0.878574 0.00191205)
(2.96038 0.875779 0.00226216)
(2.87515 0.882806 0.00185962)
(2.94711 0.886854 0.00211529)
(2.54887 0.89655 0.00173728)
(4.32448 -0.56583 0.00687899)
(3.07731 -0.847717 0.00441243)
(2.31194 -0.869548 0.00568505)
(1.74315 -0.852723 0.00420823)
(1.60397 -0.855201 0.00535167)
(1.39886 -0.866875 0.00418294)
(1.3915 -0.876668 0.00513784)
(1.26847 -0.88473 0.00415894)
(1.27467 -0.888992 0.00494142)
(1.18716 -0.89272 0.00411506)
(1.19416 -0.894475 0.00475609)
(1.12989 -0.89652 0.00406217)
(1.13535 -0.897325 0.00458916)
(1.08617 -0.898743 0.00400888)
(1.09048 -0.898741 0.00444091)
(1.04937 -0.900932 0.00395556)
(1.0556 -0.893889 0.00430995)
(1.03134 -0.914987 0.00389996)
(0.987577 -0.792493 0.00422089)
(1.42714 -0.820284 0.00379327)
(4.37787 0.097087 0.00135169)
(3.96479 0.149009 0.00189536)
(3.42795 0.162991 0.000941556)
(2.94844 0.156774 0.00148442)
(2.53405 0.145185 0.00096099)
(2.22796 0.136606 0.00137713)
(2.00169 0.131622 0.00103328)
(1.8471 0.131228 0.00129628)
(1.74256 0.133562 0.0010647)
(1.66666 0.138006 0.00121897)
(1.61859 0.143009 0.00107489)
(1.57513 0.148396 0.0011571)
(1.5504 0.153001 0.00108233)
(1.52044 0.157872 0.00111546)
(1.50458 0.160632 0.00109434)
(1.48391 0.165966 0.00109028)
(1.4652 0.164357 0.00111551)
(1.46642 0.174619 0.00107596)
(1.41797 0.160147 0.00112995)
(1.49018 0.166324 0.00114469)
(4.5404 0.0878058 0.00314325)
(4.67528 0.119445 0.00386617)
(4.71594 0.120877 0.00290598)
(4.70238 0.0946096 0.00342436)
(4.623 0.0563989 0.00287646)
(4.52493 0.0139196 0.00327866)
(4.41504 -0.0240943 0.00292534)
(4.30743 -0.0567428 0.0031838)
(4.20948 -0.0816283 0.00294888)
(4.11544 -0.101452 0.00310245)
(4.03652 -0.115879 0.00295791)
(3.95812 -0.127539 0.00304047)
(3.89588 -0.136055 0.00296562)
(3.83101 -0.143283 0.00299876)
(3.78224 -0.148733 0.00297838)
(3.72898 -0.153157 0.00297346)
(3.68978 -0.157805 0.00300269)
(3.6494 -0.159421 0.00295719)
(3.61133 -0.165371 0.00305407)
(3.59059 -0.172133 0.00305759)
(4.51573 0.0457404 0.00170871)
(4.6533 0.110462 0.00231571)
(4.78385 0.162927 0.00138717)
(4.93034 0.191432 0.00190936)
(5.03609 0.201745 0.00136822)
(5.11815 0.202616 0.00177781)
(5.16674 0.199347 0.00143336)
(5.1935 0.196304 0.00169722)
(5.20536 0.194407 0.00146756)
(5.20333 0.193967 0.00162284)
(5.19827 0.194355 0.00148068)
(5.18427 0.195263 0.00156344)
(5.17187 0.195963 0.00148953)
(5.15445 0.197166 0.00152279)
(5.13773 0.196613 0.00150186)
(5.12257 0.199341 0.00149903)
(5.10021 0.194038 0.00152099)
(5.09377 0.204079 0.00149149)
(5.0602 0.184099 0.00151804)
(5.06869 0.207156 0.00155192)
(4.51178 0.044171 0.00272684)
(4.61886 0.0508896 0.00344389)
(4.74147 0.0466585 0.00254017)
(4.89915 0.0291522 0.00306781)
(5.0371 0.00691725 0.00251237)
(5.1674 -0.018261 0.00291024)
(5.27227 -0.0421061 0.00255486)
(5.35947 -0.0636603 0.00281373)
(5.43148 -0.0813008 0.00257959)
(5.48875 -0.0958953 0.00273322)
(5.54036 -0.107412 0.00258878)
(5.5807 -0.116731 0.00267075)
(5.62023 -0.124491 0.00259549)
(5.65084 -0.130374 0.00262821)
(5.68234 -0.136514 0.00260692)
(5.70639 -0.139333 0.00260339)
(5.73313 -0.146372 0.00262934)
(5.74927 -0.144923 0.00259603)
(5.77755 -0.155011 0.00268398)
(5.77376 -0.153843 0.00268825)
(4.51289 0.0165841 0.0020265)
(4.62003 0.0556861 0.00269786)
(4.73565 0.0914676 0.00180375)
(4.88729 0.117163 0.00232242)
(5.02302 0.133489 0.00176494)
(5.1571 0.144578 0.00216307)
(5.27058 0.152316 0.00181057)
(5.37081 0.159006 0.00207172)
(5.45877 0.164846 0.00184042)
(5.53448 0.170389 0.00199542)
(5.60633 0.175213 0.00185281)
(5.66813 0.179632 0.00193539)
(5.73064 0.183005 0.00186114)
(5.78402 0.186451 0.00189414)
(5.84072 0.187843 0.00187295)
(5.88656 0.191785 0.00187039)
(5.94227 0.188953 0.00189179)
(5.97371 0.198306 0.00186702)
(6.04317 0.184349 0.00190287)
(6.03719 0.208966 0.00193526)
(4.51163 0.0119272 0.0023594)
(4.61219 -0.00400739 0.00306003)
(4.72639 -0.0234184 0.00217371)
(4.87632 -0.0448871 0.00269834)
(5.01119 -0.0639928 0.00213937)
(5.14515 -0.0818011 0.00253577)
(5.25973 -0.0972955 0.00218072)
(5.3622 -0.111036 0.00244081)
(5.45372 -0.12251 0.00220841)
(5.53376 -0.132242 0.0023631)
(5.61138 -0.140228 0.00221998)
(5.679 -0.146765 0.00230241)
(5.74944 -0.152275 0.00222788)
(5.80922 -0.156509 0.00226066)
(5.8765 -0.160476 0.00223953)
(5.92761 -0.163106 0.00223654)
(5.99823 -0.165923 0.00226015)
(6.03044 -0.168477 0.00223357)
(6.12268 -0.167881 0.00229817)
(6.10833 -0.177601 0.00231297)
(4.51163 -0.0119274 0.0023594)
(4.61219 0.0040079 0.00306003)
(4.72639 0.0234179 0.00217371)
(4.87632 0.0448883 0.00269835)
(5.01119 0.0639922 0.00213937)
(5.14515 0.0818037 0.00253578)
(5.25972 0.0972955 0.00218072)
(5.3622 0.111042 0.00244082)
(5.45372 0.122513 0.0022084)
(5.53376 0.132257 0.00236312)
(5.61138 0.140238 0.00221996)
(5.67901 0.146807 0.00230244)
(5.74943 0.152298 0.00222784)
(5.80923 0.156633 0.00226075)
(5.8765 0.16053 0.00223941)
(5.92764 0.163446 0.00223676)
(5.99826 0.166098 0.00225972)
(6.03051 0.169272 0.00223394)
(6.12281 0.168604 0.00229621)
(6.10857 0.179165 0.00231359)
(4.51289 -0.0165843 0.0020265)
(4.62003 -0.0556855 0.00269786)
(4.73565 -0.0914681 0.00180375)
(4.88729 -0.117162 0.00232242)
(5.02302 -0.13349 0.00176494)
(5.1571 -0.144576 0.00216307)
(5.27058 -0.152316 0.00181057)
(5.37081 -0.159 0.00207171)
(5.45877 -0.164843 0.00184043)
(5.53448 -0.170374 0.00199541)
(5.60634 -0.175204 0.00185283)
(5.66813 -0.17959 0.00193536)
(5.73066 -0.182983 0.00186118)
(5.78402 -0.186327 0.00189406)
(5.8408 -0.187794 0.00187306)
(5.88657 -0.191449 0.00187017)
(5.94247 -0.188792 0.00189217)
(5.97378 -0.197537 0.00186661)
(6.04361 -0.18368 0.00190453)
(6.03754 -0.207519 0.00193465)
(4.51178 -0.0441712 0.00272684)
(4.61886 -0.0508892 0.00344389)
(4.74147 -0.0466589 0.00254017)
(4.89915 -0.0291512 0.00306782)
(5.0371 -0.00691776 0.00251237)
(5.1674 0.0182634 0.00291024)
(5.27227 0.0421062 0.00255486)
(5.35948 0.0636655 0.00281374)
(5.43148 0.0813037 0.00257958)
(5.48876 0.0959081 0.00273324)
(5.54035 0.107422 0.00258875)
(5.58074 0.116767 0.00267079)
(5.62023 0.124514 0.00259543)
(5.65092 0.130484 0.00262829)
(5.6824 0.136564 0.00260677)
(5.70656 0.139643 0.00260357)
(5.73341 0.146523 0.00262887)
(5.74968 0.145661 0.00259635)
(5.77848 0.155644 0.00268209)
(5.77495 0.155316 0.00268854)
(4.51573 -0.0457405 0.00170871)
(4.6533 -0.110462 0.00231571)
(4.78385 -0.162927 0.00138717)
(4.93035 -0.191431 0.00190936)
(5.03609 -0.201745 0.00136821)
(5.11816 -0.202614 0.00177782)
(5.16673 -0.199348 0.00143336)
(5.19351 -0.196298 0.00169722)
(5.20534 -0.194406 0.00146756)
(5.20337 -0.193953 0.00162285)
(5.19825 -0.19435 0.00148067)
(5.18436 -0.195226 0.00156344)
(5.17186 -0.195952 0.00148953)
(5.15465 -0.19706 0.00152277)
(5.1378 -0.19659 0.00150189)
(5.12298 -0.199061 0.00149893)
(5.10063 -0.193954 0.00152116)
(5.09465 -0.203468 0.00149127)
(5.06162 -0.183678 0.0015189)
(5.07086 -0.206196 0.00155169)
(4.5404 -0.0878058 0.00314325)
(4.67528 -0.119445 0.00386617)
(4.71594 -0.120877 0.00290597)
(4.70238 -0.0946093 0.00342437)
(4.62299 -0.0563988 0.00287645)
(4.52494 -0.0139188 0.00327868)
(4.41503 0.0240953 0.00292532)
(4.30746 0.0567447 0.00318383)
(4.20946 0.0816321 0.00294884)
(4.1155 0.101456 0.00310251)
(4.03649 0.115888 0.00295782)
(3.95828 0.127555 0.00304061)
(3.89583 0.136074 0.00296541)
(3.83139 0.143336 0.00299907)
(3.78224 0.148767 0.00297789)
(3.72983 0.153312 0.00297416)
(3.69006 0.157893 0.00300151)
(3.65133 0.159799 0.00295868)
(3.6125 0.165743 0.00305089)
(3.59528 0.172869 0.00306054)
(4.37787 -0.097087 0.00135169)
(3.96479 -0.149009 0.00189536)
(3.42795 -0.162991 0.000941555)
(2.94845 -0.156773 0.00148442)
(2.53405 -0.145185 0.000960989)
(2.22797 -0.136605 0.00137713)
(2.00169 -0.131622 0.00103328)
(1.84712 -0.131227 0.00129629)
(1.74256 -0.133562 0.00106469)
(1.6667 -0.138003 0.00121899)
(1.6186 -0.143009 0.00107487)
(1.57524 -0.148387 0.00115713)
(1.55044 -0.153004 0.00108228)
(1.52071 -0.157845 0.00111553)
(1.50475 -0.160649 0.00109421)
(1.48451 -0.165891 0.00109048)
(1.46574 -0.164406 0.00111509)
(1.46792 -0.174466 0.00107654)
(1.41913 -0.160245 0.00112865)
(1.49482 -0.16646 0.00114667)
(4.37787 0.097087 -0.00135171)
(3.96479 0.149009 -0.00189537)
(3.42795 0.162991 -0.000941572)
(2.94844 0.156774 -0.00148443)
(2.53405 0.145185 -0.000961006)
(2.22796 0.136606 -0.00137714)
(2.00169 0.131622 -0.0010333)
(1.8471 0.131228 -0.0012963)
(1.74256 0.133562 -0.00106472)
(1.66666 0.138006 -0.00121899)
(1.61859 0.143009 -0.00107491)
(1.57513 0.148396 -0.00115712)
(1.5504 0.153001 -0.00108234)
(1.52044 0.157872 -0.00111547)
(1.50458 0.160632 -0.00109436)
(1.48391 0.165966 -0.00109029)
(1.4652 0.164357 -0.00111553)
(1.46642 0.174619 -0.00107597)
(1.41797 0.160147 -0.00112997)
(1.49018 0.166324 -0.00114471)
(4.5404 0.0878058 -0.00314327)
(4.67528 0.119445 -0.00386619)
(4.71594 0.120877 -0.00290599)
(4.70238 0.0946096 -0.00342438)
(4.623 0.0563989 -0.00287648)
(4.52493 0.0139196 -0.00327868)
(4.41504 -0.0240943 -0.00292535)
(4.30743 -0.0567428 -0.00318381)
(4.20948 -0.0816284 -0.00294889)
(4.11544 -0.101452 -0.00310247)
(4.03652 -0.115879 -0.00295793)
(3.95812 -0.127539 -0.00304049)
(3.89588 -0.136055 -0.00296564)
(3.83101 -0.143283 -0.00299878)
(3.78224 -0.148733 -0.0029784)
(3.72897 -0.153157 -0.00297348)
(3.68978 -0.157805 -0.0030027)
(3.6494 -0.159421 -0.0029572)
(3.61133 -0.165371 -0.00305409)
(3.59059 -0.172133 -0.0030576)
(4.51573 0.0457404 -0.00170873)
(4.6533 0.110462 -0.00231572)
(4.78385 0.162927 -0.00138719)
(4.93034 0.191432 -0.00190937)
(5.03609 0.201745 -0.00136823)
(5.11815 0.202616 -0.00177783)
(5.16674 0.199347 -0.00143338)
(5.1935 0.196304 -0.00169724)
(5.20536 0.194407 -0.00146758)
(5.20333 0.193967 -0.00162286)
(5.19827 0.194355 -0.0014807)
(5.18427 0.195263 -0.00156345)
(5.17187 0.195964 -0.00148955)
(5.15445 0.197166 -0.0015228)
(5.13773 0.196613 -0.00150188)
(5.12257 0.199341 -0.00149905)
(5.1002 0.194038 -0.00152101)
(5.09377 0.204079 -0.00149151)
(5.0602 0.184099 -0.00151806)
(5.06869 0.207156 -0.00155194)
(4.51178 0.044171 -0.00272686)
(4.61886 0.0508896 -0.00344391)
(4.74147 0.0466585 -0.00254019)
(4.89915 0.0291522 -0.00306783)
(5.0371 0.00691721 -0.00251239)
(5.1674 -0.0182611 -0.00291025)
(5.27227 -0.0421061 -0.00255488)
(5.35947 -0.0636604 -0.00281374)
(5.43148 -0.0813008 -0.00257961)
(5.48874 -0.0958953 -0.00273324)
(5.54036 -0.107412 -0.0025888)
(5.5807 -0.116731 -0.00267077)
(5.62023 -0.124491 -0.00259551)
(5.65084 -0.130374 -0.00262822)
(5.68234 -0.136514 -0.00260693)
(5.70639 -0.139333 -0.0026034)
(5.73312 -0.146372 -0.00262935)
(5.74927 -0.144923 -0.00259605)
(5.77755 -0.155011 -0.00268399)
(5.77376 -0.153843 -0.00268827)
(4.51289 0.0165841 -0.00202652)
(4.62003 0.0556861 -0.00269788)
(4.73565 0.0914676 -0.00180377)
(4.88729 0.117163 -0.00232244)
(5.02302 0.133489 -0.00176496)
(5.1571 0.144578 -0.00216309)
(5.27058 0.152316 -0.00181059)
(5.37081 0.159006 -0.00207173)
(5.45877 0.164846 -0.00184044)
(5.53448 0.170389 -0.00199544)
(5.60633 0.175213 -0.00185283)
(5.66813 0.179632 -0.00193541)
(5.73064 0.183005 -0.00186115)
(5.78402 0.186451 -0.00189416)
(5.84072 0.187843 -0.00187297)
(5.88656 0.191785 -0.00187041)
(5.94227 0.188953 -0.00189181)
(5.97371 0.198306 -0.00186703)
(6.04317 0.184349 -0.00190289)
(6.03719 0.208966 -0.00193528)
(4.51163 0.0119272 -0.00235942)
(4.61219 -0.0040074 -0.00306005)
(4.72639 -0.0234184 -0.00217372)
(4.87632 -0.0448871 -0.00269836)
(5.01119 -0.0639928 -0.00213939)
(5.14515 -0.0818011 -0.00253579)
(5.25973 -0.0972955 -0.00218074)
(5.3622 -0.111036 -0.00244083)
(5.45372 -0.12251 -0.00220842)
(5.53376 -0.132242 -0.00236312)
(5.61138 -0.140228 -0.00222)
(5.679 -0.146765 -0.00230242)
(5.74944 -0.152275 -0.0022279)
(5.80922 -0.156509 -0.00226067)
(5.8765 -0.160476 -0.00223955)
(5.92761 -0.163106 -0.00223656)
(5.99823 -0.165923 -0.00226016)
(6.03044 -0.168477 -0.00223358)
(6.12268 -0.167881 -0.00229819)
(6.10833 -0.177601 -0.00231299)
(4.51163 -0.0119274 -0.00235942)
(4.61219 0.0040079 -0.00306005)
(4.72639 0.0234179 -0.00217372)
(4.87632 0.0448883 -0.00269836)
(5.01119 0.0639922 -0.00213939)
(5.14515 0.0818037 -0.00253579)
(5.25972 0.0972955 -0.00218073)
(5.3622 0.111042 -0.00244084)
(5.45372 0.122513 -0.00220842)
(5.53376 0.132257 -0.00236313)
(5.61138 0.140238 -0.00221998)
(5.67901 0.146807 -0.00230246)
(5.74943 0.152299 -0.00222785)
(5.80923 0.156633 -0.00226076)
(5.8765 0.16053 -0.00223943)
(5.92764 0.163446 -0.00223677)
(5.99826 0.166098 -0.00225973)
(6.03051 0.169272 -0.00223396)
(6.12281 0.168604 -0.00229622)
(6.10857 0.179165 -0.0023136)
(4.51289 -0.0165843 -0.00202652)
(4.62003 -0.0556856 -0.00269788)
(4.73565 -0.0914681 -0.00180377)
(4.88729 -0.117162 -0.00232244)
(5.02302 -0.13349 -0.00176496)
(5.1571 -0.144576 -0.00216309)
(5.27058 -0.152316 -0.00181059)
(5.37081 -0.159 -0.00207173)
(5.45877 -0.164843 -0.00184044)
(5.53448 -0.170374 -0.00199543)
(5.60634 -0.175204 -0.00185284)
(5.66813 -0.17959 -0.00193538)
(5.73066 -0.182983 -0.00186119)
(5.78402 -0.186327 -0.00189407)
(5.8408 -0.187794 -0.00187308)
(5.88657 -0.191449 -0.00187019)
(5.94247 -0.188792 -0.00189219)
(5.97378 -0.197537 -0.00186663)
(6.04361 -0.18368 -0.00190454)
(6.03754 -0.207519 -0.00193467)
(4.51178 -0.0441712 -0.00272686)
(4.61886 -0.0508892 -0.00344391)
(4.74147 -0.0466589 -0.00254019)
(4.89915 -0.0291512 -0.00306783)
(5.0371 -0.00691778 -0.00251238)
(5.1674 0.0182633 -0.00291026)
(5.27227 0.0421062 -0.00255487)
(5.35948 0.0636655 -0.00281375)
(5.43148 0.0813037 -0.0025796)
(5.48876 0.0959081 -0.00273325)
(5.54035 0.107422 -0.00258877)
(5.58074 0.116767 -0.00267081)
(5.62023 0.124514 -0.00259545)
(5.65092 0.130484 -0.00262831)
(5.6824 0.136564 -0.00260678)
(5.70656 0.139643 -0.00260358)
(5.73341 0.146523 -0.00262889)
(5.74968 0.145661 -0.00259636)
(5.77848 0.155644 -0.00268211)
(5.77495 0.155316 -0.00268856)
(4.51573 -0.0457405 -0.00170873)
(4.6533 -0.110462 -0.00231573)
(4.78385 -0.162927 -0.00138719)
(4.93035 -0.191431 -0.00190938)
(5.03609 -0.201745 -0.00136823)
(5.11816 -0.202614 -0.00177783)
(5.16673 -0.199348 -0.00143337)
(5.19351 -0.196298 -0.00169724)
(5.20534 -0.194406 -0.00146757)
(5.20337 -0.193953 -0.00162286)
(5.19825 -0.19435 -0.00148069)
(5.18436 -0.195226 -0.00156346)
(5.17186 -0.195952 -0.00148955)
(5.15465 -0.19706 -0.00152279)
(5.1378 -0.19659 -0.00150191)
(5.12298 -0.199061 -0.00149895)
(5.10064 -0.193954 -0.00152118)
(5.09465 -0.203468 -0.00149128)
(5.06162 -0.183678 -0.00151892)
(5.07086 -0.206196 -0.00155171)
(4.5404 -0.0878058 -0.00314327)
(4.67528 -0.119445 -0.00386619)
(4.71594 -0.120877 -0.00290599)
(4.70238 -0.0946092 -0.00342438)
(4.62299 -0.0563987 -0.00287647)
(4.52494 -0.0139188 -0.00327869)
(4.41503 0.0240953 -0.00292534)
(4.30746 0.0567447 -0.00318384)
(4.20946 0.081632 -0.00294886)
(4.1155 0.101456 -0.00310253)
(4.03649 0.115888 -0.00295784)
(3.95828 0.127555 -0.00304063)
(3.89583 0.136074 -0.00296543)
(3.83139 0.143336 -0.00299909)
(3.78224 0.148767 -0.00297791)
(3.72983 0.153312 -0.00297418)
(3.69006 0.157893 -0.00300153)
(3.65133 0.159799 -0.0029587)
(3.6125 0.165743 -0.00305091)
(3.59528 0.172869 -0.00306056)
(4.37787 -0.097087 -0.00135171)
(3.96479 -0.149009 -0.00189537)
(3.42795 -0.162991 -0.000941572)
(2.94845 -0.156773 -0.00148443)
(2.53405 -0.145185 -0.000961006)
(2.22797 -0.136606 -0.00137715)
(2.00169 -0.131622 -0.0010333)
(1.84712 -0.131227 -0.00129631)
(1.74256 -0.133561 -0.00106471)
(1.6667 -0.138003 -0.00121901)
(1.6186 -0.143009 -0.00107489)
(1.57524 -0.148387 -0.00115715)
(1.55044 -0.153004 -0.00108229)
(1.52071 -0.157845 -0.00111555)
(1.50475 -0.160649 -0.00109422)
(1.48451 -0.165891 -0.00109049)
(1.46574 -0.164406 -0.00111511)
(1.46792 -0.174466 -0.00107656)
(1.41913 -0.160245 -0.00112867)
(1.49482 -0.16646 -0.00114669)
(4.32448 0.56583 -0.006879)
(3.07731 0.847717 -0.00441244)
(2.31194 0.869548 -0.00568506)
(1.74315 0.852724 -0.00420824)
(1.60397 0.8552 -0.00535168)
(1.39886 0.866876 -0.00418295)
(1.39149 0.876667 -0.00513786)
(1.26847 0.884732 -0.00415894)
(1.27467 0.888989 -0.00494146)
(1.18714 0.892727 -0.00411504)
(1.19414 0.894468 -0.00475617)
(1.12984 0.89654 -0.00406208)