/*--------------------------------*- C++ -*----------------------------------*\
  =========                 |
  \\      /  F ield         | OpenFOAM: The Open Source CFD Toolbox
   \\    /   O peration     | Website:  https://openfoam.org
    \\  /    A nd           | Version:  7
     \\/     M anipulation  |
\*---------------------------------------------------------------------------*/
FoamFile
{
    version     2.0;
    format      ascii;
    class       volScalarField;
    location    "2.35";
    object      rho_0;
}
// * * * * * * * * * * * * * * * * * * * * * * * * * * * * * * * * * * * * * //

dimensions      [1 -3 0 0 0 0 0];

internalField   nonuniform List<scalar> 
6000
(
1.22776
1.22777
1.22777
1.22778
1.22779
1.2278
1.2278
1.22781
1.22782
1.22782
1.22783
1.22783
1.22784
1.22784
1.22785
1.22785
1.22786
1.22787
1.22787
1.22787
1.22787
1.22787
1.22788
1.22789
1.22791
1.22792
1.22793
1.22794
1.22794
1.22794
1.22793
1.22793
1.22793
1.22792
1.22792
1.22791
1.22791
1.2279
1.2279
1.22789
1.22789
1.22789
1.22788
1.22787
1.22787
1.22786
1.22785
1.22785
1.22784
1.22784
1.22784
1.22784
1.22784
1.22784
1.22784
1.22784
1.22784
1.22784
1.22784
1.22784
1.22784
1.22784
1.22785
1.22785
1.22785
1.22785
1.22785
1.22785
1.22784
1.22784
1.22784
1.22784
1.22784
1.22784
1.22784
1.22784
1.22784
1.22784
1.22784
1.22784
1.22785
1.22785
1.22785
1.22785
1.22785
1.22785
1.22785
1.22786
1.22786
1.22786
1.22786
1.22787
1.22785
1.22789
1.22782
1.22795
1.22771
1.22814
1.22738
1.22874
1.22776
1.22777
1.22778
1.22779
1.2278
1.22781
1.22781
1.22782
1.22783
1.22784
1.22785
1.22785
1.22786
1.22787
1.22788
1.22788
1.22789
1.2279
1.22791
1.22791
1.22792
1.22793
1.22793
1.22793
1.22794
1.22794
1.22794
1.22795
1.22796
1.22797
1.22799
1.228
1.22802
1.22804
1.22805
1.22805
1.22806
1.22805
1.22805
1.22805
1.22804
1.22803
1.22802
1.22802
1.22801
1.228
1.22799
1.22798
1.22797
1.22796
1.22796
1.22795
1.22794
1.22793
1.22792
1.22791
1.2279
1.22789
1.22788
1.22788
1.22787
1.22786
1.22785
1.22784
1.22783
1.22783
1.22783
1.22782
1.22782
1.22781
1.2278
1.22778
1.22777
1.22776
1.22774
1.22773
1.22772
1.22772
1.22772
1.22772
1.22772
1.22772
1.22772
1.22773
1.22773
1.22774
1.22775
1.22775
1.22776
1.22777
1.22777
1.22779
1.22779
1.2278
1.2278
1.22782
1.22782
1.22785
1.22783
1.22787
1.22777
1.22778
1.22779
1.2278
1.22781
1.22781
1.22782
1.22783
1.22784
1.22785
1.22786
1.22786
1.22787
1.22788
1.22789
1.22789
1.2279
1.22791
1.22792
1.22792
1.22793
1.22794
1.22795
1.22795
1.22795
1.22795
1.22795
1.22795
1.22796
1.22797
1.22798
1.228
1.22802
1.22805
1.22807
1.22808
1.22809
1.2281
1.2281
1.2281
1.2281
1.22809
1.22808
1.22808
1.22807
1.22806
1.22805
1.22805
1.22804
1.22803
1.22802
1.22801
1.228
1.228
1.22799
1.22798
1.22797
1.22796
1.22795
1.22794
1.22793
1.22792
1.22791
1.2279
1.2279
1.22789
1.22788
1.22787
1.22786
1.22785
1.22784
1.22783
1.22783
1.22782
1.22782
1.22782
1.22781
1.2278
1.22779
1.22778
1.22776
1.22774
1.22772
1.2277
1.22768
1.22767
1.22766
1.22765
1.22764
1.22764
1.22764
1.22765
1.22765
1.22766
1.22767
1.22767
1.22768
1.22769
1.2277
1.22771
1.22778
1.22779
1.2278
1.22781
1.22782
1.22783
1.22784
1.22785
1.22785
1.22786
1.22787
1.22788
1.22789
1.22789
1.2279
1.22791
1.22792
1.22793
1.22793
1.22794
1.22795
1.22795
1.22796
1.22797
1.22797
1.22797
1.22797
1.22797
1.22797
1.22798
1.228
1.22802
1.22804
1.22806
1.22808
1.2281
1.22811
1.22812
1.22812
1.22812
1.22811
1.22811
1.2281
1.2281
1.22809
1.22808
1.22807
1.22807
1.22806
1.22805
1.22804
1.22803
1.22803
1.22802
1.22801
1.228
1.22799
1.22798
1.22797
1.22796
1.22795
1.22795
1.22794
1.22793
1.22792
1.22791
1.2279
1.22789
1.22788
1.22787
1.22786
1.22785
1.22784
1.22784
1.22784
1.22784
1.22784
1.22784
1.22784
1.22783
1.22781
1.22779
1.22777
1.22775
1.22772
1.2277
1.22768
1.22766
1.22765
1.22764
1.22763
1.22763
1.22763
1.22763
1.22763
1.22764
1.22765
1.22765
1.22766
1.22767
1.2278
1.22781
1.22782
1.22783
1.22784
1.22785
1.22786
1.22786
1.22787
1.22788
1.22789
1.22789
1.2279
1.22791
1.22792
1.22793
1.22793
1.22794
1.22795
1.22795
1.22796
1.22797
1.22798
1.22798
1.22798
1.22798
1.22798
1.22798
1.22798
1.22799
1.22801
1.22803
1.22805
1.22808
1.2281
1.22811
1.22812
1.22813
1.22813
1.22813
1.22813
1.22812
1.22811
1.22811
1.2281
1.22809
1.22808
1.22807
1.22807
1.22806
1.22805
1.22804
1.22803
1.22802
1.22801
1.228
1.228
1.22799
1.22798
1.22797
1.22796
1.22795
1.22794
1.22793
1.22792
1.22792
1.22791
1.2279
1.22789
1.22787
1.22786
1.22785
1.22785
1.22784
1.22784
1.22784
1.22785
1.22785
1.22784
1.22783
1.22782
1.2278
1.22778
1.22775
1.22773
1.2277
1.22768
1.22766
1.22765
1.22764
1.22763
1.22763
1.22763
1.22763
1.22764
1.22764
1.22765
1.22766
1.22766
1.22767
1.22782
1.22783
1.22784
1.22785
1.22786
1.22787
1.22787
1.22788
1.22789
1.2279
1.22791
1.22791
1.22792
1.22793
1.22794
1.22795
1.22795
1.22796
1.22797
1.22797
1.22798
1.22799
1.22799
1.228
1.228
1.228
1.22799
1.228
1.228
1.22801
1.22803
1.22805
1.22807
1.22809
1.22811
1.22813
1.22814
1.22814
1.22814
1.22814
1.22814
1.22813
1.22813
1.22812
1.22811
1.22811
1.2281
1.22809
1.22808
1.22807
1.22806
1.22805
1.22804
1.22803
1.22803
1.22802
1.22801
1.228
1.22799
1.22798
1.22797
1.22796
1.22795
1.22794
1.22793
1.22792
1.22791
1.2279
1.22789
1.22788
1.22787
1.22786
1.22785
1.22785
1.22785
1.22785
1.22785
1.22785
1.22785
1.22784
1.22782
1.2278
1.22778
1.22776
1.22773
1.22771
1.22769
1.22767
1.22766
1.22765
1.22764
1.22764
1.22764
1.22764
1.22765
1.22765
1.22766
1.22766
1.22767
1.22768
1.22785
1.22786
1.22786
1.22787
1.22788
1.22789
1.2279
1.2279
1.22791
1.22792
1.22793
1.22794
1.22794
1.22795
1.22796
1.22797
1.22797
1.22798
1.22799
1.22799
1.228
1.22801
1.22801
1.22802
1.22802
1.22802
1.22801
1.22801
1.22802
1.22803
1.22804
1.22806
1.22809
1.22811
1.22813
1.22814
1.22815
1.22816
1.22816
1.22816
1.22816
1.22815
1.22814
1.22814
1.22813
1.22812
1.22811
1.2281
1.22809
1.22808
1.22808
1.22807
1.22806
1.22805
1.22804
1.22803
1.22802
1.22801
1.228
1.22799
1.22798
1.22797
1.22796
1.22795
1.22794
1.22793
1.22792
1.22791
1.2279
1.22789
1.22788
1.22787
1.22786
1.22786
1.22786
1.22786
1.22786
1.22786
1.22786
1.22785
1.22783
1.22781
1.22779
1.22777
1.22774
1.22772
1.2277
1.22768
1.22767
1.22766
1.22765
1.22765
1.22765
1.22765
1.22766
1.22766
1.22767
1.22767
1.22768
1.22769
1.22787
1.22788
1.22789
1.22789
1.2279
1.22791
1.22792
1.22793
1.22793
1.22794
1.22795
1.22796
1.22797
1.22797
1.22798
1.22799
1.22799
1.228
1.22801
1.22801
1.22802
1.22803
1.22803
1.22803
1.22804
1.22803
1.22803
1.22803
1.22804
1.22805
1.22806
1.22808
1.2281
1.22813
1.22815
1.22816
1.22817
1.22818
1.22818
1.22818
1.22817
1.22817
1.22816
1.22815
1.22814
1.22814
1.22813
1.22812
1.22811
1.2281
1.22809
1.22808
1.22807
1.22806
1.22805
1.22804
1.22803
1.22802
1.22801
1.228
1.22799
1.22798
1.22797
1.22796
1.22795
1.22794
1.22793
1.22792
1.22791
1.2279
1.22789
1.22788
1.22787
1.22787
1.22787
1.22787
1.22787
1.22787
1.22787
1.22786
1.22784
1.22782
1.2278
1.22778
1.22775
1.22773
1.22771
1.22769
1.22768
1.22767
1.22766
1.22766
1.22766
1.22766
1.22766
1.22767
1.22768
1.22768
1.22769
1.2277
1.22789
1.2279
1.22791
1.22792
1.22792
1.22793
1.22794
1.22795
1.22795
1.22796
1.22797
1.22798
1.22799
1.22799
1.228
1.22801
1.22801
1.22802
1.22803
1.22803
1.22804
1.22804
1.22805
1.22805
1.22805
1.22805
1.22805
1.22805
1.22805
1.22806
1.22808
1.2281
1.22812
1.22814
1.22816
1.22818
1.22819
1.22819
1.22819
1.22819
1.22819
1.22819
1.22818
1.22817
1.22816
1.22815
1.22814
1.22813
1.22812
1.22811
1.2281
1.22809
1.22808
1.22807
1.22806
1.22805
1.22804
1.22803
1.22802
1.22801
1.228
1.22799
1.22798
1.22797
1.22796
1.22795
1.22794
1.22793
1.22792
1.22791
1.2279
1.22789
1.22788
1.22788
1.22788
1.22788
1.22788
1.22788
1.22788
1.22787
1.22785
1.22783
1.22781
1.22779
1.22776
1.22774
1.22772
1.2277
1.22769
1.22768
1.22768
1.22767
1.22767
1.22767
1.22768
1.22768
1.22769
1.2277
1.2277
1.22771
1.22791
1.22791
1.22792
1.22793
1.22794
1.22795
1.22795
1.22796
1.22797
1.22798
1.22798
1.22799
1.228
1.22801
1.22801
1.22802
1.22803
1.22803
1.22804
1.22805
1.22805
1.22806
1.22806
1.22806
1.22806
1.22806
1.22806
1.22806
1.22806
1.22807
1.22809
1.22811
1.22813
1.22815
1.22817
1.22818
1.22819
1.2282
1.2282
1.2282
1.2282
1.22819
1.22818
1.22817
1.22816
1.22815
1.22814
1.22813
1.22812
1.22811
1.2281
1.22809
1.22808
1.22807
1.22806
1.22805
1.22804
1.22803
1.22802
1.22801
1.22799
1.22798
1.22797
1.22796
1.22795
1.22794
1.22793
1.22792
1.22791
1.2279
1.22789
1.22788
1.22788
1.22787
1.22787
1.22787
1.22786
1.22786
1.22785
1.22783
1.22781
1.2278
1.22778
1.22776
1.22774
1.22772
1.22771
1.22771
1.2277
1.2277
1.2277
1.2277
1.22771
1.22771
1.22772
1.22773
1.22773
1.22774
1.22775
1.22776
1.22792
1.22793
1.22794
1.22794
1.22795
1.22796
1.22797
1.22797
1.22798
1.22799
1.228
1.228
1.22801
1.22802
1.22803
1.22803
1.22804
1.22804
1.22805
1.22805
1.22806
1.22806
1.22806
1.22807
1.22807
1.22807
1.22807
1.22807
1.22808
1.22809
1.22811
1.22813
1.22814
1.22816
1.22817
1.22817
1.22817
1.22817
1.22817
1.22816
1.22815
1.22814
1.22813
1.22812
1.22811
1.2281
1.22809
1.22808
1.22807
1.22806
1.22805
1.22804
1.22803
1.22801
1.228
1.22799
1.22798
1.22797
1.22796
1.22795
1.22794
1.22793
1.22792
1.22791
1.22791
1.2279
1.2279
1.22789
1.22789
1.22788
1.22787
1.22785
1.22784
1.22783
1.22781
1.2278
1.22779
1.22779
1.22779
1.22779
1.22779
1.22779
1.22779
1.2278
1.2278
1.22781
1.22781
1.22782
1.22783
1.22783
1.22784
1.22785
1.22785
1.22786
1.22787
1.22788
1.22788
1.22789
1.2279
1.22791
1.22793
1.22793
1.22794
1.22795
1.22795
1.22796
1.22797
1.22797
1.22798
1.22798
1.22799
1.22799
1.228
1.228
1.22801
1.22801
1.22802
1.22802
1.22802
1.22802
1.22802
1.22802
1.22803
1.22804
1.22805
1.22807
1.22808
1.22808
1.22808
1.22808
1.22807
1.22807
1.22806
1.22805
1.22805
1.22804
1.22803
1.22803
1.22802
1.22801
1.22801
1.22801
1.228
1.22799
1.22798
1.22798
1.22797
1.22796
1.22796
1.22796
1.22795
1.22795
1.22795
1.22795
1.22795
1.22795
1.22795
1.22795
1.22795
1.22795
1.22795
1.22795
1.22795
1.22795
1.22795
1.22795
1.22795
1.22795
1.22794
1.22794
1.22794
1.22794
1.22794
1.22794
1.22794
1.22794
1.22794
1.22794
1.22794
1.22794
1.22794
1.22794
1.22794
1.22795
1.22795
1.22795
1.22795
1.22795
1.22795
1.22795
1.22796
1.22796
1.22796
1.22796
1.22796
1.22796
1.22796
1.22796
1.22796
1.22796
1.2227
1.21493
1.20875
1.2037
1.19942
1.19567
1.1923
1.18921
1.18633
1.18361
1.18103
1.17857
1.17621
1.17394
1.17177
1.16966
1.16763
1.16566
1.16375
1.16189
1.16008
1.15832
1.15661
1.15493
1.1533
1.1517
1.15013
1.1486
1.1471
1.14562
1.14418
1.14276
1.14137
1.14
1.13865
1.13733
1.13604
1.13476
1.13351
1.13227
1.13106
1.12986
1.12869
1.12753
1.12639
1.12526
1.12415
1.12306
1.12198
1.12092
1.11987
1.11883
1.11781
1.1168
1.1158
1.11481
1.11384
1.11288
1.11192
1.11098
1.11005
1.10913
1.10822
1.10732
1.10643
1.10555
1.10468
1.10382
1.10297
1.10213
1.10129
1.10047
1.09965
1.09885
1.09805
1.09726
1.09648
1.0957
1.09494
1.09418
1.09343
1.09269
1.09195
1.09123
1.09051
1.0898
1.08909
1.0884
1.08771
1.08703
1.08635
1.08568
1.08503
1.08437
1.08373
1.08309
1.08246
1.08184
1.08123
1.08062
1.08002
1.07943
1.07885
1.07827
1.07771
1.07715
1.0766
1.07605
1.07552
1.07499
1.07447
1.07396
1.07346
1.07296
1.07248
1.072
1.07153
1.07107
1.07062
1.07017
1.06973
1.0693
1.06888
1.06847
1.06807
1.06767
1.06728
1.0669
1.06652
1.06616
1.0658
1.06545
1.0651
1.06476
1.06443
1.06411
1.0638
1.06349
1.06319
1.06289
1.0626
1.06232
1.06204
1.06177
1.06151
1.06126
1.06101
1.06076
1.06052
1.06029
1.06006
1.05984
1.05963
1.05942
1.05922
1.05902
1.05882
1.05863
1.05845
1.05827
1.0581
1.05793
1.05777
1.05761
1.05745
1.0573
1.05715
1.05701
1.05687
1.05673
1.0566
1.05647
1.05635
1.05623
1.05611
1.056
1.05589
1.05578
1.05567
1.05557
1.05548
1.05538
1.05529
1.0552
1.05511
1.05503
1.05495
1.05487
1.05479
1.05472
1.05465
1.05458
1.05451
1.05445
1.05439
1.05433
1.05427
1.05422
1.05416
1.05411
1.05406
1.05402
1.05397
1.05393
1.05388
1.05384
1.0538
1.05377
1.05373
1.0537
1.05366
1.05363
1.0536
1.05357
1.05354
1.05351
1.05349
1.05346
1.05344
1.05342
1.05339
1.05337
1.05335
1.05334
1.05332
1.0533
1.05329
1.05327
1.05326
1.05325
1.05324
1.05323
1.05322
1.05321
1.0532
1.05319
1.05319
1.05318
1.05318
1.05317
1.05317
1.05316
1.05316
1.05316
1.05316
1.05316
1.05316
1.05316
1.05316
1.05316
1.05316
1.05316
1.05316
1.05316
1.05317
1.05317
1.05317
1.05318
1.05318
1.05318
1.05319
1.05319
1.0532
1.0532
1.05321
1.05322
1.05322
1.05323
1.05324
1.05324
1.05325
1.05326
1.05327
1.05328
1.05329
1.0533
1.05331
1.05331
1.05332
1.05333
1.05334
1.05336
1.05337
1.05338
1.05339
1.0534
1.05341
1.05342
1.05343
1.05344
1.05345
1.05346
1.05347
1.05348
1.05349
1.0535
1.05351
1.05353
1.05354
1.05355
1.05356
1.05357
1.05358
1.05359
1.0536
1.05362
1.05363
1.05364
1.05365
1.05367
1.05368
1.05369
1.05371
1.05372
1.05373
1.05375
1.05376
1.05377
1.05379
1.0538
1.05382
1.05383
1.05385
1.05386
1.05387
1.05389
1.0539
1.05392
1.05393
1.05395
1.05396
1.05398
1.05399
1.05401
1.05402
1.05404
1.05405
1.05407
1.05408
1.05409
1.05411
1.05412
1.05414
1.05415
1.05417
1.05418
1.0542
1.05421
1.05423
1.05424
1.05426
1.05427
1.05428
1.0543
1.05431
1.05433
1.05434
1.05436
1.05437
1.05439
1.0544
1.05442
1.05443
1.05444
1.05446
1.05447
1.05449
1.0545
1.05452
1.05453
1.05454
1.05456
1.05457
1.05459
1.0546
1.05462
1.05463
1.05465
1.05466
1.05467
1.05469
1.0547
1.05472
1.05473
1.05474
1.05476
1.05477
1.05479
1.0548
1.05482
1.05483
1.05484
1.05486
1.05487
1.05488
1.0549
1.05491
1.05493
1.05494
1.05496
1.22782
1.22698
1.22553
1.22368
1.2216
1.21943
1.21725
1.21509
1.21298
1.21091
1.2089
1.20694
1.20503
1.20317
1.20136
1.19959
1.19786
1.19617
1.19452
1.1929
1.19132
1.18977
1.18826
1.18677
1.18532
1.18389
1.18249
1.18111
1.17975
1.17841
1.17709
1.17579
1.17451
1.17324
1.172
1.17077
1.16955
1.16835
1.16717
1.166
1.16484
1.16371
1.16258
1.16148
1.16038
1.1593
1.15824
1.15719
1.15615
1.15513
1.15412
1.15312
1.15213
1.15115
1.15019
1.14923
1.14829
1.14735
1.14643
1.14551
1.14461
1.14371
1.14282
1.14193
1.14106
1.14019
1.13933
1.13848
1.13764
1.1368
1.13597
1.13515
1.13434
1.13353
1.13273
1.13194
1.13116
1.13038
1.12961
1.12885
1.12809
1.12735
1.1266
1.12587
1.12514
1.12442
1.12371
1.123
1.1223
1.12161
1.12092
1.12024
1.11956
1.1189
1.11823
1.11758
1.11693
1.11629
1.11565
1.11502
1.11439
1.11378
1.11317
1.11256
1.11196
1.11137
1.11079
1.11021
1.10964
1.10907
1.10852
1.10797
1.10742
1.10689
1.10636
1.10584
1.10533
1.10482
1.10432
1.10383
1.10335
1.10287
1.1024
1.10194
1.10149
1.10104
1.10061
1.10018
1.09975
1.09934
1.09893
1.09853
1.09814
1.09775
1.09737
1.097
1.09663
1.09627
1.09592
1.09557
1.09523
1.0949
1.09457
1.09425
1.09394
1.09363
1.09333
1.09303
1.09274
1.09246
1.09218
1.09191
1.09164
1.09138
1.09113
1.09088
1.09063
1.0904
1.09016
1.08994
1.08972
1.0895
1.08929
1.08909
1.08889
1.08869
1.0885
1.08832
1.08814
1.08796
1.08779
1.08762
1.08746
1.0873
1.08714
1.08699
1.08684
1.08669
1.08655
1.08641
1.08628
1.08615
1.08602
1.08589
1.08577
1.08565
1.08553
1.08542
1.08531
1.0852
1.08509
1.08499
1.08489
1.0848
1.0847
1.08461
1.08453
1.08444
1.08436
1.08428
1.0842
1.08413
1.08405
1.08398
1.08392
1.08385
1.08379
1.08373
1.08367
1.08361
1.08355
1.0835
1.08345
1.08339
1.08334
1.0833
1.08325
1.0832
1.08316
1.08311
1.08307
1.08303
1.08299
1.08295
1.08291
1.08288
1.08284
1.08281
1.08277
1.08274
1.08271
1.08268
1.08265
1.08263
1.0826
1.08258
1.08255
1.08253
1.08251
1.08249
1.08247
1.08246
1.08244
1.08243
1.08241
1.0824
1.08239
1.08237
1.08236
1.08235
1.08234
1.08233
1.08232
1.08231
1.0823
1.0823
1.08229
1.08228
1.08227
1.08227
1.08226
1.08225
1.08225
1.08224
1.08223
1.08223
1.08222
1.08222
1.08222
1.08221
1.08221
1.08221
1.0822
1.0822
1.0822
1.0822
1.0822
1.0822
1.0822
1.08221
1.08221
1.08221
1.08222
1.08222
1.08222
1.08223
1.08223
1.08224
1.08224
1.08225
1.08225
1.08226
1.08226
1.08227
1.08227
1.08227
1.08228
1.08228
1.08229
1.08229
1.08229
1.0823
1.0823
1.08231
1.08231
1.08231
1.08232
1.08232
1.08232
1.08233
1.08233
1.08234
1.08234
1.08235
1.08235
1.08236
1.08237
1.08237
1.08238
1.08239
1.08239
1.0824
1.08241
1.08242
1.08243
1.08243
1.08244
1.08245
1.08246
1.08247
1.08248
1.08249
1.0825
1.08251
1.08252
1.08253
1.08254
1.08255
1.08255
1.08256
1.08257
1.08258
1.08259
1.0826
1.08261
1.08262
1.08263
1.08264
1.08265
1.08266
1.08267
1.08268
1.08269
1.0827
1.08271
1.08272
1.08273
1.08274
1.08275
1.08276
1.08277
1.08278
1.08278
1.08279
1.0828
1.08281
1.08282
1.08283
1.08284
1.08285
1.08286
1.08287
1.08288
1.08289
1.0829
1.08291
1.08292
1.08293
1.08294
1.08295
1.08296
1.08297
1.08297
1.08298
1.08299
1.083
1.08301
1.08302
1.08303
1.08304
1.08305
1.08306
1.08307
1.08308
1.08309
1.0831
1.0831
1.08312
1.08312
1.08314
1.22774
1.22777
1.22774
1.22761
1.22735
1.22696
1.22646
1.22588
1.22519
1.22443
1.22358
1.22267
1.22171
1.22071
1.21968
1.21864
1.21758
1.21652
1.21545
1.21437
1.2133
1.21223
1.21117
1.21011
1.20906
1.20803
1.207
1.20599
1.20498
1.20398
1.20298
1.20199
1.20101
1.20002
1.19905
1.19807
1.1971
1.19614
1.19518
1.19422
1.19326
1.19231
1.19136
1.19042
1.18948
1.18855
1.18763
1.18672
1.18582
1.18493
1.18404
1.18317
1.1823
1.18144
1.18059
1.17975
1.17891
1.17809
1.17727
1.17646
1.17566
1.17486
1.17407
1.17328
1.1725
1.17172
1.17095
1.17018
1.16941
1.16865
1.16789
1.16714
1.16639
1.16564
1.1649
1.16417
1.16343
1.1627
1.16198
1.16126
1.16054
1.15984
1.15913
1.15843
1.15774
1.15705
1.15637
1.1557
1.15503
1.15436
1.1537
1.15305
1.1524
1.15175
1.15111
1.15048
1.14985
1.14923
1.14861
1.148
1.14739
1.14678
1.14618
1.14558
1.14499
1.1444
1.14382
1.14324
1.14266
1.14209
1.14152
1.14096
1.1404
1.13985
1.1393
1.13875
1.13821
1.13768
1.13715
1.13663
1.13611
1.1356
1.13509
1.1346
1.1341
1.13362
1.13314
1.13267
1.1322
1.13174
1.13129
1.13085
1.13041
1.12998
1.12956
1.12914
1.12873
1.12832
1.12792
1.12752
1.12714
1.12675
1.12638
1.126
1.12564
1.12527
1.12492
1.12456
1.12422
1.12387
1.12353
1.1232
1.12287
1.12255
1.12223
1.12192
1.12161
1.12131
1.12102
1.12073
1.12044
1.12016
1.11989
1.11962
1.11936
1.11911
1.11886
1.11861
1.11838
1.11815
1.11792
1.1177
1.11748
1.11727
1.11706
1.11686
1.11666
1.11647
1.11628
1.11609
1.11591
1.11573
1.11555
1.11538
1.11521
1.11504
1.11487
1.11471
1.11455
1.11439
1.11423
1.11408
1.11393
1.11379
1.11364
1.1135
1.11337
1.11323
1.1131
1.11298
1.11285
1.11274
1.11262
1.11251
1.1124
1.11229
1.11219
1.1121
1.112
1.11191
1.11182
1.11173
1.11165
1.11157
1.11149
1.11141
1.11134
1.11126
1.11119
1.11112
1.11105
1.11098
1.11091
1.11084
1.11078
1.11071
1.11065
1.11058
1.11052
1.11046
1.1104
1.11034
1.11028
1.11022
1.11017
1.11012
1.11006
1.11001
1.10997
1.10992
1.10988
1.10984
1.1098
1.10976
1.10972
1.10969
1.10966
1.10963
1.1096
1.10957
1.10955
1.10952
1.1095
1.10948
1.10946
1.10944
1.10942
1.1094
1.10938
1.10936
1.10934
1.10932
1.1093
1.10928
1.10926
1.10924
1.10922
1.1092
1.10918
1.10916
1.10914
1.10912
1.1091
1.10909
1.10907
1.10905
1.10904
1.10902
1.10901
1.109
1.10899
1.10898
1.10897
1.10897
1.10896
1.10896
1.10895
1.10895
1.10895
1.10895
1.10895
1.10895
1.10895
1.10895
1.10895
1.10895
1.10896
1.10896
1.10896
1.10896
1.10895
1.10895
1.10895
1.10895
1.10894
1.10894
1.10894
1.10893
1.10892
1.10892
1.10891
1.10891
1.1089
1.10889
1.10889
1.10888
1.10888
1.10887
1.10887
1.10886
1.10886
1.10886
1.10886
1.10886
1.10886
1.10886
1.10886
1.10886
1.10886
1.10887
1.10887
1.10887
1.10888
1.10888
1.10889
1.10889
1.10889
1.1089
1.1089
1.10891
1.10891
1.10892
1.10892
1.10893
1.10893
1.10894
1.10894
1.10895
1.10895
1.10896
1.10897
1.10897
1.10898
1.10898
1.10899
1.10899
1.109
1.109
1.10901
1.10901
1.10902
1.10902
1.10903
1.10903
1.10904
1.10904
1.10905
1.10905
1.10906
1.10906
1.10907
1.10907
1.10908
1.10908
1.10909
1.10909
1.1091
1.1091
1.10911
1.10911
1.10912
1.10912
1.10913
1.10913
1.10914
1.10914
1.10915
1.10915
1.10916
1.10916
1.10917
1.10918
1.10918
1.10919
1.10919
1.1092
1.1092
1.10921
1.10921
1.10922
1.22769
1.22772
1.22776
1.2278
1.22784
1.22784
1.22782
1.2278
1.22777
1.22772
1.22763
1.2275
1.22731
1.22707
1.22678
1.22646
1.22609
1.22571
1.22531
1.22489
1.22444
1.22397
1.22347
1.22296
1.22243
1.22189
1.22136
1.22083
1.2203
1.21977
1.21924
1.21871
1.21816
1.2176
1.21704
1.21647
1.2159
1.21532
1.21474
1.21415
1.21355
1.21294
1.21232
1.21169
1.21104
1.21039
1.20973
1.20907
1.20842
1.20776
1.2071
1.20645
1.20579
1.20514
1.20449
1.20384
1.2032
1.20256
1.20193
1.20131
1.2007
1.20009
1.19949
1.19889
1.19829
1.1977
1.1971
1.19651
1.19592
1.19532
1.19473
1.19414
1.19355
1.19296
1.19237
1.19178
1.19118
1.19058
1.18998
1.18937
1.18877
1.18817
1.18757
1.18697
1.18637
1.18577
1.18518
1.18459
1.184
1.18341
1.18283
1.18225
1.18168
1.18111
1.18055
1.17999
1.17944
1.17889
1.17835
1.17781
1.17728
1.17675
1.17622
1.17569
1.17517
1.17465
1.17413
1.17361
1.1731
1.17258
1.17207
1.17156
1.17104
1.17053
1.17002
1.1695
1.16899
1.16848
1.16797
1.16746
1.16695
1.16645
1.16594
1.16545
1.16495
1.16446
1.16397
1.16349
1.16301
1.16254
1.16208
1.16162
1.16117
1.16072
1.16028
1.15985
1.15943
1.15901
1.15859
1.15818
1.15778
1.15738
1.15699
1.1566
1.15621
1.15583
1.15545
1.15508
1.15471
1.15433
1.15397
1.1536
1.15323
1.15287
1.15251
1.15215
1.15179
1.15144
1.15108
1.15074
1.1504
1.15006
1.14972
1.14939
1.14907
1.14875
1.14844
1.14813
1.14783
1.14754
1.14726
1.14698
1.14671
1.14645
1.14619
1.14594
1.14569
1.14545
1.14522
1.14499
1.14476
1.14454
1.14432
1.1441
1.14389
1.14368
1.14347
1.14327
1.14306
1.14286
1.14265
1.14245
1.14225
1.14205
1.14185
1.14165
1.14146
1.14127
1.14108
1.14089
1.14071
1.14053
1.14035
1.14018
1.14001
1.13985
1.13969
1.13954
1.13939
1.13925
1.13912
1.13899
1.13886
1.13874
1.13862
1.13851
1.1384
1.1383
1.13819
1.13809
1.13799
1.1379
1.1378
1.13771
1.13762
1.13752
1.13743
1.13733
1.13724
1.13715
1.13705
1.13696
1.13686
1.13677
1.13667
1.13658
1.13649
1.1364
1.13631
1.13622
1.13613
1.13605
1.13597
1.13589
1.13582
1.13575
1.13568
1.13562
1.13556
1.13551
1.13546
1.13541
1.13537
1.13532
1.13528
1.13525
1.13521
1.13518
1.13515
1.13512
1.13509
1.13506
1.13503
1.135
1.13497
1.13494
1.1349
1.13487
1.13483
1.1348
1.13476
1.13472
1.13468
1.13464
1.1346
1.13457
1.13453
1.13449
1.13445
1.13441
1.13438
1.13434
1.13431
1.13428
1.13425
1.13423
1.13421
1.13419
1.13418
1.13416
1.13415
1.13414
1.13414
1.13414
1.13413
1.13413
1.13413
1.13413
1.13414
1.13414
1.13414
1.13414
1.13414
1.13414
1.13413
1.13413
1.13412
1.13411
1.1341
1.13409
1.13408
1.13406
1.13404
1.13402
1.13401
1.13399
1.13396
1.13394
1.13392
1.1339
1.13388
1.13386
1.13385
1.13383
1.13382
1.1338
1.13379
1.13378
1.13377
1.13376
1.13376
1.13375
1.13375
1.13374
1.13374
1.13374
1.13374
1.13374
1.13374
1.13374
1.13374
1.13374
1.13374
1.13374
1.13374
1.13374
1.13374
1.13374
1.13374
1.13374
1.13374
1.13375
1.13375
1.13375
1.13375
1.13375
1.13375
1.13375
1.13375
1.13375
1.13376
1.13376
1.13376
1.13376
1.13376
1.13376
1.13376
1.13376
1.13376
1.13377
1.13377
1.13377
1.13377
1.13377
1.13377
1.13377
1.13377
1.13377
1.13378
1.13378
1.13378
1.13378
1.13378
1.13378
1.13378
1.13378
1.13378
1.13379
1.13379
1.13379
1.13379
1.13379
1.13379
1.13379
1.13379
1.1338
1.1338
1.1338
1.1338
1.1338
1.22769
1.22772
1.22775
1.2278
1.22785
1.22787
1.22787
1.22789
1.22794
1.22801
1.22807
1.22811
1.22812
1.22812
1.22809
1.22803
1.22794
1.22785
1.22776
1.22767
1.22758
1.22748
1.22735
1.2272
1.22703
1.22685
1.22666
1.22648
1.2263
1.22614
1.226
1.22586
1.22572
1.22556
1.22539
1.2252
1.225
1.22481
1.22461
1.22441
1.22421
1.224
1.22379
1.22355
1.22328
1.22299
1.22267
1.22234
1.22199
1.22163
1.22127
1.22091
1.22054
1.22016
1.21978
1.21938
1.21898
1.21856
1.21815
1.21773
1.21733
1.21694
1.21656
1.21619
1.21583
1.21548
1.21512
1.21476
1.2144
1.21403
1.21367
1.21331
1.21295
1.21259
1.21224
1.21188
1.21152
1.21115
1.21076
1.21037
1.20996
1.20954
1.20911
1.20868
1.20824
1.2078
1.20736
1.20692
1.20647
1.20603
1.20557
1.20512
1.20466
1.2042
1.20375
1.2033
1.20286
1.20243
1.20201
1.20159
1.20119
1.20078
1.20039
1.19999
1.1996
1.1992
1.19881
1.19843
1.19804
1.19766
1.19728
1.19691
1.19653
1.19615
1.19576
1.19537
1.19497
1.19456
1.19414
1.19372
1.19329
1.19287
1.19244
1.19201
1.19158
1.19114
1.19071
1.19027
1.18983
1.1894
1.18896
1.18853
1.1881
1.18768
1.18727
1.18687
1.18648
1.1861
1.18572
1.18535
1.18499
1.18463
1.18427
1.18392
1.18358
1.18324
1.1829
1.18258
1.18225
1.18193
1.1816
1.18128
1.18095
1.18061
1.18027
1.17993
1.17958
1.17923
1.17888
1.17853
1.17818
1.17783
1.17748
1.17713
1.17677
1.17642
1.17607
1.17573
1.17538
1.17504
1.17472
1.1744
1.17408
1.17378
1.17349
1.17321
1.17294
1.17267
1.17241
1.17216
1.17191
1.17167
1.17144
1.17121
1.17099
1.17077
1.17056
1.17035
1.17014
1.16992
1.16971
1.16949
1.16927
1.16905
1.16882
1.1686
1.16837
1.16814
1.16791
1.16768
1.16745
1.16722
1.16699
1.16676
1.16653
1.1663
1.16608
1.16586
1.16565
1.16545
1.16526
1.16507
1.1649
1.16473
1.16457
1.16442
1.16427
1.16413
1.16399
1.16386
1.16374
1.16362
1.16351
1.1634
1.1633
1.16319
1.16309
1.16299
1.16288
1.16277
1.16266
1.16254
1.16242
1.1623
1.16218
1.16205
1.16193
1.1618
1.16167
1.16154
1.16141
1.16128
1.16114
1.16101
1.16089
1.16076
1.16064
1.16053
1.16042
1.16032
1.16022
1.16013
1.16005
1.15998
1.15991
1.15984
1.15979
1.15973
1.15968
1.15964
1.1596
1.15956
1.15953
1.1595
1.15947
1.15944
1.1594
1.15937
1.15933
1.15929
1.15924
1.15919
1.15914
1.15909
1.15903
1.15897
1.15891
1.15885
1.15878
1.15871
1.15864
1.15857
1.1585
1.15844
1.15837
1.15831
1.15825
1.1582
1.15815
1.15811
1.15807
1.15804
1.15801
1.15799
1.15797
1.15796
1.15795
1.15795
1.15795
1.15795
1.15796
1.15797
1.15798
1.15799
1.158
1.158
1.15801
1.15801
1.15801
1.15801
1.158
1.15799
1.15797
1.15795
1.15792
1.15789
1.15786
1.15783
1.15779
1.15775
1.15771
1.15767
1.15763
1.15759
1.15755
1.15751
1.15748
1.15745
1.15742
1.15739
1.15736
1.15734
1.15732
1.15731
1.15729
1.15728
1.15727
1.15726
1.15725
1.15724
1.15724
1.15723
1.15723
1.15722
1.15722
1.15722
1.15721
1.15721
1.15721
1.1572
1.1572
1.1572
1.15719
1.15719
1.15719
1.15719
1.15718
1.15718
1.15718
1.15718
1.15717
1.15717
1.15717
1.15717
1.15716
1.15716
1.15716
1.15716
1.15715
1.15715
1.15715
1.15715
1.15715
1.15714
1.15714
1.15714
1.15714
1.15713
1.15713
1.15713
1.15713
1.15712
1.15712
1.15712
1.15712
1.15711
1.15711
1.15711
1.15711
1.1571
1.1571
1.1571
1.1571
1.1571
1.15709
1.15709
1.15709
1.15709
1.15708
1.15708
1.2277
1.22773
1.22776
1.2278
1.22785
1.22787
1.22787
1.22789
1.22794
1.22801
1.22808
1.22813
1.22815
1.22817
1.22816
1.22813
1.22808
1.22802
1.22798
1.22795
1.22793
1.22791
1.22787
1.22781
1.22774
1.22766
1.22758
1.2275
1.22744
1.2274
1.22739
1.2274
1.22742
1.22744
1.22745
1.22744
1.22743
1.22742
1.22742
1.22742
1.22743
1.22746
1.22749
1.22752
1.22753
1.22752
1.22747
1.22739
1.22729
1.22718
1.22706
1.22694
1.22682
1.2267
1.22657
1.22643
1.22628
1.22611
1.22592
1.22571
1.2255
1.22529
1.2251
1.22493
1.22478
1.22465
1.22452
1.22441
1.22429
1.22416
1.22403
1.2239
1.22376
1.22363
1.22351
1.22341
1.22332
1.22322
1.22313
1.22302
1.22289
1.22273
1.22256
1.22236
1.22214
1.22191
1.22168
1.22144
1.22121
1.22097
1.22072
1.22047
1.22019
1.21991
1.21961
1.2193
1.21899
1.21869
1.2184
1.21813
1.21787
1.21763
1.21741
1.21719
1.21698
1.21676
1.21654
1.21633
1.21611
1.21591
1.21571
1.21553
1.21535
1.21518
1.21501
1.21484
1.21465
1.21444
1.21422
1.21398
1.21373
1.21346
1.21318
1.2129
1.21262
1.21233
1.21204
1.21174
1.21144
1.21112
1.21079
1.21045
1.2101
1.20976
1.20943
1.2091
1.2088
1.2085
1.20822
1.20795
1.2077
1.20744
1.20719
1.20694
1.2067
1.20647
1.20624
1.20602
1.20581
1.20561
1.20542
1.20523
1.20504
1.20484
1.20463
1.20441
1.20417
1.20392
1.20366
1.2034
1.20313
1.20285
1.20257
1.20229
1.202
1.2017
1.2014
1.20109
1.20077
1.20045
1.20013
1.19981
1.1995
1.19921
1.19893
1.19866
1.1984
1.19816
1.19792
1.1977
1.19747
1.19726
1.19705
1.19685
1.19666
1.19649
1.19632
1.19616
1.196
1.19585
1.1957
1.19554
1.19537
1.1952
1.19501
1.19482
1.19462
1.19441
1.1942
1.19399
1.19377
1.19355
1.19332
1.19308
1.19284
1.19259
1.19234
1.19209
1.19184
1.19159
1.19136
1.19113
1.19092
1.19071
1.19052
1.19034
1.19017
1.19
1.18985
1.1897
1.18956
1.18943
1.18931
1.1892
1.1891
1.18901
1.18892
1.18884
1.18876
1.18867
1.18858
1.18848
1.18837
1.18826
1.18814
1.18802
1.18789
1.18775
1.18762
1.18747
1.18732
1.18717
1.18701
1.18684
1.18667
1.1865
1.18633
1.18616
1.186
1.18585
1.1857
1.18556
1.18544
1.18532
1.18521
1.18511
1.18502
1.18494
1.18486
1.1848
1.18474
1.18469
1.18465
1.18461
1.18459
1.18457
1.18455
1.18453
1.1845
1.18448
1.18444
1.1844
1.18436
1.18431
1.18425
1.18419
1.18412
1.18405
1.18398
1.1839
1.18381
1.18371
1.18361
1.18351
1.18341
1.1833
1.1832
1.1831
1.183
1.18292
1.18284
1.18276
1.1827
1.18264
1.18259
1.18255
1.18252
1.18249
1.18248
1.18247
1.18247
1.18248
1.18249
1.18251
1.18254
1.18256
1.18259
1.18261
1.18263
1.18265
1.18266
1.18267
1.18267
1.18266
1.18265
1.18263
1.1826
1.18257
1.18253
1.18248
1.18243
1.18237
1.18231
1.18225
1.18219
1.18212
1.18206
1.182
1.18194
1.18189
1.18184
1.18179
1.18175
1.18172
1.18168
1.18165
1.18163
1.18161
1.18159
1.18157
1.18156
1.18154
1.18153
1.18152
1.18151
1.1815
1.1815
1.18149
1.18148
1.18148
1.18147
1.18146
1.18146
1.18145
1.18145
1.18144
1.18143
1.18143
1.18142
1.18142
1.18141
1.18141
1.1814
1.1814
1.18139
1.18139
1.18138
1.18138
1.18137
1.18136
1.18136
1.18135
1.18135
1.18134
1.18134
1.18133
1.18133
1.18132
1.18132
1.18131
1.18131
1.1813
1.1813
1.18129
1.18129
1.18128
1.18128
1.18127
1.18127
1.18126
1.18125
1.18125
1.18124
1.18124
1.18123
1.18123
1.18122
1.18122
1.18122
1.18121
1.22771
1.22774
1.22777
1.22781
1.22786
1.22788
1.22788
1.2279
1.22795
1.22802
1.22808
1.22813
1.22816
1.22817
1.22816
1.22813
1.22808
1.22803
1.22799
1.22796
1.22795
1.22792
1.22789
1.22783
1.22777
1.2277
1.22763
1.22756
1.22751
1.22748
1.22749
1.22752
1.22756
1.2276
1.22763
1.22765
1.22767
1.22769
1.22772
1.22776
1.22781
1.22788
1.22796
1.22804
1.22811
1.22815
1.22817
1.22815
1.22812
1.22807
1.22803
1.22798
1.22794
1.2279
1.22786
1.22781
1.22775
1.22768
1.22758
1.22747
1.22736
1.22725
1.22717
1.22711
1.22707
1.22705
1.22705
1.22705
1.22705
1.22705
1.22704
1.22703
1.22703
1.22703
1.22704
1.22707
1.22711
1.22716
1.22721
1.22724
1.22725
1.22724
1.2272
1.22715
1.22707
1.22699
1.22691
1.22682
1.22673
1.22664
1.22654
1.22643
1.22631
1.22617
1.22602
1.22586
1.2257
1.22555
1.22541
1.22529
1.22519
1.2251
1.22503
1.22497
1.22491
1.22484
1.22478
1.22472
1.22466
1.22461
1.22457
1.22454
1.22452
1.22451
1.22449
1.22447
1.22444
1.22439