/*--------------------------------*- C++ -*----------------------------------*\
  =========                 |
  \\      /  F ield         | OpenFOAM: The Open Source CFD Toolbox
   \\    /   O peration     | Website:  https://openfoam.org
    \\  /    A nd           | Version:  7
     \\/     M anipulation  |
\*---------------------------------------------------------------------------*/
FoamFile
{
    version     2.0;
    format      ascii;
    class       volVectorField;
    location    "0.08";
    object      U_0;
}
// * * * * * * * * * * * * * * * * * * * * * * * * * * * * * * * * * * * * * //

dimensions      [0 1 -1 0 0 0 0];

internalField   nonuniform List<vector> 
27000
(
(8.55809 -0.946597 -238.56)
(10.4288 -2.50972 -244.028)
(8.57296 -3.49304 -243.994)
(8.96259 -4.26816 -244.983)
(8.17345 -4.84128 -245.515)
(8.08708 -5.32248 -246.287)
(7.62514 -5.69436 -246.925)
(7.41303 -6.01103 -247.633)
(7.08152 -6.26707 -248.293)
(6.85192 -6.48659 -248.966)
(6.59173 -6.66902 -249.607)
(6.38291 -6.8254 -250.233)
(6.17582 -6.95678 -250.831)
(6.00137 -7.07049 -251.41)
(5.83981 -7.16673 -251.966)
(5.70179 -7.24868 -252.503)
(5.57831 -7.31745 -253.017)
(5.47237 -7.37527 -253.508)
(5.37904 -7.42363 -253.975)
(5.29794 -7.46389 -254.418)
(5.22618 -7.49711 -254.832)
(5.16341 -7.5251 -255.217)
(5.10708 -7.54891 -255.572)
(5.05522 -7.56806 -255.9)
(5.00781 -7.58314 -256.206)
(4.96585 -7.59703 -256.499)
(4.92617 -7.60978 -256.785)
(4.88604 -7.61821 -257.058)
(4.84948 -7.62461 -257.316)
(4.81874 -7.63486 -257.56)
(4.78537 -7.64468 -257.788)
(4.74669 -7.64554 -257.995)
(4.71672 -7.64578 -258.196)
(4.69523 -7.65983 -258.409)
(4.65942 -7.66862 -258.624)
(4.61477 -7.65349 -258.813)
(4.59588 -7.64728 -258.991)
(4.59095 -7.67992 -259.186)
(4.54717 -7.69609 -259.375)
(4.47726 -7.65024 -259.516)
(9.84742 1.26547 -240.84)
(11.8863 2.01295 -245.184)
(10.9768 3.04125 -245.759)
(11.6567 3.62499 -246.361)
(11.4398 4.19681 -246.921)
(11.6703 4.58682 -247.389)
(11.6291 4.9369 -247.817)
(11.7171 5.19511 -248.186)
(11.709 5.41822 -248.523)
(11.7346 5.58881 -248.824)
(11.7183 5.73199 -249.101)
(11.7056 5.84286 -249.353)
(11.6699 5.93368 -249.586)
(11.6295 6.00554 -249.799)
(11.5775 6.06408 -249.996)
(11.5211 6.11022 -250.178)
(11.4581 6.14712 -250.347)
(11.3923 6.17609 -250.507)
(11.3237 6.19974 -250.66)
(11.2532 6.21867 -250.808)
(11.1813 6.23317 -250.955)
(11.1102 6.2451 -251.101)
(11.0393 6.25679 -251.248)
(10.9668 6.26591 -251.396)
(10.8947 6.27012 -251.545)
(10.8269 6.27491 -251.693)
(10.7598 6.28392 -251.842)
(10.6881 6.28782 -251.992)
(10.6198 6.28378 -252.142)
(10.561 6.28853 -252.294)
(10.4976 6.30337 -252.446)
(10.4255 6.30032 -252.597)
(10.3653 6.28318 -252.743)
(10.3168 6.29959 -252.891)
(10.251 6.32791 -253.04)
(10.1766 6.29826 -253.19)
(10.1338 6.25254 -253.318)
(10.1057 6.30334 -253.466)
(10.0287 6.37714 -253.617)
(9.9313 6.30657 -253.774)
(9.5737 -0.420541 -240.04)
(11.2945 -1.43453 -245.136)
(10.2935 -2.22241 -245.228)
(11.0545 -2.87411 -246.119)
(10.8809 -3.40578 -246.584)
(11.2359 -3.83102 -247.192)
(11.2903 -4.18073 -247.659)
(11.5003 -4.46712 -248.14)
(11.6056 -4.70393 -248.56)
(11.752 -4.90218 -248.963)
(11.8557 -5.06817 -249.331)
(11.9649 -5.20904 -249.678)
(12.0531 -5.32796 -249.998)
(12.1366 -5.42894 -250.299)
(12.2043 -5.51588 -250.579)
(12.2636 -5.59044 -250.842)
(12.3119 -5.6544 -251.089)
(12.3524 -5.70943 -251.322)
(12.3849 -5.75586 -251.542)
(12.4117 -5.79489 -251.752)
(12.4329 -5.82902 -251.953)
(12.4488 -5.8589 -252.148)
(12.4607 -5.88215 -252.337)
(12.4708 -5.90042 -252.52)
(12.4781 -5.91975 -252.7)
(12.4805 -5.93802 -252.876)
(12.4814 -5.94672 -253.047)
(12.4847 -5.95306 -253.211)
(12.4847 -5.97019 -253.373)
(12.4773 -5.98426 -253.534)
(12.4734 -5.98071 -253.685)
(12.4773 -5.98296 -253.831)
(12.4707 -6.00331 -253.976)
(12.4532 -6.01139 -254.121)
(12.4535 -5.99445 -254.251)
(12.4655 -5.99867 -254.38)
(12.4446 -6.03259 -254.502)
(12.4075 -6.03437 -254.636)
(12.4206 -5.98413 -254.737)
(12.4625 -5.98203 -254.845)
(9.71697 0.500376 -240.659)
(11.6182 1.22569 -245.129)
(10.7459 2.01811 -245.809)
(11.4311 2.56394 -246.508)
(11.2531 3.09883 -247.168)
(11.5248 3.49326 -247.731)
(11.5418 3.84918 -248.249)
(11.697 4.12619 -248.698)
(11.7721 4.3659 -249.104)
(11.8908 4.55851 -249.461)
(11.9811 4.72191 -249.781)
(12.0834 4.85493 -250.065)
(12.1727 4.96617 -250.318)
(12.2622 5.05622 -250.543)
(12.3441 5.13034 -250.742)
(12.4237 5.19046 -250.918)
(12.4976 5.23973 -251.073)
(12.5677 5.27982 -251.21)
(12.6331 5.31263 -251.332)
(12.6951 5.33918 -251.44)
(12.7533 5.36087 -251.539)
(12.8079 5.37897 -251.629)
(12.8592 5.39387 -251.713)
(12.9086 5.40523 -251.791)
(12.9558 5.41442 -251.864)
(12.9991 5.42313 -251.934)
(13.0403 5.42982 -251.999)
(13.0824 5.43316 -252.062)
(13.1217 5.43695 -252.12)
(13.155 5.44329 -252.175)
(13.1892 5.44693 -252.228)
(13.2266 5.4453 -252.278)
(13.2582 5.44624 -252.323)
(13.283 5.45427 -252.368)
(13.3126 5.45634 -252.41)
(13.3468 5.44562 -252.447)
(13.3704 5.44259 -252.481)
(13.386 5.45847 -252.515)
(13.4154 5.46343 -252.545)
(13.4535 5.4371 -252.567)
(9.61043 -0.340556 -240.425)
(11.3535 -1.08372 -245.133)
(10.4189 -1.78836 -245.65)
(11.129 -2.34491 -246.49)
(10.966 -2.86103 -247.233)
(11.2854 -3.26267 -247.899)
(11.3345 -3.61536 -248.515)
(11.5273 -3.89878 -249.062)
(11.6299 -4.14051 -249.563)
(11.7735 -4.33985 -250.015)
(11.8826 -4.50832 -250.426)
(12.0002 -4.64889 -250.8)
(12.102 -4.76681 -251.14)
(12.2031 -4.86481 -251.448)
(12.2945 -4.94644 -251.728)
(12.3814 -5.01459 -251.981)
(12.4612 -5.0717 -252.211)
(12.5364 -5.11959 -252.42)
(12.6063 -5.15949 -252.611)
(12.6724 -5.19255 -252.785)
(12.7347 -5.22047 -252.946)
(12.7935 -5.24415 -253.096)
(12.8494 -5.26309 -253.236)
(12.9036 -5.27788 -253.367)
(12.9558 -5.29137 -253.491)
(13.0049 -5.30391 -253.608)
(13.0524 -5.31178 -253.718)
(13.1004 -5.31632 -253.822)
(13.1467 -5.32447 -253.919)
(13.1886 -5.33339 -254.011)
(13.2308 -5.33435 -254.097)
(13.2762 -5.33349 -254.177)
(13.3169 -5.34102 -254.254)
(13.3516 -5.34717 -254.325)
(13.3927 -5.34016 -254.389)
(13.4398 -5.3367 -254.448)
(13.4715 -5.35237 -254.507)
(13.4904 -5.35963 -254.562)
(13.5315 -5.33381 -254.602)
(13.5919 -5.3149 -254.635)
(9.6155 0.332624 -240.434)
(11.3697 1.06344 -245.125)
(10.4361 1.75842 -245.657)
(11.1391 2.31144 -246.488)
(10.9675 2.82922 -247.243)
(11.2764 3.23485 -247.909)
(11.3155 3.59382 -248.527)
(11.4996 3.88361 -249.076)
(11.5952 4.13189 -249.58)
(11.7335 4.33673 -250.034)
(11.8393 4.50968 -250.449)
(11.9558 4.65331 -250.824)
(12.0578 4.77323 -251.166)
(12.1593 4.87267 -251.477)
(12.2514 4.95542 -251.759)
(12.34 5.02397 -252.015)
(12.422 5.08093 -252.247)
(12.4997 5.12819 -252.458)
(12.5723 5.1671 -252.651)
(12.6414 5.19892 -252.827)
(12.7066 5.22559 -252.991)
(12.7682 5.24812 -253.142)
(12.8269 5.26586 -253.284)
(12.8837 5.27948 -253.418)
(12.9382 5.29231 -253.544)
(12.9895 5.30432 -253.663)
(13.0393 5.31098 -253.775)
(13.0895 5.31448 -253.88)
(13.1374 5.32301 -253.98)
(13.181 5.33223 -254.075)
(13.2252 5.33178 -254.163)
(13.2718 5.33091 -254.245)
(13.3131 5.34138 -254.324)
(13.349 5.34831 -254.399)
(13.3926 5.33821 -254.464)
(13.4406 5.33633 -254.525)
(13.4716 5.35798 -254.589)
(13.4926 5.36447 -254.647)
(13.5377 5.32996 -254.686)
(13.6021 5.31346 -254.721)
(9.71273 -0.499259 -240.647)
(11.6069 -1.21683 -245.125)
(10.7397 -2.0054 -245.803)
(11.4366 -2.54831 -246.506)
(11.2712 -3.08071 -247.163)
(11.5548 -3.47449 -247.722)
(11.5823 -3.82974 -248.235)
(11.7456 -4.1076 -248.68)
(11.8269 -4.34825 -249.082)
(11.9493 -4.5426 -249.436)
(12.0417 -4.7077 -249.754)
(12.1439 -4.84314 -250.036)
(12.2319 -4.9568 -250.289)
(12.3207 -5.04965 -250.514)
(12.4015 -5.12646 -250.713)
(12.4791 -5.18943 -250.89)
(12.5507 -5.24146 -251.046)
(12.6183 -5.28421 -251.185)
(12.681 -5.31952 -251.309)
(12.7401 -5.34831 -251.421)
(12.7958 -5.37184 -251.523)
(12.8478 -5.39145 -251.617)
(12.8965 -5.40771 -251.705)
(12.9435 -5.42016 -251.788)
(12.9886 -5.42991 -251.867)
(13.0298 -5.43923 -251.943)
(13.0685 -5.44698 -252.015)
(13.1085 -5.45051 -252.084)
(13.1465 -5.45332 -252.15)
(13.1774 -5.45959 -252.213)
(13.2087 -5.46381 -252.275)
(13.2457 -5.46059 -252.333)
(13.2764 -5.45865 -252.387)
(13.2973 -5.46762 -252.441)
(13.3241 -5.47166 -252.494)
(13.3594 -5.45645 -252.542)
(13.3825 -5.44682 -252.585)
(13.3913 -5.46834 -252.627)
(13.4182 -5.48161 -252.669)
(13.4615 -5.44632 -252.706)
(9.5812 0.396071 -240.045)
(11.3148 1.37402 -245.132)
(10.3089 2.14096 -245.227)
(11.0641 2.78612 -246.131)
(10.8804 3.32251 -246.604)
(11.2254 3.75825 -247.22)
(11.2712 4.12183 -247.695)
(11.4741 4.42271 -248.185)
(11.5743 4.67359 -248.614)
(11.7174 4.88445 -249.028)
(11.8195 5.06148 -249.407)
(11.9288 5.21142 -249.766)
(12.0176 5.33866 -250.101)
(12.1016 5.44689 -250.419)
(12.1708 5.53844 -250.718)
(12.2321 5.61601 -251.001)
(12.2829 5.68149 -251.269)
(12.3263 5.73704 -251.525)
(12.3618 5.78316 -251.769)
(12.3916 5.8212 -252.003)
(12.416 5.85413 -252.23)
(12.4348 5.88301 -252.451)
(12.4491 5.90507 -252.666)
(12.4616 5.92175 -252.877)
(12.4712 5.94019 -253.083)
(12.4751 5.9584 -253.286)
(12.4772 5.9657 -253.484)
(12.4825 5.96968 -253.677)
(12.4843 5.9875 -253.866)
(12.4767 6.00322 -254.052)
(12.473 5.99615 -254.23)
(12.4798 5.99635 -254.403)
(12.4738 6.02298 -254.574)
(12.4522 6.03353 -254.74)
(12.4542 6.00772 -254.894)
(12.4745 6.01173 -255.051)
(12.4501 6.05851 -255.188)
(12.4005 6.06153 -255.338)
(12.4202 5.98838 -255.461)
(12.4869 5.98549 -255.601)
(9.84435 -1.25566 -240.796)
(11.891 -1.97324 -245.168)
(11.0019 -2.98161 -245.817)
(11.6999 -3.56094 -246.472)
(11.5017 -4.13037 -247.113)
(11.7462 -4.5267 -247.654)
(11.7172 -4.88307 -248.168)
(11.8138 -5.1508 -248.621)
(11.8128 -5.38263 -249.05)
(11.8432 -5.56265 -249.441)
(11.8304 -5.7145 -249.812)
(11.8196 -5.83391 -250.158)
(11.7849 -5.93303 -250.486)
(11.7441 -6.01217 -250.793)
(11.6909 -6.07697 -251.083)
(11.6324 -6.12853 -251.355)
(11.5667 -6.16997 -251.611)
(11.4975 -6.20269 -251.854)
(11.4248 -6.22945 -252.085)
(11.3497 -6.25092 -252.308)
(11.2727 -6.26704 -252.525)
(11.1962 -6.27979 -252.735)
(11.1199 -6.29227 -252.942)
(11.0416 -6.30205 -253.146)
(10.9633 -6.30579 -253.347)
(10.8899 -6.31004 -253.54)
(10.8172 -6.32025 -253.732)
(10.7384 -6.32448 -253.926)
(10.6628 -6.31722 -254.109)
(10.5996 -6.32026 -254.282)
(10.5311 -6.33803 -254.461)
(10.45 -6.33326 -254.643)
(10.3849 -6.30695 -254.797)
(10.3376 -6.32548 -254.943)
(10.2655 -6.3662 -255.115)
(10.1791 -6.32683 -255.288)
(10.1383 -6.25472 -255.381)
(10.1211 -6.32169 -255.496)
(10.0325 -6.43554 -255.685)
(9.90931 -6.34125 -255.885)
(8.55632 0.874913 -239.389)
(10.4993 2.38537 -246.256)
(8.63035 3.34444 -247.584)
(9.03234 4.12772 -249.685)
(8.2343 4.72522 -251.255)
(8.14888 5.23194 -252.883)
(7.68484 5.63105 -254.276)
(7.4755 5.96984 -255.596)
(7.14758 6.24591 -256.766)
(6.92388 6.48089 -257.834)
(6.67068 6.6764 -258.78)
(6.46974 6.8427 -259.623)
(6.2708 6.98242 -260.361)
(6.1041 7.10203 -261.005)
(5.94982 7.20276 -261.563)
(5.81819 7.28759 -262.044)
(5.69991 7.35812 -262.457)
(5.59783 7.41683 -262.81)
(5.50696 7.46554 -263.112)
(5.42687 7.50576 -263.372)
(5.35479 7.53857 -263.595)
(5.29074 7.56603 -263.789)
(5.23245 7.58955 -263.961)
(5.17775 7.60842 -264.113)
(5.12678 7.62292 -264.247)
(5.08128 7.63668 -264.371)
(5.03781 7.65003 -264.489)
(4.99257 7.65814 -264.594)
(4.95075 7.663 -264.687)
(4.91648 7.67332 -264.784)
(4.87938 7.68434 -264.881)
(4.83432 7.68335 -264.957)
(4.79999 7.68054 -265.024)
(4.77884 7.69809 -265.118)
(4.73928 7.71084 -265.212)
(4.68409 7.68786 -265.254)
(4.66434 7.673 -265.293)
(4.66919 7.71888 -265.412)
(4.62002 7.74742 -265.532)
(4.52671 7.68103 -265.525)
(14.5298 1.59936 0.215154)
(11.7705 3.56186 0.0902604)
(12.5759 4.69538 0.161219)
(11.3456 5.41667 0.115529)
(10.9388 5.91015 0.139463)
(10.0857 6.23145 0.122306)
(9.45377 6.44206 0.129964)
(8.75078 6.57504 0.122991)
(8.15183 6.65355 0.125)
(7.58732 6.69803 0.121785)
(7.10443 6.7201 0.121883)
(6.68417 6.73125 0.120123)
(6.33443 6.73817 0.119635)
(6.04429 6.74594 0.118523)
(5.80778 6.75686 0.117954)
(5.61505 6.77167 0.117219)
(5.45794 6.7902 0.116754)
(5.32883 6.8119 0.116283)
(5.22092 6.83604 0.115964)
(5.12874 6.86157 0.115675)
(5.04796 6.88734 0.115471)
(4.97584 6.91226 0.115303)
(4.91054 6.93582 0.115177)
(4.85128 6.95826 0.115048)
(4.79749 6.98002 0.114943)
(4.74771 7.00139 0.114879)
(4.69975 7.02257 0.114819)
(4.65276 7.04307 0.11472)
(4.60716 7.06146 0.114657)
(4.56252 7.07698 0.11466)
(4.51876 7.09087 0.11459)
(4.47906 7.10512 0.114414)
(4.44482 7.11988 0.114382)
(4.40988 7.13467 0.114454)
(4.37001 7.15064 0.1143)
(4.33254 7.16648 0.114005)
(4.30137 7.17777 0.114184)
(4.26587 7.18465 0.114447)
(4.22349 7.19516 0.114139)
(4.19343 7.21222 0.113411)
(14.0133 -0.632182 0.0245801)
(10.9584 -1.41842 -0.094092)
(12.5035 -1.9728 -0.0312658)
(11.8424 -2.50533 -0.0726343)
(12.2505 -2.84767 -0.050105)
(12.1045 -3.15427 -0.0648692)
(12.1635 -3.38263 -0.057455)
(12.0583 -3.58527 -0.0630463)
(11.9764 -3.75689 -0.0608461)
(11.8346 -3.91442 -0.0632185)
(11.6863 -4.05765 -0.0627899)
(11.5151 -4.19129 -0.0639558)
(11.3395 -4.31386 -0.0640586)
(11.1585 -4.42553 -0.0646717)
(10.9798 -4.52521 -0.0648854)
(10.805 -4.6135 -0.0652684)
(10.6369 -4.69086 -0.0654778)
(10.4765 -4.75835 -0.0657372)
(10.3247 -4.81674 -0.0659242)
(10.1817 -4.86733 -0.0661321)
(10.0474 -4.91124 -0.0663118)
(9.92133 -4.94946 -0.0664961)
(9.80298 -4.98337 -0.0666787)
(9.69131 -5.01461 -0.06688)
(9.58559 -5.04306 -0.0670749)
(9.48595 -5.06751 -0.0672637)
(9.3922 -5.08891 -0.0674787)
(9.3032 -5.10938 -0.0677259)
(9.21864 -5.12745 -0.0679414)
(9.13909 -5.1416 -0.068126)
(9.06357 -5.15694 -0.0683836)
(8.99018 -5.17753 -0.0686647)
(8.91862 -5.19398 -0.0688601)
(8.85114 -5.20035 -0.0690263)
(8.7881 -5.21154 -0.0693842)
(8.72675 -5.2341 -0.0696799)
(8.66617 -5.24401 -0.0698021)
(8.60928 -5.23575 -0.0698714)
(8.55595 -5.24856 -0.0704205)
(8.50118 -5.29562 -0.0708141)
(14.0953 0.446383 0.127472)
(11.6303 1.55787 0.02458)
(12.9762 2.28522 0.0863672)
(12.3566 2.96322 0.0458169)
(12.6715 3.45021 0.0687075)
(12.558 3.84702 0.0530351)
(12.6656 4.13732 0.0603101)
(12.6783 4.35943 0.0539107)
(12.7423 4.51933 0.055688)
(12.7788 4.63726 0.0526922)
(12.8209 4.72125 0.052645)
(12.8477 4.78336 0.0509488)
(12.8673 4.82999 0.050344)
(12.875 4.86777 0.0491624)
(12.8744 4.89996 0.0484631)
(12.8657 4.92927 0.0476281)
(12.8513 4.95682 0.0470201)
(12.8323 4.98333 0.0464056)
(12.8102 5.00893 0.0459187)
(12.7862 5.03354 0.0454611)
(12.7612 5.05664 0.0450748)
(12.7358 5.07773 0.0447225)
(12.7107 5.09712 0.0444207)
(12.6859 5.11557 0.0441361)
(12.6607 5.13284 0.0438679)
(12.6355 5.1485 0.0436294)
(12.6113 5.16364 0.0434216)
(12.5881 5.17871 0.0431974)
(12.5645 5.19127 0.042967)
(12.5417 5.20038 0.0427993)
(12.5218 5.20986 0.0426351)
(12.5014 5.22191 0.0423937)
(12.4773 5.23199 0.0421537)
(12.4546 5.23847 0.0420857)
(12.4377 5.24735 0.0418885)
(12.4192 5.26111 0.0415336)
(12.3936 5.2691 0.0413039)
(12.3734 5.26729 0.0414925)
(12.3661 5.2716 0.0412783)
(12.3505 5.29275 0.0405769)
(14.0184 -0.195941 0.0607058)
(11.0491 -0.802131 -0.0507832)
(12.365 -1.22202 0.0097338)
(11.6102 -1.68276 -0.0301778)
(11.9743 -1.99785 -0.00786576)
(11.8618 -2.29478 -0.0223031)
(12.0278 -2.51174 -0.0148954)
(12.0856 -2.70264 -0.0203903)
(12.2123 -2.85453 -0.0182494)
(12.3105 -2.98897 -0.0206268)
(12.4208 -3.10535 -0.0203014)
(12.5171 -3.21205 -0.0215492)
(12.6087 -3.30937 -0.0217979)
(12.6888 -3.39972 -0.0225644)
(12.7603 -3.48266 -0.0229315)
(12.8222 -3.55887 -0.0234765)
(12.8763 -3.62817 -0.0238462)
(12.9232 -3.6909 -0.0242522)
(12.9643 -3.74713 -0.0245708)
(13.0006 -3.79728 -0.0248856)
(13.0331 -3.84184 -0.0251563)
(13.0624 -3.88164 -0.0254152)
(13.0888 -3.91751 -0.0256469)
(13.1129 -3.95002 -0.0258723)
(13.1353 -3.97937 -0.0260908)
(13.1561 -4.00567 -0.0262973)
(13.1755 -4.02919 -0.0264899)
(13.1943 -4.05024 -0.026693)
(13.2128 -4.06901 -0.0269001)
(13.2301 -4.08632 -0.0270785)
(13.2459 -4.10393 -0.0272418)
(13.261 -4.12152 -0.0274542)
(13.2762 -4.13595 -0.0276443)
(13.2909 -4.14781 -0.0277996)
(13.304 -4.16194 -0.027952)
(13.3167 -4.17698 -0.0282172)
(13.3309 -4.18584 -0.0283506)
(13.3451 -4.1912 -0.0284528)
(13.3551 -4.20669 -0.0285667)
(13.3626 -4.22869 -0.0289865)
(14.0662 0.184918 0.0917942)
(11.358 0.847923 -0.0125187)
(12.6482 1.29975 0.0478728)
(11.9189 1.81227 0.00846669)
(12.2058 2.17776 0.0309319)
(12.0471 2.51401 0.0160726)
(12.1469 2.76392 0.0232601)
(12.155 2.97376 0.0173109)
(12.2349 3.13488 0.0191101)
(12.2976 3.26767 0.0163476)
(12.3794 3.37458 0.0163511)
(12.4554 3.4655 0.0147967)
(12.5328 3.54349 0.0142692)
(12.6043 3.61305 0.0132112)
(12.6713 3.67567 0.0125728)
(12.7322 3.73305 0.0118005)
(12.788 3.78573 0.0112302)
(12.8388 3.83429 0.0106506)
(12.8856 3.87887 0.0101832)
(12.9291 3.91964 0.0097412)
(12.9702 3.9566 0.00936366)
(13.0094 3.98995 0.00901515)
(13.047 4.02014 0.0087088)
(13.0833 4.04767 0.00842243)
(13.1185 4.07271 0.00815748)
(13.1526 4.09541 0.00791131)
(13.1858 4.11631 0.00768834)
(13.2188 4.1356 0.00746835)
(13.2519 4.15257 0.0072521)
(13.2847 4.16724 0.00705895)
(13.3168 4.18161 0.00687655)
(13.348 4.19628 0.0066725)
(13.3789 4.20888 0.0064672)
(13.4095 4.21959 0.00631525)
(13.4392 4.23234 0.00615869)
(13.468 4.24604 0.00590865)
(13.4976 4.25443 0.00572088)
(13.5279 4.25867 0.00563711)
(13.5571 4.27063 0.005582)
(13.5824 4.28916 0.00520907)
(14.0663 -0.186154 0.0896246)
(11.3599 -0.848029 -0.015148)
(12.6505 -1.30213 0.0452525)
(11.9218 -1.81628 0.00595906)
(12.209 -2.18532 0.0286132)
(12.0509 -2.52475 0.0140186)
(12.1516 -2.77806 0.0214773)
(12.1608 -2.99102 0.0158157)
(12.2418 -3.15499 0.0178831)
(12.3056 -3.29018 0.015376)
(12.3885 -3.39906 0.0156026)
(12.4654 -3.49152 0.0142344)
(12.5434 -3.57069 0.0138569)
(12.6151 -3.64103 0.0129467)
(12.6821 -3.70406 0.0124431)
(12.7427 -3.76152 0.0117785)
(12.7979 -3.814 0.0112975)
(12.848 -3.86209 0.0107886)
(12.8939 -3.906 0.0103759)
(12.9364 -3.94601 0.00997527)
(12.9764 -3.98225 0.00962879)
(13.0143 -4.015 0.00930226)
(13.0505 -4.04472 0.00901017)
(13.0856 -4.07189 0.00873189)
(13.1197 -4.09648 0.00847058)
(13.1531 -4.11848 0.00822691)
(13.1859 -4.13855 0.00799952)
(13.2185 -4.15723 0.00777181)
(13.251 -4.17387 0.00754699)
(13.2831 -4.18838 0.00734368)
(13.3147 -4.20281 0.00714728)
(13.3455 -4.2179 0.0069251)
(13.3758 -4.23059 0.00670721)
(13.4068 -4.23988 0.00654351)
(13.4378 -4.25108 0.00634906)
(13.4666 -4.26537 0.00608237)
(13.4939 -4.27503 0.00586135)
(13.5245 -4.27779 0.00578226)
(13.5561 -4.2874 0.00560742)
(13.5821 -4.3071 0.00522657)
(14.0185 0.19744 0.0633434)
(11.0487 0.803259 -0.0477877)
(12.3619 1.22235 0.01263)
(11.6056 1.6828 -0.0275498)
(11.9681 1.99691 -0.00552014)
(11.8545 2.29338 -0.0202939)
(12.02 2.50988 -0.0132093)
(12.0778 2.70092 -0.0190104)
(12.2047 2.85343 -0.0171527)
(12.3034 2.98913 -0.0197789)
(12.4144 3.10726 -0.019671)
(12.5117 3.21611 -0.0210941)
(12.6045 3.31575 -0.0214798)
(12.6861 3.40852 -0.0223904)
(12.7591 3.49391 -0.0228943)
(12.8227 3.57244 -0.0235415)
(12.8784 3.64388 -0.0239986)
(12.9269 3.70854 -0.0244741)
(12.9694 3.76653 -0.0248491)
(13.0069 3.81826 -0.0252085)
(13.0405 3.86411 -0.0255148)
(13.0707 3.90481 -0.0258024)
(13.0979 3.9411 -0.0260555)
(13.1227 3.97358 -0.0262966)
(13.1457 4.00266 -0.0265268)
(13.167 4.0288 -0.0267418)
(13.1865 4.05244 -0.0269355)
(13.2052 4.07389 -0.0271365)
(13.2235 4.09296 -0.0273437)
(13.2406 4.10995 -0.0275171)
(13.2561 4.12686 -0.0276652)
(13.271 4.14371 -0.027869)
(13.2862 4.15707 -0.0280586)
(13.3006 4.16812 -0.0281927)
(13.3123 4.18378 -0.0282954)
(13.3233 4.20092 -0.0285699)
(13.3378 4.20835 -0.028671)
(13.3521 4.20992 -0.0287492)
(13.361 4.22649 -0.0287457)
(13.3666 4.25235 -0.0292368)
(14.0948 -0.447468 0.125067)
(11.6274 -1.55623 0.0215601)
(12.9753 -2.28816 0.0835556)
(12.3563 -2.97082 0.0431074)
(12.6732 -3.4656 0.0662528)
(12.5624 -3.86997 0.0508971)
(12.6731 -4.16856 0.0584669)
(12.6893 -4.39829 0.0523901)
(12.7565 -4.5655 0.0544467)
(12.796 -4.68992 0.0517241)
(12.8403 -4.77973 0.0519098)
(12.8686 -4.84684 0.0504221)
(12.8888 -4.89766 0.0499943)
(12.8963 -4.93875 0.0489976)
(12.8948 -4.97341 0.0484515)
(12.8847 -5.00432 0.0477464)
(12.8685 -5.03269 0.0472455)
(12.8474 -5.05928 0.0467167)
(12.8231 -5.08436 0.0462964)
(12.797 -5.10808 0.0458887)
(12.7698 -5.13023 0.0455374)
(12.742 -5.15044 0.0452078)
(12.7146 -5.16905 0.0449201)
(12.6878 -5.18677 0.0446422)
(12.6609 -5.20312 0.0443729)
(12.6342 -5.21728 0.0441309)
(12.6091 -5.23064 0.0439176)
(12.5853 -5.24446 0.0436786)
(12.5604 -5.25639 0.0434248)
(12.5358 -5.26496 0.0432417)
(12.5147 -5.27408 0.0430665)
(12.4942 -5.28651 0.0427856)
(12.4685 -5.29668 0.042507)
(12.4441 -5.30001 0.0424529)
(12.4293 -5.3055 0.0422303)
(12.4123 -5.32108 0.0417858)
(12.3803 -5.33227 0.0414815)
(12.3554 -5.32677 0.0418035)
(12.3535 -5.32595 0.0415264)
(12.3438 -5.34997 0.0405768)
(14.0133 0.639762 0.0287589)
(10.956 1.41963 -0.0899036)
(12.4963 1.97406 -0.0275741)
(11.8324 2.50772 -0.0695268)
(12.2392 2.85163 -0.0475539)
(12.0933 3.16156 -0.0628846)
(12.153 3.3938 -0.0559689)
(12.0487 3.60184 -0.0620249)
(11.9674 3.77986 -0.0602304)
(11.8259 3.94481 -0.0629712)
(11.6774 4.09596 -0.0628607)
(11.5058 4.23767 -0.0643072)
(11.3297 4.36806 -0.0646458)
(11.1482 4.48712 -0.065468)
(10.9691 4.59347 -0.0658465)
(10.7938 4.68749 -0.066374)
(10.6253 4.76956 -0.0667018)
(10.4644 4.84074 -0.0670597)
(10.3121 4.90192 -0.0673277)
(10.1682 4.95458 -0.0676013)
(10.0327 4.99996 -0.0678325)
(9.9052 5.03891 -0.0680577)
(9.78522 5.07263 -0.0682731)
(9.67193 5.103 -0.0685002)
(9.56459 5.13025 -0.0687101)
(9.46332 5.15319 -0.0689032)
(9.3679 5.17321 -0.0691203)
(9.27686 5.19335 -0.0693669)
(9.18967 5.21157 -0.0695661)
(9.10742 5.22431 -0.0697253)
(9.02945 5.23714 -0.0699759)
(8.95368 5.25623 -0.0702537)
(8.88011 5.27103 -0.0704051)
(8.81075 5.2731 -0.0705155)
(8.74579 5.28183 -0.0708897)
(8.6822 5.30994 -0.0711647)
(8.61946 5.32226 -0.0711968)
(8.55955 5.30284 -0.0711827)
(8.50581 5.30554 -0.0718553)
(8.45159 5.36585 -0.0722758)
(14.5403 -1.58826 0.211771)
(11.7813 -3.54418 0.0857785)
(12.6023 -4.68911 0.157547)
(11.386 -5.42132 0.112285)
(10.9906 -5.93083 0.136855)
(10.147 -6.26564 0.12029)
(9.52032 -6.48999 0.128528)
(8.82011 -6.63478 0.122092)
(8.22097 -6.72472 0.124605)
(7.65439 -6.77979 0.121834)
(7.16785 -6.81224 0.12233)
(6.74282 -6.83335 0.120909)
(6.38748 -6.84974 0.120711)
(6.09113 -6.8663 0.119833)
(5.84822 -6.88509 0.119447)
(5.64911 -6.9068 0.118843)
(5.48585 -6.93119 0.118463)
(5.35101 -6.95764 0.118035)
(5.23804 -6.98541 0.117725)
(5.14168 -7.01361 0.117414)
(5.05777 -7.04142 0.117164)
(4.98339 -7.0681 0.116938)
(4.91606 -7.09338 0.116746)
(4.85438 -7.11737 0.116547)
(4.79759 -7.14008 0.116367)
(4.7445 -7.16135 0.11623)
(4.6934 -7.1814 0.116094)
(4.64419 -7.20038 0.115902)
(4.59792 -7.21767 0.115743)
(4.5533 -7.23296 0.115674)
(4.50834 -7.24738 0.115539)
(4.46591 -7.26182 0.115267)
(4.4288 -7.27545 0.11516)
(4.3908 -7.28712 0.115212)
(4.34747 -7.29878 0.114988)
(4.30967 -7.31235 0.114518)
(4.28326 -7.32424 0.114671)
(4.2491 -7.33202 0.115016)
(4.19861 -7.33997 0.114613)
(4.16206 -7.35617 0.113547)
(11.7945 -0.142578 -0.0923663)
(11.6278 -0.199582 0.0229865)
(11.8183 -0.196685 -0.0487678)
(11.5302 -0.163998 -0.0256212)
(11.6386 -0.0891658 -0.0410465)
(11.4501 -0.00876718 -0.0387298)
(11.4495 0.0863084 -0.0427452)
(11.3129 0.1825 -0.0440277)
(11.2484 0.281038 -0.0458079)
(11.1252 0.377992 -0.0474588)
(11.0258 0.472714 -0.0487395)
(10.9011 0.564367 -0.0501357)
(10.7834 0.652466 -0.0511718)
(10.6552 0.737092 -0.0522544)
(10.5297 0.818125 -0.0531045)
(10.4008 0.895798 -0.0539569)
(10.274 0.97013 -0.0546807)
(10.1473 1.04135 -0.0553966)
(10.0232 1.10952 -0.0560484)
(9.90106 1.1748 -0.0566944)
(9.78185 1.23726 -0.0573079)
(9.66536 1.29705 -0.057913)
(9.55188 1.35413 -0.0584976)
(9.44143 1.40855 -0.0590735)
(9.33436 1.46054 -0.0596343)
(9.23063 1.51019 -0.0601863)
(9.13017 1.5573 -0.0607319)
(9.03313 1.60219 -0.0612714)
(8.93951 1.64542 -0.0617945)
(8.84864 1.6866 -0.0622985)
(8.7601 1.72504 -0.0627951)
(8.67474 1.76179 -0.0632756)
(8.5928 1.79798 -0.0637346)
(8.51286 1.83196 -0.0641971)
(8.43474 1.86261 -0.064692)
(8.36043 1.89307 -0.0651654)
(8.28947 1.92506 -0.0655718)
(8.21815 1.95345 -0.0659972)
(8.14693 1.97559 -0.066471)
(8.08151 1.99867 -0.0668985)
(11.877 6.49053e-05 0.0296858)
(11.8446 -0.043893 0.164539)
(12.181 -0.0799884 0.100978)
(12.0027 -0.154034 0.133991)
(12.2349 -0.232142 0.120333)
(12.1689 -0.31881 0.12614)
(12.2924 -0.409831 0.122676)
(12.2871 -0.500343 0.122171)
(12.3508 -0.592192 0.12018)
(12.3597 -0.681799 0.118254)
(12.3878 -0.770947 0.116361)
(12.3896 -0.85791 0.114335)
(12.3926 -0.943718 0.112606)
(12.3808 -1.02754 0.110891)
(12.3648 -1.10977 0.10946)
(12.3393 -1.18996 0.108121)
(12.309 -1.26824 0.106993)
(12.2724 -1.34442 0.105964)
(12.2317 -1.41848 0.105075)
(12.1868 -1.49031 0.104262)
(12.1389 -1.55983 0.103533)
(12.0881 -1.62688 0.102855)
(12.0353 -1.69144 0.102232)
(11.9807 -1.75367 0.101649)
(11.9247 -1.81364 0.101109)
(11.8676 -1.8711 0.100605)
(11.8097 -1.92607 0.10013)
(11.7512 -1.97895 0.0996664)
(11.6922 -2.0295 0.0992137)
(11.6331 -2.07702 0.0987861)
(11.574 -2.12218 0.0983742)
(11.5146 -2.16635 0.0979773)
(11.4554 -2.20858 0.0975985)
(11.3969 -2.24725 0.0972605)
(11.3388 -2.28432 0.0969061)
(11.2807 -2.32215 0.0965302)
(11.2235 -2.35742 0.0961748)
(11.1683 -2.38674 0.0958754)
(11.1136 -2.41571 0.095555)
(11.0579 -2.45048 0.0952113)
(11.8356 0.0138347 -0.0464883)
(11.776 0.0909664 0.0654439)
(12.0586 0.139504 0.00161537)
(11.8823 0.217731 0.027618)
(12.104 0.301326 0.0132743)
(12.0473 0.395354 0.0165008)
(12.1805 0.495814 0.0125323)
(12.1938 0.599579 0.0111228)
(12.2821 0.704858 0.00896629)
(12.3228 0.809382 0.00681834)
(12.39 0.912085 0.00496971)
(12.4376 1.01192 0.00297387)
(12.4929 1.10841 0.00135837)
(12.5391 1.20123 -0.000249745)
(12.5859 1.29027 -0.00154497)
(12.6276 1.37549 -0.00275371)
(12.6678 1.45695 -0.00374457)
(12.7044 1.53475 -0.00464182)
(12.739 1.609 -0.00540095)
(12.7708 1.67982 -0.00609283)
(12.8006 1.74738 -0.00670742)
(12.8281 1.81173 -0.00728147)
(12.8537 1.8729 -0.00781424)
(12.8773 1.93106 -0.00832202)
(12.8991 1.98643 -0.00879723)
(12.919 2.03903 -0.00924631)
(12.9374 2.08888 -0.00968124)
(12.9543 2.13634 -0.0101112)
(12.9694 2.18173 -0.0105268)
(12.9832 2.22469 -0.0109312)
(12.9959 2.26493 -0.0113404)
(13.0075 2.30331 -0.0117367)
(13.0175 2.34048 -0.012083)
(13.0266 2.37542 -0.0124234)
(13.0353 2.40743 -0.0128081)
(13.0428 2.43853 -0.0131801)
(13.0484 2.46973 -0.0134861)
(13.0537 2.49819 -0.0138236)
(13.06 2.52223 -0.0142447)
(13.0647 2.54638 -0.0146186)
(11.8538 -0.0306067 -0.00892208)
(11.802 -0.145273 0.11855)
(12.1193 -0.219159 0.0567088)
(11.9375 -0.333006 0.0888926)
(12.1661 -0.428864 0.0753447)
(12.0973 -0.535178 0.0813703)
(12.2229 -0.637147 0.0780792)
(12.2239 -0.738737 0.0779571)
(12.3016 -0.837915 0.0763475)
(12.3321 -0.933962 0.0748541)
(12.3909 -1.02735 0.0733733)
(12.4321 -1.11734 0.0717148)
(12.483 -1.20459 0.0702913)
(12.5271 -1.28875 0.0688127)
(12.5741 -1.37025 0.0675519)
(12.6181 -1.44896 0.0663273)
(12.6628 -1.52511 0.0652716)
(12.7058 -1.59867 0.0642827)
(12.7487 -1.66977 0.0634116)
(12.7905 -1.73839 0.0626019)
(12.8318 -1.80454 0.0618694)
(12.8722 -1.86822 0.0611838)
(12.912 -1.9295 0.0605507)
(12.951 -1.98844 0.0599566)
(12.9891 -2.04505 0.0594007)
(13.0265 -2.09934 0.058871)
(13.0629 -2.15139 0.0583652)
(13.0984 -2.20129 0.0578798)
(13.1329 -2.24891 0.0574109)
(13.1668 -2.29411 0.0569554)
(13.1997 -2.33734 0.0565197)
(13.2315 -2.37904 0.0561104)
(13.2625 -2.4187 0.05571)
(13.293 -2.45585 0.0553067)
(13.3228 -2.49161 0.0549131)
(13.3512 -2.52673 0.0545435)
(13.3788 -2.55975 0.0541768)
(13.4066 -2.58934 0.0537868)
(13.4337 -2.61828 0.0534401)
(13.4583 -2.64874 0.0531562)
(11.8441 0.0340019 -0.0272183)
(11.7947 0.156179 0.0919879)
(12.09 0.238686 0.0299346)
(11.9081 0.343984 0.0593844)
(12.1356 0.439466 0.0460404)
(12.0705 0.543805 0.0511115)
(12.1976 0.645795 0.0478813)
(12.201 0.749368 0.0474313)
(12.2795 0.851316 0.0457925)
(12.3105 0.951623 0.044146)
(12.3688 1.04949 0.0425941)
(12.409 1.14449 0.0408226)
(12.4585 1.2365 0.0393107)
(12.5008 1.3253 0.037736)
(12.5458 1.41096 0.0364018)
(12.5879 1.49341 0.0351152)
(12.6306 1.57275 0.0340154)
(12.6718 1.649 0.0329966)
(12.713 1.72226 0.03211)
(12.7535 1.79258 0.0312954)
(12.7937 1.86003 0.0305653)
(12.8335 1.92465 0.0298856)
(12.873 1.9865 0.0292582)
(12.9121 2.04568 0.0286676)
(12.9508 2.10227 0.0281145)
(12.9891 2.15631 0.0275899)
(13.027 2.20792 0.0270912)
(13.0643 2.25726 0.0266123)
(13.1012 2.30437 0.0261487)
(13.1376 2.34907 0.0256954)
(13.1737 2.39154 0.0252541)
(13.2092 2.43223 0.0248328)
(13.2442 2.47106 0.024431)
(13.279 2.50752 0.0240326)
(13.3135 2.54213 0.0236449)
(13.347 2.5758 0.023269)
(13.38 2.60802 0.0229162)
(13.4131 2.63736 0.022517)
(13.4461 2.665 0.022156)
(13.4774 2.69318 0.0218251)
(11.8439 -0.0340372 -0.0280771)
(11.7938 -0.156241 0.0910827)
(12.0886 -0.238854 0.0290047)
(11.9068 -0.344265 0.0584714)
(12.1346 -0.439974 0.0450939)
(12.0701 -0.544575 0.050139)
(12.198 -0.646895 0.0468581)
(12.2022 -0.75076 0.0463453)
(12.2816 -0.852988 0.0446296)
(12.3134 -0.953494 0.0428965)
(12.3724 -1.0515 0.0412521)
(12.4132 -1.14652 0.0393872)
(12.4631 -1.23847 0.0377868)
(12.5058 -1.32711 0.0361323)
(12.5512 -1.41251 0.0347258)
(12.5934 -1.49463 0.0333758)
(12.6361 -1.57359 0.0322229)
(12.6772 -1.64942 0.0311606)
(12.7183 -1.72223 0.0302398)
(12.7586 -1.79209 0.0293997)
(12.7986 -1.85907 0.0286531)
(12.8381 -1.92322 0.0279654)
(12.8773 -1.98461 0.0273378)
(12.916 -2.04335 0.0267528)
(12.9544 -2.09954 0.0262085)
(12.9923 -2.15318 0.0256932)
(13.0298 -2.20434 0.025203)
(13.0668 -2.25323 0.0247334)
(13.1033 -2.2999 0.0242827)
(13.1394 -2.34421 0.023847)
(13.1752 -2.38628 0.023424)
(13.2104 -2.42664 0.0230206)
(13.2449 -2.46532 0.022632)
(13.2794 -2.50161 0.022248)
(13.3137 -2.53578 0.0218528)
(13.3471 -2.569 0.0214908)
(13.3795 -2.60127 0.0211525)
(13.4122 -2.63067 0.0207991)
(13.4453 -2.65757 0.0204203)
(13.4767 -2.68481 0.0200958)
(11.854 0.0304182 -0.00804965)
(11.8027 0.14341 0.119427)
(12.1203 0.216638 0.0576552)