/*--------------------------------*- C++ -*----------------------------------*\
  =========                 |
  \\      /  F ield         | OpenFOAM: The Open Source CFD Toolbox
   \\    /   O peration     | Website:  https://openfoam.org
    \\  /    A nd           | Version:  7
     \\/     M anipulation  |
\*---------------------------------------------------------------------------*/
FoamFile
{
    version     2.0;
    format      ascii;
    class       volScalarField;
    location    "2.73";
    object      T;
}
// * * * * * * * * * * * * * * * * * * * * * * * * * * * * * * * * * * * * * //

dimensions      [0 0 0 1 0 0 0];

internalField   nonuniform List<scalar> 
4950
(
282.92
282.983
282.99
283.034
283.017
283.044
283.028
283.049
283.036
283.053
283.042
283.055
283.047
283.056
283.051
283.055
283.059
283.046
283.082
282.981
282.889
282.898
282.899
282.939
282.938
282.964
282.963
282.98
282.982
282.992
282.994
282.999
283.002
283.001
283.01
282.994
283.027
282.966
283.085
282.865
282.854
282.831
282.774
282.801
282.768
282.794
282.772
282.796
282.781
282.802
282.794
282.81
282.807
282.816
282.82
282.816
282.835
282.807
282.857
282.782
282.888
282.872
282.839
282.851
282.834
282.843
282.835
282.842
282.841
282.847
282.849
282.854
282.857
282.859
282.864
282.862
282.87
282.862
282.873
282.86
282.855
282.828
282.764
282.783
282.743
282.761
282.734
282.751
282.733
282.75
282.738
282.753
282.745
282.758
282.753
282.763
282.759
282.766
282.762
282.762
282.888
282.872
282.839
282.851
282.834
282.843
282.835
282.842
282.841
282.848
282.848
282.855
282.856
282.861
282.862
282.865
282.866
282.867
282.868
282.864
282.853
282.831
282.774
282.801
282.768
282.794
282.771
282.796
282.781
282.803
282.793
282.812
282.804
282.82
282.813
282.826
282.82
282.829
282.826
282.824
282.889
282.898
282.899
282.939
282.938
282.964
282.963
282.98
282.981
282.993
282.993
283.001
282.999
283.005
283.003
283.006
283.005
283.007
283.007
283.006
282.92
282.983
282.99
283.034
283.017
283.044
283.028
283.049
283.036
283.053
283.042
283.056
283.046
283.057
283.049
283.058
283.052
283.06
283.054
283.064
283.205
283.201
283.261
283.243
283.287
283.261
283.294
283.268
283.293
283.271
283.291
283.27
283.288
283.268
283.286
283.26
283.293
283.232
283.365
283.02
283.171
283.146
283.175
283.163
283.187
283.181
283.199
283.196
283.208
283.206
283.216
283.211
283.222
283.21
283.23
283.198
283.247
283.164
283.299
283.072
283.209
283.191
283.248
283.224
283.264
283.246
283.279
283.265
283.292
283.279
283.301
283.288
283.308
283.291
283.313
283.287
283.317
283.274
283.324
283.259
283.171
283.143
283.169
283.154
283.172
283.164
283.175
283.172
283.18
283.179
283.186
283.185
283.192
283.19
283.196
283.191
283.196
283.189
283.192
283.187
283.207
283.192
283.249
283.224
283.261
283.241
283.269
283.254
283.276
283.263
283.281
283.27
283.284
283.274
283.284
283.275
283.281
283.273
283.275
283.274
283.171
283.143
283.169
283.154
283.172
283.164
283.175
283.173
283.18
283.18
283.186
283.186
283.191
283.191
283.194
283.193
283.194
283.192
283.189
283.189
283.209
283.191
283.248
283.224
283.264
283.246
283.279
283.265
283.291
283.28
283.3
283.29
283.305
283.296
283.306
283.296
283.303
283.293
283.298
283.294
283.171
283.146
283.175
283.163
283.187
283.182
283.199
283.197
283.207
283.207
283.214
283.213
283.218
283.216
283.219
283.216
283.217
283.215
283.215
283.215
283.205
283.201
283.261
283.243
283.287
283.261
283.294
283.268
283.293
283.271
283.29
283.271
283.286
283.27
283.282
283.268
283.278
283.266
283.275
283.263
283.152
283.15
283.162
283.165
283.179
283.183
283.196
283.197
283.206
283.204
283.21
283.205
283.214
283.201
283.222
283.184
283.257
283.112
283.409
282.811
283.151
283.146
283.149
283.148
283.154
283.157
283.165
283.169
283.179
283.181
283.193
283.189
283.205
283.188
283.219
283.175
283.243
283.142
283.287
283.085
283.152
283.148
283.155
283.155
283.163
283.165
283.175
283.179
283.189
283.193
283.204
283.206
283.217
283.214
283.227
283.217
283.234
283.216
283.236
283.214
283.151
283.146
283.148
283.146
283.149
283.15
283.155
283.158
283.164
283.167
283.173
283.176
283.181
283.183
283.186
283.187
283.188
283.189
283.186
283.189
283.152
283.148
283.155
283.155
283.163
283.165
283.173
283.177
283.185
283.189
283.196
283.2
283.205
283.208
283.211
283.213
283.214
283.214
283.212
283.213
283.151
283.146
283.148
283.146
283.149
283.15
283.155
283.158
283.163
283.168
283.173
283.176
283.181
283.183
283.186
283.187
283.189
283.187
283.188
283.185
283.152
283.148
283.155
283.155
283.163
283.165
283.174
283.179
283.188
283.194
283.203
283.208
283.214
283.218
283.222
283.223
283.226
283.225
283.226
283.224
283.151
283.146
283.148
283.148
283.153
283.157
283.165
283.17
283.178
283.183
283.19
283.194
283.198
283.2
283.201
283.202
283.202
283.202
283.203
283.203
283.152
283.15
283.162
283.165
283.179
283.183
283.196
283.197
283.206
283.204
283.209
283.206
283.21
283.207
283.21
283.208
283.21
283.208
283.209
283.21
283.205
283.201
283.261
283.243
283.287
283.261
283.294
283.268
283.293
283.271
283.291
283.27
283.288
283.268
283.286
283.26
283.293
283.232
283.365
283.02
283.171
283.146
283.175
283.163
283.187
283.181
283.199
283.196
283.208
283.206
283.216
283.211
283.222
283.21
283.23
283.198
283.247
283.164
283.299
283.072
283.209
283.191
283.248
283.224
283.264
283.246
283.279
283.265
283.292
283.279
283.301
283.288
283.308
283.291
283.313
283.287
283.317
283.274
283.324
283.259
283.171
283.143
283.169
283.154
283.172
283.164
283.175
283.172
283.18
283.179
283.186
283.185
283.192
283.19
283.196
283.191
283.196
283.189
283.192
283.187
283.207
283.192
283.249
283.224
283.261
283.241
283.269
283.254
283.276
283.263
283.281
283.27
283.284
283.274
283.284
283.275
283.281
283.273
283.275
283.274
283.171
283.143
283.169
283.154
283.172
283.164
283.175
283.173
283.18
283.18
283.186
283.186
283.191
283.191
283.194
283.193
283.194
283.192
283.189
283.189
283.209
283.191
283.248
283.224
283.264
283.246
283.279
283.265
283.291
283.28
283.3
283.29
283.305
283.296
283.306
283.296
283.303
283.293
283.298
283.294
283.171
283.146
283.175
283.163
283.187
283.182
283.199
283.197
283.207
283.207
283.214
283.213
283.218
283.216
283.219
283.216
283.217
283.215
283.215
283.215
283.205
283.201
283.261
283.243
283.287
283.261
283.294
283.268
283.293
283.271
283.29
283.271
283.286
283.27
283.282
283.268
283.278
283.266
283.275
283.263
282.92
282.983
282.99
283.034
283.017
283.044
283.028
283.049
283.036
283.053
283.042
283.055
283.047
283.056
283.051
283.055
283.059
283.046
283.082
282.981
282.889
282.898
282.899
282.939
282.938
282.964
282.963
282.98
282.982
282.992
282.994
282.999
283.002
283.001
283.01
282.994
283.027
282.966
283.085
282.865
282.854
282.831
282.774
282.801
282.768
282.794
282.772
282.796
282.781
282.802
282.794
282.81
282.807
282.816
282.82
282.816
282.835
282.807
282.857
282.782
282.888
282.872
282.839
282.851
282.834
282.843
282.835
282.842
282.841
282.847
282.849
282.854
282.857
282.859
282.864
282.862
282.87
282.862
282.873
282.86
282.855
282.828
282.764
282.783
282.743
282.761
282.734
282.751
282.733
282.75
282.738
282.753
282.745
282.758
282.753
282.763
282.759
282.766
282.762
282.762
282.888
282.872
282.839
282.851
282.834
282.843
282.835
282.842
282.841
282.848
282.848
282.855
282.856
282.861
282.862
282.865
282.866
282.867
282.868
282.864
282.853
282.831
282.774
282.801
282.768
282.794
282.771
282.796
282.781
282.803
282.793
282.812
282.804
282.82
282.813
282.826
282.82
282.829
282.826
282.824
282.889
282.898
282.899
282.939
282.938
282.964
282.963
282.98
282.981
282.993
282.993
283.001
282.999
283.005
283.003
283.006
283.005
283.007
283.007
283.006
282.92
282.983
282.99
283.034
283.017
283.044
283.028
283.049
283.036
283.053
283.042
283.056
283.046
283.057
283.049
283.058
283.052
283.06
283.054
283.064
284.695
286.015
286.887
287.594
288.17
288.694
289.154
289.589
289.983
290.36
290.708
291.043
291.359
291.665
291.955
292.235
292.501
292.758
293.005
293.243
293.471
293.691
293.901
294.103
294.296
294.48
294.655
294.821
294.978
295.124
295.26
295.386
295.501
295.604
295.697
295.779
295.851
295.912
295.964
296.006
296.041
296.069
296.091
296.107
296.119
296.127
296.133
296.137
296.14
296.141
296.142
296.143
296.143
296.143
296.143
296.143
296.143
296.143
296.143
296.143
296.143
296.143
296.143
296.143
296.143
296.143
296.143
296.143
296.143
296.143
296.143
296.143
296.143
296.143
296.143
296.143
296.143
296.143
296.142
296.143
296.142
296.142
296.142
296.142
296.141
296.141
296.139
296.14
296.137
296.137
283.743
284.863
285.683
286.357
286.918
287.424
287.876
288.301
288.69
289.06
289.405
289.735
290.047
290.349
290.636
290.913
291.177
291.432
291.676
291.912
292.138
292.356
292.564
292.765
292.956
293.14
293.315
293.48
293.637
293.784
293.921
294.047
294.164
294.27
294.365
294.449
294.523
294.587
294.641
294.687
294.724
294.754
294.778
294.796
294.809
294.819
294.826
294.83
294.834
294.835
294.836
294.837
294.837
294.838
294.838
294.838
294.837
294.837
294.837
294.837
294.837
294.837
294.837
294.837
294.837
294.837
294.837
294.837
294.837
294.837
294.837
294.837
294.837
294.836
294.836
294.836
294.836
294.836
294.836
294.836
294.836
294.836
294.835
294.835
294.834
294.835
294.833
294.834
294.831
294.83
283.026
283.686
284.292
284.86
285.349
285.808
286.218
286.615
286.98
287.332
287.66
287.976
288.273
288.563
288.838
289.106
289.36
289.605
289.84
290.068
290.286
290.497
290.699
290.893
291.079
291.257
291.427
291.589
291.743
291.887
292.023
292.149
292.266
292.374
292.471
292.558
292.636
292.703
292.762
292.812
292.853
292.887
292.914
292.936
292.952
292.964
292.972
292.978
292.982
292.985
292.987
292.987
292.988
292.988
292.988
292.988
292.988
292.988
292.988
292.988
292.988
292.988
292.987
292.987
292.987
292.987
292.987
292.987
292.987
292.987
292.987
292.987
292.986
292.986
292.986
292.986
292.986
292.986
292.985
292.985
292.985
292.985
292.984
292.984
292.983
292.983
292.981
292.982
292.978
292.976
282.885
283.162
283.517
283.906
284.275
284.636
284.975
285.308
285.626
285.936
286.228
286.51
286.779
287.04
287.291
287.535
287.768
287.993
288.209
288.417
288.618
288.812
288.999
289.178
289.35
289.515
289.672
289.823
289.967
290.103
290.231
290.351
290.463
290.567
290.661
290.747
290.824
290.892
290.952
291.003
291.046
291.082
291.112
291.135
291.154
291.167
291.177
291.184
291.189
291.193
291.195
291.196
291.196
291.197
291.197
291.197
291.197
291.197
291.197
291.196
291.196
291.196
291.196
291.196
291.196
291.196
291.196
291.195
291.195
291.195
291.195
291.195
291.195
291.195
291.195
291.195
291.194
291.194
291.194
291.194
291.194
291.194
291.193
291.193
291.192
291.193
291.191
291.192
291.189
291.188
282.775
282.903
283.074
283.314
283.554
283.815
284.065
284.326
284.579
284.835
285.078
285.316
285.542
285.765
285.979
286.189
286.39
286.585
286.77
286.951
287.125
287.293
287.455
287.611
287.76
287.904
288.041
288.174
288.299
288.419
288.532
288.638
288.738
288.831
288.916
288.994
289.064
289.127
289.182
289.23
289.271
289.305
289.334
289.357
289.375
289.388
289.399
289.406
289.411
289.414
289.416
289.418
289.418
289.419
289.419
289.419
289.419
289.419
289.419
289.419
289.419
289.418
289.418
289.418
289.418
289.418
289.418
289.418
289.418
289.418
289.417
289.417
289.417
289.417
289.417
289.417
289.417
289.417
289.416
289.416
289.416
289.416
289.415
289.415
289.414
289.414
289.413
289.412
289.412
289.412
282.871
282.929
283.01
283.139
283.281
283.445
283.614
283.797
283.982
284.172
284.355
284.536
284.711
284.883
285.051
285.216
285.374
285.527
285.674
285.816
285.954
286.088
286.216
286.34
286.458
286.573
286.682
286.788
286.888
286.984
287.074
287.16
287.24
287.315
287.384
287.448
287.505
287.556
287.602
287.641
287.675
287.704
287.728
287.747
287.763
287.774
287.783
287.789
287.793
287.796
287.798
287.799
287.8
287.8
287.8
287.8
287.8
287.8
287.8
287.8
287.8
287.8
287.8
287.8
287.8
287.8
287.8
287.799
287.799
287.799
287.799
287.799
287.799
287.799
287.799
287.799
287.799
287.799
287.798
287.798
287.798
287.798
287.798
287.798
287.797
287.797
287.797
287.796
287.798
287.799
282.856
282.91
282.943
283.018
283.092
283.192
283.292
283.412
283.531
283.658
283.78
283.902
284.02
284.138
284.253
284.366
284.475
284.58
284.681
284.779
284.874
284.966
285.055
285.14
285.222
285.301
285.376
285.449
285.519
285.585
285.647
285.706
285.762
285.814
285.862
285.906
285.946
285.981
286.013
286.04
286.064
286.084
286.101
286.114
286.125
286.133
286.139
286.143
286.146
286.148
286.149
286.15
286.15
286.151
286.151
286.151
286.151
286.151
286.151
286.151
286.151
286.151
286.15
286.15
286.15
286.15
286.15
286.15
286.15
286.15
286.15
286.15
286.15
286.15
286.15
286.15
286.15
286.15
286.149
286.149
286.149
286.149
286.149
286.149
286.148
286.148
286.147
286.146
286.149
286.15
283.016
283.037
283.052
283.084
283.117
283.164
283.213
283.272
283.332
283.397
283.459
283.522
283.582
283.644
283.704
283.763
283.819
283.874
283.927
283.978
284.028
284.076
284.123
284.167
284.21
284.251
284.291
284.329
284.366
284.4
284.433
284.464
284.493
284.52
284.545
284.568
284.589
284.608
284.624
284.638
284.65
284.661
284.669
284.676
284.682
284.686
284.689
284.691
284.692
284.693
284.694
284.694
284.694
284.694
284.695
284.695
284.695
284.695
284.695
284.695
284.695
284.695
284.695
284.695
284.695
284.695
284.695
284.695
284.695
284.695
284.695
284.695
284.695
284.695
284.695
284.695
284.695
284.695
284.695
284.695
284.695
284.695
284.694
284.694
284.694
284.694
284.694
284.693
284.695
284.696
283.064
283.076
283.077
283.091
283.099
283.115
283.129
283.148
283.165
283.186
283.204
283.224
283.241
283.26
283.278
283.296
283.313
283.329
283.345
283.361
283.375
283.39
283.404
283.417
283.43
283.442
283.454
283.465
283.476
283.487
283.496
283.505
283.514
283.522
283.53
283.536
283.543
283.548
283.553
283.557
283.561
283.564
283.566
283.568
283.57
283.571
283.572
283.572
283.573
283.573
283.573
283.573
283.573
283.574
283.574
283.574
283.574
283.574
283.574
283.574
283.574
283.574
283.574
283.574
283.574
283.574
283.574
283.574
283.574
283.574
283.574
283.574
283.574
283.574
283.574
283.574
283.574
283.574
283.574
283.574
283.574
283.574
283.574
283.574
283.573
283.573
283.573
283.573
283.573
283.574
285.198
286.672
287.599
288.292
288.888
289.398
289.87
290.293
290.694
291.063
291.415
291.746
292.065
292.367
292.659
292.937
293.206
293.462
293.71
293.948
294.178
294.398
294.609
294.811
295.006
295.191
295.367
295.534
295.691
295.838
295.975
296.101
296.216
296.321
296.414
296.496
296.567
296.628
296.68
296.722
296.757
296.785
296.806
296.822
296.834
296.842
296.848
296.851
296.854
296.855
296.856
296.857
296.857
296.857
296.857
296.857
296.857
296.857
296.857
296.857
296.857
296.857
296.857
296.857
296.857
296.857
296.857
296.857
296.857
296.857
296.858
296.858
296.858
296.858
296.858
296.858
296.858
296.858
296.859
296.859
296.859
296.859
296.86
296.86
296.861
296.861
296.862
296.861
296.868
296.871
283.874
284.958
285.788
286.451
287.022
287.521
287.979
288.398
288.792
289.158
289.506
289.834
290.149
290.449
290.739
291.015
291.281
291.536
291.782
292.019
292.246
292.465
292.676
292.877
293.071
293.256
293.432
293.6
293.758
293.906
294.045
294.173
294.291
294.399
294.496
294.582
294.657
294.723
294.778
294.825
294.863
294.894
294.919
294.937
294.951
294.961
294.968
294.973
294.976
294.978
294.979
294.98
294.98
294.981
294.981
294.981
294.98
294.98
294.98
294.98
294.98
294.98
294.98
294.98
294.98
294.98
294.98
294.98
294.98
294.98
294.98
294.98
294.98
294.98
294.98
294.98
294.98
294.98
294.98
294.98
294.981
294.981
294.981
294.981
294.981
294.981
294.982
294.982
294.986
294.989
283.399
283.928
284.519
285.046
285.537
285.973
286.387
286.769
287.138
287.481
287.811
288.121
288.421
288.707
288.985
289.25
289.506
289.751
289.988
290.216
290.436
290.647
290.851
291.046
291.234
291.414
291.585
291.749
291.905
292.052
292.189
292.318
292.437
292.546
292.646
292.735
292.815
292.884
292.944
292.996
293.039
293.074
293.102
293.125
293.142
293.154
293.163
293.17
293.174
293.177
293.178
293.179
293.18
293.18
293.18
293.18
293.18
293.18
293.18
293.18
293.18
293.179
293.179
293.179
293.179
293.179
293.179
293.179
293.179
293.179
293.179
293.179
293.179
293.179
293.179
293.179
293.179
293.179
293.179
293.179
293.18
293.18
293.18
293.18
293.181
293.181
293.182
293.182
293.184
293.186
283.18
283.368
283.684
284.032
284.389
284.73
285.065
285.387
285.704
286.009
286.302
286.582
286.852
287.111
287.364
287.609
287.844
288.07
288.287
288.497
288.7
288.896
289.085
289.266
289.44
289.607
289.767
289.92
290.066
290.205
290.335
290.458
290.572
290.678
290.775
290.863
290.942
291.012
291.074
291.127
291.172
291.21
291.241
291.265
291.284
291.299
291.31
291.317
291.323
291.326
291.328
291.33
291.33
291.331
291.331
291.331
291.331
291.331
291.33
291.33
291.33
291.33
291.33
291.33
291.33
291.33
291.33
291.329
291.329
291.329
291.329
291.329
291.329
291.329
291.329
291.329
291.329
291.329
291.329
291.329
291.329
291.329
291.329
291.329
291.33
291.33
291.33
291.33
291.331
291.332
283.238
283.26
283.405
283.589
283.816
284.042
284.285
284.525
284.776
285.02
285.262
285.493
285.72
285.938
286.154
286.363
286.566
286.76
286.947
287.128
287.304
287.474
287.638
287.796
287.947
288.092
288.232
288.366
288.494
288.616
288.732
288.84
288.942
289.037
289.125
289.205
289.277
289.342
289.399
289.449
289.492
289.528
289.558
289.582
289.601
289.616
289.626
289.634
289.64
289.643
289.646
289.647
289.648
289.648
289.648
289.648
289.648
289.648
289.648
289.648
289.648
289.648
289.647
289.647
289.647
289.647
289.647
289.647
289.647
289.647
289.647
289.647
289.647
289.647
289.647
289.647
289.647
289.647
289.647
289.647
289.647
289.647
289.648
289.647
289.648
289.648
289.649
289.649
289.649
289.65
283.175
283.17
283.229
283.322
283.45
283.59
283.749
283.917
284.099
284.281
284.464
284.641
284.816
284.988
285.157
285.322
285.483
285.637
285.786
285.931
286.071
286.207
286.338
286.464
286.585
286.702
286.814
286.921
287.025
287.123
287.216
287.304
287.386
287.464
287.535
287.601
287.661
287.714
287.761
287.803
287.838
287.869
287.894
287.915
287.931
287.943
287.953
287.959
287.964
287.967
287.969
287.97
287.971
287.971
287.971
287.971
287.971
287.971
287.971
287.971
287.971
287.971
287.971
287.971
287.97
287.97
287.97
287.97
287.97
287.97
287.97
287.97
287.97
287.97
287.97
287.97
287.97
287.97
287.97
287.97
287.97
287.97
287.97
287.97
287.971
287.97
287.971
287.971
287.97
287.971
283.271
283.243
283.273
283.308
283.377
283.449
283.546
283.649
283.768
283.887
284.011
284.129
284.25
284.368
284.486
284.601
284.714
284.821
284.926
285.027
285.126
285.222
285.315
285.403
285.489
285.571
285.651
285.727
285.8
285.869
285.935
285.998
286.057
286.111
286.162
286.209
286.252
286.29
286.323
286.353
286.378
286.4
286.418
286.432
286.444
286.453
286.459
286.464
286.467
286.469
286.47
286.471
286.472
286.472
286.472
286.472
286.472
286.472
286.472
286.472
286.472
286.471
286.471
286.471
286.471
286.471
286.471
286.471
286.471
286.471
286.471
286.471
286.471
286.471
286.471
286.471
286.471
286.471
286.472
286.472
286.472
286.472
286.472
286.472
286.473
286.473
286.474
286.474
286.473
286.474
283.206
283.194
283.208
283.223
283.256
283.293
283.345
283.402
283.468
283.534
283.603
283.67
283.739
283.806
283.874
283.94
284.004
284.066
284.126
284.184
284.241
284.296
284.349
284.4
284.449
284.497
284.542
284.586
284.628
284.668
284.706
284.742
284.775
284.807
284.836
284.863
284.887
284.908
284.928
284.944
284.959
284.971
284.981
284.989
284.995
285
285.003
285.006
285.008
285.009
285.009
285.01
285.01
285.01
285.01
285.01
285.01
285.01
285.01
285.01
285.01
285.01
285.01
285.01
285.01
285.01
285.01
285.01
285.01
285.01
285.01
285.01
285.01
285.01
285.01
285.01
285.01
285.01
285.011
285.011
285.011
285.011
285.011
285.011
285.011
285.011
285.012
285.012
285.01
285.011
283.252
283.237
283.245
283.242
283.254
283.26
283.277
283.292
283.313
283.331
283.354
283.373
283.395
283.415
283.436
283.456
283.476
283.495
283.514
283.532
283.55
283.567
283.584
283.6
283.615
283.63
283.644
283.658
283.671
283.684
283.696
283.707
283.717
283.727
283.736
283.745
283.752
283.759
283.765
283.77
283.774
283.778
283.781
283.784
283.786
283.787
283.788
283.789
283.789
283.79
283.79
283.79
283.79
283.79
283.79
283.79
283.79
283.79
283.79
283.79
283.79
283.79
283.79
283.79
283.79
283.79
283.79
283.79
283.79
283.79
283.79
283.79
283.791
283.791
283.791
283.791
283.791
283.791
283.791
283.791
283.791
283.791
283.792
283.792
283.792
283.792
283.793
283.793
283.792
283.792
285.423
287.201
288.219
288.956
289.575
290.105
290.588
291.023
291.43
291.806
292.164
292.5
292.823
293.13
293.426
293.707
293.979
294.238
294.49
294.73
294.963
295.185
295.399
295.604
295.8
295.987
296.166
296.334
296.493
296.641
296.779
296.905
297.021
297.125
297.218
297.3
297.371
297.431
297.483
297.524
297.559
297.585
297.606
297.621
297.632
297.64
297.646
297.649
297.651
297.653
297.654
297.654
297.654
297.654
297.654
297.654
297.654
297.654
297.654
297.654
297.654
297.654
297.654
297.654
297.654
297.654
297.654
297.654
297.655
297.655
297.655
297.655
297.655
297.655
297.655
297.655
297.655
297.655
297.656
297.656
297.656
297.656
297.657
297.657
297.657
297.657
297.659
297.657
297.665
297.67
283.682
284.81
285.704
286.409
287.008
287.528
288.001
288.433
288.837
289.212
289.567
289.903
290.223
290.53
290.824
291.106
291.376
291.636
291.886
292.126
292.358
292.581
292.795
293.001
293.197
293.386
293.565
293.736
293.897
294.049
294.19
294.321
294.442
294.551
294.65
294.738
294.815
294.882
294.938
294.986
295.025
295.057
295.082
295.101
295.115
295.125
295.133
295.138
295.141
295.143
295.144
295.145
295.145
295.145
295.145
295.145
295.145
295.145
295.145
295.145
295.145
295.145
295.145
295.145
295.145
295.145
295.145
295.145
295.145
295.145
295.145
295.145
295.145
295.145
295.145
295.145
295.145
295.145
295.145
295.145
295.145
295.145
295.146
295.146
295.146
295.146
295.147
295.146
295.151
295.155
283.259
283.697
284.254
284.789
285.288
285.741
286.166
286.562
286.94
287.295
287.633
287.953
288.259
288.553
288.837
289.109
289.371
289.623
289.865
290.098
290.324
290.541
290.749
290.95
291.142
291.326
291.503
291.671
291.831
291.982
292.124
292.257
292.38
292.494
292.597
292.69
292.773
292.845
292.908
292.962
293.007
293.045
293.075
293.099
293.117
293.13
293.14
293.147
293.152
293.155
293.157
293.158
293.158
293.159
293.159
293.159
293.159
293.158
293.158
293.158
293.158
293.158
293.158
293.158
293.158
293.158
293.158
293.158
293.158
293.158
293.158
293.158
293.158
293.158
293.158
293.158
293.158
293.158
293.158
293.158
293.158
293.158
293.158
293.158
293.159
293.159
293.16
293.159
293.162
293.164
283.17
283.284
283.535
283.846
284.184
284.519
284.852
285.176
285.497
285.808
286.108
286.394
286.67
286.936
287.195
287.445
287.687
287.919
288.143
288.358
288.567
288.769
288.963
289.149
289.329
289.501
289.666
289.824
289.975
290.119
290.254
290.381
290.5
290.611
290.713
290.805
290.889
290.963
291.028
291.085
291.133
291.174
291.207
291.234
291.256
291.272
291.284
291.292
291.298
291.302
291.304
291.306
291.307
291.307
291.307
291.307
291.307
291.307
291.307
291.307
291.307
291.307
291.307
291.306
291.306
291.306
291.306
291.306
291.306
291.306
291.306
291.306
291.306
291.306
291.306
291.306
291.306
291.306
291.306
291.306
291.306
291.306
291.306
291.306
291.306
291.306
291.307
291.307
291.308
291.309
283.202
283.209
283.3
283.447
283.64
283.849
284.077
284.312
284.558
284.804
285.048
285.283
285.513
285.737
285.957
286.172
286.38
286.58
286.773
286.959
287.141
287.316
287.485
287.648
287.804
287.954
288.099
288.238
288.371
288.498
288.618
288.731
288.837
288.937
289.029
289.114
289.191
289.259
289.32
289.374
289.42
289.459
289.492
289.518
289.54
289.556
289.568
289.577
289.583
289.587
289.59
289.592
289.593
289.593
289.593
289.593
289.593
289.593
289.593
289.593
289.593
289.593
289.593
289.592
289.592
289.592
289.592
289.592
289.592
289.592
289.592
289.592
289.592
289.592
289.592
289.592
289.592
289.592
289.592
289.592
289.592
289.592
289.592
289.592
289.592
289.592
289.593
289.593
289.593
289.594
283.188
283.184
283.217
283.282
283.381
283.5
283.641
283.798
283.972
284.151
284.332
284.51
284.686
284.86
285.032
285.201
285.366
285.524
285.677
285.826
285.97
286.11
286.246
286.376
286.501
286.621
286.738
286.849
286.956
287.058
287.155
287.247
287.333
287.414
287.489
287.559
287.622
287.678
287.729
287.773
287.812
287.844
287.872
287.894
287.912
287.926
287.936
287.944
287.949
287.953
287.955
287.956
287.957
287.957
287.958
287.958
287.958
287.958
287.957
287.957
287.957
287.957
287.957
287.957
287.957
287.957
287.957
287.956
287.956
287.956
287.956
287.956
287.956
287.956
287.956
287.956
287.956
287.956
287.956
287.956
287.956
287.956
287.956
287.956
287.956
287.956
287.957
287.957
287.956
287.956
283.229
283.218
283.232
283.257
283.307
283.368
283.452
283.549
283.662
283.779
283.902
284.022
284.143
284.263
284.384
284.502
284.618
284.729
284.838
284.943
285.045
285.144
285.24
285.333
285.422
285.507
285.59
285.669
285.745
285.818
285.887
285.952
286.013
286.071
286.125
286.174
286.219
286.259
286.295
286.326
286.354
286.377
286.396
286.412
286.424
286.434
286.441
286.446
286.45
286.452
286.453
286.454
286.455
286.455
286.455
286.455
286.455
286.455
286.455
286.455
286.455
286.455
286.455
286.454
286.454
286.454
286.454
286.454
286.454
286.454
286.454
286.454
286.454
286.454
286.454
286.454
286.454
286.454
286.454
286.454
286.454
286.454
286.454
286.454
286.455
286.455
286.455
286.456
286.454
286.454
283.209
283.202
283.21
283.22
283.244
283.275
283.321
283.375
283.439
283.506
283.575
283.644
283.714
283.784
283.855
283.924
283.991
284.055
284.119
284.18
284.24
284.298
284.354
284.408
284.46
284.509
284.558
284.604
284.649
284.691
284.731
284.769
284.805
284.838
284.869
284.897
284.923
284.946
284.967
284.984
285
285.013
285.024
285.032
285.039
285.044
285.048
285.051
285.053
285.054
285.055
285.055
285.055
285.055
285.055
285.055
285.055
285.055
285.055
285.055
285.055
285.055
285.055
285.055
285.055
285.055
285.055
285.055
285.055
285.055
285.055
285.055
285.055
285.055
285.055
285.055
285.055
285.055
285.055
285.055
285.055
285.055
285.055
285.055
285.056
285.056
285.056
285.057
285.055
285.054
283.201
283.193
283.196
283.197
283.205
283.214
283.23
283.246
283.268
283.289
283.311
283.333
283.356
283.379
283.402
283.424
283.445
283.466
283.487
283.507
283.526
283.545
283.563
283.581
283.597
283.614
283.629
283.644
283.659
283.672
283.685
283.698
283.709
283.72
283.73
283.739
283.747
283.754
283.761
283.766
283.771
283.775
283.779
283.781
283.783
283.785
283.786
283.787
283.787
283.787
283.788
283.788
283.788
283.788
283.788
283.788
283.788
283.788
283.788
283.788
283.788
283.788
283.788
283.788
283.788
283.788
283.788
283.788
283.788
283.788
283.788
283.788
283.788
283.788
283.789
283.789
283.789
283.789
283.789
283.789
283.789
283.789
283.789
283.789
283.789
283.789
283.79
283.79
283.789
283.789
285.198
286.672
287.599
288.292
288.888
289.398
289.87
290.293
290.694
291.063
291.415
291.746
292.065
292.367
292.659
292.937
293.206
293.462
293.71
293.948
294.178
294.398
294.609
294.811
295.006
295.191
295.367
295.534
295.691
295.838
295.975
296.101
296.216
296.321
296.414
296.496
296.567
296.628
296.68
296.722
296.757
296.785
296.806
296.822
296.834
296.842
296.848
296.851
296.854
296.855
296.856
296.857
296.857
296.857
296.857
296.857
296.857
296.857
296.857
296.857
296.857
296.857
296.857
296.857
296.857
296.857
296.857
296.857
296.857
296.857
296.858
296.858
296.858
296.858
296.858
296.858
296.858
296.858
296.859
296.859
296.859
296.859
296.86
296.86
296.861
296.861
296.862
296.861
296.868
296.871
283.874
284.958
285.788
286.451
287.022
287.521
287.979
288.398
288.792
289.158
289.506
289.834
290.149
290.449
290.739
291.015
291.281
291.536
291.782
292.019
292.246
292.465
292.676
292.877
293.071
293.256
293.432
293.6
293.758
293.906
294.045
294.173
294.291
294.399
294.496
294.582
294.657
294.723
294.778
294.825
294.863
294.894
294.919
294.937
294.951
294.961
294.968
294.973
294.976
294.978
294.979
294.98
294.98
294.981
294.981
294.981
294.98
294.98
294.98
294.98
294.98
294.98
294.98
294.98
294.98
294.98
294.98
294.98
294.98
294.98
294.98
294.98
294.98
294.98
294.98
294.98
294.98
294.98
294.98
294.98
294.981
294.981
294.981
294.981
294.981
294.981
294.982
294.982
294.986
294.989
283.399
283.928
284.519
285.046
285.537
285.973
286.387
286.769
287.138
287.481
287.811
288.121
288.421
288.707
288.985
289.25
289.506
289.751
289.988
290.216
290.436
290.647
290.851
291.046
291.234
291.414
291.585
291.749
291.905
292.052
292.189
292.318
292.437
292.546
292.646
292.735
292.815
292.884
292.944
292.996
293.039
293.074
293.102
293.125
293.142
293.154
293.163
293.17
293.174
293.177
293.178
293.179
293.18
293.18
293.18
293.18
293.18
293.18
293.18
293.18
293.18
293.179
293.179
293.179
293.179
293.179
293.179
293.179
293.179
293.179
293.179
293.179
293.179
293.179
293.179
293.179
293.179
293.179
293.179
293.179
293.18
293.18
293.18
293.18
293.181
293.181
293.182
293.182
293.184
293.186
283.18
283.368
283.684
284.032
284.389
284.73
285.065
285.387
285.704
286.009
286.302
286.582
286.852
287.111
287.364
287.609
287.844
288.07
288.287
288.497
288.7
288.896
289.085
289.266
289.44
289.607
289.767
289.92
290.066
290.205
290.335
290.458
290.572
290.678
290.775
290.863
290.942
291.012
291.074
291.127
291.172
291.21
291.241
291.265
291.284
291.299
291.31
291.317
291.323
291.326
291.328
291.33
291.33
291.331
291.331
291.331
291.331
291.331
291.33
291.33
291.33
291.33
291.33
291.33
291.33
291.33
291.33
291.329
291.329
291.329
291.329
291.329
291.329
291.329
291.329
291.329
291.329
291.329
291.329
291.329
291.329
291.329
291.329
291.329
291.33
291.33
291.33
291.33
291.331
291.332
283.238
283.26
283.405
283.589
283.816
284.042
284.285
284.525
284.776
285.02
285.262
285.493
285.72
285.938
286.154
286.363
286.566
286.76
286.947
287.128
287.304
287.474
287.638
287.796
287.947
288.092
288.232
288.366
288.494
288.616
288.732
288.84
288.942
289.037