/*--------------------------------*- C++ -*----------------------------------*\
  =========                 |
  \\      /  F ield         | OpenFOAM: The Open Source CFD Toolbox
   \\    /   O peration     | Website:  https://openfoam.org
    \\  /    A nd           | Version:  7
     \\/     M anipulation  |
\*---------------------------------------------------------------------------*/
FoamFile
{
    version     2.0;
    format      ascii;
    class       volVectorField;
    location    "1.8625";
    object      U;
}
// * * * * * * * * * * * * * * * * * * * * * * * * * * * * * * * * * * * * * //

dimensions      [0 1 -1 0 0 0 0];

internalField   nonuniform List<vector> 
13200
(
(1.94311 0.036692 -32.2522)
(1.07715 -0.369671 -32.3078)
(0.611109 -0.418823 -32.3106)
(0.583862 -0.430233 -32.3168)
(0.460803 -0.436101 -32.3147)
(0.491667 -0.437871 -32.3181)
(0.412224 -0.439755 -32.3157)
(0.446825 -0.439304 -32.318)
(0.384884 -0.440033 -32.3159)
(0.41708 -0.43953 -32.3175)
(0.366657 -0.440103 -32.3158)
(0.395293 -0.439508 -32.3171)
(0.353375 -0.439863 -32.316)
(0.378493 -0.439312 -32.3171)
(0.343128 -0.439454 -32.3166)
(0.364909 -0.439384 -32.3173)
(0.335331 -0.437915 -32.3175)
(0.351204 -0.439826 -32.3172)
(0.33132 -0.414675 -32.3196)
(0.269785 -0.425411 -32.3133)
(3.65636 0.928635 -32.3789)
(2.85435 0.570076 -32.445)
(1.97309 0.47556 -32.456)
(1.8528 0.436966 -32.4688)
(1.55144 0.430663 -32.4681)
(1.59516 0.428812 -32.4738)
(1.39986 0.426927 -32.471)
(1.46345 0.426507 -32.4737)
(1.31148 0.425066 -32.4709)
(1.37468 0.425055 -32.4722)
(1.25108 0.424125 -32.4698)
(1.30917 0.424086 -32.4707)
(1.20624 0.423315 -32.4695)
(1.25822 0.423292 -32.4705)
(1.17095 0.422597 -32.4707)
(1.21722 0.422899 -32.471)
(1.14299 0.421262 -32.4736)
(1.18504 0.422699 -32.4705)
(1.12532 0.409043 -32.4809)
(1.26499 0.413204 -32.4493)
(4.53333 0.489215 -32.4032)
(4.51646 -0.0494075 -32.4582)
(3.80806 -0.219682 -32.465)
(3.65069 -0.326755 -32.484)
(3.24784 -0.366458 -32.4842)
(3.24613 -0.383263 -32.4947)
(2.97725 -0.392723 -32.4909)
(3.01977 -0.397175 -32.496)
(2.81271 -0.401033 -32.4907)
(2.86503 -0.402826 -32.4929)
(2.69669 -0.404678 -32.4879)
(2.74864 -0.405527 -32.489)
(2.60831 -0.406595 -32.4859)
(2.65697 -0.40701 -32.4869)
(2.53789 -0.407607 -32.487)
(2.58209 -0.40837 -32.4869)
(2.48099 -0.407282 -32.4925)
(2.51061 -0.410565 -32.4857)
(2.44444 -0.40185 -32.5065)
(2.37247 -0.417314 -32.4592)
(4.81234 0.87305 -32.4193)
(5.23699 0.654304 -32.4624)
(4.94509 0.579754 -32.4646)
(4.95413 0.496241 -32.4808)
(4.65103 0.461527 -32.4831)
(4.66438 0.442359 -32.494)
(4.42373 0.431314 -32.4932)
(4.45026 0.424558 -32.4981)
(4.25382 0.419846 -32.4944)
(4.28436 0.416173 -32.4951)
(4.1211 0.413577 -32.4904)
(4.15196 0.411249 -32.4889)
(4.01431 0.409702 -32.4854)
(4.04413 0.408183 -32.4831)
(3.92549 0.407121 -32.4833)
(3.95605 0.405832 -32.4803)
(3.84708 0.405301 -32.4874)
(3.89355 0.402321 -32.4787)
(3.76667 0.402829 -32.5003)
(3.90995 0.405171 -32.4581)
(4.86611 0.340035 -32.4202)
(5.43518 -0.0414724 -32.4573)
(5.41217 -0.148009 -32.4526)
(5.57761 -0.249465 -32.4665)
(5.40814 -0.294606 -32.4662)
(5.4851 -0.318779 -32.4777)
(5.31534 -0.334264 -32.4765)
(5.36654 -0.343588 -32.483)
(5.21486 -0.351289 -32.479)
(5.25367 -0.356656 -32.4808)
(5.12124 -0.361248 -32.4752)
(5.15237 -0.364862 -32.474)
(5.03736 -0.368069 -32.4683)
(5.06332 -0.370516 -32.4653)
(4.96325 -0.373194 -32.4624)
(4.98526 -0.374278 -32.4589)
(4.89829 -0.377272 -32.4622)
(4.91216 -0.376532 -32.4568)
(4.84062 -0.384961 -32.4694)
(4.81868 -0.397588 -32.4405)
(4.85237 0.622704 -32.4273)
(5.39407 0.537696 -32.4629)
(5.49583 0.526577 -32.4568)
(5.75698 0.472503 -32.4685)
(5.68662 0.449035 -32.4673)
(5.83224 0.433893 -32.4778)
(5.73537 0.424158 -32.4768)
(5.83227 0.417561 -32.4832)
(5.73474 0.412489 -32.4797)
(5.80359 0.408269 -32.4817)
(5.7122 0.405036 -32.4764)
(5.76334 0.40207 -32.4753)
(5.68005 0.399889 -32.4692)
(5.71955 0.397836 -32.4655)
(5.64387 0.39629 -32.4605)
(5.67718 0.39452 -32.4564)
(5.6047 0.3944 -32.4558)
(5.64514 0.390578 -32.4522)
(5.55894 0.396089 -32.458)
(5.64287 0.407281 -32.4337)
(4.84017 0.146555 -32.4274)
(5.3358 -0.128954 -32.4616)
(5.47579 -0.193401 -32.4535)
(5.77328 -0.261947 -32.4648)
(5.7503 -0.292043 -32.4619)
(5.93613 -0.308334 -32.4721)
(5.88377 -0.319116 -32.4702)
(6.01636 -0.325488 -32.4767)
(5.9594 -0.331304 -32.4726)
(6.05863 -0.335383 -32.4749)
(6.00267 -0.339317 -32.4692)
(6.07857 -0.342402 -32.4686)
(6.02573 -0.345567 -32.462)
(6.08457 -0.347735 -32.4588)
(6.03616 -0.350968 -32.4521)
(6.08147 -0.351284 -32.448)
(6.03947 -0.35675 -32.4443)
(6.06963 -0.352736 -32.4416)
(6.03688 -0.368826 -32.4429)
(6.03692 -0.379555 -32.4199)
(4.82899 0.404202 -32.432)
(5.27938 0.415812 -32.4663)
(5.43142 0.433693 -32.4579)
(5.74086 0.411405 -32.4691)
(5.73638 0.402801 -32.4658)
(5.94113 0.396335 -32.4758)
(5.91109 0.392318 -32.4734)
(6.06461 0.389504 -32.4798)
(6.03156 0.387394 -32.4754)
(6.15157 0.385489 -32.4776)
(6.11941 0.384044 -32.4718)
(6.21487 0.38261 -32.4714)
(6.18462 0.381576 -32.4647)
(6.26113 0.380499 -32.4617)
(6.23327 0.37988 -32.4543)
(6.29507 0.378502 -32.4501)
(6.26929 0.379851 -32.445)
(6.32295 0.375767 -32.442)
(6.29461 0.384905 -32.4416)
(6.34929 0.400831 -32.4174)
(4.82241 -0.0337397 -32.4332)
(5.24695 -0.219107 -32.4659)
(5.40199 -0.264355 -32.4571)
(5.7126 -0.30242 -32.4678)
(5.71341 -0.31908 -32.4642)
(5.92434 -0.327509 -32.4741)
(5.90203 -0.333056 -32.4714)
(6.06424 -0.335993 -32.4777)
(6.04178 -0.338921 -32.473)
(6.1724 -0.340748 -32.4752)
(6.1527 -0.342785 -32.4692)
(6.25952 -0.344221 -32.4688)
(6.24273 -0.346029 -32.462)
(6.33019 -0.346983 -32.4591)
(6.31682 -0.349234 -32.4515)
(6.38693 -0.348538 -32.4472)
(6.37941 -0.353793 -32.4416)
(6.4301 -0.348226 -32.4382)
(6.43282 -0.36495 -32.437)
(6.45143 -0.376472 -32.412)
(4.81884 0.21288 -32.4363)
(5.22945 0.312179 -32.4682)
(5.38616 0.344999 -32.4593)
(5.6975 0.352877 -32.4697)
(5.69969 0.357021 -32.466)
(5.91241 0.3581 -32.4758)
(5.8924 0.358977 -32.473)
(6.05755 0.359163 -32.4792)
(6.03876 0.359671 -32.4744)
(6.17341 0.359745 -32.4765)
(6.15862 0.360121 -32.4705)
(6.27028 0.360207 -32.4701)
(6.25927 0.360649 -32.4633)
(6.35197 0.360651 -32.4603)
(6.34482 0.361521 -32.4527)
(6.42046 0.360565 -32.4482)
(6.41866 0.364023 -32.4425)
(6.47738 0.359451 -32.4388)
(6.48345 0.372696 -32.4376)
(6.51854 0.388426 -32.4119)
(4.81884 -0.21288 -32.4363)
(5.22945 -0.312179 -32.4682)
(5.38616 -0.344999 -32.4593)
(5.6975 -0.352876 -32.4697)
(5.69969 -0.357021 -32.466)
(5.91241 -0.358098 -32.4758)
(5.8924 -0.358976 -32.473)
(6.05755 -0.359158 -32.4792)
(6.03876 -0.359667 -32.4744)
(6.17341 -0.359734 -32.4765)
(6.15862 -0.360104 -32.4705)
(6.27028 -0.36018 -32.4701)
(6.2593 -0.360596 -32.4633)
(6.35197 -0.36056 -32.4603)
(6.34489 -0.361401 -32.4528)
(6.42046 -0.360222 -32.4482)
(6.41886 -0.363786 -32.4426)
(6.47741 -0.358362 -32.4388)
(6.48373 -0.371957 -32.4377)
(6.51873 -0.385892 -32.4119)
(4.82241 0.0337397 -32.4332)
(5.24696 0.219107 -32.4659)
(5.40199 0.264355 -32.4571)
(5.7126 0.302421 -32.4678)
(5.71341 0.31908 -32.4642)
(5.92434 0.327511 -32.4741)
(5.90203 0.333057 -32.4714)
(6.06424 0.335998 -32.4777)
(6.04177 0.338925 -32.473)
(6.1724 0.340758 -32.4752)
(6.15269 0.342803 -32.4692)
(6.25953 0.344247 -32.4688)
(6.24271 0.346082 -32.462)
(6.33021 0.347071 -32.4591)
(6.31681 0.349354 -32.4516)
(6.38698 0.348871 -32.4471)
(6.37942 0.354021 -32.4416)
(6.43022 0.349321 -32.4381)
(6.43314 0.365627 -32.4373)
(6.45195 0.379031 -32.4117)
(4.82899 -0.404202 -32.432)
(5.27938 -0.415812 -32.4663)
(5.43142 -0.433694 -32.4579)
(5.74086 -0.411405 -32.4691)
(5.73638 -0.402801 -32.4658)
(5.94113 -0.396333 -32.4758)
(5.91109 -0.392317 -32.4734)
(6.06461 -0.389499 -32.4798)
(6.03156 -0.38739 -32.4754)
(6.15158 -0.385478 -32.4777)
(6.11942 -0.384027 -32.4718)
(6.21489 -0.382582 -32.4714)
(6.18465 -0.381526 -32.4646)
(6.26117 -0.380408 -32.4617)
(6.23338 -0.379764 -32.4543)
(6.29517 -0.378164 -32.4501)
(6.26968 -0.379621 -32.445)
(6.32321 -0.374716 -32.442)
(6.29556 -0.384179 -32.4418)
(6.35023 -0.398401 -32.4171)
(4.84017 -0.146555 -32.4274)
(5.3358 0.128955 -32.4616)
(5.47579 0.193401 -32.4535)
(5.77328 0.261948 -32.4648)
(5.7503 0.292043 -32.4619)
(5.93613 0.308336 -32.4721)
(5.88377 0.319117 -32.4701)
(6.01636 0.325492 -32.4767)
(5.9594 0.331308 -32.4725)
(6.05864 0.335392 -32.4749)
(6.00266 0.339333 -32.4691)
(6.07861 0.342423 -32.4687)
(6.02572 0.345616 -32.4619)
(6.08467 0.347809 -32.459)
(6.03619 0.351077 -32.4518)
(6.08171 0.351571 -32.4483)
(6.0397 0.356938 -32.4439)
(6.07021 0.353723 -32.442)
(6.038 0.369308 -32.4426)
(6.03875 0.381822 -32.4201)
(4.85237 -0.622704 -32.4273)
(5.39407 -0.537696 -32.4629)
(5.49583 -0.526577 -32.4568)
(5.75698 -0.472503 -32.4685)
(5.68662 -0.449035 -32.4673)
(5.83224 -0.433892 -32.4778)
(5.73537 -0.424157 -32.4768)
(5.83228 -0.417556 -32.4833)
(5.73473 -0.412485 -32.4796)
(5.80361 -0.408258 -32.4818)
(5.7122 -0.405022 -32.4762)
(5.76341 -0.402044 -32.4755)
(5.68008 -0.399846 -32.4688)
(5.71971 -0.397754 -32.466)
(5.64401 -0.396191 -32.4599)
(5.67758 -0.394212 -32.4574)
(5.60528 -0.394212 -32.4545)
(5.64605 -0.389629 -32.4539)
(5.56078 -0.395491 -32.4559)
(5.64522 -0.405077 -32.4362)
(4.86611 -0.340035 -32.4202)
(5.43519 0.0414724 -32.4573)
(5.41217 0.148009 -32.4526)
(5.57761 0.249465 -32.4665)
(5.40814 0.294607 -32.4661)
(5.4851 0.318781 -32.4777)
(5.31534 0.334265 -32.4765)
(5.36655 0.343591 -32.4831)
(5.21486 0.351292 -32.4788)
(5.2537 0.356661 -32.481)
(5.12124 0.361261 -32.475)
(5.15246 0.364874 -32.4743)
(5.03737 0.368108 -32.4678)
(5.06356 0.370559 -32.4661)
(4.96332 0.373271 -32.4612)
(4.98588 0.374453 -32.4607)
(4.89873 0.37738 -32.4594)
(4.91363 0.377183 -32.461)
(4.84261 0.385114 -32.4633)
(4.82291 0.398883 -32.4488)
(4.81234 -0.873049 -32.4193)
(5.23699 -0.654304 -32.4625)
(4.94509 -0.579754 -32.4646)
(4.95413 -0.496241 -32.4808)
(4.65103 -0.461527 -32.4831)
(4.66439 -0.442358 -32.494)
(4.42373 -0.431313 -32.4932)
(4.45027 -0.424555 -32.4982)
(4.25383 -0.419843 -32.4943)
(4.28439 -0.416167 -32.4952)
(4.12112 -0.413566 -32.4902)
(4.15206 -0.411231 -32.4893)
(4.01437 -0.40967 -32.4848)
(4.04441 -0.408125 -32.484)
(3.92569 -0.407044 -32.4818)
(3.95675 -0.40559 -32.4827)
(3.84792 -0.405167 -32.4833)
(3.89511 -0.401502 -32.4856)
(3.76947 -0.402529 -32.4885)
(3.9135 -0.403661 -32.4772)
(4.53333 -0.489215 -32.4032)
(4.51647 0.0494075 -32.4582)
(3.80806 0.219682 -32.465)
(3.65069 0.326755 -32.484)
(3.24784 0.366458 -32.4842)
(3.24614 0.383263 -32.4947)
(2.97725 0.392724 -32.4909)
(3.01978 0.397175 -32.496)
(2.81272 0.401035 -32.4906)
(2.86505 0.402826 -32.493)
(2.69671 0.404682 -32.4878)
(2.74873 0.405523 -32.4893)
(2.60835 0.406604 -32.4855)
(2.65723 0.406997 -32.4876)
(2.53805 0.407635 -32.4859)
(2.58276 0.408367 -32.4888)
(2.4817 0.407309 -32.489)
(2.51216 0.410621 -32.4921)
(2.4471 0.401814 -32.4933)
(2.37773 0.417813 -32.4878)
(3.65636 -0.928635 -32.3789)
(2.85435 -0.570076 -32.445)
(1.97309 -0.47556 -32.456)
(1.8528 -0.436966 -32.4688)
(1.55144 -0.430663 -32.4681)
(1.59516 -0.428812 -32.4738)
(1.39986 -0.426926 -32.471)
(1.46346 -0.426506 -32.4738)
(1.31149 -0.425065 -32.4709)
(1.37469 -0.425052 -32.4722)
(1.2511 -0.42412 -32.4697)
(1.30923 -0.424075 -32.4709)
(1.20629 -0.4233 -32.4693)
(1.25838 -0.423254 -32.4708)
(1.1711 -0.422571 -32.4702)
(1.21763 -0.422785 -32.4719)
(1.14362 -0.421215 -32.472)
(1.18583 -0.422345 -32.4736)
(1.12758 -0.409001 -32.4738)
(1.26525 -0.413021 -32.4704)
(1.94311 -0.0366917 -32.2522)
(1.07715 0.369671 -32.3078)
(0.611109 0.418823 -32.3106)
(0.583863 0.430233 -32.3168)
(0.460804 0.436101 -32.3147)
(0.491668 0.437871 -32.3181)
(0.412225 0.439755 -32.3157)
(0.446827 0.439304 -32.318)
(0.384887 0.440033 -32.3159)
(0.417086 0.439528 -32.3175)
(0.366664 0.440101 -32.3158)
(0.395313 0.439499 -32.3171)
(0.35339 0.439855 -32.3159)
(0.378557 0.439281 -32.3172)
(0.343177 0.439443 -32.3164)
(0.365065 0.4393 -32.3175)
(0.335543 0.437892 -32.3171)
(0.351519 0.439593 -32.318)
(0.3322 0.41481 -32.3177)
(0.271238 0.425557 -32.3184)
(3.71359 0.563704 0.00635532)
(2.04804 0.630897 0.0040952)
(1.37517 0.606317 0.00533608)
(1.05752 0.602894 0.00409879)
(0.995667 0.61098 0.00511186)
(0.87692 0.61651 0.00407057)
(0.867716 0.619134 0.00490856)
(0.792448 0.620428 0.00403887)
(0.791883 0.62096 0.00474296)
(0.739536 0.62152 0.00401642)
(0.739881 0.621574 0.00460561)
(0.701946 0.621699 0.00399744)
(0.701161 0.621491 0.00448818)
(0.672923 0.621816 0.00397927)
(0.670836 0.621561 0.00438609)
(0.649074 0.62238 0.00396071)
(0.647213 0.618658 0.00429797)
(0.630806 0.627075 0.00393927)
(0.621668 0.558509 0.00423875)
(0.905682 0.582973 0.00389589)
(4.78792 0.000175735 0.00404469)
(4.14747 -0.220689 0.00209652)
(3.58232 -0.417358 0.00335941)
(3.04346 -0.520578 0.00213173)
(2.81594 -0.560024 0.00315281)
(2.55607 -0.577964 0.00211466)
(2.47133 -0.586227 0.00295589)
(2.31646 -0.591526 0.00208591)
(2.27354 -0.594541 0.00279143)
(2.16797 -0.596718 0.00206428)
(2.13945 -0.597959 0.00265448)
(2.06272 -0.598982 0.00204556)
(2.03993 -0.599525 0.00253698)
(1.98199 -0.600426 0.00202742)
(1.96183 -0.600655 0.00243454)
(1.91569 -0.602072 0.00200917)
(1.90004 -0.598849 0.00234414)
(1.85219 -0.606443 0.00198871)
(1.87078 -0.584384 0.00225051)
(1.59305 -0.597121 0.00193916)
(4.77027 0.531425 0.00523094)
(4.86666 0.780926 0.00332687)
(4.76202 0.744744 0.00450559)
(4.41264 0.683135 0.00325974)
(4.22841 0.649778 0.00427208)
(3.97065 0.630628 0.00323054)
(3.86176 0.619495 0.00407056)
(3.68886 0.613149 0.00319921)
(3.61974 0.608238 0.00390411)
(3.49688 0.605531 0.00317557)
(3.44655 0.602699 0.00376514)
(3.355 0.601287 0.0031555)
(3.3142 0.599371 0.00364683)
(3.2436 0.598475 0.00313706)
(3.20794 0.596815 0.00354487)
(3.15336 0.596371 0.00311859)
(3.11726 0.593154 0.0034582)
(3.09077 0.595778 0.00309721)
(3.01915 0.561431 0.00340865)
(3.16465 0.58329 0.00306798)
(4.63293 -0.0624167 0.00395295)
(4.8735 -0.176707 0.00225893)
(5.104 -0.295287 0.00342576)
(5.02 -0.389968 0.00219518)
(5.00506 -0.442552 0.00321472)
(4.85714 -0.477115 0.00218043)
(4.80566 -0.498185 0.00302405)
(4.6753 -0.513336 0.00215516)
(4.62501 -0.523923 0.00286109)
(4.52053 -0.531758 0.00213378)
(4.47608 -0.537879 0.00272351)
(4.39317 -0.542453 0.00211409)
(4.35371 -0.54641 0.00260483)
(4.28717 -0.549254 0.00209501)
(4.25162 -0.551843 0.00250174)
(4.19623 -0.553955 0.00207654)
(4.16638 -0.555553 0.00241094)
(4.10858 -0.557406 0.00205655)
(4.10491 -0.563911 0.002313)
(3.92924 -0.575048 0.00202021)
(4.61742 0.410643 0.00485586)
(4.85342 0.658315 0.00323106)
(5.16353 0.680441 0.00433479)
(5.20456 0.656384 0.00309091)
(5.30891 0.637333 0.0040971)
(5.26655 0.622083 0.00305763)
(5.29647 0.610835 0.00389919)
(5.235 0.602733 0.00302894)
(5.23448 0.595727 0.00373465)
(5.1734 0.59101 0.00300658)
(5.15989 0.586361 0.00359635)
(5.10522 0.583481 0.00298664)
(5.0859 0.580262 0.00347759)
(5.03889 0.578396 0.00296766)
(5.01624 0.575982 0.00337485)
(4.97862 0.574557 0.00294878)
(4.94859 0.572607 0.00328746)
(4.93517 0.571001 0.00292843)
(4.87252 0.557873 0.00323553)
(4.93838 0.585305 0.00290976)
(4.59367 -0.110867 0.00404052)
(4.76834 -0.239111 0.00251992)
(5.10425 -0.32089 0.00360251)
(5.199 -0.385082 0.00236359)
(5.37069 -0.42081 0.00336947)
(5.39524 -0.44613 0.00233291)
(5.48646 -0.461914 0.00317569)
(5.48199 -0.474447 0.00230652)
(5.53023 -0.483634 0.00301247)
(5.51376 -0.491197 0.00228508)
(5.53749 -0.497417 0.00287481)
(5.51678 -0.502472 0.00226538)
(5.52607 -0.507114 0.002756)
(5.50464 -0.510481 0.00224621)
(5.50549 -0.514356 0.00265262)
(5.48388 -0.516027 0.00222732)
(5.48181 -0.521639 0.00256127)
(5.45148 -0.518672 0.002207)
(5.45984 -0.541587 0.0024661)
(5.35402 -0.55031 0.00218215)
(4.60664 0.326165 0.0046035)
(4.76777 0.542644 0.00314128)
(5.08313 0.581909 0.00418994)
(5.1796 0.581449 0.00294871)
(5.36639 0.577357 0.00394749)
(5.41491 0.572944 0.00290842)
(5.5352 0.569004 0.00375035)
(5.56246 0.566146 0.0028805)
(5.64225 0.562995 0.00358656)
(5.65726 0.560971 0.00285885)
(5.71035 0.558427 0.0034488)
(5.7179 0.556967 0.00283942)
(5.75288 0.554937 0.00333044)
(5.75587 0.553833 0.00282084)
(5.77815 0.552289 0.0032279)
(5.77972 0.550966 0.00280213)
(5.78995 0.551124 0.00313986)
(5.79909 0.547503 0.00278198)
(5.78857 0.549555 0.00308116)
(5.81233 0.577975 0.00276885)
(4.59593 -0.155016 0.004143)
(4.7294 -0.302622 0.00273084)
(5.04521 -0.369464 0.00376533)
(5.14427 -0.415769 0.00252428)
(5.33927 -0.440366 0.00352079)
(5.39711 -0.457485 0.00248224)
(5.52965 -0.467441 0.00332411)
(5.57092 -0.475434 0.00245427)
(5.66667 -0.480931 0.00316002)
(5.69865 -0.485715 0.00243227)
(5.76943 -0.489526 0.00302187)
(5.79468 -0.492826 0.00241236)
(5.84767 -0.495919 0.00290301)
(5.8673 -0.498097 0.00239335)
(5.90797 -0.501219 0.0027999)
(5.92161 -0.501527 0.00237455)
(5.95594 -0.50809 0.00270912)
(5.95588 -0.502102 0.00235438)
(5.99601 -0.527859 0.00262149)
(5.93345 -0.539622 0.00233686)
(4.60159 0.258817 0.00441025)
(4.7317 0.449446 0.00303036)
(5.03809 0.498236 0.00404959)
(5.1333 0.514106 0.00280996)
(5.32617 0.52003 0.00380396)
(5.38403 0.523308 0.00276487)
(5.5188 0.524496 0.00360678)
(5.56408 0.525732 0.0027369)
(5.66551 0.525886 0.00344296)
(5.70448 0.526513 0.00271525)
(5.7834 0.526385 0.00330514)
(5.81751 0.526778 0.00269579)
(5.88008 0.526627 0.00318679)
(5.90943 0.526793 0.00267732)
(5.9601 0.526946 0.00308439)
(5.98466 0.526162 0.00265877)
(6.02648 0.5291 0.00299574)
(6.04605 0.524169 0.00263878)
(6.08226 0.537165 0.00292809)
(6.07635 0.562739 0.00262663)
(4.59815 -0.203056 0.00426265)
(4.71992 -0.371137 0.00289754)
(5.02648 -0.428184 0.00391198)
(5.12185 -0.459124 0.00267157)
(5.31584 -0.474337 0.00366432)
(5.37429 -0.484562 0.00262508)
(5.51002 -0.490094 0.00346676)
(5.55644 -0.49465 0.00259673)
(5.65972 -0.49739 0.00330257)
(5.70097 -0.500013 0.00257472)
(5.78291 -0.501779 0.0031644)
(5.82031 -0.503544 0.00255492)
(5.88698 -0.504982 0.00304572)
(5.92013 -0.506041 0.00253619)
(5.97608 -0.507768 0.00294298)
(6.0035 -0.507185 0.00251762)
(6.05361 -0.512514 0.00285326)
(6.06902 -0.505983 0.00249786)
(6.12307 -0.527143 0.00277536)
(6.08959 -0.5453 0.00248424)
(4.59815 0.203056 0.00426265)
(4.71992 0.371137 0.00289754)
(5.02648 0.428184 0.00391199)
(5.12185 0.459125 0.00267157)
(5.31584 0.474337 0.00366432)
(5.3743 0.484564 0.00262509)
(5.51002 0.490095 0.00346676)
(5.55644 0.494655 0.00259673)
(5.65971 0.497395 0.00330257)
(5.70097 0.500025 0.00257471)
(5.7829 0.501795 0.0031644)
(5.82031 0.503581 0.0025549)
(5.88696 0.50503 0.00304571)
(5.92014 0.506156 0.00253611)
(5.97602 0.5079 0.00294295)
(6.00352 0.507536 0.00251737)
(6.05346 0.512899 0.00285321)
(6.0691 0.506965 0.00249714)
(6.12288 0.528333 0.00277547)
(6.09013 0.547851 0.00248299)
(4.60159 -0.258817 0.00441025)
(4.7317 -0.449446 0.00303036)
(5.03809 -0.498236 0.00404959)
(5.1333 -0.514106 0.00280997)
(5.32617 -0.52003 0.00380397)
(5.38403 -0.523306 0.00276488)
(5.5188 -0.524495 0.00360678)
(5.56409 -0.525727 0.00273691)
(5.66551 -0.525882 0.00344297)
(5.70449 -0.526501 0.00271526)
(5.78341 -0.526369 0.00330514)
(5.81751 -0.526741 0.00269582)
(5.88011 -0.52658 0.00318681)
(5.90944 -0.526674 0.00267741)
(5.96021 -0.526817 0.00308441)
(5.98469 -0.525804 0.00265902)
(6.0268 -0.528719 0.00299575)
(6.04612 -0.523204 0.00263944)
(6.08299 -0.535934 0.00292792)
(6.07632 -0.56037 0.00262747)
(4.59593 0.155016 0.00414301)
(4.7294 0.302622 0.00273085)
(5.04521 0.369464 0.00376533)
(5.14427 0.415769 0.00252429)
(5.33927 0.440366 0.00352079)
(5.39711 0.457487 0.00248224)
(5.52965 0.467442 0.00332411)
(5.57093 0.475438 0.00245428)
(5.66666 0.480935 0.00316002)
(5.69866 0.485727 0.00243227)
(5.76943 0.489541 0.00302187)
(5.7947 0.49286 0.00241234)
(5.84767 0.495965 0.002903)
(5.86734 0.498201 0.00239328)
(5.90797 0.501344 0.00279987)
(5.92172 0.501844 0.00237433)
(5.95601 0.508446 0.00270905)
(5.95623 0.503016 0.00235373)
(5.99648 0.52883 0.00262162)
(5.93484 0.542169 0.00233552)
(4.60664 -0.326165 0.00460351)
(4.76777 -0.542644 0.00314128)
(5.08313 -0.581909 0.00418995)
(5.1796 -0.581448 0.00294871)
(5.36639 -0.577357 0.0039475)
(5.41491 -0.572943 0.00290843)
(5.5352 -0.569003 0.00375035)
(5.56246 -0.566141 0.00288052)
(5.64225 -0.562992 0.00358656)
(5.65727 -0.560959 0.00285887)
(5.71036 -0.558413 0.0034488)
(5.71793 -0.556929 0.00283945)
(5.75292 -0.554893 0.00333043)
(5.75594 -0.553715 0.00282093)
(5.77831 -0.552169 0.00322788)
(5.77989 -0.550612 0.00280237)
(5.79048 -0.550766 0.00313979)
(5.79951 -0.546583 0.00278257)
(5.79007 -0.548215 0.00308084)
(5.8132 -0.575812 0.00276926)
(4.59367 0.110867 0.00404052)
(4.76834 0.239111 0.00251993)
(5.10424 0.32089 0.00360252)
(5.199 0.385083 0.0023636)
(5.37069 0.420811 0.00336947)
(5.39525 0.446132 0.00233292)
(5.48646 0.461915 0.0031757)
(5.48199 0.47445 0.00230653)
(5.53023 0.483638 0.00301247)
(5.51378 0.491206 0.00228509)
(5.53748 0.497431 0.0028748)
(5.51684 0.502498 0.00226537)
(5.52607 0.507155 0.00275597)
(5.50478 0.510561 0.00224618)
(5.50555 0.514463 0.00265254)
(5.48426 0.51627 0.0022272)
(5.48211 0.521929 0.0025611)
(5.45253 0.519392 0.00220654)
(5.46113 0.542095 0.00246614)
(5.35726 0.552565 0.00218097)
(4.61742 -0.410644 0.00485586)
(4.85343 -0.658315 0.00323106)
(5.16353 -0.680441 0.00433479)
(5.20456 -0.656384 0.00309092)
(5.30891 -0.637333 0.0040971)
(5.26656 -0.622081 0.00305764)
(5.29646 -0.610834 0.00389919)
(5.23501 -0.602729 0.00302895)
(5.23448 -0.595724 0.00373464)
(5.17343 -0.590999 0.0030066)
(5.15989 -0.586349 0.00359632)
(5.1053 -0.583448 0.00298669)
(5.08594 -0.580226 0.00347753)
(5.0391 -0.57829 0.00296778)
(5.01642 -0.575885 0.00337472)
(4.97915 -0.574237 0.00294911)
(4.9493 -0.572319 0.00328712)
(4.93641 -0.57019 0.00292922)
(4.87479 -0.556679 0.00323467)
(4.94117 -0.583405 0.00291027)
(4.63293 0.0624167 0.00395295)
(4.8735 0.176707 0.00225893)
(5.104 0.295287 0.00342577)
(5.02 0.389968 0.00219519)
(5.00506 0.442552 0.00321472)
(4.85715 0.477115 0.00218043)
(4.80565 0.498186 0.00302405)
(4.67531 0.513338 0.00215516)
(4.62501 0.523927 0.00286108)
(4.52057 0.531762 0.00213379)
(4.47608 0.53789 0.00272348)
(4.39327 0.542465 0.0021141)
(4.35373 0.546438 0.00260476)
(4.28746 0.549285 0.00209503)
(4.25174 0.55191 0.00250158)
(4.197 0.554045 0.00207659)
(4.16684 0.555721 0.00241053)
(4.11079 0.55769 0.00205659)
(4.10651 0.564198 0.0023125)
(3.93622 0.576233 0.0020201)
(4.77027 -0.531425 0.00523094)
(4.86666 -0.780926 0.00332687)
(4.76202 -0.744744 0.00450559)
(4.41264 -0.683135 0.00325975)
(4.22841 -0.649778 0.00427208)
(3.97065 -0.630628 0.00323055)
(3.86176 -0.619494 0.00407055)
(3.68888 -0.613146 0.00319922)
(3.61975 -0.608236 0.0039041)
(3.49692 -0.605524 0.00317559)
(3.44657 -0.60269 0.00376511)
(3.3551 -0.601265 0.00315556)
(3.31426 -0.599344 0.00364674)
(3.24389 -0.598397 0.00313722)
(3.20818 -0.596742 0.00354464)
(3.15413 -0.596118 0.00311905)
(3.11809 -0.592939 0.00345754)
(3.09274 -0.595115 0.0030985)
(3.02147 -0.560958 0.00340649)
(3.16971 -0.582317 0.00307069)
(4.78792 -0.000175777 0.0040447)
(4.14747 0.220689 0.00209653)
(3.58232 0.417358 0.00335942)
(3.04346 0.520578 0.00213174)
(2.81594 0.560024 0.00315281)
(2.55607 0.577964 0.00211467)
(2.47133 0.586227 0.0029559)
(2.31647 0.591526 0.00208592)
(2.27355 0.594542 0.00279143)
(2.168 0.596716 0.00206429)
(2.13947 0.597961 0.00265447)
(2.06281 0.598974 0.00204558)
(2.03999 0.59953 0.00253694)
(1.98224 0.600404 0.00202745)
(1.96204 0.600662 0.00243443)
(1.91635 0.601986 0.00200926)
(1.90072 0.598866 0.00234379)
(1.85419 0.606212 0.00198894)
(1.87218 0.58458 0.00224968)
(1.60293 0.597597 0.00194049)
(3.71359 -0.563703 0.00635537)
(2.04804 -0.630897 0.00409524)
(1.37517 -0.606317 0.00533613)
(1.05752 -0.602894 0.00409884)
(0.995668 -0.61098 0.0051119)
(0.876922 -0.61651 0.00407062)
(0.867718 -0.619134 0.0049086)
(0.792452 -0.620427 0.00403892)
(0.79189 -0.620959 0.004743)
(0.739548 -0.621517 0.00401647)
(0.739899 -0.621571 0.00460564)
(0.701985 -0.621685 0.0039975)
(0.701212 -0.621484 0.0044882)
(0.673033 -0.621775 0.00397938)
(0.670997 -0.62154 0.00438603)
(0.649359 -0.622236 0.00396097)
(0.647709 -0.618608 0.00429768)
(0.631518 -0.626664 0.00393996)
(0.623189 -0.559009 0.00423747)
(0.904827 -0.583446 0.00389902)
(3.99954 0.15926 0.00114495)
(2.96943 0.122489 0.00139191)
(2.10513 0.0735753 0.000876868)
(1.64168 0.0384413 0.00123585)
(1.40227 0.0255429 0.000918362)
(1.30536 0.0258545 0.00112628)
(1.24177 0.0305461 0.000906211)
(1.20594 0.0357709 0.00103323)
(1.16917 0.0398528 0.000898025)
(1.1409 0.0429629 0.000970602)
(1.11352 0.0450636 0.000895639)
(1.08953 0.0466505 0.000928682)
(1.06932 0.0476593 0.000896312)
(1.04949 0.0485863 0.000901524)
(1.03398 0.0489177 0.000900041)
(1.01913 0.0499314 0.000885527)
(1.00359 0.0490855 0.000908143)
(0.998787 0.0518009 0.000876411)
(0.972114 0.0459286 0.000917432)
(1.00269 0.0490798 0.000897511)
(4.61866 0.179959 0.0029653)
(4.61867 0.195004 0.0033225)
(4.33585 0.148339 0.00278528)
(4.03854 0.0799997 0.00312912)
(3.76575 0.0311922 0.00280376)
(3.56087 0.00199566 0.0030099)
(3.38921 -0.0132895 0.00278863)
(3.25523 -0.0227257 0.00291572)
(3.13978 -0.0283346 0.00277973)
(3.04407 -0.0328553 0.00285217)
(2.96213 -0.0358457 0.00277676)
(2.89053 -0.0385375 0.00280988)
(2.83046 -0.0403489 0.00277772)
(2.77525 -0.041998 0.00278292)
(2.729 -0.0432253 0.00278233)
(2.68669 -0.0441785 0.00276702)
(2.64684 -0.0450711 0.00279326)
(2.61822 -0.045787 0.00275604)
(2.57697 -0.0462017 0.00282755)
(2.56088 -0.0484956 0.00279365)
(4.56089 0.125052 0.00140551)
(4.79407 0.174889 0.00167003)
(4.89429 0.174585 0.00114529)
(4.91222 0.138393 0.00149104)
(4.85522 0.109369 0.00117546)
(4.78428 0.0931843 0.00138632)
(4.69849 0.085588 0.00116867)
(4.61625 0.0817084 0.00129586)
(4.53262 0.0791336 0.00116107)
(4.45312 0.076862 0.00123291)
(4.37761 0.0747844 0.00115788)
(4.30567 0.0728777 0.00119011)
(4.24002 0.0710334 0.0011578)
(4.17791 0.0697843 0.00116261)
(4.1206 0.0678099 0.00116145)
(4.07078 0.0679457 0.00114685)
(4.01547 0.064514 0.00116887)
(3.9858 0.0679094 0.00113936)
(3.91621 0.0592777 0.00116264)
(3.92433 0.0676767 0.00115848)
(4.5426 0.121742 0.00270687)
(4.72869 0.141903 0.00309568)
(4.89438 0.129788 0.00257965)
(5.02211 0.0886316 0.00291741)
(5.0831 0.0538405 0.00258974)
(5.12119 0.0300449 0.00279668)
(5.1338 0.0159748 0.00257563)
(5.13884 0.00656135 0.0027024)
(5.13255 1.08614e-05 0.00256609)
(5.12064 -0.00557227 0.00263795)
(5.10333 -0.0101495 0.00256195)
(5.0816 -0.0142315 0.00259421)
(5.05783 -0.0178998 0.00256113)
(5.03185 -0.0206966 0.0025657)
(5.0041 -0.0241623 0.00256414)
(4.97912 -0.025192 0.00254928)
(4.94611 -0.0296922 0.00257427)
(4.92998 -0.0277125 0.0025416)
(4.88202 -0.0348144 0.00261393)
(4.88742 -0.0294574 0.00258332)
(4.54555 0.0844284 0.00159908)
(4.71554 0.121101 0.00190958)
(4.86828 0.129612 0.00138962)
(5.00525 0.111498 0.00171812)
(5.09083 0.0967274 0.00139408)
(5.16166 0.089004 0.00160343)
(5.21114 0.086439 0.00138517)
(5.25642 0.0859612 0.00151238)
(5.29205 0.0858908 0.00137745)
(5.32331 0.0856125 0.00144925)
(5.34863 0.0849577 0.00137412)
(5.36919 0.0842353 0.00140621)
(5.38546 0.0829863 0.00137359)
(5.39856 0.0825097 0.00137814)
(5.40679 0.080334 0.00137646)
(5.41631 0.0814519 0.00136185)
(5.41599 0.0765508 0.00138264)
(5.42705 0.082502 0.00135511)
(5.41446 0.070363 0.00137267)
(5.43205 0.0874269 0.00137923)
(4.54098 0.0798396 0.0024805)
(4.6897 0.0909877 0.00287774)
(4.83806 0.0831398 0.00237212)
(4.97277 0.0540893 0.00270634)
(5.06224 0.0295536 0.00237878)
(5.1411 0.0123361 0.00258798)
(5.20147 0.00192225 0.00236823)
(5.26006 -0.00484067 0.0024958)
(5.31111 -0.00947324 0.00235994)
(5.35956 -0.0131139 0.00243196)
(5.40386 -0.0161918 0.0023562)
(5.44412 -0.0186229 0.00238852)
(5.48193 -0.0212181 0.00235552)
(5.51539 -0.0225598 0.0023601)
(5.54763 -0.0254908 0.00235835)
(5.57528 -0.0250048 0.00234353)
(5.60387 -0.0297556 0.00236765)
(5.62465 -0.0256751 0.00233753)
(5.65356 -0.0338424 0.00240571)
(5.66021 -0.0250249 0.00237723)
(4.54151 0.0499814 0.00177244)
(4.68547 0.076069 0.00212027)
(4.8278 0.0859921 0.00160956)
(4.95958 0.078337 0.0019317)
(5.0483 0.0721889 0.00160296)
(5.12742 0.069724 0.00181099)
(5.18883 0.0700556 0.00159144)
(5.24959 0.0713889 0.00171813)
(5.30416 0.0726941 0.00158238)
(5.35733 0.0736969 0.00165373)
(5.40796 0.0742007 0.00157815)
(5.45515 0.0746394 0.00161005)
(5.50184 0.0744094 0.00157731)
(5.54357 0.0749208 0.00158179)
(5.58727 0.0736928 0.00158013)
(5.62312 0.0754697 0.00156544)
(5.6668 0.071751 0.00158633)
(5.69288 0.0776771 0.00155981)
(5.74478 0.0679991 0.00158178)
(5.74914 0.084398 0.0015882)
(4.53885 0.0441787 0.00228325)
(4.671 0.0464951 0.00267954)
(4.81181 0.0395693 0.00217795)
(4.94221 0.0202575 0.00250722)
(5.03155 0.00377022 0.00217869)
(5.11168 -0.00839691 0.00238838)
(5.17438 -0.0163056 0.00216906)
(5.23637 -0.0216258 0.00229684)
(5.29257 -0.0253717 0.00216118)
(5.3474 -0.02816 0.00223314)
(5.40058 -0.0304929 0.00215756)
(5.45007 -0.032157 0.00218985)
(5.50071 -0.0339907 0.00215713)
(5.54503 -0.0347458 0.00216178)
(5.59471 -0.0367487 0.00216034)
(5.63238 -0.0361852 0.00214558)
(5.6855 -0.0393049 0.00216921)
(5.71025 -0.036539 0.00214087)
(5.77777 -0.0410762 0.00219936)
(5.77484 -0.0368707 0.00217788)
(4.53903 0.018512 0.0019389)
(4.66888 0.0347292 0.00231251)
(4.80702 0.043997 0.00180823)
(4.9362 0.0455876 0.00212985)
(5.02514 0.0471301 0.00179966)
(5.10491 0.0495273 0.00200783)
(5.16719 0.0523903 0.00178798)
(5.22878 0.0550699 0.00191478)
(5.28483 0.0572423 0.00177873)
(5.33966 0.0589115 0.00185)
(5.39334 0.0600921 0.00177419)
(5.44331 0.0610403 0.00180602)
(5.49522 0.0615485 0.0017732)
(5.54041 0.0622884 0.00177766)
(5.59226 0.0621354 0.00177607)
(5.6309 0.0633988 0.00176138)
(5.68742 0.061845 0.00178293)
(5.71278 0.065419 0.00175685)
(5.78588 0.0604137 0.00178898)
(5.78343 0.0710201 0.00178816)
(4.53819 0.0121607 0.0021057)
(4.66423 0.00537222 0.00249412)
(4.80186 -0.00247269 0.00199286)
(4.93057 -0.0128439 0.0023176)
(5.01969 -0.0218047 0.00198795)
(5.09973 -0.0290665 0.00219706)
(5.16229 -0.0344721 0.00197755)
(5.22403 -0.0384724 0.00210493)
(5.28027 -0.0414473 0.00196909)
(5.33517 -0.0436594 0.00204071)