/*--------------------------------*- C++ -*----------------------------------*\
  =========                 |
  \\      /  F ield         | OpenFOAM: The Open Source CFD Toolbox
   \\    /   O peration     | Website:  https://openfoam.org
    \\  /    A nd           | Version:  7
     \\/     M anipulation  |
\*---------------------------------------------------------------------------*/
FoamFile
{
    version     2.0;
    format      ascii;
    class       volSymmTensorField;
    location    "1.8625";
    object      UPrime2Mean;
}
// * * * * * * * * * * * * * * * * * * * * * * * * * * * * * * * * * * * * * //

dimensions      [0 2 -2 0 0 0 0];

internalField   nonuniform List<symmTensor> 
7920
(
(0.012652 -0.0010352 -0.00110205 0.000143329 0.000129363 0.000231348)
(0.0543031 0.00733416 -0.00278404 0.00127732 -0.000411566 0.00041623)
(0.0827513 0.0132567 -0.00347641 0.00277099 -0.000631027 0.000550202)
(0.110417 0.0172654 -0.00380249 0.00348169 -0.000640371 0.000600362)
(0.115582 0.0175144 -0.00396273 0.00372939 -0.000684683 0.000660272)
(0.130213 0.0185714 -0.00400678 0.00380768 -0.000645457 0.000647614)
(0.129617 0.0179078 -0.00405221 0.00386173 -0.000679917 0.00064141)
(0.139707 0.0184014 -0.0039914 0.00387027 -0.000646341 0.000585492)
(0.137958 0.0176739 -0.00396473 0.00389527 -0.000670795 0.000550072)
(0.145749 0.0179406 -0.00384819 0.0038968 -0.00064263 0.000492835)
(0.143917 0.01725 -0.00378851 0.00391097 -0.000660786 0.000461791)
(0.15016 0.0173457 -0.00364715 0.00390903 -0.000634624 0.000422008)
(0.148562 0.0167069 -0.00356514 0.00391583 -0.000645351 0.000407021)
(0.153626 0.0166768 -0.00341542 0.0039138 -0.00062186 0.00038952)
(0.152401 0.0160946 -0.00331377 0.00391401 -0.000625145 0.000389897)
(0.156565 0.0159746 -0.00317984 0.00392046 -0.000608312 0.000393222)
(0.155627 0.015337 -0.00306393 0.00387912 -0.00059682 0.00039758)
(0.159707 0.0152869 -0.00298751 0.00396182 -0.000605917 0.000420957)
(0.156815 0.0129774 -0.00279025 0.00335799 -0.000517998 0.000405122)
(0.172792 0.0178766 -0.00223406 0.00423952 -0.000582908 0.000442664)
(0.00383875 0.000491892 0.000161819 0.00643137 0.000957363 0.000254196)
(0.00771784 -0.00389704 -0.00059263 0.00721402 0.00131882 0.000757603)
(0.022953 -0.00714735 -0.00160707 0.00623201 0.00136563 0.00135883)
(0.0449837 -0.00995692 -0.00284867 0.00504709 0.00116319 0.00183783)
(0.0673475 -0.0100296 -0.00378245 0.00450182 0.00106657 0.00234279)
(0.0888745 -0.0108442 -0.00460314 0.00424837 0.000925811 0.00260495)
(0.107855 -0.0103777 -0.00519317 0.00414431 0.000875422 0.00278324)
(0.124805 -0.0107159 -0.0057067 0.00407889 0.000792114 0.00270338)
(0.140192 -0.010185 -0.00601635 0.00405728 0.000781687 0.00255248)
(0.153725 -0.0102616 -0.0062801 0.00402469 0.000737039 0.00228857)
(0.166537 -0.00972673 -0.0064015 0.0040188 0.000742019 0.00202605)
(0.177714 -0.00962998 -0.00645023 0.00399518 0.000713482 0.00175545)
(0.188653 -0.00913115 -0.00640088 0.00399517 0.000719978 0.00152907)
(0.198204 -0.00890317 -0.00627013 0.00397662 0.000703542 0.00135006)
(0.207693 -0.00847264 -0.00602631 0.00397592 0.000697985 0.00121546)
(0.216502 -0.0080414 -0.00578862 0.00397527 0.000701338 0.00117632)
(0.223657 -0.00774419 -0.00539963 0.00393599 0.000658081 0.00111769)
(0.234876 -0.00657071 -0.00521576 0.00398923 0.000697969 0.00123105)
(0.22969 -0.00649474 -0.00460422 0.00386028 0.000575401 0.00116324)
(0.246705 -0.000392847 -0.00399753 0.00351616 0.000596137 0.00136238)
(0.00518292 0.00082847 0.000568693 0.000932762 0.000298413 0.000259122)
(0.00911461 -0.000183442 0.00126383 0.00129786 5.64886e-05 0.000843775)
(0.0171846 -0.00215613 0.00222617 0.00206921 -2.5288e-05 0.00161497)
(0.0180501 -0.00317183 0.00210846 0.00279948 -9.77805e-05 0.00232566)
(0.0227112 -0.00496693 0.00229458 0.00312664 -0.000269849 0.00317515)
(0.0254627 -0.0050571 0.00179784 0.00330453 -0.000376461 0.003905)
(0.0314546 -0.00608225 0.00154572 0.00340403 -0.000569091 0.00460078)
(0.0376019 -0.00574831 0.000686211 0.00347009 -0.000651956 0.00497082)
(0.0453133 -0.00637349 6.5517e-05 0.00352824 -0.000769061 0.0051243)
(0.0536745 -0.00599968 -0.000859968 0.00357406 -0.000791502 0.00495574)
(0.0622504 -0.00648308 -0.00142014 0.00361361 -0.000842583 0.00463885)
(0.0715703 -0.00621053 -0.0021068 0.00364956 -0.000830449 0.00416517)
(0.0802443 -0.00664369 -0.00244946 0.00367673 -0.000848415 0.00364271)
(0.0898429 -0.00650524 -0.00280775 0.00370215 -0.000819976 0.00311239)
(0.0982247 -0.00697589 -0.00283719 0.00372765 -0.000824723 0.00259715)
(0.108163 -0.00678935 -0.00273245 0.00372209 -0.00079599 0.00220392)
(0.115788 -0.00765185 -0.00242053 0.00379597 -0.000766381 0.0018476)
(0.127006 -0.00648385 -0.00192707 0.00370708 -0.000842654 0.0017154)
(0.132047 -0.00828425 -0.001437 0.00375014 -0.000608584 0.0015435)
(0.14845 -0.00339186 -0.000301808 0.0052378 -0.00141171 0.00165776)
(0.00530931 0.00229772 0.000563782 0.00287092 0.00061359 0.00024319)
(0.0105873 0.00538196 0.00142006 0.00502231 0.00116273 0.00082174)
(0.0270577 0.0105965 0.00327365 0.00598174 0.00157044 0.00162272)
(0.0364283 0.0114956 0.00427783 0.00562549 0.00155203 0.00234305)
(0.0516181 0.013547 0.00585882 0.0052777 0.00155558 0.00325177)
(0.0579924 0.0131636 0.0064387 0.00499247 0.00140648 0.00407262)
(0.0694715 0.0143254 0.00734969 0.00478441 0.00132959 0.00498896)
(0.0741711 0.0137791 0.00710004 0.00461034 0.00117772 0.00562394)
(0.0837274 0.0147038 0.00709586 0.00449243 0.00112289 0.0061058)
(0.0885081 0.0142838 0.00624486 0.00437364 0.00101995 0.0062048)
(0.097237 0.0150981 0.00587206 0.00430315 0.000996727 0.00611469)
(0.102694 0.0148444 0.00501595 0.00421835 0.000940185 0.00577646)
(0.110907 0.0155706 0.00460799 0.00417889 0.000933825 0.00531013)
(0.117183 0.0154689 0.00394037 0.00411191 0.000909808 0.00473175)
(0.124808 0.0161002 0.0036198 0.00410219 0.00089643 0.00409616)
(0.132142 0.0161405 0.00345086 0.00403095 0.000889996 0.00345302)
(0.13879 0.016639 0.00345394 0.00406876 0.000878138 0.0028768)
(0.147983 0.0168299 0.00405172 0.00395539 0.000832229 0.00238514)
(0.152705 0.0169987 0.00420548 0.00401291 0.000833511 0.00201769)
(0.167146 0.0181911 0.00604424 0.00424649 0.000681882 0.00185281)
(0.00526092 -0.000150551 0.000559036 0.000107868 -2.61908e-05 0.00024228)
(0.00991704 -0.00149232 0.00132892 0.00113436 -0.000338354 0.000833818)
(0.0279227 -0.00403837 0.00335207 0.00198663 -0.000453942 0.00163339)
(0.0410034 -0.00514434 0.00462679 0.00268001 -0.000437248 0.00237071)
(0.0631409 -0.00762891 0.00680462 0.00305474 -0.000522583 0.00326299)
(0.0763371 -0.00845759 0.00792566 0.00324066 -0.000546388 0.0041181)
(0.097439 -0.0105671 0.00961041 0.00335139 -0.000679324 0.005055)
(0.109063 -0.0110907 0.0098781 0.00341104 -0.000723401 0.00579795)
(0.128514 -0.0127329 0.0105126 0.00346606 -0.00082942 0.00637555)
(0.13922 -0.013099 0.00996845 0.003501 -0.000851409 0.00662497)
(0.157218 -0.0144328 0.0100312 0.00353825 -0.000916945 0.00666127)
(0.167522 -0.0147633 0.00932479 0.00356392 -0.000915307 0.00644898)
(0.184208 -0.0158881 0.00923255 0.00359679 -0.000954515 0.00610965)
(0.19439 -0.0162159 0.00855087 0.00360898 -0.000927083 0.00558645)
(0.209869 -0.0172678 0.0084217 0.00365664 -0.000957879 0.0050302)
(0.219888 -0.0175155 0.00799254 0.00361391 -0.000908942 0.00431591)
(0.234125 -0.0186765 0.00822231 0.00375418 -0.000927598 0.00371553)
(0.244352 -0.0192307 0.00842737 0.00356076 -0.000962338 0.00305649)
(0.254429 -0.0193608 0.00902847 0.00382606 -0.000820421 0.00256952)
(0.27037 -0.0256478 0.0108836 0.00468491 -0.0014813 0.00229689)
(0.00518234 0.00113396 0.000537598 0.000715553 0.000297913 0.000236422)
(0.00907083 0.00292662 0.00120136 0.00229574 0.00070779 0.000823166)
(0.0261455 0.0070971 0.00314751 0.00326875 0.000997081 0.00162627)
(0.0393907 0.00859334 0.00443517 0.00360613 0.000990762 0.00236344)
(0.0627746 0.011493 0.0067108 0.00377863 0.00106459 0.00325724)
(0.0782017 0.0122737 0.00798347 0.0038295 0.00100844 0.00411572)
(0.102815 0.0145032 0.00989292 0.00386638 0.00105445 0.00505562)
(0.118132 0.0149386 0.010375 0.00386322 0.000998213 0.00581719)
(0.142815 0.0167057 0.0112751 0.00387328 0.00103173 0.00641942)
(0.158055 0.0169875 0.0109225 0.00385895 0.000983175 0.00670966)
(0.182288 0.0184365 0.0112249 0.00386257 0.00100848 0.00679252)
(0.197446 0.0186792 0.0106621 0.00384725 0.000970448 0.00662914)
(0.220786 0.0199038 0.0107866 0.00385321 0.000993101 0.00635424)
(0.235935 0.0201198 0.010179 0.00383344 0.000959183 0.00587389)
(0.257914 0.0212517 0.0102152 0.00385649 0.000981086 0.00537884)
(0.273227 0.0213122 0.00973756 0.00380407 0.000938606 0.0046733)
(0.292705 0.0226248 0.010111 0.00389605 0.000964783 0.00408367)
(0.309669 0.0226333 0.0102029 0.00375277 0.000936529 0.00339966)
(0.321015 0.0231388 0.0110055 0.00391122 0.000895927 0.00284707)
(0.345977 0.02635 0.0129949 0.00450003 0.00113357 0.00258216)
(0.00518234 -0.00113398 0.000537601 0.000715549 -0.000297916 0.000236422)
(0.00907083 -0.00292661 0.00120135 0.00229574 -0.000707792 0.000823173)
(0.0261455 -0.00709711 0.00314753 0.00326875 -0.0009971 0.00162625)
(0.0393907 -0.00859334 0.00443511 0.00360613 -0.000990769 0.00236347)
(0.0627746 -0.0114931 0.0067109 0.00377863 -0.00106463 0.0032572)
(0.0782018 -0.0122737 0.0079833 0.00382951 -0.00100845 0.00411575)
(0.102815 -0.0145032 0.00989322 0.00386639 -0.00105453 0.00505566)
(0.118132 -0.0149385 0.0103745 0.00386321 -0.000998188 0.00581701)
(0.142816 -0.0167056 0.0112759 0.00387327 -0.00103187 0.00641985)
(0.158055 -0.016987 0.0109213 0.00385889 -0.000983058 0.00670889)
(0.182289 -0.0184354 0.0112267 0.0038624 -0.00100871 0.00679366)
(0.197447 -0.0186776 0.0106595 0.00384698 -0.000970166 0.00662772)
(0.220791 -0.0198997 0.0107902 0.00385273 -0.000993427 0.00635564)
(0.235936 -0.0201128 0.0101744 0.00383245 -0.000958694 0.00587295)
(0.257929 -0.021243 0.0102211 0.00385557 -0.000981325 0.00537889)
(0.273231 -0.0212853 0.00973109 0.0038001 -0.000937773 0.00467456)
(0.292732 -0.0226146 0.0101165 0.00389548 -0.000964063 0.00408108)
(0.309667 -0.0225537 0.0102002 0.00374086 -0.000934817 0.00340367)
(0.321075 -0.0231166 0.0110024 0.00391033 -0.000892699 0.00284189)
(0.34598 -0.0262472 0.0130131 0.0044794 -0.00113072 0.0025891)
(0.00526093 0.000150539 0.000559043 0.000107866 2.61889e-05 0.000242281)
(0.00991705 0.00149233 0.00132889 0.00113435 0.000338346 0.000833834)
(0.0279227 0.00403836 0.00335215 0.00198662 0.000453933 0.00163336)
(0.0410034 0.00514433 0.00462665 0.00268001 0.000437226 0.00237079)
(0.0631408 0.00762889 0.00680491 0.00305474 0.000522569 0.00326288)
(0.0763373 0.00845759 0.00792517 0.00324062 0.000546335 0.00411819)
(0.0974388 0.0105671 0.00961128 0.00335138 0.000679309 0.00505507)
(0.109064 0.0110906 0.00987673 0.00341101 0.000723318 0.00579748)
(0.128513 0.012733 0.0105149 0.00346605 0.000829453 0.00637679)
(0.139222 0.0130993 0.00996491 0.00350097 0.000851215 0.00662261)
(0.157216 0.0144337 0.0100366 0.00353831 0.000917164 0.00666503)
(0.167528 0.0147642 0.00931648 0.00356397 0.000914849 0.00644407)
(0.184203 0.0158916 0.00924502 0.00359707 0.000955114 0.0061151)
(0.194407 0.0162209 0.00853245 0.00360947 0.000926204 0.00558205)
(0.209862 0.0172745 0.00844819 0.0036572 0.000959165 0.00503231)
(0.219931 0.0175367 0.00795688 0.00361643 0.000907484 0.00431786)
(0.234137 0.0186835 0.00826685 0.00375458 0.000930836 0.00370983)
(0.244459 0.0192983 0.00838075 0.00357094 0.000960303 0.00306623)
(0.254515 0.019376 0.00907067 0.0038271 0.000826331 0.00255706)
(0.270591 0.0257457 0.0108739 0.00470948 0.0014797 0.00231424)
(0.00530932 -0.00229773 0.00056379 0.00287091 -0.000613603 0.000243191)
(0.0105873 -0.00538194 0.00142002 0.0050223 -0.0011627 0.000821754)
(0.0270577 -0.0105965 0.00327374 0.00598173 -0.00157051 0.00162269)
(0.0364283 -0.0114956 0.00427762 0.00562548 -0.00155196 0.00234316)
(0.0516181 -0.0135471 0.00585914 0.0052777 -0.00155573 0.00325161)
(0.0579925 -0.0131636 0.00643813 0.00499245 -0.0014063 0.00407279)
(0.0694714 -0.0143255 0.00735059 0.00478443 -0.00132992 0.00498894)
(0.0741713 -0.0137792 0.00709868 0.00461029 -0.00117731 0.00562344)
(0.0837275 -0.0147039 0.00709808 0.00449241 -0.00112356 0.00610751)
(0.0885092 -0.0142837 0.00624139 0.00437349 -0.00101906 0.00620131)
(0.0972375 -0.0150979 0.00587784 0.004303 -0.000997975 0.00612102)
(0.102698 -0.0148441 0.00500638 0.00421802 -0.00093835 0.00576756)
(0.110909 -0.0155697 0.00462496 0.00417837 -0.000936313 0.0053216)
(0.117194 -0.0154661 0.00391202 0.0041107 -0.000905744 0.0047204)
(0.124818 -0.0160998 0.00366778 0.00410146 -0.000901729 0.00410598)
(0.132167 -0.0161299 0.0033763 0.00402674 -0.000881009 0.00344843)
(0.138819 -0.016646 0.00356464 0.00406885 -0.000889133 0.00287659)
(0.148018 -0.0168021 0.00390316 0.00394438 -0.000814302 0.00239038)
(0.152776 -0.0170221 0.0043901 0.00401484 -0.000853023 0.00200885)
(0.167187 -0.0181691 0.00585314 0.00423486 -0.000651498 0.0018684)
(0.00518294 -0.000828481 0.000568699 0.000932754 -0.000298418 0.000259125)
(0.00911462 0.000183443 0.00126381 0.00129784 -5.6481e-05 0.000843787)
(0.0171846 0.00215612 0.0022262 0.0020692 2.52673e-05 0.00161497)
(0.0180501 0.0031718 0.00210839 0.00279946 9.7792e-05 0.00232576)
(0.0227111 0.00496689 0.00229454 0.00312664 0.000269825 0.00317501)
(0.0254626 0.00505705 0.00179794 0.00330448 0.000376444 0.00390524)
(0.0314544 0.00608216 0.00154534 0.00340402 0.000569086 0.00460068)
(0.0376015 0.00574818 0.000687195 0.00347006 0.000651859 0.00497081)
(0.0453132 0.00637334 6.36365e-05 0.00352823 0.000769206 0.00512559)
(0.0536733 0.00599966 -0.000856637 0.00357398 0.000791064 0.00495326)
(0.0622501 0.0064828 -0.00142536 0.00361371 0.000843282 0.00464477)
(0.0715666 0.00621039 -0.00209973 0.0036495 0.000829044 0.00415637)
(0.0802424 0.00664323 -0.0024573 0.00367702 0.000850518 0.00365666)
(0.0898322 0.00650535 -0.00280234 0.00370217 0.000816158 0.00309539)
(0.0982107 0.00697487 -0.00283346 0.00372844 0.000830667 0.00261852)
(0.108138 0.00678752 -0.00275626 0.00372303 0.000785606 0.00218104)
(0.115734 0.00764778 -0.00236022 0.00379691 0.000784164 0.00187267)
(0.126954 0.00649056 -0.00203587 0.00371322 0.000811109 0.001689)
(0.131896 0.0082802 -0.00126413 0.00375283 0.000658826 0.00156236)
(0.148293 0.0034721 -0.000496831 0.00525032 0.00129663 0.00166371)
(0.00383878 -0.000491913 0.000161821 0.00643135 -0.000957366 0.0002542)
(0.00771788 0.00389704 -0.000592629 0.007214 -0.00131882 0.000757624)
(0.022953 0.00714731 -0.00160714 0.00623201 -0.00136566 0.00135887)
(0.0449837 0.00995688 -0.00284862 0.00504708 -0.00116317 0.0018379)
(0.0673474 0.0100295 -0.00378281 0.00450184 -0.00106663 0.0023428)
(0.0888742 0.0108441 -0.00460263 0.00424835 -0.000925751 0.0026052)
(0.107854 0.0103776 -0.00519434 0.00414434 -0.000875559 0.0027833)
(0.124805 0.0107156 -0.00570475 0.00407889 -0.000791952 0.0027038)
(0.140191 0.0101848 -0.00602006 0.00405731 -0.000781981 0.00255291)
(0.153722 0.0102609 -0.00627413 0.00402462 -0.000736609 0.00228846)
(0.166534 0.0097259 -0.0064119 0.00401882 -0.000742694 0.00202785)
(0.177703 0.00962823 -0.00643422 0.00399501 -0.000712363 0.00175303)
(0.188645 0.00912878 -0.0064265 0.00399505 -0.000721731 0.0015346)
(0.19817 0.00889852 -0.00623319 0.00397588 -0.000700335 0.00134169)
(0.207667 0.00846788 -0.00608003 0.00397609 -0.000703258 0.00122995)
(0.216425 0.00803075 -0.00571918 0.00397278 -0.000691039 0.00115365)
(0.223551 0.00773702 -0.00548676 0.00393765 -0.000676189 0.00115289)
(0.234753 0.00655423 -0.00512699 0.00398297 -0.000661378 0.00117977)
(0.229372 0.00647993 -0.00471808 0.00386899 -0.000649238 0.00121713)
(0.24669 0.000427833 -0.00379621 0.00352136 -0.000451681 0.0013613)
(0.012652 0.00103517 -0.00110202 0.000143325 -0.000129357 0.00023135)
(0.0543032 -0.00733415 -0.00278399 0.00127732 0.000411566 0.000416252)
(0.0827513 -0.0132568 -0.00347638 0.002771 0.000631029 0.000550233)
(0.110417 -0.0172654 -0.00380233 0.0034817 0.00064035 0.000600398)
(0.115582 -0.0175145 -0.00396268 0.00372942 0.000684676 0.000660316)
(0.130213 -0.0185712 -0.0040067 0.00380764 0.000645454 0.000647713)
(0.129617 -0.0179078 -0.0040526 0.00386171 0.000679971 0.000641504)
(0.139707 -0.0184012 -0.00399125 0.00387022 0.000646346 0.000585649)
(0.137958 -0.0176739 -0.0039658 0.00389523 0.000670916 0.000550187)
(0.145748 -0.0179401 -0.0038473 0.00389667 0.000642566 0.000492977)
(0.143916 -0.01725 -0.00379102 0.00391098 0.000661026 0.00046197)
(0.150156 -0.0173447 -0.00364403 0.00390882 0.000634358 0.000421965)
(0.14856 -0.0167065 -0.00357136 0.00391584 0.000645895 0.000407525)
(0.153614 -0.0166738 -0.00340649 0.00391322 0.000620977 0.000388744)
(0.152394 -0.0160943 -0.0033292 0.0039145 0.000626606 0.000391757)
(0.156539 -0.0159686 -0.0031568 0.00391898 0.000605472 0.000389754)
(0.155593 -0.0153375 -0.00310086 0.00388097 0.000601559 0.000404329)
(0.159668 -0.0152786 -0.00293379 0.00395893 0.000595872 0.000408878)
(0.156708 -0.0129975 -0.00285602 0.00336813 0.000537105 0.000424752)
(0.17268 -0.017877 -0.00236564 0.00425073 0.000544505 0.000417551)
(0.00420621 -0.000397574 2.15549e-05 0.00240401 1.91821e-05 5.92033e-07)
(0.0364004 -0.0123565 1.33075e-06 0.00564063 1.99914e-05 4.71739e-07)
(0.0786613 -0.0179331 1.23681e-05 0.00648446 2.8982e-05 5.38777e-07)
(0.150966 -0.0245982 3.70898e-05 0.00632306 2.16519e-05 4.63048e-07)
(0.161777 -0.023723 2.54781e-05 0.00646345 3.04387e-05 5.16394e-07)
(0.207621 -0.0279193 4.91747e-05 0.00671557 2.3946e-05 4.42764e-07)
(0.200396 -0.0264246 2.84033e-05 0.00694186 3.22611e-05 4.90442e-07)
(0.235202 -0.0294686 5.09644e-05 0.00711283 2.5932e-05 4.23591e-07)
(0.225306 -0.0276767 2.87923e-05 0.00721462 3.33944e-05 4.67786e-07)
(0.253885 -0.0298104 5.07626e-05 0.00729047 2.72388e-05 4.08032e-07)
(0.243988 -0.0280312 2.85459e-05 0.00733541 3.3824e-05 4.46309e-07)
(0.267632 -0.0295485 4.9844e-05 0.00737593 2.7975e-05 3.92168e-07)
(0.258607 -0.0279104 2.81035e-05 0.00739886 3.37849e-05 4.23508e-07)
(0.278376 -0.0289885 4.90313e-05 0.00742738 2.82516e-05 3.74525e-07)
(0.270475 -0.0275094 2.81754e-05 0.00743127 3.32929e-05 3.99452e-07)
(0.287578 -0.0282629 4.94033e-05 0.00747933 2.81221e-05 3.5576e-07)
(0.279531 -0.0267823 2.90253e-05 0.00735372 3.20901e-05 3.75096e-07)
(0.297206 -0.0273447 5.36443e-05 0.00775474 2.81701e-05 3.36702e-07)
(0.281017 -0.0215057 2.66466e-05 0.00580129 2.87274e-05 3.5252e-07)
(0.278317 -0.0204665 7.08401e-05 0.00632523 2.34646e-05 3.08782e-07)
(0.00600808 0.000276016 2.67043e-05 0.000431726 -6.80064e-06 4.67012e-07)
(0.00473794 -2.97233e-05 1.64842e-05 0.00132297 -1.60078e-05 3.95827e-07)
(0.0099155 -0.00214708 4.92179e-05 0.00270489 -2.51527e-05 4.47394e-07)
(0.0189706 -0.000101632 5.53707e-05 0.00406298 -2.22943e-05 3.89897e-07)
(0.0291264 -0.00087786 7.50834e-05 0.00514682 -2.81655e-05 4.29287e-07)
(0.0524202 0.00327274 8.51466e-05 0.00588273 -2.16902e-05 3.69725e-07)
(0.0641423 0.00231073 9.45789e-05 0.00628188 -2.85767e-05 4.05781e-07)
(0.0918081 0.00571916 0.000104889 0.00654716 -2.21149e-05 3.50829e-07)
(0.102085 0.00448653 0.000108415 0.00671064 -2.86815e-05 3.8544e-07)
(0.129277 0.00711158 0.000118073 0.00684336 -2.24251e-05 3.35593e-07)
(0.137562 0.00584453 0.000117313 0.00693562 -2.84114e-05 3.65986e-07)
(0.162571 0.00782109 0.000125911 0.00701788 -2.25216e-05 3.20072e-07)
(0.169232 0.00657759 0.000121924 0.00707132 -2.7932e-05 3.44948e-07)
(0.191851 0.00805025 0.000129867 0.00713521 -2.24083e-05 3.02932e-07)
(0.19738 0.0068046 0.000123781 0.00714874 -2.72296e-05 3.22681e-07)
(0.218465 0.00808081 0.000131928 0.00723866 -2.19438e-05 2.85187e-07)
(0.221845 0.00631212 0.000124486 0.00719226 -2.64334e-05 3.00409e-07)
(0.245029 0.00897558 0.000133862 0.00736554 -2.05732e-05 2.68149e-07)
(0.237605 0.0045156 0.000125174 0.00738968 -2.56828e-05 2.78736e-07)
(0.292324 0.0179558 0.00013861 0.009139 -1.67464e-05 2.47373e-07)
(0.00481292 0.00135917 2.67246e-05 0.00130841 1.35704e-05 5.24321e-07)
(0.00598662 0.00268262 1.57214e-05 0.0067777 1.58548e-05 4.35413e-07)
(0.020534 0.0108127 4.95838e-05 0.00952545 2.37655e-05 4.91189e-07)
(0.0186927 0.00812528 3.49418e-05 0.00943088 1.3926e-05 4.21091e-07)
(0.0290762 0.0115667 6.47366e-05 0.00901677 2.38799e-05 4.68685e-07)
(0.0257879 0.00781041 5.56437e-05 0.00863877 1.65477e-05 4.01038e-07)
(0.0342292 0.0101899 8.23966e-05 0.00838317 2.59627e-05 4.44447e-07)
(0.0346214 0.00722244 7.65873e-05 0.00820313 1.95787e-05 3.83243e-07)
(0.0434738 0.00934807 9.98718e-05 0.00803042 2.79961e-05 4.24262e-07)
(0.0474534 0.00714407 9.58341e-05 0.00792189 2.2098e-05 3.69222e-07)
(0.0566134 0.00906116 0.000115425 0.00780683 2.94102e-05 4.05295e-07)
(0.0629209 0.00744313 0.000112261 0.00774465 2.38128e-05 3.55047e-07)
(0.0719017 0.00912292 0.000128115 0.00767415 3.00826e-05 3.84812e-07)
(0.0795902 0.00795632 0.000125577 0.00763244 2.47029e-05 3.38854e-07)
(0.0880796 0.00935368 0.000137976 0.00759994 3.00302e-05 3.62452e-07)
(0.0969837 0.00871286 0.000136595 0.00754447 2.49501e-05 3.21063e-07)
(0.104282 0.00944138 0.000145446 0.00752733 2.91302e-05 3.39331e-07)
(0.115596 0.0102643 0.000146904 0.00752225 2.5109e-05 3.03157e-07)
(0.120219 0.00869168 0.00015143 0.00665515 2.63178e-05 3.18179e-07)
(0.135379 0.0131396 0.000156472 0.00772744 2.54559e-05 2.84866e-07)
(0.00432956 -0.000339763 2.33537e-05 0.000252841 -7.77452e-06 4.70013e-07)
(0.0050248 -0.000207383 1.51957e-05 0.00133425 -1.49529e-05 4.05053e-07)
(0.0205923 -0.00303952 4.37674e-05 0.00267935 -2.44375e-05 4.54047e-07)
(0.024663 -0.00323901 2.55064e-05 0.00392426 -2.2274e-05 3.93746e-07)
(0.0461215 -0.00753904 5.15576e-05 0.00481266 -2.89981e-05 4.35037e-07)
(0.0475403 -0.00750152 3.41167e-05 0.00544597 -2.37689e-05 3.74659e-07)
(0.0661587 -0.01139 6.15253e-05 0.00580679 -3.05989e-05 4.12068e-07)
(0.0658791 -0.0108565 4.60982e-05 0.00606465 -2.47997e-05 3.56054e-07)
(0.0818664 -0.0139937 7.33163e-05 0.00622705 -3.09914e-05 3.91469e-07)
(0.0815815 -0.0132981 6.00679e-05 0.00636851 -2.49791e-05 3.40663e-07)
(0.095785 -0.0158364 8.63251e-05 0.00647305 -3.04127e-05 3.72223e-07)
(0.0963065 -0.0151734 7.51839e-05 0.00656895 -2.45168e-05 3.25709e-07)
(0.109241 -0.0172546 9.97748e-05 0.00665043 -2.9372e-05 3.51988e-07)
(0.110788 -0.0167302 9.04406e-05 0.0067144 -2.37552e-05 3.09337e-07)
(0.122732 -0.0184933 0.000112912 0.00679518 -2.82626e-05 3.30221e-07)
(0.125124 -0.0181299 0.000105148 0.00680451 -2.27224e-05 2.91865e-07)
(0.136506 -0.0197603 0.000125629 0.00698368 -2.73715e-05 3.07959e-07)
(0.139065 -0.0195592 0.00011834 0.00683073 -2.07862e-05 2.74729e-07)
(0.150924 -0.0211251 0.000139092 0.00731701 -2.63779e-05 2.85952e-07)
(0.151221 -0.0233013 0.00012598 0.00872911 -1.87228e-05 2.57183e-07)
(0.00440699 0.000841419 2.47012e-05 0.000719429 1.09821e-05 4.99381e-07)
(0.00493602 0.000886255 1.66614e-05 0.00384403 1.53284e-05 4.27104e-07)
(0.0196081 0.00786424 4.76416e-05 0.00585782 2.33755e-05 4.78422e-07)
(0.0244243 0.00816672 2.86638e-05 0.00674267 1.59415e-05 4.11396e-07)
(0.0487458 0.0141817 5.52143e-05 0.00716023 2.45793e-05 4.56845e-07)
(0.0541808 0.0136248 3.46984e-05 0.00738827 1.75897e-05 3.91777e-07)
(0.0795548 0.0182178 6.24195e-05 0.00749083 2.61506e-05 4.33037e-07)
(0.0847642 0.0174439 4.25587e-05 0.00754542 1.97338e-05 3.73422e-07)
(0.109246 0.0210317 7.0852e-05 0.00753449 2.75752e-05 4.12081e-07)
(0.114459 0.0202631 5.26986e-05 0.00753129 2.15771e-05 3.58256e-07)
(0.137476 0.0231253 8.11618e-05 0.00749566 2.85107e-05 3.92641e-07)
(0.142914 0.0224884 6.54087e-05 0.00748158 2.28622e-05 3.4373e-07)
(0.16433 0.0248264 9.3539e-05 0.00745134 2.89163e-05 3.72502e-07)
(0.170277 0.0243433 8.0279e-05 0.00742914 2.35451e-05 3.27824e-07)
(0.189883 0.0262925 0.000107541 0.00742637 2.87802e-05 3.50764e-07)
(0.196833 0.0258932 9.63634e-05 0.00735892 2.36079e-05 3.10529e-07)
(0.213524 0.0276293 0.000122822 0.00742947 2.80489e-05 3.28289e-07)
(0.223174 0.0272999 0.000112227 0.00729736 2.31794e-05 2.93197e-07)
(0.233062 0.0277201 0.000140807 0.00702007 2.64108e-05 3.07211e-07)
(0.244643 0.0297666 0.000126282 0.00845673 2.43153e-05 2.76142e-07)
(0.0043724 -0.000586165 2.38193e-05 0.000405892 -9.18455e-06 4.82539e-07)
(0.00483543 -0.000441955 1.62337e-05 0.00218703 -1.48542e-05 4.16629e-07)
(0.0186146 -0.00524072 4.62129e-05 0.00360247 -2.34882e-05 4.65726e-07)
(0.0231788 -0.00542533 2.82118e-05 0.00471585 -1.88632e-05 4.01738e-07)
(0.0473556 -0.0105495 5.34998e-05 0.00542907 -2.65933e-05 4.45312e-07)
(0.0538065 -0.010394 3.28055e-05 0.0059402 -2.07201e-05 3.82738e-07)
(0.0809584 -0.0147837 5.92162e-05 0.0062242 -2.84188e-05 4.22199e-07)
(0.0885137 -0.0144251 3.82784e-05 0.00642628 -2.24922e-05 3.64399e-07)
(0.11645 -0.0180506 6.55254e-05 0.00653871 -2.94724e-05 4.01314e-07)
(0.125 -0.017681 4.57129e-05 0.00663857 -2.35974e-05 3.48927e-07)
(0.15266 -0.0206985 7.36039e-05 0.00670154 -2.97028e-05 3.81821e-07)
(0.162032 -0.0204206 5.59803e-05 0.00676458 -2.39936e-05 3.3413e-07)
(0.188884 -0.0229635 8.42254e-05 0.00681339 -2.93361e-05 3.61674e-07)
(0.199029 -0.0228058 6.92143e-05 0.00684832 -2.3848e-05 3.18069e-07)
(0.224618 -0.0249901 9.74148e-05 0.00691227 -2.862e-05 3.40001e-07)
(0.23556 -0.0249398 8.46702e-05 0.00687991 -2.31959e-05 3.0079e-07)
(0.258614 -0.0269332 0.000112934 0.00704972 -2.77283e-05 3.17746e-07)
(0.271536 -0.0273473 0.000100404 0.00686985 -2.1816e-05 2.83749e-07)
(0.28688 -0.0283942 0.000131844 0.00708578 -2.64795e-05 2.96201e-07)
(0.302916 -0.033084 0.000114599 0.00848727 -2.1828e-05 2.66771e-07)
(0.0043724 0.000586161 2.38194e-05 0.000405892 9.18456e-06 4.8254e-07)
(0.00483543 0.000441967 1.6234e-05 0.00218703 1.48542e-05 4.16629e-07)
(0.0186146 0.00524072 4.6213e-05 0.00360247 2.34883e-05 4.65726e-07)
(0.0231788 0.00542534 2.82121e-05 0.00471586 1.88632e-05 4.01738e-07)
(0.0473556 0.0105495 5.35001e-05 0.00542907 2.65934e-05 4.45312e-07)
(0.0538066 0.0103941 3.28064e-05 0.00594022 2.072e-05 3.82738e-07)
(0.0809582 0.0147837 5.92168e-05 0.00622423 2.84189e-05 4.22199e-07)
(0.0885139 0.0144253 3.8278e-05 0.00642635 2.24921e-05 3.64399e-07)
(0.116449 0.018051 6.55258e-05 0.00653879 2.94724e-05 4.01314e-07)
(0.125001 0.0176819 4.57136e-05 0.00663872 2.35969e-05 3.48927e-07)
(0.152659 0.0206996 7.36033e-05 0.00670177 2.97025e-05 3.81821e-07)
(0.162035 0.0204231 5.59763e-05 0.00676507 2.39927e-05 3.34131e-07)
(0.18888 0.0229672 8.42235e-05 0.00681403 2.93347e-05 3.61676e-07)
(0.199038 0.0228149 6.9212e-05 0.0068499 2.38454e-05 3.18065e-07)
(0.224609 0.0250008 9.7411e-05 0.00691392 2.86168e-05 3.40003e-07)
(0.235586 0.0249658 8.46559e-05 0.00688502 2.31914e-05 3.00768e-07)
(0.2586 0.0269638 0.000112925 0.00705409 2.77212e-05 3.1777e-07)
(0.271636 0.0274141 0.00010039 0.00688472 2.18167e-05 2.83709e-07)
(0.286933 0.0284659 0.000131872 0.007097 2.64684e-05 2.96336e-07)
(0.303066 0.0332339 0.000114594 0.00852958 2.18512e-05 2.66735e-07)
(0.00440699 -0.000841422 2.47014e-05 0.000719431 -1.09821e-05 4.99381e-07)
(0.00493602 -0.000886246 1.66611e-05 0.00384403 -1.53284e-05 4.27104e-07)
(0.0196081 -0.00786423 4.76422e-05 0.00585782 -2.33754e-05 4.78422e-07)
(0.0244243 -0.00816671 2.8664e-05 0.00674265 -1.59415e-05 4.11396e-07)
(0.0487458 -0.0141817 5.52148e-05 0.00716022 -2.45792e-05 4.56845e-07)
(0.0541809 -0.0136247 3.46984e-05 0.00738823 -1.75899e-05 3.91777e-07)
(0.0795548 -0.0182178 6.24213e-05 0.0074908 -2.61504e-05 4.33038e-07)
(0.0847644 -0.0174438 4.25621e-05 0.0075453 -1.9734e-05 3.73421e-07)
(0.109247 -0.0210314 7.0854e-05 0.0075344 -2.75751e-05 4.12081e-07)
(0.11446 -0.0202623 5.26995e-05 0.00753102 -2.15775e-05 3.58257e-07)
(0.137477 -0.0231245 8.1165e-05 0.00749537 -2.8511e-05 3.92641e-07)
(0.142916 -0.0224862 6.54147e-05 0.0074808 -2.28629e-05 3.43729e-07)
(0.164335 -0.0248239 9.35401e-05 0.00745064 -2.8918e-05 3.72497e-07)
(0.170283 -0.0243355 8.02817e-05 0.00742681 -2.35467e-05 3.27835e-07)
(0.1899 -0.0262863 0.000107541 0.0074248 -2.87841e-05 3.50754e-07)
(0.196845 -0.0258727 9.63779e-05 0.00735252 -2.36103e-05 3.10563e-07)
(0.213577 -0.0276148 0.00012282 0.00742599 -2.80582e-05 3.28256e-07)
(0.223175 -0.0272547 0.000112228 0.00728361 -2.31769e-05 2.93258e-07)
(0.233175 -0.0276952 0.00014077 0.00701267 -2.64254e-05 3.07096e-07)
(0.244692 -0.0296561 0.000126242 0.00842381 -2.43062e-05 2.76223e-07)
(0.00432956 0.000339762 2.3354e-05 0.000252841 7.77452e-06 4.70013e-07)
(0.00502481 0.000207393 1.5196e-05 0.00133425 1.49529e-05 4.05053e-07)
(0.0205923 0.00303953 4.37681e-05 0.00267936 2.44376e-05 4.54047e-07)
(0.024663 0.003239 2.55071e-05 0.00392426 2.22741e-05 3.93745e-07)
(0.0461215 0.00753906 5.15584e-05 0.00481268 2.89982e-05 4.35037e-07)
(0.0475404 0.00750158 3.41181e-05 0.00544598 2.37689e-05 3.74659e-07)
(0.0661585 0.0113901 6.15278e-05 0.00580682 3.0599e-05 4.12068e-07)
(0.0658797 0.0108566 4.61002e-05 0.00606468 2.47996e-05 3.56054e-07)
(0.081866 0.013994 7.33188e-05 0.00622711 3.09914e-05 3.9147e-07)
(0.0815834 0.0132986 6.00696e-05 0.00636856 2.49787e-05 3.40663e-07)
(0.0957842 0.0158372 8.63263e-05 0.00647324 3.04125e-05 3.72223e-07)
(0.0963123 0.0151745 7.51823e-05 0.00656912 2.45158e-05 3.25711e-07)
(0.109239 0.0172568 9.97742e-05 0.006651 2.93713e-05 3.51986e-07)
(0.110805 0.0167343 9.04418e-05 0.00671507 2.37521e-05 3.09338e-07)
(0.12273 0.0184988 0.000112902 0.00679685 2.82617e-05 3.30212e-07)
(0.125171 0.0181418 0.000105144 0.00680739 2.27166e-05 2.91861e-07)
(0.136511 0.0197749 0.000125604 0.00698853 2.7369e-05 3.0796e-07)
(0.139193 0.0195979 0.000118341 0.0068432 2.07897e-05 2.74723e-07)
(0.150983 0.021161 0.0001391 0.00732993 2.63719e-05 2.86065e-07)
(0.151524 0.0234015 0.000125998 0.008771 1.87703e-05 2.5722e-07)
(0.00481293 -0.00135917 2.67249e-05 0.00130842 -1.35704e-05 5.2432e-07)
(0.00598662 -0.00268262 1.57213e-05 0.00677771 -1.58548e-05 4.35413e-07)
(0.020534 -0.0108127 4.9585e-05 0.00952546 -2.37655e-05 4.91188e-07)
(0.0186927 -0.00812527 3.49427e-05 0.00943086 -1.3926e-05 4.21091e-07)
(0.0290762 -0.0115667 6.47379e-05 0.00901678 -2.38798e-05 4.68685e-07)
(0.025788 -0.0078104 5.56449e-05 0.00863873 -1.65478e-05 4.01039e-07)
(0.0342291 -0.0101898 8.2401e-05 0.00838316 -2.59626e-05 4.44449e-07)