/*--------------------------------*- C++ -*----------------------------------*\
  =========                 |
  \\      /  F ield         | OpenFOAM: The Open Source CFD Toolbox
   \\    /   O peration     | Website:  https://openfoam.org
    \\  /    A nd           | Version:  7
     \\/     M anipulation  |
\*---------------------------------------------------------------------------*/
FoamFile
{
    version     2.0;
    format      ascii;
    class       volScalarField;
    location    "0.655";
    object      alphat;
}
// * * * * * * * * * * * * * * * * * * * * * * * * * * * * * * * * * * * * * //

dimensions      [1 -1 -1 0 0 0 0];

internalField   nonuniform List<scalar> 
4950
(
0.0107225
0.0114197
0.0114442
0.0114505
0.0114444
0.0114446
0.0114383
0.0114379
0.011433
0.0114332
0.01143
0.0114309
0.0114288
0.01143
0.0114285
0.0114293
0.0114288
0.0114279
0.0114328
0.011465
0.00563841
0.00600761
0.00596849
0.00585721
0.00577485
0.00573335
0.00570488
0.00569191
0.00567864
0.00567283
0.00566452
0.005661
0.00565506
0.00565251
0.00564793
0.0056462
0.00564595
0.00563873
0.00569254
0.00571208
0.00448259
0.00496804
0.00507657
0.0051025
0.00510761
0.0051143
0.00511755
0.00512204
0.00512437
0.00512776
0.00512896
0.00513155
0.00513218
0.00513438
0.00513404
0.0051357
0.00513473
0.00513542
0.00513681
0.00514754
0.00438211
0.00486539
0.00499215
0.00504143
0.00506451
0.00508487
0.00509731
0.00511174
0.0051202
0.00513091
0.00513674
0.00514527
0.00514989
0.00515708
0.00516056
0.0051658
0.0051682
0.00517108
0.0051733
0.00518225
0.00436845
0.00485651
0.00498466
0.00503594
0.00506049
0.0050823
0.00509616
0.00511216
0.00512224
0.00513462
0.00514212
0.00515227
0.00515857
0.00516736
0.00517253
0.00517924
0.00518309
0.00518741
0.00519032
0.00520022
0.00438211
0.00486539
0.00499215
0.00504143
0.00506451
0.00508487
0.00509731
0.00511174
0.0051202
0.00513091
0.00513673
0.00514527
0.00514988
0.00515709
0.00516055
0.00516582
0.0051682
0.00517108
0.00517334
0.00518229
0.00448259
0.00496804
0.00507657
0.0051025
0.00510761
0.0051143
0.00511755
0.00512204
0.00512438
0.00512775
0.00512898
0.00513154
0.00513221
0.00513435
0.0051341
0.00513566
0.00513483
0.00513534
0.00513704
0.0051472
0.00563841
0.00600761
0.00596849
0.00585721
0.00577485
0.00573335
0.00570488
0.00569191
0.00567864
0.00567283
0.00566451
0.00566098
0.00565507
0.00565246
0.00564795
0.00564609
0.00564603
0.00563853
0.00569253
0.00571061
0.0107225
0.0114197
0.0114442
0.0114505
0.0114444
0.0114447
0.0114383
0.0114379
0.011433
0.0114332
0.0114299
0.0114309
0.0114288
0.0114301
0.0114285
0.0114295
0.0114286
0.0114282
0.0114324
0.0114651
0.00420959
0.00506232
0.00517064
0.00515352
0.00513915
0.00511666
0.00511091
0.00509762
0.00509496
0.00508626
0.00508481
0.00507862
0.0050778
0.00507307
0.00507277
0.00506867
0.00506924
0.00506467
0.00506181
0.00508849
0.00363005
0.00459897
0.00478761
0.00482692
0.00483586
0.00484109
0.00484404
0.00484739
0.00484908
0.00485119
0.00485209
0.00485323
0.00485315
0.00485359
0.00485273
0.00485337
0.00485178
0.00485299
0.00485256
0.00486208
0.00353905
0.00449953
0.00469281
0.00473913
0.00474753
0.00475308
0.00475458
0.00475792
0.00475933
0.00476268
0.00476403
0.00476714
0.00476835
0.00477064
0.00477134
0.00477275
0.00477311
0.00477402
0.00477319
0.00478353
0.00354356
0.00450287
0.00469465
0.00474053
0.00474919
0.00475338
0.00475402
0.00475563
0.00475566
0.0047568
0.00475711
0.00475831
0.00475873
0.00475989
0.00476001
0.00476072
0.00476066
0.00476106
0.00476143
0.00476835
0.00353464
0.00449231
0.00468483
0.00473179
0.0047402
0.00474472
0.00474489
0.00474663
0.00474605
0.00474723
0.00474696
0.00474798
0.00474793
0.00474887
0.00474852
0.00474931
0.00474861
0.00474915
0.00474862
0.00475466
0.00354356
0.00450287
0.00469465
0.00474053
0.00474919
0.00475338
0.00475402
0.00475563
0.00475566
0.0047568
0.00475712
0.00475831
0.00475873
0.00475989
0.00475999
0.00476073
0.00476063
0.00476106
0.00476142
0.00476833
0.00353905
0.00449953
0.00469281
0.00473913
0.00474753
0.00475308
0.00475458
0.00475792
0.00475934
0.00476267
0.00476403
0.00476714
0.00476833
0.00477066
0.00477131
0.00477278
0.00477307
0.004774
0.00477335
0.00478318
0.00363005
0.00459897
0.00478761
0.00482692
0.00483586
0.00484109
0.00484404
0.00484739
0.00484908
0.00485119
0.0048521
0.00485321
0.00485317
0.00485356
0.00485277
0.00485324
0.00485197
0.00485257
0.00485328
0.00486085
0.00420959
0.00506232
0.00517064
0.00515352
0.00513915
0.00511666
0.00511091
0.00509762
0.00509496
0.00508626
0.00508482
0.00507862
0.00507781
0.00507306
0.00507281
0.00506861
0.00506942
0.00506443
0.00506275
0.005086
0.00100616
0.00184068
0.00206761
0.00210519
0.00208985
0.00205484
0.00201875
0.00198888
0.00196472
0.00194503
0.0019305
0.00191772
0.00190918
0.00190063
0.00189558
0.00189024
0.00188607
0.00188512
0.00187602
0.00189515
0.000471598
0.00112613
0.00142653
0.00155103
0.00160116
0.00162673
0.00163967
0.00165095
0.00165892
0.00166717
0.00167306
0.00167875
0.00168221
0.00168556
0.00168718
0.00168902
0.00169002
0.00169079
0.00169143
0.0016972
0.000436079
0.00103599
0.00130644
0.00143178
0.00147885
0.00150574
0.0015139
0.00152258
0.00152502
0.00153014
0.00153238
0.00153701
0.00153945
0.00154307
0.00154528
0.00154794
0.00154999
0.00155221
0.00155325
0.0015584
0.000442269
0.0010494
0.00131901
0.00143995
0.00148622
0.00151049
0.00151829
0.00152429
0.00152535
0.00152733
0.0015278
0.00152888
0.00152935
0.00152994
0.00153022
0.00153014
0.0015306
0.00153032
0.00153102
0.00153438
0.000435265
0.00103428
0.00130087
0.00142455
0.00147025
0.00149627
0.00150329
0.00151012
0.00151079
0.00151266
0.00151271
0.00151353
0.00151348
0.00151388
0.00151342
0.00151335
0.00151279
0.00151248
0.00151174
0.00151435
0.000442269
0.0010494
0.00131901
0.00143995
0.00148622
0.00151049
0.00151829
0.00152429
0.00152535
0.00152733
0.0015278
0.00152888
0.00152934
0.00152995
0.00153021
0.00153014
0.00153059
0.00153032
0.00153099
0.00153439
0.000436079
0.00103599
0.00130643
0.00143178
0.00147885
0.00150574
0.00151391
0.00152257
0.00152502
0.00153013
0.00153239
0.00153701
0.00153943
0.00154308
0.00154525
0.00154794
0.00154997
0.00155216
0.00155323
0.0015583
0.000471598
0.00112613
0.00142653
0.00155103
0.00160116
0.00162673
0.00163967
0.00165095
0.00165892
0.00166717
0.00167306
0.00167874
0.00168222
0.00168553
0.00168721
0.00168892
0.00169012
0.00169047
0.00169179
0.00169661
0.00100616
0.00184068
0.00206761
0.00210519
0.00208985
0.00205484
0.00201875
0.00198888
0.00196472
0.00194504
0.0019305
0.00191773
0.0019092
0.00190063
0.00189565
0.00189019
0.00188638
0.00188473
0.00187724
0.00189353
0.00420959
0.00506232
0.00517064
0.00515352
0.00513915
0.00511666
0.00511091
0.00509762
0.00509496
0.00508626
0.00508481
0.00507862
0.00507779
0.00507307
0.00507277
0.00506867
0.00506924
0.00506467
0.00506181
0.00508849
0.00363005
0.00459897
0.00478761
0.00482692
0.00483586
0.00484109
0.00484404
0.00484739
0.00484908
0.00485119
0.00485209
0.00485323
0.00485315
0.00485359
0.00485273
0.00485337
0.00485178
0.00485299
0.00485256
0.00486208
0.00353905
0.00449953
0.00469281
0.00473913
0.00474753
0.00475308
0.00475458
0.00475792
0.00475933
0.00476268
0.00476403
0.00476714
0.00476835
0.00477064
0.00477134
0.00477275
0.00477311
0.00477402
0.00477319
0.00478353
0.00354356
0.00450287
0.00469465
0.00474053
0.00474919
0.00475338
0.00475402
0.00475563
0.00475566
0.0047568
0.00475711
0.00475831
0.00475873
0.00475989
0.00476001
0.00476072
0.00476066
0.00476106
0.00476143
0.00476835
0.00353464
0.00449231
0.00468483
0.00473179
0.0047402
0.00474472
0.00474489
0.00474663
0.00474605
0.00474723
0.00474696
0.00474798
0.00474793
0.00474887
0.00474852
0.00474931
0.00474861
0.00474915
0.00474862
0.00475466
0.00354356
0.00450287
0.00469465
0.00474053
0.00474919
0.00475338
0.00475402
0.00475563
0.00475566
0.0047568
0.00475712
0.00475831
0.00475873
0.00475989
0.00475999
0.00476073
0.00476063
0.00476106
0.00476142
0.00476833
0.00353905
0.00449953
0.00469281
0.00473913
0.00474753
0.00475308
0.00475458
0.00475792
0.00475934
0.00476267
0.00476403
0.00476714
0.00476833
0.00477066
0.00477131
0.00477278
0.00477307
0.004774
0.00477335
0.00478318
0.00363005
0.00459897
0.00478761
0.00482692
0.00483586
0.00484109
0.00484404
0.00484739
0.00484908
0.00485119
0.0048521
0.00485322
0.00485317
0.00485356
0.00485277
0.00485324
0.00485197
0.00485257
0.00485328
0.00486085
0.00420959
0.00506232
0.00517064
0.00515352
0.00513915
0.00511666
0.00511091
0.00509762
0.00509496
0.00508626
0.00508482
0.00507862
0.00507781
0.00507306
0.00507281
0.00506861
0.00506942
0.00506443
0.00506275
0.005086
0.0107225
0.0114197
0.0114442
0.0114505
0.0114444
0.0114446
0.0114383
0.0114379
0.011433
0.0114332
0.01143
0.0114309
0.0114288
0.01143
0.0114285
0.0114293
0.0114288
0.0114279
0.0114328
0.011465
0.00563841
0.00600761
0.00596849
0.00585721
0.00577485
0.00573335
0.00570488
0.00569191
0.00567864
0.00567283
0.00566452
0.005661
0.00565506
0.00565251
0.00564793
0.0056462
0.00564595
0.00563873
0.00569254
0.00571208
0.00448259
0.00496804
0.00507657
0.0051025
0.00510761
0.0051143
0.00511755
0.00512204
0.00512437
0.00512776
0.00512896
0.00513155
0.00513218
0.00513438
0.00513404
0.0051357
0.00513473
0.00513542
0.00513681
0.00514754
0.00438211
0.00486539
0.00499215
0.00504143
0.00506451
0.00508487
0.00509731
0.00511174
0.0051202
0.00513091
0.00513674
0.00514527
0.00514989
0.00515708
0.00516056
0.0051658
0.0051682
0.00517108
0.0051733
0.00518225
0.00436845
0.00485651
0.00498466
0.00503594
0.00506049
0.0050823
0.00509616
0.00511216
0.00512224
0.00513462
0.00514212
0.00515227
0.00515857
0.00516736
0.00517253
0.00517924
0.00518309
0.00518741
0.00519032
0.00520022
0.00438211
0.00486539
0.00499215
0.00504143
0.00506451
0.00508487
0.00509731
0.00511174
0.0051202
0.00513091
0.00513673
0.00514527
0.00514988
0.00515709
0.00516055
0.00516582
0.0051682
0.00517108
0.00517334
0.00518229
0.00448259
0.00496804
0.00507657
0.0051025
0.00510761
0.0051143
0.00511755
0.00512204
0.00512438
0.00512775
0.00512898
0.00513154
0.00513221
0.00513435
0.0051341
0.00513566
0.00513483
0.00513534
0.00513704
0.0051472
0.00563841
0.00600761
0.00596849
0.00585721
0.00577485
0.00573335
0.00570488
0.00569191
0.00567864
0.00567283
0.00566451
0.00566098
0.00565507
0.00565246
0.00564795
0.00564609
0.00564603
0.00563853
0.00569253
0.00571061
0.0107225
0.0114197
0.0114442
0.0114505
0.0114444
0.0114447
0.0114383
0.0114379
0.011433
0.0114332
0.0114299
0.0114309
0.0114288
0.0114301
0.0114285
0.0114295
0.0114286
0.0114282
0.0114324
0.0114651
0.0334092
0.0335325
0.0335312
0.0335298
0.0335249
0.0335252
0.0335225
0.0335232
0.0335213
0.0335219
0.0335205
0.0335211
0.0335202
0.0335209
0.0335205
0.0335215
0.0335216
0.0335229
0.0335235
0.0335251
0.0335262
0.0335281
0.0335295
0.0335317
0.0335335
0.0335358
0.0335377
0.0335402
0.0335422
0.0335446
0.0335465
0.0335488
0.0335507
0.0335527
0.0335544
0.0335562
0.0335577
0.0335593
0.0335607
0.0335622
0.0335635
0.033565
0.0335664
0.0335679
0.0335693
0.033571
0.0335725
0.0335743
0.033576
0.0335779
0.0335797
0.0335816
0.0335834
0.0335853
0.0335871
0.033589
0.0335907
0.0335925
0.0335942
0.033596
0.0335977
0.0335996
0.0336014
0.0336034
0.0336052
0.0336073
0.0336092
0.0336112
0.0336131
0.033615
0.0336169
0.0336189
0.0336208
0.0336227
0.0336247
0.0336267
0.0336286
0.0336306
0.0336325
0.0336346
0.0336365
0.0336386
0.0336405
0.0336426
0.0336446
0.0336467
0.0336486
0.033651
0.0336477
0.0336471
0.0195464
0.0200871
0.0201028
0.0201118
0.0201025
0.0201068
0.0200988
0.0201034
0.0200982
0.0201031
0.0200999
0.0201049
0.0201029
0.0201079
0.0201067
0.0201116
0.0201109
0.0201158
0.0201155
0.0201203
0.0201204
0.0201252
0.0201255
0.0201301
0.0201306
0.020135
0.0201356
0.0201398
0.0201403
0.0201441
0.0201445
0.020148
0.0201483
0.0201513
0.0201514
0.020154
0.0201539
0.0201562
0.0201559
0.020158
0.0201576
0.0201595
0.0201592
0.0201609
0.0201607
0.0201623
0.0201621
0.0201638
0.0201637
0.0201653
0.0201652
0.0201668
0.0201668
0.0201682
0.0201682
0.0201696
0.0201696
0.0201709
0.0201709
0.0201722
0.0201723
0.0201736
0.0201738
0.0201751
0.0201754
0.0201767
0.0201771
0.0201785
0.0201789
0.0201802
0.0201807
0.020182
0.0201826
0.020184
0.0201846
0.020186
0.0201867
0.0201881
0.0201889
0.0201904
0.0201912
0.0201927
0.0201936
0.0201952
0.0201961
0.0201978
0.0201987
0.0202007
0.0201988
0.0201988
0.0164658
0.0173179
0.0173659
0.017386
0.0173761
0.0173874
0.0173782
0.0173891
0.0173835
0.0173937
0.0173911
0.0174011
0.0174001
0.0174101
0.01741
0.0174198
0.0174203
0.0174299
0.0174309
0.0174403
0.0174417
0.0174508
0.0174524
0.0174612
0.0174629
0.0174713
0.017473
0.017481
0.0174826
0.01749
0.0174915
0.0174984
0.0174997
0.017506
0.017507
0.0175128
0.0175137
0.017519
0.0175197
0.0175246
0.0175253
0.0175299
0.0175305
0.0175348
0.0175355
0.0175396
0.0175403
0.0175443
0.017545
0.0175488
0.0175496
0.0175532
0.017554
0.0175573
0.0175581
0.0175612
0.0175619
0.0175649
0.0175656
0.0175685
0.0175693
0.0175721
0.0175729
0.0175757
0.0175765
0.0175792
0.0175801
0.0175827
0.0175836
0.0175861
0.017587
0.0175895
0.0175904
0.0175929
0.0175938
0.0175963
0.0175973
0.0175997
0.0176007
0.0176031
0.0176042
0.0176065
0.0176077
0.01761
0.0176112
0.0176135
0.0176148
0.0176168
0.0176193
0.0176143
0.0160947
0.0171519
0.0172426
0.0172761
0.0172695
0.0172855
0.0172771
0.0172915
0.0172863
0.0172995
0.0172974
0.0173102
0.0173101
0.0173227
0.0173236
0.0173361
0.0173377
0.0173499
0.0173519
0.0173638
0.0173662
0.0173778
0.0173804
0.0173915
0.0173942
0.0174048
0.0174074
0.0174175
0.0174199
0.0174294
0.0174316
0.0174404
0.0174423
0.0174504
0.0174521
0.0174596
0.0174611
0.017468
0.0174693
0.0174758
0.017477
0.0174831
0.0174843
0.0174901
0.0174914
0.0174968
0.0174981
0.0175033
0.0175047
0.0175097
0.017511
0.0175158
0.0175171
0.0175216
0.0175229
0.0175271
0.0175283
0.0175323
0.0175336
0.0175374
0.0175387
0.0175424
0.0175437
0.0175474
0.0175487
0.0175523
0.0175536
0.0175571
0.0175584
0.0175618
0.0175631
0.0175663
0.0175677
0.0175709
0.0175723
0.0175754
0.0175768
0.0175799
0.0175813
0.0175843
0.0175857
0.0175887
0.0175902
0.0175931
0.0175946
0.0175975
0.0175991
0.0176016
0.0176043
0.0176006
0.0161011
0.0171839
0.0172862
0.0173258
0.0173218
0.0173391
0.017332
0.0173474
0.0173427
0.0173568
0.017355
0.0173687
0.0173689
0.0173824
0.0173836
0.0173969
0.0173989
0.017412
0.0174144
0.0174272
0.0174299
0.0174423
0.0174452
0.0174572
0.0174601
0.0174716
0.0174744
0.0174852
0.0174879
0.0174981
0.0175006
0.01751
0.0175122
0.0175209
0.0175228
0.0175309
0.0175326
0.01754
0.0175416
0.0175485
0.01755
0.0175565
0.0175579
0.0175641
0.0175656
0.0175715
0.017573
0.0175786
0.0175802
0.0175855
0.0175871
0.0175922
0.0175937
0.0175985
0.0176
0.0176045
0.0176059
0.0176103
0.0176116
0.0176158
0.0176172
0.0176213
0.0176227
0.0176267
0.0176282
0.017632
0.0176335
0.0176372
0.0176387
0.0176423
0.0176438
0.0176473
0.0176487
0.0176522
0.0176537
0.017657
0.0176586
0.0176619
0.0176634
0.0176666
0.0176682
0.0176714
0.017673
0.0176761
0.0176777
0.0176808
0.0176826
0.0176851
0.0176891
0.0176839
0.0160951
0.0171542
0.0172472
0.0172828
0.0172788
0.0172946
0.0172884
0.0173027
0.0172985
0.0173118
0.0173101
0.017323
0.0173229
0.0173356
0.0173366
0.0173491
0.0173508
0.0173631
0.0173652
0.0173772
0.0173796
0.0173913
0.0173939
0.0174051
0.0174078
0.0174186
0.0174212
0.0174313
0.0174338
0.0174434
0.0174456
0.0174545
0.0174565
0.0174647
0.0174664
0.017474
0.0174755
0.0174825
0.0174839
0.0174904
0.0174917
0.0174978
0.0174991
0.0175049
0.0175062
0.0175117
0.0175131
0.0175183
0.0175197
0.0175248
0.0175262
0.017531
0.0175323
0.0175369
0.0175382
0.0175425
0.0175437
0.0175478
0.0175491
0.017553
0.0175543
0.0175581
0.0175594
0.0175631
0.0175645
0.0175681
0.0175694
0.0175729
0.0175743
0.0175777
0.017579
0.0175823
0.0175837
0.0175869
0.0175883
0.0175915
0.0175929
0.0175961
0.0175975
0.0176006
0.017602
0.017605
0.0176065
0.0176095
0.017611
0.0176139
0.0176155
0.0176181
0.0176207
0.0176172
0.016466
0.0173202
0.0173706
0.0173932
0.0173867
0.017398
0.0173919
0.0174027
0.0173985
0.017409
0.0174067
0.017417
0.0174161
0.0174262
0.0174262
0.0174362
0.0174367
0.0174465
0.0174476
0.0174571
0.0174585
0.0174679
0.0174695
0.0174785
0.0174802
0.0174888
0.0174906
0.0174987
0.0175004
0.017508
0.0175095
0.0175166
0.0175179
0.0175244
0.0175255
0.0175314
0.0175323
0.0175378
0.0175386
0.0175436
0.0175443
0.0175491
0.0175498
0.0175542
0.017555
0.0175592
0.01756
0.0175641
0.0175649
0.0175688
0.0175696
0.0175733
0.0175742
0.0175777
0.0175785
0.0175817
0.0175825
0.0175856
0.0175864
0.0175894
0.0175901
0.0175931
0.0175939
0.0175968
0.0175977
0.0176005
0.0176014
0.0176041
0.017605
0.0176077
0.0176086
0.0176112
0.0176122
0.0176147
0.0176157
0.0176182
0.0176193
0.0176218
0.0176229
0.0176253
0.0176264
0.0176289
0.01763
0.0176325
0.0176337
0.0176361
0.0176374
0.0176394
0.0176419
0.0176372
0.0195451
0.020087
0.0201031
0.0201135
0.0201065
0.0201119
0.0201061
0.0201112
0.0201071
0.0201123
0.0201094
0.0201146
0.0201126
0.0201178
0.0201165
0.0201216
0.0201209
0.020126
0.0201257
0.0201307
0.0201307
0.0201357
0.020136
0.0201408
0.0201413
0.0201459
0.0201464
0.0201508
0.0201513
0.0201553
0.0201557
0.0201594
0.0201596
0.0201628
0.0201629
0.0201657
0.0201656
0.0201681
0.0201679
0.02017
0.0201697
0.0201717
0.0201714
0.0201733
0.0201731
0.0201749
0.0201747
0.0201764
0.0201764
0.0201781
0.0201781
0.0201797
0.0201798
0.0201813
0.0201814
0.0201828
0.0201828
0.0201842
0.0201843
0.0201856
0.0201857
0.0201871
0.0201873
0.0201887
0.0201891
0.0201905
0.0201909
0.0201923
0.0201927
0.0201941
0.0201946
0.020196
0.0201966
0.020198
0.0201987
0.0202001
0.0202008
0.0202023
0.0202031
0.0202046
0.0202055
0.020207
0.020208
0.0202096
0.0202106
0.0202122
0.0202132
0.0202152
0.0202132
0.0202136
0.0334456
0.0335772
0.0335784
0.0335811
0.0335804
0.0335843
0.033584
0.0335864
0.0335855
0.0335868
0.0335858
0.0335866
0.0335858
0.0335867
0.0335864
0.0335874
0.0335876
0.033589
0.0335897
0.0335914
0.0335926
0.0335947
0.0335962
0.0335986
0.0336004
0.033603
0.033605
0.0336076
0.0336098
0.0336124
0.0336145
0.033617
0.033619
0.0336213
0.0336231
0.0336251
0.0336267
0.0336286
0.0336301
0.0336317
0.0336332
0.0336349
0.0336363
0.033638
0.0336396
0.0336414
0.033643
0.033645
0.0336468
0.0336488
0.0336507
0.0336527
0.0336547
0.0336567
0.0336586
0.0336605
0.0336624
0.0336643
0.0336661
0.033668
0.0336698
0.0336718
0.0336737
0.0336758
0.0336777
0.0336798
0.0336818
0.0336839
0.0336859
0.0336879
0.0336899
0.033692
0.033694
0.033696
0.033698
0.0337001
0.0337021
0.0337042
0.0337062
0.0337084
0.0337103
0.0337125
0.0337145
0.0337167
0.0337188
0.0337209
0.033723
0.0337252
0.0337222
0.0337216
0.0163087
0.0165225
0.0165263
0.0165258
0.0165234
0.0165238
0.0165219
0.0165237
0.0165224
0.016525
0.0165239
0.0165267
0.0165258
0.0165287
0.0165279
0.0165307
0.01653
0.0165329
0.0165323
0.0165351
0.0165345
0.0165373
0.0165368
0.0165394
0.0165389
0.0165413
0.0165408
0.016543
0.0165424
0.0165443
0.0165436
0.0165451
0.0165443
0.0165455
0.0165446
0.0165455
0.0165444
0.0165451
0.016544
0.0165445
0.0165434
0.0165439
0.0165428
0.0165433
0.0165423
0.0165428
0.016542
0.0165425
0.0165417
0.0165423
0.0165417
0.0165422
0.0165417
0.0165422
0.0165417
0.0165422
0.0165418
0.0165422
0.0165418
0.0165423
0.0165421
0.0165426
0.0165425
0.0165431
0.0165431
0.0165438
0.0165438
0.0165445
0.0165446
0.0165454
0.0165455
0.0165463
0.0165466
0.0165474
0.0165477
0.0165487
0.0165491
0.0165501
0.0165505
0.0165516
0.0165521
0.0165533
0.0165539
0.0165551
0.0165558
0.0165573
0.0165579
0.01656
0.0165588
0.0165605
0.0156253
0.0161784
0.0162093
0.0162145
0.0162138
0.0162149
0.0162135
0.0162153
0.0162151
0.0162178
0.0162185
0.0162217
0.016223
0.0162263
0.0162279
0.0162314
0.0162332
0.0162369
0.0162389
0.0162428
0.0162451
0.016249
0.0162516
0.0162557
0.0162583
0.0162625
0.0162653
0.0162695
0.0162723
0.0162764
0.0162791
0.0162831
0.0162857
0.0162895
0.016292
0.0162955
0.0162978
0.016301
0.0163032
0.0163062
0.0163082
0.0163111
0.0163131
0.0163159
0.0163178
0.0163205
0.0163224
0.016325
0.0163269
0.0163295
0.0163314
0.0163339
0.0163357
0.0163382
0.0163399
0.0163422
0.0163438
0.016346
0.0163475
0.0163496
0.0163511
0.0163532
0.0163547
0.0163567
0.0163582
0.0163602
0.0163617
0.0163636
0.016365
0.0163669
0.0163682
0.01637
0.0163714
0.0163731
0.0163744
0.0163762
0.0163774
0.0163792
0.0163804
0.0163821
0.0163832
0.016385
0.0163861
0.0163878
0.0163888
0.0163906
0.0163916
0.0163933
0.0163948
0.0163962
0.0148974
0.0157326
0.0158068
0.0158209
0.0158231
0.0158248
0.0158238
0.0158246
0.0158246
0.015826
0.0158269
0.0158289
0.0158305
0.0158328
0.0158348
0.0158373
0.0158395
0.0158422
0.0158446
0.0158476
0.0158502
0.0158534
0.0158562
0.0158596
0.0158626
0.0158661
0.0158692
0.0158727
0.0158759
0.0158795
0.0158826
0.0158861
0.0158892
0.0158925
0.0158954
0.0158986
0.0159014
0.0159044
0.0159071
0.01591
0.0159126
0.0159154
0.0159179
0.0159207
0.0159231
0.0159259
0.0159283
0.0159311
0.0159335
0.0159363
0.0159387
0.0159414
0.0159438
0.0159464
0.0159487
0.0159512
0.0159534
0.0159558
0.015958
0.0159603
0.0159624
0.0159647
0.0159667
0.015969
0.015971
0.0159733
0.0159752
0.0159774
0.0159793
0.0159814
0.0159832
0.0159852
0.0159869
0.0159889
0.0159906
0.0159925
0.0159941
0.015996
0.0159975
0.0159993
0.0160007
0.0160025
0.0160039
0.0160056
0.0160068
0.0160086
0.0160097
0.0160114
0.016013
0.0160087
0.0147058
0.0156268
0.0157204
0.0157378
0.0157417
0.0157436
0.0157427
0.0157428
0.0157422
0.0157428
0.0157432
0.0157443
0.0157454
0.015747
0.0157485
0.0157503
0.0157521
0.0157541
0.0157561
0.0157584
0.0157605
0.015763
0.0157654
0.0157681
0.0157707
0.0157735
0.0157762
0.0157791
0.0157817
0.0157847
0.0157873
0.0157902
0.0157928
0.0157955
0.015798
0.0158005
0.0158028
0.0158053
0.0158074
0.0158098
0.0158118
0.0158141
0.0158161
0.0158183
0.0158203
0.0158225
0.0158245
0.0158267
0.0158288
0.015831
0.015833
0.0158352
0.0158371
0.0158393
0.0158412
0.0158432
0.015845
0.015847
0.0158487
0.0158506
0.0158524
0.0158542
0.0158559
0.0158578
0.0158595
0.0158614
0.015863
0.0158648
0.0158664
0.0158682
0.0158697
0.0158714
0.0158729
0.0158746
0.015876
0.0158776
0.015879
0.0158806
0.015882
0.0158835
0.0158848
0.0158863
0.0158876
0.0158891
0.0158902
0.0158917
0.0158928
0.0158942
0.0158952
0.0158923
0.0145669
0.0155454
0.0156477
0.0156671
0.0156714
0.0156738
0.015673
0.0156732
0.0156727
0.0156732
0.0156734
0.0156745
0.0156754
0.0156768
0.0156781
0.0156798
0.0156814
0.0156833
0.0156851
0.0156872
0.0156892
0.0156915
0.0156937
0.0156963
0.0156986
0.0157013
0.0157038
0.0157065
0.015709
0.0157118
0.0157142
0.0157169
0.0157193
0.0157219
0.0157242
0.0157266
0.0157287
0.0157309
0.0157329
0.0157351
0.015737
0.015739
0.0157409
0.0157429
0.0157447
0.0157468
0.0157486
0.0157506
0.0157524
0.0157545
0.0157563
0.0157583
0.0157601
0.0157621
0.0157638
0.0157657
0.0157673
0.0157691
0.0157707
0.0157724
0.015774
0.0157757
0.0157773
0.015779
0.0157805
0.0157822
0.0157838
0.0157854
0.0157869
0.0157885
0.0157899
0.0157915
0.0157928
0.0157944
0.0157957
0.0157972
0.0157985
0.0158
0.0158012
0.0158027
0.0158039
0.0158053
0.0158064
0.0158079
0.0158089
0.0158103
0.0158114
0.0158125
0.0158142
0.015809
0.0147058
0.0156257
0.0157187
0.0157362
0.0157406
0.0157431
0.015743
0.0157437
0.0157436
0.0157445
0.0157451
0.0157463
0.0157474
0.015749
0.0157505
0.0157523
0.0157541
0.0157562
0.0157581
0.0157604
0.0157626
0.0157651
0.0157675
0.0157702
0.0157728
0.0157756
0.0157783
0.0157812
0.0157839
0.0157868
0.0157895
0.0157924
0.015795
0.0157977
0.0158002
0.0158028
0.0158051
0.0158075
0.0158097
0.0158121
0.0158141
0.0158164
0.0158184
0.0158207
0.0158227
0.0158249
0.0158269
0.0158291
0.0158311
0.0158334
0.0158354
0.0158376
0.0158396
0.0158417
0.0158436
0.0158456
0.0158475
0.0158494
0.0158512
0.0158531
0.0158548
0.0158567
0.0158585
0.0158603
0.015862
0.0158639
0.0158656
0.0158674
0.015869
0.0158707
0.0158723
0.015874
0.0158755
0.0158771
0.0158786
0.0158802
0.0158816
0.0158832
0.0158846
0.0158862
0.0158874
0.015889
0.0158902
0.0158917
0.0158929
0.0158944
0.0158955
0.0158968
0.015898
0.0158951
0.014897
0.0157312
0.0158054
0.0158199
0.0158234
0.0158263
0.0158268
0.0158285
0.0158293
0.0158311
0.0158323
0.0158344
0.0158361
0.0158384
0.0158404
0.015843
0.0158451
0.0158479
0.0158503
0.0158534
0.015856
0.0158592
0.0158621
0.0158655
0.0158685
0.015872
0.0158751
0.0158787
0.0158819
0.0158855
0.0158887
0.0158922
0.0158953
0.0158987
0.0159017
0.0159049
0.0159077
0.0159108
0.0159134
0.0159164
0.015919
0.0159218
0.0159243
0.0159272
0.0159296
0.0159324
0.0159349
0.0159377
0.0159402
0.0159429
0.0159454
0.0159481
0.0159506
0.0159532
0.0159555
0.0159581
0.0159603
0.0159627
0.0159649
0.0159673
0.0159694
0.0159717
0.0159738
0.0159761
0.0159781
0.0159804
0.0159824
0.0159845
0.0159865
0.0159886
0.0159904
0.0159924
0.0159942
0.0159962
0.0159979
0.0159998
0.0160015
0.0160033
0.0160049
0.0160067
0.0160082
0.01601
0.0160114
0.0160131
0.0160144
0.0160161
0.0160173
0.0160189
0.0160208
0.0160167
0.0156277
0.0161842
0.0162167
0.0162233
0.0162245
0.0162272
0.0162275
0.0162302
0.0162309
0.0162339
0.0162349
0.0162381
0.0162394
0.0162428
0.0162444
0.016248
0.0162498
0.0162536
0.0162556
0.0162596
0.0162619
0.0162659
0.0162685
0.0162727
0.0162754
0.0162797
0.0162825
0.0162867
0.0162896
0.0162938
0.0162966
0.0163006
0.0163033
0.0163071
0.0163097
0.0163133
0.0163156
0.016319
0.0163211
0.0163243
0.0163264
0.0163294
0.0163313
0.0163342
0.0163362
0.016339
0.0163409
0.0163437
0.0163456
0.0163483
0.0163502
0.0163528
0.0163547
0.0163572
0.0163589
0.0163613
0.016363
0.0163652
0.0163668
0.016369
0.0163705
0.0163727
0.0163742
0.0163763
0.0163778
0.0163799
0.0163814
0.0163834
0.0163848
0.0163867
0.0163881
0.01639
0.0163913
0.0163931
0.0163945
0.0163963
0.0163975
0.0163993
0.0164005
0.0164023
0.0164035
0.0164052
0.0164064
0.0164081
0.0164092
0.016411
0.0164121
0.0164136
0.0164154
0.0164172
0.0163372
0.0165629
0.0165707
0.0165724
0.0165729
0.016575
0.0165747
0.0165772
0.0165765
0.0165792
0.0165783
0.0165811
0.0165802
0.0165831
0.0165823
0.0165852
0.0165844
0.0165873
0.0165867
0.0165896
0.0165891
0.0165919
0.0165914
0.0165941
0.0165937
0.0165962
0.0165957
0.016598
0.0165974
0.0165994
0.0165988
0.0166004
0.0165996
0.016601
0.0166
0.0166011
0.0166
0.0166009
0.0165997
0.0166004
0.0165993
0.0165999
0.0165988
0.0165994
0.0165984
0.0165989
0.0165981
0.0165987
0.016598
0.0165986
0.016598
0.0165986
0.0165981
0.0165986
0.0165982
0.0165987
0.0165983
0.0165988
0.0165984
0.0165989
0.0165987
0.0165993
0.0165991
0.0165998
0.0165997
0.0166005
0.0166005
0.0166012
0.0166013
0.0166021
0.0166023
0.0166031
0.0166034
0.0166042
0.0166046
0.0166055
0.0166059
0.0166069
0.0166074
0.0166085
0.016609
0.0166102
0.0166109
0.0166121
0.0166129
0.0166143
0.0166151
0.0166171
0.0166163
0.0166183
0.00733475
0.00758963
0.00759907
0.00759751
0.00760015
0.00760425
0.00760765
0.00761563
0.00761885
0.00762862
0.00763101
0.00764112
0.00764265
0.00765265
0.00765345
0.00766313
0.00766337
0.00767261
0.00767242
0.00768114
0.00768062
0.00768875
0.00768793
0.00769543
0.00769433
0.00770116
0.00769979
0.00770593
0.00770431
0.00770977
0.00770791
0.00771272
0.00771064
0.00771484
0.00771258
0.00771623
0.00771385
0.00771702
0.00771459
0.00771738
0.00771494
0.00771742
0.00771502
0.00771724
0.00771492
0.00771692
0.00771468
0.0077165
0.00771435
0.007716
0.00771394
0.00771542
0.00771344
0.00771477
0.00771285
0.00771405
0.00771221
0.00771332
0.00771158
0.00771263
0.00771102
0.00771205
0.00771057
0.0077116
0.00771024
0.00771127
0.00771002
0.00771105
0.00770992
0.00771095
0.00770994
0.00771101
0.00771012
0.00771125
0.00771047
0.00771169
0.00771103
0.00771233
0.00771178
0.00771319
0.00771275
0.00771426
0.00771393
0.00771555
0.0077153
0.00771706
0.00771668
0.00771905
0.00771735
0.00771813
0.0070481
0.00778522
0.00786186
0.0078729
0.0078761
0.0078799
0.00788218
0.00788721
0.00789028
0.0078964
0.00789987
0.00790648
0.00791007
0.0079168
0.00792038
0.00792714
0.00793072
0.00793747
0.0079411
0.00794784
0.00795155
0.00795827
0.00796207
0.00796877
0.00797265
0.00797929
0.00798324
0.00798979
0.00799377
0.0080002
0.00800419
0.00801046
0.00801441
0.0080205
0.00802439
0.00803027
0.00803408
0.00803976
0.00804349
0.00804899
0.00805265
0.008058
0.0080616
0.0080668
0.00807036
0.00807542
0.00807894
0.00808389
0.00808736
0.00809218
0.0080956
0.00810027
0.00810362
0.00810814
0.00811137
0.00811573
0.00811885
0.00812303
0.00812604
0.00813008
0.00813298
0.00813689
0.0081397
0.00814347
0.00814618
0.00814982
0.00815242
0.00815591
0.00815838
0.00816172
0.00816405
0.00816725
0.00816945
0.00817251
0.00817457
0.0081775
0.00817942
0.00818223
0.008184
0.00818668
0.0081883
0.00819085
0.00819232
0.00819476
0.00819605
0.00819837
0.0081996
0.00820127
0.00820323
0.00820593
0.00634284
0.00737915
0.00753589
0.0075665
0.00757358
0.00757684
0.00757749
0.0075791
0.00758004
0.00758214
0.00758381
0.00758641
0.00758854
0.00759138
0.00759373
0.00759665
0.0075991
0.00760208
0.00760463
0.00760768
0.00761032
0.00761344
0.00761618
0.00761936
0.00762217
0.00762539
0.00762826
0.0076315
0.00763439
0.00763762
0.0076405
0.00764369
0.00764654
0.00764967
0.00765246
0.0076555
0.00765822
0.00766118
0.00766383
0.00766673
0.00766934
0.00767218
0.00767476
0.00767757
0.00768013
0.00768291
0.00768546
0.00768822
0.00769075
0.00769349
0.007696
0.0076987
0.00770117
0.00770381
0.00770622
0.00770878
0.00771111
0.0077136
0.00771587
0.00771829
0.0077205
0.00772288
0.00772503
0.00772736
0.00772946
0.00773173
0.00773376
0.00773595
0.0077379
0.00774001
0.00774188
0.0077439
0.00774568
0.00774763
0.00774933
0.0077512
0.0077528
0.0077546
0.00775611
0.00775783
0.00775923
0.00776087
0.00776216
0.00776374
0.0077649
0.00776642
0.00776749
0.00776884
0.00777036
0.00776948
0.00608771
0.00719434
0.00738482
0.00742147
0.00743096
0.0074317
0.0074316
0.00742988
0.00742952
0.0074285
0.00742877
0.00742857
0.00742934
0.00742969
0.00743069
0.00743135
0.00743246
0.00743332
0.00743452
0.00743556
0.00743684
0.00743804
0.00743941
0.00744074
0.00744218
0.00744361
0.0074451
0.00744659
0.00744811
0.00744963
0.00745115
0.00745267
0.00745416
0.00745563
0.00745707
0.00745849
0.00745987
0.00746124
0.00746256
0.00746389
0.00746518
0.00746649
0.00746776
0.00746906
0.00747033
0.00747163
0.0074729
0.00747422
0.00747549
0.00747681
0.00747809
0.0074794
0.00748066
0.00748194
0.00748317