/*--------------------------------*- C++ -*----------------------------------*\
  =========                 |
  \\      /  F ield         | OpenFOAM: The Open Source CFD Toolbox
   \\    /   O peration     | Website:  https://openfoam.org
    \\  /    A nd           | Version:  7
     \\/     M anipulation  |
\*---------------------------------------------------------------------------*/
FoamFile
{
    version     2.0;
    format      ascii;
    class       volScalarField;
    location    "0.5025";
    object      k;
}
// * * * * * * * * * * * * * * * * * * * * * * * * * * * * * * * * * * * * * //

dimensions      [0 2 -2 0 0 0 0];

internalField   nonuniform List<scalar> 
4950
(
32.6425
37.0593
37.2294
37.3091
37.2904
37.339
37.3213
37.3476
37.3193
37.3288
37.2956
37.2947
37.2586
37.2514
37.2182
37.2109
37.1943
37.1745
37.2201
37.4071
9.02966
10.2526
10.1172
9.7471
9.47646
9.34817
9.26001
9.22325
9.18071
9.16191
9.13073
9.11572
9.08948
9.07631
9.05412
9.04242
9.03757
9.01968
9.18775
9.24176
5.70631
7.00678
7.31232
7.39085
7.40543
7.4334
7.44487
7.46908
7.47598
7.48941
7.49027
7.49546
7.49291
7.49228
7.4828
7.47655
7.46324
7.45357
7.45298
7.47409
5.45623
6.72346
7.0761
7.21925
7.28664
7.35162
7.39297
7.44241
7.47086
7.50498
7.52153
7.54531
7.55602
7.57126
7.57458
7.57688
7.5735
7.56378
7.55933
7.57326
5.4199
6.69555
7.04968
7.19868
7.26889
7.33837
7.38271
7.43722
7.46967
7.50945
7.53037
7.55978
7.57535
7.59676
7.60536
7.61272
7.61236
7.60779
7.60165
7.61699
5.45623
6.72347
7.0761
7.21926
7.28663
7.35163
7.39296
7.44241
7.47086
7.50499
7.52151
7.54533
7.55598
7.57132
7.5745
7.57697
7.57341
7.56401
7.55923
7.57351
5.70631
7.00678
7.31232
7.39086
7.40543
7.4334
7.44487
7.46908
7.47598
7.48942
7.49025
7.49549
7.49284
7.49236
7.48261
7.47686
7.46259
7.45499
7.45182
7.47509
9.02966
10.2526
10.1172
9.7471
9.47646
9.34818
9.26
9.22326
9.18069
9.16193
9.13068
9.11577
9.08935
9.07644
9.05371
9.04289
9.03654
9.02139
9.18214
9.24523
32.6425
37.0593
37.2294
37.3091
37.2904
37.339
37.3213
37.3476
37.3193
37.3289
37.2955
37.2948
37.2584
37.2518
37.2175
37.2123
37.1914
37.1807
37.208
37.4341
5.04414
7.29552
7.61685
7.5654
7.52822
7.46256
7.44927
7.41005
7.4039
7.37645
7.37251
7.35156
7.34888
7.3325
7.33184
7.3185
7.32212
7.30673
7.30721
7.36947
3.7506
6.02051
6.52907
6.63923
6.67101
6.69029
6.7042
6.71541
6.72125
6.72487
6.72493
6.72353
6.71919
6.71484
6.70878
6.70508
6.69975
6.69674
6.70071
6.71546
3.56675
5.76681
6.27815
6.40413
6.43399
6.45524
6.46782
6.48496
6.49417
6.505
6.50998
6.51605
6.51755
6.51768
6.51424
6.50794
6.50264
6.49471
6.48843
6.51082
3.5745
5.77237
6.27853
6.40293
6.43175
6.44978
6.45916
6.47248
6.47877
6.48587
6.48795
6.49177
6.49272
6.49296
6.48962
6.48185
6.47328
6.46158
6.45471
6.46935
3.55789
5.74854
6.25702
6.38392
6.41253
6.43108
6.43951
6.45298
6.45842
6.46525
6.46648
6.46963
6.47029
6.4709
6.46782
6.46063
6.45072
6.43909
6.42773
6.43999
3.5745
5.77237
6.27853
6.40293
6.43174
6.44978
6.45915
6.47248
6.47876
6.48587
6.48794
6.49178
6.4927
6.49298
6.48955
6.48198
6.47303
6.46182
6.45442
6.46933
3.56675
5.76681
6.27815
6.40413
6.43398
6.45524
6.46781
6.48497
6.49416
6.50502
6.50995
6.51608
6.5175
6.51775
6.51401
6.50843
6.50182
6.49587
6.48726
6.51128
3.7506
6.02051
6.52907
6.63923
6.671
6.6903
6.70419
6.71542
6.72124
6.72488
6.72491
6.72356
6.71911
6.71499
6.7085
6.70551
6.69877
6.6982
6.69869
6.71826
5.04414
7.29552
7.61685
7.5654
7.52822
7.46256
7.44927
7.41006
7.4039
7.37646
7.3725
7.35159
7.34887
7.33257
7.3318
7.3187
7.32188
7.30772
7.30565
7.37371
0.289089
0.963846
1.2147
1.2549
1.23443
1.18939
1.14507
1.10897
1.08084
1.05836
1.04268
1.02956
1.02142
1.01378
1.00948
1.00576
1.00277
1.00306
0.997015
1.01534
0.0633124
0.361191
0.580593
0.686195
0.731423
0.754501
0.766067
0.775996
0.782703
0.789048
0.792709
0.795633
0.796651
0.797404
0.797367
0.79732
0.797331
0.796689
0.797443
0.801121
0.054105
0.305416
0.486812
0.585205
0.624879
0.647772
0.654841
0.662115
0.663995
0.6679
0.669215
0.671953
0.672961
0.674715
0.675435
0.676214
0.676952
0.677103
0.677223
0.680934
0.0556638
0.313391
0.496089
0.591788
0.630928
0.651784
0.658587
0.663631
0.664478
0.665724
0.665712
0.665929
0.665754
0.665362
0.664738
0.663853
0.663524
0.662681
0.662831
0.665905
0.0539041
0.30439
0.482565
0.579217
0.617541
0.639607
0.645706
0.651374
0.651781
0.652917
0.65252
0.652719
0.652128
0.651776
0.650546
0.649831
0.648532
0.647943
0.646627
0.649368
0.0556637
0.313391
0.496088
0.591788
0.630928
0.651785
0.658587
0.663631
0.664477
0.665724
0.665712
0.665929
0.665753
0.665364
0.664733
0.663857
0.663517
0.662676
0.662817
0.665881
0.054105
0.305416
0.486811
0.585205
0.624878
0.647773
0.654839
0.662116
0.663995
0.6679
0.669214
0.671954
0.672956
0.674723
0.675413
0.676235
0.676902
0.677119
0.677187
0.680857
0.0633124
0.361192
0.580592
0.686196
0.731422
0.754502
0.766064
0.775999
0.782699
0.789053
0.7927
0.79564
0.796636
0.797411
0.797337
0.797333
0.797268
0.796699
0.797344
0.801028
0.289089
0.963847
1.2147
1.2549
1.23443
1.18939
1.14507
1.10898
1.08084
1.05837
1.04268
1.02958
1.02141
1.01382
1.00948
1.00585
1.0028
1.00334
0.996962
1.01607
5.04414
7.29552
7.61685
7.5654
7.52822
7.46256
7.44927
7.41005
7.4039
7.37645
7.37251
7.35157
7.34888
7.3325
7.33185
7.31851
7.32212
7.30673
7.30721
7.36947
3.7506
6.02051
6.52907
6.63923
6.67101
6.69029
6.7042
6.71541
6.72125
6.72487
6.72493
6.72353
6.71919
6.71484
6.70879
6.70508
6.69976
6.69675
6.70071
6.71546
3.56675
5.76681
6.27815
6.40413
6.43399
6.45523
6.46782
6.48496
6.49417
6.505
6.50998
6.51605
6.51755
6.51768
6.51424
6.50794
6.50264
6.49471
6.48844
6.51082
3.5745
5.77237
6.27853
6.40293
6.43175
6.44978
6.45916
6.47248
6.47877
6.48587
6.48795
6.49177
6.49272
6.49296
6.48963
6.48185
6.47328
6.46158
6.45471
6.46935
3.55789
5.74854
6.25702
6.38392
6.41253
6.43108
6.43951
6.45298
6.45842
6.46525
6.46648
6.46963
6.47029
6.4709
6.46782
6.46063
6.45072
6.43909
6.42773
6.43999
3.5745
5.77237
6.27853
6.40293
6.43174
6.44978
6.45915
6.47248
6.47876
6.48587
6.48794
6.49178
6.4927
6.49298
6.48955
6.48198
6.47302
6.46182
6.45442
6.46933
3.56675
5.76681
6.27815
6.40413
6.43398
6.45524
6.46781
6.48497
6.49416
6.50502
6.50995
6.51608
6.5175
6.51775
6.51401
6.50843
6.50182
6.49587
6.48725
6.51128
3.7506
6.02051
6.52907
6.63923
6.671
6.6903
6.70419
6.71542
6.72124
6.72488
6.72491
6.72356
6.71911
6.71499
6.7085
6.7055
6.69877
6.6982
6.69869
6.71826
5.04414
7.29552
7.61685
7.5654
7.52822
7.46256
7.44927
7.41006
7.4039
7.37646
7.3725
7.35159
7.34887
7.33257
7.3318
7.3187
7.32188
7.30772
7.30565
7.37371
32.6425
37.0593
37.2294
37.3091
37.2904
37.339
37.3213
37.3476
37.3193
37.3288
37.2956
37.2947
37.2586
37.2514
37.2182
37.2109
37.1943
37.1745
37.2201
37.4071
9.02966
10.2526
10.1172
9.7471
9.47646
9.34817
9.26001
9.22325
9.18071
9.16191
9.13073
9.11572
9.08948
9.07632
9.05412
9.04242
9.03758
9.01968
9.18775
9.24176
5.70631
7.00678
7.31232
7.39085
7.40543
7.4334
7.44487
7.46908
7.47598
7.48941
7.49027
7.49546
7.49291
7.49228
7.48281
7.47655
7.46325
7.45357
7.45298
7.47409
5.45623
6.72346
7.0761
7.21925
7.28664
7.35162
7.39297
7.44241
7.47086
7.50498
7.52153
7.54531
7.55602
7.57126
7.57458
7.57689
7.5735
7.56378
7.55933
7.57326
5.4199
6.69555
7.04968
7.19868
7.26889
7.33837
7.38271
7.43722
7.46967
7.50945
7.53037
7.55978
7.57535
7.59676
7.60536
7.61272
7.61236
7.60778
7.60165
7.61699
5.45623
6.72347
7.0761
7.21926
7.28663
7.35163
7.39296
7.44241
7.47086
7.50499
7.52151
7.54533
7.55598
7.57132
7.5745
7.57697
7.57341
7.564
7.55923
7.57351
5.70631
7.00678
7.31232
7.39086
7.40543
7.4334
7.44487
7.46908
7.47598
7.48942
7.49025
7.49549
7.49284
7.49236
7.4826
7.47685
7.46259
7.45498
7.45181
7.47509
9.02966
10.2526
10.1172
9.7471
9.47645
9.34818
9.26
9.22326
9.18069
9.16193
9.13068
9.11577
9.08934
9.07643
9.05371
9.04288
9.03653
9.02139
9.18214
9.24523
32.6425
37.0593
37.2294
37.3091
37.2904
37.339
37.3213
37.3476
37.3193
37.3289
37.2955
37.2948
37.2584
37.2518
37.2175
37.2123
37.1914
37.1807
37.208
37.4341
96.4013
98.1937
98.854
99.3342
99.5709
99.7482
99.8013
99.8656
99.8715
99.9086
99.9096
99.9415
99.9449
99.9751
99.9804
100.009
100.015
100.042
100.048
100.072
100.078
100.099
100.104
100.124
100.128
100.146
100.15
100.167
100.171
100.188
100.192
100.208
100.211
100.226
100.23
100.244
100.247
100.26
100.263
100.274
100.276
100.287
100.288
100.298
100.3
100.309
100.311
100.32
100.321
100.329
100.33
100.338
100.338
100.345
100.345
100.351
100.351
100.357
100.356
100.362
100.361
100.366
100.365
100.37
100.369
100.373
100.371
100.374
100.372
100.375
100.373
100.375
100.373
100.375
100.373
100.374
100.371
100.372
100.369
100.369
100.366
100.366
100.362
100.362
100.358
100.357
100.353
100.347
100.336
100.238
32.7714
34.9123
35.1705
35.3575
35.4178
35.4981
35.5019
35.5407
35.5327
35.5619
35.5551
35.5829
35.5798
35.6077
35.6079
35.6359
35.6387
35.6667
35.6713
35.6989
35.7048
35.732
35.7388
35.7654
35.7729
35.7991
35.8073
35.8331
35.8419
35.8674
35.8768
35.9021
35.9119
35.9368
35.9469
35.9711
35.9813
36.0049
36.0149
36.0377
36.0475
36.0694
36.0791
36.1004
36.1099
36.1306
36.14
36.1601
36.1693
36.1886
36.1975
36.216
36.2244
36.2421
36.2501
36.267
36.2746
36.2907
36.298
36.3135
36.3203
36.3351
36.3415
36.3555
36.3614
36.3746
36.3799
36.3923
36.3971
36.4087
36.413
36.4241
36.4279
36.4383
36.4415
36.4512
36.4538
36.4627
36.4647
36.4729
36.4743
36.4819
36.4828
36.4897
36.4901
36.496
36.4957
36.5004
36.4942
36.4732
23.0355
25.5839
25.8341
25.9912
26.0238
26.098
26.0931
26.1318
26.1163
26.1452
26.1306
26.158
26.1475
26.1752
26.1686
26.1965
26.193
26.2209
26.2197
26.2474
26.248
26.2753
26.2773
26.3042
26.3074
26.334
26.3385
26.365
26.3706
26.3971
26.4038
26.4303
26.4379
26.4642
26.4725
26.4984
26.5071
26.5325
26.5414
26.5662
26.5753
26.5996
26.6087
26.6326
26.642
26.6654
26.675
26.698
26.7077
26.7301
26.7395
26.7613
26.7705
26.7916
26.8006
26.8209
26.8297
26.8495
26.858
26.8772
26.8855
26.904
26.9119
26.9298
26.9372
26.9543
26.9612
26.9775
26.984
26.9994
27.0055
27.0204
27.026
27.0402
27.0452
27.0586
27.0629
27.0755
27.0792
27.091
27.0942
27.1052
27.1079
27.1182
27.1202
27.1297
27.1311
27.1379
27.1442
27.118
21.9234
24.9163
25.248
25.4194
25.4501
25.5274
25.5217
25.5627
25.5444
25.5738
25.5555
25.583
25.569
25.5969
25.5871
25.6155
25.6091
25.6376
25.6338
25.662
25.6601
25.6879
25.6876
25.7149
25.716
25.7429
25.7454
25.7722
25.776
25.8027
25.8077
25.8344
25.8405
25.8669
25.8737
25.8998
25.907
25.9326
25.9401
25.965
25.9727
25.997
26.0049
26.0288
26.037
26.0605
26.069
26.0921
26.1006
26.1232
26.1316
26.1535
26.1618
26.183
26.1911
26.2116
26.2197
26.2396
26.2475
26.2669
26.2746
26.2934
26.3008
26.319
26.3261
26.3435
26.3501
26.3668
26.373
26.389
26.3949
26.4104
26.4159
26.4308
26.4358
26.45
26.4544
26.4678
26.4717
26.4844
26.4879
26.4999
26.503
26.5144
26.5169
26.5276
26.5295
26.5378
26.5439
26.5232
21.8894
24.9128
25.2472
25.414
25.4353
25.5069
25.4979
25.5387
25.5186
25.5482
25.5285
25.5562
25.5409
25.569
25.5582
25.5868
25.5794
25.6082
25.6035
25.6319
25.6293
25.6573
25.6562
25.6837
25.6841
25.7112
25.7131
25.74
25.7433
25.7701
25.7746
25.8014
25.807
25.8336
25.8399
25.8661
25.8728
25.8985
25.9055
25.9305
25.9377
25.9621
25.9696
25.9934
26.0013
26.0248
26.0329
26.0559
26.0642
26.0867
26.0948
26.1166
26.1246
26.1457
26.1536
26.1741
26.1818
26.2017
26.2094
26.2287
26.2362
26.255
26.2622
26.2804
26.2873
26.3048
26.3112
26.3279
26.334
26.3501
26.3559
26.3714
26.3769
26.3919
26.3969
26.4112
26.4156
26.4292
26.4331
26.446
26.4495
26.4618
26.4649
26.4767
26.4792
26.4904
26.4923
26.5012
26.5098
26.4875
21.9211
24.881
25.1724
25.3042
25.3079
25.3637
25.3497
25.386
25.3659
25.3944
25.3758
25.403
25.3889
25.4166
25.4067
25.4348
25.4283
25.4566
25.4526
25.4806
25.4786
25.5062
25.5058
25.5329
25.5339
25.5606
25.563
25.5896
25.5933
25.6198
25.6247
25.6512
25.6572
25.6835
25.6901
25.7161
25.7232
25.7486
25.7559
25.7807
25.7883
25.8125
25.8203
25.844
25.8521
25.8755
25.8839
25.9068
25.9153
25.9377
25.9461
25.9678
25.976
25.9971
26.0052
26.0256
26.0335
26.0533
26.0612
26.0805
26.0881
26.1068
26.1142
26.1323
26.1393
26.1567
26.1633
26.1799
26.186
26.202
26.2079
26.2233
26.2288
26.2436
26.2486
26.2627
26.2672
26.2805
26.2844
26.2971
26.3006
26.3126
26.3157
26.3271
26.3296
26.3404
26.3421
26.3513
26.3552
26.3395
22.9995
25.4423
25.5989
25.6777
25.6619
25.7021
25.6838
25.7155
25.6976
25.725
25.7101
25.7368
25.7262
25.7533
25.7465
25.7739
25.7702
25.7977
25.7962
25.8235
25.8239
25.8508
25.8526
25.8792
25.8822
25.9085
25.9128
25.939
25.9445
25.9706
25.9772
26.0033
26.0108
26.0368
26.0449
26.0706
26.0792
26.1044
26.1131
26.1378
26.1467
26.1708
26.1799
26.2035
26.2129
26.2362
26.2457
26.2686
26.2781
26.3004
26.3099
26.3315
26.3407
26.3617
26.3707
26.391
26.3999
26.4195
26.4282
26.4473
26.4556
26.4741
26.4821
26.5
26.5076
26.5246
26.5317
26.548
26.5546
26.5702
26.5764
26.5913
26.5971
26.6114
26.6166
26.6301
26.6346
26.6473
26.6513
26.6632
26.6666
26.6778
26.6807
26.6913
26.6935
26.7033
26.7046
26.7132
26.7154
26.7003
32.5644
34.4254
34.4904
34.5391
34.5193
34.5517
34.5374
34.567
34.5563
34.5838
34.5767
34.6038
34.6006
34.6279
34.6281
34.6557
34.6584
34.686
34.6906
34.718
34.724
34.751
34.7579
34.7844
34.7921
34.8182
34.8266
34.8525
34.8616
34.8872
34.897
34.9224
34.9326
34.9576
34.9681
34.9927
35.0033
35.0272
35.0377
35.0609
35.0712
35.0936
35.1038
35.1256
35.1358
35.157
35.1671
35.1877
35.1976
35.2175
35.2271
35.2462
35.2554
35.2737
35.2825
35.3001
35.3086
35.3254
35.3335
35.3497
35.3574
35.373
35.3802
35.3951
35.4018
35.416
35.4221
35.4354
35.4411
35.4537
35.4589
35.4709
35.4756
35.487
35.4911
35.5019
35.5054
35.5153
35.5182
35.5274
35.5299
35.5384
35.5404
35.5484
35.5497
35.557
35.5571
35.5649
35.5517
35.5538
95.4314
96.3327
96.4054
96.476
96.4733
96.5193
96.518
96.5562
96.556
96.589
96.5912
96.6224
96.6276
96.658
96.6654
96.6949
96.7033
96.7312
96.7398
96.7659
96.774
96.7981
96.8056
96.8279
96.8349
96.8557
96.8625
96.8825
96.8894
96.9087
96.9158
96.9346
96.9417
96.9597
96.9666
96.9837
96.9902
97.0062
97.0121
97.0269
97.0322
97.0461
97.0511
97.0643
97.0693
97.0821
97.087
97.0995
97.1042
97.116
97.1203
97.1313
97.1351
97.1453
97.1488
97.1585
97.1618
97.171
97.1741
97.183
97.1859
97.1943
97.197
97.205
97.2073
97.2147
97.2166
97.2233
97.2248
97.2311
97.2324
97.2384
97.2395
97.2454
97.2461
97.2515
97.2518
97.2565
97.2564
97.2606
97.2604
97.2643
97.264
97.2678
97.2671
97.2704
97.2687
97.2722
97.2418
97.2103
23.0818
23.9717
24.146
24.2516
24.3121
24.3535
24.371
24.3928
24.4
24.4193
24.4257
24.4462
24.4536
24.4754
24.4836
24.5063
24.515
24.5378
24.5468
24.5694
24.5783
24.6003
24.6089
24.6303
24.6388
24.6595
24.6679
24.6882
24.6968
24.7167
24.7254
24.7449
24.7537
24.7727
24.7814
24.7998
24.8082
24.8258
24.8339
24.8506
24.8583
24.8742
24.8816
24.8969
24.904
24.9188
24.9258
24.94
24.9467
24.9603
24.9667
24.9795
24.9854
24.9976
25.003
25.0146
25.0197
25.0307
25.0355
25.0459
25.0504
25.0604
25.0645
25.0739
25.0776
25.0864
25.0896
25.0978
25.1006
25.1083
25.1108
25.1181
25.1202
25.1272
25.129
25.1355
25.1368
25.1429
25.1438
25.1494
25.1501
25.1556
25.1559
25.1614
25.1615
25.167
25.1665
25.1728
25.1717
25.1595
20.9521
22.6293
22.8439
22.9511
23.0067
23.0434
23.0537
23.0636
23.0609
23.0641
23.0593
23.0616
23.0568
23.0593
23.055
23.0578
23.0541
23.0571
23.054
23.0573
23.0547
23.0583
23.0562
23.0599
23.0582
23.062
23.0607
23.0646
23.0636
23.0676
23.067
23.0712
23.071
23.0752
23.0754
23.0798
23.0803
23.0848
23.0856
23.0901
23.0911
23.0956
23.0968
23.1013
23.1025
23.107
23.1084
23.1129
23.1144
23.1189
23.1206
23.125
23.1267
23.1311
23.1328
23.1371
23.1388
23.1429
23.1446
23.1487
23.1503
23.1543
23.1559
23.1598
23.1614
23.1651
23.1666
23.1702
23.1716
23.175
23.1763
23.1796
23.1807
23.1839
23.1849
23.1879
23.1888
23.1916
23.1923
23.195
23.1954
23.198
23.1982
23.2007
23.2008
23.203
23.2032
23.2039
23.2101
23.1963
18.998
21.2479
21.5418
21.6589
21.7207
21.7611
21.7771
21.7869
21.7862
21.7865
21.7822
21.7807
21.7757
21.7741
21.7693
21.7678
21.7632
21.7619
21.7576
21.7563
21.7522
21.7511
21.7472
21.7461
21.7423
21.7412
21.7377
21.7366
21.7332
21.7322
21.7291
21.7282
21.7253
21.7245
21.7218
21.7212
21.7187
21.7182
21.7159
21.7155
21.7134
21.713
21.7111
21.7107
21.7089
21.7086
21.707
21.7068
21.7054
21.7053
21.704
21.704
21.7028
21.7028
21.7017
21.7018
21.7008
21.7009
21.7
21.7001
21.6993
21.6995
21.6988
21.6991
21.6984
21.6987
21.6981
21.6984
21.6979
21.6982
21.6976
21.6979
21.6974
21.6978
21.6973
21.6977
21.6972
21.6976
21.6971
21.6975
21.6969
21.6973
21.6967
21.6971
21.6965
21.6968
21.6963
21.6957
21.6993
21.6768
18.4865
20.8739
21.1857
21.2935
21.3502
21.3901
21.4088
21.4211
21.4228
21.4242
21.4215
21.4204
21.4168
21.4156
21.412
21.4109
21.4076
21.4066
21.4034
21.4025
21.3996
21.3987
21.3959
21.3951
21.3923
21.3915
21.3889
21.388
21.3855
21.3847
21.3823
21.3816
21.3793
21.3787
21.3766
21.3761
21.3742
21.3737
21.3719
21.3715
21.3698
21.3694
21.3678
21.3674
21.3658
21.3655
21.3641
21.3637
21.3624
21.3622
21.361
21.3608
21.3597
21.3595
21.3585
21.3583
21.3573
21.3572
21.3562
21.3561
21.3552
21.3551
21.3543
21.3542
21.3535
21.3534
21.3527
21.3527
21.352
21.3519
21.3512
21.3512
21.3505
21.3505
21.3499
21.3499
21.3493
21.3493
21.3487
21.3486
21.348
21.3479
21.3472
21.3472
21.3465
21.3464
21.3458
21.345
21.3457
21.329
18.1557
20.6548
20.9669
21.0582
21.1015
21.1334
21.1493
21.1606
21.1628
21.1645
21.1623
21.1615
21.1584
21.1574
21.1544
21.1536
21.1507
21.15
21.1474
21.1468
21.1443
21.1439
21.1415
21.141
21.1388
21.1383
21.1361
21.1357
21.1336
21.1332
21.1312
21.1308
21.129
21.1287
21.1271
21.1269
21.1254
21.1252
21.1238
21.1237
21.1224
21.1223
21.1211
21.121
21.1198
21.1197
21.1186
21.1186
21.1176
21.1176
21.1167
21.1167
21.1159
21.1159
21.1152
21.1152
21.1144
21.1145
21.1138
21.1138
21.1131
21.1132
21.1126
21.1127
21.1121
21.1122
21.1116
21.1117
21.1111
21.1112
21.1106
21.1107
21.1101
21.1102
21.1097
21.1097
21.1092
21.1093
21.1087
21.1087
21.1081
21.1081
21.1074
21.1074
21.1067
21.1067
21.1059
21.1053
21.1065
21.0877
18.483
20.8386
21.1125
21.1855
21.2157
21.2386
21.2486
21.2569
21.2573
21.2582
21.2554
21.2543
21.2506
21.2495
21.2459
21.2449
21.2416
21.2406
21.2375
21.2366
21.2337
21.2329
21.2302
21.2294
21.2267
21.2259
21.2234
21.2226
21.2201
21.2193
21.217
21.2163
21.2141
21.2135
21.2115
21.211
21.2092
21.2087
21.207
21.2066
21.205
21.2046
21.2031
21.2027
21.2012
21.2009
21.1995
21.1993
21.198
21.1978
21.1967
21.1965
21.1954
21.1953
21.1943
21.1942
21.1932
21.1931
21.1922
21.1921
21.1913
21.1912
21.1904
21.1904
21.1897
21.1897
21.189
21.189
21.1884
21.1883
21.1877
21.1877
21.187
21.1871
21.1865
21.1865
21.186
21.186
21.1854
21.1854
21.1848
21.1848
21.1841
21.1841
21.1834
21.1835
21.1827
21.1826
21.1819
21.1675
18.9711
21.1318
21.3445
21.394
21.4104
21.4238
21.4271
21.4312
21.4289
21.4285
21.424
21.4224
21.4175
21.416
21.4113
21.4098
21.4054
21.4041
21.3998
21.3987
21.3947
21.3936
21.3899
21.3888
21.3852
21.3843
21.3808
21.3799
21.3766
21.3757
21.3727
21.3719
21.3691
21.3685
21.3659
21.3654
21.3631
21.3627
21.3606
21.3603
21.3583
21.3581
21.3563
21.356
21.3544
21.3542
21.3527
21.3527
21.3514
21.3514
21.3503
21.3504
21.3494
21.3495
21.3486
21.3488
21.348
21.3482
21.3475
21.3478
21.3471
21.3475
21.3469
21.3474
21.3469
21.3473
21.3469
21.3474
21.347
21.3475
21.3471
21.3476
21.3473
21.3478
21.3475
21.3481
21.3479
21.3484
21.3481
21.3487
21.3483
21.3489
21.3485
21.3491
21.3487
21.3493
21.3487
21.3494
21.3502
21.3344
20.8377
22.3408
22.4316
22.4499
22.4518
22.4588
22.457
22.4611
22.4571
22.4596
22.4547
22.4569
22.4522
22.4546
22.4504
22.4532
22.4496
22.4528
22.4498
22.4532
22.4507
22.4544
22.4524
22.4563
22.4548
22.4587
22.4576
22.4616
22.4609
22.4651
22.4647
22.469
22.4691
22.4736
22.474
22.4786
22.4794
22.4842
22.4852
22.49
22.4913
22.4961
22.4976
22.5024
22.504
22.5088
22.5105
22.5153
22.5172
22.5221
22.5241
22.5289
22.531
22.5358
22.5379
22.5425
22.5447
22.5493
22.5513
22.5559
22.5579
22.5624
22.5645
22.5688
22.5708
22.5751
22.577
22.5812
22.583
22.587
22.5887
22.5925
22.5941
22.5978
22.5993
22.603
22.6043
22.6078
22.609
22.6122
22.6132
22.6164
22.6172
22.6203
22.6209
22.6239
22.6243
22.6269
22.6288
22.6278
22.8168
23.4789
23.5094
23.5178
23.5225
23.5345
23.54
23.5559
23.5617
23.5798
23.5862
23.6062
23.6135
23.6351
23.6433
23.6657
23.6746
23.6973
23.7064
23.7289
23.738
23.7601
23.7691
23.7906
23.7994
23.8204
23.8292
23.8497
23.8588
23.879
23.8882
23.9081
23.9174
23.9368
23.9461
23.9649
23.9739
23.992
24.0007
24.018
24.0263
24.0429
24.0509
24.0668
24.0747
24.0901
24.0978
24.1127
24.1202
24.1345
24.1416
24.1552
24.1619
24.1748
24.181
24.1933
24.1993
24.211
24.2167
24.2279
24.2332
24.244
24.249
24.2592
24.2638
24.2734
24.2775
24.2866
24.2903
24.2988
24.3022
24.3104
24.3134
24.3213
24.3239
24.3314
24.3336
24.3405
24.3423
24.3489
24.3505
24.3569
24.3582
24.3647
24.3655
24.3722
24.3723
24.3808
24.3749
24.3819
4.66931
5.05844
5.09688
5.10986
5.12374
5.13575
5.14552
5.15968
5.16775
5.18378
5.19099
5.2086
5.21549
5.2343
5.24113
5.26071
5.26756
5.28755
5.29443
5.31452
5.32144
5.34144
5.34842
5.36825
5.37537
5.39504
5.40241
5.42199
5.42971
5.44923
5.45731
5.47674
5.48512
5.50438
5.51296
5.53195
5.54061
5.55923
5.56788
5.58608
5.59469
5.61247
5.62107
5.63848
5.6471
5.66418
5.67281
5.68952
5.69806
5.71431
5.72267
5.7384
5.74652
5.76172
5.7696
5.78429
5.79193
5.80615
5.81353
5.82729
5.83438
5.84767
5.85442
5.8672
5.87353
5.88577
5.89165
5.90333
5.90877
5.91996
5.92499
5.93577
5.94036
5.95071
5.9548
5.96467
5.96819
5.97755
5.98056
5.98945
5.99199
6.00047
6.00253
6.01057
6.01205
6.01948
6.02021
6.02708
6.02698
6.02606
4.23017
5.186
5.30895
5.33885
5.3512
5.35803
5.35862
5.3595
5.35675
5.3564
5.35259
5.35216
5.34803
5.34762
5.34338
5.34301
5.33877
5.33845
5.33429
5.33401
5.32999
5.32976
5.3259
5.32572
5.32206
5.32193
5.31847
5.3184
5.31516
5.31517
5.31217
5.31226
5.3095
5.30968
5.30718
5.30745
5.3052
5.30556
5.30355
5.304
5.30221
5.30274
5.30116
5.30177
5.3004
5.30109
5.29992
5.3007
5.29972
5.30058
5.29979
5.30072
5.3001
5.3011
5.30063
5.30169
5.30136
5.30248
5.30227
5.30345
5.30336
5.30459
5.30462
5.3059
5.30603
5.30735
5.30755
5.30892
5.30918
5.31058
5.3109
5.31233
5.31269
5.31415
5.31455
5.31604
5.31646
5.31797
5.31839
5.31992
5.32032
5.32187
5.32224
5.32379
5.32412
5.32564
5.32596
5.32698
5.32848
5.32683
3.45074
4.64806
4.85349
4.90635
4.9267
4.93772
4.94095
4.94227
4.94101
4.93997
4.93758
4.9362
4.93362
4.93216
4.92957
4.92806
4.92548
4.92394
4.9214
4.91984
4.91733
4.91578
4.91331
4.91176
4.90934
4.90778
4.90541
4.90387
4.90157
4.90005
4.89782
4.89633
4.89418
4.89274
4.89067
4.88927
4.88729
4.88595
4.88405
4.88275
4.88094
4.8797
4.87797
4.87677
4.87512
4.87398
4.87242
4.87134
4.86987
4.86886
4.86748
4.86653
4.86524
4.86435
4.86314
4.86231
4.86118
4.86041
4.85937
4.85866
4.8577
4.85706
4.85618
4.8556
4.8548
4.85429
4.85357
4.85312
4.85247
4.85208
4.8515
4.85117
4.85066
4.8504
4.84996
4.84976
4.84938
4.84924
4.84892
4.84884
4.84857
4.84854
4.84833
4.84835
4.84819
4.84826
4.84815
4.84823
4.84864
4.84553
3.21276
4.43944
4.66683
4.71731
4.73721
4.74566
4.75083
4.7516
4.75202
4.75086
4.75011
4.74854
4.74758
4.74615
4.74513
4.74388
4.74283
4.74171
4.74066
4.73965
4.7386
4.73768
4.73663
4.73577
4.73474
4.73392
4.73291
4.73213
4.73114
4.73039
4.72943
4.72871
4.72779
4.72711
4.72623
4.72557
4.72473
4.72411
4.7233
4.7227
4.72192
4.72134
4.72059
4.72002
4.7193
4.71876
4.71808
4.71756
4.71691
4.71643
4.71582
4.71535
4.71477
4.71433
4.71378
4.71336
4.71284
4.71245
4.71196
4.71158
4.71112
4.71078
4.71035
4.71003
4.70964
4.70934
4.70899
4.70871
4.70838
4.70812
4.70782
4.70759
4.70731
4.70711
4.70687
4.70669
4.70648
4.70632
4.70612
4.70598
4.7058
4.70568
4.70551
4.70541
4.70521
4.70513
4.70488
4.70472
4.70432
4.70184
3.08476
4.32603
4.55405
4.60043
4.61392
4.6208
4.6241
4.62595
4.62622
4.62617
4.62564
4.62516
4.62436
4.62389
4.62308
4.62264
4.62186
4.62144
4.62067
4.62028
4.61953
4.61916
4.61843
4.61806
4.61734
4.61697
4.61627
4.6159
4.61522
4.61486
4.61419
4.61385
4.61321
4.61288
4.61227
4.61195
4.61138
4.61107
4.61052
4.61022
4.6097
4.6094
4.6089
4.60861
4.60812
4.60785
4.60738
4.60712
4.60668
4.60644
4.60603
4.60579
4.6054
4.60517
4.6048
4.60459
4.60423
4.60403
4.60369
4.6035
4.60318
4.603
4.6027
4.60254
4.60226
4.6021
4.60185
4.6017
4.60145
4.60131
4.60107
4.60094
4.60072
4.60061
4.6004
4.6003
4.60011
4.60001
4.59982
4.59973
4.59954
4.59946
4.59927
4.5992
4.599
4.59894
4.59871
4.59857
4.59856
4.59591
3.21226
4.43368
4.65371
4.69676
4.71083
4.71558
4.71881
4.71878
4.71887
4.71764
4.71686
4.7153
4.71435
4.71295
4.71195
4.71072
4.70969
4.7086
4.70756
4.70658
4.70554
4.70464
4.70362
4.70278
4.70177
4.70098
4.69998
4.69922
4.69825
4.69752
4.69658
4.69589
4.69499
4.69433
4.69346
4.69283
4.692
4.6914
4.6906
4.69002
4.68926
4.68869
4.68796
4.68741
4.68671
4.68618
4.68551
4.68501
4.68437
4.6839
4.6833
4.68285
4.68228
4.68185
4.68131
4.68091
4.68039
4.68001
4.67953
4.67916
4.67871
4.67837
4.67795
4.67764
4.67726
4.67697
4.67661
4.67634
4.67601
4.67576
4.67546
4.67524
4.67496
4.67476
4.67453
4.67435
4.67414
4.67398
4.67379
4.67365
4.67347
4.67336
4.67318
4.67309
4.67288
4.67281
4.67252
4.67244
4.6719
4.6695
3.44694
4.62855
4.81774
4.85613
4.86661
4.87184
4.87237
4.87254
4.87098
4.86984
4.86744
4.8661
4.86357
4.86216
4.85962
4.85816
4.85564
4.85415
4.85166
4.85016
4.84771
4.84621
4.8438
4.8423
4.83993
4.83843
4.83612
4.83463
4.83238
4.83092
4.82873
4.82731
4.8252
4.82381
4.82179
4.82045
4.81851
4.81722
4.81537
4.81412
4.81235
4.81115
4.80946
4.8083
4.8067
4.80559
4.80407
4.80303
4.8016
4.80062
4.79928
4.79836
4.7971
4.79624
4.79506
4.79426
4.79316
4.79242
4.79141
4.79073
4.78979
4.78917
4.78832
4.78777
4.78699
4.7865
4.7858
4.78537
4.78474
4.78437
4.78381
4.7835
4.783
4.78276
4.78233
4.78215
4.78179
4.78167
4.78137
4.7813
4.78105
4.78103
4.78083
4.78087
4.78072
4.78082
4.78068
4.78093
4.78094
4.7787
4.21373
5.13569
5.23197
5.24232
5.24321
5.24388
5.24206
5.24193
5.23881
5.23843
5.23463
5.23421
5.23012
5.22974
5.22555
5.2252
5.22101
5.22071
5.2166
5.21635
5.21237
5.21216
5.20835
5.20819
5.20456
5.20445
5.20102
5.20097
5.19776
5.19778
5.19481
5.19491
5.19217
5.19236
5.18988
5.19016
5.18792
5.18829
5.18628
5.18673
5.18495
5.18549
5.18392
5.18453
5.18317
5.18386
5.18269
5.18347
5.1825
5.18336
5.18257
5.1835
5.18289
5.18389
5.18342
5.18448
5.18416
5.18528
5.18509
5.18627
5.18619
5.18743
5.18747
5.18876
5.1889
5.19024
5.19045
5.19183
5.19212
5.19353
5.19387
5.19532
5.19571
5.1972
5.19762
5.19914
5.19959
5.20114
5.20159
5.20316
5.2036
5.20519
5.20561
5.20722
5.20758
5.20918
5.20949
5.21085
5.21145
5.21279
4.62158
4.96463
4.97549
4.97091
4.97471
4.98165
4.98934
5.0023
5.00988
5.02537
5.03225
5.04934
5.0559
5.07417
5.08065
5.09968
5.10617
5.12559
5.13212
5.15165
5.15822
5.17767
5.18431
5.2036
5.21039
5.22953
5.23659
5.25564
5.26305
5.28205
5.28982
5.30874
5.31682
5.33558
5.34387
5.36239
5.37077
5.38894
5.39733
5.4151
5.42347
5.44085
5.44921
5.46625
5.47465
5.49138
5.4998
5.51617
5.52453
5.54047
5.54866
5.5641
5.57208
5.58702
5.59477
5.60923
5.61676
5.63076
5.63805
5.65161
5.65864
5.67175
5.67845
5.69108
5.69738
5.70949
5.71536
5.72693
5.73238
5.74349
5.74854
5.75925
5.76388
5.77419
5.77833
5.78817
5.79177
5.80112
5.80422
5.81312
5.81576
5.82427
5.82644
5.83453
5.83612
5.84365
5.84446
5.85169
5.85026
5.85661
23.0818
23.9717
24.146
24.2517
24.3121
24.3535
24.371
24.3928
24.4
24.4193
24.4257
24.4463
24.4536
24.4754
24.4836
24.5063
24.515
24.5378
24.5468
24.5694
24.5783
24.6003
24.6089
24.6303
24.6388
24.6595
24.6679
24.6882
24.6968
24.7167
24.7254
24.7449
24.7537
24.7727
24.7814
24.7998
24.8082
24.8258
24.8339
24.8506
24.8583
24.8742
24.8816
24.8969
24.904
24.9188
24.9258
24.94
24.9467
24.9603
24.9667
24.9795
24.9854
24.9976
25.003
25.0146
25.0197
25.0307
25.0355
25.0459
25.0504
25.0604
25.0645
25.0739
25.0776
25.0864
25.0896
25.0978
25.1006
25.1083
25.1108
25.1181
25.1202
25.1272
25.129
25.1355
25.1368
25.1429
25.1438
25.1494
25.1501
25.1556
25.1559
25.1614
25.1615
25.167
25.1665
25.1728
25.1717
25.1595
20.952
22.6293
22.8439
22.9511
23.0067
23.0434
23.0537
23.0636
23.0609
23.0641
23.0593
23.0616
23.0568
23.0593
23.055
23.0578
23.0541
23.0571
23.054
23.0573
23.0547
23.0583
23.0562
23.0599
23.0582
23.062
23.0607
23.0646
23.0636
23.0676
23.067
23.0712
23.071
23.0752
23.0754
23.0798
23.0803
23.0848
23.0856
23.0901
23.0911
23.0956
23.0968
23.1013
23.1025
23.107
23.1084
23.1129
23.1144
23.1189
23.1206
23.125
23.1267
23.1311
23.1328
23.1371
23.1388
23.1429
23.1446
23.1487
23.1503
23.1543
23.1559
23.1598
23.1614
23.1651
23.1666
23.1702
23.1716
23.175
23.1763
23.1796
23.1807
23.1839
23.1849
23.1879
23.1888
23.1916
23.1923
23.195
23.1954
23.198
23.1982
23.2007
23.2008
23.203
23.2032
23.2039
23.2101
23.1963
18.998
21.2479
21.5418
21.6589
21.7207
21.7611
21.7771
21.7869
21.7862
21.7865
21.7822
21.7807
21.7757
21.7741
21.7693
21.7678
21.7632
21.7619
21.7576
21.7563
21.7522
21.7511
21.7472
21.7461
21.7423
21.7412
21.7377
21.7366
21.7332
21.7322
21.7291
21.7282
21.7252
21.7245
21.7218
21.7212
21.7187
21.7182
21.7159
21.7155
21.7134
21.713
21.7111
21.7107
21.7089
21.7086
21.707
21.7068
21.7053
21.7053
21.704
21.7039
21.7028
21.7028
21.7017
21.7018
21.7008
21.7009
21.7
21.7001
21.6993
21.6995
21.6988
21.6991
21.6984
21.6987
21.6981
21.6984
21.6979
21.6982
21.6976
21.6979
21.6974
21.6978
21.6973
21.6977
21.6972
21.6976
21.6971
21.6975
21.6969
21.6973
21.6967
21.6971
21.6965
21.6968
21.6963
21.6957
21.6993
21.6768
18.4865
20.8739
21.1857
21.2935
21.3502
21.3901
21.4088
21.4211
21.4228
21.4242
21.4215
21.4204
21.4168
21.4156
21.412
21.4109
21.4076
21.4066
21.4034
21.4025
21.3995
21.3987
21.3959
21.3951
21.3923
21.3915
21.3889
21.388
21.3855
21.3847
21.3823
21.3816
21.3793
21.3787
21.3766
21.3761
21.3742
21.3737
21.3719
21.3715
21.3698
21.3694
21.3678
21.3673
21.3658
21.3655
21.364
21.3637
21.3624
21.3622
21.361
21.3608
21.3597
21.3595
21.3585
21.3583
21.3573
21.3571
21.3562
21.3561
21.3552
21.3551
21.3543
21.3542
21.3535
21.3534
21.3527
21.3527
21.352
21.3519
21.3512
21.3512
21.3505
21.3505
21.3499
21.3499
21.3493
21.3493
21.3487
21.3486
21.3479
21.3479
21.3472
21.3472
21.3465
21.3464
21.3457
21.345
21.3457
21.3289
18.1557
20.6548
20.9669
21.0582
21.1015
21.1334