/*--------------------------------*- C++ -*----------------------------------*\
  =========                 |
  \\      /  F ield         | OpenFOAM: The Open Source CFD Toolbox
   \\    /   O peration     | Website:  https://openfoam.org
    \\  /    A nd           | Version:  7
     \\/     M anipulation  |
\*---------------------------------------------------------------------------*/
FoamFile
{
    version     2.0;
    format      ascii;
    class       volScalarField;
    location    "0.395";
    object      k_0;
}
// * * * * * * * * * * * * * * * * * * * * * * * * * * * * * * * * * * * * * //

dimensions      [0 2 -2 0 0 0 0];

internalField   nonuniform List<scalar> 
8640
(
22.8281
21.4812
20.9997
20.9314
20.9023
20.912
20.9053
20.9106
20.9003
20.9006
20.8895
20.8884
20.8783
20.8763
20.8663
20.8633
20.8537
20.8496
20.8396
20.8344
20.825
20.8199
20.8106
20.8034
20.7916
20.7816
20.7693
20.76
20.7501
20.7434
20.7366
20.7322
20.727
20.7232
20.719
20.7168
20.7142
20.7124
20.7082
20.704
20.7007
20.7004
20.7019
20.7054
20.7085
20.7123
20.7151
20.719
20.7216
20.7254
20.7282
20.7307
20.7351
20.7345
20.7415
20.7329
20.7521
20.7342
20.7597
21.1187
8.8634
6.13058
4.89486
4.50234
4.38378
4.30364
4.23159
4.15865
4.08015
4.00637
3.93481
3.87132
3.81561
3.76747
3.72866
3.69505
3.66966
3.64658
3.62971
3.61326
3.60158
3.58924
3.58014
3.56939
3.56072
3.55036
3.54198
3.53259
3.52517
3.51707
3.51078
3.5043
3.49965
3.49507
3.49211
3.48986
3.48854
3.48641
3.48482
3.48349
3.48253
3.48208
3.48204
3.48224
3.48262
3.48301
3.48347
3.48393
3.48444
3.48478
3.4853
3.48554
3.4894
3.48846
3.51301
3.50285
3.59168
3.55275
3.80081
4.06191
8.26081
5.47643
3.90447
3.3681
3.17084
3.0985
3.06882
3.05852
3.05149
3.04882
3.04501
3.04352
3.04106
3.04037
3.03899
3.03876
3.03811
3.03806
3.03776
3.03772
3.03738
3.0371
3.03636
3.03582
3.03492
3.03424
3.03311
3.03178
3.02962
3.02694
3.02353
3.01993
3.0162
3.01289
3.00998
3.00772
3.00586
3.00437
3.00304
3.00197
3.00097
3.00011
2.9993
2.9986
2.99804
2.99768
2.99753
2.99751
2.99747
2.99732
2.99696
2.99653
2.99617
2.99614
2.99677
2.99787
3.00121
3.00309
3.01016
3.05752
8.25516
5.44836
3.85778
3.3141
3.11107
3.03763
3.0097
3.00286
3.00152
3.00316
3.00487
3.00815
3.00985
3.01295
3.01455
3.01713
3.01845
3.02055
3.0217
3.02348
3.02438
3.02557
3.02596
3.02657
3.0268
3.0274
3.02775
3.02803
3.02778
3.02671
3.02435
3.02148
3.01792
3.01446
3.01108
3.00833
3.00599
3.00428
3.0028
3.00171
3.00078
3.0001
2.99943
2.99887
2.99826
2.99775
2.99732
2.99714
2.99715
2.99732
2.99733
2.99709
2.99646
2.99567
2.99521
2.99494
2.99574
2.9965
3.00017
3.03349
8.25336
5.44567
3.85439
3.31041
3.1069
3.03317
3.00503
2.99809
2.99679
2.99847
3.00029
3.00375
3.00561
3.00888
3.01064
3.01339
3.01485
3.01713
3.01846
3.02045
3.02154
3.02293
3.02348
3.02432
3.02477
3.02566
3.02631
3.02693
3.02695
3.02633
3.02432
3.02168
3.0183
3.01498
3.0117
3.00906
3.00683
3.00524
3.00391
3.00296
3.00207
3.00146
3.00093
3.00054
3.00004
2.99955
2.99907
2.99884
2.99881
2.99897
2.99915
2.99914
2.99884
2.99812
2.99759
2.99717
2.9975
2.99823
3.00167
3.03443
8.2555
5.44321
3.85094
3.30741
3.10476
3.03157
3.00377
2.99697
2.99572
2.9974
2.9992
3.00266
3.00451
3.0078
3.00955
3.0123
3.01376
3.01608
3.01744
3.01947
3.02057
3.02197
3.02254
3.02344
3.02397
3.02497
3.0257
3.02637
3.02638
3.02571
3.02365
3.02099
3.01766
3.01444
3.01131
3.00882
3.00674
3.00528
3.00403
3.00315
3.00239
3.00192
3.00149
3.00115
3.0007
3.00028
2.99988
2.99975
2.99984
3.00021
3.00054
3.00062
3.0005
2.99982
2.99952
2.99895
2.99963
3.00003
3.00368
3.03585
8.2555
5.44321
3.85094
3.30741
3.10476
3.03157
3.00377
2.99697
2.99572
2.9974
2.9992
3.00266
3.00451
3.0078
3.00955
3.0123
3.01376
3.01608
3.01744
3.01947
3.02057
3.02197
3.02254
3.02344
3.02397
3.02497
3.0257
3.02637
3.02638
3.02571
3.02365
3.02099
3.01766
3.01444
3.01131
3.00882
3.00674
3.00528
3.00403
3.00315
3.00239
3.00192
3.00149
3.00116
3.0007
3.00028
2.99989
2.99975
2.99984
3.00022
3.00054
3.00063
3.0005
2.99983
2.99953
2.99897
2.99964
3.00005
3.00371
3.03588
8.25336
5.44567
3.85439
3.31041
3.1069
3.03317
3.00503
2.99809
2.99679
2.99847
3.00029
3.00375
3.00561
3.00888
3.01064
3.01339
3.01485
3.01713
3.01846
3.02045
3.02154
3.02293
3.02348
3.02432
3.02477
3.02566
3.02631
3.02693
3.02695
3.02633
3.02432
3.02168
3.0183
3.01498
3.0117
3.00906
3.00683
3.00524
3.00391
3.00296
3.00207
3.00146
3.00093
3.00054
3.00004
2.99955
2.99907
2.99884
2.99881
2.99898
2.99915
2.99915
2.99884
2.99813
2.99759
2.99718
2.9975
2.99825
3.00168
3.03445
8.25516
5.44836
3.85778
3.3141
3.11107
3.03763
3.0097
3.00286
3.00152
3.00316
3.00487
3.00815
3.00985
3.01295
3.01455
3.01713
3.01845
3.02055
3.0217
3.02348
3.02438
3.02557
3.02596
3.02657
3.0268
3.02739
3.02775
3.02803
3.02778
3.02672
3.02436
3.02149
3.01792
3.01446
3.01107
3.00833
3.00599
3.00428
3.0028
3.00171
3.00078
3.0001
2.99943
2.99888
2.99826
2.99776
2.99732
2.99715
2.99716
2.99733
2.99734
2.99712
2.99647
2.99572
2.99522
2.99499
2.99572
2.99657
3.0002
3.03356
8.26081
5.47643
3.90447
3.3681
3.17084
3.0985
3.06882
3.05852
3.05149
3.04882
3.04501
3.04351
3.04106
3.04037
3.03899
3.03876
3.03811
3.03806
3.03776
3.03772
3.03738
3.0371
3.03636
3.03582
3.03492
3.03424
3.03311
3.03178
3.02963
3.02695
3.02353
3.01993
3.0162
3.01289
3.00998
3.00772
3.00585
3.00437
3.00304
3.00197
3.00097
3.00011
2.9993
2.99861
2.99804
2.99769
2.99753
2.99751
2.99748
2.99734
2.99696
2.99656
2.99615
2.99615
2.99671
2.99788
3.00109
3.00315
3.01004
3.05744
8.8634
6.13058
4.89486
4.50234
4.38378
4.30364
4.23159
4.15865
4.08015
4.00637
3.93481
3.87132
3.81561
3.76746
3.72866
3.69505
3.66966
3.64658
3.6297
3.61326
3.60157
3.58924
3.58014
3.56939
3.56072
3.55037
3.54199
3.53259
3.52517
3.51706
3.51077
3.50429
3.49964
3.49506
3.4921
3.48984
3.48853
3.4864
3.48482
3.48349
3.48252
3.48208
3.48204
3.48224
3.48261
3.48301
3.48346
3.48393
3.48443
3.48479
3.48529
3.48555
3.48911
3.48801
3.51242
3.50221
3.59055
3.55195
3.79763
4.05925
22.8281
21.4812
20.9997
20.9314
20.9023
20.912
20.9053
20.9106
20.9003
20.9006
20.8895
20.8884
20.8783
20.8763
20.8664
20.8633
20.8537
20.8496
20.8396
20.8344
20.825
20.8199
20.8107
20.8034
20.7916
20.7816
20.7693
20.7601
20.7502
20.7435
20.7366
20.7322
20.727
20.7232
20.719
20.7168
20.7142
20.7124
20.7082
20.704
20.7006
20.7004
20.7019
20.7054
20.7085
20.7122
20.715
20.7189
20.7215
20.7254
20.728
20.7307
20.735
20.7348
20.7413
20.7335
20.7515
20.7358
20.758
21.1173
0.974672
2.3512
2.9552
3.15912
3.24079
3.25111
3.25465
3.24509
3.23932
3.22392
3.21732
3.2023
3.19576
3.18183
3.17557
3.16309
3.15731
3.14655
3.14136
3.13231
3.12784
3.12025
3.1164
3.11004
3.10674
3.10151
3.0989
3.0949
3.09313
3.09025
3.08918
3.08721
3.08655
3.08514
3.08462
3.08334
3.08277
3.08158
3.08112
3.08017
3.07986
3.07916
3.07896
3.07836
3.07816
3.07753
3.07733
3.07664
3.07652
3.07572
3.07583
3.07482
3.07521
3.07372
3.07444
3.07237
3.07208
3.07127
3.05873
3.13388
0.347473
1.65613
2.33627
2.63485
2.75674
2.80886
2.82939
2.83989
2.84357
2.84664
2.84768
2.84967
2.85061
2.85256
2.85359
2.85563
2.85669
2.85844
2.85918
2.86051
2.86108
2.86195
2.86205
2.862
2.86111
2.85998
2.8582
2.8568
2.8551
2.85388
2.85253
2.85169
2.85089
2.85046
2.85008
2.85
2.84995
2.84994
2.84979
2.84958
2.84938
2.84937
2.84949
2.84986
2.85034
2.85093
2.85157
2.85224
2.85286
2.85361
2.8541
2.85498
2.85551
2.85637
2.8572
2.85767
2.85911
2.85772
2.85988
2.89853
0.386242
1.648
2.3053
2.59672
2.71563
2.76773
2.78776
2.79845
2.80146
2.80405
2.80417
2.80469
2.80445
2.8047
2.80444
2.80456
2.80428
2.80435
2.80414
2.80419
2.80389
2.80372
2.80315
2.80291
2.80244
2.80219
2.80155
2.80066
2.79892
2.79684
2.79412
2.79146
2.7888
2.78665
2.78486
2.78364
2.78275
2.78227
2.782
2.78193
2.78193
2.78198
2.78199
2.78203
2.78214
2.78244
2.78289
2.78345
2.78394
2.78427
2.78446
2.78454
2.78479
2.78521
2.78624
2.78759
2.78904
2.7914
2.79239
2.82422
0.36137
1.63409
2.30134
2.59693
2.71733
2.76978
2.78985
2.80043
2.80334
2.80577
2.80578
2.80615
2.80578
2.80587
2.80543
2.80533
2.80472
2.80454
2.80402
2.80386
2.80324
2.80278
2.80178
2.8012
2.80047
2.8002
2.79977
2.79924
2.79793
2.79602
2.79319
2.79002
2.78654
2.7834
2.78059
2.77845
2.7768
2.7757
2.77494
2.77453
2.77433
2.7743
2.77431
2.77433
2.77432
2.77436
2.77458
2.775
2.77554
2.77596
2.7762
2.77613
2.77589
2.77561
2.77574
2.77621
2.77775
2.77956
2.78164
2.81147
0.37527
1.6403
2.30242
2.59607
2.71577
2.76798
2.78791
2.7984
2.80125
2.8036
2.80357
2.80391
2.80353
2.80361
2.80315
2.80302
2.80238
2.8022
2.80168
2.80151
2.80086
2.80036
2.79932
2.7987
2.79798
2.79773
2.79738
2.79691
2.79568
2.79381
2.79096
2.78775
2.78417
2.7809
2.77795
2.77569
2.77392
2.77274
2.77192
2.77148
2.77127
2.77124
2.77128
2.77129
2.77126
2.77123
2.77133
2.77167
2.7722
2.77267
2.77299
2.77299
2.77276
2.7723
2.77205
2.77224
2.77297
2.77507
2.77659
2.80492
0.367429
1.63636
2.30172
2.59667
2.71689
2.76925
2.78923
2.79971
2.80254
2.80486
2.8048
2.80513
2.80473
2.80479
2.80431
2.80416
2.80349
2.80331
2.80279
2.80261
2.80193
2.80139
2.80033
2.79972
2.79904
2.79881
2.79845
2.79793
2.79659
2.79461
2.79165
2.78837
2.78477
2.78153
2.77864
2.77645
2.77474
2.7736
2.77281
2.77239
2.7722
2.77219
2.77223
2.77224
2.77219
2.77217
2.77228
2.77265
2.7732
2.77369
2.77401
2.774
2.77368
2.77321
2.77294
2.77309
2.77384
2.77588
2.77751
2.80589
0.367429
1.63636
2.30172
2.59667
2.71689
2.76925
2.78923
2.79971
2.80254
2.80486
2.8048
2.80513
2.80473
2.80479
2.80431
2.80416
2.80349
2.80331
2.80279
2.80261
2.80193
2.80139
2.80033
2.79972
2.79904
2.79881
2.79845
2.79793
2.79659
2.79461
2.79165
2.78837
2.78477
2.78153
2.77864
2.77645
2.77474
2.7736
2.77281
2.77239
2.7722
2.77219
2.77223
2.77224
2.77219
2.77217
2.77228
2.77265
2.7732
2.7737
2.77401
2.774
2.77368
2.77321
2.77294
2.77309
2.77383
2.77587
2.7775
2.80588
0.375269
1.6403
2.30242
2.59607
2.71577
2.76798
2.78791
2.7984
2.80125
2.8036
2.80357
2.80391
2.80353
2.80361
2.80315
2.80302
2.80238
2.8022
2.80168
2.80151
2.80086
2.80036
2.79932
2.7987
2.79798
2.79773
2.79738
2.79691
2.79568
2.79381
2.79096
2.78775
2.78417
2.7809
2.77795
2.77569
2.77392
2.77274
2.77192
2.77148
2.77127
2.77124
2.77128
2.7713
2.77126
2.77123
2.77133
2.77167
2.7722
2.77268
2.773
2.773
2.77276
2.77231
2.77205
2.77226
2.77296
2.77511
2.77659
2.80492
0.36137
1.63409
2.30134
2.59693
2.71733
2.76978
2.78985
2.80043
2.80334
2.80577
2.80578
2.80615
2.80578
2.80587
2.80543
2.80533
2.80472
2.80454
2.80402
2.80386
2.80324
2.80278
2.80178
2.8012
2.80047
2.8002
2.79977
2.79924
2.79793
2.79603
2.79319
2.79002
2.78654
2.7834
2.78059
2.77845
2.7768
2.7757
2.77494
2.77453
2.77433
2.7743
2.77431
2.77432
2.77432
2.77435
2.77457
2.77499
2.77554
2.77596
2.7762
2.77612
2.77588
2.7756
2.77571
2.77621
2.77767
2.77965
2.7816
2.81142
0.386242
1.648
2.3053
2.59672
2.71563
2.76773
2.78776
2.79845
2.80146
2.80405
2.80417
2.80469
2.80445
2.8047
2.80444
2.80456
2.80428
2.80435
2.80414
2.80419
2.80389
2.80372
2.80315
2.8029
2.80244
2.80219
2.80156
2.80067
2.79893
2.79685
2.79413
2.79146
2.7888
2.78665
2.78486
2.78363
2.78275
2.78227
2.78199
2.78193
2.78193
2.78198
2.78199
2.78203
2.78214
2.78244
2.78288
2.78345
2.78393
2.78428
2.78446
2.78454
2.78474
2.78525
2.78611
2.7877
2.78884
2.79155
2.79229
2.82413
0.347472
1.65613
2.33627
2.63485
2.75674
2.80887
2.82939
2.83989
2.84357
2.84664
2.84768
2.84967
2.85061
2.85256
2.85359
2.85563
2.85669
2.85844
2.85918
2.86051
2.86108
2.86195
2.86205
2.862
2.86111
2.85999
2.85821
2.85681
2.8551
2.85388
2.85253
2.85169
2.85089
2.85046
2.85007
2.84999
2.84994
2.84993
2.84978
2.84958
2.84938
2.84936
2.84948
2.84985
2.85032
2.85092
2.85155
2.85223
2.85282
2.8536
2.85405
2.85497
2.85543
2.85639
2.85707
2.85763
2.85894
2.85782
2.85958
2.89833
0.974672
2.3512
2.9552
3.15912
3.24079
3.25111
3.25466
3.24509
3.23932
3.22392
3.21732
3.20231
3.19576
3.18183
3.17558
3.1631
3.15731
3.14655
3.14137
3.13231
3.12784
3.12025
3.1164
3.11005
3.10674
3.10151
3.0989
3.0949
3.09313
3.09025
3.08918
3.08721
3.08655
3.08514
3.08462
3.08334
3.08277
3.08158
3.08112
3.08018
3.07987
3.07917
3.07897
3.07837
3.07817
3.07755
3.07735
3.07667
3.07655
3.07577
3.07588
3.07489
3.07527
3.07384
3.07453
3.07259
3.07219
3.0716
3.05892
3.1336
0.00743676
0.0429552
0.108346
0.178052
0.237058
0.283771
0.316552
0.338799
0.352175
0.359915
0.363616
0.364482
0.363918
0.362446
0.359696
0.356523
0.352924
0.349113
0.345135
0.341096
0.337034
0.332962
0.328933
0.324947
0.321085
0.317351
0.313838
0.310566
0.307615
0.305011
0.302792
0.300989
0.299576
0.298583
0.297872
0.297473
0.297172
0.297042
0.296861
0.296774
0.296577
0.296466
0.296191
0.296042
0.295706
0.295544
0.295187
0.295046
0.294718
0.294629
0.294333
0.294313
0.293981
0.294036
0.293445
0.293594
0.292319
0.292397
0.289586
0.293648
0.000266638
0.00388046
0.0118553
0.0250366
0.0372837
0.0500096
0.0604907
0.070332
0.0777876
0.0843728
0.0890301
0.0932306
0.0961793
0.0989668
0.100836
0.102609
0.103693
0.104732
0.105294
0.105872
0.106157
0.106495
0.106665
0.106871
0.106958
0.107016
0.106982
0.106829
0.106425
0.105984
0.105364
0.104713
0.103961
0.103266
0.10262
0.102135
0.101788
0.101609
0.101551
0.101564
0.101639
0.101778
0.10189
0.102017
0.102103
0.102211
0.10227
0.10237
0.102422
0.102541
0.102602
0.102781
0.102853
0.10313
0.103208
0.103658
0.103764
0.104574
0.104751
0.108424
0.000281478
0.00367767
0.0106446
0.022789
0.0326727
0.0436036
0.0513529
0.0592225
0.0644436
0.0695796
0.0727563
0.0759867
0.0779337
0.080035
0.0812445
0.0825443
0.0831868
0.0838743
0.0841401
0.0844237
0.084464
0.0845171
0.0844946
0.0844909
0.0844395
0.0844073
0.084312
0.0842641
0.0841542
0.0841008
0.0840104
0.0839708
0.0839183
0.0839005
0.0838824
0.0838824
0.0838858
0.0838989
0.083919
0.0839354
0.0839655
0.0839828
0.0840191
0.0840402
0.0840862
0.0841099
0.0841592
0.0841808
0.0842284
0.0842498
0.0843031
0.0843325
0.0843982
0.0844619
0.0845078
0.0846035
0.0846403
0.0847587
0.0847818
0.0870968
0.000269131
0.00367856
0.0107071
0.023088
0.0333086
0.0444952
0.05244
0.0603992
0.0656632
0.0707822
0.073933
0.077103
0.0789935
0.0810172
0.0821624
0.0833929
0.0839907
0.0846315
0.0848714
0.0851339
0.0851696
0.0852186
0.0851967
0.085195
0.0851546
0.0851347
0.0850715
0.0850474
0.0849873
0.0849658
0.0849203
0.084906
0.0848801
0.0848744
0.0848652
0.0848669
0.0848684
0.0848735
0.084884
0.0848912
0.0849068
0.0849153
0.0849345
0.0849448
0.0849704
0.0849832
0.0850146
0.0850285
0.0850635
0.0850794
0.0851233
0.0851442
0.0852035
0.0852321
0.0853121
0.0853511
0.0854577
0.0855146
0.0856263
0.0878287
0.000274878
0.00366188
0.0106132
0.02287
0.0328732
0.0439244
0.0517267
0.0596238
0.0648219
0.0699266
0.0730513
0.0762262
0.0781091
0.0801426
0.0812866
0.0825233
0.0831178
0.0837601
0.083997
0.0842516
0.0842797
0.0843195
0.0842937
0.0842873
0.0842356
0.0842097
0.0841348
0.084105
0.0840335
0.0840051
0.0839494
0.0839302
0.0839002
0.0838937
0.0838853
0.0838889
0.0838927
0.0839
0.083912
0.0839195
0.0839357
0.0839441
0.0839633
0.083973
0.0839971
0.0840086
0.0840379
0.0840506
0.0840838
0.0840989
0.0841406
0.0841604
0.0842114
0.0842407
0.0842973
0.0843626
0.0844024
0.0844957
0.0845361
0.0865888
0.00027109
0.00366477
0.0106494
0.0229692
0.0330896
0.0442151
0.0520941
0.0600273
0.0652596
0.0703737
0.07351
0.0766823
0.0785663
0.0805931
0.0817339
0.0829641
0.0835566
0.0841945
0.0844305
0.0846856
0.0847155
0.084758
0.0847338
0.0847295
0.0846832
0.0846603
0.0845916
0.0845648
0.0844991
0.0844741
0.084423
0.084406
0.0843778
0.0843715
0.0843629
0.0843657
0.084369
0.0843756
0.0843875
0.0843953
0.0844116
0.0844199
0.0844387
0.0844482
0.0844719
0.0844834
0.0845124
0.0845252
0.0845582
0.0845731
0.0846144
0.0846342
0.0846883
0.0847154
0.0847868
0.0848263
0.0849179
0.0849924
0.0850752
0.0871536
0.00027109
0.00366477
0.0106494
0.0229692
0.0330896
0.0442151
0.0520941
0.0600273
0.0652596
0.0703737
0.07351
0.0766823
0.0785663
0.0805931
0.0817339
0.0829641
0.0835566
0.0841945
0.0844305
0.0846856
0.0847155
0.084758
0.0847338
0.0847295
0.0846832
0.0846603
0.0845916
0.0845648
0.0844991
0.0844741
0.084423
0.084406
0.0843778
0.0843715
0.0843629
0.0843657
0.0843691
0.0843757
0.0843875
0.0843951
0.0844113
0.0844196
0.0844385
0.084448
0.0844719
0.0844835
0.0845126
0.0845254
0.0845584
0.0845732
0.0846143
0.0846342
0.0846884
0.084716
0.0847878
0.0848275
0.0849183
0.0849909
0.0850716
0.0871477
0.000274878
0.00366188
0.0106132
0.02287
0.0328732
0.0439244
0.0517267
0.0596238
0.0648219
0.0699266
0.0730513
0.0762262
0.0781091
0.0801426
0.0812866
0.0825233
0.0831178
0.0837601
0.083997
0.0842516
0.0842797
0.0843195
0.0842937
0.0842873
0.0842357
0.0842097
0.0841348
0.0841051
0.0840335
0.0840051
0.0839494
0.0839302
0.0839002
0.0838937
0.0838852
0.0838888
0.0838929
0.0839
0.0839118
0.0839192
0.0839353
0.0839436
0.0839626
0.0839723
0.0839966
0.0840084
0.0840382
0.084051
0.084084
0.0840985
0.084139
0.0841588
0.0842102
0.0842403
0.0842942
0.0843596
0.0844006
0.0844971
0.0845397
0.086593
0.000269131
0.00367856
0.010707
0.023088
0.0333086
0.0444952
0.05244
0.0603992
0.0656632
0.0707823
0.0739329
0.077103
0.0789935
0.0810172
0.0821624
0.0833929
0.0839907
0.0846315
0.0848714
0.0851339
0.0851696
0.0852187
0.0851967
0.085195
0.0851547
0.0851348
0.0850718
0.0850476
0.0849875
0.084966
0.0849204
0.084906
0.0848801
0.0848744
0.0848652
0.0848668
0.0848684
0.0848736
0.084884
0.0848911
0.0849067
0.0849152
0.0849345
0.0849448
0.0849704
0.0849832
0.0850145
0.0850284
0.0850633
0.0850792
0.085123
0.085144
0.0852031
0.0852318
0.0853112
0.0853506
0.0854563
0.0855143
0.0856253
0.087824
0.000281478
0.00367767
0.0106446
0.022789
0.0326727
0.0436036
0.0513529
0.0592225
0.0644436
0.0695796
0.0727563
0.0759867
0.0779337
0.080035
0.0812445
0.0825443
0.0831868
0.0838743
0.0841401
0.0844237
0.084464
0.0845171
0.0844946
0.0844909
0.0844396
0.0844073
0.0843121
0.0842642
0.0841542
0.0841008
0.0840104
0.0839707
0.0839182
0.0839004
0.0838823
0.0838823
0.0838858
0.083899
0.0839189
0.0839348
0.0839648
0.083982
0.0840185
0.0840397
0.0840862
0.0841096
0.084158
0.0841789
0.0842254
0.0842471
0.0843012
0.084333
0.0843994
0.0844608
0.0845044
0.0845989
0.0846345
0.0847534
0.0847748
0.08708
0.000266638
0.00388046
0.0118553
0.0250366
0.0372837
0.0500095
0.0604907
0.0703319
0.0777875
0.0843727
0.0890301
0.0932306
0.0961793
0.0989668
0.100836
0.102609
0.103693
0.104732
0.105294
0.105872
0.106157
0.106495
0.106665
0.106871
0.106958
0.107016
0.106982
0.106829
0.106425
0.105984
0.105364
0.104713
0.103961
0.103266
0.102619
0.102134
0.101788
0.101609
0.10155
0.101564
0.101637
0.101776
0.101888
0.102015
0.102102
0.102209
0.102266
0.102364
0.102414
0.10253
0.102589
0.102764
0.102833
0.103104
0.103176
0.103614
0.103711
0.104503
0.104665
0.108298
0.00743676
0.0429552
0.108346
0.178052
0.237058
0.283771
0.316552
0.338799
0.352175
0.359915
0.363616
0.364482
0.363918
0.362446
0.359696
0.356523
0.352924
0.349113
0.345135
0.341096
0.337034
0.332962
0.328933
0.324947
0.321085
0.317351
0.313838
0.310566
0.307614
0.30501
0.302792
0.300989
0.299576
0.298583
0.297872
0.297473
0.297173
0.297043
0.296862
0.296775
0.296579
0.296468
0.296195
0.296047
0.295712
0.295552
0.295198
0.295058
0.294734
0.29465
0.294363
0.294351
0.29403
0.294099
0.29352
0.293699
0.29244
0.292579
0.289779
0.293881
0.00743677
0.0429553
0.108346
0.178052
0.237058
0.283771
0.316552
0.338799
0.352175
0.359916
0.363616
0.364482
0.363918
0.362446
0.359696
0.356523
0.352924
0.349113
0.345135
0.341096
0.337034
0.332962
0.328933
0.324947
0.321085
0.317351
0.313838
0.310567
0.307615
0.305011
0.302792
0.300989
0.299576
0.298583
0.297872
0.297473
0.297172
0.297042
0.296861
0.296774
0.296577
0.296466
0.296191
0.296042
0.295706
0.295544
0.295187
0.295046
0.294718
0.294629
0.294333
0.294313
0.293981
0.294036
0.293445
0.293594
0.292319
0.292397
0.289586
0.293648
0.000266639
0.00388048
0.0118553
0.0250366
0.0372838
0.0500097
0.0604908
0.0703321
0.0777877
0.0843729
0.0890302
0.0932307
0.0961794
0.098967
0.100836
0.102609
0.103694
0.104732
0.105294
0.105872
0.106157
0.106495
0.106665
0.106871
0.106958
0.107016
0.106982
0.10683
0.106425
0.105984
0.105364
0.104713
0.103961
0.103266
0.10262
0.102135
0.101789
0.101609
0.101551
0.101564
0.101639
0.101779
0.10189
0.102017
0.102103
0.102212
0.10227
0.10237
0.102421
0.102541
0.102602
0.102782
0.102854
0.10313
0.103207
0.103657
0.103764
0.104574
0.104752
0.108425
0.00028148
0.00367768
0.0106447
0.022789
0.0326728
0.0436037
0.0513531
0.0592226
0.0644437
0.0695797
0.0727565
0.0759869
0.0779339
0.0800352
0.0812446
0.0825445
0.083187
0.0838744
0.0841403
0.0844239
0.0844641
0.0845173
0.0844948
0.0844911
0.0844397
0.0844074
0.0843122
0.0842643
0.0841543
0.0841009
0.0840106
0.0839709
0.0839184
0.0839006
0.0838825
0.0838825
0.0838858
0.0838989
0.0839196
0.0839353
0.0839655
0.0839828
0.0840195
0.0840407
0.084087
0.0841102
0.0841582
0.084179
0.0842258
0.0842481
0.0843047
0.0843359
0.0844027
0.0844632
0.0845078
0.0846022
0.0846394
0.0847586
0.084782
0.0870971
0.000269133
0.00367857
0.0107071
0.0230881
0.0333087
0.0444954
0.0524402
0.0603994
0.0656633
0.0707824
0.0739331
0.0771031
0.0789936
0.0810174
0.0821626
0.0833931
0.0839909
0.0846317
0.0848716
0.0851341
0.0851697
0.0852188
0.0851969
0.0851952
0.0851549
0.085135
0.0850719
0.0850478
0.0849876
0.0849661
0.0849205
0.0849061
0.0848802
0.0848745
0.0848654
0.084867
0.0848686
0.0848738
0.0848842
0.0848913
0.0849068
0.0849153
0.0849346
0.0849449
0.0849706
0.0849834
0.0850147
0.0850286
0.0850635
0.0850794
0.0851235
0.0851445
0.0852038
0.0852323
0.0853122
0.0853511
0.0854578
0.0855148
0.0856267
0.0878293
0.00027488
0.0036619
0.0106132
0.02287
0.0328734
0.0439245
0.0517268
0.059624
0.0648221
0.0699268
0.0730515
0.0762263
0.0781092
0.0801427
0.0812868
0.0825235
0.0831179
0.0837603
0.0839972
0.0842518
0.0842798
0.0843197
0.0842938
0.0842874
0.0842358
0.0842099
0.084135
0.0841052
0.0840336
0.0840052
0.0839495
0.0839303
0.0839003
0.0838938
0.0838854
0.083889
0.0838928
0.0839001
0.0839122
0.0839197
0.0839359
0.0839443
0.0839633
0.083973
0.0839971
0.0840088
0.0840382
0.0840509
0.0840839
0.0840988
0.0841403
0.0841602
0.0842113
0.0842417
0.0842952
0.0843602
0.0844008
0.0844969
0.0845391
0.0865937
0.000271092
0.00366478
0.0106495
0.0229693
0.0330897
0.0442153
0.0520942
0.0600274
0.0652598
0.0703738
0.0735101
0.0766824
0.0785665
0.0805933
0.081734
0.0829642
0.0835567
0.0841947
0.0844307
0.0846857
0.0847156
0.0847582
0.0847339
0.0847297
0.0846834
0.0846605
0.0845918
0.084565
0.0844993
0.0844742
0.0844231
0.0844061
0.0843779
0.0843716
0.084363
0.0843658
0.0843692
0.0843759
0.0843876
0.0843952
0.0844114
0.0844198
0.0844386
0.0844481
0.084472
0.0844835
0.0845126
0.0845254
0.0845583
0.0845732
0.0846147
0.0846345
0.0846886
0.0847157
0.084787
0.0848265
0.0849184
0.0849929
0.0850754
0.0871534
0.000271092
0.00366478
0.0106495
0.0229693
0.0330897
0.0442153
0.0520942
0.0600275
0.0652598
0.0703738
0.0735101
0.0766824
0.0785665
0.0805933
0.081734
0.0829642
0.0835567
0.0841947
0.0844307
0.0846857
0.0847156
0.0847582
0.0847339
0.0847297
0.0846834
0.0846605
0.0845918
0.084565
0.0844993
0.0844742
0.0844232
0.0844061
0.0843779
0.0843717
0.084363
0.0843659
0.0843692
0.0843759
0.0843876
0.0843952
0.0844114
0.0844198
0.0844386
0.0844482
0.0844721
0.0844836
0.0845127
0.0845255
0.0845585
0.0845735
0.0846148
0.0846346
0.0846889
0.084717
0.0847903
0.0848307
0.0849223
0.0849944
0.0850749
0.0871508
0.00027488
0.0036619
0.0106132
0.0228701
0.0328733
0.0439245
0.0517268
0.059624
0.0648221
0.0699268
0.0730515
0.0762264
0.0781092
0.0801427
0.0812868
0.0825235
0.0831179
0.0837603
0.0839971
0.0842518
0.0842798
0.0843197
0.0842938
0.0842875
0.0842359
0.0842099
0.084135
0.0841052
0.0840337
0.0840053
0.0839495
0.0839303
0.0839003
0.0838938
0.0838854
0.083889
0.0838931
0.0839002
0.083912
0.0839194
0.0839354
0.0839437
0.0839626
0.0839724
0.0839968
0.0840086
0.0840384
0.0840512
0.0840843
0.0840989
0.0841395
0.0841592
0.0842104
0.0842412
0.0842992
0.0843651
0.0844054
0.0844994
0.0845403
0.0865918
0.000269133
0.00367857
0.0107071
0.0230881
0.0333087
0.0444954
0.0524402
0.0603994
0.0656633
0.0707824
0.0739331
0.0771031
0.0789936
0.0810174
0.0821626
0.0833931
0.0839909
0.0846317
0.0848716
0.0851341
0.0851697
0.0852188
0.0851969
0.0851952
0.0851549
0.085135
0.0850719
0.0850478
0.0849876
0.0849661
0.0849205
0.0849061
0.0848802
0.0848745
0.0848653
0.084867
0.0848685
0.0848737
0.0848842
0.0848913
0.0849069
0.0849154
0.0849347
0.084945
0.0849706
0.0849834
0.0850147
0.0850286
0.0850636
0.0850796
0.0851236
0.0851446
0.0852042
0.0852338
0.0853154
0.0853552
0.0854602
0.0855164
0.085626
0.087823
0.00028148
0.00367768
0.0106447
0.022789
0.0326728
0.0436037
0.0513531
0.0592226
0.0644437
0.0695797
0.0727565
0.0759869
0.0779339
0.0800352
0.0812446
0.0825445
0.083187
0.0838744
0.0841403
0.0844239
0.0844641
0.0845173
0.0844948
0.0844911
0.0844397
0.0844075
0.0843122
0.0842643
0.0841543
0.0841009
0.0840105
0.0839708
0.0839184
0.0839005
0.0838825
0.0838825
0.0838859
0.0838991
0.0839194
0.0839348
0.083965
0.0839823
0.0840189
0.0840401
0.0840863
0.0841096
0.0841573
0.0841781
0.0842253
0.084248
0.0843046
0.0843337
0.0843954
0.0844601
0.0845054
0.0846029
0.0846384
0.0847555
0.0847755
0.087079
0.000266639
0.00388048
0.0118553
0.0250367
0.0372838
0.0500096
0.0604908
0.070332
0.0777876
0.0843728
0.0890302
0.0932307
0.0961794
0.098967
0.100836
0.102609
0.103694
0.104732
0.105294
0.105872
0.106157
0.106495
0.106665
0.106871
0.106958
0.107016
0.106982
0.10683
0.106425
0.105984
0.105364
0.104713
0.103961
0.103266
0.10262
0.102135
0.101788
0.101609
0.10155
0.101564
0.101638
0.101777
0.101889
0.102014
0.1021
0.102208
0.102265
0.102364
0.102414
0.102531
0.10259
0.102765
0.102834
0.103104
0.103177
0.103615
0.103712
0.104504
0.104666
0.108299
0.00743677
0.0429553
0.108346
0.178052
0.237058
0.283771
0.316552
0.338799
0.352175
0.359916
0.363616
0.364482
0.363918
0.362446
0.359696
0.356523
0.352924
0.349113
0.345135
0.341096
0.337034
0.332962
0.328933
0.324947
0.321085
0.317351
0.313838
0.310566
0.307614
0.30501
0.302792
0.300989
0.299576
0.298583
0.297872
0.297473
0.297173
0.297043
0.296862
0.296776
0.296579
0.296468
0.296195
0.296047
0.295713
0.295552
0.295198
0.295059
0.294735
0.29465
0.294363
0.294351
0.29403
0.294099
0.29352
0.293699
0.29244
0.292579
0.289779
0.293881
0.974673
2.3512
2.9552
3.15912
3.24079
3.25111
3.25465
3.24509
3.23932
3.22392
3.21732
3.20231
3.19576
3.18183
3.17558
3.1631
3.15731
3.14655
3.14137
3.13231
3.12784
3.12025
3.1164
3.11005
3.10674
3.10151
3.0989
3.0949
3.09313
3.09025
3.08918
3.08721
3.08655
3.08514
3.08462
3.08334
3.08277
3.08158
3.08112
3.08017
3.07986
3.07916
3.07896
3.07836
3.07816
3.07753
3.07733
3.07664
3.07652
3.07572
3.07583
3.07482
3.07521
3.07372
3.07444
3.07237
3.07208
3.07127
3.05873
3.13388
0.347473
1.65613
2.33627
2.63485
2.75674
2.80887
2.82939
2.83989
2.84357
2.84664
2.84768
2.84967
2.85061
2.85256
2.85359
2.85563
2.85669
2.85844
2.85918
2.86051
2.86108
2.86195
2.86205
2.862
2.86111
2.85998
2.8582
2.8568
2.8551
2.85388
2.85253
2.85169
2.85089
2.85046
2.85008
2.84999
2.84995
2.84993
2.84979
2.84958
2.84938
2.84937
2.84949
2.84985
2.85033
2.85093
2.85157
2.85224
2.85285
2.85361
2.8541
2.85497
2.8555
2.85637
2.8572
2.85767
2.85911
2.85772
2.85988
2.89853
0.386242
1.648
2.3053
2.59672
2.71563
2.76773
2.78776
2.79845
2.80146
2.80405
2.80417
2.80469
2.80445
2.8047
2.80444
2.80456
2.80428
2.80435
2.80414
2.80419
2.80389
2.80372
2.80315
2.8029
2.80244
2.8022
2.80156
2.80067
2.79893
2.79685
2.79412
2.79146
2.7888
2.78665
2.78486
2.78364
2.78275
2.78227
2.78199
2.78193
2.78193
2.78198
2.78199
2.78203
2.78214
2.78244
2.78289
2.78345
2.78394
2.78427
2.78446
2.78454
2.78478
2.78521
2.78623
2.78758
2.78904
2.7914
2.79239
2.82422
0.361371
1.63409
2.30134
2.59693
2.71733
2.76978
2.78985
2.80043
2.80334
2.80577
2.80578
2.80615
2.80578
2.80587
2.80543
2.80533
2.80472
2.80454
2.80402
2.80386
2.80324
2.80278
2.80178
2.8012
2.80047
2.8002
2.79977
2.79924
2.79793
2.79603
2.79319
2.79002
2.78654
2.78339
2.78058
2.77845
2.7768
2.7757
2.77494
2.77453
2.77433
2.7743
2.77431
2.77432
2.77432
2.77436
2.77458
2.775
2.77554
2.77596
2.7762
2.77613
2.77589
2.7756
2.77574
2.7762
2.77775
2.77956
2.78163
2.81147
0.37527
1.6403
2.30242
2.59607
2.71577
2.76798
2.78791
2.7984
2.80125
2.8036
2.80357
2.80391
2.80353
2.80361
2.80315
2.80302
2.80238
2.8022
2.80168
2.80151
2.80086
2.80036
2.79932
2.7987
2.79798
2.79774
2.79738
2.79691
2.79568
2.79381
2.79096
2.78775
2.78416
2.78089
2.77794
2.77568
2.77392
2.77274
2.77192
2.77148
2.77126
2.77124
2.77128
2.77129
2.77126
2.77123
2.77132
2.77167
2.7722
2.77268
2.77299
2.77299
2.77276
2.77229
2.77205
2.77224
2.77296
2.77507
2.77659
2.80492
0.36743
1.63636
2.30172
2.59667
2.71689
2.76925
2.78924
2.79971
2.80254
2.80486
2.8048
2.80513
2.80473
2.80479
2.80431
2.80416
2.80349
2.80331
2.80279
2.80261
2.80193
2.80139
2.80033
2.79972
2.79904
2.79881
2.79846
2.79794
2.7966
2.79461
2.79165
2.78837
2.78476
2.78152
2.77864
2.77644
2.77474
2.7736
2.7728
2.77238
2.7722
2.77219
2.77223
2.77224
2.77219
2.77217
2.77228
2.77265
2.77321
2.7737
2.77401
2.774
2.77367
2.7732
2.77294
2.77309
2.77383
2.77588
2.77751
2.8059
0.36743
1.63636
2.30172
2.59667
2.71689
2.76925
2.78924
2.79971
2.80254
2.80486
2.8048
2.80513
2.80473
2.80479
2.80431
2.80416
2.80349
2.80331
2.80279
2.80261
2.80193
2.80139
2.80033
2.79972
2.79904
2.79881
2.79846
2.79794
2.7966
2.79461
2.79165
2.78837
2.78476
2.78152
2.77864
2.77644
2.77474
2.7736
2.7728
2.77238
2.7722
2.77219
2.77223
2.77223
2.77219
2.77217
2.77228
2.77265
2.77321
2.7737
2.77401
2.774
2.77367
2.7732
2.77293
2.77309
2.77383
2.77587
2.7775
2.80588
0.37527
1.6403
2.30242
2.59607
2.71577
2.76798
2.78791
2.7984
2.80125
2.8036
2.80357
2.80391
2.80353
2.80361
2.80315
2.80302
2.80238
2.8022
2.80168
2.80151
2.80086
2.80036
2.79932
2.7987
2.79798
2.79774
2.79738
2.79691
2.79568
2.79381
2.79096
2.78775
2.78416
2.78089
2.77794
2.77568
2.77392
2.77274
2.77192
2.77148
2.77127
2.77125
2.77128
2.7713
2.77126
2.77123
2.77133
2.77167
2.7722
2.77268
2.773
2.773
2.77276
2.77231
2.77204
2.77226
2.77295
2.77511
2.7766
2.80492
0.36137
1.63409
2.30134
2.59693
2.71733
2.76978
2.78985
2.80043
2.80334
2.80577
2.80578
2.80615
2.80578
2.80587
2.80543
2.80533
2.80472
2.80454
2.80402
2.80386
2.80324
2.80278
2.80178
2.8012
2.80047
2.8002
2.79977
2.79924
2.79793
2.79603
2.79319
2.79002
2.78654
2.78339