/*--------------------------------*- C++ -*----------------------------------*\
  =========                 |
  \\      /  F ield         | OpenFOAM: The Open Source CFD Toolbox
   \\    /   O peration     | Website:  https://openfoam.org
    \\  /    A nd           | Version:  7
     \\/     M anipulation  |
\*---------------------------------------------------------------------------*/
FoamFile
{
    version     2.0;
    format      ascii;
    class       volScalarField;
    location    "0.5";
    object      rho_0;
}
// * * * * * * * * * * * * * * * * * * * * * * * * * * * * * * * * * * * * * //

dimensions      [1 -3 0 0 0 0 0];

internalField   nonuniform List<scalar> 
5760
(
1.22131
1.17207
1.13716
1.11282
1.09286
1.07487
1.05828
1.04271
1.0281
1.01474
1.00304
0.993233
0.985366
0.979307
0.974832
0.971679
0.969566
0.968228
0.96743
0.966977
0.966721
0.966557
0.966421
0.966285
0.966141
0.965993
0.965846
0.965703
0.965565
0.96543
0.965295
0.96516
0.965024
0.964888
0.964753
0.964621
0.964492
0.964367
0.964246
0.964131
0.96402
0.963913
0.963812
0.963715
0.963623
0.963537
0.963455
0.963378
0.963306
0.963239
0.963176
0.963119
0.963066
0.963019
0.962975
0.962937
0.962904
0.962875
0.96285
0.962831
0.962815
0.962804
0.962798
0.962796
0.962799
0.962805
0.962816
0.962831
0.96285
0.962873
0.9629
0.96293
0.962965
0.963003
0.963044
0.963089
0.963138
0.96319
0.963245
0.963304
0.963365
0.963429
0.963496
0.963566
0.963638
0.963713
0.963791
0.963871
0.963952
0.964037
0.964123
0.964211
0.964301
0.964393
0.964486
0.964581
0.964678
0.964776
0.964875
0.964975
0.965077
0.965179
0.965283
0.965387
0.965493
0.965599
0.965705
0.965813
0.96592
0.966029
0.966137
0.966246
0.966355
0.966465
0.966574
0.966684
0.966793
0.966903
0.967012
0.967121
0.96723
0.967339
0.967447
0.967555
0.967663
0.96777
0.967877
0.967983
0.968088
0.968193
0.968298
0.968401
0.968504
0.968606
0.968708
0.968808
0.968908
0.969007
0.969105
0.969203
0.969299
0.969395
0.969489
0.969583
0.969675
0.969766
0.969857
0.969946
0.970035
0.970122
0.970207
0.970292
0.970376
0.970459
0.97054
0.970621
0.9707
0.970778
0.970854
0.97093
0.971005
0.971078
0.97115
0.97122
0.97129
0.971358
0.971425
0.971491
0.971556
0.971619
0.971682
0.971743
0.971803
0.971861
0.971919
0.971975
0.97203
0.972083
0.972136
0.972187
0.972237
0.972286
0.972334
0.97238
0.972426
0.97247
0.972513
0.972555
0.972595
0.972635
0.972673
0.97271
0.972746
0.972781
0.972814
0.972847
0.972878
0.972909
0.972938
0.972966
0.972993
0.973019
0.973043
0.973067
0.97309
0.973111
0.973132
0.973151
0.973169
0.973186
0.973202
0.973217
0.973231
0.973244
0.973256
0.973267
0.973276
0.973285
0.973292
0.973299
0.973304
0.973309
0.973311
0.973315
0.973313
0.973318
0.973307
0.97332
0.97329
0.97333
0.973247
0.973372
0.97314
0.973492
0.972893
0.973748
0.972207
0.97455
0.986438
1.07731
1.23723
1.207
1.18041
1.15953
1.14245
1.1273
1.11308
1.09921
1.0857
1.07293
1.06137
1.05135
1.04304
1.03646
1.03151
1.02799
1.02567
1.0243
1.02365
1.02351
1.02372
1.02412
1.02459
1.02504
1.02541
1.02571
1.02593
1.0261
1.02623
1.02635
1.02646
1.02657
1.02668
1.0268
1.02691
1.02702
1.02714
1.02726
1.02738
1.0275
1.02762
1.02774
1.02787
1.02799
1.02812
1.02826
1.02839
1.02853
1.02866
1.0288
1.02894
1.02908
1.02923
1.02937
1.02951
1.02966
1.0298
1.02995
1.03009
1.03024
1.03038
1.03053
1.03067
1.03081
1.03095
1.0311
1.03124
1.03137
1.03151
1.03165
1.03178
1.03192
1.03205
1.03218
1.03231
1.03244
1.03257
1.03269
1.03281
1.03294
1.03305
1.03317
1.03329
1.0334
1.03351
1.03363
1.03373
1.03384
1.03395
1.03405
1.03415
1.03425
1.03435
1.03445
1.03454
1.03463
1.03473
1.03482
1.0349
1.03499
1.03508
1.03516
1.03524
1.03532
1.0354
1.03548
1.03556
1.03563
1.03571
1.03578
1.03585
1.03593
1.03599
1.03606
1.03613
1.0362
1.03626
1.03633
1.03639
1.03645
1.03652
1.03658
1.03664
1.0367
1.03675
1.03681
1.03687
1.03692
1.03698
1.03703
1.03709
1.03714
1.03719
1.03725
1.0373
1.03735
1.0374
1.03745
1.03749
1.03754
1.03759
1.03764
1.03768
1.03773
1.03777
1.03782
1.03786
1.03791
1.03795
1.03799
1.03803
1.03807
1.03811
1.03815
1.03819
1.03823
1.03827
1.03831
1.03835
1.03838
1.03842
1.03845
1.03849
1.03852
1.03856
1.03859
1.03862
1.03865
1.03869
1.03872
1.03875
1.03878
1.03881
1.03884
1.03886
1.03889
1.03892
1.03895
1.03897
1.039
1.03902
1.03905
1.03907
1.03909
1.03911
1.03914
1.03916
1.03918
1.0392
1.03922
1.03923
1.03925
1.03927
1.03929
1.0393
1.03932
1.03933
1.03935
1.03936
1.03937
1.03939
1.0394
1.03941
1.03942
1.03943
1.03944
1.03945
1.03946
1.03946
1.03947
1.03948
1.03948
1.03948
1.03949
1.03949
1.03949
1.0395
1.0395
1.0395
1.0395
1.0395
1.03949
1.03949
1.03949
1.03948
1.03948
1.03946
1.03948
1.03943
1.03949
1.03938
1.03953
1.03926
1.03964
1.03902
1.03987
1.03842
1.04051
1.05016
1.13237
1.24292
1.22771
1.21023
1.19379
1.17962
1.16747
1.15637
1.14531
1.13398
1.12266
1.11178
1.10178
1.09295
1.0855
1.07951
1.07493
1.07165
1.06946
1.06819
1.06765
1.0677
1.06816
1.06885
1.06959
1.07024
1.07075
1.07111
1.07135
1.0715
1.07162
1.07171
1.0718
1.0719
1.07201
1.07212
1.07223
1.07234
1.07245
1.07255
1.07266
1.07276
1.07287
1.07297
1.07307
1.07318
1.07328
1.07339
1.0735
1.07361
1.07372
1.07383
1.07394
1.07406
1.07417
1.07429
1.0744
1.07452
1.07463
1.07474
1.07486
1.07497
1.07509
1.0752
1.07531
1.07542
1.07553
1.07564
1.07575
1.07586
1.07597
1.07607
1.07618
1.07628
1.07639
1.07649
1.07659
1.07668
1.07678
1.07688
1.07697
1.07706
1.07715
1.07724
1.07733
1.07742
1.0775
1.07759
1.07767
1.07775
1.07783
1.07791
1.07798
1.07806
1.07813
1.0782
1.07827
1.07834
1.0784
1.07847
1.07853
1.07859
1.07865
1.07871
1.07877
1.07883
1.07888
1.07894
1.07899
1.07904
1.07909
1.07914
1.07919
1.07924
1.07928
1.07932
1.07937
1.07941
1.07945
1.07949
1.07953
1.07957
1.0796
1.07964
1.07967
1.07971
1.07974
1.07977
1.0798
1.07983
1.07986
1.07989
1.07991
1.07994
1.07996
1.07999
1.08001
1.08004
1.08006
1.08008
1.0801
1.08012
1.08014
1.08016
1.08017
1.08019
1.08021
1.08022
1.08024
1.08025
1.08027
1.08028
1.08029
1.0803
1.08031
1.08032
1.08033
1.08034
1.08035
1.08036
1.08036
1.08037
1.08038
1.08038
1.08039
1.08039
1.0804
1.0804
1.0804
1.0804
1.08041
1.08041
1.08041
1.08041
1.08041
1.08041
1.0804
1.0804
1.0804
1.0804
1.08039
1.08039
1.08039
1.08038
1.08038
1.08037
1.08036
1.08036
1.08035
1.08034
1.08033
1.08033
1.08032
1.08031
1.0803
1.08029
1.08028
1.08027
1.08025
1.08024
1.08023
1.08022
1.08021
1.08019
1.08018
1.08016
1.08015
1.08014
1.08012
1.0801
1.08009
1.08007
1.08005
1.08004
1.08002
1.08
1.07998
1.07996
1.07995
1.07993
1.07991
1.07988
1.07987
1.07984
1.07982
1.07979
1.07978
1.07974
1.07975
1.07967
1.07973
1.07958
1.07974
1.07943
1.07981
1.07919
1.07996
1.07874
1.08001
1.0823
1.13787
1.24364
1.23769
1.2284
1.2174
1.20662
1.19734
1.18926
1.18141
1.17313
1.1643
1.15518
1.14612
1.13747
1.12956
1.12264
1.11689
1.11235
1.10895
1.10656
1.10507
1.1044
1.10445
1.10503
1.10588
1.10677
1.10752
1.10803
1.10832
1.10843
1.10844
1.1084
1.10836
1.10834
1.10834
1.10836
1.10838
1.10842
1.10844
1.10847
1.10849
1.10851
1.10852
1.10853
1.10854
1.10855
1.10857
1.10858
1.1086
1.10862
1.10864
1.10867
1.1087
1.10872
1.10875
1.10879
1.10882
1.10885
1.10889
1.10892
1.10896
1.109
1.10904
1.10908
1.10912
1.10916
1.1092
1.10924
1.10928
1.10932
1.10936
1.1094
1.10944
1.10948
1.10952
1.10956
1.1096
1.10964
1.10968
1.10972
1.10976
1.10979
1.10983
1.10986
1.1099
1.10993
1.10997
1.11
1.11003
1.11006
1.11009
1.11012
1.11015
1.11018
1.11021
1.11024
1.11026
1.11029
1.11031
1.11033
1.11036
1.11038
1.1104
1.11042
1.11044
1.11045
1.11047
1.11049
1.1105
1.11052
1.11053
1.11055
1.11056
1.11057
1.11058
1.11059
1.1106
1.11061
1.11062
1.11063
1.11063
1.11064
1.11064
1.11065
1.11065
1.11066
1.11066
1.11066
1.11066
1.11066
1.11066
1.11066
1.11066
1.11066
1.11066
1.11065
1.11065
1.11065
1.11064
1.11064
1.11063
1.11062
1.11062
1.11061
1.1106
1.11059
1.11058
1.11057
1.11056
1.11055
1.11054
1.11053
1.11052
1.11051
1.11049
1.11048
1.11047
1.11045
1.11044
1.11042
1.11041
1.11039
1.11037
1.11036
1.11034
1.11032
1.1103
1.11028
1.11027
1.11025
1.11023
1.11021
1.11018
1.11016
1.11014
1.11012
1.1101
1.11007
1.11005
1.11003
1.11
1.10998
1.10995
1.10993
1.1099
1.10988
1.10985
1.10983
1.1098
1.10977
1.10974
1.10972
1.10969
1.10966
1.10963
1.1096
1.10957
1.10954
1.10951
1.10948
1.10945
1.10942
1.10939
1.10936
1.10933
1.1093
1.10927
1.10923
1.1092
1.10917
1.10913
1.1091
1.10907
1.10903
1.109
1.10897
1.10893
1.1089
1.10886
1.10882
1.10879
1.10875
1.10872
1.10868
1.10865
1.1086
1.10858
1.10851
1.10852
1.10841
1.10847
1.10829
1.10845
1.10813
1.10847
1.10791
1.10851
1.1076
1.10854
1.10556
1.137
1.24265
1.24058
1.23664
1.23087
1.22396
1.21753
1.21204
1.20706
1.20191
1.19618
1.18977
1.1828
1.1755
1.16817
1.16113
1.15473
1.14921
1.14467
1.14108
1.13839
1.13664
1.13585
1.13594
1.13668
1.13774
1.1388
1.13962
1.14011
1.14028
1.14022
1.14004
1.13982
1.13963
1.13949
1.1394
1.13934
1.1393
1.13926
1.13922
1.13917
1.13911
1.13904
1.13897
1.13889
1.13882
1.13874
1.13867
1.1386
1.13853
1.13847
1.13841
1.13835
1.1383
1.13825
1.1382
1.13815
1.13811
1.13806
1.13802
1.13798
1.13795
1.13791
1.13788
1.13785
1.13782
1.13779
1.13776
1.13773
1.1377
1.13768
1.13765
1.13763
1.1376
1.13758
1.13756
1.13754
1.13751
1.13749
1.13747
1.13745
1.13743
1.1374
1.13738
1.13736
1.13734
1.13732
1.1373
1.13728
1.13725
1.13723
1.13721
1.13719
1.13717
1.13714
1.13712
1.1371
1.13707
1.13705
1.13703
1.137
1.13698
1.13695
1.13693
1.1369
1.13688
1.13685
1.13682
1.1368
1.13677
1.13674
1.13671
1.13669
1.13666
1.13663
1.1366
1.13657
1.13654
1.13651
1.13648
1.13645
1.13642
1.13638
1.13635
1.13632
1.13629
1.13626
1.13622
1.13619
1.13616
1.13612
1.13609
1.13605
1.13602
1.13598
1.13595
1.13591
1.13588
1.13584
1.1358
1.13577
1.13573
1.13569
1.13566
1.13562
1.13558
1.13554
1.1355
1.13547
1.13543
1.13539
1.13535
1.13531
1.13527
1.13523
1.13519
1.13515
1.13511
1.13507
1.13503
1.13498
1.13494
1.1349
1.13486
1.13482
1.13477
1.13473
1.13469
1.13465
1.1346
1.13456
1.13452
1.13447
1.13443
1.13438
1.13434
1.1343
1.13425
1.13421
1.13416
1.13412
1.13407
1.13402
1.13398
1.13393
1.13389
1.13384
1.13379
1.13375
1.1337
1.13365
1.13361
1.13356
1.13351
1.13347
1.13342
1.13337
1.13332
1.13328
1.13323
1.13318
1.13313
1.13308
1.13303
1.13299
1.13294
1.13289
1.13284
1.13279
1.13274
1.13269
1.13264
1.1326
1.13255
1.1325
1.13245
1.1324
1.13235
1.1323
1.13225
1.1322
1.13215
1.1321
1.13204
1.132
1.13194
1.13191
1.13182
1.13182
1.1317
1.13174
1.13157
1.13169
1.1314
1.13165
1.13122
1.1316
1.13094
1.13189
1.12754
1.14255
1.24197
1.24052
1.23844
1.23592
1.23252
1.22891
1.22576
1.22313
1.22063
1.21783
1.21442
1.21024
1.20529
1.19968
1.19365
1.18755
1.18179
1.17663
1.17219
1.16848
1.16559
1.1637
1.16291
1.16316
1.16416
1.16549
1.16675
1.16765
1.16809
1.1681
1.16784
1.16745
1.16706
1.16673
1.1665
1.16635
1.16625
1.16618
1.16611
1.16603
1.16593
1.16582
1.1657
1.16557
1.16543
1.16529
1.16515
1.16502
1.16488
1.16475
1.16463
1.1645
1.16439
1.16427
1.16416
1.16405
1.16394
1.16384
1.16374
1.16364
1.16354
1.16345
1.16335
1.16326
1.16318
1.16309
1.163
1.16292
1.16284
1.16276
1.16268
1.1626
1.16252
1.16244
1.16237
1.16229
1.16222
1.16215
1.16207
1.162
1.16193
1.16186
1.16179
1.16172
1.16165
1.16158
1.16151
1.16144
1.16138
1.16131
1.16124
1.16117
1.1611
1.16104
1.16097
1.1609
1.16084
1.16077
1.1607
1.16064
1.16057
1.1605
1.16044
1.16037
1.1603
1.16024
1.16017
1.16011
1.16004
1.15997
1.15991
1.15984
1.15977
1.15971
1.15964
1.15958
1.15951
1.15944
1.15938
1.15931
1.15924
1.15918
1.15911
1.15904
1.15898
1.15891
1.15885
1.15878
1.15871
1.15865
1.15858
1.15851
1.15845
1.15838
1.15831
1.15825
1.15818
1.15811
1.15805
1.15798
1.15791
1.15785
1.15778
1.15771
1.15765
1.15758
1.15751
1.15745
1.15738
1.15731
1.15725
1.15718
1.15711
1.15705
1.15698
1.15691
1.15685
1.15678
1.15672
1.15665
1.15658
1.15652
1.15645
1.15638
1.15632
1.15625
1.15618
1.15612
1.15605
1.15598
1.15592
1.15585
1.15578
1.15572
1.15565
1.15559
1.15552
1.15545
1.15539
1.15532
1.15525
1.15519
1.15512
1.15506
1.15499
1.15492
1.15486
1.15479
1.15472
1.15466
1.15459
1.15453
1.15446
1.1544
1.15433
1.15426
1.1542
1.15413
1.15407
1.154
1.15394
1.15387
1.15381
1.15374
1.15368
1.15361
1.15355
1.15348
1.15342
1.15335
1.15329
1.15322
1.15316
1.1531
1.15303
1.15297
1.1529
1.15284
1.15278
1.15271
1.15265
1.15259
1.15252
1.15247
1.15239
1.15235
1.15225
1.15223
1.15211
1.15212
1.15196
1.15202
1.1518
1.15193
1.15163
1.15183
1.15132
1.15221
1.14873
1.15459
1.24181
1.2402
1.23826
1.23654
1.23484
1.23318
1.23189
1.2311
1.23064
1.23018
1.22937
1.22796
1.22573
1.22255
1.21846
1.21366
1.20856
1.20356
1.19891
1.19472
1.19106
1.18817
1.18633
1.18572
1.18628
1.18764
1.1893
1.19077
1.19172
1.19205
1.19186
1.19136
1.19074
1.19018
1.18975
1.18947
1.18931
1.18922
1.18915
1.18909
1.18901
1.1889
1.18877
1.18862
1.18845
1.18828
1.18811
1.18794
1.18777
1.1876
1.18743
1.18727
1.18711
1.18695
1.1868
1.18665
1.18651
1.18636
1.18622
1.18609
1.18595
1.18582
1.18569
1.18556
1.18543
1.18531
1.18519
1.18507
1.18495
1.18483
1.18471
1.1846
1.18448
1.18437
1.18426
1.18415
1.18404
1.18393
1.18382
1.18372
1.18361
1.1835
1.1834
1.18329
1.18319
1.18309
1.18298
1.18288
1.18278
1.18268
1.18258
1.18248
1.18238
1.18228
1.18218
1.18208
1.18198
1.18188
1.18178
1.18169
1.18159
1.18149
1.18139
1.1813
1.1812
1.1811
1.18101
1.18091
1.18081
1.18072
1.18062
1.18053
1.18043
1.18034
1.18024
1.18015
1.18005
1.17996
1.17986
1.17977
1.17967
1.17958
1.17948
1.17939
1.1793
1.1792
1.17911
1.17902
1.17893
1.17883
1.17874
1.17865
1.17855
1.17846
1.17837
1.17828
1.17819
1.1781
1.178
1.17791
1.17782
1.17773
1.17764
1.17755
1.17746
1.17737
1.17728
1.17719
1.1771
1.17701
1.17692
1.17683
1.17674
1.17665
1.17656
1.17647
1.17639
1.1763
1.17621
1.17612
1.17603
1.17595
1.17586
1.17577
1.17568
1.1756
1.17551
1.17542
1.17534
1.17525
1.17516
1.17508
1.17499
1.17491
1.17482
1.17473
1.17465
1.17456
1.17448
1.17439
1.17431
1.17423
1.17414
1.17406
1.17397
1.17389
1.17381
1.17372
1.17364
1.17356
1.17347
1.17339
1.17331
1.17323
1.17315
1.17306
1.17298
1.1729
1.17282
1.17274
1.17266
1.17258
1.1725
1.17242
1.17234
1.17226
1.17218
1.1721
1.17202
1.17194
1.17186
1.17178
1.17171
1.17163
1.17155
1.17147
1.1714
1.17132
1.17124
1.17117
1.17109
1.17102
1.17093
1.17087
1.17078
1.17072
1.17063
1.17058
1.17047
1.17044
1.17031
1.17031
1.17014
1.17017
1.16997
1.17005
1.16964
1.17028
1.16815
1.16986
1.24181
1.2401
1.23813
1.23639
1.23493
1.23384
1.23335
1.23353
1.23424
1.23521
1.23617
1.23686
1.23699
1.23626
1.23447
1.23161
1.22791
1.22381
1.21968
1.21568
1.21191
1.20852
1.20587
1.20432
1.2041
1.20512
1.20695
1.20897
1.2106
1.21152
1.21165
1.21117
1.21038
1.20954
1.20883
1.20834
1.20805
1.20791
1.20786
1.20784
1.20781
1.20775
1.20766
1.20753
1.20738
1.20721
1.20703
1.20685
1.20666
1.20648
1.2063
1.20612
1.20595
1.20578
1.20561
1.20545
1.20529
1.20513
1.20497
1.20482
1.20467
1.20452
1.20438
1.20424
1.20409
1.20395
1.20382
1.20368
1.20355
1.20341
1.20328
1.20315
1.20302
1.20289
1.20277
1.20264
1.20251
1.20239
1.20227
1.20214
1.20202
1.2019
1.20178
1.20166
1.20154
1.20142
1.2013
1.20118
1.20106
1.20094
1.20083
1.20071
1.20059
1.20048
1.20036
1.20025
1.20013
1.20002
1.1999
1.19979
1.19967
1.19956
1.19945
1.19933
1.19922
1.19911
1.19899
1.19888
1.19877
1.19865
1.19854
1.19843
1.19832
1.19821
1.1981
1.19798
1.19787
1.19776
1.19765
1.19754
1.19743
1.19732
1.19721
1.1971
1.19699
1.19688
1.19677
1.19666
1.19655
1.19644
1.19634
1.19623
1.19612
1.19601
1.1959
1.1958
1.19569
1.19558
1.19547
1.19537
1.19526
1.19515
1.19505
1.19494
1.19484
1.19473
1.19462
1.19452
1.19441
1.19431
1.1942
1.1941
1.194
1.19389
1.19379
1.19368
1.19358
1.19348
1.19338
1.19327
1.19317
1.19307
1.19297
1.19286
1.19276
1.19266
1.19256
1.19246
1.19236
1.19226
1.19216
1.19206
1.19196
1.19186
1.19176
1.19166
1.19156
1.19146
1.19136
1.19127
1.19117
1.19107
1.19097
1.19088
1.19078
1.19068
1.19059
1.19049
1.1904
1.1903
1.1902
1.19011
1.19002
1.18992
1.18983
1.18973
1.18964
1.18955
1.18945
1.18936
1.18927
1.18917
1.18908
1.18899
1.1889
1.18881
1.18872
1.18863
1.18854
1.18845
1.18836
1.18827
1.18818
1.18809
1.188
1.18792
1.18783
1.18774
1.18765
1.18757
1.18748
1.1874
1.18731
1.18723
1.18713
1.18706
1.18696
1.18689
1.18679
1.18673
1.18662
1.18657
1.18644
1.18641
1.18626
1.18627
1.18594
1.1863
1.18513
1.18538
1.24182
1.24008
1.2381
1.23634
1.23485
1.2338
1.23344
1.23386
1.2349
1.23633
1.23797
1.23962
1.24104
1.24192
1.24194
1.2409
1.23884
1.23608
1.23298
1.22981
1.22661
1.22346
1.22058
1.21843
1.21747
1.21794
1.21964
1.22202
1.22434
1.22599
1.22668
1.22646
1.22561
1.22451
1.22347
1.22267
1.22217
1.22192
1.22185
1.22186
1.22189
1.2219
1.22187
1.22179
1.22168
1.22154
1.22138
1.22121
1.22103
1.22085
1.22067
1.2205
1.22033
1.22016
1.22
1.21984
1.21968
1.21952
1.21937
1.21922
1.21908
1.21893
1.21879
1.21865
1.21851
1.21838
1.21824
1.21811
1.21798
1.21785
1.21772
1.21759
1.21747
1.21734
1.21722
1.21709
1.21697
1.21685
1.21673
1.21661
1.21649
1.21637
1.21625
1.21613
1.21601
1.2159
1.21578
1.21566
1.21554
1.21543
1.21531
1.2152
1.21508
1.21497
1.21485
1.21474
1.21462
1.21451
1.21439
1.21428
1.21416
1.21405
1.21393
1.21382
1.21371
1.21359
1.21348
1.21337
1.21325
1.21314
1.21303
1.21291
1.2128
1.21269
1.21257
1.21246
1.21235
1.21223
1.21212
1.21201
1.2119
1.21178
1.21167
1.21156
1.21145
1.21133
1.21122
1.21111
1.211
1.21088
1.21077
1.21066
1.21055
1.21044
1.21033
1.21022
1.2101
1.20999
1.20988
1.20977
1.20966
1.20955
1.20944
1.20933
1.20922
1.20911
1.209
1.20889
1.20878
1.20867
1.20856
1.20845
1.20834
1.20823
1.20813
1.20802
1.20791
1.2078
1.20769
1.20758
1.20748
1.20737
1.20726
1.20716
1.20705
1.20694
1.20684
1.20673
1.20662
1.20652
1.20641
1.20631
1.2062
1.2061
1.20599
1.20589
1.20578
1.20568
1.20557
1.20547
1.20537
1.20526
1.20516
1.20506
1.20495
1.20485
1.20475
1.20465
1.20455
1.20444
1.20434
1.20424
1.20414
1.20404
1.20394
1.20384
1.20374
1.20364
1.20354
1.20344
1.20334
1.20325
1.20315
1.20305
1.20295
1.20286
1.20276
1.20266
1.20257
1.20247
1.20238
1.20228
1.20218
1.20209
1.202
1.2019
1.20181
1.20172
1.20162
1.20153
1.20144
1.20135
1.20125
1.20116
1.20107
1.20098
1.20089
1.2008
1.20071
1.20063
1.20052
1.20045
1.20034
1.20027
1.20015
1.20012
1.19986
1.20001
1.19936
1.19925
1.24182
1.24007
1.23809
1.23632
1.23483
1.23378
1.23344
1.23389
1.23498
1.23648
1.23821
1.24004
1.24178
1.24314
1.24382
1.24363
1.24253
1.24074
1.23861
1.23639
1.23413
1.23175
1.22932
1.22721
1.22597
1.22606
1.22759
1.23016
1.23304
1.23542
1.23678
1.23697
1.23624
1.23499
1.23365
1.23253
1.23175
1.23132
1.23117
1.23118
1.23125
1.23133
1.23137
1.23136
1.23129
1.23119
1.23106
1.23091
1.23076
1.23059
1.23043
1.23027
1.23011
1.22996
1.2298
1.22965
1.22951
1.22937
1.22923
1.22909
1.22896
1.22883
1.2287
1.22858
1.22845
1.22833
1.22821
1.22809
1.22798
1.22786
1.22775
1.22763
1.22752
1.22741
1.2273
1.22719
1.22708
1.22698
1.22687
1.22676
1.22666
1.22655
1.22645
1.22634
1.22624
1.22614
1.22603
1.22593
1.22583
1.22572
1.22562
1.22552
1.22542
1.22531
1.22521
1.22511
1.22501
1.2249
1.2248
1.2247
1.2246
1.2245
1.22439
1.22429
1.22419
1.22409
1.22399
1.22388
1.22378
1.22368
1.22358
1.22347
1.22337
1.22327
1.22317
1.22306
1.22296
1.22286
1.22276
1.22265
1.22255
1.22245
1.22234
1.22224
1.22214
1.22203
1.22193
1.22183
1.22172
1.22162
1.22152
1.22141
1.22131
1.22121
1.2211
1.221
1.2209
1.22079
1.22069
1.22059
1.22048
1.22038
1.22028
1.22017
1.22007
1.21997
1.21986
1.21976
1.21965
1.21955
1.21945
1.21934
1.21924
1.21914
1.21904
1.21893
1.21883
1.21873
1.21862
1.21852
1.21842
1.21832
1.21821
1.21811
1.21801
1.21791
1.2178
1.2177
1.2176
1.2175
1.21739
1.21729
1.21719
1.21709
1.21699
1.21689
1.21678
1.21668
1.21658
1.21648
1.21638
1.21628
1.21618
1.21608
1.21598
1.21588
1.21578
1.21568
1.21558
1.21548
1.21538
1.21528
1.21518
1.21508
1.21498
1.21489
1.21479
1.21469
1.21459
1.21449
1.2144
1.2143
1.2142
1.2141
1.21401
1.21391
1.21381
1.21372
1.21362
1.21353
1.21343
1.21334
1.21324
1.21315
1.21305
1.21296
1.21286
1.21277
1.21268
1.21258
1.21249
1.2124
1.2123
1.21221
1.21212
1.21203
1.21194
1.21185
1.21176
1.21167
1.21157
1.21149
1.21139
1.21131
1.2112
1.21115
1.21095
1.21098
1.21057
1.21045
1.24182
1.24007
1.23809
1.23631
1.23482
1.23377
1.23344
1.23391
1.23501
1.23652
1.23826
1.2401
1.24187
1.24328
1.24402
1.24392
1.24299
1.24147
1.23969
1.23788
1.23611
1.23427
1.23236
1.23062
1.22956
1.22971
1.23131
1.23408
1.23734
1.24024
1.24211
1.24269
1.24215
1.24089
1.23939
1.23804
1.23705
1.23646
1.23622
1.23621
1.23631
1.23644
1.23654
1.23659
1.23658
1.23653
1.23644
1.23633
1.2362
1.23607
1.23593
1.23579
1.23566
1.23553
1.2354
1.23527
1.23515
1.23503
1.23492
1.23481
1.2347
1.23459
1.23448
1.23438
1.23428
1.23418
1.23408
1.23399
1.23389
1.2338
1.23371
1.23362
1.23353
1.23344
1.23335
1.23327
1.23318
1.23309
1.23301
1.23292
1.23284
1.23275
1.23267
1.23259
1.2325
1.23242
1.23233
1.23225
1.23217
1.23209
1.232
1.23192
1.23184
1.23175
1.23167
1.23159
1.2315
1.23142
1.23134
1.23125
1.23117
1.23108
1.231
1.23092
1.23083
1.23075
1.23066
1.23058
1.23049
1.23041
1.23032
1.23023
1.23015
1.23006
1.22998
1.22989
1.2298
1.22972
1.22963
1.22954
1.22946
1.22937
1.22928
1.22919
1.2291
1.22902
1.22893
1.22884
1.22875
1.22866
1.22857
1.22849
1.2284
1.22831
1.22822
1.22813
1.22804
1.22795
1.22786
1.22777
1.22768
1.22759
1.2275
1.22741
1.22732
1.22723
1.22714
1.22705
1.22696
1.22687
1.22678
1.22669
1.2266
1.2265
1.22641
1.22632
1.22623
1.22614
1.22605
1.22596
1.22587
1.22578
1.22568
1.22559
1.2255
1.22541
1.22532
1.22523
1.22514
1.22504
1.22495
1.22486
1.22477
1.22468
1.22459
1.22449
1.2244
1.22431
1.22422
1.22413
1.22404
1.22394
1.22385
1.22376
1.22367
1.22358
1.22349
1.22339
1.2233
1.22321
1.22312
1.22303
1.22294
1.22285
1.22276
1.22267
1.22257
1.22248
1.22239
1.2223
1.22221
1.22212
1.22203
1.22194
1.22185
1.22176
1.22167
1.22158
1.22149
1.2214
1.22131
1.22122
1.22113
1.22104
1.22095
1.22086
1.22077
1.22069
1.2206
1.22051
1.22042
1.22033
1.22024
1.22016
1.22007
1.21998
1.21989
1.21981
1.21972
1.21963
1.21955
1.21946
1.21937
1.21929
1.21919
1.21912
1.21898
1.21895
1.21868
1.21858
1.24181
1.24007
1.23808
1.23631
1.23481
1.23377
1.23344
1.23392
1.23503
1.23654
1.23829
1.24013
1.2419
1.24331
1.24404
1.24391
1.24296
1.24145
1.23971
1.23797
1.23626
1.23452
1.23273
1.23116
1.23027
1.23059
1.23234
1.23526
1.23869
1.24176
1.2438
1.24451
1.24403
1.24278
1.24124
1.23983
1.23877
1.23813
1.23785
1.23783
1.23795
1.23811
1.23825
1.23834
1.23837
1.23836
1.2383
1.23822
1.23812
1.23802
1.23791
1.2378
1.23769
1.23759
1.23749
1.23739
1.2373
1.23721
1.23712
1.23703
1.23695
1.23687
1.2368
1.23672
1.23665
1.23658
1.23651
1.23644
1.23638
1.23631
1.23625
1.23619
1.23612
1.23606
1.236
1.23594
1.23589
1.23583
1.23577
1.23571
1.23565
1.2356
1.23554
1.23548
1.23542
1.23537
1.23531
1.23525
1.2352
1.23514
1.23508
1.23502
1.23497
1.23491
1.23485
1.23479
1.23473
1.23467
1.23461
1.23455
1.23449
1.23443
1.23437
1.23431
1.23425
1.23419
1.23413
1.23406
1.234
1.23394
1.23387
1.23381
1.23375
1.23368
1.23362
1.23355
1.23349
1.23342
1.23335
1.23329
1.23322
1.23315
1.23308
1.23302
1.23295
1.23288
1.23281
1.23274
1.23267
1.2326
1.23253
1.23246
1.23239
1.23232
1.23225
1.23218
1.23211
1.23204
1.23196
1.23189
1.23182
1.23175
1.23167
1.2316
1.23153
1.23145
1.23138
1.2313
1.23123
1.23116
1.23108
1.23101
1.23093
1.23086
1.23078
1.2307
1.23063
1.23055
1.23048
1.2304
1.23032
1.23025
1.23017
1.23009
1.23001
1.22994
1.22986
1.22978
1.2297
1.22963
1.22955
1.22947
1.22939
1.22931
1.22923
1.22916
1.22908
1.229
1.22892
1.22884
1.22876
1.22868
1.2286
1.22852
1.22844
1.22836
1.22828
1.2282
1.22812
1.22804
1.22796
1.22788
1.2278
1.22772
1.22764
1.22756
1.22748
1.2274
1.22732
1.22724
1.22716
1.22708
1.227
1.22692
1.22684
1.22676
1.22667
1.22659
1.22651
1.22643
1.22635
1.22627
1.22619
1.22611
1.22603
1.22595
1.22587
1.22579
1.22571
1.22563
1.22555
1.22547
1.22539
1.2253
1.22522
1.22514
1.22506
1.22498
1.2249
1.22482
1.22474
1.22466
1.22458
1.2245
1.22442
1.22435
1.22424
1.22418
1.224
1.22393
1.24181
1.24007
1.23809
1.23631
1.23481
1.23377
1.23344
1.23392
1.23503
1.23654
1.23829
1.24014
1.24191
1.24331
1.24404
1.24391
1.24295
1.24144
1.2397
1.23796
1.23625
1.2345
1.23272
1.23117
1.23032
1.23068
1.23248
1.23545
1.23891
1.242
1.24403
1.24474
1.24426
1.243
1.24145
1.24003
1.23897
1.23833
1.23806
1.23804
1.23816
1.23833
1.23847
1.23857
1.23861
1.23861
1.23856
1.23849
1.2384
1.23831
1.23821
1.23811
1.23801
1.23791
1.23782
1.23773
1.23765
1.23757
1.23749
1.23742
1.23734
1.23728
1.23721
1.23715
1.23709
1.23703
1.23697
1.23691
1.23686
1.23681
1.23676
1.23671
1.23666
1.23661
1.23656
1.23652
1.23647
1.23643
1.23638
1.23634
1.23629
1.23625
1.23621
1.23616
1.23612
1.23608
1.23604
1.23599
1.23595
1.23591
1.23587
1.23582
1.23578
1.23574
1.2357
1.23565
1.23561
1.23557
1.23552
1.23548
1.23543
1.23539
1.23534
1.2353
1.23525
1.23521
1.23516
1.23512
1.23507
1.23502
1.23498
1.23493
1.23488
1.23483
1.23478
1.23473
1.23468
1.23464
1.23459
1.23454
1.23448
1.23443
1.23438
1.23433
1.23428
1.23423
1.23417
1.23412
1.23407
1.23402
1.23396
1.23391
1.23385
1.2338
1.23374
1.23369
1.23363
1.23358
1.23352
1.23346
1.23341
1.23335
1.23329
1.23323
1.23318
1.23312
1.23306
1.233
1.23294
1.23288
1.23282
1.23276
1.2327
1.23264
1.23258
1.23252
1.23246
1.2324
1.23233
1.23227
1.23221
1.23215
1.23208
1.23202
1.23196
1.23189
1.23183
1.23177
1.2317
1.23164
1.23157
1.23151
1.23144
1.23138
1.23131
1.23125
1.23118
1.23112
1.23105
1.23098
1.23092
1.23085
1.23078
1.23071
1.23065
1.23058
1.23051
1.23044
1.23038
1.23031
1.23024
1.23017
1.2301
1.23003
1.22996
1.22989
1.22983
1.22976
1.22969
1.22962
1.22955
1.22948
1.22941
1.22934
1.22927
1.2292
1.22912
1.22905
1.22898
1.22891
1.22884
1.22877
1.2287
1.22863
1.22856
1.22849
1.22841
1.22834
1.22827
1.2282
1.22813
1.22806
1.22798
1.22791
1.22784
1.22777
1.2277
1.22762
1.22755
1.22748
1.22741
1.22734
1.22727
1.22719
1.22712
1.22705
1.22696
1.2269
1.22678
1.22673
1.24181
1.24007
1.23809
1.23631
1.23482
1.23377
1.23344
1.23391
1.23502
1.23653
1.23827
1.24012
1.24189
1.2433
1.24404
1.24392
1.24297
1.24147
1.23973
1.23799
1.23628
1.23453
1.23275
1.2312
1.23036
1.23074
1.23255
1.23553
1.23896
1.24202
1.24402
1.24469
1.24418
1.24291
1.24138
1.23999
1.23895
1.23833
1.23808
1.23807
1.2382
1.23836
1.2385
1.2386
1.23863
1.23862
1.23858
1.2385
1.23841
1.23832
1.23822
1.23812
1.23802
1.23793
1.23784
1.23775
1.23767
1.23759
1.23752
1.23744
1.23737
1.23731
1.23724
1.23718
1.23712
1.23707
1.23701
1.23696
1.2369
1.23685
1.2368
1.23676
1.23671
1.23666
1.23662
1.23657
1.23653
1.23649
1.23645
1.2364
1.23636
1.23632
1.23628
1.23624
1.2362
1.23616
1.23612
1.23608
1.23604
1.236
1.23596
1.23592
1.23588
1.23584
1.2358
1.23576
1.23572
1.23568
1.23564
1.2356
1.23556
1.23552
1.23548
1.23543
1.23539
1.23535
1.23531
1.23526
1.23522
1.23518
1.23513
1.23509
1.23505
1.235
1.23496
1.23491
1.23487
1.23482
1.23478
1.23473
1.23468
1.23464
1.23459
1.23454
1.2345
1.23445
1.2344
1.23435
1.2343
1.23426
1.23421
1.23416
1.23411
1.23406
1.23401
1.23396
1.23391
1.23386
1.23381
1.23375
1.2337
1.23365
1.2336
1.23355
1.23349
1.23344
1.23339
1.23333
1.23328
1.23323
1.23317
1.23312
1.23306
1.23301
1.23295
1.2329
1.23284
1.23279
1.23273
1.23267
1.23262
1.23256
1.2325
1.23245
1.23239
1.23233
1.23227
1.23221
1.23216
1.2321
1.23204
1.23198
1.23192
1.23186
1.2318
1.23174
1.23168
1.23162
1.23156
1.2315
1.23144
1.23138
1.23132
1.23126
1.23119
1.23113
1.23107
1.23101
1.23095
1.23088
1.23082
1.23076
1.2307
1.23063
1.23057
1.23051
1.23044
1.23038
1.23031
1.23025
1.23019
1.23012
1.23006
1.22999
1.22993
1.22986
1.2298
1.22973
1.22967
1.2296
1.22954
1.22947
1.22941
1.22934
1.22927
1.22921
1.22914
1.22908
1.22901
1.22894
1.22888
1.22881
1.22874
1.22868
1.22861
1.22854
1.22848
1.22841
1.22834
1.22827
1.22821
1.22814
1.22807
1.228
1.22794
1.22787
1.22779
1.22773
1.22765
1.2276
1.24181
1.24008
1.2381
1.23633
1.23483
1.23378
1.23344
1.2339
1.235
1.2365
1.23824
1.24007
1.24184
1.24326
1.24403
1.24393
1.24301
1.24151
1.23976
1.23799
1.23624
1.23446
1.23272
1.2313
1.2307
1.23134
1.23333
1.23632
1.23958
1.24231
1.24394
1.24431
1.24364
1.24235
1.24091
1.23967
1.23879
1.23831
1.23814
1.23817
1.2383
1.23845
1.23857
1.23863
1.23865
1.23862
1.23857
1.23849
1.2384
1.2383
1.2382
1.23811
1.23801
1.23792
1.23784
1.23775
1.23768
1.2376
1.23753
1.23746
1.23739
1.23733
1.23726
1.2372
1.23715
1.23709
1.23704
1.23698
1.23693
1.23689
1.23684
1.23679
1.23674
1.2367
1.23666
1.23661
1.23657
1.23653
1.23649
1.23644
1.2364
1.23636
1.23632
1.23628
1.23624
1.2362
1.23616
1.23612
1.23608
1.23604
1.23601
1.23597
1.23593
1.23589
1.23585
1.23581
1.23577
1.23573
1.23568
1.23564
1.2356
1.23556
1.23552
1.23548
1.23544
1.23539
1.23535
1.23531
1.23527
1.23522
1.23518
1.23514
1.23509
1.23505
1.23501
1.23496
1.23492
1.23487
1.23483
1.23478
1.23473
1.23469
1.23464
1.23459
1.23455
1.2345
1.23445
1.2344
1.23436
1.23431
1.23426
1.23421
1.23416
1.23411
1.23406
1.23401
1.23396
1.23391
1.23386
1.23381
1.23376
1.23371
1.23366
1.23361
1.23355
1.2335
1.23345
1.2334
1.23334
1.23329
1.23324
1.23318
1.23313
1.23308
1.23302
1.23297
1.23291
1.23286
1.2328
1.23275
1.23269
1.23264
1.23258
1.23253
1.23247
1.23241
1.23236
1.2323
1.23224
1.23218
1.23213
1.23207
1.23201
1.23195
1.2319
1.23184
1.23178
1.23172
1.23166
1.2316
1.23154
1.23148
1.23142
1.23136
1.2313
1.23124
1.23118
1.23112
1.23106
1.231
1.23094
1.23088
1.23082
1.23075
1.23069
1.23063
1.23057
1.23051
1.23044
1.23038
1.23032
1.23026
1.23019
1.23013
1.23007
1.23001
1.22994
1.22988
1.22981
1.22975
1.22969
1.22962
1.22956
1.2295
1.22943
1.22937
1.2293
1.22924
1.22917
1.22911
1.22904
1.22898
1.22891
1.22885
1.22878
1.22872
1.22865
1.22859
1.22852
1.22846
1.22839
1.22832
1.22826
1.22819
1.22813
1.22806
1.22799
1.22793
1.22785
1.2278
1.24181
1.24008
1.23811
1.23634
1.23485
1.2338
1.23344
1.23388
1.23496
1.23645
1.23819
1.24005
1.24183
1.24324
1.24396
1.2438
1.24281
1.24125
1.23943
1.23758
1.23578
1.23408
1.23264
1.23176
1.2318
1.23299
1.23522
1.23801
1.2407
1.24266
1.24356
1.24342
1.24253
1.24131
1.24011
1.23918
1.23858
1.2383
1.23825
1.23833
1.23845
1.23856
1.23863
1.23866
1.23864
1.23859
1.23852
1.23844
1.23835
1.23826
1.23816
1.23807
1.23799
1.2379
1.23782
1.23774
1.23767
1.2376
1.23753
1.23746
1.2374
1.23734
1.23728
1.23722
1.23717
1.23712
1.23706
1.23701
1.23697
1.23692
1.23687
1.23683
1.23678
1.23674
1.23669
1.23665
1.23661
1.23657
1.23653
1.23649
1.23645
1.23641
1.23637
1.23633
1.23629
1.23625
1.23621
1.23617