/*--------------------------------*- C++ -*----------------------------------*\
  =========                 |
  \\      /  F ield         | OpenFOAM: The Open Source CFD Toolbox
   \\    /   O peration     | Website:  https://openfoam.org
    \\  /    A nd           | Version:  7
     \\/     M anipulation  |
\*---------------------------------------------------------------------------*/
FoamFile
{
    version     2.0;
    format      ascii;
    class       volScalarField;
    location    "0.9625";
    object      k;
}
// * * * * * * * * * * * * * * * * * * * * * * * * * * * * * * * * * * * * * //

dimensions      [0 2 -2 0 0 0 0];

internalField   nonuniform List<scalar> 
7920
(
52.0457
56.5073
56.528
56.5643
56.4807
56.4893
56.4354
56.4555
56.4267
56.4517
56.4345
56.4556
56.4406
56.4528
56.437
56.4388
56.4323
56.4056
56.4802
56.6007
13.8448
14.0145
13.4381
12.8847
12.6206
12.5198
12.4343
12.4115
12.3694
12.3637
12.3394
12.3375
12.32
12.3181
12.3062
12.3037
12.2966
12.2884
12.4597
12.4707
8.08591
9.22403
9.33958
9.32203
9.27827
9.26797
9.24454
9.24288
9.2303
9.23149
9.22437
9.22748
9.22271
9.22474
9.21977
9.21923
9.21351
9.20951
9.21223
9.23477
7.48286
8.75486
9.00435
9.09215
9.11213
9.1443
9.15033
9.1706
9.17459
9.1902
9.19433
9.20946
9.21461
9.2283
9.23158
9.24041
9.24089
9.2449
9.24521
9.26728
7.41788
8.70106
8.96345
9.06718
9.1004
9.146
9.16205
9.19643
9.20877
9.23634
9.24739
9.27298
9.28477
9.30925
9.31912
9.33842
9.34448
9.35732
9.3617
9.38827
7.42479
8.69755
8.95826
9.06345
9.10039
9.1507
9.17163
9.21208
9.22895
9.26299
9.27812
9.30951
9.32562
9.35563
9.37002
9.39503
9.405
9.42314
9.43183
9.46053
7.42479
8.69755
8.95826
9.06345
9.10039
9.1507
9.17162
9.21208
9.22895
9.263
9.27811
9.30953
9.32559
9.35568
9.36998
9.39509
9.40498
9.42321
9.4319
9.46058
7.41788
8.70106
8.96345
9.06719
9.10039
9.14601
9.16204
9.19644
9.20876
9.23637
9.24736
9.27304
9.2847
9.30937
9.31902
9.33861
9.34441
9.35752
9.36175
9.38849
7.48286
8.75486
9.00435
9.09216
9.11212
9.14431
9.15032
9.17061
9.17457
9.19024
9.19428
9.20957
9.2145
9.22854
9.23134
9.2408
9.24035
9.24578
9.24456
9.26805
8.08591
9.22404
9.33958
9.32203
9.27827
9.26798
9.24453
9.24289
9.23028
9.23153
9.2243
9.22759
9.22252
9.22506
9.21917
9.21995
9.212
9.21213
9.20986
9.2377
13.8448
14.0145
13.4381
12.8847
12.6206
12.5198
12.4342
12.4115
12.3694
12.3638
12.3393
12.3376
12.3198
12.3183
12.3056
12.3045
12.2948
12.2917
12.4517
12.4789
52.0457
56.5073
56.528
56.5643
56.4807
56.4893
56.4354
56.4555
56.4266
56.4518
56.4344
56.4558
56.44
56.4537
56.4353
56.4417
56.4268
56.4156
56.4599
56.6404
7.67805
9.67756
9.76208
9.63359
9.59798
9.52647
9.52423
9.48445
9.48728
9.46076
9.46471
9.44537
9.44858
9.43329
9.43566
9.42222
9.42597
9.40932
9.41226
9.45914
6.0207
8.2491
8.5878
8.62959
8.63262
8.63226
8.63129
8.63154
8.63183
8.63256
8.63323
8.63315
8.63293
8.63117
8.63004
8.62667
8.62481
8.62035
8.62383
8.62856
5.70239
7.90278
8.25104
8.31775
8.32549
8.34052
8.3455
8.3585
8.36463
8.37717
8.38433
8.39553
8.40219
8.40959
8.41403
8.41675
8.41927
8.41743
8.41784
8.44511
5.69378
7.89344
8.23774
8.30058
8.30111
8.30694
8.3063
8.31256
8.31516
8.32351
8.32882
8.33969
8.34749
8.35708
8.36396
8.36914
8.37406
8.37449
8.37665
8.39442
5.68201
7.87781
8.22189
8.28626
8.28589
8.29023
8.28732
8.29166
8.29143
8.29642
8.299
8.30736
8.31328
8.32314
8.32886
8.33578
8.33889
8.34288
8.34348
8.36428
5.68837
7.88585
8.22896
8.29277
8.29223
8.29647
8.29336
8.29751
8.29677
8.30109
8.30269
8.30993
8.31489
8.32463
8.32968
8.33697
8.3394
8.34397
8.34375
8.36409
5.68837
7.88585
8.22896
8.29277
8.29223
8.29647
8.29336
8.29752
8.29677
8.3011
8.30269
8.30994
8.31486
8.32466
8.32964
8.33701
8.33938
8.34397
8.34377
8.36404
5.68201
7.87781
8.22189
8.28626
8.28589
8.29023
8.28731
8.29167
8.29142
8.29644
8.29898
8.30742
8.31315
8.3233
8.32866
8.33601
8.33864
8.34308
8.34337
8.36424
5.69377
7.89344
8.23774
8.30059
8.3011
8.30694
8.30629
8.31257
8.31514
8.32355
8.32874
8.33983
8.34724
8.35744
8.36344
8.36981
8.37324
8.37525
8.37607
8.3947
5.70239
7.90278
8.25104
8.31775
8.32548
8.34053
8.34549
8.35852
8.3646
8.37722
8.38423
8.39569
8.4019
8.41006
8.41327
8.41782
8.4179
8.41925
8.41515
8.44725
6.0207
8.2491
8.5878
8.62959
8.63262
8.63226
8.63129
8.63155
8.63181
8.63259
8.63318
8.63321
8.63283
8.63141
8.62958
8.62753
8.62317
8.62282
8.61982
8.63473
7.67805
9.67756
9.76208
9.63359
9.59798
9.52647
9.52422
9.48446
9.48727
9.46077
9.4647
9.4454
9.44854
9.43341
9.43553
9.4226
9.42547
9.41067
9.41027
9.46423
0.477305
1.03755
1.13732
1.10915
1.03724
0.971695
0.920824
0.88513
0.859009
0.83912
0.824813
0.811954
0.803143
0.793758
0.787899
0.780883
0.776336
0.772733
0.764974
0.77429
0.0861055
0.382537
0.526723
0.588859
0.611018
0.625022
0.63213
0.639965
0.644034
0.648369
0.650002
0.651797
0.652017
0.652298
0.651969
0.651718
0.650934
0.6504
0.649587
0.652133
0.0644149
0.299992
0.416255
0.474488
0.492933
0.506598
0.509862
0.516517
0.518959
0.524208
0.526915
0.531538
0.534374
0.538094
0.540854
0.543718
0.54628
0.54846
0.550108
0.55431
0.0683118
0.303683
0.417462
0.473169
0.49114
0.502514
0.504284
0.507492
0.50779
0.509128
0.509643
0.511014
0.511839
0.513058
0.514244
0.515073
0.516554
0.517165
0.518329
0.521421
0.0664767
0.299678
0.412327
0.468001
0.485526
0.49685
0.498325
0.501285
0.501214
0.501917
0.501887
0.502399
0.502529
0.502932
0.503138
0.503312
0.503582
0.503607
0.50376
0.505713
0.067507
0.301916
0.414958
0.470413
0.488087
0.499286
0.500915
0.50379
0.503754
0.504397
0.504357
0.504779
0.504851
0.505132
0.505213
0.505249
0.505288
0.505164
0.505149
0.506838
0.0675069
0.301916
0.414958
0.470413
0.488087
0.499286
0.500915
0.50379
0.503754
0.504398
0.504357
0.50478
0.50485
0.505133
0.505212
0.50525
0.505288
0.505166
0.505144
0.506834
0.0664766
0.299678
0.412327
0.468001
0.485525
0.49685
0.498325
0.501285
0.501214
0.501917
0.501887
0.5024
0.502528
0.502935
0.503131
0.503314
0.503578
0.503605
0.503758
0.505702
0.0683115
0.303683
0.417462
0.473169
0.491139
0.502514
0.504283
0.507492
0.50779
0.509129
0.509641
0.511021
0.511824
0.513073
0.514222
0.515089
0.516527
0.517161
0.518303
0.521367
0.0644147
0.299992
0.416255
0.474489
0.492932
0.506599
0.509862
0.516517
0.518958
0.524212
0.526905
0.53155
0.534351
0.538119
0.540803
0.543756
0.546202
0.548472
0.550053
0.554202
0.0861054
0.382537
0.526722
0.58886
0.611017
0.625023
0.632128
0.639968
0.644029
0.648375
0.649991
0.651806
0.651996
0.65231
0.651917
0.651736
0.650821
0.650463
0.649429
0.652126
0.477305
1.03755
1.13732
1.10915
1.03724
0.971696
0.920824
0.885133
0.859008
0.839129
0.824811
0.811979
0.803141
0.793821
0.787901
0.781044
0.77634
0.773091
0.765054
0.775296
0.477305
1.03755
1.13732
1.10915
1.03724
0.971695
0.920824
0.88513
0.859009
0.839119
0.824812
0.811954
0.803143
0.793758
0.787899
0.780883
0.776336
0.772733
0.764974
0.77429
0.0861055
0.382537
0.526723
0.588859
0.611018
0.625022
0.63213
0.639965
0.644034
0.648369
0.650002
0.651797
0.652017
0.652298
0.651969
0.651718
0.650935
0.6504
0.649587
0.652133
0.0644149
0.299992
0.416255
0.474488
0.492933
0.506598
0.509862
0.516517
0.518959
0.524208
0.526915
0.531538
0.534374
0.538094
0.540854
0.543718
0.54628
0.54846
0.550109
0.55431
0.0683117
0.303683
0.417462
0.473169
0.49114
0.502514
0.504284
0.507492
0.50779
0.509128
0.509643
0.511014
0.511839
0.513058
0.514244
0.515073
0.516554
0.517165
0.518329
0.521421
0.0664767
0.299678
0.412327
0.468001
0.485526
0.49685
0.498325
0.501285
0.501214
0.501917
0.501887
0.502399
0.502529
0.502932
0.503138
0.503312
0.503582
0.503607
0.50376
0.505713
0.067507
0.301916
0.414958
0.470413
0.488087
0.499286
0.500915
0.50379
0.503754
0.504398
0.504357
0.504779
0.504851
0.505132
0.505213
0.505249
0.505288
0.505164
0.505149
0.506838
0.0675069
0.301916
0.414958
0.470413
0.488087
0.499286
0.500915
0.50379
0.503754
0.504398
0.504357
0.50478
0.50485
0.505133
0.505212
0.50525
0.505288
0.505166
0.505145
0.506834
0.0664766
0.299678
0.412327
0.468001
0.485525
0.49685
0.498325
0.501285
0.501214
0.501917
0.501887
0.502401
0.502528
0.502935
0.503132
0.503314
0.503578
0.503605
0.503758
0.505702
0.0683115
0.303683
0.417462
0.473169
0.49114
0.502514
0.504283
0.507492
0.50779
0.509129
0.509641
0.511021
0.511824
0.513073
0.514222
0.515089
0.516527
0.517161
0.518303
0.521367
0.0644147
0.299992
0.416255
0.474489
0.492932
0.506599
0.509862
0.516517
0.518958
0.524212
0.526905
0.53155
0.534351
0.538119
0.540803
0.543756
0.546202
0.548472
0.550053
0.554201
0.0861054
0.382537
0.526722
0.58886
0.611017
0.625023
0.632128
0.639968
0.644029
0.648375
0.649991
0.651806
0.651996
0.65231
0.651917
0.651736
0.650821
0.650462
0.649429
0.652125
0.477305
1.03755
1.13732
1.10915
1.03724
0.971696
0.920824
0.885133
0.859008
0.839129
0.824811
0.811979
0.80314
0.793821
0.7879
0.781044
0.77634
0.773091
0.765054
0.775296
7.67805
9.67756
9.76208
9.63359
9.59798
9.52647
9.52423
9.48445
9.48727
9.46075
9.46471
9.44536
9.44857
9.43329
9.43566
9.42222
9.42598
9.40932
9.41226
9.45914
6.0207
8.2491
8.5878
8.62959
8.63262
8.63226
8.63129
8.63154
8.63183
8.63256
8.63323
8.63315
8.63292
8.63117
8.63004
8.62667
8.62481
8.62035
8.62383
8.62857
5.70239
7.90278
8.25104
8.31775
8.32549
8.34052
8.3455
8.3585
8.36463
8.37717
8.38433
8.39552
8.40219
8.40959
8.41402
8.41675
8.41927
8.41743
8.41784
8.44511
5.69378
7.89344
8.23774
8.30058
8.30111
8.30694
8.3063
8.31256
8.31516
8.32351
8.32882
8.33969
8.34749
8.35708
8.36396
8.36914
8.37406
8.37449
8.37665
8.39442
5.68201
7.87781
8.22189
8.28626
8.28589
8.29023
8.28732
8.29166
8.29143
8.29642
8.299
8.30736
8.31328
8.32314
8.32886
8.33578
8.33889
8.34288
8.34348
8.36428
5.68837
7.88585
8.22896
8.29277
8.29223
8.29647
8.29336
8.29751
8.29677
8.30109
8.30269
8.30993
8.31489
8.32463
8.32968
8.33697
8.3394
8.34397
8.34375
8.36409
5.68837
7.88585
8.22896
8.29277
8.29223
8.29647
8.29336
8.29752
8.29677
8.3011
8.30269
8.30994
8.31486
8.32467
8.32964
8.33701
8.33938
8.34397
8.34377
8.36404
5.68201
7.87781
8.22189
8.28626
8.28589
8.29023
8.28731
8.29167
8.29142
8.29644
8.29898
8.30742
8.31316
8.3233
8.32866
8.33601
8.33865
8.34308
8.34337
8.36424
5.69377
7.89344
8.23774
8.30059
8.3011
8.30694
8.30629
8.31257
8.31514
8.32355
8.32874
8.33983
8.34724
8.35744
8.36344
8.36981
8.37324
8.37525
8.37607
8.3947
5.70239
7.90278
8.25104
8.31775
8.32548
8.34053
8.34549
8.35852
8.3646
8.37722
8.38423
8.3957
8.4019
8.41006
8.41327
8.41782
8.4179
8.41925
8.41515
8.44724
6.0207
8.2491
8.5878
8.62959
8.63262
8.63226
8.63129
8.63155
8.63181
8.63259
8.63319
8.63321
8.63283
8.63141
8.62958
8.62753
8.62317
8.62282
8.61981
8.63473
7.67805
9.67756
9.76208
9.63359
9.59798
9.52647
9.52423
9.48446
9.48727
9.46077
9.4647
9.44541
9.44854
9.43341
9.43553
9.4226
9.42547
9.41067
9.41027
9.46423
52.0457
56.5073
56.528
56.5643
56.4807
56.4893
56.4354
56.4555
56.4267
56.4517
56.4345
56.4556
56.4405
56.4528
56.437
56.4388
56.4323
56.4056
56.4802
56.6007
13.8448
14.0145
13.4381
12.8847
12.6206
12.5198
12.4343
12.4115
12.3694
12.3637
12.3394
12.3375
12.32
12.3181
12.3062
12.3037
12.2966
12.2884
12.4597
12.4707
8.08591
9.22403
9.33958
9.32203
9.27827
9.26797
9.24454
9.24288
9.2303
9.23149
9.22437
9.22748
9.22271
9.22474
9.21977
9.21923
9.21351
9.20951
9.21223
9.23478
7.48286
8.75486
9.00435
9.09215
9.11213
9.1443
9.15033
9.1706
9.17459
9.1902
9.19433
9.20946
9.21461
9.2283
9.23158
9.24041
9.24089
9.2449
9.24521
9.26728
7.41788
8.70106
8.96345
9.06718
9.1004
9.146
9.16205
9.19643
9.20877
9.23634
9.24739
9.27298
9.28477
9.30925
9.31912
9.33842
9.34448
9.35732
9.3617
9.38827
7.42479
8.69755
8.95826
9.06345
9.10039
9.1507
9.17163
9.21208
9.22895
9.26299
9.27812
9.30951
9.32562
9.35563
9.37002
9.39503
9.405
9.42314
9.43183
9.46053
7.42479
8.69755
8.95826
9.06345
9.10039
9.1507
9.17162
9.21208
9.22895
9.263
9.27811
9.30953
9.32559
9.35568
9.36999
9.39509
9.40498
9.42321
9.4319
9.46058
7.41788
8.70106
8.96345
9.06719
9.10039
9.14601
9.16204
9.19644
9.20876
9.23637
9.24736
9.27304
9.2847
9.30937
9.31902
9.33861
9.34441
9.35752
9.36175
9.38849
7.48286
8.75486
9.00435
9.09216
9.11212
9.14431
9.15032
9.17061
9.17457
9.19024
9.19428
9.20957
9.2145
9.22855
9.23134
9.2408
9.24035
9.24578
9.24456
9.26804
8.08591
9.22404
9.33958
9.32203
9.27827
9.26798
9.24453
9.24289
9.23028
9.23153
9.2243
9.2276
9.22252
9.22506
9.21917
9.21996
9.212
9.21212
9.20986
9.2377
13.8448
14.0145
13.4381
12.8847
12.6206
12.5198
12.4342
12.4115
12.3694
12.3638
12.3393
12.3376
12.3198
12.3183
12.3056
12.3045
12.2948
12.2917
12.4517
12.4789
52.0457
56.5073
56.528
56.5643
56.4807
56.4893
56.4354
56.4555
56.4267
56.4518
56.4344
56.4559
56.4401
56.4537
56.4353
56.4417
56.4268
56.4156
56.4599
56.6404
143.972
146.128
147.236
148.108
148.716
149.252
149.686
150.124
150.483
150.808
151.032
151.209
151.308
151.385
151.417
151.448
151.455
151.468
151.468
151.476
151.474
151.481
151.479
151.485
151.483
151.489
151.488
151.493
151.492
151.498
151.497
151.502
151.501
151.506
151.506
151.511
151.511
151.515
151.515
151.52
151.52
151.524
151.525
151.529
151.53
151.534
151.535
151.539
151.539
151.543
151.544
151.548
151.549
151.553
151.554
151.558
151.559
151.563
151.564
151.567
151.568
151.571
151.572
151.576
151.577
151.58
151.581
151.584
151.585
151.588
151.59
151.593
151.594
151.597
151.599
151.602
151.603
151.607
151.608
151.611
151.614
151.616
151.62
151.619
151.628
151.621
151.634
151.628
151.603
151.588
47.2657
49.0619
49.4174
49.7244
49.9073
50.102
50.2311
50.3922
50.5021
50.6265
50.6952
50.7698
50.7986
50.8384
50.8459
50.8689
50.8688
50.8853
50.8836
50.8978
50.8964
50.9098
50.9091
50.922
50.922
50.9346
50.9352
50.9474
50.9486
50.9606
50.9623
50.974
50.9761
50.9876
50.9902
51.0015
51.0044
51.0156
51.0188
51.0299
51.0334
51.0443
51.0481
51.0588
51.0628
51.0734
51.0776
51.088
51.0923
51.1025
51.1069
51.1169
51.1213
51.1311
51.1355
51.1449
51.1493
51.1584
51.1626
51.1713
51.1753
51.1837
51.1874
51.1954
51.1988
51.2063
51.2095
51.2165
51.2194
51.226
51.2285
51.2347
51.2369
51.2427
51.2446
51.2499
51.2516
51.2565
51.258
51.2624
51.2638
51.2674
51.2694
51.2715
51.2747
51.2746
51.2784
51.2792
51.2649
51.2557
30.517
32.5713
32.796
33.0169
33.1243
33.2681
33.3323
33.4478
33.5092
33.6118
33.6578
33.7312
33.7528
33.7998
33.8065
33.8385
33.8399
33.8658
33.8664
33.89
33.8914
33.9141
33.9165
33.9388
33.9422
33.9642
33.9685
33.9901
33.9952
34.0165
34.0224
34.0434
34.0499
34.0707
34.0777
34.0984
34.1059
34.1263
34.1343
34.1545
34.1629
34.1828
34.1916
34.2113
34.2203
34.2398
34.2491
34.2682
34.2777
34.2965
34.3062
34.3246
34.3342
34.3522
34.3618
34.3793
34.3888
34.4058
34.415
34.4314
34.4403
34.456
34.4646
34.4796
34.4877
34.5021
34.5096
34.5232
34.5302
34.543
34.5494
34.5614
34.5672
34.5785
34.5836
34.5941
34.5987
34.6083
34.6123
34.6211
34.6247
34.6323
34.6357
34.642
34.6455
34.6502
34.6532
34.6579
34.6566
34.6367
28.3214
30.7565
30.9733
31.1863
31.2837
31.4245
31.4674
31.5686
31.6153
31.7203
31.7676
31.8543
31.8814
31.9406
31.9514
31.9926
31.9969
32.0301
32.0331
32.0634
32.0672
32.0965
32.1015
32.1304
32.1366
32.1652
32.1725
32.2007
32.2089
32.2369
32.246
32.2737
32.2835
32.311
32.3214
32.3486
32.3596
32.3866
32.3982
32.4249
32.4368
32.4633
32.4756
32.5017
32.5144
32.5402
32.5532
32.5784
32.5916
32.6164
32.6297
32.6539
32.6673
32.6909
32.7041
32.7271
32.74
32.7623
32.7749
32.7964
32.8085
32.8291
32.8407
32.8605
32.8714
32.8902
32.9004
32.9182
32.9277
32.9445
32.9532
32.969
32.9769
32.9916
32.9987
33.0124
33.0187
33.0314
33.037
33.0485
33.0535
33.0638
33.0684
33.0771
33.0814
33.0889
33.0922
33.099
33.1029
33.0793
28.184
30.8453
31.0604
31.2706
31.3623
31.5036
31.5311
31.6179
31.6519
31.7542
31.8023
31.8983
31.93
31.9985
32.0127
32.0606
32.067
32.1052
32.1098
32.1445
32.1498
32.1833
32.19
32.2231
32.231
32.2638
32.2729
32.3055
32.3156
32.3479
32.359
32.391
32.4029
32.4346
32.4472
32.4787
32.492
32.5231
32.537
32.5678
32.5821
32.6127
32.6274
32.6576
32.6727
32.7024
32.7178
32.747
32.7626
32.7912
32.807
32.8349
32.8506
32.8779
32.8935
32.92
32.9352
32.9609
32.9757
33.0004
33.0147
33.0384
33.0521
33.0748
33.0876
33.1092
33.1213
33.1418
33.1529
33.1722
33.1825
33.2006
33.21
33.2269
33.2353
33.2511
33.2586
33.2732
33.2799
33.2932
33.2992
33.3111
33.3166
33.3271
33.3318
33.3411
33.3448
33.3525
33.3592
33.3338
28.2853
31.0869
31.2959
31.496
31.5781
31.7127
31.726
31.7961
31.8175
31.9111
31.9566
32.0543
32.0876
32.1598
32.1757
32.2266
32.2341
32.2746
32.2799
32.3166
32.3226
32.358
32.3654
32.4003
32.4091
32.4438
32.4539
32.4884
32.4995
32.5337
32.5459
32.5798
32.5928
32.6265
32.6402
32.6737
32.6881
32.7212
32.7362
32.7691
32.7846
32.8171
32.833
32.8651
32.8814
32.913
32.9297
32.9607
32.9776
33.008
33.025
33.0548
33.0717
33.1007
33.1175
33.1457
33.1621
33.1894
33.2054
33.2317
33.2471
33.2723
33.287
33.3112
33.325
33.348
33.361
33.3828
33.3948
33.4154
33.4265
33.4458
33.4559
33.474
33.4831
33.4999
33.5081
33.5237
33.531
33.5452
33.5518
33.5646
33.5705
33.5819
33.5869
33.5972
33.6014
33.6093
33.6174
33.5911
28.2875
31.0764
31.2654
31.4458
31.5109
31.6293
31.6285
31.6837
31.6942
31.7773
31.8173
31.91
31.9411
32.0114
32.0267
32.077
32.0843
32.1246
32.1299
32.1665
32.1725
32.2078
32.2152
32.2501
32.2589
32.2935
32.3036
32.338
32.3492
32.3834
32.3955
32.4294
32.4424
32.476
32.4898
32.5232
32.5376
32.5707
32.5857
32.6185
32.634
32.6665
32.6824
32.7145
32.7308
32.7624
32.7791
32.8101
32.827
32.8573
32.8743
32.9041
32.921
32.95
32.9667
32.9949
33.0114
33.0387
33.0546
33.0809
33.0963
33.1216
33.1363
33.1604
33.1743
33.1973
33.2103
33.2321
33.2442
33.2648
33.2759
33.2952
33.3053
33.3234
33.3326
33.3494
33.3577
33.3732
33.3806
33.3948
33.4014
33.4143
33.4201
33.4317
33.4366
33.4471
33.4512
33.4591
33.4675
33.4419
28.188
30.8027
30.9518
31.1017
31.1433
31.2357
31.2222
31.2666
31.2694
31.3418
31.3742
31.4564
31.4819
31.5452
31.5577
31.6039
31.6099
31.6476
31.6522
31.6866
31.6919
31.7253
31.7319
31.7649
31.7728
31.8055
31.8147
31.8471
31.8573
31.8894
31.9005
31.9324
31.9443
31.9759
31.9886
32.02
32.0333
32.0644
32.0782
32.109
32.1233
32.1538
32.1686
32.1987
32.2138
32.2434
32.2589
32.288
32.3037
32.3322
32.348
32.3759
32.3916
32.4188
32.4344
32.4609
32.4762
32.5018
32.5167
32.5414
32.5557
32.5795
32.5931
32.6159
32.6288
32.6504
32.6625
32.683
32.6943
32.7136
32.7239
32.7421
32.7516
32.7686
32.7771
32.7929
32.8006
32.8152
32.822
32.8355
32.8415
32.8537
32.8589
32.87
32.8743
32.8842
32.8878
32.8955
32.9026
32.8789
28.3083
30.6279
30.7243
30.837
30.8544
30.917
30.8956
30.9311
30.9299
30.9906
31.014
31.081
31.0988
31.1506
31.1588
31.1978
31.2014
31.234
31.2369
31.267
31.2708
31.3
31.305
31.3338
31.34
31.3685
31.3758
31.404
31.4122
31.4402
31.4492
31.4769
31.4867
31.5142
31.5247
31.5518
31.5629
31.5898
31.6014
31.6281
31.6402
31.6665
31.679
31.7051
31.7178
31.7435
31.7566
31.7818
31.7951
31.8199
31.8332
31.8575
31.8709
31.8945
31.9078
31.9308
31.9438
31.9661
31.9788
32.0003
32.0126
32.0333
32.045
32.0648
32.0758
32.0947
32.1051
32.123
32.1326
32.1495
32.1584
32.1743
32.1823
32.1972
32.2045
32.2183
32.2249
32.2377
32.2435
32.2552
32.2603
32.271
32.2754
32.2851
32.2886
32.2973
32.3001
32.3072
32.3117
32.2904
30.425
32.2435
32.2788
32.3554
32.3521
32.3911
32.3669
32.3959
32.3924
32.4398
32.4529
32.5016
32.5107
32.5484
32.5515
32.5808
32.5814
32.6065
32.6071
32.6304
32.6319
32.6544
32.657
32.6792
32.6828
32.7046
32.7091
32.7306
32.7359
32.7572
32.7632
32.7842
32.7908
32.8117
32.8188
32.8395
32.8472
32.8676
32.8757
32.8959
32.9045
32.9245
32.9334
32.9531
32.9623
32.9818
32.9913
33.0105
33.0201
33.039
33.0488
33.0673
33.0771
33.0951
33.1049
33.1225
33.1322
33.1492
33.1586
33.1751
33.1842
33.2001
33.2088
33.2241
33.2323
33.2468
33.2546
33.2684
33.2756
33.2886
33.2952
33.3075
33.3135
33.325
33.3304
33.3411
33.3459
33.3558
33.3601
33.3692
33.3728
33.3811
33.3842
33.3917
33.3941
33.4008
33.4025
33.4083
33.4082
33.3907
46.9038
48.2
48.2087
48.2604
48.2511
48.2743
48.2516
48.2717
48.2682
48.3022
48.3101
48.3427
48.3472
48.3713
48.3714
48.3895
48.3877
48.4029
48.401
48.4149
48.4136
48.4269
48.4264
48.4392
48.4394
48.4519
48.4528
48.465
48.4664
48.4784
48.4803
48.4921
48.4944
48.506
48.5087
48.5202
48.5233
48.5346
48.538
48.5492
48.5529
48.5639
48.5679
48.5788
48.5829
48.5937
48.598
48.6086
48.6131
48.6234
48.628
48.6382
48.6428
48.6527
48.6573
48.6669
48.6714
48.6806
48.685
48.6939
48.6981
48.7066
48.7105
48.7186
48.7223
48.7299
48.7333
48.7405
48.7435
48.7503
48.753
48.7593
48.7617
48.7675
48.7696
48.775
48.7769
48.7819
48.7835
48.7881
48.7894
48.7936
48.7948
48.7985
48.7994
48.8028
48.803
48.8068
48.7931
48.785
142.541
143.141
143.18
143.257
143.268
143.289
143.263
143.277
143.283
143.324
143.349
143.388
143.405
143.429
143.435
143.449
143.449
143.458
143.456
143.463
143.461
143.468
143.466
143.472
143.471
143.477
143.476
143.481
143.481
143.486
143.486
143.491
143.491
143.496
143.496
143.501
143.501
143.506
143.507
143.511
143.512
143.517
143.517
143.522
143.523
143.527
143.528
143.532
143.533
143.537
143.539
143.543
143.544
143.548
143.549
143.552
143.553
143.557
143.558
143.561
143.562
143.565
143.565
143.568
143.569
143.572
143.572
143.575
143.575
143.577
143.578
143.58
143.581
143.583
143.583
143.585
143.586
143.588
143.589
143.59
143.591
143.593
143.594
143.596
143.597
143.599
143.599
143.602
143.576
143.561
30.1666
30.951
31.191
31.3607
31.4879
31.5968
31.6899
31.783
31.8577
31.9264
31.9701
32.0084
32.0261
32.0452
32.0497
32.0605
32.0602
32.0681
32.0667
32.0737
32.0723
32.0792
32.0781
32.0849
32.0841
32.0908
32.0903
32.0969
32.0967
32.1032
32.1034
32.1098
32.1101
32.1164
32.1171
32.1233
32.1241
32.1303
32.1313
32.1373
32.1386
32.1445
32.1459
32.1517
32.1532
32.1589
32.1605
32.1661
32.1678
32.1732
32.1749
32.1801
32.1818
32.1868
32.1885
32.1933
32.1948
32.1994
32.2007
32.205
32.2062
32.2102
32.2112
32.2149
32.2157
32.2191
32.2197
32.2228
32.2233
32.2261
32.2264
32.2289
32.2291
32.2315
32.2315
32.2337
32.2337
32.2358
32.2358
32.2377
32.238
32.2396
32.2404
32.2413
32.2433
32.2432
32.2463
32.2474
32.2447
32.2455
28.024
29.3843
29.6265
29.8011
29.9265
30.0356
30.1242
30.2154
30.2901
30.3611
30.409
30.4511
30.4736
30.4955
30.504
30.5165
30.5197
30.5287
30.5304
30.5383
30.5398
30.5474
30.5491
30.5565
30.5584
30.5658
30.5679
30.5751
30.5774
30.5846
30.587
30.5941
30.5968
30.6038
30.6066
30.6135
30.6164
30.6233
30.6264
30.6333
30.6365
30.6433
30.6466
30.6533
30.6568
30.6635
30.6671
30.6737
30.6774
30.6839
30.6877
30.6942
30.6981
30.7046
30.7085
30.7149
30.7188
30.7251
30.7291
30.7353
30.7392
30.7453
30.7492
30.7551
30.7589
30.7647
30.7684
30.774
30.7776
30.783
30.7863
30.7915
30.7947
30.7996
30.8026
30.8072
30.8099
30.8143
30.8168
30.8208
30.8231
30.8267
30.8291
30.8318
30.8348
30.8363
30.8395
30.8415
30.8426
30.8473
25.8217
27.6739
27.9315
28.1014
28.2268
28.3261
28.4033
28.4799
28.5499
28.6181
28.6715
28.7161
28.7446
28.7675
28.7797
28.7911
28.7962
28.8031
28.8058
28.8113
28.8135
28.8186
28.8208
28.8258
28.828
28.833
28.8353
28.8403
28.8427
28.8476
28.85
28.8549
28.8574
28.8622
28.8647
28.8695
28.8721
28.8768
28.8796
28.8842
28.887
28.8916
28.8944
28.899
28.9019
28.9064
28.9093
28.9138
28.9168
28.9212
28.9242
28.9287
28.9317
28.9361
28.9392
28.9435
28.9466
28.9509
28.954
28.9583
28.9613
28.9655
28.9686
28.9727
28.9758
28.9798
28.9828
28.9868
28.9897
28.9935
28.9963
29
29.0027
29.0063
29.0089
29.0123
29.0147
29.0179
29.0202
29.0232
29.0254
29.028
29.0304
29.0323
29.035
29.0361
29.0385
29.0402
29.0409
29.0208
25.0981
27.1733
27.4179
27.5759
27.6985
27.7902
27.8528
27.9134
27.9743
28.0403
28.0978
28.1476
28.1823
28.2087
28.2243
28.2363
28.2424
28.2483
28.251
28.255
28.2568
28.2602
28.2618
28.2651
28.2667
28.27
28.2716
28.2748
28.2766
28.2797
28.2815
28.2846
28.2864
28.2895
28.2913
28.2944
28.2963
28.2994
28.3012
28.3043
28.3062
28.3092
28.3111
28.3141
28.3161
28.319
28.321
28.324
28.326
28.329
28.331
28.3339
28.336
28.3389
28.341
28.3439
28.346
28.3489
28.351
28.3539
28.356
28.3589
28.361
28.3638
28.3659
28.3687
28.3708
28.3735
28.3756
28.3782
28.3802
28.3828
28.3847
28.3872
28.3891
28.3915
28.3932
28.3955
28.3972
28.3993
28.4011
28.4028
28.4047
28.406
28.4081
28.409
28.4106
28.4122
28.413
28.3983
24.6666
26.88
27.0979
27.2354
27.3485
27.4307
27.4772
27.5199
27.5675
27.6274
27.6848
27.7379
27.7766
27.8064
27.8245
27.8378
27.8448
27.8506
27.8533
27.8566
27.858
27.8607
27.8619
27.8645
27.8657
27.8683
27.8695
27.8721
27.8733
27.8759
27.8772
27.8797
27.8811
27.8836
27.885
27.8875
27.8889
27.8915
27.8929
27.8954
27.8969
27.8994
27.9009
27.9034
27.9049
27.9074
27.909
27.9115
27.9131
27.9155
27.9172
27.9197
27.9214
27.9238
27.9256
27.928
27.9298
27.9323
27.934
27.9365
27.9383
27.9407
27.9425
27.945
27.9468
27.9492
27.9509
27.9533
27.955
27.9574
27.9591
27.9613
27.963
27.9652
27.9668
27.9689
27.9704
27.9724
27.9739
27.9758
27.9773
27.9789
27.9805
27.9817
27.9833
27.9845
27.9855
27.9869
27.9876
27.9643
24.5858
26.8296
27.0159
27.1285
27.2269
27.2964
27.3274
27.3531
27.3872
27.4384
27.4924
27.5451
27.5848
27.616
27.6351
27.6495
27.6569
27.6632
27.666
27.6695
27.6708
27.6736
27.6747
27.6772
27.6783
27.6809
27.682
27.6846
27.6857
27.6882
27.6894
27.692
27.6932
27.6957
27.697
27.6995
27.7008
27.7033
27.7046
27.7071
27.7085
27.711
27.7124
27.7148
27.7163
27.7188
27.7203
27.7227
27.7243
27.7267
27.7283
27.7308
27.7324
27.7348
27.7365
27.739
27.7406
27.7431
27.7448
27.7473
27.749
27.7515
27.7532
27.7556
27.7574
27.7598
27.7615
27.7638
27.7655
27.7678
27.7695
27.7718
27.7734
27.7756
27.7771
27.7792
27.7807
27.7827
27.7841
27.786
27.7874
27.789
27.7905
27.7919
27.7932
27.7947
27.7955
27.797
27.7977
27.7765
24.5866
26.8175
26.9841
27.0778
27.1597
27.2142
27.2311
27.2435
27.2664
27.3091
27.357
27.4056
27.4428
27.4725
27.4909
27.5048
27.512
27.5183
27.521
27.5245
27.5258
27.5286
27.5297
27.5323
27.5334
27.536
27.5371
27.5397
27.5409
27.5434
27.5446
27.5472
27.5485
27.551
27.5523
27.5548
27.5561
27.5587
27.56
27.5626
27.564
27.5665
27.5679
27.5705
27.5719
27.5744
27.576
27.5785
27.58
27.5825
27.5841
27.5866
27.5883
27.5908
27.5925
27.595
27.5967
27.5992
27.6009
27.6034
27.6052
27.6077
27.6094
27.6119
27.6137
27.6161
27.6179
27.6203
27.622
27.6243
27.626
27.6283
27.63
27.6322
27.6338
27.6359
27.6374
27.6395
27.6409
27.6428
27.6443
27.646
27.6474
27.649
27.6501
27.6518
27.6526
27.6541
27.6549
27.6339
24.668
26.8344
26.9908
27.0718
27.1373
27.1756
27.1816
27.1867
27.2025
27.2381
27.2788
27.3206
27.3524
27.3782
27.3941
27.4064
27.4129
27.4186
27.4212
27.4245
27.426
27.4287
27.4299
27.4326
27.4338
27.4364
27.4377
27.4404
27.4417
27.4443
27.4457
27.4483
27.4497
27.4524
27.4538
27.4564
27.4579
27.4605
27.462
27.4647
27.4662
27.4688
27.4704
27.473
27.4746
27.4772
27.4789
27.4815
27.4832
27.4857
27.4875
27.4901
27.4918
27.4944
27.4962
27.4988
27.5007
27.5032
27.5051
27.5077
27.5096
27.5121
27.514
27.5166
27.5184
27.521
27.5228
27.5253
27.5271
27.5296
27.5314
27.5337
27.5355
27.5378
27.5395
27.5417
27.5434
27.5455
27.5471
27.549
27.5506
27.5524
27.5539
27.5557
27.5568
27.5586
27.5595
27.5608
27.5621
27.5397
25.0828
27.049
27.1799
27.2447
27.2912
27.3133
27.3126
27.3147
27.3274
27.3568
27.3892
27.4223
27.447
27.4674
27.4798
27.4901
27.4956
27.5011
27.5037
27.5076
27.5094
27.5129
27.5146
27.5179
27.5196
27.523
27.5247
27.528
27.5298
27.5331
27.535
27.5382
27.5401
27.5434
27.5453
27.5485
27.5505
27.5537
27.5557
27.5588
27.5609
27.564
27.5661
27.5692
27.5713
27.5745
27.5766
27.5797
27.5819
27.585
27.5872
27.5902
27.5925
27.5955
27.5978
27.6008
27.6031
27.6062
27.6084
27.6115
27.6138
27.6168
27.619
27.622
27.6243
27.6272
27.6295
27.6323
27.6346
27.6374
27.6395
27.6423
27.6444
27.6471
27.6491
27.6517
27.6536
27.6561
27.6579
27.6603
27.6621
27.6643
27.6659
27.6681
27.6694
27.6716
27.6727
27.6745
27.6757
27.6622
25.7525
27.4056
27.4996
27.5454
27.573
27.5841
27.5812
27.5848
27.5959
27.6195
27.6423
27.6667
27.6833
27.6991
27.7076
27.717
27.7212
27.7277
27.7303
27.7357
27.7379
27.7431
27.7453
27.7504
27.7527
27.7578
27.7602
27.7652
27.7677
27.7727
27.7752
27.7802
27.7828
27.7877
27.7904
27.7953
27.7981
27.8029
27.8057
27.8105
27.8134
27.8182
27.8211
27.8258
27.8288
27.8335
27.8366
27.8412
27.8443
27.8489
27.8521
27.8566
27.8598
27.8643
27.8676
27.872
27.8753
27.8797
27.883
27.8874
27.8906
27.895
27.8982
27.9025
27.9056
27.9098
27.913
27.9171
27.9201
27.9241
27.9271
27.931
27.9338
27.9376
27.9403
27.9439
27.9465
27.9499
27.9524
27.9556
27.9579
27.9609
27.963
27.9659
27.9676
27.9705
27.9718
27.9743
27.9764
27.9577
27.8288
28.894
28.9297
28.9538
28.9637
28.9703
28.9668
28.9739
28.9808
28.9994
29.0115
29.0298
29.0381
29.0514
29.0555
29.0655
29.0676
29.076
29.0776
29.0853
29.0869
29.0945
29.0962
29.1037
29.1057
29.1131
29.1152
29.1225
29.1249
29.1321
29.1347
29.1418
29.1446
29.1517
29.1545
29.1616
29.1646
29.1716
29.1747
29.1817
29.185
29.1918
29.1953
29.2021
29.2057
29.2124
29.2161
29.2228
29.2266
29.2332
29.2371
29.2437
29.2477
29.2542
29.2582
29.2646
29.2687
29.275
29.2791
29.2854
29.2894
29.2955
29.2995
29.3055
29.3094
29.3153
29.3191
29.3248
29.3284
29.3339
29.3373
29.3426
29.3458
29.3509
29.3539
29.3586
29.3614
29.3659
29.3685
29.3727
29.375
29.3789
29.3809
29.3847
29.3862
29.39
29.3911
29.3949
29.3963
29.4016
29.8251
30.2665
30.2792
30.2828
30.2843
30.2846
30.2803
30.2842
30.2847
30.295
30.2976
30.3082
30.3091
30.3178
30.317
30.3245
30.323
30.33
30.3285
30.3353
30.334
30.3408
30.3398
30.3466
30.3459
30.3526
30.3523
30.3589
30.3588
30.3653
30.3655
30.3719
30.3724
30.3787
30.3794
30.3857
30.3866
30.3927
30.3939
30.3999
30.4012
30.4072
30.4086
30.4145
30.416
30.4218
30.4234
30.429
30.4308
30.4362
30.4379
30.4432
30.4449
30.45
30.4516
30.4565
30.458
30.4626
30.464
30.4683
30.4695
30.4735
30.4745
30.4782
30.479
30.4824
30.483
30.486
30.4864
30.4892
30.4895
30.492
30.4921
30.4943
30.4943
30.4964
30.4963
30.4983
30.4982
30.5
30.4999
30.5017
30.5017
30.5036
30.5037
30.5058
30.506
30.5092
30.5057
30.5065
3.64926
3.86032
3.88796
3.90226
3.92192
3.94072
3.95911
3.98027
3.99491
4.01434
4.02378
4.04057
4.04624
4.06131
4.06499
4.07917
4.08192
4.09561
4.09794
4.11129
4.11345
4.12649
4.12862
4.14135
4.14353
4.15595
4.15825
4.17037
4.17283
4.18467
4.18731
4.19889
4.20172
4.21306
4.2161
4.22721
4.23045
4.24136
4.24479
4.2555
4.25912
4.26964
4.27343
4.28377
4.2877
4.29786
4.30191
4.31188
4.31603
4.3258
4.33
4.33955
4.34377
4.35308
4.35728