/*--------------------------------*- C++ -*----------------------------------*\
  =========                 |
  \\      /  F ield         | OpenFOAM: The Open Source CFD Toolbox
   \\    /   O peration     | Website:  https://openfoam.org
    \\  /    A nd           | Version:  7
     \\/     M anipulation  |
\*---------------------------------------------------------------------------*/
FoamFile
{
    version     2.0;
    format      ascii;
    class       volScalarField;
    location    "0.9625";
    object      pPrime2Mean;
}
// * * * * * * * * * * * * * * * * * * * * * * * * * * * * * * * * * * * * * //

dimensions      [2 -2 -4 0 0 0 0];

internalField   nonuniform List<scalar> 
13200
(
2.0767e+06
2.07425e+06
2.07438e+06
2.07188e+06
2.07175e+06
2.06881e+06
2.06826e+06
2.06492e+06
2.06396e+06
2.06033e+06
2.05902e+06
2.05519e+06
2.05358e+06
2.04961e+06
2.04775e+06
2.04363e+06
2.04153e+06
2.03726e+06
2.03498e+06
2.03079e+06
2.07631e+06
2.07391e+06
2.07404e+06
2.0715e+06
2.07135e+06
2.06838e+06
2.06783e+06
2.06448e+06
2.06352e+06
2.05988e+06
2.05856e+06
2.05473e+06
2.05312e+06
2.04914e+06
2.04727e+06
2.04315e+06
2.04104e+06
2.03676e+06
2.0345e+06
2.03032e+06
2.07645e+06
2.07398e+06
2.07407e+06
2.07156e+06
2.07143e+06
2.06849e+06
2.06795e+06
2.06461e+06
2.06366e+06
2.06003e+06
2.05872e+06
2.05489e+06
2.05329e+06
2.04931e+06
2.04744e+06
2.04332e+06
2.0412e+06
2.03693e+06
2.03463e+06
2.03046e+06
2.0763e+06
2.07389e+06
2.074e+06
2.07146e+06
2.0713e+06
2.06833e+06
2.06778e+06
2.06443e+06
2.06349e+06
2.05986e+06
2.05856e+06
2.05473e+06
2.05312e+06
2.04914e+06
2.04727e+06
2.04315e+06
2.04104e+06
2.03675e+06
2.03448e+06
2.03023e+06
2.07641e+06
2.07397e+06
2.07404e+06
2.07152e+06
2.07137e+06
2.06842e+06
2.06788e+06
2.06455e+06
2.06361e+06
2.05999e+06
2.05869e+06
2.05487e+06
2.05327e+06
2.0493e+06
2.04744e+06
2.04331e+06
2.04119e+06
2.03691e+06
2.03459e+06
2.03034e+06
2.0763e+06
2.07388e+06
2.07397e+06
2.07143e+06
2.07127e+06
2.06831e+06
2.06776e+06
2.06442e+06
2.06349e+06
2.05987e+06
2.05857e+06
2.05475e+06
2.05316e+06
2.04918e+06
2.04732e+06
2.0432e+06
2.04109e+06
2.0368e+06
2.03451e+06
2.0302e+06
2.07638e+06
2.07395e+06
2.07402e+06
2.07149e+06
2.07134e+06
2.06838e+06
2.06783e+06
2.06451e+06
2.06357e+06
2.05995e+06
2.05866e+06
2.05484e+06
2.05325e+06
2.04928e+06
2.04742e+06
2.0433e+06
2.04118e+06
2.0369e+06
2.03457e+06
2.03027e+06
2.07631e+06
2.07388e+06
2.07396e+06
2.07141e+06
2.07126e+06
2.0683e+06
2.06776e+06
2.06443e+06
2.06349e+06
2.05988e+06
2.05859e+06
2.05477e+06
2.05318e+06
2.0492e+06
2.04735e+06
2.04323e+06
2.04112e+06
2.03683e+06
2.03452e+06
2.0302e+06
2.07635e+06
2.07393e+06
2.074e+06
2.07146e+06
2.0713e+06
2.06835e+06
2.0678e+06
2.06447e+06
2.06354e+06
2.05992e+06
2.05863e+06
2.05481e+06
2.05322e+06
2.04925e+06
2.0474e+06
2.04328e+06
2.04116e+06
2.03688e+06
2.03455e+06
2.03023e+06
2.07632e+06
2.0739e+06
2.07397e+06
2.07143e+06
2.07127e+06
2.06832e+06
2.06777e+06
2.06445e+06
2.06351e+06
2.0599e+06
2.05861e+06
2.05479e+06
2.0532e+06
2.04923e+06
2.04737e+06
2.04325e+06
2.04114e+06
2.03686e+06
2.03453e+06
2.03021e+06
2.07632e+06
2.0739e+06
2.07397e+06
2.07143e+06
2.07127e+06
2.06832e+06
2.06777e+06
2.06445e+06
2.06351e+06
2.0599e+06
2.05861e+06
2.05479e+06
2.0532e+06
2.04923e+06
2.04737e+06
2.04325e+06
2.04114e+06
2.03686e+06
2.03453e+06
2.03021e+06
2.07635e+06
2.07393e+06
2.074e+06
2.07146e+06
2.0713e+06
2.06835e+06
2.0678e+06
2.06447e+06
2.06354e+06
2.05992e+06
2.05863e+06
2.05481e+06
2.05322e+06
2.04925e+06
2.0474e+06
2.04328e+06
2.04116e+06
2.03688e+06
2.03455e+06
2.03023e+06
2.07631e+06
2.07388e+06
2.07396e+06
2.07141e+06
2.07126e+06
2.0683e+06
2.06776e+06
2.06443e+06
2.06349e+06
2.05988e+06
2.05859e+06
2.05477e+06
2.05318e+06
2.0492e+06
2.04735e+06
2.04323e+06
2.04112e+06
2.03683e+06
2.03452e+06
2.0302e+06
2.07638e+06
2.07395e+06
2.07402e+06
2.07149e+06
2.07134e+06
2.06838e+06
2.06783e+06
2.06451e+06
2.06357e+06
2.05995e+06
2.05866e+06
2.05484e+06
2.05325e+06
2.04928e+06
2.04742e+06
2.0433e+06
2.04118e+06
2.0369e+06
2.03457e+06
2.03027e+06
2.0763e+06
2.07388e+06
2.07397e+06
2.07143e+06
2.07127e+06
2.06831e+06
2.06776e+06
2.06442e+06
2.06349e+06
2.05987e+06
2.05857e+06
2.05475e+06
2.05316e+06
2.04918e+06
2.04732e+06
2.0432e+06
2.04109e+06
2.0368e+06
2.03451e+06
2.0302e+06
2.07641e+06
2.07397e+06
2.07404e+06
2.07152e+06
2.07137e+06
2.06842e+06
2.06788e+06
2.06455e+06
2.06361e+06
2.05999e+06
2.05869e+06
2.05487e+06
2.05327e+06
2.0493e+06
2.04744e+06
2.04331e+06
2.04119e+06
2.03691e+06
2.03458e+06
2.03034e+06
2.0763e+06
2.07389e+06
2.074e+06
2.07146e+06
2.0713e+06
2.06833e+06
2.06778e+06
2.06443e+06
2.06349e+06
2.05986e+06
2.05856e+06
2.05473e+06
2.05312e+06
2.04914e+06
2.04727e+06
2.04315e+06
2.04104e+06
2.03675e+06
2.03448e+06
2.03023e+06
2.07645e+06
2.07398e+06
2.07407e+06
2.07156e+06
2.07143e+06
2.06849e+06
2.06795e+06
2.06461e+06
2.06366e+06
2.06003e+06
2.05872e+06
2.05489e+06
2.05329e+06
2.04931e+06
2.04744e+06
2.04332e+06
2.0412e+06
2.03693e+06
2.03463e+06
2.03046e+06
2.07631e+06
2.07391e+06
2.07404e+06
2.0715e+06
2.07135e+06
2.06838e+06
2.06783e+06
2.06448e+06
2.06352e+06
2.05988e+06
2.05856e+06
2.05473e+06
2.05312e+06
2.04914e+06
2.04727e+06
2.04315e+06
2.04104e+06
2.03676e+06
2.0345e+06
2.03032e+06
2.0767e+06
2.07425e+06
2.07438e+06
2.07188e+06
2.07175e+06
2.06881e+06
2.06826e+06
2.06492e+06
2.06396e+06
2.06033e+06
2.05902e+06
2.05519e+06
2.05358e+06
2.04961e+06
2.04775e+06
2.04363e+06
2.04153e+06
2.03726e+06
2.03498e+06
2.03079e+06
2.07517e+06
2.07255e+06
2.0729e+06
2.07008e+06
2.07026e+06
2.06708e+06
2.06693e+06
2.0634e+06
2.06286e+06
2.05904e+06
2.05813e+06
2.05412e+06
2.0529e+06
2.04875e+06
2.04724e+06
2.04297e+06
2.04118e+06
2.03677e+06
2.0348e+06
2.03045e+06
2.07544e+06
2.07281e+06
2.07317e+06
2.07038e+06
2.07058e+06
2.06744e+06
2.06731e+06
2.06381e+06
2.06328e+06
2.05948e+06
2.05858e+06
2.05458e+06
2.05336e+06
2.04922e+06
2.04771e+06
2.04345e+06
2.04166e+06
2.03726e+06
2.03528e+06
2.03098e+06
2.07526e+06
2.07263e+06
2.07301e+06
2.07019e+06
2.07037e+06
2.06719e+06
2.06705e+06
2.06353e+06
2.06301e+06
2.0592e+06
2.0583e+06
2.0543e+06
2.05307e+06
2.04893e+06
2.04741e+06
2.04314e+06
2.04134e+06
2.03693e+06
2.03496e+06
2.03057e+06
2.07545e+06
2.07278e+06
2.07313e+06
2.07032e+06
2.07052e+06
2.06738e+06
2.06726e+06
2.06377e+06
2.06326e+06
2.05947e+06
2.05858e+06
2.05459e+06
2.05337e+06
2.04924e+06
2.04772e+06
2.04346e+06
2.04166e+06
2.03725e+06
2.03525e+06
2.03088e+06
2.0753e+06
2.07262e+06
2.07299e+06
2.07017e+06
2.07035e+06
2.06718e+06
2.06704e+06
2.06354e+06
2.06302e+06
2.05923e+06
2.05834e+06
2.05435e+06
2.05313e+06
2.04899e+06
2.04748e+06
2.04321e+06
2.0414e+06
2.037e+06
2.03501e+06
2.03056e+06
2.07544e+06
2.07276e+06
2.07311e+06
2.0703e+06
2.07049e+06
2.06734e+06
2.06721e+06
2.06371e+06
2.06321e+06
2.05942e+06
2.05854e+06
2.05455e+06
2.05334e+06
2.04921e+06
2.0477e+06
2.04344e+06
2.04164e+06
2.03723e+06
2.0352e+06
2.03077e+06
2.07535e+06
2.07264e+06
2.07299e+06
2.07016e+06
2.07035e+06
2.06718e+06
2.06705e+06
2.06355e+06
2.06304e+06
2.05926e+06
2.05837e+06
2.05438e+06
2.05317e+06
2.04904e+06
2.04753e+06
2.04326e+06
2.04146e+06
2.03705e+06
2.03505e+06
2.03058e+06
2.07543e+06
2.07273e+06
2.07308e+06
2.07026e+06
2.07046e+06
2.0673e+06
2.06717e+06
2.06367e+06
2.06316e+06
2.05938e+06
2.0585e+06
2.05451e+06
2.0533e+06
2.04917e+06
2.04766e+06
2.0434e+06
2.0416e+06
2.03719e+06
2.03517e+06
2.03071e+06
2.07538e+06
2.07266e+06
2.07301e+06
2.07018e+06
2.07037e+06
2.0672e+06
2.06708e+06
2.06358e+06
2.06307e+06
2.05929e+06
2.05841e+06
2.05442e+06
2.05321e+06
2.04908e+06
2.04757e+06
2.04331e+06
2.04151e+06
2.0371e+06
2.03509e+06
2.03062e+06
2.07541e+06
2.0727e+06
2.07304e+06
2.07022e+06
2.07041e+06
2.06725e+06
2.06712e+06
2.06362e+06
2.06312e+06
2.05934e+06
2.05845e+06
2.05447e+06
2.05325e+06
2.04913e+06
2.04762e+06
2.04336e+06
2.04156e+06
2.03715e+06
2.03513e+06
2.03066e+06
2.07541e+06
2.0727e+06
2.07304e+06
2.07022e+06
2.07041e+06
2.06725e+06
2.06712e+06
2.06362e+06
2.06312e+06
2.05934e+06
2.05845e+06
2.05447e+06
2.05325e+06
2.04913e+06
2.04762e+06
2.04336e+06
2.04156e+06
2.03715e+06
2.03512e+06
2.03066e+06
2.07538e+06
2.07266e+06
2.07301e+06
2.07018e+06
2.07037e+06
2.0672e+06
2.06708e+06
2.06358e+06
2.06307e+06
2.05929e+06
2.05841e+06
2.05442e+06
2.05321e+06
2.04908e+06
2.04757e+06
2.04331e+06
2.04151e+06
2.0371e+06
2.03509e+06
2.03062e+06
2.07543e+06
2.07273e+06
2.07308e+06
2.07026e+06
2.07046e+06
2.0673e+06
2.06717e+06
2.06367e+06
2.06316e+06
2.05938e+06
2.0585e+06
2.05451e+06
2.0533e+06
2.04917e+06
2.04766e+06
2.0434e+06
2.0416e+06
2.03719e+06
2.03516e+06
2.03071e+06
2.07535e+06
2.07264e+06
2.07299e+06
2.07016e+06
2.07035e+06
2.06718e+06
2.06705e+06
2.06355e+06
2.06304e+06
2.05926e+06
2.05837e+06
2.05438e+06
2.05317e+06
2.04904e+06
2.04753e+06
2.04326e+06
2.04146e+06
2.03705e+06
2.03505e+06
2.03058e+06
2.07544e+06
2.07276e+06
2.07311e+06
2.0703e+06
2.07049e+06
2.06734e+06
2.06721e+06
2.06371e+06
2.06321e+06
2.05942e+06
2.05854e+06
2.05455e+06
2.05334e+06
2.04921e+06
2.0477e+06
2.04344e+06
2.04164e+06
2.03723e+06
2.0352e+06
2.03077e+06
2.0753e+06
2.07262e+06
2.07299e+06
2.07017e+06
2.07035e+06
2.06718e+06
2.06704e+06
2.06354e+06
2.06302e+06
2.05923e+06
2.05834e+06
2.05435e+06
2.05313e+06
2.04899e+06
2.04748e+06
2.04321e+06
2.0414e+06
2.037e+06
2.03501e+06
2.03056e+06
2.07545e+06
2.07278e+06
2.07313e+06
2.07032e+06
2.07052e+06
2.06738e+06
2.06726e+06
2.06377e+06
2.06326e+06
2.05947e+06
2.05858e+06
2.05459e+06
2.05337e+06
2.04924e+06
2.04772e+06
2.04346e+06
2.04166e+06
2.03725e+06
2.03524e+06
2.03088e+06
2.07526e+06
2.07263e+06
2.07301e+06
2.07019e+06
2.07037e+06
2.06719e+06
2.06705e+06
2.06353e+06
2.06301e+06
2.0592e+06
2.0583e+06
2.0543e+06
2.05307e+06
2.04893e+06
2.04741e+06
2.04314e+06
2.04134e+06
2.03694e+06
2.03496e+06
2.03057e+06
2.07544e+06
2.07281e+06
2.07317e+06
2.07038e+06
2.07058e+06
2.06744e+06
2.06731e+06
2.06381e+06
2.06328e+06
2.05948e+06
2.05858e+06
2.05458e+06
2.05335e+06
2.04922e+06
2.04771e+06
2.04345e+06
2.04166e+06
2.03726e+06
2.03528e+06
2.03099e+06
2.07517e+06
2.07255e+06
2.0729e+06
2.07008e+06
2.07026e+06
2.06708e+06
2.06693e+06
2.06339e+06
2.06286e+06
2.05904e+06
2.05813e+06
2.05412e+06
2.0529e+06
2.04875e+06
2.04724e+06
2.04297e+06
2.04118e+06
2.03677e+06
2.0348e+06
2.03046e+06
2.0765e+06
2.07399e+06
2.07427e+06
2.07166e+06
2.0717e+06
2.06862e+06
2.06832e+06
2.06489e+06
2.06425e+06
2.06053e+06
2.05956e+06
2.05563e+06
2.05436e+06
2.05025e+06
2.04869e+06
2.0444e+06
2.04257e+06
2.03809e+06
2.0361e+06
2.0316e+06
2.07655e+06
2.074e+06
2.07427e+06
2.07165e+06
2.07168e+06
2.0686e+06
2.06831e+06
2.06489e+06
2.06427e+06
2.06056e+06
2.0596e+06
2.05566e+06
2.05439e+06
2.05028e+06
2.04872e+06
2.04443e+06
2.04259e+06
2.03811e+06
2.03612e+06
2.03161e+06
2.07656e+06
2.074e+06
2.07426e+06
2.07163e+06
2.07167e+06
2.06859e+06
2.0683e+06
2.06489e+06
2.06427e+06
2.06057e+06
2.05961e+06
2.05568e+06
2.05442e+06
2.0503e+06
2.04874e+06
2.04445e+06
2.04261e+06
2.03812e+06
2.03611e+06
2.03157e+06
2.07659e+06
2.074e+06
2.07426e+06
2.07161e+06
2.07164e+06
2.06856e+06
2.06828e+06
2.06487e+06
2.06426e+06
2.06056e+06
2.05961e+06
2.05569e+06
2.05443e+06
2.05033e+06
2.04877e+06
2.04447e+06
2.04263e+06
2.03814e+06
2.03612e+06
2.03157e+06
2.07659e+06
2.074e+06
2.07425e+06
2.0716e+06
2.07164e+06
2.06856e+06
2.06828e+06
2.06487e+06
2.06426e+06
2.06056e+06
2.05961e+06
2.05569e+06
2.05443e+06
2.05033e+06
2.04877e+06
2.04448e+06
2.04264e+06
2.03814e+06
2.03612e+06
2.03156e+06
2.07662e+06
2.07401e+06
2.07425e+06
2.07159e+06
2.07162e+06
2.06855e+06
2.06827e+06
2.06486e+06
2.06425e+06
2.06056e+06
2.05961e+06
2.05569e+06
2.05444e+06
2.05033e+06
2.04878e+06
2.04449e+06
2.04264e+06
2.03815e+06
2.03612e+06
2.03157e+06
2.07662e+06
2.07401e+06
2.07424e+06
2.07158e+06
2.07162e+06
2.06855e+06
2.06827e+06
2.06486e+06
2.06425e+06
2.06056e+06
2.05961e+06
2.05569e+06
2.05443e+06
2.05033e+06
2.04878e+06
2.04448e+06
2.04264e+06
2.03815e+06
2.03612e+06
2.03156e+06
2.07663e+06
2.07401e+06
2.07424e+06
2.07158e+06
2.07161e+06
2.06854e+06
2.06826e+06
2.06486e+06
2.06425e+06
2.06056e+06
2.05961e+06
2.05569e+06
2.05444e+06
2.05033e+06
2.04878e+06
2.04449e+06
2.04264e+06
2.03815e+06
2.03612e+06
2.03157e+06
2.07664e+06
2.07401e+06
2.07424e+06
2.07157e+06
2.07161e+06
2.06854e+06
2.06826e+06
2.06486e+06
2.06425e+06
2.06056e+06
2.05961e+06
2.05569e+06
2.05444e+06
2.05033e+06
2.04878e+06
2.04448e+06
2.04264e+06
2.03815e+06
2.03612e+06
2.03157e+06
2.07664e+06
2.07401e+06
2.07424e+06
2.07157e+06
2.0716e+06
2.06854e+06
2.06826e+06
2.06486e+06
2.06425e+06
2.06056e+06
2.05961e+06
2.05569e+06
2.05444e+06
2.05033e+06
2.04878e+06
2.04449e+06
2.04264e+06
2.03815e+06
2.03612e+06
2.03157e+06
2.07664e+06
2.07401e+06
2.07424e+06
2.07157e+06
2.0716e+06
2.06854e+06
2.06826e+06
2.06486e+06
2.06425e+06
2.06056e+06
2.05961e+06
2.05569e+06
2.05444e+06
2.05033e+06
2.04878e+06
2.04449e+06
2.04264e+06
2.03815e+06
2.03612e+06
2.03157e+06
2.07664e+06
2.07401e+06
2.07424e+06
2.07157e+06
2.07161e+06
2.06854e+06
2.06826e+06
2.06486e+06
2.06425e+06
2.06056e+06
2.05961e+06
2.05569e+06
2.05443e+06
2.05033e+06
2.04878e+06
2.04448e+06
2.04264e+06
2.03815e+06
2.03612e+06
2.03157e+06
2.07663e+06
2.07401e+06
2.07424e+06
2.07158e+06
2.07161e+06
2.06854e+06
2.06826e+06
2.06486e+06
2.06425e+06
2.06056e+06
2.05961e+06
2.05569e+06
2.05444e+06
2.05033e+06
2.04878e+06
2.04449e+06
2.04264e+06
2.03815e+06
2.03612e+06
2.03157e+06
2.07662e+06
2.07401e+06
2.07424e+06
2.07158e+06
2.07162e+06
2.06855e+06
2.06827e+06
2.06486e+06
2.06425e+06
2.06056e+06
2.05961e+06
2.05569e+06
2.05443e+06
2.05033e+06
2.04878e+06
2.04448e+06
2.04264e+06
2.03815e+06
2.03612e+06
2.03156e+06
2.07662e+06
2.07401e+06
2.07425e+06
2.07159e+06
2.07162e+06
2.06855e+06
2.06827e+06
2.06486e+06
2.06425e+06
2.06056e+06
2.05961e+06
2.05569e+06
2.05444e+06
2.05033e+06
2.04878e+06
2.04449e+06
2.04264e+06
2.03815e+06
2.03612e+06
2.03157e+06
2.07659e+06
2.074e+06
2.07425e+06
2.0716e+06
2.07164e+06
2.06856e+06
2.06828e+06
2.06487e+06
2.06426e+06
2.06056e+06
2.05961e+06
2.05569e+06
2.05443e+06
2.05033e+06
2.04877e+06
2.04448e+06
2.04264e+06
2.03814e+06
2.03612e+06
2.03156e+06
2.07659e+06
2.074e+06
2.07426e+06
2.07161e+06
2.07164e+06
2.06856e+06
2.06828e+06
2.06487e+06
2.06426e+06
2.06056e+06
2.05961e+06
2.05569e+06
2.05443e+06
2.05033e+06
2.04877e+06
2.04447e+06
2.04263e+06
2.03814e+06
2.03612e+06
2.03157e+06
2.07656e+06
2.074e+06
2.07426e+06
2.07163e+06
2.07167e+06
2.06859e+06
2.0683e+06
2.06489e+06
2.06427e+06
2.06057e+06
2.05961e+06
2.05568e+06
2.05442e+06
2.0503e+06
2.04874e+06
2.04445e+06
2.0426e+06
2.03812e+06
2.03611e+06
2.03157e+06
2.07655e+06
2.074e+06
2.07427e+06
2.07165e+06
2.07168e+06
2.0686e+06
2.06831e+06
2.06489e+06
2.06427e+06
2.06056e+06
2.0596e+06
2.05566e+06
2.05439e+06
2.05028e+06
2.04872e+06
2.04443e+06
2.04259e+06
2.03811e+06
2.03611e+06
2.03162e+06
2.0765e+06
2.07399e+06
2.07427e+06
2.07166e+06
2.0717e+06
2.06862e+06
2.06832e+06
2.06489e+06
2.06425e+06
2.06053e+06
2.05957e+06
2.05563e+06
2.05436e+06
2.05025e+06
2.04869e+06
2.0444e+06
2.04257e+06
2.03809e+06
2.0361e+06
2.03161e+06
2.0765e+06
2.07399e+06
2.07427e+06
2.07166e+06
2.0717e+06
2.06862e+06
2.06832e+06
2.06489e+06
2.06425e+06
2.06053e+06
2.05957e+06
2.05563e+06
2.05436e+06
2.05025e+06
2.04869e+06
2.0444e+06
2.04257e+06
2.03809e+06
2.0361e+06
2.0316e+06
2.07655e+06
2.074e+06
2.07427e+06
2.07165e+06
2.07168e+06
2.0686e+06
2.06831e+06
2.06489e+06
2.06427e+06
2.06056e+06
2.0596e+06
2.05566e+06
2.05439e+06
2.05028e+06
2.04872e+06
2.04443e+06
2.04259e+06
2.03811e+06
2.03612e+06
2.03161e+06
2.07656e+06
2.074e+06
2.07426e+06
2.07163e+06
2.07167e+06
2.06859e+06
2.0683e+06
2.06489e+06
2.06427e+06
2.06057e+06
2.05961e+06
2.05568e+06
2.05442e+06
2.0503e+06
2.04874e+06
2.04445e+06
2.04261e+06
2.03812e+06
2.03611e+06
2.03157e+06
2.07659e+06
2.074e+06
2.07426e+06
2.07161e+06
2.07164e+06
2.06856e+06
2.06828e+06
2.06487e+06
2.06426e+06
2.06056e+06
2.05961e+06
2.05569e+06
2.05443e+06
2.05033e+06
2.04877e+06
2.04447e+06
2.04263e+06
2.03814e+06
2.03612e+06
2.03157e+06
2.07659e+06
2.074e+06
2.07425e+06
2.0716e+06
2.07164e+06
2.06856e+06
2.06828e+06
2.06487e+06
2.06426e+06
2.06056e+06
2.05961e+06
2.05569e+06
2.05443e+06
2.05033e+06
2.04877e+06
2.04448e+06
2.04264e+06
2.03814e+06
2.03612e+06
2.03156e+06
2.07662e+06
2.07401e+06
2.07425e+06
2.07159e+06
2.07162e+06
2.06855e+06
2.06827e+06
2.06486e+06
2.06425e+06
2.06056e+06
2.05961e+06
2.05569e+06
2.05444e+06
2.05033e+06
2.04878e+06
2.04449e+06
2.04264e+06
2.03815e+06
2.03613e+06
2.03157e+06
2.07662e+06
2.07401e+06
2.07424e+06
2.07158e+06
2.07162e+06
2.06855e+06
2.06827e+06
2.06486e+06
2.06425e+06
2.06056e+06
2.05961e+06
2.05569e+06
2.05443e+06
2.05033e+06
2.04878e+06
2.04448e+06
2.04264e+06
2.03815e+06
2.03612e+06
2.03156e+06
2.07664e+06
2.07401e+06
2.07424e+06
2.07158e+06
2.07161e+06
2.06854e+06
2.06826e+06
2.06486e+06
2.06425e+06
2.06056e+06
2.05961e+06
2.05569e+06
2.05444e+06
2.05033e+06
2.04878e+06
2.04449e+06
2.04265e+06
2.03815e+06
2.03612e+06
2.03157e+06
2.07664e+06
2.07401e+06
2.07424e+06
2.07157e+06
2.07161e+06
2.06854e+06
2.06826e+06
2.06486e+06
2.06425e+06
2.06056e+06
2.05961e+06
2.05569e+06
2.05444e+06
2.05033e+06
2.04878e+06
2.04448e+06
2.04264e+06
2.03815e+06
2.03612e+06
2.03157e+06
2.07664e+06
2.07401e+06
2.07424e+06
2.07157e+06
2.0716e+06
2.06854e+06
2.06826e+06
2.06486e+06
2.06425e+06
2.06056e+06
2.05961e+06
2.05569e+06
2.05444e+06
2.05033e+06
2.04878e+06
2.04449e+06
2.04264e+06
2.03815e+06
2.03612e+06
2.03157e+06
2.07664e+06
2.07401e+06
2.07424e+06
2.07157e+06
2.0716e+06
2.06854e+06
2.06826e+06
2.06486e+06
2.06425e+06
2.06056e+06
2.05961e+06
2.05569e+06
2.05444e+06
2.05033e+06
2.04878e+06
2.04449e+06
2.04264e+06
2.03815e+06
2.03612e+06
2.03157e+06
2.07664e+06
2.07401e+06
2.07424e+06
2.07157e+06
2.07161e+06
2.06854e+06
2.06826e+06
2.06486e+06
2.06425e+06
2.06056e+06
2.05961e+06
2.05569e+06
2.05444e+06
2.05033e+06
2.04878e+06
2.04448e+06
2.04264e+06
2.03815e+06
2.03612e+06
2.03157e+06
2.07664e+06
2.07401e+06
2.07424e+06
2.07158e+06
2.07161e+06
2.06854e+06
2.06826e+06
2.06486e+06
2.06425e+06
2.06056e+06
2.05961e+06
2.05569e+06
2.05444e+06
2.05033e+06
2.04878e+06
2.04449e+06
2.04265e+06
2.03815e+06
2.03612e+06
2.03157e+06
2.07662e+06
2.07401e+06
2.07424e+06
2.07158e+06
2.07162e+06
2.06855e+06
2.06827e+06
2.06486e+06
2.06425e+06
2.06056e+06
2.05961e+06
2.05569e+06
2.05443e+06
2.05033e+06
2.04878e+06
2.04448e+06
2.04264e+06
2.03815e+06
2.03612e+06
2.03156e+06
2.07662e+06
2.07401e+06
2.07425e+06
2.07159e+06
2.07162e+06
2.06855e+06
2.06827e+06
2.06486e+06
2.06425e+06
2.06056e+06
2.05961e+06
2.05569e+06
2.05444e+06
2.05033e+06
2.04878e+06
2.04449e+06
2.04264e+06
2.03815e+06
2.03613e+06
2.03157e+06
2.07659e+06
2.074e+06
2.07425e+06
2.0716e+06
2.07164e+06
2.06856e+06
2.06828e+06
2.06487e+06
2.06426e+06
2.06056e+06
2.05961e+06
2.05569e+06
2.05443e+06
2.05033e+06
2.04877e+06
2.04448e+06
2.04264e+06
2.03814e+06
2.03612e+06
2.03156e+06
2.07659e+06
2.074e+06
2.07426e+06
2.07161e+06
2.07164e+06
2.06856e+06
2.06828e+06
2.06487e+06
2.06426e+06
2.06056e+06
2.05962e+06
2.05569e+06
2.05443e+06
2.05033e+06
2.04877e+06
2.04447e+06
2.04263e+06
2.03814e+06
2.03612e+06
2.03158e+06
2.07656e+06
2.074e+06
2.07426e+06
2.07163e+06
2.07167e+06
2.06859e+06
2.0683e+06
2.06489e+06
2.06427e+06
2.06057e+06
2.05961e+06
2.05568e+06
2.05442e+06
2.05031e+06
2.04875e+06
2.04445e+06
2.0426e+06
2.03812e+06
2.03611e+06
2.03157e+06
2.07655e+06
2.074e+06
2.07427e+06
2.07165e+06
2.07168e+06
2.0686e+06
2.06831e+06
2.06489e+06
2.06427e+06
2.06056e+06
2.0596e+06
2.05566e+06
2.05439e+06
2.05028e+06
2.04872e+06
2.04443e+06
2.04259e+06
2.03811e+06
2.03611e+06
2.03162e+06
2.0765e+06
2.07399e+06
2.07427e+06
2.07166e+06
2.0717e+06
2.06862e+06
2.06832e+06
2.06489e+06
2.06425e+06
2.06053e+06
2.05957e+06
2.05563e+06
2.05436e+06
2.05025e+06
2.04869e+06
2.04441e+06
2.04257e+06
2.03809e+06
2.0361e+06
2.03161e+06
2.07517e+06
2.07255e+06
2.07291e+06
2.07008e+06
2.07026e+06
2.06708e+06
2.06693e+06
2.0634e+06
2.06286e+06
2.05904e+06
2.05813e+06
2.05412e+06
2.0529e+06
2.04876e+06
2.04724e+06
2.04297e+06
2.04118e+06
2.03677e+06
2.0348e+06
2.03045e+06
2.07544e+06
2.07281e+06
2.07317e+06
2.07038e+06
2.07058e+06
2.06744e+06
2.06732e+06
2.06381e+06
2.06328e+06
2.05948e+06
2.05858e+06
2.05458e+06
2.05336e+06
2.04922e+06
2.04771e+06
2.04345e+06
2.04166e+06
2.03726e+06
2.03528e+06
2.03098e+06
2.07526e+06
2.07263e+06
2.07301e+06
2.07019e+06
2.07037e+06
2.06719e+06
2.06705e+06
2.06353e+06
2.06301e+06
2.0592e+06
2.0583e+06
2.0543e+06
2.05307e+06
2.04893e+06
2.04741e+06
2.04314e+06
2.04134e+06
2.03693e+06
2.03496e+06
2.03057e+06
2.07545e+06
2.07278e+06
2.07313e+06
2.07032e+06
2.07052e+06
2.06738e+06
2.06726e+06
2.06377e+06
2.06326e+06
2.05947e+06
2.05858e+06
2.05459e+06
2.05337e+06
2.04924e+06
2.04772e+06
2.04346e+06
2.04166e+06
2.03725e+06
2.03525e+06
2.03088e+06
2.07531e+06
2.07263e+06
2.07299e+06
2.07017e+06
2.07035e+06
2.06718e+06
2.06704e+06
2.06354e+06
2.06302e+06
2.05923e+06
2.05834e+06
2.05435e+06
2.05313e+06
2.049e+06
2.04748e+06
2.04321e+06
2.04141e+06
2.037e+06
2.03501e+06
2.03056e+06
2.07544e+06
2.07276e+06
2.07311e+06
2.0703e+06
2.07049e+06
2.06734e+06
2.06721e+06
2.06371e+06
2.06321e+06
2.05942e+06
2.05854e+06
2.05455e+06
2.05334e+06
2.04921e+06
2.0477e+06
2.04344e+06
2.04164e+06
2.03723e+06
2.0352e+06
2.03078e+06
2.07535e+06
2.07264e+06
2.07299e+06
2.07016e+06
2.07035e+06
2.06718e+06
2.06705e+06
2.06355e+06
2.06304e+06
2.05926e+06
2.05837e+06
2.05438e+06
2.05317e+06
2.04904e+06
2.04753e+06
2.04326e+06
2.04146e+06
2.03705e+06
2.03505e+06
2.03058e+06
2.07543e+06
2.07273e+06
2.07308e+06
2.07027e+06
2.07046e+06
2.0673e+06
2.06717e+06
2.06367e+06
2.06316e+06
2.05938e+06
2.0585e+06
2.05451e+06
2.0533e+06
2.04917e+06
2.04767e+06
2.04341e+06
2.0416e+06
2.03719e+06
2.03517e+06
2.03071e+06
2.07538e+06
2.07266e+06
2.07301e+06
2.07018e+06
2.07037e+06
2.0672e+06
2.06708e+06
2.06358e+06
2.06308e+06
2.05929e+06
2.05841e+06
2.05442e+06
2.05321e+06
2.04908e+06
2.04757e+06
2.04331e+06
2.04151e+06
2.0371e+06
2.03509e+06
2.03062e+06
2.07541e+06
2.0727e+06
2.07304e+06
2.07022e+06
2.07041e+06
2.06725e+06
2.06712e+06
2.06362e+06
2.06312e+06
2.05934e+06
2.05845e+06
2.05447e+06
2.05326e+06
2.04913e+06
2.04762e+06
2.04336e+06
2.04156e+06
2.03715e+06
2.03513e+06
2.03066e+06
2.07541e+06
2.0727e+06
2.07304e+06
2.07022e+06
2.07041e+06
2.06725e+06
2.06712e+06
2.06362e+06
2.06312e+06
2.05934e+06
2.05845e+06
2.05447e+06
2.05326e+06
2.04913e+06
2.04762e+06
2.04336e+06
2.04156e+06
2.03715e+06
2.03512e+06
2.03066e+06
2.07538e+06
2.07266e+06
2.07301e+06
2.07018e+06
2.07037e+06
2.0672e+06
2.06708e+06
2.06358e+06
2.06308e+06
2.05929e+06
2.05841e+06
2.05442e+06
2.05321e+06
2.04908e+06
2.04758e+06
2.04331e+06
2.04151e+06
2.0371e+06
2.03509e+06
2.03062e+06
2.07543e+06
2.07273e+06
2.07308e+06
2.07027e+06
2.07046e+06
2.0673e+06
2.06717e+06
2.06367e+06
2.06316e+06
2.05938e+06
2.0585e+06
2.05451e+06
2.0533e+06
2.04917e+06
2.04767e+06
2.0434e+06
2.0416e+06
2.03719e+06
2.03516e+06
2.03071e+06
2.07535e+06
2.07264e+06
2.07299e+06
2.07016e+06
2.07035e+06
2.06718e+06
2.06705e+06
2.06355e+06
2.06304e+06
2.05926e+06
2.05837e+06
2.05438e+06
2.05317e+06
2.04904e+06
2.04753e+06
2.04326e+06
2.04146e+06
2.03705e+06
2.03505e+06
2.03058e+06
2.07544e+06
2.07276e+06
2.07311e+06
2.0703e+06
2.07049e+06
2.06734e+06
2.06721e+06
2.06371e+06
2.06321e+06
2.05942e+06
2.05854e+06
2.05455e+06
2.05334e+06
2.04921e+06
2.0477e+06
2.04344e+06
2.04164e+06
2.03723e+06
2.0352e+06
2.03078e+06
2.07531e+06
2.07262e+06
2.07299e+06
2.07017e+06
2.07035e+06
2.06718e+06
2.06704e+06
2.06354e+06
2.06302e+06
2.05923e+06
2.05834e+06
2.05435e+06
2.05313e+06
2.049e+06
2.04748e+06
2.04321e+06
2.0414e+06
2.037e+06
2.03501e+06
2.03056e+06
2.07545e+06
2.07278e+06
2.07313e+06
2.07032e+06
2.07052e+06
2.06738e+06
2.06726e+06
2.06377e+06
2.06326e+06
2.05947e+06
2.05858e+06
2.05459e+06
2.05337e+06
2.04924e+06
2.04772e+06
2.04346e+06
2.04166e+06
2.03726e+06
2.03524e+06
2.03088e+06
2.07526e+06
2.07263e+06
2.07301e+06
2.07019e+06
2.07037e+06
2.06719e+06
2.06705e+06
2.06353e+06
2.06301e+06
2.0592e+06
2.0583e+06
2.0543e+06
2.05307e+06
2.04893e+06
2.04741e+06
2.04314e+06
2.04134e+06
2.03694e+06
2.03496e+06
2.03057e+06
2.07544e+06
2.07281e+06
2.07317e+06
2.07038e+06
2.07058e+06
2.06744e+06
2.06732e+06
2.06381e+06
2.06328e+06
2.05948e+06
2.05858e+06
2.05458e+06
2.05336e+06
2.04922e+06
2.04771e+06
2.04345e+06
2.04166e+06
2.03726e+06
2.03528e+06
2.03099e+06
2.07517e+06
2.07255e+06
2.07291e+06
2.07008e+06
2.07026e+06
2.06708e+06
2.06693e+06
2.0634e+06
2.06286e+06
2.05904e+06
2.05813e+06
2.05412e+06
2.0529e+06
2.04876e+06
2.04724e+06
2.04297e+06
2.04118e+06
2.03678e+06
2.0348e+06
2.03046e+06
2.0767e+06
2.07425e+06
2.07438e+06
2.07188e+06
2.07175e+06
2.06881e+06
2.06826e+06
2.06493e+06
2.06396e+06
2.06033e+06
2.05902e+06
2.05519e+06
2.05359e+06
2.04961e+06
2.04775e+06
2.04363e+06
2.04153e+06
2.03726e+06
2.03498e+06
2.03079e+06
2.07631e+06
2.07391e+06
2.07404e+06
2.0715e+06
2.07136e+06
2.06839e+06
2.06783e+06
2.06448e+06
2.06352e+06
2.05988e+06
2.05857e+06
2.05473e+06
2.05312e+06
2.04914e+06
2.04727e+06
2.04315e+06
2.04104e+06
2.03676e+06
2.0345e+06
2.03032e+06
2.07645e+06
2.07398e+06
2.07407e+06
2.07156e+06
2.07143e+06
2.06849e+06
2.06795e+06
2.06462e+06
2.06366e+06
2.06003e+06
2.05872e+06
2.05489e+06
2.05329e+06
2.04931e+06
2.04744e+06
2.04332e+06
2.04121e+06
2.03693e+06
2.03463e+06
2.03046e+06
2.0763e+06
2.0739e+06
2.074e+06
2.07146e+06
2.0713e+06
2.06833e+06
2.06778e+06
2.06443e+06
2.06349e+06
2.05986e+06
2.05856e+06
2.05473e+06
2.05312e+06
2.04914e+06
2.04727e+06
2.04315e+06
2.04104e+06
2.03675e+06
2.03448e+06
2.03023e+06
2.07641e+06
2.07397e+06
2.07404e+06
2.07152e+06
2.07137e+06
2.06842e+06
2.06788e+06
2.06455e+06
2.06361e+06
2.05999e+06
2.05869e+06
2.05487e+06
2.05328e+06
2.0493e+06
2.04744e+06
2.04332e+06
2.04119e+06
2.03691e+06
2.03459e+06
2.03034e+06
2.0763e+06
2.07388e+06
2.07397e+06
2.07143e+06
2.07128e+06
2.06831e+06
2.06776e+06
2.06442e+06
2.06349e+06
2.05987e+06
2.05858e+06
2.05475e+06
2.05316e+06
2.04918e+06
2.04732e+06
2.0432e+06
2.04109e+06
2.0368e+06
2.03451e+06
2.0302e+06
2.07638e+06
2.07395e+06
2.07402e+06
2.07149e+06
2.07134e+06
2.06838e+06
2.06784e+06
2.06451e+06
2.06357e+06
2.05995e+06
2.05866e+06
2.05484e+06
2.05325e+06
2.04928e+06
2.04742e+06
2.04331e+06
2.04119e+06
2.0369e+06
2.03457e+06
2.03027e+06
2.07631e+06
2.07389e+06
2.07396e+06
2.07141e+06
2.07126e+06
2.0683e+06
2.06776e+06
2.06443e+06
2.06349e+06
2.05988e+06
2.05859e+06
2.05477e+06
2.05318e+06
2.04921e+06
2.04735e+06
2.04323e+06
2.04112e+06
2.03683e+06
2.03452e+06
2.0302e+06
2.07635e+06
2.07393e+06
2.074e+06
2.07146e+06
2.07131e+06
2.06835e+06
2.0678e+06
2.06448e+06
2.06354e+06
2.05992e+06
2.05863e+06
2.05481e+06
2.05322e+06
2.04925e+06
2.0474e+06
2.04328e+06
2.04116e+06
2.03688e+06
2.03455e+06
2.03023e+06
2.07632e+06
2.0739e+06
2.07397e+06
2.07143e+06
2.07127e+06
2.06832e+06
2.06777e+06
2.06445e+06
2.06351e+06
2.0599e+06
2.05861e+06
2.05479e+06
2.0532e+06
2.04923e+06
2.04737e+06
2.04325e+06
2.04114e+06
2.03686e+06
2.03453e+06
2.03021e+06
2.07632e+06
2.0739e+06
2.07397e+06
2.07143e+06
2.07127e+06
2.06832e+06
2.06777e+06
2.06445e+06
2.06351e+06
2.0599e+06
2.05861e+06
2.05479e+06
2.0532e+06
2.04923e+06
2.04737e+06
2.04326e+06
2.04114e+06
2.03686e+06
2.03453e+06
2.03021e+06
2.07635e+06
2.07393e+06
2.074e+06
2.07146e+06
2.07131e+06
2.06835e+06
2.0678e+06
2.06448e+06
2.06354e+06
2.05992e+06
2.05863e+06
2.05481e+06
2.05322e+06
2.04925e+06
2.0474e+06
2.04328e+06
2.04116e+06
2.03688e+06
2.03455e+06
2.03023e+06
2.07631e+06
2.07389e+06
2.07396e+06
2.07141e+06
2.07126e+06
2.0683e+06
2.06776e+06
2.06443e+06
2.06349e+06
2.05988e+06
2.05859e+06
2.05477e+06
2.05318e+06
2.04921e+06
2.04735e+06
2.04323e+06
2.04112e+06
2.03683e+06
2.03452e+06
2.0302e+06
2.07638e+06
2.07395e+06
2.07402e+06
2.07149e+06
2.07134e+06
2.06838e+06
2.06784e+06
2.06451e+06
2.06357e+06
2.05995e+06
2.05866e+06
2.05484e+06
2.05325e+06
2.04928e+06
2.04742e+06
2.0433e+06
2.04118e+06
2.0369e+06
2.03457e+06
2.03027e+06
2.0763e+06
2.07388e+06
2.07397e+06
2.07143e+06
2.07128e+06
2.06831e+06
2.06776e+06
2.06442e+06
2.06349e+06
2.05987e+06
2.05858e+06
2.05475e+06
2.05316e+06
2.04918e+06
2.04732e+06
2.0432e+06
2.04109e+06
2.0368e+06
2.03451e+06
2.0302e+06
2.07641e+06
2.07397e+06
2.07404e+06
2.07152e+06
2.07137e+06
2.06842e+06
2.06788e+06
2.06455e+06
2.06361e+06
2.05999e+06
2.05869e+06
2.05487e+06
2.05327e+06
2.0493e+06
2.04744e+06
2.04332e+06
2.04119e+06
2.03691e+06
2.03459e+06
2.03034e+06
2.0763e+06
2.0739e+06
2.074e+06
2.07146e+06
2.0713e+06
2.06833e+06
2.06778e+06
2.06443e+06
2.06349e+06
2.05986e+06
2.05856e+06
2.05473e+06
2.05312e+06
2.04914e+06
2.04727e+06
2.04315e+06
2.04104e+06
2.03675e+06
2.03448e+06
2.03023e+06
2.07645e+06
2.07398e+06
2.07407e+06
2.07156e+06
2.07143e+06
2.06849e+06
2.06795e+06
2.06462e+06
2.06366e+06
2.06003e+06
2.05872e+06
2.05489e+06
2.05329e+06
2.04931e+06
2.04744e+06
2.04332e+06
2.0412e+06
2.03693e+06
2.03463e+06
2.03046e+06
2.07631e+06
2.07391e+06
2.07404e+06
2.0715e+06
2.07135e+06
2.06839e+06
2.06783e+06
2.06448e+06
2.06352e+06
2.05988e+06
2.05857e+06
2.05473e+06
2.05312e+06
2.04914e+06
2.04727e+06
2.04315e+06
2.04104e+06
2.03676e+06
2.0345e+06
2.03032e+06
2.0767e+06
2.07425e+06
2.07438e+06
2.07188e+06
2.07175e+06
2.06881e+06
2.06826e+06
2.06493e+06
2.06396e+06
2.06033e+06
2.05902e+06
2.05519e+06
2.05359e+06
2.04961e+06
2.04775e+06
2.04363e+06
2.04153e+06
2.03726e+06
2.03498e+06
2.03079e+06
2.02521e+06
2.00712e+06
1.99679e+06
1.97747e+06
1.9651e+06
1.94463e+06
1.93064e+06
1.9092e+06
1.8938e+06
1.87149e+06
1.85482e+06
1.83173e+06
1.81392e+06
1.79014e+06
1.77129e+06
1.74688e+06
1.72707e+06
1.7021e+06
1.68142e+06
1.65593e+06
1.63445e+06
1.60849e+06
1.58628e+06
1.55991e+06
1.53703e+06
1.51028e+06
1.48679e+06
1.45971e+06
1.43567e+06
1.4083e+06
1.38376e+06
1.35613e+06
1.33116e+06
1.30332e+06
1.27795e+06
1.24994e+06
1.22424e+06
1.1961e+06
1.17013e+06
1.14191e+06
1.11572e+06
1.08747e+06
1.0611e+06
1.0328e+06
1.00621e+06
977879
951216
923004
896363
868320
841772
813953
787557
760004
733813
706567
680636
653737
628118
601608
576357
550280
525455
499857
475521
450454
426674
402192
379043
355209
332769
309654
288016
265696
244961
223532
203813