/*--------------------------------*- C++ -*----------------------------------*\
  =========                 |
  \\      /  F ield         | OpenFOAM: The Open Source CFD Toolbox
   \\    /   O peration     | Website:  https://openfoam.org
    \\  /    A nd           | Version:  7
     \\/     M anipulation  |
\*---------------------------------------------------------------------------*/
FoamFile
{
    version     2.0;
    format      ascii;
    class       volScalarField;
    location    "1.285";
    object      rho;
}
// * * * * * * * * * * * * * * * * * * * * * * * * * * * * * * * * * * * * * //

dimensions      [1 -3 0 0 0 0 0];

internalField   nonuniform List<scalar> 
4950
(
1.23466
1.23433
1.23443
1.23415
1.23427
1.23404
1.23413
1.23393
1.234
1.23384
1.2339
1.23379
1.23386
1.23379
1.23385
1.23382
1.23383
1.23388
1.23375
1.23418
1.23462
1.23459
1.23478
1.23459
1.23467
1.23443
1.23441
1.23416
1.23409
1.23387
1.23381
1.23368
1.23367
1.23364
1.23365
1.23375
1.23368
1.234
1.23354
1.23455
1.23489
1.23501
1.23545
1.23534
1.2356
1.23539
1.23547
1.2352
1.23518
1.23489
1.2348
1.23453
1.23444
1.23428
1.23424
1.23424
1.23422
1.23441
1.23431
1.23475
1.2346
1.2347
1.23504
1.235
1.2352
1.23506
1.23509
1.23491
1.23485
1.23464
1.23451
1.23426
1.2341
1.23391
1.23381
1.23374
1.23372
1.23377
1.23382
1.23393
1.23487
1.23502
1.2355
1.23543
1.23572
1.23555
1.23566
1.23544
1.23546
1.23521
1.23514
1.23486
1.23473
1.23448
1.23441
1.23427
1.23429
1.23424
1.23437
1.23439
1.2346
1.2347
1.23504
1.235
1.2352
1.23506
1.23509
1.23491
1.23485
1.23464
1.23451
1.23426
1.2341
1.2339
1.23382
1.23373
1.23374
1.23374
1.23384
1.23391
1.23489
1.23501
1.23545
1.23534
1.2356
1.23539
1.23547
1.2352
1.23518
1.23489
1.23481
1.23452
1.23445
1.23426
1.23427
1.2342
1.23429
1.2343
1.23445
1.23456
1.23462
1.23459
1.23478
1.23459
1.23467
1.23443
1.23441
1.23416
1.23409
1.23387
1.23381
1.23367
1.23368
1.23362
1.23369
1.23369
1.23378
1.23381
1.2339
1.23392
1.23466
1.23433
1.23443
1.23415
1.23427
1.23404
1.23413
1.23393
1.234
1.23384
1.2339
1.23379
1.23386
1.23378
1.23386
1.2338
1.23387
1.23382
1.23388
1.23381
1.23303
1.2332
1.23297
1.23311
1.23284
1.23292
1.23268
1.23275
1.23257
1.23265
1.23253
1.23263
1.23255
1.23266
1.23259
1.23273
1.2326
1.2329
1.2323
1.23386
1.23328
1.23358
1.23353
1.23371
1.23357
1.23358
1.23337
1.23328
1.23306
1.23294
1.23275
1.2327
1.2326
1.23267
1.23261
1.23283
1.23269
1.23317
1.23265
1.23376
1.23301
1.23326
1.2331
1.23333
1.23315
1.23322
1.23297
1.23294
1.23267
1.23257
1.23227
1.23217
1.23194
1.23194
1.23181
1.23196
1.23186
1.23218
1.23206
1.23252
1.23328
1.23359
1.23356
1.23377
1.23368
1.23371
1.23356
1.2335
1.23332
1.23319
1.23296
1.23279
1.23257
1.23247
1.23235
1.23236
1.23234
1.23244
1.23253
1.23269
1.23301
1.23325
1.23309
1.23334
1.23317
1.23325
1.23302
1.23302
1.23278
1.23271
1.23244
1.23231
1.23205
1.23197
1.23183
1.23184
1.2318
1.23188
1.23196
1.23206
1.23328
1.23359
1.23356
1.23377
1.23368
1.23371
1.23356
1.2335
1.23332
1.23319
1.23296
1.23278
1.23257
1.23246
1.23236
1.23235
1.23235
1.23242
1.23255
1.23268
1.23301
1.23326
1.2331
1.23333
1.23315
1.23322
1.23297
1.23294
1.23267
1.23257
1.23228
1.23216
1.23195
1.23192
1.23184
1.23191
1.23193
1.23208
1.23218
1.23236
1.23328
1.23358
1.23353
1.23371
1.23357
1.23358
1.23337
1.23328
1.23306
1.23294
1.23276
1.23269
1.23261
1.23264
1.23266
1.23274
1.23283
1.23293
1.23304
1.23312
1.23303
1.2332
1.23297
1.23311
1.23284
1.23292
1.23268
1.23275
1.23257
1.23265
1.23253
1.23263
1.23255
1.23265
1.23261
1.2327
1.23267
1.23274
1.23272
1.23277
1.23316
1.23331
1.23339
1.23343
1.23334
1.23323
1.23303
1.23291
1.23279
1.23279
1.23276
1.23282
1.2328
1.23288
1.2328
1.23299
1.23268
1.23334
1.232
1.23465
1.23316
1.23333
1.23347
1.23358
1.23356
1.2335
1.23335
1.23319
1.23297
1.23277
1.23256
1.23246
1.23233
1.23241
1.23232
1.23262
1.23244
1.23305
1.23252
1.23355
1.23316
1.23332
1.23344
1.23355
1.23353
1.23348
1.23335
1.23322
1.23302
1.23283
1.23257
1.23238
1.23218
1.23212
1.23201
1.2321
1.23206
1.23229
1.23233
1.23266
1.23316
1.23333
1.23348
1.23359
1.23359
1.23354
1.23344
1.23332
1.23315
1.23297
1.23273
1.23253
1.23234
1.23223
1.23215
1.23214
1.23215
1.23222
1.23235
1.23249
1.23316
1.23332
1.23344
1.23355
1.23353
1.23348
1.23336
1.23324
1.23306
1.23288
1.23264
1.23244
1.23224
1.23213
1.23204
1.23202
1.23202
1.23207
1.23219
1.23231
1.23316
1.23333
1.23348
1.23359
1.23359
1.23354
1.23344
1.23332
1.23315
1.23297
1.23273
1.23253
1.23234
1.23223
1.23215
1.23214
1.23215
1.23222
1.23234
1.23251
1.23316
1.23332
1.23344
1.23355
1.23353
1.23348
1.23335
1.23322
1.23303
1.23282
1.23257
1.23237
1.23219
1.2321
1.23204
1.23206
1.2321
1.23225
1.23238
1.23261
1.23316
1.23333
1.23347
1.23357
1.23356
1.2335
1.23335
1.23319
1.23297
1.23277
1.23257
1.23244
1.23236
1.23236
1.2324
1.2325
1.23263
1.23277
1.23291
1.23303
1.23316
1.23331
1.23339
1.23343
1.23334
1.23323
1.23303
1.23291
1.23279
1.23278
1.23277
1.23281
1.23281
1.23285
1.23285
1.23289
1.23289
1.2329
1.23292
1.23286
1.23303
1.2332
1.23297
1.23311
1.23284
1.23292
1.23268
1.23275
1.23257
1.23265
1.23253
1.23263
1.23255
1.23266
1.23259
1.23273
1.2326
1.2329
1.2323
1.23386
1.23328
1.23358
1.23353
1.23371
1.23357
1.23358
1.23337
1.23328
1.23306
1.23294
1.23275
1.2327
1.2326
1.23267
1.23261
1.23283
1.23269
1.23317
1.23265
1.23376
1.23301
1.23326
1.2331
1.23333
1.23315
1.23322
1.23297
1.23294
1.23267
1.23257
1.23227
1.23217
1.23194
1.23194
1.23181
1.23196
1.23186
1.23218
1.23206
1.23252
1.23328
1.23359
1.23356
1.23377
1.23368
1.23371
1.23356
1.2335
1.23332
1.23319
1.23296
1.23279
1.23257
1.23247
1.23235
1.23236
1.23234
1.23244
1.23253
1.23269
1.23301
1.23325
1.23309
1.23334
1.23317
1.23325
1.23302
1.23302
1.23278
1.23271
1.23244
1.23231
1.23205
1.23197
1.23183
1.23184
1.2318
1.23188
1.23196
1.23206
1.23328
1.23359
1.23356
1.23377
1.23368
1.23371
1.23356
1.2335
1.23332
1.23319
1.23296
1.23278
1.23257
1.23246
1.23236
1.23235
1.23235
1.23242
1.23255
1.23268
1.23301
1.23326
1.2331
1.23333
1.23315
1.23322
1.23297
1.23294
1.23267
1.23257
1.23228
1.23216
1.23195
1.23192
1.23184
1.23191
1.23193
1.23208
1.23218
1.23236
1.23328
1.23358
1.23353
1.23371
1.23357
1.23358
1.23337
1.23328
1.23306
1.23294
1.23276
1.23269
1.23261
1.23264
1.23266
1.23274
1.23283
1.23293
1.23304
1.23312
1.23303
1.2332
1.23297
1.23311
1.23284
1.23292
1.23268
1.23275
1.23257
1.23265
1.23253
1.23263
1.23255
1.23265
1.23261
1.2327
1.23267
1.23274
1.23272
1.23277
1.23466
1.23433
1.23443
1.23415
1.23427
1.23404
1.23413
1.23393
1.234
1.23384
1.2339
1.23379
1.23386
1.23379
1.23385
1.23382
1.23383
1.23388
1.23375
1.23418
1.23462
1.23459
1.23478
1.23459
1.23467
1.23443
1.23441
1.23416
1.23409
1.23387
1.23381
1.23368
1.23367
1.23364
1.23365
1.23375
1.23368
1.234
1.23354
1.23455
1.23489
1.23501
1.23545
1.23534
1.2356
1.23539
1.23547
1.2352
1.23518
1.23489
1.2348
1.23453
1.23444
1.23428
1.23424
1.23424
1.23422
1.23441
1.23431
1.23475
1.2346
1.2347
1.23504
1.235
1.2352
1.23506
1.23509
1.23491
1.23485
1.23464
1.23451
1.23426
1.2341
1.23391
1.23381
1.23374
1.23372
1.23377
1.23382
1.23393
1.23487
1.23502
1.2355
1.23543
1.23572
1.23555
1.23566
1.23544
1.23546
1.23521
1.23514
1.23486
1.23473
1.23448
1.23441
1.23427
1.23429
1.23424
1.23437
1.23439
1.2346
1.2347
1.23504
1.235
1.2352
1.23506
1.23509
1.23491
1.23485
1.23464
1.23451
1.23426
1.2341
1.2339
1.23382
1.23373
1.23374
1.23374
1.23384
1.23391
1.23489
1.23501
1.23545
1.23534
1.2356
1.23539
1.23547
1.2352
1.23518
1.23489
1.23481
1.23452
1.23445
1.23426
1.23427
1.2342
1.23429
1.2343
1.23445
1.23456
1.23462
1.23459
1.23478
1.23459
1.23467
1.23443
1.23441
1.23416
1.23409
1.23387
1.23381
1.23367
1.23368
1.23362
1.23369
1.23369
1.23378
1.23381
1.2339
1.23392
1.23466
1.23433
1.23443
1.23415
1.23427
1.23404
1.23413
1.23393
1.234
1.23384
1.2339
1.23379
1.23386
1.23378
1.23386
1.2338
1.23387
1.23382
1.23388
1.23381
1.22703
1.22097
1.2171
1.21396
1.21167
1.2095
1.20763
1.20569
1.20404
1.20244
1.20115
1.19988
1.19882
1.19777
1.19691
1.19611
1.19553
1.19503
1.19472
1.19444
1.1943
1.19414
1.19407
1.19396
1.19392
1.19383
1.19379
1.19371
1.19367
1.1936
1.19355
1.19348
1.19344
1.19336
1.19332
1.19325
1.1932
1.19313
1.19308
1.19301
1.19296
1.19289
1.19285
1.19278
1.19273
1.19266
1.19261
1.19254
1.19249
1.19242
1.19237
1.1923
1.19225
1.19218
1.19213
1.19207
1.19201
1.19195
1.19189
1.19183
1.19178
1.19171
1.19166
1.1916
1.19154
1.19148
1.19143
1.19137
1.19132
1.19126
1.1912
1.19115
1.1911
1.19104
1.19099
1.19093
1.19088
1.19083
1.19078
1.19073
1.19068
1.19063
1.19058
1.19053
1.19049
1.19044
1.1904
1.19035
1.19031
1.19027
1.23079
1.22563
1.22189
1.21877
1.21647
1.21437
1.21257
1.21069
1.20902
1.2074
1.20606
1.20479
1.20372
1.20266
1.20177
1.20092
1.20029
1.19974
1.19937
1.19906
1.19888
1.19871
1.19863
1.19852
1.19847
1.19838
1.19834
1.19826
1.19822
1.19814
1.1981
1.19803
1.19798
1.19791
1.19787
1.19779
1.19775
1.19768
1.19763
1.19756
1.19751
1.19744
1.19739
1.19732
1.19727
1.19721
1.19716
1.19709
1.19704
1.19697
1.19692
1.19685
1.1968
1.19673
1.19668
1.19661
1.19656
1.1965
1.19644
1.19638
1.19632
1.19626
1.19621
1.19614
1.19609
1.19603
1.19598
1.19592
1.19586
1.19581
1.19575
1.1957
1.19564
1.19559
1.19554
1.19548
1.19543
1.19538
1.19533
1.19528
1.19523
1.19518
1.19513
1.19508
1.19504
1.19498
1.19494
1.19489
1.19486
1.19482
1.23418
1.23125
1.22838
1.2255
1.22335
1.22143
1.21988
1.21817
1.21657
1.21492
1.21355
1.21227
1.21123
1.21018
1.20928
1.20837
1.20765
1.20699
1.20654
1.20615
1.20592
1.2057
1.20559
1.20547
1.20541
1.20531
1.20527
1.20519
1.20515
1.20507
1.20503
1.20495
1.20491
1.20483
1.20479
1.20472
1.20467
1.2046
1.20455
1.20448
1.20443
1.20436
1.20431
1.20424
1.20419
1.20412
1.20407
1.204
1.20395
1.20389
1.20383
1.20377
1.20371
1.20365
1.20359
1.20353
1.20347
1.20341
1.20335
1.20329
1.20324
1.20317
1.20312
1.20306
1.203
1.20294
1.20289
1.20283
1.20277
1.20272
1.20266
1.20261
1.20255
1.2025
1.20245
1.20239
1.20234
1.20229
1.20224
1.20219
1.20214
1.20209
1.20204
1.20199
1.20195
1.20189
1.20185
1.2018
1.20176
1.20173
1.23433
1.23334
1.2316
1.22932
1.22751
1.22596
1.22478
1.22341
1.22201
1.22046
1.21914
1.21793
1.21697
1.216
1.21515
1.21425
1.21349
1.21277
1.21225
1.2118
1.21151
1.21127
1.21113
1.21099
1.21092
1.21083
1.21078
1.2107
1.21065
1.21058
1.21053
1.21046
1.21042
1.21034
1.2103
1.21022
1.21018
1.2101
1.21006
1.20999
1.20994
1.20987
1.20982
1.20975
1.2097
1.20963
1.20958
1.20951
1.20946
1.20939
1.20934
1.20927
1.20921
1.20915
1.20909
1.20903
1.20897
1.20891
1.20885
1.20879
1.20873
1.20867
1.20862
1.20855
1.2085
1.20844
1.20838
1.20832
1.20827
1.20821
1.20816
1.2081
1.20805
1.20799
1.20794
1.20788
1.20783
1.20778
1.20773
1.20767
1.20763
1.20757
1.20753
1.20747
1.20743
1.20738
1.20734
1.20729
1.20725
1.20721
1.23507
1.23487
1.23397
1.23228
1.23094
1.22978
1.22901
1.22797
1.22685
1.22548
1.22432
1.22325
1.22243
1.2216
1.22085
1.22002
1.21929
1.21858
1.21805
1.21759
1.21729
1.21703
1.21689
1.21674
1.21667
1.21657
1.21652
1.21644
1.21639
1.21631
1.21627
1.21619
1.21615
1.21607
1.21603
1.21595
1.21591
1.21583
1.21579
1.21571
1.21566
1.21559
1.21554
1.21547
1.21542
1.21535
1.2153
1.21523
1.21518
1.21511
1.21505
1.21499
1.21493
1.21486
1.21481
1.21474
1.21469
1.21462
1.21457
1.2145
1.21444
1.21438
1.21432
1.21426
1.21421
1.21414
1.21409
1.21403
1.21397
1.21391
1.21386
1.2138
1.21375
1.21369
1.21364
1.21358
1.21353
1.21348
1.21343
1.21337
1.21332
1.21327
1.21322
1.21317
1.21313
1.21307
1.21303
1.21298
1.21293
1.21289
1.23439
1.23442
1.23389
1.23271
1.23183
1.2311
1.23066
1.22993
1.22908
1.22799
1.22707
1.22623
1.22561
1.22494
1.22434
1.22364
1.22303
1.22241
1.22195
1.22154
1.22128
1.22104
1.22092
1.22078
1.22071
1.22061
1.22056
1.22048
1.22044
1.22036
1.22031
1.22023
1.22019
1.22011
1.22007
1.21999
1.21995
1.21987
1.21982
1.21975
1.2197
1.21963
1.21958
1.2195
1.21945
1.21938
1.21933
1.21926
1.2192
1.21913
1.21908
1.21901
1.21895
1.21889
1.21883
1.21876
1.21871
1.21864
1.21858
1.21852
1.21846
1.21839
1.21834
1.21827
1.21822
1.21815
1.2181
1.21804
1.21798
1.21792
1.21786
1.2178
1.21775
1.21769
1.21764
1.21758
1.21753
1.21747
1.21742
1.21737
1.21732
1.21726
1.21721
1.21716
1.21711
1.21706
1.21701
1.21697
1.21691
1.21687
1.23492
1.23476
1.23442
1.2336
1.23313
1.2327
1.23248
1.23195
1.23135
1.23056
1.22995
1.22936
1.22895
1.22846
1.22803
1.2275
1.22705
1.22658
1.22625
1.22594
1.22575
1.22556
1.22546
1.22533
1.22527
1.22518
1.22513
1.22505
1.225
1.22492
1.22488
1.2248
1.22475
1.22467
1.22463
1.22455
1.2245
1.22442
1.22437
1.2243
1.22425
1.22417
1.22412
1.22405
1.22399
1.22392
1.22387
1.22379
1.22374
1.22367
1.22361
1.22354
1.22348
1.22341
1.22336
1.22329
1.22323
1.22316
1.2231
1.22303
1.22298
1.22291
1.22285
1.22278
1.22273
1.22266
1.2226
1.22254
1.22248
1.22242
1.22236
1.2223
1.22225
1.22219
1.22213
1.22207
1.22202
1.22196
1.22191
1.22185
1.2218
1.22174
1.22169
1.22164
1.22159
1.22153
1.22149
1.22144
1.22138
1.22133
1.23393
1.23372
1.23351
1.23305
1.23287
1.23264
1.23253
1.23218
1.23185
1.23139
1.23108
1.23074
1.23052
1.23021
1.22997
1.22963
1.22938
1.22909
1.22891
1.2287
1.22859
1.22845
1.22839
1.22828
1.22823
1.22814
1.2281
1.22802
1.22797
1.22789
1.22784
1.22776
1.22772
1.22764
1.22759
1.22751
1.22746
1.22738
1.22733
1.22726
1.2272
1.22713
1.22708
1.227
1.22695
1.22687
1.22682
1.22674
1.22669
1.22661
1.22656
1.22648
1.22643
1.22635
1.2263
1.22623
1.22617
1.2261
1.22604
1.22597
1.22591
1.22584
1.22578
1.22571
1.22565
1.22559
1.22553
1.22546
1.2254
1.22534
1.22528
1.22522
1.22516
1.2251
1.22504
1.22498
1.22492
1.22487
1.22481
1.22475
1.2247
1.22464
1.22459
1.22453
1.22448
1.22442
1.22437
1.22432
1.22426
1.22421
1.23396
1.23376
1.23371
1.23346
1.23342
1.23325
1.23321
1.23301
1.2329
1.23268
1.23257
1.2324
1.23231
1.23215
1.23205
1.23188
1.23178
1.23163
1.23155
1.23143
1.23137
1.23127
1.23122
1.23113
1.23109
1.231
1.23096
1.23087
1.23083
1.23075
1.2307
1.23062
1.23057
1.23049
1.23044
1.23037
1.23032
1.23024
1.23019
1.23011
1.23006
1.22998
1.22993
1.22985
1.2298
1.22972
1.22967
1.2296
1.22954
1.22947
1.22941
1.22934
1.22928
1.22921
1.22915
1.22908
1.22902
1.22895
1.22889
1.22882
1.22876
1.22869
1.22863
1.22856
1.22851
1.22844
1.22838
1.22831
1.22826
1.22819
1.22813
1.22807
1.22801
1.22795
1.2279
1.22784
1.22778
1.22772
1.22767
1.22761
1.22756
1.2275
1.22745
1.22739
1.22734
1.22728
1.22723
1.22718
1.22713
1.22708
1.22429
1.21764
1.21354
1.21055
1.20818
1.20611
1.20418
1.20233
1.20066
1.19913
1.19783
1.1966
1.19554
1.19451
1.19366
1.19289
1.19233
1.19185
1.19155
1.19129
1.19115
1.19101
1.19095
1.19085
1.19081
1.19073
1.19069
1.19062
1.19058
1.19051
1.19047
1.19039
1.19035
1.19028
1.19024
1.19017
1.19013
1.19005
1.19001
1.18994
1.18989
1.18982
1.18978
1.18971
1.18966
1.18959
1.18954
1.18947
1.18942
1.18936
1.1893
1.18924
1.18919
1.18912
1.18907
1.189
1.18895
1.18888
1.18883
1.18877
1.18871
1.18865
1.1886
1.18853
1.18848
1.18842
1.18837
1.18831
1.18825
1.18819
1.18814
1.18808
1.18803
1.18798
1.18792
1.18787
1.18782
1.18777
1.18771
1.18766
1.18761
1.18756
1.18751
1.18746
1.1874
1.18735
1.1873
1.18725
1.18718
1.18712
1.23041
1.22549
1.22168
1.21865
1.21628
1.21425
1.21243
1.21061
1.20892
1.20732
1.20596
1.2047
1.20362
1.20257
1.20167
1.20083
1.20019
1.19963
1.19926
1.19894
1.19876
1.19859
1.19851
1.1984
1.19835
1.19827
1.19823
1.19815
1.19811
1.19804
1.198
1.19793
1.19789
1.19781
1.19777
1.1977
1.19766
1.19758
1.19754
1.19747
1.19742
1.19735
1.1973
1.19723
1.19719
1.19712
1.19707
1.197
1.19695
1.19688
1.19683
1.19676
1.19671
1.19664
1.19659
1.19652
1.19647
1.19641
1.19635
1.19629
1.19623
1.19617
1.19612
1.19606
1.196
1.19594
1.19589
1.19583
1.19577
1.19571
1.19566
1.1956
1.19555
1.1955
1.19544
1.19539
1.19534
1.19528
1.19523
1.19518
1.19513
1.19508
1.19503
1.19498
1.19492
1.19487
1.19482
1.19478
1.1947
1.19465
1.23212
1.22982
1.22696
1.22429
1.2221
1.22032
1.21876
1.21715
1.21554
1.21394
1.21255
1.21129
1.21024
1.20921
1.2083
1.2074
1.20667
1.20601
1.20554
1.20514
1.2049
1.20469
1.20457
1.20445
1.20439
1.20431
1.20427
1.20419
1.20415
1.20408
1.20404
1.20396
1.20392
1.20385
1.20381
1.20374
1.20369
1.20362
1.20358
1.20351
1.20346
1.20339
1.20334
1.20327
1.20322
1.20315
1.2031
1.20304
1.20299
1.20292
1.20287
1.2028
1.20275
1.20268
1.20263
1.20256
1.20251
1.20244
1.20239
1.20232
1.20227
1.20221
1.20215
1.20209
1.20204
1.20198
1.20192
1.20186
1.20181
1.20175
1.2017
1.20164
1.20159
1.20153
1.20148
1.20142
1.20137
1.20132
1.20126
1.20121
1.20116
1.20111
1.20106
1.20101
1.20095
1.2009
1.20085
1.2008
1.20074
1.20069
1.23331
1.23275
1.23113
1.22906
1.22726
1.22583
1.22468
1.2234
1.22201
1.22049
1.21915
1.21795
1.21698
1.21604
1.21517
1.21428
1.2135
1.21277
1.21223
1.21176
1.21147
1.21121
1.21107
1.21093
1.21087
1.21077
1.21073
1.21065
1.21061
1.21053
1.21049
1.21042
1.21038
1.21031
1.21026
1.21019
1.21015
1.21007
1.21003
1.20996
1.20991
1.20984
1.20979
1.20972
1.20967
1.2096
1.20955
1.20948
1.20943
1.20936
1.20931
1.20924
1.20919
1.20913
1.20907
1.20901
1.20895
1.20889
1.20883
1.20877
1.20871
1.20865
1.20859
1.20853
1.20848
1.20842
1.20836
1.2083
1.20825
1.20819
1.20813
1.20808
1.20802
1.20797
1.20791
1.20786
1.20781
1.20775
1.2077
1.20765
1.2076
1.20755
1.20749
1.20744
1.20739
1.20734
1.20729
1.20724
1.20718
1.20713
1.23266
1.23295
1.2321
1.23068
1.22935
1.22838
1.22765
1.22675
1.22565
1.22435
1.22317
1.22212
1.2213
1.2205
1.21975
1.21894
1.2182
1.21748
1.21693
1.21646
1.21615
1.21588
1.21574
1.21559
1.21552
1.21542
1.21538
1.2153
1.21526
1.21518
1.21514
1.21507
1.21503
1.21495
1.21491
1.21484
1.21479
1.21472
1.21468
1.2146
1.21456
1.21449
1.21444
1.21437
1.21432
1.21425
1.2142
1.21413
1.21408
1.21401
1.21395
1.21389
1.21383
1.21377
1.21371
1.21365
1.21359
1.21352
1.21347
1.2134
1.21335
1.21329
1.21323
1.21317
1.21311
1.21305
1.213
1.21293
1.21288
1.21282
1.21277
1.21271
1.21265
1.2126
1.21254
1.21249
1.21244
1.21238
1.21233
1.21228
1.21222
1.21217
1.21212
1.21207
1.21201
1.21196
1.21191
1.21186
1.2118
1.21175
1.23333
1.23366
1.23318
1.23218
1.23132
1.23074
1.23035
1.22973
1.2289
1.22785
1.22692
1.2261
1.22547
1.22483
1.22423
1.22353
1.2229
1.22228
1.2218
1.22137
1.2211
1.22086
1.22073
1.22059
1.22052
1.22042
1.22038
1.2203
1.22026
1.22018
1.22014
1.22006
1.22002
1.21995
1.2199
1.21983
1.21978
1.21971
1.21966
1.21959
1.21954
1.21947
1.21942
1.21935
1.2193
1.21923
1.21917
1.2191
1.21905
1.21898
1.21893
1.21886
1.2188
1.21874
1.21868
1.21861
1.21856
1.21849
1.21844
1.21837
1.21831
1.21825
1.21819
1.21813
1.21807
1.21801
1.21795
1.21789
1.21784
1.21777
1.21772
1.21766
1.21761
1.21755
1.21749
1.21744
1.21738
1.21733
1.21728
1.21722
1.21717
1.21711
1.21706
1.21701
1.21696
1.2169
1.21685
1.2168
1.21674
1.21669
1.23268
1.23291
1.23252
1.2319
1.23142
1.23116
1.23097
1.23055
1.22995
1.2292
1.22857
1.22801
1.22759
1.22713
1.22668
1.22615
1.22568
1.22521
1.22486
1.22453
1.22433
1.22414
1.22404
1.22392
1.22386
1.22377
1.22373
1.22365
1.22361
1.22353
1.22349
1.22341
1.22337
1.22329
1.22325
1.22317
1.22313
1.22305
1.223
1.22293
1.22288
1.22281
1.22276
1.22268
1.22263
1.22256
1.22251
1.22243
1.22238
1.22231
1.22225
1.22218
1.22213
1.22206
1.222
1.22193
1.22188
1.22181
1.22175
1.22168
1.22163
1.22156
1.2215
1.22144
1.22138
1.22131
1.22126
1.22119
1.22114
1.22108
1.22102
1.22096
1.2209
1.22084
1.22079
1.22073
1.22067
1.22062
1.22056
1.22051
1.22045
1.2204
1.22034
1.22029
1.22023
1.22018
1.22012
1.22007
1.22001
1.21996
1.23332
1.23332
1.23306
1.23269
1.2325
1.23237
1.23227
1.23196
1.23159
1.23112
1.23077
1.23044
1.2302
1.22989
1.22961
1.22926
1.22897
1.22866
1.22845
1.22824
1.22811
1.22797
1.2279
1.2278
1.22775
1.22766
1.22762
1.22754
1.2275
1.22742
1.22737
1.22729
1.22725
1.22717
1.22712
1.22705
1.227
1.22692
1.22687
1.2268
1.22675
1.22667
1.22662
1.22654
1.22649
1.22642
1.22636
1.22629
1.22623
1.22616
1.2261
1.22603
1.22597
1.2259
1.22585
1.22577
1.22572
1.22565
1.22559
1.22552
1.22546
1.22539
1.22533
1.22526
1.22521
1.22514
1.22508
1.22501
1.22496
1.22489
1.22483
1.22477
1.22471
1.22465
1.2246
1.22454
1.22448
1.22442
1.22436
1.22431
1.22425
1.22419
1.22414
1.22408
1.22402
1.22397
1.22391
1.22386
1.2238
1.22374
1.23262
1.23258
1.23246
1.23233
1.23226
1.23219
1.23213
1.23198
1.23184
1.23164
1.23152
1.23136
1.23127
1.23111
1.231
1.23083
1.23072
1.23056
1.23047
1.23035
1.23029
1.23019
1.23014
1.23006
1.23001
1.22993
1.22989
1.22981
1.22976
1.22968
1.22964
1.22956
1.22951
1.22944
1.22939
1.22931
1.22926
1.22918
1.22913
1.22906
1.22901
1.22893
1.22888
1.2288
1.22875
1.22867
1.22862
1.22855
1.22849
1.22842
1.22836
1.22829
1.22823
1.22816
1.2281
1.22803
1.22797
1.2279
1.22784
1.22777
1.22771
1.22764
1.22758
1.22751
1.22745
1.22739
1.22733
1.22726
1.2272
1.22714
1.22708
1.22702
1.22696
1.2269
1.22684
1.22678
1.22672
1.22666
1.2266
1.22655
1.22649
1.22643
1.22638
1.22632
1.22626
1.22621
1.22615
1.22609
1.22604
1.22598
1.22336
1.21545
1.21101
1.20792
1.20547
1.20331
1.20132
1.19944
1.19777
1.19625
1.19494
1.19372
1.19264
1.19162
1.19077
1.19003
1.18949
1.18904
1.18876
1.18852
1.18839
1.18826
1.1882
1.18811
1.18807
1.18799
1.18795
1.18788
1.18785
1.18777
1.18774
1.18766
1.18762
1.18755
1.18751
1.18744
1.1874
1.18733
1.18728
1.18722
1.18717
1.1871
1.18705
1.18699
1.18694
1.18687
1.18682
1.18675
1.1867
1.18664
1.18659
1.18652
1.18647
1.1864
1.18635
1.18629
1.18623
1.18617
1.18612
1.18605
1.186
1.18594
1.18588
1.18582
1.18577
1.18571
1.18566
1.1856
1.18554
1.18549
1.18543
1.18538
1.18532
1.18527
1.18522
1.18516
1.18511
1.18506
1.18501
1.18496
1.1849
1.18485
1.1848
1.18475
1.1847
1.18465
1.1846
1.18455
1.18448
1.18441
1.231
1.22586
1.22175
1.21857
1.21609
1.21399
1.21209
1.21022
1.20849
1.20686
1.20548
1.2042
1.20309
1.20202
1.2011
1.20025
1.19959
1.19903
1.19865
1.19834
1.19816
1.19799
1.19791
1.1978
1.19775
1.19767
1.19763
1.19756
1.19752
1.19745
1.19741
1.19733
1.19729
1.19722
1.19718
1.19711
1.19706
1.19699
1.19695
1.19688
1.19683
1.19676
1.19671
1.19664
1.19659
1.19652
1.19647
1.19641
1.19636
1.19629
1.19624
1.19617
1.19612
1.19605
1.196
1.19593
1.19588
1.19581
1.19576
1.1957
1.19564
1.19558
1.19552
1.19546
1.19541
1.19535
1.19529
1.19523
1.19518
1.19512
1.19507
1.19501
1.19496
1.1949
1.19485
1.19479
1.19474
1.19469
1.19464
1.19458
1.19453
1.19448
1.19443
1.19438
1.19433
1.19428
1.19422
1.19418
1.19411
1.19405
1.23285
1.23096
1.2282
1.22548
1.22322
1.22138
1.21979
1.21815
1.21649
1.21483
1.21339
1.2121
1.21101
1.20995
1.20901
1.20808
1.20731
1.20661
1.20611
1.2057
1.20544
1.20521
1.2051
1.20497
1.20491
1.20482
1.20478
1.2047
1.20467
1.20459
1.20455
1.20448
1.20444
1.20437
1.20433
1.20425
1.20421
1.20414
1.2041
1.20402
1.20398
1.20391
1.20386
1.20379
1.20374
1.20367
1.20362
1.20356
1.2035
1.20344
1.20339
1.20332
1.20327
1.2032
1.20315
1.20308
1.20303
1.20296
1.20291
1.20284
1.20279
1.20273
1.20267
1.20261
1.20256
1.20249
1.20244
1.20238
1.20233
1.20227
1.20221
1.20216
1.2021
1.20205
1.202
1.20194
1.20189
1.20184
1.20178
1.20173
1.20168
1.20163
1.20158
1.20153
1.20147
1.20142
1.20137
1.20132
1.20126
1.20121
1.23314
1.23295
1.23158
1.22963
1.22785
1.22643
1.22531
1.22407
1.22268
1.22113
1.21973
1.21848
1.21748
1.21651
1.21563
1.2147
1.21388
1.21311
1.21251
1.21201
1.21168
1.21141
1.21126
1.21111
1.21104
1.21094
1.2109
1.21082
1.21078
1.2107
1.21066
1.21059
1.21055
1.21048
1.21044
1.21036
1.21032
1.21025
1.2102
1.21013
1.21009
1.21002
1.20997
1.2099
1.20985
1.20978
1.20973
1.20966
1.20961
1.20954
1.20949
1.20942
1.20937
1.2093
1.20925
1.20918
1.20913
1.20907
1.20901
1.20895
1.20889
1.20883
1.20877
1.20871
1.20866
1.2086
1.20854
1.20848
1.20843
1.20837
1.20831
1.20826
1.2082
1.20815
1.20809
1.20804
1.20799
1.20793
1.20788
1.20783
1.20778
1.20773
1.20767
1.20762
1.20757
1.20752
1.20747
1.20742
1.20736
1.20731
1.23293
1.23334
1.23272
1.23142
1.23015
1.22922
1.22858
1.22777
1.22672
1.2254
1.22418
1.22309
1.22224
1.22143
1.22067
1.21983
1.21905
1.21829
1.21769
1.21717
1.21682
1.21653
1.21636
1.21621
1.21613
1.21603
1.21598
1.2159
1.21586
1.21579
1.21575
1.21567
1.21563
1.21556
1.21552
1.21545
1.2154
1.21533
1.21528
1.21521
1.21517
1.2151
1.21505
1.21498
1.21493
1.21486
1.21481
1.21474
1.21469
1.21462
1.21457
1.2145
1.21444
1.21438
1.21432
1.21426
1.2142
1.21414
1.21408
1.21402
1.21396
1.2139
1.21384
1.21378
1.21373
1.21366
1.21361
1.21355
1.21349
1.21343
1.21338
1.21332
1.21327
1.21321
1.21316
1.2131
1.21305
1.213
1.21294
1.21289
1.21284
1.21279
1.21273
1.21268
1.21263
1.21258
1.21253
1.21248
1.21242
1.21237
1.23306
1.23343
1.23302
1.2321
1.2313
1.2308
1.23051
1.23
1.22922
1.22818
1.22722
1.22638
1.22574
1.22511
1.22451
1.2238
1.22314
1.22248
1.22196
1.2215
1.22119
1.22093
1.22079
1.22064
1.22057
1.22047
1.22042
1.22034
1.2203
1.22023
1.22019
1.22011
1.22007
1.22
1.21995
1.21988
1.21983
1.21976
1.21971
1.21964
1.21959
1.21952
1.21947
1.2194
1.21935
1.21928
1.21923
1.21916
1.21911
1.21904
1.21899
1.21892
1.21886
1.2188
1.21874
1.21867
1.21862
1.21855
1.2185
1.21843
1.21838
1.21831
1.21825
1.21819
1.21814
1.21807
1.21802
1.21796
1.2179
1.21784
1.21779
1.21773
1.21767
1.21762
1.21756
1.21751
1.21745
1.2174
1.21734
1.21729
1.21724
1.21718
1.21713
1.21708
1.21703
1.21698
1.21692
1.21687
1.21682
1.21677
1.23298
1.23314
1.23276
1.23216
1.23174
1.23156
1.23145
1.23108
1.2305
1.22975
1.22911
1.22854
1.22813
1.22767
1.22722
1.22668
1.22618
1.22568
1.2253
1.22496
1.22474
1.22454
1.22443
1.22431
1.22425
1.22416
1.22411
1.22403
1.22399
1.22392
1.22388
1.2238
1.22376
1.22368
1.22364
1.22356
1.22352
1.22344
1.22339
1.22332
1.22327
1.2232
1.22315
1.22308
1.22302
1.22295
1.2229
1.22283
1.22278
1.22271
1.22265
1.22258
1.22253
1.22246
1.2224
1.22233
1.22228
1.22221
1.22215
1.22208
1.22203
1.22196
1.2219
1.22184
1.22178
1.22172
1.22166
1.2216
1.22154
1.22148
1.22143
1.22137
1.22131
1.22125
1.2212
1.22114
1.22108
1.22103
1.22097
1.22092
1.22086
1.22081
1.22075
1.2207
1.22065
1.22059
1.22054
1.22049
1.22044
1.22039
1.23308
1.23303
1.23274
1.23241
1.23226
1.2322
1.23213
1.23184
1.23145
1.23099
1.23064
1.23031
1.23007
1.22976
1.22947
1.22911
1.2288
1.22848
1.22826
1.22803
1.22791
1.22776
1.22769
1.22759
1.22754
1.22745
1.22741
1.22733
1.22729
1.22721
1.22717
1.22709
1.22705
1.22697
1.22692
1.22685
1.2268
1.22672
1.22667
1.2266
1.22655
1.22647
1.22642
1.22635
1.22629
1.22622
1.22617
1.22609
1.22604
1.22597
1.22591
1.22584
1.22578
1.22571
1.22565
1.22558
1.22552
1.22545
1.2254
1.22533
1.22527
1.2252
1.22514
1.22507
1.22501
1.22495
1.22489
1.22483
1.22477
1.2247
1.22465
1.22458
1.22453
1.22447
1.22441
1.22435
1.22429
1.22423
1.22418
1.22412
1.22406
1.22401
1.22395
1.2239
1.22384
1.22379
1.22373
1.22367
1.22362
1.22357
1.23295
1.23291
1.23278
1.23265
1.23261
1.23256
1.2325
1.23234
1.23219
1.23199
1.23187
1.23171
1.23162
1.23145
1.23133
1.23115
1.23104
1.23088
1.23079
1.23067
1.2306
1.2305
1.23046
1.23037
1.23033
1.23024
1.2302
1.23012
1.23008
1.23
1.22995
1.22988
1.22983
1.22975
1.2297
1.22962
1.22958
1.2295
1.22945
1.22937
1.22932
1.22924
1.22919
1.22911
1.22906
1.22899
1.22893
1.22886
1.2288
1.22873
1.22867
1.2286
1.22854
1.22846
1.22841
1.22833
1.22828
1.2282
1.22814
1.22807
1.22801
1.22794
1.22788
1.22782
1.22776
1.22769
1.22763
1.22756
1.2275
1.22744
1.22738
1.22731
1.22726
1.22719
1.22713
1.22707
1.22702
1.22696
1.2269
1.22684
1.22678
1.22672
1.22667
1.22661
1.22655
1.2265
1.22644
1.22638
1.22633
1.22628
1.22429
1.21764
1.21354
1.21055
1.20818
1.20611
1.20418
1.20233
1.20066
1.19913
1.19783
1.1966
1.19554
1.19451
1.19366
1.19289
1.19233
1.19185
1.19155
1.19129
1.19115
1.19101
1.19095
1.19085
1.19081
1.19073
1.19069
1.19062
1.19058
1.19051
1.19047
1.19039
1.19035
1.19028
1.19024
1.19017
1.19013
1.19005
1.19001
1.18994
1.18989
1.18982
1.18978
1.18971
1.18966
1.18959
1.18954
1.18947
1.18942
1.18936
1.1893
1.18924
1.18919
1.18912
1.18907
1.189
1.18895
1.18888
1.18883
1.18877
1.18871
1.18865
1.1886
1.18853
1.18848
1.18842
1.18837
1.18831
1.18825
1.18819
1.18814
1.18808
1.18803
1.18798
1.18792
1.18787
1.18782
1.18777
1.18771
1.18766
1.18761
1.18756
1.18751
1.18746
1.1874
1.18735
1.1873
1.18725
1.18718
1.18712
1.23041
1.22549
1.22168
1.21865
1.21628
1.21425
1.21243
1.21061
1.20892
1.20732
1.20596
1.2047
1.20362
1.20257
1.20167
1.20083
1.20019
1.19963
1.19926
1.19894
1.19876
1.19859
1.19851
1.1984
1.19835
1.19827
1.19823
1.19815
1.19811
1.19804
1.198
1.19793
1.19789
1.19781
1.19777
1.1977
1.19766
1.19758
1.19754
1.19747
1.19742
1.19735
1.1973
1.19723
1.19719
1.19712
1.19707
1.197
1.19695
1.19688
1.19683
1.19676
1.19671
1.19664
1.19659
1.19652
1.19647
1.19641
1.19635
1.19629
1.19623
1.19617
1.19612
1.19606
1.196
1.19594
1.19589
1.19583
1.19577
1.19571
1.19566
1.1956
1.19555
1.1955
1.19544
1.19539
1.19534
1.19528
1.19523
1.19518
1.19513
1.19508
1.19503
1.19498
1.19492
1.19487
1.19482
1.19478
1.1947
1.19465
1.23212
1.22982
1.22696
1.22429
1.2221
1.22032
1.21876
1.21715
1.21554
1.21394
1.21255
1.21129
1.21024
1.20921
1.2083
1.2074
1.20667
1.20601
1.20554
1.20514
1.2049
1.20469
1.20457
1.20445
1.20439
1.20431
1.20427
1.20419
1.20415
1.20408
1.20404
1.20396
1.20392
1.20385
1.20381
1.20374
1.20369
1.20362
1.20358
1.20351
1.20346
1.20339
1.20334
1.20327
1.20322
1.20315
1.2031
1.20304
1.20299
1.20292
1.20287
1.2028
1.20275
1.20268
1.20263
1.20256
1.20251
1.20244
1.20239
1.20232
1.20227
1.20221
1.20215
1.20209
1.20204
1.20198
1.20192
1.20186
1.20181
1.20175
1.2017
1.20164
1.20159
1.20153
1.20148
1.20142
1.20137
1.20132
1.20126
1.20121
1.20116
1.20111
1.20106
1.20101
1.20095
1.2009
1.20085
1.2008
1.20074
1.20069
1.23331
1.23275
1.23113
1.22906
1.22726
1.22583
1.22468
1.2234
1.22201
1.22049
1.21915
1.21795
1.21698
1.21604
1.21517
1.21428
1.2135
1.21277
1.21223
1.21176
1.21147
1.21121
1.21107
1.21093
1.21087
1.21077
1.21073
1.21065
1.21061
1.21053
1.21049
1.21042
1.21038
1.21031
1.21026
1.21019
1.21015
1.21007
1.21003
1.20996
1.20991
1.20984
1.20979
1.20972
1.20967
1.2096
1.20955
1.20948
1.20943
1.20936
1.20931
1.20924
1.20919
1.20913
1.20907
1.20901
1.20895
1.20889
1.20883
1.20877
1.20871
1.20865
1.20859
1.20853
1.20848
1.20842
1.20836
1.2083
1.20825
1.20819
1.20813
1.20808
1.20802
1.20797
1.20791
1.20786
1.20781
1.20775
1.2077
1.20765
1.2076
1.20755
1.20749
1.20744
1.20739
1.20734
1.20729
1.20724
1.20718
1.20713
1.23266
1.23295
1.2321
1.23068
1.22935
1.22838
1.22765
1.22675
1.22565
1.22435
1.22317
1.22212
1.2213
1.2205
1.21975
1.21894
1.2182
1.21748
1.21693
1.21646
1.21615
1.21588
1.21574
1.21559