/*--------------------------------*- C++ -*----------------------------------*\
  =========                 |
  \\      /  F ield         | OpenFOAM: The Open Source CFD Toolbox
   \\    /   O peration     | Website:  https://openfoam.org
    \\  /    A nd           | Version:  7
     \\/     M anipulation  |
\*---------------------------------------------------------------------------*/
FoamFile
{
    version     2.0;
    format      ascii;
    class       volScalarField;
    location    "1.3675";
    object      pPrime2Mean;
}
// * * * * * * * * * * * * * * * * * * * * * * * * * * * * * * * * * * * * * //

dimensions      [2 -2 -4 0 0 0 0];

internalField   nonuniform List<scalar> 
4950
(
1.04725e+06
1.04607e+06
1.04613e+06
1.04486e+06
1.04485e+06
1.04329e+06
1.04311e+06
1.0413e+06
1.04091e+06
1.03889e+06
1.03831e+06
1.03617e+06
1.03543e+06
1.03321e+06
1.03236e+06
1.03007e+06
1.02911e+06
1.02676e+06
1.02576e+06
1.02358e+06
1.04737e+06
1.04611e+06
1.04613e+06
1.0448e+06
1.04477e+06
1.0432e+06
1.04302e+06
1.0412e+06
1.04082e+06
1.0388e+06
1.03823e+06
1.03607e+06
1.03534e+06
1.03311e+06
1.03225e+06
1.02995e+06
1.02899e+06
1.02663e+06
1.02559e+06
1.02346e+06
1.04726e+06
1.046e+06
1.04603e+06
1.04474e+06
1.04473e+06
1.04317e+06
1.04299e+06
1.04118e+06
1.0408e+06
1.03879e+06
1.03821e+06
1.03607e+06
1.03534e+06
1.03312e+06
1.03227e+06
1.02998e+06
1.02902e+06
1.02666e+06
1.02564e+06
1.02333e+06
1.0474e+06
1.0461e+06
1.0461e+06
1.04476e+06
1.04473e+06
1.04315e+06
1.04296e+06
1.04115e+06
1.04077e+06
1.03876e+06
1.03819e+06
1.03605e+06
1.03532e+06
1.03309e+06
1.03224e+06
1.02994e+06
1.02898e+06
1.02662e+06
1.02555e+06
1.02329e+06
1.04728e+06
1.04599e+06
1.04602e+06
1.04473e+06
1.04471e+06
1.04315e+06
1.04297e+06
1.04116e+06
1.04078e+06
1.03877e+06
1.0382e+06
1.03606e+06
1.03533e+06
1.03311e+06
1.03227e+06
1.02998e+06
1.02902e+06
1.02666e+06
1.02562e+06
1.02327e+06
1.0474e+06
1.0461e+06
1.0461e+06
1.04476e+06
1.04473e+06
1.04315e+06
1.04296e+06
1.04115e+06
1.04077e+06
1.03876e+06
1.03819e+06
1.03605e+06
1.03532e+06
1.03309e+06
1.03224e+06
1.02994e+06
1.02898e+06
1.02662e+06
1.02555e+06
1.02329e+06
1.04726e+06
1.046e+06
1.04603e+06
1.04474e+06
1.04473e+06
1.04317e+06
1.04299e+06
1.04118e+06
1.0408e+06
1.03879e+06
1.03821e+06
1.03607e+06
1.03534e+06
1.03312e+06
1.03227e+06
1.02998e+06
1.02902e+06
1.02666e+06
1.02564e+06
1.02333e+06
1.04737e+06
1.04611e+06
1.04613e+06
1.0448e+06
1.04477e+06
1.0432e+06
1.04302e+06
1.0412e+06
1.04082e+06
1.0388e+06
1.03823e+06
1.03607e+06
1.03534e+06
1.03311e+06
1.03225e+06
1.02995e+06
1.02899e+06
1.02663e+06
1.02559e+06
1.02346e+06
1.04725e+06
1.04607e+06
1.04613e+06
1.04486e+06
1.04485e+06
1.04329e+06
1.04311e+06
1.0413e+06
1.04091e+06
1.03889e+06
1.03831e+06
1.03617e+06
1.03543e+06
1.03321e+06
1.03236e+06
1.03007e+06
1.02911e+06
1.02676e+06
1.02576e+06
1.02358e+06
1.04595e+06
1.04427e+06
1.04473e+06
1.04306e+06
1.04353e+06
1.04167e+06
1.0419e+06
1.03981e+06
1.03979e+06
1.03754e+06
1.03731e+06
1.03496e+06
1.03456e+06
1.03215e+06
1.0316e+06
1.02916e+06
1.02847e+06
1.02598e+06
1.0252e+06
1.02274e+06
1.04593e+06
1.04418e+06
1.04467e+06
1.04302e+06
1.04349e+06
1.04164e+06
1.04189e+06
1.03982e+06
1.03982e+06
1.03758e+06
1.03736e+06
1.03502e+06
1.03462e+06
1.03223e+06
1.03167e+06
1.02925e+06
1.02855e+06
1.02608e+06
1.02534e+06
1.02277e+06
1.04602e+06
1.04429e+06
1.04474e+06
1.04305e+06
1.0435e+06
1.04164e+06
1.04189e+06
1.03981e+06
1.03982e+06
1.03757e+06
1.03736e+06
1.03502e+06
1.03462e+06
1.03222e+06
1.03167e+06
1.02922e+06
1.02852e+06
1.02603e+06
1.02521e+06
1.02267e+06
1.04596e+06
1.0442e+06
1.04467e+06
1.04299e+06
1.04345e+06
1.0416e+06
1.04185e+06
1.03979e+06
1.0398e+06
1.03757e+06
1.03735e+06
1.03502e+06
1.03462e+06
1.03224e+06
1.03169e+06
1.02926e+06
1.02857e+06
1.02608e+06
1.02533e+06
1.02271e+06
1.04604e+06
1.04429e+06
1.04473e+06
1.04303e+06
1.04348e+06
1.04162e+06
1.04187e+06
1.03979e+06
1.0398e+06
1.03756e+06
1.03735e+06
1.03501e+06
1.03461e+06
1.03222e+06
1.03167e+06
1.02923e+06
1.02853e+06
1.02602e+06
1.02521e+06
1.02264e+06
1.04596e+06
1.0442e+06
1.04467e+06
1.04299e+06
1.04345e+06
1.0416e+06
1.04185e+06
1.03979e+06
1.0398e+06
1.03757e+06
1.03735e+06
1.03502e+06
1.03462e+06
1.03224e+06
1.03169e+06
1.02926e+06
1.02857e+06
1.02608e+06
1.02533e+06
1.02271e+06
1.04602e+06
1.04429e+06
1.04474e+06
1.04305e+06
1.0435e+06
1.04164e+06
1.04189e+06
1.03981e+06
1.03982e+06
1.03757e+06
1.03736e+06
1.03502e+06
1.03462e+06
1.03222e+06
1.03167e+06
1.02922e+06
1.02852e+06
1.02603e+06
1.02521e+06
1.02267e+06
1.04593e+06
1.04418e+06
1.04467e+06
1.04302e+06
1.04349e+06
1.04164e+06
1.04189e+06
1.03982e+06
1.03982e+06
1.03758e+06
1.03736e+06
1.03502e+06
1.03462e+06
1.03223e+06
1.03167e+06
1.02925e+06
1.02855e+06
1.02608e+06
1.02533e+06
1.02278e+06
1.04595e+06
1.04427e+06
1.04473e+06
1.04306e+06
1.04353e+06
1.04167e+06
1.0419e+06
1.03981e+06
1.03979e+06
1.03754e+06
1.03731e+06
1.03496e+06
1.03456e+06
1.03215e+06
1.0316e+06
1.02916e+06
1.02847e+06
1.02598e+06
1.02519e+06
1.02274e+06
1.04546e+06
1.04379e+06
1.04406e+06
1.04244e+06
1.04278e+06
1.04104e+06
1.04127e+06
1.0393e+06
1.0393e+06
1.03712e+06
1.03691e+06
1.03461e+06
1.03422e+06
1.03185e+06
1.03132e+06
1.02887e+06
1.02822e+06
1.02568e+06
1.02499e+06
1.0225e+06
1.04551e+06
1.04381e+06
1.04408e+06
1.04245e+06
1.04278e+06
1.04103e+06
1.04126e+06
1.0393e+06
1.03929e+06
1.03713e+06
1.03692e+06
1.03462e+06
1.03424e+06
1.03187e+06
1.03134e+06
1.02889e+06
1.02824e+06
1.02569e+06
1.02499e+06
1.02243e+06
1.04551e+06
1.04382e+06
1.04408e+06
1.04244e+06
1.04277e+06
1.04101e+06
1.04123e+06
1.03927e+06
1.03928e+06
1.03712e+06
1.03692e+06
1.03463e+06
1.03425e+06
1.03188e+06
1.03136e+06
1.0289e+06
1.02825e+06
1.0257e+06
1.02499e+06
1.02242e+06
1.04554e+06
1.04384e+06
1.04409e+06
1.04245e+06
1.04277e+06
1.04101e+06
1.04123e+06
1.03927e+06
1.03927e+06
1.03711e+06
1.03691e+06
1.03462e+06
1.03425e+06
1.03187e+06
1.03136e+06
1.0289e+06
1.02825e+06
1.02571e+06
1.02499e+06
1.02242e+06
1.04552e+06
1.04383e+06
1.04409e+06
1.04244e+06
1.04276e+06
1.041e+06
1.04122e+06
1.03926e+06
1.03927e+06
1.03711e+06
1.03691e+06
1.03462e+06
1.03425e+06
1.03188e+06
1.03136e+06
1.0289e+06
1.02826e+06
1.02571e+06
1.025e+06
1.02242e+06
1.04554e+06
1.04384e+06
1.04409e+06
1.04245e+06
1.04277e+06
1.04101e+06
1.04123e+06
1.03927e+06
1.03927e+06
1.03711e+06
1.03691e+06
1.03462e+06
1.03425e+06
1.03187e+06
1.03136e+06
1.0289e+06
1.02825e+06
1.02571e+06
1.02499e+06
1.02242e+06
1.04551e+06
1.04382e+06
1.04408e+06
1.04244e+06
1.04277e+06
1.04101e+06
1.04123e+06
1.03927e+06
1.03928e+06
1.03712e+06
1.03692e+06
1.03463e+06
1.03425e+06
1.03188e+06
1.03136e+06
1.0289e+06
1.02825e+06
1.02571e+06
1.02499e+06
1.02242e+06
1.04551e+06
1.04381e+06
1.04408e+06
1.04245e+06
1.04278e+06
1.04103e+06
1.04126e+06
1.0393e+06
1.03929e+06
1.03713e+06
1.03692e+06
1.03462e+06
1.03424e+06
1.03187e+06
1.03134e+06
1.02889e+06
1.02824e+06
1.0257e+06
1.02499e+06
1.02244e+06
1.04546e+06
1.04379e+06
1.04406e+06
1.04244e+06
1.04278e+06
1.04104e+06
1.04127e+06
1.0393e+06
1.0393e+06
1.03712e+06
1.03691e+06
1.03461e+06
1.03422e+06
1.03185e+06
1.03132e+06
1.02887e+06
1.02822e+06
1.02569e+06
1.02499e+06
1.02251e+06
1.04595e+06
1.04427e+06
1.04473e+06
1.04306e+06
1.04353e+06
1.04167e+06
1.0419e+06
1.03981e+06
1.0398e+06
1.03754e+06
1.03731e+06
1.03496e+06
1.03456e+06
1.03215e+06
1.0316e+06
1.02916e+06
1.02847e+06
1.02598e+06
1.0252e+06
1.02274e+06
1.04593e+06
1.04418e+06
1.04467e+06
1.04302e+06
1.04349e+06
1.04164e+06
1.04189e+06
1.03982e+06
1.03982e+06
1.03758e+06
1.03736e+06
1.03502e+06
1.03462e+06
1.03223e+06
1.03167e+06
1.02925e+06
1.02855e+06
1.02608e+06
1.02534e+06
1.02277e+06
1.04602e+06
1.04429e+06
1.04474e+06
1.04305e+06
1.0435e+06
1.04164e+06
1.04189e+06
1.03981e+06
1.03982e+06
1.03757e+06
1.03736e+06
1.03502e+06
1.03462e+06
1.03222e+06
1.03167e+06
1.02922e+06
1.02852e+06
1.02603e+06
1.02521e+06
1.02267e+06
1.04596e+06
1.0442e+06
1.04467e+06
1.04299e+06
1.04345e+06
1.0416e+06
1.04185e+06
1.03979e+06
1.0398e+06
1.03757e+06
1.03735e+06
1.03502e+06
1.03462e+06
1.03224e+06
1.03169e+06
1.02926e+06
1.02857e+06
1.02608e+06
1.02533e+06
1.02271e+06
1.04604e+06
1.04429e+06
1.04473e+06
1.04303e+06
1.04348e+06
1.04162e+06
1.04187e+06
1.03979e+06
1.0398e+06
1.03756e+06
1.03735e+06
1.03501e+06
1.03461e+06
1.03222e+06
1.03167e+06
1.02923e+06
1.02853e+06
1.02602e+06
1.02521e+06
1.02264e+06
1.04596e+06
1.0442e+06
1.04467e+06
1.04299e+06
1.04345e+06
1.0416e+06
1.04185e+06
1.03979e+06
1.0398e+06
1.03757e+06
1.03735e+06
1.03502e+06
1.03462e+06
1.03224e+06
1.03169e+06
1.02926e+06
1.02857e+06
1.02608e+06
1.02533e+06
1.02271e+06
1.04602e+06
1.04429e+06
1.04474e+06
1.04305e+06
1.0435e+06
1.04164e+06
1.04189e+06
1.03981e+06
1.03982e+06
1.03757e+06
1.03736e+06
1.03502e+06
1.03462e+06
1.03222e+06
1.03167e+06
1.02922e+06
1.02852e+06
1.02603e+06
1.02521e+06
1.02267e+06
1.04593e+06
1.04418e+06
1.04467e+06
1.04302e+06
1.04349e+06
1.04164e+06
1.04189e+06
1.03982e+06
1.03982e+06
1.03758e+06
1.03736e+06
1.03502e+06
1.03462e+06
1.03223e+06
1.03167e+06
1.02925e+06
1.02855e+06
1.02608e+06
1.02533e+06
1.02278e+06
1.04595e+06
1.04427e+06
1.04473e+06
1.04306e+06
1.04353e+06
1.04167e+06
1.0419e+06
1.03981e+06
1.0398e+06
1.03754e+06
1.03731e+06
1.03496e+06
1.03456e+06
1.03216e+06
1.0316e+06
1.02916e+06
1.02847e+06
1.02598e+06
1.0252e+06
1.02274e+06
1.04725e+06
1.04607e+06
1.04613e+06
1.04486e+06
1.04485e+06
1.04329e+06
1.04311e+06
1.0413e+06
1.04091e+06
1.03889e+06
1.03831e+06
1.03617e+06
1.03543e+06
1.03321e+06
1.03236e+06
1.03007e+06
1.02912e+06
1.02676e+06
1.02576e+06
1.02358e+06
1.04737e+06
1.04611e+06
1.04613e+06
1.0448e+06
1.04477e+06
1.0432e+06
1.04302e+06
1.0412e+06
1.04082e+06
1.0388e+06
1.03823e+06
1.03608e+06
1.03534e+06
1.03311e+06
1.03225e+06
1.02995e+06
1.02899e+06
1.02663e+06
1.02559e+06
1.02346e+06
1.04726e+06
1.046e+06
1.04603e+06
1.04474e+06
1.04473e+06
1.04317e+06
1.04299e+06
1.04118e+06
1.0408e+06
1.03879e+06
1.03821e+06
1.03607e+06
1.03534e+06
1.03312e+06
1.03227e+06
1.02998e+06
1.02902e+06
1.02666e+06
1.02564e+06
1.02333e+06
1.0474e+06
1.0461e+06
1.0461e+06
1.04476e+06
1.04473e+06
1.04315e+06
1.04296e+06
1.04115e+06
1.04077e+06
1.03876e+06
1.03819e+06
1.03605e+06
1.03532e+06
1.03309e+06
1.03224e+06
1.02994e+06
1.02898e+06
1.02662e+06
1.02556e+06
1.02329e+06
1.04728e+06
1.04599e+06
1.04602e+06
1.04473e+06
1.04471e+06
1.04315e+06
1.04297e+06
1.04116e+06
1.04078e+06
1.03878e+06
1.0382e+06
1.03606e+06
1.03533e+06
1.03311e+06
1.03227e+06
1.02998e+06
1.02902e+06
1.02666e+06
1.02562e+06
1.02327e+06
1.0474e+06
1.0461e+06
1.0461e+06
1.04476e+06
1.04473e+06
1.04315e+06
1.04296e+06
1.04115e+06
1.04077e+06
1.03876e+06
1.03819e+06
1.03605e+06
1.03532e+06
1.03309e+06
1.03224e+06
1.02994e+06
1.02898e+06
1.02662e+06
1.02556e+06
1.02329e+06
1.04726e+06
1.046e+06
1.04603e+06
1.04474e+06
1.04473e+06
1.04317e+06
1.04299e+06
1.04118e+06
1.0408e+06
1.03879e+06
1.03821e+06
1.03607e+06
1.03534e+06
1.03312e+06
1.03227e+06
1.02998e+06
1.02902e+06
1.02666e+06
1.02564e+06
1.02333e+06
1.04737e+06
1.04611e+06
1.04613e+06
1.0448e+06
1.04477e+06
1.0432e+06
1.04302e+06
1.0412e+06
1.04082e+06
1.0388e+06
1.03823e+06
1.03608e+06
1.03534e+06
1.03311e+06
1.03225e+06
1.02995e+06
1.02899e+06
1.02663e+06
1.02559e+06
1.02346e+06
1.04725e+06
1.04607e+06
1.04613e+06
1.04486e+06
1.04485e+06
1.04329e+06
1.04311e+06
1.0413e+06
1.04091e+06
1.03889e+06
1.03831e+06
1.03617e+06
1.03543e+06
1.03321e+06
1.03236e+06
1.03007e+06
1.02911e+06
1.02676e+06
1.02576e+06
1.02358e+06
1.02054e+06
1.01038e+06
1.00594e+06
995518
990146
979259
973103
961812
954941
943284
935749
923753
915600
903294
894566
881975
872713
859858
850100
837003
826785
813468
802824
789306
778271
764570
753176
739314
727591
713585
701565
687436
675149
660915
648391
634073
621343
606963
594059
579642
566601
552177
539020
524568
511263
496794
483432
469034
455671
441372
428050
413879
400631
386612
373470
359623
346617
332964
320124
306687
294045
280845
268431
255491
243340
230684
218830
206481
194962
182948
171800
160150
149419
138161
127891
117062
107300
96933.2
87743.9
77886.6
69320.7
60020.6
52166.3
43478.6
36399.2
28491.3
22381.9
15135
9966.1
4402.41
1.02017e+06
1.00984e+06
1.00535e+06
994899
989506
978586
972408
961090
954200
942523
934974
922964
914799
902484
893749
881152
871886
859030
849270
836175
825958
812645
802005
788493
777463
763772
752384
738531
726817
712822
700811
686694
674417
660196
647683
633378
620659
606293
593401
578998
565969
551559
538415
523977
510684
496230
482880
468497
455148
440863
427554
413397
400162
386157
373028
359195
346202
332563
319737
306313
293684
280497
268097
255170
243032
230389
218547
206212
194705
182705
171569
159932
149213
137967
127710
116893
107144
96788.7
87611.1
77765.8
69211.3
59922.8
52079.6
43403.2
36334.5
28437
22337.8
15100.8
9941.3
4385.57
1.01998e+06
1.00998e+06
1.00551e+06
995103
989731
978845
972686
961396
954522
942867
935331
923339
915186
902883
894157
881570
872309
859459
849704
836613
826398
813086
802446
788934
777903
764209
752819
738963
727246
713247
701232
687109
674827
660600
648081
633770
621045
606672
593773
579363
566327
551909
538758
524313
511013
496550
483193
468802
455444
441151
427834
413669
400427
386413
373276
359435
346434
332787
319952
306520
293883
280688
268280
255345
243199
230548
218699
206356
194841
182833
171690
160045
149319
138066
127801
116977
107221
96859
87674.9
77822.9
69262.3
59967.5
52118.5
43436.1
36362.1
28459.4
22355.5
15113.8
9949.31
4391.28
1.01997e+06
1.00966e+06
1.00514e+06
994685
989290
978368
972184
960863
953969
942290
934737
922726
914559
902242
893505
880907
871639
858782
849021
835927
825709
812396
801756
788245
777215
763525
752137
738286
726572
712580
700570
686455
674179
659961
647449
633147
620430
606067
593177
578777
565751
551344
538202
523768
510478
496027
482680
468301
454954
440673
427367
413215
399984
385982
372857
359028
346039
332404
319581
306162
293536
280354
267958
255035
242901
230263
218425
206095
194592
182596
171465
159833
149118
137877
127624
116812
107067
96717.5
87544.9
77704.5
69155
59871.4
52033.4
43361.9
36298.4
28406.1
22312.1
15080.3
9926.04
4375.53
1.01993e+06
1.00995e+06
1.00547e+06
995055
989685
978800
972640
961349
954475
942819
935282
923289
915135
902832
894105
881517
872256
859405
849649
836557
826341
813029
802389
788876
777844
764150
752759
738903
727185
713185
701170
687047
674765
660538
648019
633708
620983
606609
593711
579301
566265
551848
538697
524252
510952
496490
483133
468743
455386
441093
427777
413613
400371
386358
373222
359382
346382
332735
319902
306471
293835
280641
268234
255301
243156
230506
218658
206316
194803
182796
171655
160012
149287
138035
127772
116950
107195
96834.9
87652.5
77802.2
69243.2
59950.1
52102.8
43422.1
36349.9
28448.9
22346.7
15106.8
9943.8
4387.6
1.01997e+06
1.00966e+06
1.00513e+06
994673
989276
978354
972170
960848
953954
942274
934721
922710
914543
902226
893489
880891
871623
858767
849006
835912
825694
812382
801741
788231
777201
763511
752123
738273
726559
712567
700557
686442
674167
659948
647437
633135
620418
606055
593165
578766
565740
551333
538191
523757
510468
496017
482671
468291
454945
440664
427359
413206
399975
385974
372848
359020
346031
332396
319574
306155
293529
280347
267951
255029
242895
230257
218420
206089
194587
182591
171461
159828
149114
137873
127620
116809
107064
96714.6
87542.2
77702
69152.7
59869.4
52031.6
43360.3
36297.1
28404.9
22311.2
15079.6
9925.53
4375.11
1.01998e+06
1.00997e+06
1.00551e+06
995098
989729
978844
972685
961396
954523
942868
935333
923340
915187
902885
894158
881571
872311
859461
849705
836614
826399
813087
802448
788935
777904
764210
752820
738964
727247
713248
701233
687110
674828
660601
648082
633771
621046
606673
593774
579364
566328
551910
538759
524314
511014
496551
483194
468803
455445
441152
427835
413670
400428
386414
373277
359436
346435
332788
319953
306522
293884
280690
268281
255347
243201
230550
218700
206357
194843
182834
171692
160047
149321
138067
127803
116979
107223
96860.7
87676.7
77824.6
69264
59969
52120
43437.5
36363.5
28460.6
22356.6
15114.7
9950.03
4391.63
1.02017e+06
1.00982e+06
1.00532e+06
994856
989460
978539
972359
961040
954150
942472
934922
922912
914748
902433
893698
881102
871836
858980
849221
836127
825911
812598
801959
788448
777418
763727
752340
738488
726774
712780
700770
686653
674377
660156
647644
633340
620621
606256
593364
578962
565934
551524
538381
523944
510652
496198
482849
468467
455117
440833
427525
413369
400135
386130
373002
359170
346177
332539
319713
306290
293661
280476
268076
255150
243012
230370
218529
206195
194689
182689
171554
159918
149199
137954
127697
116882
107133
96778.7
87601.9
77757.3
69203.6
59915.8
52073.5
43397.7
36329.9
28433.1
22334.7
15098.3
9939.63
4384.3
1.02053e+06
1.01037e+06
1.00593e+06
995527
990162
979280
973127
961839
954970
943314
935780
923785
915632
903326
894600
882007
872746
859890
850132
837035
826817
813499
802855
789336
778301
764600
753205
739342
727619
713613
701593
687463
675176
660941
648417
634099
621368
606988
594083
579666
566625
552200
539043
524591
511285
496815
483453
469055
455692
441392
428069
413898
400650
386630
373487
359640
346634
332980
320140
306703
294059
280859
268445
255505
243353
230697
218842
206493
194973
182959
171811
160160
149428
138169
127899
117070
107308
96940.2
87750.4
77892.7
69326.3
60025.7
52170.9
43482.7
36402.9
28494.5
22384.7
15137.3
9967.92
4403.54
1.02059e+06
1.0101e+06
1.00608e+06
995459
990370
979322
973354
961935
955194
943431
935986
923902
915811
903429
894745
882088
872856
859945
850208
837063
826860
813500
802868
789314
778287
764557
753169
739282
727565
713539
701525
687378
675097
660849
648332
634003
621279
606891
593994
579571
566537
552108
538959
524504
511206
496734
483379
468981
455625
441326
428012
413841
400602
386584
373450
359605
346607
332957
320126
306691
294057
280860
268456
255519
243376
230723
218878
206532
195021
183009
171871
160221
149499
138240
127978
117147
107392
97020.9
87837
77972.8
69409.3
60099.1
52243.4
43542.1
36456.4
28531.7
22411.9
15143.7
9959.21
4383.34
1.02082e+06
1.01053e+06
1.00655e+06
995957
990886
979876
973929
962543
955820
944084
936655
924591
916514
904148
895474
882828
873604
860700
850968
837827
827626
814268
803636
790080
779051
765317
753925
740032
728310
714276
702255
688100
675811
661554
649027
634687
621954
607554
594647
580212
567167
552726
539566
525098
511787
497303
483936
469524
456156
441843
428516
414332
401080
387048
373901
360042
347032
333368
320523
307075
294428
281217
268800
255849
243693
231026
219168
206808
195285
183260
172108
160446
149710
138438
128164
117320
107553
97168.7
87972.5
78095.9
69520.5
60198.3
52331
43618.1
36521.4
28585.7
22455.5
15176.9
9982.76
4398.21
1.02059e+06
1.01022e+06
1.0062e+06
995586
990500
979453
973483
962065
955322
943561
936116
924033
915942
903561
894877
882221
872989
860078
850341
837196
826993
813634
803001
789447
778420
764689
753301
739413
727695
713668
701653
687505
675223
660974
648455
634125
621400
607010
594111
579686
566651
552220
539070
524613
511312
496839
483482
469081
455724
441422
428106
413934
400692
386671
373535
359688
346688
333036
320202
306765
294129
280930
268523
255583
243438
230782
218935
206586
195073
183059
171918
160266
149541
138280
128016
117182
107425
97051.1
87864.8
77998.2
69432.4
60119.8
52261.8
43558.3
36470.4
28543.6
22421.8
15151.5
9965.41
4387.28
1.02073e+06
1.01056e+06
1.00658e+06
995995
990928
979919
973971
962584
955861
944125
936696
924632
916554
904188
895514
882867
873642
860738
851005
837863
827662
814302
803669
790113
779084
765348
753957
740062
728340
714305
702284
688128
675839
661580
649053
634713
621979
607579
594671
580235
567190
552748
539587
525119
511808
497323
483955
469543
456174
441861
428533
414349
401096
387063
373916
360057
347046
333381
320536
307088
294440
281229
268811
255859
243703
231036
219177
206817
195293
183267
172115
160452
149717
138444
128169
117325
107558
97173.2
87976.7
78099.7
69524
60201.4
52333.9
43620.6
36523.6
28587.6
22457.2
15178.2
9984.12
4398.97
1.02055e+06
1.01019e+06
1.00616e+06
995559
990476
979430
973459
962040
955297
943536
936090
924008
915916
903536
894851
882196
872964
860053
850316
837172
826968
813610
802977
789423
778396
764666
753277
739390
727672
713645
701631
687483
675201
660952
648434
634104
621379
606989
594090
579666
566631
552201
539050
524594
511293
496820
483464
469063
455706
441405
428089
413917
400675
386655
373519
359673
346673
333021
320188
306751
294115
280916
268510
255570
243426
230770
218923
206575
195063
183049
171908
160257
149532
138271
128007
117174
107418
97044.2
87858.4
77992.2
69426.9
60114.8
52257.3
43554.2
36466.9
28540.5
22419.2
15149.5
9964.13
4386.27
1.02073e+06
1.01056e+06
1.00658e+06
996001
990937
979929
973983
962596
955874
944138
936710
924646
916568
904201
895527
882881
873656
860751
851018
837876
827675
814315
803682
790125
779096
765361
753969
740074
728352
714317
702296
688139
675850
661592
649064
634724
621990
607589
594681
580246
567200
552758
539597
525128
511817
497332
483964
469552
456183
441869
428542
414357
401104
387071
373924
360065
347053
333388
320543
307095
294447
281235
268817
255865
243709
231042
219183
206823
195299
183273
172120
160457
149721
138448
128174
117329
107562
97176.8
87980.1
78102.9
69527
60204.1
52336.3
43622.8
36525.6
28589.3
22458.7
15179.4
9985.04
4399.53
1.02059e+06
1.01021e+06
1.00618e+06
995570
990483
979436
973466
962047
955304
943543
936098
924015
915924
903544
894859
882204
872972
860062
850325
837180
826977
813618
802986
789432
778405
764674
753286
739398
727681
713654
701639
687492
675210
660961
648443
634112
621387
606998
594099
579675
566640
552210
539059
524602
511302
496829
483472
469072
455715
441413
428097
413925
400683
386663
373527
359681
346681
333029
320195
306759
294123
280923
268517
255577
243433
230777
218930
206581
195069
183055
171914
160262
149537
138276
128012
117179
107422
97048.6
87862.5
77996.1
69430.5
60118.1
52260.4
43557
36469.4
28542.6
22421.1
15151
9965.2
4387
1.02081e+06
1.01052e+06
1.00654e+06
995964
990899
979893
973949
962564
955844
944109
936681
924618
916541
904175
895502
882856
873632
860727
850995
837853
827652
814293
803661
790105
779076
765341
753949
740055
728333
714299
702278
688122
675833
661575
649049
634709
621975
607575
594667
580232
567187
552746
539585
525117
511806
497321
483954
469542
456173
441860
428533
414349
401096
387064
373917
360058
347047
333383
320538
307090
294442
281231
268813
255862
243706
231039
219180
206820
195297
183271
172119
160456
149720
138448
128173
117329
107561
97176.8
87980.3
78103.2
69527.4
60204.6
52336.9
43623.4
36526.2
28589.9
22459.2
15179.9
9985.2
4399.67
1.02058e+06
1.01007e+06
1.00603e+06
995407
990316
979268
973299
961879
955137
943374
935929
923846
915755
903374
894690
882034
872803
859893
850156
837012
826810
813452
802820
789267
778240
764511
753124
739237
727522
713496
701482
687336
675056
660809
648292
633964
621241
606853
593957
579535
566501
552073
538925
524471
511173
496702
483348
468950
455595
441296
427983
413813
400574
386557
373423
359579
346582
332933
320102
306668
294035
280839
268435
255498
243357
230704
218859
206514
195004
182993
171855
160206
149484
138226
127965
117135
107381
97010.4
87827.3
77963.8
69401.1
60091.7
52236.8
43536.3
36451.4
28527.5
22408.6
15141.3
9957.6
4382.07
1.02055e+06
1.01064e+06
1.00663e+06
996225
991183
980235
974339
962962
956296
944543
937165
925071
917035
904634
895993
883311
874111
861171
851456
838282
828094
814705
804081
790497
779475
765716
754329
740413
728695
714641
702623
688450
676164
661891
649366
635013
622281
607870
594964
580518
567475
553025
539865
525389
512079
497586
484220
469800
456432
442113
428786
414596
401343
387305
374158
360294
347283
333614
320769
307316
294668
281453
269034
256078
243922
231250
219390
207025
195500
183469
172315
160645
149907
138627
128349
117495
107723
97327.8
88124.6
78235.8
69652.3
60316.3
52441.2
43712.8
36609.6
28656.4
22521.6
15221.1
10022.3
4413.39
1.02043e+06
1.01061e+06
1.0066e+06
996202
991161
980214
974318
962941
956275
944523
937145
925052
917017
904616
895975
883294
874094
861155
851441
838267
828079
814691
804068
790485
779463
765704
754318
740403
728685
714632
702614
688442
676155
661883
649359
635006
622275
607863
594958
580513
567470
553019
539861
525384
512075
497582
484216
469797
456429
442110
428783
414593
401341
387303
374156
360292
347281
333612
320768
307314
294667
281451
269033
256077
243921
231248
219389
207024
195499
183468
172314
160645
149907
138626
128348
117495
107722
97327.2
88124
78235.2
69651.8
60315.7
52440.7
43712.4
36609.2
28656
22521.4
15220.8
10022
4413.08
1.02048e+06
1.01062e+06
1.00662e+06
996220
991181
980233
974337
962959
956293
944540
937162
925069
917033
904632
895991
883309
874109
861170
851455
838281
828092
814703
804080
790496
779474
765715
754328
740412
728694
714641
702623
688450
676163
661891
649366
635013
622281
607870
594964
580518
567475
553025
539866
525389
512079
497587
484220
469800
456433
442113
428786
414596
401344
387306
374159
360295
347284
333615
320770
307317
294669
281453
269035
256079
243923
231250
219391
207026
195501
183469
172316
160646
149908
138628
128350
117496
107724
97328.6
88125.3
78236.5
69653
60316.9
52441.8
43713.4
36610.1
28656.8
22522.1
15221.5
10022.7
4413.37
1.02041e+06
1.01057e+06
1.00657e+06
996178
991142
980195
974299
962921
956255
944503
937125
925033
916998
904597
895956
883275
874075
861137
851423
838249
828061
814673
804050
790467
779445
765687
754300
740386
728668
714615
702597
688425
676139
661867
649343
634991
622259
607848
594943
580498
567455
553005
539847
525371
512061
497569
484203
469784
456417
442097
428771
414581
401329
387292
374145
360282
347271
333602
320758
307305
294658
281442
269024
256068
243913
231241
219382
207017
195492
183461
172308
160638
149901
138621
128343
117490
107718
97322.8
88120
78231.5
69648.4
60312.7
52438
43709.9
36607.1
28654.2
22520
15219.7
10021.2
4412.38
1.02048e+06
1.01061e+06
1.00661e+06
996219
991184
980238
974342
962963
956297
944544
937166
925073
917038
904636
895995
883313
874113
861173
851459
838284
828096
814707
804083
790500
779477
765718
754331
740415
728697
714643
702625
688452
676166
661893
649368
635015
622283
607872
594966
580520
567477
553026
539867
525391
512081
497588
484221
469802
456434
442114
428787
414597
401345
387307
374160
360296
347285
333616
320771
307318
294670
281454
269036
256080
243924
231251
219392
207027
195502
183470
172317
160647
149909
138628
128350
117497
107724
97329.1
88125.9
78237
69653.5
60317.3
52442.3
43713.7
36610.5
28657.2
22522.4
15221.8
10022.9
4413.44
1.02041e+06
1.01057e+06
1.00657e+06
996177
991142
980196
974300
962922
956256
944504
937126
925034
916999
904598
895958
883276
874077
861138
851424
838250
828062
814674
804051
790468
779446
765688
754302
740387
728669
714616
702599
688427
676140
661868
649344
634992
622261
607849
594944
580499
567457
553006
539848
525372
512063
497570
484204
469785
456418
442098
428772
414582
401330
387293
374146
360283
347272
333603
320759
307306
294659
281443
269025
256069
243914
231241
219383
207017
195493
183462
172309
160639
149901
138621
128344
117490
107718
97323.5
88120.6
78232.1
69649
60313.2
52438.5
43710.4
36607.5
28654.6
22520.3
15220
10021.4
4412.51
1.02048e+06
1.01062e+06
1.00661e+06
996214
991176
980229
974333
962956
956290
944537
937159
925066
917031
904630
895989
883307
874107
861168
851453
838279
828090
814702
804078
790495
779472
765713
754326
740411
728693
714639
702621
688449
676162
661889
649365
635012
622280
607868
594963
580517
567474
553024
539865
525388
512079
497586
484219
469800
456432
442113
428786
414596
401343
387306
374159
360295
347284
333615
320770
307317
294669
281453
269035
256079
243923
231251
219392
207026
195502
183470
172316
160647
149909
138628
128350
117497
107724
97329
88125.8
78236.9
69653.5
60317.4
52442.3
43713.8
36610.6
28657.3
22522.6
15221.9
10023.1
4413.51
1.02043e+06
1.01059e+06
1.00658e+06
996183
991144
980197
974301
962924
956259
944506
937129
925037
917001
904601
895960
883279
874080
861141
851427
838253
828065
814677
804054
790471
779449
765691
754304
740389
728671
714619
702601
688429
676143
661871
649347
634994
622263
607852
594946
580502
567459
553009
539850
525374
512065
497573
484206
469787
456420
442101
428774
414584
401332
387295
374148
360285
347274
333605
320761
307308
294661
281445
269027
256072
243916
231244
219385
207020
195495
183464
172311
160641
149903
138623
128345
117492
107720
97325.1
88122.2
78233.6
69650.4
60314.6
52439.8
43711.5
36608.6
28655.5
22521.2
15220.7
10022.1
4412.93
1.02054e+06
1.0106e+06
1.00659e+06
996189
991149
980202
974308
962931
956266
944513
937136
925043
917008
904607
895967
883285
874085
861147
851432
838258
828070
814682
804059
790476
779453
765695
754308
740393
728675
714622
702604
688432
676145
661873
649349
634996
622265
607853
594948
580503
567460
553010
539851
525375
512066
497573
484207
469787
456420
442101
428774
414584
401332
387295
374148
360285
347274
333605
320760
307308
294660
281445
269027
256071
243915
231243
219384
207019
195495
183463
172310
160641
149903
138623
128345
117492
107720
97324.8
88121.9
78233.4
69650.3
60314.5
52439.8
43711.6
36608.7
28655.7
22521.3
15221
10022.4
4413.19
1.02059e+06
1.0101e+06
1.00608e+06
995459
990370
979323
973354
961936
955194
943431
935986
923902
915811
903429
894745
882088
872856
859945
850208
837063
826860
813501
802868
789314
778287
764557
753170
739282
727566
713539
701525
687378
675097
660850
648332
634003
621279
606891
593994
579571
566537
552108
538959
524504
511206
496734
483379
468981
455625
441326
428012
413842
400602
386584
373450
359605
346607
332957
320126
306691
294057
280860
268456
255519
243376
230723
218878
206532
195021
183009
171871
160221
149499
138240
127978
117147
107392
97021
87837
77972.8
69409.3
60099.1
52243.4
43542.1
36456.4
28531.7
22412
15143.8
9959.21
4383.34
1.02082e+06
1.01053e+06
1.00655e+06
995957
990886
979876
973929
962543
955820
944084
936655
924592
916514
904148
895474
882829
873605
860700
850968
837827
827626
814268
803636
790080
779051
765317
753925
740032
728310
714276
702256
688100