/*--------------------------------*- C++ -*----------------------------------*\
  =========                 |
  \\      /  F ield         | OpenFOAM: The Open Source CFD Toolbox
   \\    /   O peration     | Website:  https://openfoam.org
    \\  /    A nd           | Version:  7
     \\/     M anipulation  |
\*---------------------------------------------------------------------------*/
FoamFile
{
    version     2.0;
    format      ascii;
    class       volScalarField;
    location    "0.0825";
    object      nut;
}
// * * * * * * * * * * * * * * * * * * * * * * * * * * * * * * * * * * * * * //

dimensions      [0 2 -1 0 0 0 0];

internalField   nonuniform List<scalar> 
1440
(
0.000134115
0.000311696
0.000497335
0.000654973
0.000778924
0.000871353
0.000935862
0.000978485
0.00100273
0.00101482
0.00101422
0.00101002
0.00100041
0.000986763
0.000971353
0.000955051
0.000938481
0.000922086
0.000906163
0.000890914
0.00087645
0.000862837
0.000850095
0.000838216
0.000827174
0.000816932
0.000807443
0.000798653
0.000790507
0.000782949
0.000775926
0.000769389
0.000763294
0.0007576
0.00075227
0.000747267
0.000742558
0.000738109
0.000733893
0.000729884
0.000726066
0.000722424
0.000718944
0.000715616
0.000712424
0.000709352
0.000706385
0.000703508
0.000700716
0.000698008
0.000695385
0.000692847
0.00069039
0.000688002
0.00068567
0.000683382
0.000681135
0.000678934
0.000676785
0.000674691
0.000672652
0.00067066
0.000668703
0.000666769
0.000664848
0.000662937
0.000661038
0.000659154
0.000657294
0.000655467
0.000653677
0.000651924
0.000650209
0.000648527
0.000646871
0.000645237
0.000643619
0.000642017
0.000640429
0.000638854
0.000637293
0.000635747
0.000634219
0.000632712
0.00063123
0.000629773
0.000628346
0.000626955
0.000625602
0.000624293
0.000623028
0.000621815
0.000620657
0.000619558
0.000618519
0.000617547
0.000616645
0.000615815
0.000615059
0.000614376
0.00061376
0.000613212
0.00061273
0.000612312
0.000611953
0.00061165
0.0006114
0.00061121
0.000611095
0.000610956
0.00061075
0.000610556
0.000610523
0.000610393
0.000610273
0.000610003
0.00060995
0.000609647
0.000609551
0.000609131
6.63514e-06
2.96804e-05
6.71544e-05
0.000115769
0.000177496
0.000241669
0.000300109
0.00035254
0.000396348
0.000433111
0.000461898
0.000484471
0.000501696
0.000514404
0.000523484
0.000529827
0.000534011
0.000536676
0.000538111
0.000538805
0.000538756
0.000538523
0.000538021
0.000537369
0.000536677
0.000535994
0.00053535
0.000534762
0.000534239
0.000533784
0.000533395
0.000533065
0.000532784
0.000532543
0.000532335
0.000532158
0.000532008
0.000531882
0.000531772
0.000531668
0.000531559
0.000531435
0.000531293
0.000531138
0.000530977
0.000530818
0.000530664
0.000530511
0.000530343
0.000530146
0.000529914
0.000529654
0.000529384
0.000529119
0.000528866
0.000528616
0.000528357
0.000528073
0.000527751
0.000527396
0.000527021
0.000526645
0.000526289
0.000525964
0.00052567
0.000525399
0.00052514
0.000524878
0.000524598
0.000524294
0.000523962
0.000523607
0.000523239
0.000522866
0.000522498
0.000522138
0.000521791
0.000521463
0.000521155
0.000520862
0.00052058
0.000520305
0.000520038
0.000519775
0.000519517
0.000519265
0.000519015
0.000518765
0.000518515
0.000518266
0.000518014
0.000517762
0.000517509
0.000517256
0.000517004
0.000516753
0.000516499
0.000516245
0.000515994
0.000515748
0.000515508
0.000515276
0.000515056
0.000514847
0.000514651
0.000514468
0.000514301
0.000514152
0.000514027
0.000513924
0.000513841
0.000513792
0.00051377
0.000513766
0.000513766
0.000513786
0.000513811
0.00051391
0.000513999
0.000514314
1.58727e-06
2.18653e-06
4.95072e-06
1.04464e-05
1.92493e-05
3.12251e-05
4.67859e-05
6.4934e-05
8.34783e-05
0.000102307
0.000120533
0.000137752
0.000153512
0.00016771
0.000180275
0.000191357
0.000200997
0.000209374
0.000216589
0.000222821
0.000228141
0.00023266
0.000236476
0.000239699
0.000242445
0.000244811
0.000246873
0.000248689
0.0002503
0.000251737
0.000253033
0.000254222
0.000255331
0.000256378
0.000257384
0.000258381
0.000259406
0.00026047
0.000261554
0.000262623
0.000263662
0.000264694
0.000265759
0.000266888
0.000268086
0.00026933
0.000270594
0.000271862
0.000273131
0.000274409
0.0002757
0.000277016
0.000278368
0.000279756
0.0002812
0.000282661
0.000284129
0.000285605
0.000286998
0.000288357
0.000289711
0.000290986
0.000292266
0.000293544
0.000294771
0.000295986
0.000297179
0.000298306
0.000299314
0.000300324
0.000301345
0.00030232
0.000303288
0.000304213
0.000305125
0.000306213
0.000307431
0.000308628
0.000309874
0.00031119
0.00031255
0.000313842
0.000315145
0.0003164
0.00031753
0.000318616
0.000319763
0.000320861
0.00032178
0.000322761
0.000323562
0.000324364
0.000325019
0.000325563
0.000326178
0.000326772
0.000327188
0.000327387
0.000327659
0.000327939
0.000328105
0.000328249
0.000328443
0.000328478
0.000328422
0.000328437
0.000328588
0.000328656
0.000328643
0.000328645
0.000328634
0.000328666
0.000328874
0.000329486
0.00033004
0.000330342
0.000330483
0.000330557
0.000330775
0.000331215
1.57743e-06
1.58216e-06
1.60824e-06
1.74332e-06
2.22114e-06
3.30226e-06
5.13787e-06
7.79625e-06
1.13747e-05
1.54059e-05
2.01037e-05
2.53679e-05
3.06405e-05
3.57933e-05
4.09142e-05
4.60409e-05
5.09768e-05
5.55794e-05
5.98686e-05
6.3955e-05
6.78689e-05
7.15378e-05
7.48671e-05
7.7828e-05
8.04894e-05
8.2977e-05
8.53759e-05
8.76583e-05
8.97243e-05
9.15313e-05
9.31643e-05
9.47561e-05
9.6339e-05
9.78065e-05
9.90411e-05
0.000100064
0.000101047
0.000102159
0.000103413
0.000104654
0.000105679
0.000106432
0.000107022
0.000107593
0.000108344
0.000109348
0.000110499
0.00011157
0.000112384
0.000112936
0.000113366
0.00011385
0.000114514
0.000115381
0.000116396
0.000117447
0.000118436
0.000119304
0.000120021
0.0001206
0.000121063
0.000121426
0.000121706
0.0001219
0.000122003
0.000122023
0.000122023
0.000122007
0.000121859
0.000121324
0.000120485
0.000119582
0.000118665
0.000117701
0.000116786
0.000116032
0.000115421
0.00011502
0.000114894
0.000114874
0.000114832
0.000114819
0.000114917
0.000115321
0.000115758
0.000116105
0.000116241
0.000116292
0.000116458
0.000116647
0.000116656
0.000116651
0.000116655
0.00011662
0.00011648
0.000116149
0.000115732
0.000115303
0.000114938
0.000114598
0.000114268
0.000113828
0.00011325
0.000112684
0.00011226
0.000111914
0.000111588
0.000111177
0.000110817
0.000110544
0.000110409
0.000110211
0.000109911
0.000109533
0.000109429
0.000109652
0.000110235
0.000110328
0.000110316
0.000110701
1.57667e-06
1.57874e-06
1.58454e-06
1.59703e-06
1.61769e-06
1.65359e-06
1.71359e-06
1.82839e-06
2.04389e-06
2.41044e-06
2.86955e-06
3.62821e-06
4.58756e-06
5.46968e-06
6.40003e-06
7.53967e-06
8.80179e-06
1.00031e-05
1.10802e-05
1.21341e-05
1.33004e-05
1.45733e-05
1.57868e-05
1.67906e-05
1.76253e-05
1.84937e-05
1.95298e-05
2.06305e-05
2.15766e-05
2.2291e-05
2.29309e-05
2.37113e-05
2.46574e-05
2.55733e-05
2.62542e-05
2.66957e-05
2.71067e-05
2.77209e-05
2.85837e-05
2.95172e-05
3.02794e-05
3.07528e-05
3.10066e-05
3.12353e-05
3.16422e-05
3.23066e-05
3.3146e-05
3.39868e-05
3.4671e-05
3.51236e-05
3.53666e-05
3.55045e-05
3.56885e-05
3.60989e-05
3.68821e-05
3.77426e-05
3.85075e-05
3.90682e-05
3.93882e-05
3.95091e-05
3.95239e-05
3.95236e-05
3.95229e-05
3.95146e-05
3.94826e-05
3.93695e-05
3.90325e-05
3.8257e-05
3.726e-05
3.61124e-05
3.48631e-05
3.35618e-05
3.22534e-05
3.09682e-05
2.97476e-05
2.86398e-05
2.7672e-05
2.6854e-05
2.61868e-05
2.56555e-05
2.52348e-05
2.49062e-05
2.4657e-05
2.44566e-05
2.42832e-05
2.41202e-05
2.39422e-05
2.37438e-05
2.35298e-05
2.32917e-05
2.30215e-05
2.27123e-05
2.23663e-05
2.199e-05
2.1587e-05
2.11507e-05
2.06966e-05
2.02432e-05
1.98103e-05
1.93897e-05
1.89838e-05
1.85571e-05
1.81115e-05
1.76583e-05
1.72537e-05
1.68825e-05
1.65626e-05
1.62451e-05
1.59712e-05
1.57155e-05
1.55275e-05
1.53743e-05
1.52692e-05
1.51776e-05
1.51711e-05
1.5279e-05
1.54503e-05
1.5618e-05
1.57093e-05
1.59697e-05
1.57651e-06
1.57799e-06
1.58268e-06
1.59224e-06
1.61107e-06
1.64138e-06
1.66507e-06
1.70251e-06
1.76521e-06
1.81533e-06
1.84816e-06
1.90922e-06
2.00139e-06
2.07261e-06
2.1186e-06
2.19271e-06
2.31838e-06
2.45098e-06
2.54544e-06
2.61653e-06
2.72625e-06
2.90499e-06
3.10206e-06
3.2431e-06
3.31978e-06
3.40699e-06
3.58394e-06
3.81322e-06
3.99654e-06
4.09926e-06
4.1761e-06
4.30877e-06
4.51723e-06
4.74238e-06
4.91121e-06
5.00211e-06
5.05886e-06
5.15483e-06
5.35135e-06
5.5965e-06
5.8185e-06
5.97324e-06
6.05756e-06
6.10335e-06
6.16046e-06
6.28391e-06
6.52846e-06
6.79595e-06
7.02439e-06
7.18117e-06
7.2666e-06
7.30917e-06
7.35315e-06
7.44323e-06
7.66754e-06
7.97568e-06
8.24646e-06
8.43702e-06
8.53632e-06
8.56496e-06
8.56611e-06
8.5656e-06
8.56472e-06
8.55885e-06
8.53895e-06
8.47663e-06
8.29332e-06
7.95815e-06
7.56405e-06
7.13071e-06
6.67518e-06
6.21354e-06
5.7601e-06
5.32654e-06
4.92337e-06
4.56021e-06
4.24302e-06
3.97311e-06
3.74899e-06
3.56729e-06
3.4226e-06
3.30807e-06
3.21639e-06
3.1407e-06
3.07543e-06
3.01546e-06
2.95608e-06
2.89449e-06
2.82971e-06
2.76061e-06
2.68638e-06
2.60588e-06
2.52026e-06
2.4304e-06
2.33782e-06
2.24216e-06
2.1461e-06
2.05119e-06
1.96095e-06
1.87414e-06
1.7924e-06
1.7109e-06
1.63204e-06
1.55421e-06
1.48568e-06
1.42296e-06
1.37129e-06
1.3227e-06
1.2842e-06
1.24938e-06
1.22575e-06
1.20868e-06
1.2028e-06
1.20563e-06
1.21791e-06
1.24441e-06
1.26299e-06
1.30005e-06
1.32219e-06
1.38206e-06
1.57651e-06
1.578e-06
1.5827e-06
1.59231e-06
1.61186e-06
1.64082e-06
1.66403e-06
1.70469e-06
1.76714e-06
1.81325e-06
1.84671e-06
1.91246e-06
2.0032e-06
2.06737e-06
2.1106e-06
2.18705e-06
2.31085e-06
2.42937e-06
2.50569e-06
2.56664e-06
2.67149e-06
2.83348e-06
2.99631e-06
3.10153e-06
3.15644e-06
3.22709e-06
3.37383e-06
3.5548e-06
3.69139e-06
3.7609e-06
3.81034e-06
3.90564e-06
4.06203e-06
4.22722e-06
4.34937e-06
4.41485e-06
4.45235e-06
4.50949e-06
4.63853e-06
4.82055e-06
4.98649e-06
5.10245e-06
5.1649e-06
5.19652e-06
5.23253e-06
5.30856e-06
5.48001e-06
5.67739e-06
5.84308e-06
5.95396e-06
6.01236e-06
6.04207e-06
6.0776e-06
6.15455e-06
6.33688e-06
6.54713e-06
6.71596e-06
6.81907e-06
6.85946e-06
6.86461e-06
6.86436e-06
6.86364e-06
6.85914e-06
6.8451e-06
6.80311e-06
6.68311e-06
6.40181e-06
6.04556e-06
5.64753e-06
5.22698e-06
4.80122e-06
4.38571e-06
3.99315e-06
3.63315e-06
3.31225e-06
3.03368e-06
2.79823e-06
2.60434e-06
2.44737e-06
2.32125e-06
2.21939e-06
2.13561e-06
2.06519e-06
2.00375e-06
1.94727e-06
1.89368e-06
1.84111e-06
1.78742e-06
1.73193e-06
1.67546e-06
1.6176e-06
1.55779e-06
1.49632e-06
1.43474e-06
1.374e-06
1.31554e-06
1.25906e-06
1.20419e-06
1.14879e-06
1.09373e-06
1.03889e-06
9.86837e-07
9.37054e-07
8.91225e-07
8.47954e-07
8.09853e-07
7.74941e-07
7.45185e-07
7.21978e-07
7.08232e-07
6.98012e-07
6.89984e-07
6.87104e-07
6.8982e-07
6.93786e-07
6.93815e-07
6.93609e-07
6.92903e-07
6.93766e-07
6.98004e-07
1.57666e-06
1.57871e-06
1.58447e-06
1.59686e-06
1.61751e-06
1.65335e-06
1.71291e-06
1.82654e-06
2.04125e-06
2.40112e-06
2.85433e-06
3.61157e-06
4.55137e-06
5.38917e-06
6.29421e-06
7.42342e-06
8.64936e-06
9.77626e-06
1.0774e-05
1.17703e-05
1.28878e-05
1.4087e-05
1.51928e-05
1.6079e-05
1.68162e-05
1.76097e-05
1.85647e-05
1.95537e-05
2.03689e-05
2.09649e-05
2.15119e-05
2.22059e-05
2.30464e-05
2.38403e-05
2.44123e-05
2.47767e-05
2.51224e-05
2.56453e-05
2.63824e-05
2.71951e-05
2.78848e-05
2.83314e-05
2.8558e-05
2.87179e-05
2.90125e-05
2.96017e-05
3.0356e-05
3.11005e-05
3.1694e-05
3.20763e-05
3.22771e-05
3.24001e-05
3.25873e-05
3.30198e-05
3.37313e-05
3.44605e-05
3.50681e-05
3.54794e-05
3.56867e-05
3.57437e-05
3.57461e-05
3.57448e-05
3.57419e-05
3.57235e-05
3.56587e-05
3.54606e-05
3.48995e-05
3.39288e-05
3.27735e-05
3.14954e-05
3.01493e-05
2.8796e-05
2.74867e-05
2.62642e-05
2.51627e-05
2.41966e-05
2.3378e-05
2.27157e-05
2.21895e-05
2.17706e-05
2.14307e-05
2.11475e-05
2.09194e-05
2.07238e-05
2.05278e-05
2.03343e-05
2.0143e-05
1.99301e-05
1.96918e-05
1.94424e-05
1.91763e-05
1.88823e-05
1.85603e-05
1.82252e-05
1.78862e-05
1.75524e-05
1.72192e-05
1.68827e-05
1.65235e-05
1.61533e-05
1.57751e-05
1.54019e-05
1.50328e-05
1.46806e-05
1.43442e-05
1.40416e-05
1.37474e-05
1.34679e-05
1.31922e-05
1.29549e-05
1.27258e-05
1.25197e-05
1.23534e-05
1.22807e-05
1.22812e-05
1.22906e-05
1.22909e-05
1.22907e-05
1.22835e-05
1.22591e-05
1.57741e-06
1.58211e-06
1.60792e-06
1.74174e-06
2.21647e-06
3.29192e-06
5.12068e-06
7.75977e-06
1.13328e-05
1.53338e-05
2.00169e-05
2.52473e-05
3.04478e-05
3.5512e-05
4.05612e-05
4.56092e-05
5.04399e-05
5.49068e-05
5.90595e-05
6.30136e-05
6.67961e-05
7.03198e-05
7.34892e-05
7.62857e-05
7.87965e-05
8.11522e-05
8.34277e-05
8.55774e-05
8.74983e-05
8.91619e-05
9.0671e-05
9.21623e-05
9.36567e-05
9.50358e-05
9.61814e-05
9.71262e-05
9.80458e-05
9.911e-05
0.000100311
0.000101498
0.000102467
0.00010319
0.000103775
0.000104366
0.000105128
0.000106138
0.000107283
0.000108329
0.000109112
0.000109645
0.000110094
0.000110642
0.000111396
0.000112337
0.000113377
0.000114412
0.000115356
0.00011618
0.000116883
0.00011747
0.000117954
0.000118335
0.000118608
0.000118765
0.000118811
0.000118813
0.000118808
0.000118734
0.000118376
0.000117514
0.000116484
0.000115433
0.000114411
0.00011348
0.000112706
0.000112052
0.000111576
0.000111385
0.000111367
0.00011136
0.000111321
0.000111338
0.000111559
0.000112078
0.000112312
0.000112442
0.000112734
0.000112876
0.000112868
0.000112945
0.000113034
0.000113036
0.000113035
0.00011299
0.000112866
0.000112669
0.000112441
0.000112192
0.000111856
0.000111475
0.000111111
0.000110731
0.00011029
0.000109873
0.000109528
0.000109236
0.000108917
0.000108554
0.000108136
0.000107822
0.000107599
0.000107365
0.000106985
0.000106593
0.000106322
0.000106212
0.000106177
0.000106148
0.000106083
0.000105852
1.58676e-06
2.17578e-06
4.92142e-06
1.04006e-05
1.91934e-05
3.11351e-05
4.66942e-05
6.47492e-05
8.32848e-05
0.00010208
0.000120231
0.000137372
0.000153028
0.000167113
0.000179572
0.000190546
0.000200086
0.000208358
0.000215482
0.000221619
0.000226867
0.000231315
0.000235079
0.000238267
0.000240999
0.000243364
0.000245441
0.000247278
0.000248918
0.000250392
0.000251742
0.000253004
0.000254208
0.000255366
0.000256493
0.00025762
0.000258779
0.000259978
0.000261196
0.000262402
0.000263592
0.0002648
0.000266067
0.000267414
0.000268823
0.000270259
0.00027169
0.000273105
0.000274528
0.000275975
0.000277479
0.00027903
0.000280637
0.000282246
0.000283856
0.000285487
0.00028707
0.000288644
0.000290236
0.000291781
0.00029332
0.000294796
0.000296244
0.000297653
0.00029898
0.000300241
0.000301386
0.000302492
0.000303605
0.000304709
0.000305724
0.000306786
0.000307838
0.00030899
0.000310122
0.000311295
0.000312581
0.000313933
0.000315364
0.000316735
0.00031801
0.000319255
0.000320577
0.000321888
0.000323042
0.000324088
0.000325137
0.000326249
0.000327249
0.000328107
0.000328912
0.0003297
0.000330504
0.000331124
0.000331593
0.000331954
0.000332464
0.000333
0.000333309
0.000333416
0.000333552
0.000333801
0.000333934
0.000334062
0.00033418
0.000334176
0.000334143
0.000334187
0.000334277
0.000334277
0.000334277
0.000334264
0.00033426
0.000334244
0.000334234
0.000334202
0.000334172
0.000334132
0.000334054
0.000333771
6.53427e-06
2.94662e-05
6.68861e-05
0.000115467
0.000177299
0.000241145
0.000299766
0.00035198
0.000395889
0.000432488
0.000461161
0.000483712
0.000500837
0.000513485
0.000522535
0.000528893
0.000533117
0.000535868
0.000537402
0.000538249
0.000538392
0.000538287
0.000538021
0.000537598
0.000537156
0.00053673
0.000536357
0.000536032
0.000535779
0.000535577
0.000535454
0.000535366
0.000535358
0.000535374
0.000535415
0.000535488
0.000535576
0.000535673
0.00053577
0.000535861
0.000535945
0.000536023
0.000536085
0.000536135
0.000536171
0.000536183
0.000536176
0.000536154
0.000536109
0.000536046
0.000535965
0.000535863
0.000535741
0.0005356
0.000535442
0.000535265
0.000535069
0.000534856
0.000534625
0.000534375
0.000534111
0.000533834
0.000533544
0.000533242
0.000532929
0.000532605
0.00053227
0.000531929
0.000531583
0.000531236
0.000530889
0.000530545
0.000530202
0.000529863
0.000529525
0.000529194
0.00052887
0.000528551
0.000528235
0.00052792
0.000527608
0.000527302
0.000527001
0.000526702
0.000526407
0.000526121
0.000525841
0.000525566
0.000525292
0.000525019
0.000524748
0.00052448
0.000524211
0.000523939
0.000523669
0.000523402
0.000523138
0.000522875
0.000522613
0.000522353
0.0005221
0.000521856
0.000521619
0.000521395
0.000521183
0.000520981
0.000520796
0.000520625
0.000520471
0.000520337
0.000520215
0.000520119
0.000520067
0.000520021
0.000519951
0.000519906
0.000519899
0.000519899
0.000519902
0.000519932
0.000134061
0.000311204
0.000497223
0.000654513
0.000778068
0.000869633
0.000933457
0.000974847
0.000998421
0.00100873
0.00100756
0.00100247
0.000991496
0.000976941
0.000960702
0.000943652
0.00092642
0.000909449
0.000893034
0.000877374
0.000862577
0.0008487
0.000835758
0.000823735
0.000812595
0.00080229
0.000792765
0.000783959
0.000775814
0.000768269
0.00076127
0.00075476
0.000748691
0.000743015
0.00073769
0.000732678
0.000727946
0.000723465
0.000719208
0.000715154
0.00071128
0.000707569
0.000704005
0.000700574
0.000697263
0.000694063
0.000690965
0.000687961
0.000685045
0.000682212
0.000679454
0.00067677
0.000674153
0.000671603
0.000669114
0.000666685
0.000664312
0.000661994
0.000659729
0.000657513
0.000655347
0.000653228
0.000651155
0.000649126
0.000647141
0.000645197
0.000643293
0.000641429
0.000639601
0.000637808
0.000636049
0.000634321
0.000632622
0.000630954
0.000629312
0.000627697
0.000626114
0.000624558
0.000623027
0.000621527
0.000620057
0.000618613
0.000617202
0.000615824
0.000614479
0.000613165
0.000611888
0.00061065
0.000609455
0.000608304
0.000607202
0.000606153
0.000605153
0.000604217
0.000603342
0.000602522
0.000601761
0.000601068
0.000600442
0.000599884
0.000599389
0.000598962
0.000598592
0.000598289
0.000598037
0.000597848
0.000597706
0.000597617
0.000597568
0.000597576
0.000597573
0.000597675
0.000597736
0.000597946
0.000598052
0.00059836
0.000598493
0.000598884
0.000599046
0.000599629
)
;

boundaryField
{
    upperWall
    {
        type            zeroGradient;
    }
    lowerWall
    {
        type            zeroGradient;
    }
    inlet
    {
        type            zeroGradient;
    }
    outlet
    {
        type            zeroGradient;
    }
    frontAndBack
    {
        type            empty;
    }
}


// ************************************************************************* //
