/*--------------------------------*- C++ -*----------------------------------*\
  =========                 |
  \\      /  F ield         | OpenFOAM: The Open Source CFD Toolbox
   \\    /   O peration     | Website:  https://openfoam.org
    \\  /    A nd           | Version:  7
     \\/     M anipulation  |
\*---------------------------------------------------------------------------*/
FoamFile
{
    version     2.0;
    format      ascii;
    class       volScalarField;
    location    "2.0675";
    object      T;
}
// * * * * * * * * * * * * * * * * * * * * * * * * * * * * * * * * * * * * * //

dimensions      [0 0 0 1 0 0 0];

internalField   nonuniform List<scalar> 
7920
(
282.713
282.681
282.54
282.584
282.509
282.592
282.565
282.635
282.605
282.644
282.615
282.643
282.629
282.642
282.645
282.629
282.675
282.587
282.76
282.445
282.763
282.743
282.651
282.66
282.597
282.631
282.619
282.663
282.663
282.688
282.683
282.696
282.7
282.701
282.72
282.69
282.752
282.644
282.841
282.484
282.73
282.724
282.618
282.647
282.563
282.59
282.537
282.575
282.553
282.594
282.588
282.622
282.628
282.646
282.669
282.659
282.712
282.645
282.766
282.587
282.755
282.755
282.675
282.704
282.642
282.659
282.613
282.63
282.606
282.63
282.629
282.656
282.672
282.693
282.723
282.731
282.772
282.757
282.808
282.761
282.735
282.742
282.645
282.686
282.613
282.642
282.585
282.606
282.568
282.594
282.579
282.611
282.614
282.649
282.664
282.697
282.717
282.746
282.761
282.781
282.74
282.759
282.662
282.708
282.636
282.668
282.611
282.634
282.593
282.619
282.6
282.632
282.631
282.667
282.677
282.717
282.732
282.772
282.781
282.819
282.74
282.759
282.662
282.708
282.636
282.668
282.61
282.634
282.593
282.619
282.6
282.632
282.63
282.668
282.677
282.718
282.731
282.773
282.781
282.819
282.735
282.742
282.645
282.686
282.613
282.642
282.585
282.607
282.568
282.595
282.578
282.612
282.613
282.651
282.661
282.7
282.713
282.75
282.756
282.785
282.755
282.755
282.675
282.704
282.641
282.66
282.612
282.63
282.605
282.631
282.628
282.658
282.669
282.699
282.716
282.742
282.757
282.777
282.783
282.792
282.73
282.724
282.618
282.647
282.563
282.59
282.537
282.576
282.552
282.596
282.586
282.625
282.622
282.655
282.655
282.681
282.679
282.696
282.69
282.698
282.763
282.743
282.651
282.66
282.597
282.631
282.619
282.663
282.662
282.69
282.681
282.7
282.694
282.71
282.705
282.715
282.709
282.718
282.711
282.715
282.713
282.681
282.54
282.584
282.509
282.592
282.564
282.636
282.604
282.646
282.613
282.646
282.624
282.651
282.632
282.651
282.637
282.654
282.64
282.659
283.241
283.19
283.248
283.139
283.194
283.137
283.219
283.184
283.237
283.183
283.217
283.17
283.211
283.16
283.21
283.127
283.229
283.05
283.36
282.753
283.183
283.131
283.151
283.086
283.087
283.044
283.064
283.056
283.082
283.075
283.094
283.079
283.103
283.076
283.115
283.052
283.136
282.985
283.206
282.824
283.23
283.163
283.22
283.146
283.175
283.109
283.133
283.089
283.122
283.098
283.136
283.117
283.155
283.132
283.176
283.131
283.194
283.101
283.215
283.037
283.2
283.126
283.169
283.102
283.122
283.063
283.072
283.027
283.041
283.017
283.04
283.032
283.059
283.056
283.085
283.079
283.11
283.087
283.119
283.076
283.223
283.141
283.201
283.121
283.156
283.087
283.107
283.053
283.072
283.037
283.063
283.047
283.077
283.072
283.103
283.104
283.131
283.131
283.144
283.14
283.216
283.122
283.183
283.097
283.133
283.062
283.084
283.027
283.046
283.01
283.034
283.017
283.044
283.04
283.069
283.074
283.098
283.107
283.116
283.121
283.216
283.122
283.183
283.097
283.133
283.062
283.084
283.028
283.046
283.01
283.034
283.017
283.044
283.04
283.068
283.074
283.098
283.107
283.117
283.12
283.223
283.141
283.201
283.121
283.155
283.088
283.107
283.053
283.071
283.038
283.062
283.048
283.075
283.073
283.101
283.106
283.129
283.133
283.142
283.141
283.2
283.126
283.169
283.102
283.122
283.063
283.072
283.028
283.04
283.018
283.038
283.034
283.055
283.061
283.079
283.087
283.098
283.102
283.101
283.099
283.23
283.163
283.22
283.146
283.175
283.109
283.132
283.09
283.121
283.1
283.133
283.121
283.149
283.142
283.162
283.153
283.163
283.148
283.149
283.129
283.183
283.131
283.151
283.086
283.087
283.045
283.063
283.057
283.08
283.077
283.091
283.084
283.095
283.089
283.094
283.085
283.083
283.072
283.068
283.053
283.241
283.19
283.248
283.139
283.194
283.137
283.218
283.185
283.236
283.185
283.213
283.175
283.203
283.173
283.189
283.161
283.171
283.152
283.158
283.133
283.155
283.141
283.135
283.097
283.077
283.061
283.111
283.159
283.198
283.168
283.16
283.129
283.171
283.126
283.201
283.065
283.268
282.919
283.504
282.533
283.153
283.138
283.127
283.102
283.082
283.056
283.05
283.05
283.075
283.087
283.119
283.116
283.155
283.124
283.185
283.094
283.21
283.019
283.259
282.9
283.154
283.139
283.129
283.108
283.093
283.069
283.056
283.041
283.046
283.049
283.072
283.082
283.117
283.123
283.164
283.15
283.194
283.149
283.195
283.122
283.153
283.138
283.126
283.104
283.088
283.065
283.049
283.033
283.03
283.029
283.041
283.052
283.074
283.092
283.119
283.138
283.158
283.17
283.168
283.178
283.154
283.138
283.128
283.105
283.09
283.067
283.052
283.036
283.032
283.031
283.04
283.051
283.069
283.089
283.111
283.136
283.153
283.175
283.173
283.192
283.154
283.138
283.127
283.104
283.088
283.064
283.049
283.033
283.028
283.027
283.035
283.046
283.062
283.081
283.103
283.127
283.145
283.167
283.169
283.184
283.154
283.138
283.127
283.104
283.088
283.064
283.049
283.033
283.028
283.027
283.035
283.046
283.062
283.081
283.103
283.127
283.145
283.166
283.17
283.182
283.154
283.138
283.128
283.106
283.09
283.067
283.052
283.037
283.032
283.031
283.04
283.051
283.069
283.089
283.112
283.135
283.154
283.173
283.176
283.187
283.153
283.138
283.126
283.104
283.087
283.065
283.049
283.034
283.029
283.03
283.04
283.053
283.073
283.094
283.118
283.14
283.157
283.17
283.17
283.174
283.154
283.139
283.129
283.108
283.093
283.07
283.055
283.043
283.044
283.051
283.069
283.087
283.111
283.132
283.153
283.165
283.175
283.173
283.167
283.156
283.153
283.138
283.126
283.103
283.082
283.057
283.048
283.052
283.072
283.092
283.112
283.126
283.14
283.147
283.15
283.145
283.136
283.124
283.113
283.1
283.155
283.141
283.135
283.098
283.076
283.062
283.11
283.16
283.195
283.172
283.153
283.14
283.153
283.155
283.154
283.142
283.139
283.135
283.136
283.135
283.155
283.141
283.135
283.097
283.077
283.061
283.111
283.159
283.198
283.168
283.16
283.129
283.171
283.126
283.201
283.065
283.268
282.919
283.504
282.533
283.153
283.138
283.127
283.102
283.082
283.056
283.05
283.05
283.075
283.087
283.119
283.116
283.155
283.124
283.185
283.094
283.21
283.019
283.259
282.9
283.154
283.139
283.129
283.108
283.093
283.069
283.056
283.041
283.046
283.049
283.072
283.082
283.117
283.123
283.164
283.15
283.194
283.149
283.195
283.122
283.153
283.138
283.126
283.104
283.088
283.065
283.049
283.033
283.03
283.029
283.041
283.052
283.074
283.092
283.119
283.138
283.158
283.17
283.168
283.178
283.154
283.138
283.128
283.105
283.09
283.067
283.052
283.036
283.032
283.031
283.04
283.051
283.069
283.089
283.111
283.136
283.153
283.175
283.173
283.192
283.154
283.138
283.127
283.104
283.088
283.064
283.049
283.033
283.028
283.027
283.035
283.046
283.062
283.081
283.103
283.127
283.145
283.167
283.169
283.184
283.154
283.138
283.127
283.104
283.088
283.064
283.049
283.033
283.028
283.027
283.035
283.046
283.062
283.081
283.103
283.127
283.145
283.166
283.17
283.182
283.154
283.138
283.128
283.106
283.09
283.067
283.052
283.037
283.032
283.031
283.04
283.051
283.069
283.089
283.112
283.135
283.154
283.173
283.176
283.187
283.153
283.138
283.126
283.104
283.087
283.065
283.049
283.034
283.029
283.03
283.04
283.053
283.073
283.094
283.118
283.14
283.157
283.17
283.17
283.174
283.154
283.139
283.129
283.108
283.093
283.07
283.055
283.043
283.044
283.051
283.069
283.087
283.111
283.132
283.153
283.165
283.175
283.173
283.167
283.156
283.153
283.138
283.126
283.103
283.082
283.057
283.048
283.052
283.072
283.092
283.112
283.126
283.14
283.147
283.15
283.145
283.136
283.124
283.113
283.1
283.155
283.141
283.135
283.098
283.076
283.062
283.11
283.16
283.195
283.172
283.153
283.14
283.153
283.155
283.154
283.142
283.139
283.135
283.136
283.135
283.241
283.19
283.248
283.139
283.194
283.137
283.219
283.184
283.237
283.183
283.217
283.17
283.211
283.16
283.21
283.127
283.229
283.05
283.36
282.753
283.183
283.131
283.151
283.086
283.087
283.044
283.064
283.056
283.082
283.075
283.094
283.079
283.103
283.076
283.115
283.052
283.136
282.985
283.206
282.824
283.23
283.163
283.22
283.146
283.175
283.109
283.133
283.089
283.122
283.098
283.136
283.117
283.155
283.132
283.176
283.131
283.194
283.101
283.215
283.037
283.2
283.126
283.169
283.102
283.122
283.063
283.072
283.027
283.041
283.017
283.04
283.032
283.059
283.056
283.085
283.079
283.11
283.087
283.119
283.076
283.223
283.141
283.201
283.121
283.156
283.087
283.107
283.053
283.072
283.037
283.063
283.047
283.077
283.072
283.103
283.104
283.131
283.131
283.144
283.14
283.216
283.122
283.183
283.097
283.133
283.062
283.084
283.027
283.046
283.01
283.034
283.017
283.044
283.04
283.069
283.074
283.098
283.107
283.116
283.121
283.216
283.122
283.183
283.097
283.133
283.062
283.084
283.028
283.046
283.01
283.034
283.017
283.044
283.04
283.068
283.074
283.098
283.107
283.117
283.12
283.223
283.141
283.201
283.121
283.155
283.088
283.107
283.053
283.071
283.038
283.062
283.048
283.075
283.073
283.101
283.106
283.129
283.133
283.142
283.141
283.2
283.126
283.169
283.102
283.122
283.063
283.072
283.028
283.04
283.018
283.038
283.034
283.055
283.061
283.079
283.087
283.098
283.102
283.101
283.099
283.23
283.163
283.22
283.146
283.175
283.109
283.132
283.09
283.121
283.1
283.133
283.121
283.149
283.142
283.162
283.153
283.163
283.148
283.149
283.129
283.183
283.131
283.151
283.086
283.087
283.045
283.063
283.057
283.08
283.077
283.091
283.084
283.095
283.089
283.094
283.085
283.083
283.072
283.068
283.053
283.241
283.19
283.248
283.139
283.194
283.137
283.218
283.185
283.236
283.185
283.213
283.175
283.203
283.173
283.189
283.161
283.171
283.152
283.158
283.133
282.713
282.681
282.54
282.584
282.509
282.592
282.565
282.635
282.605
282.644
282.615
282.643
282.629
282.642
282.645
282.629
282.675
282.587
282.76
282.445
282.763
282.743
282.651
282.66
282.597
282.631
282.619
282.663
282.663
282.688
282.683
282.696
282.7
282.701
282.72
282.69
282.752
282.644
282.841
282.484
282.73
282.724
282.618
282.647
282.563
282.59
282.537
282.575
282.553
282.594
282.588
282.622
282.628
282.646
282.669
282.659
282.712
282.645
282.766
282.587
282.755
282.755
282.675
282.704
282.642
282.659
282.613
282.63
282.606
282.63
282.629
282.656
282.672
282.693
282.723
282.731
282.772
282.757
282.808
282.761
282.735
282.742
282.645
282.686
282.613
282.642
282.585
282.606
282.568
282.594
282.579
282.611
282.614
282.649
282.664
282.697
282.717
282.746
282.761
282.781
282.74
282.759
282.662
282.708
282.636
282.668
282.611
282.634
282.593
282.619
282.6
282.632
282.631
282.667
282.677
282.717
282.732
282.772
282.781
282.819
282.74
282.759
282.662
282.708
282.636
282.668
282.61
282.634
282.593
282.619
282.6
282.632
282.63
282.668
282.677
282.718
282.731
282.773
282.781
282.819
282.735
282.742
282.645
282.686
282.613
282.642
282.585
282.607
282.568
282.595
282.578
282.612
282.613
282.651
282.661
282.7
282.713
282.75
282.757
282.785
282.755
282.755
282.675
282.704
282.641
282.66
282.612
282.63
282.605
282.631
282.628
282.658
282.669
282.699
282.716
282.742
282.757
282.777
282.783
282.792
282.73
282.724
282.618
282.647
282.563
282.59
282.537
282.576
282.552
282.596
282.586
282.625
282.622
282.655
282.655
282.681
282.679
282.696
282.69
282.698
282.763
282.743
282.651
282.66
282.597
282.631
282.619
282.663
282.662
282.69
282.681
282.7
282.694
282.71
282.705
282.715
282.709
282.718
282.711
282.715
282.713
282.681
282.54
282.584
282.509
282.592
282.564
282.636
282.604
282.646
282.613
282.646
282.624
282.651
282.632
282.651
282.637
282.654
282.64
282.659
284.794
286.393
287.452
288.309
288.996
289.601
290.127
290.626
291.083
291.518
291.916
292.293
292.648
292.994
293.325
293.646
293.95
294.242
294.518
294.782
295.034
295.272
295.493
295.698
295.883
296.05
296.198
296.326
296.434
296.524
296.595
296.649
296.689
296.718
296.737
296.749
296.757
296.762
296.764
296.766
296.766
296.766
296.766
296.766
296.766
296.765
296.765
296.765
296.765
296.764
296.764
296.764
296.764
296.763
296.763
296.763
296.763
296.763
296.762
296.762
296.762
296.762
296.762
296.762
296.761
296.761
296.761
296.761
296.761
296.761
296.761
296.76
296.76
296.76
296.76
296.76
296.76
296.76
296.759
296.759
296.759
296.759
296.758
296.758
296.757
296.757
296.755
296.755
296.752
296.748
283.971
285.425
286.443
287.277
287.956
288.552
289.071
289.559
290.011
290.442
290.839
291.215
291.568
291.91
292.239
292.56
292.865
293.157
293.434
293.7
293.953
294.193
294.418
294.627
294.818
294.99
295.142
295.276
295.39
295.485
295.561
295.62
295.665
295.696
295.718
295.733
295.742
295.747
295.75
295.752
295.753
295.753
295.753
295.753
295.752
295.752
295.752
295.751
295.751
295.751
295.75
295.75
295.75
295.75
295.749
295.749
295.749
295.749
295.749
295.748
295.748
295.748
295.748
295.748
295.748
295.747
295.747
295.747
295.747
295.747
295.747
295.746
295.746
295.746
295.746
295.746
295.746
295.745
295.745
295.745
295.745
295.744
295.744
295.744
295.743
295.743
295.741
295.742
295.738
295.734
283.178
284.214
285.065
285.827
286.467
287.037
287.527
287.989
288.42
288.84
289.231
289.602
289.947
290.281
290.603
290.92
291.225
291.518
291.796
292.064
292.319
292.565
292.797
293.015
293.216
293.398
293.562
293.708
293.834
293.942
294.03
294.101
294.155
294.195
294.223
294.242
294.255
294.262
294.267
294.269
294.271
294.271
294.271
294.271
294.271
294.27
294.27
294.27
294.269
294.269
294.269
294.268
294.268
294.268
294.268
294.267
294.267
294.267
294.267
294.266
294.266
294.266
294.266
294.265
294.265
294.265
294.265
294.265
294.265
294.264
294.264
294.264
294.264
294.264
294.263
294.263
294.263
294.263
294.262
294.262
294.262
294.262
294.261
294.261
294.259
294.26
294.257
294.258
294.253
294.248
282.903
283.452
284.043
284.652
285.208
285.714
286.151
286.56
286.95
287.339
287.712
288.066
288.396
288.712
289.02
289.326
289.624
289.914
290.191
290.457
290.713
290.961
291.199
291.426
291.637
291.831
292.008
292.166
292.306
292.428
292.531
292.614
292.68
292.73
292.766
292.791
292.808
292.818
292.825
292.828
292.83
292.831
292.831
292.831
292.831
292.83
292.83
292.83
292.829
292.829
292.829
292.828
292.828
292.828
292.827
292.827
292.827
292.827
292.826
292.826
292.826
292.826
292.825
292.825
292.825
292.825
292.824
292.824
292.824
292.824
292.824
292.823
292.823
292.823
292.823
292.823
292.822
292.822
292.822
292.822
292.821
292.821
292.821
292.821
292.82
292.82
292.818
292.819
292.815
292.81
282.789
283.026
283.359
283.801
284.242
284.668
285.034
285.38
285.713
286.06
286.401
286.732
287.038
287.332
287.619
287.908
288.196
288.478
288.749
289.01
289.263
289.511
289.752
289.984
290.203
290.406
290.591
290.76
290.911
291.044
291.158
291.253
291.329
291.387
291.43
291.46
291.48
291.494
291.502
291.506
291.509
291.51
291.511
291.511
291.51
291.51
291.51
291.509
291.509
291.509
291.508
291.508
291.508
291.507
291.507
291.507
291.507
291.506
291.506
291.506
291.506
291.505
291.505
291.505
291.505
291.504
291.504
291.504
291.504
291.504
291.503
291.503
291.503
291.503
291.502
291.502
291.502
291.502
291.501
291.501
291.501
291.501
291.5
291.5
291.499
291.499
291.497
291.497
291.494
291.489
282.805
282.882
283.032
283.325
283.65
283.98
284.268
284.538
284.809
285.102
285.403
285.698
285.975
286.24
286.502
286.77
287.041
287.31
287.57
287.823
288.07
288.314
288.553
288.786
289.006
289.212
289.402
289.576
289.732
289.871
289.991
290.091
290.172
290.235
290.282
290.315
290.338
290.352
290.361
290.367
290.37
290.371
290.371
290.371
290.371
290.371
290.371
290.37
290.37
290.369
290.369
290.369
290.368
290.368
290.368
290.367
290.367
290.367
290.367
290.366
290.366
290.366
290.366
290.365
290.365
290.365
290.365
290.365
290.364
290.364
290.364
290.364
290.364
290.363
290.363
290.363
290.363
290.363
290.362
290.362
290.362
290.362
290.361
290.361
290.36
290.36
290.36
290.359
290.358
290.355
282.809
282.821
282.87
283.056
283.282
283.526
283.737
283.94
284.154
284.397
284.655
284.912
285.155
285.392
285.629
285.876
286.129
286.383
286.631
286.874
287.113
287.35
287.585
287.814
288.032
288.236
288.425
288.597
288.753
288.891
289.011
289.111
289.192
289.254
289.301
289.334
289.356
289.371
289.38
289.385
289.388
289.389
289.39
289.39
289.39
289.389
289.389
289.389
289.388
289.388
289.387
289.387
289.387
289.386
289.386
289.386
289.386
289.385
289.385
289.385
289.385
289.384
289.384
289.384
289.384
289.383
289.383
289.383
289.383
289.383
289.382
289.382
289.382
289.382
289.382
289.382
289.381
289.381
289.381
289.381
289.38
289.38
289.38
289.38
289.379
289.379
289.378
289.377
289.378
289.376
282.781
282.775
282.784
282.904
283.055
283.227
283.373
283.527
283.695
283.898
284.114
284.337
284.549
284.761
284.977
285.206
285.442
285.681
285.916
286.15
286.38
286.611
286.839
287.062
287.273
287.471
287.653
287.819
287.968
288.099
288.212
288.305
288.38
288.438
288.48
288.51
288.531
288.544
288.552
288.556
288.559
288.56
288.56
288.56
288.56
288.56
288.559
288.559
288.558
288.558
288.558
288.557
288.557
288.557
288.556
288.556
288.556
288.556
288.555
288.555
288.555
288.555
288.554
288.554
288.554
288.554
288.554
288.553
288.553
288.553
288.553
288.553
288.552
288.552
288.552
288.552
288.551
288.551
288.551
288.551
288.55
288.55
288.55
288.549
288.549
288.548
288.547
288.546
288.546
288.544
282.791
282.781
282.785
282.863
282.962
283.072
283.171
283.287
283.424
283.593
283.776
283.965
284.151
284.343
284.543
284.757
284.978
285.203
285.427
285.651
285.874
286.098
286.317
286.53
286.731
286.918
287.089
287.243
287.38
287.499
287.6
287.682
287.747
287.795
287.831
287.855
287.872
287.882
287.888
287.891
287.893
287.894
287.894
287.894
287.894
287.893
287.893
287.892
287.892
287.892
287.891
287.891
287.891
287.89
287.89
287.89
287.889
287.889
287.889
287.889
287.888
287.888
287.888
287.888
287.887
287.887
287.887
287.887
287.887
287.886
287.886
287.886
287.886
287.886
287.885
287.885
287.885
287.885
287.884
287.884
287.884
287.884
287.883
287.883
287.882
287.882
287.882
287.88
287.881
287.88
282.705
282.722
282.73
282.796
282.855
282.932
283.003
283.104
283.223
283.373
283.53
283.698
283.866
284.048
284.239
284.444
284.654
284.87
285.085
285.303
285.521
285.738
285.948
286.15
286.339
286.513
286.671
286.811
286.934
287.038
287.124
287.193
287.245
287.284
287.311
287.33
287.342
287.349
287.354
287.356
287.357
287.357
287.357
287.357
287.357
287.356
287.356
287.355
287.355
287.355
287.354
287.354
287.354
287.353
287.353
287.353
287.352
287.352
287.352
287.352
287.351
287.351
287.351
287.351
287.35
287.35
287.35
287.35
287.35
287.349
287.349
287.349
287.349
287.348
287.348
287.348
287.348
287.348
287.347
287.347
287.346
287.346
287.346
287.345
287.344
287.344
287.343
287.342
287.342
287.341
282.726
282.748
282.764
282.813
282.85
282.904
282.964
283.057
283.169
283.305
283.447
283.601
283.762
283.938
284.125
284.324
284.528
284.737
284.949
285.163
285.376
285.587
285.79
285.983
286.161
286.324
286.47
286.598
286.708
286.799
286.873
286.93
286.972
287.003
287.024
287.037
287.046
287.051
287.054
287.055
287.056
287.056
287.055
287.055
287.054
287.054
287.054
287.053
287.053
287.052
287.052
287.052
287.051
287.051
287.051
287.05
287.05
287.05
287.05
287.049
287.049
287.049
287.049
287.048
287.048
287.048
287.048
287.047
287.047
287.047
287.047
287.047
287.046
287.046
287.046
287.046
287.045
287.045
287.045
287.045
287.044
287.044
287.043
287.043
287.042
287.042
287.041
287.04
287.04
287.039
282.66
282.692
282.708
282.756
282.785
282.836
282.893
282.987
283.097
283.23
283.368
283.519
283.678
283.853
284.039
284.237
284.439
284.647
284.857
285.07
285.282
285.49
285.69
285.878
286.052
286.21
286.35
286.473
286.577
286.663
286.731
286.783
286.821
286.848
286.867
286.878
286.886
286.89
286.892
286.893
286.893
286.893
286.893
286.892
286.892
286.892
286.891
286.891
286.89
286.89
286.89
286.889
286.889
286.889
286.888
286.888
286.888
286.887
286.887
286.887
286.887
286.886
286.886
286.886
286.886
286.885
286.885
286.885
286.885
286.884
286.884
286.884
286.884
286.884
286.883
286.883
286.883
286.883
286.882
286.882
286.881
286.881
286.881
286.88
286.879
286.879
286.878
286.877
286.876
286.875
285.477
287.225
288.349
289.2
289.908
290.505
291.046
291.538
292.003
292.433
292.835
293.209
293.568
293.911
294.245
294.564
294.87
295.159
295.436
295.699
295.95
296.186
296.406
296.609
296.793
296.957
297.103
297.228
297.335
297.422
297.49
297.543
297.581
297.608
297.626
297.638
297.645
297.649
297.651
297.652
297.653
297.653
297.652
297.652
297.652
297.651
297.651
297.651
297.65
297.65
297.65
297.649
297.649
297.649
297.649
297.648
297.648
297.648
297.648
297.648
297.647
297.647
297.647
297.647
297.647
297.647
297.647
297.646
297.646
297.646
297.646
297.646
297.646
297.646
297.646
297.646
297.646
297.645
297.646
297.645
297.646
297.645
297.646
297.646
297.646
297.646
297.647
297.646
297.652
297.651
284.141
285.578
286.627
287.459
288.157
288.749
289.278
289.763
290.221
290.65
291.052
291.427
291.783
292.125
292.457
292.777
293.083
293.376
293.654
293.92
294.174
294.415
294.641
294.85
295.041
295.213
295.367
295.501
295.616
295.711
295.788
295.848
295.893
295.925
295.947
295.962
295.971
295.977
295.98
295.981
295.982
295.982
295.982
295.982
295.981
295.981
295.98
295.98
295.98
295.979
295.979
295.979
295.979
295.978
295.978
295.978
295.978
295.977
295.977
295.977
295.977
295.977
295.976
295.976
295.976
295.976
295.976
295.976
295.976
295.975
295.975
295.975
295.975
295.975
295.975
295.975
295.975
295.975
295.975
295.975
295.975
295.974
295.975
295.974
295.975
295.975
295.975
295.975
295.979
295.978
283.465
284.368
285.213
285.943
286.592
287.146
287.642
288.094
288.529
288.943
289.338
289.706
290.054
290.385
290.709
291.024
291.331
291.623
291.903
292.17
292.427
292.673
292.907
293.125
293.328
293.512
293.678
293.825
293.954
294.063
294.154
294.226
294.282
294.323
294.352
294.372
294.385
294.393
294.398
294.4
294.402
294.402
294.402
294.402
294.401
294.401
294.4
294.4
294.4
294.399
294.399
294.399
294.398
294.398
294.398
294.398
294.397
294.397
294.397
294.397
294.396
294.396
294.396
294.396
294.396
294.396
294.395
294.395
294.395
294.395
294.395
294.395
294.395
294.395
294.395
294.394
294.394
294.394
294.394
294.394
294.394
294.394
294.394
294.394
294.395
294.394
294.396
294.395
294.399
294.398
283.137
283.561
284.109
284.675
285.224
285.713
286.15
286.549
286.939
287.323
287.699
288.053
288.385
288.7
289.008
289.313
289.613
289.904
290.182
290.448
290.705
290.954
291.194
291.422
291.635
291.832
292.011
292.172
292.315
292.439
292.545
292.632
292.7
292.752
292.79
292.817
292.834
292.845
292.852
292.856
292.858
292.859
292.859
292.859
292.859
292.858
292.858
292.857
292.857
292.857
292.856
292.856
292.856
292.855
292.855
292.855
292.854
292.854
292.854
292.854
292.853
292.853
292.853
292.853
292.853
292.852
292.852
292.852
292.852
292.852
292.852
292.851
292.851
292.851
292.851
292.851
292.851
292.851
292.851
292.85
292.85
292.85
292.85
292.85
292.85
292.85
292.851
292.85
292.853
292.852
283.108
283.215
283.504
283.873
284.295
284.686
285.044
285.369
285.697
286.032
286.373
286.699
287.007
287.296
287.582
287.869
288.156
288.437
288.709
288.97
289.223
289.471
289.713
289.946
290.166
290.371
290.56
290.731
290.885
291.022
291.139
291.237
291.317
291.378
291.423
291.456
291.477
291.492
291.5
291.505
291.508
291.509
291.51
291.51
291.509
291.509
291.508
291.508
291.508
291.507
291.507
291.506
291.506
291.506
291.505
291.505
291.505
291.504
291.504
291.504
291.504
291.503
291.503
291.503
291.503
291.503
291.502
291.502
291.502
291.502
291.502
291.501
291.501
291.501
291.501
291.501
291.501
291.501
291.501
291.5
291.501
291.5
291.501
291.5
291.501
291.501
291.502
291.501
291.504
291.503
283.089
283.049
283.162
283.374
283.672
283.966
284.237
284.488
284.748
285.03
285.327
285.618
285.894
286.156
286.415
286.68
286.95
287.218
287.479
287.732
287.978
288.222
288.462
288.695
288.918
289.127
289.32
289.497
289.657
289.799
289.923
290.028
290.113
290.18
290.23
290.266
290.29
290.306
290.316
290.322
290.325
290.326
290.327
290.327
290.327
290.326
290.326
290.326
290.325
290.325
290.324
290.324
290.323
290.323
290.323
290.322
290.322
290.322
290.322
290.321
290.321
290.321
290.321
290.32
290.32
290.32
290.32
290.319
290.319
290.319
290.319
290.319
290.319
290.318
290.318
290.318
290.318
290.318
290.318
290.317
290.317
290.317
290.317
290.317
290.317
290.317
290.317
290.316
290.318
290.317
283.094
283.002
283.025
283.136
283.337
283.54
283.732
283.912
284.111
284.339
284.589
284.84
285.081
285.311
285.544
285.786
286.036
286.287
286.535
286.776
287.014
287.25
287.485
287.715
287.935
288.142
288.333
288.509
288.668
288.81
288.933
289.038
289.123
289.189
289.239
289.274
289.299
289.315
289.324
289.33
289.333
289.335
289.335
289.335
289.335
289.335
289.334
289.334
289.333
289.333
289.332
289.332
289.332
289.331
289.331
289.331
289.33
289.33
289.33
289.329
289.329
289.329
289.329
289.328
289.328
289.328
289.328
289.328
289.327
289.327
289.327
289.327
289.327
289.326
289.326
289.326
289.326
289.326
289.326
289.325
289.325
289.325
289.325
289.325
289.325
289.325
289.325
289.324
289.325
289.325
283.108
283.01
283.001
283.06
283.192
283.322
283.451
283.573
283.726
283.908
284.116
284.325
284.532
284.734
284.944
285.164
285.396
285.63
285.863
286.093
286.321
286.55
286.777
286.999
287.212
287.411
287.595
287.763
287.915
288.05
288.166
288.263
288.341
288.402
288.447
288.479
288.5
288.514
288.523
288.528
288.53
288.532
288.532
288.532
288.531
288.531
288.53
288.53
288.529
288.529
288.529
288.528
288.528
288.527
288.527
288.527
288.526
288.526
288.526
288.525
288.525
288.525
288.525
288.524
288.524
288.524
288.524
288.523
288.523
288.523
288.523
288.523
288.523
288.522
288.522
288.522
288.522
288.522
288.522
288.521
288.522
288.521
288.522
288.521
288.522
288.521
288.523
288.522
288.524
288.524
283.059
282.987
282.978
283.019
283.104
283.186
283.27
283.362
283.485
283.637
283.811
283.989
284.169
284.352
284.546
284.752
284.969
285.19
285.411
285.631
285.853
286.074
286.293
286.506
286.708
286.896
287.068
287.225
287.364
287.486
287.59
287.675
287.742
287.793
287.83
287.856
287.873
287.884
287.891
287.894
287.896
287.897
287.897
287.897
287.896
287.896
287.895
287.895
287.894
287.894
287.893
287.893
287.893
287.892
287.892
287.891
287.891
287.891
287.891
287.89
287.89
287.89
287.889
287.889
287.889
287.889
287.888
287.888
287.888
287.888
287.888
287.887
287.887
287.887
287.887
287.887
287.887
287.886
287.886
287.886
287.886
287.886
287.886
287.886
287.886
287.885
287.886
287.885
287.886
287.887
283.098
283.043
283.048
283.071
283.125
283.169
283.229
283.303
283.412
283.543
283.693
283.847
284.01
284.18
284.366
284.562
284.769
284.978
285.191
285.405
285.621
285.835
286.046
286.247
286.436
286.611
286.77
286.912
287.036
287.142
287.23
287.301
287.355
287.395
287.423
287.442
287.455
287.462
287.467
287.469
287.47
287.47
287.47
287.47
287.469
287.469
287.468
287.468
287.467
287.467
287.466
287.466
287.465
287.465
287.465
287.464
287.464
287.464
287.463
287.463
287.463
287.463
287.462
287.462
287.462
287.461
287.461
287.461
287.461
287.461
287.46
287.46
287.46
287.46
287.46
287.459
287.459
287.459
287.459
287.459
287.459
287.459
287.459
287.459
287.459
287.459
287.46
287.459
287.461
287.462
283.041
283.019
283.034
283.054
283.087
283.118
283.171
283.245
283.35
283.472
283.608
283.752
283.908
284.076
284.259
284.452
284.653
284.858
285.067
285.278
285.49
285.699
285.901
286.093
286.271
286.434
286.58
286.709
286.819
286.911
286.985
287.043
287.086
287.117
287.138
287.152
287.16
287.165
287.168
287.169
287.17
287.17
287.169
287.169
287.168
287.168
287.167
287.167
287.166
287.166
287.165
287.165
287.165
287.164
287.164
287.164
287.163
287.163
287.163
287.162
287.162
287.162
287.161
287.161
287.161
287.161
287.16
287.16
287.16
287.16
287.16
287.159
287.159
287.159
287.159
287.159
287.158
287.158
287.158
287.158
287.158
287.158
287.158
287.157
287.158
287.157
287.158
287.157
287.158
287.159
283.136
283.118
283.14
283.149
283.175
283.197
283.252
283.326
283.431
283.548
283.68
283.819
283.974
284.141
284.324
284.515
284.715
284.918
285.126
285.335
285.545
285.751
285.948
286.134
286.305
286.461
286.599
286.719
286.82
286.904
286.969
287.02
287.056
287.082
287.099
287.11
287.116
287.12
287.122
287.123
287.123
287.122
287.122
287.121
287.121
287.12
287.12
287.119
287.119
287.118
287.118
287.117
287.117
287.117
287.116
287.116
287.116
287.115
287.115
287.115
287.114
287.114
287.114
287.114
287.113
287.113
287.113
287.113
287.112
287.112
287.112
287.112
287.112
287.111
287.111
287.111
287.111
287.111
287.111
287.11
287.11
287.11
287.11
287.11
287.111
287.11
287.111
287.11
287.113
287.113
286.078
288.352
289.655
290.592
291.346
291.982
292.551
293.068
293.548
293.988
294.398
294.781
295.148
295.499
295.838
296.16
296.468
296.758
297.036
297.298
297.548
297.781
297.997
298.194
298.372
298.53
298.67
298.788
298.888
298.967
299.03
299.076
299.109
299.132
299.148
299.157
299.163
299.165
299.167
299.167
299.168
299.167
299.167
299.166
299.166
299.165
299.165
299.164
299.164
299.163
299.163
299.162
299.162
299.161
299.161
299.161
299.16
299.16
299.16
299.159
299.159
299.159
299.159
299.158
299.158
299.158
299.158
299.157
299.157
299.157
299.157
299.156
299.156
299.156
299.156
299.156
299.156
299.155
299.155
299.155
299.155
299.155
299.155
299.155
299.155
299.155
299.156
299.154
299.161
299.162
283.891
285.488
286.69
287.614
288.367
289
289.561
290.073
290.552
290.997
291.411
291.798
292.164
292.515
292.854
293.181
293.492
293.789
294.071
294.34
294.595
294.837
295.063
295.272
295.462
295.634
295.786
295.918
296.031
296.125