/*--------------------------------*- C++ -*----------------------------------*\
  =========                 |
  \\      /  F ield         | OpenFOAM: The Open Source CFD Toolbox
   \\    /   O peration     | Website:  https://openfoam.org
    \\  /    A nd           | Version:  7
     \\/     M anipulation  |
\*---------------------------------------------------------------------------*/
FoamFile
{
    version     2.0;
    format      ascii;
    class       volVectorField;
    location    "0.1375";
    object      UMean;
}
// * * * * * * * * * * * * * * * * * * * * * * * * * * * * * * * * * * * * * //

dimensions      [0 1 -1 0 0 0 0];

internalField   nonuniform List<vector> 
1440
(
(11.9702 0.0361609 0)
(11.8826 0.135024 0)
(11.6983 0.225268 0)
(11.4266 0.296711 0)
(11.0921 0.347762 0)
(10.7163 0.378266 0)
(10.3161 0.390161 0)
(9.90265 0.386444 0)
(9.48726 0.371306 0)
(9.07673 0.347884 0)
(8.68007 0.319446 0)
(8.30003 0.289181 0)
(7.9402 0.258095 0)
(7.60343 0.227628 0)
(7.29052 0.198654 0)
(7.00159 0.171519 0)
(6.73626 0.146443 0)
(6.49391 0.123577 0)
(6.27357 0.102977 0)
(6.0741 0.0846097 0)
(5.89413 0.068375 0)
(5.73229 0.0541355 0)
(5.58711 0.0417357 0)
(5.45717 0.0310164 0)
(5.34108 0.0218173 0)
(5.2375 0.0139835 0)
(5.14517 0.00736502 0)
(5.0629 0.00182278 0)
(4.98959 -0.00276957 0)
(4.92424 -0.00652749 0)
(4.86593 -0.00955458 0)
(4.81382 -0.0119444 0)
(4.76716 -0.0137821 0)
(4.72529 -0.0151452 0)
(4.6876 -0.0161065 0)
(4.65356 -0.0167316 0)
(4.62271 -0.0170777 0)
(4.59463 -0.0171938 0)
(4.56896 -0.0171218 0)
(4.5454 -0.0168983 0)
(4.52367 -0.0165545 0)
(4.50353 -0.0161166 0)
(4.48478 -0.0156066 0)
(4.46724 -0.0150424 0)
(4.45076 -0.0144382 0)
(4.4352 -0.0138047 0)
(4.42045 -0.0131504 0)
(4.4064 -0.0124834 0)
(4.39296 -0.0118115 0)
(4.38007 -0.0111418 0)
(4.36765 -0.0104798 0)
(4.35564 -0.00982963 0)
(4.34401 -0.00919427 0)
(4.33271 -0.00857595 0)
(4.32171 -0.00797629 0)
(4.31097 -0.00739632 0)
(4.30048 -0.00683652 0)
(4.29021 -0.00629723 0)
(4.28014 -0.0057786 0)
(4.27026 -0.00528065 0)
(4.26056 -0.00480341 0)
(4.25103 -0.00434672 0)
(4.24165 -0.00391036 0)
(4.23243 -0.00349409 0)
(4.22335 -0.00309755 0)
(4.21442 -0.00272029 0)
(4.20562 -0.00236171 0)
(4.19695 -0.00202125 0)
(4.18842 -0.00169827 0)
(4.18001 -0.00139213 0)
(4.17173 -0.00110217 0)
(4.16357 -0.000827741 0)
(4.15553 -0.000568168 0)
(4.14762 -0.000322859 0)
(4.13982 -9.11367e-05 0)
(4.13214 0.000127521 0)
(4.12457 0.000333689 0)
(4.11712 0.000527937 0)
(4.10978 0.000710864 0)
(4.10255 0.000882986 0)
(4.09543 0.00104486 0)
(4.08842 0.0011969 0)
(4.08152 0.00133962 0)
(4.07472 0.00147339 0)
(4.06802 0.0015987 0)
(4.06143 0.00171594 0)
(4.05493 0.00182565 0)
(4.04853 0.00192815 0)
(4.04223 0.00202381 0)
(4.03602 0.00211283 0)
(4.0299 0.00219554 0)
(4.02387 0.00227216 0)
(4.01793 0.00234318 0)
(4.01208 0.00240884 0)
(4.00632 0.00246962 0)
(4.00064 0.00252563 0)
(3.99504 0.00257711 0)
(3.98953 0.00262408 0)
(3.9841 0.0026667 0)
(3.97874 0.0027053 0)
(3.97347 0.00274001 0)
(3.96827 0.00277169 0)
(3.96314 0.00279983 0)
(3.95809 0.0028261 0)
(3.95312 0.00284818 0)
(3.94821 0.00286985 0)
(3.94339 0.0028848 0)
(3.93863 0.00290259 0)
(3.93396 0.0029077 0)
(3.92931 0.00292424 0)
(3.9248 0.00291419 0)
(3.92025 0.00293633 0)
(3.91593 0.00289885 0)
(3.91143 0.00294165 0)
(3.90738 0.00284748 0)
(3.90284 0.00294297 0)
(3.8993 0.00273489 0)
(3.89438 0.00296148 0)
(3.89206 0.00257677 0)
(3.88528 0.00313334 0)
(11.9921 0.0495087 0)
(12.037 0.13745 0)
(12.1065 0.213202 0)
(12.189 0.279205 0)
(12.2772 0.336227 0)
(12.3635 0.383236 0)
(12.4414 0.419574 0)
(12.5051 0.445584 0)
(12.5519 0.462416 0)
(12.5803 0.471281 0)
(12.5914 0.473298 0)
(12.5864 0.469594 0)
(12.5671 0.461085 0)
(12.5355 0.448602 0)
(12.4935 0.432879 0)
(12.4428 0.414617 0)
(12.3854 0.394519 0)
(12.3228 0.373239 0)
(12.2566 0.351363 0)
(12.1878 0.329379 0)
(12.1175 0.307676 0)
(12.0464 0.286577 0)
(11.9751 0.2663 0)
(11.9042 0.24701 0)
(11.8341 0.228822 0)
(11.765 0.211797 0)
(11.6972 0.195961 0)
(11.6309 0.181308 0)
(11.5661 0.16781 0)
(11.5029 0.15542 0)
(11.4413 0.144084 0)
(11.3814 0.133739 0)
(11.3232 0.124319 0)
(11.2665 0.115755 0)
(11.2114 0.107979 0)
(11.1579 0.100925 0)
(11.1058 0.0945281 0)
(11.0552 0.0887279 0)
(11.0061 0.0834675 0)
(10.9582 0.0786944 0)
(10.9117 0.07436 0)
(10.8665 0.0704198 0)
(10.8225 0.0668336 0)
(10.7797 0.0635642 0)
(10.7381 0.0605784 0)
(10.6976 0.057846 0)
(10.6582 0.0553415 0)
(10.6199 0.0530422 0)
(10.5825 0.0509273 0)
(10.5462 0.0489776 0)
(10.5108 0.0471758 0)
(10.4763 0.0455065 0)
(10.4428 0.0439557 0)
(10.4101 0.042511 0)
(10.3783 0.0411614 0)
(10.3473 0.0398965 0)
(10.3171 0.0387073 0)
(10.2877 0.0375855 0)
(10.2591 0.036524 0)
(10.2312 0.035517 0)
(10.204 0.0345596 0)
(10.1775 0.0336476 0)
(10.1516 0.0327773 0)
(10.1265 0.0319456 0)
(10.1019 0.0311496 0)
(10.078 0.0303866 0)
(10.0547 0.0296545 0)
(10.0319 0.028951 0)
(10.0097 0.0282745 0)
(9.98811 0.0276231 0)
(9.96703 0.0269955 0)
(9.94646 0.0263904 0)
(9.9264 0.0258067 0)
(9.90683 0.0252434 0)
(9.88774 0.0246998 0)
(9.86911 0.0241749 0)
(9.85094 0.0236682 0)
(9.83321 0.023179 0)
(9.8159 0.0227069 0)
(9.79901 0.0222513 0)
(9.78253 0.0218117 0)
(9.76643 0.0213877 0)
(9.75071 0.0209789 0)
(9.73536 0.0205845 0)
(9.72037 0.0202043 0)
(9.70572 0.0198377 0)
(9.6914 0.0194844 0)
(9.67742 0.0191439 0)
(9.66374 0.0188158 0)
(9.65037 0.0184994 0)
(9.6373 0.0181942 0)
(9.62452 0.0178998 0)
(9.61201 0.0176158 0)
(9.59977 0.0173419 0)
(9.58779 0.0170776 0)
(9.57607 0.0168227 0)
(9.56459 0.0165765 0)
(9.55335 0.0163387 0)
(9.54234 0.0161086 0)
(9.53156 0.0158862 0)
(9.521 0.0156708 0)
(9.51064 0.015463 0)
(9.5005 0.0152616 0)
(9.49055 0.0150681 0)
(9.4808 0.0148793 0)
(9.47123 0.0146987 0)
(9.46186 0.0145197 0)
(9.45265 0.0143506 0)
(9.44365 0.0141771 0)
(9.43475 0.014019 0)
(9.42613 0.0138449 0)
(9.41749 0.0136987 0)
(9.4093 0.0135132 0)
(9.40081 0.0133804 0)
(9.39322 0.0131626 0)
(9.38457 0.013039 0)
(9.37808 0.0127558 0)
(9.36857 0.0126166 0)
(9.36448 0.0122675 0)
(9.35209 0.0120868 0)
(11.9908 0.0298879 0)
(12.0175 0.0873603 0)
(12.06 0.140364 0)
(12.116 0.187988 0)
(12.1863 0.229946 0)
(12.27 0.265786 0)
(12.3649 0.295004 0)
(12.4676 0.317412 0)
(12.5748 0.333231 0)
(12.6834 0.342921 0)
(12.7909 0.346997 0)
(12.8955 0.346086 0)
(12.9955 0.340809 0)
(13.09 0.331814 0)
(13.1781 0.319921 0)
(13.2595 0.305962 0)
(13.334 0.290662 0)
(13.4018 0.274614 0)
(13.4629 0.258307 0)
(13.5177 0.242141 0)
(13.5665 0.226424 0)
(13.6097 0.211387 0)
(13.6477 0.197186 0)
(13.681 0.183919 0)
(13.7099 0.171636 0)
(13.7349 0.160354 0)
(13.7563 0.150062 0)
(13.7746 0.14073 0)
(13.79 0.13231 0)
(13.8029 0.124746 0)
(13.8134 0.117974 0)
(13.822 0.111929 0)
(13.8287 0.106542 0)
(13.8339 0.101749 0)
(13.8376 0.0974855 0)
(13.84 0.093694 0)
(13.8413 0.0903192 0)
(13.8415 0.0873102 0)
(13.8409 0.0846212 0)
(13.8394 0.082211 0)
(13.8372 0.0800431 0)
(13.8343 0.0780856 0)
(13.8308 0.0763098 0)
(13.8268 0.0746907 0)
(13.8222 0.0732055 0)
(13.8172 0.0718335 0)
(13.8117 0.0705547 0)
(13.8059 0.0693519 0)
(13.7997 0.0682114 0)
(13.7932 0.0671226 0)
(13.7863 0.0660773 0)
(13.7792 0.0650687 0)
(13.7718 0.064091 0)
(13.7641 0.0631399 0)
(13.7563 0.0622114 0)
(13.7482 0.0613024 0)
(13.7399 0.0604103 0)
(13.7315 0.0595323 0)
(13.7228 0.0586663 0)
(13.7141 0.0578106 0)
(13.7052 0.0569644 0)
(13.6961 0.056127 0)
(13.687 0.0552979 0)
(13.6777 0.0544768 0)
(13.6684 0.0536637 0)
(13.6589 0.0528585 0)
(13.6494 0.0520613 0)
(13.6398 0.0512723 0)
(13.6301 0.0504915 0)
(13.6204 0.049719 0)
(13.6107 0.0489549 0)
(13.6009 0.0481994 0)
(13.591 0.0474529 0)
(13.5812 0.0467153 0)
(13.5713 0.0459873 0)
(13.5614 0.045269 0)
(13.5515 0.0445608 0)
(13.5416 0.043863 0)
(13.5317 0.043176 0)
(13.5218 0.0425001 0)
(13.5119 0.0418356 0)
(13.502 0.0411826 0)
(13.4922 0.0405415 0)
(13.4824 0.0399122 0)
(13.4726 0.039295 0)
(13.4629 0.0386898 0)
(13.4531 0.0380968 0)
(13.4435 0.0375156 0)
(13.4339 0.0369465 0)
(13.4243 0.0363889 0)
(13.4148 0.0358431 0)
(13.4053 0.0353083 0)
(13.3959 0.034785 0)
(13.3866 0.0342723 0)
(13.3773 0.0337708 0)
(13.3681 0.0332793 0)
(13.3589 0.0327986 0)
(13.3498 0.0323272 0)
(13.3408 0.0318662 0)
(13.3319 0.0314136 0)
(13.323 0.0309716 0)
(13.3142 0.0305369 0)
(13.3055 0.0301135 0)
(13.2968 0.0296957 0)
(13.2882 0.0292905 0)
(13.2797 0.0288871 0)
(13.2713 0.0284995 0)
(13.263 0.0281063 0)
(13.2548 0.027737 0)
(13.2466 0.027347 0)
(13.2385 0.0269995 0)
(13.2304 0.0265991 0)
(13.2227 0.0262825 0)
(13.2146 0.0258423 0)
(13.2073 0.0255768 0)
(13.1989 0.0250314 0)
(13.1926 0.0248591 0)
(13.1831 0.0240631 0)
(13.179 0.0240573 0)
(13.1666 0.0226694 0)
(11.9907 0.0207392 0)
(12.0153 0.0613103 0)
(12.0537 0.0994428 0)
(12.1037 0.133839 0)
(12.1661 0.163809 0)
(12.2403 0.18904 0)
(12.3244 0.209352 0)
(12.416 0.224714 0)
(12.5127 0.235323 0)
(12.6124 0.241612 0)
(12.7137 0.244138 0)
(12.815 0.243512 0)
(12.9153 0.240331 0)
(13.0136 0.235162 0)
(13.1092 0.228555 0)
(13.2015 0.220983 0)
(13.2899 0.212815 0)
(13.3741 0.204315 0)
(13.4539 0.195664 0)
(13.5293 0.186995 0)
(13.6002 0.178424 0)
(13.6667 0.17005 0)
(13.7289 0.161955 0)
(13.7871 0.154195 0)
(13.8414 0.146806 0)
(13.8923 0.139815 0)
(13.9398 0.133237 0)
(13.9843 0.127078 0)
(14.026 0.121335 0)
(14.0652 0.116 0)
(14.1021 0.111063 0)
(14.137 0.106507 0)
(14.1699 0.102313 0)
(14.2012 0.0984591 0)
(14.2309 0.0949229 0)
(14.2592 0.0916795 0)
(14.2863 0.0887048 0)
(14.3123 0.0859747 0)
(14.3372 0.0834664 0)
(14.3612 0.0811582 0)
(14.3843 0.0790304 0)
(14.4067 0.0770646 0)
(14.4283 0.0752442 0)
(14.4493 0.0735539 0)
(14.4696 0.07198 0)
(14.4894 0.0705092 0)
(14.5086 0.0691286 0)
(14.5273 0.0678262 0)
(14.5455 0.0665932 0)
(14.5633 0.0654219 0)
(14.5806 0.0643068 0)
(14.5974 0.0632427 0)
(14.6139 0.0622256 0)
(14.63 0.0612513 0)
(14.6456 0.060317 0)
(14.661 0.0594195 0)
(14.6759 0.0585572 0)
(14.6905 0.0577282 0)
(14.7048 0.0569315 0)
(14.7187 0.0561648 0)
(14.7323 0.0554262 0)
(14.7456 0.0547134 0)
(14.7586 0.0540245 0)
(14.7712 0.0533573 0)
(14.7836 0.0527104 0)
(14.7957 0.0520819 0)
(14.8075 0.0514708 0)
(14.819 0.0508755 0)
(14.8302 0.0502954 0)
(14.8412 0.049729 0)
(14.8519 0.0491759 0)
(14.8623 0.0486349 0)
(14.8724 0.0481057 0)
(14.8824 0.0475872 0)
(14.892 0.0470794 0)
(14.9014 0.0465813 0)
(14.9106 0.0460929 0)
(14.9195 0.0456136 0)
(14.9282 0.0451434 0)
(14.9367 0.0446816 0)
(14.9449 0.0442286 0)
(14.953 0.0437835 0)
(14.9608 0.0433467 0)
(14.9684 0.0429174 0)
(14.9758 0.0424961 0)
(14.983 0.0420818 0)
(14.99 0.0416751 0)
(14.9968 0.0412751 0)
(15.0034 0.0408822 0)
(15.0098 0.0404954 0)
(15.0161 0.0401154 0)
(15.0221 0.039741 0)
(15.028 0.0393729 0)
(15.0338 0.0390099 0)
(15.0393 0.038653 0)
(15.0447 0.0383006 0)
(15.05 0.0379541 0)
(15.0551 0.0376113 0)
(15.06 0.0372743 0)
(15.0648 0.03694 0)
(15.0695 0.0366119 0)
(15.074 0.0362852 0)
(15.0783 0.0359662 0)
(15.0826 0.0356455 0)
(15.0866 0.0353359 0)
(15.0906 0.0350185 0)
(15.0945 0.0347194 0)
(15.0982 0.0343999 0)
(15.1018 0.0341149 0)
(15.1053 0.0337832 0)
(15.1086 0.0335212 0)
(15.1119 0.0331579 0)
(15.1149 0.0329377 0)
(15.1182 0.0325034 0)
(15.1208 0.0323615 0)
(15.1241 0.031778 0)
(15.1261 0.0317764 0)
(15.1297 0.0308895 0)
(15.1306 0.0310952 0)
(15.135 0.0295672 0)
(11.9907 0.0122291 0)
(12.0141 0.0362105 0)
(12.0501 0.0588017 0)
(12.0968 0.0791757 0)
(12.1554 0.0968674 0)
(12.2256 0.111721 0)
(12.3056 0.123705 0)
(12.3931 0.132849 0)
(12.4856 0.139282 0)
(12.5815 0.143261 0)
(12.679 0.14513 0)
(12.777 0.145243 0)
(12.8742 0.143921 0)
(12.9698 0.141435 0)
(13.0629 0.138004 0)
(13.153 0.133821 0)
(13.2395 0.129051 0)
(13.3221 0.123842 0)
(13.4007 0.11831 0)
(13.4751 0.112562 0)
(13.5454 0.106703 0)
(13.6116 0.100839 0)
(13.6739 0.09507 0)
(13.7325 0.0894887 0)
(13.7876 0.0841636 0)
(13.8395 0.0791439 0)
(13.8883 0.0744584 0)
(13.9343 0.0701189 0)
(13.9778 0.0661245 0)
(14.0189 0.0624662 0)
(14.0579 0.0591295 0)
(14.095 0.056097 0)
(14.1304 0.053349 0)
(14.1642 0.0508648 0)
(14.1966 0.0486231 0)
(14.2277 0.0466028 0)
(14.2577 0.0447835 0)
(14.2867 0.0431456 0)
(14.3147 0.0416707 0)
(14.3419 0.0403418 0)
(14.3684 0.0391431 0)
(14.3942 0.0380605 0)
(14.4194 0.0370811 0)
(14.444 0.0361933 0)
(14.4681 0.0353867 0)
(14.4917 0.0346525 0)
(14.5148 0.0339841 0)
(14.5375 0.0333758 0)
(14.5599 0.0328218 0)
(14.5819 0.0323163 0)
(14.6035 0.0318538 0)
(14.6248 0.0314291 0)
(14.6458 0.0310375 0)
(14.6665 0.0306747 0)
(14.6869 0.030337 0)
(14.7071 0.0300214 0)
(14.7269 0.0297253 0)
(14.7466 0.0294473 0)
(14.7659 0.0291858 0)
(14.7851 0.028939 0)
(14.804 0.028705 0)
(14.8226 0.0284819 0)
(14.8411 0.028268 0)
(14.8593 0.0280618 0)
(14.8773 0.0278621 0)
(14.8951 0.0276675 0)
(14.9127 0.0274769 0)
(14.93 0.0272893 0)
(14.9472 0.0271039 0)
(14.9642 0.0269203 0)
(14.981 0.026738 0)
(14.9975 0.0265568 0)
(15.0139 0.0263766 0)
(15.0301 0.0261971 0)
(15.0462 0.0260185 0)
(15.062 0.0258406 0)
(15.0776 0.0256636 0)
(15.0931 0.0254875 0)
(15.1084 0.0253125 0)
(15.1235 0.0251386 0)
(15.1385 0.0249659 0)
(15.1533 0.0247947 0)
(15.1679 0.0246249 0)
(15.1823 0.0244568 0)
(15.1966 0.0242903 0)
(15.2108 0.0241256 0)
(15.2247 0.0239627 0)
(15.2386 0.0238017 0)
(15.2522 0.0236427 0)
(15.2658 0.0234855 0)
(15.2791 0.0233303 0)
(15.2924 0.0231771 0)
(15.3055 0.0230257 0)
(15.3184 0.0228763 0)
(15.3312 0.0227288 0)
(15.3439 0.0225831 0)
(15.3564 0.0224395 0)
(15.3688 0.0222973 0)
(15.3811 0.0221572 0)
(15.3933 0.0220181 0)
(15.4053 0.0218817 0)
(15.4172 0.0217454 0)
(15.4289 0.0216129 0)
(15.4406 0.0214786 0)
(15.4521 0.0213504 0)
(15.4635 0.0212163 0)
(15.4748 0.0210932 0)
(15.486 0.020956 0)
(15.497 0.0208404 0)
(15.5081 0.0206937 0)
(15.5187 0.020591 0)
(15.5297 0.0204229 0)
(15.5399 0.0203443 0)
(15.551 0.0201313 0)
(15.5604 0.020097 0)
(15.5722 0.0197926 0)
(15.5799 0.019833 0)
(15.5934 0.0193425 0)
(15.5978 0.0194777 0)
(15.6153 0.0186005 0)
(11.9907 0.00408304 0)
(12.0134 0.0120763 0)
(12.0482 0.0196055 0)
(12.0933 0.0264032 0)
(12.1501 0.0323145 0)
(12.2184 0.0372943 0)
(12.2965 0.0413466 0)
(12.3821 0.0444925 0)
(12.4729 0.0467817 0)
(12.5672 0.0483006 0)
(12.6634 0.0491541 0)
(12.7602 0.0494455 0)
(12.8564 0.0492593 0)
(12.9511 0.0486655 0)
(13.0434 0.0477231 0)
(13.1328 0.0464948 0)
(13.2187 0.0450415 0)
(13.3008 0.0434226 0)
(13.379 0.0417019 0)
(13.4531 0.0399424 0)
(13.5231 0.0381923 0)
(13.5892 0.0364879 0)
(13.6515 0.0348603 0)
(13.7102 0.0333398 0)
(13.7654 0.03195 0)
(13.8173 0.0306994 0)
(13.8662 0.0295832 0)
(13.9123 0.028592 0)
(13.9559 0.0277142 0)
(13.997 0.0269378 0)
(14.0361 0.0262494 0)
(14.0732 0.0256364 0)
(14.1085 0.0250865 0)
(14.1422 0.0245891 0)
(14.1746 0.0241352 0)
(14.2056 0.0237178 0)
(14.2356 0.0233308 0)
(14.2645 0.0229695 0)
(14.2925 0.02263 0)
(14.3196 0.0223096 0)
(14.346 0.022006 0)
(14.3717 0.0217179 0)
(14.3969 0.0214446 0)
(14.4214 0.0211851 0)
(14.4455 0.0209391 0)
(14.469 0.0207064 0)
(14.4922 0.0204868 0)
(14.5149 0.0202803 0)
(14.5372 0.0200859 0)
(14.5592 0.0199024 0)
(14.5809 0.0197282 0)
(14.6023 0.019562 0)
(14.6233 0.0194028 0)
(14.6441 0.0192497 0)
(14.6646 0.0191016 0)
(14.6848 0.0189579 0)
(14.7048 0.0188178 0)
(14.7245 0.0186804 0)
(14.7441 0.0185449 0)
(14.7633 0.0184106 0)
(14.7824 0.0182771 0)
(14.8012 0.018144 0)
(14.8199 0.0180112 0)
(14.8383 0.0178785 0)
(14.8565 0.0177458 0)
(14.8746 0.0176132 0)
(14.8924 0.0174804 0)
(14.9101 0.0173473 0)
(14.9275 0.0172139 0)
(14.9448 0.0170804 0)
(14.9619 0.0169468 0)
(14.9788 0.0168134 0)
(14.9956 0.0166803 0)
(15.0122 0.0165476 0)
(15.0286 0.0164155 0)
(15.0448 0.0162844 0)
(15.0609 0.0161542 0)
(15.0768 0.0160252 0)
(15.0926 0.0158976 0)
(15.1082 0.0157715 0)
(15.1237 0.015647 0)
(15.139 0.0155242 0)
(15.1542 0.0154034 0)
(15.1692 0.0152844 0)
(15.1841 0.0151675 0)
(15.1988 0.0150527 0)
(15.2134 0.0149399 0)
(15.2279 0.0148292 0)
(15.2422 0.0147207 0)
(15.2564 0.0146143 0)
(15.2705 0.0145099 0)
(15.2844 0.0144076 0)
(15.2983 0.0143072 0)
(15.312 0.0142089 0)
(15.3256 0.0141125 0)
(15.339 0.014018 0)
(15.3524 0.0139253 0)
(15.3656 0.0138343 0)
(15.3788 0.0137451 0)
(15.3918 0.0136572 0)
(15.4047 0.0135711 0)
(15.4175 0.013486 0)
(15.4302 0.013403 0)
(15.4428 0.0133201 0)
(15.4553 0.0132399 0)
(15.4677 0.0131584 0)
(15.48 0.0130808 0)
(15.4923 0.0129991 0)
(15.5043 0.0129245 0)
(15.5164 0.0128401 0)
(15.5281 0.01277 0)
(15.5403 0.0126787 0)
(15.5515 0.012617 0)
(15.5639 0.0125105 0)
(15.5742 0.0124648 0)
(15.5874 0.0123256 0)
(15.596 0.0123097 0)
(15.6112 0.0120968 0)
(15.616 0.0121239 0)
(15.6357 0.0117241 0)
(11.9907 -0.0039319 0)
(12.0134 -0.0116278 0)
(12.0482 -0.0188717 0)
(12.0933 -0.0254007 0)
(12.1501 -0.0310585 0)
(12.2184 -0.0357922 0)
(12.2965 -0.0395932 0)
(12.3821 -0.0424682 0)
(12.4729 -0.0444534 0)
(12.5672 -0.0456244 0)
(12.6635 -0.0460808 0)
(12.7603 -0.0459279 0)
(12.8565 -0.0452583 0)
(12.9512 -0.0441535 0)
(13.0435 -0.0426812 0)
(13.1329 -0.0409087 0)
(13.2188 -0.0388967 0)
(13.3009 -0.0367037 0)
(13.3791 -0.0343789 0)
(13.4533 -0.0319736 0)
(13.5233 -0.0295462 0)
(13.5894 -0.0271561 0)
(13.6517 -0.0248569 0)
(13.7103 -0.0226969 0)
(13.7654 -0.0207129 0)
(13.8173 -0.0189338 0)
(13.8661 -0.0173732 0)
(13.9121 -0.0160301 0)
(13.9556 -0.0148912 0)
(13.9967 -0.0139381 0)
(14.0357 -0.0131493 0)
(14.0727 -0.0125038 0)
(14.108 -0.0119806 0)
(14.1417 -0.0115605 0)
(14.174 -0.0112259 0)
(14.2051 -0.0109617 0)
(14.235 -0.0107548 0)
(14.2638 -0.0105938 0)
(14.2918 -0.0104694 0)
(14.319 -0.0103734 0)
(14.3454 -0.0102983 0)
(14.3711 -0.0102376 0)
(14.3962 -0.0101857 0)
(14.4208 -0.0101381 0)
(14.4448 -0.0100912 0)
(14.4684 -0.0100422 0)
(14.4916 -0.00998896 0)
(14.5143 -0.00993018 0)
(14.5367 -0.00986494 0)
(14.5587 -0.00979294 0)
(14.5803 -0.00971408 0)
(14.6017 -0.00962848 0)
(14.6227 -0.00953624 0)
(14.6435 -0.00943761 0)
(14.664 -0.00933282 0)
(14.6843 -0.00922231 0)
(14.7042 -0.00910673 0)
(14.724 -0.00898691 0)
(14.7435 -0.00886345 0)
(14.7628 -0.00873689 0)
(14.7818 -0.00860756 0)
(14.8007 -0.00847581 0)
(14.8193 -0.00834199 0)
(14.8377 -0.00820648 0)
(14.8559 -0.00806962 0)
(14.874 -0.00793173 0)
(14.8918 -0.00779296 0)
(14.9094 -0.00765351 0)
(14.9269 -0.00751363 0)
(14.9442 -0.00737366 0)
(14.9612 -0.00723391 0)
(14.9782 -0.0070947 0)
(14.9949 -0.00695626 0)
(15.0115 -0.00681886 0)
(15.0279 -0.00668266 0)
(15.0441 -0.00654786 0)
(15.0602 -0.0064146 0)
(15.0761 -0.00628305 0)
(15.0919 -0.00615328 0)
(15.1075 -0.00602543 0)
(15.1229 -0.00589955 0)
(15.1382 -0.00577571 0)
(15.1534 -0.00565394 0)
(15.1684 -0.00553431 0)
(15.1833 -0.0054168 0)
(15.198 -0.00530145 0)
(15.2126 -0.00518823 0)
(15.227 -0.00507715 0)
(15.2414 -0.00496819 0)
(15.2556 -0.00486134 0)
(15.2696 -0.00475657 0)
(15.2836 -0.00465388 0)
(15.2974 -0.00455324 0)
(15.3111 -0.0044546 0)
(15.3247 -0.00435795 0)
(15.3381 -0.00426319 0)
(15.3515 -0.00417036 0)
(15.3647 -0.00407931 0)
(15.3778 -0.00399022 0)
(15.3909 -0.00390279 0)
(15.4038 -0.0038174 0)
(15.4166 -0.00373343 0)
(15.4293 -0.00365172 0)
(15.4419 -0.00357096 0)
(15.4543 -0.00349308 0)
(15.4668 -0.00341527 0)
(15.479 -0.00334169 0)
(15.4913 -0.00326626 0)
(15.5033 -0.00319784 0)
(15.5154 -0.00312322 0)
(15.5271 -0.00306129 0)
(15.5393 -0.00298386 0)
(15.5505 -0.00293105 0)
(15.5629 -0.00284329 0)
(15.5732 -0.00280486 0)
(15.5864 -0.00269092 0)
(15.595 -0.00267563 0)
(15.6102 -0.00249865 0)
(15.615 -0.00251441 0)
(15.6347 -0.00218535 0)
(11.9907 -0.0120743 0)
(12.0141 -0.0357495 0)
(12.05 -0.058048 0)
(12.0967 -0.0781495 0)
(12.1553 -0.0955884 0)
(12.2256 -0.110201 0)
(12.3056 -0.121946 0)
(12.393 -0.130836 0)
(12.4856 -0.13699 0)
(12.5816 -0.140654 0)
(12.6792 -0.142154 0)
(12.7772 -0.141832 0)
(12.8745 -0.139999 0)
(12.9701 -0.136924 0)
(13.0633 -0.132844 0)
(13.1533 -0.127971 0)
(13.2398 -0.1225 0)
(13.3225 -0.116601 0)
(13.4011 -0.110429 0)
(13.4755 -0.10412 0)
(13.5457 -0.0977872 0)
(13.6119 -0.0915287 0)
(13.6742 -0.0854322 0)
(13.7328 -0.0795753 0)
(13.7878 -0.0740252 0)
(13.8395 -0.0688271 0)
(13.8882 -0.0640059 0)
(13.9341 -0.0595702 0)
(13.9774 -0.0555184 0)
(14.0184 -0.0518401 0)
(14.0573 -0.0485194 0)
(14.0942 -0.045536 0)
(14.1295 -0.0428665 0)
(14.1632 -0.0404858 0)
(14.1955 -0.0383683 0)
(14.2265 -0.0364886 0)
(14.2564 -0.0348221 0)
(14.2853 -0.0333458 0)
(14.3133 -0.0320374 0)
(14.3405 -0.0308759 0)
(14.3669 -0.0298413 0)
(14.3927 -0.0289158 0)
(14.4178 -0.0280837 0)
(14.4424 -0.0273315 0)
(14.4665 -0.0266474 0)
(14.49 -0.026021 0)
(14.5132 -0.0254436 0)
(14.5359 -0.024908 0)
(14.5583 -0.0244083 0)
(14.5802 -0.0239399 0)
(14.6019 -0.023499 0)
(14.6232 -0.0230822 0)
(14.6442 -0.0226866 0)
(14.6649 -0.0223095 0)
(14.6853 -0.0219487 0)
(14.7055 -0.021602 0)
(14.7253 -0.0212681 0)
(14.745 -0.020946 0)
(14.7643 -0.020635 0)
(14.7835 -0.0203342 0)
(14.8024 -0.0200428 0)
(14.821 -0.0197602 0)
(14.8395 -0.0194855 0)
(14.8577 -0.0192181 0)
(14.8757 -0.0189573 0)
(14.8935 -0.0187023 0)
(14.9111 -0.0184526 0)
(14.9285 -0.0182078 0)
(14.9457 -0.0179678 0)
(14.9627 -0.0177326 0)
(14.9795 -0.0175021 0)
(14.9961 -0.0172762 0)
(15.0125 -0.017055 0)
(15.0287 -0.0168382 0)
(15.0448 -0.0166257 0)
(15.0606 -0.0164175 0)
(15.0763 -0.0162133 0)
(15.0918 -0.0160132 0)
(15.1071 -0.015817 0)
(15.1223 -0.0156246 0)
(15.1373 -0.0154359 0)
(15.1521 -0.015251 0)
(15.1668 -0.0150696 0)
(15.1813 -0.0148917 0)
(15.1956 -0.0147174 0)
(15.2098 -0.0145464 0)
(15.2238 -0.0143787 0)
(15.2377 -0.0142142 0)
(15.2514 -0.0140529 0)
(15.265 -0.0138946 0)
(15.2785 -0.0137393 0)
(15.2918 -0.0135868 0)
(15.3049 -0.0134372 0)
(15.3179 -0.0132901 0)
(15.3308 -0.0131458 0)
(15.3436 -0.0130039 0)
(15.3562 -0.0128645 0)
(15.3687 -0.0127274 0)
(15.381 -0.0125929 0)
(15.3933 -0.0124602 0)
(15.4054 -0.0123306 0)
(15.4173 -0.0122019 0)
(15.4292 -0.0120774 0)
(15.4409 -0.0119522 0)
(15.4525 -0.0118333 0)
(15.4641 -0.0117104 0)
(15.4754 -0.0115984 0)
(15.4867 -0.0114752 0)
(15.4978 -0.0113727 0)
(15.509 -0.0112439 0)
(15.5197 -0.0111561 0)
(15.5308 -0.0110102 0)
(15.5411 -0.010947 0)
(15.5524 -0.0107609 0)
(15.5618 -0.010741 0)
(15.5737 -0.010469 0)
(15.5815 -0.0105221 0)
(15.5952 -0.0100688 0)
(15.5996 -0.0102118 0)
(15.6174 -0.00935567 0)
(11.9907 -0.020581 0)
(12.0153 -0.0608411 0)
(12.0537 -0.0986771 0)
(12.1036 -0.132799 0)
(12.166 -0.162515 0)
(12.2402 -0.187501 0)
(12.3243 -0.207568 0)
(12.4159 -0.222679 0)
(12.5127 -0.233034 0)
(12.6126 -0.239063 0)
(12.7139 -0.241318 0)
(12.8154 -0.240383 0)
(12.9158 -0.236816 0)
(13.0143 -0.231128 0)
(13.11 -0.223809 0)
(13.2023 -0.215311 0)
(13.2907 -0.206032 0)
(13.3748 -0.196303 0)
(13.4545 -0.186392 0)
(13.5297 -0.176507 0)
(13.6004 -0.166803 0)
(13.6666 -0.157397 0)
(13.7286 -0.148381 0)
(13.7866 -0.13982 0)
(13.8408 -0.131761 0)
(13.8914 -0.124226 0)
(13.9387 -0.117224 0)
(13.983 -0.110754 0)
(14.0246 -0.104808 0)
(14.0636 -0.0993694 0)
(14.1004 -0.0944164 0)
(14.1352 -0.0899218 0)
(14.168 -0.0858558 0)
(14.1992 -0.0821856 0)
(14.2289 -0.0788776 0)
(14.2573 -0.075898 0)
(14.2844 -0.0732158 0)
(14.3104 -0.0708028 0)
(14.3354 -0.0686318 0)
(14.3595 -0.0666736 0)
(14.3828 -0.0648997 0)
(14.4053 -0.0632839 0)
(14.4271 -0.0618045 0)
(14.4482 -0.0604423 0)
(14.4687 -0.0591815 0)
(14.4886 -0.0580068 0)
(14.508 -0.0569046 0)
(14.5269 -0.0558629 0)
(14.5453 -0.0548729 0)
(14.5632 -0.0539274 0)
(14.5807 -0.0530209 0)
(14.5977 -0.0521488 0)
(14.6143 -0.0513079 0)
(14.6306 -0.0504948 0)
(14.6464 -0.0497076 0)
(14.6619 -0.0489443 0)
(14.677 -0.0482037 0)
(14.6918 -0.0474843 0)
(14.7062 -0.0467856 0)
(14.7203 -0.0461063 0)
(14.7341 -0.0454458 0)
(14.7475 -0.0448028 0)
(14.7607 -0.0441766 0)
(14.7735 -0.0435659 0)
(14.786 -0.0429698 0)
(14.7983 -0.0423864 0)
(14.8102 -0.041815 0)
(14.8219 -0.0412542 0)
(14.8333 -0.040704 0)
(14.8444 -0.0401637 0)
(14.8553 -0.0396334 0)
(14.8659 -0.0391124 0)
(14.8762 -0.0386009 0)
(14.8863 -0.0380982 0)
(14.8961 -0.0376046 0)
(14.9057 -0.0371193 0)
(14.915 -0.0366427 0)
(14.9241 -0.036174 0)
(14.933 -0.0357137 0)
(14.9416 -0.0352608 0)
(14.9501 -0.0348161 0)
(14.9583 -0.0343786 0)
(14.9663 -0.0339489 0)
(14.974 -0.0335262 0)
(14.9816 -0.033111 0)
(14.989 -0.0327025 0)
(14.9962 -0.0323011 0)
(15.0032 -0.0319061 0)
(15.01 -0.0315179 0)
(15.0166 -0.0311354 0)
(15.023 -0.0307595 0)
(15.0292 -0.0303889 0)
(15.0353 -0.0300244 0)
(15.0412 -0.0296648 0)
(15.047 -0.029311 0)
(15.0525 -0.0289617 0)
(15.058 -0.0286182 0)
(15.0632 -0.0282785 0)
(15.0684 -0.0279448 0)
(15.0733 -0.0276141 0)
(15.0781 -0.0272898 0)
(15.0828 -0.0269673 0)
(15.0874 -0.0266525 0)
(15.0918 -0.0263372 0)
(15.096 -0.0260325 0)
(15.1002 -0.0257222 0)
(15.1042 -0.0254296 0)
(15.1081 -0.0251203 0)
(15.1118 -0.0248436 0)
(15.1155 -0.0245268 0)
(15.119 -0.0242743 0)
(15.1225 -0.0239316 0)
(15.1257 -0.0237203 0)
(15.1291 -0.0233143 0)
(15.1318 -0.0231768 0)
(15.1353 -0.0226332 0)
(15.1374 -0.0226278 0)
(15.1412 -0.0218004 0)
(15.1422 -0.0219955 0)
(15.1469 -0.020561 0)
(11.9908 -0.029731 0)
(12.0174 -0.0869287 0)
(12.0599 -0.139718 0)
(12.1159 -0.18718 0)
(12.1861 -0.228991 0)
(12.2698 -0.264665 0)
(12.3647 -0.293681 0)
(12.4674 -0.315855 0)
(12.5745 -0.331443 0)
(12.683 -0.34094 0)
(12.7905 -0.344923 0)
(12.8949 -0.344054 0)
(12.9949 -0.338963 0)
(13.0893 -0.330297 0)
(13.1774 -0.318753 0)
(13.2587 -0.305036 0)
(13.3329 -0.28981 0)
(13.4003 -0.27366 0)
(13.4609 -0.257088 0)
(13.5151 -0.240513 0)
(13.5633 -0.224279 0)
(13.6058 -0.208657 0)
(13.6432 -0.193847 0)
(13.6759 -0.179979 0)
(13.7043 -0.167131 0)
(13.7288 -0.155334 0)
(13.7498 -0.144588 0)
(13.7677 -0.134866 0)
(13.7828 -0.126122 0)
(13.7955 -0.118299 0)
(13.8059 -0.111328 0)
(13.8144 -0.105136 0)
(13.8211 -0.0996477 0)
(13.8262 -0.0947887 0)
(13.83 -0.0904846 0)
(13.8325 -0.086666 0)
(13.8339 -0.0832673 0)
(13.8342 -0.0802404 0)
(13.8337 -0.0775416 0)
(13.8323 -0.0751264 0)
(13.8302 -0.0729517 0)
(13.8274 -0.0709798 0)
(13.824 -0.0691785 0)
(13.82 -0.0675205 0)
(13.8155 -0.065983 0)
(13.8105 -0.0645466 0)
(13.805 -0.0631955 0)
(13.7992 -0.0619163 0)
(13.7929 -0.0606972 0)
(13.7864 -0.0595284 0)
(13.7794 -0.058402 0)
(13.7722 -0.0573115 0)
(13.7647 -0.0562515 0)
(13.7569 -0.0552181 0)
(13.7489 -0.0542082 0)
(13.7406 -0.0532195 0)
(13.7322 -0.05225 0)
(13.7236 -0.0512983 0)
(13.7147 -0.050363 0)
(13.7058 -0.049443 0)
(13.6967 -0.0485377 0)
(13.6874 -0.0476465 0)
(13.678 -0.0467695 0)
(13.6686 -0.0459063 0)
(13.659 -0.045057 0)
(13.6493 -0.0442204 0)
(13.6396 -0.0433958 0)
(13.6297 -0.0425825 0)
(13.6199 -0.0417806 0)
(13.6099 -0.0409899 0)
(13.5999 -0.0402104 0)
(13.5899 -0.0394421 0)
(13.5798 -0.038685 0)
(13.5698 -0.037939 0)
(13.5597 -0.0372045 0)
(13.5495 -0.0364814 0)
(13.5394 -0.03577 0)
(13.5293 -0.0350705 0)
(13.5192 -0.034383 0)
(13.5091 -0.0337078 0)
(13.499 -0.0330451 0)
(13.4889 -0.032395 0)
(13.4789 -0.0317576 0)
(13.4689 -0.0311329 0)
(13.4589 -0.0305211 0)
(13.449 -0.029922 0)
(13.4391 -0.0293357 0)
(13.4292 -0.028762 0)
(13.4194 -0.0282008 0)
(13.4097 -0.0276517 0)
(13.4 -0.0271149 0)
(13.3904 -0.0265898 0)
(13.3808 -0.0260765 0)
(13.3713 -0.0255743 0)
(13.3619 -0.0250837 0)
(13.3525 -0.0246035 0)
(13.3432 -0.0241346 0)
(13.334 -0.0236755 0)
(13.3248 -0.0232275 0)
(13.3157 -0.0227884 0)
(13.3067 -0.0223605 0)
(13.2978 -0.0219404 0)
(13.289 -0.0215319 0)
(13.2802 -0.0211296 0)
(13.2715 -0.0207404 0)
(13.2629 -0.020354 0)
(13.2544 -0.0199846 0)
(13.246 -0.0196111 0)
(13.2376 -0.0192628 0)
(13.2293 -0.018896 0)
(13.2212 -0.0185721 0)
(13.213 -0.0181989 0)
(13.2052 -0.0179076 0)
(13.197 -0.0174998 0)
(13.1896 -0.0172591 0)
(13.1811 -0.0167556 0)
(13.1747 -0.0166034 0)
(13.1652 -0.0158711 0)
(13.161 -0.0158773 0)
(13.1485 -0.0146155 0)
(11.9921 -0.0491106 0)
(12.0367 -0.136334 0)
(12.1058 -0.21154 0)
(12.1877 -0.27719 0)
(12.275 -0.333974 0)
(12.3602 -0.380768 0)
(12.4364 -0.41679 0)
(12.4981 -0.442308 0)
(12.5423 -0.458399 0)
(12.5678 -0.466228 0)
(12.5755 -0.466934 0)
(12.5669 -0.461662 0)
(12.5438 -0.451395 0)
(12.5085 -0.437062 0)
(12.4628 -0.419576 0)
(12.4088 -0.399778 0)
(12.3482 -0.378408 0)
(12.2827 -0.356098 0)
(12.2136 -0.333389 0)
(12.1422 -0.31074 0)
(12.0695 -0.288523 0)
(11.9963 -0.267051 0)
(11.9232 -0.246545 0)
(11.8507 -0.227159 0)
(11.7791 -0.208994 0)
(11.7089 -0.192101 0)
(11.6402 -0.176491 0)
(11.573 -0.162147 0)
(11.5076 -0.149027 0)
(11.4439 -0.137077 0)
(11.3819 -0.126227 0)
(11.3217 -0.116405 0)
(11.2631 -0.107535 0)
(11.2062 -0.0995352 0)
(11.1509 -0.0923311 0)
(11.0972 -0.085846 0)
(11.0449 -0.0800072 0)
(10.9941 -0.0747388 0)
(10.9446 -0.0699714 0)
(10.8965 -0.0656475 0)
(10.8497 -0.0617204 0)
(10.8041 -0.0581488 0)
(10.7597 -0.0548951 0)
(10.7164 -0.051925 0)
(10.6743 -0.0492066 0)
(10.6333 -0.0467147 0)
(10.5933 -0.0444269 0)
(10.5543 -0.042323 0)
(10.5164 -0.0403848 0)
(10.4794 -0.038595 0)
(10.4434 -0.0369382 0)
(10.4083 -0.0354007 0)
(10.3741 -0.0339702 0)
(10.3407 -0.0326361 0)
(10.3083 -0.0313889 0)
(10.2767 -0.0302201 0)
(10.2459 -0.0291223 0)
(10.2159 -0.0280887 0)
(10.1866 -0.0271133 0)
(10.1582 -0.0261906 0)
(10.1304 -0.0253161 0)
(10.1034 -0.0244856 0)
(10.0771 -0.0236953 0)
(10.0514 -0.0229422 0)
(10.0264 -0.0222238 0)
(10.002 -0.0215389 0)
(9.97831 -0.0208864 0)
(9.95518 -0.0202644 0)
(9.93264 -0.0196709 0)
(9.91068 -0.0191037 0)
(9.88927 -0.0185608 0)
(9.8684 -0.0180406 0)
(9.84805 -0.0175414 0)
(9.82822 -0.0170619 0)
(9.80889 -0.016601 0)
(9.79004 -0.0161578 0)
(9.77166 -0.0157315 0)
(9.75373 -0.0153214 0)
(9.73625 -0.0149268 0)
(9.7192 -0.0145471 0)
(9.70256 -0.0141818 0)
(9.68633 -0.0138304 0)
(9.67048 -0.0134923 0)
(9.65502 -0.0131671 0)
(9.63993 -0.0128543 0)
(9.62519 -0.0125534 0)
(9.61079 -0.0122639 0)
(9.59673 -0.0119855 0)
(9.583 -0.0117176 0)
(9.56958 -0.0114597 0)
(9.55646 -0.0112115 0)
(9.54364 -0.0109725 0)
(9.5311 -0.0107424 0)
(9.51884 -0.0105206 0)
(9.50685 -0.0103068 0)
(9.49512 -0.0101006 0)
(9.48364 -0.00990173 0)
(9.4724 -0.00970975 0)
(9.4614 -0.0095244 0)
(9.45064 -0.00934544 0)
(9.44009 -0.00917252 0)
(9.42976 -0.00900558 0)
(9.41964 -0.00884405 0)
(9.40973 -0.00868827 0)
(9.40001 -0.00853711 0)
(9.39049 -0.00839177 0)
(9.38115 -0.00824965 0)
(9.37199 -0.00811411 0)
(9.36302 -0.00797875 0)
(9.35418 -0.00785255 0)
(9.34559 -0.00771961 0)
(9.33702 -0.00760245 0)
(9.32886 -0.0074632 0)
(9.32044 -0.00735392 0)
(9.31287 -0.00719139 0)
(9.30431 -0.00708331 0)
(9.29782 -0.0068698 0)
(9.2884 -0.00673678 0)
(9.28427 -0.00646653 0)