/*--------------------------------*- C++ -*----------------------------------*\
  =========                 |
  \\      /  F ield         | OpenFOAM: The Open Source CFD Toolbox
   \\    /   O peration     | Website:  https://openfoam.org
    \\  /    A nd           | Version:  7
     \\/     M anipulation  |
\*---------------------------------------------------------------------------*/
FoamFile
{
    version     2.0;
    format      ascii;
    class       volScalarField;
    location    "1.4";
    object      k_0;
}
// * * * * * * * * * * * * * * * * * * * * * * * * * * * * * * * * * * * * * //

dimensions      [0 2 -2 0 0 0 0];

internalField   nonuniform List<scalar> 
2400
(
0.117399
0.674473
1.27753
1.60856
1.66118
1.61669
1.50646
1.37595
1.26188
1.16775
1.09232
1.03226
0.983987
0.944508
0.911546
0.883394
0.858859
0.837132
0.817624
0.799915
0.783693
0.768742
0.754889
0.742013
0.730007
0.718789
0.708286
0.698425
0.689181
0.680446
0.672279
0.664457
0.657237
0.650106
0.643764
0.637077
0.63148
0.625195
0.618072
0.624409
0.00155082
0.0335251
0.121153
0.287795
0.423673
0.516999
0.572216
0.598014
0.608969
0.609819
0.608588
0.605657
0.601749
0.597777
0.593904
0.590166
0.586523
0.582952
0.579421
0.575918
0.572425
0.56895
0.565482
0.562037
0.5586
0.555189
0.55172
0.54837
0.544912
0.541708
0.538238
0.535288
0.531712
0.529174
0.525342
0.523325
0.519176
0.517373
0.511886
0.512283
2.602e-05
0.000556953
0.00362628
0.0131135
0.0331721
0.0588606
0.0843157
0.105847
0.123059
0.136142
0.146156
0.154024
0.160397
0.165864
0.170746
0.175375
0.179787
0.184193
0.188497
0.192898
0.19718
0.201604
0.205833
0.210244
0.214347
0.218714
0.222659
0.226956
0.230618
0.234804
0.238086
0.242151
0.244988
0.248922
0.251321
0.255053
0.257143
0.260448
0.262577
0.265115
2.0113e-05
2.58313e-05
8.10472e-05
0.000333474
0.00106585
0.00264377
0.005189
0.00828453
0.0115121
0.0146878
0.01761
0.0203171
0.0227384
0.0249908
0.0270265
0.0289859
0.0307901
0.0325754
0.0342466
0.0359445
0.0375552
0.0392255
0.0408279
0.0425077
0.0441316
0.0458418
0.0475115
0.0492704
0.0510042
0.0528181
0.0546344
0.0564927
0.0584122
0.060282
0.0623344
0.0641689
0.0664044
0.0681301
0.0706452
0.0722384
2.00507e-05
2.05421e-05
2.22289e-05
2.76894e-05
4.35683e-05
8.15427e-05
0.000175979
0.000278838
0.000486772
0.000657077
0.000917853
0.0011178
0.00139666
0.00160713
0.00189599
0.0021159
0.00241745
0.00264549
0.00295956
0.00319444
0.00352105
0.00376337
0.00410423
0.00435342
0.0047101
0.00496577
0.00533726
0.0055991
0.00598648
0.00625673
0.0066649
0.00694566
0.00737891
0.00766838
0.00813039
0.00842705
0.00892597
0.00922706
0.00977878
0.0101046
2.0029e-05
2.03869e-05
2.15279e-05
2.31465e-05
2.66969e-05
2.89311e-05
3.3723e-05
3.65106e-05
4.25982e-05
4.6191e-05
5.382e-05
5.81499e-05
6.71669e-05
7.22176e-05
8.26823e-05
8.86311e-05
0.00010096
0.000108006
0.000122571
0.000130806
0.00014777
0.000157275
0.000176827
0.00018768
0.000209968
0.000222211
0.000247279
0.000260922
0.000288782
0.000303895
0.00033473
0.000351492
0.000385639
0.000404231
0.000441941
0.000462559
0.00050415
0.000527251
0.000573807
0.000601263
2.00281e-05
2.0388e-05
2.15288e-05
2.3147e-05
2.66962e-05
2.89236e-05
3.37018e-05
3.64729e-05
4.26714e-05
4.61797e-05
5.38678e-05
5.8091e-05
6.71408e-05
7.20945e-05
8.2598e-05
8.84446e-05
0.000100787
0.000107723
0.000122291
0.000130434
0.000147445
0.000156867
0.000176468
0.000187214
0.000209478
0.000221566
0.00024652
0.000259961
0.000287635
0.000302454
0.000332903
0.000349128
0.000382416
0.000400034
0.000436159
0.000455031
0.00049381
0.000513695
0.000555317
0.000576954
2.00491e-05
2.05444e-05
2.22241e-05
2.76505e-05
4.34276e-05
8.09824e-05
0.000175344
0.000277532
0.000498924
0.000641879
0.000935114
0.00109456
0.00141533
0.00158193
0.00191584
0.00208909
0.00243635
0.00261668
0.00297772
0.0031651
0.0035396
0.00373427
0.00412252
0.00432409
0.00472605
0.00493444
0.00535015
0.00556542
0.00599603
0.00621941
0.0066666
0.0068989
0.00736416
0.00760529
0.00808811
0.00833645
0.00883428
0.00908774
0.00960418
0.00987845
2.01091e-05
2.57743e-05
8.06442e-05
0.000332005
0.00106206
0.00261942
0.00519673
0.00825411
0.0115165
0.014653
0.0176153
0.0202786
0.0227466
0.0249481
0.0270376
0.0289363
0.0308036
0.0325176
0.0342648
0.035879
0.0375804
0.0391514
0.0408608
0.0424213
0.0441711
0.0457384
0.0475551
0.0491417
0.0510465
0.052654
0.0546633
0.0562776
0.0584023
0.0599926
0.0622393
0.0637689
0.0661369
0.0675644
0.0700427
0.071429
2.58855e-05
0.000554247
0.00361669
0.0130908
0.0331388
0.058821
0.0842689
0.105799
0.123012
0.136097
0.146115
0.153982
0.160359
0.165821
0.170709
0.175328
0.179749
0.184143
0.188464
0.192845
0.197153
0.201546
0.205812
0.210172
0.214329
0.218614
0.222638
0.226809
0.230591
0.234582
0.238042
0.241809
0.2449
0.248401
0.251126
0.254287
0.256691
0.259366
0.261503
0.263576
0.00154002
0.0334693
0.121056
0.287682
0.423562
0.516892
0.572123
0.597936
0.608907
0.609768
0.608544
0.605617
0.601712
0.597743
0.593873
0.590137
0.586497
0.58293
0.579401
0.575899
0.572407
0.568933
0.565461
0.56202
0.558573
0.555173
0.551683
0.548356
0.544858
0.541699
0.538156
0.535284
0.531599
0.529161
0.525224
0.523239
0.519024
0.517244
0.511575
0.511999
0.117396
0.67451
1.2776
1.60864
1.66126
1.61678
1.50653
1.37602
1.26194
1.1678
1.09237
1.03231
0.984036
0.944556
0.911595
0.883443
0.858908
0.837182
0.817675
0.79997
0.783752
0.76881
0.754966
0.742109
0.730116
0.718938
0.708452
0.698673
0.689445
0.68087
0.672699
0.665188
0.657903
0.651374
0.644818
0.639259
0.633193
0.628729
0.621581
0.628712
1.14226
1.28773
1.28622
1.26369
1.24381
1.22808
1.21485
1.20383
1.19495
1.18795
1.18258
1.17863
1.17596
1.17442
1.17384
1.17407
1.17492
1.17633
1.17811
1.18019
1.1825
1.18499
1.18764
1.19039
1.19323
1.19613
1.19905
1.20197
1.20487
1.20772
1.21052
1.21326
1.21595
1.21859
1.22119
1.22376
1.22631
1.22883
1.23135
1.23386
1.23634
1.23881
1.24125
1.24366
1.24604
1.24838
1.2507
1.25299
1.25527
1.25755
1.25982
1.2621
1.2644
1.2667
1.26901
1.27133
1.27363
1.27593
1.27821
1.28047
1.28272
1.28494
1.28715
1.28936
1.29155
1.29375
1.29594
1.29812
1.30031
1.3025
1.30467
1.30685
1.30901
1.31117
1.31331
1.31544
1.31755
1.31965
1.32173
1.32379
1.32584
1.32786
1.32987
1.33185
1.33381
1.33575
1.33766
1.33955
1.34142
1.34326
1.34508
1.34687
1.34864
1.35038
1.3521
1.35379
1.35546
1.35711
1.35874
1.36035
1.36193
1.3635
1.36504
1.36657
1.36808
1.36958
1.37106
1.37252
1.37398
1.37541
1.37684
1.37826
1.37967
1.38107
1.38246
1.38385
1.38523
1.3866
1.38796
1.38933
1.39068
1.39204
1.39339
1.39473
1.39608
1.39742
1.39875
1.40008
1.40141
1.40274
1.40406
1.40538
1.40669
1.40801
1.40931
1.41062
1.41192
1.41322
1.41451
1.4158
1.41708
1.41837
1.41964
1.42091
1.42218
1.42344
1.42469
1.42596
1.42719
1.42845
1.42965
1.43093
1.43208
1.43341
1.43445
1.43591
1.43675
1.43846
1.439
1.44108
0.976457
1.27563
1.35311
1.35875
1.3518
1.33969
1.32992
1.32225
1.31643
1.31222
1.3094
1.30775
1.30713
1.30738
1.30821
1.30973
1.31166
1.31391
1.31638
1.31901
1.32174
1.32454
1.32739
1.33028
1.33318
1.3361
1.339
1.34189
1.34476
1.34758
1.35036
1.35309
1.35578
1.35841
1.36099
1.36354
1.36606
1.36854
1.371
1.37344
1.37586
1.37826
1.38064
1.383
1.38533
1.38764
1.38993
1.39219
1.39444
1.39667
1.39889
1.4011
1.40332
1.40553
1.40775
1.40996
1.41218
1.41439
1.4166
1.4188
1.42098
1.42316
1.42533
1.42748
1.42964
1.43179
1.43395
1.4361
1.43826
1.44042
1.44258
1.44474
1.44691
1.44907
1.45123
1.4534
1.45556
1.45772
1.45987
1.46203
1.46418
1.46633
1.46847
1.47061
1.47275
1.47488
1.47701
1.47914
1.48126
1.48337
1.48548
1.48758
1.48968
1.49177
1.49385
1.49593
1.498
1.50006
1.50211
1.50416
1.5062
1.50823
1.51025
1.51227
1.51427
1.51627
1.51825
1.52023
1.5222
1.52415
1.5261
1.52804
1.52997
1.53189
1.53379
1.53569
1.53758
1.53946
1.54133
1.54318
1.54503
1.54687
1.5487
1.55051
1.55232
1.55412
1.5559
1.55768
1.55945
1.5612
1.56295
1.56469
1.56641
1.56813
1.56983
1.57153
1.57321
1.57489
1.57655
1.57821
1.57985
1.58149
1.58311
1.58473
1.58633
1.58793
1.58951
1.5911
1.59264
1.59423
1.59573
1.59733
1.59875
1.60042
1.6017
1.60351
1.60455
1.60663
1.60743
1.60982
0.450272
0.745853
0.899282
0.962845
0.98729
0.99624
1.00027
1.00297
1.00553
1.00829
1.01129
1.01448
1.01775
1.02106
1.02428
1.02743
1.03048
1.03341
1.0362
1.03886
1.04137
1.04374
1.04599
1.04812
1.05015
1.05209
1.05397
1.05581
1.05761
1.05939
1.06115
1.06291
1.06465
1.06638
1.06809
1.06978
1.07144
1.07308
1.07469
1.07628
1.07784
1.07939
1.08092
1.08245
1.08397
1.0855
1.08702
1.08854
1.09005
1.09155
1.09303
1.09449
1.09594
1.09736
1.09876
1.10016
1.10154
1.10292
1.10431
1.1057
1.10709
1.10849
1.10988
1.11128
1.11267
1.11406
1.11544
1.11682
1.1182
1.11957
1.12094
1.1223
1.12366
1.12503
1.12639
1.12775
1.12911
1.13047
1.13182
1.13318
1.13454
1.1359
1.13726
1.13862
1.13998
1.14134
1.1427
1.14406
1.14542
1.14678
1.14814
1.1495
1.15086
1.15221
1.15357
1.15493
1.15629
1.15764
1.159
1.16035
1.1617
1.16305
1.1644
1.16575
1.1671
1.16844
1.16979
1.17113
1.17247
1.17381
1.17515
1.17649
1.17782
1.17915
1.18048
1.18181
1.18313
1.18446
1.18578
1.18709
1.18841
1.18972
1.19103
1.19234
1.19364
1.19494
1.19624
1.19753
1.19882
1.20011
1.2014
1.20268
1.20396
1.20523
1.2065
1.20777
1.20904
1.2103
1.21156
1.21281
1.21406
1.21531
1.21655
1.21779
1.21902
1.22026
1.22148
1.22271
1.22391
1.22515
1.22633
1.22759
1.22871
1.23003
1.23104
1.23248
1.23333
1.23493
1.23566
1.23754
0.103851
0.214723
0.355732
0.466447
0.540176
0.587267
0.618127
0.639695
0.656062
0.669406
0.680794
0.690715
0.699372
0.70688
0.713315
0.718802
0.723466
0.727437
0.730826
0.733732
0.736231
0.738382
0.740235
0.741832
0.743212
0.744416
0.745483
0.746451
0.747355
0.748227
0.74909
0.749962
0.750853
0.751764
0.752692
0.753632
0.754573
0.755507
0.756424
0.757322
0.758198
0.759057
0.759904
0.760747
0.761596
0.762457
0.763335
0.764228
0.765134
0.766047
0.766957
0.767855
0.768732
0.769583
0.770405
0.7712
0.771973
0.772734
0.77349
0.774251
0.775023
0.775807
0.776603
0.777408
0.778218
0.779029
0.779837
0.780639
0.781432
0.782218
0.782995
0.783765
0.784529
0.785288
0.786043
0.786795
0.787546
0.788296
0.789046
0.789796
0.790546
0.791297
0.792049
0.792802
0.793556
0.794311
0.795066
0.795823
0.796581
0.79734
0.7981
0.798861
0.799624
0.800388
0.801152
0.801918
0.802685
0.803453
0.804222
0.804991
0.805762
0.806533
0.807305
0.808078
0.808853
0.809628
0.810404
0.811181
0.811959
0.812738
0.813518
0.814299
0.815081
0.815863
0.816646
0.81743
0.818215
0.819
0.819787
0.820574
0.821361
0.82215
0.822938
0.823727
0.824517
0.825307
0.826098
0.82689
0.827683
0.828476
0.829271
0.830065
0.830861
0.831657
0.832454
0.833251
0.834049
0.834848
0.835647
0.836447
0.837246
0.838047
0.838847
0.839651
0.84045
0.841258
0.842053
0.842867
0.843654
0.844482
0.845252
0.846105
0.84684
0.847743
0.848414
0.8494
0.849976
0.851054
0.851579
0.85288
0.0132226
0.0257707
0.0534557
0.101011
0.154642
0.206234
0.251639
0.289795
0.321282
0.347195
0.368567
0.386206
0.400699
0.412508
0.422027
0.42963
0.435666
0.440448
0.444241
0.447261
0.449674
0.451605
0.453145
0.454362
0.455313
0.456045
0.456604
0.457032
0.457371
0.457655
0.457918
0.458184
0.458472
0.458793
0.45915
0.459542
0.45996
0.460396
0.460838
0.461277
0.461706
0.462123
0.46253
0.462931
0.463335
0.46375
0.464184
0.46464
0.46512
0.465622
0.46614
0.466665
0.467186
0.467694
0.46818
0.46864
0.469073
0.469485
0.469883
0.470277
0.470677
0.471088
0.471513
0.471953
0.472405
0.472863
0.473324
0.473782
0.474234
0.474678
0.475114
0.47554
0.475958
0.47637
0.476776
0.477178
0.477577
0.477974
0.47837
0.478765
0.47916
0.479555
0.47995
0.480346
0.480743
0.48114
0.481539
0.481938
0.482337
0.482738
0.48314
0.483542
0.483946
0.484351
0.484757
0.485163
0.485571
0.48598
0.486389
0.4868
0.48721
0.487622
0.488035
0.488448
0.488863
0.489279
0.489696
0.490114
0.490533
0.490953
0.491373
0.491795
0.492218
0.492642
0.493067
0.493493
0.493919
0.494347
0.494776
0.495205
0.495636
0.496067
0.496499
0.496932
0.497366
0.4978
0.498236
0.498673
0.499111
0.49955
0.49999
0.500432
0.500875
0.501319
0.501763
0.50221
0.502657
0.503105
0.503553
0.504004
0.504453
0.504906
0.505357
0.505814
0.506266
0.50673
0.50718
0.507651
0.508095
0.508577
0.509009
0.509512
0.509923
0.510458
0.510834
0.511414
0.511749
0.51237
0.512683
0.51345
0.000772286
0.00138734
0.00293177
0.00657102
0.0140771
0.0263689
0.0427392
0.0619684
0.0826589
0.103485
0.123388
0.141631
0.157777
0.171643
0.183252
0.192777
0.200474
0.206635
0.211541
0.215438
0.218533
0.220989
0.222931
0.224455
0.225635
0.226532
0.227197
0.227677
0.228017
0.228254
0.228424
0.228557
0.228675
0.228795
0.228927
0.229077
0.229245
0.229428
0.229622
0.229821
0.230018
0.230211
0.230398
0.23058
0.230761
0.230947
0.231143
0.231354
0.231583
0.231829
0.232092
0.232367
0.232647
0.232926
0.233196
0.233453
0.233692
0.233916
0.234127
0.234332
0.234537
0.234746
0.234965
0.235194
0.235432
0.235677
0.235925
0.236174
0.236421
0.236663
0.2369
0.237132
0.237357
0.237578
0.237794
0.238008
0.238218
0.238427
0.238634
0.23884
0.239046
0.239252
0.239457
0.239663
0.239868
0.240074
0.24028
0.240486
0.240692
0.240899
0.241106
0.241314
0.241522
0.241729
0.241937
0.242145
0.242353
0.242562
0.242771
0.242981
0.24319
0.2434
0.243611
0.243821
0.244032
0.244243
0.244454
0.244666
0.244878
0.24509
0.245303
0.245516
0.245729
0.245943
0.246157
0.246371
0.246585
0.2468
0.247015
0.247231
0.247446
0.247662
0.247878
0.248095
0.248311
0.248528
0.248745
0.248963
0.249181
0.249399
0.249618
0.249838
0.250057
0.250277
0.250497
0.250718
0.250939
0.251162
0.251384
0.251609
0.251831
0.252058
0.252279
0.252508
0.252725
0.252957
0.253169
0.253407
0.253613
0.253862
0.254059
0.254321
0.254506
0.254783
0.254954
0.255246
0.255405
0.255707
0.255861
0.256237
0.000745532
0.00130982
0.00273081
0.00617088
0.0133264
0.0253326
0.041552
0.0608773
0.0818885
0.103182
0.123613
0.142381
0.159027
0.173366
0.185426
0.195383
0.203496
0.210056
0.215344
0.219606
0.22305
0.225841
0.228105
0.229939
0.231418
0.232603
0.233545
0.234288
0.234877
0.23535
0.235743
0.236084
0.236399
0.236703
0.237009
0.23732
0.237638
0.237958
0.238275
0.238584
0.238879
0.239157
0.239419
0.239666
0.239904
0.240141
0.240384
0.240638
0.240907
0.241192
0.241491
0.241798
0.242108
0.242412
0.242703
0.242976
0.243228
0.24346
0.243677
0.243886
0.244095
0.244308
0.244532
0.244766
0.245011
0.245263
0.245521
0.24578
0.246037
0.24629
0.246538
0.246781
0.247018
0.24725
0.247478
0.247702
0.247924
0.248144
0.248363
0.248581
0.248798
0.249014
0.249231
0.249448
0.249664
0.249881
0.250098
0.250315
0.250533
0.250753
0.250972
0.251192
0.251411
0.251629
0.251846
0.252064
0.252282
0.252501
0.252721
0.25294
0.25316
0.253381
0.253602
0.253823
0.254045
0.254266
0.254488
0.25471
0.254932
0.255154
0.255377
0.2556
0.255824
0.256048
0.256272
0.256496
0.25672
0.256945
0.25717
0.257396
0.257622
0.257847
0.258074
0.2583
0.258527
0.258755
0.258982
0.25921
0.259439
0.259669
0.259899
0.26013
0.26036
0.26059
0.26082
0.261051
0.261282
0.261515
0.261747
0.261982
0.262214
0.262451
0.262681
0.26292
0.263147
0.263388
0.263609
0.263855
0.264068
0.264325
0.26453
0.264803
0.264994
0.265285
0.26546
0.265767
0.26593
0.266248
0.266406
0.266803
0.0129885
0.0250773
0.0517541
0.0988095
0.152632
0.204994
0.251577
0.291089
0.323934
0.351094
0.373542
0.392088
0.407369
0.419886
0.430057
0.438258
0.444836
0.450108
0.454343
0.457764
0.460546
0.46282
0.464683
0.466209
0.467452
0.46846
0.469276
0.469941
0.470496
0.470978
0.471418
0.471845
0.472277
0.472726
0.473198
0.47369
0.474196
0.474706
0.475211
0.475702
0.476173
0.476623
0.477054
0.477474
0.477893
0.478321
0.478765
0.479233
0.479725
0.48024
0.480771
0.481309
0.481844
0.482365
0.482862
0.483331
0.483773
0.484193
0.4846
0.485003
0.485413
0.485836
0.486276
0.486732
0.487202
0.487682
0.488164
0.488646
0.489122
0.489592
0.490052
0.490504
0.490948
0.491385
0.491816
0.492243
0.492667
0.493089
0.493509
0.493929
0.494348
0.494766
0.495186
0.495605
0.496025
0.496446
0.496868
0.49729
0.497713
0.498135
0.498559
0.498983
0.49941
0.499837
0.500267
0.500696
0.501126
0.501556
0.501987
0.502419
0.502853
0.503287
0.503721
0.504157
0.504593
0.50503
0.505468
0.505906
0.506345
0.506784
0.507224
0.507666
0.508107
0.50855
0.508994
0.509439
0.509884
0.51033
0.510777
0.511225
0.511674
0.512123
0.512574
0.513026
0.51348
0.513934
0.514389
0.514845
0.515301
0.515757
0.516214
0.516672
0.517131
0.517591
0.518052
0.518514
0.518976
0.519439
0.519902
0.520367
0.52083
0.521297
0.521762
0.522233
0.522699
0.523177
0.523643
0.52413
0.524591
0.52509
0.525537
0.526056
0.526478
0.527031
0.527417
0.528015
0.528359
0.528999
0.529321
0.530124
0.103211
0.212348
0.353826
0.466721
0.542935
0.592255
0.624948
0.647951
0.665376
0.679459
0.691358
0.701646
0.710589
0.718318
0.724923
0.73051
0.735199
0.739127
0.742418
0.745184
0.747516
0.749485
0.751148
0.752549
0.75373
0.754732
0.755592
0.756351
0.757043
0.7577
0.758347
0.759002
0.759674
0.760368
0.761082
0.76181
0.762546
0.763283
0.764016
0.764741
0.765459
0.766174
0.766892
0.767619
0.768362
0.769127
0.769915
0.770727
0.771558
0.772402
0.773251
0.774096
0.77493
0.775747
0.776545
0.777326
0.778095
0.778859
0.779625
0.7804
0.781187
0.781989
0.782803
0.783626
0.784453
0.785281
0.786106
0.786924
0.787734
0.788536
0.78933
0.790117
0.790897
0.791673
0.792445
0.793215
0.793983
0.79475
0.795516
0.796283
0.797049
0.797816
0.798584
0.799352
0.800122
0.800892
0.801663
0.802435
0.803208
0.803982
0.804756
0.805532
0.806308
0.807084
0.807862
0.80864
0.809419
0.810198
0.810979
0.81176
0.812542
0.813325
0.814109
0.814894
0.81568
0.816466
0.817252
0.818039
0.818827
0.819615
0.820404
0.821194
0.821984
0.822775
0.823566
0.824358
0.825151
0.825944
0.826738
0.827532
0.828327
0.829122
0.829918
0.830715
0.831513
0.832311
0.83311
0.833909
0.834709
0.835509
0.836309
0.837109
0.83791
0.838711
0.839512
0.840314
0.841116
0.841918
0.84272
0.843524
0.844326
0.845131
0.845933
0.846739
0.84754
0.84835
0.849147
0.849963
0.850753
0.851582
0.852353
0.853208
0.853944
0.85485
0.855519
0.856509
0.857083
0.858165
0.85869
0.860007
0.451698
0.745757
0.904286
0.970517
0.996524
1.00624
1.01053
1.01309
1.01522
1.01741
1.01979
1.02237
1.02506
1.02776
1.03039
1.0329
1.03523
1.03741
1.03943
1.04129
1.04301
1.0446
1.04607
1.04744
1.04872
1.04994
1.05111
1.05225
1.05339
1.05452
1.05567
1.05683
1.058
1.05918
1.06037
1.06156
1.06277
1.06398
1.0652
1.06643
1.06768
1.06894
1.07023
1.07154
1.07287
1.07421
1.07556
1.07692
1.07829
1.07965
1.08101
1.08236
1.08371
1.08506
1.0864
1.08775
1.08911
1.09048
1.09185
1.09324
1.09463
1.09602
1.09741
1.0988
1.10018
1.10155
1.10292
1.10428
1.10563
1.10698
1.10833
1.10967
1.11101
1.11235
1.11369
1.11503
1.11637
1.11771
1.11905
1.12038
1.12172
1.12306
1.1244
1.12573
1.12707
1.12841
1.12974
1.13108
1.13242
1.13375
1.13509
1.13642
1.13776
1.13909
1.14042
1.14175
1.14308
1.14441
1.14574
1.14706
1.14839
1.14971
1.15104
1.15236
1.15368
1.155
1.15631
1.15763
1.15894
1.16026
1.16157
1.16288
1.16419
1.16549
1.16679
1.16809
1.16939
1.17069
1.17199
1.17328
1.17456
1.17585
1.17713
1.17841
1.17969
1.18097
1.18224
1.18352
1.18478
1.18605
1.18731
1.18857
1.18982
1.19107
1.19232
1.19357
1.19481
1.19604
1.19728
1.19851
1.19973
1.20096
1.20218
1.20339
1.2046
1.20582
1.20701
1.20822
1.2094
1.21061
1.21176
1.213
1.21409
1.21539
1.21639
1.21781
1.21863
1.22022
1.22093
1.22279
0.979464
1.28235
1.36139
1.36522
1.35733
1.34353
1.33192
1.32232
1.31459
1.30858
1.30411
1.30096
1.29892
1.29778
1.29735
1.2975
1.29798
1.29887
1.29998
1.30126
1.30267
1.30418
1.30576
1.3074
1.3091
1.31084
1.31261
1.31442
1.31625
1.3181
1.31995
1.32181
1.32367
1.32553
1.3274
1.32928
1.33118
1.3331
1.33505
1.33704
1.33905
1.34109
1.34315
1.34522
1.3473
1.34937
1.35144
1.3535
1.35555
1.3576
1.35965
1.36171
1.36378
1.36586
1.36797
1.37009
1.37223
1.37437
1.37651
1.37865
1.38078
1.38289
1.385
1.3871
1.38919
1.39127
1.39335
1.39543
1.39751
1.39958
1.40166
1.40374
1.40582
1.40789
1.40997
1.41204
1.41411
1.41618
1.41825
1.42031
1.42238
1.42444
1.42649
1.42855
1.4306
1.43264
1.43469
1.43672
1.43876
1.44078
1.44281
1.44482
1.44684
1.44884
1.45084
1.45284
1.45483
1.45681
1.45878
1.46075
1.46271
1.46466
1.4666
1.46854
1.47046
1.47238
1.47429
1.47619
1.47809
1.47997
1.48184
1.48371
1.48557
1.48741
1.48925
1.49108
1.49289
1.4947
1.4965
1.49829
1.50008
1.50185
1.50362
1.50537
1.50711
1.50884
1.51057
1.51228
1.51398
1.51567
1.51736
1.51904
1.52071
1.52237
1.52402
1.52566
1.52729
1.52891
1.53053
1.53213
1.53373
1.53531
1.53689
1.53846
1.54001
1.54156
1.5431
1.54464
1.54614
1.54768
1.54915
1.5507
1.55209
1.55371
1.55496
1.55672
1.55773
1.55975
1.56054
1.56284
1.13693
1.28288
1.27642
1.25082
1.22915
1.21099
1.19541
1.18217
1.17126
1.16245
1.15543
1.14998
1.14587
1.14291
1.14093
1.13976
1.13924
1.13928
1.13968
1.14046
1.14149
1.14273
1.14414
1.1457
1.14737
1.14913
1.15095
1.15282
1.15472
1.15663
1.15855
1.16046
1.16238
1.1643
1.16623
1.16819
1.17017
1.17219
1.17423
1.17631
1.1784
1.18051
1.18262
1.18473
1.18683
1.18891
1.19099
1.19306
1.19512
1.19719
1.19928
1.20138
1.2035
1.20565
1.20781
1.20998
1.21215
1.21431
1.21647
1.21861
1.22073
1.22283
1.22493
1.22701
1.22909
1.23116
1.23324
1.23531
1.23738
1.23944
1.2415
1.24356
1.24561
1.24765
1.24968
1.2517
1.2537
1.25569
1.25767
1.25963
1.26157
1.2635
1.2654
1.26729
1.26916
1.271
1.27283
1.27463
1.27642
1.27818
1.27992
1.28163
1.28333
1.285
1.28665
1.28828
1.28989
1.29148
1.29305
1.2946
1.29612
1.29763
1.29913
1.3006
1.30207
1.30351
1.30495
1.30637
1.30778
1.30917
1.31056
1.31194
1.3133
1.31466
1.31602
1.31736
1.3187
1.32003
1.32136
1.32268
1.324
1.32531
1.32662
1.32792
1.32922
1.33052
1.33181
1.3331
1.33439
1.33567
1.33695
1.33823
1.3395
1.34077
1.34204
1.3433
1.34456
1.34582
1.34707
1.34832
1.34956
1.3508
1.35203
1.35326
1.35449
1.35571
1.35692
1.35814
1.35933
1.36055
1.36171
1.36294
1.36405
1.36534
1.36634
1.36775
1.36856
1.3702
1.37073
1.37269
)
;

boundaryField
{
    upperWall
    {
        type            fixedValue;
        value           uniform 0;
    }
    lowerWall
    {
        type            fixedValue;
        value           uniform 0;
    }
    heatedWall
    {
        type            fixedValue;
        value           uniform 0;
    }
    inlet
    {
        type            fixedValue;
        value           uniform 2e-05;
    }
    outlet
    {
        type            inletOutlet;
        inletValue      uniform 0;
        value           nonuniform List<scalar> 
12
(
1.44108
1.60982
1.23754
0.85288
0.51345
0.256237
0.266803
0.530124
0.860007
1.22279
1.56284
1.37269
)
;
    }
    frontAndBack
    {
        type            empty;
    }
}


// ************************************************************************* //
