/*--------------------------------*- C++ -*----------------------------------*\
  =========                 |
  \\      /  F ield         | OpenFOAM: The Open Source CFD Toolbox
   \\    /   O peration     | Website:  https://openfoam.org
    \\  /    A nd           | Version:  7
     \\/     M anipulation  |
\*---------------------------------------------------------------------------*/
FoamFile
{
    version     2.0;
    format      ascii;
    class       volSymmTensorField;
    location    "0.085";
    object      UPrime2Mean;
}
// * * * * * * * * * * * * * * * * * * * * * * * * * * * * * * * * * * * * * //

dimensions      [0 2 -2 0 0 0 0];

internalField   nonuniform List<symmTensor> 
8640
(
(0.0201452 -0.000222376 0.00122525 0.00308466 0.00172805 0.00150661)
(0.0501541 -0.00387781 -0.00615571 0.00199754 0.00104367 0.00207125)
(0.0914452 -0.00410109 -0.00831668 0.0016431 0.000651521 0.00240319)
(0.205188 0.00690521 -0.0156557 0.00216827 -0.000975394 0.00222737)
(0.268747 0.0211822 -0.0169129 0.00466882 -0.00236626 0.00202671)
(0.409848 0.0475977 -0.0190323 0.00982383 -0.0033912 0.00157766)
(0.453999 0.064808 -0.0164929 0.0157179 -0.00384017 0.00116935)
(0.556689 0.0851532 -0.0140319 0.021113 -0.00355671 0.000738281)
(0.563522 0.090657 -0.0105601 0.0247246 -0.00314253 0.000498422)
(0.624958 0.0988288 -0.00845837 0.0269614 -0.00261906 0.000340104)
(0.613955 0.0968447 -0.00685906 0.0280347 -0.0023901 0.000291687)
(0.655464 0.0997952 -0.00618443 0.0287674 -0.00217228 0.000251898)
(0.643106 0.0963718 -0.00570568 0.0290455 -0.00215442 0.000249215)
(0.675726 0.0977416 -0.00551978 0.0293458 -0.00206427 0.000232093)
(0.665696 0.0945445 -0.00534147 0.0294278 -0.00208715 0.000234483)
(0.692022 0.0952169 -0.00523382 0.029593 -0.00202259 0.000222399)
(0.684004 0.0923785 -0.0051351 0.0295953 -0.00203986 0.000224425)
(0.705045 0.0925547 -0.00503589 0.0296931 -0.00198179 0.000214813)
(0.698587 0.0900367 -0.00497508 0.0296631 -0.00199012 0.000216189)
(0.715357 0.08984 -0.00488169 0.0297252 -0.00193718 0.00020852)
(0.710293 0.0875965 -0.00484595 0.0296863 -0.00193891 0.000209437)
(0.723792 0.0871187 -0.00475976 0.0297284 -0.00189104 0.000203319)
(0.720097 0.085104 -0.0047388 0.0296906 -0.0018878 0.000203832)
(0.731217 0.0844123 -0.00465752 0.0297202 -0.00184424 0.000198851)
(0.728911 0.0825882 -0.00464165 0.0296896 -0.00183676 0.000198939)
(0.738388 0.0817294 -0.00456003 0.0297099 -0.0017961 0.000194722)
(0.737494 0.080025 -0.00454132 0.0296721 -0.00178461 0.000194371)
(0.745999 0.0790509 -0.0044613 0.0296909 -0.00174752 0.000190743)
(0.746536 0.0774819 -0.0044348 0.0296676 -0.00173276 0.000189936)
(0.754502 0.076385 -0.00434897 0.0296725 -0.00169727 0.000186612)
(0.756506 0.0749079 -0.00431636 0.0296531 -0.00168082 0.000185448)
(0.764325 0.0737519 -0.00422648 0.0296631 -0.0016475 0.000182313)
(0.767717 0.0723556 -0.00418233 0.0296522 -0.00162885 0.00018072)
(0.775618 0.0711406 -0.00408519 0.0296606 -0.00159661 0.000177636)
(0.780292 0.0697709 -0.00402659 0.0296398 -0.00157539 0.000175603)
(0.78847 0.0685001 -0.0039247 0.0296427 -0.00154464 0.00017252)
(0.79433 0.067177 -0.0038535 0.0296256 -0.00152162 0.000170105)
(0.802837 0.0658499 -0.00374485 0.0296208 -0.00149156 0.000166967)
(0.809761 0.0645653 -0.00366538 0.0296075 -0.00146769 0.00016424)
(0.818593 0.06322 -0.0035525 0.0296088 -0.00143843 0.000161039)
(0.826359 0.0619528 -0.00346288 0.0295927 -0.00141292 0.000158031)
(0.835457 0.0605774 -0.00334822 0.0295929 -0.00138445 0.000154773)
(0.843867 0.0593319 -0.00325253 0.0295759 -0.00135771 0.000151562)
(0.853117 0.0579356 -0.00313667 0.029579 -0.00132976 0.000148269)
(0.861947 0.0567004 -0.0030386 0.0295532 -0.00130181 0.000144948)
(0.871244 0.0552965 -0.00292312 0.029565 -0.00127442 0.00014164)
(0.880241 0.0540509 -0.00282593 0.0295123 -0.00124487 0.000138316)
(0.889554 0.0526632 -0.00271148 0.0295523 -0.00121862 0.000135003)
(0.898436 0.0513931 -0.0026211 0.0294388 -0.00118687 0.000131775)
(0.907864 0.050081 -0.00250476 0.0295559 -0.0011623 0.000128419)
(0.916253 0.0487549 -0.00242705 0.0292921 -0.0011261 0.000125384)
(0.926233 0.0476468 -0.00230422 0.0296041 -0.00110539 0.000121929)
(0.933511 0.0461761 -0.00224842 0.0289307 -0.00105927 0.00011917)
(0.945417 0.0456702 -0.00211935 0.0297523 -0.00104979 0.000115572)
(0.949776 0.043689 -0.00209155 0.0278641 -0.000977594 0.000113208)
(0.967174 0.044885 -0.00199471 0.0297943 -0.000998951 0.000109785)
(0.963358 0.0416198 -0.00193032 0.0247835 -0.000839944 0.000106221)
(0.99342 0.0478684 -0.00202028 0.028457 -0.00094785 0.000107198)
(0.970829 0.0405448 -0.00173056 0.0183185 -0.000602557 9.32358e-05)
(1.03401 0.0673927 0.0151051 0.0167546 0.000555221 0.000313725)
(0.0260718 0.00591492 0.00345529 0.00663931 0.00251261 0.00120989)
(0.0310699 0.00180222 0.000524028 0.0145909 0.00511688 0.00204134)
(0.0714353 0.0199638 0.00623716 0.030979 0.00911185 0.00285636)
(0.0920463 0.0147533 0.0041144 0.0401415 0.0109336 0.00316379)
(0.129436 0.0268931 0.0069459 0.0460708 0.0121424 0.00341373)
(0.155168 0.0171685 0.00421666 0.0456258 0.0117636 0.00329049)
(0.185624 0.0218553 0.00475153 0.0419451 0.0107341 0.0030787)
(0.215105 0.0134081 0.00228753 0.0366841 0.0086726 0.00249539)
(0.24185 0.0177628 0.00229559 0.032428 0.0065215 0.00178405)
(0.272182 0.0137411 0.00114257 0.0295292 0.00436505 0.00101704)
(0.295393 0.0187142 0.00130623 0.0283967 0.00290037 0.000503805)
(0.323827 0.0167602 0.00082604 0.0279746 0.00183214 0.000221879)
(0.343785 0.0212227 0.000883836 0.0282032 0.00132366 0.000120127)
(0.369668 0.0200269 0.000569118 0.0283794 0.000975554 8.05597e-05)
(0.386771 0.0237116 0.000563989 0.0287168 0.000888641 7.32292e-05)
(0.410135 0.0229583 0.000300255 0.0288242 0.000777006 6.71127e-05)
(0.424963 0.0260067 0.000250736 0.0290048 0.000778669 6.82514e-05)
(0.446145 0.0256409 -3.88061e-06 0.029014 0.000710093 6.59247e-05)
(0.459338 0.0282194 -9.59218e-05 0.0291043 0.000713474 6.77675e-05)
(0.478774 0.0281952 -0.00034837 0.0290807 0.000653468 6.67329e-05)
(0.490927 0.0304235 -0.000472773 0.0291348 0.000650422 6.87418e-05)
(0.509072 0.030684 -0.000720988 0.0291066 0.000595941 6.85975e-05)
(0.52071 0.0326458 -0.000867278 0.0291447 0.000587559 7.06881e-05)
(0.538004 0.0331357 -0.00110841 0.0291192 0.000537793 7.11728e-05)
(0.549571 0.0348926 -0.00126801 0.0291479 0.000525081 7.3263e-05)
(0.566413 0.0355643 -0.00149956 0.0291252 0.000478961 7.41429e-05)
(0.578269 0.0371646 -0.00166552 0.0291477 0.000462501 7.61455e-05)
(0.594996 0.0379826 -0.00188558 0.029133 0.000419493 7.72478e-05)
(0.607415 0.0394599 -0.00205277 0.0291498 0.000399762 7.90951e-05)
(0.624308 0.0403928 -0.00225968 0.0291387 0.000358981 8.02679e-05)
(0.637475 0.0417768 -0.00242404 0.0291557 0.000336863 8.19249e-05)
(0.65474 0.0427995 -0.00261761 0.0291471 0.000298078 8.30721e-05)
(0.668773 0.0441109 -0.00277666 0.0291598 0.000273787 8.44994e-05)
(0.686554 0.0452042 -0.00295676 0.0291501 0.000236613 8.55486e-05)
(0.701499 0.0464621 -0.00310914 0.0291572 0.000210297 8.67269e-05)
(0.719868 0.0476172 -0.00327667 0.0291503 0.000174448 8.7636e-05)
(0.735692 0.0488355 -0.0034218 0.029155 0.000146447 8.85773e-05)
(0.75466 0.0500428 -0.00357814 0.0291509 0.000111528 8.93277e-05)
(0.771267 0.0512316 -0.00371689 0.0291568 8.21054e-05 9.00623e-05)
(0.790778 0.0524817 -0.00386428 0.0291547 4.79034e-05 9.06607e-05)
(0.808029 0.0536468 -0.00399747 0.0291589 1.70131e-05 9.12316e-05)
(0.827982 0.0549355 -0.00413862 0.029159 -1.65031e-05 9.17067e-05)
(0.845697 0.0560805 -0.00426873 0.0291605 -4.87376e-05 9.21872e-05)
(0.865972 0.0574081 -0.00440538 0.0291648 -8.17473e-05 9.25668e-05)
(0.883933 0.0585297 -0.00453525 0.0291606 -0.000115079 9.30456e-05)
(0.90443 0.0599045 -0.00466966 0.0291757 -0.000147695 9.33619e-05)
(0.922364 0.0609868 -0.00480274 0.0291582 -0.000182142 9.39397e-05)
(0.943074 0.0624467 -0.00493526 0.0292104 -0.000214477 9.42108e-05)
(0.96056 0.0634337 -0.00507585 0.0291579 -0.000249653 9.50001e-05)
(0.981728 0.0650887 -0.0052056 0.029311 -0.000282753 9.52233e-05)
(0.997976 0.0658382 -0.00535934 0.0291917 -0.000318284 9.63404e-05)
(1.02049 0.0679841 -0.00548044 0.0295496 -0.000351567 9.64725e-05)
(1.03371 0.0681473 -0.00565554 0.0293522 -0.000389735 9.80944e-05)
(1.06018 0.071448 -0.00573567 0.0299805 -0.000408965 9.77202e-05)
(1.06597 0.0703909 -0.0059385 0.0299589 -0.000457435 0.00010001)
(1.10384 0.0759065 -0.0059192 0.0304427 -0.000432147 9.81843e-05)
(1.09023 0.0731136 -0.00620002 0.0316505 -0.000547481 0.000102226)
(1.16091 0.0830798 -0.00585755 0.0315997 -0.000380991 9.67419e-05)
(1.10196 0.0781516 -0.00638704 0.0341109 -0.000712625 0.000105665)
(1.25841 0.106309 0.0167449 0.0382993 0.00152248 0.000290058)
(0.0261069 0.000677959 0.00340826 0.000150261 0.000296826 0.00117002)
(0.0309009 -1.84111e-05 0.00047155 0.000181265 -0.000381491 0.00202372)
(0.0745908 -0.00164781 0.00686513 0.00041633 -0.00048072 0.00289062)
(0.097924 -0.00315845 0.00606161 0.00169014 -0.00148602 0.00331465)
(0.149778 -0.0100185 0.011164 0.00348281 -0.0024501 0.00371607)
(0.18018 -0.0132945 0.0105667 0.00694738 -0.00367576 0.00378959)
(0.227147 -0.0245483 0.0133341 0.0112867 -0.00488797 0.0037957)
(0.254318 -0.027536 0.011434 0.0166357 -0.00564521 0.00338387)
(0.289246 -0.0373301 0.0109898 0.0216382 -0.00579213 0.00268607)
(0.312083 -0.0366959 0.0077006 0.0256437 -0.00499798 0.00172406)
(0.338807 -0.042322 0.00589991 0.0279821 -0.00387339 0.000931754)
(0.361046 -0.0397441 0.00359071 0.0290895 -0.002673 0.000425405)
(0.383952 -0.0434216 0.00267863 0.0293692 -0.00192179 0.000208051)
(0.40611 -0.0413599 0.00172607 0.0294492 -0.00141364 0.000121316)
(0.42637 -0.044577 0.00151552 0.0293756 -0.00123567 9.95776e-05)
(0.447622 -0.0433997 0.00108482 0.0293834 -0.00108946 8.80117e-05)
(0.465496 -0.0462815 0.00102484 0.0293269 -0.00107251 8.80416e-05)
(0.485463 -0.0457273 0.000697454 0.0293515 -0.00100035 8.44214e-05)
(0.501411 -0.0482595 0.000616149 0.0293155 -0.000998316 8.62246e-05)
(0.520179 -0.0481353 0.000307444 0.0293407 -0.00093828 8.42898e-05)
(0.53477 -0.0503548 0.000190257 0.0293128 -0.000931872 8.62728e-05)
(0.552627 -0.0505474 -0.000107125 0.0293332 -0.000877295 8.53181e-05)
(0.566416 -0.0525093 -0.000251027 0.02931 -0.000866192 8.73275e-05)
(0.583707 -0.0529448 -0.000535828 0.0293256 -0.000815988 8.70665e-05)
(0.597183 -0.0547014 -0.000697146 0.0293062 -0.000800992 8.90242e-05)
(0.614243 -0.0553259 -0.000967819 0.0293176 -0.000754363 8.92214e-05)
(0.627807 -0.0569206 -0.00113917 0.0292982 -0.000735953 9.10458e-05)
(0.644934 -0.0576954 -0.00139454 0.0293073 -0.000692159 9.1504e-05)
(0.6589 -0.0591672 -0.00157002 0.0292936 -0.000670862 9.3128e-05)
(0.676337 -0.0600599 -0.00180937 0.0292981 -0.000629296 9.36988e-05)
(0.690929 -0.0614378 -0.00198464 0.0292877 -0.00060548 9.50774e-05)
(0.708857 -0.0624267 -0.0022075 0.0292934 -0.000565908 9.56538e-05)
(0.724211 -0.0637312 -0.00237904 0.0292855 -0.00054029 9.67782e-05)
(0.74275 -0.0647946 -0.00258602 0.0292893 -0.000502298 9.72817e-05)
(0.758926 -0.0660409 -0.00275236 0.029279 -0.000474808 9.81251e-05)
(0.778132 -0.0671651 -0.00294463 0.0292796 -0.000438077 9.85092e-05)
(0.795119 -0.0683691 -0.00310508 0.0292704 -0.000409004 9.90843e-05)
(0.814988 -0.0695453 -0.00328422 0.0292688 -0.000373275 9.93229e-05)
(0.832709 -0.0707187 -0.00343876 0.029261 -0.000342943 9.96638e-05)
(0.853176 -0.07194 -0.00360755 0.0292605 -0.000308026 9.9762e-05)
(0.871504 -0.0730908 -0.00375745 0.0292529 -0.000276454 9.99161e-05)
(0.892454 -0.0743488 -0.00391816 0.029251 -0.000242314 9.99e-05)
(0.911226 -0.0754818 -0.0040657 0.029243 -0.000209479 9.99367e-05)
(0.932516 -0.0767689 -0.00422085 0.0292399 -0.00017586 9.98261e-05)
(0.95155 -0.077888 -0.00436816 0.0292295 -0.000142084 9.98387e-05)
(0.97302 -0.0791886 -0.00452011 0.0292208 -0.000108739 9.96593e-05)
(0.992136 -0.0803056 -0.00467078 0.0292083 -7.40508e-05 9.97493e-05)
(1.01362 -0.0815817 -0.00481991 0.0291782 -4.10212e-05 9.95239e-05)
(1.03267 -0.0827303 -0.00497836 0.0291744 -5.68187e-06 9.9809e-05)
(1.054 -0.0838673 -0.00512374 0.0290669 2.76487e-05 9.95232e-05)
(1.07296 -0.0851635 -0.0052961 0.0291309 6.31522e-05 0.000100124)
(1.0937 -0.0858003 -0.0054276 0.0287622 9.42368e-05 9.97841e-05)
(1.11287 -0.0874932 -0.00562515 0.0290182 0.000131361 0.000100806)
(1.13206 -0.0867054 -0.00571255 0.0279553 0.000153021 0.000100306)
(1.15198 -0.0890934 -0.00596279 0.0284936 0.000198092 0.00010171)
(1.16777 -0.0849978 -0.00594726 0.0261006 0.000189316 0.000100856)
(1.18813 -0.0884324 -0.00631701 0.0268277 0.000263921 0.000102916)
(1.20061 -0.0768791 -0.00600969 0.0223507 0.000159424 0.000101491)
(1.21441 -0.0825969 -0.00663311 0.0226774 0.00033618 0.000104659)
(1.24011 -0.0543223 0.0158895 0.0164281 -0.000868497 0.000274918)
(0.0251976 0.00229877 0.00316738 0.00112596 0.000999671 0.00112419)
(0.0310883 -0.00107146 -0.000718816 0.00451347 0.00283417 0.0019164)
(0.0665527 0.0105189 0.00472853 0.0130242 0.00579993 0.00270371)
(0.0896559 0.00792619 0.00306857 0.0198043 0.00755372 0.00307223)
(0.131893 0.0232355 0.00745486 0.0272385 0.00922616 0.00344249)
(0.163097 0.022161 0.00675302 0.0316216 0.00982158 0.0035119)
(0.205576 0.0347852 0.00947285 0.0344348 0.0099842 0.00351831)
(0.236821 0.0324333 0.00812182 0.0350025 0.00904153 0.00310185)
(0.273108 0.0402632 0.00822307 0.0345259 0.00754728 0.00240539)
(0.301258 0.0368279 0.00578948 0.0332638 0.00548846 0.00148785)
(0.33108 0.041845 0.00454265 0.0320446 0.0037334 0.000767869)
(0.3569 0.0389709 0.00269977 0.0308477 0.00229336 0.000329881)
(0.382057 0.043001 0.00194987 0.0301143 0.00150729 0.000152199)
(0.405926 0.0411867 0.00112357 0.0295521 0.00100359 8.64354e-05)
(0.427325 0.0446788 0.000909307 0.0293123 0.000840497 7.16025e-05)
(0.449259 0.0436339 0.000510457 0.0290907 0.000699082 6.45062e-05)
(0.467707 0.046641 0.00042112 0.0290431 0.000687363 6.51903e-05)
(0.487912 0.0461145 0.000103541 0.028944 0.00061545 6.3545e-05)
(0.50417 0.048694 -8.19963e-06 0.0289534 0.000615663 6.54447e-05)
(0.523007 0.0485532 -0.000315852 0.0288983 0.000555291 6.51021e-05)
(0.537789 0.050787 -0.000461087 0.0289208 0.000550365 6.72605e-05)
(0.55566 0.0509494 -0.000762303 0.0288847 0.000495649 6.77409e-05)
(0.569585 0.0529126 -0.000931424 0.0289081 0.000485799 7.00397e-05)
(0.586877 0.0533157 -0.00122325 0.028882 0.000435751 7.10971e-05)
(0.600461 0.0550682 -0.00140724 0.0289027 0.000421922 7.34446e-05)
(0.617523 0.055662 -0.00168727 0.0288828 0.00037569 7.48656e-05)
(0.631179 0.0572514 -0.00187925 0.0289003 0.000358466 7.71683e-05)
(0.648315 0.0579976 -0.00214578 0.0288862 0.00031523 7.87744e-05)
(0.66236 0.0594603 -0.00234042 0.0289006 0.000294989 8.09521e-05)
(0.679811 0.0603263 -0.00259248 0.0288899 0.00025409 8.26085e-05)
(0.694471 0.0616924 -0.00278597 0.0289033 0.000231167 8.46033e-05)
(0.71242 0.0626539 -0.00302278 0.0288955 0.000192194 8.62095e-05)
(0.727836 0.0639441 -0.00321171 0.0289053 0.000167346 8.79951e-05)
(0.7464 0.0649804 -0.00343377 0.0288973 0.000129871 8.94831e-05)
(0.762634 0.0662132 -0.00361691 0.0289037 0.000103094 9.10339e-05)
(0.781872 0.0673125 -0.00382508 0.028897 6.6879e-05 9.23679e-05)
(0.798914 0.0685036 -0.00400201 0.0289023 3.83971e-05 9.36916e-05)
(0.818822 0.0696573 -0.00419771 0.0288984 3.20292e-06 9.48528e-05)
(0.836593 0.0708175 -0.00436831 0.0289039 -2.65817e-05 9.59751e-05)
(0.857107 0.0720159 -0.0045543 0.028901 -6.09952e-05 9.69759e-05)
(0.875478 0.0731538 -0.00472013 0.0289076 -9.20672e-05 9.79446e-05)
(0.896493 0.0743913 -0.00489846 0.0289042 -0.000125659 9.8811e-05)
(0.915289 0.0755135 -0.00506194 0.0289126 -0.000158102 9.96957e-05)
(0.936687 0.0767895 -0.00523518 0.0289089 -0.000191141 0.000100456)
(0.955697 0.0779029 -0.00539844 0.0289231 -0.000224646 0.000101342)
(0.977386 0.079219 -0.00556885 0.0289166 -0.000257303 0.000102028)
(0.996337 0.0803339 -0.00573574 0.0289481 -0.00029204 0.000103019)
(1.01834 0.0817006 -0.00590322 0.0289348 -0.000324015 0.000103645)
(1.03683 0.0828384 -0.00607872 0.0290094 -0.000360374 0.00010486)
(1.05946 0.0842803 -0.00624121 0.0289793 -0.000391614 0.00010541)
(1.07683 0.0855157 -0.00643251 0.0291662 -0.000430768 0.000106978)
(1.101 0.0870753 -0.00657838 0.0290739 -0.000458267 0.000107361)
(1.11625 0.0886744 -0.00679184 0.0295434 -0.000501915 0.000109397)
(1.14421 0.0904071 -0.00689918 0.0292874 -0.00052234 0.000109343)
(1.15587 0.0931023 -0.00714828 0.0303866 -0.000577867 0.000111819)
(1.19229 0.0955634 -0.00717804 0.0301541 -0.00058343 0.000110804)
(1.19822 0.100661 -0.00749201 0.0320462 -0.000667694 0.000114061)
(1.25284 0.1069 -0.00729358 0.0335259 -0.000636295 0.000110776)
(1.25594 0.115208 -0.00770223 0.0345639 -0.000773784 0.000114929)
(1.34767 0.138698 0.0166105 0.0462591 0.00171284 0.000273503)
(0.0251344 -0.000420672 0.00315747 3.44353e-05 -0.000182298 0.00112817)
(0.0311497 0.000571492 -0.000822752 0.000844348 -0.00125148 0.00193304)
(0.0662432 -0.00429503 0.00459624 0.0021271 -0.00232276 0.00272058)
(0.0892159 -0.00360962 0.00280724 0.00476418 -0.00356885 0.00310073)
(0.130715 -0.0123666 0.00713638 0.00780936 -0.00467532 0.00347882)
(0.16171 -0.0130062 0.00636758 0.01179 -0.00555901 0.00356201)
(0.20399 -0.023542 0.00917642 0.0159266 -0.00625833 0.00357637)
(0.235947 -0.0244541 0.00797236 0.0201185 -0.00632823 0.00316247)
(0.273323 -0.0338992 0.00835224 0.0237397 -0.00590671 0.00246537)
(0.302406 -0.0335885 0.00609534 0.0265118 -0.00478515 0.00154528)
(0.33306 -0.0402828 0.00498237 0.0282546 -0.00359236 0.000818573)
(0.358892 -0.0387746 0.00312173 0.0291425 -0.0024286 0.000367617)
(0.383945 -0.0432838 0.00237767 0.0294524 -0.00173072 0.000179431)
(0.407352 -0.0416801 0.00151135 0.0294859 -0.00125239 0.000105625)
(0.428448 -0.0451247 0.00131179 0.0293807 -0.00108896 8.78133e-05)
(0.449997 -0.044 0.000895093 0.0292692 -0.000947033 7.82726e-05)
(0.468212 -0.0468965 0.000825497 0.0291717 -0.000932301 7.86403e-05)
(0.488216 -0.0463071 0.00050019 0.0291055 -0.000859982 7.57869e-05)
(0.504357 -0.0488223 0.000407388 0.0290597 -0.000858478 7.76345e-05)
(0.523111 -0.0486588 9.70311e-05 0.0290312 -0.00079807 7.62919e-05)
(0.537843 -0.0508627 -3.113e-05 0.0290126 -0.000792104 7.83399e-05)
(0.555683 -0.0510214 -0.000332007 0.0290008 -0.00073735 7.79134e-05)
(0.569588 -0.0529702 -0.000486026 0.0289933 -0.000726724 8.003e-05)
(0.586868 -0.0533757 -0.00077547 0.0289879 -0.000676505 8.02536e-05)
(0.600443 -0.0551198 -0.000946078 0.0289843 -0.000661999 8.23573e-05)
(0.617501 -0.055717 -0.00122219 0.0289812 -0.000615468 8.30051e-05)
(0.631152 -0.0573001 -0.00140216 0.0289784 -0.000597608 8.50105e-05)
(0.648286 -0.0580485 -0.00166354 0.0289765 -0.000553979 8.58926e-05)
(0.662328 -0.0595073 -0.00184714 0.0289753 -0.000533139 8.7724e-05)
(0.679778 -0.060375 -0.00209301 0.028973 -0.000491741 8.86929e-05)
(0.694437 -0.0617387 -0.00227617 0.0289731 -0.000468207 9.0296e-05)
(0.712385 -0.0627028 -0.00250584 0.0289725 -0.000428712 9.12464e-05)
(0.727801 -0.063992 -0.00268487 0.0289719 -0.000403316 9.26115e-05)
(0.746365 -0.0650315 -0.00289892 0.02897 -0.00036538 9.34729e-05)
(0.762599 -0.0662634 -0.00307241 0.0289679 -0.000338169 9.45765e-05)
(0.781836 -0.0673646 -0.00327182 0.028965 -0.000301593 9.53094e-05)
(0.798877 -0.0685548 -0.00343917 0.0289632 -0.000272834 9.61625e-05)
(0.81878 -0.0697094 -0.00362543 0.028961 -0.000237385 9.67424e-05)
(0.836551 -0.0708692 -0.0037865 0.0289598 -0.00020743 9.73748e-05)
(0.857056 -0.0720685 -0.00396247 0.0289574 -0.00017282 9.78074e-05)
(0.875431 -0.073208 -0.00411877 0.0289581 -0.000141676 9.82661e-05)
(0.896428 -0.074443 -0.00428661 0.0289532 -0.000107893 9.85767e-05)
(0.915242 -0.0755689 -0.00444058 0.0289564 -7.54692e-05 9.89302e-05)
(0.936593 -0.0768311 -0.00460306 0.028947 -4.22482e-05 9.91431e-05)
(0.955662 -0.0779564 -0.00475669 0.0289583 -8.87634e-06 9.9479e-05)
(0.977225 -0.0792253 -0.00491591 0.0289329 2.39835e-05 9.96211e-05)
(0.996362 -0.0803845 -0.00507296 0.0289691 5.82451e-05 0.000100045)
(1.01802 -0.0816048 -0.00522897 0.0288927 9.05725e-05 0.000100136)
(1.03706 -0.0828871 -0.00539407 0.0289999 0.000125815 0.000100759)
(1.05876 -0.083903 -0.00554475 0.028778 0.000157467 0.000100787)
(1.07765 -0.0855354 -0.0057244 0.0290706 0.000194059 0.000101722)
(1.09936 -0.0859308 -0.00585851 0.0284722 0.000222151 0.000101652)
(1.11826 -0.0884288 -0.00606232 0.0291898 0.00026186 0.000102992)
(1.14001 -0.0873177 -0.00616004 0.0278039 0.000281867 0.00010268)
(1.15973 -0.0917731 -0.00640477 0.0293212 0.000329329 0.000104393)
(1.18138 -0.0875798 -0.00642762 0.0266278 0.000327426 0.000103674)
(1.20405 -0.095907 -0.00674428 0.0291767 0.000396066 0.000105873)
(1.22679 -0.0864835 -0.00658171 0.0250334 0.000342222 0.000104568)
(1.2573 -0.100346 -0.00697511 0.0275081 0.000455105 0.000106887)
(1.29382 -0.087845 0.016168 0.0246084 -0.00119333 0.000271882)
(0.0249578 0.00111186 0.00310278 0.000267354 0.000492284 0.0011138)
(0.03137 -0.001071 -0.0010287 0.0019868 0.00189164 0.00189878)
(0.0649204 0.0063579 0.00414128 0.00583981 0.00384484 0.00265439)
(0.0881058 0.00406737 0.00212154 0.0102945 0.00533589 0.00301592)
(0.12731 0.0154227 0.00621088 0.0154984 0.0067587 0.00337836)
(0.158423 0.0147984 0.00536104 0.0201262 0.00754272 0.00345609)
(0.199156 0.0264683 0.00808847 0.0242646 0.00802465 0.00346443)
(0.231777 0.0261439 0.00700526 0.0272733 0.00761909 0.00304815)
(0.268953 0.0354547 0.00750993 0.0292964 0.00667625 0.00235649)
(0.299088 0.0341742 0.00548892 0.0302494 0.0050945 0.00145952)
(0.330196 0.0405161 0.00452514 0.0305337 0.00363063 0.00076207)
(0.356904 0.0386062 0.00280921 0.0303308 0.00234251 0.000336262)
(0.382446 0.0430289 0.00212009 0.0300362 0.00161058 0.000161603)
(0.406376 0.0413676 0.00130022 0.0296918 0.0011254 9.46343e-05)
(0.427757 0.0448438 0.00110191 0.0294485 0.000963936 7.89657e-05)
(0.449573 0.0437399 0.000697617 0.029222 0.000822725 7.08273e-05)
(0.467945 0.0466724 0.000619483 0.0291061 0.000809585 7.14066e-05)
(0.488073 0.0460929 0.000298398 0.0289882 0.000737227 6.91781e-05)
(0.50429 0.0486255 0.000196165 0.0289502 0.000736389 7.10556e-05)
(0.523094 0.0484584 -0.000113177 0.0288914 0.000675707 7.02131e-05)
(0.537861 0.050668 -0.000250217 0.0288866 0.000670066 7.23099e-05)
(0.555719 0.0508177 -0.000551796 0.0288547 0.000615079 7.2334e-05)
(0.56964 0.0527672 -0.000713809 0.0288613 0.000604704 7.45363e-05)
(0.586926 0.0531627 -0.00100498 0.0288417 0.000554393 7.51766e-05)
(0.600509 0.0549058 -0.00118265 0.0288508 0.000540197 7.74027e-05)
(0.61757 0.0554936 -0.00146117 0.0288374 0.0004937 7.84382e-05)
(0.631225 0.0570753 -0.00164744 0.0288461 0.000476157 8.0593e-05)
(0.64836 0.0578152 -0.00191177 0.0288366 0.000432628 8.18381e-05)
(0.662405 0.0592717 -0.00210111 0.0288446 0.000412098 8.38438e-05)
(0.679855 0.0601313 -0.00235036 0.0288371 0.000370892 8.51593e-05)
(0.694516 0.0614916 -0.00253886 0.0288447 0.000347711 8.69618e-05)
(0.712464 0.0624473 -0.00277229 0.0288398 0.000308488 8.82458e-05)
(0.727881 0.0637322 -0.00295633 0.0288451 0.000283483 8.98275e-05)
(0.746446 0.0647635 -0.00317442 0.0288397 0.000245876 9.101e-05)
(0.762682 0.0659917 -0.00335266 0.0288429 0.00021907 9.23449e-05)
(0.781921 0.0670857 -0.00355639 0.0288378 0.000182826 9.33861e-05)
(0.798963 0.0682725 -0.00372841 0.0288407 0.000154406 9.44815e-05)
(0.818869 0.0694204 -0.00391929 0.0288376 0.000119246 9.53589e-05)
(0.836641 0.0705759 -0.00408499 0.028841 8.95642e-05 9.62422e-05)
(0.857152 0.0717679 -0.00426586 0.028838 5.52068e-05 9.69645e-05)
(0.875525 0.0729025 -0.0044268 0.0288437 2.42748e-05 9.76829e-05)
(0.896535 0.0741318 -0.00459977 0.0288388 -9.25427e-06 9.82766e-05)
(0.91534 0.075255 -0.00475834 0.0288485 -4.15345e-05 9.88985e-05)
(0.936723 0.0765175 -0.004926 0.0288398 -7.45044e-05 9.93883e-05)
(0.955763 0.0776436 -0.00508435 0.0288609 -0.000107822 0.000100002)
(0.977408 0.0789275 -0.00524879 0.0288383 -0.000140372 0.000100418)
(0.996453 0.0800893 -0.00541075 0.0288924 -0.000174879 0.000101125)
(1.01833 0.0813594 -0.00557163 0.0288266 -0.000206579 0.000101483)
(1.0371 0.0826371 -0.00574229 0.0289648 -0.000242698 0.000102399)
(1.05935 0.0837966 -0.00589683 0.0287804 -0.000273086 0.000102679)
(1.07754 0.0854025 -0.00608305 0.0291238 -0.000311757 0.000103923)
(1.10066 0.0862082 -0.00622161 0.0286468 -0.000338241 0.000104067)
(1.11802 0.0886864 -0.00643293 0.0294588 -0.000382527 0.000105741)
(1.14328 0.0887017 -0.00653583 0.0284441 -0.00040027 0.000105589)
(1.15991 0.0932275 -0.0067905 0.0301373 -0.000457637 0.000107684)
(1.1895 0.0920117 -0.00682241 0.0284738 -0.000457147 0.000106969)
(1.20702 0.10055 -0.00715054 0.0312157 -0.000540984 0.000109621)
(1.24527 0.0989408 -0.00701771 0.0299373 -0.000511936 0.000108075)
(1.27134 0.112819 -0.00741051 0.0321431 -0.00062795 0.000110774)
(1.33184 0.119256 0.0163015 0.0369955 0.00147243 0.000268673)
(0.0249578 -0.00111177 0.00310278 0.000267354 -0.000492289 0.0011138)
(0.03137 0.0010713 -0.00102871 0.00198682 -0.00189166 0.00189878)
(0.0649203 -0.00635753 0.00414127 0.00583983 -0.00384485 0.00265439)
(0.0881057 -0.00406696 0.00212152 0.0102945 -0.00533591 0.00301592)
(0.12731 -0.0154224 0.00621086 0.0154985 -0.00675872 0.00337836)
(0.158423 -0.0147983 0.00536102 0.0201263 -0.00754276 0.0034561)
(0.199155 -0.0264684 0.00808846 0.0242648 -0.00802469 0.00346443)
(0.231778 -0.026144 0.00700526 0.0272735 -0.00761912 0.00304814)
(0.268954 -0.0354549 0.00750992 0.0292965 -0.00667625 0.00235647)
(0.299088 -0.0341741 0.00548892 0.0302496 -0.00509449 0.00145951)
(0.330197 -0.0405157 0.00452515 0.0305338 -0.0036306 0.000762063)
(0.356905 -0.0386053 0.00280923 0.0303309 -0.00234249 0.000336262)
(0.382447 -0.0430275 0.00212011 0.0300362 -0.00161057 0.000161604)
(0.406377 -0.0413659 0.00130025 0.0296917 -0.00112539 9.46355e-05)
(0.427757 -0.044842 0.00110194 0.0294484 -0.000963935 7.89663e-05)
(0.449573 -0.0437381 0.000697645 0.0292219 -0.000822735 7.08276e-05)
(0.467945 -0.0466707 0.000619507 0.0291061 -0.000809604 7.14064e-05)
(0.488073 -0.0460914 0.000298423 0.0289883 -0.000737253 6.91779e-05)
(0.50429 -0.0486243 0.000196186 0.0289503 -0.000736424 7.1055e-05)
(0.523094 -0.0484578 -0.000113155 0.0288915 -0.000675743 7.02128e-05)
(0.53786 -0.0506679 -0.000250197 0.0288868 -0.000670106 7.23094e-05)
(0.555718 -0.0508182 -0.000551778 0.0288549 -0.000615117 7.23336e-05)
(0.569639 -0.052768 -0.000713794 0.0288615 -0.000604745 7.45358e-05)
(0.586926 -0.0531636 -0.00100496 0.0288419 -0.000554435 7.51763e-05)
(0.600509 -0.0549067 -0.00118264 0.028851 -0.000540241 7.74023e-05)
(0.61757 -0.0554943 -0.00146116 0.0288375 -0.000493746 7.84379e-05)
(0.631226 -0.0570756 -0.00164743 0.0288462 -0.000476211 8.05929e-05)
(0.64836 -0.0578149 -0.00191175 0.0288368 -0.000432685 8.1838e-05)
(0.662405 -0.0592708 -0.00210109 0.0288447 -0.000412156 8.38437e-05)
(0.679856 -0.0601299 -0.00235035 0.0288372 -0.000370949 8.51592e-05)
(0.694516 -0.0614897 -0.00253884 0.0288448 -0.000347761 8.69618e-05)
(0.712464 -0.0624451 -0.00277227 0.0288399 -0.000308527 8.8246e-05)
(0.727881 -0.0637298 -0.0029563 0.0288453 -0.000283505 8.9828e-05)
(0.746446 -0.0647608 -0.00317439 0.0288398 -0.000245876 9.10108e-05)
(0.762681 -0.0659883 -0.00335262 0.0288431 -0.00021905 9.23459e-05)
(0.78192 -0.0670816 -0.00355635 0.0288378 -0.00018279 9.33873e-05)
(0.798962 -0.0682678 -0.00372837 0.0288408 -0.000154362 9.44828e-05)
(0.818867 -0.0694153 -0.00391927 0.0288375 -0.000119194 9.53604e-05)
(0.836639 -0.0705716 -0.00408497 0.0288409 -8.95042e-05 9.62438e-05)
(0.857149 -0.0717643 -0.00426587 0.0288376 -5.51286e-05 9.69662e-05)
(0.875522 -0.0729009 -0.0044268 0.0288434 -2.41854e-05 9.76846e-05)
(0.896531 -0.0741303 -0.00459974 0.0288376 9.36714e-06 9.82776e-05)
(0.915338 -0.0752544 -0.00475831 0.0288475 4.16406e-05 9.88998e-05)
(0.936719 -0.0765141 -0.00492601 0.0288372 7.45997e-05 9.93897e-05)
(0.955763 -0.0776399 -0.00508428 0.0288591 0.000107905 0.000100001)
(0.977403 -0.0789165 -0.00524868 0.0288336 0.000140392 0.000100415)
(0.996456 -0.0800787 -0.00541059 0.0288891 0.000174792 0.000101121)
(1.01832 -0.0813385 -0.00557145 0.0288187 0.000206425 0.000101478)
(1.03711 -0.0826212 -0.005742 0.0289596 0.000242385 0.000102393)
(1.05934 -0.0837648 -0.0058966 0.028766 0.000272703 0.000102673)
(1.07755 -0.0853836 -0.00608294 0.0291151 0.000311372 0.000103915)
(1.10065 -0.0861643 -0.00622207 0.0286233 0.000338008 0.000104064)
(1.11802 -0.0886619 -0.00643303 0.0294469 0.00038215 0.000105737)
(1.14323 -0.0886282 -0.00653672 0.0284032 0.000400135 0.000105594)
(1.15989 -0.0931862 -0.00679047 0.0301146 0.000457227 0.000107684)
(1.1894 -0.0918801 -0.00682426 0.0284064 0.000457382 0.00010699)
(1.20696 -0.100457 -0.00714944 0.0311732 0.000540089 0.000109608)
(1.24508 -0.0987001 -0.00702307 0.0298285 0.000513432 0.000108132)
(1.2712 -0.112604 -0.00740459 0.0320616 0.000624655 0.000110699)
(1.33154 -0.118831 0.0162791 0.0368107 -0.00145891 0.000268162)
(0.0251344 0.000420759 0.00315746 3.44345e-05 0.000182293 0.00112817)
(0.0311498 -0.0005712 -0.00082276 0.000844331 0.00125147 0.00193304)
(0.0662432 0.00429539 0.00459624 0.00212708 0.00232275 0.00272058)
(0.0892159 0.00361004 0.00280723 0.00476411 0.00356883 0.00310073)
(0.130715 0.0123669 0.00713638 0.0078093 0.0046753 0.00347883)
(0.16171 0.0130063 0.0063676 0.0117898 0.00555899 0.00356203)
(0.20399 0.023542 0.00917644 0.0159265 0.0062583 0.00357638)
(0.235947 0.024454 0.00797236 0.0201183 0.00632818 0.00316246)
(0.273323 0.0338991 0.00835221 0.0237395 0.00590665 0.00246535)
(0.302406 0.0335886 0.00609532 0.0265117 0.00478512 0.00154526)
(0.33306 0.0402832 0.00498239 0.0282545 0.00359236 0.000818564)
(0.358892 0.0387755 0.00312175 0.0291425 0.00242863 0.000367616)
(0.383945 0.043285 0.00237771 0.0294524 0.00173075 0.000179433)
(0.407353 0.0416815 0.00151138 0.0294859 0.00125242 0.000105625)
(0.428449 0.0451263 0.00131183 0.0293807 0.00108897 8.78141e-05)
(0.449997 0.0440014 0.000895109 0.0292693 0.000947031 7.82722e-05)
(0.468213 0.0468981 0.000825523 0.0291716 0.000932287 7.86405e-05)
(0.488217 0.0463082 0.000500194 0.0291055 0.000859959 7.57865e-05)
(0.504358 0.0488233 0.000407394 0.0290596 0.000858452 7.76347e-05)