/*--------------------------------*- C++ -*----------------------------------*\
  =========                 |
  \\      /  F ield         | OpenFOAM: The Open Source CFD Toolbox
   \\    /   O peration     | Website:  https://openfoam.org
    \\  /    A nd           | Version:  7
     \\/     M anipulation  |
\*---------------------------------------------------------------------------*/
FoamFile
{
    version     2.0;
    format      ascii;
    class       volScalarField;
    location    "2.48";
    object      T;
}
// * * * * * * * * * * * * * * * * * * * * * * * * * * * * * * * * * * * * * //

dimensions      [0 0 0 1 0 0 0];

internalField   nonuniform List<scalar> 
4950
(
282.922
282.986
282.993
283.035
283.016
283.042
283.024
283.045
283.031
283.048
283.038
283.052
283.044
283.054
283.05
283.054
283.059
283.046
283.083
282.982
282.891
282.902
282.903
282.941
282.937
282.959
282.954
282.966
282.965
282.974
282.976
282.982
282.987
282.988
283
282.987
283.022
282.963
283.083
282.864
282.855
282.835
282.778
282.805
282.768
282.79
282.763
282.782
282.762
282.779
282.768
282.783
282.779
282.79
282.797
282.798
282.821
282.798
282.852
282.782
282.889
282.876
282.844
282.855
282.835
282.84
282.827
282.829
282.823
282.824
282.822
282.824
282.825
282.828
282.834
282.837
282.848
282.847
282.863
282.856
282.856
282.832
282.768
282.786
282.743
282.758
282.726
282.739
282.715
282.727
282.711
282.723
282.713
282.726
282.722
282.735
282.734
282.748
282.75
282.756
282.889
282.876
282.844
282.855
282.835
282.84
282.827
282.829
282.823
282.825
282.821
282.825
282.824
282.83
282.832
282.839
282.844
282.851
282.858
282.86
282.855
282.835
282.778
282.805
282.768
282.79
282.763
282.782
282.762
282.78
282.766
282.784
282.777
282.794
282.791
282.807
282.806
282.82
282.821
282.823
282.891
282.902
282.903
282.941
282.937
282.959
282.953
282.967
282.965
282.975
282.975
282.984
282.984
282.992
282.993
282.999
283
283.004
283.006
283.004
282.922
282.986
282.993
283.035
283.016
283.042
283.024
283.045
283.031
283.049
283.038
283.052
283.043
283.055
283.048
283.058
283.052
283.06
283.055
283.063
283.206
283.204
283.265
283.244
283.285
283.257
283.287
283.261
283.286
283.263
283.284
283.265
283.283
283.264
283.284
283.259
283.292
283.231
283.363
283.019
283.173
283.15
283.179
283.166
283.186
283.176
283.188
283.181
283.188
283.184
283.194
283.189
283.203
283.194
283.218
283.19
283.243
283.162
283.298
283.072
283.21
283.196
283.252
283.227
283.264
283.242
283.269
283.25
283.271
283.254
283.274
283.259
283.28
283.265
283.29
283.269
283.305
283.268
283.322
283.262
283.173
283.147
283.174
283.157
283.172
283.159
283.166
283.158
283.16
283.155
283.158
283.155
283.16
283.159
283.168
283.167
283.177
283.177
283.186
283.187
283.209
283.196
283.253
283.227
283.261
283.237
283.26
283.239
283.256
283.239
283.253
283.239
283.252
283.243
283.255
283.25
283.261
283.258
283.266
283.273
283.173
283.147
283.174
283.157
283.171
283.159
283.166
283.158
283.16
283.155
283.157
283.155
283.159
283.161
283.166
283.17
283.175
283.18
283.183
283.19
283.21
283.196
283.252
283.227
283.264
283.242
283.269
283.25
283.271
283.255
283.272
283.261
283.277
283.269
283.284
283.279
283.291
283.287
283.296
283.296
283.173
283.15
283.179
283.166
283.186
283.176
283.188
283.181
283.188
283.185
283.192
283.192
283.2
283.201
283.207
283.208
283.213
283.212
283.215
283.213
283.206
283.204
283.265
283.244
283.285
283.257
283.287
283.261
283.286
283.264
283.284
283.265
283.282
283.266
283.279
283.266
283.276
283.265
283.273
283.26
283.154
283.154
283.165
283.166
283.176
283.175
283.184
283.184
283.193
283.193
283.201
283.197
283.207
283.195
283.217
283.178
283.252
283.106
283.402
282.805
283.153
283.15
283.153
283.15
283.152
283.15
283.153
283.151
283.156
283.156
283.166
283.163
283.183
283.17
283.206
283.167
283.239
283.143
283.289
283.087
283.154
283.152
283.159
283.157
283.162
283.16
283.164
283.162
283.167
283.166
283.174
283.174
283.187
283.186
283.203
283.199
283.221
283.211
283.236
283.221
283.153
283.15
283.152
283.149
283.148
283.145
283.144
283.141
283.141
283.141
283.143
283.144
283.149
283.153
283.159
283.165
283.171
283.179
283.182
283.192
283.154
283.152
283.159
283.158
283.162
283.159
283.162
283.16
283.162
283.162
283.165
283.167
283.172
283.177
283.183
283.189
283.195
283.203
283.207
283.215
283.153
283.15
283.152
283.149
283.148
283.145
283.144
283.141
283.141
283.141
283.142
283.144
283.148
283.153
283.159
283.165
283.171
283.178
283.184
283.188
283.154
283.152
283.159
283.158
283.162
283.16
283.163
283.162
283.166
283.167
283.173
283.176
283.184
283.19
283.199
283.205
283.214
283.22
283.227
283.231
283.153
283.15
283.153
283.15
283.152
283.15
283.152
283.152
283.155
283.158
283.163
283.168
283.175
283.181
283.188
283.194
283.199
283.202
283.205
283.204
283.154
283.154
283.165
283.166
283.176
283.175
283.184
283.184
283.193
283.193
283.2
283.199
283.203
283.201
283.204
283.202
283.204
283.202
283.203
283.202
283.206
283.204
283.265
283.244
283.285
283.257
283.287
283.261
283.286
283.263
283.284
283.265
283.283
283.264
283.284
283.259
283.292
283.231
283.363
283.019
283.173
283.15
283.179
283.166
283.186
283.176
283.188
283.181
283.188
283.184
283.194
283.189
283.203
283.194
283.218
283.19
283.243
283.162
283.298
283.072
283.21
283.196
283.252
283.227
283.264
283.242
283.269
283.25
283.271
283.254
283.274
283.259
283.28
283.265
283.29
283.269
283.305
283.268
283.322
283.262
283.173
283.147
283.174
283.157
283.172
283.159
283.166
283.158
283.16
283.155
283.158
283.155
283.16
283.159
283.168
283.167
283.177
283.177
283.186
283.187
283.209
283.196
283.253
283.227
283.261
283.237
283.26
283.239
283.256
283.239
283.253
283.239
283.252
283.243
283.255
283.25
283.261
283.258
283.266
283.273
283.173
283.147
283.174
283.157
283.171
283.159
283.166
283.158
283.16
283.155
283.157
283.155
283.159
283.161
283.166
283.17
283.175
283.18
283.183
283.19
283.21
283.196
283.252
283.227
283.264
283.242
283.269
283.25
283.271
283.255
283.272
283.261
283.277
283.269
283.284
283.279
283.291
283.287
283.296
283.296
283.173
283.15
283.179
283.166
283.186
283.176
283.188
283.181
283.188
283.185
283.192
283.192
283.2
283.201
283.207
283.208
283.213
283.212
283.215
283.213
283.206
283.204
283.265
283.244
283.285
283.257
283.287
283.261
283.286
283.264
283.284
283.265
283.282
283.266
283.279
283.266
283.276
283.265
283.273
283.26
282.922
282.986
282.993
283.035
283.016
283.042
283.024
283.045
283.031
283.048
283.038
283.052
283.044
283.054
283.05
283.054
283.059
283.046
283.083
282.982
282.891
282.902
282.903
282.941
282.937
282.959
282.954
282.966
282.965
282.974
282.976
282.982
282.987
282.988
283
282.987
283.022
282.963
283.083
282.864
282.855
282.835
282.778
282.805
282.768
282.79
282.763
282.782
282.762
282.779
282.768
282.783
282.779
282.79
282.797
282.798
282.821
282.798
282.852
282.782
282.889
282.876
282.844
282.855
282.835
282.84
282.827
282.829
282.823
282.824
282.822
282.824
282.825
282.828
282.834
282.837
282.848
282.847
282.863
282.856
282.856
282.832
282.768
282.786
282.743
282.758
282.726
282.739
282.715
282.727
282.711
282.723
282.713
282.726
282.722
282.735
282.734
282.748
282.75
282.756
282.889
282.876
282.844
282.855
282.835
282.84
282.827
282.829
282.823
282.825
282.821
282.825
282.824
282.83
282.832
282.839
282.844
282.851
282.858
282.86
282.855
282.835
282.778
282.805
282.768
282.79
282.763
282.782
282.762
282.78
282.766
282.784
282.777
282.794
282.791
282.807
282.806
282.82
282.821
282.823
282.891
282.902
282.903
282.941
282.937
282.959
282.953
282.967
282.965
282.975
282.975
282.984
282.984
282.992
282.993
282.999
283
283.004
283.006
283.004
282.922
282.986
282.993
283.035
283.016
283.042
283.024
283.045
283.031
283.049
283.038
283.052
283.043
283.055
283.048
283.058
283.052
283.06
283.055
283.063
284.687
285.998
286.869
287.581
288.162
288.687
289.144
289.576
289.97
290.348
290.698
291.034
291.349
291.653
291.942
292.222
292.489
292.746
292.99
293.226
293.451
293.667
293.872
294.068
294.252
294.425
294.587
294.737
294.875
295.001
295.113
295.212
295.299
295.374
295.437
295.49
295.532
295.566
295.592
295.611
295.625
295.635
295.642
295.646
295.649
295.651
295.652
295.652
295.652
295.653
295.653
295.653
295.653
295.653
295.653
295.653
295.653
295.653
295.653
295.653
295.653
295.653
295.653
295.653
295.653
295.653
295.653
295.653
295.654
295.654
295.654
295.654
295.654
295.654
295.654
295.654
295.654
295.654
295.654
295.654
295.654
295.654
295.653
295.654
295.653
295.653
295.652
295.652
295.649
295.649
283.738
284.85
285.665
286.342
286.908
287.417
287.867
288.289
288.676
289.047
289.394
289.725
290.037
290.338
290.624
290.9
291.165
291.419
291.662
291.895
292.119
292.333
292.538
292.732
292.917
293.09
293.253
293.404
293.544
293.671
293.786
293.888
293.978
294.056
294.122
294.178
294.224
294.26
294.289
294.311
294.327
294.338
294.346
294.351
294.354
294.356
294.357
294.358
294.358
294.359
294.359
294.359
294.359
294.359
294.359
294.359
294.359
294.359
294.359
294.359
294.359
294.359
294.359
294.359
294.359
294.359
294.359
294.359
294.359
294.359
294.359
294.359
294.359
294.359
294.359
294.359
294.359
294.359
294.359
294.359
294.359
294.359
294.358
294.359
294.358
294.358
294.357
294.357
294.354
294.354
283.029
283.68
284.275
284.84
285.334
285.8
286.213
286.606
286.966
287.317
287.646
287.965
288.264
288.553
288.826
289.092
289.347
289.593
289.828
290.054
290.269
290.477
290.676
290.866
291.046
291.217
291.377
291.528
291.667
291.796
291.913
292.019
292.113
292.195
292.266
292.327
292.378
292.419
292.453
292.478
292.498
292.512
292.522
292.529
292.534
292.537
292.538
292.539
292.54
292.54
292.54
292.54
292.54
292.54
292.54
292.54
292.54
292.54
292.54
292.54
292.54
292.54
292.54
292.54
292.54
292.54
292.54
292.54
292.54
292.54
292.54
292.54
292.54
292.54
292.54
292.54
292.539
292.539
292.539
292.539
292.539
292.539
292.538
292.538
292.537
292.538
292.536
292.537
292.533
292.531
282.893
283.164
283.502
283.882
284.255
284.627
284.971
285.302
285.613
285.919
286.213
286.499
286.77
287.031
287.28
287.521
287.755
287.981
288.197
288.405
288.604
288.795
288.979
289.156
289.324
289.484
289.635
289.777
289.909
290.033
290.147
290.25
290.343
290.426
290.498
290.561
290.614
290.658
290.694
290.723
290.745
290.762
290.774
290.782
290.788
290.791
290.794
290.795
290.796
290.796
290.796
290.796
290.796
290.796
290.796
290.796
290.796
290.796
290.796
290.796
290.796
290.796
290.796
290.796
290.796
290.796
290.796
290.796
290.796
290.796
290.796
290.796
290.796
290.796
290.796
290.796
290.796
290.796
290.796
290.796
290.795
290.795
290.795
290.795
290.795
290.795
290.794
290.794
290.792
290.791
282.784
282.909
283.061
283.288
283.532
283.804
284.062
284.322
284.568
284.818
285.061
285.304
285.534
285.756
285.968
286.176
286.376
286.572
286.759
286.94
287.112
287.278
287.438
287.592
287.74
287.88
288.012
288.138
288.256
288.366
288.468
288.562
288.647
288.723
288.79
288.848
288.899
288.941
288.976
289.005
289.027
289.043
289.055
289.064
289.07
289.074
289.076
289.077
289.078
289.079
289.079
289.079
289.079
289.079
289.079
289.079
289.079
289.079
289.079
289.079
289.079
289.079
289.079
289.079
289.079
289.079
289.079
289.079
289.079
289.079
289.079
289.079
289.079
289.079
289.079
289.079
289.079
289.079
289.079
289.079
289.079
289.079
289.078
289.078
289.077
289.077
289.076
289.076
289.076
289.076
282.88
282.933
282.997
283.115
283.26
283.435
283.611
283.792
283.97
284.155
284.34
284.525
284.703
284.875
285.04
285.203
285.361
285.516
285.664
285.806
285.943
286.074
286.202
286.324
286.442
286.554
286.66
286.76
286.855
286.944
287.027
287.103
287.173
287.235
287.29
287.338
287.38
287.416
287.445
287.469
287.488
287.502
287.512
287.52
287.525
287.528
287.53
287.531
287.532
287.532
287.533
287.533
287.533
287.533
287.533
287.533
287.533
287.533
287.533
287.533
287.533
287.533
287.533
287.533
287.533
287.533
287.533
287.533
287.533
287.533
287.533
287.533
287.534
287.534
287.534
287.534
287.534
287.534
287.534
287.534
287.534
287.534
287.533
287.534
287.533
287.533
287.533
287.532
287.534
287.535
282.862
282.91
282.93
282.999
283.077
283.186
283.29
283.407
283.52
283.645
283.768
283.894
284.014
284.132
284.244
284.356
284.464
284.571
284.673
284.771
284.865
284.956
285.044
285.129
285.21
285.287
285.36
285.43
285.496
285.558
285.615
285.668
285.716
285.759
285.797
285.831
285.86
285.885
285.906
285.922
285.935
285.945
285.952
285.957
285.961
285.963
285.964
285.965
285.966
285.966
285.966
285.966
285.967
285.967
285.967
285.967
285.967
285.967
285.967
285.967
285.967
285.967
285.967
285.967
285.967
285.967
285.967
285.967
285.967
285.968
285.968
285.968
285.968
285.968
285.968
285.968
285.968
285.968
285.968
285.968
285.968
285.968
285.967
285.967
285.967
285.967
285.966
285.965
285.968
285.969
283.018
283.036
283.044
283.074
283.111
283.162
283.212
283.269
283.326
283.39
283.453
283.518
283.58
283.64
283.699
283.757
283.814
283.87
283.923
283.974
284.023
284.071
284.117
284.162
284.204
284.244
284.283
284.319
284.354
284.386
284.416
284.444
284.469
284.491
284.511
284.529
284.544
284.557
284.567
284.576
284.582
284.587
284.591
284.593
284.595
284.596
284.597
284.597
284.598
284.598
284.598
284.598
284.598
284.598
284.598
284.598
284.598
284.598
284.598
284.598
284.598
284.598
284.598
284.598
284.598
284.599
284.599
284.599
284.599
284.599
284.599
284.599
284.599
284.599
284.599
284.599
284.599
284.599
284.599
284.599
284.599
284.599
284.599
284.599
284.599
284.599
284.599
284.598
284.6
284.601
283.066
283.076
283.075
283.089
283.098
283.116
283.129
283.148
283.165
283.185
283.203
283.223
283.242
283.26
283.278
283.295
283.312
283.329
283.345
283.36
283.375
283.389
283.403
283.416
283.429
283.441
283.452
283.463
283.474
283.483
283.492
283.5
283.508
283.514
283.52
283.525
283.53
283.534
283.537
283.539
283.541
283.542
283.543
283.544
283.545
283.545
283.545
283.545
283.545
283.545
283.545
283.545
283.545
283.545
283.546
283.546
283.546
283.546
283.546
283.546
283.546
283.546
283.546
283.546
283.546
283.546
283.546
283.546
283.546
283.546
283.546
283.546
283.546
283.546
283.546
283.546
283.546
283.546
283.546
283.546
283.546
283.546
283.545
283.545
283.545
283.545
283.545
283.545
283.545
283.545
285.189
286.655
287.583
288.28
288.881
289.391
289.859
290.28
290.681
291.051
291.406
291.736
292.054
292.356
292.647
292.925
293.193
293.449
293.695
293.931
294.157
294.373
294.58
294.776
294.961
295.135
295.298
295.448
295.587
295.712
295.825
295.924
296.011
296.085
296.148
296.201
296.243
296.276
296.302
296.321
296.335
296.344
296.351
296.355
296.357
296.359
296.36
296.36
296.36
296.361
296.361
296.361
296.361
296.361
296.361
296.361
296.361
296.361
296.361
296.361
296.361
296.361
296.361
296.361
296.361
296.361
296.362
296.362
296.362
296.362
296.362
296.362
296.362
296.363
296.363
296.363
296.363
296.363
296.364
296.364
296.364
296.365
296.365
296.365
296.366
296.366
296.368
296.367
296.374
296.377
283.87
284.945
285.77
286.435
287.012
287.514
287.971
288.387
288.778
289.145
289.495
289.825
290.139
290.438
290.726
291.003
291.269
291.524
291.768
292.003
292.228
292.443
292.65
292.846
293.032
293.207
293.372
293.525
293.666
293.795
293.912
294.016
294.108
294.187
294.255
294.312
294.359
294.397
294.426
294.449
294.465
294.477
294.485
294.491
294.494
294.496
294.497
294.498
294.498
294.498
294.498
294.498
294.498
294.498
294.498
294.498
294.498
294.498
294.498
294.498
294.498
294.498
294.498
294.498
294.499
294.499
294.499
294.499
294.499
294.499
294.499
294.499
294.499
294.499
294.499
294.5
294.5
294.5
294.5
294.5
294.5
294.501
294.501
294.501
294.502
294.502
294.502
294.502
294.507
294.509
283.405
283.923
284.501
285.024
285.521
285.965
286.382
286.761
287.124
287.466
287.798
288.111
288.412
288.697
288.973
289.237
289.493
289.739
289.976
290.202
290.419
290.628
290.829
291.02
291.203
291.375
291.538
291.69
291.832
291.963
292.082
292.19
292.286
292.371
292.444
292.507
292.559
292.602
292.637
292.664
292.684
292.7
292.71
292.717
292.722
292.725
292.727
292.728
292.728
292.729
292.729
292.729
292.729
292.729
292.729
292.729
292.729
292.729
292.728
292.728
292.728
292.728
292.728
292.728
292.728
292.729
292.729
292.729
292.729
292.729
292.729
292.729
292.729
292.729
292.729
292.729
292.73
292.73
292.73
292.73
292.73
292.73
292.731
292.731
292.732
292.732
292.733
292.733
292.736
292.738
283.191
283.371
283.669
284.007
284.368
284.72
285.062
285.382
285.692
285.992
286.286
286.57
286.843
287.103
287.353
287.595
287.83
288.057
288.276
288.485
288.686
288.879
289.066
289.244
289.415
289.577
289.731
289.875
290.01
290.137
290.253
290.359
290.455
290.54
290.614
290.679
290.734
290.781
290.819
290.849
290.872
290.89
290.902
290.911
290.917
290.921
290.923
290.925
290.926
290.926
290.926
290.926
290.926
290.926
290.926
290.926
290.926
290.926
290.926
290.926
290.926
290.926
290.926
290.926
290.926
290.926
290.926
290.926
290.926
290.926
290.926
290.926
290.926
290.926
290.926
290.926
290.926
290.926
290.927
290.927
290.927
290.927
290.927
290.927
290.928
290.928
290.928
290.929
290.93
290.931
283.25
283.267
283.392
283.563
283.792
284.03
284.282
284.522
284.765
285.002
285.245
285.48
285.711
285.931
286.143
286.349
286.551
286.747
286.936
287.117
287.292
287.459
287.621
287.777
287.927
288.069
288.204
288.331
288.452
288.565
288.67
288.766
288.853
288.931
289.001
289.061
289.114
289.158
289.195
289.225
289.248
289.266
289.279
289.288
289.294
289.298
289.301
289.302
289.303
289.303
289.304
289.304
289.304
289.304
289.304
289.304
289.303
289.303
289.303
289.303
289.303
289.303
289.303
289.303
289.303
289.303
289.303
289.304
289.304
289.304
289.304
289.304
289.304
289.304
289.304
289.304
289.304
289.304
289.305
289.305
289.305
289.305
289.306
289.306
289.307
289.307
289.308
289.308
289.308
289.309
283.186
283.175
283.216
283.297
283.428
283.579
283.747
283.914
284.087
284.264
284.447
284.629
284.808
284.98
285.146
285.309
285.469
285.625
285.776
285.92
286.059
286.193
286.323
286.448
286.568
286.683
286.791
286.894
286.992
287.084
287.169
287.248
287.32
287.384
287.442
287.492
287.536
287.573
287.605
287.63
287.65
287.665
287.676
287.684
287.689
287.693
287.695
287.696
287.697
287.698
287.698
287.698
287.698
287.698
287.698
287.698
287.698
287.698
287.698
287.698
287.698
287.698
287.698
287.698
287.698
287.698
287.698
287.698
287.698
287.698
287.698
287.698
287.699
287.699
287.699
287.699
287.699
287.699
287.699
287.699
287.7
287.7
287.7
287.7
287.701
287.701
287.701
287.702
287.701
287.702
283.278
283.243
283.258
283.286
283.36
283.442
283.544
283.644
283.757
283.872
283.997
284.12
284.243
284.36
284.476
284.589
284.702
284.811
284.917
285.018
285.116
285.21
285.302
285.391
285.476
285.557
285.634
285.707
285.776
285.841
285.902
285.958
286.009
286.055
286.096
286.132
286.163
286.19
286.212
286.23
286.244
286.255
286.262
286.268
286.272
286.274
286.276
286.276
286.277
286.277
286.277
286.277
286.278
286.278
286.278
286.278
286.278
286.278
286.278
286.278
286.278
286.278
286.278
286.278
286.278
286.278
286.278
286.278
286.278
286.278
286.278
286.279
286.279
286.279
286.279
286.279
286.279
286.279
286.28
286.28
286.28
286.28
286.281
286.281
286.282
286.282
286.283
286.283
286.282
286.283
283.208
283.191
283.197
283.21
283.248
283.29
283.343
283.397
283.46
283.525
283.596
283.665
283.735
283.801
283.868
283.933
283.997
284.06
284.121
284.179
284.235
284.289
284.342
284.393
284.442
284.488
284.532
284.574
284.614
284.651
284.686
284.718
284.747
284.773
284.797
284.817
284.835
284.85
284.862
284.872
284.88
284.886
284.89
284.893
284.895
284.896
284.897
284.897
284.898
284.898
284.898
284.898
284.898
284.898
284.898
284.898
284.898
284.898
284.898
284.898
284.898
284.898
284.898
284.898
284.898
284.899
284.899
284.899
284.899
284.899
284.899
284.899
284.899
284.899
284.899
284.899
284.9
284.9
284.9
284.9
284.9
284.9
284.901
284.901
284.901
284.901
284.902
284.902
284.9
284.901
283.253
283.236
283.242
283.239
283.253
283.26
283.278
283.291
283.311
283.33
283.352
283.372
283.394
283.414
283.435
283.455
283.475
283.494
283.513
283.531
283.549
283.566
283.583
283.598
283.614
283.628
283.642
283.655
283.668
283.679
283.69
283.7
283.709
283.717
283.724
283.731
283.736
283.741
283.744
283.747
283.75
283.751
283.753
283.754
283.754
283.754
283.755
283.755
283.755
283.755
283.755
283.755
283.755
283.755
283.755
283.755
283.755
283.755
283.755
283.755
283.755
283.755
283.755
283.755
283.755
283.755
283.755
283.755
283.755
283.755
283.755
283.755
283.755
283.756
283.756
283.756
283.756
283.756
283.756
283.756
283.756
283.756
283.757
283.757
283.757
283.757
283.758
283.758
283.757
283.758
285.411
287.183
288.204
288.946
289.568
290.097
290.576
291.009
291.417
291.795
292.154
292.49
292.812
293.118
293.413
293.695
293.966
294.225
294.474
294.712
294.941
295.16
295.369
295.566
295.754
295.929
296.093
296.244
296.383
296.509
296.621
296.72
296.807
296.88
296.943
296.994
297.035
297.067
297.092
297.11
297.124
297.132
297.138
297.142
297.145
297.146
297.147
297.147
297.147
297.147
297.148
297.147
297.148
297.147
297.148
297.147
297.148
297.147
297.148
297.148
297.148
297.148
297.148
297.148
297.148
297.148
297.148
297.148
297.148
297.149
297.149
297.149
297.149
297.149
297.149
297.15
297.15
297.15
297.15
297.15
297.151
297.151
297.152
297.152
297.152
297.152
297.154
297.152
297.16
297.165
283.678
284.795
285.685
286.393
286.998
287.521
287.993
288.421
288.823
289.199
289.557
289.893
290.214
290.519
290.812
291.093
291.364
291.623
291.872
292.111
292.34
292.559
292.769
292.969
293.159
293.337
293.505
293.661
293.805
293.937
294.056
294.162
294.256
294.337
294.406
294.465
294.513
294.551
294.581
294.604
294.621
294.633
294.641
294.647
294.65
294.652
294.654
294.654
294.655
294.655
294.655
294.655
294.655
294.655
294.655
294.655
294.655
294.655
294.655
294.655
294.655
294.655
294.655
294.655
294.655
294.655
294.655
294.655
294.655
294.655
294.655
294.656
294.656
294.656
294.656
294.656
294.656
294.656
294.657
294.657
294.657
294.657
294.658
294.658
294.658
294.658
294.66
294.659
294.664
294.668
283.268
283.693
284.236
284.766
285.272
285.733
286.162
286.554
286.927
287.279
287.619
287.942
288.251
288.544
288.825
289.096
289.358
289.611
289.853
290.085
290.308
290.522
290.727
290.924
291.112
291.289
291.457
291.614
291.76
291.896
292.02
292.132
292.232
292.32
292.397
292.463
292.518
292.564
292.601
292.63
292.651
292.668
292.679
292.687
292.692
292.696
292.698
292.699
292.699
292.7
292.7
292.7
292.7
292.7
292.7
292.699
292.699
292.699
292.699
292.699
292.699
292.699
292.699
292.699
292.699
292.699
292.699
292.699
292.7
292.7
292.7
292.7
292.7
292.7
292.7
292.7
292.7
292.7
292.701
292.701
292.701
292.701
292.702
292.702
292.702
292.702
292.703
292.703
292.705
292.708
283.185
283.29
283.521
283.82
284.161
284.508
284.849
285.173
285.486
285.791
286.091
286.381
286.661
286.928
287.184
287.432
287.673
287.906
288.131
288.347
288.553
288.752
288.944
289.128
289.305
289.473
289.632
289.781
289.922
290.054
290.176
290.287
290.388
290.478
290.557
290.626
290.685
290.735
290.776
290.809
290.835
290.854
290.868
290.878
290.885
290.889
290.892
290.894
290.895
290.895
290.895
290.895
290.895
290.895
290.895
290.895
290.895
290.895
290.895
290.895
290.895
290.895
290.895
290.895
290.895
290.895
290.895
290.895
290.895
290.895
290.895
290.895
290.895
290.895
290.895
290.895
290.895
290.895
290.896
290.896
290.896
290.896
290.896
290.896
290.897
290.897
290.897
290.898
290.899
290.9
283.218
283.219
283.288
283.419
283.613
283.836
284.075
284.31
284.548
284.786
285.029
285.27
285.505
285.73
285.947
286.158
286.365
286.567
286.762
286.949
287.128
287.301
287.468
287.63
287.785
287.933
288.073
288.206
288.331
288.449
288.559
288.661
288.753
288.836
288.91
288.975
289.032
289.08
289.12
289.153
289.179
289.198
289.213
289.224
289.231
289.235
289.238
289.24
289.241
289.242
289.242
289.242
289.242
289.242
289.242
289.242
289.242
289.242
289.242
289.242
289.242
289.242
289.242
289.242
289.242
289.242
289.242
289.242
289.242
289.242
289.242
289.242
289.242
289.242
289.242
289.242
289.242
289.242
289.243
289.243
289.243
289.243
289.243
289.243
289.244
289.244
289.244
289.245
289.245
289.246
283.203
283.191
283.203
283.254
283.356
283.488
283.639
283.796
283.961
284.133
284.314
284.497
284.678
284.852
285.022
285.187
285.351
285.511
285.667
285.815
285.959
286.097
286.23
286.36
286.485
286.603
286.716
286.823
286.925
287.021
287.111
287.194
287.269
287.338
287.399
287.453
287.5
287.54
287.574
287.602
287.624
287.641
287.653
287.662
287.668
287.672
287.675
287.676
287.677
287.678
287.678
287.678
287.678
287.678
287.678
287.678
287.678
287.678
287.678
287.678
287.678
287.678
287.678
287.678
287.678
287.678
287.678
287.678
287.678
287.678
287.678
287.678
287.678
287.678
287.679
287.679
287.679
287.679
287.679
287.679
287.679
287.679
287.68
287.68
287.68
287.68
287.681
287.681
287.681
287.681
283.239
283.217
283.215
283.233
283.288
283.36
283.449
283.543
283.649
283.763
283.886
284.011
284.135
284.255
284.373
284.489
284.605
284.718
284.828
284.933
285.034
285.132
285.227
285.319
285.408
285.492
285.572
285.648
285.721
285.789
285.853
285.912
285.966
286.015
286.058
286.096
286.13
286.158
286.182
286.202
286.217
286.229
286.238
286.244
286.248
286.25
286.252
286.253
286.254
286.254
286.254
286.254
286.254
286.254
286.254
286.254
286.254
286.254
286.254
286.254
286.254
286.254
286.254
286.254
286.255
286.255
286.255
286.255
286.255
286.255
286.255
286.255
286.255
286.255
286.255
286.256
286.256
286.256
286.256
286.256
286.256
286.257
286.257
286.257
286.258
286.258
286.258
286.259
286.258
286.258
283.209
283.196
283.195
283.204
283.234
283.27
283.318
283.368
283.429
283.494
283.566
283.637
283.708
283.777
283.846
283.914
283.982
284.048
284.111
284.172
284.232
284.289
284.345
284.398
284.45
284.499
284.546
284.59
284.632
284.672
284.709
284.743
284.774
284.802
284.827
284.849
284.868
284.884
284.897
284.908
284.916
284.922
284.927
284.93
284.932
284.934
284.935
284.935
284.935
284.935
284.936
284.936
284.936
284.936
284.936
284.936
284.936
284.936
284.936
284.936
284.936
284.936
284.936
284.936
284.936
284.936
284.936
284.936
284.937
284.937
284.937
284.937
284.937
284.937
284.937
284.937
284.937
284.937
284.938
284.938
284.938
284.938
284.938
284.938
284.939
284.939
284.939
284.94
284.938
284.938
283.199
283.19
283.192
283.193
283.204
283.214
283.229
283.245
283.265
283.286
283.309
283.332
283.355
283.377
283.399
283.421
283.444
283.465
283.485
283.505
283.524
283.543
283.561
283.578
283.595
283.611
283.626
283.64
283.654
283.667
283.679
283.69
283.699
283.708
283.716
283.723
283.729
283.734
283.738
283.741
283.744
283.745
283.747
283.748
283.748
283.749
283.749
283.749
283.749
283.749
283.749
283.749
283.749
283.749
283.749
283.749
283.749
283.749
283.749
283.749
283.749
283.749
283.749
283.75
283.75
283.75
283.75
283.75
283.75
283.75
283.75
283.75
283.75
283.75
283.75
283.75
283.75
283.75
283.75
283.75
283.75
283.75
283.751
283.751
283.751
283.751
283.751
283.752
283.75
283.75
285.189
286.655
287.583
288.28
288.881
289.391
289.859
290.28
290.681
291.051
291.406
291.736
292.054
292.356
292.647
292.925
293.193
293.449
293.695
293.931
294.157
294.373
294.58
294.776
294.961
295.135
295.298
295.448
295.587
295.712
295.825
295.924
296.011
296.085
296.148
296.201
296.243
296.276
296.302
296.321
296.335
296.344
296.351
296.355
296.357
296.359
296.36
296.36
296.36
296.361
296.361
296.361
296.361
296.361
296.361
296.361
296.361
296.361
296.361
296.361
296.361
296.361
296.361
296.361
296.361
296.361
296.362
296.362
296.362
296.362
296.362
296.362
296.362
296.363
296.363
296.363
296.363
296.363
296.364
296.364
296.364
296.365
296.365
296.365
296.366
296.366
296.368
296.367
296.374
296.377
283.87
284.945
285.77
286.435
287.012
287.514
287.971
288.387
288.778
289.145
289.495
289.825
290.139
290.438
290.726
291.003
291.269
291.524
291.768
292.003
292.228
292.443
292.65
292.846
293.032
293.207
293.372
293.525
293.666
293.795
293.912
294.016
294.108
294.187
294.255
294.312
294.359
294.397
294.426
294.449
294.465
294.477
294.485
294.491
294.494
294.496
294.497
294.498
294.498
294.498
294.498
294.498
294.498
294.498
294.498
294.498
294.498
294.498
294.498
294.498
294.498
294.498
294.498
294.498
294.499
294.499
294.499
294.499
294.499
294.499
294.499
294.499
294.499
294.499
294.499
294.5
294.5
294.5
294.5
294.5
294.5
294.501
294.501
294.501
294.502
294.502
294.502
294.502
294.507
294.509
283.405
283.923
284.501
285.024
285.521
285.965
286.382
286.761
287.124
287.466
287.798
288.111
288.412
288.697
288.973
289.237
289.493
289.739
289.976
290.202
290.419
290.628
290.829
291.02
291.203
291.375
291.538
291.69
291.832
291.963
292.082
292.19
292.286
292.371
292.444
292.507
292.559
292.602
292.637
292.664
292.684
292.7
292.71
292.717
292.722
292.725
292.727
292.728
292.728
292.729
292.729
292.729
292.729
292.729
292.729
292.729
292.729
292.729
292.728
292.728
292.728
292.728
292.728
292.728
292.728
292.728
292.729
292.729
292.729
292.729
292.729
292.729
292.729
292.729
292.729
292.729
292.73
292.73
292.73
292.73
292.73
292.73
292.731
292.731
292.732
292.732
292.733
292.733
292.736
292.738
283.191
283.371
283.669
284.007
284.368
284.72
285.062
285.382
285.692
285.992
286.286
286.57
286.843
287.103
287.353
287.595
287.83
288.057
288.276
288.485
288.686
288.879
289.066
289.244
289.415
289.577
289.731
289.875
290.01
290.137
290.253
290.359
290.455
290.54
290.614
290.679
290.734
290.781
290.819
290.849
290.872
290.89
290.902
290.911
290.917
290.921
290.923
290.925
290.926
290.926
290.926
290.926
290.926
290.926
290.926
290.926
290.926
290.926
290.926
290.926
290.926
290.926
290.926
290.926
290.926
290.926
290.926
290.926
290.926
290.926
290.926
290.926
290.926
290.926
290.926
290.926
290.926
290.926
290.927
290.927
290.927
290.927
290.927
290.927
290.928
290.928
290.928
290.929
290.93
290.931
283.25
283.267
283.392
283.563
283.792
284.03
284.282
284.522
284.765
285.002
285.245
285.48
285.711
285.931
286.143
286.349
286.551
286.747
286.936
287.117
287.292
287.459
287.621
287.777
287.927
288.069