/*--------------------------------*- C++ -*----------------------------------*\
  =========                 |
  \\      /  F ield         | OpenFOAM: The Open Source CFD Toolbox
   \\    /   O peration     | Website:  https://openfoam.org
    \\  /    A nd           | Version:  7
     \\/     M anipulation  |
\*---------------------------------------------------------------------------*/
FoamFile
{
    version     2.0;
    format      ascii;
    class       volScalarField;
    location    "0.27";
    object      k;
}
// * * * * * * * * * * * * * * * * * * * * * * * * * * * * * * * * * * * * * //

dimensions      [0 2 -2 0 0 0 0];

internalField   nonuniform List<scalar> 
1600
(
4.03957
7.1187
11.6515
7.05198
6.57378
8.35467
6.30586
3.49908
2.06114
2.00586
2.15514
2.52572
2.66905
2.49424
2.44295
2.59385
2.78935
2.88753
2.85795
2.75643
2.45745
2.03446
1.48689
0.924411
0.494418
0.331209
0.392987
0.561907
0.739738
0.445068
0.83496
1.43054
1.69045
1.60282
1.44101
1.24555
0.922181
0.732018
0.591586
0.144514
4.53137
10.8028
10.7571
7.12184
4.58188
4.30861
3.19989
3.25682
3.10962
2.00973
1.76014
1.67333
1.77262
1.8534
1.85672
1.85367
1.91328
1.98373
2.07722
2.30911
2.41514
2.44096
2.38797
2.2242
2.03483
1.80991
1.53603
1.43298
1.58887
0.929141
1.07789
1.58282
1.93005
1.95584
1.90311
1.22147
1.01401
0.702081
0.202329
0.0428765
7.8182
10.8368
8.63661
6.21577
5.51073
4.68002
2.6087
3.16029
3.00358
2.30472
2.15121
2.0451
1.73511
1.4687
1.2807
1.15249
1.06244
1.0239
1.02884
1.05952
1.1249
1.23663
1.43239
1.49219
1.69433
1.61763
1.61131
1.69398
2.06236
1.16664
1.25884
1.50651
1.75018
1.7535
2.81531
2.05185
0.27364
0.327342
0.0582999
0.012647
8.17256
9.53382
8.2007
6.74631
6.99997
3.828
1.70495
3.49478
3.35105
2.71256
1.96384
1.45153
1.15747
1.01275
0.92461
0.84284
0.787618
0.738263
0.707709
0.689747
0.69604
0.7232
0.843535
0.928354
1.01116
1.05901
1.10851
1.13544
1.78368
1.72387
1.29176
1.31182
1.55589
1.87607
2.30891
1.67145
0.526886
0.0944779
0.0100132
0.00125165
12.4455
9.24874
9.72057
5.89122
6.84725
2.41278
1.24496
2.02033
2.2962
1.60395
1.07846
0.882059
0.781549
0.718523
0.712495
0.676671
0.644491
0.604688
0.580554
0.553149
0.536676
0.539327
0.577611
0.699695
0.749013
0.764784
0.807618
0.824002
1.13626
1.26527
1.15358
1.2261
1.8227
1.82652
1.88469
1.42551
0.568735
0.0582558
0.00373325
0.000466656
10.5358
8.51056
7.68299
5.82792
5.62105
2.2066
1.13748
1.17981
1.04617
0.919334
0.777038
0.704999
0.636023
0.628797
0.589827
0.549086
0.512885
0.485425
0.463423
0.443015
0.433012
0.432089
0.451686
0.514193
0.602434
0.691896
0.677962
0.703463
0.808133
0.903077
0.970107
1.07198
2.03649
2.11271
2.06824
1.33286
0.549064
0.0534417
0.0041242
0.000515525
7.23663
4.48795
3.18953
2.72486
2.97347
1.55621
1.05112
0.919129
0.8426
0.757179
0.683707
0.634644
0.582839
0.526017
0.481171
0.44796
0.421351
0.40109
0.385204
0.37044
0.359586
0.360285
0.365146
0.405782
0.44989
0.57873
0.64027
0.685938
0.687851
0.8406
0.911895
1.00267
1.50787
2.29224
1.93871
1.33263
0.50977
0.064604
0.00636443
0.00173441
5.82968
3.78361
1.95532
1.86814
1.65675
1.15367
0.925093
0.836137
0.770083
0.688268
0.621847
0.554585
0.498485
0.455417
0.421547
0.394294
0.372246
0.353987
0.339878
0.32868
0.316904
0.313873
0.31506
0.331351
0.368226
0.433732
0.530681
0.571521
0.627485
0.778843
0.93806
0.97989
1.26714
2.01402
2.01987
1.50328
0.744687
0.102275
0.014896
0.00751084
4.8247
3.36446
2.35844
2.0392
1.44562
1.12349
0.924213
0.797471
0.712326
0.639322
0.568413
0.50872
0.460897
0.423291
0.393489
0.369269
0.348967
0.332079
0.317414
0.306067
0.295941
0.286276
0.285044
0.289185
0.312633
0.350148
0.446368
0.504279
0.593917
0.712097
0.880209
0.896753
1.00049
1.45825
1.62001
1.37541
0.885533
0.220618
0.0853792
0.0478397
3.66964
2.94616
2.83599
2.17484
1.60605
1.2322
0.918637
0.76541
0.673118
0.594306
0.530103
0.47611
0.433303
0.4004
0.374326
0.352925
0.33461
0.319361
0.306379
0.294811
0.286407
0.276311
0.267599
0.267444
0.277917
0.302509
0.365423
0.461736
0.5887
0.673962
0.927334
0.942928
0.938146
1.19059
1.2384
1.06462
0.797138
0.318876
0.250361
0.131979
2.79238
2.89004
2.82454
2.25922
1.83745
1.33194
0.925822
0.750916
0.650117
0.567968
0.500336
0.446672
0.405885
0.375082
0.350407
0.329856
0.31336
0.300653
0.29068
0.282562
0.276825
0.270483
0.261312
0.255932
0.259592
0.274233
0.312902
0.395474
0.610967
0.700602
0.865177
1.00061
0.907231
1.06627
1.05262
0.834844
0.627687
0.375491
0.430987
0.319193
1.55595
2.3224
2.48179
2.24863
1.82455
1.25789
0.924274
0.736589
0.621913
0.529951
0.46086
0.407685
0.367472
0.336467
0.312257
0.293643
0.282259
0.273538
0.269924
0.262097
0.258806
0.256967
0.252962
0.24992
0.252427
0.260048
0.284163
0.342883
0.597947
0.616556
0.77723
0.918557
0.977472
1.00046
0.922843
0.683031
0.59887
0.485569
0.615972
0.52665
0.618275
1.25991
2.36362
2.29765
1.61571
1.16595
0.876569
0.713914
0.588013
0.490409
0.418252
0.360853
0.319986
0.285951
0.269787
0.264929
0.265246
0.26168
0.256081
0.253301
0.249793
0.247567
0.243243
0.240452
0.243594
0.251023
0.26766
0.306984
0.510658
0.571229
0.621006
0.700431
0.902656
0.894072
0.781125
0.601019
0.541843
0.512143
0.734023
0.693461
0.729867
1.66901
2.71539
2.1945
1.41563
0.988992
0.82398
0.682534
0.545199
0.440708
0.361395
0.299141
0.263523
0.249716
0.258152
0.265729
0.281377
0.270786
0.255032
0.240235
0.239705
0.238657
0.237741
0.235371
0.232559
0.239447
0.254584
0.285585
0.41713
0.645357
0.613253
0.795446
0.891487
0.817443
0.660024
0.550293
0.506756
0.524304
0.790929
0.795476
0.912555
2.30269
2.49743
1.84749
1.22794
0.932488
0.795976
0.652022
0.495123
0.380658
0.294568
0.25248
0.247617
0.244915
0.275683
0.293993
0.304609
0.315831
0.296211
0.26947
0.255272
0.245142
0.236838
0.233724
0.230255
0.2352
0.245167
0.267863
0.358826
0.61053
0.615503
0.693172
0.837225
0.736406
0.568673
0.503523
0.49619
0.542035
0.827341
0.864138
0.825299
2.36342
2.10034
1.52707
1.11867
0.879777
0.753439
0.601714
0.432145
0.31315
0.253482
0.246085
0.250691
0.263292
0.313254
0.316663
0.503873
0.454256
0.336903
0.313064
0.28046
0.253005
0.240798
0.237138
0.229486
0.23174
0.237685
0.255864
0.322707
0.53341
0.674144
0.755334
0.808302
0.666541
0.511321
0.474204
0.483032
0.560116
0.866898
0.892292
1.27906
2.69023
2.1693
1.41287
1.05443
0.81759
0.694542
0.539649
0.363812
0.263479
0.247764
0.257057
0.27283
0.294638
0.392026
0.478505
0.888608
0.843694
0.806344
0.649838
0.253874
0.258135
0.246432
0.239701
0.229264
0.228798
0.231871
0.244744
0.29724
0.464251
0.649187
0.756823
0.756247
0.602162
0.473797
0.449679
0.490897
0.582526
0.878135
0.902377
2.00148
2.90694
2.01989
1.16157
0.982631
0.668125
0.672811
0.465307
0.301339
0.248132
0.25502
0.273495
0.292071
0.322751
0.462419
0.693947
1.58897
1.02087
1.20878
1.25607
0.871426
0.402978
0.26137
0.23807
0.228223
0.227418
0.228605
0.238271
0.280165
0.414531
0.593431
0.699423
0.682518
0.545225
0.441654
0.448119
0.512118
0.606575
0.940215
0.931502
2.48662
3.01135
1.70957
0.931027
0.876707
0.615579
0.524004
0.37891
0.25786
0.247377
0.266621
0.289439
0.282049
0.312801
0.51799
0.739679
1.56606
1.37499
1.00263
0.829623
0.911608
0.616668
0.265217
0.228329
0.223095
0.219111
0.221262
0.229917
0.266236
0.379546
0.533198
0.620701
0.601242
0.492916
0.435789
0.456505
0.5412
0.635378
0.962289
0.953212
2.76293
2.93524
1.49613
0.847098
0.942536
0.596816
0.431738
0.311542
0.234977
0.259097
0.281534
0.277609
0.252538
0.289356
0.525581
0.754915
1.45869
1.27807
1.21019
1.09704
0.811518
0.853544
0.330502
0.222808
0.216995
0.214289
0.21633
0.220478
0.256717
0.350946
0.474825
0.536857
0.523478
0.458174
0.43393
0.477626
0.574639
0.696556
0.981424
0.937917
2.86401
2.71048
1.24251
0.828724
0.7016
0.355079
0.456591
0.270062
0.227448
0.262784
0.290074
0.26398
0.247803
0.257903
0.326151
0.582237
0.992808
1.32099
1.10468
0.81262
0.993247
0.901622
0.346905
0.212862
0.209372
0.208474
0.212102
0.217995
0.248883
0.324178
0.414571
0.462143
0.46044
0.433446
0.445358
0.51168
0.606748
0.742645
1.04489
0.834376
2.9535
2.51755
1.10553
0.865663
0.458205
0.32543
0.243446
0.243409
0.2278
0.26151
0.289118
0.274709
0.253586
0.246426
0.255143
0.250728
0.427314
0.76714
1.17692
0.925968
1.071
0.792761
0.294206
0.219507
0.203277
0.203056
0.203917
0.212246
0.240388
0.295981
0.360145
0.400286
0.414108
0.42001
0.461611
0.542262
0.643203
0.889575
1.0216
0.415274
3.03208
2.31798
1.10114
0.615119
0.28293
0.320631
0.199504
0.209152
0.229071
0.263577
0.296999
0.311057
0.26548
0.243595
0.24549
0.250024
0.314941
0.391443
0.50504
0.632298
0.673994
0.461291
0.213822
0.214511
0.201425
0.20379
0.197955
0.205118
0.231226
0.272119
0.319365
0.356474
0.384498
0.415565
0.472887
0.561645
0.712688
0.838207
0.742434
0.102097
2.76598
2.22815
1.19152
0.654939
0.274304
0.19999
0.200253
0.216252
0.228963
0.261746
0.299212
0.298005
0.302549
0.2575
0.244873
0.243895
0.277439
0.327236
0.338228
0.370055
0.350726
0.296864
0.205473
0.212492
0.195813
0.191316
0.189196
0.200168
0.222729
0.250564
0.289288
0.327354
0.373818
0.418319
0.482432
0.575908
0.67935
0.689696
0.333418
0.0273792
2.25928
2.33936
1.16647
0.734584
0.297246
0.208324
0.196655
0.199691
0.224288
0.247145
0.285061
0.313217
0.276521
0.262682
0.259553
0.246695
0.256275
0.262862
0.279332
0.298496
0.285579
0.264828
0.222183
0.221228
0.194424
0.187442
0.19176
0.195158
0.215225
0.235739
0.269663
0.306888
0.374034
0.420532
0.487054
0.56168
0.600752
0.487369
0.138858
0.0105668
1.83036
2.24046
1.16468
0.683446
0.398957
0.230281
0.199263
0.194202
0.219274
0.232934
0.266506
0.299746
0.306476
0.279865
0.260831
0.254136
0.267946
0.272569
0.290363
0.281752
0.27572
0.256228
0.229455
0.21993
0.188945
0.186913
0.194682
0.195746
0.209109
0.225797
0.257132
0.311093
0.371298
0.420173
0.486836
0.517372
0.497763
0.368177
0.0825274
0.00538204
1.69959
2.2163
1.41227
0.907905
0.370322
0.25943
0.216371
0.193396
0.203583
0.217865
0.243992
0.271275
0.279431
0.289276
0.26419
0.265488
0.25485
0.263302
0.278084
0.25946
0.257426
0.247906
0.227299
0.224419
0.197192
0.19321
0.195336
0.194863
0.204301
0.224767
0.250812
0.31268
0.368463
0.417792
0.462708
0.472803
0.439966
0.287121
0.0637247
0.00584148
1.94755
2.12753
1.58066
1.25753
0.459309
0.305774
0.226137
0.195784
0.192051
0.207822
0.226217
0.245953
0.261376
0.247249
0.245124
0.246891
0.255751
0.263215
0.277298
0.251105
0.251675
0.249977
0.223137
0.217534
0.20713
0.196237
0.203361
0.200965
0.203703
0.223129
0.25466
0.299161
0.359056
0.409272
0.452696
0.445815
0.435023
0.251384
0.0622679
0.00429209
2.15502
2.00253
2.00545
1.96565
0.841581
0.378717
0.24444
0.218533
0.193343
0.195386
0.208599
0.225417
0.233906
0.230055
0.234205
0.238191
0.261009
0.25388
0.259924
0.273882
0.258479
0.262882
0.241345
0.237483
0.21794
0.206979
0.204612
0.199829
0.203894
0.223987
0.251438
0.300541
0.348961
0.401741
0.446473
0.444894
0.405741
0.200553
0.0663694
0.0100694
1.50613
3.71985
2.79178
3.39633
1.40568
0.49074
0.310342
0.233407
0.205949
0.197729
0.202598
0.21171
0.215743
0.210781
0.223348
0.217111
0.242445
0.254542
0.260451
0.25512
0.258077
0.266153
0.246522
0.238553
0.219369
0.213046
0.206345
0.20317
0.21142
0.227385
0.252178
0.29903
0.342837
0.392414
0.432069
0.430444
0.390218
0.215566
0.0903362
0.0293414
1.51127
3.39331
3.142
3.7313
2.59872
0.718452
0.390957
0.292456
0.224536
0.208906
0.204641
0.205185
0.205847
0.201521
0.210301
0.206641
0.221149
0.227991
0.233696
0.240377
0.244051
0.250333
0.237654
0.233015
0.222181
0.215569
0.211833
0.218197
0.223482
0.235734
0.255304
0.295735
0.33862
0.381158
0.416545
0.416785
0.359947
0.260088
0.136164
0.0866239
3.03923
4.37069
3.5407
3.57379
4.30266
1.07756
0.50243
0.34454
0.258798
0.225076
0.220919
0.210889
0.21022
0.205994
0.208966
0.204226
0.212594
0.214184
0.218544
0.219873
0.224211
0.226928
0.225891
0.225921
0.223714
0.22415
0.225626
0.230187
0.2358
0.247114
0.262449
0.298192
0.337923
0.372918
0.403036
0.398777
0.358478
0.276773
0.202646
0.151064
4.58298
3.38281
3.15648
3.11007
2.39638
1.06382
0.541536
0.454839
0.32143
0.27088
0.251882
0.231656
0.229255
0.227227
0.218478
0.210527
0.206589
0.206777
0.208766
0.213202
0.217695
0.221618
0.224183
0.226571
0.229243
0.231938
0.238088
0.242332
0.251925
0.266041
0.28046
0.314605
0.340784
0.361515
0.38917
0.378737
0.35178
0.286471
0.264892
0.244761
5.3602
3.66429
2.49811
2.10233
1.50701
0.967149
0.866729
0.79302
0.47491
0.442218
0.325592
0.292097
0.256136
0.256994
0.234974
0.241874
0.237128
0.23551
0.225938
0.225127
0.229696
0.243813
0.241706
0.243043
0.240035
0.24443
0.259419
0.265172
0.286918
0.298235
0.310387
0.333162
0.34451
0.358792
0.378354
0.375935
0.362042
0.301226
0.284183
0.281331
5.11402
4.0914
4.37949
4.49257
2.87332
1.59691
1.62135
1.57963
1.21733
1.00096
0.670376
0.455801
0.348367
0.330007
0.261082
0.266243
0.257305
0.257888
0.259149
0.261561
0.26462
0.268991
0.273078
0.277475
0.282085
0.288605
0.298478
0.307243
0.325216
0.337043
0.353371
0.36229
0.36429
0.36701
0.381074
0.385857
0.369692
0.334472
0.317492
0.30999
8.63224
6.19618
5.72186
6.97851
5.19231
2.68279
2.72069
2.99364
3.46109
2.69296
1.90849
0.89569
0.640074
0.512968
0.358535
0.353025
0.299058
0.295061
0.284425
0.28842
0.292351
0.298198
0.305084
0.313278
0.322659
0.333822
0.347156
0.362024
0.380892
0.393947
0.393777
0.397116
0.392002
0.386642
0.394082
0.397135
0.394178
0.397693
0.368546
0.351859
14.3818
6.62347
11.4107
8.65922
5.76254
3.32532
3.1413
3.67322
4.45427
5.42404
4.38916
2.11745
1.43203
1.05023
0.629765
0.559847
0.455402
0.410096
0.364751
0.347526
0.34304
0.353671
0.359863
0.372027
0.385511
0.40048
0.415441
0.432578
0.455534
0.481946
0.494754
0.47267
0.441847
0.408981
0.400013
0.392772
0.390454
0.384922
0.408975
0.377623
13.064
8.97958
8.64194
9.52282
10.8775
5.92106
3.66496
4.85015
5.10545
5.21904
4.19468
2.07395
1.89841
1.90087
1.38486
1.18018
0.982086
0.780129
0.658113
0.561573
0.501639
0.471408
0.46412
0.484793
0.486326
0.501509
0.517567
0.545125
0.577964
0.604886
0.579669
0.500098
0.455304
0.418162
0.394311
0.416974
0.403149
0.432547
0.417973
0.423078
9.01939
7.59531
7.30721
5.42008
8.1791
6.41288
5.65263
6.28725
7.22977
5.87532
2.61718
1.50298
1.47146
1.79087
1.71764
1.73736
1.79088
1.76096
1.65341
1.41694
1.2045
1.00573
0.844195
0.746817
0.672617
0.668828
0.710803
0.637797
0.566244
0.549155
0.504022
0.479807
0.476916
0.477207
0.511512
0.485942
0.487152
0.520026
0.577251
0.645452
3.70345
5.30952
4.4364
4.22721
5.86512
7.40078
9.0987
8.90551
8.02389
4.22574
0.880568
0.658961
0.70779
0.859671
0.788994
1.02451
1.5316
2.05707
2.44848
2.59607
2.62839
2.49748
2.23811
1.85105
1.46639
1.14291
0.882048
0.664434
0.492329
0.350942
0.321128
0.364174
0.421705
0.476731
0.565963
0.672489
0.820323
0.961092
1.13334
1.11252
)
;

boundaryField
{
    upperWall
    {
        type            fixedValue;
        value           uniform 0;
    }
    lowerWall
    {
        type            fixedValue;
        value           uniform 0;
    }
    inlet
    {
        type            fixedValue;
        value           uniform 2e-05;
    }
    outlet
    {
        type            inletOutlet;
        inletValue      uniform 0;
        value           nonuniform List<scalar> 
40
(
0
0
0
0
0
0
0
0
0
0.131979
0.319193
0.52665
0.693461
0.795476
0.864138
0.892292
0.902377
0.931502
0.953212
0.937917
0
0
0
0
0
0
0
0
0
0
0.0866239
0.151064
0.244761
0.281331
0.30999
0.351859
0.377623
0.423078
0.645452
1.11252
)
;
    }
    frontAndBack
    {
        type            empty;
    }
}


// ************************************************************************* //
