/*--------------------------------*- C++ -*----------------------------------*\
  =========                 |
  \\      /  F ield         | OpenFOAM: The Open Source CFD Toolbox
   \\    /   O peration     | Website:  https://openfoam.org
    \\  /    A nd           | Version:  7
     \\/     M anipulation  |
\*---------------------------------------------------------------------------*/
FoamFile
{
    version     2.0;
    format      ascii;
    class       surfaceScalarField;
    location    "7.9";
    object      phi_0;
}
// * * * * * * * * * * * * * * * * * * * * * * * * * * * * * * * * * * * * * //

dimensions      [1 0 -1 0 0 0 0];

internalField   nonuniform List<scalar> 
21708
(
-7.37748e-05
-0.000846369
0.00329177
0.000414413
-0.0021012
0.00161319
0.000309182
-0.00251664
0.00262195
0.000379736
-0.00225936
0.0021887
0.000378834
-0.00246774
0.00246856
0.000401088
-0.00236247
0.00234028
0.000407054
-0.00243656
0.00243067
0.000417671
-0.00239739
0.00238676
0.00042461
-0.00242365
0.00241665
0.00043306
-0.00240727
0.0023988
0.000441935
-0.0024139
0.00240506
0.000452858
-0.00240659
0.0023957
0.000467141
-0.00240174
0.00238744
0.000485819
-0.0023994
0.0023807
0.000513316
-0.00238055
0.00235306
0.000551036
-0.00238506
0.00234736
0.000609115
-0.00233385
0.00227577
0.000693533
-0.00235846
0.00227403
0.000781324
-0.00217505
0.00208725
-0.00209458
0.00210566
0.00077025
0.00103962
0.000779115
-0.000306963
0.0013778
-7.6869e-05
-0.00236264
0.00108396
-0.000983695
-0.001239
0.00125102
-0.00068999
-0.00173632
0.00118415
-0.000986009
-0.00141488
0.00125901
-0.000874309
-0.00156309
0.0012466
-0.000965378
-0.00145878
0.00128322
-0.000924852
-0.00150913
0.00128817
-0.000954338
-0.00147426
0.00131247
-0.000937226
-0.00149438
0.0013282
-0.000943041
-0.0014866
0.00135361
-0.000935194
-0.00149679
0.00138408
-0.00092678
-0.0015054
0.00142181
-0.000924828
-0.00151231
0.00148156
-0.000897615
-0.00154271
0.00155056
-0.000906215
-0.00154786
0.00167993
-0.000835302
-0.0016279
0.00182767
-0.000879313
-0.00162689
0.00218719
-0.000693851
-0.00184071
-0.000595347
-0.00180871
0.00249666
0.00148598
0.00030445
0.00135182
0.00227946
-0.00029278
-0.000577875
0.00190273
-0.00113311
0.000525971
0.00217325
-0.000998072
3.76927e-05
0.00207459
-0.00123838
0.000351184
0.00218692
-0.00119226
0.000205573
0.00217055
-0.00125683
0.000307711
0.00222455
-0.00123698
0.00025811
0.0022328
-0.00125503
0.000292509
0.0022681
-0.00124516
0.000272671
0.00229179
-0.00124728
0.000280506
0.00232818
-0.00124206
0.000270442
0.00237379
-0.0012346
0.000262229
0.00242689
-0.00123325
0.000255367
0.00251656
-0.00121323
0.000225954
0.0026101
-0.00122047
0.000220677
0.0028051
-0.00117333
0.00014301
0.00298676
-0.00120438
0.000143421
0.00350331
-0.00114528
-6.50921e-05
-0.00102586
-3.35543e-05
0.00396738
0.00173211
0.000442691
0.000490361
0.00280576
0.000240704
-0.00160721
0.00252824
-0.000376463
-0.000479318
0.00282562
-0.000298186
-0.000997219
0.00275593
-0.000499021
-0.000669531
0.00286799
-0.000485496
-0.000818794
0.00285747
-0.000533523
-0.000712879
0.00290948
-0.000526182
-0.000762852
0.00291957
-0.000537473
-0.0007276
0.00295457
-0.000532772
-0.000747337
0.00297988
-0.000533094
-0.000739513
0.00301741
-0.000530138
-0.000749493
0.00306499
-0.000523751
-0.000758447
0.0031199
-0.000522949
-0.000765184
0.00321062
-0.000507118
-0.000796808
0.00330465
-0.000512857
-0.000801664
0.00349201
-0.000474977
-0.000885723
0.00367149
-0.000499356
-0.000884507
0.0040954
-0.000456374
-0.00111281
-0.000362726
-0.0010741
0.00450637
0.00172284
0.000140417
0.000941244
0.00298572
4.14381e-05
-0.00106332
0.00281206
-0.000271344
6.85874e-05
0.00319704
-0.000247898
-0.000435462
0.0031582
-0.000351751
-0.000108491
0.00328485
-0.000355574
-0.000256483
0.00328308
-0.000380327
-0.000151349
0.00333795
-0.000379797
-0.000201294
0.00335133
-0.000384823
-0.000166075
0.00338768
-0.000383198
-0.000185909
0.00341552
-0.000383029
-0.000177857
0.00345498
-0.00038175
-0.000187848
0.00350616
-0.000378649
-0.000196322
0.00356442
-0.000378157
-0.000203084
0.00366193
-0.000371045
-0.000233559
0.00376131
-0.000373713
-0.000238495
0.00396402
-0.000358131
-0.000319556
0.00415145
-0.000368553
-0.000318251
0.0045998
-0.000365418
-0.000539316
-0.000318185
-0.000501109
0.00505638
0.00173551
4.37976e-08
0.000765572
0.003065
2.36508e-07
-0.00128798
0.00294866
-2.66338e-08
-0.000154836
0.00337205
-1.54857e-07
-0.000671288
0.00336239
-2.08724e-08
-0.000342248
0.00349773
8.7366e-08
-0.000490959
0.00350257
4.28949e-08
-0.000385092
0.00355761
-4.91557e-08
-0.000434761
0.0035722
-4.45735e-08
-0.000399433
0.00360805
1.90591e-08
-0.000419091
0.00363614
4.04863e-08
-0.000411126
0.00367546
-9.71986e-09
-0.000421023
0.00372662
-4.01412e-08
-0.000429789
0.00378498
-8.41756e-08
-0.000436473
0.00388168
4.5791e-08
-0.000467795
0.00398086
-2.97638e-07
-0.000472563
0.00417841
4.23578e-07
-0.000556083
0.00436591
-1.39885e-06
-0.000554668
0.00478077
2.07229e-06
-0.00078237
-5.06111e-07
-0.000742247
0.00520533
0.00173552
-0.00014042
0.000765638
0.00306499
-4.12677e-05
-0.00128802
0.00294865
0.000271346
-0.000154875
0.00337206
0.000247836
-0.000671278
0.0033624
0.000351726
-0.000342219
0.00349772
0.000355614
-0.000490961
0.00350256
0.000380354
-0.000385108
0.00355761
0.000379776
-0.000434765
0.00357221
0.000384799
-0.000399422
0.00360805
0.000383203
-0.000419083
0.00363613
0.000383044
-0.000411131
0.00367545
0.000381725
-0.000421032
0.00372662
0.000378617
-0.000429789
0.00378497
0.000378022
-0.000436465
0.00388167
0.000371097
-0.000467787
0.00398082
0.000373111
-0.000472567
0.00417843
0.000358902
-0.000556056
0.00436579
0.000365936
-0.000554677
0.0047807
0.000369372
-0.00078222
0.000317242
-0.000742219
0.00520516
0.00172286
-0.000442797
0.000941357
0.00298569
-0.000240999
-0.00106339
0.00281205
0.000376527
6.8519e-05
0.00319706
0.000298393
-0.000435448
0.00315821
0.000499024
-0.000108441
0.00328485
0.000485364
-0.000256486
0.00328307
0.000533471
-0.000151378
0.00333795
0.000526259
-0.000201301
0.00335133
0.000537535
-0.000166056
0.00338769
0.000532736
-0.000185896
0.00341552
0.000533025
-0.000177866
0.00345497
0.000530113
-0.000187863
0.00350615
0.000523784
-0.000196324
0.00356439
0.000522877
-0.000203073
0.00366191
0.000507127
-0.000233563
0.00376118
0.000512332
-0.000238504
0.00396402
0.000475695
-0.000319632
0.00415117
0.000497045
-0.000318246
0.00459939
0.000460883
-0.000539731
0.000361833
-0.00050089
0.00505569
0.00173212
-0.000304459
0.000490382
0.00280576
0.000292436
-0.00160723
0.00252823
0.00113311
-0.000479331
0.00282561
0.000998199
-0.000997215
0.00275594
0.00123841
-0.000669522
0.00286799
0.00119216
-0.000818796
0.00285747
0.00125678
-0.000712886
0.00290948
0.00123703
-0.00076285
0.00291957
0.00125508
-0.000727594
0.00295456
0.00124514
-0.000747335
0.00297988
0.00124722
-0.000739518
0.0030174
0.00124204
-0.000749497
0.00306498
0.00123463
-0.000758447
0.00311986
0.00123321
-0.000765182
0.00321059
0.00121324
-0.00079681
0.00330448
0.00122011
-0.000801674
0.00349204
0.00117385
-0.000885745
0.00367092
0.0012027
-0.000884544
0.00409542
0.00114951
-0.00111311
0.00102508
-0.00107397
0.00450614
0.00148597
-0.00077889
0.00135175
0.00227948
7.68519e-05
-0.000577835
0.00190274
0.000983588
0.000526019
0.00217324
0.000689956
3.76834e-05
0.00207459
0.000986064
0.000351147
0.00218693
0.000874339
0.000205572
0.00217055
0.000965362
0.000307732
0.00222455
0.000924836
0.000258119
0.0022328
0.000954344
0.000292499
0.00226809
0.000937238
0.00027266
0.00229179
0.000943034
0.000280509
0.00232817
0.000935168
0.000270451
0.00237378
0.000926765
0.000262228
0.00242684
0.000924805
0.000255358
0.00251654
0.000897635
0.000225941
0.00260992
0.000906053
0.000220677
0.00280529
0.000835517
0.000142941
0.00298618
0.000878377
0.000143428
0.0035044
0.00069689
-6.55888e-05
0.000594218
-3.30993e-05
0.00396837
0.00103961
0.000846666
-0.000307032
0.00137782
0.00210138
-0.0023626
0.00108397
0.00251647
-0.00123896
0.00125101
0.0022592
-0.00173633
0.00118414
0.0024678
-0.00141491
0.00125901
0.00236258
-0.00156309
0.00124661
0.00243656
-0.00145876
0.00128322
0.00239732
-0.00150912
0.00128816
0.00242363
-0.00147427
0.00131247
0.00240731
-0.00149439
0.00132819
0.00241393
-0.00148659
0.00135361
0.00240656
-0.00149678
0.00138406
0.0024017
-0.0015054
0.00142178
0.00239939
-0.00151232
0.00148153
0.00238059
-0.00154272
0.00155043
0.00238503
-0.00154787
0.00168002
0.00233389
-0.00162796
0.00182719
0.00235814
-0.00162693
0.00218969
0.00217568
-0.0018413
0.00209328
-0.00180838
0.00249901
-7.37976e-05
0.00329177
0.000414398
0.00161318
0.000309187
0.00262194
0.000379747
0.0021887
0.000378834
0.00246857
0.000401083
0.00234028
0.000407052
0.00243066
0.000417674
0.00238675
0.00042461
0.00241665
0.000433057
0.00239881
0.000441931
0.00240506
0.000452856
0.0023957
0.000467141
0.00238744
0.00048581
0.0023807
0.000513313
0.00235306
0.000551003
0.00234734
0.000609184
0.00227573
0.000693355
0.00227397
0.000782104
0.00208693
0.00210552
0.000769859
0.00244348
0.00467542
-0.00147875
0.000773385
0.00412711
-0.000843696
0.000618026
0.0039014
-0.00112421
0.000454111
0.00349548
-0.00114298
0.00045983
0.00358221
-0.00111931
0.000421773
0.00356828
-0.00118985
0.000417752
0.00358791
-0.00115321
0.00040579
0.00359668
-0.00119804
0.00040244
0.00359863
-0.00117867
0.000397234
0.00360662
-0.00120258
0.000393839
0.003604
-0.00119551
0.000389071
0.0036088
-0.00120834
0.000382614
0.00360052
-0.00120664
0.000373144
0.00360456
-0.0012144
0.000356359
0.00357942
-0.00120956
0.000332709
0.00358632
-0.0012153
0.00028552
0.0035108
-0.00118785
0.000232872
0.00352323
-0.00119657
0.000403662
0.00300204
-0.00108558
0.00310778
-0.00112485
0.000526389
0.00365886
0.00263682
0.000432718
0.00191368
0.00226205
0.00124767
0.00180604
0.00181865
0.00095165
0.00134557
0.00130051
0.000919124
0.00131462
0.00124406
0.000954073
0.00120781
0.00124015
0.000871791
0.00118595
0.00123542
0.000915653
0.00115466
0.00125502
0.000863874
0.00114028
0.00125225
0.000886447
0.0011279
0.00126581
0.000858744
0.00111618
0.00126257
0.000866569
0.00110601
0.0012707
0.000851529
0.0010865
0.00126197
0.000852693
0.00106611
0.00126919
0.000843423
0.00101472
0.00124099
0.000847086
0.000961196
0.00125206
0.000839935
0.000816697
0.00116067
0.00086675
0.000689314
0.0011675
0.000856229
0.000276582
0.000608252
0.000965796
0.000756257
0.000919492
-0.000100096
0.0042485
0.00263917
-0.000545097
0.00284325
0.00295385
0.000135376
0.00274541
0.00259409
-0.00015148
0.00227792
0.00200042
-0.000194545
0.00220504
0.00182177
-0.000153664
0.00209083
0.00180153
-0.000241684
0.00205452
0.00177451
-0.000195115
0.00202002
0.00179676
-0.000249073
0.00200012
0.00179056
-0.000225846
0.00198685
0.00180584
-0.000254123
0.00197334
0.00180288
-0.000246332
0.00196379
0.00181228
-0.000261582
0.00194355
0.0018052
-0.000260721
0.0019245
0.00181372
-0.000270103
0.0018699
0.00178857
-0.000267046
0.00181587
0.00180109
-0.000274345
0.00165555
0.00171272
-0.000248713
0.00151059
0.00171522
-0.00025932
0.000884808
0.0013178
-0.000148858
0.0014282
-0.000193352
0.000372652
0.00420224
0.00139532
-0.000110627
0.00317967
0.00165923
0.000709682
0.00341804
0.00146289
0.000413309
0.00303713
0.000984121
0.000400155
0.00297597
0.000788169
0.000425395
0.00285193
0.000759182
0.000347536
0.00280293
0.000725643
0.000384869
0.00275917
0.000741046
0.000336627
0.00273234
0.000734926
0.00035494
0.0027147
0.000745438
0.000330727
0.00269745
0.000743245
0.000337332
0.00268592
0.000750117
0.000324148
0.00266163
0.000745184
0.000325878
0.0026404
0.000752069
0.00031774
0.00257459
0.000733961
0.000323612
0.00251221
0.000744651
0.000317126
0.0023098
0.000680704
0.000348686
0.00212079
0.000680903
0.00033884
0.0014909
0.000373134
0.000461759
0.000434316
0.000417824
0.00099286
0.00424641
0.000774544
-0.000328272
0.00337584
0.00103721
0.0004293
0.00380625
0.000972518
0.000128245
0.0035402
0.000713821
0.000100758
0.00350223
0.00059371
0.00012406
0.00339433
0.000566447
4.42293e-05
0.00334619
0.00054227
8.01344e-05
0.00330453
0.000547972
3.33773e-05
0.00327722
0.000544121
5.20574e-05
0.00326012
0.000549298
2.74029e-05
0.00324338
0.000548215
3.39185e-05
0.00323331
0.000551781
2.05014e-05
0.00321092
0.000549484
2.17343e-05
0.0031933
0.000553225
1.33914e-05
0.0031316
0.000544078
1.80701e-05
0.00307685
0.000549536
1.13787e-05
0.00288201
0.000516109
3.98463e-05
0.00270078
0.000514321
2.95542e-05
0.00200198
0.00038975
0.000142875
0.00041524
0.000101229
0.00141872
0.00414972
3.22675e-07
-0.000253775
0.00336094
7.34792e-08
0.000538292
0.00394004
-1.91702e-07
0.000238797
0.00376223
-1.07234e-07
0.000220213
0.00376996
1.02547e-07
0.000243546
0.00368034
8.07997e-08
0.000165137
0.00363698
-2.89384e-08
0.000200661
0.00359621
-6.74682e-08
0.000154012
0.00356849
6.86041e-10
0.000172354
0.0035508
4.67408e-08
0.00014787
0.00353356
1.44142e-08
0.000154365
0.00352333
-6.40054e-08
0.000141045
0.00350049
-6.25657e-08
0.000142555
0.00348307
-1.0833e-07
0.000134252
0.00341977
-1.4008e-07
0.000139756
0.00336415
-4.12988e-07
0.00013304
0.00316145
-1.20464e-06
0.000163922
0.00296849
-1.13405e-06
0.000153728
0.00230952
-7.92167e-06
0.00027427
-1.78191e-06
0.000231523
0.00175278
0.0041497
-0.000774337
-0.000253756
0.00336092
-0.00103717
0.000538248
0.00394005
-0.000972658
0.000238776
0.00376225
-0.000713876
0.00022024
0.00376996
-0.000593641
0.000243571
0.00368033
-0.000566409
0.000165126
0.00363698
-0.000542297
0.000200639
0.00359622
-0.000548009
0.000154014
0.0035685
-0.000544112
0.000172365
0.0035508
-0.000549276
0.000147873
0.00353355
-0.000548224
0.000154357
0.00352333
-0.000551862
0.000141037
0.00350049
-0.000549557
0.000142557
0.00348306
-0.000553437
0.000134255
0.00341975
-0.000544397
0.000139748
0.00336408
-0.000550314
0.000133024
0.00316135
-0.000518373
0.000163877
0.00296824
-0.000516415
0.000153712
0.00230817
-0.000404161
0.000274074
-0.000418427
0.000231468
0.00175112
0.00424637
-0.00139583
-0.000328245
0.0033758
-0.00165933
0.000429227
0.00380626
-0.00146259
0.000128215
0.00354023
-0.000983974
0.000100801
0.00350222
-0.000788327
0.000124103
0.00339431
-0.000759304
4.42138e-05
0.00334618
-0.000725603
8.00963e-05
0.00330453
-0.000740943
3.33771e-05
0.00327723
-0.000734921
5.20764e-05
0.00326011
-0.000745522
2.74104e-05
0.00324337
-0.000743295
3.39073e-05
0.0032333
-0.000750123
2.04912e-05
0.00321089
-0.000745185
2.17405e-05
0.00319323
-0.000752262
1.34054e-05
0.00313145
-0.000734291
1.80816e-05
0.00307653
-0.00074528
1.13788e-05
0.00288122
-0.000682576
3.98978e-05
0.00269943
-0.000682453
2.95951e-05
0.0019986
-0.000386219
0.000143151
-0.000436567
0.000101225
0.00141461
0.00420225
-0.00263963
-0.000110644
0.00317968
-0.00295393
0.00070967
0.00341804
-0.0025938
0.000413324
0.00303712
-0.00200033
0.000400161
0.00297597
-0.00182193
0.000425409
0.00285193
-0.00180162
0.000347537
0.00280293
-0.00177445
0.000384859
0.00275917
-0.00179667
0.000336625
0.00273234
-0.00179058
0.000354943
0.0027147
-0.00180591
0.000330728
0.00269744
-0.00180291
0.00033733
0.0026859
-0.00181227
0.000324145
0.00266159
-0.00180519
0.000325878
0.00264031
-0.00181386
0.000317739
0.00257442
-0.00178881
0.000323611
0.00251182
-0.00180149
0.000317121
0.00230878
-0.00171399
0.000348684
0.00211904
-0.0017161
0.000338863
0.00148493
-0.00132708
0.000461866
-0.00142903
0.000417825
0.000985607
0.00424853
-0.00263662
-0.00054512
0.00284328
-0.00226204
0.000135428
0.0027454
-0.00181875
-0.000151449
0.0022779
-0.00130057
-0.000194572
0.00220505
-0.00124401
-0.0001537
0.00209084
-0.00124012
-0.000241679
0.00205452
-0.00123543
-0.000195081
0.00202001
-0.00125505
-0.000249067
0.00200011
-0.00125226
-0.000225867
0.00198685
-0.00126579
-0.000254136
0.00197333
-0.00126256
-0.000246322
0.00196377
-0.00127074
-0.000261566
0.00194351
-0.00126201
-0.000260721
0.0019244
-0.00126925
-0.000270116
0.00186969
-0.00124109
-0.000267043
0.00181545
-0.00125225
-0.000274333
0.00165452
-0.00116148
-0.000248669
0.00150895
-0.00116782
-0.000259283
0.000877203
-0.000612213
-0.000148695
-0.000754888
-0.000193395
0.000363363
0.00365889
-0.0046748
0.000432697
0.0019137
-0.00412709
0.00124772
0.00180602
-0.00390176
0.000951668
0.00134556
-0.00349558
0.000919096
0.00131462
-0.003582
0.000954041
0.00120783
-0.00356816
0.000871799
0.00118595
-0.003588
0.000915677
0.00115465
-0.00359679
0.000863875
0.00114027
-0.00359861
0.00088643
0.0011279
-0.00360653
0.000858736
0.00111618
-0.00360398
0.000866579
0.00110599
-0.00360887
0.00085154
0.00108646
-0.00360057
0.000852691
0.00106602
-0.00360455
0.000843412
0.00101454
-0.00357941
0.000847088
0.000960849
-0.00358637
0.000839944
0.000815634
-0.00351102
0.000866789
0.000687867
-0.00352325
0.000856259
0.000269168
-0.00300092
0.000966109
-0.00310433
0.000919326
-0.000109091
0.00244346
-0.00147871
0.00077337
-0.000843724
0.000618035
-0.00112426
0.000454123
-0.00114297
0.000459828
-0.00111927
0.000421765
-0.00118984
0.000417751
-0.00115324
0.000405794
-0.00119805
0.000402441
-0.00117866
0.000397229
-0.00120256
0.000393833
-0.00119551
0.000389064
-0.00120835
0.000382602
-0.00120665
0.000373109
-0.00121439
0.000356282
-0.00120955
0.000332566
-0.0012153
0.000285135
-0.00118784
0.000232366
-0.00119651
0.000403773
-0.00108541
-0.00112458
0.000529542
0.00104048
-0.000160883
-5.53771e-08
0.00114058
-0.00094392
4.52328e-08
0.000886696
-0.000870884
4.2479e-08
0.000901618
-0.00115796
-2.18778e-08
0.000923426
-0.0011407
-3.97818e-08
0.000890634
-0.00115691
3.5234e-10
0.000916473
-0.00117928
2.65494e-08
0.000889544
-0.0011713
7.09049e-09
0.000898923
-0.00118797
-1.56131e-08
0.000877333
-0.00118083
-1.02913e-08
0.000872182
-0.00119035
7.95053e-09
0.000850323
-0.0011866
1.15508e-08
0.000836929
-0.0011933
-1.3121e-09
0.000814727
-0.00119212
-1.01583e-08
0.000807529
-0.00120228
-3.40104e-09
0.000795195
-0.00120299
6.35319e-09
0.000840527
-0.00123325
4.98951e-09
0.000850916
-0.00120697
-1.91899e-09
0.00119827
-0.00143291
-3.4606e-09
-0.00138696
-7.90215e-10
0.00146041
0.00212247
0.00050669
-3.02848e-08
0.00218984
0.000236708
-4.7049e-09
0.00202708
0.000243903
2.7091e-08
0.00187289
-8.47662e-05
1.13684e-08
0.00185266
-0.000166741
-1.49113e-08
0.00178295
-0.000215424
-1.27256e-08
0.00179502
-0.000275458
6.18052e-09
0.00176184
-0.000274169
1.10765e-08
0.00176412
-0.000303953
-2.62675e-10
0.00174006
-0.000298146
-7.59717e-09
0.00172855
-0.000312203
-2.21362e-09
0.00170251
-0.000308902
5.33652e-09
0.00167894
-0.000317027
4.07644e-09
0.00164712
-0.000316967
-2.78553e-09
0.0016175
-0.000325626
-4.76011e-09
0.00158402
-0.000329532
5.06079e-11
0.00157284
-0.000355271
3.54873e-09
0.00156412
-0.000342034
1.60028e-09
0.0016542
-0.000557218
-1.48981e-09
-0.00052622
-1.68345e-09
0.00171294
0.00223155
8.71825e-05
3.4924e-08
0.00260882
-5.14587e-06
-4.45813e-08
0.00256382
0.000137794
-2.00841e-08
0.00252383
-0.000239237
2.91229e-08
0.00254859
-0.00034547
2.26915e-08
0.00251935
-0.00042798
-9.89679e-09
0.00254672
-0.000497759
-1.86214e-08
0.00252705
-0.000503437
1.52072e-09
0.00253352
-0.000536351
1.37933e-08
0.0025135
-0.000532388
4.17924e-09
0.00250277
-0.000547803
-8.37448e-09
0.0024771
-0.0005447
-6.66717e-09
0.00245398
-0.000554574
3.83446e-09
0.00242105
-0.000554208
7.08524e-09
0.00239612
-0.000567813
-1.46049e-10
0.00236153
-0.000569261
-5.67474e-09
0.00237136
-0.000613763
-2.01719e-09
0.00236319
-0.000593167
3.00069e-09
0.00249896
-0.000841874
2.20838e-09
-0.000813822
-4.92367e-10
0.00259319
0.00216308
0.000171073
6.1021e-08
0.00269541
0.000171895
-2.59891e-08
0.00293193
0.000314708
-4.17144e-08
0.00300447
8.86295e-05
7.98325e-09
0.00308926
-4.76058e-06
3.2683e-08
0.00308473
-7.59936e-05
7.03978e-09
0.00311258
-0.000140858
-1.91535e-08
0.00309972
-0.00015391
-1.08494e-08
0.00310383
-0.000185408
1.0567e-08
0.00308753
-0.000185356
1.20202e-08
0.00307611
-0.000199131
-3.23121e-09
0.00305329
-0.000197768
-1.10244e-08
0.00302939
-0.000204759
-2.41043e-09
0.00299816
-0.000205188
7.91803e-09
0.00296626
-0.000212311
5.40928e-09
0.00292934
-0.000215257
-3.80663e-09
0.0029037
-0.000239446
-5.36039e-09
0.00288059
-0.000231193
3.581e-10
0.00289558
-0.000395087
3.11263e-09
-0.000378437
1.45058e-09
0.00287801
0.00218539
1.56292e-05
2.7639e-08
0.00274327
4.30878e-05
2.66144e-08
0.00304125
0.000144572
-1.97572e-08
0.00321536
1.53208e-05
-2.80302e-08
0.00337042
-3.54928e-05
4.69675e-09
0.00342188
-8.32467e-05
1.54522e-08
0.00348409
-0.000123118
1.37181e-09
0.00349572
-0.000132218
-1.15481e-08
0.00351309
-0.000150609
-4.86348e-09
0.00350624
-0.000151008
6.71723e-09
0.00350008
-0.000159098
6.07957e-09
0.00348107
-0.000158352
-2.98819e-09
0.00346056
-0.000162533
-6.58825e-09
0.00343136
-0.000162525
-6.28214e-10
0.00340487
-0.000167708
5.312e-09
0.00336972
-0.000168761
2.91612e-09
0.0033564
-0.000186326
-2.62658e-09
0.00333616
-0.000181397
-2.90842e-09
0.00335738
-0.000273405
2.36464e-10
-0.000264469
1.73202e-09
0.00334465
0.00211955
4.12972e-07
-3.96446e-08
0.00270121
-9.98654e-08
4.10686e-08
0.00308461
-2.82386e-07
2.39284e-08
0.00331995
-1.11276e-08
-2.54658e-08
0.0035279
1.99735e-07
-2.38329e-08
0.00360988
4.47614e-08
7.97763e-09
0.00368753
-1.05091e-07
1.97387e-08
0.0037093
-6.77039e-08
9.48566e-10
0.00373098
4.42378e-08
-1.34038e-08
0.00372786
5.8041e-08
-6.23533e-09
0.00372318
-1.16875e-08
6.77734e-09
0.00370594
-1.10787e-07
7.56086e-09
0.00368595
-5.26623e-08
-2.47901e-09
0.00365777
-9.21478e-08
-7.38343e-09
0.00363006
-1.90951e-07
-7.57319e-10
0.00359455
-1.83421e-07
5.61725e-09
0.00357347
-1.34865e-06
2.77664e-09
0.00354572
5.15448e-08
-2.41919e-09
0.00355065
-4.06391e-06
-2.49766e-09
-3.22104e-06
7.30367e-11
0.00352094
0.00211951
-1.54135e-05
-6.21448e-08
0.00270119
-4.31625e-05
4.49072e-09
0.00308463
-0.000144749
3.77473e-08
0.00331996
-1.5312e-05
8.65455e-09
0.00352789
3.56391e-05
-2.35361e-08
0.00360987
8.32639e-05
-8.55648e-09
0.00368753
0.000123026
1.4593e-08
0.00370931
0.000132174
1.22429e-08
0.00373098
0.000150651
-5.54557e-09
0.00372785
0.000151034
-1.18545e-08
0.00372317
0.000159072
-1.50811e-09
0.00370593
0.00015821
8.13732e-09
0.00368594
0.000162473
4.95957e-09
0.00365774
0.000162297
-4.18394e-09
0.00363
0.000167294
-5.70558e-09
0.00359445
0.000168442
9.79058e-10
0.0035733
0.000183703
4.5249e-09
0.00354539
0.000181649
1.01089e-09
0.00355008
0.000265303
-2.02593e-09
0.000258039
-1.61232e-09
0.00352028
0.00218532
-0.000171789
-1.30036e-08
0.00274325
-0.00017175
-3.21136e-08
0.00304129
-0.000314222
6.58391e-09
0.00321539
-8.86066e-05
2.61264e-08
0.0033704
4.47447e-06
1.07264e-09
0.00342186
7.59327e-05
-1.02444e-08
0.00348409
0.000141001
-4.38335e-09
0.00349573
0.000154024
7.67828e-09
0.00351309
0.000185345
6.29792e-09
0.00350622
0.000185223
-3.93571e-09
0.00350007
0.000199116
-7.09457e-09
0.00348105
0.000197776
-3.34513e-10
0.00346055
0.000204752
5.59633e-09
0.0034313
0.000204921
3.2669e-09
0.00340477
0.000211855
-3.03815e-09
0.00336955
0.000215053
-3.7349e-09
0.00335596
0.000237227
7.66717e-10
0.0033357
0.000231519
2.60623e-09
0.00335591
0.00038822
5.76168e-10
0.000372772
-1.11999e-09
0.00334239
0.00216309
-8.75941e-05
4.71279e-08
0.00269542
5.33616e-06
-2.81367e-08
0.00293193
-0.000137449
-3.01469e-08
0.00300447
0.000239202
1.00579e-08
0.00308925
0.000345071
2.36084e-08
0.00308473
0.000427887
-4.85952e-10
0.00311258
0.000497996
-1.44236e-08
0.00309972
0.000503576
-4.86843e-09
0.00310383
0.000536239
8.53608e-09
0.00308752
0.000532228
6.76901e-09
0.0030761
0.000547816
-3.77026e-09
0.00305326
0.00054476
-7.1859e-09
0.00302935
0.000554575
-1.95597e-10
0.00299807
0.000553966
5.9612e-09
0.00296608
0.000567434
2.83735e-09
0.00292905
0.000569176
-3.40856e-09
0.00290295
0.000612018
-3.38341e-09
0.00287967
0.000593681
7.88645e-10
0.00289306
0.000836701
2.17155e-09
0.000809284
6.42438e-10
0.00287436
0.00223161
-0.000506426
4.79798e-08
0.00260884
-0.000236722
3.82158e-09
0.00256379
-0.000244086
-2.86172e-08
0.0025238
8.47167e-05
-1.14103e-08
0.00254861
0.000166822
1.78235e-08
0.00251937
0.000215468
8.8003e-09
0.00254671
0.000275419
-8.46107e-09
0.00252703
0.000274118
-1.01351e-08
0.00253351
0.000303961
1.54757e-09
0.0025135
0.00029818
8.10976e-09
0.00250277
0.000312206
2.67371e-09
0.00247706
0.000308832
-4.82629e-09
0.00245393
0.000316981
-4.27861e-09
0.00242094
0.000316889
1.975e-09
0.00239593
0.000325438
4.31454e-09
0.00236125
0.000329493
8.47587e-11
0.00237054
0.000354022
-3.10039e-09
0.00236247
0.000342474
-1.37009e-09
0.0024965
0.000553998
1.12073e-09
0.000523142
1.32242e-09
0.00258925
0.00212253
0.000161825
-5.93477e-09
0.00218985
0.000943648
2.15695e-08
0.00202705
0.000870153
5.66307e-09
0.00187287
0.00115797
-1.24598e-08
0.00185268
0.00114126
-5.24815e-09
0.00178297
0.00115705
4.01827e-09
0.00179501
0.00117896
4.76671e-09
0.00176182
0.00117109
-2.65738e-09
0.00176411
0.00118811
-5.04543e-09
0.00174007
0.00118103
1.38711e-10
0.00172854
0.00119032
4.53232e-09
0.00170247
0.00118641
2.65715e-09
0.00167888
0.00119324
-2.04563e-09
0.00164701
0.0011922
-3.08551e-09
0.00161727
0.00120229
1.40934e-10
0.00158374
0.00120296
2.20052e-09
0.00157181
0.00123272
6.30322e-10
0.0015634
0.00120713
-1.191e-09
0.00165051
0.00143301
-8.26762e-10
0.00138607
2.4642e-10
0.00170691
0.00104043
-5.28645e-08
0.00114055
1.14511e-08
0.000886723
3.19892e-08
0.000901642
7.53224e-10
0.000923414
-2.25378e-08
0.000890614
-7.09958e-09
0.000916474
1.14673e-08
0.000889555
7.41807e-09
0.000898923
-5.28712e-09
0.000877317
-7.07972e-09
0.000872166
1.6239e-09
0.000850301
7.0202e-09
0.000836901
2.35869e-09
0.000814655
-4.54904e-09
0.000807369
-4.11401e-09
0.000795058
1.46934e-09
0.000839969
3.35203e-09
0.000850583
4.05556e-10
0.00119817
-1.55288e-09
-9.37289e-10
0.00145965
0.00104051
-0.000160762
0.00147867
0.00114058
-0.000944134
0.000843739
0.000886676
-0.000870962
0.00112427
0.000901611
-0.00115782
0.00114297
0.000923439
-0.00114059
0.00111926
0.000890642
-0.00115696
0.00118985
0.000916467
-0.00117937
0.00115324
0.000889537
-0.00117128
0.00119805
0.000898924
-0.0011879
0.00117865
0.000877338
-0.00118081
0.00120257
0.000872183
-0.0011904
0.00119551
0.000850319
-0.00118663
0.00120835
0.000836926
-0.00119328
0.00120664
0.000814729
-0.00119209
0.00121439
0.000807532
-0.00120229
0.00120955
0.000795195
-0.00120302
0.0012153
0.000840525
-0.00123326
0.00118786
0.000850915
-0.00120695
0.00119657
0.00119827
-0.0014329
0.00108558
-0.00138697
0.00112485
0.00146041
0.00212249
0.000506965
-0.000432779
0.00218985
0.000236551
-0.00124768
0.00202708
0.000243712
-0.000951611
0.00187288
-8.46981e-05
-0.00091911
0.00185266
-0.000166581
-0.0009541
0.00178296
-0.00021541
-0.00087181
0.00179502
-0.000275564
-0.000915645
0.00176184
-0.000274211
-0.000863859
0.00176411
-0.000303892
-0.000886448
0.00174007
-0.000298094
-0.000858753
0.00172856
-0.00031223
-0.000866571
0.00170251
-0.000308955
-0.000851522
0.00167894
-0.000317029
-0.000852688
0.00164712
-0.000316924
-0.000843427
0.0016175
-0.000325606
-0.000847092
0.00158403
-0.000329557
-0.000839935
0.00157284
-0.000355295
-0.000866745
0.00156412
-0.000342029
-0.000856227
0.0016542
-0.000557202
-0.000965798
-0.000526215
-0.000919494
0.00171294
0.00223153
8.72773e-05
0.000545139
0.00260882
-5.07773e-06
-0.000135426
0.00256383
0.000137702
0.000151453
0.00252383
-0.000239316
0.000194573
0.00254858
-0.00034542
0.000153696
0.00251935
-0.000427911
0.000241673
0.00254672
-0.000497767
0.000195086
0.00252705
-0.00050349
0.000249073
0.00253352
-0.000536362
0.000225864
0.0025135
-0.000532354
0.00025413
0.00250277
-0.000547784
0.000246322
0.0024771
-0.00054472
0.000261572
0.00245398
-0.000554599
0.000260724
0.00242105
-0.000554202
0.000270112
0.00239612
-0.000567789
0.000267047
0.00236153
-0.000569255
0.000274339
0.00237137
-0.000613778
0.00024871
0.00236319
-0.000593178
0.000259323
0.00249896
-0.00084187
0.000148861
-0.000813814
0.000193352
0.00259319
0.00216305
0.000170923
0.000110727
0.0026954
0.000172089
-0.000709712
0.00293194
0.000314793
-0.000413379
0.00300448
8.85065e-05
-0.000400145
0.00308925
-4.86231e-06
-0.000425338
0.00308473
-7.59634e-05
-0.000347533
0.00311258
-0.000140777
-0.000384901
0.00309973
-0.000153913
-0.000336636
0.00310383
-0.000185471
-0.000354927
0.00308753
-0.000185379
-0.000330715
0.00307611
-0.000199094
-0.000337337
0.00305329
-0.000197735
-0.000324159
0.00302939
-0.000204775
-0.000325879
0.00299816
-0.000205222
-0.000317732
0.00296626
-0.000212312
-0.000323607
0.00292934
-0.000215229
-0.00031713
0.0029037
-0.000239435
-0.000348691
0.00288059
-0.000231207
-0.000338839
0.00289558
-0.000395098
-0.000461756
-0.000378436
-0.000417823
0.00287801
0.00218538
1.53569e-05
0.000328315
0.00274326
4.31439e-05
-0.000429263
0.00304125
0.00014475
-0.00012827
0.00321537
1.53309e-05
-0.000100788
0.00337043
-3.56011e-05
-0.000124056
0.00342187
-8.32752e-05
-4.42087e-05
0.00348408
-0.000123048
-8.01286e-05
0.00349572
-0.000132167
-3.33881e-05
0.00351309
-0.000150643
-5.20636e-05
0.00350624
-0.000151061
-2.73979e-05
0.00350008
-0.000159096
-3.39126e-05
0.00348107
-0.00015831
-2.05034e-05
0.00346056
-0.000162516
-2.17404e-05
0.00343136
-0.000162552
-1.33927e-05
0.00340487
-0.000167733
-1.80653e-05
0.00336971
-0.000168751
-1.13753e-05
0.0033564
-0.000186304
-3.98483e-05
0.00333617
-0.000181395
-2.95572e-05
0.00335738
-0.000273416
-0.000142875
-0.000264476
-0.000101228
0.00334465
0.00211958
3.21525e-07
0.000253721
0.0027012
-2.45476e-07
-0.000538236
0.0030846
-2.27915e-07
-0.000238763
0.00331995
1.20318e-07
-0.000220241
0.00352791
1.99919e-07
-0.000243581
0.00360988
-1.93686e-08
-0.000165124
0.00368752
-1.24028e-07
-0.000200633
0.0037093
-2.31615e-08
-0.000154014
0.00373098
7.45491e-08
-0.000172368
0.00372786
3.62513e-08
-0.000147876
0.00372318
-4.60249e-08
-0.000154358
0.00370594
-1.07856e-07
-0.000141038
0.00368595
-2.12129e-08
-0.000142558
0.00365777
-7.8923e-08
-0.000134259
0.00363006
-2.11842e-07
-0.000139755
0.00359455
-2.02724e-07
-0.000133034
0.00357346
-1.34106e-06
-0.000163921
0.00354572
6.58609e-08
-0.000153731
0.00355066
-4.06216e-06
-0.000274272
-3.2281e-06
-0.000231522
0.00352094
0.00211953
-1.52174e-05
0.000253666
0.0027012
-4.33136e-05
-0.000538243
0.00308462
-0.000144876
-0.00023872
0.00331995
-1.52396e-05
-0.000220228
0.00352789
3.57359e-05
-0.000243609
0.00360988
8.32524e-05
-0.000165138
0.00368753
0.000122952
-0.00020062