/*--------------------------------*- C++ -*----------------------------------*\
  =========                 |
  \\      /  F ield         | OpenFOAM: The Open Source CFD Toolbox
   \\    /   O peration     | Website:  https://openfoam.org
    \\  /    A nd           | Version:  7
     \\/     M anipulation  |
\*---------------------------------------------------------------------------*/
FoamFile
{
    version     2.0;
    format      ascii;
    class       volVectorField;
    location    "0.04";
    object      U;
}
// * * * * * * * * * * * * * * * * * * * * * * * * * * * * * * * * * * * * * //

dimensions      [0 1 -1 0 0 0 0];

internalField   nonuniform List<vector> 
1440
(
(9.861 0.0308416 0)
(9.78254 0.113921 0)
(9.62363 0.189305 0)
(9.39274 0.24884 0)
(9.10818 0.291465 0)
(8.7871 0.317087 0)
(8.44335 0.327124 0)
(8.08741 0.324013 0)
(7.72885 0.311115 0)
(7.3741 0.290978 0)
(7.0306 0.266444 0)
(6.70068 0.239975 0)
(6.38771 0.212426 0)
(6.09383 0.185119 0)
(5.81984 0.15905 0)
(5.56606 0.134789 0)
(5.33236 0.112663 0)
(5.11832 0.0928243 0)
(4.9232 0.0753096 0)
(4.74605 0.0600595 0)
(4.58587 0.046972 0)
(4.44163 0.0358517 0)
(4.31207 0.0263671 0)
(4.19588 0.0181976 0)
(4.09184 0.011139 0)
(3.99877 0.00509217 0)
(3.9156 -7.36381e-06 0)
(3.84131 -0.00422783 0)
(3.77495 -0.00766903 0)
(3.71571 -0.0104883 0)
(3.66277 -0.0128531 0)
(3.61533 -0.014833 0)
(3.57257 -0.0163618 0)
(3.53391 -0.0173417 0)
(3.49898 -0.0178051 0)
(3.46746 -0.0179618 0)
(3.43897 -0.0180665 0)
(3.41302 -0.0182376 0)
(3.38919 -0.0183931 0)
(3.36714 -0.0183384 0)
(3.34667 -0.0179229 0)
(3.32762 -0.0171506 0)
(3.30983 -0.0161751 0)
(3.29313 -0.0151977 0)
(3.27737 -0.0143601 0)
(3.26244 -0.0137001 0)
(3.24828 -0.0131772 0)
(3.23484 -0.0127219 0)
(3.22208 -0.0122743 0)
(3.20997 -0.0117995 0)
(3.19847 -0.0112849 0)
(3.18752 -0.010731 0)
(3.17708 -0.0101431 0)
(3.1671 -0.00952702 0)
(3.15754 -0.00888881 0)
(3.14834 -0.00823339 0)
(3.13947 -0.00756341 0)
(3.13088 -0.00687903 0)
(3.12254 -0.00618017 0)
(3.1144 -0.0054697 0)
(3.10643 -0.00475537 0)
(3.09859 -0.00404949 0)
(3.09085 -0.00336689 0)
(3.08318 -0.00272219 0)
(3.07556 -0.00212626 0)
(3.06798 -0.0015835 0)
(3.06045 -0.00109187 0)
(3.05297 -0.000644722 0)
(3.04558 -0.00023394 0)
(3.03829 0.000146422 0)
(3.03113 0.000498271 0)
(3.02415 0.00082043 0)
(3.01737 0.00111051 0)
(3.01084 0.00136577 0)
(3.00461 0.00158324 0)
(2.99872 0.0017602 0)
(2.99321 0.00189453 0)
(2.98809 0.00198531 0)
(2.98337 0.00203555 0)
(2.97907 0.00205603 0)
(2.97523 0.00205338 0)
(2.97187 0.00202144 0)
(2.96903 0.00195422 0)
(2.96668 0.00184851 0)
(2.96482 0.0017039 0)
(2.96338 0.00152292 0)
(2.96232 0.00131178 0)
(2.96154 0.00108268 0)
(2.96098 0.000855982 0)
(2.96058 0.000654069 0)
(2.96025 0.000483209 0)
(2.95991 0.000352434 0)
(2.95951 0.000270776 0)
(2.95902 0.000234245 0)
(2.95841 0.000233412 0)
(2.9577 0.000262272 0)
(2.95692 0.000316477 0)
(2.9561 0.000390473 0)
(2.95525 0.000477052 0)
(2.95441 0.000568574 0)
(2.95361 0.000658814 0)
(2.95286 0.000743842 0)
(2.9522 0.00082115 0)
(2.95162 0.000888585 0)
(2.95113 0.00094527 0)
(2.95072 0.000993237 0)
(2.95035 0.00103016 0)
(2.95 0.00105577 0)
(2.94962 0.00106951 0)
(2.94919 0.00107739 0)
(2.94869 0.00107458 0)
(2.9481 0.00107419 0)
(2.94744 0.00106107 0)
(2.94668 0.00106663 0)
(2.94593 0.00104826 0)
(2.94505 0.00107642 0)
(2.94432 0.00105004 0)
(2.94328 0.00113101 0)
(2.94276 0.00108816 0)
(2.94108 0.00127094 0)
(9.87882 0.0417102 0)
(9.90953 0.115497 0)
(9.96335 0.178728 0)
(10.0318 0.23381 0)
(10.106 0.281679 0)
(10.1783 0.321532 0)
(10.2428 0.352672 0)
(10.295 0.375218 0)
(10.3327 0.39 0)
(10.3548 0.397954 0)
(10.3619 0.399996 0)
(10.3551 0.397038 0)
(10.3359 0.389859 0)
(10.3059 0.379196 0)
(10.267 0.365792 0)
(10.2205 0.350338 0)
(10.1682 0.333459 0)
(10.1112 0.315684 0)
(10.0509 0.297474 0)
(9.98812 0.279214 0)
(9.92388 0.261207 0)
(9.85878 0.243687 0)
(9.79335 0.226793 0)
(9.72804 0.210627 0)
(9.66327 0.195287 0)
(9.59932 0.180859 0)
(9.53638 0.167402 0)
(9.47461 0.154944 0)
(9.41411 0.143483 0)
(9.35496 0.132983 0)
(9.29723 0.123379 0)
(9.2409 0.114599 0)
(9.1859 0.106583 0)
(9.13214 0.0992858 0)
(9.07962 0.0926633 0)
(9.02839 0.0866614 0)
(8.9785 0.0812108 0)
(8.92988 0.0762364 0)
(8.88243 0.0716712 0)
(8.83605 0.0674715 0)
(8.7907 0.0636245 0)
(8.7464 0.0601368 0)
(8.70318 0.0570082 0)
(8.66102 0.0542124 0)
(8.61989 0.051694 0)
(8.57973 0.0493849 0)
(8.5405 0.0472233 0)
(8.50218 0.0451667 0)
(8.46475 0.0431933 0)
(8.42824 0.0412955 0)
(8.39263 0.0394726 0)
(8.35793 0.0377262 0)
(8.32413 0.0360577 0)
(8.29123 0.0344682 0)
(8.25922 0.0329594 0)
(8.2281 0.031533 0)
(8.19788 0.0301885 0)
(8.16855 0.0289225 0)
(8.14011 0.0277312 0)
(8.11254 0.0266126 0)
(8.08585 0.0255678 0)
(8.06004 0.0246 0)
(8.03511 0.023711 0)
(8.01105 0.0228985 0)
(7.98785 0.0221527 0)
(7.96551 0.0214567 0)
(7.94401 0.0207878 0)
(7.92335 0.0201226 0)
(7.90352 0.0194419 0)
(7.88452 0.0187341 0)
(7.86636 0.0179938 0)
(7.84904 0.0172177 0)
(7.83258 0.0163987 0)
(7.81701 0.0155249 0)
(7.80237 0.0145915 0)
(7.78868 0.013615 0)
(7.77598 0.0126239 0)
(7.76428 0.0116285 0)
(7.75363 0.0106124 0)
(7.74404 0.00956431 0)
(7.73552 0.00849325 0)
(7.72806 0.00741688 0)
(7.72167 0.0063643 0)
(7.71634 0.00537879 0)
(7.71201 0.00450982 0)
(7.7086 0.00379899 0)
(7.70603 0.00327225 0)
(7.70415 0.00294355 0)
(7.70283 0.00281956 0)
(7.70189 0.00289038 0)
(7.70116 0.00311129 0)
(7.70049 0.00342346 0)
(7.69974 0.00377369 0)
(7.69882 0.004114 0)
(7.6977 0.00440444 0)
(7.69642 0.00461522 0)
(7.69501 0.00473268 0)
(7.69352 0.00475685 0)
(7.69199 0.00469517 0)
(7.69049 0.00455778 0)
(7.68907 0.00435552 0)
(7.68776 0.00410022 0)
(7.68659 0.00380828 0)
(7.68555 0.00350379 0)
(7.68463 0.00321706 0)
(7.68377 0.00297834 0)
(7.68292 0.00281489 0)
(7.682 0.00274833 0)
(7.681 0.00278654 0)
(7.67984 0.00292521 0)
(7.67857 0.00312482 0)
(7.67712 0.0033648 0)
(7.67563 0.00357828 0)
(7.67395 0.00379434 0)
(7.67242 0.00390626 0)
(7.67059 0.00405977 0)
(7.66929 0.0040313 0)
(7.66724 0.00421428 0)
(7.66655 0.00406054 0)
(7.66374 0.00449656 0)
(9.87778 0.0245485 0)
(9.89349 0.0719935 0)
(9.92504 0.116043 0)
(9.97167 0.155884 0)
(10.0315 0.191237 0)
(10.1023 0.221707 0)
(10.182 0.246822 0)
(10.2683 0.266347 0)
(10.3585 0.280412 0)
(10.4503 0.289374 0)
(10.5415 0.293678 0)
(10.6304 0.293858 0)
(10.7157 0.290445 0)
(10.7965 0.283988 0)
(10.8721 0.275079 0)
(10.9421 0.264313 0)
(11.0063 0.252238 0)
(11.0647 0.239335 0)
(11.1175 0.226011 0)
(11.1648 0.212607 0)
(11.207 0.199385 0)
(11.2444 0.186561 0)
(11.2773 0.174324 0)
(11.306 0.162811 0)
(11.3309 0.152107 0)
(11.3524 0.142252 0)
(11.3708 0.133264 0)
(11.3863 0.125137 0)
(11.3994 0.117836 0)
(11.4101 0.111294 0)
(11.4189 0.105419 0)
(11.4258 0.100126 0)
(11.4311 0.0953775 0)
(11.4348 0.0911787 0)
(11.4372 0.0875202 0)
(11.4384 0.084328 0)
(11.4386 0.0814785 0)
(11.4379 0.0788619 0)
(11.4362 0.0764364 0)
(11.4337 0.0742291 0)
(11.4303 0.0722888 0)
(11.4263 0.0706312 0)
(11.4217 0.0692173 0)
(11.4166 0.06797 0)
(11.411 0.0668058 0)
(11.405 0.0656583 0)
(11.3985 0.0644923 0)
(11.3915 0.0633004 0)
(11.3841 0.0620907 0)
(11.3763 0.0608786 0)
(11.3682 0.0596817 0)
(11.3597 0.0585135 0)
(11.351 0.0573776 0)
(11.342 0.0562669 0)
(11.3328 0.0551702 0)
(11.3233 0.0540805 0)
(11.3137 0.0529984 0)
(11.304 0.0519286 0)
(11.2942 0.0508762 0)
(11.2843 0.049843 0)
(11.2743 0.0488281 0)
(11.2643 0.0478275 0)
(11.2542 0.0468349 0)
(11.2441 0.0458422 0)
(11.234 0.0448403 0)
(11.2239 0.0438206 0)
(11.2138 0.0427752 0)
(11.2038 0.0416975 0)
(11.1938 0.0405833 0)
(11.184 0.0394283 0)
(11.1742 0.0382241 0)
(11.1645 0.0369534 0)
(11.155 0.0355907 0)
(11.1456 0.0341101 0)
(11.1365 0.0324994 0)
(11.1276 0.0307675 0)
(11.1191 0.0289369 0)
(11.1108 0.0270289 0)
(11.103 0.0250582 0)
(11.0955 0.0230318 0)
(11.0885 0.020955 0)
(11.082 0.0188397 0)
(11.0759 0.0167093 0)
(11.0702 0.0146089 0)
(11.0648 0.0125981 0)
(11.0599 0.0107303 0)
(11.0553 0.00904243 0)
(11.0511 0.00756442 0)
(11.0473 0.00633471 0)
(11.0439 0.00540287 0)
(11.0408 0.00481122 0)
(11.038 0.00455098 0)
(11.0354 0.00454841 0)
(11.0331 0.00470085 0)
(11.0312 0.00492184 0)
(11.0295 0.00515838 0)
(11.0281 0.00538425 0)
(11.027 0.00557906 0)
(11.026 0.00571489 0)
(11.0252 0.00576244 0)
(11.0244 0.00570962 0)
(11.0237 0.00557528 0)
(11.0233 0.00540876 0)
(11.0232 0.00526911 0)
(11.0236 0.00519314 0)
(11.0242 0.00518041 0)
(11.0251 0.00521807 0)
(11.026 0.00530332 0)
(11.0267 0.00541256 0)
(11.0269 0.00554049 0)
(11.0266 0.00564121 0)
(11.0256 0.00574635 0)
(11.0241 0.00574769 0)
(11.022 0.00577603 0)
(11.0198 0.00560308 0)
(11.0172 0.00563244 0)
(11.0151 0.00533065 0)
(11.0122 0.00558427 0)
(11.011 0.00519875 0)
(11.0079 0.00591082 0)
(9.87771 0.0172333 0)
(9.89188 0.0510794 0)
(9.92012 0.0830335 0)
(9.9617 0.111964 0)
(10.0149 0.137264 0)
(10.0778 0.158678 0)
(10.1485 0.176064 0)
(10.2253 0.189379 0)
(10.3067 0.198758 0)
(10.391 0.204537 0)
(10.4769 0.207168 0)
(10.5632 0.207147 0)
(10.6489 0.204949 0)
(10.7331 0.201015 0)
(10.8153 0.19575 0)
(10.8947 0.18952 0)
(10.9711 0.182646 0)
(11.0441 0.175384 0)
(11.1135 0.167926 0)
(11.1793 0.160415 0)
(11.2413 0.152968 0)
(11.2997 0.145691 0)
(11.3545 0.138663 0)
(11.406 0.131944 0)
(11.4541 0.125568 0)
(11.4993 0.119558 0)
(11.5417 0.113926 0)
(11.5814 0.108678 0)
(11.6188 0.103808 0)
(11.654 0.0993045 0)
(11.6872 0.0951473 0)
(11.7187 0.0913217 0)
(11.7485 0.0878244 0)
(11.7768 0.0846561 0)
(11.8038 0.0817995 0)
(11.8296 0.0792077 0)
(11.8543 0.0768212 0)
(11.8781 0.0746002 0)
(11.9009 0.0725416 0)
(11.9228 0.0706663 0)
(11.944 0.0689914 0)
(11.9645 0.0675087 0)
(11.9843 0.0661826 0)
(12.0036 0.0649627 0)
(12.0224 0.0638029 0)
(12.0406 0.0626715 0)
(12.0583 0.0615554 0)
(12.0755 0.0604554 0)
(12.0923 0.0593771 0)
(12.1085 0.0583245 0)
(12.1244 0.0572968 0)
(12.1397 0.0562895 0)
(12.1546 0.0552959 0)
(12.1691 0.0543103 0)
(12.1832 0.0533293 0)
(12.1969 0.0523519 0)
(12.2101 0.0513784 0)
(12.223 0.0504106 0)
(12.2355 0.0494506 0)
(12.2476 0.0485024 0)
(12.2593 0.0475717 0)
(12.2707 0.0466646 0)
(12.2818 0.0457853 0)
(12.2925 0.044932 0)
(12.3029 0.044096 0)
(12.313 0.043263 0)
(12.3228 0.0424164 0)
(12.3322 0.0415416 0)
(12.3414 0.0406277 0)
(12.3502 0.0396665 0)
(12.3587 0.0386486 0)
(12.3668 0.0375601 0)
(12.3746 0.036382 0)
(12.3821 0.0350957 0)
(12.3891 0.0336939 0)
(12.3957 0.0321862 0)
(12.4018 0.0305916 0)
(12.4075 0.0289208 0)
(12.4128 0.0271713 0)
(12.4175 0.0253414 0)
(12.4218 0.0234481 0)
(12.4257 0.0215307 0)
(12.429 0.0196398 0)
(12.4319 0.0178246 0)
(12.4344 0.0161217 0)
(12.4364 0.0145514 0)
(12.438 0.0131229 0)
(12.4393 0.0118482 0)
(12.4404 0.0107635 0)
(12.4414 0.00993002 0)
(12.4424 0.00939092 0)
(12.4433 0.00912326 0)
(12.4443 0.00902606 0)
(12.4453 0.00895501 0)
(12.4463 0.00879298 0)
(12.4475 0.00850913 0)
(12.4487 0.0081531 0)
(12.45 0.00780382 0)
(12.4514 0.00750918 0)
(12.4529 0.00724743 0)
(12.4543 0.00693526 0)
(12.4556 0.00647696 0)
(12.4566 0.00582617 0)
(12.4573 0.00502269 0)
(12.458 0.00419093 0)
(12.4586 0.00351078 0)
(12.4593 0.00316292 0)
(12.4602 0.0032838 0)
(12.4613 0.00389275 0)
(12.4624 0.00493716 0)
(12.4636 0.00623563 0)
(12.4646 0.0076416 0)
(12.4653 0.00886494 0)
(12.4656 0.00986885 0)
(12.4656 0.0103753 0)
(12.4653 0.0106261 0)
(12.4648 0.0103623 0)
(12.4641 0.0100313 0)
(12.4637 0.00947857 0)
(12.4631 0.00889403 0)
(9.87767 0.0101739 0)
(9.8908 0.0301387 0)
(9.91699 0.0489593 0)
(9.95579 0.0659637 0)
(10.0059 0.0807781 0)
(10.0654 0.0932827 0)
(10.1327 0.103456 0)
(10.2061 0.111316 0)
(10.284 0.116947 0)
(10.365 0.120537 0)
(10.4477 0.122347 0)
(10.531 0.122659 0)
(10.614 0.121728 0)
(10.6957 0.119768 0)
(10.7756 0.116963 0)
(10.8531 0.113484 0)
(10.9278 0.109485 0)
(10.9993 0.105103 0)
(11.0676 0.100446 0)
(11.1325 0.0956055 0)
(11.194 0.0906691 0)
(11.2521 0.0857216 0)
(11.307 0.0808447 0)
(11.3587 0.0761121 0)
(11.4075 0.0715835 0)
(11.4535 0.0673046 0)
(11.497 0.0633075 0)
(11.538 0.0596108 0)
(11.5769 0.0562199 0)
(11.6138 0.0531283 0)
(11.6489 0.0503209 0)
(11.6824 0.0477786 0)
(11.7144 0.0454843 0)
(11.745 0.0434252 0)
(11.7745 0.0415874 0)
(11.8028 0.0399488 0)
(11.8302 0.0384805 0)
(11.8567 0.0371582 0)
(11.8824 0.0359702 0)
(11.9074 0.0349142 0)
(11.9318 0.0339875 0)
(11.9555 0.0331799 0)
(11.9787 0.0324717 0)
(12.0014 0.0318392 0)
(12.0237 0.0312604 0)
(12.0456 0.0307194 0)
(12.0671 0.0302031 0)
(12.0882 0.0297003 0)
(12.1089 0.0292043 0)
(12.1292 0.0287135 0)
(12.1492 0.02823 0)
(12.1689 0.0277553 0)
(12.1882 0.0272873 0)
(12.2072 0.0268229 0)
(12.2259 0.0263613 0)
(12.2443 0.0259051 0)
(12.2623 0.0254581 0)
(12.2801 0.025023 0)
(12.2975 0.0245999 0)
(12.3146 0.0241883 0)
(12.3314 0.0237901 0)
(12.348 0.0234092 0)
(12.3642 0.0230481 0)
(12.3801 0.0227041 0)
(12.3957 0.0223677 0)
(12.4111 0.0220244 0)
(12.4261 0.0216593 0)
(12.4408 0.0212628 0)
(12.4552 0.0208323 0)
(12.4692 0.0203689 0)
(12.4829 0.0198701 0)
(12.4962 0.0193245 0)
(12.509 0.0187132 0)
(12.5214 0.01802 0)
(12.5334 0.0172434 0)
(12.5447 0.0163995 0)
(12.5555 0.0155091 0)
(12.5657 0.0145822 0)
(12.5753 0.0136136 0)
(12.5841 0.0125933 0)
(12.5922 0.0115224 0)
(12.5996 0.0104228 0)
(12.6062 0.00933374 0)
(12.612 0.00829828 0)
(12.6172 0.00734672 0)
(12.6217 0.006489 0)
(12.6255 0.00572099 0)
(12.6288 0.00503505 0)
(12.6315 0.0044291 0)
(12.6338 0.00392031 0)
(12.6359 0.00354323 0)
(12.6378 0.00331324 0)
(12.6397 0.00320093 0)
(12.6415 0.00314032 0)
(12.6433 0.00306643 0)
(12.645 0.00294689 0)
(12.6466 0.00278999 0)
(12.6482 0.00263415 0)
(12.6497 0.00252378 0)
(12.6513 0.00248467 0)
(12.6529 0.00251293 0)
(12.6545 0.00258005 0)
(12.6558 0.00264976 0)
(12.6569 0.00269529 0)
(12.6575 0.00271267 0)
(12.6579 0.00272791 0)
(12.658 0.00278313 0)
(12.6582 0.00292187 0)
(12.6586 0.00318141 0)
(12.6594 0.00358648 0)
(12.6607 0.00411099 0)
(12.6626 0.00471015 0)
(12.6649 0.00530949 0)
(12.6677 0.00585707 0)
(12.6705 0.00629618 0)
(12.6736 0.00657973 0)
(12.6762 0.00676254 0)
(12.6792 0.00673521 0)
(12.6809 0.00677055 0)
(12.6845 0.00654292 0)
(9.87764 0.00336395 0)
(9.89024 0.00994882 0)
(9.91542 0.0161491 0)
(9.95286 0.0217557 0)
(10.0014 0.0266486 0)
(10.0594 0.0307924 0)
(10.1251 0.034186 0)
(10.1969 0.0368427 0)
(10.2734 0.0387948 0)
(10.353 0.0401 0)
(10.4346 0.0408344 0)
(10.5169 0.0410803 0)
(10.5989 0.0409075 0)
(10.6798 0.0403732 0)
(10.7589 0.0395338 0)
(10.8358 0.0384437 0)
(10.9099 0.0371539 0)
(10.981 0.0357119 0)
(11.0489 0.0341675 0)
(11.1134 0.0325668 0)
(11.1747 0.0309486 0)
(11.2326 0.0293468 0)
(11.2874 0.0277976 0)
(11.3391 0.026339 0)
(11.3879 0.0250017 0)
(11.434 0.0238038 0)
(11.4775 0.0227522 0)
(11.5186 0.0218449 0)
(11.5575 0.0210717 0)
(11.5945 0.0204169 0)
(11.6296 0.0198611 0)
(11.663 0.0193861 0)
(11.6949 0.018979 0)
(11.7255 0.0186339 0)
(11.7549 0.0183472 0)
(11.7831 0.0181103 0)
(11.8104 0.0179076 0)
(11.8369 0.0177239 0)
(11.8625 0.0175525 0)
(11.8874 0.0173969 0)
(11.9116 0.0172645 0)
(11.9352 0.0171586 0)
(11.9583 0.0170749 0)
(11.981 0.0170034 0)
(12.0032 0.0169329 0)
(12.025 0.0168546 0)
(12.0464 0.0167622 0)
(12.0674 0.016652 0)
(12.0881 0.0165235 0)
(12.1084 0.0163795 0)
(12.1284 0.0162245 0)
(12.1481 0.0160628 0)
(12.1674 0.015898 0)
(12.1864 0.0157322 0)
(12.2052 0.0155666 0)
(12.2236 0.0154018 0)
(12.2417 0.0152383 0)
(12.2596 0.0150761 0)
(12.2771 0.0149148 0)
(12.2944 0.0147543 0)
(12.3113 0.0145946 0)
(12.3279 0.0144346 0)
(12.3443 0.0142716 0)
(12.3604 0.0141028 0)
(12.3762 0.0139258 0)
(12.3917 0.013739 0)
(12.4069 0.0135413 0)
(12.4218 0.0133312 0)
(12.4364 0.0131062 0)
(12.4506 0.0128626 0)
(12.4645 0.0125962 0)
(12.478 0.0123029 0)
(12.4911 0.01198 0)
(12.5038 0.0116278 0)
(12.5159 0.0112494 0)
(12.5276 0.0108497 0)
(12.5386 0.0104331 0)
(12.549 0.010001 0)
(12.5589 0.00955224 0)
(12.568 0.00908852 0)
(12.5764 0.00861914 0)
(12.5841 0.00815987 0)
(12.591 0.0077259 0)
(12.5971 0.00732593 0)
(12.6025 0.00695993 0)
(12.6073 0.00661933 0)
(12.6115 0.00629274 0)
(12.6151 0.00597951 0)
(12.6182 0.00569941 0)
(12.6208 0.00548407 0)
(12.6231 0.00535035 0)
(12.6252 0.00528436 0)
(12.6273 0.00526458 0)
(12.6292 0.00525917 0)
(12.6312 0.00523527 0)
(12.6331 0.00516637 0)
(12.6349 0.00504156 0)
(12.6367 0.00486996 0)
(12.6383 0.00466953 0)
(12.6398 0.00445585 0)
(12.6414 0.00423675 0)
(12.6429 0.00401241 0)
(12.6442 0.00377874 0)
(12.6454 0.00353367 0)
(12.6464 0.00328212 0)
(12.6471 0.00303657 0)
(12.6475 0.00282574 0)
(12.648 0.00269182 0)
(12.6485 0.00267846 0)
(12.6493 0.00280709 0)
(12.6506 0.0030751 0)
(12.6525 0.00343954 0)
(12.6551 0.00387331 0)
(12.6584 0.00428764 0)
(12.662 0.00467984 0)
(12.6663 0.00490941 0)
(12.6701 0.005131 0)
(12.6752 0.00506239 0)
(12.678 0.00515968 0)
(12.6846 0.00478617 0)
(9.87764 -0.00332569 0)
(9.89024 -0.00983935 0)
(9.91541 -0.0159787 0)
(9.95285 -0.0215354 0)
(10.0014 -0.0263855 0)
(10.0594 -0.0304854 0)
(10.1251 -0.0338264 0)
(10.1969 -0.0364158 0)
(10.2734 -0.0382827 0)
(10.353 -0.0394852 0)
(10.4346 -0.0401037 0)
(10.5169 -0.04022 0)
(10.5989 -0.039907 0)
(10.6798 -0.0392277 0)
(10.759 -0.0382381 0)
(10.8358 -0.0369914 0)
(10.9099 -0.0355403 0)
(10.981 -0.0339357 0)
(11.0489 -0.0322192 0)
(11.1135 -0.0304335 0)
(11.1747 -0.0286241 0)
(11.2327 -0.0268333 0)
(11.2874 -0.0250997 0)
(11.3391 -0.0234589 0)
(11.3879 -0.021939 0)
(11.434 -0.0205588 0)
(11.4775 -0.0193267 0)
(11.5186 -0.0182421 0)
(11.5575 -0.0172981 0)
(11.5944 -0.0164832 0)
(11.6295 -0.0157837 0)
(11.6629 -0.0151849 0)
(11.6948 -0.0146722 0)
(11.7254 -0.0142314 0)
(11.7547 -0.0138491 0)
(11.783 -0.0135145 0)
(11.8103 -0.0132211 0)
(11.8367 -0.0129647 0)
(11.8623 -0.0127392 0)
(11.8872 -0.0125343 0)
(11.9114 -0.0123382 0)
(11.9351 -0.0121418 0)
(11.9582 -0.0119424 0)
(11.9809 -0.0117433 0)
(12.0031 -0.0115512 0)
(12.0248 -0.0113715 0)
(12.0462 -0.0112068 0)
(12.0672 -0.0110567 0)
(12.0879 -0.0109192 0)
(12.1082 -0.0107928 0)
(12.1282 -0.0106766 0)
(12.1478 -0.0105702 0)
(12.1671 -0.0104731 0)
(12.1861 -0.010384 0)
(12.2049 -0.0103009 0)
(12.2233 -0.0102211 0)
(12.2414 -0.0101414 0)
(12.2592 -0.0100584 0)
(12.2768 -0.00996859 0)
(12.294 -0.00986848 0)
(12.311 -0.00975516 0)
(12.3277 -0.0096261 0)
(12.344 -0.00947887 0)
(12.3601 -0.00931223 0)
(12.3759 -0.00912688 0)
(12.3914 -0.00892528 0)
(12.4066 -0.00871101 0)
(12.4215 -0.00848836 0)
(12.4361 -0.00826189 0)
(12.4503 -0.00803565 0)
(12.4642 -0.00781213 0)
(12.4776 -0.00759118 0)
(12.4907 -0.00736949 0)
(12.5033 -0.00714135 0)
(12.5155 -0.00690036 0)
(12.527 -0.00664058 0)
(12.5381 -0.00635686 0)
(12.5485 -0.00604469 0)
(12.5583 -0.00569995 0)
(12.5675 -0.00531885 0)
(12.5759 -0.00490015 0)
(12.5836 -0.00444929 0)
(12.5905 -0.00397993 0)
(12.5967 -0.0035105 0)
(12.6021 -0.00305691 0)
(12.6069 -0.00262505 0)
(12.6111 -0.00221263 0)
(12.6147 -0.00182459 0)
(12.6178 -0.00147902 0)
(12.6205 -0.00119999 0)
(12.6229 -0.00100557 0)
(12.625 -0.000893014 0)
(12.6271 -0.00085479 0)
(12.629 -0.000864338 0)
(12.6309 -0.000885365 0)
(12.6328 -0.000882453 0)
(12.6345 -0.000841495 0)
(12.6361 -0.000778176 0)
(12.6376 -0.000714542 0)
(12.639 -0.000654965 0)
(12.6405 -0.000575316 0)
(12.642 -0.000431172 0)
(12.6434 -0.000177436 0)
(12.6446 0.000201733 0)
(12.6456 0.000661237 0)
(12.6464 0.00114918 0)
(12.647 0.00159082 0)
(12.6475 0.00187483 0)
(12.6482 0.00191522 0)
(12.6491 0.00168862 0)
(12.6505 0.00121389 0)
(12.6526 0.000556552 0)
(12.6552 -0.000189188 0)
(12.6585 -0.000883824 0)
(12.6621 -0.0014647 0)
(12.6664 -0.00178154 0)
(12.6701 -0.001987 0)
(12.6751 -0.00179418 0)
(12.6778 -0.00178663 0)
(12.6843 -0.00113483 0)
(9.87767 -0.010129 0)
(9.89079 -0.0300123 0)
(9.91696 -0.048768 0)
(9.95574 -0.065727 0)
(10.0058 -0.0805095 0)
(10.0654 -0.0929833 0)
(10.1327 -0.103116 0)
(10.2061 -0.110919 0)
(10.284 -0.116475 0)
(10.365 -0.119973 0)
(10.4478 -0.121671 0)
(10.5311 -0.121847 0)
(10.6141 -0.120756 0)
(10.6958 -0.118619 0)
(10.7757 -0.115629 0)
(10.8532 -0.111959 0)
(10.9279 -0.107769 0)
(10.9994 -0.103198 0)
(11.0677 -0.0983672 0)
(11.1326 -0.0933744 0)
(11.1941 -0.0883085 0)
(11.2522 -0.0832527 0)
(11.3071 -0.0782853 0)
(11.3588 -0.0734774 0)
(11.4076 -0.0688877 0)
(11.4536 -0.0645574 0)
(11.497 -0.0605105 0)
(11.5381 -0.0567572 0)
(11.577 -0.0532984 0)
(11.6139 -0.0501297 0)
(11.6489 -0.0472418 0)
(11.6824 -0.0446218 0)
(11.7143 -0.0422534 0)
(11.745 -0.040118 0)
(11.7744 -0.0381956 0)
(11.8027 -0.0364664 0)
(11.83 -0.0349119 0)
(11.8565 -0.0335152 0)
(11.8822 -0.0322593 0)
(11.9072 -0.0311256 0)
(11.9315 -0.0300955 0)
(11.9552 -0.0291531 0)
(11.9784 -0.0282872 0)
(12.0011 -0.027491 0)
(12.0234 -0.0267597 0)
(12.0452 -0.0260876 0)
(12.0666 -0.0254675 0)
(12.0876 -0.0248915 0)
(12.1083 -0.0243535 0)
(12.1286 -0.0238504 0)
(12.1485 -0.02338 0)
(12.1681 -0.0229379 0)
(12.1874 -0.0225163 0)
(12.2064 -0.0221064 0)
(12.2251 -0.0217027 0)
(12.2435 -0.021304 0)
(12.2615 -0.0209123 0)
(12.2793 -0.020529 0)
(12.2968 -0.0201522 0)
(12.3139 -0.0197777 0)
(12.3308 -0.0194028 0)
(12.3473 -0.019028 0)
(12.3636 -0.0186555 0)
(12.3795 -0.0182856 0)
(12.3952 -0.0179136 0)
(12.4105 -0.0175305 0)
(12.4255 -0.0171264 0)
(12.4402 -0.0166965 0)
(12.4545 -0.0162442 0)
(12.4685 -0.0157767 0)
(12.4821 -0.0152973 0)
(12.4953 -0.0147985 0)
(12.5082 -0.0142626 0)
(12.5205 -0.0136708 0)
(12.5324 -0.0130138 0)
(12.5438 -0.0122955 0)
(12.5546 -0.0115274 0)
(12.5649 -0.0107172 0)
(12.5745 -0.00986061 0)
(12.5835 -0.00894125 0)
(12.5917 -0.00794243 0)
(12.5991 -0.00686785 0)
(12.6058 -0.00575299 0)
(12.6118 -0.00465253 0)
(12.6171 -0.00361445 0)
(12.6217 -0.00266412 0)
(12.6256 -0.00180084 0)
(12.6289 -0.0010005 0)
(12.6316 -0.000248993 0)
(12.6339 0.000416478 0)
(12.6359 0.00093073 0)
(12.6378 0.00125314 0)
(12.6395 0.0013895 0)
(12.6412 0.00141243 0)
(12.6428 0.00141059 0)
(12.6444 0.00143063 0)
(12.6459 0.00146678 0)
(12.6474 0.00147286 0)
(12.6488 0.00139892 0)
(12.6504 0.00123159 0)
(12.652 0.00100939 0)
(12.6535 0.000807749 0)
(12.6549 0.000703044 0)
(12.6559 0.000744894 0)
(12.6566 0.000950665 0)
(12.657 0.00124231 0)
(12.6573 0.00147699 0)
(12.6576 0.00153074 0)
(12.6582 0.00132075 0)
(12.6593 0.00079331 0)
(12.6609 1.39803e-05 0)
(12.6629 -0.000887106 0)
(12.6654 -0.0017734 0)
(12.6681 -0.0025543 0)
(12.6708 -0.00314074 0)
(12.6737 -0.00347572 0)
(12.676 -0.00363197 0)
(12.6788 -0.00347969 0)
(12.6804 -0.0034256 0)
(12.6839 -0.00293447 0)
(9.87771 -0.0171851 0)
(9.89185 -0.0509347 0)
(9.92005 -0.0828066 0)
(9.96159 -0.111681 0)
(10.0148 -0.136945 0)
(10.0777 -0.158324 0)
(10.1484 -0.175667 0)
(10.2253 -0.188928 0)
(10.3067 -0.198248 0)
(10.3911 -0.203962 0)
(10.4771 -0.206515 0)
(10.5634 -0.206393 0)
(10.6491 -0.204058 0)
(10.7333 -0.19994 0)
(10.8155 -0.194444 0)
(10.895 -0.187943 0)
(10.9714 -0.180762 0)
(11.0443 -0.173169 0)
(11.1137 -0.165375 0)
(11.1794 -0.15754 0)
(11.2413 -0.149785 0)
(11.2997 -0.142209 0)
(11.3544 -0.134891 0)
(11.4058 -0.12789 0)
(11.4539 -0.121247 0)
(11.499 -0.114987 0)
(11.5414 -0.109122 0)
(11.5811 -0.103656 0)
(11.6185 -0.0985884 0)
(11.6537 -0.0939137 0)
(11.6869 -0.0896235 0)
(11.7183 -0.0857037 0)
(11.7481 -0.0821329 0)
(11.7765 -0.0788845 0)
(11.8035 -0.0759303 0)
(11.8293 -0.0732448 0)
(11.8541 -0.0708062 0)
(11.8778 -0.0685938 0)
(11.9007 -0.066584 0)
(11.9228 -0.0647499 0)
(11.9441 -0.0630644 0)
(11.9647 -0.0615049 0)
(11.9846 -0.0600552 0)
(12.004 -0.0587031 0)
(12.0228 -0.0574371 0)
(12.0411 -0.0562445 0)
(12.0589 -0.0551146 0)
(12.0761 -0.0540406 0)
(12.093 -0.0530181 0)
(12.1093 -0.0520438 0)
(12.1252 -0.0511129 0)
(12.1407 -0.0502184 0)
(12.1558 -0.0493515 0)
(12.1705 -0.0485033 0)
(12.1848 -0.0476663 0)
(12.1987 -0.0468345 0)
(12.2122 -0.046003 0)
(12.2253 -0.0451681 0)
(12.238 -0.0443277 0)
(12.2504 -0.0434822 0)
(12.2624 -0.0426347 0)
(12.274 -0.0417893 0)
(12.2853 -0.0409483 0)
(12.2963 -0.0401098 0)
(12.307 -0.039267 0)
(12.3173 -0.0384106 0)
(12.3273 -0.0375323 0)
(12.337 -0.0366288 0)
(12.3463 -0.0357022 0)
(12.3553 -0.0347564 0)
(12.3639 -0.0337905 0)
(12.3722 -0.0327926 0)
(12.3802 -0.0317402 0)
(12.3878 -0.0306094 0)
(12.395 -0.0293851 0)
(12.4018 -0.0280632 0)
(12.4081 -0.0266429 0)
(12.4141 -0.0251219 0)
(12.4195 -0.0234974 0)
(12.4245 -0.0217685 0)
(12.429 -0.019943 0)
(12.433 -0.0180487 0)
(12.4366 -0.0161323 0)
(12.4398 -0.0142452 0)
(12.4424 -0.0124337 0)
(12.4446 -0.0107373 0)
(12.4464 -0.00918823 0)
(12.4479 -0.00781811 0)
(12.4492 -0.00666122 0)
(12.4504 -0.00574705 0)
(12.4515 -0.00509374 0)
(12.4525 -0.0046915 0)
(12.4535 -0.00447335 0)
(12.4545 -0.00434025 0)
(12.4556 -0.00418808 0)
(12.4567 -0.00397597 0)
(12.4578 -0.00374797 0)
(12.4591 -0.00357638 0)
(12.4605 -0.0034978 0)
(12.462 -0.0034649 0)
(12.4634 -0.00335018 0)
(12.4647 -0.00300758 0)
(12.4659 -0.00236362 0)
(12.4669 -0.00147043 0)
(12.4679 -0.000478211 0)
(12.4689 0.000368314 0)
(12.47 0.000822874 0)
(12.4713 0.000741904 0)
(12.4728 0.00011336 0)
(12.4742 -0.000996604 0)
(12.4756 -0.00237945 0)
(12.4767 -0.00386332 0)
(12.4774 -0.00515212 0)
(12.4776 -0.00620304 0)
(12.4774 -0.00672776 0)
(12.4768 -0.00696778 0)
(12.4761 -0.00667103 0)
(12.4751 -0.0063107 0)
(12.4746 -0.00572903 0)
(12.474 -0.00513988 0)
(9.87778 -0.0245227 0)
(9.89346 -0.0719263 0)
(9.92496 -0.115963 0)
(9.97153 -0.155811 0)
(10.0313 -0.191162 0)
(10.1022 -0.221601 0)
(10.1819 -0.246659 0)
(10.2682 -0.266122 0)
(10.3584 -0.280138 0)
(10.4502 -0.289074 0)
(10.5413 -0.293383 0)
(10.6302 -0.2936 0)
(10.7154 -0.290239 0)
(10.7961 -0.283835 0)
(10.8716 -0.274965 0)
(10.9415 -0.264214 0)
(11.0056 -0.252131 0)
(11.0638 -0.239196 0)
(11.1164 -0.225826 0)
(11.1636 -0.212372 0)
(11.2056 -0.199124 0)
(11.2428 -0.186308 0)
(11.2755 -0.174089 0)
(11.3041 -0.162582 0)
(11.3289 -0.151855 0)
(11.3503 -0.141944 0)
(11.3686 -0.132855 0)
(11.3841 -0.124574 0)
(11.3971 -0.117074 0)
(11.4079 -0.110316 0)
(11.4166 -0.104253 0)
(11.4235 -0.0988294 0)
(11.4288 -0.0939854 0)
(11.4327 -0.0896621 0)
(11.4352 -0.0858027 0)
(11.4366 -0.0823532 0)
(11.4369 -0.0792605 0)
(11.4363 -0.0764835 0)
(11.4348 -0.0739863 0)
(11.4326 -0.0717335 0)
(11.4296 -0.0696894 0)
(11.426 -0.0678193 0)
(11.4218 -0.0660912 0)
(11.4171 -0.0644792 0)
(11.4118 -0.0629631 0)
(11.4061 -0.0615298 0)
(11.3999 -0.0601695 0)
(11.3934 -0.0588711 0)
(11.3864 -0.0576222 0)
(11.3791 -0.056414 0)
(11.3715 -0.0552449 0)
(11.3636 -0.0541164 0)
(11.3554 -0.0530261 0)
(11.347 -0.0519648 0)
(11.3383 -0.0509206 0)
(11.3295 -0.0498861 0)
(11.3205 -0.0488602 0)
(11.3113 -0.0478447 0)
(11.302 -0.0468401 0)
(11.2926 -0.0458433 0)
(11.2831 -0.0448481 0)
(11.2736 -0.0438476 0)
(11.2641 -0.0428355 0)
(11.2545 -0.0418064 0)
(11.2448 -0.040755 0)
(11.2352 -0.0396764 0)
(11.2256 -0.0385662 0)
(11.2161 -0.0374254 0)
(11.2066 -0.036262 0)
(11.1971 -0.0350842 0)
(11.1878 -0.0338924 0)
(11.1785 -0.0326732 0)
(11.1694 -0.031403 0)
(11.1604 -0.0300594 0)
(11.1517 -0.0286298 0)
(11.1432 -0.0271073 0)
(11.1349 -0.0254849 0)
(11.127 -0.0237599 0)
(11.1193 -0.0219416 0)
(11.1121 -0.0200426 0)
(11.1052 -0.0180606 0)
(11.0988 -0.0159827 0)
(11.0928 -0.0138176 0)
(11.0871 -0.0116157 0)
(11.0819 -0.00945055 0)
(11.077 -0.00739258 0)
(11.0726 -0.00550732 0)
(11.0685 -0.00386313 0)
(11.0649 -0.00250424 0)
(11.0617 -0.00143305 0)
(11.059 -0.000661786 0)
(11.0566 -0.00022844 0)
(11.0545 -0.000124875 0)
(11.0526 -0.000261512 0)
(11.051 -0.00053314 0)
(11.0498 -0.000852866 0)
(11.0488 -0.00118391 0)
(11.048 -0.00152598 0)
(11.0474 -0.00187445 0)
(11.0467 -0.00219586 0)
(11.0461 -0.00243487 0)
(11.0455 -0.00254471 0)
(11.0452 -0.00251511 0)
(11.0451 -0.00238466 0)
(11.0455 -0.00224159 0)
(11.0463 -0.00213876 0)
(11.0473 -0.00206794 0)
(11.0485 -0.00203262 0)
(11.0495 -0.00203955 0)
(11.05 -0.00208926 0)
(11.0499 -0.0021457 0)
(11.049 -0.00224626 0)
(11.0476 -0.0022642 0)
(11.0455 -0.00231135 0)
(11.0434 -0.0021588 0)
(11.0408 -0.00222066 0)
(11.0387 -0.00195319 0)
(11.0359 -0.00224266 0)
(11.0347 -0.00187513 0)
(11.0317 -0.00261882 0)
(9.8788 -0.041414 0)
(9.90934 -0.114872 0)
(9.96287 -0.178073 0)
(10.0309 -0.233257 0)
(10.1048 -0.281204 0)
(10.1766 -0.321048 0)
(10.2404 -0.352089 0)
(10.2919 -0.374456 0)
(10.3286 -0.388982 0)
(10.3496 -0.3966 0)
(10.3558 -0.398242 0)
(10.3478 -0.394844 0)
(10.3275 -0.387205 0)
(10.2965 -0.376087 0)
(10.2565 -0.362247 0)
(10.2091 -0.34638 0)
(10.1557 -0.329101 0)
(10.0979 -0.310928 0)
(10.0367 -0.292311 0)
(9.97319 -0.273635 0)
(9.90822 -0.255215 0)
(9.8425 -0.237315 0)
(9.77657 -0.220128 0)
(9.71091 -0.203786 0)
(9.64585 -0.188384 0)
(9.58167 -0.173971 0)
(9.51857 -0.160568 0)
(9.45667 -0.148171 0)
(9.39609 -0.136761 0)
(9.33688 -0.126308 0)
(9.27907 -0.11677 0)
(9.22267 -0.108091 0)
(9.16768 -0.10021 0)
(9.11406 -0.0930623 0)
(9.0618 -0.0865824 0)
(9.01085 -0.0807087 0)
(8.96118 -0.0753836 0)
(8.91275 -0.0705427 0)
(8.8655 -0.0661276 0)
(8.81942 -0.062086 0)
(8.77449 -0.0583733 0)
(8.73067 -0.0549574 0)
(8.68794 -0.0518123 0)
(8.64628 -0.048915 0)
(8.60566 -0.0462456 0)
(8.56607 -0.0437866 0)
(8.52749 -0.0415203 0)
(8.4899 -0.0394281 0)
(8.45329 -0.0374913 0)
(8.41763 -0.035692 0)
(8.3829 -0.0340136 0)
(8.34909 -0.0324405 0)
(8.31617 -0.0309589 0)
(8.28413 -0.0295571 0)
(8.25293 -0.028226 0)
(8.22257 -0.0269588 0)
(8.19305 -0.0257504 0)
(8.16435 -0.0245973 0)
(8.13648 -0.0234986 0)
(8.10944 -0.0224553 0)
(8.08322 -0.0214696 0)
(8.05785 -0.0205428 0)
(8.03332 -0.0196751 0)
(8.00965 -0.0188619 0)
(7.98685 -0.0180965 0)
(7.9649 -0.0173679 0)
(7.94382 -0.0166643 0)
(7.9236 -0.0159742 0)
(7.90423 -0.0152892 0)
(7.88569 -0.0146054 0)
(7.86798 -0.0139205 0)
(7.85108 -0.0132291 0)
(7.83499 -0.0125208 0)
(7.81972 -0.0117832 0)
(7.80528 -0.0110081 0)
(7.7917 -0.0101955 0)
(7.77901 -0.0093506 0)
(7.76725 -0.00847974 0)
(7.75646 -0.007586 0)
(7.74668 -0.00666652 0)
(7.73792 -0.00571316 0)
(7.73024 -0.00472304 0)
(7.72365 -0.00371603 0)
(7.71818 -0.00274189 0)
(7.7138 -0.00186771 0)
(7.71044 -0.00115749 0)
(7.70799 -0.000656796 0)
(7.70631 -0.000381342 0)
(7.70523 -0.000315408 0)
(7.70459 -0.000417064 0)
(7.70424 -0.00062798 0)
(7.70404 -0.000901266 0)
(7.70387 -0.00121539 0)
(7.70356 -0.00155057 0)
(7.70304 -0.00187178 0)
(7.7023 -0.00214749 0)
(7.70137 -0.002353 0)
(7.70029 -0.00247663 0)
(7.69908 -0.00251087 0)
(7.69777 -0.0024459 0)
(7.69641 -0.00227398 0)
(7.69506 -0.00199815 0)
(7.69378 -0.00163959 0)
(7.69262 -0.00123632 0)