/*--------------------------------*- C++ -*----------------------------------*\
  =========                 |
  \\      /  F ield         | OpenFOAM: The Open Source CFD Toolbox
   \\    /   O peration     | Website:  https://openfoam.org
    \\  /    A nd           | Version:  7
     \\/     M anipulation  |
\*---------------------------------------------------------------------------*/
FoamFile
{
    version     2.0;
    format      ascii;
    class       surfaceScalarField;
    location    "0.0175";
    object      phi;
}
// * * * * * * * * * * * * * * * * * * * * * * * * * * * * * * * * * * * * * //

dimensions      [1 0 -1 0 0 0 0];

internalField   nonuniform List<scalar> 
2748
(
1.07685e-05
5.20012e-08
1.06218e-05
1.44358e-07
1.03968e-05
2.22087e-07
1.01083e-05
2.85136e-07
9.77107e-06
3.33596e-07
9.39975e-06
3.67394e-07
9.00838e-06
3.87441e-07
8.60927e-06
3.9543e-07
8.21238e-06
3.938e-07
7.82557e-06
3.84716e-07
7.45401e-06
3.70733e-07
7.10063e-06
3.53973e-07
6.76777e-06
3.35007e-07
6.4571e-06
3.14229e-07
6.16893e-06
2.92647e-07
5.90267e-06
2.70708e-07
5.65702e-06
2.48807e-07
5.43032e-06
2.27223e-07
5.22125e-06
2.0613e-07
5.02875e-06
1.85732e-07
4.8521e-06
1.66334e-07
4.6917e-06
1.48372e-07
4.54962e-06
1.32375e-07
4.42806e-06
1.18646e-07
4.32674e-06
1.06951e-07
4.24198e-06
9.65996e-08
4.16862e-06
8.68285e-08
4.10277e-06
7.71718e-08
4.04304e-06
6.75534e-08
3.99e-06
5.80834e-08
3.94479e-06
4.88831e-08
3.90814e-06
4.00831e-08
3.87998e-06
3.1877e-08
3.8595e-06
2.45642e-08
3.84539e-06
1.84694e-08
3.83617e-06
1.3713e-08
3.83051e-06
1.01648e-08
3.82724e-06
7.6789e-09
3.82528e-06
6.21407e-09
3.82368e-06
5.67023e-09
3.82174e-06
5.83624e-09
3.81904e-06
6.39825e-09
3.81555e-06
6.97654e-09
3.81157e-06
7.2322e-09
3.80755e-06
6.99514e-09
3.80389e-06
6.32647e-09
3.80078e-06
5.47644e-09
3.79813e-06
4.7654e-09
3.79564e-06
4.44117e-09
3.79296e-06
4.57399e-09
3.78988e-06
5.05071e-09
3.78633e-06
5.67667e-09
3.78238e-06
6.2858e-09
3.77818e-06
6.78028e-09
3.77388e-06
7.12317e-09
3.76963e-06
7.31664e-09
3.76552e-06
7.38639e-09
3.76159e-06
7.36843e-09
3.75789e-06
7.29179e-09
3.7544e-06
7.18172e-09
3.75111e-06
7.06167e-09
3.748e-06
6.95043e-09
3.74501e-06
6.8593e-09
3.74212e-06
6.7917e-09
3.73928e-06
6.7458e-09
3.73647e-06
6.71705e-09
3.73368e-06
6.70055e-09
3.7309e-06
6.6923e-09
3.72811e-06
6.68889e-09
3.72531e-06
6.68829e-09
3.7225e-06
6.69003e-09
3.71968e-06
6.69333e-09
3.71685e-06
6.69764e-09
3.714e-06
6.70272e-09
3.71113e-06
6.70854e-09
3.70825e-06
6.71484e-09
3.70536e-06
6.72151e-09
3.70245e-06
6.72835e-09
3.69952e-06
6.73531e-09
3.69658e-06
6.74215e-09
3.69362e-06
6.74889e-09
3.69065e-06
6.75544e-09
3.68766e-06
6.76163e-09
3.68466e-06
6.7677e-09
3.68165e-06
6.77353e-09
3.67862e-06
6.77901e-09
3.67557e-06
6.78417e-09
3.67251e-06
6.78909e-09
3.66944e-06
6.79364e-09
3.66636e-06
6.79794e-09
3.66326e-06
6.80195e-09
3.66015e-06
6.80562e-09
3.65703e-06
6.80909e-09
3.65389e-06
6.81213e-09
3.65075e-06
6.81494e-09
3.64759e-06
6.81736e-09
3.64442e-06
6.81961e-09
3.64124e-06
6.82145e-09
3.63805e-06
6.82325e-09
3.63485e-06
6.8244e-09
3.63163e-06
6.82595e-09
3.62841e-06
6.82666e-09
3.62518e-06
6.82795e-09
3.62193e-06
6.82831e-09
3.61868e-06
6.82946e-09
3.61542e-06
6.82981e-09
3.61215e-06
6.83058e-09
3.60886e-06
6.8314e-09
3.60557e-06
6.83113e-09
3.60227e-06
6.83243e-09
3.59896e-06
6.82894e-09
3.59564e-06
6.82957e-09
3.59232e-06
6.81903e-09
3.589e-06
6.8128e-09
3.5857e-06
6.78745e-09
3.58241e-06
6.75223e-09
3.57918e-06
6.70111e-09
3.57608e-06
6.55176e-09
3.57303e-06
6.49288e-09
6.02632e-09
1.08405e-05
3.17991e-08
1.08865e-05
9.6029e-08
1.09508e-05
1.5486e-07
1.10257e-05
2.06995e-07
1.11027e-05
2.52965e-07
1.11739e-05
2.92256e-07
1.12335e-05
3.23859e-07
1.12779e-05
3.47201e-07
1.13055e-05
3.62593e-07
1.13163e-05
3.70861e-07
1.13116e-05
3.73192e-07
1.12933e-05
3.70856e-07
1.12632e-05
3.64671e-07
1.12229e-05
3.55186e-07
1.11744e-05
3.4295e-07
1.11196e-05
3.28504e-07
1.10597e-05
3.12397e-07
1.0996e-05
2.95148e-07
1.0929e-05
2.7724e-07
1.08592e-05
2.59169e-07
1.0787e-05
2.4145e-07
1.07126e-05
2.24531e-07
1.06364e-05
2.08748e-07
1.05591e-05
1.94236e-07
1.04823e-05
1.80865e-07
1.04068e-05
1.68312e-07
1.03331e-05
1.56235e-07
1.02608e-05
1.4444e-07
1.01894e-05
1.3287e-07
1.0119e-05
1.21459e-07
1.00508e-05
1.1009e-07
9.98609e-06
9.8714e-08
9.92574e-06
8.74581e-08
9.87011e-06
7.66755e-08
9.81949e-06
6.68413e-08
9.77449e-06
5.82867e-08
9.73607e-06
5.08477e-08
9.70503e-06
4.43274e-08
9.68124e-06
3.88776e-08
9.66389e-06
3.44752e-08
9.65185e-06
3.10656e-08
9.64412e-06
2.84521e-08
9.64014e-06
2.62026e-08
9.63965e-06
2.3792e-08
9.64229e-06
2.08553e-08
9.64725e-06
1.74063e-08
9.65313e-06
1.38901e-08
9.65809e-06
1.10049e-08
9.66025e-06
9.36691e-09
9.65817e-06
9.21027e-09
9.65123e-06
1.03063e-08
9.6397e-06
1.21345e-08
9.62458e-06
1.41293e-08
9.60724e-06
1.58365e-08
9.5891e-06
1.69775e-08
9.57143e-06
1.74636e-08
9.55511e-06
1.73702e-08
9.54068e-06
1.68559e-08
9.52833e-06
1.608e-08
9.51804e-06
1.52077e-08
9.50956e-06
1.43817e-08
9.50257e-06
1.36962e-08
9.49673e-06
1.31886e-08
9.49173e-06
1.28504e-08
9.48729e-06
1.26483e-08
9.48324e-06
1.2542e-08
9.47942e-06
1.24958e-08
9.47575e-06
1.24835e-08
9.47217e-06
1.24876e-08
9.46862e-06
1.24983e-08
9.4651e-06
1.25114e-08
9.46158e-06
1.2525e-08
9.45805e-06
1.25386e-08
9.45451e-06
1.25521e-08
9.45096e-06
1.2566e-08
9.4474e-06
1.25802e-08
9.44381e-06
1.25947e-08
9.44021e-06
1.26093e-08
9.43659e-06
1.2624e-08
9.43296e-06
1.26385e-08
9.42931e-06
1.26526e-08
9.42565e-06
1.26662e-08
9.42197e-06
1.26792e-08
9.41827e-06
1.26916e-08
9.41456e-06
1.27033e-08
9.41084e-06
1.27145e-08
9.40711e-06
1.27248e-08
9.40336e-06
1.27346e-08
9.3996e-06
1.27435e-08
9.39583e-06
1.27517e-08
9.39205e-06
1.27592e-08
9.38826e-06
1.2766e-08
9.38446e-06
1.27722e-08
9.38065e-06
1.27775e-08
9.37683e-06
1.27823e-08
9.373e-06
1.2786e-08
9.36916e-06
1.27894e-08
9.36531e-06
1.27919e-08
9.36146e-06
1.27941e-08
9.3576e-06
1.27951e-08
9.35373e-06
1.27964e-08
9.34986e-06
1.27964e-08
9.34598e-06
1.27971e-08
9.34209e-06
1.27965e-08
9.33819e-06
1.27967e-08
9.33429e-06
1.27958e-08
9.33038e-06
1.27956e-08
9.32647e-06
1.27948e-08
9.32255e-06
1.27945e-08
9.31862e-06
1.27922e-08
9.31469e-06
1.27917e-08
9.31075e-06
1.27806e-08
9.30681e-06
1.27823e-08
9.30288e-06
1.2738e-08
9.29892e-06
1.27516e-08
9.29505e-06
1.26102e-08
9.29108e-06
1.26534e-08
9.28734e-06
1.2268e-08
9.28346e-06
1.23366e-08
1.1494e-08
1.08293e-05
2.27307e-08
1.08545e-05
6.84461e-08
1.08955e-05
1.11015e-07
1.09503e-05
1.48908e-07
1.10176e-05
1.81918e-07
1.10959e-05
2.1007e-07
1.11827e-05
2.33119e-07
1.12752e-05
2.50839e-07
1.13708e-05
2.63397e-07
1.14672e-05
2.71322e-07
1.15627e-05
2.75284e-07
1.16559e-05
2.76011e-07
1.17457e-05
2.74088e-07
1.18313e-05
2.69804e-07
1.1912e-05
2.63359e-07
1.19877e-05
2.55066e-07
1.20581e-05
2.45321e-07
1.21229e-05
2.34524e-07
1.21817e-05
2.2304e-07
1.22343e-05
2.11199e-07
1.22811e-05
1.99338e-07
1.23225e-05
1.87769e-07
1.23588e-05
1.76768e-07
1.23901e-05
1.66514e-07
1.24157e-05
1.56982e-07
1.24357e-05
1.47949e-07
1.24503e-05
1.39147e-07
1.24604e-05
1.30422e-07
1.24665e-05
1.21749e-07
1.24686e-05
1.13108e-07
1.2466e-05
1.04374e-07
1.24584e-05
9.54171e-08
1.24465e-05
8.62813e-08
1.24319e-05
7.7241e-08
1.2417e-05
6.87239e-08
1.24034e-05
6.10566e-08
1.23912e-05
5.42158e-08
1.23798e-05
4.81337e-08
1.23687e-05
4.29024e-08
1.23587e-05
3.83398e-08
1.23522e-05
3.43425e-08
1.23518e-05
3.08436e-08
1.23585e-05
2.77168e-08
1.23714e-05
2.47521e-08
1.23884e-05
2.16804e-08
1.24071e-05
1.83359e-08
1.24268e-05
1.48183e-08
1.24481e-05
1.15317e-08
1.24724e-05
9.05511e-09
1.24999e-05
7.89735e-09
1.25289e-05
8.28185e-09
1.25561e-05
1.00802e-08
1.25775e-05
1.28701e-08
1.25896e-05
1.60523e-08
1.25906e-05
1.9001e-08
1.2581e-05
2.1206e-08
1.25626e-05
2.23756e-08
1.25385e-05
2.24742e-08
1.2512e-05
2.16827e-08
1.24859e-05
2.03167e-08
1.2462e-05
1.87182e-08
1.24415e-05
1.71655e-08
1.24248e-05
1.58306e-08
1.24116e-05
1.4786e-08
1.24016e-05
1.40341e-08
1.23942e-05
1.35363e-08
1.23888e-05
1.32359e-08
1.2385e-05
1.30712e-08
1.23822e-05
1.29879e-08
1.23802e-05
1.2949e-08
1.23788e-05
1.29346e-08
1.23777e-05
1.29336e-08
1.23769e-05
1.29404e-08
1.23762e-05
1.29517e-08
1.23756e-05
1.29659e-08
1.2375e-05
1.29818e-08
1.23745e-05
1.2999e-08
1.2374e-05
1.30165e-08
1.23735e-05
1.30344e-08
1.2373e-05
1.30521e-08
1.23724e-05
1.30695e-08
1.23719e-05
1.30865e-08
1.23713e-05
1.31028e-08
1.23708e-05
1.31185e-08
1.23702e-05
1.31334e-08
1.23696e-05
1.31477e-08
1.2369e-05
1.31609e-08
1.23684e-05
1.31737e-08
1.23678e-05
1.31853e-08
1.23671e-05
1.31963e-08
1.23665e-05
1.32066e-08
1.23658e-05
1.3216e-08
1.23652e-05
1.3225e-08
1.23645e-05
1.32327e-08
1.23639e-05
1.32401e-08
1.23632e-05
1.32464e-08
1.23625e-05
1.32524e-08
1.23618e-05
1.32573e-08
1.23611e-05
1.32621e-08
1.23604e-05
1.32659e-08
1.23597e-05
1.32698e-08
1.2359e-05
1.32728e-08
1.23582e-05
1.32763e-08
1.23575e-05
1.3279e-08
1.23568e-05
1.32826e-08
1.2356e-05
1.32855e-08
1.23552e-05
1.32901e-08
1.23545e-05
1.32937e-08
1.23537e-05
1.33005e-08
1.23529e-05
1.33028e-08
1.23521e-05
1.33137e-08
1.23513e-05
1.33068e-08
1.23504e-05
1.33258e-08
1.23496e-05
1.3286e-08
1.23487e-05
1.33204e-08
1.23478e-05
1.31895e-08
1.23469e-05
1.32476e-08
1.2346e-05
1.2908e-08
1.2345e-05
1.30126e-08
1.23017e-08
1.08281e-05
1.47471e-08
1.08502e-05
4.40378e-08
1.08865e-05
7.18416e-08
1.09352e-05
9.68856e-08
1.09947e-05
1.18717e-07
1.10636e-05
1.37303e-07
1.11402e-05
1.526e-07
1.12226e-05
1.64513e-07
1.13093e-05
1.73104e-07
1.13989e-05
1.78671e-07
1.14901e-05
1.81617e-07
1.15821e-05
1.82396e-07
1.16741e-05
1.81366e-07
1.17654e-05
1.7873e-07
1.18552e-05
1.74664e-07
1.19431e-05
1.69422e-07
1.20286e-05
1.63277e-07
1.21109e-05
1.56415e-07
1.21895e-05
1.49112e-07
1.22637e-05
1.41592e-07
1.23334e-05
1.34094e-07
1.23991e-05
1.2684e-07
1.24607e-05
1.19974e-07
1.2518e-05
1.13565e-07
1.25699e-05
1.07587e-07
1.26161e-05
1.01895e-07
1.26566e-05
9.63163e-08
1.26925e-05
9.07419e-08
1.27248e-05
8.51513e-08
1.27534e-05
7.95379e-08
1.27768e-05
7.38328e-08
1.27937e-05
6.79346e-08
1.28039e-05
6.18399e-08
1.2809e-05
5.57188e-08
1.28119e-05
4.98624e-08
1.28151e-05
4.4554e-08
1.28189e-05
3.98947e-08
1.28219e-05
3.58037e-08
1.28226e-05
3.21744e-08
1.28212e-05
2.88724e-08
1.28202e-05
2.58728e-08
1.2823e-05
2.32149e-08
1.28325e-05
2.08942e-08
1.28489e-05
1.88984e-08
1.28698e-05
1.70418e-08
1.28925e-05
1.5094e-08
1.2915e-05
1.29391e-08
1.29379e-05
1.0707e-08
1.29628e-05
8.78623e-09
1.29915e-05
7.65908e-09
1.30241e-05
7.68661e-09
1.30581e-05
8.96372e-09
1.30895e-05
1.12721e-08
1.31139e-05
1.41359e-08
1.31279e-05
1.69674e-08
1.31303e-05
1.92296e-08
1.31216e-05
2.05673e-08
1.31044e-05
2.08764e-08
1.30816e-05
2.02764e-08
1.30565e-05
1.90339e-08
1.30317e-05
1.74662e-08
1.30092e-05
1.58559e-08
1.29899e-05
1.4398e-08
1.29744e-05
1.3195e-08
1.29624e-05
1.22754e-08
1.29536e-05
1.1619e-08
1.29474e-05
1.118e-08
1.29434e-05
1.0903e-08
1.2941e-05
1.07365e-08
1.29398e-05
1.06402e-08
1.29394e-05
1.05876e-08
1.29397e-05
1.05611e-08
1.29403e-05
1.05499e-08
1.29413e-05
1.05475e-08
1.29424e-05
1.05508e-08
1.29436e-05
1.05576e-08
1.29449e-05
1.05666e-08
1.29462e-05
1.05769e-08
1.29475e-05
1.05879e-08
1.29489e-05
1.05992e-08
1.29502e-05
1.06105e-08
1.29515e-05
1.06216e-08
1.29529e-05
1.06323e-08
1.29542e-05
1.06426e-08
1.29555e-05
1.06524e-08
1.29568e-05
1.06618e-08
1.29581e-05
1.06704e-08
1.29594e-05
1.06786e-08
1.29608e-05
1.06862e-08
1.29621e-05
1.06933e-08
1.29634e-05
1.06999e-08
1.29647e-05
1.07059e-08
1.2966e-05
1.07116e-08
1.29672e-05
1.07166e-08
1.29685e-05
1.07212e-08
1.29698e-05
1.07252e-08
1.29711e-05
1.0729e-08
1.29724e-05
1.07323e-08
1.29737e-05
1.07354e-08
1.29749e-05
1.07381e-08
1.29762e-05
1.07409e-08
1.29775e-05
1.07436e-08
1.29787e-05
1.07468e-08
1.298e-05
1.07501e-08
1.29813e-05
1.07545e-08
1.29825e-05
1.07595e-08
1.29837e-05
1.07665e-08
1.2985e-05
1.07739e-08
1.29862e-05
1.07857e-08
1.29874e-05
1.07954e-08
1.29886e-05
1.08147e-08
1.29898e-05
1.08225e-08
1.29909e-05
1.0853e-08
1.2992e-05
1.08453e-08
1.29931e-05
1.08894e-08
1.29942e-05
1.08342e-08
1.29952e-05
1.08894e-08
1.2996e-05
1.07285e-08
1.29969e-05
1.07764e-08
1.04534e-08
1.08276e-05
7.25747e-09
1.08476e-05
2.16383e-08
1.08812e-05
3.53998e-08
1.09268e-05
4.79107e-08
1.0983e-05
5.88541e-08
1.10483e-05
6.81772e-08
1.1121e-05
7.58987e-08
1.11997e-05
8.19999e-08
1.12827e-05
8.6492e-08
1.13688e-05
8.94959e-08
1.14568e-05
9.11873e-08
1.15458e-05
9.17758e-08
1.16351e-05
9.1448e-08
1.17237e-05
9.03246e-08
1.1811e-05
8.84875e-08
1.18967e-05
8.60249e-08
1.19803e-05
8.30804e-08
1.20613e-05
7.97935e-08
1.21387e-05
7.63078e-08
1.22121e-05
7.27639e-08
1.22814e-05
6.92984e-08
1.23469e-05
6.60316e-08
1.24088e-05
6.29621e-08
1.24666e-05
6.01128e-08
1.25191e-05
5.74811e-08
1.25658e-05
5.49849e-08
1.2607e-05
5.25141e-08
1.26439e-05
4.99891e-08
1.26775e-05
4.73712e-08
1.27075e-05
4.4635e-08
1.27324e-05
4.17439e-08
1.27506e-05
3.86638e-08
1.27621e-05
3.54175e-08
1.27689e-05
3.21132e-08
1.2774e-05
2.89159e-08
1.27797e-05
2.60008e-08
1.2786e-05
2.34471e-08
1.27911e-05
2.12015e-08
1.27936e-05
1.91882e-08
1.27936e-05
1.7359e-08
1.27941e-05
1.57153e-08
1.27988e-05
1.42856e-08
1.28102e-05
1.3088e-08
1.28283e-05
1.2107e-08
1.2851e-05
1.12533e-08
1.28754e-05
1.04333e-08
1.28996e-05
9.56203e-09
1.2924e-05
8.62546e-09
1.29503e-05
7.7643e-09
1.298e-05
7.19853e-09
1.30131e-05
7.12562e-09
1.30475e-05
7.65238e-09
1.30794e-05
8.73984e-09
1.3105e-05
1.01956e-08
1.31213e-05
1.17463e-08
1.31268e-05
1.30982e-08
1.3122e-05
1.40061e-08
1.31089e-05
1.43593e-08
1.30903e-05
1.41757e-08
1.3069e-05
1.35696e-08
1.30474e-05
1.27061e-08
1.30274e-05
1.17506e-08
1.30101e-05
1.08268e-08
1.29959e-05
1.00162e-08
1.29849e-05
9.35878e-09
1.29767e-05
8.85993e-09
1.2971e-05
8.50308e-09
1.29673e-05
8.26048e-09
1.29652e-05
8.10211e-09
1.29642e-05
8.00207e-09
1.2964e-05
7.94091e-09
1.29644e-05
7.90483e-09
1.29653e-05
7.88445e-09
1.29664e-05
7.87369e-09
1.29677e-05
7.86888e-09
1.29691e-05
7.86771e-09
1.29705e-05
7.86878e-09
1.2972e-05
7.8712e-09
1.29735e-05
7.87436e-09
1.2975e-05
7.87795e-09
1.29766e-05
7.88169e-09
1.29781e-05
7.88543e-09
1.29796e-05
7.88907e-09
1.29811e-05
7.89254e-09
1.29826e-05
7.89575e-09
1.29841e-05
7.89872e-09
1.29856e-05
7.90135e-09
1.29871e-05
7.90369e-09
1.29886e-05
7.90572e-09
1.29901e-05
7.90739e-09
1.29916e-05
7.90884e-09
1.29931e-05
7.90996e-09
1.29946e-05
7.91089e-09
1.29961e-05
7.91155e-09
1.29976e-05
7.91203e-09
1.29991e-05
7.91235e-09
1.30006e-05
7.91256e-09
1.30021e-05
7.91271e-09
1.30035e-05
7.91287e-09
1.3005e-05
7.91311e-09
1.30065e-05
7.91363e-09
1.3008e-05
7.91451e-09
1.30094e-05
7.91612e-09
1.30109e-05
7.91847e-09
1.30124e-05
7.92238e-09
1.30138e-05
7.92748e-09
1.30153e-05
7.93574e-09
1.30167e-05
7.94533e-09
1.30182e-05
7.96101e-09
1.30196e-05
7.97693e-09
1.3021e-05
8.00421e-09
1.30224e-05
8.02727e-09
1.30237e-05
8.07097e-09
1.30251e-05
8.09914e-09
1.30264e-05
8.16209e-09
1.30276e-05
8.18729e-09
1.30288e-05
8.26368e-09
1.30298e-05
8.27378e-09
1.30308e-05
8.35419e-09
8.3196e-09
1.08273e-05
5.9893e-11
1.08463e-05
1.87036e-10
1.08786e-05
3.20947e-10
1.09227e-05
4.60047e-10
1.09773e-05
6.04585e-10
1.10408e-05
7.58714e-10
1.11118e-05
9.3013e-10
1.11888e-05
1.12841e-09
1.12704e-05
1.35765e-09
1.13551e-05
1.61711e-09
1.1442e-05
1.90186e-09
1.153e-05
2.20121e-09
1.16183e-05
2.50521e-09
1.1706e-05
2.80145e-09
1.17926e-05
3.07639e-09
1.18776e-05
3.31785e-09
1.19606e-05
3.54181e-09
1.2041e-05
3.75644e-09
1.2118e-05
3.97547e-09
1.2191e-05
4.25261e-09
1.22601e-05
4.63631e-09
1.23258e-05
5.15108e-09
1.23879e-05
5.77871e-09
1.24458e-05
6.49266e-09
1.24983e-05
7.30805e-09
1.25448e-05
8.14706e-09
1.25857e-05
8.91105e-09
1.26223e-05
9.51571e-09
1.26557e-05
9.90617e-09
1.26853e-05
1.00593e-08
1.27097e-05
9.97881e-09
1.27273e-05
9.6922e-09
1.27383e-05
9.24367e-09
1.27448e-05
8.68455e-09
1.27501e-05
8.07206e-09
1.27561e-05
7.4626e-09
1.27626e-05
6.89441e-09
1.27679e-05
6.3904e-09
1.27703e-05
5.97149e-09
1.27705e-05
5.63235e-09
1.27714e-05
5.37538e-09
1.27768e-05
5.19987e-09
1.27891e-05
5.11959e-09
1.28079e-05
5.15664e-09
1.28311e-05
5.30356e-09
1.28558e-05
5.51264e-09
1.28805e-05
5.76321e-09
1.29058e-05
5.95379e-09
1.2933e-05
6.06435e-09
1.29636e-05
6.09881e-09
1.29973e-05
6.05613e-09
1.30319e-05
5.96596e-09
1.30636e-05
5.86887e-09
1.3089e-05
5.78389e-09
1.31051e-05
5.76324e-09
1.3111e-05
5.82704e-09
1.31072e-05
5.92897e-09
1.30956e-05
6.03802e-09
1.30789e-05
6.11675e-09
1.30596e-05
6.14099e-09
1.304e-05
6.10472e-09
1.30218e-05
6.02624e-09
1.3006e-05
5.91117e-09
1.2993e-05
5.78336e-09
1.29829e-05
5.6589e-09
1.29754e-05
5.54732e-09
1.29701e-05
5.45358e-09
1.29667e-05
5.37872e-09
1.29647e-05
5.32118e-09
1.29638e-05
5.27815e-09
1.29637e-05
5.24652e-09
1.29642e-05
5.22343e-09
1.2965e-05
5.20652e-09
1.29661e-05
5.19398e-09
1.29674e-05
5.1845e-09
1.29688e-05
5.17711e-09
1.29703e-05
5.17115e-09
1.29718e-05
5.16615e-09
1.29733e-05
5.16179e-09
1.29748e-05
5.15784e-09
1.29763e-05
5.15413e-09
1.29779e-05
5.15056e-09
1.29794e-05
5.14706e-09
1.29809e-05
5.14356e-09
1.29824e-05
5.14004e-09
1.29839e-05
5.13644e-09
1.29854e-05
5.13277e-09
1.29869e-05
5.12901e-09
1.29884e-05
5.12518e-09
1.29899e-05
5.12128e-09
1.29914e-05
5.11734e-09
1.29929e-05
5.1134e-09
1.29944e-05
5.10948e-09
1.29959e-05
5.10563e-09
1.29974e-05
5.10184e-09
1.29989e-05
5.09818e-09
1.30003e-05
5.09465e-09
1.30018e-05
5.09133e-09
1.30033e-05
5.0883e-09
1.30048e-05
5.08565e-09
1.30063e-05
5.08363e-09
1.30077e-05
5.08222e-09
1.30092e-05
5.08208e-09
1.30107e-05
5.08291e-09
1.30122e-05
5.08615e-09
1.30136e-05
5.09078e-09
1.30151e-05
5.09997e-09
1.30165e-05
5.11087e-09
1.3018e-05
5.12997e-09
1.30194e-05
5.15102e-09
1.30208e-05
5.18589e-09
1.30222e-05
5.22307e-09
1.30236e-05
5.2811e-09
1.30249e-05
5.34401e-09
1.30262e-05
5.43162e-09
1.30274e-05
5.53686e-09
1.30286e-05
5.65114e-09
1.30296e-05
5.82397e-09
1.30306e-05
5.91442e-09
6.21191e-09
1.08273e-05
-7.13502e-09
1.08463e-05
-2.12579e-08
1.08785e-05
-3.4751e-08
1.09227e-05
-4.69875e-08
1.09773e-05
-5.76479e-08
1.10408e-05
-6.66708e-08
1.11118e-05
-7.4058e-08
1.11889e-05
-7.97681e-08
1.12705e-05
-8.38044e-08
1.13552e-05
-8.62879e-08
1.14421e-05
-8.74018e-08
1.15301e-05
-8.73772e-08
1.16184e-05
-8.64264e-08
1.17061e-05
-8.46975e-08
1.17926e-05
-8.23066e-08
1.18776e-05
-7.93742e-08
1.19607e-05
-7.60151e-08
1.20412e-05
-7.23538e-08
1.21182e-05
-6.84653e-08
1.21914e-05
-6.43887e-08
1.22607e-05
-6.01729e-08
1.23264e-05
-5.58587e-08
1.23887e-05
-5.15046e-08
1.24466e-05
-4.71296e-08
1.2499e-05
-4.27779e-08
1.25453e-05
-3.85307e-08
1.2586e-05
-3.44792e-08
1.26224e-05
-3.07094e-08
1.26555e-05
-2.72863e-08
1.26848e-05
-2.42313e-08
1.27089e-05
-2.15024e-08
1.27262e-05
-1.90183e-08
1.2737e-05
-1.67226e-08
1.27434e-05
-1.4605e-08
1.27486e-05
-1.2702e-08
1.27546e-05
-1.10772e-08
1.27612e-05
-9.71169e-09
1.27665e-05
-8.51686e-09
1.27691e-05
-7.40785e-09
1.27695e-05
-6.28001e-09
1.27705e-05
-5.00472e-09
1.27758e-05
-3.76353e-09
1.27878e-05
-2.64412e-09
1.28066e-05
-1.64629e-09
1.28298e-05
-7.14387e-10
1.28548e-05
3.45336e-10
1.28799e-05
1.61919e-09
1.29054e-05
2.93234e-09
1.29329e-05
4.10019e-09
1.29637e-05
4.83853e-09
1.29975e-05
4.89099e-09
1.30321e-05
4.20946e-09
1.30639e-05
2.96603e-09
1.30892e-05
1.36734e-09
1.31053e-05
-1.32087e-10
1.31109e-05
-1.25384e-09
1.31069e-05
-1.93545e-09
1.30951e-05
-2.09849e-09
1.30782e-05
-1.81657e-09
1.30589e-05
-1.23188e-09
1.30393e-05
-5.07887e-10
1.30212e-05
2.70199e-10
1.30054e-05
9.40586e-10
1.29925e-05
1.48039e-09
1.29825e-05
1.88302e-09
1.29751e-05
2.16197e-09
1.29699e-05
2.34022e-09
1.29665e-05
2.44426e-09
1.29646e-05
2.49885e-09
1.29637e-05
2.52298e-09
1.29636e-05
2.52925e-09
1.29641e-05
2.52568e-09
1.2965e-05
2.51712e-09
1.29661e-05
2.50629e-09
1.29674e-05
2.4945e-09
1.29688e-05
2.48245e-09
1.29702e-05
2.47046e-09
1.29717e-05
2.45864e-09
1.29733e-05
2.4471e-09
1.29748e-05
2.43581e-09
1.29763e-05
2.42479e-09
1.29778e-05
2.41399e-09
1.29793e-05
2.40343e-09
1.29809e-05
2.39308e-09
1.29824e-05
2.38295e-09
1.29839e-05
2.37295e-09
1.29854e-05
2.36317e-09
1.29869e-05
2.3535e-09
1.29884e-05
2.34396e-09
1.29899e-05
2.33459e-09
1.29914e-05
2.32532e-09
1.29929e-05
2.31636e-09
1.29944e-05
2.30761e-09
1.29958e-05
2.29927e-09
1.29973e-05
2.29127e-09
1.29988e-05
2.28371e-09
1.30003e-05
2.27654e-09
1.30018e-05
2.26988e-09
1.30033e-05
2.26372e-09
1.30048e-05
2.25821e-09
1.30062e-05
2.25357e-09
1.30077e-05
2.24966e-09
1.30092e-05
2.24742e-09
1.30107e-05
2.24619e-09
1.30121e-05
2.24805e-09
1.30136e-05
2.25126e-09
1.30151e-05
2.26036e-09
1.30165e-05
2.27121e-09
1.3018e-05
2.29236e-09
1.30194e-05
2.31684e-09
1.30208e-05
2.35745e-09
1.30222e-05
2.4068e-09
1.30236e-05
2.47664e-09
1.3025e-05
2.57324e-09
1.30263e-05
2.68032e-09
1.30275e-05
2.86657e-09
1.30288e-05
3.01284e-09
1.30298e-05
3.36536e-09
1.30307e-05
3.48914e-09
4.1216e-09
1.08276e-05
-1.46172e-08
1.08476e-05
-4.36359e-08
1.08811e-05
-7.11699e-08
1.09268e-05
-9.59489e-08
1.0983e-05
-1.17516e-07
1.10482e-05
-1.35828e-07
1.11211e-05
-1.50817e-07
1.11998e-05
-1.62358e-07
1.12829e-05
-1.70506e-07
1.1369e-05
-1.75547e-07
1.14571e-05
-1.77893e-07
1.15462e-05
-1.78027e-07
1.16354e-05
-1.76333e-07
1.1724e-05
-1.7305e-07
1.18112e-05
-1.68405e-07
1.18968e-05
-1.62684e-07
1.19804e-05
-1.56172e-07
1.20615e-05
-1.49078e-07
1.21392e-05
-1.41511e-07
1.22129e-05
-1.33555e-07
1.22826e-05
-1.25397e-07
1.23486e-05
-1.17154e-07
1.24109e-05
-1.08923e-07
1.24689e-05
-1.00774e-07
1.25213e-05
-9.27753e-08
1.25676e-05
-8.50182e-08
1.26081e-05
-7.7609e-08
1.26442e-05
-7.06476e-08
1.2677e-05
-6.4205e-08
1.27061e-05
-5.82847e-08
1.27302e-05
-5.27902e-08
1.27477e-05
-4.75712e-08
1.27585e-05
-4.25518e-08
1.27649e-05
-3.77885e-08
1.27698e-05
-3.34031e-08
1.27754e-05
-2.95209e-08
1.27817e-05
-2.61673e-08
1.2787e-05
-2.32399e-08
1.27895e-05
-2.05842e-08
1.27899e-05
-1.81148e-08
1.2791e-05
-1.56921e-08
1.27963e-05
-1.33388e-08
1.28084e-05
-1.11015e-08
1.28271e-05
-8.92745e-09
1.28501e-05
-6.72674e-09
1.28745e-05
-4.39049e-09
1.28987e-05
-1.76873e-09
1.29233e-05
7.2148e-10
1.29498e-05
2.87578e-09
1.29796e-05
4.30725e-09
1.30124e-05
4.56993e-09
1.30462e-05
3.50997e-09
1.30772e-05
1.35184e-09
1.31019e-05
-1.71627e-09
1.31174e-05
-4.69647e-09
1.31225e-05
-7.05115e-09
1.31176e-05
-8.44935e-09
1.31046e-05
-8.81159e-09
1.30864e-05
-8.29053e-09
1.30655e-05
-7.17283e-09
1.30445e-05
-5.77529e-09
1.30251e-05
-4.35394e-09
1.30082e-05
-3.09686e-09
1.29945e-05
-2.08524e-09
1.29838e-05
-1.33512e-09
1.29759e-05
-8.20624e-10
1.29703e-05
-4.95216e-10
1.29668e-05
-3.06418e-10
1.29647e-05
-2.0668e-10
1.29637e-05
-1.60625e-10
1.29636e-05
-1.45719e-10
1.2964e-05
-1.47864e-10
1.29649e-05
-1.58693e-10
1.2966e-05
-1.73657e-10
1.29673e-05
-1.90825e-10
1.29687e-05
-2.08944e-10
1.29701e-05
-2.2758e-10
1.29716e-05
-2.46345e-10
1.29731e-05
-2.65049e-10
1.29747e-05
-2.83648e-10
1.29762e-05
-3.01936e-10
1.29777e-05
-3.19996e-10
1.29792e-05
-3.37642e-10
1.29807e-05
-3.54983e-10
1.29822e-05
-3.71836e-10
1.29837e-05
-3.88485e-10
1.29852e-05
-4.04518e-10
1.29867e-05
-4.20392e-10
1.29882e-05
-4.35702e-10
1.29897e-05
-4.5071e-10
1.29912e-05
-4.6533e-10
1.29927e-05
-4.79331e-10
1.29942e-05
-4.92937e-10
1.29957e-05
-5.05671e-10
1.29972e-05
-5.17971e-10
1.29987e-05
-5.29377e-10
1.30002e-05
-5.40425e-10
1.30016e-05
-5.50494e-10
1.30031e-05
-5.60178e-10
1.30046e-05
-5.6865e-10
1.30061e-05
-5.76324e-10
1.30076e-05
-5.82852e-10
1.3009e-05
-5.87622e-10
1.30105e-05
-5.91129e-10
1.3012e-05
-5.91238e-10
1.30134e-05
-5.89886e-10
1.30149e-05
-5.81817e-10
1.30164e-05
-5.72194e-10
1.30178e-05
-5.50762e-10
1.30193e-05
-5.25422e-10
1.30207e-05
-4.82578e-10
1.30221e-05
-4.25422e-10
1.30235e-05
-3.50489e-10
1.30249e-05
-2.23778e-10
1.30263e-05
-1.10281e-10
1.30276e-05
1.5726e-10
1.30288e-05
3.11676e-10
1.30299e-05
8.82699e-10
1.30309e-05
9.86466e-10
2.0669e-09
1.08281e-05
-2.25915e-08
1.08501e-05
-6.80023e-08
1.08864e-05
-1.10301e-07
1.09351e-05
-1.47944e-07
1.09946e-05
-1.80721e-07
1.10635e-05
-2.08645e-07
1.11402e-05
-2.31424e-07
1.12228e-05
-2.48801e-07
1.13096e-05
-2.60936e-07
1.13993e-05
-2.68338e-07
1.14906e-05
-2.71675e-07
1.15827e-05
-2.71711e-07
1.16747e-05
-2.69055e-07
1.17659e-05
-2.64044e-07
1.18556e-05
-2.56965e-07
1.19433e-05
-2.48182e-07
1.20287e-05
-2.38122e-07
1.21111e-05
-2.27167e-07
1.21898e-05
-2.15586e-07
1.22644e-05
-2.03561e-07
1.23347e-05
-1.91257e-07
1.24011e-05
-1.78823e-07
1.24634e-05
-1.66406e-07
1.25211e-05
-1.54142e-07
1.25731e-05
-1.42157e-07
1.26187e-05
-1.30584e-07
1.26584e-05
-1.1956e-07
1.26932e-05
-1.092e-07
1.27243e-05
-9.95778e-08
1.27517e-05
-9.0658e-08
1.27741e-05
-8.22652e-08
1.27902e-05
-7.42152e-08
1.27998e-05
-6.64726e-08
1.28047e-05
-5.91498e-08
1.28078e-05
-5.24372e-08
1.28114e-05
-4.64396e-08
1.28156e-05
-4.10404e-08
1.28192e-05
-3.62698e-08
1.28205e-05
-3.20717e-08
1.28197e-05
-2.82815e-08
1.28191e-05
-2.48199e-08
1.28225e-05
-2.16261e-08
1.28325e-05
-1.85342e-08
1.28493e-05
-1.53144e-08
1.28707e-05
-1.1857e-08
1.28938e-05
-8.21198e-09
1.29171e-05
-4.55808e-09
1.29409e-05
-1.2377e-09
1.29664e-05
1.8694e-09
1.29954e-05
3.68472e-09
1.30279e-05
4.02027e-09
1.30616e-05
2.70102e-09
1.30927e-05
1.24856e-10
1.31164e-05
-2.82784e-09
1.31296e-05
-5.88617e-09
1.31312e-05
-8.33195e-09
1.3122e-05
-9.83349e-09
1.31044e-05
-1.03047e-08
1.30817e-05
-9.89826e-09
1.30568e-05
-8.90428e-09
1.30325e-05
-7.63691e-09
1.30105e-05
-6.35305e-09
1.29918e-05
-5.22196e-09
1.29768e-05
-4.3182e-09
1.29652e-05
-3.65394e-09
1.29568e-05
-3.20705e-09
1.29509e-05
-2.93499e-09
1.29471e-05
-2.78627e-09
1.29448e-05
-2.71301e-09
1.29437e-05
-2.68214e-09
1.29435e-05
-2.67562e-09
1.29438e-05
-2.68303e-09
1.29445e-05
-2.69848e-09
1.29455e-05
-2.71831e-09
1.29466e-05
-2.74088e-09
1.29479e-05
-2.76463e-09
1.29492e-05
-2.78931e-09
1.29506e-05
-2.81415e-09
1.29519e-05
-2.83907e-09
1.29533e-05
-2.8638e-09
1.29547e-05
-2.88811e-09
1.29561e-05
-2.91208e-09
1.29574e-05
-2.93538e-09
1.29588e-05
-2.95822e-09
1.29601e-05
-2.9803e-09
1.29615e-05
-3.00205e-09
1.29629e-05
-3.02278e-09
1.29642e-05
-3.04345e-09
1.29655e-05
-3.06301e-09
1.29669e-05
-3.08253e-09
1.29682e-05
-3.10121e-09
1.29696e-05
-3.11926e-09
1.29709e-05
-3.13667e-09
1.29722e-05
-3.15274e-09
1.29736e-05
-3.16838e-09
1.29749e-05
-3.18248e-09
1.29762e-05
-3.1964e-09
1.29775e-05
-3.20872e-09
1.29789e-05
-3.22097e-09
1.29802e-05
-3.23125e-09
1.29815e-05
-3.24143e-09
1.29828e-05
-3.24957e-09
1.29841e-05
-3.25682e-09
1.29854e-05
-3.26195e-09
1.29867e-05
-3.2646e-09
1.2988e-05
-3.26486e-09
1.29893e-05
-3.25923e-09
1.29906e-05
-3.25144e-09
1.29919e-05
-3.23176e-09
1.29932e-05
-3.20802e-09
1.29945e-05
-3.16635e-09
1.29957e-05
-3.10832e-09
1.2997e-05
-3.03595e-09
1.29983e-05
-2.8952e-09
1.29995e-05
-2.79152e-09
1.30007e-05
-2.44355e-09
1.30019e-05
-2.32121e-09
1.30029e-05
-1.50733e-09
1.30039e-05
-1.50216e-09
1.91016e-10
1.08293e-05
-3.16414e-08
1.08544e-05
-9.55255e-08
1.08953e-05
-1.5407e-07
1.095e-05
-2.05966e-07
1.10174e-05
-2.51727e-07
1.10957e-05
-2.90817e-07
1.11824e-05
-3.22153e-07
1.12749e-05
-3.4515e-07
1.13705e-05
-3.60113e-07
1.14669e-05
-3.67843e-07
1.15623e-05
-3.69565e-07
1.16555e-05
-3.6656e-07
1.17454e-05
-3.59689e-07
1.18311e-05
-3.49563e-07
1.1912e-05
-3.36748e-07
1.1988e-05
-3.21866e-07
1.20587e-05
-3.05569e-07
1.21241e-05
-2.8838e-07
1.21837e-05
-2.70688e-07
1.22376e-05
-2.52793e-07
1.22859e-05
-2.34953e-07
1.2329e-05
-2.17384e-07
1.23673e-05
-2.00197e-07
1.24002e-05
-1.83464e-07
1.24274e-05
-1.67327e-07
1.24487e-05
-1.52018e-07
1.24646e-05
-1.37731e-07
1.24763e-05
-1.24518e-07
1.24843e-05
-1.12292e-07
1.24885e-05
-1.0089e-07
1.24883e-05
-9.01275e-08
1.24831e-05
-7.98967e-08
1.24735e-05
-7.02651e-08
1.24613e-05
-6.14169e-08
1.24486e-05
-5.34987e-08
1.2437e-05
-4.6586e-08
1.24266e-05
-4.04772e-08
1.24166e-05
-3.50853e-08
1.24065e-05
-3.05101e-08
1.23972e-05
-2.67339e-08
1.23912e-05
-2.37497e-08
1.23911e-05
-2.13505e-08
1.23982e-05
-1.9029e-08
1.24116e-05
-1.62568e-08
1.2429e-05
-1.28551e-08
1.24482e-05
-9.04813e-09
1.24683e-05
-5.29533e-09
1.249e-05
-2.18562e-09
1.2515e-05
-7.49852e-11
1.25434e-05
6.7715e-10
1.25737e-05
4.24107e-10
1.26024e-05
-8.73559e-10
1.26254e-05
-2.63019e-09
1.26394e-05
-4.38127e-09
1.26424e-05
-5.83391e-09
1.26345e-05
-6.76316e-09
1.26176e-05
-7.13246e-09
1.25948e-05
-7.01942e-09
1.25692e-05
-6.56835e-09
1.25437e-05
-5.94433e-09
1.25201e-05
-5.29278e-09
1.24998e-05
-4.71489e-09
1.24832e-05
-4.26187e-09
1.247e-05
-3.94015e-09
1.246e-05
-3.72969e-09
1.24527e-05
-3.60331e-09
1.24473e-05
-3.5355e-09
1.24435e-05
-3.50542e-09
1.24408e-05
-3.4979e-09
1.2439e-05
-3.50342e-09
1.24376e-05
-3.51669e-09
1.24367e-05
-3.53421e-09
1.2436e-05
-3.5541e-09
1.24354e-05
-3.57522e-09
1.2435e-05
-3.59725e-09
1.24346e-05
-3.61963e-09
1.24342e-05
-3.64242e-09
1.24339e-05
-3.66522e-09
1.24335e-05
-3.68801e-09
1.24331e-05
-3.71055e-09
1.24328e-05
-3.73275e-09
1.24324e-05
-3.75443e-09
1.2432e-05
-3.7755e-09
1.24316e-05
-3.79605e-09
1.24311e-05
-3.81593e-09
1.24307e-05
-3.83536e-09
1.24303e-05
-3.85399e-09
1.24298e-05
-3.8723e-09
1.24293e-05
-3.88971e-09
1.24289e-05
-3.90689e-09
1.24284e-05
-3.9232e-09
1.24279e-05
-3.93905e-09
1.24274e-05
-3.954e-09
1.24269e-05
-3.96808e-09
1.24264e-05
-3.98136e-09
1.24259e-05
-3.99358e-09
1.24254e-05
-4.00539e-09
1.24249e-05
-4.01593e-09
1.24243e-05
-4.02628e-09
1.24238e-05
-4.03489e-09
1.24232e-05
-4.04352e-09
1.24227e-05
-4.05017e-09
1.24221e-05
-4.05655e-09
1.24216e-05
-4.06038e-09
1.2421e-05
-4.06307e-09
1.24204e-05
-4.06296e-09
1.24198e-05
-4.05846e-09
1.24193e-05
-4.05265e-09
1.24187e-05
-4.03537e-09
1.24181e-05
-4.01811e-09
1.24175e-05
-3.98016e-09
1.24169e-05
-3.93662e-09
1.24164e-05
-3.8693e-09
1.24158e-05
-3.75492e-09
1.24153e-05
-3.65853e-09
1.24147e-05
-3.33845e-09
1.24142e-05
-3.24591e-09
1.24136e-05
-2.36103e-09
1.24131e-05
-2.37987e-09
-2.95898e-10
1.08402e-05
-5.15292e-08
1.08855e-05
-1.43213e-07
1.09491e-05
-2.20474e-07
1.1023e-05
-2.8323e-07
1.10992e-05
-3.31542e-07
1.11698e-05
-3.65309e-07
1.1229e-05
-3.85302e-07
1.12732e-05
-3.93248e-07
1.1301e-05
-3.91527e-07
1.13124e-05
-3.82281e-07
1.13087e-05
-3.68161e-07
1.12917e-05
-3.51136e-07
1.12633e-05
-3.31855e-07
1.12251e-05
-3.11022e-07
1.1179e-05
-2.89224e-07
1.11267e-05
-2.67089e-07
1.10695e-05
-2.4522e-07
1.10087e-05
-2.2396e-07
1.09452e-05
-2.03411e-07
1.08796e-05
-1.8362e-07