/*--------------------------------*- C++ -*----------------------------------*\
  =========                 |
  \\      /  F ield         | OpenFOAM: The Open Source CFD Toolbox
   \\    /   O peration     | Website:  https://openfoam.org
    \\  /    A nd           | Version:  7
     \\/     M anipulation  |
\*---------------------------------------------------------------------------*/
FoamFile
{
    version     2.0;
    format      ascii;
    class       volScalarField;
    location    "0.005";
    object      p;
}
// * * * * * * * * * * * * * * * * * * * * * * * * * * * * * * * * * * * * * //

dimensions      [1 -1 -2 0 0 0 0];

internalField   nonuniform List<scalar> 
1440
(
97737.3
97736.1
97734.7
97733.5
97732.3
97731.2
97730.2
97729.1
97728.1
97727.3
97726.5
97726
97725.9
97726.2
97726.8
97727.7
97728.8
97730
97731.5
97733
97734.7
97736.6
97738.6
97740.8
97743.2
97745.8
97748.5
97751.5
97754.6
97757.9
97761.5
97765.2
97769.2
97773.3
97777.7
97782.3
97787.1
97792.2
97797.4
97802.9
97808.6
97814.6
97820.8
97827.2
97833.8
97840.7
97847.8
97855.1
97862.7
97870.5
97878.6
97886.8
97895.3
97904.1
97913.1
97922.3
97931.7
97941.4
97951.3
97961.5
97971.8
97982.5
97993.4
98004.5
98015.9
98027.5
98039.3
98051.5
98063.8
98076.4
98089.3
98102.4
98115.8
98129.4
98143.3
98157.4
98171.7
98186.3
98201.1
98216.1
98231.3
98246.8
98262.4
98278.3
98294.3
98310.5
98326.9
98343.5
98360.2
98377.1
98394.2
98411.3
98428.7
98446.2
98463.8
98481.5
98499.4
98517.5
98535.6
98553.9
98572.4
98591
98609.7
98628.6
98647.7
98666.9
98686.2
98705.8
98725.5
98745.4
98765.4
98785.7
98806.1
98826.7
98847.5
98868.5
98889.7
98911
98932.5
98954.2
97735.2
97734.5
97733.6
97732.5
97731.4
97730.5
97729.6
97728.7
97727.8
97727.1
97726.4
97725.9
97725.9
97726.2
97726.9
97727.7
97728.8
97730
97731.4
97733
97734.7
97736.5
97738.6
97740.8
97743.1
97745.7
97748.5
97751.4
97754.5
97757.9
97761.4
97765.2
97769.1
97773.3
97777.6
97782.2
97787.1
97792.1
97797.4
97802.8
97808.6
97814.5
97820.7
97827.1
97833.7
97840.6
97847.7
97855.1
97862.6
97870.5
97878.5
97886.8
97895.3
97904
97913
97922.2
97931.6
97941.3
97951.2
97961.4
97971.8
97982.4
97993.3
98004.4
98015.8
98027.4
98039.3
98051.4
98063.7
98076.4
98089.2
98102.4
98115.7
98129.3
98143.2
98157.3
98171.6
98186.2
98201
98216
98231.3
98246.7
98262.3
98278.2
98294.2
98310.4
98326.8
98343.4
98360.1
98377
98394.1
98411.3
98428.6
98446.1
98463.7
98481.5
98499.4
98517.4
98535.6
98553.9
98572.3
98590.9
98609.6
98628.5
98647.6
98666.8
98686.2
98705.7
98725.4
98745.3
98765.4
98785.6
98806
98826.7
98847.5
98868.5
98889.6
98911
98932.5
98954.3
97734.2
97733.7
97732.8
97731.8
97730.8
97730
97729.3
97728.4
97727.7
97727.2
97726.7
97726.3
97726.3
97726.7
97727.2
97728
97728.9
97730.1
97731.5
97733
97734.6
97736.5
97738.5
97740.7
97743.1
97745.7
97748.4
97751.4
97754.5
97757.8
97761.4
97765.1
97769.1
97773.2
97777.6
97782.2
97787
97792.1
97797.3
97802.8
97808.5
97814.5
97820.7
97827.1
97833.7
97840.6
97847.7
97855
97862.6
97870.4
97878.5
97886.7
97895.2
97904
97912.9
97922.2
97931.6
97941.3
97951.2
97961.3
97971.7
97982.4
97993.2
98004.4
98015.7
98027.4
98039.2
98051.3
98063.7
98076.3
98089.2
98102.3
98115.7
98129.3
98143.2
98157.3
98171.6
98186.2
98201
98216
98231.2
98246.7
98262.3
98278.2
98294.2
98310.4
98326.8
98343.4
98360.1
98377
98394.1
98411.2
98428.6
98446.1
98463.7
98481.4
98499.3
98517.4
98535.5
98553.8
98572.3
98590.9
98609.6
98628.5
98647.6
98666.8
98686.1
98705.7
98725.4
98745.3
98765.3
98785.6
98806
98826.7
98847.5
98868.5
98889.7
98911
98932.6
98954.4
97733.4
97732.9
97732.1
97731.2
97730.3
97729.6
97729
97728.2
97727.6
97727.2
97726.8
97726.4
97726.4
97726.8
97727.4
97728
97728.9
97730.1
97731.5
97733
97734.6
97736.5
97738.5
97740.7
97743.1
97745.7
97748.4
97751.3
97754.5
97757.8
97761.4
97765.1
97769
97773.2
97777.6
97782.2
97787
97792
97797.3
97802.8
97808.5
97814.4
97820.6
97827
97833.7
97840.6
97847.7
97855
97862.6
97870.4
97878.4
97886.7
97895.2
97904
97912.9
97922.1
97931.6
97941.3
97951.2
97961.3
97971.7
97982.3
97993.2
98004.4
98015.7
98027.3
98039.2
98051.3
98063.7
98076.3
98089.2
98102.3
98115.7
98129.3
98143.1
98157.2
98171.6
98186.2
98201
98216
98231.2
98246.7
98262.3
98278.2
98294.2
98310.4
98326.8
98343.4
98360.1
98377
98394
98411.2
98428.6
98446.1
98463.7
98481.4
98499.3
98517.4
98535.5
98553.8
98572.3
98590.9
98609.6
98628.5
98647.6
98666.8
98686.1
98705.7
98725.4
98745.3
98765.4
98785.6
98806.1
98826.7
98847.5
98868.5
98889.7
98911.1
98932.7
98954.5
97732.9
97732.5
97731.7
97730.8
97730
97729.4
97728.8
97728.1
97727.5
97727.2
97726.8
97726.5
97726.5
97726.9
97727.5
97728.1
97729
97730.1
97731.5
97733
97734.6
97736.5
97738.5
97740.7
97743.1
97745.6
97748.4
97751.3
97754.5
97757.8
97761.3
97765.1
97769
97773.2
97777.6
97782.2
97787
97792
97797.3
97802.8
97808.5
97814.4
97820.6
97827
97833.7
97840.5
97847.6
97855
97862.6
97870.4
97878.4
97886.7
97895.2
97903.9
97912.9
97922.1
97931.5
97941.2
97951.1
97961.3
97971.7
97982.3
97993.2
98004.3
98015.7
98027.3
98039.2
98051.3
98063.7
98076.3
98089.2
98102.3
98115.7
98129.3
98143.1
98157.2
98171.6
98186.1
98200.9
98216
98231.2
98246.6
98262.3
98278.1
98294.2
98310.4
98326.8
98343.4
98360.1
98377
98394
98411.2
98428.6
98446
98463.7
98481.4
98499.3
98517.3
98535.5
98553.8
98572.3
98590.9
98609.6
98628.5
98647.5
98666.8
98686.1
98705.7
98725.4
98745.3
98765.3
98785.6
98806.1
98826.7
98847.5
98868.5
98889.7
98911.1
98932.8
98954.5
97732.7
97732.2
97731.5
97730.6
97729.8
97729.2
97728.6
97728
97727.5
97727.1
97726.8
97726.5
97726.5
97726.9
97727.5
97728.1
97729
97730.1
97731.5
97733
97734.6
97736.5
97738.5
97740.7
97743.1
97745.6
97748.4
97751.3
97754.4
97757.8
97761.3
97765.1
97769
97773.2
97777.5
97782.1
97786.9
97792
97797.2
97802.7
97808.5
97814.4
97820.6
97827
97833.6
97840.5
97847.6
97855
97862.5
97870.3
97878.4
97886.7
97895.2
97903.9
97912.9
97922.1
97931.5
97941.2
97951.1
97961.3
97971.7
97982.3
97993.2
98004.3
98015.7
98027.3
98039.2
98051.3
98063.7
98076.3
98089.1
98102.3
98115.6
98129.2
98143.1
98157.2
98171.5
98186.1
98200.9
98215.9
98231.2
98246.6
98262.3
98278.1
98294.2
98310.4
98326.8
98343.3
98360.1
98377
98394
98411.2
98428.5
98446
98463.6
98481.4
98499.3
98517.3
98535.5
98553.8
98572.3
98590.8
98609.6
98628.5
98647.5
98666.7
98686.1
98705.7
98725.4
98745.3
98765.4
98785.6
98806.1
98826.7
98847.5
98868.6
98889.8
98911.2
98932.8
98954.6
97732.6
97732.2
97731.5
97730.6
97729.8
97729.2
97728.6
97728
97727.4
97727.1
97726.8
97726.5
97726.5
97726.9
97727.5
97728.1
97729
97730.1
97731.5
97732.9
97734.6
97736.4
97738.5
97740.7
97743
97745.6
97748.4
97751.3
97754.4
97757.8
97761.3
97765
97769
97773.2
97777.5
97782.1
97786.9
97792
97797.2
97802.7
97808.4
97814.4
97820.6
97827
97833.6
97840.5
97847.6
97855
97862.5
97870.3
97878.4
97886.7
97895.2
97903.9
97912.9
97922.1
97931.5
97941.2
97951.1
97961.3
97971.7
97982.3
97993.2
98004.3
98015.7
98027.3
98039.2
98051.3
98063.6
98076.3
98089.1
98102.3
98115.6
98129.2
98143.1
98157.2
98171.5
98186.1
98200.9
98215.9
98231.2
98246.6
98262.3
98278.1
98294.1
98310.4
98326.8
98343.3
98360.1
98377
98394
98411.2
98428.5
98446
98463.6
98481.4
98499.3
98517.3
98535.5
98553.8
98572.3
98590.8
98609.6
98628.5
98647.5
98666.7
98686.1
98705.7
98725.4
98745.3
98765.4
98785.6
98806.1
98826.7
98847.6
98868.6
98889.8
98911.3
98932.9
98954.7
97732.8
97732.4
97731.6
97730.7
97729.9
97729.3
97728.7
97728
97727.4
97727.1
97726.7
97726.4
97726.4
97726.8
97727.4
97728
97728.9
97730.1
97731.4
97732.9
97734.6
97736.4
97738.5
97740.7
97743
97745.6
97748.4
97751.3
97754.4
97757.8
97761.3
97765
97769
97773.1
97777.5
97782.1
97786.9
97792
97797.2
97802.7
97808.4
97814.4
97820.6
97827
97833.6
97840.5
97847.6
97854.9
97862.5
97870.3
97878.4
97886.6
97895.1
97903.9
97912.9
97922.1
97931.5
97941.2
97951.1
97961.3
97971.6
97982.3
97993.2
98004.3
98015.7
98027.3
98039.1
98051.3
98063.6
98076.2
98089.1
98102.2
98115.6
98129.2
98143.1
98157.2
98171.5
98186.1
98200.9
98215.9
98231.1
98246.6
98262.2
98278.1
98294.1
98310.4
98326.8
98343.3
98360.1
98377
98394
98411.2
98428.5
98446
98463.6
98481.4
98499.3
98517.3
98535.5
98553.8
98572.2
98590.8
98609.6
98628.5
98647.5
98666.7
98686.1
98705.7
98725.4
98745.3
98765.4
98785.6
98806.1
98826.8
98847.6
98868.6
98889.9
98911.3
98932.9
98954.7
97733.3
97732.8
97732
97731.1
97730.2
97729.5
97728.8
97728.1
97727.5
97727
97726.6
97726.2
97726.2
97726.6
97727.2
97727.9
97728.8
97730
97731.4
97732.9
97734.6
97736.4
97738.5
97740.7
97743
97745.6
97748.4
97751.3
97754.4
97757.8
97761.3
97765
97769
97773.2
97777.5
97782.1
97786.9
97792
97797.2
97802.7
97808.4
97814.4
97820.6
97827
97833.6
97840.5
97847.6
97854.9
97862.5
97870.3
97878.4
97886.6
97895.1
97903.9
97912.9
97922.1
97931.5
97941.2
97951.1
97961.3
97971.6
97982.3
97993.2
98004.3
98015.7
98027.3
98039.1
98051.3
98063.6
98076.2
98089.1
98102.2
98115.6
98129.2
98143.1
98157.2
98171.5
98186.1
98200.9
98215.9
98231.1
98246.6
98262.2
98278.1
98294.1
98310.4
98326.8
98343.3
98360.1
98377
98394
98411.2
98428.5
98446
98463.6
98481.4
98499.3
98517.3
98535.5
98553.8
98572.2
98590.8
98609.6
98628.5
98647.5
98666.7
98686.1
98705.7
98725.4
98745.3
98765.4
98785.7
98806.1
98826.8
98847.6
98868.7
98889.9
98911.4
98933
98954.8
97734
97733.4
97732.6
97731.6
97730.7
97729.9
97729.1
97728.2
97727.5
97726.9
97726.4
97726
97726
97726.4
97727
97727.8
97728.8
97730
97731.4
97732.9
97734.6
97736.4
97738.5
97740.7
97743.1
97745.6
97748.4
97751.3
97754.4
97757.8
97761.3
97765
97769
97773.2
97777.5
97782.1
97786.9
97792
97797.2
97802.7
97808.4
97814.4
97820.6
97827
97833.6
97840.5
97847.6
97855
97862.5
97870.3
97878.4
97886.6
97895.2
97903.9
97912.9
97922.1
97931.5
97941.2
97951.1
97961.3
97971.6
97982.3
97993.2
98004.3
98015.7
98027.3
98039.1
98051.3
98063.6
98076.2
98089.1
98102.2
98115.6
98129.2
98143.1
98157.2
98171.5
98186.1
98200.9
98215.9
98231.1
98246.6
98262.2
98278.1
98294.1
98310.4
98326.8
98343.3
98360.1
98376.9
98394
98411.2
98428.5
98446
98463.6
98481.4
98499.3
98517.3
98535.5
98553.8
98572.2
98590.8
98609.6
98628.5
98647.5
98666.7
98686.1
98705.7
98725.4
98745.3
98765.4
98785.7
98806.1
98826.8
98847.7
98868.7
98890
98911.4
98933.1
98954.9
97734.9
97734.3
97733.4
97732.3
97731.3
97730.3
97729.4
97728.5
97727.6
97726.8
97726
97725.5
97725.5
97725.9
97726.6
97727.5
97728.6
97729.9
97731.3
97732.9
97734.6
97736.5
97738.5
97740.7
97743.1
97745.6
97748.4
97751.3
97754.5
97757.8
97761.3
97765.1
97769
97773.2
97777.5
97782.1
97787
97792
97797.3
97802.7
97808.5
97814.4
97820.6
97827
97833.6
97840.5
97847.6
97855
97862.5
97870.3
97878.4
97886.7
97895.2
97903.9
97912.9
97922.1
97931.5
97941.2
97951.1
97961.3
97971.7
97982.3
97993.2
98004.3
98015.7
98027.3
98039.1
98051.3
98063.6
98076.2
98089.1
98102.2
98115.6
98129.2
98143.1
98157.2
98171.5
98186.1
98200.9
98215.9
98231.1
98246.6
98262.2
98278.1
98294.1
98310.4
98326.8
98343.3
98360.1
98376.9
98394
98411.2
98428.5
98446
98463.6
98481.4
98499.3
98517.3
98535.5
98553.8
98572.2
98590.8
98609.6
98628.5
98647.5
98666.7
98686.1
98705.7
98725.4
98745.3
98765.4
98785.7
98806.1
98826.8
98847.7
98868.8
98890
98911.5
98933.2
98955
97736.6
97735.7
97734.6
97733.4
97732.2
97731
97729.9
97728.8
97727.8
97726.8
97726
97725.4
97725.3
97725.7
97726.4
97727.4
97728.5
97729.9
97731.3
97732.9
97734.6
97736.5
97738.5
97740.7
97743.1
97745.7
97748.4
97751.3
97754.5
97757.8
97761.3
97765.1
97769
97773.2
97777.6
97782.2
97787
97792
97797.3
97802.8
97808.5
97814.4
97820.6
97827
97833.7
97840.5
97847.6
97855
97862.6
97870.4
97878.4
97886.7
97895.2
97903.9
97912.9
97922.1
97931.5
97941.2
97951.1
97961.3
97971.7
97982.3
97993.2
98004.3
98015.7
98027.3
98039.1
98051.3
98063.6
98076.3
98089.1
98102.2
98115.6
98129.2
98143.1
98157.2
98171.5
98186.1
98200.9
98215.9
98231.1
98246.6
98262.2
98278.1
98294.1
98310.4
98326.8
98343.3
98360.1
98377
98394
98411.2
98428.5
98446
98463.6
98481.4
98499.3
98517.3
98535.5
98553.8
98572.2
98590.8
98609.6
98628.5
98647.5
98666.7
98686.1
98705.7
98725.4
98745.3
98765.4
98785.7
98806.2
98826.8
98847.7
98868.8
98890.1
98911.5
98933.3
98955.1
)
;

boundaryField
{
    upperWall
    {
        type            zeroGradient;
    }
    lowerWall
    {
        type            zeroGradient;
    }
    inlet
    {
        type            zeroGradient;
    }
    outlet
    {
        type            waveTransmissive;
        gamma           1.3;
        fieldInf        100000;
        lInf            0.3;
        value           nonuniform List<scalar> 
12
(
98965.1
98965.3
98965.4
98965.5
98965.5
98965.6
98965.7
98965.7
98965.8
98965.9
98966
98966.3
)
;
    }
    frontAndBack
    {
        type            empty;
    }
}


// ************************************************************************* //
