/*--------------------------------*- C++ -*----------------------------------*\
  =========                 |
  \\      /  F ield         | OpenFOAM: The Open Source CFD Toolbox
   \\    /   O peration     | Website:  https://openfoam.org
    \\  /    A nd           | Version:  7
     \\/     M anipulation  |
\*---------------------------------------------------------------------------*/
FoamFile
{
    version     2.0;
    format      ascii;
    class       volScalarField;
    location    "0.055";
    object      pPrime2Mean;
}
// * * * * * * * * * * * * * * * * * * * * * * * * * * * * * * * * * * * * * //

dimensions      [2 -2 -4 0 0 0 0];

internalField   nonuniform List<scalar> 
1440
(
4.63333e+06
4.60927e+06
4.6107e+06
4.59097e+06
4.58484e+06
4.56949e+06
4.55973e+06
4.54642e+06
4.53527e+06
4.52247e+06
4.5101e+06
4.49668e+06
4.48304e+06
4.46857e+06
4.45363e+06
4.43797e+06
4.42175e+06
4.40492e+06
4.38756e+06
4.36968e+06
4.35138e+06
4.33268e+06
4.31362e+06
4.29423e+06
4.27451e+06
4.25448e+06
4.23415e+06
4.21353e+06
4.19261e+06
4.1714e+06
4.1499e+06
4.12814e+06
4.10609e+06
4.08376e+06
4.06116e+06
4.03829e+06
4.01512e+06
3.99165e+06
3.96788e+06
3.94382e+06
3.91946e+06
3.8948e+06
3.86985e+06
3.84462e+06
3.8191e+06
3.79331e+06
3.76727e+06
3.74097e+06
3.71443e+06
3.68763e+06
3.6606e+06
3.63336e+06
3.60591e+06
3.57824e+06
3.55038e+06
3.52232e+06
3.49408e+06
3.46563e+06
3.43699e+06
3.40817e+06
4.63408e+06
4.61021e+06
4.61185e+06
4.59191e+06
4.58552e+06
4.5699e+06
4.55994e+06
4.54646e+06
4.53521e+06
4.52236e+06
4.51e+06
4.49661e+06
4.48304e+06
4.46869e+06
4.4539e+06
4.43843e+06
4.42241e+06
4.40574e+06
4.38851e+06
4.37071e+06
4.35241e+06
4.33363e+06
4.31442e+06
4.29484e+06
4.27492e+06
4.25468e+06
4.23417e+06
4.21339e+06
4.19236e+06
4.17108e+06
4.14955e+06
4.12779e+06
4.10578e+06
4.0835e+06
4.06096e+06
4.03817e+06
4.01508e+06
3.9917e+06
3.96801e+06
3.94402e+06
3.91974e+06
3.89513e+06
3.87022e+06
3.84501e+06
3.81951e+06
3.79371e+06
3.76764e+06
3.74132e+06
3.71473e+06
3.68789e+06
3.66082e+06
3.63354e+06
3.60604e+06
3.57834e+06
3.55045e+06
3.52238e+06
3.49412e+06
3.46566e+06
3.43703e+06
3.40821e+06
4.6343e+06
4.61051e+06
4.61227e+06
4.59229e+06
4.58582e+06
4.57009e+06
4.56002e+06
4.54644e+06
4.53509e+06
4.52217e+06
4.50978e+06
4.49639e+06
4.48284e+06
4.46853e+06
4.45382e+06
4.43844e+06
4.42252e+06
4.40597e+06
4.38882e+06
4.37109e+06
4.35282e+06
4.33404e+06
4.31481e+06
4.29517e+06
4.27517e+06
4.25484e+06
4.23422e+06
4.21334e+06
4.19222e+06
4.17087e+06
4.1493e+06
4.12749e+06
4.10546e+06
4.08319e+06
4.06067e+06
4.0379e+06
4.01486e+06
3.99153e+06
3.96792e+06
3.94401e+06
3.91979e+06
3.89526e+06
3.87043e+06
3.84528e+06
3.81983e+06
3.79408e+06
3.76803e+06
3.74171e+06
3.71511e+06
3.68825e+06
3.66115e+06
3.63382e+06
3.60628e+06
3.57852e+06
3.55058e+06
3.52244e+06
3.49413e+06
3.46563e+06
3.43696e+06
3.40813e+06
4.63477e+06
4.61102e+06
4.61281e+06
4.59276e+06
4.5862e+06
4.57035e+06
4.56019e+06
4.54653e+06
4.53513e+06
4.52218e+06
4.50977e+06
4.49638e+06
4.48284e+06
4.46856e+06
4.45388e+06
4.43854e+06
4.42266e+06
4.40614e+06
4.38902e+06
4.3713e+06
4.35303e+06
4.33423e+06
4.31497e+06
4.29529e+06
4.27523e+06
4.25484e+06
4.23417e+06
4.21325e+06
4.19209e+06
4.1707e+06
4.1491e+06
4.12729e+06
4.10525e+06
4.08298e+06
4.06048e+06
4.03772e+06
4.01471e+06
3.99141e+06
3.96784e+06
3.94396e+06
3.91979e+06
3.8953e+06
3.87051e+06
3.84539e+06
3.81997e+06
3.79424e+06
3.76821e+06
3.74188e+06
3.71528e+06
3.68842e+06
3.6613e+06
3.63395e+06
3.60638e+06
3.5786e+06
3.55062e+06
3.52246e+06
3.49412e+06
3.4656e+06
3.43691e+06
3.40806e+06
4.63492e+06
4.61117e+06
4.61299e+06
4.59292e+06
4.58634e+06
4.57046e+06
4.56026e+06
4.54656e+06
4.53513e+06
4.52214e+06
4.50972e+06
4.49632e+06
4.48277e+06
4.4685e+06
4.45383e+06
4.43851e+06
4.42265e+06
4.40614e+06
4.38904e+06
4.37133e+06
4.35306e+06
4.33427e+06
4.315e+06
4.2953e+06
4.27523e+06
4.25482e+06
4.23413e+06
4.21319e+06
4.19202e+06
4.17062e+06
4.14902e+06
4.1272e+06
4.10517e+06
4.08291e+06
4.06041e+06
4.03767e+06
4.01467e+06
3.99139e+06
3.96783e+06
3.94398e+06
3.91983e+06
3.89536e+06
3.87058e+06
3.84548e+06
3.82007e+06
3.79434e+06
3.76831e+06
3.74199e+06
3.71538e+06
3.6885e+06
3.66138e+06
3.63401e+06
3.60643e+06
3.57863e+06
3.55064e+06
3.52246e+06
3.49411e+06
3.46558e+06
3.43688e+06
3.40802e+06
4.63508e+06
4.61134e+06
4.61315e+06
4.59307e+06
4.58646e+06
4.57055e+06
4.56032e+06
4.54661e+06
4.53516e+06
4.52216e+06
4.50973e+06
4.49632e+06
4.48278e+06
4.46851e+06
4.45385e+06
4.43853e+06
4.42267e+06
4.40617e+06
4.38907e+06
4.37135e+06
4.35308e+06
4.33428e+06
4.31501e+06
4.2953e+06
4.27521e+06
4.2548e+06
4.2341e+06
4.21315e+06
4.19197e+06
4.17057e+06
4.14897e+06
4.12715e+06
4.10512e+06
4.08286e+06
4.06037e+06
4.03764e+06
4.01464e+06
3.99137e+06
3.96783e+06
3.94398e+06
3.91983e+06
3.89537e+06
3.8706e+06
3.84551e+06
3.8201e+06
3.79437e+06
3.76834e+06
3.74202e+06
3.71541e+06
3.68853e+06
3.6614e+06
3.63403e+06
3.60643e+06
3.57863e+06
3.55064e+06
3.52246e+06
3.4941e+06
3.46556e+06
3.43687e+06
3.408e+06
4.63508e+06
4.61134e+06
4.61315e+06
4.59307e+06
4.58646e+06
4.57055e+06
4.56032e+06
4.54661e+06
4.53516e+06
4.52216e+06
4.50973e+06
4.49632e+06
4.48278e+06
4.46851e+06
4.45385e+06
4.43853e+06
4.42267e+06
4.40617e+06
4.38907e+06
4.37135e+06
4.35308e+06
4.33428e+06
4.31501e+06
4.2953e+06
4.27521e+06
4.2548e+06
4.2341e+06
4.21315e+06
4.19197e+06
4.17057e+06
4.14897e+06
4.12715e+06
4.10512e+06
4.08286e+06
4.06037e+06
4.03764e+06
4.01464e+06
3.99137e+06
3.96783e+06
3.94398e+06
3.91983e+06
3.89537e+06
3.8706e+06
3.84551e+06
3.8201e+06
3.79437e+06
3.76834e+06
3.74202e+06
3.71541e+06
3.68853e+06
3.6614e+06
3.63403e+06
3.60643e+06
3.57863e+06
3.55064e+06
3.52246e+06
3.4941e+06
3.46556e+06
3.43687e+06
3.40801e+06
4.63492e+06
4.61117e+06
4.61299e+06
4.59292e+06
4.58634e+06
4.57046e+06
4.56026e+06
4.54656e+06
4.53513e+06
4.52214e+06
4.50972e+06
4.49632e+06
4.48277e+06
4.4685e+06
4.45383e+06
4.43851e+06
4.42265e+06
4.40614e+06
4.38904e+06
4.37133e+06
4.35306e+06
4.33427e+06
4.315e+06
4.2953e+06
4.27523e+06
4.25482e+06
4.23413e+06
4.21319e+06
4.19202e+06
4.17062e+06
4.14902e+06
4.1272e+06
4.10517e+06
4.08291e+06
4.06041e+06
4.03767e+06
4.01467e+06
3.99139e+06
3.96783e+06
3.94398e+06
3.91983e+06
3.89536e+06
3.87058e+06
3.84548e+06
3.82007e+06
3.79434e+06
3.76831e+06
3.74199e+06
3.71538e+06
3.6885e+06
3.66138e+06
3.63401e+06
3.60643e+06
3.57863e+06
3.55064e+06
3.52246e+06
3.49411e+06
3.46558e+06
3.43688e+06
3.40802e+06
4.63477e+06
4.61102e+06
4.61281e+06
4.59276e+06
4.5862e+06
4.57035e+06
4.56019e+06
4.54653e+06
4.53513e+06
4.52218e+06
4.50977e+06
4.49638e+06
4.48284e+06
4.46856e+06
4.45388e+06
4.43854e+06
4.42266e+06
4.40614e+06
4.38902e+06
4.3713e+06
4.35303e+06
4.33423e+06
4.31497e+06
4.29529e+06
4.27523e+06
4.25484e+06
4.23417e+06
4.21325e+06
4.19209e+06
4.1707e+06
4.1491e+06
4.12729e+06
4.10525e+06
4.08298e+06
4.06048e+06
4.03772e+06
4.01471e+06
3.99141e+06
3.96784e+06
3.94396e+06
3.91979e+06
3.8953e+06
3.87051e+06
3.84539e+06
3.81997e+06
3.79424e+06
3.76821e+06
3.74189e+06
3.71528e+06
3.68842e+06
3.6613e+06
3.63395e+06
3.60638e+06
3.5786e+06
3.55062e+06
3.52246e+06
3.49411e+06
3.4656e+06
3.43691e+06
3.40806e+06
4.6343e+06
4.61051e+06
4.61227e+06
4.59229e+06
4.58582e+06
4.57009e+06
4.56002e+06
4.54644e+06
4.53509e+06
4.52217e+06
4.50978e+06
4.49639e+06
4.48284e+06
4.46854e+06
4.45382e+06
4.43845e+06
4.42252e+06
4.40597e+06
4.38882e+06
4.37109e+06
4.35282e+06
4.33404e+06
4.31481e+06
4.29517e+06
4.27517e+06
4.25483e+06
4.23422e+06
4.21334e+06
4.19222e+06
4.17087e+06
4.1493e+06
4.12749e+06
4.10546e+06
4.08319e+06
4.06067e+06
4.0379e+06
4.01486e+06
3.99153e+06
3.96792e+06
3.94401e+06
3.91979e+06
3.89527e+06
3.87043e+06
3.84528e+06
3.81983e+06
3.79408e+06
3.76803e+06
3.74171e+06
3.71511e+06
3.68825e+06
3.66115e+06
3.63382e+06
3.60628e+06
3.57852e+06
3.55058e+06
3.52244e+06
3.49413e+06
3.46563e+06
3.43697e+06
3.40813e+06
4.63408e+06
4.61021e+06
4.61185e+06
4.59191e+06
4.58552e+06
4.5699e+06
4.55994e+06
4.54646e+06
4.53521e+06
4.52236e+06
4.51e+06
4.49661e+06
4.48304e+06
4.46869e+06
4.4539e+06
4.43843e+06
4.42241e+06
4.40574e+06
4.38851e+06
4.37071e+06
4.35241e+06
4.33363e+06
4.31442e+06
4.29484e+06
4.27492e+06
4.25468e+06
4.23417e+06
4.21339e+06
4.19236e+06
4.17108e+06
4.14955e+06
4.12779e+06
4.10578e+06
4.0835e+06
4.06096e+06
4.03817e+06
4.01508e+06
3.9917e+06
3.96801e+06
3.94402e+06
3.91974e+06
3.89513e+06
3.87022e+06
3.84501e+06
3.81951e+06
3.79371e+06
3.76764e+06
3.74132e+06
3.71473e+06
3.68789e+06
3.66082e+06
3.63354e+06
3.60604e+06
3.57834e+06
3.55045e+06
3.52237e+06
3.49411e+06
3.46566e+06
3.43703e+06
3.40822e+06
4.63333e+06
4.60927e+06
4.6107e+06
4.59097e+06
4.58484e+06
4.56949e+06
4.55973e+06
4.54642e+06
4.53527e+06
4.52247e+06
4.5101e+06
4.49668e+06
4.48304e+06
4.46857e+06
4.45363e+06
4.43797e+06
4.42175e+06
4.40492e+06
4.38755e+06
4.36968e+06
4.35138e+06
4.33268e+06
4.31362e+06
4.29423e+06
4.27451e+06
4.25448e+06
4.23415e+06
4.21353e+06
4.19261e+06
4.1714e+06
4.1499e+06
4.12814e+06
4.10609e+06
4.08376e+06
4.06116e+06
4.03829e+06
4.01512e+06
3.99165e+06
3.96788e+06
3.94382e+06
3.91946e+06
3.8948e+06
3.86985e+06
3.84462e+06
3.8191e+06
3.79331e+06
3.76727e+06
3.74098e+06
3.71443e+06
3.68763e+06
3.6606e+06
3.63337e+06
3.60591e+06
3.57824e+06
3.55038e+06
3.52232e+06
3.49406e+06
3.46562e+06
3.437e+06
3.40818e+06
3.37915e+06
3.34998e+06
3.32066e+06
3.29119e+06
3.26154e+06
3.23172e+06
3.20172e+06
3.17153e+06
3.14117e+06
3.11064e+06
3.07995e+06
3.0491e+06
3.01811e+06
2.98698e+06
2.95571e+06
2.92432e+06
2.89279e+06
2.86114e+06
2.82938e+06
2.79751e+06
2.76553e+06
2.73347e+06
2.70131e+06
2.66905e+06
2.63671e+06
2.60429e+06
2.57177e+06
2.53919e+06
2.50652e+06
2.47378e+06
2.44097e+06
2.40809e+06
2.37517e+06
2.34218e+06
2.30915e+06
2.27607e+06
2.24295e+06
2.20977e+06
2.17658e+06
2.14334e+06
2.11008e+06
2.07678e+06
2.04349e+06
2.01016e+06
1.97685e+06
1.9435e+06
1.91019e+06
1.8768e+06
1.8435e+06
1.81008e+06
1.77678e+06
1.74329e+06
1.70996e+06
1.67634e+06
1.64295e+06
1.60913e+06
1.57558e+06
1.54158e+06
1.50752e+06
1.47409e+06
3.37921e+06
3.35005e+06
3.32072e+06
3.29122e+06
3.26155e+06
3.23171e+06
3.2017e+06
3.1715e+06
3.14114e+06
3.11061e+06
3.07992e+06
3.04908e+06
3.01808e+06
2.98696e+06
2.95569e+06
2.92429e+06
2.89276e+06
2.8611e+06
2.82935e+06
2.79748e+06
2.7655e+06
2.73343e+06
2.70126e+06
2.669e+06
2.63666e+06
2.60423e+06
2.57171e+06
2.53912e+06
2.50646e+06
2.47372e+06
2.44092e+06
2.40804e+06
2.37512e+06
2.34214e+06
2.30911e+06
2.27603e+06
2.24291e+06
2.20974e+06
2.17655e+06
2.14331e+06
2.11005e+06
2.07676e+06
2.04347e+06
2.01014e+06
1.97683e+06
1.94347e+06
1.91016e+06
1.87677e+06
1.84346e+06
1.81004e+06
1.77675e+06
1.74326e+06
1.70993e+06
1.67631e+06
1.64293e+06
1.6091e+06
1.57557e+06
1.54157e+06
1.50758e+06
1.47411e+06
3.37912e+06
3.34994e+06
3.3206e+06
3.2911e+06
3.26143e+06
3.2316e+06
3.2016e+06
3.17143e+06
3.14109e+06
3.11059e+06
3.07993e+06
3.04911e+06
3.01814e+06
2.98703e+06
2.95577e+06
2.92437e+06
2.89284e+06
2.86119e+06
2.82942e+06
2.79754e+06
2.76555e+06
2.73346e+06
2.70127e+06
2.669e+06
2.63664e+06
2.60419e+06
2.57167e+06
2.53907e+06
2.5064e+06
2.47367e+06
2.44086e+06
2.408e+06
2.37508e+06
2.34211e+06
2.30909e+06
2.27602e+06
2.24291e+06
2.20974e+06
2.17655e+06
2.14332e+06
2.11007e+06
2.07678e+06
2.04348e+06
2.01015e+06
1.97684e+06
1.94347e+06
1.91016e+06
1.87677e+06
1.84346e+06
1.81004e+06
1.77674e+06
1.74325e+06
1.70992e+06
1.67631e+06
1.64292e+06
1.6091e+06
1.57558e+06
1.54158e+06
1.50762e+06
1.47412e+06
3.37904e+06
3.34985e+06
3.32051e+06
3.29101e+06
3.26134e+06
3.23152e+06
3.20153e+06
3.17137e+06
3.14105e+06
3.11057e+06
3.07993e+06
3.04913e+06
3.01818e+06
2.98707e+06
2.95582e+06
2.92443e+06
2.89291e+06
2.86125e+06
2.82948e+06
2.79759e+06
2.76559e+06
2.73349e+06
2.70129e+06
2.669e+06
2.63663e+06
2.60417e+06
2.57164e+06
2.53903e+06
2.50636e+06
2.47362e+06
2.44082e+06
2.40796e+06
2.37505e+06
2.34208e+06
2.30906e+06
2.276e+06
2.24289e+06
2.20974e+06
2.17655e+06
2.14332e+06
2.11008e+06
2.07679e+06
2.0435e+06
2.01017e+06
1.97685e+06
1.94349e+06
1.91017e+06
1.87678e+06
1.84346e+06
1.81004e+06
1.77673e+06
1.74324e+06
1.70991e+06
1.67629e+06
1.64291e+06
1.60909e+06
1.57558e+06
1.54159e+06
1.50765e+06
1.47414e+06
3.379e+06
3.34982e+06
3.32048e+06
3.29098e+06
3.26131e+06
3.23149e+06
3.20151e+06
3.17136e+06
3.14105e+06
3.11058e+06
3.07994e+06
3.04915e+06
3.01821e+06
2.98711e+06
2.95586e+06
2.92447e+06
2.89294e+06
2.86129e+06
2.82951e+06
2.79761e+06
2.76561e+06
2.7335e+06
2.7013e+06
2.669e+06
2.63662e+06
2.60416e+06
2.57162e+06
2.53901e+06
2.50634e+06
2.4736e+06
2.4408e+06
2.40794e+06
2.37503e+06
2.34207e+06
2.30906e+06
2.27599e+06
2.24289e+06
2.20974e+06
2.17656e+06
2.14333e+06
2.11009e+06
2.0768e+06
2.04351e+06
2.01018e+06
1.97687e+06
1.9435e+06
1.91018e+06
1.87678e+06
1.84347e+06
1.81004e+06
1.77673e+06
1.74324e+06
1.70991e+06
1.67629e+06
1.64291e+06
1.60909e+06
1.57558e+06
1.54159e+06
1.50766e+06
1.47414e+06
3.37898e+06
3.3498e+06
3.32046e+06
3.29096e+06
3.2613e+06
3.23148e+06
3.2015e+06
3.17135e+06
3.14105e+06
3.11058e+06
3.07995e+06
3.04916e+06
3.01822e+06
2.98712e+06
2.95587e+06
2.92448e+06
2.89296e+06
2.8613e+06
2.82952e+06
2.79762e+06
2.76561e+06
2.7335e+06
2.70129e+06
2.66899e+06
2.63661e+06
2.60415e+06
2.57161e+06
2.539e+06
2.50633e+06
2.47359e+06
2.44079e+06
2.40793e+06
2.37502e+06
2.34206e+06
2.30905e+06
2.27599e+06
2.24289e+06
2.20974e+06
2.17656e+06
2.14334e+06
2.11009e+06
2.0768e+06
2.04352e+06
2.01018e+06
1.97687e+06
1.9435e+06
1.91018e+06
1.87678e+06
1.84346e+06
1.81003e+06
1.77673e+06
1.74323e+06
1.70991e+06
1.67629e+06
1.64291e+06
1.60909e+06
1.57558e+06
1.54159e+06
1.50767e+06
1.47415e+06
3.37898e+06
3.3498e+06
3.32046e+06
3.29096e+06
3.2613e+06
3.23148e+06
3.20149e+06
3.17135e+06
3.14104e+06
3.11058e+06
3.07995e+06
3.04916e+06
3.01821e+06
2.98712e+06
2.95587e+06
2.92448e+06
2.89295e+06
2.8613e+06
2.82952e+06
2.79762e+06
2.76561e+06
2.7335e+06
2.70129e+06
2.66899e+06
2.63661e+06
2.60415e+06
2.57161e+06
2.539e+06
2.50633e+06
2.47359e+06
2.44079e+06
2.40793e+06
2.37502e+06
2.34206e+06
2.30905e+06
2.27599e+06
2.24289e+06
2.20974e+06
2.17656e+06
2.14334e+06
2.11009e+06
2.0768e+06
2.04352e+06
2.01018e+06
1.97687e+06
1.9435e+06
1.91018e+06
1.87678e+06
1.84346e+06
1.81004e+06
1.77673e+06
1.74323e+06
1.70991e+06
1.67629e+06
1.64291e+06
1.60909e+06
1.57558e+06
1.54159e+06
1.50767e+06
1.47415e+06
3.379e+06
3.34982e+06
3.32047e+06
3.29097e+06
3.26131e+06
3.23148e+06
3.20149e+06
3.17134e+06
3.14103e+06
3.11056e+06
3.07993e+06
3.04914e+06
3.01819e+06
2.98709e+06
2.95585e+06
2.92446e+06
2.89293e+06
2.86128e+06
2.8295e+06
2.79761e+06
2.7656e+06
2.73349e+06
2.70129e+06
2.66899e+06
2.63661e+06
2.60415e+06
2.57161e+06
2.539e+06
2.50633e+06
2.47359e+06
2.44079e+06
2.40793e+06
2.37502e+06
2.34206e+06
2.30905e+06
2.27599e+06
2.24288e+06
2.20973e+06
2.17655e+06
2.14333e+06
2.11008e+06
2.07679e+06
2.04351e+06
2.01017e+06
1.97686e+06
1.94349e+06
1.91017e+06
1.87678e+06
1.84346e+06
1.81003e+06
1.77672e+06
1.74323e+06
1.7099e+06
1.67629e+06
1.6429e+06
1.60909e+06
1.57557e+06
1.54158e+06
1.50765e+06
1.47414e+06
3.37904e+06
3.34985e+06
3.32051e+06
3.29099e+06
3.26132e+06
3.23149e+06
3.20149e+06
3.17134e+06
3.14102e+06
3.11054e+06
3.0799e+06
3.0491e+06
3.01815e+06
2.98704e+06
2.95579e+06
2.9244e+06
2.89288e+06
2.86123e+06
2.82946e+06
2.79758e+06
2.76558e+06
2.73348e+06
2.70128e+06
2.66898e+06
2.63661e+06
2.60415e+06
2.57162e+06
2.53901e+06
2.50634e+06
2.4736e+06
2.4408e+06
2.40794e+06
2.37503e+06
2.34206e+06
2.30904e+06
2.27598e+06
2.24287e+06
2.20972e+06
2.17654e+06
2.14331e+06
2.11006e+06
2.07678e+06
2.04349e+06
2.01016e+06
1.97684e+06
1.94348e+06
1.91016e+06
1.87677e+06
1.84345e+06
1.81003e+06
1.77672e+06
1.74323e+06
1.7099e+06
1.67628e+06
1.6429e+06
1.60908e+06
1.57557e+06
1.54158e+06
1.50764e+06
1.47413e+06
3.37912e+06
3.34994e+06
3.32059e+06
3.29107e+06
3.26139e+06
3.23154e+06
3.20153e+06
3.17135e+06
3.14101e+06
3.11051e+06
3.07985e+06
3.04903e+06
3.01807e+06
2.98695e+06
2.95569e+06
2.9243e+06
2.89278e+06
2.86114e+06
2.82937e+06
2.7975e+06
2.76551e+06
2.73342e+06
2.70123e+06
2.66895e+06
2.63659e+06
2.60414e+06
2.57162e+06
2.53902e+06
2.50635e+06
2.47361e+06
2.44081e+06
2.40795e+06
2.37504e+06
2.34206e+06
2.30904e+06
2.27597e+06
2.24286e+06
2.2097e+06
2.17651e+06
2.14328e+06
2.11003e+06
2.07674e+06
2.04345e+06
2.01012e+06
1.97681e+06
1.94344e+06
1.91013e+06
1.87674e+06
1.84343e+06
1.81001e+06
1.77671e+06
1.74322e+06
1.70989e+06
1.67628e+06
1.64289e+06
1.60907e+06
1.57555e+06
1.54156e+06
1.50759e+06
1.47409e+06
3.37922e+06
3.35004e+06
3.32069e+06
3.29116e+06
3.26146e+06
3.23158e+06
3.20153e+06
3.17133e+06
3.14096e+06
3.11043e+06
3.07975e+06
3.04891e+06
3.01792e+06
2.98678e+06
2.95552e+06
2.92412e+06
2.89261e+06
2.86098e+06
2.82924e+06
2.79738e+06
2.76541e+06
2.73334e+06
2.70117e+06
2.6689e+06
2.63655e+06
2.60412e+06
2.57161e+06
2.53902e+06
2.50634e+06
2.47361e+06
2.44081e+06
2.40794e+06
2.37502e+06
2.34204e+06
2.30901e+06
2.27594e+06
2.24282e+06
2.20965e+06
2.17646e+06
2.14322e+06
2.10997e+06
2.07668e+06
2.04339e+06
2.01006e+06
1.97675e+06
1.9434e+06
1.91009e+06
1.87671e+06
1.8434e+06
1.80998e+06
1.77668e+06
1.74319e+06
1.70986e+06
1.67624e+06
1.64286e+06
1.60904e+06
1.57551e+06
1.54151e+06
1.50752e+06
1.47406e+06
3.37917e+06
3.34998e+06
3.32061e+06
3.29106e+06
3.26134e+06
3.23145e+06
3.20139e+06
3.17117e+06
3.14079e+06
3.11026e+06
3.07958e+06
3.04874e+06
3.01774e+06
2.98661e+06
2.95535e+06
2.92397e+06
2.89246e+06
2.86084e+06
2.8291e+06
2.79726e+06
2.76529e+06
2.73323e+06
2.70107e+06
2.6688e+06
2.63646e+06
2.60403e+06
2.57152e+06
2.53893e+06
2.50626e+06
2.47353e+06
2.44073e+06
2.40785e+06
2.37493e+06
2.34196e+06
2.30892e+06
2.27585e+06
2.24273e+06
2.20956e+06
2.17637e+06
2.14313e+06
2.10988e+06
2.07659e+06
2.0433e+06
2.00998e+06
1.97667e+06
1.94331e+06
1.91001e+06
1.87663e+06
1.84333e+06
1.80991e+06
1.77662e+06
1.74313e+06
1.7098e+06
1.67618e+06
1.64279e+06
1.60897e+06
1.57543e+06
1.54144e+06
1.50737e+06
1.47396e+06
)
;

boundaryField
{
    upperWall
    {
        type            calculated;
        value           nonuniform List<scalar> 
120
(
4.63333e+06
4.60927e+06
4.6107e+06
4.59097e+06
4.58484e+06
4.56949e+06
4.55973e+06
4.54642e+06
4.53527e+06
4.52247e+06
4.5101e+06
4.49668e+06
4.48304e+06
4.46857e+06
4.45363e+06
4.43797e+06
4.42175e+06
4.40492e+06
4.38755e+06
4.36968e+06
4.35138e+06
4.33268e+06
4.31362e+06
4.29423e+06
4.27451e+06
4.25448e+06
4.23415e+06
4.21353e+06
4.19261e+06
4.1714e+06
4.1499e+06
4.12814e+06
4.10609e+06
4.08376e+06
4.06116e+06
4.03829e+06
4.01512e+06
3.99165e+06
3.96788e+06
3.94382e+06
3.91946e+06
3.8948e+06
3.86985e+06
3.84462e+06
3.8191e+06
3.79331e+06
3.76727e+06
3.74098e+06
3.71443e+06
3.68763e+06
3.6606e+06
3.63337e+06
3.60591e+06
3.57824e+06
3.55038e+06
3.52232e+06
3.49406e+06
3.46562e+06
3.437e+06
3.40818e+06
3.37917e+06
3.34998e+06
3.32061e+06
3.29106e+06
3.26134e+06
3.23145e+06
3.20139e+06
3.17117e+06
3.14079e+06
3.11026e+06
3.07958e+06
3.04874e+06
3.01774e+06
2.98661e+06
2.95535e+06
2.92397e+06
2.89246e+06
2.86084e+06
2.8291e+06
2.79726e+06
2.76529e+06
2.73323e+06
2.70107e+06
2.6688e+06
2.63646e+06
2.60403e+06
2.57152e+06
2.53893e+06
2.50626e+06
2.47353e+06
2.44073e+06
2.40785e+06
2.37493e+06
2.34196e+06
2.30892e+06
2.27585e+06
2.24273e+06
2.20956e+06
2.17637e+06
2.14313e+06
2.10988e+06
2.07659e+06
2.0433e+06
2.00998e+06
1.97667e+06
1.94331e+06
1.91001e+06
1.87663e+06
1.84333e+06
1.80991e+06
1.77662e+06
1.74313e+06
1.7098e+06
1.67618e+06
1.64279e+06
1.60897e+06
1.57543e+06
1.54144e+06
1.50737e+06
1.47396e+06
)
;
    }
    lowerWall
    {
        type            calculated;
        value           nonuniform List<scalar> 
60
(
4.63333e+06
4.60927e+06
4.6107e+06
4.59097e+06
4.58484e+06
4.56949e+06
4.55973e+06
4.54642e+06
4.53527e+06
4.52247e+06
4.5101e+06
4.49668e+06
4.48304e+06
4.46857e+06
4.45363e+06
4.43797e+06
4.42175e+06
4.40492e+06
4.38756e+06
4.36968e+06
4.35138e+06
4.33268e+06
4.31362e+06
4.29423e+06
4.27451e+06
4.25448e+06
4.23415e+06
4.21353e+06
4.19261e+06
4.1714e+06
4.1499e+06
4.12814e+06
4.10609e+06
4.08376e+06
4.06116e+06
4.03829e+06
4.01512e+06
3.99165e+06
3.96788e+06
3.94382e+06
3.91946e+06
3.8948e+06
3.86985e+06
3.84462e+06
3.8191e+06
3.79331e+06
3.76727e+06
3.74097e+06
3.71443e+06
3.68763e+06
3.6606e+06
3.63336e+06
3.60591e+06
3.57824e+06
3.55038e+06
3.52232e+06
3.49408e+06
3.46563e+06
3.43699e+06
3.40817e+06
)
;
    }
    heatedWall
    {
        type            calculated;
        value           nonuniform List<scalar> 
60
(
3.37915e+06
3.34998e+06
3.32066e+06
3.29119e+06
3.26154e+06
3.23172e+06
3.20172e+06
3.17153e+06
3.14117e+06
3.11064e+06
3.07995e+06
3.0491e+06
3.01811e+06
2.98698e+06
2.95571e+06
2.92432e+06
2.89279e+06
2.86114e+06
2.82938e+06
2.79751e+06
2.76553e+06
2.73347e+06
2.70131e+06
2.66905e+06
2.63671e+06
2.60429e+06
2.57177e+06
2.53919e+06
2.50652e+06
2.47378e+06
2.44097e+06
2.40809e+06
2.37517e+06
2.34218e+06
2.30915e+06
2.27607e+06
2.24295e+06
2.20977e+06
2.17658e+06
2.14334e+06
2.11008e+06
2.07678e+06
2.04349e+06
2.01016e+06
1.97685e+06
1.9435e+06
1.91019e+06
1.8768e+06
1.8435e+06
1.81008e+06
1.77678e+06
1.74329e+06
1.70996e+06
1.67634e+06
1.64295e+06
1.60913e+06
1.57558e+06
1.54158e+06
1.50752e+06
1.47409e+06
)
;
    }
    inlet
    {
        type            calculated;
        value           nonuniform List<scalar> 
12
(
4.63333e+06
4.63408e+06
4.6343e+06
4.63477e+06
4.63492e+06
4.63508e+06
4.63508e+06
4.63492e+06
4.63477e+06
4.6343e+06
4.63408e+06
4.63333e+06
)
;
    }
    outlet
    {
        type            calculated;
        value           nonuniform List<scalar> 
12
(
1.45567e+06
1.45568e+06
1.45569e+06
1.45571e+06
1.45571e+06
1.45572e+06
1.45572e+06
1.45571e+06
1.4557e+06
1.45567e+06
1.45563e+06
1.45554e+06
)
;
    }
    frontAndBack
    {
        type            empty;
    }
}


// ************************************************************************* //
