/*--------------------------------*- C++ -*----------------------------------*\
  =========                 |
  \\      /  F ield         | OpenFOAM: The Open Source CFD Toolbox
   \\    /   O peration     | Website:  https://openfoam.org
    \\  /    A nd           | Version:  7
     \\/     M anipulation  |
\*---------------------------------------------------------------------------*/
FoamFile
{
    version     2.0;
    format      ascii;
    class       volScalarField;
    location    "0.055";
    object      T;
}
// * * * * * * * * * * * * * * * * * * * * * * * * * * * * * * * * * * * * * //

dimensions      [0 0 0 1 0 0 0];

internalField   nonuniform List<scalar> 
1440
(
289.997
289.986
289.97
289.953
289.936
289.922
289.911
289.905
289.904
289.909
289.919
289.934
289.951
289.97
289.985
289.995
289.996
289.987
289.969
289.946
289.924
289.907
289.901
289.906
289.92
289.936
289.947
289.949
289.941
289.928
289.916
289.911
289.917
289.93
289.945
289.955
289.956
289.95
289.94
289.932
289.928
289.928
289.931
289.933
289.933
289.927
289.922
289.911
289.908
289.891
289.905
289.873
289.934
289.827
290.051
289.646
290.424
289.026
291.58
286.921
289.997
289.984
289.966
289.944
289.921
289.9
289.881
289.866
289.857
289.853
289.854
289.861
289.873
289.89
289.91
289.933
289.955
289.976
289.993
290.006
290.013
290.014
290.009
289.999
289.984
289.964
289.942
289.918
289.894
289.871
289.851
289.836
289.827
289.826
289.834
289.85
289.874
289.903
289.937
289.972
290.006
290.036
290.06
290.073
290.078
290.068
290.049
290.013
289.977
289.922
289.882
289.816
289.795
289.728
289.752
289.687
289.776
289.71
289.858
289.83
289.997
289.984
289.966
289.944
289.922
289.9
289.881
289.865
289.854
289.848
289.846
289.85
289.858
289.871
289.888
289.907
289.928
289.95
289.97
289.989
290.004
290.015
290.02
290.019
290.013
289.999
289.98
289.956
289.928
289.896
289.864
289.833
289.804
289.779
289.76
289.748
289.744
289.749
289.762
289.785
289.815
289.851
289.893
289.937
289.982
290.024
290.062
290.092
290.115
290.125
290.126
290.112
290.088
290.051
290.006
289.952
289.894
289.834
289.774
289.722
289.997
289.984
289.966
289.945
289.922
289.901
289.882
289.866
289.855
289.849
289.847
289.851
289.86
289.872
289.889
289.908
289.929
289.95
289.971
289.989
290.004
290.015
290.021
290.021
290.014
290.002
289.983
289.959
289.93
289.898
289.864
289.83
289.797
289.768
289.743
289.725
289.714
289.711
289.717
289.733
289.757
289.789
289.828
289.872
289.92
289.969
290.017
290.062
290.102
290.133
290.155
290.165
290.163
290.147
290.119
290.078
290.026
289.965
289.896
289.822
289.997
289.984
289.966
289.945
289.922
289.901
289.882
289.866
289.855
289.849
289.848
289.852
289.86
289.873
289.89
289.909
289.931
289.952
289.973
289.991
290.006
290.017
290.022
290.022
290.015
290.001
289.982
289.957
289.927
289.894
289.86
289.825
289.792
289.762
289.737
289.719
289.709
289.707
289.714
289.731
289.757
289.79
289.831
289.877
289.926
289.977
290.027
290.073
290.114
290.146
290.168
290.178
290.175
290.158
290.128
290.084
290.029
289.963
289.89
289.812
289.997
289.984
289.966
289.945
289.922
289.901
289.882
289.866
289.855
289.849
289.848
289.852
289.861
289.874
289.891
289.91
289.931
289.953
289.974
289.992
290.007
290.018
290.023
290.022
290.015
290.001
289.981
289.956
289.925
289.892
289.857
289.822
289.789
289.759
289.735
289.717
289.708
289.707
289.715
289.733
289.76
289.795
289.837
289.884
289.934
289.986
290.036
290.083
290.123
290.155
290.175
290.183
290.178
290.158
290.125
290.079
290.02
289.951
289.874
289.793
289.997
289.984
289.966
289.945
289.922
289.901
289.882
289.866
289.855
289.849
289.848
289.852
289.861
289.874
289.891
289.91
289.931
289.953
289.974
289.992
290.007
290.018
290.023
290.022
290.015
290.001
289.981
289.956
289.925
289.892
289.857
289.822
289.789
289.759
289.735
289.717
289.708
289.707
289.715
289.733
289.76
289.795
289.837
289.884
289.934
289.986
290.036
290.083
290.123
290.155
290.175
290.183
290.178
290.158
290.125
290.079
290.02
289.951
289.874
289.793
289.997
289.984
289.966
289.945
289.922
289.901
289.882
289.866
289.855
289.849
289.848
289.852
289.86
289.873
289.89
289.909
289.931
289.952
289.973
289.991
290.006
290.017
290.022
290.022
290.015
290.001
289.982
289.957
289.927
289.894
289.86
289.825
289.792
289.762
289.737
289.719
289.709
289.707
289.714
289.731
289.757
289.79
289.831
289.877
289.926
289.977
290.027
290.073
290.114
290.146
290.168
290.178
290.175
290.158
290.127
290.084
290.029
289.963
289.89
289.811
289.997
289.984
289.966
289.945
289.922
289.901
289.882
289.866
289.855
289.849
289.847
289.851
289.86
289.872
289.889
289.908
289.929
289.95
289.971
289.989
290.004
290.015
290.021
290.021
290.014
290.002
289.983
289.959
289.93
289.898
289.864
289.83
289.797
289.768
289.743
289.725
289.714
289.711
289.717
289.733
289.757
289.789
289.828
289.872
289.92
289.969
290.017
290.062
290.102
290.133
290.155
290.165
290.163
290.148
290.12
290.079
290.028
289.966
289.897
289.824
289.997
289.984
289.966
289.944
289.922
289.9
289.881
289.865
289.854
289.848
289.846
289.85
289.858
289.871
289.888
289.907
289.928
289.95
289.97
289.989
290.004
290.015
290.02
290.019
290.013
289.999
289.98
289.956
289.928
289.896
289.864
289.833
289.804
289.779
289.76
289.748
289.744
289.749
289.762
289.785
289.815
289.851
289.893
289.937
289.981
290.024
290.062
290.093
290.115
290.126
290.126
290.113
290.089
290.053
290.008
289.955
289.897
289.836
289.777
289.722
289.997
289.984
289.966
289.944
289.921
289.9
289.881
289.866
289.857
289.853
289.854
289.861
289.873
289.89
289.91
289.933
289.955
289.976
289.993
290.006
290.013
290.014
290.009
289.999
289.984
289.964
289.942
289.918
289.894
289.871
289.851
289.836
289.827
289.826
289.834
289.85
289.874
289.903
289.937
289.972
290.006
290.036
290.059
290.074
290.077
290.069
290.048
290.016
289.975
289.927
289.877
289.827
289.783
289.748
289.727
289.721
289.731
289.758
289.801
289.856
289.997
289.986
289.97
289.953
289.936
289.922
289.911
289.905
289.904
289.909
289.919
289.934
289.951
289.97
289.985
289.995
289.996
289.987
289.969
289.946
289.924
289.907
289.901
289.906
289.92
289.936
289.947
289.949
289.941
289.928
289.916
289.911
289.917
289.93
289.945
289.955
289.956
289.95
289.94
289.932
289.928
289.929
289.931
289.933
289.932
289.928
289.921
289.913
289.904
289.898
289.894
289.893
289.895
289.901
289.908
289.916
289.924
289.931
289.937
289.94
295.786
305.139
314.426
323.701
332.929
341.943
350.577
358.726
366.412
373.749
380.899
387.995
395.114
402.263
409.39
416.403
423.193
429.659
435.747
441.471
446.924
452.248
457.579
462.999
468.519
474.088
479.629
485.076
490.387
495.536
500.483
505.168
509.526
513.514
517.148
520.516
523.768
527.07
530.564
534.321
538.362
542.648
547.154
551.79
556.493
561.063
565.396
569.268
572.772
575.868
578.868
581.822
584.788
587.936
590.408
593.432
594.475
597.591
597.266
601.854
289.894
290.125
290.518
291.061
291.746
292.556
293.473
294.476
295.551
296.689
297.884
299.134
300.442
301.811
303.251
304.771
306.379
308.074
309.842
311.664
313.524
315.414
317.336
319.294
321.289
323.307
325.332
327.346
329.346
331.336
333.325
335.311
337.279
339.203
341.058
342.832
344.539
346.214
347.91
349.668
351.526
353.483
355.538
357.647
359.802
361.955
364.117
366.252
368.371
370.464
372.508
374.577
376.526
378.65
380.419
382.707
384.085
386.702
387.416
390.665
289.674
289.635
289.61
289.602
289.614
289.646
289.698
289.771
289.867
289.983
290.116
290.258
290.405
290.559
290.723
290.895
291.067
291.227
291.37
291.5
291.631
291.768
291.91
292.045
292.165
292.274
292.393
292.544
292.735
292.96
293.207
293.466
293.746
294.065
294.44
294.873
295.347
295.838
296.333
296.834
297.364
297.938
298.561
299.211
299.853
300.448
300.972
301.423
301.802
302.145
302.425
302.714
302.889
303.157
303.191
303.54
303.446
304.076
303.933
305.011
289.747
289.675
289.608
289.549
289.501
289.468
289.452
289.455
289.474
289.51
289.566
289.642
289.737
289.842
289.95
290.056
290.162
290.27
290.377
290.466
290.523
290.541
290.525
290.489
290.438
290.364
290.252
290.094
289.903
289.703
289.52
289.368
289.238
289.12
289.01
288.923
288.888
288.927
289.047
289.231
289.455
289.697
289.952
290.23
290.542
290.89
291.243
291.577
291.824
291.998
292.026
292.017
291.851
291.717
291.39
291.098
290.623
290.075
289.648
288.795
289.732
289.655
289.582
289.518
289.465
289.43
289.413
289.415
289.434
289.47
289.53
289.616
289.724
289.841
289.957
290.069
290.185
290.31
290.436
290.543
290.606
290.619
290.595
290.553
290.501
290.424
290.296
290.105
289.866
289.617
289.395
289.212
289.057
288.906
288.753
288.618
288.541
288.557
288.676
288.876
289.118
289.369
289.62
289.887
290.193
290.553
290.938
291.318
291.605
291.803
291.82
291.783
291.564
291.378
290.995
290.614
290.076
289.321
288.836
287.603
289.713
289.634
289.56
289.495
289.444
289.413
289.401
289.407
289.429
289.472
289.541
289.638
289.755
289.878
289.996
290.111
290.234
290.368
290.5
290.603
290.654
290.652
290.617
290.572
290.516
290.428
290.278
290.059
289.796
289.535
289.315
289.141
288.99
288.837
288.679
288.547
288.489
288.54
288.702
288.942
289.215
289.486
289.753
290.039
290.373
290.766
291.182
291.58
291.864
292.04
292.018
291.939
291.669
291.449
291.008
290.598
289.985
289.196
288.64
287.373
289.712
289.634
289.559
289.494
289.444
289.412
289.4
289.406
289.429
289.472
289.541
289.639
289.757
289.88
289.998
290.114
290.237
290.372
290.505
290.608
290.659
290.656
290.621
290.575
290.521
290.432
290.28
290.058
289.792
289.531
289.312
289.139
288.989
288.836
288.677
288.545
288.489
288.544
288.712
288.957
289.233
289.506
289.775
290.064
290.402
290.8
291.222
291.623
291.908
292.082
292.056
291.973
291.697
291.474
291.026
290.614
289.99
289.199
288.633
287.362
289.732
289.655
289.582
289.517
289.464
289.428
289.412
289.414
289.433
289.47
289.53
289.618
289.727
289.846
289.963
290.076
290.194
290.322
290.451
290.56
290.623
290.635
290.611
290.57
290.521
290.444
290.314
290.117
289.873
289.621
289.399
289.219
289.066
288.915
288.76
288.624
288.551
288.576
288.707
288.921
289.174
289.433
289.691
289.966
290.283
290.656
291.058
291.451
291.747
291.947
291.96
291.917
291.688
291.499
291.103
290.72
290.161
289.392
288.884
287.619
289.749
289.677
289.609
289.549
289.5
289.465
289.448
289.449
289.466
289.501
289.554
289.629
289.724
289.831
289.941
290.048
290.155
290.267
290.38
290.48
290.548
290.573
290.562
290.528
290.481
290.413
290.306
290.149
289.947
289.727
289.52
289.344
289.192
289.051
288.913
288.789
288.709
288.703
288.785
288.941
289.142
289.362
289.59
289.837
290.118
290.445
290.795
291.143
291.416
291.62
291.67
291.672
291.511
291.365
291.047
290.706
290.251
289.564
289.158
288.027
289.674
289.635
289.609
289.596
289.597
289.613
289.642
289.684
289.74
289.809
289.887
289.967
290.044
290.118
290.19
290.261
290.324
290.367
290.379
290.361
290.321
290.269
290.211
290.136
290.032
289.896
289.739
289.587
289.46
289.366
289.295
289.229
289.164
289.112
289.097
289.141
289.246
289.391
289.55
289.705
289.855
290.019
290.212
290.436
290.667
290.869
291.003
291.051
291.011
290.91
290.743
290.558
290.283
290.014
289.574
289.219
288.649
288.312
287.845
287.616
289.919
289.982
290.042
290.093
290.132
290.154
290.155
290.136
290.098
290.048
289.99
289.927
289.862
289.797
289.735
289.683
289.645
289.625
289.621
289.632
289.654
289.687
289.731
289.79
289.861
289.939
290.018
290.087
290.141
290.176
290.193
290.194
290.18
290.149
290.096
290.017
289.913
289.791
289.661
289.54
289.442
289.375
289.341
289.338
289.356
289.385
289.417
289.446
289.467
289.481
289.489
289.492
289.495
289.503
289.518
289.551
289.589
289.666
289.707
289.843
289.942
289.941
289.938
289.933
289.927
289.919
289.911
289.904
289.897
289.891
289.886
289.883
289.882
289.882
289.884
289.888
289.892
289.896
289.901
289.906
289.91
289.913
289.915
289.916
289.915
289.912
289.908
289.901
289.894
289.885
289.875
289.866
289.857
289.848
289.841
289.835
289.832
289.831
289.833
289.838
289.845
289.853
289.861
289.869
289.875
289.88
289.884
289.888
289.893
289.899
289.906
289.915
289.927
289.94
289.956
289.972
289.99
290.006
290.023
290.032
)
;

boundaryField
{
    upperWall
    {
        type            fixedValue;
        value           uniform 290;
    }
    lowerWall
    {
        type            fixedValue;
        value           uniform 290;
    }
    heatedWall
    {
        type            externalWallHeatFluxTemperature;
        mode            power;
        kappaMethod     fluidThermo;
        kappa           none;
        alphaAni        Anialpha;
        Q               890;
        qr              none;
        refValue        nonuniform List<scalar> 
60
(
398.497
410.846
422.93
434.859
446.681
458.158
469.117
479.411
489.089
498.3
507.259
516.138
525.037
533.961
542.848
551.577
560.008
568.015
575.528
582.569
589.26
595.784
602.314
608.954
615.716
622.535
629.31
635.959
642.432
648.697
654.702
660.372
665.624
670.403
674.73
678.717
682.56
686.465
690.616
695.1
699.944
705.099
710.528
716.131
721.805
727.329
732.524
737.182
741.322
745.043
748.556
752.158
755.633
759.511
762.378
766.121
767.221
771.111
770.587
776.28
)
;
        refGradient     nonuniform List<scalar> 
60
(
54793.6
56393.6
57883.2
59294.4
60676.3
61993.6
63240.4
64393
65463.6
66466.8
67432.4
68380.5
69325.8
70269.6
71206.7
72123.2
73003.5
73832.5
74601.3
75311.2
75975.7
76615.8
77252.6
77899.1
78558.2
79222.7
79881.4
80524.5
81147.3
81746.2
82316.6
82849.6
83336.2
83768.4
84147.3
84483.4
84798.9
85116.7
85459.6
85838.7
86258.2
86714.2
87201.1
87714
88232.9
88747.6
89217.4
89649.4
90000.7
90342.4
90617.7
90963.4
91234
91628.1
91848
92245.3
92291.6
92705
92606.7
93161.1
)
;
        valueFraction   uniform 4.94066e-324;
        value           nonuniform List<scalar> 
60
(
398.524
410.877
422.957
434.878
446.697
458.181
469.153
479.463
489.156
498.374
507.334
516.208
525.1
534.018
542.903
551.634
560.074
568.095
575.624
582.679
589.378
595.903
602.427
609.06
615.815
622.631
629.407
636.059
642.539
648.811
654.827
660.511
665.781
670.58
674.925
678.922
682.766
686.664
690.801
695.268
700.097
705.238
710.656
716.254
721.929
727.464
732.678
737.361
741.524
745.26
748.776
752.378
755.852
759.739
762.623
766.392
767.522
771.413
770.904
776.531
)
;
    }
    inlet
    {
        type            fixedValue;
        value           uniform 290;
    }
    outlet
    {
        type            inletOutlet;
        inletValue      uniform 290;
        value           nonuniform List<scalar> 
12
(
601.813
390.652
305.009
288.78
287.584
287.353
287.343
287.6
288.009
287.612
289.845
290.032
)
;
    }
    frontAndBack
    {
        type            empty;
    }
}


// ************************************************************************* //
