/*--------------------------------*- C++ -*----------------------------------*\
  =========                 |
  \\      /  F ield         | OpenFOAM: The Open Source CFD Toolbox
   \\    /   O peration     | Website:  https://openfoam.org
    \\  /    A nd           | Version:  7
     \\/     M anipulation  |
\*---------------------------------------------------------------------------*/
FoamFile
{
    version     2.0;
    format      ascii;
    class       volScalarField;
    location    "2.95";
    object      alphat;
}
// * * * * * * * * * * * * * * * * * * * * * * * * * * * * * * * * * * * * * //

dimensions      [1 -1 -1 0 0 0 0];

internalField   nonuniform List<scalar> 
1800
(
0.00155752
0.00357091
0.00412873
0.00409216
0.00391993
0.00367058
0.00346899
0.00331519
0.00319907
0.00310881
0.00303603
0.00297526
0.00292302
0.00287714
0.00283623
0.00279942
0.00276608
0.00273571
0.00270797
0.00268247
0.00265901
0.00263727
0.00261707
0.0025983
0.00258047
0.00256427
0.00254768
0.0025344
0.00251438
0.00252981
0.000278793
0.00112517
0.00197077
0.0023864
0.00257731
0.00264416
0.00265918
0.00265613
0.00264731
0.00263257
0.0026167
0.0026001
0.00258311
0.00256637
0.0025501
0.00253446
0.00251937
0.00250499
0.00249103
0.00247787
0.0024648
0.00245297
0.00244041
0.00243031
0.00241749
0.00240994
0.00239594
0.0023906
0.00237207
0.00237359
3.08094e-05
0.000219393
0.000497039
0.00082185
0.0010675
0.00122353
0.00132357
0.00139162
0.00144194
0.00148228
0.0015163
0.0015472
0.00157589
0.00160308
0.00162797
0.0016517
0.00167286
0.0016934
0.00171091
0.00172867
0.00174258
0.00175812
0.00176855
0.00178245
0.00178965
0.00180217
0.00180706
0.00181786
0.00182084
0.00182845
1.36333e-05
3.58052e-05
9.39179e-05
0.000178862
0.000285333
0.000383051
0.000458525
0.000519684
0.000568219
0.000610254
0.000645597
0.000678501
0.00070736
0.000735882
0.000761395
0.000787579
0.000811076
0.000835844
0.000857992
0.000881771
0.000902949
0.000925832
0.000946337
0.000968129
0.000988358
0.00100853
0.00102911
0.00104669
0.00106859
0.00108249
1.34262e-05
1.46164e-05
2.02184e-05
3.29524e-05
5.20287e-05
7.83247e-05
0.00010195
0.00012539
0.000145413
0.000165113
0.000182781
0.000200372
0.000216694
0.00023297
0.000248433
0.000263731
0.000278565
0.000293063
0.000307465
0.000321319
0.000335494
0.000348823
0.000362997
0.000375851
0.000390301
0.000402602
0.000417724
0.00042912
0.000445564
0.000455753
1.33974e-05
1.39433e-05
1.55121e-05
1.69211e-05
1.94986e-05
2.12098e-05
2.44004e-05
2.63887e-05
3.00807e-05
3.22824e-05
3.64075e-05
3.88645e-05
4.35032e-05
4.62114e-05
5.13422e-05
5.42607e-05
5.98044e-05
6.28926e-05
6.87787e-05
7.2012e-05
7.814e-05
8.16074e-05
8.78599e-05
9.16485e-05
9.80145e-05
0.000102058
0.000108657
0.000112841
0.000119878
0.000124142
1.33973e-05
1.39434e-05
1.55122e-05
1.69203e-05
1.96803e-05
2.12813e-05
2.45702e-05
2.64648e-05
3.02035e-05
3.23377e-05
3.65031e-05
3.89046e-05
4.35809e-05
4.62403e-05
5.14037e-05
5.4274e-05
5.98426e-05
6.28834e-05
6.87868e-05
7.19686e-05
7.81537e-05
8.14562e-05
8.78811e-05
9.12898e-05
9.792e-05
0.000101412
0.000108199
0.000111727
0.000118591
0.000122213
1.34262e-05
1.46152e-05
2.021e-05
3.29336e-05
5.50765e-05
7.51455e-05
0.000105143
0.000122722
0.000147659
0.000163062
0.000184594
0.00019863
0.000218271
0.000231411
0.000249849
0.000262273
0.000279841
0.00029166
0.000308612
0.000319931
0.000336477
0.000347391
0.000363707
0.000374279
0.000390508
0.000400687
0.000416927
0.000426457
0.000442759
0.00045166
1.36326e-05
3.57825e-05
9.38741e-05
0.000178803
0.000285587
0.000382704
0.00045872
0.000519358
0.000568447
0.000609911
0.000645872
0.000678109
0.000707699
0.000735416
0.000761802
0.000786996
0.000811552
0.000835107
0.000858544
0.000880827
0.000903544
0.000924589
0.000946864
0.000966455
0.000988544
0.00100622
0.00102835
0.00104339
0.00106553
0.00107776
3.07866e-05
0.000219326
0.000496956
0.000821789
0.00106744
0.00122349
0.00132353
0.00139159
0.00144192
0.00148226
0.00151628
0.00154717
0.00157588
0.00160304
0.00162796
0.00165162
0.00167284
0.00169327
0.00171088
0.00172843
0.00174252
0.00175767
0.00176838
0.00178167
0.00178918
0.00180089
0.00180571
0.00181538
0.00181814
0.00182415
0.000278733
0.00112508
0.00197072
0.00238639
0.00257732
0.00264418
0.00265921
0.00265616
0.00264735
0.00263261
0.00261674
0.00260014
0.00258315
0.00256642
0.00255013
0.00253452
0.00251939
0.00250509
0.002491
0.00247802
0.00246472
0.00245322
0.00244024
0.0024307
0.00241732
0.00241032
0.0023961
0.00239054
0.00237297
0.00237356
0.00155757
0.00357103
0.00412887
0.00409229
0.00392006
0.0036707
0.0034691
0.00331528
0.00319916
0.0031089
0.00303612
0.00297536
0.00292311
0.00287725
0.00283635
0.00279958
0.00276622
0.00273597
0.00270818
0.00268293
0.00265934
0.00263813
0.00261767
0.00259998
0.00258162
0.0025675
0.0025501
0.00254007
0.0025212
0.00253528
0.00646019
0.00677219
0.00671595
0.00663518
0.00657918
0.00653537
0.00650127
0.00647633
0.00645885
0.00644718
0.00643934
0.00643431
0.00643089
0.00642846
0.00642659
0.00642498
0.0064235
0.00642205
0.0064206
0.00641914
0.00641766
0.00641619
0.00641472
0.00641326
0.00641182
0.00641041
0.00640904
0.0064077
0.0064064
0.00640513
0.00640391
0.00640271
0.00640156
0.00640043
0.00639933
0.00639826
0.00639722
0.00639621
0.00639522
0.00639426
0.00639332
0.00639241
0.00639151
0.00639064
0.00638979
0.00638895
0.00638813
0.00638734
0.00638656
0.00638581
0.00638508
0.00638437
0.00638368
0.00638302
0.00638239
0.00638178
0.0063812
0.00638065
0.00638014
0.00637966
0.00637922
0.00637882
0.00637846
0.00637815
0.00637788
0.00637766
0.00637748
0.00637736
0.00637729
0.00637728
0.00637732
0.00637742
0.00637757
0.00637779
0.00637807
0.0063784
0.0063788
0.00637925
0.00637977
0.00638034
0.00638098
0.00638168
0.00638244
0.00638326
0.00638413
0.00638506
0.00638605
0.00638709
0.00638818
0.00638932
0.00639052
0.00639176
0.00639305
0.00639439
0.00639576
0.00639718
0.00639864
0.00640014
0.00640167
0.00640324
0.00640483
0.00640646
0.00640811
0.00640979
0.00641149
0.00641323
0.00641497
0.00641675
0.00641851
0.00642034
0.0064221
0.006424
0.00642573
0.00642775
0.00642935
0.0064316
0.00643292
0.00643561
0.00643645
0.00643985
0.00644125
0.00715042
0.0072585
0.00723362
0.00719868
0.00716802
0.007146
0.00713105
0.00712063
0.00711394
0.00710974
0.00710674
0.00710442
0.00710243
0.00710058
0.00709878
0.00709698
0.00709517
0.00709336
0.00709156
0.00708978
0.00708803
0.00708631
0.00708464
0.00708301
0.00708142
0.00707988
0.00707839
0.00707694
0.00707554
0.00707419
0.00707288
0.0070716
0.00707036
0.00706916
0.00706799
0.00706685
0.00706573
0.00706465
0.0070636
0.00706257
0.00706156
0.00706059
0.00705963
0.0070587
0.00705778
0.00705689
0.00705602
0.00705518
0.00705435
0.00705356
0.00705278
0.00705204
0.00705132
0.00705063
0.00704996
0.00704933
0.00704873
0.00704817
0.00704764
0.00704716
0.00704672
0.00704633
0.00704599
0.00704569
0.00704544
0.00704525
0.00704512
0.00704504
0.00704502
0.00704506
0.00704516
0.00704533
0.00704556
0.00704586
0.00704623
0.00704666
0.00704715
0.00704772
0.00704835
0.00704904
0.00704981
0.00705064
0.00705154
0.0070525
0.00705352
0.00705461
0.00705575
0.00705696
0.00705822
0.00705953
0.00706091
0.00706233
0.00706381
0.00706533
0.00706691
0.00706852
0.00707018
0.00707188
0.00707361
0.00707539
0.00707719
0.00707903
0.0070809
0.00708279
0.00708472
0.00708665
0.00708863
0.00709059
0.00709264
0.0070946
0.00709672
0.00709863
0.0071009
0.00710266
0.0071052
0.00710663
0.00710964
0.0071107
0.0071143
0.00491864
0.00596874
0.00631497
0.00641717
0.00644812
0.0064604
0.00646885
0.00647639
0.00648267
0.00648753
0.00649083
0.00649253
0.00649289
0.00649225
0.00649091
0.00648913
0.00648712
0.00648499
0.00648285
0.00648075
0.00647871
0.00647676
0.0064749
0.00647312
0.00647142
0.00646981
0.00646826
0.00646677
0.00646535
0.00646398
0.00646267
0.0064614
0.00646018
0.006459
0.00645785
0.00645674
0.00645566
0.00645461
0.00645358
0.00645259
0.00645162
0.00645067
0.00644975
0.00644885
0.00644798
0.00644712
0.00644629
0.00644547
0.00644468
0.00644391
0.00644316
0.00644243
0.00644173
0.00644106
0.00644041
0.00643979
0.0064392
0.00643864
0.00643811
0.00643761
0.00643716
0.00643674
0.00643637
0.00643604
0.00643575
0.00643551
0.00643532
0.00643519
0.0064351
0.00643507
0.00643509
0.00643517
0.00643531
0.00643551
0.00643577
0.00643609
0.00643647
0.00643691
0.00643741
0.00643798
0.0064386
0.00643929
0.00644003
0.00644084
0.00644171
0.00644263
0.00644362
0.00644465
0.00644575
0.00644689
0.00644809
0.00644933
0.00645063
0.00645197
0.00645336
0.00645479
0.00645626
0.00645778
0.00645933
0.00646091
0.00646253
0.00646418
0.00646586
0.00646757
0.0064693
0.00647107
0.00647284
0.00647466
0.00647645
0.00647833
0.00648012
0.00648208
0.00648383
0.00648592
0.00648752
0.00648987
0.00649118
0.00649391
0.00649499
0.00649821
0.00273279
0.00405517
0.00476144
0.00510462
0.00527989
0.00538213
0.00544979
0.00549775
0.00553182
0.00555524
0.00557044
0.00557944
0.00558399
0.00558551
0.00558509
0.00558352
0.00558134
0.00557889
0.00557638
0.00557393
0.00557161
0.00556944
0.00556742
0.00556555
0.0055638
0.00556217
0.00556063
0.00555917
0.00555779
0.00555648
0.00555522
0.00555401
0.00555285
0.00555173
0.00555065
0.0055496
0.00554858
0.00554759
0.00554662
0.00554568
0.00554477
0.00554388
0.00554301
0.00554217
0.00554135
0.00554055
0.00553977
0.00553901
0.00553826
0.00553754
0.00553684
0.00553616
0.0055355
0.00553487
0.00553426
0.00553368
0.00553312
0.0055326
0.0055321
0.00553163
0.00553119
0.00553079
0.00553043
0.00553011
0.00552983
0.00552959
0.0055294
0.00552925
0.00552914
0.00552908
0.00552907
0.00552911
0.00552921
0.00552935
0.00552955
0.0055298
0.00553011
0.00553047
0.00553088
0.00553135
0.00553186
0.00553243
0.00553306
0.00553374
0.00553447
0.00553525
0.00553608
0.00553696
0.00553788
0.00553886
0.00553987
0.00554094
0.00554204
0.00554319
0.00554437
0.0055456
0.00554686
0.00554815
0.00554948
0.00555084
0.00555223
0.00555365
0.00555509
0.00555656
0.00555805
0.00555957
0.00556109
0.00556266
0.0055642
0.00556583
0.00556737
0.00556907
0.00557056
0.00557239
0.00557375
0.00557579
0.00557692
0.00557924
0.00558024
0.00558302
0.00110372
0.00176725
0.00265055
0.00329083
0.0037057
0.00397402
0.00415052
0.00426835
0.00434704
0.00439877
0.00443174
0.00445174
0.00446291
0.00446828
0.00446995
0.00446941
0.00446762
0.00446523
0.0044626
0.00445998
0.00445748
0.00445516
0.00445302
0.00445107
0.00444928
0.00444763
0.00444609
0.00444466
0.00444331
0.00444203
0.00444081
0.00443964
0.00443852
0.00443744
0.0044364
0.00443538
0.0044344
0.00443344
0.0044325
0.00443159
0.00443071
0.00442985
0.00442902
0.00442821
0.00442742
0.00442665
0.0044259
0.00442517
0.00442446
0.00442376
0.00442309
0.00442244
0.00442181
0.0044212
0.00442062
0.00442006
0.00441952
0.00441901
0.00441853
0.00441807
0.00441765
0.00441725
0.00441689
0.00441657
0.00441628
0.00441603
0.00441582
0.00441564
0.00441551
0.00441541
0.00441536
0.00441535
0.00441538
0.00441546
0.00441559
0.00441576
0.00441597
0.00441623
0.00441654
0.00441689
0.00441728
0.00441772
0.0044182
0.00441872
0.00441929
0.0044199
0.00442056
0.00442125
0.00442198
0.00442275
0.00442356
0.0044244
0.00442528
0.00442619
0.00442713
0.00442811
0.00442911
0.00443015
0.00443121
0.0044323
0.00443341
0.00443454
0.00443569
0.00443687
0.00443806
0.00443928
0.0044405
0.00444176
0.00444299
0.00444431
0.00444553
0.00444692
0.00444808
0.00444959
0.00445064
0.00445232
0.00445322
0.00445505
0.00445589
0.00445813
0.000297695
0.00049762
0.000856391
0.00134121
0.00184976
0.0022712
0.00259544
0.00283332
0.00300225
0.0031192
0.00319838
0.00325075
0.00328447
0.00330542
0.0033178
0.00332453
0.00332765
0.00332852
0.00332805
0.00332684
0.00332528
0.00332359
0.00332192
0.00332033
0.00331885
0.0033175
0.00331627
0.00331516
0.00331414
0.00331321
0.00331236
0.00331157
0.00331085
0.00331017
0.00330954
0.00330895
0.00330839
0.00330786
0.00330735
0.00330686
0.00330638
0.00330593
0.00330549
0.00330506
0.00330465
0.00330426
0.00330388
0.0033035
0.00330314
0.0033028
0.00330246
0.00330214
0.00330183
0.00330154
0.00330126
0.003301
0.00330075
0.00330052
0.00330031
0.00330011
0.00329993
0.00329977
0.00329964
0.00329952
0.00329943
0.00329936
0.00329932
0.00329931
0.00329931
0.00329935
0.00329941
0.00329949
0.00329961
0.00329975
0.00329993
0.00330013
0.00330037
0.00330063
0.00330092
0.00330125
0.0033016
0.00330197
0.00330238
0.00330282
0.00330329
0.00330378
0.00330431
0.00330486
0.00330543
0.00330604
0.00330666
0.00330731
0.00330799
0.00330868
0.0033094
0.00331015
0.00331091
0.00331169
0.0033125
0.00331332
0.00331415
0.00331501
0.00331587
0.00331676
0.00331764
0.00331857
0.00331947
0.00332043
0.00332133
0.00332235
0.00332322
0.00332431
0.00332512
0.00332632
0.00332704
0.00332834
0.00332899
0.00333036
0.003331
0.0033327
0.00029475
0.000488888
0.000842942
0.00132459
0.00184092
0.00226974
0.00260006
0.00284292
0.00301597
0.00313648
0.00321881
0.00327408
0.00331053
0.00333411
0.00334905
0.00335828
0.00336383
0.00336707
0.00336892
0.00336996
0.00337059
0.00337102
0.00337139
0.00337178
0.00337223
0.00337274
0.00337331
0.00337394
0.00337461
0.00337533
0.00337607
0.00337683
0.00337761
0.0033784
0.0033792
0.00338
0.0033808
0.00338159
0.00338238
0.00338315
0.00338391
0.00338467
0.00338541
0.00338615
0.00338688
0.0033876
0.00338831
0.00338901
0.0033897
0.00339038
0.00339105
0.00339172
0.00339238
0.00339303
0.00339367
0.00339431
0.00339494
0.00339557
0.00339618
0.00339679
0.0033974
0.00339799
0.00339859
0.00339918
0.00339977
0.00340036
0.00340095
0.00340153
0.00340211
0.0034027
0.00340328
0.00340386
0.00340445
0.00340504
0.00340564
0.00340624
0.00340685
0.00340746
0.00340809
0.00340871
0.00340935
0.00341
0.00341065
0.00341132
0.00341199
0.00341268
0.00341339
0.0034141
0.00341483
0.00341557
0.00341632
0.00341708
0.00341786
0.00341865
0.00341945
0.00342027
0.0034211
0.00342194
0.00342279
0.00342366
0.00342454
0.00342544
0.00342633
0.00342725
0.00342816
0.00342911
0.00343003
0.00343101
0.00343193
0.00343296
0.00343384
0.00343495
0.00343577
0.00343698
0.00343771
0.00343903
0.00343968
0.00344106
0.00344171
0.00344343
0.00109969
0.00175523
0.00263466
0.00328777
0.00371511
0.00399362
0.00417865
0.00430383
0.00438905
0.00444672
0.00448514
0.00451023
0.00452625
0.00453628
0.00454244
0.00454623
0.00454862
0.00455024
0.0045515
0.00455263
0.00455374
0.00455491
0.00455615
0.00455746
0.00455883
0.00456025
0.00456169
0.00456315
0.00456461
0.00456607
0.00456751
0.00456895
0.00457037
0.00457176
0.00457314
0.00457449
0.00457582
0.00457713
0.00457842
0.00457969
0.00458094
0.00458218
0.0045834
0.0045846
0.0045858
0.00458697
0.00458813
0.00458928
0.0045904
0.00459152
0.00459262
0.00459371
0.00459478
0.00459585
0.0045969
0.00459795
0.00459898
0.00459999
0.004601
0.004602
0.00460298
0.00460396
0.00460493
0.00460589
0.00460685
0.00460781
0.00460875
0.0046097
0.00461063
0.00461157
0.0046125
0.00461343
0.00461436
0.0046153
0.00461624
0.00461718
0.00461813
0.00461908
0.00462003
0.004621
0.00462197
0.00462294
0.00462393
0.00462493
0.00462594
0.00462696
0.00462799
0.00462904
0.00463009
0.00463116
0.00463225
0.00463334
0.00463445
0.00463557
0.00463671
0.00463786
0.00463903
0.00464021
0.00464141
0.00464261
0.00464383
0.00464506
0.0046463
0.00464756
0.00464882
0.00465011
0.00465138
0.0046527
0.00465398
0.00465534
0.0046566
0.00465802
0.00465922
0.00466076
0.00466183
0.00466354
0.00466446
0.00466633
0.00466719
0.00466948
0.00273926
0.00404646
0.00477104
0.00513126
0.00531984
0.00543278
0.00550964
0.00556559
0.0056069
0.00563693
0.00565814
0.00567274
0.00568255
0.00568906
0.00569338
0.00569633
0.00569846
0.00570015
0.00570162
0.005703
0.00570439
0.0057058
0.00570726
0.00570876
0.0057103
0.00571186
0.00571344
0.00571503
0.00571662
0.00571821
0.0057198
0.00572137
0.00572294
0.0057245
0.00572604
0.00572756
0.00572907
0.00573056
0.00573203
0.00573349
0.00573493
0.00573636
0.00573778
0.00573918
0.00574057
0.00574195
0.00574331
0.00574465
0.00574598
0.0057473
0.00574861
0.00574991
0.0057512
0.00575247
0.00575374
0.005755
0.00575625
0.00575749
0.00575872
0.00575995
0.00576116
0.00576238
0.00576359
0.00576479
0.005766
0.0057672
0.0057684
0.0057696
0.0057708
0.005772
0.00577321
0.00577441
0.00577562
0.00577684
0.00577807
0.0057793
0.00578054
0.00578179
0.00578304
0.00578431
0.00578558
0.00578687
0.00578817
0.00578948
0.00579081
0.00579215
0.00579351
0.00579488
0.00579626
0.00579766
0.00579907
0.0058005
0.00580194
0.00580339
0.00580487
0.00580636
0.00580786
0.00580938
0.00581091
0.00581246
0.00581402
0.00581559
0.00581717
0.00581877
0.00582037
0.005822
0.00582362
0.00582527
0.0058269
0.00582859
0.0058302
0.00583196
0.0058335
0.00583538
0.00583678
0.00583888
0.00584003
0.0058424
0.00584343
0.00584626
0.00492678
0.00598773
0.00635897
0.00647863
0.0065223
0.00654524
0.00656305
0.0065788
0.00659285
0.00660483
0.00661457
0.00662237
0.00662843
0.00663314
0.00663685
0.00663986
0.00664239
0.00664463
0.00664667
0.00664861
0.00665048
0.00665233
0.00665417
0.00665599
0.00665782
0.00665964
0.00666146
0.00666328
0.00666509
0.0066669
0.0066687
0.00667049
0.00667228
0.00667405
0.00667581
0.00667756
0.00667929
0.00668101
0.00668271
0.00668441
0.00668609
0.00668775
0.00668941
0.00669105
0.00669268
0.00669429
0.00669589
0.00669748
0.00669905
0.00670061
0.00670216
0.00670371
0.00670524
0.00670677
0.00670828
0.00670979
0.00671129
0.00671278
0.00671426
0.00671574
0.00671722
0.00671869
0.00672016
0.00672163
0.00672311
0.00672458
0.00672605
0.00672752
0.006729
0.00673047
0.00673196
0.00673345
0.00673494
0.00673645
0.00673796
0.00673948
0.00674101
0.00674255
0.0067441
0.00674566
0.00674723
0.00674881
0.00675041
0.00675202
0.00675365
0.00675529
0.00675694
0.00675861
0.00676029
0.00676199
0.0067637
0.00676542
0.00676716
0.00676891
0.00677068
0.00677247
0.00677426
0.00677608
0.0067779
0.00677974
0.00678158
0.00678344
0.00678531
0.0067872
0.00678909
0.006791
0.0067929
0.00679484
0.00679675
0.00679873
0.00680061
0.00680265
0.00680447
0.00680663
0.0068083
0.0068107
0.00681206
0.00681484
0.00681597
0.00681925
0.00646145
0.00720987
0.00734088
0.00733282
0.00730928
0.00728895
0.00727612
0.00726921
0.007267
0.00726766
0.00726995
0.00727339
0.00727703
0.00728064
0.00728407
0.00728726
0.00729021
0.00729297
0.00729556
0.00729801
0.00730037
0.00730265
0.00730487
0.00730704
0.00730919
0.0073113
0.0073134
0.00731547
0.00731754
0.00731959
0.00732163
0.00732367
0.00732569
0.0073277
0.0073297
0.00733168
0.00733365
0.00733561
0.00733755
0.00733948
0.0073414
0.00734331
0.0073452
0.00734708
0.00734895
0.00735081
0.00735265
0.00735448
0.00735629
0.0073581
0.00735989
0.00736168
0.00736345
0.00736522
0.00736698
0.00736873
0.00737048
0.00737221
0.00737395
0.00737567
0.0073774
0.00737912
0.00738085
0.00738257
0.0073843
0.00738602
0.00738775
0.00738947
0.0073912
0.00739294
0.00739468
0.00739642
0.00739818
0.00739994
0.00740171
0.00740349
0.00740528
0.00740707
0.00740887
0.00741069
0.00741251
0.00741435
0.00741619
0.00741806
0.00741993
0.00742181
0.00742371
0.00742562
0.00742754
0.00742947
0.00743142
0.00743337
0.00743534
0.00743732
0.00743932
0.00744133
0.00744335
0.00744537
0.00744741
0.00744946
0.00745152
0.00745359
0.00745567
0.00745776
0.00745985
0.00746196
0.00746406
0.0074662
0.0074683
0.00747046
0.00747254
0.00747477
0.00747678
0.00747912
0.00748097
0.00748358
0.00748507
0.00748815
0.00748926
0.00749292
0.00649797
0.00685656
0.00681447
0.00674769
0.00670139
0.00666585
0.00663934
0.00662144
0.00661076
0.00660528
0.00660337
0.00660382
0.00660556
0.00660805
0.00661079
0.00661357
0.00661629
0.00661888
0.00662133
0.00662367
0.0066259
0.00662804
0.00663011
0.00663213
0.00663411
0.00663606
0.00663799
0.0066399
0.0066418
0.00664369
0.00664558
0.00664746
0.00664933
0.00665119
0.00665305
0.00665489
0.00665672
0.00665855
0.00666037
0.00666217
0.00666397
0.00666576
0.00666754
0.00666931
0.00667106
0.00667281
0.00667454
0.00667626
0.00667797
0.00667968
0.00668137
0.00668306
0.00668474
0.00668641
0.00668807
0.00668973
0.00669138
0.00669303
0.00669467
0.00669631
0.00669795
0.00669959
0.00670123
0.00670287
0.00670451
0.00670615
0.00670779
0.00670943
0.00671108
0.00671273
0.00671438
0.00671604
0.00671771
0.00671938
0.00672106
0.00672274
0.00672443
0.00672613
0.00672784
0.00672955
0.00673127
0.006733
0.00673473
0.00673648
0.00673823
0.00674
0.00674177
0.00674355
0.00674534
0.00674713
0.00674894
0.00675075
0.00675257
0.0067544
0.00675624
0.00675808
0.00675994
0.0067618
0.00676366
0.00676554
0.00676742
0.0067693
0.00677119
0.00677309
0.00677499
0.00677691
0.00677881
0.00678074
0.00678264
0.0067846
0.00678648
0.00678848
0.0067903
0.0067924
0.00679409
0.00679641
0.00679778
0.00680054
0.00680143
0.00680489
)
;

boundaryField
{
    upperWall
    {
        type            zeroGradient;
    }
    lowerWall
    {
        type            zeroGradient;
    }
    heatedWall
    {
        type            zeroGradient;
    }
    inlet
    {
        type            zeroGradient;
    }
    outlet
    {
        type            zeroGradient;
    }
    frontAndBack
    {
        type            empty;
    }
}


// ************************************************************************* //
