/*--------------------------------*- C++ -*----------------------------------*\
  =========                 |
  \\      /  F ield         | OpenFOAM: The Open Source CFD Toolbox
   \\    /   O peration     | Website:  https://openfoam.org
    \\  /    A nd           | Version:  7
     \\/     M anipulation  |
\*---------------------------------------------------------------------------*/
FoamFile
{
    version     2.0;
    format      ascii;
    class       volScalarField;
    location    "3.58";
    object      k;
}
// * * * * * * * * * * * * * * * * * * * * * * * * * * * * * * * * * * * * * //

dimensions      [0 2 -2 0 0 0 0];

internalField   nonuniform List<scalar> 
5760
(
1.91422
1.54201
1.19634
0.991636
0.859803
0.778762
0.731736
0.700467
0.674202
0.65069
0.63056
0.613768
0.599541
0.587168
0.576252
0.566577
0.557967
0.550262
0.543327
0.537056
0.531365
0.526184
0.521453
0.517122
0.513148
0.509493
0.506125
0.503016
0.500143
0.497485
0.495022
0.492739
0.490621
0.488655
0.48683
0.485135
0.48356
0.482098
0.48074
0.479479
0.478309
0.477225
0.476221
0.475292
0.474434
0.473642
0.472914
0.472246
0.471636
0.471079
0.470574
0.470117
0.469707
0.469342
0.46902
0.46874
0.4685
0.468299
0.468134
0.468004
0.467909
0.467848
0.46782
0.467821
0.467852
0.467913
0.468002
0.468119
0.468261
0.468428
0.468619
0.468834
0.46907
0.469329
0.469608
0.469906
0.470224
0.470559
0.470911
0.47128
0.471664
0.472063
0.472476
0.472902
0.473339
0.473789
0.474249
0.474719
0.475198
0.475686
0.476182
0.476685
0.477195
0.477711
0.478233
0.478759
0.479291
0.479826
0.480365
0.480907
0.481451
0.481997
0.482545
0.483094
0.483644
0.484195
0.484745
0.485295
0.485845
0.486394
0.486942
0.487488
0.488033
0.488577
0.489118
0.489658
0.490195
0.49073
0.491262
0.491791
0.492318
0.492842
0.493363
0.493881
0.494396
0.494907
0.495416
0.495921
0.496422
0.496921
0.497416
0.497907
0.498396
0.498881
0.499364
0.499843
0.500319
0.500791
0.501261
0.501728
0.502192
0.502653
0.503111
0.503567
0.504019
0.504469
0.504916
0.505361
0.505802
0.506242
0.506679
0.507113
0.507546
0.507976
0.508404
0.50883
0.509254
0.509676
0.510096
0.510514
0.510931
0.511346
0.511759
0.512171
0.512581
0.51299
0.513397
0.513803
0.514207
0.51461
0.515011
0.515412
0.515811
0.516209
0.516606
0.517001
0.517396
0.51779
0.518183
0.518576
0.518967
0.519357
0.519747
0.520136
0.520525
0.520912
0.521299
0.521685
0.522071
0.522456
0.52284
0.523224
0.523607
0.523989
0.524371
0.524753
0.525134
0.525515
0.525895
0.526275
0.526655
0.527035
0.527414
0.527793
0.528172
0.52855
0.528929
0.529307
0.529684
0.530062
0.530439
0.530816
0.531193
0.53157
0.531946
0.532322
0.532698
0.533075
0.533451
0.533827
0.534202
0.534578
0.534954
0.53533
0.535706
0.536083
0.536457
0.536836
0.537206
0.53759
0.537953
0.538348
0.538693
0.539114
0.539419
0.539894
0.540125
0.540689
0.540793
0.541547
0.995469
1.35573
1.32213
1.21376
1.0883
0.991314
0.926294
0.882658
0.849763
0.822163
0.798389
0.77809
0.760761
0.74576
0.732589
0.720927
0.710541
0.701247
0.692887
0.685334
0.678486
0.672257
0.666575
0.661379
0.656617
0.652243
0.648219
0.64451
0.641088
0.637927
0.635004
0.6323
0.629797
0.627479
0.625332
0.623344
0.621502
0.619799
0.618221
0.616763
0.615417
0.614174
0.613029
0.611976
0.611009
0.610123
0.609314
0.608578
0.607912
0.607311
0.606773
0.606293
0.605868
0.6055
0.605184
0.604917
0.604699
0.604528
0.6044
0.604313
0.60427
0.604268
0.6043
0.604369
0.604476
0.604616
0.604788
0.604992
0.605226
0.60549
0.605781
0.606099
0.606442
0.606811
0.607203
0.607618
0.608054
0.608511
0.608987
0.609482
0.609994
0.610522
0.611067
0.611625
0.612198
0.612783
0.61338
0.613988
0.614606
0.615234
0.615871
0.616516
0.617168
0.617827
0.618493
0.619164
0.61984
0.620521
0.621205
0.621893
0.622584
0.623276
0.62397
0.624666
0.625362
0.626058
0.626754
0.627449
0.628144
0.628837
0.629529
0.630219
0.630908
0.631594
0.632277
0.632958
0.633637
0.634312
0.634984
0.635654
0.636319
0.636981
0.63764
0.638294
0.638945
0.639591
0.640234
0.640872
0.641507
0.642137
0.642763
0.643385
0.644003
0.644617
0.645227
0.645833
0.646436
0.647035
0.64763
0.648222
0.64881
0.649395
0.649976
0.650554
0.651128
0.651699
0.652267
0.652831
0.653392
0.65395
0.654505
0.655058
0.655607
0.656154
0.656699
0.657241
0.65778
0.658318
0.658853
0.659387
0.659918
0.660448
0.660976
0.661501
0.662026
0.662548
0.663068
0.663587
0.664104
0.66462
0.665134
0.665647
0.666158
0.666668
0.667177
0.667685
0.668192
0.668698
0.669203
0.669707
0.670211
0.670714
0.671216
0.671717
0.672218
0.672718
0.673218
0.673717
0.674215
0.674712
0.675209
0.675706
0.676202
0.676697
0.677193
0.677687
0.678182
0.678676
0.679171
0.679665
0.680159
0.680653
0.681147
0.681641
0.682136
0.68263
0.683124
0.683618
0.684112
0.684606
0.6851
0.685594
0.686088
0.686582
0.687076
0.68757
0.688064
0.688559
0.689053
0.689548
0.690043
0.690539
0.691035
0.691532
0.692028
0.692527
0.693021
0.693524
0.694014
0.694524
0.695004
0.695532
0.695987
0.696551
0.696954
0.69759
0.697911
0.69864
0.698853
0.699702
0.323542
0.753376
0.901442
0.929526
0.90378
0.847607
0.800082
0.765208
0.739378
0.71859
0.700797
0.685348
0.671965
0.660307
0.650057
0.640965
0.632844
0.625557
0.618993
0.613057
0.607671
0.602772
0.598303
0.59422
0.590482
0.587054
0.583906
0.581011
0.578347
0.575893
0.573631
0.571545
0.569623
0.56785
0.566217
0.564712
0.563327
0.562055
0.560886
0.559815
0.558835
0.557941
0.557128
0.556389
0.555722
0.555122
0.554585
0.554107
0.553687
0.553319
0.553005
0.552738
0.552515
0.552339
0.552206
0.552113
0.552059
0.552046
0.552066
0.552116
0.552206
0.552327
0.552479
0.552658
0.552865
0.5531
0.55336
0.553644
0.553952
0.554282
0.554633
0.555005
0.555396
0.555806
0.556234
0.556679
0.55714
0.557617
0.558108
0.558612
0.55913
0.559659
0.5602
0.560751
0.561313
0.561883
0.562462
0.563048
0.563642
0.564242
0.564849
0.565461
0.566079
0.566702
0.567329
0.56796
0.568594
0.569232
0.569872
0.570515
0.57116
0.571806
0.572453
0.5731
0.573749
0.574397
0.575044
0.575691
0.576337
0.576982
0.577625
0.578267
0.578907
0.579545
0.580181
0.580815
0.581447
0.582076
0.582703
0.583327
0.583948
0.584567
0.585182
0.585794
0.586403
0.587009
0.587611
0.58821
0.588805
0.589396
0.589984
0.590568
0.591149
0.591726
0.5923
0.592871
0.593439
0.594003
0.594564
0.595123
0.595678
0.59623
0.596779
0.597325
0.597869
0.598409
0.598946
0.599481
0.600012
0.600541
0.601067
0.60159
0.602111
0.602629
0.603145
0.603659
0.60417
0.60468
0.605188
0.605693
0.606197
0.6067
0.6072
0.607699
0.608197
0.608693
0.609187
0.609679
0.61017
0.610659
0.611147
0.611633
0.612118
0.612602
0.613085
0.613566
0.614046
0.614526
0.615004
0.615482
0.615959
0.616435
0.616911
0.617386
0.617861
0.618334
0.618808
0.61928
0.619752
0.620223
0.620694
0.621164
0.621633
0.622102
0.622571
0.623039
0.623506
0.623974
0.624441
0.624908
0.625374
0.625841
0.626308
0.626775
0.627242
0.627709
0.628176
0.628642
0.629109
0.629576
0.630043
0.630509
0.630976
0.631442
0.631909
0.632375
0.632842
0.633308
0.633775
0.634242
0.634709
0.635177
0.635644
0.636113
0.63658
0.637052
0.637518
0.637993
0.638454
0.638938
0.639389
0.639889
0.640317
0.640852
0.641232
0.641829
0.642144
0.642812
0.643066
0.643802
0.0550315
0.291932
0.435991
0.544103
0.601341
0.60756
0.601275
0.588179
0.576796
0.567239
0.558746
0.551003
0.544
0.537679
0.532002
0.526883
0.522232
0.518006
0.514159
0.510653
0.507451
0.504525
0.501848
0.499397
0.497152
0.495096
0.493213
0.491487
0.489906
0.488458
0.487133
0.485922
0.484817
0.483808
0.482892
0.48206
0.481308
0.480633
0.480025
0.479483
0.479005
0.478585
0.478221
0.477908
0.477645
0.477428
0.477255
0.477123
0.477031
0.476974
0.476959
0.476973
0.477013
0.477093
0.477201
0.477337
0.477499
0.477688
0.477903
0.478139
0.478399
0.478681
0.478984
0.479306
0.479646
0.480003
0.480377
0.480767
0.481171
0.481588
0.482019
0.482462
0.482916
0.483381
0.483856
0.484342
0.484836
0.485339
0.48585
0.486369
0.486895
0.487427
0.487965
0.488509
0.489057
0.48961
0.490168
0.490729
0.491293
0.49186
0.49243
0.493003
0.493578
0.494155
0.494734
0.495314
0.495897
0.49648
0.497065
0.497651
0.498237
0.498824
0.499411
0.499999
0.500586
0.501172
0.501758
0.502344
0.502928
0.50351
0.504092
0.504672
0.50525
0.505827
0.506402
0.506975
0.507547
0.508117
0.508685
0.509251
0.509815
0.510377
0.510937
0.511494
0.51205
0.512602
0.513153
0.5137
0.514245
0.514787
0.515326
0.515862
0.516395
0.516926
0.517454
0.517979
0.518502
0.519022
0.51954
0.520056
0.520569
0.52108
0.521589
0.522095
0.522599
0.523101
0.5236
0.524097
0.524591
0.525083
0.525572
0.52606
0.526544
0.527027
0.527507
0.527986
0.528462
0.528937
0.52941
0.529881
0.53035
0.530818
0.531285
0.53175
0.532214
0.532676
0.533137
0.533596
0.534054
0.53451
0.534964
0.535417
0.535869
0.536319
0.536768
0.537216
0.537662
0.538107
0.538551
0.538995
0.539437
0.539879
0.54032
0.54076
0.5412
0.541639
0.542077
0.542515
0.542952
0.543388
0.543823
0.544257
0.544691
0.545124
0.545556
0.545987
0.546418
0.546848
0.547278
0.547707
0.548136
0.548564
0.548993
0.549421
0.549849
0.550277
0.550705
0.551132
0.55156
0.551987
0.552414
0.552841
0.553268
0.553694
0.55412
0.554545
0.554971
0.555396
0.555821
0.556246
0.55667
0.557096
0.55752
0.557946
0.55837
0.558798
0.55922
0.559652
0.560069
0.560509
0.560915
0.561372
0.561756
0.562242
0.562587
0.563123
0.563415
0.564006
0.564262
0.564916
0.0072225
0.0720142
0.140352
0.222415
0.300445
0.347819
0.374394
0.388425
0.396468
0.401301
0.404126
0.405628
0.406334
0.40645
0.406327
0.406006
0.405503
0.404934
0.40433
0.403714
0.403105
0.402513
0.401949
0.401418
0.400925
0.400473
0.400063
0.399694
0.399368
0.399083
0.398838
0.398631
0.398463
0.39833
0.398233
0.398168
0.398137
0.398141
0.398165
0.398221
0.398309
0.398423
0.398563
0.398727
0.398916
0.399127
0.39936
0.399613
0.399887
0.400178
0.40049
0.400818
0.40116
0.40152
0.401894
0.402283
0.402686
0.403101
0.40353
0.40397
0.404421
0.404882
0.405353
0.405833
0.406321
0.406816
0.407317
0.407825
0.408337
0.408854
0.409374
0.409898
0.410424
0.410953
0.411485
0.412018
0.412552
0.413088
0.413625
0.414163
0.414702
0.415241
0.41578
0.416319
0.416858
0.417397
0.417935
0.418473
0.41901
0.419546
0.420081
0.420615
0.421148
0.421681
0.422212
0.422742
0.423272
0.423801
0.424329
0.424857
0.425384
0.42591
0.426436
0.426961
0.427485
0.428008
0.428529
0.42905
0.42957
0.430088
0.430605
0.43112
0.431634
0.432147
0.432658
0.433167
0.433676
0.434183
0.434689
0.435193
0.435696
0.436198
0.436699
0.437198
0.437696
0.438193
0.438688
0.439181
0.439672
0.440161
0.440649
0.441134
0.441618
0.442099
0.442579
0.443057
0.443533
0.444007
0.444479
0.44495
0.445419
0.445887
0.446353
0.446818
0.447281
0.447742
0.448202
0.44866
0.449116
0.449571
0.450023
0.450474
0.450922
0.451369
0.451814
0.452257
0.452699
0.453139
0.453577
0.454014
0.45445
0.454884
0.455317
0.455748
0.456179
0.456608
0.457036
0.457463
0.457888
0.458312
0.458735
0.459156
0.459576
0.459994
0.460411
0.460826
0.461241
0.461653
0.462065
0.462476
0.462885
0.463294
0.463702
0.464109
0.464515
0.464921
0.465325
0.465729
0.466133
0.466535
0.466936
0.467337
0.467736
0.468135
0.468532
0.468929
0.469325
0.46972
0.470114
0.470507
0.470899
0.471291
0.471683
0.472074
0.472464
0.472855
0.473245
0.473634
0.474023
0.474412
0.474801
0.475189
0.475576
0.475963
0.476349
0.476735
0.477121
0.477506
0.47789
0.478274
0.478657
0.47904
0.479422
0.479806
0.480186
0.480572
0.480949
0.481339
0.48171
0.482108
0.482469
0.482881
0.483222
0.483659
0.483968
0.484443
0.484709
0.485229
0.485469
0.486058
0.000775962
0.0121758
0.0283613
0.0551406
0.0982679
0.138698
0.17168
0.198193
0.219559
0.236493
0.249757
0.260175
0.268508
0.275249
0.280802
0.28544
0.289339
0.292659
0.295516
0.298
0.300179
0.302107
0.303828
0.305377
0.306783
0.308071
0.309259
0.310363
0.311397
0.312372
0.313297
0.314178
0.315024
0.315838
0.316626
0.31739
0.318135
0.318866
0.319579
0.320281
0.320975
0.321661
0.322341
0.323016
0.323687
0.324354
0.32502
0.325683
0.326346
0.327006
0.327667
0.328327
0.328985
0.329643
0.3303
0.330957
0.331612
0.332267
0.332921
0.333573
0.334223
0.334871
0.335517
0.336161
0.336801
0.337437
0.33807
0.338697
0.33932
0.339937
0.340549
0.341154
0.341754
0.342346
0.342933
0.343513
0.344086
0.344653
0.345214
0.345768
0.346317
0.346859
0.347396
0.347927
0.348453
0.348974
0.349489
0.35
0.350505
0.351006
0.351501
0.351993
0.35248
0.352963
0.353443
0.353919
0.354391
0.354861
0.355327
0.355791
0.356253
0.356713
0.357171
0.357626
0.358081
0.358533
0.358984
0.359434
0.359881
0.360328
0.360773
0.361216
0.361658
0.362099
0.362538
0.362977
0.363414
0.36385
0.364285
0.364719
0.365153
0.365586
0.366018
0.36645
0.366881
0.367312
0.367742
0.368171
0.368599
0.369026
0.369453
0.369878
0.370303
0.370726
0.371149
0.37157
0.37199
0.372409
0.372827
0.373244
0.373661
0.374077
0.374491
0.374905
0.375319
0.375731
0.376143
0.376554
0.376963
0.377372
0.37778
0.378186
0.378592
0.378996
0.379398
0.3798
0.3802
0.380599
0.380997
0.381393
0.381789
0.382183
0.382577
0.382969
0.383361
0.383751
0.384141
0.38453
0.384918
0.385305
0.385691
0.386075
0.386459
0.386841
0.387222
0.387602
0.387981
0.388358
0.388734
0.389109
0.389483
0.389856
0.390227
0.390598
0.390969
0.391338
0.391707
0.392074
0.392441
0.392808
0.393173
0.393538
0.393901
0.394264
0.394625
0.394986
0.395346
0.395704
0.396062
0.396418
0.396774
0.397129
0.397483
0.397836
0.398188
0.39854
0.398892
0.399243
0.399593
0.399943
0.400292
0.400641
0.400989
0.401337
0.401683
0.40203
0.402375
0.40272
0.403064
0.403408
0.403749
0.404093
0.404432
0.404776
0.405112
0.405457
0.40579
0.406138
0.406465
0.40682
0.407136
0.407504
0.407802
0.408192
0.408463
0.408884
0.409119
0.409576
0.409792
0.410319
8.96361e-05
0.00167295
0.00375485
0.00816496
0.0178747
0.0330674
0.0494857
0.06657
0.0839611
0.100781
0.116332
0.130329
0.142786
0.153792
0.163478
0.171999
0.179508
0.18615
0.192056
0.197335
0.202077
0.20636
0.210246
0.21379
0.217035
0.220021
0.222781
0.225343
0.227731
0.229964
0.232062
0.234038
0.235908
0.23768
0.239366
0.240974
0.242511
0.243986
0.245402
0.246766
0.248083
0.249357
0.250591
0.25179
0.252957
0.254094
0.255204
0.256288
0.257349
0.258389
0.259408
0.260408
0.261389
0.262352
0.263298
0.264228
0.265142
0.266039
0.266921
0.267787
0.268637
0.269472
0.270292
0.271096
0.271885
0.272658
0.273416
0.274158
0.274884
0.275595
0.276289
0.276969
0.277632
0.27828
0.278913
0.279531
0.280134
0.280723
0.281299
0.28186
0.28241
0.282946
0.283472
0.283985
0.284489
0.284981
0.285465
0.285938
0.286403
0.28686
0.287308
0.287748
0.288182
0.288608
0.289028
0.289441
0.289849
0.290252
0.290649
0.291042
0.291431
0.291817
0.292199
0.292577
0.292954
0.293327
0.293698
0.294067
0.294435
0.2948
0.295164
0.295526
0.295887
0.296247
0.296605
0.296962
0.297318
0.297674
0.298028
0.298382
0.298736
0.299089
0.299442
0.299795
0.300147
0.3005
0.300853
0.301206
0.301559
0.301912
0.302265
0.302618
0.30297
0.303323
0.303675
0.304028
0.30438
0.304732
0.305083
0.305434
0.305786
0.306137
0.306488
0.306839
0.307189
0.30754
0.307891
0.308242
0.308592
0.308943
0.309293
0.309643
0.309992
0.310341
0.31069
0.311038
0.311385
0.311732
0.312078
0.312423
0.312768
0.313112
0.313456
0.313799
0.314141
0.314483
0.314824
0.315165
0.315505
0.315845
0.316184
0.316523
0.31686
0.317198
0.317534
0.317869
0.318204
0.318537
0.31887
0.319202
0.319532
0.319862
0.320191
0.320519
0.320846
0.321172
0.321498
0.321823
0.322147
0.322471
0.322794
0.323116
0.323437
0.323758
0.324078
0.324397
0.324715
0.325032
0.325349
0.325664
0.325978
0.326292
0.326604
0.326916
0.327227
0.327537
0.327846
0.328155
0.328462
0.32877
0.329076
0.329383
0.329688
0.329993
0.330297
0.330601
0.330904
0.331207
0.331507
0.331809
0.332108
0.332409
0.332705
0.333006
0.333298
0.3336
0.333888
0.334193
0.334474
0.334786
0.335056
0.33538
0.335633
0.335975
0.336205
0.336574
0.336774
0.33717
0.337358
0.33782
2.90135e-05
0.000250227
0.000440541
0.000867649
0.00191546
0.00415698
0.0076438
0.0123341
0.0184371
0.0257861
0.0340032
0.0427356
0.0517192
0.0607365
0.0695993
0.0781629
0.0863267
0.0940307
0.101246
0.107969
0.114212
0.12
0.125364
0.130338
0.134958
0.139257
0.143266
0.147013
0.150524
0.153821
0.156925
0.159854
0.162623
0.165248
0.16774
0.170111
0.172372
0.174532
0.176598
0.178578
0.180479
0.182307
0.184067
0.185765
0.187405
0.188991
0.190526
0.192015
0.19346
0.194863
0.196228
0.197555
0.198846
0.200103
0.201327
0.202518
0.203677
0.204805
0.205902
0.206969
0.208006
0.209013
0.209991
0.21094
0.21186
0.212753
0.213617
0.214454
0.215265
0.216049
0.216807
0.21754
0.218248
0.218932
0.219592
0.220229
0.220844
0.221437
0.22201
0.222563
0.223096
0.223612
0.22411
0.224592
0.225058
0.225509
0.225947
0.226371
0.226783
0.227183
0.227572
0.227951
0.22832
0.228679
0.22903
0.229373
0.229708
0.230036
0.230357
0.230673
0.230982
0.231286
0.231586
0.231881
0.232172
0.23246
0.232745
0.233027
0.233307
0.233584
0.23386
0.234134
0.234406
0.234677
0.234947
0.235216
0.235485
0.235752
0.236019
0.236285
0.236551
0.236816
0.237082
0.237347
0.237613
0.237879
0.238145
0.238412
0.23868
0.238948
0.239217
0.239486
0.239757
0.240028
0.240299
0.240572
0.240844
0.241118
0.241392
0.241666
0.241941
0.242216
0.242492
0.242768
0.243044
0.243322
0.243599
0.243878
0.244156
0.244436
0.244716
0.244996
0.245278
0.245559
0.245841
0.246123
0.246405
0.246687
0.24697
0.247252
0.247534
0.247817
0.248099
0.24838
0.248662
0.248944
0.249225
0.249506
0.249788
0.250069
0.25035
0.250631
0.250912
0.251192
0.251473
0.251753
0.252033
0.252312
0.252591
0.25287
0.253148
0.253425
0.253701
0.253977
0.254253
0.254527
0.254801
0.255075
0.255348
0.25562
0.255892
0.256163
0.256434
0.256705
0.256975
0.257245
0.257514
0.257782
0.25805
0.258317
0.258583
0.258849
0.259113
0.259377
0.25964
0.259903
0.260164
0.260425
0.260685
0.260944
0.261203
0.261461
0.261719
0.261976
0.262232
0.262489
0.262744
0.262999
0.263253
0.263508
0.263759
0.264014
0.264262
0.264518
0.264762
0.265019
0.265258
0.265518
0.26575
0.266016
0.266238
0.266514
0.26672
0.267012
0.267199
0.267511
0.267676
0.268008
0.268166
0.268557
2.41489e-05
6.76589e-05
9.40934e-05
0.000126019
0.000201332
0.000360858
0.000661344
0.00115386
0.00197596
0.00325129
0.00504607
0.00738695
0.0102769
0.0136933
0.0175851
0.0218816
0.0265033
0.0313684
0.0363966
0.0415126
0.0466484
0.0517456
0.0567557
0.0616409
0.0663731
0.0709332
0.07531
0.0794986
0.0834991
0.0873154
0.0909542
0.0944236
0.0977329
0.100892
0.10391
0.106796
0.109558
0.112206
0.114745
0.117184
0.119528
0.121783
0.123954
0.126047
0.128066
0.130016
0.131899
0.13372
0.135482
0.137187
0.138838
0.140436
0.141985
0.143484
0.144935
0.146339
0.147697
0.149009
0.150276
0.151499
0.152677
0.153812
0.154904
0.155954
0.156962
0.15793
0.158859
0.159749
0.160601
0.161417
0.162198
0.162945
0.163659
0.164341
0.164993
0.165615
0.166209
0.166776
0.167316
0.167832
0.168324
0.168793
0.169241
0.169668
0.170077
0.170467
0.17084
0.171198
0.17154
0.171869
0.172185
0.172489
0.172782
0.173063
0.173336
0.173598
0.173852
0.174098
0.174337
0.174568
0.174793
0.175011
0.175224
0.175432
0.175635
0.175834
0.17603
0.176222
0.176411
0.176598
0.176783
0.176965
0.177147
0.177327
0.177506
0.177685
0.177862
0.178039
0.178216
0.178392
0.178567
0.178743
0.178918
0.179094
0.17927
0.179446
0.179623
0.1798
0.179978
0.180157
0.180337
0.180518
0.180701
0.180885
0.18107
0.181256
0.181443
0.181632
0.181822
0.182013
0.182204
0.182397
0.182591
0.182785
0.18298
0.183177
0.183374
0.183572
0.183771
0.183971
0.184172
0.184375
0.184578
0.184783
0.184988
0.185195
0.185403
0.185611
0.18582
0.18603
0.186241
0.186451
0.186663
0.186874
0.187086
0.187298
0.18751
0.187722
0.187935
0.188148
0.188362
0.188575
0.188789
0.189004
0.189219
0.189434
0.189649
0.189865
0.190081
0.190297
0.190512
0.190728
0.190943
0.191159
0.191373
0.191588
0.191802
0.192016
0.192229
0.192442
0.192655
0.192867
0.19308
0.193292
0.193504
0.193716
0.193928
0.194139
0.194351
0.194562
0.194773
0.194983
0.195193
0.195403
0.195611
0.19582
0.196027
0.196234
0.19644
0.196646
0.196851
0.197055
0.197259
0.197463
0.197666
0.197869
0.198071
0.198274
0.198474
0.198678
0.198876
0.199081
0.199276
0.199482
0.199674
0.199881
0.200068
0.200278
0.200459
0.200674
0.200845
0.201069
0.201227
0.201463
0.201606
0.201856
0.201985
0.202247
0.202373
0.202687
2.34617e-05
4.40321e-05
5.67287e-05
6.1225e-05
6.78841e-05
7.81851e-05
9.38894e-05
0.000118453
0.000162617
0.000243378
0.000381484
0.000602198
0.000936009
0.00141645
0.00207601
0.00294273
0.00403846
0.00537756
0.0069662
0.00880219
0.0108755
0.0131697
0.0156626
0.0183285
0.0211393
0.0240659
0.0270794
0.0301521
0.0332583
0.0363748
0.0394813
0.0425603
0.0455976
0.0485817
0.0515038
0.0543574
0.0571381
0.0598431
0.0624712
0.065022
0.0674962
0.0698951
0.07222
0.074473
0.0766558
0.0787705
0.0808185
0.0828017
0.0847214
0.0865791
0.0883759
0.0901125
0.0917899
0.0934085
0.0949688
0.0964714
0.0979166
0.0993048
0.100637
0.101912
0.103133
0.104299
0.105411
0.106471
0.10748
0.108439
0.109349
0.110213
0.111031
0.111807
0.112541
0.113236
0.113892
0.114513
0.115099
0.115652
0.116174
0.116667
0.117131
0.117568
0.11798
0.118368
0.118732
0.119076
0.119399
0.119703
0.11999
0.12026
0.120515
0.120755
0.120982
0.121197
0.121401
0.121594
0.121777
0.121951
0.122117
0.122275
0.122425
0.122569
0.122706
0.122837
0.122963
0.123083
0.123199
0.123311
0.123418
0.123523
0.123624
0.123723
0.12382
0.123916
0.12401
0.124102
0.124194
0.124285
0.124376
0.124467
0.124557
0.124647
0.124737
0.124826
0.124916
0.125006
0.125097
0.125187
0.125278
0.12537
0.125462
0.125556
0.12565
0.125746
0.125843
0.125942
0.126042
0.126144
0.126247
0.126352
0.126459
0.126566
0.126676
0.126786
0.126898
0.127011
0.127124
0.127239
0.127355
0.127473
0.127591
0.12771
0.127831
0.127954
0.128077
0.128202
0.128329
0.128457
0.128586
0.128717
0.128849
0.128983
0.129117
0.129252
0.129388
0.129525
0.129662
0.1298
0.129939
0.130078
0.130218
0.130358
0.130498
0.13064
0.130782
0.130925
0.131068
0.131213
0.131358
0.131503
0.13165
0.131797
0.131944
0.132092
0.132241
0.132389
0.132537
0.132686
0.132834
0.132983
0.133131
0.133279
0.133427
0.133575
0.133723
0.133871
0.13402
0.134168
0.134317
0.134466
0.134615
0.134764
0.134914
0.135063
0.135213
0.135362
0.135511
0.13566
0.135808
0.135956
0.136104
0.136251
0.136397
0.136544
0.136689
0.136836
0.13698
0.137126
0.13727
0.137417
0.137559
0.137707
0.137848
0.137997
0.138136
0.138287
0.138423
0.138576
0.138708
0.138864
0.13899
0.13915
0.139269
0.139435
0.139545
0.139719
0.139819
0.140001
0.140094
0.140282
0.140373
0.140604
2.31672e-05
4.14031e-05
5.08822e-05
5.38527e-05
5.6139e-05
5.818e-05
5.98635e-05
6.1577e-05
6.37034e-05
6.68972e-05
7.20349e-05
8.04835e-05
9.4456e-05
0.000117214
0.000153428
0.000209258
0.000292577
0.000412901
0.000581215
0.000809559
0.00111043
0.00149626
0.00197853
0.00256741
0.00327097
0.00409502
0.00504271
0.00611456
0.00730846
0.0086199
0.0100422
0.0115671
0.0131847
0.0148845
0.0166553
0.0184855
0.0203639
0.0222793
0.024221
0.0261792
0.0281443
0.0301079
0.0320618
0.0339989
0.0359125
0.037797
0.0396466
0.0414572
0.043224
0.0449442
0.0466144
0.0482321
0.0497952
0.0513021
0.0527515
0.0541427
0.0554751
0.0567486
0.0579633
0.0591196
0.0602182
0.06126
0.0622463
0.0631783
0.0640575
0.0648858
0.065665
0.0663971
0.0670842
0.0677282
0.0683315
0.068896
0.069424
0.0699172
0.0703778
0.0708076
0.0712082
0.0715814
0.0719286
0.0722514
0.0725512
0.0728291
0.0730867
0.073325
0.0735453
0.0737488
0.0739366
0.0741097
0.0742693
0.0744165
0.0745521
0.074677
0.0747922
0.0748984
0.0749964
0.0750866
0.0751699
0.0752465
0.0753171
0.075382
0.0754415
0.0754962
0.0755462
0.075592
0.0756338
0.0756721
0.0757072
0.0757395
0.0757693
0.075797
0.0758229
0.0758474
0.0758708
0.0758934
0.0759153
0.0759368
0.0759581
0.0759793
0.0760004
0.0760215
0.0760428
0.0760641
0.0760857
0.0761074
0.0761294
0.0761518
0.0761746
0.076198
0.0762221
0.076247
0.0762728
0.0762998
0.076328
0.0763576
0.0763886
0.076421
0.076455
0.0764905
0.0765275
0.0765659
0.0766057
0.0766468
0.0766891
0.0767326
0.0767772
0.0768229
0.0768696
0.0769174
0.0769664
0.0770165
0.0770678
0.0771204
0.0771743
0.0772296
0.0772863
0.0773445
0.0774041
0.0774652
0.0775276
0.0775913
0.0776563
0.0777223
0.0777894
0.0778573
0.0779262
0.0779957
0.078066
0.0781369
0.0782085
0.0782808
0.0783537
0.0784274
0.0785019
0.0785772
0.0786533
0.0787303
0.0788083
0.0788871
0.0789668
0.0790473
0.0791286
0.0792105
0.079293
0.079376
0.0794594
0.0795431
0.079627
0.0797112
0.0797954
0.0798799
0.0799645
0.0800493
0.0801342
0.0802195
0.080305
0.080391
0.0804773
0.0805641
0.0806511
0.0807388
0.0808266
0.080915
0.0810033
0.0810922
0.0811807
0.0812699
0.0813582
0.0814474
0.0815353
0.0816243
0.0817116
0.0818005
0.0818871
0.0819761
0.082062
0.0821514
0.0822366
0.0823269
0.0824113
0.0825029
0.0825863
0.0826795
0.0827616
0.0828565
0.0829367
0.0830337
0.0831111
0.0832107
0.0832843
0.0833869
0.0834559
0.0835619
0.0836259
0.0837355
0.0837949
0.0839075
0.0839643
0.0840796
0.0841366
0.0842813
2.30301e-05
4.08238e-05
4.95324e-05
5.21282e-05
5.39837e-05
5.54474e-05
5.62818e-05
5.70374e-05
5.75473e-05
5.813e-05
5.85956e-05
5.91439e-05
5.96946e-05
6.04445e-05
6.14452e-05
6.29745e-05
6.53096e-05
6.89419e-05
7.45064e-05
8.30182e-05
9.56532e-05
0.000114314
0.000141002
0.000178772
0.000230725
0.000301127
0.000394235
0.000515336
0.000669587
0.000862808
0.00110049
0.00138828
0.00173126
0.0021342
0.00260099
0.00313486
0.0037378
0.00441095
0.00515395
0.00596561
0.00684305
0.00778281
0.00877963
0.00982814
0.0109213
0.0120523
0.0132131
0.0143963
0.0155936
0.0167978
0.0180014
0.0191976
0.02038
0.0215429
0.0226813
0.0237908
0.0248677
0.0259089
0.0269122
0.0278756
0.0287978
0.029678
0.030516
0.0313118
0.0320657
0.0327785
0.0334511
0.0340848
0.0346807
0.0352406
0.0357658
0.0362581
0.0367191
0.0371505
0.0375538
0.0379307
0.0382826
0.0386111
0.0389174
0.0392028
0.0394687
0.0397161
0.0399462
0.0401601
0.0403588
0.0405432
0.0407145
0.0408734
0.0410209
0.0411579
0.0412852
0.0414035
0.0415135
0.041616
0.0417115
0.0418005
0.0418836
0.0419613
0.0420338
0.0421015
0.0421648
0.042224
0.0422793
0.042331
0.0423794
0.0424246
0.0424671
0.042507
0.0425446
0.0425802
0.042614
0.0426463
0.0426773
0.0427071
0.0427361
0.0427643
0.0427918
0.0428188
0.0428453
0.0428714
0.0428972
0.0429226
0.0429477
0.0429725
0.042997
0.0430214
0.0430456
0.0430697
0.0430939
0.0431181
0.0431426
0.0431673
0.0431924
0.043218
0.0432442
0.0432709
0.0432982
0.0433262
0.0433548
0.043384
0.0434138
0.0434441
0.0434749
0.0435062
0.0435379
0.04357
0.0436025
0.0436353
0.0436686
0.0437023
0.0437365
0.0437712
0.0438065
0.0438424
0.043879
0.0439163
0.0439542
0.0439929
0.0440322
0.0440722
0.0441128
0.0441539
0.0441955
0.0442376
0.04428
0.0443227
0.0443657
0.044409
0.0444525
0.0444962
0.0445403
0.0445846
0.0446292
0.0446743
0.0447197
0.0447655
0.0448118
0.0448586
0.0449057
0.0449534
0.0450014
0.0450497
0.0450984
0.0451473
0.0451963
0.0452455
0.0452948
0.0453441
0.0453934
0.0454428
0.0454921
0.0455416
0.0455909
0.0456405
0.04569
0.0457399
0.0457897
0.04584
0.0458901
0.0459409
0.0459914
0.0460427
0.0460934
0.046145
0.0461958
0.0462476
0.0462981
0.04635
0.0464001
0.046452
0.0465015
0.0465535
0.0466021
0.0466544
0.0467023
0.046755
0.046802
0.0468557
0.0469016
0.0469566
0.0470014
0.0470578
0.0471014
0.0471593
0.0472014
0.047261
0.0473011
0.0473625
0.0474004
0.0474633
0.047499
0.0475631
0.0475969
0.0476617
0.0476942
0.0477593
0.0477915
0.0478568
0.0478891
0.047971
2.30269e-05
4.0814e-05
4.95127e-05
5.20713e-05
5.39077e-05
5.53462e-05
5.6181e-05
5.68893e-05
5.73981e-05
5.78877e-05
5.8314e-05
5.87321e-05
5.91465e-05
5.96086e-05
6.01974e-05
6.10082e-05
6.22774e-05
6.42318e-05
6.73194e-05
7.22016e-05
7.96959e-05
9.12215e-05
0.000108354
0.000133581
0.00016969
0.0002205
0.000290254
0.00038418
0.000507923
0.000667804
0.000870391
0.00112238
0.00143041
0.00180065
0.00223869
0.00274924
0.00333585
0.00400088
0.00474505
0.00556791
0.00646704
0.00743912
0.00847872
0.00958017
0.0107356
0.0119378
0.0131773
0.0144464
0.0157351
0.0170362
0.0183419
0.0196442
0.0209357
0.0222099
0.0234612
0.0246845
0.0258758
0.0270316
0.0281494
0.0292271
0.0302633
0.0312572
0.0322084
0.0331169
0.033983
0.0348076
0.0355916
0.0363362
0.0370428
0.037713
0.0383483
0.0389505
0.0395212
0.0400621
0.040575
0.0410613
0.0415227
0.0419605
0.0423761
0.042771
0.0431461
0.0435029
0.0438423
0.0441654
0.0444732
0.0447667
0.0450468
0.0453145
0.0455706
0.045816
0.0460514
0.0462776
0.0464953
0.0467051
0.0469076
0.0471033
0.0472927
0.0474761
0.0476539
0.0478263
0.0479938
0.0481565
0.0483146
0.0484683
0.0486179
0.0487636
0.0489056
0.0490442
0.0491794
0.0493117
0.0494412
0.0495681
0.0496926
0.049815
0.0499354
0.0500539
0.0501706
0.0502856
0.0503989
0.0505107
0.0506209
0.0507294
0.0508365
0.0509419
0.0510458
0.0511483
0.0512492
0.0513488
0.0514471
0.0515443
0.0516403
0.0517353
0.0518295
0.051923
0.0520158
0.0521079
0.0521995
0.0522906
0.0523811
0.0524711
0.0525606
0.0526494
0.0527376
0.0528251
0.052912
0.0529981
0.0530835
0.0531682
0.0532523
0.0533357
0.0534186
0.0535011
0.0535831
0.0536649
0.0537463
0.0538276
0.0539088
0.0539898
0.0540706
0.0541512
0.0542317
0.0543119
0.0543918
0.0544713
0.0545504
0.0546291
0.0547073
0.0547849
0.0548621
0.0549388
0.055015
0.0550909
0.0551664
0.0552417
0.0553167
0.0553916
0.0554664
0.055541
0.0556155
0.05569
0.0557643
0.0558384
0.0559123
0.055986
0.0560593
0.0561323
0.0562048
0.0562769
0.0563484
0.0564195
0.0564901
0.0565604
0.0566302
0.0566997
0.0567689
0.0568379
0.0569066
0.0569754
0.0570438
0.0571124
0.0571806
0.057249
0.0573169
0.0573851
0.0574524
0.0575202
0.0575867
0.0576541
0.0577196
0.0577864
0.0578507
0.057917
0.0579801
0.0580461
0.058108
0.0581741
0.0582348
0.0583013
0.0583606
0.0584282
0.0584861
0.0585549
0.0586112
0.0586816
0.0587357
0.058808
0.0588595
0.0589339
0.0589822
0.0590587
0.0591037
0.0591821
0.059224
0.0593036
0.0593434
0.0594232
0.0594622
0.0595413
0.0595789
0.0596716
2.31572e-05
4.1382e-05
5.07866e-05
5.36674e-05
5.58796e-05
5.77509e-05
5.92666e-05
6.06143e-05
6.22446e-05
6.44357e-05
6.78718e-05
7.33838e-05
8.2544e-05
9.76873e-05
0.000122392
0.000161574
0.000221924
0.000311894
0.000441823
0.000623571
0.000870242
0.00119544
0.00161281
0.002135
0.00277335
0.00353685
0.00443219
0.00546295
0.00663004
0.00793127
0.00936201
0.0109151
0.0125816
0.0143511
0.016212
0.0181522
0.0201596
0.0222216
0.0243265
0.0264626
0.0286192
0.0307857
0.0329532