/*--------------------------------*- C++ -*----------------------------------*\
  =========                 |
  \\      /  F ield         | OpenFOAM: The Open Source CFD Toolbox
   \\    /   O peration     | Website:  https://openfoam.org
    \\  /    A nd           | Version:  7
     \\/     M anipulation  |
\*---------------------------------------------------------------------------*/
FoamFile
{
    version     2.0;
    format      ascii;
    class       volScalarField;
    location    "0.49";
    object      rho_0;
}
// * * * * * * * * * * * * * * * * * * * * * * * * * * * * * * * * * * * * * //

dimensions      [1 -3 0 0 0 0 0];

internalField   nonuniform List<scalar> 
7920
(
1.25425
1.25389
1.25321
1.2508
1.24982
1.24927
1.25029
1.251
1.25212
1.2525
1.25301
1.25298
1.2531
1.2529
1.25275
1.25254
1.25213
1.25218
1.25119
1.25224
1.2538
1.25362
1.25345
1.25181
1.25047
1.24923
1.24927
1.2496
1.25045
1.25099
1.2516
1.25188
1.25219
1.25232
1.25237
1.25243
1.25211
1.25236
1.2513
1.25256
1.25405
1.25375
1.25408
1.2533
1.25272
1.25116
1.25024
1.24932
1.24936
1.24936
1.24984
1.25011
1.2507
1.25122
1.25185
1.25245
1.2527
1.25326
1.25282
1.25364
1.25387
1.25348
1.25372
1.25331
1.25314
1.25193
1.2508
1.24941
1.24878
1.24831
1.24832
1.24827
1.2485
1.24893
1.24966
1.25066
1.25148
1.25251
1.25276
1.25363
1.25402
1.25356
1.25385
1.25344
1.25351
1.25242
1.25141
1.24988
1.2491
1.24839
1.24826
1.24793
1.24791
1.24794
1.24851
1.24944
1.25053
1.25181
1.25256
1.25354
1.25397
1.25345
1.25374
1.25331
1.25341
1.25235
1.25137
1.24982
1.24902
1.24827
1.24811
1.2477
1.24755
1.24738
1.24778
1.24861
1.24973
1.25111
1.25205
1.2531
1.25397
1.25345
1.25374
1.25331
1.25341
1.25235
1.25137
1.24982
1.24902
1.24827
1.24811
1.2477
1.24755
1.24738
1.24778
1.2486
1.24973
1.25111
1.25205
1.2531
1.25402
1.25356
1.25385
1.25344
1.25351
1.25242
1.25141
1.24987
1.2491
1.24839
1.24827
1.24792
1.24791
1.24793
1.24852
1.24942
1.25055
1.25179
1.25257
1.25352
1.25387
1.25348
1.25372
1.25331
1.25314
1.25193
1.2508
1.24941
1.24878
1.24831
1.24833
1.24826
1.24852
1.2489
1.24969
1.25061
1.25155
1.25242
1.25287
1.2535
1.25405
1.25375
1.25408
1.2533
1.25272
1.25116
1.25025
1.24932
1.24936
1.24936
1.24985
1.2501
1.25072
1.25118
1.2519
1.25236
1.25284
1.25304
1.25316
1.25315
1.2538
1.25362
1.25345
1.25181
1.25047
1.24923
1.24928
1.24959
1.25045
1.25098
1.25161
1.25187
1.25221
1.25229
1.25243
1.25233
1.25229
1.25204
1.25188
1.25153
1.25425
1.25389
1.25321
1.2508
1.24982
1.24927
1.25029
1.251
1.25212
1.25249
1.25302
1.25297
1.25312
1.25286
1.25281
1.25245
1.25229
1.25189
1.25171
1.25129
1.25145
1.25168
1.25039
1.24871
1.24662
1.24651
1.24694
1.24837
1.24918
1.25009
1.25027
1.25061
1.25042
1.25051
1.25009
1.25016
1.24947
1.24988
1.24835
1.2507
1.25185
1.25202
1.2516
1.25088
1.24922
1.24797
1.2472
1.24741
1.2479
1.24868
1.24926
1.24994
1.25035
1.25085
1.25093
1.25126
1.25089
1.25133
1.25022
1.25155
1.25156
1.25167
1.25123
1.25124
1.25014
1.24904
1.24753
1.24687
1.24643
1.24667
1.24683
1.24742
1.24796
1.2489
1.2496
1.25053
1.25082
1.25156
1.25118
1.25207
1.25179
1.25186
1.25147
1.25164
1.25094
1.25004
1.24854
1.24754
1.24676
1.24655
1.24636
1.24646
1.2467
1.24743
1.24836
1.24958
1.25049
1.25156
1.25187
1.25279
1.25163
1.25174
1.25124
1.25151
1.25083
1.25008
1.24856
1.24757
1.24665
1.24637
1.24599
1.24588
1.24576
1.24621
1.24697
1.24826
1.24938
1.25075
1.25139
1.25251
1.25169
1.25185
1.25134
1.25164
1.25096
1.25024
1.24873
1.24774
1.24682
1.24654
1.24613
1.24595
1.2457
1.24598
1.2466
1.24784
1.24902
1.2505
1.25127
1.2525
1.25169
1.25185
1.25134
1.25164
1.25096
1.25024
1.24873
1.24774
1.24682
1.24654
1.24613
1.24595
1.2457
1.24598
1.2466
1.24784
1.24902
1.2505
1.25127
1.2525
1.25163
1.25174
1.25124
1.25151
1.25083
1.25008
1.24856
1.24756
1.24665
1.24637
1.24599
1.24587
1.24577
1.24621
1.24698
1.24824
1.24939
1.25074
1.2514
1.25251
1.25179
1.25186
1.25147
1.25164
1.25094
1.25004
1.24854
1.24754
1.24676
1.24655
1.24636
1.24645
1.24672
1.24741
1.24839
1.24954
1.25055
1.25149
1.25195
1.25269
1.25156
1.25167
1.25123
1.25124
1.25014
1.24904
1.24753
1.24687
1.24644
1.24666
1.24684
1.24741
1.24798
1.24887
1.24966
1.25044
1.25096
1.25136
1.25147
1.25167
1.25185
1.25202
1.2516
1.25088
1.24922
1.24797
1.2472
1.24741
1.24791
1.24867
1.24927
1.24992
1.25038
1.2508
1.25102
1.25113
1.25112
1.25096
1.25084
1.25055
1.25145
1.25168
1.25039
1.24871
1.24662
1.24651
1.24694
1.24837
1.24918
1.25009
1.25029
1.25059
1.25045
1.25046
1.25017
1.25002
1.24971
1.24946
1.24924
1.24902
1.25172
1.25163
1.25148
1.25035
1.24787
1.24594
1.24608
1.24797
1.24977
1.25087
1.25111
1.25112
1.25069
1.25055
1.24988
1.25002
1.24888
1.24998
1.24724
1.25119
1.25176
1.25157
1.25154
1.25125
1.25011
1.24845
1.24704
1.24643
1.24642
1.24691
1.24763
1.24871
1.24962
1.2506
1.25094
1.25157
1.25115
1.25174
1.25042
1.25138
1.25177
1.25153
1.25147
1.25138
1.25065
1.24936
1.24791
1.24687
1.24623
1.24591
1.24576
1.24604
1.24672
1.24789
1.24908
1.2503
1.25107
1.25192
1.25203
1.25269
1.25177
1.25152
1.25147
1.25141
1.25074
1.2495
1.2481
1.24707
1.24643
1.24601
1.2456
1.24539
1.24562
1.24643
1.24768
1.24905
1.25023
1.25136
1.25194
1.25296
1.25177
1.25152
1.25146
1.2514
1.25073
1.24948
1.24807
1.24707
1.24646
1.24606
1.24562
1.24527
1.24532
1.24595
1.2471
1.24848
1.24972
1.25096
1.25163
1.25278
1.25177
1.25152
1.25146
1.25141
1.25073
1.24947
1.24807
1.24707
1.24648
1.24609
1.24565
1.24529
1.24529
1.24587
1.24698
1.24835
1.24959
1.25085
1.25154
1.2527
1.25177
1.25152
1.25146
1.25141
1.25073
1.24947
1.24807
1.24707
1.24648
1.24609
1.24565
1.24529
1.24529
1.24587
1.24698
1.24835
1.24958
1.25086
1.25154
1.25271
1.25177
1.25151
1.25146
1.2514
1.25073
1.24948
1.24807
1.24707
1.24646
1.24606
1.24562
1.24527
1.24532
1.24595
1.2471
1.24848
1.24971
1.25097
1.25162
1.2528
1.25177
1.25152
1.25147
1.25141
1.25074
1.24949
1.2481
1.24707
1.24644
1.24601
1.24561
1.24538
1.24562
1.24643
1.24768
1.24904
1.25023
1.25136
1.25193
1.25298
1.25177
1.25152
1.25147
1.25138
1.25066
1.24936
1.24792
1.24687
1.24623
1.2459
1.24578
1.24602
1.24674
1.24786
1.24913
1.25024
1.25115
1.25182
1.25215
1.25255
1.25176
1.25157
1.25154
1.25125
1.25011
1.24845
1.24705
1.24642
1.24643
1.24689
1.24766
1.24866
1.24968
1.25051
1.25108
1.25136
1.25147
1.25128
1.25106
1.25054
1.25172
1.25163
1.25148
1.25035
1.24788
1.24594
1.24609
1.24796
1.24978
1.25085
1.25114
1.25107
1.25077
1.25044
1.25006
1.24972
1.2494
1.24908
1.24884
1.24856
1.25172
1.25163
1.25148
1.25035
1.24787
1.24594
1.24609
1.24797
1.24977
1.25087
1.25111
1.25112
1.25069
1.25055
1.24988
1.25002
1.24888
1.24998
1.24724
1.25119
1.25176
1.25157
1.25154
1.25125
1.25011
1.24845
1.24704
1.24643
1.24642
1.24691
1.24763
1.2487
1.24962
1.2506
1.25094
1.25157
1.25115
1.25174
1.25042
1.25139
1.25177
1.25153
1.25147
1.25138
1.25065
1.24936
1.24791
1.24687
1.24623
1.24591
1.24576
1.24604
1.24672
1.24789
1.24908
1.2503
1.25107
1.25192
1.25203
1.25269
1.25177
1.25152
1.25147
1.25141
1.25074
1.2495
1.2481
1.24707
1.24643
1.24601
1.2456
1.24539
1.24562
1.24643
1.24768
1.24905
1.25023
1.25136
1.25194
1.25296
1.25177
1.25152
1.25146
1.25141
1.25073
1.24948
1.24807
1.24707
1.24646
1.24606
1.24562
1.24527
1.24532
1.24595
1.2471
1.24848
1.24972
1.25096
1.25163
1.25278
1.25177
1.25152
1.25146
1.25141
1.25073
1.24947
1.24807
1.24707
1.24648
1.24609
1.24565
1.24529
1.24529
1.24587
1.24698
1.24835
1.24959
1.25085
1.25154
1.2527
1.25177
1.25152
1.25146
1.25141
1.25073
1.24947
1.24807
1.24707
1.24648
1.24609
1.24565
1.24529
1.24529
1.24587
1.24698
1.24835
1.24958
1.25086
1.25154
1.25271
1.25177
1.25151
1.25146
1.2514
1.25073
1.24948
1.24807
1.24707
1.24646
1.24606
1.24562
1.24527
1.24532
1.24595
1.2471
1.24848
1.24971
1.25097
1.25162
1.2528
1.25177
1.25152
1.25147
1.25141
1.25074
1.24949
1.2481
1.24707
1.24644
1.24601
1.24561
1.24538
1.24562
1.24643
1.24768
1.24904
1.25023
1.25136
1.25193
1.25298
1.25177
1.25152
1.25147
1.25138
1.25066
1.24936
1.24792
1.24687
1.24623
1.2459
1.24578
1.24602
1.24674
1.24786
1.24913
1.25024
1.25115
1.25182
1.25215
1.25255
1.25176
1.25157
1.25154
1.25125
1.25011
1.24845
1.24705
1.24642
1.24643
1.24689
1.24766
1.24866
1.24968
1.25051
1.25108
1.25136
1.25147
1.25128
1.25106
1.25054
1.25172
1.25163
1.25148
1.25035
1.24788
1.24594
1.24609
1.24796
1.24978
1.25085
1.25114
1.25107
1.25077
1.25044
1.25006
1.24972
1.2494
1.24908
1.24884
1.24855
1.25145
1.25168
1.25039
1.24871
1.24662
1.24651
1.24694
1.24837
1.24918
1.25009
1.25027
1.25061
1.25042
1.25051
1.25009
1.25016
1.24947
1.24989
1.24835
1.2507
1.25185
1.25202
1.2516
1.25088
1.24922
1.24797
1.2472
1.24741
1.2479
1.24868
1.24926
1.24994
1.25035
1.25085
1.25093
1.25126
1.25089
1.25133
1.25022
1.25155
1.25156
1.25167
1.25123
1.25124
1.25014
1.24904
1.24753
1.24687
1.24643
1.24667
1.24683
1.24742
1.24796
1.2489
1.2496
1.25053
1.25082
1.25156
1.25118
1.25207
1.25179
1.25186
1.25147
1.25164
1.25094
1.25004
1.24854
1.24754
1.24676
1.24655
1.24636
1.24646
1.2467
1.24743
1.24836
1.24958
1.25049
1.25156
1.25187
1.25279
1.25163
1.25174
1.25124
1.25151
1.25083
1.25008
1.24856
1.24757
1.24665
1.24637
1.24599
1.24588
1.24576
1.24621
1.24697
1.24826
1.24938
1.25075
1.25139
1.25251
1.25169
1.25185
1.25134
1.25164
1.25096
1.25024
1.24872
1.24774
1.24682
1.24654
1.24613
1.24595
1.2457
1.24598
1.2466
1.24784
1.24902
1.2505
1.25127
1.2525
1.25169
1.25185
1.25134
1.25164
1.25096
1.25024
1.24873
1.24774
1.24682
1.24654
1.24613
1.24595
1.2457
1.24598
1.2466
1.24784
1.24902
1.2505
1.25127
1.2525
1.25163
1.25174
1.25124
1.25151
1.25083
1.25008
1.24856
1.24756
1.24665
1.24637
1.24599
1.24587
1.24577
1.24621
1.24698
1.24825
1.24939
1.25074
1.25139
1.25251
1.25179
1.25186
1.25147
1.25164
1.25094
1.25004
1.24854
1.24754
1.24676
1.24655
1.24636
1.24645
1.24672
1.24741
1.24839
1.24954
1.25055
1.25149
1.25195
1.25269
1.25156
1.25167
1.25123
1.25124
1.25014
1.24904
1.24753
1.24687
1.24644
1.24666
1.24684
1.24741
1.24798
1.24887
1.24966
1.25044
1.25096
1.25136
1.25147
1.25167
1.25185
1.25202
1.2516
1.25088
1.24922
1.24797
1.2472
1.24741
1.24791
1.24867
1.24927
1.24992
1.25038
1.2508
1.25102
1.25113
1.25112
1.25096
1.25084
1.25055
1.25145
1.25168
1.25039
1.24871
1.24662
1.24651
1.24694
1.24837
1.24918
1.25009
1.25029
1.25059
1.25045
1.25046
1.25017
1.25002
1.24971
1.24946
1.24924
1.24902
1.25425
1.25389
1.25321
1.2508
1.24982
1.24927
1.25029
1.251
1.25212
1.2525
1.25301
1.25298
1.2531
1.2529
1.25275
1.25254
1.25213
1.25218
1.25119
1.25224
1.2538
1.25362
1.25345
1.25181
1.25047
1.24923
1.24927
1.2496
1.25045
1.25099
1.2516
1.25188
1.25219
1.25232
1.25237
1.25243
1.25211
1.25236
1.2513
1.25256
1.25405
1.25375
1.25408
1.2533
1.25272
1.25116
1.25024
1.24932
1.24936
1.24936
1.24984
1.25011
1.2507
1.25122
1.25185
1.25245
1.2527
1.25326
1.25282
1.25364
1.25387
1.25348
1.25372
1.25331
1.25314
1.25193
1.2508
1.24941
1.24878
1.24831
1.24832
1.24827
1.2485
1.24893
1.24966
1.25066
1.25148
1.25251
1.25276
1.25363
1.25402
1.25356
1.25385
1.25344
1.25351
1.25242
1.25141
1.24988
1.2491
1.24839
1.24826
1.24793
1.24791
1.24794
1.24851
1.24944
1.25053
1.25181
1.25256
1.25354
1.25397
1.25345
1.25374
1.25331
1.25341
1.25235
1.25137
1.24982
1.24902
1.24827
1.24811
1.2477
1.24755
1.24738
1.24778
1.24861
1.24973
1.25111
1.25205
1.2531
1.25397
1.25345
1.25374
1.25331
1.25341
1.25235
1.25137
1.24982
1.24902
1.24827
1.24811
1.2477
1.24755
1.24738
1.24778
1.2486
1.24973
1.25111
1.25205
1.2531
1.25402
1.25356
1.25385
1.25344
1.25351
1.25242
1.25141
1.24987
1.2491
1.24839
1.24827
1.24792
1.24791
1.24793
1.24852
1.24943
1.25055
1.25179
1.25257
1.25352
1.25387
1.25348
1.25372
1.25331
1.25314
1.25193
1.2508
1.24941
1.24878
1.24831
1.24833
1.24826
1.24852
1.2489
1.2497
1.25061
1.25155
1.25242
1.25288
1.2535
1.25405
1.25375
1.25408
1.2533
1.25272
1.25116
1.25024
1.24932
1.24936
1.24936
1.24985
1.2501
1.25072
1.25118
1.2519
1.25236
1.25284
1.25304
1.25316
1.25315
1.2538
1.25362
1.25345
1.25181
1.25047
1.24923
1.24927
1.24959
1.25045
1.25098
1.25161
1.25187
1.25222
1.25229
1.25243
1.25233
1.25229
1.25204
1.25188
1.25153
1.25425
1.25389
1.25321
1.2508
1.24982
1.24927
1.25029
1.251
1.25212
1.25249
1.25302
1.25297
1.25312
1.25286
1.25281
1.25245
1.25229
1.25189
1.25171
1.25128
1.24254
1.23474
1.23019
1.2273
1.22595
1.2251
1.22479
1.22446
1.22432
1.22406
1.22391
1.22363
1.22344
1.22313
1.22289
1.22255
1.22226
1.22189
1.22156
1.22115
1.22079
1.22036
1.21998
1.21955
1.21917
1.21875
1.21839
1.218
1.21767
1.21732
1.21702
1.21671
1.21645
1.21617
1.21594
1.21568
1.21545
1.2152
1.21497
1.21471
1.21447
1.21421
1.21397
1.21371
1.21348
1.21323
1.213
1.21276
1.21254
1.21232
1.21212
1.21191
1.21172
1.21152
1.21132
1.21111
1.21091
1.21069
1.21048
1.21026
1.21006
1.20985
1.20966
1.20946
1.20927
1.20908
1.20889
1.20869
1.2085
1.2083
1.20812
1.20792
1.20773
1.20755
1.20736
1.20717
1.20698
1.2068
1.20662
1.20644
1.20626
1.20608
1.20591
1.20573
1.20555
1.20537
1.20518
1.20505
1.20453
1.20565
1.24603
1.23861
1.23397
1.23096
1.22946
1.22854
1.22817
1.22782
1.22767
1.22741
1.22725
1.22698
1.22679
1.22648
1.22624
1.2259
1.22561
1.22523
1.2249
1.2245
1.22413
1.2237
1.22332
1.22289
1.22251
1.2221
1.22174
1.22135
1.22102
1.22066
1.22037
1.22005
1.21979
1.21951
1.21928
1.21902
1.21879
1.21854
1.21831
1.21805
1.21782
1.21755
1.21732
1.21706
1.21682
1.21657
1.21634
1.2161
1.21589
1.21567
1.21547
1.21526
1.21507
1.21486
1.21467
1.21446
1.21425
1.21403
1.21383
1.21361
1.21341
1.2132
1.21301
1.21281
1.21262
1.21243
1.21224
1.21204
1.21185
1.21166
1.21147
1.21128
1.21109
1.2109
1.21071
1.21052
1.21034
1.21015
1.20997
1.20979
1.20962
1.20944
1.20926
1.20909
1.2089
1.20873
1.20853
1.20842
1.20788
1.20884
1.2507
1.24459
1.24011
1.23693
1.23523
1.23412
1.23363
1.23321
1.23303
1.23275
1.23259
1.23231
1.23211
1.2318
1.23156
1.23121
1.23093
1.23054
1.23021
1.2298
1.22944
1.22901
1.22862
1.22819
1.22781
1.22739
1.22703
1.22664
1.2263
1.22595
1.22565
1.22534
1.22508
1.2248
1.22456
1.2243
1.22408
1.22382
1.22359
1.22333
1.22309
1.22283
1.22259
1.22233
1.2221
1.22184
1.22161
1.22137
1.22116
1.22094
1.22074
1.22053
1.22034
1.22013
1.21994
1.21972
1.21952
1.2193
1.21909
1.21887
1.21867
1.21846
1.21827
1.21807
1.21788
1.21769
1.2175
1.2173
1.21711
1.21691
1.21673
1.21653
1.21634
1.21616
1.21597
1.21578
1.21559
1.21541
1.21523
1.21505
1.21487
1.21469
1.21452
1.21434
1.21416
1.21399
1.21379
1.21369
1.21316
1.21382
1.25286
1.24847
1.2445
1.24144
1.23965
1.23843
1.23782
1.23734
1.23712
1.23683
1.23667
1.23639
1.23619
1.23589
1.23564
1.2353
1.23501
1.23463
1.2343
1.23389
1.23352
1.23309
1.23271
1.23228
1.23189
1.23147
1.23111
1.23072
1.23039
1.23003
1.22973
1.22942
1.22916
1.22888
1.22864
1.22838
1.22815
1.2279
1.22767
1.22741
1.22717
1.22691
1.22667
1.22641
1.22617
1.22592
1.22569
1.22545
1.22523
1.22501
1.22481
1.2246
1.22441
1.2242
1.22401
1.22379
1.22359
1.22337
1.22316
1.22294
1.22274
1.22253
1.22234
1.22214
1.22195
1.22175
1.22157
1.22137
1.22118
1.22098
1.22079
1.2206
1.22041
1.22022
1.22003
1.21984
1.21965
1.21947
1.21929
1.21911
1.21893
1.21875
1.21858
1.2184
1.21822
1.21804
1.21784
1.21774
1.21729
1.21764
1.25423
1.25116
1.24788
1.24511
1.24344
1.24219
1.24153
1.24099
1.24073
1.24043
1.24026
1.23997
1.23978
1.23947
1.23922
1.23888
1.23859
1.23821
1.23787
1.23746
1.23709
1.23666
1.23628
1.23584
1.23546
1.23504
1.23468
1.23428
1.23395
1.23359
1.23329
1.23298
1.23272
1.23244
1.2322
1.23194
1.23171
1.23145
1.23122
1.23096
1.23073
1.23046
1.23022
1.22996
1.22972
1.22947
1.22924
1.229
1.22878
1.22856
1.22836
1.22815
1.22796
1.22775
1.22756
1.22734
1.22714
1.22691
1.2267
1.22649
1.22628
1.22608
1.22588
1.22568
1.22549
1.2253
1.22511
1.22491
1.22472
1.22452
1.22433
1.22414
1.22395
1.22376
1.22357
1.22338
1.22319
1.22301
1.22283
1.22264
1.22247
1.22229
1.22211
1.22194
1.22175
1.22158
1.22138
1.22126
1.2209
1.22103
1.25442
1.25215
1.24946
1.2471
1.24568
1.24455
1.24391
1.24338
1.24312
1.24282
1.24265
1.24237
1.24217
1.24187
1.24163
1.24129
1.241
1.24062
1.24028
1.23987
1.23951
1.23908
1.23869
1.23826
1.23787
1.23745
1.23709
1.2367
1.23636
1.23601
1.23571
1.23539
1.23513
1.23485
1.23461
1.23435
1.23413
1.23387
1.23364
1.23338
1.23314
1.23288
1.23264
1.23237
1.23214
1.23188
1.23165
1.23141
1.23119
1.23097
1.23077
1.23056
1.23037
1.23016
1.22997
1.22975
1.22955
1.22933
1.22912
1.2289
1.22869
1.22849
1.22829
1.22809
1.2279
1.22771
1.22752
1.22732
1.22713
1.22693
1.22674
1.22655
1.22636
1.22617
1.22598
1.22579
1.2256
1.22542
1.22523
1.22505
1.22488
1.2247
1.22452
1.22434
1.22416
1.22398
1.22379
1.22364
1.22335
1.22335
1.2544
1.25243
1.25021
1.24829
1.24718
1.24623
1.24568
1.24518
1.24493
1.24463
1.24446
1.24419
1.24399
1.24369
1.24344
1.2431
1.24281
1.24243
1.2421
1.24169
1.24132
1.24089
1.24051
1.24007
1.23969
1.23927
1.2389
1.23851
1.23818
1.23782
1.23752
1.23721
1.23694
1.23666
1.23643
1.23616
1.23594
1.23568
1.23545
1.23519
1.23495
1.23469
1.23445
1.23418
1.23395
1.23369
1.23346
1.23322
1.233
1.23278
1.23258
1.23237
1.23218
1.23197
1.23178
1.23156
1.23136
1.23113
1.23092
1.23071
1.2305
1.23029
1.2301
1.2299
1.22971
1.22951
1.22932
1.22913
1.22894
1.22874
1.22855
1.22835
1.22816
1.22797
1.22778
1.2276
1.22741
1.22722
1.22704
1.22686
1.22668
1.2265
1.22632
1.22615
1.22596
1.22578
1.22559
1.22543
1.22519
1.22511
1.25426
1.25232
1.25051
1.24901
1.24821
1.24744
1.24701
1.24656
1.24634
1.24604
1.24587
1.24559
1.24539
1.24508
1.24484
1.24449
1.2442
1.24382
1.24349
1.24307
1.24271
1.24227
1.24189
1.24145
1.24107
1.24064
1.24028
1.23989
1.23955
1.2392
1.2389
1.23858
1.23832
1.23803
1.2378
1.23754
1.23731
1.23705
1.23682
1.23656
1.23632
1.23606
1.23582
1.23555
1.23531
1.23506
1.23483
1.23459
1.23437
1.23415
1.23395
1.23374
1.23354
1.23334
1.23314
1.23293
1.23272
1.2325
1.23229
1.23207
1.23187
1.23166
1.23146
1.23127
1.23107
1.23088
1.23069
1.23049
1.2303
1.2301
1.22991
1.22972
1.22953
1.22934
1.22915
1.22896
1.22877
1.22858
1.2284
1.22822
1.22805
1.22786
1.22769
1.22751
1.22733
1.22715
1.22696
1.22679
1.22658
1.22646
1.25335
1.25149
1.2501
1.24904
1.2485
1.24792
1.2476
1.24723
1.24704
1.24677
1.24661
1.24633
1.24614
1.24583
1.24559
1.24524
1.24495
1.24457
1.24424
1.24382
1.24346
1.24302
1.24264
1.2422
1.24182
1.2414
1.24103
1.24064
1.2403
1.23995
1.23965
1.23933
1.23907
1.23879
1.23855
1.23829
1.23806
1.2378
1.23757
1.23731
1.23707
1.23681
1.23657
1.23631
1.23607
1.23581
1.23558
1.23534
1.23512
1.2349
1.2347
1.23449
1.2343
1.23409
1.2339
1.23368
1.23348
1.23325
1.23304
1.23283
1.23262
1.23241
1.23222
1.23202
1.23183
1.23163
1.23144
1.23124
1.23105
1.23085
1.23066
1.23047
1.23028
1.23009
1.2299
1.22971
1.22952
1.22934
1.22916
1.22897
1.2288
1.22862
1.22844
1.22826
1.22808
1.2279
1.22771
1.22754
1.22734
1.2272
1.25276
1.25118
1.25027
1.2495
1.24917
1.2487
1.24848
1.24814
1.24799
1.24772
1.24757
1.24729
1.24709
1.24678
1.24654
1.24619
1.2459
1.24551
1.24518
1.24476
1.2444
1.24396
1.24358
1.24314
1.24276
1.24233
1.24197
1.24158
1.24124
1.24088
1.24058
1.24027
1.24
1.23972
1.23948
1.23922
1.23899
1.23873
1.2385
1.23824
1.238
1.23774
1.2375
1.23724
1.237
1.23674
1.23651
1.23627
1.23605
1.23583
1.23563
1.23542
1.23522
1.23502
1.23482
1.23461
1.2344
1.23418
1.23397
1.23375
1.23354
1.23334
1.23314
1.23294
1.23275
1.23255
1.23236
1.23216
1.23198
1.23178
1.23159
1.23139
1.2312
1.23101
1.23082
1.23063
1.23044
1.23026
1.23008
1.22989
1.22972
1.22954
1.22936
1.22918
1.229
1.22882
1.22864
1.22846
1.22827
1.22812
1.25142
1.25027
1.2497
1.24917
1.24894
1.24857
1.2484
1.24812
1.24799
1.24773
1.24758
1.24731
1.24712
1.24681
1.24657
1.24622
1.24593
1.24555
1.24522
1.2448
1.24444
1.244
1.24362
1.24318
1.2428
1.24237
1.24201
1.24162
1.24128
1.24092
1.24062
1.24031
1.24004
1.23976
1.23952
1.23926
1.23903
1.23878
1.23855
1.23828
1.23805
1.23778
1.23754
1.23728
1.23704
1.23679
1.23655
1.23631
1.23609
1.23587
1.23567
1.23546
1.23527
1.23506
1.23487
1.23465
1.23444
1.23422
1.23401
1.23379
1.23359
1.23338
1.23318
1.23299
1.2328
1.2326
1.23241
1.23221
1.23202
1.23182
1.23163
1.23144
1.23125
1.23106
1.23086
1.23068
1.23049
1.2303
1.23012
1.22994
1.22976
1.22958
1.22941
1.22923
1.22904
1.22887
1.22868
1.2285
1.22832
1.22815
1.25174
1.25075
1.25033
1.24985
1.24967
1.24932
1.24917
1.24889
1.24877
1.24851
1.24836
1.24809
1.24789
1.24758
1.24734
1.24699
1.2467
1.24632
1.24599
1.24557
1.24521
1.24477
1.24439
1.24395
1.24357
1.24314
1.24278
1.24238
1.24205
1.24169
1.24139
1.24107
1.24081
1.24053
1.24029
1.24003
1.2398
1.23954
1.23931
1.23905
1.23881
1.23855
1.23831
1.23804
1.2378
1.23755
1.23732
1.23708
1.23686
1.23663
1.23643
1.23622
1.23603
1.23582
1.23563
1.23541
1.2352
1.23498
1.23477
1.23455
1.23435
1.23414
1.23394
1.23375
1.23355
1.23336
1.23317
1.23297
1.23278
1.23258
1.23239
1.23219
1.232
1.23181
1.23162
1.23143
1.23125
1.23106
1.23088
1.23069
1.23052
1.23034
1.23016
1.22998
1.2298
1.22962
1.22943
1.22926
1.22908
1.22891
1.23884
1.23055
1.22579
1.22308
1.22171
1.22102
1.22071
1.22047
1.22034
1.22014
1.21999
1.21976
1.21957
1.2193
1.21906
1.21874
1.21846
1.2181
1.21777
1.21738
1.21702
1.2166
1.21623
1.2158
1.21543
1.21501
1.21466
1.21427
1.21394
1.2136
1.2133
1.21299
1.21273
1.21245
1.21222
1.21196
1.21174
1.21149
1.21126
1.211
1.21077
1.21051
1.21027
1.21001
1.20977
1.20952
1.20929
1.20906
1.20884
1.20862
1.20842
1.20821
1.20803
1.20782
1.20763
1.20741
1.20721
1.20699
1.20678
1.20657
1.20636
1.20616
1.20597
1.20577
1.20558
1.20539
1.2052
1.205
1.20481
1.20462
1.20443
1.20424
1.20405
1.20386
1.20367
1.20349
1.2033
1.20311
1.20293
1.20275
1.20257
1.2024
1.20222
1.20204
1.20185
1.20168
1.20147
1.20136
1.20071
1.20206
1.24553
1.23819
1.23337
1.2304
1.22884
1.22799
1.22761
1.22732
1.22717
1.22696
1.22681
1.22658
1.22639
1.22611
1.22587
1.22555
1.22527
1.2249
1.22458
1.22418
1.22382
1.2234
1.22302
1.22259
1.22222
1.22181
1.22145
1.22106
1.22073
1.22038
1.22009
1.21978
1.21952
1.21924
1.219
1.21875
1.21852
1.21827
1.21804
1.21778
1.21754
1.21728
1.21705
1.21679
1.21655
1.2163
1.21607
1.21583
1.21561
1.21539
1.21519
1.21498
1.21479
1.21459
1.2144
1.21418
1.21398
1.21376
1.21355
1.21333
1.21313
1.21292
1.21273
1.21253
1.21234
1.21215
1.21196
1.21176
1.21157
1.21137
1.21119
1.21099
1.2108
1.21062
1.21043
1.21024
1.21005
1.20987
1.20969
1.2095
1.20933
1.20915
1.20897
1.20879
1.2086
1.20843
1.20822
1.20814
1.20746
1.20853
1.24925
1.24361
1.23908
1.23605
1.23429
1.23327
1.23276
1.23242
1.23224
1.23203
1.23187
1.23164
1.23145
1.23118
1.23094
1.23062
1.23034
1.22998
1.22965
1.22925
1.22889
1.22847
1.2281
1.22767
1.22729
1.22688
1.22652
1.22613
1.2258
1.22545
1.22516
1.22485
1.22459
1.22431
1.22408
1.22382
1.22359
1.22334
1.22311
1.22285
1.22262
1.22235
1.22212
1.22186
1.22162
1.22137
1.22114
1.2209
1.22068
1.22046
1.22026
1.22006
1.21987
1.21966
1.21947
1.21925
1.21905
1.21883
1.21862
1.2184
1.2182
1.21799
1.2178
1.2176
1.21741
1.21722
1.21703
1.21683
1.21664
1.21645
1.21626
1.21606
1.21587
1.21569
1.2155
1.21531
1.21512
1.21494
1.21475
1.21457
1.2144
1.21422
1.21404
1.21386
1.21367
1.2135
1.21328
1.21321
1.21259
1.21327
1.25205
1.24809
1.24426
1.24142
1.23963
1.23848
1.23786
1.23744
1.23722
1.23698
1.23682
1.23658
1.23639
1.23611
1.23587
1.23555
1.23526
1.2349
1.23457
1.23417
1.23381
1.23339
1.23301
1.23258
1.2322
1.23179
1.23143
1.23104
1.23071
1.23036
1.23006
1.22975
1.22949
1.22921
1.22897
1.22871
1.22849
1.22823
1.228
1.22774
1.22751
1.22725
1.22701
1.22675
1.22651
1.22626
1.22603
1.22579
1.22557
1.22535
1.22515
1.22494
1.22475
1.22454
1.22435
1.22414
1.22393
1.22371
1.2235
1.22328
1.22308
1.22288
1.22268
1.22248
1.22229
1.2221
1.22191
1.22171
1.22152
1.22132
1.22113
1.22094
1.22075
1.22056
1.22037
1.22018
1.21999
1.21981
1.21963
1.21945
1.21927
1.21909
1.21891
1.21873
1.21854
1.21837
1.21815
1.21807
1.21756
1.2179
1.25281
1.25014
1.24702
1.24462
1.243
1.2419
1.24123
1.24077
1.24052
1.24027
1.24011
1.23987
1.23968
1.2394
1.23917
1.23885
1.23856
1.2382
1.23787
1.23747
1.23711
1.23668
1.2363
1.23588
1.2355
1.23508
1.23472
1.23433
1.234
1.23365
1.23335
1.23304
1.23278
1.2325
1.23226
1.232
1.23178
1.23152
1.23129
1.23103
1.2308
1.23053
1.23029
1.23003
1.2298
1.22954
1.22931
1.22907
1.22886
1.22863
1.22843
1.22822
1.22803
1.22783
1.22763
1.22742
1.22721
1.22699
1.22678
1.22657
1.22636
1.22616
1.22596
1.22576
1.22557
1.22538
1.22519
1.22499
1.2248
1.2246
1.22441
1.22422
1.22403
1.22384
1.22365
1.22346
1.22327
1.22309
1.2229
1.22272
1.22254
1.22236
1.22218
1.22201
1.22181
1.22164
1.22143
1.22132
1.22092
1.22103
1.25332
1.25136
1.24881
1.24688
1.24555
1.24458
1.24396
1.24348
1.24322
1.24296
1.24279
1.24254
1.24235
1.24207
1.24183
1.2415
1.24122
1.24085
1.24052
1.24012
1.23976
1.23933
1.23895
1.23852
1.23814
1.23772
1.23736
1.23697
1.23664
1.23628
1.23599
1.23567
1.23541
1.23513
1.2349
1.23464
1.23441
1.23415
1.23392
1.23366
1.23343
1.23316
1.23292
1.23266
1.23242
1.23217
1.23194
1.2317
1.23148
1.23126
1.23106
1.23085
1.23066
1.23045
1.23026
1.23004
1.22984
1.22962
1.22941
1.22919
1.22898
1.22878
1.22858
1.22838
1.22819
1.228
1.22781
1.22761
1.22742
1.22722
1.22703
1.22684
1.22664
1.22646
1.22626
1.22608
1.22589
1.2257
1.22552
1.22534
1.22516
1.22498
1.2248
1.22462
1.22443
1.22426
1.22405
1.22391
1.22361
1.22358
1.25329
1.25158
1.24945
1.24794
1.24694
1.24616
1.24564
1.2452
1.24496
1.2447
1.24453
1.24429
1.2441
1.24381
1.24357
1.24325
1.24296
1.24259
1.24226
1.24186
1.2415
1.24107
1.24069
1.24026
1.23988
1.23946
1.2391
1.23871
1.23838
1.23802
1.23772
1.23741
1.23715
1.23687
1.23663
1.23637
1.23615
1.23589
1.23566
1.2354
1.23516
1.2349
1.23466
1.2344
1.23416
1.23391
1.23367
1.23343
1.23322
1.23299
1.23279
1.23258
1.23239
1.23218
1.23199
1.23178
1.23157
1.23135
1.23114
1.23092
1.23071
1.23051
1.23031
1.23012
1.22992
1.22973
1.22954
1.22934
1.22915
1.22895
1.22876
1.22857
1.22838
1.22819
1.22799
1.22781
1.22762
1.22743
1.22725
1.22707
1.22689
1.22671
1.22653
1.22635
1.22616
1.22599
1.22579
1.22563
1.22538
1.22528
1.25281
1.2511
1.24933
1.2482
1.24748
1.24691
1.2465
1.24615
1.24593
1.2457
1.24554
1.2453
1.24511
1.24484
1.2446
1.24428
1.24399
1.24362
1.2433
1.24289
1.24253
1.24211
1.24173
1.2413
1.24091
1.2405
1.24013
1.23975
1.23941
1.23906
1.23876
1.23845
1.23818
1.23791
1.23767
1.23741
1.23718
1.23693
1.2367
1.23644
1.2362
1.23594
1.2357
1.23543
1.2352
1.23494
1.23471
1.23447
1.23425
1.23403
1.23383
1.23362
1.23343
1.23322
1.23303
1.23281
1.23261
1.23239
1.23218
1.23196
1.23175
1.23155
1.23135
1.23115
1.23096
1.23077
1.23058
1.23038
1.23019
1.22999
1.2298
1.2296
1.22941
1.22922
1.22903
1.22885
1.22866
1.22847
1.22829
1.2281
1.22793
1.22775
1.22757
1.22739
1.2272
1.22702
1.22682
1.22665
1.22643
1.22629
1.25238
1.25068
1.24933
1.2485
1.24803
1.24759
1.2473
1.247
1.24682
1.24659
1.24644
1.2462
1.24601
1.24573
1.24549
1.24516
1.24488
1.24451
1.24418
1.24378
1.24341
1.24299
1.24261
1.24218
1.24179
1.24138
1.24101
1.24063
1.24029
1.23994
1.23964
1.23933
1.23906
1.23878
1.23855
1.23829
1.23806
1.2378
1.23757
1.23731
1.23707
1.23681
1.23657
1.23631
1.23607
1.23582
1.23558
1.23534
1.23513
1.2349
1.2347
1.23449
1.2343
1.23409
1.2339
1.23368
1.23348
1.23326
1.23305
1.23283
1.23262
1.23242
1.23222
1.23202
1.23183
1.23164
1.23145
1.23125
1.23106
1.23086
1.23067
1.23047
1.23028
1.23009
1.2299
1.22972
1.22952
1.22934
1.22916
1.22897
1.2288
1.22862
1.22844
1.22826
1.22807
1.22789
1.22769
1.22752
1.22731
1.22716
1.25083
1.24946
1.24853
1.24802
1.2477
1.2474
1.24719
1.24695
1.2468
1.2466
1.24645
1.24622
1.24603
1.24575
1.24551
1.24519
1.2449
1.24454
1.24421
1.24381
1.24345
1.24302
1.24264
1.24221
1.24183
1.24141
1.24105
1.24066
1.24032
1.23997
1.23967
1.23936
1.2391
1.23882
1.23858
1.23832
1.23809
1.23784
1.23761
1.23735
1.23711
1.23684
1.23661
1.23634
1.23611
1.23585
1.23562
1.23538
1.23516
1.23494
1.23474
1.23453
1.23434
1.23413
1.23394
1.23372
1.23352
1.23329
1.23308
1.23287
1.23266
1.23245
1.23226
1.23206
1.23187
1.23167
1.23148
1.23128
1.23109
1.2309
1.23071
1.23051
1.23032
1.23013
1.22994
1.22975
1.22956
1.22938
1.22919
1.22901
1.22883
1.22865
1.22847
1.22829
1.2281
1.22793
1.22773
1.22755
1.22735
1.22718
1.25024
1.24931
1.24875
1.24839
1.24818
1.24793
1.24776
1.24756
1.24742
1.24722
1.24707
1.24683
1.24664
1.24636
1.24612
1.24579
1.24551
1.24514
1.24481
1.24441
1.24404
1.24362
1.24323
1.2428
1.24242
1.242
1.24164
1.24125
1.24092
1.24056
1.24026
1.23995
1.23969
1.23941
1.23917
1.23891
1.23868
1.23843
1.2382
1.23793
1.2377
1.23743
1.23719
1.23693
1.23669
1.23644
1.23621
1.23596
1.23575
1.23552
1.23532
1.23511
1.23492
1.23471
1.23452
1.2343
1.2341
1.23388
1.23367
1.23345
1.23324
1.23304
1.23284
1.23264
1.23245
1.23225
1.23206
1.23186
1.23168
1.23148
1.23129
1.23109
1.2309
1.23071
1.23052
1.23033
1.23014
1.22996
1.22977
1.22959
1.22941
1.22923
1.22905
1.22887
1.22868
1.22851
1.22831
1.22813
1.22793
1.22776
1.24884
1.24821
1.2478
1.24756
1.24738
1.24717
1.24703
1.24685
1.24672
1.24653
1.24638
1.24615
1.24596
1.24568
1.24544
1.24512
1.24483
1.24446
1.24413
1.24373
1.24337
1.24294
1.24256
1.24213
1.24175
1.24133
1.24097
1.24058
1.24025
1.23989
1.23959
1.23928
1.23902
1.23874
1.2385
1.23824
1.23801
1.23776
1.23753
1.23727
1.23703
1.23677
1.23653
1.23626
1.23603
1.23577
1.23554
1.2353
1.23508
1.23486
1.23466
1.23445
1.23426
1.23405
1.23386
1.23364
1.23344
1.23321
1.233
1.23279
1.23258
1.23238
1.23218
1.23198
1.23179
1.23159
1.23141
1.23121
1.23102
1.23082
1.23063
1.23043
1.23024
1.23005
1.22986
1.22968
1.22949
1.2293
1.22912
1.22893
1.22876
1.22858
1.2284
1.22822
1.22803
1.22785
1.22765
1.22748
1.22727
1.2271
1.2362
1.22587
1.22052
1.21771
1.21639
1.21579
1.21553
1.21534
1.21521
1.21503
1.21489
1.21467
1.21448
1.21421
1.21398
1.21366
1.21338
1.21303
1.2127
1.21231
1.21196
1.21154
1.21117
1.21075
1.21037
1.20997
1.20961
1.20923
1.2089
1.20855
1.20826
1.20795
1.2077
1.20742
1.20719
1.20694
1.20671
1.20646
1.20623
1.20598
1.20575
1.20549
1.20525
1.205
1.20476
1.20451
1.20429
1.20405
1.20384
1.20362
1.20342
1.20322
1.20303
1.20283
1.20264
1.20243
1.20223
1.20201
1.20181
1.20159
1.20139
1.20119
1.201
1.20081
1.20062
1.20043
1.20024
1.20005
1.19986
1.19967
1.19948
1.19929
1.19911
1.19892
1.19873
1.19855
1.19836
1.19818
1.198
1.19783
1.19765
1.19748
1.1973
1.19712
1.19694
1.19677
1.19656
1.1965
1.19557
1.19772
1.24627
1.2382
1.23271
1.22944
1.22775
1.2269
1.22653
1.22628
1.22614
1.22595
1.2258
1.22558
1.22539
1.22513
1.22489
1.22458
1.2243
1.22394
1.22362
1.22322
1.22287
1.22245