/*--------------------------------*- C++ -*----------------------------------*\
  =========                 |
  \\      /  F ield         | OpenFOAM: The Open Source CFD Toolbox
   \\    /   O peration     | Website:  https://openfoam.org
    \\  /    A nd           | Version:  7
     \\/     M anipulation  |
\*---------------------------------------------------------------------------*/
FoamFile
{
    version     2.0;
    format      ascii;
    class       volScalarField;
    location    "2.1775";
    object      k_0;
}
// * * * * * * * * * * * * * * * * * * * * * * * * * * * * * * * * * * * * * //

dimensions      [0 2 -2 0 0 0 0];

internalField   nonuniform List<scalar> 
7920
(
52.0259
56.477
56.4894
56.542
56.4456
56.4531
56.3816
56.3998
56.3582
56.38
56.3499
56.3664
56.3432
56.3536
56.343
56.3419
56.3558
56.3119
56.4402
56.5011
13.8426
14.0099
13.4318
12.8797
12.6136
12.5101
12.4197
12.3933
12.347
12.3377
12.3085
12.3036
12.2873
12.2855
12.2753
12.2721
12.2684
12.2583
12.4326
12.4335
8.08956
9.22804
9.34664
9.33188
9.29142
9.2805
9.25413
9.24866
9.23019
9.22619
9.21182
9.20877
9.19765
9.19527
9.18689
9.18468
9.17872
9.17536
9.17971
9.20445
7.48776
8.76017
9.01368
9.10618
9.13037
9.16362
9.1685
9.18515
9.1853
9.1944
9.19274
9.19866
9.19627
9.20039
9.19811
9.20134
9.19942
9.20191
9.20251
9.22584
7.4229
8.70662
8.97313
9.08203
9.11975
9.16713
9.18246
9.21389
9.22286
9.24503
9.25091
9.26757
9.27158
9.28462
9.28767
9.29845
9.30102
9.30947
9.31317
9.33901
7.42981
8.70317
8.96807
9.07858
9.12008
9.17241
9.19268
9.2304
9.24416
9.27324
9.28358
9.30668
9.31467
9.33349
9.33996
9.35581
9.3614
9.37395
9.38139
9.40791
7.42981
8.70318
8.96807
9.07858
9.12008
9.17241
9.19268
9.23041
9.24416
9.27325
9.28357
9.30669
9.31466
9.33351
9.33995
9.35585
9.3614
9.37402
9.38145
9.40799
7.42289
8.70662
8.97313
9.08204
9.11974
9.16714
9.18245
9.2139
9.22285
9.24505
9.25089
9.26762
9.27154
9.28471
9.28761
9.2986
9.30096
9.30969
9.3132
9.33931
7.48776
8.76018
9.01367
9.10618
9.13036
9.16363
9.16849
9.18517
9.18527
9.19444
9.19267
9.19876
9.19613
9.20062
9.19783
9.20181
9.1989
9.20292
9.20189
9.22668
8.08956
9.22804
9.34664
9.33188
9.29141
9.28051
9.25411
9.24868
9.23014
9.22625
9.2117
9.20891
9.19738
9.19561
9.18625
9.18552
9.17724
9.17808
9.17732
9.20784
13.8426
14.0099
13.4318
12.8797
12.6136
12.5101
12.4197
12.3934
12.3469
12.3378
12.3083
12.3038
12.2869
12.2862
12.2742
12.2739
12.2653
12.2638
12.4211
12.4454
52.0259
56.477
56.4894
56.542
56.4456
56.4532
56.3815
56.4
56.3579
56.3805
56.3491
56.3678
56.3411
56.357
56.3375
56.351
56.3405
56.338
56.3922
56.5816
7.67361
9.66943
9.75006
9.6219
9.58223
9.50969
9.50447
9.46418
9.46528
9.43839
9.4405
9.42054
9.42287
9.40723
9.41025
9.39576
9.4023
9.38142
9.39272
9.42717
6.02213
8.25276
8.59231
8.63681
8.63889
8.63733
8.63303
8.63072
8.6276
8.62552
8.62297
8.62038
8.61875
8.61589
8.61545
8.61212
8.61271
8.60816
8.61586
8.61931
5.70549
7.91091
8.26342
8.33514
8.34609
8.36189
8.36547
8.37545
8.37823
8.38572
8.38796
8.39347
8.39567
8.39959
8.4025
8.40453
8.40875
8.40849
8.41148
8.44274
5.69719
7.9022
8.252
8.32078
8.3255
8.33452
8.3333
8.33791
8.33786
8.34172
8.34242
8.34595
8.34726
8.35047
8.35287
8.35518
8.3592
8.3599
8.36388
8.38468
5.68539
7.88672
8.23646
8.30723
8.31134
8.31961
8.31647
8.31954
8.3171
8.31931
8.3176
8.31939
8.31849
8.32017
8.32022
8.32212
8.32304
8.32536
8.32713
8.34886
5.69173
7.89483
8.24366
8.31401
8.31801
8.32629
8.32306
8.32609
8.32334
8.3253
8.32302
8.32433
8.32259
8.32369
8.32275
8.32402
8.32399
8.32553
8.32625
8.34619
5.69173
7.89483
8.24366
8.31401
8.31801
8.32629
8.32306
8.3261
8.32334
8.32531
8.32301
8.32434
8.32258
8.32371
8.32273
8.32404
8.32397
8.32553
8.32627
8.34614
5.68539
7.88672
8.23646
8.30724
8.31134
8.31961
8.31646
8.31955
8.31708
8.31933
8.31757
8.31943
8.31844
8.32026
8.32014
8.32224
8.32292
8.32549
8.32698
8.34888
5.69718
7.90221
8.25199
8.32079
8.32549
8.33453
8.33329
8.33793
8.33783
8.34178
8.34237
8.34604
8.34715
8.35071
8.35236
8.35585
8.3583
8.36055
8.36335
8.38519
5.70549
7.91092
8.26341
8.33515
8.34608
8.36191
8.36545
8.37548
8.37819
8.38579
8.38788
8.39364
8.39542
8.40007
8.40167
8.40581
8.40691
8.41066
8.40907
8.44508
6.02213
8.25277
8.59231
8.63682
8.63888
8.63734
8.63301
8.63076
8.62754
8.62562
8.62281
8.62063
8.61835
8.6165
8.61465
8.61346
8.61052
8.61152
8.6101
8.62732
7.67361
9.66943
9.75006
9.62191
9.58222
9.50971
9.50445
9.46421
9.46523
9.43848
9.44038
9.42076
9.42255
9.40779
9.40943
9.39725
9.39999
9.38581
9.38594
9.43885
0.477116
1.03564
1.13314
1.10352
1.02931
0.962306
0.910421
0.873643
0.846635
0.825682
0.81044
0.796547
0.786939
0.776598
0.77004
0.762031
0.756785
0.751985
0.743847
0.751507
0.0858917
0.382381
0.526427
0.588432
0.610297
0.624069
0.630895
0.638473
0.642246
0.64635
0.647739
0.649413
0.64953
0.649825
0.649519
0.649343
0.648801
0.648323
0.647607
0.650421
0.0641899
0.299945
0.416392
0.474695
0.493044
0.506551
0.509663
0.516034
0.518278
0.523177
0.52559
0.529989
0.532635
0.536292
0.539057
0.542003
0.544792
0.547216
0.549051
0.553595
0.0680477
0.303601
0.417682
0.473528
0.491507
0.502771
0.504392
0.507346
0.507449
0.508383
0.508629
0.509549
0.5101
0.511132
0.51223
0.513042
0.514645
0.515411
0.516783
0.520189
0.0662039
0.299593
0.412538
0.468391
0.48595
0.497191
0.498533
0.501198
0.500926
0.501369
0.501023
0.501199
0.501017
0.501125
0.501157
0.50126
0.501574
0.501704
0.502036
0.504259
0.0672386
0.30183
0.415187
0.470813
0.488526
0.499651
0.501155
0.503751
0.503526
0.503915
0.503566
0.503649
0.503401
0.503381
0.503288
0.503216
0.503274
0.503225
0.503385
0.505317
0.0672385
0.30183
0.415187
0.470813
0.488526
0.499651
0.501155
0.503751
0.503526
0.503915
0.503566
0.503649
0.503401
0.503382
0.503288
0.503218
0.503274
0.503226
0.503383
0.505315
0.0662037
0.299593
0.412538
0.468391
0.48595
0.497191
0.498533
0.501199
0.500926
0.501369
0.501022
0.501199
0.501017
0.501127
0.501157
0.50126
0.501573
0.5017
0.502033
0.504247
0.0680473
0.303601
0.417681
0.473529
0.491507
0.502772
0.504391
0.507347
0.507449
0.508384
0.508629
0.509556
0.510087
0.51115
0.512198
0.513068
0.514609
0.515404
0.516758
0.520142
0.0641894
0.299945
0.416391
0.474696
0.493043
0.506552
0.509662
0.516035
0.518277
0.523182
0.525579
0.530005
0.532609
0.536323
0.538999
0.54205
0.544705
0.547223
0.548997
0.553492
0.0858914
0.382381
0.526427
0.588433
0.610296
0.624071
0.630891
0.638479
0.642235
0.646364
0.647719
0.649432
0.649519
0.649836
0.649457
0.64936
0.648685
0.6484
0.647435
0.650416
0.477116
1.03564
1.13314
1.10352
1.02931
0.962309
0.910417
0.873651
0.846627
0.825703
0.810422
0.796597
0.7869
0.776717
0.769959
0.762314
0.756614
0.752579
0.743684
0.752624
0.477116
1.03564
1.13314
1.10352
1.02931
0.962306
0.910421
0.873643
0.846635
0.825682
0.81044
0.796547
0.786939
0.776598
0.77004
0.762031
0.756785
0.751985
0.743847
0.751507
0.0858917
0.382381
0.526427
0.588432
0.610297
0.624069
0.630895
0.638473
0.642246
0.64635
0.647739
0.649413
0.64953
0.649825
0.649519
0.649343
0.648801
0.648323
0.647607
0.650421
0.0641899
0.299945
0.416392
0.474695
0.493044
0.506551
0.509663
0.516034
0.518278
0.523177
0.52559
0.52999
0.532635
0.536292
0.539057
0.542003
0.544792
0.547216
0.549051
0.553595
0.0680477
0.303601
0.417682
0.473528
0.491507
0.502771
0.504392
0.507346
0.507449
0.508383
0.50863
0.509549
0.5101
0.511132
0.512231
0.513042
0.514645
0.515411
0.516783
0.520189
0.0662039
0.299593
0.412538
0.468391
0.48595
0.497191
0.498533
0.501198
0.500926
0.501369
0.501023
0.501199
0.501017
0.501125
0.501157
0.50126
0.501574
0.501704
0.502037
0.504259
0.0672386
0.30183
0.415187
0.470813
0.488526
0.499651
0.501155
0.503751
0.503526
0.503915
0.503566
0.503649
0.503401
0.503381
0.503288
0.503216
0.503274
0.503225
0.503385
0.505317
0.0672385
0.30183
0.415187
0.470813
0.488526
0.499651
0.501155
0.503751
0.503526
0.503915
0.503566
0.503649
0.503401
0.503382
0.503288
0.503218
0.503274
0.503226
0.503383
0.505315
0.0662037
0.299593
0.412538
0.468391
0.48595
0.497191
0.498533
0.501199
0.500926
0.501369
0.501022
0.501199
0.501017
0.501127
0.501157
0.50126
0.501573
0.5017
0.502033
0.504247
0.0680473
0.303601
0.417681
0.473529
0.491507
0.502772
0.504391
0.507347
0.507449
0.508384
0.508629
0.509556
0.510087
0.51115
0.512198
0.513068
0.514609
0.515404
0.516758
0.520142
0.0641894
0.299945
0.416391
0.474696
0.493043
0.506552
0.509662
0.516035
0.518277
0.523182
0.525579
0.530005
0.532609
0.536323
0.538999
0.54205
0.544705
0.547223
0.548997
0.553492
0.0858914
0.382381
0.526427
0.588433
0.610296
0.624071
0.630891
0.638479
0.642235
0.646364
0.647719
0.649432
0.649519
0.649836
0.649457
0.64936
0.648685
0.6484
0.647435
0.650416
0.477116
1.03564
1.13314
1.10352
1.02931
0.962309
0.910417
0.873651
0.846627
0.825703
0.810422
0.796597
0.7869
0.776717
0.769959
0.762314
0.756614
0.752579
0.743684
0.752624
7.67361
9.66943
9.75006
9.6219
9.58223
9.50969
9.50447
9.46418
9.46528
9.43839
9.4405
9.42054
9.42287
9.40723
9.41025
9.39576
9.4023
9.38142
9.39272
9.42717
6.02213
8.25276
8.59231
8.63681
8.63889
8.63733
8.63303
8.63072
8.6276
8.62552
8.62297
8.62038
8.61875
8.61589
8.61545
8.61212
8.61271
8.60816
8.61586
8.61931
5.70549
7.91091
8.26342
8.33514
8.34609
8.36189
8.36547
8.37545
8.37823
8.38572
8.38796
8.39347
8.39567
8.39959
8.4025
8.40453
8.40875
8.40849
8.41148
8.44274
5.69719
7.9022
8.252
8.32078
8.3255
8.33452
8.3333
8.33791
8.33786
8.34172
8.34242
8.34595
8.34726
8.35047
8.35287
8.35518
8.3592
8.3599
8.36388
8.38468
5.68539
7.88672
8.23646
8.30723
8.31134
8.31961
8.31647
8.31954
8.3171
8.31931
8.3176
8.31939
8.31849
8.32017
8.32022
8.32212
8.32304
8.32536
8.32713
8.34886
5.69173
7.89483
8.24366
8.31401
8.31801
8.32629
8.32306
8.32609
8.32334
8.3253
8.32302
8.32433
8.32259
8.32369
8.32275
8.32402
8.32399
8.32553
8.32625
8.34619
5.69173
7.89483
8.24366
8.31401
8.31801
8.32629
8.32306
8.3261
8.32334
8.32531
8.32301
8.32434
8.32258
8.32371
8.32273
8.32404
8.32397
8.32553
8.32627
8.34614
5.68539
7.88672
8.23646
8.30724
8.31134
8.31961
8.31646
8.31955
8.31708
8.31933
8.31757
8.31943
8.31844
8.32026
8.32014
8.32224
8.32292
8.32549
8.32698
8.34888
5.69718
7.90221
8.25199
8.32079
8.32549
8.33453
8.33329
8.33793
8.33783
8.34178
8.34237
8.34604
8.34715
8.35071
8.35236
8.35585
8.3583
8.36055
8.36335
8.38519
5.70549
7.91092
8.26341
8.33515
8.34608
8.36191
8.36545
8.37548
8.37819
8.38579
8.38788
8.39364
8.39542
8.40007
8.40167
8.40581
8.40691
8.41066
8.40907
8.44508
6.02213
8.25277
8.59231
8.63682
8.63888
8.63734
8.63301
8.63076
8.62754
8.62562
8.62281
8.62063
8.61835
8.6165
8.61466
8.61346
8.61052
8.61152
8.6101
8.62732
7.67361
9.66943
9.75006
9.62191
9.58222
9.50971
9.50445
9.46421
9.46523
9.43848
9.44038
9.42076
9.42255
9.40779
9.40943
9.39725
9.39999
9.38581
9.38594
9.43885
52.0259
56.477
56.4894
56.542
56.4456
56.4531
56.3816
56.3998
56.3582
56.38
56.3499
56.3664
56.3432
56.3536
56.343
56.3419
56.3558
56.3119
56.4402
56.5011
13.8426
14.0099
13.4318
12.8797
12.6136
12.5101
12.4197
12.3933
12.347
12.3377
12.3085
12.3036
12.2873
12.2855
12.2753
12.2721
12.2684
12.2583
12.4326
12.4335
8.08956
9.22804
9.34664
9.33188
9.29142
9.2805
9.25413
9.24866
9.23019
9.22619
9.21182
9.20877
9.19765
9.19527
9.18689
9.18468
9.17872
9.17536
9.17971
9.20445
7.48776
8.76017
9.01368
9.10618
9.13037
9.16362
9.1685
9.18515
9.1853
9.1944
9.19274
9.19866
9.19627
9.20039
9.19811
9.20134
9.19942
9.20191
9.20251
9.22584
7.4229
8.70662
8.97313
9.08203
9.11975
9.16713
9.18246
9.21389
9.22286
9.24503
9.25091
9.26757
9.27158
9.28462
9.28767
9.29845
9.30102
9.30947
9.31317
9.33901
7.42981
8.70317
8.96807
9.07858
9.12008
9.17241
9.19268
9.2304
9.24416
9.27324
9.28358
9.30668
9.31467
9.33349
9.33996
9.35581
9.3614
9.37395
9.38139
9.40791
7.42981
8.70318
8.96807
9.07858
9.12008
9.17241
9.19268
9.23041
9.24416
9.27325
9.28357
9.30669
9.31466
9.33351
9.33995
9.35585
9.3614
9.37402
9.38145
9.40799
7.42289
8.70662
8.97313
9.08204
9.11974
9.16714
9.18245
9.2139
9.22285
9.24505
9.25089
9.26762
9.27154
9.28471
9.28761
9.2986
9.30096
9.30969
9.3132
9.33931
7.48776
8.76018
9.01367
9.10618
9.13036
9.16363
9.16849
9.18517
9.18527
9.19444
9.19267
9.19876
9.19612
9.20062
9.19783
9.20181
9.1989
9.20292
9.20189
9.22668
8.08956
9.22804
9.34664
9.33188
9.29141
9.28051
9.25411
9.24868
9.23014
9.22625
9.2117
9.20891
9.19738
9.19561
9.18625
9.18552
9.17724
9.17808
9.17732
9.20784
13.8426
14.0099
13.4318
12.8797
12.6136
12.5101
12.4197
12.3934
12.3469
12.3378
12.3083
12.3038
12.2869
12.2862
12.2742
12.2739
12.2653
12.2638
12.4211
12.4454
52.0259
56.477
56.4894
56.542
56.4456
56.4532
56.3815
56.4
56.3579
56.3805
56.3491
56.3678
56.3411
56.357
56.3375
56.351
56.3405
56.338
56.3922
56.5816
144.152
146.302
147.341
148.21
148.895
149.542
150.074
150.589
151.036
151.486
151.89
152.295
152.659
153.022
153.357
153.695
154.01
154.326
154.619
154.91
155.179
155.444
155.69
155.929
156.145
156.35
156.53
156.697
156.839
156.966
157.068
157.156
157.222
157.276
157.313
157.342
157.358
157.371
157.377
157.382
157.382
157.384
157.383
157.383
157.381
157.381
157.379
157.379
157.377
157.377
157.374
157.374
157.372
157.372
157.37
157.37
157.368
157.368
157.366
157.366
157.364
157.364
157.362
157.362
157.36
157.36
157.358
157.358
157.356
157.356
157.354
157.354
157.352
157.352
157.35
157.35
157.348
157.348
157.346
157.345
157.343
157.343
157.341
157.34
157.337
157.337
157.333
157.333
157.298
157.279
47.2944
49.0604
49.3852
49.6808
49.8819
50.1067
50.2637
50.4441
50.5767
50.7346
50.8559
50.9979
51.1077
51.2353
51.3366
51.455
51.5513
51.662
51.7518
51.8535
51.9361
52.0293
52.1047
52.1887
52.2549
52.3274
52.3823
52.4417
52.4842
52.5302
52.56
52.5928
52.6107
52.6319
52.6403
52.6529
52.6549
52.6621
52.6608
52.6651
52.6623
52.6653
52.6622
52.6646
52.6614
52.6636
52.6606
52.6627
52.6598
52.6618
52.6591
52.661
52.6585
52.6603
52.658
52.6597
52.6575
52.6592
52.6572
52.6588
52.6569
52.6585
52.6568
52.6582
52.6567
52.6581
52.6566
52.6581
52.6567
52.6581
52.6568
52.6582
52.657
52.6584
52.6573
52.6586
52.6576
52.6589
52.6579
52.6591
52.6581
52.6594
52.6583
52.6595
52.6582
52.6595
52.6576
52.6596
52.6417
52.6335
30.503
32.5178
32.7122
32.8996
32.9966
33.1475
33.2264
33.3496
33.4155
33.5231
33.5853
33.6839
33.7421
33.8309
33.8848
33.9671
34.0194
34.0971
34.1471
34.2192
34.2657
34.3321
34.3751
34.4359
34.4744
34.5281
34.5602
34.6055
34.6302
34.6667
34.6838
34.7114
34.721
34.7405
34.7438
34.7565
34.7557
34.764
34.7608
34.7667
34.7625
34.7671
34.7627
34.7668
34.7626
34.7664
34.7624
34.766
34.7623
34.7657
34.7623
34.7657
34.7625
34.7657
34.7629
34.766
34.7633
34.7664
34.764
34.7669
34.7647
34.7676
34.7656
34.7685
34.7667
34.7695
34.7679
34.7706
34.7692
34.7719
34.7707
34.7734
34.7723
34.775
34.774
34.7766
34.7758
34.7784
34.7776
34.7803
34.7796
34.7822
34.7815
34.7841
34.7833
34.786
34.7849
34.7879
34.7829
34.7647
28.2728
30.6865
30.8723
31.0299
31.0916
31.2244
31.2802
31.3914
31.4368
31.5331
31.5781
31.6695
31.7142
31.7979
31.8394
31.9168
31.9581
32.0325
32.0738
32.1439
32.1831
32.2482
32.2852
32.346
32.3803
32.4354
32.4648
32.5125
32.5357
32.5753
32.5919
32.6233
32.6331
32.6561
32.6599
32.6756
32.675
32.6855
32.6823
32.6899
32.6854
32.6915
32.6867
32.6921
32.6874
32.6925
32.6881
32.6929
32.6889
32.6936
32.6899
32.6944
32.6911
32.6954
32.6924
32.6967
32.694
32.6981
32.6957
32.6997
32.6976
32.7016
32.6997
32.7036
32.702
32.7058
32.7044
32.7083
32.707
32.7108
32.7098
32.7136
32.7128
32.7166
32.7159
32.7197
32.7191
32.7229
32.7225
32.7262
32.7259
32.7297
32.7294
32.7332
32.7329
32.7367
32.7364
32.7401
32.7405
32.7187
28.1075
30.7651
30.9554
31.0964
31.1328
31.2493
31.2896
31.3905
31.4223
31.5089
31.5429
31.6282
31.6651
31.7455
31.7801
31.8545
31.8899
31.9629
31.9999
32.0701
32.106
32.1719
32.2067
32.269
32.3023
32.3599
32.3894
32.4401
32.464
32.507
32.5246
32.5595
32.5707
32.5969
32.6019
32.6202
32.6204
32.6327
32.6298
32.6389
32.6344
32.6417
32.6368
32.6432
32.6385
32.6444
32.64
32.6457
32.6417
32.6472
32.6435
32.6489
32.6456
32.6508
32.6479
32.653
32.6504
32.6554
32.6531
32.658
32.656
32.6608
32.6591
32.6639
32.6625
32.6672
32.666
32.6707
32.6697
32.6744
32.6736
32.6783
32.6777
32.6823
32.682
32.6866
32.6864
32.691
32.691
32.6955
32.6956
32.7002
32.7003
32.7049
32.7051
32.7097
32.7098
32.7141
32.7162
32.6925
28.1916
31.0004
31.1921
31.3163
31.3313
31.4283
31.4542
31.5411
31.561
31.6359
31.6604
31.7374
31.7677
31.8425
31.8717
31.9417
31.9728
32.0429
32.0768
32.1459
32.1795
32.2451
32.2783
32.3411
32.3739
32.4327
32.4622
32.5146
32.539
32.5839
32.6022
32.6391
32.6511
32.6792
32.685
32.7048
32.7055
32.7189
32.7164
32.7262
32.7219
32.7298
32.7249
32.7319
32.7271
32.7336
32.7292
32.7354
32.7314
32.7374
32.7338
32.7396
32.7364
32.7421
32.7393
32.7448
32.7424
32.7478
32.7457
32.751
32.7492
32.7545
32.753
32.7582
32.7569
32.7621
32.7611
32.7662
32.7655
32.7706
32.7701
32.7752
32.7749
32.7799
32.7798
32.7849
32.785
32.79
32.7902
32.7953
32.7956
32.8006
32.8011
32.8061
32.8066
32.8116
32.8122
32.8166
32.8203
32.7951
28.1931
30.9904
31.1629
31.2659
31.2623
31.3399
31.3518
31.4235
31.4327
31.4961
31.5125
31.5809
31.605
31.6732
31.6978
31.7627
31.7903
31.8566
31.888
31.9544
31.9862
32.0502
32.0822
32.144
32.176
32.2342
32.2634
32.3154
32.3395
32.3841
32.4023
32.439
32.451
32.4789
32.4847
32.5045
32.5052
32.5186
32.516
32.5258
32.5215
32.5294
32.5246
32.5315
32.5268
32.5332
32.5289
32.535
32.5311
32.5371
32.5335
32.5393
32.5362
32.5418
32.5391
32.5446
32.5422
32.5476
32.5455
32.5508
32.549
32.5543
32.5528
32.558
32.5568
32.5619
32.561
32.5661
32.5654
32.5705
32.57
32.575
32.5748
32.5798
32.5797
32.5848
32.5849
32.5899
32.5901
32.5952
32.5955
32.6005
32.601
32.606
32.6065
32.6115
32.6122
32.6165
32.6203
32.5953
28.1102
30.7238
30.8502
30.9254
30.9061
30.9669
30.9656
31.0229
31.0242
31.0778
31.0886
31.1488
31.1681
31.2294
31.2506
31.3105
31.3358
31.3981
31.4277
31.4907
31.5213
31.5826
31.6139
31.6734
31.7046
31.7604
31.7886
31.8383
31.8614
31.9037
31.9209
31.9553
31.9662
31.9921
31.9969
32.0151
32.0152
32.0275
32.0246
32.0336
32.0292
32.0365
32.0316
32.038
32.0333
32.0392
32.0349
32.0406
32.0366
32.0421
32.0385
32.0438
32.0406
32.0458
32.043
32.048
32.0455
32.0505
32.0483
32.0531
32.0512
32.056
32.0544
32.0591
32.0577
32.0624
32.0613
32.066
32.0651
32.0697
32.069
32.0736
32.0732
32.0778
32.0775
32.082
32.0819
32.0865
32.0865
32.091
32.0912
32.0957
32.0959
32.1005
32.1007
32.1052
32.1055
32.1095
32.1125
32.0898
28.254
30.5574
30.6253
30.673
30.6448
30.6903
30.6806
30.726
30.7228
30.769
30.7775
30.8308
30.8476
30.9026
30.9228
30.9784
31.0036
31.0623
31.0917
31.1513
31.1822
31.2405
31.2724
31.3289
31.36
31.4124
31.44
31.4859
31.508
31.5465
31.5623
31.593
31.6024
31.6248
31.6285
31.6439
31.6433
31.6536
31.6504
31.6579
31.6535
31.6596
31.6548
31.6602
31.6556
31.6606
31.6563
31.6611
31.6572
31.6618
31.6583
31.6627
31.6595
31.6638
31.6609
31.6651
31.6625
31.6666
31.6643
31.6683
31.6662
31.6702
31.6684
31.6723
31.6707
31.6746
31.6732
31.677
31.6759
31.6797
31.6787
31.6825
31.6817
31.6855
31.6848
31.6886
31.6881
31.6919
31.6915
31.6952
31.695
31.6987
31.6985
31.7023
31.7021
31.7058
31.7057
31.709
31.7102
31.6896
30.3909
32.1773
32.1849
32.2151
32.1863
32.2226
32.2108
32.2491
32.2477
32.2908
32.3022
32.3523
32.3714
32.4236
32.4475
32.5023
32.5321
32.5901
32.624
32.6825
32.7183
32.7759
32.8122
32.8676
32.9019
32.9522
32.9817
33.0247
33.0478
33.0828
33.0987
33.1254
33.1343
33.1531
33.1561
33.1684
33.1675
33.1755
33.1723
33.1781
33.1739
33.1785
33.1742
33.1783
33.1741
33.1778
33.1739
33.1775
33.1739
33.1773
33.174
33.1773
33.1742
33.1774
33.1746
33.1777
33.1751
33.1781
33.1758
33.1787
33.1766
33.1795
33.1775
33.1804
33.1786
33.1814
33.1799
33.1826
33.1812
33.184
33.1827
33.1854
33.1843
33.187
33.1861
33.1888
33.1879
33.1906
33.1898
33.1925
33.1918
33.1944
33.1938
33.1964
33.1957
33.1983
33.1975
33.2
33.1969
33.1803
46.8543
48.1298
48.116
48.1424
48.1256
48.1628
48.1632
48.2058
48.2219
48.2762
48.3089
48.3726
48.4147
48.4825
48.5324
48.6059
48.6639
48.742
48.805
48.8845
48.9493
49.0281
49.0923
49.1672
49.2264
49.293
49.3433
49.3989
49.4382
49.4815
49.5092
49.5402
49.5567
49.5768
49.5843
49.5963
49.5979
49.6047
49.6033
49.6074
49.6046
49.6075
49.6043
49.6067
49.6035
49.6057
49.6027
49.6047
49.6019
49.6038
49.6011
49.603
49.6005
49.6023
49.6
49.6017
49.5996
49.6012
49.5992
49.6008
49.599
49.6005
49.5988
49.6003
49.5987
49.6001
49.5987
49.6001
49.5987
49.6001
49.5989
49.6003
49.5991
49.6004
49.5993
49.6007
49.5996
49.6009
49.6
49.6012
49.6003
49.6015
49.6005
49.6017
49.6005
49.6016
49.6001
49.6016
49.5854
49.5785
142.372
142.996
143.001
143.054
143.073
143.155
143.207
143.308
143.397
143.536
143.669
143.837
143.995
144.177
144.355
144.556
144.755
144.972
145.183
145.406
145.62
145.842
146.053
146.264
146.458
146.645
146.811
146.966
147.097
147.216
147.312
147.394
147.455
147.506
147.539
147.566
147.581
147.593
147.598
147.603
147.603
147.604
147.602
147.603
147.601
147.601
147.598
147.598
147.596
147.596
147.594
147.594
147.591
147.591
147.589
147.589
147.587
147.587
147.585
147.585
147.583
147.583
147.581
147.58
147.579
147.578
147.577
147.576
147.575
147.574
147.573
147.572
147.571
147.57
147.569
147.568
147.567
147.566
147.564
147.564
147.562
147.562
147.56
147.559
147.556
147.556
147.552
147.551
147.52
147.505
30.1887
30.954
31.1779
31.3475
31.4915
31.6202
31.7295
31.8343
31.9252
32.0188
32.0999
32.1848
32.2569
32.3339
32.3999
32.4722
32.5342
32.6019
32.6591
32.7216
32.7738
32.8311
32.8785
32.93
32.9712
33.0154
33.0492
33.0853
33.1111
33.1387
33.1565
33.1759
33.1862
33.1986
33.2031
33.2104
33.2112
33.2152
33.2141
33.2166
33.2146
33.2164
33.2143
33.2157
33.2136
33.2149
33.2129
33.2142
33.2123
33.2134
33.2117
33.2128
33.2111
33.2122
33.2107
33.2117
33.2102
33.2112
33.2099
33.2108
33.2096
33.2105
33.2094
33.2103
33.2092
33.2101
33.2091
33.2099
33.209
33.2099
33.209
33.2099
33.2091
33.2099
33.2092
33.2101
33.2094
33.2103
33.2098
33.2107
33.2102
33.2112
33.2108
33.2119
33.2116
33.2131
33.2128
33.2152
33.2114
33.2122
28.0677
29.3881
29.6096
29.7768
29.9126
30.0397
30.1444
30.2468
30.334
30.4245
30.503
30.5851
30.6554
30.7295
30.7937
30.8629
30.9235
30.9885
31.0446
31.1046
31.156
31.211
31.2578
31.3075
31.3486
31.3915
31.4255
31.4607
31.4871
31.5143
31.533
31.5522
31.5637
31.5761
31.5817
31.5889
31.5907
31.5947
31.5944
31.5966
31.5955
31.597
31.5956
31.5967
31.5953
31.5963
31.5949
31.5959
31.5946
31.5955
31.5943
31.5952
31.594
31.5949
31.5938
31.5946
31.5936
31.5944
31.5935
31.5943
31.5934
31.5942
31.5934
31.5941
31.5934
31.5942
31.5935
31.5942
31.5936
31.5943
31.5938
31.5945
31.594
31.5948
31.5943
31.5951
31.5947
31.5954
31.5951
31.5959
31.5955
31.5964
31.596
31.597
31.5965
31.5977
31.597
31.5987
31.5976
31.5995
25.8792
27.7039
27.939
28.0877
28.2109
28.3264
28.4248
28.5175
28.5988
28.6799
28.7541
28.8292
28.8969
28.9649
29.0265
29.0898
29.1483
29.2086
29.2637
29.3198
29.3705
29.4223
29.4691
29.5165
29.5585
29.6002
29.6359
29.6706
29.6992
29.7266
29.7479
29.7679
29.7821
29.7952
29.8033
29.8109
29.8147
29.8188
29.82
29.8221
29.8221
29.8232
29.8228
29.8236
29.8231
29.8237
29.8232
29.8238
29.8232
29.8238
29.8233
29.8239
29.8235
29.824
29.8236
29.8241
29.8238
29.8243
29.824
29.8245
29.8242
29.8247
29.8244
29.8249
29.8247
29.8252
29.825
29.8255
29.8253
29.8258
29.8257
29.8262
29.8261
29.8266
29.8265
29.827
29.8269
29.8274
29.8273
29.8279
29.8278
29.8284
29.8282
29.8289
29.8286
29.8293
29.8287
29.8296
29.8282
29.8098
25.1511
27.2269
27.4542
27.5761
27.6795
27.7819
27.8715
27.956
28.03
28.1035
28.1726
28.2432
28.3085
28.3731
28.4324
28.4923
28.5491
28.6073
28.662
28.7169
28.7678
28.8189
28.8664
28.914
28.9578
29.0006
29.0388
29.0752
29.1066
29.136
29.1604
29.1825
29.1997
29.2147
29.2253
29.2342
29.2398
29.2444
29.2468
29.2491
29.2498
29.2509
29.251
29.2516
29.2514
29.2519
29.2517
29.2521
29.2518
29.2522
29.252
29.2524
29.2522
29.2526
29.2524
29.2528
29.2527
29.253
29.2529
29.2532
29.2531
29.2535
29.2534
29.2537
29.2537
29.254
29.254
29.2543
29.2543
29.2546
29.2546
29.2549
29.2549
29.2553
29.2553
29.2556
29.2556
29.256
29.256
29.2563
29.2563
29.2567
29.2566
29.257
29.2568
29.2573
29.2568
29.2575
29.2568
29.2435
24.7065
26.9455
27.1553
27.2468
27.3241
27.4084
27.4844
27.5577
27.6211
27.6851
27.7462
27.8104
27.8708
27.9308
27.986
28.0416
28.0949
28.1501
28.2028
28.2559
28.3057
28.3556
28.4027
28.45
28.4942
28.5378
28.5771
28.6148
28.6478
28.6788
28.705
28.729
28.7481
28.7647
28.7769
28.7871
28.7937
28.7991
28.8021
28.8046
28.8056
28.8068
28.8069
28.8075
28.8074
28.8077
28.8075
28.8078
28.8076
28.8078
28.8076
28.8079
28.8077
28.8079
28.8078
28.808
28.8079
28.8081
28.808
28.8082
28.8081
28.8084
28.8083
28.8085
28.8084
28.8087
28.8086
28.8089
28.8088
28.809
28.809
28.8092
28.8092
28.8095
28.8094
28.8097
28.8096
28.8099
28.8099
28.8102
28.8101
28.8104
28.8103
28.8106
28.8103
28.8107
28.8102
28.8105
28.8098
28.7886
24.6162
26.8989
27.0843
27.1454
27.1973
27.2615
27.3224
27.3823
27.4344
27.4878
27.5402
27.597
27.6515
27.7065
27.7571
27.8087
27.8584
27.9108
27.9611
28.0126
28.0608
28.1098
28.1559
28.203
28.2471
28.291
28.3308
28.3693
28.4031
28.435
28.4622
28.4872
28.5073
28.525
28.538
28.549
28.5561
28.562
28.5652
28.568
28.5691
28.5704
28.5705
28.5711
28.5709
28.5712
28.571
28.5712
28.5709
28.5712
28.5709
28.5711
28.5709
28.5711
28.5709
28.5711
28.5709
28.5711
28.5709
28.5711
28.5709
28.5711
28.571
28.5712
28.571
28.5712
28.5711
28.5713
28.5712
28.5714
28.5713
28.5715
28.5714
28.5716
28.5715
28.5717
28.5716
28.5719
28.5718
28.572
28.5719
28.5722
28.572
28.5723
28.572
28.5724
28.5719
28.5723
28.5715
28.5527
24.6164
26.8872
27.0535
27.0939
27.1271
27.1744
27.2206
27.2674
27.3083
27.3518
27.3958
27.4451
27.4932
27.5425
27.5882
27.6354
27.6814
27.7305
27.7782
27.8274
27.8738
27.9212
27.9662
28.0123
28.0557
28.099
28.1383
28.1764
28.2099
28.2416
28.2685
28.2934
28.3133
28.3309
28.3439
28.3547
28.3619
28.3677
28.3709
28.3737
28.3747
28.376
28.3761
28.3767
28.3765
28.3768
28.3766
28.3768
28.3765
28.3767
28.3765
28.3767
28.3765
28.3767
28.3765
28.3767
28.3765
28.3767
28.3765
28.3767
28.3765
28.3767
28.3766
28.3768
28.3766
28.3768
28.3767
28.3769
28.3768
28.377
28.3769
28.3771
28.377
28.3772
28.3771
28.3773
28.3772
28.3775
28.3774
28.3776
28.3775
28.3778
28.3776
28.3779
28.3777
28.378
28.3776
28.3779
28.3772
28.3587
24.706
26.901
27.0509
27.0809
27.1032
27.1384
27.1724
27.2085
27.2403
27.2761
27.3132
27.3561
27.3982
27.4422
27.4835
27.5267
27.5696
27.6156
27.6607
27.7075
27.752
27.7978
27.8414
27.8862
27.9283
27.9702
28.0082
28.0449
28.077
28.1073
28.133
28.1564
28.1751
28.1915
28.2034
28.2134
28.2199
28.2252
28.228
28.2306
28.2315
28.2327
28.2328
28.2334
28.2332
28.2336
28.2333
28.2336
28.2334
28.2337
28.2335
28.2337
28.2335
28.2338
28.2336
28.2339
28.2337
28.234
28.2339
28.2341
28.234
28.2342
28.2341
28.2344
28.2343
28.2345
28.2345
28.2347
28.2347
28.2349
28.2349
28.2351
28.2351
28.2353
28.2353
28.2356
28.2356
28.2358
28.2358
28.2361
28.236
28.2363
28.2362
28.2365
28.2363
28.2366
28.2362
28.2364
28.2361
28.216
25.1303
27.1016
27.217
27.2378
27.2535
27.2793
27.3036
27.3307
27.3557
27.3859
27.4179
27.4555
27.4925
27.5321
27.5698
27.6108
27.6514
27.6955
27.7386
27.7838
27.8269
27.8716
27.9141
27.9577
27.9983
28.0387
28.0749
28.1097
28.1398
28.1681
28.1916
28.213
28.2296
28.2441
28.2543
28.2629
28.2683
28.2728
28.2751
28.2773
28.2779
28.279
28.2791
28.2797
28.2795
28.2799
28.2797
28.2801
28.2799
28.2803
28.2801
28.2804
28.2803
28.2806
28.2805
28.2808
28.2807
28.2811
28.281
28.2813
28.2812
28.2815
28.2815
28.2818
28.2818
28.2821
28.2821
28.2824
28.2824
28.2827
28.2827
28.283
28.283
28.2834
28.2834
28.2838
28.2838
28.2841
28.2841
28.2845
28.2845
28.2849
28.2848
28.2852
28.2851
28.2855
28.2852
28.2855
28.2851
28.2733
25.7954
27.4267
27.5001
27.5144
27.5249
27.5437
27.5602
27.5816
27.6017
27.6291
27.6571
27.6915
27.724
27.761
27.7958
27.8357
27.8741
27.9174
27.9582
28.0026
28.0439
28.0881
28.1289
28.1715
28.2097
28.2484
28.2817
28.3145
28.3415
28.3675
28.3878
28.4068
28.4203
28.4328
28.4404
28.4477
28.4513
28.4552
28.4563
28.4583
28.4583
28.4594
28.459
28.4597
28.4592
28.4598
28.4593
28.4599
28.4594
28.4599
28.4595
28.46
28.4596
28.4602
28.4598
28.4603
28.46
28.4605
28.4602
28.4607
28.4604
28.4609
28.4607
28.4612
28.461
28.4615
28.4613
28.4618
28.4616
28.4621
28.462
28.4625
28.4624
28.4629
28.4628
28.4633
28.4633
28.4638
28.4637
28.4643
28.4642
28.4648
28.4647
28.4653
28.4651
28.4658
28.4654
28.466
28.4659
28.4492
27.8345
28.8674
28.8853
28.8919
28.8962
28.9114
28.9216
28.942
28.9588
28.9877
29.0128
29.048
29.0776
29.116
29.1493
29.1916
29.2292
29.2748
29.3148
29.3615
29.4023
29.4488
29.4889
29.5331
29.57
29.6094
29.6407
29.6736
29.6981
29.7237
29.7411
29.7593
29.7699
29.7815
29.7867
29.7935
29.7951
29.7988
29.7985
29.8006
29.7995
29.8009
29.7995
29.8006
29.7992
29.8002
29.7988
29.7998
29.7985
29.7994
29.7982
29.7991
29.798
29.7988
29.7977
29.7986
29.7976
29.7984
29.7975
29.7983
29.7974
29.7982
29.7974
29.7982
29.7974
29.7982
29.7975
29.7983
29.7977
29.7984
29.7979
29.7986
29.7981
29.7989
29.7984
29.7992
29.7988
29.7995
29.7992
29.8
29.7996
29.8005
29.8002
29.8011
29.8007
29.8019
29.8013
29.8027
29.8025
29.8051
29.7805
30.211
30.214
30.2115
30.2144
30.224
30.2321
30.2496
30.2652
30.2931
30.3172
30.352
30.3806
30.4195
30.4524
30.4961
30.5336
30.5806
30.6207
30.669
30.71
30.7582
30.7985
30.8442
30.8809
30.9214
30.9522
30.9857
31.0095
31.0353
31.0517
31.0699
31.0793
31.0909
31.0949
31.1017
31.1023
31.1061
31.1049
31.1073
31.1053
31.107
31.1048
31.1063
31.1041
31.1054
31.1034
31.1046
31.1027
31.1039
31.1021
31.1032
31.1016
31.1026
31.1011
31.1021
31.1007
31.1017
31.1003
31.1013
31.1
31.1009
31.0998
31.1007
31.0996
31.1004
31.0995
31.1003
31.0994
31.1002
31.0994
31.1002
31.0994
31.1003
31.0996
31.1004
31.0998
31.1006
31.1001
31.101
31.1005
31.1015
31.1011
31.1022
31.1019
31.1033
31.1031
31.1053
31.1018
31.1026
3.61714
3.8128
3.83259
3.8419
3.85798
3.87239
3.88615
3.90197
3.91296
3.92911
3.93759
3.95324
3.95956
3.97444
3.97933
3.99353
3.99739
4.01072
4.01365
4.02602
4.0282
4.03961
4.04112
4.05144
4.05219
4.06128
4.06121
4.06899
4.06811
4.07461
4.07292
4.07822
4.07586
4.08013
4.07731
4.08083
4.0778
4.08081
4.07777
4.08044
4.07749
4.07993
4.07712
4.07939
4.07674
4.07887
4.07638
4.07838
4.07604