/*--------------------------------*- C++ -*----------------------------------*\
  =========                 |
  \\      /  F ield         | OpenFOAM: The Open Source CFD Toolbox
   \\    /   O peration     | Website:  https://openfoam.org
    \\  /    A nd           | Version:  7
     \\/     M anipulation  |
\*---------------------------------------------------------------------------*/
FoamFile
{
    version     2.0;
    format      ascii;
    class       volSymmTensorField;
    location    "1.265";
    object      UPrime2Mean;
}
// * * * * * * * * * * * * * * * * * * * * * * * * * * * * * * * * * * * * * //

dimensions      [0 2 -2 0 0 0 0];

internalField   nonuniform List<symmTensor> 
4950
(
(0.0110626 -0.00384379 -0.000813502 0.00249718 0.000574641 0.000219941)
(0.0572292 -0.00610451 -0.00316775 0.00081613 0.000407599 0.000500799)
(0.106318 -0.0036021 -0.00467666 0.000154486 0.000217013 0.000716279)
(0.160307 -0.000160109 -0.00570363 8.52065e-06 4.74047e-05 0.000818973)
(0.180441 0.001513 -0.00623323 2.29725e-05 -2.21937e-05 0.000911298)
(0.210916 0.00226512 -0.00656324 4.01047e-05 -3.83509e-05 0.000915883)
(0.216846 0.00231127 -0.00677897 4.32389e-05 -3.56739e-05 0.000914306)
(0.237307 0.00232096 -0.00684969 4.23821e-05 -2.16896e-05 0.000849822)
(0.239131 0.00205961 -0.00690115 3.80944e-05 -1.07803e-05 0.000800777)
(0.254814 0.0019675 -0.00683195 3.46075e-05 -4.04021e-06 0.00072352)
(0.255261 0.00166642 -0.00678855 2.91851e-05 -2.86627e-07 0.000675125)
(0.267727 0.00163824 -0.00664694 2.68345e-05 -2.71483e-06 0.000616947)
(0.267682 0.00128797 -0.00654977 2.13919e-05 1.59836e-06 0.000588479)
(0.277552 0.00143284 -0.00637287 2.21387e-05 -8.39766e-06 0.000559036)
(0.277675 0.000895424 -0.00624125 1.38906e-05 4.45698e-06 0.000551426)
(0.28525 0.00134742 -0.00606206 2.02952e-05 -1.86084e-05 0.000551431)
(0.286063 8.36729e-05 -0.00590501 4.47423e-06 2.06386e-05 0.00055135)
(0.293243 0.0009722 -0.00581128 1.84306e-05 -3.21506e-05 0.000580333)
(0.28764 -0.00546574 -0.00549879 0.000180328 0.000123132 0.00056132)
(0.329979 -0.000313577 -0.00457379 0.000198409 6.89399e-05 0.000593161)
(0.0063531 0.00199517 0.000457642 0.00436405 0.000704853 0.000219156)
(0.00742054 0.00101168 0.000432537 0.00423628 0.00103086 0.000710513)
(0.0143402 -0.000194366 0.000388918 0.00322685 0.00114086 0.0013119)
(0.0209369 -0.0024898 -0.000714701 0.00191861 0.000982909 0.00183772)
(0.0331353 -0.00311565 -0.00146928 0.00111378 0.000797959 0.00242446)
(0.0489165 -0.00364534 -0.00268911 0.00070331 0.000622659 0.00285133)
(0.0654868 -0.00358467 -0.00351855 0.000454209 0.000457022 0.00319105)
(0.085112 -0.00354016 -0.00464332 0.000314171 0.000325738 0.00326873)
(0.102552 -0.0032677 -0.00531462 0.000223805 0.000222699 0.00320885)
(0.12214 -0.00301094 -0.00613178 0.000166448 0.000151619 0.00298937)
(0.138443 -0.00268256 -0.00649764 0.000127035 0.000104244 0.00270801)
(0.156339 -0.00238146 -0.006961 0.000101019 7.97894e-05 0.00239949)
(0.1708 -0.00204798 -0.0070633 8.07251e-05 5.92359e-05 0.00209343)
(0.186729 -0.00176788 -0.00720997 7.00702e-05 7.15229e-05 0.00183814)
(0.199246 -0.00150273 -0.0070749 5.39752e-05 5.31381e-05 0.00160414)
(0.214129 -0.00111041 -0.00692415 5.22943e-05 9.32091e-05 0.00148401)
(0.223174 -0.00113989 -0.00659997 3.23864e-05 6.1059e-05 0.00133966)
(0.240861 0.000683683 -0.006313 3.04991e-05 3.01236e-05 0.00138739)
(0.237186 -0.000569715 -0.00579204 4.40007e-05 0.000121394 0.00128587)
(0.255933 0.00829556 -0.00444819 0.00063938 -0.000496248 0.00141994)
(0.00757085 0.00170555 0.000631831 0.00148506 0.000397312 0.000217814)
(0.0143779 0.00337184 0.00160088 0.00174592 0.000662293 0.000751519)
(0.0376432 0.00608792 0.00380298 0.00187512 0.000932437 0.00143545)
(0.0478791 0.00568916 0.00480936 0.001454 0.000925406 0.00207694)
(0.0670642 0.00522823 0.00647054 0.00105613 0.000863586 0.00282938)
(0.0725669 0.00406225 0.00688544 0.000788235 0.000731567 0.00353609)
(0.0867084 0.00326293 0.00777725 0.000570318 0.000579797 0.00425117)
(0.0910584 0.00237882 0.00737222 0.000425074 0.000423766 0.00475766)
(0.103166 0.00186525 0.00740728 0.000313306 0.000297344 0.00508092)
(0.108417 0.00131803 0.0064974 0.00023252 0.000186952 0.00513624)
(0.119849 0.00106752 0.00624182 0.000175416 0.000118097 0.00501649)
(0.126398 0.000733313 0.00536678 0.000129052 6.39673e-05 0.00473277)
(0.137659 0.00066231 0.00512334 0.000102554 3.81028e-05 0.00435234)
(0.145088 0.000410907 0.00444839 7.23547e-05 2.57753e-05 0.00390347)
(0.15661 0.000440779 0.00433727 6.62827e-05 1.42186e-05 0.00342502)
(0.163854 0.000247343 0.00409753 3.81238e-05 1.59803e-05 0.00296243)
(0.176842 0.000387308 0.00427418 5.52208e-05 3.5507e-05 0.00253917)
(0.182008 0.000133528 0.00464358 1.4248e-05 -6.3926e-05 0.00222275)
(0.196821 0.00122331 0.0048698 6.85205e-05 0.000134212 0.00194401)
(0.201053 0.000953171 0.00639273 0.000419041 -0.00054351 0.00187806)
(0.0074348 0.000942681 0.000574858 0.000425582 0.000199765 0.000200001)
(0.013077 0.00173549 0.00138728 0.000516402 0.000352739 0.000715689)
(0.0397365 0.00378105 0.00375991 0.000595754 0.00051243 0.00139927)
(0.0590277 0.00419681 0.00546971 0.000501328 0.000548387 0.00204284)
(0.0947351 0.00465462 0.0080821 0.000400934 0.000533646 0.00280799)
(0.115616 0.00447136 0.00972799 0.000333417 0.000487267 0.00354809)
(0.15093 0.00448853 0.0118011 0.000271959 0.000409321 0.00433314)
(0.169671 0.0042086 0.0125653 0.000229237 0.000331567 0.00496638)
(0.202298 0.00413793 0.0135118 0.000190246 0.00025219 0.00543259)
(0.219171 0.00385176 0.0133887 0.000159826 0.000186829 0.00566661)
(0.248755 0.00373213 0.0136938 0.000133103 0.000131474 0.00569399)
(0.264564 0.0034914 0.0133095 0.000111033 9.48612e-05 0.00556427)
(0.290995 0.00331996 0.0134192 9.3067e-05 6.25293e-05 0.00530638)
(0.30673 0.0031843 0.0129794 7.65479e-05 5.89113e-05 0.00493196)
(0.329754 0.00285666 0.013014 6.57854e-05 3.6623e-05 0.00451147)
(0.346545 0.00287645 0.0127725 5.00563e-05 5.01011e-05 0.00398334)
(0.365046 0.00229628 0.0130263 4.75098e-05 4.08048e-05 0.00351677)
(0.385701 0.00189202 0.0134212 2.22443e-05 -7.27026e-06 0.00302162)
(0.393266 0.00193322 0.0137277 3.66839e-05 7.14954e-05 0.00261537)
(0.433548 -0.00275057 0.0163817 6.18471e-05 -0.000329273 0.00244388)
(0.00740562 -1.43825e-08 0.00059361 2.37687e-10 -3.26083e-11 0.000208312)
(0.0126957 3.85322e-09 0.00138494 2.52478e-10 -2.24908e-09 0.000743399)
(0.0398469 -5.01976e-11 0.00391015 1.84302e-10 -4.01861e-09 0.00143582)
(0.0606208 4.85421e-09 0.00569385 8.77529e-11 -6.51261e-09 0.00208809)
(0.0991729 -3.41872e-08 0.00861871 8.10311e-11 -6.57464e-09 0.00285209)
(0.123432 2.32957e-08 0.0103987 1.06358e-10 -1.24605e-08 0.0035981)
(0.16412 -4.60633e-08 0.0129016 1.42893e-10 -1.50662e-08 0.00439502)
(0.188151 5.85376e-08 0.0138294 1.75171e-10 -7.58764e-09 0.00504784)
(0.228566 1.41581e-07 0.0152493 2.09844e-10 -2.99574e-08 0.00555531)
(0.251788 5.56262e-07 0.0152628 2.44012e-10 2.90562e-08 0.00581504)
(0.290687 7.03448e-07 0.0160144 2.85742e-10 -7.7616e-08 0.00590162)
(0.312728 1.77148e-06 0.01572 3.23433e-10 1.61293e-07 0.00579428)
(0.349679 2.24369e-06 0.0162441 4.13806e-10 -1.69784e-07 0.00559644)
(0.370164 7.81872e-06 0.0158273 6.23703e-10 3.94293e-07 0.00523798)
(0.405558 4.02831e-06 0.0162522 8.71255e-10 -1.23236e-07 0.00486412)
(0.423368 2.68586e-05 0.0158855 3.07496e-09 5.4914e-07 0.00433112)
(0.457643 6.44096e-06 0.0165672 2.76607e-09 6.25377e-07 0.00387367)
(0.473106 6.49072e-05 0.0167162 1.83523e-08 3.55656e-07 0.00335206)
(0.497611 1.22661e-05 0.0175315 1.08727e-08 1.81749e-06 0.00290127)
(0.522162 5.16087e-05 0.0201315 2.97341e-08 6.79321e-07 0.00275103)
(0.00743481 -0.000942708 0.000574864 0.000425577 -0.000199768 0.000200001)
(0.013077 -0.00173546 0.00138726 0.000516399 -0.000352735 0.000715699)
(0.0397365 -0.00378104 0.00375997 0.00059575 -0.00051245 0.00139925)
(0.0590277 -0.0041968 0.00546957 0.000501326 -0.000548377 0.00204289)
(0.0947351 -0.0046547 0.00808238 0.000400931 -0.00053369 0.00280792)
(0.115616 -0.00447136 0.0097275 0.000333407 -0.000487236 0.00354813)
(0.15093 -0.0044886 0.011802 0.000271946 -0.000409412 0.00433323)
(0.169672 -0.00420864 0.0125639 0.000229214 -0.000331478 0.00496596)
(0.202298 -0.00413759 0.0135143 0.000190201 -0.000252334 0.00543364)
(0.219173 -0.00385128 0.0133847 0.000159786 -0.000186692 0.00566467)
(0.248755 -0.00373062 0.0137 0.000132981 -0.000131617 0.00569708)
(0.26457 -0.00349016 0.0133002 0.000110937 -9.46954e-05 0.00556021)
(0.290995 -0.00331532 0.0134333 9.28058e-05 -6.25903e-05 0.00531098)
(0.306747 -0.00317805 0.0129588 7.62775e-05 -5.86561e-05 0.00492802)
(0.329762 -0.0028465 0.013044 6.53552e-05 -3.64443e-05 0.00451374)
(0.346587 -0.00285547 0.0127323 4.93691e-05 -4.93342e-05 0.00398417)
(0.365088 -0.00227719 0.0130777 4.68442e-05 -3.96789e-05 0.00351267)
(0.385783 -0.00183931 0.0133658 2.14061e-05 9.6533e-06 0.00302955)
(0.393387 -0.00187597 0.0137834 3.53553e-05 -6.74963e-05 0.00260399)
(0.433695 0.00283234 0.0163663 6.35525e-05 0.000332759 0.00246096)
(0.0075709 -0.00170557 0.000631839 0.00148505 -0.000397319 0.000217815)
(0.0143779 -0.00337183 0.00160085 0.00174592 -0.00066228 0.000751528)
(0.0376432 -0.00608791 0.00380306 0.00187511 -0.000932475 0.00143543)
(0.0478791 -0.00568916 0.00480919 0.00145399 -0.000925364 0.00207701)
(0.0670643 -0.00522829 0.00647081 0.00105612 -0.000863672 0.00282927)
(0.0725671 -0.00406227 0.00688501 0.000788217 -0.000731477 0.00353621)
(0.0867084 -0.00326302 0.00777799 0.000570307 -0.000579974 0.00425121)
(0.0910588 -0.00237895 0.0073712 0.000425036 -0.000423567 0.00475722)
(0.103166 -0.0018652 0.00740902 0.000313271 -0.000297651 0.00508246)
(0.108419 -0.00131787 0.00649475 0.000232455 -0.000186624 0.00513319)
(0.119849 -0.00106727 0.00624656 0.000175327 -0.000118514 0.00502214)
(0.126403 -0.000732906 0.00535852 0.000128933 -6.34546e-05 0.0047246)
(0.137658 -0.000661875 0.00513931 0.000102372 -3.87278e-05 0.00436337)
(0.145103 -0.000407259 0.00442004 7.21026e-05 -2.47328e-05 0.00389137)
(0.156607 -0.000442551 0.0043891 6.60307e-05 -1.5237e-05 0.00343728)
(0.163892 -0.000233655 0.00401373 3.76229e-05 -1.38112e-05 0.00295269)
(0.176839 -0.000399362 0.00440908 5.48548e-05 -3.66164e-05 0.00254589)
(0.182091 -9.81701e-05 0.00445805 1.3947e-05 6.67335e-05 0.00221991)
(0.196849 -0.00125223 0.0051242 6.73448e-05 -0.000134962 0.0019413)
(0.201215 -0.000894024 0.00612197 0.000416198 0.000545536 0.00189159)
(0.00635314 -0.0019952 0.000457645 0.00436403 -0.000704856 0.000219157)
(0.00742058 -0.00101165 0.000432531 0.00423628 -0.00103085 0.000710519)
(0.0143403 0.000194339 0.000388902 0.00322684 -0.00114089 0.0013119)
(0.0209369 0.00248979 -0.000714672 0.00191861 -0.00098288 0.00183776)
(0.0331353 0.00311555 -0.00146946 0.00111377 -0.000798009 0.00242441)
(0.0489164 0.00364529 -0.00268874 0.000703307 -0.000622601 0.00285148)
(0.0654866 0.0035845 -0.0035194 0.000454196 -0.00045712 0.00319103)
(0.0851112 0.00353996 -0.00464167 0.000314166 -0.000325618 0.00326884)
(0.102552 0.00326735 -0.00531779 0.000223775 -0.000222865 0.00320945)
(0.122137 0.00301081 -0.00612632 0.00016644 -0.000151428 0.0029883)
(0.138441 0.00268155 -0.00650684 0.000126972 -0.000104444 0.002711)
(0.156328 0.00238078 -0.00694697 0.000100994 -7.95583e-05 0.00239469)
(0.170793 0.00204572 -0.00708356 8.06126e-05 -5.94361e-05 0.00210191)
(0.1867 0.00176573 -0.00718376 6.99783e-05 -7.10659e-05 0.00182585)
(0.199216 0.00149821 -0.0071047 5.38055e-05 -5.36478e-05 0.00162238)
(0.214067 0.00110284 -0.00689893 5.20575e-05 -9.13692e-05 0.00145917)
(0.223064 0.00113173 -0.00660818 3.21444e-05 -6.24819e-05 0.00137219)
(0.240749 -0.000690129 -0.00635046 3.0306e-05 -2.62081e-05 0.00134891)
(0.236891 0.000544979 -0.00571237 4.3685e-05 -0.000124821 0.00131461)
(0.255834 -0.00824393 -0.00463353 0.000633455 0.000464488 0.00143408)
(0.0110627 0.00384375 -0.000813469 0.00249717 -0.000574622 0.00021994)
(0.0572294 0.00610452 -0.00316769 0.000816122 -0.00040759 0.000500814)
(0.106318 0.00360207 -0.00467664 0.000154485 -0.000217014 0.000716304)
(0.160307 0.000160173 -0.00570374 8.52005e-06 -4.74108e-05 0.000819025)
(0.180441 -0.001513 -0.00623355 2.29712e-05 2.21903e-05 0.000911357)
(0.210916 -0.00226507 -0.00656333 4.01041e-05 3.83392e-05 0.000915983)
(0.216845 -0.00231125 -0.00677961 4.32367e-05 3.56742e-05 0.000914387)
(0.237307 -0.002321 -0.00684935 4.23832e-05 2.16678e-05 0.000849951)
(0.239131 -0.00205952 -0.00690255 3.80906e-05 1.07895e-05 0.000800884)
(0.254812 -0.00196756 -0.00683032 3.46104e-05 4.00667e-06 0.000723579)
(0.255259 -0.00166604 -0.00679214 2.91762e-05 3.0024e-07 0.000675392)
(0.26772 -0.00163859 -0.0066417 2.6837e-05 2.68685e-06 0.000616647)
(0.267677 -0.00128693 -0.00655916 2.13782e-05 -1.61212e-06 0.000589396)
(0.277532 -0.00143327 -0.00635852 2.21377e-05 8.39052e-06 0.000557479)
(0.277654 -0.000892668 -0.00626461 1.38729e-05 -4.59579e-06 0.000554587)
(0.28521 -0.00134871 -0.00602734 2.02984e-05 1.86151e-05 0.000545844)
(0.285989 -7.87222e-05 -0.00595622 4.47292e-06 -2.1233e-05 0.000561239)
(0.293171 -0.000975248 -0.00575029 1.84446e-05 3.17229e-05 0.000564252)
(0.28747 0.00545083 -0.00550632 0.000179777 -0.000125396 0.000583349)
(0.329798 0.000291508 -0.00494868 0.000196537 -5.11991e-05 0.000573214)
(0.00587549 0.000189605 2.91603e-05 0.000861806 6.45642e-06 5.81773e-07)
(0.0239406 -0.00523763 -5.72967e-07 0.0016359 4.23938e-06 4.69485e-07)
(0.0589474 -0.00845896 1.98985e-05 0.00158859 3.81349e-06 5.29593e-07)
(0.144661 -0.00992977 4.29792e-05 0.000795464 -1.22337e-06 4.59014e-07)
(0.185155 -0.00753844 4.82452e-05 0.000368972 2.96358e-07 5.06156e-07)
(0.266895 -0.00572575 7.78923e-05 0.000150017 -3.57287e-07 4.3525e-07)
(0.279501 -0.0039193 6.45539e-05 7.5141e-05 9.17164e-07 4.74373e-07)
(0.33947 -0.00317723 9.06356e-05 4.46909e-05 7.52269e-07 4.06309e-07)
(0.336743 -0.00251115 6.98889e-05 3.38216e-05 1.41963e-06 4.42273e-07)
(0.383188 -0.00241438 9.45875e-05 2.94052e-05 1.15429e-06 3.80205e-07)
(0.37556 -0.00210493 7.17684e-05 2.64761e-05 1.5271e-06 4.1262e-07)
(0.413569 -0.0022085 9.62382e-05 2.6568e-05 1.27246e-06 3.5632e-07)
(0.404942 -0.00187119 7.29938e-05 2.32538e-05 1.47711e-06 3.83589e-07)
(0.436857 -0.00212115 9.76487e-05 2.73096e-05 1.45452e-06 3.32235e-07)
(0.428349 -0.00154349 7.45113e-05 1.92763e-05 1.20937e-06 3.5398e-07)
(0.456003 -0.00204311 0.000100205 3.32806e-05 1.92166e-06 3.07462e-07)
(0.446078 -0.000597199 7.621e-05 1.04409e-05 -5.2868e-08 3.24409e-07)
(0.471844 -0.00115887 0.000107262 4.95547e-05 2.87636e-06 2.82522e-07)
(0.4496 0.00738412 7.38846e-05 0.000326339 -3.43218e-06 2.97584e-07)
(0.439896 0.0129458 0.00012813 0.000750269 -2.51207e-06 2.51377e-07)
(0.00720614 0.000893831 2.5312e-05 0.00047782 1.86936e-06 4.44657e-07)
(0.00730734 0.000906139 1.17801e-05 0.00196664 -2.40613e-06 3.79046e-07)
(0.0184252 0.00329898 4.49036e-05 0.00272058 -5.63956e-06 4.1657e-07)
(0.0173029 0.000645738 3.87623e-05 0.00230788 -1.17377e-05 3.66838e-07)
(0.0258464 0.000112748 6.69041e-05 0.00157707 -9.33587e-06 3.94192e-07)
(0.0311773 -0.00176195 6.84562e-05 0.000926886 -9.18461e-06 3.42025e-07)
(0.0418943 -0.00197057 9.10825e-05 0.000535797 -6.60453e-06 3.63775e-07)
(0.0558683 -0.00237793 9.49297e-05 0.000310962 -5.63702e-06 3.13294e-07)
(0.0688864 -0.0021468 0.00011165 0.000186805 -4.08905e-06 3.34049e-07)
(0.0878153 -0.00204762 0.000115657 0.000117726 -3.31412e-06 2.88296e-07)
(0.10121 -0.0017423 0.000127264 7.57037e-05 -2.41859e-06 3.07535e-07)
(0.121744 -0.00155123 0.00013073 5.12471e-05 -1.93069e-06 2.66236e-07)
(0.134293 -0.00130285 0.000137988 3.57399e-05 -1.40588e-06 2.81954e-07)
(0.154629 -0.00113312 0.000140879 2.55008e-05 -1.2121e-06 2.44548e-07)
(0.165901 -0.00100015 0.000144757 1.92325e-05 -7.99157e-07 2.55943e-07)
(0.185855 -0.000642092 0.000147599 1.58908e-05 -7.62321e-07 2.22991e-07)
(0.194905 -0.00101161 0.000149047 1.53434e-05 -4.19549e-07 2.30055e-07)
(0.216768 0.000959283 0.000152418 2.08738e-05 5.02468e-07 2.02503e-07)
(0.218551 -0.000877744 0.000151484 4.0988e-05 -3.29475e-07 2.05249e-07)
(0.26261 0.0073794 0.000161663 0.00052518 6.28182e-06 1.84705e-07)
(0.00633626 0.00028253 2.7317e-05 7.64848e-05 1.73298e-06 5.3769e-07)
(0.00761811 0.00081253 1.59069e-05 0.000857429 2.17928e-06 4.56071e-07)
(0.027955 0.00498204 5.57884e-05 0.00174109 8.1724e-07 5.07718e-07)
(0.0339949 0.00540015 3.06131e-05 0.0017925 -5.60746e-06 4.38497e-07)
(0.0631042 0.00724682 6.24366e-05 0.00157439 -4.64766e-06 4.8402e-07)
(0.0658512 0.00592544 3.80818e-05 0.00120212 -6.87698e-06 4.15666e-07)
(0.0904932 0.00588298 7.20439e-05 0.000931828 -4.9107e-06 4.54009e-07)
(0.0897029 0.00461731 5.21415e-05 0.000717998 -5.48336e-06 3.88439e-07)
(0.109982 0.00435623 8.61946e-05 0.000567959 -3.70049e-06 4.23791e-07)
(0.109028 0.00353724 6.94675e-05 0.000456924 -3.7426e-06 3.63509e-07)
(0.126964 0.00334399 0.000101722 0.000369213 -2.29005e-06 3.95569e-07)
(0.127478 0.00285797 8.73568e-05 0.000304034 -2.16536e-06 3.40526e-07)
(0.143741 0.00269856 0.000116872 0.000251347 -1.09407e-06 3.67785e-07)
(0.146305 0.00245708 0.000104484 0.000203715 -8.6511e-07 3.17173e-07)
(0.160633 0.00218721 0.000130774 0.000182942 -4.38561e-07 3.39212e-07)
(0.166057 0.00223967 0.000120572 0.000126477 2.58106e-07 2.92824e-07)
(0.17734 0.00143078 0.000143555 0.000153051 -8.60138e-07 3.10872e-07)
(0.187393 0.0019096 0.000135994 6.16349e-05 1.50452e-06 2.68466e-07)
(0.194543 -0.000803715 0.000159065 0.000160957 -2.80821e-06 2.86725e-07)
(0.210483 -0.00214127 0.000149743 0.000180786 1.22921e-06 2.46525e-07)
(0.00596239 0.0001307 2.13918e-05 3.21269e-05 5.4649e-07 4.31971e-07)
(0.00687577 7.10766e-05 1.26643e-05 0.000181632 -4.94343e-07 3.78324e-07)
(0.0234892 0.00175306 4.16315e-05 0.00033419 -1.75989e-06 4.12105e-07)
(0.031692 0.00226586 1.88716e-05 0.000377109 -4.45145e-06 3.622e-07)
(0.0668561 0.00343446 4.0457e-05 0.000350049 -4.02437e-06 3.89304e-07)
(0.079177 0.00327721 1.28144e-05 0.000284337 -4.77011e-06 3.38043e-07)
(0.118526 0.00349572 3.85355e-05 0.000230001 -3.86033e-06 3.59663e-07)
(0.129785 0.00316756 1.20774e-05 0.000185017 -3.93947e-06 3.09827e-07)
(0.167644 0.00316001 4.12259e-05 0.000152191 -3.14073e-06 3.29896e-07)
(0.177869 0.00291537 1.69053e-05 0.00012709 -3.0414e-06 2.84454e-07)
(0.213418 0.00287484 4.76984e-05 0.000106813 -2.3591e-06 3.0321e-07)
(0.223121 0.00266624 2.58085e-05 9.01369e-05 -2.19864e-06 2.62337e-07)
(0.256422 0.00262205 5.70298e-05 7.73746e-05 -1.62536e-06 2.7802e-07)
(0.265743 0.00237516 3.7593e-05 6.33411e-05 -1.47959e-06 2.41102e-07)
(0.297109 0.00237839 6.85106e-05 5.82197e-05 -1.01525e-06 2.52555e-07)
(0.305684 0.00197832 5.08111e-05 4.06921e-05 -8.43308e-07 2.19956e-07)
(0.335197 0.0020066 8.17934e-05 4.48299e-05 -5.83775e-07 2.26879e-07)
(0.342701 0.0011797 6.226e-05 1.68077e-05 1.07952e-07 1.99883e-07)
(0.366648 0.00077286 9.66934e-05 2.61448e-05 -2.54813e-07 2.00532e-07)
(0.366462 -0.000567235 6.56301e-05 6.38948e-05 2.21616e-06 1.81772e-07)
(0.00622169 -3.37024e-09 2.65755e-05 1.75294e-10 -5.37149e-12 5.31654e-07)
(0.00711681 5.0484e-09 1.6236e-05 1.41042e-10 -1.09324e-11 4.58199e-07)
(0.0251772 6.51539e-09 5.60957e-05 1.07496e-10 1.11394e-11 5.07917e-07)
(0.0332325 7.52445e-09 3.11125e-05 7.25204e-11 -5.28468e-12 4.38388e-07)
(0.0695322 6.82608e-09 6.0586e-05 8.02857e-11 2.89536e-11 4.83885e-07)
(0.0830982 5.20708e-08 3.00166e-05 1.07294e-10 -3.59129e-11 4.15649e-07)
(0.125621 3.79688e-08 6.1657e-05 1.45741e-10 -7.79087e-12 4.54141e-07)
(0.139907 5.79053e-08 3.21705e-05 1.79091e-10 -3.79142e-11 3.88633e-07)
(0.182693 2.51365e-07 6.63597e-05 2.183e-10 -1.01394e-10 4.23765e-07)
(0.197353 3.87882e-07 3.90385e-05 2.50311e-10 -1.16646e-10 3.63355e-07)
(0.239056 7.82124e-07 7.44395e-05 2.95135e-10 -3.43846e-10 3.95222e-07)
(0.254488 8.73541e-07 4.97843e-05 3.31038e-10 -1.58882e-10 3.40135e-07)
(0.29423 2.52737e-06 8.54555e-05 4.2293e-10 -7.14588e-10 3.67411e-07)
(0.310892 2.96084e-06 6.3853e-05 5.01141e-10 -6.38782e-10 3.16833e-07)
(0.347144 6.99273e-06 9.91234e-05 7.96038e-10 -1.15531e-09 3.39019e-07)
(0.366209 6.24354e-06 8.06476e-05 9.41229e-10 -1.50611e-09 2.92657e-07)
(0.395343 1.75643e-05 0.000115701 2.24605e-09 -2.28253e-09 3.11061e-07)
(0.419196 1.42559e-05 9.89132e-05 2.34481e-09 -2.07937e-09 2.68624e-07)
(0.433846 4.54645e-05 0.000140167 1.26174e-08 -3.56211e-09 2.87559e-07)
(0.458908 6.4422e-05 0.000119136 2.1627e-08 3.70326e-09 2.46963e-07)
(0.00596239 -0.000130712 2.13922e-05 3.21267e-05 -5.46484e-07 4.3197e-07)
(0.00687577 -7.10609e-05 1.26644e-05 0.000181633 4.94296e-07 3.78324e-07)
(0.0234892 -0.00175303 4.16319e-05 0.000334192 1.75993e-06 4.12105e-07)
(0.031692 -0.00226584 1.88724e-05 0.000377105 4.4514e-06 3.62201e-07)
(0.066856 -0.00343446 4.04581e-05 0.000350051 4.02444e-06 3.89305e-07)
(0.0791771 -0.0032771 1.28153e-05 0.000284324 4.76994e-06 3.38043e-07)
(0.118526 -0.0034957 3.85362e-05 0.000230002 3.8604e-06 3.59664e-07)
(0.129786 -0.00316736 1.2078e-05 0.000184983 3.93914e-06 3.09827e-07)
(0.167644 -0.00315974 4.12266e-05 0.000152176 3.14072e-06 3.29896e-07)
(0.17787 -0.0029142 1.69052e-05 0.000127021 3.04072e-06 2.84454e-07)
(0.213417 -0.0028741 4.76987e-05 0.000106745 2.3587e-06 3.0321e-07)
(0.223126 -0.00266308 2.5808e-05 8.99938e-05 2.19739e-06 2.62338e-07)
(0.256421 -0.00261977 5.70298e-05 7.71877e-05 1.62369e-06 2.78018e-07)
(0.265756 -0.00236391 3.75929e-05 6.30404e-05 1.47723e-06 2.41104e-07)
(0.297111 -0.0023733 6.85062e-05 5.78034e-05 1.0094e-06 2.52552e-07)
(0.305718 -0.00194703 5.08054e-05 4.01254e-05 8.41938e-07 2.19961e-07)
(0.335218 -0.0019962 8.17818e-05 4.39577e-05 5.6564e-07 2.26874e-07)
(0.342789 -0.00110282 6.22485e-05 1.59704e-05 -9.96726e-08 1.99887e-07)
(0.366764 -0.000767663 9.67e-05 2.51683e-05 2.11996e-07 2.00545e-07)
(0.366699 0.000685008 6.56129e-05 6.25093e-05 -2.1966e-06 1.81791e-07)
(0.00633628 -0.000282537 2.73177e-05 7.64855e-05 -1.733e-06 5.37689e-07)
(0.00761812 -0.000812519 1.59067e-05 0.000857432 -2.17929e-06 4.56071e-07)
(0.027955 -0.00498202 5.57896e-05 0.00174109 -8.17216e-07 5.07719e-07)
(0.0339949 -0.00540014 3.06153e-05 0.0017925 5.60747e-06 4.38499e-07)
(0.0631042 -0.00724678 6.24401e-05 0.00157438 4.64773e-06 4.84023e-07)
(0.0658514 -0.00592538 3.80852e-05 0.00120211 6.87695e-06 4.15667e-07)
(0.090493 -0.00588289 7.20469e-05 0.000931809 4.91072e-06 4.54011e-07)
(0.0897034 -0.00461731 5.21444e-05 0.000717968 5.48329e-06 3.88439e-07)
(0.109982 -0.00435588 8.61974e-05 0.000567892 3.70036e-06 4.23793e-07)
(0.10903 -0.00353694 6.94684e-05 0.000456862 3.74235e-06 3.63508e-07)
(0.126964 -0.00334323 0.000101725 0.000369044 2.28951e-06 3.9557e-07)
(0.127483 -0.00285752 8.73599e-05 0.000303869 2.16496e-06 3.40525e-07)
(0.143742 -0.00269654 0.000116871 0.000250989 1.09284e-06 3.67782e-07)
(0.146319 -0.00245485 0.000104482 0.000203323 8.63656e-07 3.17178e-07)
(0.160637 -0.00218215 0.000130765 0.000182188 4.36607e-07 3.39201e-07)
(0.166092 -0.00223497 0.000120583 0.000125754 -2.6157e-07 2.92844e-07)
(0.177356 -0.00141884 0.000143535 0.000151377 8.5673e-07 3.10841e-07)
(0.18747 -0.00189848 0.000136007 6.08384e-05 -1.50531e-06 2.68525e-07)
(0.194594 0.000826832 0.000159008 0.000159391 2.80298e-06 2.86663e-07)
(0.210619 0.00216539 0.000149735 0.000181189 -1.20567e-06 2.46626e-07)
(0.00720615 -0.000893831 2.5313e-05 0.000477822 -1.86938e-06 4.44656e-07)
(0.00730734 -0.000906127 1.17805e-05 0.00196665 2.40609e-06 3.79046e-07)
(0.0184252 -0.00329897 4.49048e-05 0.00272059 5.63954e-06 4.16571e-07)
(0.0173029 -0.000645734 3.87648e-05 0.00230788 1.17377e-05 3.6684e-07)
(0.0258465 -0.000112732 6.69074e-05 0.00157707 9.33592e-06 3.94194e-07)
(0.0311772 0.00176196 6.84593e-05 0.000926875 9.18455e-06 3.42026e-07)
(0.0418943 0.00197059 9.10852e-05 0.000535794 6.60458e-06 3.63776e-07)
(0.0558676 0.00237778 9.49318e-05 0.00031094 5.63683e-06 3.13294e-07)
(0.0688867 0.00214683 0.000111653 0.000186792 4.08907e-06 3.3405e-07)
(0.0878125 0.00204735 0.000115656 0.000117692 3.31367e-06 2.88295e-07)
(0.10121 0.00174213 0.000127268 7.56747e-05 2.41854e-06 3.07538e-07)
(0.121735 0.00154996 0.000130728 5.11952e-05 1.92972e-06 2.66233e-07)
(0.134291 0.00130231 0.000137992 3.56848e-05 1.40558e-06 2.81956e-07)
(0.154605 0.00113041 0.000140872 2.5434e-05 1.21061e-06 2.44546e-07)
(0.165877 0.000997724 0.00014475 1.91498e-05 7.97031e-07 2.55937e-07)
(0.185802 0.000637044 0.000147592 1.58801e-05 7.62608e-07 2.23002e-07)
(0.194808 0.00100019 0.000149005 1.51599e-05 4.08285e-07 2.30022e-07)
(0.216646 -0.000956182 0.000152436 2.09529e-05 -4.88371e-07 2.02554e-07)
(0.218296 0.000839014 0.000151377 3.98285e-05 2.95019e-07 2.0519e-07)
(0.262198 -0.00735309 0.000161677 0.000521319 -6.23964e-06 1.84801e-07)
(0.00587551 -0.000189608 2.91613e-05 0.000861803 -6.45639e-06 5.81766e-07)
(0.0239406 0.00523765 -5.72406e-07 0.0016359 -4.23943e-06 4.69483e-07)
(0.0589474 0.00845896 1.99005e-05 0.00158859 -3.81354e-06 5.29592e-07)
(0.144661 0.0099298 4.29839e-05 0.000795466 1.22331e-06 4.59016e-07)
(0.185155 0.00753843 4.82507e-05 0.00036897 -2.96399e-07 5.06157e-07)
(0.266894 0.00572581 7.78977e-05 0.000150018 3.57286e-07 4.3525e-07)
(0.279501 0.00391923 6.45584e-05 7.51378e-05 -9.172e-07 4.74374e-07)
(0.339469 0.00317731 9.06398e-05 4.46926e-05 -7.52255e-07 4.06308e-07)
(0.336742 0.0025109 6.98924e-05 3.38172e-05 -1.41978e-06 4.42271e-07)
(0.383184 0.00241454 9.45882e-05 2.94046e-05 -1.15407e-06 3.80202e-07)
(0.375555 0.00210403 7.17728e-05 2.64651e-05 -1.52741e-06 4.1262e-07)
(0.413555 0.00220889 9.62374e-05 2.65724e-05 -1.27227e-06 3.56314e-07)
(0.404927 0.00186876 7.3e-05 2.3228e-05 -1.47769e-06 3.83589e-07)
(0.436822 0.00212147 9.7633e-05 2.73173e-05 -1.45459e-06 3.32226e-07)
(0.428301 0.00153768 7.45261e-05 1.92119e-05 -1.20966e-06 3.5398e-07)
(0.455926 0.0020438 0.000100168 3.33022e-05 -1.92174e-06 3.0746e-07)
(0.445932 0.000586983 7.62504e-05 1.03158e-05 5.49018e-08 3.24379e-07)
(0.47171 0.00116686 0.000107187 4.9599e-05 -2.8771e-06 2.82611e-07)
(0.44923 -0.00736585 7.39504e-05 0.000325348 3.43436e-06 2.97328e-07)
(0.440003 -0.0128117 0.000128133 0.000739753 2.51976e-06 2.5193e-07)
(0.00555368 0.000169616 2.66255e-10 0.000170118 1.49318e-10 1.75692e-15)
(0.0108745 -0.0017691 -4.73857e-10 0.000826396 3.80595e-10 8.05611e-16)
(0.0277478 -0.00436515 -9.53138e-10 0.00125579 4.83957e-10 2.22907e-15)
(0.0753884 -0.00840678 -2.99935e-09 0.00123559 4.75078e-10 1.3042e-15)
(0.128477 -0.0100249 -3.50258e-09 0.000969555 3.96216e-10 2.65055e-15)
(0.219607 -0.010826 -4.63975e-09 0.000649361 2.94844e-10 2.01028e-15)
(0.288779 -0.00938684 -4.30491e-09 0.00037603 2.02311e-10 3.97255e-15)
(0.385044 -0.00755603 -4.68449e-09 0.000192682 1.37034e-10 3.61253e-15)
(0.439451 -0.00516982 -4.63689e-09 8.62088e-05 9.34974e-11 3.8592e-15)
(0.516276 -0.00327833 -4.85617e-09 3.48862e-05 6.60731e-11 3.563e-15)
(0.548459 -0.0016668 -4.95203e-09 1.28464e-05 4.2965e-11 3.08415e-15)
(0.605322 -0.000749302 -4.98196e-09 5.91974e-06 2.79577e-11 3.23449e-15)
(0.622648 2.30444e-05 -5.00291e-09 4.09917e-06 1.04506e-11 3.14545e-15)
(0.66641 0.000150161 -4.84804e-09 4.15166e-06 6.72305e-12 3.66716e-15)
(0.676601 0.0005658 -4.84658e-09 3.90133e-06 -8.2472e-12 3.57994e-15)
(0.712738 0.000338815 -4.60755e-09 4.79941e-06 2.9853e-12 3.9419e-15)
(0.717772 0.000461366 -4.6491e-09 4.80929e-06 -1.70025e-11 3.9203e-15)
(0.754394 0.00153643 -4.00982e-09 9.17178e-06 -4.81926e-12 5.12795e-15)
(0.735057 9.72192e-05 -3.62792e-09 1.78778e-05 -1.88835e-11 5.28659e-15)
(0.79624 0.0166143 -3.42096e-09 0.000405633 -1.91168e-10 4.34682e-15)
(0.00589385 0.0002157 2.91909e-10 9.72099e-05 1.06401e-10 1.49352e-15)
(0.00718976 0.000386744 5.77932e-10 0.000577223 3.13074e-10 7.30815e-16)
(0.0178511 0.00223773 1.52103e-09 0.0012612 4.81973e-10 1.78375e-15)
(0.020598 0.0023122 1.30508e-09 0.0018231 5.68527e-10 1.15458e-15)
(0.0316564 0.00314687 2.19623e-09 0.00207476 5.61405e-10 2.22458e-15)
(0.0333672 0.00170382 2.26249e-09 0.00195842 4.86583e-10 1.90623e-15)
(0.0429321 0.00119374 3.26527e-09 0.00165049 3.9805e-10 3.47969e-15)
(0.0471598 -0.000315742 3.42831e-09 0.00125517 3.16494e-10 3.46834e-15)
(0.0582587 -0.000708438 3.84396e-09 0.000921034 2.62584e-10 3.66761e-15)
(0.0675228 -0.0014303 3.88139e-09 0.000641944 2.18589e-10 3.5914e-15)
(0.0811499 -0.00143938 4.01139e-09 0.000457395 1.9329e-10 3.13241e-15)
(0.0948073 -0.00166954 4.06354e-09 0.000315048 1.657e-10 3.38025e-15)
(0.110084 -0.00155253 4.15263e-09 0.000235503 1.5146e-10 3.23105e-15)
(0.126663 -0.00155051 4.26096e-09 0.000159667 1.31273e-10 3.75412e-15)
(0.142392 -0.00157305 4.33235e-09 0.000137553 1.1729e-10 3.64585e-15)
(0.161336 -0.00106617 4.43913e-09 7.91245e-05 1.09912e-10 4.03004e-15)
(0.175775 -0.00187606 4.47906e-09 9.9771e-05 8.38929e-11 3.98775e-15)
(0.198544 0.00051251 4.89207e-09 4.19493e-05 9.15835e-11 5.21334e-15)
(0.208176 -0.00201177 5.44659e-09 7.45495e-05 6.42554e-11 5.28853e-15)
(0.236806 0.00583675 5.3789e-09 0.000311433 3.11675e-12 4.36752e-15)
(0.00581605 7.91875e-05 2.20487e-10 1.81123e-05 4.73008e-11 1.16275e-15)
(0.00704652 0.00014069 5.06634e-10 0.000172324 1.71059e-10 6.65763e-16)
(0.0179494 0.00136844 1.49291e-09 0.000474772 2.95345e-10 1.53548e-15)
(0.0237876 0.00216563 1.68251e-09 0.00079668 3.76055e-10 1.11677e-15)
(0.0442017 0.0040383 2.93984e-09 0.00101802 3.94737e-10 1.87206e-15)
(0.0544571 0.00461465 3.55514e-09 0.00108294 3.66224e-10 1.74732e-15)
(0.0799342 0.00561818 4.95333e-09 0.00101417 3.19783e-10 2.96741e-15)
(0.0901327 0.00542116 5.60288e-09 0.000876864 2.76064e-10 3.17894e-15)
(0.114793 0.00556001 6.41282e-09 0.00072284 2.42934e-10 3.3136e-15)
(0.122844 0.00503808 6.85461e-09 0.000584155 2.16773e-10 3.44204e-15)
(0.144601 0.00483858 7.32904e-09 0.000471446 1.97038e-10 3.03475e-15)
(0.151061 0.00434265 7.69803e-09 0.000382124 1.8041e-10 3.36605e-15)
(0.16993 0.00406029 8.07973e-09 0.000319554 1.66691e-10 3.19795e-15)
(0.175954 0.00370374 8.46084e-09 0.000258754 1.5788e-10 3.73946e-15)
(0.192303 0.0033451 8.76714e-09 0.000237086 1.41637e-10 3.54022e-15)
(0.19881 0.0032075 9.09253e-09 0.000173584 1.43706e-10 3.92543e-15)
(0.213068 0.00255755 9.38368e-09 0.000200228 1.13974e-10 3.96324e-15)