/*--------------------------------*- C++ -*----------------------------------*\
  =========                 |
  \\      /  F ield         | OpenFOAM: The Open Source CFD Toolbox
   \\    /   O peration     | Website:  https://openfoam.org
    \\  /    A nd           | Version:  7
     \\/     M anipulation  |
\*---------------------------------------------------------------------------*/
FoamFile
{
    version     2.0;
    format      ascii;
    class       surfaceScalarField;
    location    "0.045";
    object      phi;
}
// * * * * * * * * * * * * * * * * * * * * * * * * * * * * * * * * * * * * * //

dimensions      [1 0 -1 0 0 0 0];

internalField   nonuniform List<scalar> 
2748
(
1.07205e-05
5.61607e-08
1.05848e-05
1.35181e-07
1.03657e-05
2.1883e-07
1.00821e-05
2.83591e-07
9.74892e-06
3.33259e-07
9.38298e-06
3.66183e-07
8.99753e-06
3.85783e-07
8.60412e-06
3.93759e-07
8.21162e-06
3.92783e-07
7.82718e-06
3.8456e-07
7.45618e-06
3.70847e-07
7.10161e-06
3.54052e-07
6.76585e-06
3.34821e-07
6.45034e-06
3.14142e-07
6.15575e-06
2.92862e-07
5.88229e-06
2.71534e-07
5.62992e-06
2.50532e-07
5.39832e-06
2.30146e-07
5.18698e-06
2.1057e-07
4.99518e-06
1.91912e-07
4.82191e-06
1.74254e-07
4.66579e-06
1.57687e-07
4.52513e-06
1.42324e-07
4.398e-06
1.28266e-07
4.28243e-06
1.15579e-07
4.17671e-06
1.04284e-07
4.07966e-06
9.43721e-08
3.99068e-06
8.57855e-08
3.90963e-06
7.83836e-08
3.83652e-06
7.1936e-08
3.77125e-06
6.61262e-08
3.71321e-06
6.06069e-08
3.66113e-06
5.51529e-08
3.61331e-06
4.98166e-08
3.56814e-06
4.4924e-08
3.52475e-06
4.08737e-08
3.48316e-06
3.78775e-08
3.4441e-06
3.58251e-08
3.40852e-06
3.43391e-08
3.37723e-06
3.29564e-08
3.35062e-06
3.13048e-08
3.3286e-06
2.92153e-08
3.31066e-06
2.67222e-08
3.29606e-06
2.39922e-08
3.28394e-06
2.12399e-08
3.2735e-06
1.86646e-08
3.26404e-06
1.64457e-08
3.25503e-06
1.47392e-08
3.24613e-06
1.35857e-08
3.23724e-06
1.28938e-08
3.22849e-06
1.25238e-08
3.22008e-06
1.22962e-08
3.21226e-06
1.20829e-08
3.20516e-06
1.18327e-08
3.19887e-06
1.1493e-08
3.19342e-06
1.10514e-08
3.18876e-06
1.05207e-08
3.18492e-06
9.86567e-09
3.18191e-06
9.1011e-09
3.17964e-06
8.37782e-09
3.1779e-06
7.83411e-09
3.17649e-06
7.4981e-09
3.17528e-06
7.31948e-09
3.17414e-06
7.2809e-09
3.17294e-06
7.37669e-09
3.17165e-06
7.52328e-09
3.17031e-06
7.68668e-09
3.16886e-06
7.91265e-09
3.16729e-06
8.17208e-09
3.1657e-06
8.32136e-09
3.16423e-06
8.30896e-09
3.16295e-06
8.19183e-09
3.16192e-06
7.97749e-09
3.16124e-06
7.67396e-09
3.16087e-06
7.36815e-09
3.16073e-06
7.15765e-09
3.16067e-06
7.05129e-09
3.16063e-06
6.99191e-09
3.16055e-06
6.93021e-09
3.16041e-06
6.88004e-09
3.16014e-06
6.87672e-09
3.1597e-06
6.93742e-09
3.15897e-06
7.12413e-09
3.15785e-06
7.44016e-09
3.15634e-06
7.80884e-09
3.15447e-06
8.16896e-09
3.1523e-06
8.5032e-09
3.14986e-06
8.82688e-09
3.14724e-06
9.07243e-09
3.14459e-06
9.16849e-09
3.14197e-06
9.1916e-09
3.13931e-06
9.26371e-09
3.13659e-06
9.35505e-09
3.13392e-06
9.36209e-09
3.13141e-06
9.28169e-09
3.12911e-06
9.15399e-09
3.12707e-06
8.9771e-09
3.12541e-06
8.69613e-09
3.1242e-06
8.33458e-09
3.12341e-06
7.99378e-09
3.12292e-06
7.73799e-09
3.12257e-06
7.6176e-09
3.12219e-06
7.62843e-09
3.12176e-06
7.65896e-09
3.12115e-06
7.8073e-09
3.12028e-06
8.03681e-09
3.11898e-06
8.44269e-09
3.11746e-06
8.67634e-09
3.11551e-06
9.09121e-09
3.11342e-06
9.24536e-09
3.11075e-06
9.80465e-09
3.10816e-06
9.73696e-09
3.10481e-06
1.05058e-08
3.10167e-06
1.02951e-08
3.09705e-06
1.17768e-08
3.09276e-06
1.14382e-08
3.08611e-06
1.38638e-08
3.07982e-06
1.35121e-08
3.07028e-06
1.67921e-08
1.97925e-08
1.07951e-05
3.74316e-08
1.08355e-05
9.43329e-08
1.08993e-05
1.54737e-07
1.09762e-05
2.06621e-07
1.10564e-05
2.53065e-07
1.11316e-05
2.91126e-07
1.11959e-05
3.21769e-07
1.12454e-05
3.44545e-07
1.12782e-05
3.60189e-07
1.12938e-05
3.69163e-07
1.12926e-05
3.72111e-07
1.1276e-05
3.70385e-07
1.12459e-05
3.64531e-07
1.12038e-05
3.55448e-07
1.11517e-05
3.43894e-07
1.10914e-05
3.30532e-07
1.10244e-05
3.15906e-07
1.09523e-05
3.00459e-07
1.08765e-05
2.84539e-07
1.07982e-05
2.68451e-07
1.07183e-05
2.52476e-07
1.06378e-05
2.36874e-07
1.05572e-05
2.21889e-07
1.0477e-05
2.07734e-07
1.03976e-05
1.94574e-07
1.03193e-05
1.82521e-07
1.02422e-05
1.71625e-07
1.01664e-05
1.61848e-07
1.00921e-05
1.53056e-07
1.00195e-05
1.45045e-07
9.94859e-06
1.37585e-07
9.8794e-06
1.30479e-07
9.81164e-06
1.23651e-07
9.74494e-06
1.17193e-07
9.67899e-06
1.11329e-07
9.61364e-06
1.06287e-07
9.54895e-06
1.02142e-07
9.48505e-06
9.87652e-08
9.4221e-06
9.58558e-08
9.36026e-06
9.30467e-08
9.29969e-06
9.00024e-08
9.24065e-06
8.65103e-08
9.1834e-06
8.2518e-08
9.12827e-06
7.81115e-08
9.07564e-06
7.34333e-08
9.02596e-06
6.86176e-08
8.97973e-06
6.37881e-08
8.93735e-06
5.90874e-08
8.89904e-06
5.46527e-08
8.86487e-06
5.05486e-08
8.83484e-06
4.67346e-08
8.80894e-06
4.30772e-08
8.78703e-06
3.94746e-08
8.76876e-06
3.5936e-08
8.75364e-06
3.25368e-08
8.74117e-06
2.9346e-08
8.73102e-06
2.63422e-08
8.72296e-06
2.34312e-08
8.71671e-06
2.06031e-08
8.71187e-06
1.80109e-08
8.7079e-06
1.58785e-08
8.70426e-06
1.43942e-08
8.70055e-06
1.35845e-08
8.6966e-06
1.32936e-08
8.69249e-06
1.32819e-08
8.6883e-06
1.33482e-08
8.68396e-06
1.34608e-08
8.67942e-06
1.36752e-08
8.67473e-06
1.4012e-08
8.67005e-06
1.43745e-08
8.66575e-06
1.45898e-08
8.66227e-06
1.45383e-08
8.65992e-06
1.42089e-08
8.65866e-06
1.37501e-08
8.6582e-06
1.34203e-08
8.65824e-06
1.33846e-08
8.65863e-06
1.36228e-08
8.65941e-06
1.39589e-08
8.66079e-06
1.41592e-08
8.66292e-06
1.4121e-08
8.6657e-06
1.39247e-08
8.66859e-06
1.37997e-08
8.67077e-06
1.40232e-08
8.67139e-06
1.47124e-08
8.66984e-06
1.57615e-08
8.66606e-06
1.69039e-08
8.6605e-06
1.78383e-08
8.65396e-06
1.83629e-08
8.64726e-06
1.84089e-08
8.64093e-06
1.80908e-08
8.63518e-06
1.76502e-08
8.63004e-06
1.7301e-08
8.62535e-06
1.71116e-08
8.62092e-06
1.70203e-08
8.61664e-06
1.69279e-08
8.61262e-06
1.67193e-08
8.60904e-06
1.6333e-08
8.60604e-06
1.57752e-08
8.60366e-06
1.51289e-08
8.60189e-06
1.45199e-08
8.60066e-06
1.40478e-08
8.59987e-06
1.37778e-08
8.59932e-06
1.37532e-08
8.59879e-06
1.38891e-08
8.59807e-06
1.42748e-08
8.59711e-06
1.47346e-08
8.59583e-06
1.54138e-08
8.5942e-06
1.59237e-08
8.59211e-06
1.67564e-08
8.58972e-06
1.71585e-08
8.58683e-06
1.81971e-08
8.58373e-06
1.83306e-08
8.57989e-06
1.98432e-08
8.576e-06
1.9679e-08
8.57105e-06
2.22276e-08
8.56626e-06
2.1733e-08
8.55987e-06
2.57725e-08
8.55344e-06
2.54755e-08
8.54537e-06
3.04191e-08
3.43487e-08
1.07892e-05
2.45142e-08
1.08172e-05
6.59384e-08
1.08626e-05
1.09052e-07
1.09227e-05
1.46373e-07
1.09955e-05
1.80351e-07
1.10783e-05
2.08512e-07
1.11685e-05
2.31753e-07
1.12637e-05
2.49609e-07
1.13615e-05
2.62636e-07
1.14597e-05
2.71132e-07
1.15563e-05
2.75514e-07
1.16499e-05
2.76616e-07
1.17393e-05
2.74801e-07
1.18234e-05
2.70637e-07
1.19018e-05
2.64596e-07
1.1974e-05
2.57103e-07
1.204e-05
2.48519e-07
1.20996e-05
2.39155e-07
1.2153e-05
2.29256e-07
1.22005e-05
2.19041e-07
1.22423e-05
2.08713e-07
1.22788e-05
1.98471e-07
1.23103e-05
1.88513e-07
1.23374e-05
1.79018e-07
1.23605e-05
1.70126e-07
1.238e-05
1.61921e-07
1.23965e-05
1.54428e-07
1.24105e-05
1.47615e-07
1.24223e-05
1.41396e-07
1.24321e-05
1.35649e-07
1.24403e-05
1.30233e-07
1.24469e-05
1.25038e-07
1.24519e-05
1.20029e-07
1.24552e-05
1.15279e-07
1.24571e-05
1.10942e-07
1.24576e-05
1.07159e-07
1.2457e-05
1.0397e-07
1.24555e-05
1.0128e-07
1.2453e-05
9.88816e-08
1.24496e-05
9.6516e-08
1.24453e-05
9.39292e-08
1.244e-05
9.09467e-08
1.24337e-05
8.75168e-08
1.24263e-05
8.36881e-08
1.2418e-05
7.95377e-08
1.24091e-05
7.51261e-08
1.23997e-05
7.0523e-08
1.23903e-05
6.58558e-08
1.23812e-05
6.12722e-08
1.23726e-05
5.68479e-08
1.2365e-05
5.2546e-08
1.23586e-05
4.82556e-08
1.23535e-05
4.39224e-08
1.23499e-05
3.96224e-08
1.23477e-05
3.54782e-08
1.23472e-05
3.15513e-08
1.23486e-05
2.77847e-08
1.23518e-05
2.40674e-08
1.23566e-05
2.04203e-08
1.23625e-05
1.70674e-08
1.23693e-05
1.43141e-08
1.23768e-05
1.23634e-08
1.23853e-05
1.11617e-08
1.23947e-05
1.04745e-08
1.24045e-05
1.00625e-08
1.24137e-05
9.81657e-09
1.24217e-05
9.79769e-09
1.24281e-05
1.01038e-08
1.24335e-05
1.07217e-08
1.24384e-05
1.14272e-08
1.24427e-05
1.19429e-08
1.24458e-05
1.21828e-08
1.24466e-05
1.22934e-08
1.24447e-05
1.2586e-08
1.24403e-05
1.33723e-08
1.24342e-05
1.47468e-08
1.24271e-05
1.64971e-08
1.24195e-05
1.82125e-08
1.24109e-05
1.95257e-08
1.24011e-05
2.0331e-08
1.23902e-05
2.08227e-08
1.23793e-05
2.13467e-08
1.23697e-05
2.21975e-08
1.23624e-05
2.3427e-08
1.23579e-05
2.47567e-08
1.23563e-05
2.57079e-08
1.23571e-05
2.58236e-08
1.23605e-05
2.48895e-08
1.23666e-05
2.30518e-08
1.2376e-05
2.07375e-08
1.23886e-05
1.85057e-08
1.24038e-05
1.6856e-08
1.24202e-05
1.60099e-08
1.24358e-05
1.59097e-08
1.24484e-05
1.63168e-08
1.24563e-05
1.69162e-08
1.24586e-05
1.7471e-08
1.24554e-05
1.78077e-08
1.24478e-05
1.7867e-08
1.24371e-05
1.77237e-08
1.24253e-05
1.75036e-08
1.24138e-05
1.72826e-08
1.24039e-05
1.71818e-08
1.23961e-05
1.71622e-08
1.23906e-05
1.7387e-08
1.23872e-05
1.76783e-08
1.23853e-05
1.83106e-08
1.23845e-05
1.87984e-08
1.23843e-05
1.97241e-08
1.23843e-05
2.01827e-08
1.23841e-05
2.14476e-08
1.23838e-05
2.16942e-08
1.2383e-05
2.35171e-08
1.2382e-05
2.34963e-08
1.23806e-05
2.64126e-08
1.23789e-05
2.61776e-08
1.23768e-05
3.05567e-08
1.23742e-05
3.0772e-08
1.23716e-05
3.57474e-08
3.97599e-08
1.0785e-05
1.57532e-08
1.08069e-05
4.35781e-08
1.08436e-05
7.20846e-08
1.08933e-05
9.65282e-08
1.0955e-05
1.18713e-07
1.10266e-05
1.37027e-07
1.11065e-05
1.52157e-07
1.11926e-05
1.63814e-07
1.1283e-05
1.72399e-07
1.13762e-05
1.78128e-07
1.14704e-05
1.81293e-07
1.15645e-05
1.82355e-07
1.16573e-05
1.81564e-07
1.1748e-05
1.79285e-07
1.18359e-05
1.75797e-07
1.19204e-05
1.71367e-07
1.20013e-05
1.66219e-07
1.20782e-05
1.60546e-07
1.21511e-05
1.54508e-07
1.22199e-05
1.48248e-07
1.22847e-05
1.41894e-07
1.23456e-05
1.35569e-07
1.24029e-05
1.29393e-07
1.24567e-05
1.23477e-07
1.25074e-05
1.17916e-07
1.25554e-05
1.1277e-07
1.2601e-05
1.08058e-07
1.26444e-05
1.03761e-07
1.2686e-05
9.98252e-08
1.27259e-05
9.61753e-08
1.27642e-05
9.27293e-08
1.2801e-05
8.94271e-08
1.28362e-05
8.62538e-08
1.28698e-05
8.32495e-08
1.2902e-05
8.04944e-08
1.29328e-05
7.806e-08
1.29624e-05
7.59615e-08
1.29909e-05
7.414e-08
1.30184e-05
7.24731e-08
1.30447e-05
7.08051e-08
1.30698e-05
6.89821e-08
1.30934e-05
6.68922e-08
1.31155e-05
6.44904e-08
1.31358e-05
6.17909e-08
1.31543e-05
5.88351e-08
1.31711e-05
5.56726e-08
1.31861e-05
5.23702e-08
1.31994e-05
4.90227e-08
1.32112e-05
4.57251e-08
1.32215e-05
4.25259e-08
1.32308e-05
3.94117e-08
1.32391e-05
3.63352e-08
1.32467e-05
3.32774e-08
1.32534e-05
3.02713e-08
1.32594e-05
2.73623e-08
1.32648e-05
2.45676e-08
1.32701e-05
2.18623e-08
1.32758e-05
1.92117e-08
1.32819e-05
1.66542e-08
1.32881e-05
1.43117e-08
1.32938e-05
1.23297e-08
1.32993e-05
1.08116e-08
1.33051e-05
9.75302e-09
1.33121e-05
9.07472e-09
1.33204e-05
8.68597e-09
1.33289e-05
8.54091e-09
1.33364e-05
8.64194e-09
1.33419e-05
8.9656e-09
1.33457e-05
9.4351e-09
1.33489e-05
9.90224e-09
1.33522e-05
1.02389e-08
1.33553e-05
1.0461e-08
1.33568e-05
1.07222e-08
1.33551e-05
1.1241e-08
1.33499e-05
1.21771e-08
1.33424e-05
1.35176e-08
1.33344e-05
1.50624e-08
1.33272e-05
1.65199e-08
1.3321e-05
1.76695e-08
1.33148e-05
1.84721e-08
1.33074e-05
1.90873e-08
1.32988e-05
1.97575e-08
1.32903e-05
2.06524e-08
1.32841e-05
2.1753e-08
1.32822e-05
2.28043e-08
1.32855e-05
2.34205e-08
1.32933e-05
2.32717e-08
1.33042e-05
2.22381e-08
1.33168e-05
2.05025e-08
1.33308e-05
1.84589e-08
1.33464e-05
1.65577e-08
1.33645e-05
1.51599e-08
1.33853e-05
1.43985e-08
1.34077e-05
1.41966e-08
1.343e-05
1.43537e-08
1.34494e-05
1.46233e-08
1.34636e-05
1.48491e-08
1.3471e-05
1.49348e-08
1.34714e-05
1.48799e-08
1.34654e-05
1.47343e-08
1.34549e-05
1.46137e-08
1.34419e-05
1.45409e-08
1.34286e-05
1.46384e-08
1.34165e-05
1.48087e-08
1.34069e-05
1.52294e-08
1.34001e-05
1.56345e-08
1.33962e-05
1.63549e-08
1.33948e-05
1.68526e-08
1.33952e-05
1.78015e-08
1.33968e-05
1.8229e-08
1.33992e-05
1.94761e-08
1.34018e-05
1.97549e-08
1.34045e-05
2.15254e-08
1.3407e-05
2.16716e-08
1.34096e-05
2.43169e-08
1.34117e-05
2.44892e-08
1.34145e-05
2.8133e-08
1.34164e-05
2.90435e-08
1.34197e-05
3.2738e-08
3.68049e-08
1.07842e-05
7.75061e-09
1.0806e-05
2.13205e-08
1.08426e-05
3.51763e-08
1.08918e-05
4.72482e-08
1.09522e-05
5.83941e-08
1.10216e-05
6.77065e-08
1.10985e-05
7.55369e-08
1.11809e-05
8.16646e-08
1.12673e-05
8.62782e-08
1.13561e-05
8.94677e-08
1.14461e-05
9.13699e-08
1.1536e-05
9.22215e-08
1.1625e-05
9.21526e-08
1.17123e-05
9.13505e-08
1.17972e-05
8.99603e-08
1.18792e-05
8.81166e-08
1.1958e-05
8.59256e-08
1.20334e-05
8.34772e-08
1.21052e-05
8.08451e-08
1.21734e-05
7.80932e-08
1.2238e-05
7.52783e-08
1.22991e-05
7.24542e-08
1.23569e-05
6.96768e-08
1.24117e-05
6.70022e-08
1.24637e-05
6.44805e-08
1.25132e-05
6.21464e-08
1.25604e-05
6.00128e-08
1.26058e-05
5.80678e-08
1.26494e-05
5.62784e-08
1.26914e-05
5.45995e-08
1.2732e-05
5.29842e-08
1.27713e-05
5.14006e-08
1.28091e-05
4.98458e-08
1.28457e-05
4.83515e-08
1.2881e-05
4.69724e-08
1.2915e-05
4.57579e-08
1.29479e-05
4.47235e-08
1.29796e-05
4.38402e-08
1.301e-05
4.30396e-08
1.30392e-05
4.22317e-08
1.30669e-05
4.13249e-08
1.30931e-05
4.02485e-08
1.31175e-05
3.89697e-08
1.314e-05
3.74951e-08
1.31606e-05
3.58562e-08
1.31792e-05
3.40945e-08
1.31959e-05
3.22569e-08
1.32107e-05
3.0401e-08
1.32236e-05
2.85834e-08
1.3235e-05
2.68396e-08
1.32449e-05
2.51723e-08
1.32539e-05
2.35541e-08
1.32618e-05
2.1957e-08
1.32688e-05
2.03803e-08
1.32747e-05
1.88421e-08
1.328e-05
1.73572e-08
1.32852e-05
1.59154e-08
1.3291e-05
1.44875e-08
1.32971e-05
1.30729e-08
1.33031e-05
1.17293e-08
1.33084e-05
1.05505e-08
1.33133e-05
9.61517e-09
1.33187e-05
8.93344e-09
1.33254e-05
8.4614e-09
1.33334e-05
8.15181e-09
1.33413e-05
7.99868e-09
1.33478e-05
8.03025e-09
1.3352e-05
8.2481e-09
1.33547e-05
8.59096e-09
1.33569e-05
8.92439e-09
1.33595e-05
9.13086e-09
1.33618e-05
9.21749e-09
1.3362e-05
9.3207e-09
1.33589e-05
9.63054e-09
1.33524e-05
1.0265e-08
1.33441e-05
1.11771e-08
1.33362e-05
1.21605e-08
1.33302e-05
1.2956e-08
1.33257e-05
1.34071e-08
1.33218e-05
1.35451e-08
1.3317e-05
1.35728e-08
1.33116e-05
1.37361e-08
1.33071e-05
1.41914e-08
1.33059e-05
1.49252e-08
1.331e-05
1.57589e-08
1.33194e-05
1.64281e-08
1.33331e-05
1.67265e-08
1.33487e-05
1.65688e-08
1.33647e-05
1.60316e-08
1.33807e-05
1.52806e-08
1.33977e-05
1.44917e-08
1.34169e-05
1.37947e-08
1.34388e-05
1.32318e-08
1.34625e-05
1.27775e-08
1.34856e-05
1.23918e-08
1.35052e-05
1.2033e-08
1.35186e-05
1.17159e-08
1.35242e-05
1.1444e-08
1.35219e-05
1.12593e-08
1.3513e-05
1.11658e-08
1.34996e-05
1.123e-08
1.34841e-05
1.13853e-08
1.3469e-05
1.17145e-08
1.34559e-05
1.20535e-08
1.34462e-05
1.25806e-08
1.344e-05
1.30034e-08
1.34371e-05
1.36982e-08
1.3437e-05
1.41287e-08
1.34389e-05
1.50015e-08
1.34419e-05
1.53793e-08
1.34455e-05
1.65342e-08
1.34492e-05
1.6856e-08
1.3453e-05
1.84609e-08
1.34563e-05
1.87935e-08
1.34599e-05
2.10348e-08
1.34629e-05
2.15919e-08
1.34667e-05
2.43971e-08
1.34698e-05
2.57919e-08
1.34742e-05
2.82943e-08
3.20826e-08
1.07837e-05
1.60725e-10
1.08043e-05
2.6163e-10
1.08387e-05
5.12261e-10
1.08853e-05
5.89016e-10
1.0943e-05
7.55713e-10
1.101e-05
8.69707e-10
1.10847e-05
1.04785e-09
1.11654e-05
1.25223e-09
1.12504e-05
1.51409e-09
1.13382e-05
1.84475e-09
1.14273e-05
2.23304e-09
1.15167e-05
2.70194e-09
1.16052e-05
3.24195e-09
1.1692e-05
3.85529e-09
1.17765e-05
4.53521e-09
1.18581e-05
5.27124e-09
1.19365e-05
6.0477e-09
1.20114e-05
6.84321e-09
1.20828e-05
7.63363e-09
1.21505e-05
8.39383e-09
1.22146e-05
9.10292e-09
1.22753e-05
9.74727e-09
1.23328e-05
1.03236e-08
1.23873e-05
1.08386e-08
1.2439e-05
1.1306e-08
1.24883e-05
1.17407e-08
1.25354e-05
1.21531e-08
1.25806e-05
1.25429e-08
1.26241e-05
1.28975e-08
1.2666e-05
1.3195e-08
1.27065e-05
1.34124e-08
1.27455e-05
1.35364e-08
1.27833e-05
1.35732e-08
1.28198e-05
1.35526e-08
1.28551e-05
1.35199e-08
1.28891e-05
1.35194e-08
1.29218e-05
1.3577e-08
1.29533e-05
1.36915e-08
1.29835e-05
1.38363e-08
1.30123e-05
1.39691e-08
1.30396e-05
1.40428e-08
1.30653e-05
1.40161e-08
1.30892e-05
1.38641e-08
1.31112e-05
1.35859e-08
1.31313e-05
1.32062e-08
1.31496e-05
1.27652e-08
1.3166e-05
1.23056e-08
1.31806e-05
1.18647e-08
1.31933e-05
1.14664e-08
1.32046e-05
1.1129e-08
1.32146e-05
1.08653e-08
1.32237e-05
1.06721e-08
1.32318e-05
1.05294e-08
1.32388e-05
1.04002e-08
1.32448e-05
1.02442e-08
1.32503e-05
1.00385e-08
1.3256e-05
9.78581e-09
1.32624e-05
9.49943e-09
1.32692e-05
9.1839e-09
1.32756e-05
8.82945e-09
1.32813e-05
8.42159e-09
1.32868e-05
7.96651e-09
1.32931e-05
7.51042e-09
1.33011e-05
7.13316e-09
1.33101e-05
6.91196e-09
1.33187e-05
6.88256e-09
1.33251e-05
7.0117e-09
1.33292e-05
7.20761e-09
1.33319e-05
7.38071e-09
1.33346e-05
7.4807e-09
1.33377e-05
7.52385e-09
1.33401e-05
7.58705e-09
1.33398e-05
7.75755e-09
1.33356e-05
8.075e-09
1.33279e-05
8.50034e-09
1.33188e-05
8.92112e-09
1.33107e-05
9.19506e-09
1.33048e-05
9.20845e-09
1.33006e-05
8.93639e-09
1.32965e-05
8.44731e-09
1.32914e-05
7.88701e-09
1.32859e-05
7.41687e-09
1.3282e-05
7.16476e-09
1.32823e-05
7.18521e-09
1.32887e-05
7.46507e-09
1.33011e-05
7.92075e-09
1.33178e-05
8.45511e-09
1.33365e-05
8.97454e-09
1.33556e-05
9.41389e-09
1.33748e-05
9.73136e-09
1.33952e-05
9.90877e-09
1.34178e-05
9.95089e-09
1.34426e-05
9.87697e-09
1.34684e-05
9.71527e-09
1.34923e-05
9.51122e-09
1.35113e-05
9.29181e-09
1.35228e-05
9.10674e-09
1.35257e-05
8.96218e-09
1.35203e-05
8.89668e-09
1.35084e-05
8.88023e-09
1.34924e-05
8.96181e-09
1.34751e-05
9.06115e-09
1.34589e-05
9.28092e-09
1.34457e-05
9.4726e-09
1.34362e-05
9.84234e-09
1.34308e-05
1.01186e-08
1.34289e-05
1.06842e-08
1.34298e-05
1.10353e-08
1.34326e-05
1.18417e-08
1.34363e-05
1.22345e-08
1.34405e-05
1.33352e-08
1.34447e-05
1.37558e-08
1.34487e-05
1.52235e-08
1.34524e-05
1.57287e-08
1.34561e-05
1.76131e-08
1.34594e-05
1.84154e-08
1.34633e-05
2.0557e-08
1.34669e-05
2.21546e-08
1.34712e-05
2.38601e-08
2.72467e-08
1.07837e-05
-7.3822e-09
1.08043e-05
-2.08247e-08
1.08388e-05
-3.42355e-08
1.08855e-05
-4.61965e-08
1.09433e-05
-5.70242e-08
1.10105e-05
-6.61168e-08
1.10853e-05
-7.35871e-08
1.11662e-05
-7.92966e-08
1.12513e-05
-8.33745e-08
1.13392e-05
-8.58823e-08
1.14284e-05
-8.69937e-08
1.15178e-05
-8.6889e-08
1.16064e-05
-8.5718e-08
1.16932e-05
-8.36659e-08
1.17777e-05
-8.08892e-08
1.18593e-05
-7.7544e-08
1.19376e-05
-7.37686e-08
1.20125e-05
-6.96984e-08
1.20837e-05
-6.54591e-08
1.21513e-05
-6.11686e-08
1.22153e-05
-5.69286e-08
1.22759e-05
-5.28222e-08
1.23332e-05
-4.89107e-08
1.23876e-05
-4.52318e-08
1.24392e-05
-4.18012e-08
1.24885e-05
-3.86151e-08
1.25355e-05
-3.56593e-08
1.25807e-05
-3.29204e-08
1.26241e-05
-3.03957e-08
1.26658e-05
-2.80938e-08
1.27062e-05
-2.6026e-08
1.27451e-05
-2.41974e-08
1.27828e-05
-2.25968e-08
1.28193e-05
-2.11897e-08
1.28545e-05
-1.99237e-08
1.28885e-05
-1.87403e-08
1.29213e-05
-1.75907e-08
1.29528e-05
-1.64471e-08
1.29829e-05
-1.53043e-08
1.30116e-05
-1.41722e-08
1.30387e-05
-1.30684e-08
1.30642e-05
-1.20166e-08
1.30879e-05
-1.10403e-08
1.31097e-05
-1.01474e-08
1.31297e-05
-9.31435e-09
1.31479e-05
-8.492e-09
1.31643e-05
-7.63025e-09
1.31789e-05
-6.70034e-09
1.31917e-05
-5.70694e-09
1.3203e-05
-4.6509e-09
1.32131e-05
-3.50874e-09
1.32222e-05
-2.25996e-09
1.32303e-05
-9.22663e-10
1.32373e-05
4.23204e-10
1.32433e-05
1.67313e-09
1.32487e-05
2.76561e-09
1.32544e-05
3.71439e-09
1.32607e-05
4.56799e-09
1.32675e-05
5.33704e-09
1.32739e-05
5.94937e-09
1.32795e-05
6.28782e-09
1.3285e-05
6.29656e-09
1.32914e-05
6.06832e-09
1.32994e-05
5.80495e-09
1.33084e-05
5.69443e-09
1.33169e-05
5.80161e-09
1.33233e-05
6.02762e-09
1.33273e-05
6.20301e-09
1.33299e-05
6.23765e-09
1.33325e-05
6.1647e-09
1.33355e-05
6.09543e-09
1.33377e-05
6.12636e-09
1.33373e-05
6.25732e-09
1.33331e-05
6.39427e-09
1.33257e-05
6.40356e-09
1.33171e-05
6.19054e-09
1.33095e-05
5.73469e-09
1.3304e-05
5.07234e-09
1.33e-05
4.27032e-09
1.32958e-05
3.38653e-09
1.32904e-05
2.46245e-09
1.32844e-05
1.5295e-09
1.328e-05
6.59647e-10
1.32799e-05
-3.38267e-11
1.32858e-05
-3.65004e-10
1.32979e-05
-2.47281e-10
1.33145e-05
3.69467e-10
1.33332e-05
1.39057e-09
1.33524e-05
2.63019e-09
1.3372e-05
3.87112e-09
1.33929e-05
4.92613e-09
1.34159e-05
5.68721e-09
1.34412e-05
6.1417e-09
1.34673e-05
6.34994e-09
1.34914e-05
6.41445e-09
1.35105e-05
6.42332e-09
1.35219e-05
6.46181e-09
1.35247e-05
6.52885e-09
1.35191e-05
6.63179e-09
1.3507e-05
6.71114e-09
1.34908e-05
6.80452e-09
1.34734e-05
6.83268e-09
1.34571e-05
6.9113e-09
1.34438e-05
6.92366e-09
1.34344e-05
7.09279e-09
1.3429e-05
7.19842e-09
1.34272e-05
7.61406e-09
1.34281e-05
7.88761e-09
1.3431e-05
8.62154e-09
1.34348e-05
9.03064e-09
1.34391e-05
1.00737e-08
1.34433e-05
1.05659e-08
1.34475e-05
1.18942e-08
1.34513e-05
1.25e-08
1.34552e-05
1.40812e-08
1.34588e-05
1.50111e-08
1.34627e-05
1.66506e-08
1.34666e-05
1.82897e-08
1.34709e-05
1.94602e-08
2.24303e-08
1.0784e-05
-1.52202e-08
1.08057e-05
-4.29512e-08
1.08421e-05
-7.09416e-08
1.08912e-05
-9.53445e-08
1.09514e-05
-1.17266e-07
1.10209e-05
-1.35431e-07
1.10979e-05
-1.50262e-07
1.11804e-05
-1.61551e-07
1.12669e-05
-1.69644e-07
1.13559e-05
-1.74715e-07
1.1446e-05
-1.77118e-07
1.15362e-05
-1.77235e-07
1.16254e-05
-1.75341e-07
1.17129e-05
-1.71799e-07
1.17979e-05
-1.66894e-07
1.18801e-05
-1.60917e-07
1.1959e-05
-1.54122e-07
1.20343e-05
-1.46754e-07
1.21061e-05
-1.39032e-07
1.21741e-05
-1.31164e-07
1.22385e-05
-1.23337e-07
1.22993e-05
-1.1571e-07
1.23569e-05
-1.08408e-07
1.24115e-05
-1.01521e-07
1.24634e-05
-9.50916e-08
1.25127e-05
-8.91228e-08
1.25599e-05
-8.35919e-08
1.26051e-05
-7.84717e-08
1.26485e-05
-7.37466e-08
1.26903e-05
-6.94151e-08
1.27306e-05
-6.54802e-08
1.27695e-05
-6.1942e-08
1.28072e-05
-5.87849e-08
1.28437e-05
-5.59661e-08
1.28789e-05
-5.34204e-08
1.2913e-05
-5.10696e-08
1.29459e-05
-4.88372e-08
1.29775e-05
-4.66643e-08
1.30077e-05
-4.45143e-08
1.30365e-05
-4.2367e-08
1.30637e-05
-4.02155e-08
1.30893e-05
-3.80731e-08
1.31131e-05
-3.59662e-08
1.3135e-05
-3.39058e-08
1.31552e-05
-3.18586e-08
1.31734e-05
-2.97631e-08
1.31899e-05
-2.75682e-08
1.32046e-05
-2.52621e-08
1.32175e-05
-2.28763e-08
1.32289e-05
-2.04102e-08
1.32389e-05
-1.78207e-08
1.32478e-05
-1.50821e-08
1.32557e-05
-1.22385e-08
1.32626e-05
-9.42015e-09
1.32684e-05
-6.76049e-09
1.32735e-05
-4.30683e-09
1.32785e-05
-2.0327e-09
1.3284e-05
8.47274e-11
1.32899e-05
1.98343e-09
1.32957e-05
3.52295e-09
1.3301e-05
4.56322e-09
1.33059e-05
5.06687e-09
1.33113e-05
5.17412e-09
1.33182e-05
5.12059e-09
1.33263e-05
5.10475e-09
1.33343e-05
5.20213e-09
1.33408e-05
5.33146e-09
1.33451e-05
5.36772e-09
1.33477e-05
5.29296e-09
1.335e-05
5.19224e-09
1.33525e-05
5.16849e-09
1.33543e-05
5.25277e-09
1.33539e-05
5.3566e-09
1.33501e-05
5.29391e-09
1.33431e-05
4.87174e-09
1.33345e-05
4.00816e-09
1.33267e-05
2.76042e-09
1.33208e-05
1.28715e-09
1.33166e-05
-2.14605e-10
1.33126e-05
-1.62138e-09
1.33075e-05
-2.91495e-09
1.33017e-05
-4.14946e-09
1.32967e-05
-5.34047e-09
1.32951e-05
-6.39421e-09
1.32989e-05
-7.05772e-09
1.33083e-05
-7.06189e-09
1.33221e-05
-6.20388e-09
1.3338e-05
-4.4939e-09
1.33544e-05
-2.19374e-09
1.3371e-05
2.52045e-10
1.33887e-05
2.37431e-09
1.34086e-05
3.83438e-09
1.34312e-05
4.51145e-09
1.34554e-05
4.50948e-09
1.34789e-05
4.0888e-09
1.34987e-05
3.52455e-09
1.3512e-05
3.05889e-09
1.35175e-05
2.79848e-09
1.35151e-05
2.8049e-09
1.3506e-05
2.99574e-09
1.34924e-05
3.31702e-09
1.34768e-05
3.61751e-09
1.34615e-05
3.93878e-09
1.34485e-05
4.13593e-09
1.34387e-05
4.38466e-09
1.34325e-05
4.50616e-09
1.34298e-05
4.85185e-09
1.34299e-05
5.05355e-09
1.3432e-05
5.66439e-09
1.34352e-05
6.00194e-09
1.34392e-05
6.9108e-09
1.34432e-05
7.37564e-09
1.34474e-05
8.53836e-09
1.34513e-05
9.14467e-09
1.34553e-05
1.04662e-08
1.34591e-05
1.14052e-08
1.34632e-05
1.26452e-08
1.34672e-05
1.42184e-08
1.34717e-05
1.49857e-08
1.7599e-08
1.07848e-05
-2.37952e-08
1.08067e-05
-6.53478e-08
1.08435e-05
-1.07968e-07
1.08934e-05
-1.45371e-07
1.09553e-05
-1.79135e-07
1.10273e-05
-2.0721e-07
1.11074e-05
-2.30185e-07
1.11939e-05
-2.47694e-07
1.12847e-05
-2.60236e-07
1.13782e-05
-2.68037e-07
1.14727e-05
-2.71658e-07
1.15671e-05
-2.71783e-07
1.16602e-05
-2.68809e-07
1.1751e-05
-2.63319e-07
1.1839e-05
-2.55771e-07
1.19234e-05
-2.46617e-07
1.20041e-05
-2.36253e-07
1.20807e-05
-2.25049e-07
1.21532e-05
-2.13333e-07
1.22215e-05
-2.01411e-07
1.22857e-05
-1.89567e-07
1.2346e-05
-1.78055e-07
1.24028e-05
-1.67076e-07
1.24563e-05
-1.56765e-07
1.25069e-05
-1.47177e-07
1.25549e-05
-1.3829e-07
1.26005e-05
-1.30048e-07
1.26441e-05
-1.22397e-07
1.26856e-05
-1.15312e-07
1.27254e-05
-1.0879e-07
1.27636e-05
-1.0284e-07
1.28002e-05
-9.74752e-08
1.28356e-05
-9.26852e-08
1.28696e-05
-8.84241e-08
1.29026e-05
-8.46082e-08
1.29343e-05
-8.11224e-08
1.2965e-05
-7.78459e-08
1.29944e-05
-7.46825e-08
1.30225e-05
-7.15699e-08
1.30492e-05
-6.84662e-08
1.30745e-05
-6.53417e-08
1.30982e-05
-6.2202e-08
1.31203e-05
-5.90929e-08
1.31408e-05
-5.60506e-08
1.31597e-05
-5.30356e-08
1.31771e-05
-4.99472e-08
1.31929e-05
-4.66869e-08
1.32072e-05
-4.32324e-08
1.32199e-05
-3.96546e-08
1.32313e-05
-3.59721e-08
1.32414e-05
-3.21138e-08
1.32505e-05
-2.80215e-08
1.32586e-05
-2.37357e-08
1.32656e-05
-1.94406e-08
1.32717e-05
-1.53624e-08
1.3277e-05
-1.15907e-08
1.3282e-05
-8.05943e-09
1.32872e-05
-4.69928e-09
1.32928e-05
-1.61219e-09
1.32983e-05
9.49033e-10
1.33035e-05
2.736e-09
1.33084e-05
3.67833e-09
1.33136e-05
3.99771e-09
1.332e-05
4.04581e-09
1.33276e-05
4.10577e-09
1.33356e-05
4.26768e-09
1.33424e-05
4.39008e-09
1.33475e-05
4.30259e-09
1.33509e-05
4.04614e-09
1.33537e-05
3.83074e-09
1.33565e-05
3.8435e-09
1.33588e-05
4.0854e-09
1.33593e-05
4.30137e-09
1.3357e-05
4.12212e-09
1.33518e-05
3.27756e-09
1.33448e-05
1.79379e-09
1.33377e-05
-2.74513e-11
1.33316e-05
-1.75463e-09
1.3326e-05
-3.04871e-09
1.33197e-05
-3.82827e-09
1.33114e-05
-4.30824e-09
1.33014e-05
-4.86205e-09
1.32912e-05
-5.76095e-09
1.32835e-05
-7.01723e-09
1.32807e-05
-8.31818e-09
1.32835e-05
-9.18176e-09
1.32915e-05
-9.12893e-09
1.33029e-05
-7.96537e-09
1.33165e-05
-5.8736e-09
1.33316e-05
-3.34034e-09
1.33485e-05
-9.60738e-10
1.33679e-05
7.72347e-10
1.339e-05
1.62447e-09
1.34136e-05
1.64048e-09
1.34368e-05
1.08779e-09
1.34568e-05
3.00793e-10
1.34714e-05
-3.17761e-10
1.34788e-05
-6.41202e-10
1.34789e-05
-6.39251e-10
1.34726e-05
-3.90114e-10
1.34617e-05
6.29243e-11
1.34483e-05
5.48111e-10
1.34345e-05
1.04511e-09
1.34222e-05
1.39759e-09
1.34123e-05
1.73609e-09
1.34055e-05
1.92333e-09
1.34018e-05
2.25551e-09
1.34005e-05
2.43871e-09
1.34013e-05
2.95992e-09
1.34035e-05
3.2246e-09
1.34065e-05
3.98147e-09
1.34099e-05
4.33771e-09
1.34137e-05
5.28775e-09
1.34175e-05
5.77215e-09
1.34214e-05
6.82468e-09
1.34253e-05
7.67508e-09
1.34295e-05
8.52775e-09
1.34338e-05
1.00103e-08
1.34384e-05
1.03338e-08
1.25938e-08
1.07881e-05
-3.55778e-08
1.08153e-05
-9.30073e-08
1.08601e-05
-1.53074e-07
1.09199e-05
-2.05288e-07
1.09926e-05
-2.51697e-07
1.10753e-05
-2.89797e-07
1.11656e-05
-3.20261e-07
1.1261e-05
-3.42749e-07
1.13589e-05
-3.57954e-07
1.14573e-05
-3.66243e-07
1.15542e-05
-3.68509e-07
1.16481e-05
-3.65865e-07
1.17378e-05
-3.58914e-07
1.18224e-05
-3.48584e-07
1.19013e-05
-3.35602e-07
1.19742e-05
-3.20654e-07
1.20408e-05
-3.04317e-07
1.21012e-05
-2.87101e-07
1.21555e-05
-2.69453e-07
1.22039e-05
-2.51792e-07
1.22469e-05
-2.34503e-07
1.22848e-05
-2.17916e-07
1.23181e-05
-2.02276e-07
1.23474e-05
-1.87729e-07
1.23731e-05
-1.74317e-07
1.23957e-05
-1.61995e-07
1.24156e-05
-1.5068e-07
1.24332e-05
-1.40282e-07
1.24487e-05
-1.30735e-07
1.24623e-05
-1.22006e-07
1.24744e-05
-1.14094e-07
1.2485e-05
-1.07002e-07
1.24943e-05
-1.0072e-07
1.25026e-05
-9.51978e-08
1.25098e-05
-9.03307e-08
1.25161e-05
-8.59687e-08
1.25214e-05
-8.19474e-08
1.25258e-05
-7.81254e-08
1.25293e-05
-7.44052e-08
1.25316e-05
-7.07239e-08
1.25329e-05
-6.70462e-08
1.25332e-05
-6.33815e-08
1.25324e-05
-5.97861e-08
1.25306e-05
-5.63132e-08
1.2528e-05
-5.29545e-08
1.25248e-05
-4.96402e-08
1.25211e-05
-4.627e-08
1.25173e-05
-4.28007e-08
1.25134e-05
-3.92895e-08
1.25098e-05
-3.57566e-08
1.25068e-05
-3.21611e-08
1.25046e-05
-2.8456e-08
1.25034e-05
-2.46389e-08
1.25031e-05
-2.08254e-08
1.25039e-05
-1.7204e-08
1.2506e-05
-1.38703e-08
1.25097e-05
-1.07953e-08
1.25149e-05
-7.92854e-09
1.25212e-05
-5.32745e-09
1.25282e-05
-3.18519e-09
1.25357e-05
-1.7063e-09
1.25438e-05
-9.74404e-10
1.25527e-05
-8.54232e-10
1.25625e-05
-1.07643e-09
1.25726e-05
-1.34546e-09
1.2582e-05
-1.48045e-09
1.25899e-05
-1.50485e-09
1.25964e-05
-1.53363e-09
1.26021e-05
-1.59839e-09
1.26074e-05
-1.60004e-09
1.26122e-05
-1.43474e-09
1.26158e-05
-1.06086e-09
1.26171e-05
-5.54877e-10
1.26155e-05
-1.16942e-10
1.26115e-05
3.96662e-11
1.2606e-05
-9.08893e-11
1.25997e-05
-4.10128e-10
1.25927e-05
-6.86736e-10
1.25845e-05
-6.59326e-10
1.25745e-05
-2.93228e-10
1.25631e-05
2.10477e-10
1.25515e-05
5.21973e-10
1.25413e-05
3.19977e-10
1.25341e-05
-5.27205e-10
1.25302e-05
-1.77988e-09
1.25295e-05
-3.17967e-09
1.25318e-05
-4.37156e-09
1.25369e-05
-5.06664e-09
1.25451e-05
-5.20103e-09
1.25569e-05
-4.92506e-09
1.25722e-05
-4.48563e-09
1.25902e-05
-4.06872e-09
1.26093e-05
-3.7686e-09
1.2627e-05
-3.55864e-09
1.26409e-05
-3.33163e-09
1.26493e-05
-3.00249e-09
1.26514e-05
-2.49771e-09
1.26476e-05
-1.83225e-09
1.26391e-05
-1.04204e-09
1.26274e-05
-2.3566e-10
1.26147e-05
4.14175e-10
1.26027e-05
8.23339e-10
1.25927e-05
1.08668e-09
1.25852e-05
1.14939e-09
1.25803e-05
1.17997e-09
1.25778e-05
1.08113e-09
1.25773e-05
1.12531e-09
1.2578e-05
1.0915e-09
1.25796e-05
1.3882e-09
1.25816e-05
1.48787e-09
1.2584e-05
2.03517e-09
1.25864e-05
2.2389e-09
1.25889e-05
2.97019e-09
1.25914e-05
3.31922e-09
1.25942e-05
4.06421e-09
1.25971e-05
4.78695e-09
1.26004e-05
5.14737e-09
1.26039e-05
6.48415e-09
1.2608e-05
6.15973e-09
7.57837e-09
1.07925e-05
-5.16694e-08
1.08307e-05
-1.3167e-07
1.08923e-05
-2.15021e-07
1.09675e-05
-2.80588e-07
1.10466e-05
-3.30699e-07
1.11212e-05
-3.64224e-07
1.11854e-05
-3.84213e-07
1.12354e-05
-3.92514e-07
1.12694e-05
-3.91667e-07
1.12866e-05
-3.83311e-07
1.12877e-05
-3.69616e-07
1.12742e-05
-3.5256e-07
1.12476e-05
-3.32869e-07
1.121e-05
-3.1164e-07
1.1163e-05
-2.89643e-07
1.11086e-05
-2.6744e-07
1.10482e-05
-2.45427e-07
1.09835e-05
-2.23953e-07
1.09156e-05
-2.0329e-07
1.08458e-05
-1.83646e-07
1.07749e-05
-1.65219e-07
1.07037e-05
-1.48188e-07
1.06328e-05
-1.32684e-07
1.05628e-05