/*--------------------------------*- C++ -*----------------------------------*\
  =========                 |
  \\      /  F ield         | OpenFOAM: The Open Source CFD Toolbox
   \\    /   O peration     | Website:  https://openfoam.org
    \\  /    A nd           | Version:  7
     \\/     M anipulation  |
\*---------------------------------------------------------------------------*/
FoamFile
{
    version     2.0;
    format      ascii;
    class       volScalarField;
    location    "0.045";
    object      T;
}
// * * * * * * * * * * * * * * * * * * * * * * * * * * * * * * * * * * * * * //

dimensions      [0 0 0 1 0 0 0];

internalField   nonuniform List<scalar> 
1440
(
290.229
290.692
291.158
291.629
292.106
292.594
293.095
293.613
294.153
294.72
295.323
295.967
296.658
297.401
298.193
299.025
299.877
300.722
301.527
302.265
302.925
303.52
304.094
304.705
305.422
306.289
307.296
308.361
309.36
310.166
310.705
311.017
311.265
311.666
312.364
313.349
314.465
315.491
316.241
316.624
316.653
316.415
316.034
315.635
315.32
315.153
315.159
315.323
315.608
315.956
316.316
316.645
316.917
317.125
317.271
317.367
317.426
317.465
317.494
317.52
317.548
317.578
317.612
317.646
317.678
317.709
317.736
317.759
317.773
317.779
317.78
317.777
317.77
317.763
317.756
317.752
317.749
317.749
317.753
317.764
317.783
317.809
317.843
317.882
317.922
317.961
317.999
318.034
318.067
318.095
318.12
318.14
318.157
318.17
318.18
318.185
318.187
318.184
318.178
318.17
318.16
318.15
318.139
318.127
318.118
318.112
318.111
318.114
318.119
318.12
318.121
318.117
318.115
318.114
318.115
318.12
318.126
318.139
318.146
318.187
289.989
289.957
289.926
289.904
289.896
289.906
289.935
289.985
290.057
290.152
290.27
290.414
290.583
290.778
290.999
291.244
291.512
291.796
292.092
292.391
292.686
292.97
293.239
293.493
293.733
293.965
294.195
294.427
294.662
294.896
295.124
295.342
295.549
295.754
295.969
296.21
296.484
296.793
297.13
297.484
297.839
298.18
298.497
298.784
299.039
299.256
299.434
299.573
299.678
299.754
299.801
299.82
299.812
299.787
299.758
299.736
299.723
299.719
299.727
299.754
299.813
299.912
300.047
300.207
300.378
300.554
300.735
300.924
301.116
301.298
301.452
301.559
301.614
301.618
301.582
301.513
301.415
301.281
301.109
300.901
300.67
300.443
300.252
300.124
300.078
300.113
300.217
300.366
300.536
300.706
300.864
301.005
301.131
301.242
301.341
301.428
301.502
301.561
301.603
301.629
301.641
301.641
301.633
301.62
301.605
301.592
301.582
301.575
301.572
301.571
301.575
301.577
301.582
301.585
301.591
301.597
301.602
301.614
301.616
301.645
290.002
289.998
289.986
289.965
289.936
289.901
289.863
289.823
289.786
289.754
289.731
289.717
289.716
289.728
289.755
289.795
289.85
289.917
289.994
290.079
290.168
290.26
290.35
290.436
290.515
290.583
290.641
290.685
290.716
290.735
290.742
290.739
290.73
290.716
290.702
290.691
290.688
290.697
290.72
290.761
290.821
290.9
290.998
291.114
291.246
291.391
291.543
291.698
291.852
291.999
292.132
292.246
292.336
292.404
292.447
292.459
292.434
292.367
292.268
292.152
292.032
291.907
291.764
291.599
291.427
291.28
291.186
291.149
291.149
291.16
291.176
291.217
291.315
291.49
291.727
291.986
292.226
292.435
292.628
292.83
293.05
293.262
293.417
293.469
293.402
293.232
292.993
292.718
292.415
292.077
291.688
291.249
290.783
290.338
289.975
289.749
289.693
289.81
290.077
290.447
290.865
291.276
291.64
291.931
292.14
292.274
292.346
292.375
292.379
292.369
292.356
292.344
292.337
292.334
292.334
292.338
292.341
292.352
292.354
292.373
290.002
289.998
289.987
289.968
289.942
289.91
289.875
289.837
289.8
289.766
289.737
289.715
289.701
289.698
289.704
289.722
289.75
289.786
289.83
289.879
289.931
289.983
290.033
290.078
290.115
290.143
290.159
290.161
290.149
290.123
290.083
290.031
289.968
289.898
289.824
289.749
289.677
289.612
289.557
289.516
289.492
289.486
289.499
289.533
289.588
289.663
289.755
289.86
289.977
290.101
290.227
290.347
290.451
290.537
290.608
290.663
290.692
290.678
290.609
290.496
290.363
290.227
290.082
289.904
289.678
289.423
289.185
289.008
288.901
288.835
288.775
288.715
288.688
288.746
288.92
289.192
289.509
289.814
290.088
290.351
290.644
290.981
291.335
291.637
291.816
291.831
291.69
291.433
291.106
290.727
290.288
289.763
289.141
288.45
287.755
287.144
286.703
286.49
286.522
286.777
287.2
287.722
288.268
288.777
289.207
289.536
289.764
289.902
289.972
289.995
289.991
289.975
289.956
289.94
289.927
289.92
289.915
289.916
289.915
289.92
290.002
289.998
289.987
289.968
289.942
289.91
289.875
289.838
289.801
289.767
289.739
289.717
289.705
289.702
289.709
289.727
289.756
289.792
289.836
289.885
289.937
289.989
290.037
290.08
290.115
290.14
290.151
290.149
290.132
290.099
290.053
289.994
289.925
289.848
289.766
289.683
289.603
289.531
289.47
289.423
289.393
289.382
289.392
289.424
289.479
289.554
289.647
289.754
289.874
290.004
290.136
290.257
290.362
290.45
290.527
290.589
290.618
290.593
290.508
290.383
290.246
290.11
289.957
289.757
289.501
289.224
288.983
288.82
288.729
288.67
288.606
288.542
288.53
288.628
288.858
289.187
289.544
289.873
290.16
290.441
290.761
291.133
291.516
291.825
291.981
291.946
291.739
291.416
291.031
290.605
290.118
289.539
288.856
288.102
287.36
286.73
286.307
286.149
286.264
286.615
287.136
287.743
288.353
288.902
289.347
289.67
289.878
289.988
290.029
290.026
290
289.969
289.939
289.916
289.9
289.892
289.887
289.887
289.886
289.889
290.002
289.998
289.987
289.968
289.942
289.91
289.875
289.838
289.801
289.767
289.739
289.717
289.705
289.702
289.71
289.728
289.757
289.794
289.838
289.888
289.94
289.992
290.041
290.085
290.12
290.144
290.155
290.152
290.134
290.1
290.053
289.992
289.922
289.843
289.76
289.676
289.596
289.524
289.463
289.417
289.389
289.38
289.393
289.43
289.489
289.568
289.664
289.776
289.902
290.038
290.172
290.294
290.397
290.487
290.566
290.627
290.649
290.611
290.513
290.381
290.243
290.106
289.943
289.726
289.453
289.169
288.936
288.789
288.712
288.656
288.59
288.528
288.533
288.662
288.929
289.287
289.661
289.993
290.283
290.574
290.912
291.303
291.694
291.993
292.119
292.041
291.788
291.425
291.007
290.551
290.034
289.425
288.713
287.941
287.195
286.582
286.194
286.084
286.256
286.665
287.237
287.882
288.516
289.074
289.514
289.825
290.015
290.107
290.131
290.113
290.078
290.039
290.006
289.982
289.965
289.957
289.953
289.953
289.952
289.956
290.002
289.998
289.987
289.968
289.942
289.91
289.875
289.838
289.801
289.767
289.739
289.717
289.705
289.702
289.71
289.728
289.756
289.794
289.838
289.888
289.94
289.992
290.042
290.085
290.12
290.144
290.155
290.152
290.134
290.101
290.053
289.993
289.922
289.843
289.76
289.676
289.596
289.524
289.463
289.417
289.389
289.38
289.393
289.43
289.49
289.569
289.666
289.779
289.905
290.041
290.176
290.298
290.402
290.492
290.572
290.634
290.656
290.618
290.521
290.388
290.251
290.114
289.951
289.734
289.461
289.177
288.945
288.798
288.721
288.666
288.599
288.538
288.543
288.674
288.943
289.303
289.677
290.01
290.301
290.592
290.931
291.324
291.716
292.015
292.141
292.062
291.809
291.445
291.026
290.569
290.051
289.439
288.727
287.954
287.208
286.596
286.209
286.102
286.276
286.688
287.262
287.908
288.544
289.103
289.545
289.857
290.047
290.139
290.162
290.145
290.109
290.071
290.037
290.013
289.996
289.988
289.983
289.984
289.983
289.986
290.002
289.998
289.987
289.968
289.942
289.91
289.875
289.838
289.801
289.767
289.739
289.717
289.705
289.702
289.709
289.727
289.755
289.792
289.836
289.886
289.938
289.99
290.039
290.082
290.118
290.142
290.154
290.152
290.135
290.102
290.056
289.997
289.928
289.85
289.768
289.685
289.605
289.532
289.471
289.424
289.394
289.383
289.394
289.427
289.483
289.56
289.654
289.763
289.885
290.017
290.151
290.274
290.38
290.471
290.55
290.613
290.644
290.619
290.535
290.41
290.275
290.14
289.987
289.786
289.529
289.252
289.012
288.851
288.762
288.704
288.64
288.577
288.567
288.67
288.905
289.238
289.6
289.93
290.221
290.505
290.83
291.207
291.593
291.904
292.06
292.023
291.813
291.488
291.101
290.672
290.181
289.596
288.908
288.15
287.406
286.779
286.362
286.21
286.334
286.694
287.224
287.838
288.454
289.008
289.457
289.783
289.992
290.103
290.144
290.14
290.114
290.082
290.052
290.029
290.013
290.004
289.999
289.998
289.997
290
290.002
289.998
289.987
289.968
289.942
289.91
289.875
289.838
289.801
289.767
289.739
289.717
289.704
289.701
289.708
289.726
289.753
289.79
289.833
289.882
289.933
289.984
290.033
290.077
290.113
290.138
290.151
290.15
290.134
290.104
290.06
290.003
289.936
289.861
289.781
289.699
289.621
289.549
289.487
289.44
289.409
289.397
289.405
289.434
289.485
289.557
289.646
289.75
289.865
289.989
290.116
290.237
290.343
290.432
290.507
290.567
290.601
290.591
290.527
290.418
290.29
290.16
290.019
289.843
289.618
289.365
289.129
288.955
288.85
288.785
288.726
288.666
288.641
288.704
288.884
289.163
289.485
289.794
290.072
290.341
290.64
290.986
291.348
291.657
291.839
291.855
291.714
291.457
291.129
290.748
290.305
289.773
289.144
288.446
287.745
287.132
286.692
286.483
286.522
286.786
287.221
287.753
288.311
288.832
289.272
289.611
289.845
289.989
290.063
290.089
290.087
290.071
290.052
290.036
290.022
290.014
290.009
290.007
290.006
290.007
290.002
289.998
289.987
289.967
289.941
289.91
289.874
289.837
289.801
289.767
289.738
289.717
289.704
289.701
289.708
289.726
289.753
289.79
289.834
289.883
289.934
289.985
290.033
290.075
290.109
290.131
290.141
290.136
290.117
290.083
290.036
289.977
289.91
289.836
289.76
289.685
289.617
289.558
289.512
289.483
289.473
289.483
289.513
289.563
289.632
289.718
289.815
289.92
290.029
290.135
290.233
290.315
290.379
290.424
290.449
290.446
290.406
290.327
290.217
290.094
289.969
289.836
289.684
289.506
289.321
289.163
289.058
289.011
288.999
288.997
288.998
289.027
289.12
289.294
289.531
289.788
290.024
290.226
290.415
290.618
290.842
291.059
291.214
291.259
291.178
290.99
290.733
290.438
290.116
289.757
289.346
288.882
288.393
287.93
287.556
287.327
287.278
287.409
287.695
288.086
288.523
288.951
289.328
289.627
289.841
289.976
290.049
290.077
290.078
290.066
290.05
290.035
290.024
290.018
290.014
290.013
290.013
290.015
290.015
290.017
290.002
289.998
289.986
289.967
289.941
289.909
289.874
289.837
289.802
289.77
289.745
289.727
289.72
289.725
289.741
289.769
289.806
289.85
289.899
289.947
289.992
290.03
290.058
290.076
290.081
290.075
290.056
290.027
289.986
289.937
289.881
289.821
289.763
289.71
289.669
289.643
289.635
289.645
289.677
289.728
289.795
289.873
289.957
290.043
290.125
290.194
290.241
290.261
290.254
290.221
290.161
290.074
289.962
289.837
289.712
289.599
289.501
289.417
289.352
289.313
289.312
289.353
289.433
289.541
289.663
289.796
289.939
290.092
290.251
290.402
290.525
290.602
290.625
290.594
290.518
290.404
290.256
290.071
289.847
289.588
289.308
289.032
288.794
288.623
288.539
288.543
288.624
288.759
288.922
289.092
289.255
289.406
289.542
289.666
289.778
289.876
289.96
290.025
290.072
290.099
290.108
290.104
290.09
290.071
290.051
290.034
290.02
290.01
290.004
290.001
290.001
290.002
290.004
290.006
290.008
290.01
290.011
290.013
290.014
290.016
290.002
290
289.991
289.975
289.953
289.927
289.898
289.87
289.845
289.827
289.819
289.823
289.841
289.871
289.91
289.951
289.987
290.008
290.008
289.986
289.947
289.899
289.857
289.831
289.829
289.849
289.882
289.911
289.924
289.915
289.889
289.859
289.84
289.84
289.86
289.89
289.92
289.942
289.953
289.952
289.943
289.927
289.909
289.891
289.874
289.86
289.848
289.839
289.831
289.825
289.819
289.814
289.81
289.809
289.81
289.814
289.822
289.831
289.844
289.858
289.873
289.887
289.9
289.91
289.918
289.922
289.922
289.916
289.906
289.891
289.871
289.847
289.821
289.793
289.766
289.741
289.719
289.7
289.688
289.682
289.684
289.693
289.711
289.734
289.762
289.792
289.822
289.851
289.878
289.903
289.926
289.947
289.966
289.984
289.998
290.009
290.016
290.018
290.016
290.01
290.002
289.993
289.985
289.977
289.97
289.966
289.963
289.961
289.961
289.961
289.962
289.963
289.964
289.965
289.966
289.967
289.968
289.969
289.97
289.971
)
;

boundaryField
{
    upperWall
    {
        type            fixedValue;
        value           uniform 290;
    }
    lowerWall
    {
        type            externalWallHeatFluxTemperature;
        mode            power;
        kappaMethod     fluidThermo;
        kappa           none;
        alphaAni        Anialpha;
        Q               250;
        qr              none;
        refValue        nonuniform List<scalar> 
120
(
352.436
320.036
309.903
305.956
304.241
303.507
303.295
303.393
303.715
304.186
304.814
305.518
306.322
307.22
308.19
309.216
310.27
311.321
312.331
313.27
314.126
314.913
315.673
316.469
317.37
318.422
319.607
320.842
321.996
322.939
323.596
324.015
324.368
324.882
325.702
326.812
328.045
329.171
330.001
330.442
330.51
330.3
329.941
329.563
329.272
329.131
329.166
329.364
329.682
330.06
330.449
330.801
331.09
331.309
331.464
331.565
331.627
331.667
331.698
331.724
331.751
331.778
331.813
331.849
331.881
331.911
331.937
331.961
331.977
331.983
331.983
331.978
331.975
331.969
331.964
331.96
331.956
331.958
331.964
331.975
331.998
332.028
332.062
332.104
332.147
332.188
332.227
332.266
332.302
332.331
332.357
332.378
332.398
332.412
332.42
332.427
332.428
332.423
332.418
332.411
332.401
332.39
332.378
332.368
332.359
332.352
332.355
332.36
332.364
332.366
332.372
332.374
332.373
332.373
332.376
332.388
332.399
332.424
332.432
332.483
)
;
        refGradient     nonuniform List<scalar> 
120
(
33176.9
15649
9999.37
7643.54
6473.55
5822.36
5442.65
5218.71
5101.92
5050.49
5063.22
5094.19
5152.81
5234.38
5328.62
5431.61
5539.97
5650.97
5762.36
5872.17
5979.01
6082.18
6181.72
6278.33
6373.15
6467.04
6559.87
6650.14
6735.52
6813.37
6882.13
6942.5
6997.81
7052.76
7110.81
7172.12
7233.67
7290.97
7340.04
7378.73
7407.06
7426.91
7440.79
7451.77
7462.35
7473.29
7485.58
7500.62
7516.36
7531.33
7546.79
7559.9
7569.76
7576.72
7582.49
7586.5
7588.22
7589.09
7589.7
7590.01
7589.53
7587.84
7588.77
7589.57
7589.6
7589.82
7588.8
7590.13
7591.75
7591.72
7591.47
7591.12
7592.76
7593.89
7594.62
7594.38
7593.68
7594.85
7595.74
7595.15
7596.73
7598.11
7597.93
7599.24
7601.04
7601.88
7602.66
7604.4
7606.98
7607.53
7608.08
7608.45
7610.09
7610.89
7610.23
7611.28
7611.7
7610.62
7611.34
7612.59
7612.28
7611.94
7611.26
7612.17
7612.37
7611.62
7613.13
7614.15
7613.62
7614.34
7616.86
7619.84
7620.7
7621.66
7622.17
7625.65
7628.54
7635.02
7635.77
7640.94
)
;
        valueFraction   uniform 4.94066e-324;
        value           nonuniform List<scalar> 
120
(
352.436
320.034
309.907
305.96
304.244
303.511
303.3
303.398
303.719
304.19
304.816
305.518
306.32
307.216
308.185
309.209
310.265
311.318
312.332
313.276
314.135
314.925
315.684
316.477
317.371
318.415
319.595
320.83
321.989
322.941
323.609
324.034
324.386
324.89
325.697
326.797
328.028
329.162
330.004
330.46
330.541
330.34
329.985
329.607
329.312
329.166
329.194
329.387
329.701
330.078
330.466
330.819
331.111
331.332
331.489
331.591
331.654
331.695
331.725
331.751
331.778
331.806
331.841
331.876
331.909
331.94
331.965
331.99
332.007
332.014
332.014
332.01
332.006
332.001
331.996
331.991
331.988
331.989
331.995
332.004
332.026
332.056
332.089
332.131
332.174
332.215
332.254
332.292
332.33
332.359
332.385
332.406
332.426
332.441
332.449
332.456
332.459
332.454
332.45
332.443
332.433
332.423
332.41
332.4
332.391
332.383
332.386
332.39
332.394
332.397
332.402
332.404
332.404
332.404
332.407
332.418
332.43
332.455
332.463
332.514
)
;
    }
    inlet
    {
        type            fixedValue;
        value           uniform 290;
    }
    outlet
    {
        type            inletOutlet;
        inletValue      uniform 290;
        value           nonuniform List<scalar> 
12
(
318.181
301.642
292.372
289.92
289.889
289.956
289.986
290
290.007
290.017
290.016
289.971
)
;
    }
    frontAndBack
    {
        type            empty;
    }
}


// ************************************************************************* //
