/*--------------------------------*- C++ -*----------------------------------*\
  =========                 |
  \\      /  F ield         | OpenFOAM: The Open Source CFD Toolbox
   \\    /   O peration     | Website:  https://openfoam.org
    \\  /    A nd           | Version:  7
     \\/     M anipulation  |
\*---------------------------------------------------------------------------*/
FoamFile
{
    version     2.0;
    format      ascii;
    class       surfaceScalarField;
    location    "0.86";
    object      phi_0;
}
// * * * * * * * * * * * * * * * * * * * * * * * * * * * * * * * * * * * * * //

dimensions      [1 0 -1 0 0 0 0];

internalField   nonuniform List<scalar> 
13265
(
0.00261803
0.00109482
1.36979e-05
0.00201343
0.000602464
7.08467e-06
0.00162064
0.000385723
1.19e-05
0.00142031
0.000197732
7.36142e-06
0.00130338
0.000110386
1.12612e-05
0.00123368
6.6779e-05
7.61923e-06
0.00118448
4.31935e-05
1.07177e-05
0.00115022
3.13091e-05
7.71646e-06
0.00112199
2.2837e-05
1.01953e-05
0.00110122
1.78826e-05
7.73496e-06
0.0010828
1.3565e-05
9.72705e-06
0.00106925
1.07275e-05
7.71325e-06
0.00105676
8.07291e-06
9.31119e-06
0.00104753
6.44768e-06
7.66266e-06
0.00103875
4.69628e-06
8.9377e-06
0.00103147
4.50437e-06
7.58953e-06
0.00101994
7.67656e-06
8.60867e-06
0.00102
-2.85353e-06
7.48928e-06
0.000921729
9.441e-05
8.51511e-06
7.03718e-05
7.0661e-06
0.000848858
0.00389344
0.000923919
3.41933e-06
0.003854
0.000649241
-2.60963e-06
0.00371503
0.000527232
1.99276e-06
0.0035708
0.000348967
-2.54919e-06
0.00344015
0.000243981
1.33153e-06
0.00333382
0.00017957
-2.33174e-06
0.00324362
0.000136723
7.60675e-07
0.00317188
0.000109485
-2.25015e-06
0.00311012
8.87269e-05
2.27076e-07
0.00306115
7.36262e-05
-2.23681e-06
0.0030181
6.15398e-05
-2.4597e-07
0.00298376
5.21396e-05
-2.25855e-06
0.00295355
4.38763e-05
-6.68218e-07
0.00292835
3.89384e-05
-2.30509e-06
0.00290893
3.01981e-05
-1.06183e-06
0.00288844
3.23218e-05
-2.36862e-06
0.00288654
1.59487e-05
-1.481e-06
0.00286612
2.47947e-05
-2.48939e-06
0.00295464
1.26279e-05
-2.12043e-06
-2.88168e-05
-3.46302e-06
0.00306177
0.00411413
0.000524298
1.18073e-05
0.00436549
0.000396137
6.4501e-06
0.0045213
0.000365053
1.08786e-05
0.00460372
0.00026465
6.36005e-06
0.00463954
0.000202272
1.02248e-05
0.00465695
0.000159686
6.58636e-06
0.00465897
0.000128892
9.69774e-06
0.00465781
0.000107759
6.7051e-06
0.00465054
9.07875e-05
9.19196e-06
0.00464434
7.73248e-05
6.73664e-06
0.00463488
6.6774e-05
8.73374e-06
0.0046281
5.68917e-05
6.72181e-06
0.00461811
5.0415e-05
8.32615e-06
0.00461302
4.24149e-05
6.67355e-06
0.00460107
3.94719e-05
7.96883e-06
0.00459952
3.27336e-05
6.60159e-06
0.00457767
3.5646e-05
7.70552e-06
0.00457336
2.80958e-05
6.51627e-06
0.00452303
6.0391e-05
7.86499e-06
6.4493e-05
6.40023e-06
0.00442845
0.00406974
0.000177473
2.98968e-06
0.00433714
0.000135796
-2.35438e-06
0.00457654
0.00012816
1.99488e-06
0.00475283
9.54055e-05
-2.55028e-06
0.00488338
7.48167e-05
1.28946e-06
0.00498832
6.12887e-05
-2.38086e-06
0.00506892
5.1442e-05
7.18535e-07
0.00513778
4.49003e-05
-2.29041e-06
0.00519292
3.9246e-05
1.91373e-07
0.00524162
3.49738e-05
-2.27024e-06
0.00528219
3.08736e-05
-2.77961e-07
0.005318
2.79925e-05
-2.28713e-06
0.00534967
2.42315e-05
-6.99475e-07
0.00537612
2.3222e-05
-2.33249e-06
0.00540413
1.77388e-05
-1.10239e-06
0.00542432
2.04514e-05
-2.40579e-06
0.00545851
8.78216e-06
-1.56591e-06
0.00548003
1.51299e-05
-2.59112e-06
0.00555317
-4.46881e-06
-2.45967e-06
-2.04477e-05
-3.53587e-06
0.00564737
0.00406969
-0.000177473
1.15453e-05
0.00433942
-0.000135796
6.55336e-06
0.00458939
-0.000128161
1.08544e-05
0.00477833
-9.54054e-05
6.35237e-06
0.00492217
-7.48171e-05
1.01916e-05
0.00504237
-6.12871e-05
6.54959e-06
0.00513946
-5.14402e-05
9.66259e-06
0.00522626
-4.48948e-05
6.67142e-06
0.00529933
-3.92358e-05
9.16084e-06
0.00536657
-3.4958e-05
6.70721e-06
0.00542392
-3.08392e-05
8.70617e-06
0.00547775
-2.79423e-05
6.6962e-06
0.00552257
-2.41464e-05
8.3025e-06
0.00556703
-2.3032e-05
6.65029e-06
0.00559948
-1.7583e-05
7.95072e-06
0.00563856
-1.97699e-05
6.57947e-06
0.00565388
-8.51178e-06
7.71357e-06
0.00568182
-1.32689e-05
6.49725e-06
0.00566968
5.68532e-06
7.96034e-06
2.45208e-05
6.47237e-06
0.00562411
0.00406974
-0.000524298
2.98968e-06
0.00433714
-0.000396138
-2.35438e-06
0.00457654
-0.000365054
1.99488e-06
0.00475283
-0.00026465
-2.55028e-06
0.00488338
-0.000202272
1.28946e-06
0.00498832
-0.000159685
-2.38086e-06
0.00506892
-0.00012889
7.18536e-07
0.00513778
-0.000107754
-2.29041e-06
0.00519293
-9.07783e-05
1.91376e-07
0.00524163
-7.73114e-05
-2.27024e-06
0.0052822
-6.6743e-05
-2.77962e-07
0.00531802
-5.68496e-05
-2.28714e-06
0.00534969
-5.03387e-05
-6.99492e-07
0.00537618
-4.22538e-05
-2.33252e-06
0.0054042
-3.93369e-05
-1.10245e-06
0.00542449
-3.21439e-05
-2.40592e-06
0.00545872
-3.54215e-05
-1.56597e-06
0.00548042
-2.64196e-05
-2.59157e-06
0.00555377
-5.93795e-05
-2.45849e-06
-6.08839e-05
-3.53649e-06
0.00564843
0.00411413
-0.000923919
1.18073e-05
0.00436549
-0.000649241
6.4501e-06
0.0045213
-0.000527232
1.08786e-05
0.00460372
-0.000348967
6.36005e-06
0.00463954
-0.000243982
1.02248e-05
0.00465695
-0.00017957
6.58636e-06
0.00465897
-0.000136721
9.69774e-06
0.00465781
-0.000109482
6.7051e-06
0.00465054
-8.87202e-05
9.19196e-06
0.00464435
-7.36177e-05
6.73664e-06
0.0046349
-6.15175e-05
8.73374e-06
0.00462814
-5.21119e-05
6.72182e-06
0.00461816
-4.38234e-05
8.32615e-06
0.00461313
-3.88272e-05
6.67358e-06
0.00460122
-3.01127e-05
7.96879e-06
0.00459986
-3.19049e-05
6.6017e-06
0.00457811
-1.58391e-05
7.70543e-06
0.00457432
-2.36404e-05
6.51642e-06
0.00452449
-1.21144e-05
7.86427e-06
3.09671e-05
6.39954e-06
0.00443137
0.00389344
-0.00109482
3.41933e-06
0.003854
-0.000602465
-2.60963e-06
0.00371503
-0.000385723
1.99276e-06
0.0035708
-0.000197732
-2.54919e-06
0.00344015
-0.000110386
1.33153e-06
0.00333383
-6.67792e-05
-2.33174e-06
0.00324362
-4.31933e-05
7.6068e-07
0.00317189
-3.13084e-05
-2.25015e-06
0.00311013
-2.28345e-05
2.2708e-07
0.00306116
-1.78801e-05
-2.23681e-06
0.00301813
-1.35558e-05
-2.45968e-07
0.00298381
-1.07189e-05
-2.25857e-06
0.00295363
-8.04913e-06
-6.68224e-07
0.00292851
-6.41331e-06
-2.30514e-06
0.00290912
-4.65206e-06
-1.06184e-06
0.00288893
-4.37313e-06
-2.36884e-06
0.00288702
-7.57872e-06
-1.48072e-06
0.0028674
3.22617e-06
-2.49036e-06
0.00295592
-9.3913e-05
-2.11779e-06
-6.92949e-05
-3.46583e-06
0.00306411
0.00261803
1.36978e-05
0.00201343
7.0846e-06
0.00162064
1.19e-05
0.00142031
7.36135e-06
0.00130338
1.12611e-05
0.00123368
7.61917e-06
0.00118448
1.07177e-05
0.00115022
7.71639e-06
0.001122
1.01952e-05
0.00110123
7.7349e-06
0.00108282
9.72697e-06
0.00106928
7.7132e-06
0.00105681
9.31108e-06
0.00104762
7.66266e-06
0.00103888
8.9375e-06
0.00103173
7.58968e-06
0.0010203
8.60828e-06
0.00102074
7.48966e-06
0.000922951
8.51433e-06
7.06677e-06
0.000851183
0.00340553
0.000330232
3.32487e-06
0.00284439
0.000567949
5.14238e-06
0.00235539
0.000503216
2.39778e-06
0.00200498
0.00035849
3.89236e-06
0.00177835
0.000240285
2.12465e-06
0.00163332
0.000153836
3.32938e-06
0.00154295
0.000103487
2.16286e-06
0.00147923
7.29972e-05
3.0945e-06
0.00143659
5.52986e-05
2.26202e-06
0.00140163
4.45341e-05
2.93024e-06
0.00137685
3.69876e-05
2.33344e-06
0.00135459
3.20196e-05
2.7853e-06
0.00133848
2.78718e-05
2.38131e-06
0.00132352
2.47604e-05
2.66929e-06
0.00131336
2.14309e-05
2.4265e-06
0.00130209
2.09731e-05
2.58905e-06
0.00130921
3.64588e-06
2.4791e-06
0.0012885
3.01962e-05
2.5506e-06
0.00144227
-0.000143131
2.41064e-06
-0.000123138
2.71567e-06
0.00157418
0.00384967
0.000201535
8.13437e-06
0.00392754
0.000482512
9.68158e-06
0.00393373
0.000495945
7.63805e-06
0.00387294
0.000412543
8.63118e-06
0.00379462
0.000316865
7.34518e-06
0.00370915
0.00023289
8.14949e-06
0.00363419
0.000175852
7.3793e-06
0.00356468
0.000136431
7.94763e-06
0.00350732
0.000109774
7.45946e-06
0.00345508
9.12843e-05
7.80208e-06
0.00341207
7.69772e-05
7.49756e-06
0.00337307
6.60033e-05
7.67118e-06
0.00334
5.785e-05
7.5078e-06
0.00331155
4.85265e-05
7.56288e-06
0.00328307
4.6556e-05
7.52022e-06
0.00326538
3.39725e-05
7.48323e-06
0.0032286
3.64251e-05
7.57083e-06
0.00322684
2.68636e-05
7.44779e-06
0.00309889
-2.03518e-05
7.75705e-06
3.66616e-05
7.82661e-06
0.00293229
0.00384387
9.1412e-05
3.40346e-06
0.00405361
0.000278729
5.21397e-06
0.00424323
0.000319147
2.6135e-06
0.00437661
0.0002859
4.12783e-06
0.00446783
0.000237932
2.27794e-06
0.0045189
0.000188936
3.52676e-06
0.00455182
0.000154209
2.28113e-06
0.00456762
0.000127933
3.26178e-06
0.00457895
0.000109326
2.388e-06
0.00458283
9.54031e-05
3.09802e-06
0.00458683
8.38205e-05
2.48114e-06
0.0045862
7.51742e-05
2.96213e-06
0.00458825
6.657e-05
2.54696e-06
0.004585
6.08406e-05
2.85227e-06
0.00458971
5.27368e-05
2.59994e-06
0.0045829
5.02839e-05
2.7763e-06
0.00459814
3.19799e-05
2.62279e-06
0.00459267
4.17136e-05
2.73749e-06
0.0046273
-4.41409e-05
2.38007e-06
-2.66321e-05
2.77677e-06
0.00469941
0.00377017
4.19049e-05
7.99345e-06
0.00395007
9.16095e-05
9.56827e-06
0.00417152
9.6622e-05
7.62955e-06
0.00436233
8.83849e-05
8.65973e-06
0.00452454
7.40085e-05
7.35996e-06
0.00464705
5.99497e-05
8.14898e-06
0.00474907
4.9365e-05
7.35768e-06
0.00482899
4.15633e-05
7.91761e-06
0.00489918
3.58677e-05
7.42431e-06
0.00495725
3.15573e-05
7.76778e-06
0.00500975
2.81006e-05
7.46571e-06
0.00505485
2.48397e-05
7.6418e-06
0.0050951
2.29915e-05
7.48189e-06
0.0051319
1.92402e-05
7.53647e-06
0.00516111
2.03262e-05
7.49975e-06
0.00519314
1.41303e-05
7.46211e-06
0.00520129
2.06245e-05
7.57269e-06
0.00522427
1.46879e-05
7.46447e-06
0.00515716
1.83813e-05
7.88548e-06
4.78178e-05
7.87246e-06
0.00507694
0.00381731
-4.1905e-05
3.38427e-06
0.00400659
-9.1609e-05
5.20782e-06
0.00421257
-9.66219e-05
2.66743e-06
0.00439603
-8.83837e-05
4.18489e-06
0.00455628
-7.4008e-05
2.32764e-06
0.00468322
-5.99471e-05
3.57054e-06
0.00479311
-4.93624e-05
2.31077e-06
0.00488336
-4.15562e-05
3.28644e-06
0.00496578
-3.58579e-05
2.40839e-06
0.00503672
-3.15375e-05
3.11724e-06
0.00510362
-2.80725e-05
2.50222e-06
0.00516164
-2.47781e-05
2.98265e-06
0.00521811
-2.29207e-05
2.57024e-06
0.00526518
-1.90446e-05
2.8737e-06
0.00531633
-2.01445e-05
2.6214e-06
0.00535352
-1.3547e-05
2.79843e-06
0.00540531
-2.01038e-05
2.62845e-06
0.00544297
-1.31005e-05
2.7639e-06
0.00548953
-1.66505e-05
2.33394e-06
-4.38253e-05
2.78296e-06
0.00559064
0.00377017
-9.14121e-05
7.99345e-06
0.00395007
-0.000278729
9.56827e-06
0.00417152
-0.000319147
7.62955e-06
0.00436233
-0.000285899
8.65973e-06
0.00452454
-0.000237931
7.35996e-06
0.00464705
-0.000188933
8.14898e-06
0.00474907
-0.000154207
7.35768e-06
0.00482899
-0.000127927
7.91761e-06
0.00489918
-0.000109317
7.42431e-06
0.00495726
-9.53852e-05
7.76778e-06
0.00500976
-8.37948e-05
7.46571e-06
0.00505486
-7.51183e-05
7.6418e-06
0.00509512
-6.65065e-05
7.4819e-06
0.00513193
-6.06614e-05
7.53649e-06
0.00516117
-5.25793e-05
7.49974e-06
0.00519325
-4.97517e-05
7.4622e-06
0.00520148
-3.15421e-05
7.57261e-06
0.00522465
-4.03112e-05
7.46468e-06
0.00515782
4.55942e-05
7.8848e-06
3.00823e-05
7.87244e-06
0.00507813
0.00384387
-0.000201535
3.40346e-06
0.00405361
-0.000482512
5.21397e-06
0.00424323
-0.000495945
2.6135e-06
0.00437661
-0.000412542
4.12783e-06
0.00446783
-0.000316864
2.27794e-06
0.0045189
-0.000232888
3.52676e-06
0.00455182
-0.00017585
2.28113e-06
0.00456762
-0.000136426
3.26178e-06
0.00457895
-0.000109767
2.388e-06
0.00458284
-9.12722e-05
3.09802e-06
0.00458684
-7.69557e-05
2.48115e-06
0.00458624
-6.5966e-05
2.96212e-06
0.0045883
-5.77966e-05
2.54697e-06
0.00458511
-4.8407e-05
2.85225e-06
0.00458983
-4.64253e-05
2.59992e-06
0.0045832
-3.36128e-05
2.77627e-06
0.00459852
-3.60685e-05
2.62269e-06
0.00459347
-2.58811e-05
2.73742e-06
0.00462844
2.14651e-05
2.38033e-06
-3.39448e-05
2.77637e-06
0.00470128
0.00384967
-0.000330232
8.13437e-06
0.00392754
-0.000567949
9.68158e-06
0.00393373
-0.000503216
7.63805e-06
0.00387294
-0.00035849
8.63117e-06
0.00379462
-0.000240285
7.34518e-06
0.00370915
-0.000153835
8.14949e-06
0.00363419
-0.000103486
7.3793e-06
0.00356469
-7.29951e-05
7.94764e-06
0.00350733
-5.52948e-05
7.45946e-06
0.00345509
-4.45287e-05
7.80209e-06
0.0034121
-3.69768e-05
7.49756e-06
0.00337312
-3.20026e-05
7.67118e-06
0.00334007
-2.78464e-05
7.50781e-06
0.00331169
-2.47031e-05
7.5629e-06
0.00328328
-2.13785e-05
7.52021e-06
0.00326578
-2.07894e-05
7.48336e-06
0.00322924
-3.54643e-06
7.57055e-06
0.00322798
-2.9691e-05
7.4483e-06
0.00310091
0.00014334
7.75537e-06
0.000123611
7.82764e-06
0.00293655
0.00340553
3.32488e-06
0.00284439
5.14238e-06
0.00235539
2.39778e-06
0.00200498
3.89236e-06
0.00177835
2.12465e-06
0.00163332
3.32939e-06
0.00154296
2.16287e-06
0.00147923
3.09451e-06
0.00143659
2.26202e-06
0.00140165
2.93024e-06
0.00137688
2.33345e-06
0.00135463
2.7853e-06
0.00133855
2.38134e-06
0.00132364
2.66927e-06
0.00131354
2.42655e-06
0.00130245
2.58898e-06
0.00130966
2.47926e-06
0.00128948
2.55012e-06
0.00144342
2.41123e-06
2.71479e-06
0.00157582
0.00359229
0.000139419
-3.32489e-06
0.00334457
0.000262787
-5.1424e-06
0.0030411
0.000312892
-2.39779e-06
0.00274381
0.00030953
-3.89237e-06
0.00247425
0.000278109
-2.12466e-06
0.00225096
0.000234229
-3.3294e-06
0.00207199
0.000187707
-2.16288e-06
0.00193733
0.000145441
-3.09452e-06
0.00183621
0.000110387
-2.26203e-06
0.0017639
8.29969e-05
-2.93026e-06
0.0017107
6.26954e-05
-2.33346e-06
0.00167304
4.80325e-05
-2.78533e-06
0.00164543
3.71283e-05
-2.38133e-06
0.00162509
3.03807e-05
-2.66931e-06
0.00161188
2.27088e-05
-2.42652e-06
0.00159835
2.32824e-05
-2.58908e-06
0.00159823
9.60443e-06
-2.47912e-06
0.00158427
2.34805e-05
-2.55062e-06
0.00160811
-1.45667e-05
-2.41066e-06
-1.77601e-05
-2.71569e-06
0.00163564
0.00379098
8.97567e-05
-8.13439e-06
0.00388819
0.00018965
-9.6816e-06
0.00396373
0.000257184
-7.63807e-06
0.00400873
0.000286267
-8.63119e-06
0.00401958
0.000286168
-7.3452e-06
0.00400915
0.000264924
-8.14951e-06
0.00398177
0.00023374
-7.37932e-06
0.00394785
0.000199306
-7.94765e-06
0.0039092
0.000168257
-7.45948e-06
0.00387134
0.000141012
-7.8021e-06
0.0038338
0.000120006
-7.49758e-06
0.00379965
0.000102559
-7.6712e-06
0.00376734
8.97519e-05
-7.50782e-06
0.00373924
7.90592e-05
-7.5629e-06
0.00371258
6.9899e-05
-7.52024e-06
0.00369048
6.57398e-05
-7.48325e-06
0.00366905
5.14224e-05
-7.57085e-06
0.00365035
6.20605e-05
-7.44781e-06
0.00363238
2.37002e-05
-7.75707e-06
5.27897e-05
-7.82663e-06
0.00358197
0.00377716
4.44453e-05
-3.40348e-06
0.00387977
0.000102168
-5.21398e-06
0.00400088
0.000145873
-2.61352e-06
0.00413116
0.000168749
-4.12785e-06
0.00425149
0.000174681
-2.27796e-06
0.00435938
0.000168032
-3.52678e-06
0.00444795
0.000153502
-2.28115e-06
0.00452122
0.000136412
-3.2618e-06
0.00457897
0.000119404
-2.38802e-06
0.00462597
0.00010462
-3.09804e-06
0.00466351
9.20342e-05
-2.48116e-06
0.0046945
8.22924e-05
-2.96215e-06
0.00472086
7.35332e-05
-2.54698e-06
0.00474305
6.79639e-05
-2.85229e-06
0.0047639
5.99887e-05
-2.59996e-06
0.00478139
5.96953e-05
-2.77632e-06
0.00479847
4.55073e-05
-2.62282e-06
0.00481472
5.70184e-05
-2.73752e-06
0.00482596
2.2695e-05
-2.38009e-06
4.36054e-05
-2.77679e-06
0.00484602
0.00376579
1.96842e-05
-7.99347e-06
0.00385307
3.87184e-05
-9.56829e-06
0.00396684
5.19328e-05
-7.62957e-06
0.00409888
5.85489e-05
-8.65975e-06
0.00423175
6.08009e-05
-7.35999e-06
0.00436118
5.88419e-05
-8.149e-06
0.00447816
5.49741e-05
-7.3577e-06
0.00458462
4.96069e-05
-7.91763e-06
0.00467825
4.47312e-05
-7.42433e-06
0.00476291
3.9899e-05
-7.76781e-06
0.00483814
3.63264e-05
-7.46573e-06
0.00490744
3.30008e-05
-7.64182e-06
0.00497016
3.06852e-05
-7.48192e-06
0.00502982
2.85929e-05
-7.53649e-06
0.00508385
2.66149e-05
-7.49977e-06
0.00513817
2.62832e-05
-7.46214e-06
0.00518264
2.22924e-05
-7.57271e-06
0.00523337
2.73047e-05
-7.4645e-06
0.00526112
1.64388e-05
-7.8855e-06
3.34868e-05
-7.87249e-06
0.00529263
0.00377118
-1.96844e-05
-3.38429e-06
0.00386373
-3.87179e-05
-5.20784e-06
0.0039775
-5.19331e-05
-2.66745e-06
0.00410748
-5.85476e-05
-4.18491e-06
0.00423802
-6.08008e-05
-2.32766e-06
0.00436678
-5.88388e-05
-3.57056e-06
0.00448508
-5.49716e-05
-2.31079e-06
0.00459467
-4.95991e-05
-3.28646e-06
0.00469305
-4.47209e-05
-2.4084e-06
0.00478346
-3.9876e-05
-3.11726e-06
0.00486569
-3.62993e-05
-2.50224e-06
0.00494229
-3.29246e-05
-2.98267e-06
0.00501362
-3.063e-05
-2.57026e-06
0.00508149
-2.8349e-05
-2.87372e-06
0.00514545
-2.64982e-05
-2.62142e-06
0.00520893
-2.56105e-05
-2.79845e-06
0.00526454
-2.19272e-05
-2.62848e-06
0.00532928
-2.57348e-05
-2.76392e-06
0.00537119
-1.50015e-05
-2.33396e-06
-3.03478e-05
-2.78298e-06
0.00544629
0.00376579
-4.44455e-05
-7.99347e-06
0.00385307
-0.000102167
-9.56829e-06
0.00396684
-0.000145873
-7.62957e-06
0.00409888
-0.000168747
-8.65975e-06
0.00423175
-0.000174681
-7.35999e-06
0.00436118
-0.000168029
-8.149e-06
0.00447816
-0.000153499
-7.3577e-06
0.00458462
-0.000136404
-7.91763e-06
0.00467825
-0.000119395
-7.42434e-06
0.00476291
-0.000104598
-7.76781e-06
0.00483815
-9.20084e-05
-7.46574e-06
0.00490745
-8.22214e-05
-7.64183e-06
0.00497017
-7.34814e-05
-7.48192e-06
0.00502985
-6.7736e-05
-7.53651e-06
0.00508389
-5.98838e-05
-7.49977e-06
0.00513825
-5.90651e-05
-7.46222e-06
0.00518276
-4.51848e-05
-7.57264e-06
0.0052336
-5.55569e-05
-7.4647e-06
0.00526151
-2.14096e-05
-7.88482e-06
-4.07504e-05
-7.87246e-06
0.0052933
0.00377716
-8.97569e-05
-3.40348e-06
0.00387977
-0.000189649
-5.21398e-06
0.00400088
-0.000257184
-2.61352e-06
0.00413116
-0.000286266
-4.12785e-06
0.00425149
-0.000286168
-2.27796e-06
0.00435939
-0.000264922
-3.52678e-06
0.00444795
-0.000233738
-2.28115e-06
0.00452122
-0.0001993
-3.2618e-06
0.00457898
-0.000168249
-2.38802e-06
0.00462598
-0.000140995
-3.09804e-06
0.00466353
-0.000119983
-2.48117e-06
0.00469452
-0.000102503
-2.96214e-06
0.0047209
-8.97085e-05
-2.54699e-06
0.00474314
-7.8879e-05
-2.85227e-06
0.004764
-6.98185e-05
-2.59994e-06
0.00478163
-6.52378e-05
-2.77629e-06
0.00479879
-5.1188e-05
-2.62271e-06
0.00481535
-6.09063e-05
-2.73744e-06
0.00482691
-2.27322e-05
-2.38035e-06
-5.06027e-05
-2.77639e-06
0.00484763
0.00379098
-0.000139419
-8.13439e-06
0.00388819
-0.000262787
-9.68161e-06
0.00396373
-0.000312892
-7.63807e-06
0.00400873
-0.00030953
-8.6312e-06
0.00401958
-0.000278109
-7.3452e-06
0.00400915
-0.000234228
-8.14951e-06
0.00398177
-0.000187706
-7.37932e-06
0.00394785
-0.000145439
-7.94766e-06
0.00390921
-0.000110381
-7.45948e-06
0.00387135
-8.29895e-05
-7.80211e-06
0.00383382
-6.26803e-05
-7.49759e-06
0.00379971
-4.80066e-05
-7.67121e-06
0.00376741
-3.70997e-05
-7.50783e-06
0.0037394
-3.02916e-05
-7.56293e-06
0.00371276
-2.266e-05
-7.52023e-06
0.00369092
-2.30267e-05
-7.48339e-06
0.00366958
-9.47632e-06
-7.57058e-06
0.00365149
-2.29061e-05
-7.44833e-06
0.00363394
1.5098e-05
-7.75539e-06
1.8563e-05
-7.82767e-06
0.0035849
0.00359229
-3.32489e-06
0.00334457
-5.1424e-06
0.0030411
-2.39779e-06
0.00274381
-3.89237e-06
0.00247425
-2.12467e-06
0.00225096
-3.3294e-06
0.00207199
-2.16288e-06
0.00193734
-3.09452e-06
0.00183623
-2.26204e-06
0.00176392
-2.93026e-06
0.00171073
-2.33347e-06
0.0016731
-2.78532e-06
0.00164552
-2.38136e-06
0.00162527
-2.66929e-06
0.0016121
-2.42657e-06
0.00159884
-2.589e-06
0.00159883
-2.47928e-06
0.00158549
-2.55013e-06
0.00160977
-2.41125e-06
-2.71481e-06
0.00163815
0.00340553
0.000330232
-1.36978e-05
0.00284439
0.000567949
-7.08462e-06
0.00235539
0.000503216
-1.19e-05
0.00200498
0.00035849
-7.36137e-06
0.00177835
0.000240285
-1.12611e-05
0.00163332
0.000153836
-7.61919e-06
0.00154295
0.000103487
-1.07177e-05
0.00147923
7.29971e-05
-7.71641e-06
0.00143659
5.52986e-05
-1.01952e-05
0.00140164
4.4534e-05
-7.73491e-06
0.00137685
3.69875e-05
-9.727e-06
0.00135459
3.20195e-05
-7.7132e-06
0.00133848
2.78716e-05
-9.31113e-06
0.00132352
2.47602e-05
-7.6626e-06
0.00131336
2.14307e-05
-8.93765e-06
0.00130209
2.09729e-05
-7.58947e-06
0.00130921
3.64572e-06
-8.60861e-06
0.0012885
3.01961e-05
-7.48922e-06
0.00144227
-0.000143131
-8.51505e-06
-0.000123138
-7.06604e-06
0.00157418
0.00384967
0.000201535
-3.41934e-06
0.00392754
0.000482512
2.60961e-06
0.00393373
0.000495945
-1.99278e-06
0.00387294
0.000412542
2.54917e-06
0.00379462
0.000316865
-1.33155e-06
0.00370915
0.00023289
2.33172e-06
0.00363419
0.000175852
-7.60697e-07
0.00356468
0.000136431
2.25013e-06
0.00350732
0.000109774
-2.27096e-07
0.00345508
9.1284e-05
2.23679e-06
0.00341207
7.6977e-05
2.45954e-07
0.00337307
6.6003e-05
2.25854e-06
0.00334
5.78497e-05
6.68205e-07
0.00331155
4.85262e-05
2.30508e-06
0.00328307
4.65557e-05
1.06183e-06
0.00326538
3.39722e-05
2.36862e-06
0.0032286
3.64249e-05
1.48099e-06
0.00322684
2.68633e-05
2.48939e-06
0.00309889
-2.03519e-05
2.12043e-06
3.66614e-05
3.46301e-06
0.00293229
0.00384387
9.1412e-05
-1.18073e-05
0.00405361
0.000278729
-6.45012e-06
0.00424323
0.000319147
-1.08786e-05
0.00437661
0.0002859
-6.36007e-06
0.00446783
0.000237931
-1.02248e-05
0.0045189
0.000188936
-6.58637e-06
0.00455182
0.000154209
-9.69776e-06
0.00456762
0.000127933
-6.70512e-06
0.00457895
0.000109326
-9.19198e-06
0.00458283
9.54027e-05
-6.73666e-06
0.00458683
8.38202e-05
-8.73376e-06
0.0045862
7.51739e-05
-6.72183e-06
0.00458825
6.65698e-05
-8.32617e-06
0.004585
6.08403e-05
-6.67356e-06
0.00458971
5.27366e-05
-7.96884e-06
0.0045829
5.02837e-05
-6.6016e-06
0.00459814
3.19798e-05
-7.70552e-06
0.00459267
4.17136e-05
-6.51627e-06
0.0046273
-4.41409e-05
-7.865e-06
-2.66321e-05
-6.40024e-06
0.00469941
0.00377017
4.19048e-05
-2.98969e-06
0.00395007
9.16093e-05
2.35436e-06
0.00417152
9.66219e-05
-1.9949e-06
0.00436233
8.83847e-05
2.55027e-06
0.00452454
7.40084e-05
-1.28948e-06
0.00464705
5.99496e-05
2.38084e-06
0.00474907
4.93648e-05
-7.18552e-07
0.00482899
4.1563e-05
2.2904e-06
0.00489918
3.58673e-05
-1.9139e-07
0.00495725
3.15568e-05
2.27023e-06
0.00500975
2.81002e-05
2.77947e-07
0.00505485
2.48394e-05
2.28712e-06
0.0050951
2.29913e-05
6.99462e-07
0.0051319
1.924e-05
2.33248e-06
0.00516111
2.03259e-05
1.10238e-06
0.00519314
1.41302e-05
2.40578e-06
0.00520129
2.06245e-05
1.5659e-06
0.00522427
1.46879e-05
2.59112e-06
0.00515716
1.83815e-05
2.45967e-06
4.78179e-05
3.53586e-06
0.00507693
0.00381731
-4.19051e-05
-1.15453e-05
0.00400659
-9.16091e-05
-6.55338e-06
0.00421257
-9.66221e-05
-1.08544e-05
0.00439603
-8.83839e-05
-6.35239e-06
0.00455628
-7.40081e-05
-1.01916e-05
0.00468322
-5.99472e-05
-6.54961e-06
0.00479311
-4.93626e-05
-9.6626e-06
0.00488336
-4.15566e-05
-6.67143e-06
0.00496578
-3.58584e-05
-9.16085e-06
0.00503672
-3.1538e-05
-6.70723e-06
0.00510362
-2.80729e-05
-8.70618e-06
0.00516164
-2.47785e-05
-6.69621e-06
0.00521811
-2.29209e-05
-8.30251e-06
0.00526518
-1.90448e-05
-6.65031e-06
0.00531633
-2.01447e-05
-7.95074e-06
0.00535352
-1.35471e-05
-6.57948e-06
0.00540531
-2.01038e-05
-7.71358e-06
0.00544297
-1.31004e-05
-6.49726e-06
0.00548953
-1.66502e-05
-7.96035e-06
-4.38252e-05
-6.47238e-06
0.00559064
0.00377017
-9.14122e-05
-2.98969e-06
0.00395007
-0.000278729
2.35437e-06
0.00417152
-0.000319147
-1.9949e-06
0.00436233
-0.000285899
2.55027e-06
0.00452454
-0.000237931
-1.28948e-06
0.00464705
-0.000188934
2.38084e-06
0.00474907
-0.000154207
-7.18552e-07
0.00482899
-0.000127927
2.2904e-06
0.00489918
-0.000109318
-1.91388e-07
0.00495726
-9.53856e-05
2.27023e-06
0.00500976
-8.37951e-05
2.7795e-07
0.00505486
-7.51185e-05
2.28713e-06
0.00509511
-6.65067e-05
6.9948e-07
0.00513193
-6.06616e-05
2.33251e-06
0.00516117
-5.25795e-05
1.10244e-06
0.00519325
-4.97518e-05
2.40591e-06
0.00520148
-3.15422e-05
1.56595e-06
0.00522465
-4.03112e-05
2.59155e-06
0.00515782
4.55943e-05
2.45847e-06
3.00823e-05
3.53647e-06
0.00507813
0.00384387
-0.000201535
-1.18073e-05
0.00405361
-0.000482512
-6.45012e-06
0.00424323
-0.000495945
-1.08786e-05
0.00437661
-0.000412542
-6.36007e-06
0.00446783
-0.000316865
-1.02248e-05
0.0045189
-0.000232888
-6.58637e-06
0.00455182
-0.00017585
-9.69776e-06
0.00456762
-0.000136426
-6.70511e-06
0.00457895
-0.000109767
-9.19197e-06
0.00458284
-9.12724e-05
-6.73665e-06
0.00458684
-7.69559e-05
-8.73376e-06
0.00458624
-6.59662e-05
-6.72183e-06
0.0045883
-5.77969e-05
-8.32616e-06
0.00458511
-4.84072e-05
-6.67359e-06
0.00458983
-4.64256e-05
-7.96881e-06
0.0045832
-3.3613e-05
-6.60171e-06
0.00459852
-3.60687e-05
-7.70545e-06
0.00459347
-2.58812e-05
-6.51644e-06
0.00462844
2.14649e-05
-7.86429e-06
-3.3945e-05
-6.39956e-06
0.00470128
0.00384967
-0.000330232
-3.41934e-06
0.00392754
-0.000567949
2.60961e-06
0.00393373
-0.000503216
-1.99277e-06
0.00387294
-0.00035849
2.54918e-06
0.00379462
-0.000240285
-1.33155e-06
0.00370915
-0.000153835
2.33172e-06
0.00363419
-0.000103486
-7.60691e-07
0.00356469
-7.29951e-05
2.25013e-06
0.00350733
-5.52948e-05
-2.27092e-07
0.00345509
-4.45288e-05
2.2368e-06
0.0034121
-3.69769e-05
2.45953e-07
0.00337312
-3.20028e-05
2.25856e-06
0.00334007
-2.78466e-05
6.68209e-07
0.00331169
-2.47033e-05
2.30513e-06
0.00328328
-2.13786e-05
1.06183e-06
0.00326578
-2.07895e-05
2.36883e-06
0.00322924
-3.54656e-06
1.4807e-06
0.00322798
-2.96911e-05
2.49034e-06
0.00310091
0.00014334
2.11778e-06
0.000123611
3.46581e-06
0.00293655
0.00340553
-1.36979e-05
0.00284439
-7.08468e-06
0.00235539
-1.19001e-05
0.00200498
-7.36143e-06
0.00177835
-1.12612e-05
0.00163332
-7.61925e-06
0.00154295
-1.07178e-05
0.00147923
-7.71647e-06
0.00143659
-1.01953e-05
0.00140165
-7.73498e-06
0.00137688
-9.72705e-06
0.00135463
-7.71328e-06
0.00133855
-9.31116e-06
0.00132364
-7.66274e-06
0.00131354
-8.93758e-06
0.00130245
-7.58975e-06
0.00130966
-8.60836e-06
0.00128948
-7.48973e-06
0.00144342
-8.5144e-06
-7.06684e-06
0.00157582
0.00261803
0.00109482
0.00201343
0.000602465
0.00162064
0.000385723
0.00142031
0.000197733
0.00130338
0.000110386
0.00123368
6.67797e-05
0.00118448
4.31942e-05
0.00115022
3.13097e-05
0.00112199
2.28375e-05
0.00110122
1.7883e-05
0.0010828
1.35653e-05
0.00106925
1.07277e-05
0.00105676
8.07313e-06
0.00104753
6.44787e-06
0.00103875
4.69648e-06
0.00103147
4.5046e-06
0.00101994
7.67684e-06
0.00102
-2.85319e-06
0.000921729
9.44104e-05
7.03722e-05
0.000848858
0.00389344
0.000923919
0.003854
0.000649241
0.00371503
0.000527233
0.0035708
0.000348968
0.00344015
0.000243982
0.00333382
0.000179571
0.00324362
0.000136723
0.00317188
0.000109486
0.00311012
8.87274e-05
0.00306115
7.36265e-05
0.0030181
6.154e-05
0.00298376
5.21398e-05
0.00295355
4.38764e-05
0.00292835
3.89385e-05
0.00290893
3.01981e-05
0.00288844
3.23218e-05
0.00288654
1.59487e-05
0.00286612
2.47948e-05
0.00295464
1.26281e-05
-2.88166e-05
0.00306177
0.00411413
0.000524298
0.00436549
0.000396138
0.0045213
0.000365054
0.00460372
0.000264651
0.00463954
0.000202273
0.00465695
0.000159687
0.00465897
0.000128892
0.00465781
0.00010776
0.00465054
9.0788e-05
0.00464434
7.7325e-05
0.00463488
6.67741e-05
0.0046281
5.68918e-05
0.00461811
5.04151e-05
0.00461302
4.2415e-05
0.00460107
3.94719e-05
0.00459952
3.27336e-05
0.00457767
3.5646e-05
0.00457336
2.80956e-05
0.00452303
6.0391e-05
6.4493e-05
0.00442845
0.00406974
0.000177473
0.00433714
0.000135797
0.00457654
0.000128161
0.00475283
9.54063e-05
0.00488338
7.48175e-05
0.00498832
6.12895e-05
0.00506892
5.14428e-05
0.00513778
4.49009e-05
0.00519292
3.92464e-05
0.00524162
3.4974e-05
0.00528219
3.08737e-05
0.005318
2.79926e-05
0.00534967
2.42316e-05
0.00537612
2.32221e-05
0.00540413
1.77389e-05
0.00542432
2.04514e-05
0.00545851
8.78211e-06
0.00548003
1.51297e-05
0.00555317
-4.46888e-06
-2.04479e-05
0.00564737
0.00406969
-0.000177473
0.00433942
-0.000135796
0.00458939
-0.00012816
0.00477833
-9.54047e-05
0.00492217
-7.48163e-05
0.00504237
-6.12863e-05
0.00513946
-5.14394e-05
0.00522626
-4.48941e-05
0.00529933
-3.92354e-05
0.00536657
-3.49578e-05
0.00542392
-3.08392e-05
0.00547775
-2.79422e-05
0.00552257
-2.41463e-05
0.00556703
-2.30319e-05
0.00559948
-1.75829e-05
0.00563856
-1.97699e-05
0.00565388
-8.51183e-06
0.00568182
-1.32691e-05
0.00566968
5.68525e-06
2.45207e-05
0.00562411
0.00406974
-0.000524298
0.00433714
-0.000396137
0.00457654
-0.000365053
0.00475283
-0.00026465
0.00488338
-0.000202271
0.00498832
-0.000159684
0.00506892
-0.000128889
0.00513778
-0.000107754
0.00519293
-9.07779e-05
0.00524163
-7.73111e-05
0.0052822
-6.67429e-05
0.00531802
-5.68495e-05
0.00534969
-5.03385e-05
0.00537617
-4.22537e-05
0.0054042
-3.93369e-05
0.00542449
-3.2144e-05
0.00545872
-3.54215e-05
0.00548042
-2.64197e-05
0.00555377
-5.93795e-05
-6.08838e-05
0.00564843
0.00411413
-0.000923919
0.00436549
-0.000649241
0.0045213
-0.000527232
0.00460372
-0.000348967
0.00463954
-0.000243981
0.00465695
-0.000179569
0.00465897
-0.000136721
0.00465781
-0.000109482
0.00465054
-8.87197e-05
0.00464435
-7.36173e-05
0.0046349
-6.15172e-05
0.00462813
-5.21116e-05
0.00461816
-4.38232e-05
0.00461313
-3.88271e-05
0.00460122
-3.01126e-05
0.00459986
-3.19049e-05
0.00457811
-1.5839e-05
0.00457432
-2.36402e-05
0.00452449
-1.21142e-05
3.09674e-05
0.00443137
0.00389344
-0.00109482
0.003854
-0.000602464
0.00371503
-0.000385723
0.0035708
-0.000197732
0.00344015
-0.000110385
0.00333383
-6.67785e-05
0.00324362
-4.31926e-05
0.00317189
-3.13078e-05
0.00311013
-2.2834e-05
0.00306116
-1.78797e-05
0.00301813
-1.35554e-05
0.00298381
-1.07186e-05
0.00295362
-8.04889e-06
0.00292851
-6.4131e-06
0.00290912
-4.65186e-06
0.00288893
-4.3729e-06
0.00288702
-7.57843e-06
0.0028674
3.22651e-06
0.00295592
-9.39126e-05
-6.92944e-05
0.00306411
0.00261803
0.00201343
0.00162064
0.00142031
0.00130338
0.00123368
0.00118448
0.00115022
0.001122
0.00110123
0.00108282
0.00106928
0.00105681
0.00104762
0.00103888
0.00103173
0.0010203
0.00102074
0.000922951
0.000851183
0.000964962
-0.000172547
6.96892e-05
0.000999769
-8.26189e-05
6.16207e-05
0.00100131
-5.1995e-05
6.52468e-05
0.00100565
-4.80503e-05
5.86796e-05
0.0010093
-4.99399e-05
6.05341e-05
0.00101446
-4.79363e-05
5.59887e-05
0.00101932
-4.94174e-05
5.70499e-05
0.00102507
-4.73933e-05
5.38888e-05
0.00103073
-4.78217e-05
5.44718e-05
0.00103687
-4.59175e-05
5.22327e-05
0.00104291
-4.60755e-05
5.25172e-05
0.00104904
-4.46446e-05
5.09075e-05
0.00105502
-4.48457e-05
5.10136e-05
0.00106081
-4.38289e-05
4.98455e-05
0.00106643
-4.40713e-05
4.98494e-05
0.00107172
-4.33293e-05
4.89959e-05
0.00107682
-4.35725e-05
4.8944e-05
0.00108153
-4.30052e-05
4.83167e-05
0.00108608
-4.32287e-05
4.82369e-05
0.00109023