/*--------------------------------*- C++ -*----------------------------------*\
  =========                 |
  \\      /  F ield         | OpenFOAM: The Open Source CFD Toolbox
   \\    /   O peration     | Website:  https://openfoam.org
    \\  /    A nd           | Version:  7
     \\/     M anipulation  |
\*---------------------------------------------------------------------------*/
FoamFile
{
    version     2.0;
    format      ascii;
    class       volScalarField;
    location    "0.6";
    object      k_0;
}
// * * * * * * * * * * * * * * * * * * * * * * * * * * * * * * * * * * * * * //

dimensions      [0 2 -2 0 0 0 0];

internalField   nonuniform List<scalar> 
13200
(
75.5725
79.7401
79.6395
79.6325
79.563
79.5849
79.5555
79.5901
79.5814
79.6173
79.6113
79.6366
79.6248
79.6357
79.6208
79.6178
79.6085
79.5819
79.6412
79.6714
17.7192
16.0979
15.0201
14.6134
14.4597
14.428
14.3762
14.3806
14.3529
14.3628
14.3462
14.3527
14.341
14.3444
14.3337
14.3339
14.3257
14.3205
14.3753
14.3717
6.92109
6.87737
6.60843
6.41291
6.31862
6.28768
6.25228
6.24514
6.22665
6.22615
6.2153
6.21555
6.20641
6.20531
6.19635
6.19371
6.18508
6.18145
6.17714
6.19255
4.92759
5.51632
5.56451
5.55512
5.5337
5.52912
5.51689
5.5147
5.5074
5.50895
5.50705
5.51035
5.50891
5.50962
5.50657
5.5036
5.49942
5.49243
5.48893
5.49481
4.51577
5.27101
5.40018
5.43619
5.43649
5.44603
5.44453
5.45015
5.44845
5.45473
5.45729
5.46766
5.47139
5.47915
5.48008
5.48238
5.48164
5.47936
5.47576
5.47936
4.46187
5.24064
5.388
5.43615
5.44269
5.46036
5.46329
5.47508
5.4763
5.48596
5.49069
5.50561
5.5133
5.52715
5.53169
5.53977
5.54142
5.54466
5.54353
5.5486
4.44417
5.22261
5.37179
5.42283
5.43204
5.4536
5.45951
5.47572
5.47946
5.49222
5.49872
5.51679
5.52761
5.54583
5.5537
5.56604
5.57032
5.5784
5.57998
5.58901
4.45301
5.22504
5.37358
5.42506
5.43582
5.45958
5.46739
5.48643
5.49209
5.50727
5.51532
5.53568
5.54885
5.57011
5.5807
5.59599
5.60258
5.61361
5.61816
5.62915
4.45092
5.21945
5.36653
5.41718
5.42803
5.4522
5.46067
5.48076
5.48732
5.50377
5.51281
5.53457
5.54919
5.57223
5.58462
5.60168
5.60989
5.6228
5.62901
5.64257
4.45499
5.22092
5.36736
5.4178
5.42875
5.45311
5.4618
5.48223
5.48913
5.5061
5.51559
5.53798
5.55328
5.57712
5.59038
5.60821
5.61737
5.6308
5.63862
5.65243
4.45499
5.22092
5.36736
5.4178
5.42875
5.45311
5.4618
5.48223
5.48913
5.5061
5.51559
5.53798
5.55327
5.57712
5.59038
5.60821
5.61738
5.63081
5.63865
5.65245
4.45092
5.21945
5.36653
5.41718
5.42803
5.4522
5.46067
5.48076
5.48732
5.50377
5.5128
5.53457
5.54918
5.57224
5.58462
5.60167
5.60994
5.62276
5.62911
5.64261
4.45301
5.22504
5.37358
5.42506
5.43582
5.45958
5.46739
5.48644
5.49208
5.50728
5.51531
5.5357
5.54881
5.57016
5.58067
5.59603
5.6026
5.61361
5.61826
5.62918
4.44417
5.22261
5.37178
5.42283
5.43203
5.45361
5.4595
5.47573
5.47945
5.49224
5.4987
5.51683
5.52751
5.54596
5.55358
5.56621
5.57023
5.57852
5.58012
5.58917
4.46186
5.24064
5.38799
5.43616
5.44269
5.46036
5.46329
5.4751
5.47629
5.48599
5.49066
5.50569
5.51314
5.52737
5.53152
5.54008
5.54116
5.54496
5.54332
5.54885
4.51577
5.27101
5.40018
5.43619
5.43649
5.44603
5.44452
5.45016
5.44843
5.45476
5.45725
5.46776
5.47127
5.47939
5.47976
5.48288
5.48076
5.4804
5.47502
5.48042
4.92759
5.51632
5.56451
5.55512
5.53369
5.52912
5.51689
5.51471
5.50738
5.50898
5.50699
5.51044
5.50874
5.50988
5.50599
5.50443
5.4979
5.49494
5.48627
5.49726
6.92109
6.87737
6.60843
6.41291
6.31862
6.28768
6.25227
6.24514
6.22663
6.22617
6.21526
6.21561
6.20626
6.20551
6.19592
6.19436
6.18374
6.18362
6.17347
6.19815
17.7192
16.0978
15.0201
14.6134
14.4596
14.428
14.3761
14.3806
14.3529
14.3628
14.3461
14.3527
14.3409
14.3446
14.3332
14.3347
14.3241
14.3234
14.3688
14.3826
75.5725
79.7402
79.6395
79.6325
79.563
79.5849
79.5554
79.5901
79.5813
79.6173
79.6111
79.6369
79.6243
79.6366
79.619
79.6211
79.6024
79.5936
79.6178
79.7224
5.9699
6.78816
6.6553
6.4999
6.47596
6.41577
6.41821
6.38375
6.39016
6.36658
6.3726
6.35492
6.35927
6.34538
6.34846
6.33733
6.34042
6.33004
6.33211
6.34982
4.06575
5.39727
5.5478
5.52131
5.4943
5.46772
5.45593
5.44208
5.43715
5.42893
5.42611
5.41984
5.41726
5.4116
5.40923
5.40421
5.40239
5.39926
5.39596
5.39527
3.50513
4.83238
5.05434
5.10267
5.11754
5.12763
5.13112
5.1363
5.13925
5.14411
5.14713
5.14995
5.15109
5.15096
5.15045
5.14738
5.14659
5.13992
5.1404
5.14833
3.43919
4.76209
4.97048
5.00981
5.01879
5.03079
5.03727
5.04716
5.054
5.06468
5.07349
5.08311
5.08994
5.09475
5.09817
5.09799
5.09876
5.09312
5.09461
5.08891
3.40794
4.72698
4.93306
4.96624
4.96587
4.97004
4.97169
4.97727
4.98099
4.98994
4.9988
5.01084
5.02061
5.02904
5.03557
5.0388
5.0425
5.0408
5.04137
5.04401
3.4218
4.74454
4.94961
4.98151
4.97879
4.97996
4.97866
4.98071
4.98091
4.98515
4.99124
5.00221
5.01191
5.02146
5.02852
5.03347
5.03782
5.0391
5.03889
5.04267
3.41174
4.73155
4.93631
4.96796
4.96489
4.96557
4.96361
4.96484
4.96346
4.96536
4.96914
4.97864
4.98769
4.99756
5.00435
5.01016
5.01424
5.01807
5.01923
5.0255
3.42106
4.74276
4.94673
4.97805
4.97501
4.97579
4.97388
4.97505
4.97327
4.9745
4.97726
4.98585
4.99449
5.00448
5.0109
5.01691
5.02034
5.02527
5.02579
5.03371
3.41646
4.73645
4.94014
4.97119
4.96812
4.96894
4.96709
4.9683
4.96648
4.96757
4.97002
4.97832
4.98682
4.99693
5.00316
5.0093
5.0123
5.01777
5.01897
5.0275
3.42001
4.74051
4.94387
4.9747
4.9716
4.97242
4.97058
4.9718
4.96997
4.97103
4.97342
4.98165
4.9901
5.00028
5.00642
5.01258
5.01536
5.02098
5.02204
5.03098
3.42001
4.74051
4.94387
4.9747
4.9716
4.97242
4.97058
4.9718
4.96997
4.97103
4.97342
4.98165
4.9901
5.00028
5.00642
5.01258
5.01537
5.02098
5.02203
5.03096
3.41646
4.73645
4.94014
4.97119
4.96812
4.96894
4.96709
4.96831
4.96648
4.96757
4.97002
4.97833
4.98681
4.99694
5.00316
5.00929
5.01233
5.01772
5.01909
5.02752
3.42106
4.74276
4.94673
4.97805
4.97501
4.97579
4.97388
4.97505
4.97327
4.97451
4.97725
4.98587
4.99446
5.00452
5.01086
5.01694
5.02033
5.02524
5.02579
5.03361
3.41174
4.73155
4.9363
4.96796
4.96488
4.96557
4.96361
4.96484
4.96346
4.96538
4.96911
4.97869
4.98761
4.99767
5.00422
5.0103
5.01412
5.01814
5.01922
5.02546
3.4218
4.74455
4.94961
4.98151
4.97879
4.97996
4.97865
4.98072
4.9809
4.98518
4.99117
5.00231
5.01175
5.02169
5.0282
5.03384
5.03739
5.03941
5.03859
5.04269
3.40794
4.72698
4.93306
4.96624
4.96587
4.97005
4.97168
4.97729
4.98097
4.98997
4.99871
5.01098
5.02037
5.02939
5.03504
5.03951
5.04175
5.04181
5.04016
5.04464
3.43919
4.76209
4.97048
5.00981
5.01878
5.03079
5.03727
5.04717
5.05397
5.06472
5.07341
5.08324
5.0897
5.09511
5.09763
5.09872
5.09785
5.09494
5.09182
5.09164
3.50513
4.83238
5.05434
5.10267
5.11753
5.12763
5.13112
5.13631
5.13923
5.14413
5.14708
5.15002
5.15096
5.15114
5.15012
5.14816
5.14542
5.14228
5.13671
5.15217
4.06575
5.39727
5.5478
5.52131
5.4943
5.46772
5.45592
5.44209
5.43713
5.42894
5.42608
5.41987
5.4172
5.41172
5.40901
5.40468
5.40159
5.40064
5.3935
5.40036
5.9699
6.78817
6.6553
6.4999
6.47596
6.41577
6.41821
6.38375
6.39016
6.36658
6.37259
6.35494
6.35924
6.34545
6.34838
6.33758
6.34013
6.33093
6.3309
6.3535
0.877436
1.12859
0.975346
0.788719
0.681678
0.627022
0.589693
0.565442
0.54509
0.529707
0.516689
0.506386
0.49857
0.493317
0.490066
0.489415
0.488767
0.491986
0.48863
0.50079
0.14648
0.375462
0.452687
0.467522
0.466837
0.463501
0.456474
0.449312
0.44199
0.435354
0.42893
0.423216
0.417837
0.413581
0.409611
0.407512
0.4049
0.404919
0.40343
0.405422
0.0277695
0.14309
0.20935
0.241767
0.25614
0.268366
0.276105
0.28456
0.290274
0.296302
0.300284
0.304026
0.306055
0.307338
0.307537
0.307355
0.306552
0.305881
0.304963
0.305299
0.0234923
0.119368
0.174834
0.204458
0.216225
0.224183
0.227643
0.231886
0.234648
0.238374
0.241389
0.244723
0.247514
0.249879
0.251905
0.252993
0.254086
0.254215
0.254642
0.255277
0.022512
0.113891
0.164873
0.193602
0.204494
0.211707
0.213519
0.21589
0.216439
0.217811
0.218484
0.219784
0.220638
0.221624
0.222525
0.223086
0.223847
0.224004
0.224321
0.224901
0.0234589
0.117648
0.169081
0.197323
0.208429
0.215272
0.21718
0.219055
0.219351
0.220105
0.220362
0.220908
0.221217
0.221532
0.221858
0.221979
0.222222
0.222167
0.222278
0.222691
0.0228085
0.115119
0.166027
0.194277
0.205125
0.212011
0.213758
0.215637
0.215831
0.21645
0.216585
0.216982
0.217109
0.217307
0.21739
0.217403
0.217418
0.217343
0.217084
0.217418
0.0233454
0.117302
0.168708
0.196813
0.207767
0.21451
0.216359
0.21816
0.218392
0.219007
0.219161
0.219544
0.219703
0.219869
0.219972
0.219973
0.220001
0.219911
0.219719
0.219984
0.0230184
0.115976
0.167099
0.195233
0.206074
0.212862
0.214638
0.216474
0.216683
0.217295
0.217438
0.217829
0.217971
0.218157
0.218242
0.218258
0.218267
0.218207
0.217943
0.218237
0.0232008
0.116732
0.168039
0.196125
0.206991
0.213724
0.215523
0.217331
0.21755
0.218162
0.218314
0.218705
0.218862
0.219043
0.219142
0.219157
0.219181
0.219125
0.218909
0.219185
0.0232008
0.116732
0.168039
0.196125
0.206991
0.213724
0.215523
0.217331
0.21755
0.218162
0.218314
0.218706
0.218862
0.219044
0.219142
0.219158
0.219182
0.219127
0.218911
0.219188
0.0230184
0.115976
0.167099
0.195233
0.206074
0.212862
0.214638
0.216474
0.216683
0.217295
0.217438
0.217829
0.217971
0.218157
0.218242
0.218257
0.218266
0.218205
0.217942
0.218234
0.0233454
0.117302
0.168708
0.196813
0.207767
0.21451
0.216359
0.21816
0.218392
0.219007
0.219161
0.219545
0.219703
0.21987
0.219972
0.219974
0.220002
0.219913
0.21972
0.219987
0.0228085
0.115119
0.166027
0.194277
0.205125
0.212011
0.213758
0.215637
0.215831
0.21645
0.216585
0.216982
0.217108
0.217308
0.217388
0.217403
0.217416
0.21734
0.21708
0.21741
0.0234589
0.117648
0.169081
0.197323
0.208428
0.215272
0.21718
0.219055
0.219351
0.220106
0.220361
0.220911
0.221213
0.221536
0.221853
0.221981
0.22222
0.222168
0.222273
0.222677
0.022512
0.113892
0.164873
0.193602
0.204494
0.211707
0.213519
0.21589
0.216439
0.217812
0.218482
0.219787
0.220632
0.22163
0.222514
0.223092
0.223833
0.223997
0.224299
0.224857
0.0234923
0.119368
0.174834
0.204459
0.216224
0.224184
0.227642
0.231887
0.234646
0.238376
0.241385
0.244726
0.247508
0.249882
0.251892
0.252994
0.254061
0.254189
0.254582
0.255186
0.0277695
0.14309
0.20935
0.241768
0.25614
0.268367
0.276103
0.284562
0.290271
0.296305
0.300278
0.304031
0.306043
0.307341
0.30752
0.307354
0.306507
0.305871
0.304874
0.305153
0.14648
0.375462
0.452687
0.467523
0.466837
0.463501
0.456472
0.449315
0.441986
0.435361
0.428919
0.423232
0.417812
0.41362
0.409553
0.407601
0.40481
0.405032
0.403284
0.405503
0.877436
1.12859
0.975346
0.788719
0.681678
0.627022
0.589693
0.565445
0.545089
0.529715
0.516687
0.506409
0.498567
0.493375
0.490085
0.489554
0.488852
0.492383
0.488829
0.501995
0.877436
1.12859
0.975346
0.788719
0.681678
0.627021
0.589693
0.565442
0.54509
0.529706
0.516689
0.506386
0.49857
0.493317
0.490066
0.489415
0.488767
0.491986
0.48863
0.500789
0.14648
0.375461
0.452687
0.467522
0.466838
0.463501
0.456474
0.449312
0.44199
0.435354
0.42893
0.423216
0.417837
0.413581
0.409611
0.407513
0.4049
0.404919
0.40343
0.405423
0.0277695
0.14309
0.20935
0.241767
0.25614
0.268366
0.276105
0.284561
0.290274
0.296302
0.300284
0.304026
0.306054
0.307338
0.307537
0.307355
0.306553
0.305882
0.304964
0.3053
0.0234924
0.119368
0.174834
0.204458
0.216225
0.224183
0.227643
0.231886
0.234648
0.238374
0.241388
0.244723
0.247514
0.249879
0.251905
0.252993
0.254086
0.254215
0.254642
0.255277
0.022512
0.113891
0.164873
0.193602
0.204494
0.211707
0.213519
0.21589
0.216439
0.217811
0.218484
0.219784
0.220638
0.221624
0.222525
0.223086
0.223848
0.224004
0.224321
0.224902
0.0234589
0.117648
0.169081
0.197323
0.208429
0.215272
0.21718
0.219055
0.219351
0.220105
0.220362
0.220908
0.221217
0.221532
0.221858
0.221979
0.222222
0.222167
0.222278
0.222691
0.0228085
0.115119
0.166027
0.194277
0.205125
0.212011
0.213758
0.215637
0.215831
0.21645
0.216585
0.216982
0.217109
0.217307
0.21739
0.217403
0.217418
0.217343
0.217084
0.217418
0.0233454
0.117302
0.168708
0.196813
0.207767
0.21451
0.216359
0.21816
0.218392
0.219007
0.219161
0.219544
0.219704
0.219869
0.219972
0.219973
0.220001
0.219911
0.219719
0.219984
0.0230184
0.115976
0.167099
0.195233
0.206074
0.212862
0.214638
0.216474
0.216683
0.217295
0.217438
0.217829
0.217971
0.218157
0.218242
0.218258
0.218267
0.218207
0.217943
0.218237
0.0232008
0.116732
0.168039
0.196125
0.206991
0.213724
0.215523
0.217331
0.21755
0.218162
0.218314
0.218706
0.218862
0.219043
0.219142
0.219157
0.219181
0.219125
0.21891
0.219185
0.0232008
0.116732
0.168039
0.196125
0.206991
0.213724
0.215523
0.217331
0.21755
0.218162
0.218314
0.218706
0.218862
0.219044
0.219142
0.219158
0.219182
0.219127
0.218911
0.219188
0.0230184
0.115976
0.167099
0.195233
0.206074
0.212862
0.214638
0.216474
0.216683
0.217295
0.217438
0.217829
0.217971
0.218157
0.218242
0.218257
0.218266
0.218205
0.217942
0.218234
0.0233454
0.117302
0.168708
0.196813
0.207767
0.21451
0.216359
0.21816
0.218392
0.219008
0.219161
0.219545
0.219703
0.21987
0.219972
0.219974
0.220002
0.219913
0.21972
0.219987
0.0228085
0.115119
0.166027
0.194277
0.205125
0.212011
0.213758
0.215637
0.215831
0.216451
0.216585
0.216982
0.217108
0.217308
0.217388
0.217403
0.217416
0.21734
0.21708
0.217409
0.0234589
0.117648
0.169081
0.197323
0.208428
0.215272
0.21718
0.219055
0.219351
0.220106
0.220361
0.220911
0.221213
0.221536
0.221853
0.221981
0.22222
0.222168
0.222273
0.222677
0.022512
0.113892
0.164873
0.193602
0.204494
0.211707
0.213519
0.21589
0.216439
0.217812
0.218482
0.219787
0.220632
0.22163
0.222514
0.223092
0.223833
0.223997
0.224299
0.224857
0.0234923
0.119368
0.174834
0.204459
0.216225
0.224184
0.227642
0.231887
0.234646
0.238376
0.241385
0.244726
0.247508
0.249882
0.251892
0.252994
0.254061
0.254189
0.254582
0.255185
0.0277695
0.14309
0.20935
0.241768
0.25614
0.268367
0.276103
0.284562
0.290271
0.296305
0.300278
0.304031
0.306043
0.307341
0.30752
0.307354
0.306507
0.305871
0.304874
0.305152
0.14648
0.375462
0.452687
0.467523
0.466837
0.463501
0.456472
0.449315
0.441986
0.435361
0.428919
0.423232
0.417812
0.413619
0.409553
0.4076
0.404809
0.405032
0.403283
0.405503
0.877436
1.12859
0.975346
0.788719
0.681678
0.627023
0.589693
0.565446
0.54509
0.529715
0.516687
0.506409
0.498567
0.493375
0.490085
0.489554
0.488852
0.492383
0.488829
0.501995
5.9699
6.78817
6.65531
6.4999
6.47596
6.41577
6.41821
6.38375
6.39016
6.36658
6.3726
6.35492
6.35926
6.34538
6.34846
6.33733
6.34042
6.33004
6.33211
6.34982
4.06575
5.39727
5.5478
5.52131
5.4943
5.46772
5.45593
5.44208
5.43714
5.42892
5.4261
5.41983
5.41725
5.4116
5.40923
5.40421
5.40239
5.39927
5.39596
5.39528
3.50513
4.83238
5.05434
5.10267
5.11753
5.12763
5.13112
5.1363
5.13924
5.14411
5.14712
5.14994
5.15108
5.15096
5.15044
5.14738
5.14659
5.13993
5.14041
5.14833
3.43919
4.76209
4.97048
5.0098
5.01879
5.03079
5.03728
5.04716
5.054
5.06468
5.07349
5.08311
5.08993
5.09475
5.09817
5.09799
5.09876
5.09312
5.09461
5.08892
3.40794
4.72698
4.93306
4.96623
4.96587
4.97004
4.97169
4.97727
4.98099
4.98993
4.9988
5.01084
5.02061
5.02904
5.03557
5.03879
5.0425
5.04081
5.04137
5.04402
3.4218
4.74454
4.94961
4.98151
4.97879
4.97996
4.97866
4.98071
4.98091
4.98515
4.99124
5.00221
5.01191
5.02146
5.02852
5.03346
5.03781
5.0391
5.03889
5.04268
3.41174
4.73155
4.93631
4.96795
4.96489
4.96557
4.96361
4.96484
4.96346
4.96536
4.96914
4.97864
4.98769
4.99756
5.00435
5.01016
5.01424
5.01807
5.01923
5.02551
3.42106
4.74276
4.94673
4.97805
4.97501
4.97579
4.97388
4.97505
4.97327
4.9745
4.97726
4.98585
4.9945
5.00448
5.0109
5.01691
5.02034
5.02527
5.02578
5.03371
3.41646
4.73645
4.94014
4.97119
4.96812
4.96894
4.96709
4.9683
4.96648
4.96757
4.97002
4.97832
4.98682
4.99693
5.00316
5.0093
5.0123
5.01777
5.01897
5.0275
3.42001
4.74051
4.94387
4.9747
4.9716
4.97242
4.97058
4.9718
4.96997
4.97103
4.97342
4.98165
4.9901
5.00028
5.00642
5.01258
5.01536
5.02098
5.02204
5.03098
3.42001
4.74051
4.94387
4.9747
4.9716
4.97242
4.97058
4.9718
4.96997
4.97103
4.97342
4.98165
4.9901
5.00028
5.00642
5.01258
5.01537
5.02098
5.02203
5.03096
3.41646
4.73645
4.94014
4.97119
4.96812
4.96894
4.96709
4.96831
4.96648
4.96757
4.97002
4.97833
4.98681
4.99694
5.00316
5.00929
5.01233
5.01772
5.01909
5.02752
3.42106
4.74276
4.94673
4.97805
4.97501
4.97579
4.97388
4.97505
4.97327
4.97451
4.97725
4.98587
4.99446
5.00452
5.01086
5.01694
5.02033
5.02524
5.02579
5.03361
3.41174
4.73155
4.9363
4.96796
4.96489
4.96557
4.96361
4.96484
4.96346
4.96538
4.96911
4.97869
4.98761
4.99767
5.00422
5.0103
5.01412
5.01814
5.01922
5.02545
3.4218
4.74455
4.94961
4.98151
4.97879
4.97996
4.97865
4.98072
4.9809
4.98518
4.99117
5.00232
5.01175
5.0217
5.0282
5.03385
5.0374
5.03941
5.03859
5.04269
3.40794
4.72698
4.93306
4.96624
4.96587
4.97005
4.97168
4.97729
4.98097
4.98997
4.99871
5.01099
5.02038
5.0294
5.03504
5.03951
5.04175
5.04181
5.04016
5.04463
3.43919
4.76209
4.97048
5.00981
5.01879
5.03079
5.03727
5.04717
5.05397
5.06472
5.07341
5.08324
5.0897
5.09512
5.09764
5.09873
5.09786
5.09493
5.09182
5.09163
3.50513
4.83238
5.05434
5.10267
5.11753
5.12763
5.13112
5.13631
5.13923
5.14414
5.14708
5.15003
5.15097
5.15115
5.15012
5.14816
5.14541
5.14227
5.13671
5.15216
4.06575
5.39727
5.5478
5.52131
5.4943
5.46772
5.45592
5.44209
5.43714
5.42894
5.42609
5.41987
5.4172
5.41172
5.40901
5.40468
5.40159
5.40064
5.39349
5.40035
5.9699
6.78816
6.6553
6.4999
6.47596
6.41577
6.41821
6.38376
6.39016
6.36659
6.3726
6.35494
6.35925
6.34545
6.34838
6.33758
6.34013
6.33093
6.33089
6.3535
75.5725
79.7402
79.6396
79.6325
79.563
79.5849
79.5554
79.5901
79.5813
79.6172
79.6112
79.6366
79.6248
79.6357
79.6207
79.6178
79.6085
79.5819
79.6413
79.6714
17.7192
16.0978
15.0201
14.6134
14.4597
14.428
14.3761
14.3806
14.3529
14.3628
14.3461
14.3526
14.341
14.3444
14.3337
14.3339
14.3257
14.3205
14.3753
14.3717
6.92109
6.87737
6.60843
6.41291
6.31862
6.28768
6.25228
6.24514
6.22665
6.22615
6.2153
6.21555
6.2064
6.20531
6.19635
6.19371
6.18508
6.18146
6.17715
6.19256
4.92759
5.51632
5.56451
5.55512
5.5337
5.52912
5.51689
5.5147
5.5074
5.50895
5.50704
5.51034
5.50891
5.50962
5.50656
5.5036
5.49942
5.49244
5.48894
5.49482
4.51577
5.27101
5.40018
5.43619
5.43649
5.44603
5.44453
5.45015
5.44845
5.45473
5.45729
5.46766
5.47139
5.47915
5.48008
5.48238
5.48164
5.47936
5.47576
5.47936
4.46187
5.24064
5.388
5.43615
5.44269
5.46036
5.46329
5.47509
5.4763
5.48596
5.49069
5.50561
5.5133
5.52715
5.53169
5.53977
5.54142
5.54466
5.54353
5.54861
4.44417
5.22261
5.37179
5.42283
5.43204
5.4536
5.45951
5.47572
5.47946
5.49222
5.49872
5.51679
5.52761
5.54584
5.5537
5.56604
5.57032
5.5784
5.57998
5.58901
4.45301
5.22504
5.37358
5.42506
5.43582
5.45958
5.46739
5.48643
5.49209
5.50727
5.51532
5.53568
5.54885
5.57011
5.5807
5.59599
5.60258
5.61361
5.61815
5.62915
4.45092
5.21945
5.36653
5.41718
5.42803
5.4522
5.46067
5.48076
5.48732
5.50377
5.51281
5.53457
5.54919
5.57223
5.58462
5.60168
5.60989
5.6228
5.62901
5.64257
4.45499
5.22092
5.36736
5.41779
5.42875
5.45311
5.4618
5.48223
5.48913
5.50609
5.51559
5.53798
5.55328
5.57712
5.59038
5.60821
5.61737
5.63081
5.63862
5.65243
4.45499
5.22092
5.36736
5.41779
5.42875
5.45311
5.4618
5.48223
5.48913
5.5061
5.51559
5.53798
5.55328
5.57712
5.59038
5.60821
5.61738
5.63081
5.63865
5.65245
4.45092
5.21945
5.36653
5.41718
5.42803
5.4522
5.46067
5.48076
5.48732
5.50377
5.5128
5.53457
5.54919
5.57224
5.58462
5.60167
5.60994
5.62276
5.62911
5.64261
4.45301
5.22504
5.37358
5.42506
5.43582
5.45958
5.46739
5.48644
5.49208
5.50728
5.51531
5.5357
5.54881
5.57016
5.58067
5.59603
5.6026
5.61361
5.61826
5.62918
4.44417
5.22261
5.37178
5.42283
5.43203
5.45361
5.4595
5.47573
5.47945
5.49224
5.4987
5.51683
5.52752
5.54596
5.55358
5.56621
5.57023
5.57853
5.58012
5.58917
4.46186
5.24064
5.38799
5.43616
5.44269
5.46036
5.46329
5.4751
5.47629
5.48599
5.49066
5.5057
5.51314
5.52737
5.53152
5.54008
5.54117
5.54497
5.54332
5.54884
4.51577
5.27101
5.40018
5.43619
5.43649
5.44603
5.44452
5.45016
5.44843
5.45477
5.45725
5.46777
5.47128
5.47939
5.47976
5.48288
5.48077
5.4804
5.47501
5.48041
4.92759
5.51632
5.56451
5.55512
5.53369
5.52912
5.51689
5.51471
5.50739
5.50898
5.507
5.51045
5.50874
5.50988
5.506
5.50444
5.4979
5.49493
5.48626
5.49725
6.92109
6.87737
6.60843
6.41291
6.31862
6.28769
6.25227
6.24515
6.22664
6.22617
6.21527
6.21562
6.20627
6.20551
6.19592
6.19436
6.18374
6.18361
6.17347
6.19814
17.7192
16.0979
15.0201
14.6134
14.4597
14.428
14.3761
14.3807
14.3529
14.3628
14.3461
14.3527
14.3409
14.3446
14.3332
14.3347
14.3241
14.3234
14.3687
14.3826
75.5725
79.7401
79.6395
79.6325
79.563
79.5849
79.5554
79.5901
79.5813
79.6174
79.6111
79.6369
79.6243
79.6367
79.619
79.6211
79.6024
79.5936
79.6178
79.7224
182.588
185.468
187.326
188.627
189.325
189.714
189.859
189.951
189.969
190
189.999
190.017
190.014
190.026
190.024
190.034
190.033
190.041
190.04
190.047
190.047
190.053
190.053
190.058
190.058
190.063
190.063
190.067
190.068
190.072
190.072
190.076
190.077
190.081
190.082
190.086
190.087
190.091
190.093
190.096
190.098
190.102
190.104
190.108
190.11
190.114
190.117
190.121
190.124
190.129
190.132
190.137
190.141
190.146
190.149
190.155
190.159
190.165
190.169
190.176
190.181
190.188
190.194
190.202
190.209
190.217
190.225
190.234
190.242
190.251
190.26
190.27
190.28
190.291
190.301
190.314
190.326
190.34
190.353
190.37
190.384
190.403
190.419
190.439
190.459
190.466
190.538
190.391
190.798
190.284
58.3343
59.6907
60.2638
60.6858
60.892
61.0233
61.0585
61.0958
61.0947
61.1125
61.1072
61.1201
61.1152
61.126
61.1222
61.1316
61.1287
61.1371
61.1349
61.1427
61.1411
61.1484
61.1474
61.1543
61.1538
61.1605
61.1604
61.1668
61.1672
61.1736
61.1743
61.1807
61.1818
61.1881
61.1896
61.1961
61.1979
61.2044
61.2067
61.2133
61.216
61.2228
61.2259
61.233
61.2366
61.2439
61.2479
61.2556
61.2601
61.268
61.2731
61.2814
61.2869
61.2956
61.3018
61.311
61.3177
61.3275
61.3349
61.3453
61.3535
61.3645
61.3734
61.3851
61.3947
61.407
61.4173
61.4303
61.4412
61.4549
61.4665
61.481
61.4932
61.5084
61.5212
61.5371
61.5503
61.5668
61.5801
61.5969
61.6098
61.6265
61.6386
61.6542
61.6659
61.6756
61.7012
61.6601
61.7824
61.6192
26.1202
27.2198
27.4487
27.6493
27.7286
27.8035
27.8112
27.8427
27.8374
27.8591
27.8538
27.8725
27.8687
27.886
27.8836
27.9001
27.8991
27.9149
27.9151
27.9305
27.9317
27.9468
27.9489
27.9638
27.9668
27.9816
27.9853
28.0002
28.0047
28.0196
28.0248
28.0398
28.0458
28.061
28.0677
28.0831
28.0905
28.1061
28.1142
28.1301
28.139
28.1552
28.1648
28.1814
28.1917
28.2087
28.2198
28.2373
28.2491
28.267
28.2796
28.298
28.3113
28.3302
28.3443
28.3637
28.3785
28.3986
28.4141
28.4347
28.4509
28.4721
28.489
28.5107
28.5281
28.5502
28.5682
28.5907
28.6089
28.6317
28.6502
28.6731
28.6916
28.7145
28.7328
28.7555
28.7732
28.7955
28.8123
28.8336
28.8489
28.8689
28.8822
28.9002
28.9115
28.9244
28.9409
28.9288
28.9815
28.908
18.6509
19.8559
20.0149
20.1723
20.2323
20.3068
20.3158
20.3539
20.3521
20.3805
20.3787
20.4042
20.404
20.4283
20.4298
20.4535
20.4566
20.4799
20.4843
20.5075
20.5132
20.5362
20.543
20.566
20.5738
20.5969
20.6057
20.6288
20.6386
20.6619
20.6725
20.696
20.7076
20.7312
20.7436
20.7674
20.7807
20.8047
20.8189
20.8431
20.858
20.8826
20.8983
20.9231
20.9396
20.9648
20.982
21.0075
21.0255
21.0513
21.0699
21.096
21.1153
21.1417
21.1615
21.1883
21.2087
21.2358
21.2568
21.2842
21.3056
21.3333
21.3551
21.383
21.4051
21.4331
21.4553
21.4833
21.5055
21.5333
21.5553
21.5828
21.6045
21.6317
21.6527
21.6793
21.6995
21.7253
21.7442
21.7688
21.786
21.809
21.824
21.8447
21.8575
21.8729
21.8899
21.8861
21.9222
21.8827
17.07
18.3845
18.5285
18.6806
18.7445
18.8306
18.8466
18.8932
18.8951
18.9287
18.9295
18.9595
18.9616
18.9903
18.9942
19.0224
19.0279
19.0558
19.0628
19.0906
19.0989
19.1267
19.1361
19.1639
19.1745
19.2023
19.2139
19.2419
19.2544
19.2825
19.2961
19.3243
19.3388
19.3671
19.3826
19.411
19.4273
19.4559
19.4731
19.5018
19.5198
19.5488
19.5676
19.5968
19.6164
19.6459
19.6663
19.696
19.7171
19.7471
19.7688
19.799
19.8213
19.8518
19.8748
19.9055
19.9291
19.9601
19.9842
20.0155
20.0401
20.0717
20.0967
20.1284
20.1537
20.1855
20.2109
20.2427
20.268
20.2997
20.3248
20.3562
20.3809
20.4119
20.436
20.4664
20.4896
20.5191
20.5409
20.5692
20.5891
20.6157
20.633
20.657
20.6721
20.6901
20.7089
20.7102
20.7395
20.7171
16.846
18.2807
18.4157
18.5678
18.6384
18.7375
18.7609
18.8159
18.8205
18.8583
18.8603
18.8932
18.8963
18.9278
18.9328
18.9638
18.9705
19.0013
19.0095
19.0403
19.0499
19.0807
19.0916
19.1225
19.1345
19.1655
19.1787
19.2098
19.224
19.2553
19.2705
19.302
19.3183
19.3498
19.3671
19.3988
19.4171
19.4489
19.4681
19.5001
19.5203
19.5525
19.5735
19.606
19.6279
19.6607
19.6835
19.7166
19.7401
19.7735
19.7978
19.8314
19.8564
19.8904
19.9161
19.9504
19.9767
20.0114
20.0384
20.0734
20.101
20.1364
20.1645
20.2001
20.2285
20.2642
20.2929
20.3286
20.3573
20.3929
20.4213
20.4567
20.4848
20.5197
20.5472
20.5815
20.6079
20.6414
20.6663
20.6983
20.7211
20.7512
20.7712
20.7984
20.8157
20.8365
20.8565
20.863
20.8868
20.874
16.8173
18.3316
18.4635
18.6174
18.6924
18.8024
18.8316
18.8942
18.9008
18.942
18.9448
18.98
18.9837
19.0173
19.0229
19.0561
19.0635
19.0965
19.1056
19.1386
19.1492
19.1823
19.1942
19.2275
19.2407
19.2741
19.2884
19.322
19.3375
19.3713
19.388
19.4219
19.4397
19.4739
19.4928
19.527
19.547
19.5814
19.6024
19.637
19.659
19.6939
19.7169
19.7521
19.776
19.8116
19.8365
19.8724
19.8981
19.9343
19.9608
19.9974
20.0247
20.0616
20.0897
20.127
20.1559
20.1936
20.2232
20.2613
20.2915
20.33
20.3608
20.3996
20.4309
20.4698
20.5012
20.5402
20.5717
20.6105
20.6418
20.6804
20.7113
20.7494
20.7796
20.8171
20.8462
20.8827
20.9102
20.9452
20.9703
21.0033
21.0253
21.0551
21.0742
21.0975
21.1175
21.1291
21.1492
21.1405
16.8945
18.4832
18.6116
18.7636
18.8406
18.9585
18.9923
19.0605
19.0688
19.1125
19.1157
19.1525
19.1565
19.1916
19.1975
19.2322
19.2401
19.2746
19.2843
19.3189
19.3301
19.3649
19.3775
19.4125
19.4265
19.4616
19.4768
19.5122
19.5287
19.5643
19.582
19.6178
19.6367
19.6727
19.6928
19.7289
19.7502
19.7865
19.8088
19.8454
19.8688
19.9056
19.9301
19.9672
19.9927
20.0303
20.0567
20.0947
20.122
20.1603
20.1886
20.2272
20.2563
20.2953
20.3252
20.3647
20.3954
20.4353
20.4667
20.5071
20.5393
20.5801
20.6129
20.6539
20.6872
20.7284
20.7619
20.8032
20.8367
20.8778
20.9111
20.952
20.9849
21.0254
21.0575
21.0973
21.1283
21.167
21.1963
21.2335
21.2603
21.2952
21.3188
21.3504
21.3707
21.3962
21.4156
21.4319
21.4485
21.4434
16.924
18.5523
18.6816
18.8333
18.9115
19.034
19.0699
19.1413
19.1503
19.1957
19.1992
19.237
19.2412
19.2772
19.2834
19.3189
19.3272
19.3626
19.3727
19.4082
19.4199
19.4556
19.4688
19.5047
19.5193
19.5554
19.5713
19.6077
19.6248
19.6616
19.6799
19.7169
19.7365
19.7736
19.7945
19.8318
19.8538
19.8913
19.9145
19.9523
19.9765
20.0146
20.04
20.0784
20.1048
20.1436
20.1711
20.2102
20.2387
20.2782
20.3075
20.3475
20.3777
20.418
20.449
20.4898
20.5217
20.5629
20.5956
20.6373
20.6707
20.7129
20.7469
20.7894
20.8239
20.8666
20.9013
20.944
20.9788
21.0214
21.056
21.0983
21.1324
21.1743
21.2077
21.2489
21.2811
21.3212
21.3516
21.3901
21.4179
21.4541
21.4786
21.5115
21.5324
21.5596
21.578
21.5981
21.6124
21.608
16.957
18.6104
18.7389
18.8872
18.9622
19.0835
19.1187
19.1903
19.1993
19.245
19.2485
19.2867
19.291
19.3274
19.3337
19.3696
19.378
19.4138
19.424
19.4599
19.4718
19.5079
19.5213
19.5576
19.5724
19.609
19.6251
19.662
19.6794
19.7166
19.7353
19.7727
19.7927
19.8303
19.8515
19.8893
19.9117
19.9498
19.9733
20.0116
20.0363
20.0749
20.1007
20.1397
20.1666
20.2059
20.2338
20.2736
20.3025
20.3427
20.3725
20.413
20.4437
20.4846
20.5162
20.5576
20.59
20.6319
20.6651
20.7075
20.7414
20.7842
20.8189
20.862
20.8971
20.9404
20.9757
21.0191
21.0545
21.0977
21.1329
21.1759
21.2106
21.2531
21.2871
21.3289
21.3617
21.4024
21.4334
21.4725
21.5009
21.5377
21.5626
21.5961
21.6172
21.6455
21.6628
21.6856
21.698
21.695
16.9578
18.6099
18.7335
18.8751
18.9433
19.0592
19.0907
19.1594
19.1674
19.2124
19.2157
19.2537
19.258
19.2943
19.3006
19.3365
19.3449
19.3806
19.3909
19.4267
19.4386
19.4746
19.488
19.5243
19.5391
19.5757
19.5918
19.6287
19.646
19.6832
19.7019
19.7393
19.7593
19.7968
19.8181
19.8558
19.8783
19.9162
19.9398
19.978
20.0027
20.0413
20.0671
20.106
20.1329
20.1722
20.2001
20.2399
20.2688
20.3089
20.3387
20.3792
20.4099
20.4508
20.4823
20.5237
20.5561
20.5979
20.6311
20.6735
20.7074
20.7502
20.7848
20.8279
20.8629
20.9062
20.9415
20.9848
21.0202
21.0634
21.0986
21.1415
21.1762
21.2187
21.2527
21.2945
21.3272
21.3679
21.3988
21.4379
21.4663
21.503
21.5279
21.5615
21.5823
21.6111
21.6274
21.6517
21.6628
21.6604
16.9269
18.5505
18.6646
18.7958
18.8534
18.9588
18.9842
19.0472
19.0535
19.0967
19.0997
19.137
19.1411
19.1769
19.1831
19.2185
19.2268
19.2621
19.2721
19.3076
19.3192
19.3548
19.368
19.4038
19.4183
19.4544
19.4703
19.5066
19.5237
19.5603
19.5787
19.6155
19.6352
19.6722
19.6931
19.7303
19.7523
19.7897
19.8129
19.8505
19.8748
19.9128
19.9381
19.9764
20.0028
20.0416
20.069
20.1081
20.1365
20.176
20.2052
20.2451
20.2752
20.3155
20.3465
20.3872
20.419
20.4602
20.4928
20.5344
20.5677
20.6098
20.6438
20.6862
20.7206
20.7632
20.7978
20.8404
20.8751
20.9176
20.9521
20.9944
21.0284
21.0702
21.1035
21.1446
21.1767
21.2167
21.2471
21.2855
21.3133
21.3494
21.3738
21.4068
21.4271
21.4557
21.471
21.4955
21.506
21.5034
16.8988
18.4735
18.5706
18.6853
18.729
18.8202
18.838
18.8935
18.8978
18.9384
18.9409
18.977
18.9809
19.0157
19.0216
19.056
19.0639
19.0983
19.1079
19.1423
19.1536
19.1881
19.2008
19.2356
19.2495
19.2846
19.2998
19.335
19.3515
19.387
19.4047
19.4404
19.4593
19.4951
19.5152
19.5512
19.5724
19.6087
19.6309
19.6674
19.6908
19.7275
19.7519
19.789
19.8144
19.8519
19.8783
19.9161
19.9434
19.9816
20.0098
20.0484
20.0774
20.1163
20.1461
20.1855
20.2161
20.2559
20.2873
20.3275
20.3596
20.4002
20.4329
20.4739
20.507
20.5481
20.5815
20.6226
20.656
20.697
20.7302
20.771
20.8037
20.8441
20.8761
20.9157
20.9466
20.9852
21.0144
21.0514
21.0781
21.113
21.1363
21.1682
21.1875
21.2154
21.2297
21.2535
21.2633
21.2616
16.8221
18.3047
18.3842
18.4819
18.5107
18.5849
18.5948
18.6425
18.6446
18.6823
18.6842
18.7187
18.7222
18.7555
18.761
18.7939
18.8013
18.8342
18.8432
18.876
18.8866
18.9195
18.9314
18.9646
18.9777
19.011
19.0253
19.0588
19.0743
19.108
19.1246
19.1585
19.1763
19.2103
19.2292
19.2633
19.2833