/*--------------------------------*- C++ -*----------------------------------*\
  =========                 |
  \\      /  F ield         | OpenFOAM: The Open Source CFD Toolbox
   \\    /   O peration     | Website:  https://openfoam.org
    \\  /    A nd           | Version:  7
     \\/     M anipulation  |
\*---------------------------------------------------------------------------*/
FoamFile
{
    version     2.0;
    format      ascii;
    class       surfaceScalarField;
    location    "0.15";
    object      phi;
}
// * * * * * * * * * * * * * * * * * * * * * * * * * * * * * * * * * * * * * //

dimensions      [1 0 -1 0 0 0 0];

internalField   nonuniform List<scalar> 
760
(
1.12327e-07
3.97082e-09
1.05979e-07
6.34665e-09
9.85109e-08
7.46809e-09
9.06294e-08
7.88123e-09
8.27349e-08
7.89438e-09
7.51411e-08
7.5937e-09
6.8097e-08
7.04397e-09
6.17602e-08
6.33664e-09
5.62075e-08
5.55239e-09
5.14558e-08
4.75151e-09
4.74704e-08
3.98497e-09
4.4187e-08
3.28302e-09
4.15227e-08
2.66378e-09
3.93895e-08
2.1326e-09
3.76983e-08
1.69039e-09
3.63695e-08
1.3278e-09
3.53328e-08
1.03568e-09
3.45295e-08
8.01937e-10
3.3932e-08
5.96029e-10
4.64117e-10
1.20521e-07
1.5629e-09
1.22054e-07
4.81277e-09
1.22978e-07
6.54386e-09
1.23236e-07
7.62236e-09
1.22802e-07
8.32829e-09
1.21729e-07
8.66641e-09
1.20109e-07
8.66328e-09
1.18051e-07
8.39373e-09
1.15671e-07
7.93199e-09
1.13084e-07
7.33759e-09
1.10397e-07
6.67159e-09
1.07701e-07
5.97769e-09
1.05061e-07
5.30291e-09
1.02537e-07
4.65631e-09
1.00143e-07
4.0828e-09
9.79365e-08
3.53336e-09
9.58668e-08
3.10422e-09
9.40546e-08
2.61284e-09
9.22874e-08
2.36205e-09
1.77827e-09
1.15821e-07
4.842e-10
1.17505e-07
3.12839e-09
1.1937e-07
4.67851e-09
1.21272e-07
5.71938e-09
1.23098e-07
6.50209e-09
1.24733e-07
7.03005e-09
1.26096e-07
7.29944e-09
1.27143e-07
7.34641e-09
1.27857e-07
7.21702e-09
1.2825e-07
6.94458e-09
1.28347e-07
6.5737e-09
1.28194e-07
6.13008e-09
1.27829e-07
5.66749e-09
1.27308e-07
5.17634e-09
1.26655e-07
4.73473e-09
1.25938e-07
4.25016e-09
1.25142e-07
3.89913e-09
1.24365e-07
3.38914e-09
1.23534e-07
3.19229e-09
2.51715e-09
1.13406e-07
2.17556e-10
1.14584e-07
1.95001e-09
1.16139e-07
3.122e-09
1.17864e-07
3.99451e-09
1.19668e-07
4.69682e-09
1.21468e-07
5.22988e-09
1.23188e-07
5.57823e-09
1.24783e-07
5.75138e-09
1.26221e-07
5.77765e-09
1.27488e-07
5.67732e-09
1.28576e-07
5.48518e-09
1.2949e-07
5.21497e-09
1.30242e-07
4.91583e-09
1.30847e-07
4.57068e-09
1.31323e-07
4.25755e-09
1.31689e-07
3.88394e-09
1.31967e-07
3.61994e-09
1.32159e-07
3.19671e-09
1.32314e-07
3.03652e-09
2.47507e-09
1.17867e-07
5.82269e-10
1.18252e-07
1.56406e-09
1.19002e-07
2.37117e-09
1.19948e-07
3.04772e-09
1.21042e-07
3.60228e-09
1.2223e-07
4.04064e-09
1.23458e-07
4.3503e-09
1.24682e-07
4.52685e-09
1.25872e-07
4.58682e-09
1.27004e-07
4.54497e-09
1.2806e-07
4.4285e-09
1.29028e-07
4.24652e-09
1.29906e-07
4.03675e-09
1.30691e-07
3.78575e-09
1.31395e-07
3.55248e-09
1.3201e-07
3.26813e-09
1.3257e-07
3.05948e-09
1.33041e-07
2.7253e-09
1.33492e-07
2.58545e-09
2.14988e-09
1.20444e-07
6.29581e-10
1.20706e-07
1.3009e-09
1.21169e-07
1.90782e-09
1.2177e-07
2.44616e-09
1.225e-07
2.87134e-09
1.23341e-07
3.19842e-09
1.24262e-07
3.42872e-09
1.25228e-07
3.56062e-09
1.26207e-07
3.60703e-09
1.27171e-07
3.58048e-09
1.28098e-07
3.50111e-09
1.28969e-07
3.37485e-09
1.29779e-07
3.22629e-09
1.30518e-07
3.04627e-09
1.31197e-07
2.8728e-09
1.31804e-07
2.66056e-09
1.32369e-07
2.49441e-09
1.32859e-07
2.23417e-09
1.33333e-07
2.11145e-09
1.76719e-09
1.23071e-07
7.0633e-10
1.23091e-07
1.28017e-09
1.23307e-07
1.69132e-09
1.23721e-07
2.03188e-09
1.24293e-07
2.29869e-09
1.24988e-07
2.50209e-09
1.25767e-07
2.64961e-09
1.26586e-07
2.74071e-09
1.27413e-07
2.77975e-09
1.28221e-07
2.77148e-09
1.28995e-07
2.7268e-09
1.29721e-07
2.64779e-09
1.30398e-07
2.54864e-09
1.3102e-07
2.4237e-09
1.31596e-07
2.29613e-09
1.32118e-07
2.13832e-09
1.32607e-07
2.00557e-09
1.33038e-07
1.80171e-09
1.33457e-07
1.69241e-09
1.41837e-09
1.16911e-07
1.91278e-10
1.17551e-07
6.3938e-10
1.18386e-07
8.55594e-10
1.19361e-07
1.05693e-09
1.20423e-07
1.23541e-09
1.21533e-07
1.39164e-09
1.22655e-07
1.52714e-09
1.23759e-07
1.6354e-09
1.24826e-07
1.71221e-09
1.25841e-07
1.75601e-09
1.26797e-07
1.7708e-09
1.27687e-07
1.75695e-09
1.28514e-07
1.72124e-09
1.29275e-07
1.66206e-09
1.2998e-07
1.59062e-09
1.30622e-07
1.49585e-09
1.31221e-07
1.4059e-09
1.31752e-07
1.26969e-09
1.32262e-07
1.18237e-09
1.00368e-09
1.22096e-07
7.66162e-10
1.21881e-07
8.5329e-10
1.2191e-07
8.26549e-10
1.22158e-07
8.07433e-10
1.22583e-07
8.10068e-10
1.23136e-07
8.37837e-10
1.23782e-07
8.8098e-10
1.24489e-07
9.27353e-10
1.25233e-07
9.67211e-10
1.25994e-07
9.95029e-10
1.26755e-07
1.00924e-09
1.27502e-07
1.00884e-09
1.28229e-07
9.94209e-10
1.28924e-07
9.66501e-10
1.29588e-07
9.2641e-10
1.30207e-07
8.75474e-10
1.30794e-07
8.18421e-10
1.31321e-07
7.42384e-10
1.31827e-07
6.7565e-10
5.94299e-10
1.1904e-07
8.85917e-10
1.19342e-07
5.51265e-10
1.19877e-07
2.90791e-10
1.20558e-07
1.25105e-10
1.21335e-07
3.27245e-11
1.22167e-07
5.55231e-12
1.23027e-07
1.99027e-11
1.23899e-07
5.49343e-11
1.24769e-07
9.63932e-11
1.25627e-07
1.36534e-10
1.26465e-07
1.70444e-10
1.27276e-07
1.97243e-10
1.28056e-07
2.13884e-10
1.28797e-07
2.24428e-10
1.295e-07
2.23312e-10
1.30154e-07
2.208e-10
1.30765e-07
2.06549e-10
1.31313e-07
1.94366e-10
1.31821e-07
1.67455e-10
1.93733e-10
1.15872e-07
4.38114e-10
1.16522e-07
-9.97913e-11
1.17363e-07
-5.50843e-10
1.18316e-07
-8.28263e-10
1.19333e-07
-9.85348e-10
1.20387e-07
-1.04863e-09
1.21454e-07
-1.0482e-09
1.22516e-07
-1.00802e-09
1.23557e-07
-9.45475e-10
1.24564e-07
-8.71135e-10
1.25529e-07
-7.94863e-10
1.26444e-07
-7.18499e-10
1.27308e-07
-6.50591e-10
1.28116e-07
-5.8335e-10
1.2887e-07
-5.32047e-10
1.29563e-07
-4.72299e-10
1.30208e-07
-4.38933e-10
1.30779e-07
-3.77224e-10
1.31321e-07
-3.75547e-10
-2.49258e-10
1.2035e-07
1.66194e-10
1.20724e-07
-4.74764e-10
1.21296e-07
-1.12307e-09
1.21992e-07
-1.52568e-09
1.2276e-07
-1.75323e-09
1.23567e-07
-1.85681e-09
1.2439e-07
-1.87225e-09
1.2521e-07
-1.82849e-09
1.26013e-07
-1.74943e-09
1.26792e-07
-1.65079e-09
1.27544e-07
-1.54747e-09
1.28267e-07
-1.44172e-09
1.28961e-07
-1.34511e-09
1.29623e-07
-1.24567e-09
1.30254e-07
-1.164e-09
1.30846e-07
-1.06448e-09
1.31405e-07
-9.98443e-10
1.31907e-07
-8.80352e-10
1.32385e-07
-8.53783e-10
-6.41455e-10
1.17229e-07
-4.97123e-10
1.17948e-07
-1.19497e-09
1.18771e-07
-1.94628e-09
1.19681e-07
-2.43717e-09
1.20647e-07
-2.72011e-09
1.21651e-07
-2.8612e-09
1.22677e-07
-2.89907e-09
1.23709e-07
-2.86096e-09
1.24731e-07
-2.77263e-09
1.25732e-07
-2.65196e-09
1.26702e-07
-2.51785e-09
1.27632e-07
-2.3731e-09
1.2852e-07
-2.23365e-09
1.29359e-07
-2.08482e-09
1.30148e-07
-1.9536e-09
1.30878e-07
-1.79541e-09
1.31556e-07
-1.6767e-09
1.32159e-07
-1.48351e-09
1.32712e-07
-1.40793e-09
-1.07087e-09
1.20151e-07
-6.04353e-10
1.20346e-07
-1.39108e-09
1.20629e-07
-2.23016e-09
1.21047e-07
-2.85547e-09
1.21606e-07
-3.28019e-09
1.22298e-07
-3.5539e-09
1.23106e-07
-3.70783e-09
1.24004e-07
-3.75949e-09
1.24962e-07
-3.73158e-09
1.25951e-07
-3.64098e-09
1.26943e-07
-3.51129e-09
1.27916e-07
-3.34653e-09
1.28855e-07
-3.17244e-09
1.29741e-07
-2.97141e-09
1.30572e-07
-2.78595e-09
1.31333e-07
-2.55673e-09
1.32036e-07
-2.38026e-09
1.32652e-07
-2.10033e-09
1.33224e-07
-1.98065e-09
-1.52619e-09
1.18929e-07
-1.11362e-09
1.19599e-07
-2.06268e-09
1.20407e-07
-3.03871e-09
1.21327e-07
-3.77651e-09
1.22346e-07
-4.29895e-09
1.23437e-07
-4.64594e-09
1.24568e-07
-4.83989e-09
1.25708e-07
-4.90057e-09
1.26836e-07
-4.85942e-09
1.27932e-07
-4.73784e-09
1.28985e-07
-4.56533e-09
1.29984e-07
-4.34556e-09
1.30923e-07
-4.11244e-09
1.31792e-07
-3.84133e-09
1.32597e-07
-3.59106e-09
1.33321e-07
-3.28155e-09
1.33986e-07
-3.04603e-09
1.34561e-07
-2.67588e-09
1.35095e-07
-2.51448e-09
-1.95634e-09
1.2386e-07
-1.21444e-09
1.24413e-07
-2.61663e-09
1.25139e-07
-3.76542e-09
1.25935e-07
-4.57311e-09
1.26784e-07
-5.14861e-09
1.27674e-07
-5.53686e-09
1.28586e-07
-5.7528e-09
1.29507e-07
-5.822e-09
1.30426e-07
-5.77964e-09
1.31333e-07
-5.6451e-09
1.32214e-07
-5.44711e-09
1.33055e-07
-5.18739e-09
1.33847e-07
-4.90512e-09
1.34577e-07
-4.5715e-09
1.35246e-07
-4.26056e-09
1.35839e-07
-3.87492e-09
1.36378e-07
-3.58577e-09
1.36831e-07
-3.12981e-09
1.37257e-07
-2.94127e-09
-2.27512e-09
1.19681e-07
-1.36005e-09
1.20512e-07
-3.44848e-09
1.21581e-07
-4.83491e-09
1.22813e-07
-5.80575e-09
1.24199e-07
-6.53507e-09
1.25683e-07
-7.02168e-09
1.272e-07
-7.27118e-09
1.28696e-07
-7.31821e-09
1.3012e-07
-7.20444e-09
1.31431e-07
-6.95731e-09
1.32599e-07
-6.6149e-09
1.33605e-07
-6.19498e-09
1.34445e-07
-5.74576e-09
1.35127e-07
-5.25321e-09
1.3566e-07
-4.79449e-09
1.36064e-07
-4.28007e-09
1.36364e-07
-3.88557e-09
1.36566e-07
-3.33294e-09
1.36715e-07
-3.09118e-09
-2.32703e-09
1.21548e-07
-1.62136e-09
1.22573e-07
-4.47431e-09
1.23839e-07
-6.10142e-09
1.25303e-07
-7.27003e-09
1.26874e-07
-8.10675e-09
1.2841e-07
-8.55865e-09
1.29786e-07
-8.6478e-09
1.30915e-07
-8.44838e-09
1.31746e-07
-8.03591e-09
1.32259e-07
-7.4714e-09
1.32462e-07
-6.81823e-09
1.32388e-07
-6.122e-09
1.32074e-07
-5.43213e-09
1.31579e-07
-4.75917e-09
1.30935e-07
-4.15076e-09
1.30216e-07
-3.56156e-09
1.29418e-07
-3.08842e-09
1.28642e-07
-2.55782e-09
1.2782e-07
-2.26975e-09
-1.62317e-09
1.20482e-07
-4.39095e-09
1.2253e-07
-6.52243e-09
1.2398e-07
-7.55259e-09
1.24704e-07
-7.99508e-09
1.24667e-07
-8.07066e-09
1.23924e-07
-7.81644e-09
1.22569e-07
-7.29315e-09
1.20717e-07
-6.59692e-09
1.18491e-07
-5.81064e-09
1.16014e-07
-4.9951e-09
1.13399e-07
-4.20477e-09
1.10749e-07
-3.47283e-09
1.08138e-07
-2.82111e-09
1.05635e-07
-2.25714e-09
1.03266e-07
-1.7825e-09
1.01093e-07
-1.38936e-09
9.90731e-08
-1.06942e-09
9.7323e-08
-8.08559e-10
9.5632e-08
-5.79405e-10
-4.01452e-10
1.16617e-07
1.10094e-07
1.0254e-07
9.45444e-08
8.64729e-08
7.86557e-08
7.13618e-08
6.47641e-08
5.89527e-08
5.39569e-08
4.97513e-08
4.62777e-08
4.34558e-08
4.11979e-08
3.94147e-08
3.80246e-08
3.69544e-08
3.61451e-08
3.55649e-08
)
;

boundaryField
{
    upperWall
    {
        type            calculated;
        value           uniform 0;
    }
    lowerWall
    {
        type            calculated;
        value           uniform 0;
    }
    inlet
    {
        type            calculated;
        value           nonuniform List<scalar> 
20
(
-1.16298e-07
-1.18114e-07
-1.14743e-07
-1.1314e-07
-1.18232e-07
-1.20491e-07
-1.23148e-07
-1.16397e-07
-1.22671e-07
-1.19161e-07
-1.15425e-07
-1.20079e-07
-1.16566e-07
-1.20044e-07
-1.1842e-07
-1.2376e-07
-1.19536e-07
-1.21288e-07
-1.17713e-07
-1.21008e-07
)
;
    }
    outlet
    {
        type            calculated;
        value           nonuniform List<scalar> 
20
(
3.34665e-08
9.09722e-08
1.22794e-07
1.32356e-07
1.33817e-07
1.33715e-07
1.33806e-07
1.32676e-07
1.32237e-07
1.32221e-07
1.31764e-07
1.32777e-07
1.33141e-07
1.3368e-07
1.35524e-07
1.37576e-07
1.36767e-07
1.27116e-07
9.44098e-08
3.51628e-08
)
;
    }
    frontAndBack
    {
        type            empty;
        value           nonuniform 0();
    }
}


// ************************************************************************* //
