/*--------------------------------*- C++ -*----------------------------------*\
  =========                 |
  \\      /  F ield         | OpenFOAM: The Open Source CFD Toolbox
   \\    /   O peration     | Website:  https://openfoam.org
    \\  /    A nd           | Version:  7
     \\/     M anipulation  |
\*---------------------------------------------------------------------------*/
FoamFile
{
    version     2.0;
    format      ascii;
    class       volScalarField;
    location    "0.0225";
    object      nut;
}
// * * * * * * * * * * * * * * * * * * * * * * * * * * * * * * * * * * * * * //

dimensions      [0 2 -1 0 0 0 0];

internalField   nonuniform List<scalar> 
1440
(
0.000274711
0.00063929
0.00102185
0.00134584
0.00160192
0.001795
0.00193038
0.00202113
0.00207247
0.00210054
0.00210031
0.00209324
0.002076
0.00204971
0.00201971
0.00198777
0.00195518
0.00192285
0.00189137
0.00186117
0.00183247
0.00180543
0.00178008
0.00175641
0.0017344
0.00171395
0.00169498
0.0016774
0.00166108
0.00164593
0.00163185
0.00161873
0.00160647
0.00159499
0.00158422
0.00157408
0.0015645
0.00155545
0.00154687
0.00153873
0.00153101
0.00152366
0.00151669
0.00151006
0.00150375
0.00149775
0.00149203
0.00148656
0.00148133
0.00147631
0.00147144
0.0014667
0.00146204
0.00145743
0.00145285
0.0014483
0.00144379
0.00143931
0.00143487
0.00143049
0.00142619
0.00142195
0.00141781
0.00141375
0.00140978
0.0014059
0.00140211
0.00139841
0.00139479
0.00139124
0.00138776
0.00138434
0.00138097
0.00137766
0.00137438
0.00137115
0.00136794
0.00136477
0.00136162
0.0013585
0.0013554
0.00135233
0.00134928
0.00134627
0.00134329
0.00134035
0.00133745
0.00133459
0.00133179
0.00132904
0.00132635
0.00132372
0.00132115
0.00131864
0.00131621
0.00131383
0.00131153
0.00130929
0.00130712
0.00130502
0.00130298
0.00130102
0.00129912
0.0012973
0.00129555
0.00129388
0.00129229
0.0012908
0.00128937
0.00128806
0.00128681
0.0012857
0.00128463
0.00128372
0.00128281
0.00128211
0.00128136
0.00128082
0.0012803
0.0012797
1.32763e-05
6.25071e-05
0.000139411
0.000238678
0.000364224
0.000496064
0.000616126
0.000724851
0.000815002
0.000890831
0.000950115
0.000996488
0.0010321
0.00105846
0.00107743
0.00109065
0.00109943
0.0011049
0.00110789
0.00110915
0.00110898
0.00110838
0.00110711
0.00110553
0.00110382
0.00110211
0.00110047
0.00109895
0.00109757
0.00109634
0.00109528
0.00109437
0.00109361
0.00109299
0.00109249
0.00109209
0.00109177
0.00109152
0.00109131
0.00109111
0.00109092
0.0010907
0.00109045
0.00109014
0.00108977
0.00108934
0.00108884
0.00108828
0.00108767
0.00108703
0.00108638
0.00108574
0.00108513
0.00108458
0.00108408
0.00108366
0.00108329
0.00108296
0.00108266
0.00108236
0.00108206
0.00108172
0.00108136
0.00108094
0.00108049
0.00107998
0.00107943
0.00107885
0.00107823
0.00107758
0.00107692
0.00107624
0.00107556
0.00107487
0.00107419
0.00107351
0.00107283
0.00107216
0.0010715
0.00107085
0.0010702
0.00106955
0.00106891
0.00106826
0.00106761
0.00106696
0.0010663
0.00106562
0.00106494
0.00106425
0.00106355
0.00106284
0.00106211
0.00106138
0.00106063
0.00105987
0.00105909
0.00105831
0.00105752
0.00105672
0.00105591
0.0010551
0.00105429
0.00105346
0.00105263
0.00105178
0.00105094
0.00105007
0.00104923
0.00104833
0.0010475
0.00104657
0.0010458
0.00104483
0.00104414
0.00104311
0.00104254
0.00104147
0.00104097
0.00103975
1.61182e-06
3.52972e-06
9.79705e-06
2.12105e-05
3.91598e-05
6.36424e-05
9.54584e-05
0.000132753
0.000171128
0.000209859
0.000247175
0.000282208
0.00031442
0.000343576
0.000369537
0.000392444
0.000412411
0.000429735
0.000444615
0.000457384
0.000468243
0.000477488
0.000485341
0.000492007
0.000497673
0.000502504
0.000506647
0.000510228
0.000513355
0.000516123
0.000518613
0.000520892
0.000523019
0.000525041
0.000526999
0.000528924
0.000530841
0.000532767
0.000534717
0.000536699
0.000538719
0.000540779
0.000542878
0.000545015
0.00054719
0.000549401
0.000551647
0.000553928
0.000556245
0.000558603
0.000561005
0.000563456
0.000565963
0.00056853
0.00057116
0.000573853
0.000576606
0.000579416
0.000582275
0.000585178
0.000588112
0.000591072
0.000594045
0.000597026
0.000600005
0.000602979
0.000605938
0.000608883
0.000611806
0.000614713
0.000617593
0.00062046
0.0006233
0.000626129
0.000628935
0.000631736
0.000634518
0.000637299
0.000640063
0.00064283
0.000645581
0.000648336
0.000651074
0.000653815
0.000656533
0.000659249
0.000661937
0.000664614
0.000667256
0.00066988
0.000672462
0.000675017
0.000677529
0.000680004
0.000682442
0.000684826
0.000687183
0.00068946
0.000691728
0.000693884
0.000696057
0.000698088
0.000700153
0.000702049
0.000703992
0.000705735
0.000707544
0.000709111
0.000710771
0.000712149
0.000713622
0.000714807
0.000716057
0.000717064
0.000718052
0.000718937
0.000719629
0.000720448
0.00072082
0.000721612
1.57835e-06
1.59132e-06
1.68515e-06
2.15758e-06
3.51318e-06
6.06276e-06
1.00158e-05
1.54668e-05
2.27688e-05
3.14346e-05
4.1039e-05
5.1327e-05
6.19499e-05
7.2708e-05
8.33544e-05
9.37612e-05
0.000103781
0.000113331
0.00012234
0.000130797
0.000138689
0.000146022
0.000152805
0.000159064
0.000164831
0.00017015
0.000175051
0.000179568
0.00018373
0.000187574
0.000191132
0.000194438
0.000197518
0.000200401
0.000203102
0.000205641
0.000208035
0.000210308
0.000212474
0.000214542
0.000216516
0.000218407
0.000220222
0.000221975
0.000223668
0.000225313
0.000226907
0.000228464
0.000229986
0.00023149
0.000232975
0.00023446
0.000235942
0.000237442
0.000238949
0.000240489
0.000242037
0.000243627
0.000245227
0.000246875
0.000248528
0.000250226
0.000251913
0.000253642
0.000255354
0.000257117
0.000258858
0.000260649
0.000262408
0.000264213
0.00026599
0.00026782
0.000269632
0.000271497
0.000273346
0.000275246
0.000277131
0.000279078
0.000281011
0.000283014
0.000285005
0.000287052
0.000289109
0.000291183
0.000293315
0.000295407
0.000297613
0.000299723
0.000301972
0.000304109
0.000306368
0.000308542
0.00031079
0.000313002
0.00031524
0.000317466
0.000319695
0.000321928
0.000324144
0.000326387
0.000328576
0.000330833
0.000332988
0.000335248
0.000337348
0.000339614
0.000341631
0.000343919
0.000345808
0.000348111
0.000349853
0.000352148
0.00035372
0.000355984
0.000357354
0.000359565
0.000360731
0.000362867
0.000363871
0.00036629
1.57722e-06
1.58196e-06
1.59379e-06
1.61917e-06
1.66319e-06
1.74935e-06
1.92402e-06
2.26413e-06
2.85446e-06
3.80353e-06
5.01707e-06
6.66677e-06
8.55226e-06
1.053e-05
1.26574e-05
1.50091e-05
1.746e-05
1.98611e-05
2.22002e-05
2.45841e-05
2.70048e-05
2.93661e-05
3.15916e-05
3.37287e-05
3.58387e-05
3.79204e-05
3.99074e-05
4.17941e-05
4.36088e-05
4.53795e-05
4.70872e-05
4.8727e-05
5.03169e-05
5.18821e-05
5.33994e-05
5.48455e-05
5.62313e-05
5.7605e-05
5.89817e-05
6.03311e-05
6.16093e-05
6.28263e-05
6.40243e-05
6.5237e-05
6.64381e-05
6.75915e-05
6.86798e-05
6.97463e-05
7.08205e-05
7.19068e-05
7.29633e-05
7.39776e-05
7.49601e-05
7.59705e-05
7.70049e-05
7.80575e-05
7.90604e-05
8.00382e-05
8.09963e-05
8.20162e-05
8.30641e-05
8.41334e-05
8.51309e-05
8.60925e-05
8.70161e-05
8.80045e-05
8.90216e-05
9.00752e-05
9.10573e-05
9.19928e-05
9.28714e-05
9.37937e-05
9.47526e-05
9.5765e-05
9.67453e-05
9.769e-05
9.85707e-05
9.94669e-05
0.000100387
0.000101371
0.000102372
0.000103353
0.000104311
0.000105209
0.000106167
0.000107093
0.000108143
0.000109111
0.000110162
0.000111091
0.000112093
0.000113014
0.000114017
0.000114977
0.000116007
0.000116983
0.000118001
0.000118941
0.000119924
0.000120839
0.00012183
0.000122781
0.0001238
0.000124755
0.000125721
0.000126657
0.000127524
0.000128527
0.000129309
0.000130379
0.000131093
0.000132157
0.000132821
0.00013383
0.000134424
0.000135401
0.000135874
0.000136765
0.000137189
0.000138212
1.5767e-06
1.58003e-06
1.58986e-06
1.61381e-06
1.64505e-06
1.70402e-06
1.78955e-06
1.84644e-06
1.9389e-06
2.08603e-06
2.18049e-06
2.27978e-06
2.47265e-06
2.67077e-06
2.80445e-06
2.97105e-06
3.31042e-06
3.60777e-06
3.79482e-06
4.07391e-06
4.45446e-06
4.81474e-06
5.10423e-06
5.39677e-06
5.76594e-06
6.16447e-06
6.50013e-06
6.81023e-06
7.1571e-06
7.52969e-06
7.87778e-06
8.19866e-06
8.52964e-06
8.8994e-06
9.26904e-06
9.59319e-06
9.88776e-06
1.02194e-05
1.06014e-05
1.09789e-05
1.13039e-05
1.15949e-05
1.19023e-05
1.22594e-05
1.26401e-05
1.29867e-05
1.32754e-05
1.3557e-05
1.38903e-05
1.42708e-05
1.46295e-05
1.49311e-05
1.52108e-05
1.55389e-05
1.59204e-05
1.63172e-05
1.66714e-05
1.69882e-05
1.72984e-05
1.76592e-05
1.80731e-05
1.85157e-05
1.89173e-05
1.92594e-05
1.9561e-05
1.99063e-05
2.03282e-05
2.08101e-05
2.12582e-05
2.16198e-05
2.19083e-05
2.22157e-05
2.26082e-05
2.30867e-05
2.35699e-05
2.39825e-05
2.4302e-05
2.45942e-05
2.49393e-05
2.5373e-05
2.58643e-05
2.63268e-05
2.67301e-05
2.70505e-05
2.73849e-05
2.77439e-05
2.81981e-05
2.86486e-05
2.91133e-05
2.94976e-05
2.98761e-05
3.02076e-05
3.05898e-05
3.09731e-05
3.14185e-05
3.18311e-05
3.2258e-05
3.26092e-05
3.29863e-05
3.33157e-05
3.37159e-05
3.40918e-05
3.45265e-05
3.49086e-05
3.53093e-05
3.5658e-05
3.59836e-05
3.63567e-05
3.66534e-05
3.70836e-05
3.73874e-05
3.7839e-05
3.81181e-05
3.85361e-05
3.87699e-05
3.91558e-05
3.9346e-05
3.96859e-05
3.98518e-05
4.0267e-05
1.57669e-06
1.57999e-06
1.58985e-06
1.61087e-06
1.64732e-06
1.71544e-06
1.76904e-06
1.83776e-06
1.96652e-06
2.08298e-06
2.16339e-06
2.26937e-06
2.45148e-06
2.66489e-06
2.81492e-06
2.93464e-06
3.15894e-06
3.46255e-06
3.73506e-06
3.92715e-06
4.13115e-06
4.39648e-06
4.70852e-06
4.99829e-06
5.21435e-06
5.39747e-06
5.61772e-06
5.89649e-06
6.17301e-06
6.37954e-06
6.51794e-06
6.67073e-06
6.90561e-06
7.16332e-06
7.35813e-06
7.4787e-06
7.58721e-06
7.76934e-06
8.01111e-06
8.21339e-06
8.3329e-06
8.43675e-06
8.59169e-06
8.80413e-06
9.01637e-06
9.17148e-06
9.28209e-06
9.42209e-06
9.61976e-06
9.83331e-06
1.00083e-05
1.0136e-05
1.02552e-05
1.04181e-05
1.06219e-05
1.08153e-05
1.09572e-05
1.10581e-05
1.1159e-05
1.13018e-05
1.14859e-05
1.16682e-05
1.18021e-05
1.18893e-05
1.19664e-05
1.20749e-05
1.22244e-05
1.2395e-05
1.25466e-05
1.26536e-05
1.27281e-05
1.28018e-05
1.29046e-05
1.30359e-05
1.31835e-05
1.33179e-05
1.34199e-05
1.34908e-05
1.35614e-05
1.365e-05
1.37682e-05
1.38935e-05
1.40314e-05
1.41458e-05
1.42477e-05
1.43269e-05
1.44355e-05
1.45404e-05
1.46763e-05
1.4793e-05
1.49165e-05
1.50158e-05
1.51389e-05
1.52611e-05
1.54212e-05
1.55631e-05
1.57166e-05
1.58412e-05
1.5984e-05
1.61288e-05
1.62908e-05
1.64663e-05
1.66178e-05
1.67971e-05
1.69264e-05
1.71146e-05
1.72355e-05
1.74254e-05
1.75468e-05
1.77358e-05
1.78532e-05
1.8062e-05
1.81708e-05
1.83733e-05
1.84787e-05
1.86695e-05
1.8763e-05
1.89478e-05
1.90402e-05
1.92697e-05
1.57719e-06
1.58183e-06
1.59353e-06
1.61877e-06
1.66224e-06
1.74679e-06
1.91751e-06
2.24757e-06
2.82207e-06
3.74367e-06
4.96357e-06
6.46989e-06
8.31568e-06
1.02795e-05
1.23193e-05
1.44666e-05
1.67425e-05
1.9034e-05
2.12498e-05
2.33837e-05
2.55022e-05
2.76099e-05
2.96344e-05
3.15253e-05
3.32995e-05
3.50106e-05
3.66833e-05
3.8289e-05
3.97889e-05
4.11819e-05
4.2494e-05
4.37737e-05
4.50385e-05
4.62585e-05
4.73856e-05
4.84232e-05
4.94271e-05
5.04591e-05
5.15007e-05
5.24848e-05
5.3374e-05
5.42258e-05
5.51122e-05
5.6043e-05
5.69475e-05
5.77809e-05
5.8561e-05
5.93608e-05
6.02059e-05
6.10601e-05
6.18588e-05
6.25946e-05
6.33089e-05
6.40619e-05
6.48473e-05
6.56207e-05
6.63215e-05
6.69636e-05
6.75929e-05
6.82724e-05
6.89881e-05
6.96981e-05
7.0337e-05
7.09129e-05
7.14634e-05
7.20635e-05
7.27213e-05
7.3407e-05
7.4038e-05
7.45865e-05
7.50795e-05
7.55965e-05
7.61912e-05
7.68373e-05
7.74647e-05
7.80077e-05
7.84867e-05
7.89576e-05
7.94881e-05
8.00667e-05
8.06762e-05
8.12339e-05
8.17827e-05
8.22663e-05
8.28247e-05
8.33441e-05
8.39816e-05
8.45717e-05
8.52479e-05
8.58477e-05
8.64905e-05
8.70723e-05
8.77342e-05
8.83789e-05
8.91249e-05
8.98266e-05
9.05556e-05
9.12218e-05
9.19137e-05
9.25959e-05
9.33317e-05
9.40527e-05
9.47735e-05
9.54552e-05
9.61366e-05
9.68043e-05
9.74457e-05
9.81163e-05
9.87014e-05
9.93632e-05
9.98727e-05
0.000100552
0.000101004
0.000101672
0.000102024
0.00010263
0.000102942
0.00010355
0.000103834
0.000104515
1.57829e-06
1.5907e-06
1.67988e-06
2.13568e-06
3.46506e-06
5.97988e-06
9.89028e-06
1.52748e-05
2.25002e-05
3.1029e-05
4.05143e-05
5.05993e-05
6.10355e-05
7.15303e-05
8.19097e-05
9.19892e-05
0.000101669
0.000110841
0.000119466
0.000127509
0.000134978
0.000141879
0.000148231
0.000154058
0.000159395
0.000164281
0.000168756
0.000172857
0.000176614
0.000180058
0.000183222
0.000186144
0.000188852
0.000191372
0.000193717
0.000195911
0.000197975
0.000199937
0.000201811
0.00020361
0.000205336
0.000207007
0.000208634
0.000210237
0.000211812
0.000213365
0.000214896
0.000216418
0.000217931
0.00021944
0.000220937
0.000222429
0.000223913
0.000225401
0.000226883
0.000228368
0.000229839
0.000231316
0.000232786
0.000234276
0.000235765
0.000237271
0.000238768
0.000240281
0.000241791
0.000243333
0.000244877
0.00024645
0.000248012
0.000249589
0.000251163
0.000252758
0.000254367
0.000255988
0.000257617
0.000259248
0.00026089
0.000262544
0.000264222
0.000265914
0.000267641
0.00026936
0.000271148
0.000272893
0.000274769
0.000276552
0.000278513
0.000280356
0.000282388
0.000284295
0.000286383
0.000288348
0.00029049
0.000292505
0.000294688
0.000296753
0.00029893
0.000301042
0.000303182
0.000305338
0.000307437
0.000309606
0.000311647
0.00031381
0.000315764
0.000317919
0.000319761
0.000321937
0.000323635
0.0003258
0.000327335
0.000329491
0.000330863
0.000332997
0.000334212
0.000336297
0.000337356
0.000339376
0.000340334
0.000342675
1.60939e-06
3.44663e-06
9.59547e-06
2.08892e-05
3.87442e-05
6.30555e-05
9.47672e-05
0.000131737
0.000169916
0.000208376
0.00024537
0.000280077
0.00031199
0.000340803
0.000366466
0.000389044
0.000408746
0.000425789
0.00044047
0.000453033
0.000463777
0.00047292
0.00048072
0.000487376
0.000493072
0.000497974
0.000502221
0.000505941
0.000509234
0.000512198
0.000514904
0.000517419
0.000519801
0.000522093
0.000524333
0.000526557
0.000528788
0.000531046
0.000533352
0.000535714
0.000538145
0.00054065
0.000543228
0.000545887
0.000548618
0.000551423
0.000554296
0.000557228
0.000560216
0.000563252
0.000566326
0.000569433
0.000572565
0.000575717
0.000578882
0.000582056
0.000585234
0.000588414
0.00059159
0.000594765
0.000597931
0.00060109
0.000604236
0.000607371
0.000610486
0.000613587
0.000616661
0.000619716
0.000622738
0.000625737
0.000628698
0.000631633
0.000634527
0.000637396
0.000640224
0.000643029
0.000645795
0.000648544
0.00065126
0.000653966
0.000656645
0.000659322
0.000661979
0.000664639
0.000667286
0.000669937
0.000672581
0.000675224
0.000677862
0.000680491
0.000683114
0.000685717
0.000688314
0.000690871
0.000693429
0.000695917
0.000698416
0.000700811
0.000703224
0.000705502
0.000707806
0.000709958
0.000712134
0.000714153
0.000716176
0.000718048
0.000719901
0.000721613
0.000723283
0.000724832
0.000726302
0.0007277
0.000728938
0.000730208
0.000731204
0.000732374
0.000733131
0.000734252
0.000734781
0.000736002
1.28947e-05
6.13178e-05
0.000137801
0.000236824
0.000362602
0.000493454
0.000614155
0.000722021
0.000812374
0.000887558
0.000946456
0.000992768
0.00102818
0.00105445
0.00107346
0.00108682
0.00109589
0.00110174
0.00110526
0.00110713
0.00110784
0.00110774
0.00110739
0.0011067
0.00110592
0.00110515
0.00110446
0.00110389
0.00110344
0.00110315
0.00110294
0.00110291
0.00110296
0.00110307
0.00110328
0.00110355
0.00110386
0.00110421
0.00110457
0.00110494
0.00110532
0.00110568
0.00110603
0.00110636
0.00110664
0.00110689
0.0011071
0.00110724
0.00110736
0.00110739
0.00110738
0.00110732
0.00110721
0.00110703
0.00110681
0.00110654
0.00110624
0.00110591
0.00110555
0.00110518
0.00110479
0.00110438
0.00110398
0.00110356
0.00110314
0.00110272
0.0011023
0.00110188
0.00110145
0.00110103
0.0011006
0.00110017
0.00109974
0.0010993
0.00109887
0.00109845
0.00109802
0.00109761
0.0010972
0.0010968
0.0010964
0.00109602
0.00109565
0.00109528
0.00109493
0.00109457
0.00109422
0.00109387
0.00109352
0.00109317
0.0010928
0.00109243
0.00109204
0.00109164
0.00109122
0.00109078
0.00109032
0.00108985
0.00108935
0.00108884
0.00108832
0.00108779
0.00108725
0.0010867
0.00108614
0.00108556
0.001085
0.00108441
0.00108384
0.00108324
0.0010827
0.00108209
0.00108159
0.00108097
0.00108053
0.0010799
0.00107955
0.00107891
0.00107863
0.00107797
0.000274608
0.000638252
0.00102135
0.00134386
0.00159864
0.0017888
0.00192175
0.00200814
0.00205711
0.00207903
0.00207683
0.00206669
0.00204467
0.0020152
0.00198228
0.00194774
0.00191286
0.00187852
0.00184533
0.00181367
0.00178374
0.00175567
0.00172948
0.00170514
0.00168258
0.00166171
0.00164243
0.00162461
0.00160814
0.0015929
0.00157879
0.00156568
0.00155349
0.00154211
0.00153146
0.00152146
0.00151203
0.00150312
0.00149467
0.00148661
0.00147892
0.00147155
0.00146446
0.00145764
0.00145106
0.0014447
0.00143856
0.00143261
0.00142686
0.00142129
0.00141591
0.0014107
0.00140566
0.00140078
0.00139607
0.00139151
0.0013871
0.00138283
0.0013787
0.00137468
0.00137079
0.00136701
0.00136334
0.00135977
0.00135629
0.00135291
0.00134962
0.00134641
0.00134329
0.00134026
0.0013373
0.00133442
0.00133161
0.00132887
0.0013262
0.00132359
0.00132103
0.00131852
0.00131606
0.00131363
0.00131124
0.00130888
0.00130655
0.00130424
0.00130195
0.00129967
0.00129742
0.00129518
0.00129296
0.00129077
0.0012886
0.00128646
0.00128436
0.00128229
0.00128028
0.00127831
0.0012764
0.00127455
0.00127276
0.00127104
0.00126939
0.00126782
0.00126633
0.00126491
0.00126358
0.00126233
0.00126116
0.00126009
0.00125908
0.00125818
0.00125733
0.00125659
0.00125588
0.00125528
0.0012547
0.00125421
0.00125376
0.0012533
0.00125304
0.00125246
)
;

boundaryField
{
    upperWall
    {
        type            zeroGradient;
    }
    lowerWall
    {
        type            zeroGradient;
    }
    inlet
    {
        type            zeroGradient;
    }
    outlet
    {
        type            zeroGradient;
    }
    frontAndBack
    {
        type            empty;
    }
}


// ************************************************************************* //
