/*--------------------------------*- C++ -*----------------------------------*\
  =========                 |
  \\      /  F ield         | OpenFOAM: The Open Source CFD Toolbox
   \\    /   O peration     | Website:  https://openfoam.org
    \\  /    A nd           | Version:  7
     \\/     M anipulation  |
\*---------------------------------------------------------------------------*/
FoamFile
{
    version     2.0;
    format      ascii;
    class       volScalarField;
    location    "0.635";
    object      k;
}
// * * * * * * * * * * * * * * * * * * * * * * * * * * * * * * * * * * * * * //

dimensions      [0 2 -2 0 0 0 0];

internalField   nonuniform List<scalar> 
7920
(
52.0459
56.509
56.5256
56.5459
56.4418
56.4337
56.3686
56.3827
56.3511
56.377
56.365
56.394
56.3886
56.4097
56.4018
56.4089
56.4049
56.3797
56.4492
56.5744
13.8448
14.0145
13.4374
12.8793
12.6085
12.5024
12.4132
12.3886
12.3455
12.3401
12.3175
12.3181
12.3039
12.305
12.2951
12.2945
12.2888
12.2811
12.4526
12.4595
8.08571
9.22444
9.33958
9.32009
9.26965
9.25249
9.2225
9.21799
9.20254
9.20242
9.19503
9.19963
9.1984
9.20514
9.20502
9.20907
9.20704
9.20686
9.21034
9.23512
7.48252
8.75515
9.00538
9.0913
9.10508
9.12905
9.12916
9.14355
9.1456
9.15828
9.16037
9.17347
9.18019
9.19856
9.20742
9.22401
9.22916
9.23986
9.24271
9.26947
7.41755
8.70127
8.96463
9.06658
9.09385
9.13107
9.14098
9.16908
9.17968
9.20457
9.21303
9.2348
9.24639
9.27333
9.28891
9.31587
9.32775
9.34805
9.35561
9.3877
7.42448
8.69777
8.95948
9.06281
9.09379
9.1357
9.1501
9.18471
9.19986
9.23137
9.24382
9.27086
9.28557
9.31722
9.3367
9.36938
9.38559
9.41121
9.42334
9.4572
7.42448
8.69777
8.95948
9.06281
9.09379
9.1357
9.1501
9.18471
9.19986
9.23138
9.24381
9.27088
9.28555
9.31725
9.33667
9.36943
9.38558
9.41124
9.42341
9.45723
7.41755
8.70127
8.96463
9.06658
9.09384
9.13107
9.14097
9.16909
9.17967
9.2046
9.21301
9.23486
9.24633
9.27344
9.28875
9.31608
9.32763
9.3482
9.35574
9.38785
7.48252
8.75515
9.00538
9.0913
9.10507
9.12906
9.12915
9.14357
9.14558
9.15833
9.16032
9.17358
9.18008
9.19879
9.20706
9.22452
9.2289
9.24041
9.24245
9.26979
8.08571
9.22444
9.33958
9.32009
9.26965
9.2525
9.22249
9.218
9.20252
9.20246
9.19496
9.19974
9.1982
9.20545
9.20454
9.20982
9.20583
9.20863
9.20888
9.23708
13.8448
14.0145
13.4374
12.8793
12.6085
12.5025
12.4132
12.3886
12.3455
12.3401
12.3174
12.3182
12.3037
12.3053
12.2945
12.2953
12.2871
12.2839
12.4463
12.4656
52.0459
56.509
56.5256
56.5459
56.4418
56.4337
56.3685
56.3827
56.351
56.3771
56.3648
56.3943
56.388
56.4106
56.4001
56.4117
56.3999
56.3882
56.4331
56.6046
7.67834
9.67782
9.76078
9.63003
9.59181
9.51856
9.51527
9.47491
9.47761
9.45143
9.45608
9.43767
9.44181
9.42739
9.43037
9.41744
9.42108
9.40491
9.40675
9.45474
6.02087
8.24971
8.58728
8.62494
8.62284
8.61818
8.61437
8.61327
8.61301
8.61413
8.61656
8.61885
8.62152
8.6223
8.62333
8.62181
8.6208
8.61693
8.61959
8.62473
5.70236
7.9034
8.2516
8.31495
8.31685
8.32367
8.32441
8.33326
8.3376
8.34804
8.35503
8.36787
8.3782
8.39022
8.39947
8.40628
8.41238
8.41299
8.41418
8.4426
5.6936
7.89399
8.23886
8.29829
8.29339
8.2913
8.28429
8.28693
8.28689
8.2919
8.29515
8.30437
8.31412
8.3283
8.34105
8.35262
8.36249
8.36821
8.37303
8.39543
5.68185
7.8783
8.22315
8.28411
8.27858
8.27518
8.26511
8.2658
8.26313
8.26573
8.26541
8.27006
8.27607
8.28925
8.30062
8.31498
8.32342
8.33468
8.33802
8.3646
5.68823
7.88635
8.23024
8.29055
8.28483
8.28134
8.27099
8.27153
8.26851
8.2707
8.26931
8.27247
8.2766
8.2885
8.29897
8.31405
8.32191
8.33441
8.33722
8.36315
5.68823
7.88635
8.23024
8.29055
8.28483
8.28134
8.27099
8.27153
8.26851
8.27071
8.2693
8.27249
8.27659
8.28852
8.29894
8.31408
8.3219
8.33439
8.33725
8.36307
5.68185
7.8783
8.22315
8.28411
8.27858
8.27519
8.2651
8.26581
8.26312
8.26576
8.26539
8.27012
8.27598
8.28936
8.30045
8.31515
8.32325
8.33479
8.33798
8.36452
5.6936
7.89399
8.23886
8.29829
8.29339
8.29131
8.28428
8.28695
8.28687
8.29195
8.29511
8.30448
8.31388
8.32862
8.34059
8.3532
8.36178
8.36889
8.37271
8.39552
5.70236
7.9034
8.2516
8.31495
8.31685
8.32367
8.32441
8.33328
8.33758
8.34809
8.35492
8.36804
8.37789
8.39069
8.39873
8.40734
8.41095
8.41458
8.41232
8.44402
6.02087
8.24971
8.58728
8.62494
8.62284
8.61819
8.61437
8.61328
8.61299
8.61416
8.6165
8.61894
8.62135
8.62255
8.62295
8.62247
8.61946
8.61906
8.61642
8.62927
7.67834
9.67782
9.76078
9.63003
9.59181
9.51856
9.51526
9.47491
9.4776
9.45144
9.45606
9.4377
9.44177
9.42751
9.43022
9.41781
9.42058
9.40615
9.40501
9.45878
0.477185
1.03768
1.13777
1.10971
1.03823
0.973306
0.922649
0.887344
0.861341
0.841924
0.828009
0.816154
0.808189
0.800373
0.795392
0.790476
0.78657
0.785672
0.779036
0.791511
0.0862058
0.382646
0.526707
0.588598
0.610533
0.624428
0.631482
0.639369
0.643649
0.648228
0.650153
0.652
0.652302
0.652574
0.652259
0.651922
0.65126
0.650404
0.65007
0.652478
0.0645683
0.300209
0.41629
0.474178
0.492339
0.505683
0.508822
0.515295
0.517691
0.522871
0.525711
0.530396
0.533421
0.537074
0.539951
0.542378
0.544956
0.546136
0.547416
0.550629
0.0684705
0.303949
0.417538
0.472874
0.490536
0.501584
0.503173
0.506248
0.506473
0.507692
0.508226
0.509728
0.510821
0.512308
0.513742
0.51475
0.516301
0.516885
0.517926
0.520773
0.0666508
0.299944
0.412422
0.467714
0.484941
0.495945
0.497254
0.500046
0.499922
0.500542
0.5005
0.501092
0.50142
0.502218
0.502746
0.503226
0.503741
0.504024
0.504263
0.50631
0.067679
0.302183
0.415045
0.470114
0.487485
0.498367
0.499801
0.502551
0.502447
0.503005
0.502942
0.503418
0.503675
0.504347
0.504761
0.505137
0.50547
0.50564
0.505805
0.507669
0.0676789
0.302183
0.415045
0.470114
0.487485
0.498367
0.499801
0.502551
0.502447
0.503005
0.502942
0.503419
0.503675
0.504348
0.504759
0.505139
0.505469
0.505641
0.505803
0.507666
0.0666506
0.299945
0.412422
0.467714
0.484941
0.495945
0.497254
0.500046
0.499921
0.500543
0.5005
0.501094
0.501418
0.502221
0.502739
0.50323
0.503737
0.50402
0.504262
0.506301
0.0684703
0.303949
0.417537
0.472874
0.490536
0.501584
0.503172
0.506249
0.506472
0.507694
0.508225
0.509734
0.510805
0.512324
0.513719
0.514768
0.516277
0.51688
0.517911
0.520736
0.0645681
0.300209
0.41629
0.474179
0.492338
0.505684
0.508822
0.515296
0.517691
0.522874
0.525701
0.530409
0.533398
0.537101
0.539903
0.542416
0.544896
0.546139
0.547372
0.550539
0.0862057
0.382647
0.526706
0.588598
0.610532
0.62443
0.63148
0.639371
0.643645
0.648234
0.650143
0.65201
0.652281
0.652586
0.652203
0.651964
0.651123
0.650581
0.649882
0.652411
0.477185
1.03768
1.13777
1.10971
1.03823
0.973306
0.922648
0.887347
0.86134
0.841932
0.828005
0.816175
0.808182
0.800428
0.795377
0.790625
0.786557
0.786017
0.779047
0.792347
0.477185
1.03768
1.13777
1.10971
1.03823
0.973305
0.922649
0.887344
0.861341
0.841924
0.828008
0.816154
0.808189
0.800372
0.795392
0.790476
0.78657
0.785672
0.779036
0.791511
0.0862058
0.382646
0.526707
0.588598
0.610533
0.624428
0.631482
0.639369
0.643649
0.648228
0.650153
0.652
0.652302
0.652574
0.652259
0.651922
0.65126
0.650404
0.65007
0.652478
0.0645683
0.300209
0.41629
0.474178
0.492339
0.505683
0.508822
0.515295
0.517691
0.522871
0.525711
0.530396
0.533421
0.537074
0.539951
0.542378
0.544956
0.546136
0.547416
0.550629
0.0684705
0.303949
0.417538
0.472874
0.490536
0.501584
0.503173
0.506248
0.506473
0.507692
0.508226
0.509728
0.510821
0.512308
0.513742
0.51475
0.516301
0.516885
0.517926
0.520773
0.0666508
0.299944
0.412422
0.467714
0.484941
0.495945
0.497254
0.500046
0.499922
0.500542
0.5005
0.501092
0.50142
0.502218
0.502746
0.503226
0.503741
0.504024
0.504263
0.50631
0.067679
0.302183
0.415045
0.470114
0.487485
0.498367
0.499801
0.502551
0.502447
0.503005
0.502942
0.503418
0.503675
0.504347
0.504761
0.505137
0.50547
0.50564
0.505805
0.507669
0.0676789
0.302183
0.415045
0.470114
0.487485
0.498367
0.499801
0.502551
0.502447
0.503005
0.502942
0.503419
0.503675
0.504348
0.504759
0.505139
0.505469
0.505641
0.505804
0.507666
0.0666506
0.299945
0.412422
0.467714
0.484941
0.495945
0.497254
0.500046
0.499921
0.500543
0.5005
0.501094
0.501418
0.502221
0.502739
0.50323
0.503737
0.504021
0.504262
0.506301
0.0684703
0.303949
0.417537
0.472874
0.490536
0.501584
0.503172
0.506249
0.506472
0.507694
0.508225
0.509734
0.510806
0.512324
0.513719
0.514768
0.516277
0.51688
0.517911
0.520736
0.0645681
0.300209
0.41629
0.474179
0.492338
0.505684
0.508822
0.515296
0.517691
0.522874
0.525701
0.530409
0.533398
0.537102
0.539904
0.542416
0.544896
0.546139
0.547372
0.550539
0.0862057
0.382647
0.526706
0.588598
0.610532
0.62443
0.63148
0.639371
0.643645
0.648234
0.650144
0.65201
0.652281
0.652586
0.652203
0.651964
0.651123
0.650581
0.649882
0.65241
0.477185
1.03768
1.13777
1.10971
1.03823
0.973306
0.922648
0.887347
0.86134
0.841932
0.828006
0.816175
0.808182
0.800428
0.795377
0.790625
0.786556
0.786017
0.779047
0.792347
7.67834
9.67782
9.76078
9.63003
9.59181
9.51856
9.51527
9.47491
9.4776
9.45143
9.45607
9.43766
9.44181
9.42739
9.43037
9.41744
9.42108
9.40491
9.40675
9.45474
6.02087
8.24971
8.58728
8.62494
8.62284
8.61818
8.61437
8.61327
8.61301
8.61413
8.61656
8.61885
8.62152
8.62229
8.62333
8.6218
8.6208
8.61693
8.61959
8.62473
5.70236
7.9034
8.2516
8.31495
8.31685
8.32367
8.32441
8.33326
8.3376
8.34804
8.35503
8.36786
8.37819
8.39022
8.39947
8.40627
8.41238
8.41299
8.41418
8.4426
5.6936
7.89399
8.23886
8.29829
8.29339
8.2913
8.28429
8.28693
8.28689
8.29191
8.29515
8.30437
8.31412
8.32829
8.34105
8.35262
8.36249
8.36821
8.37302
8.39543
5.68185
7.8783
8.22315
8.28411
8.27858
8.27518
8.26511
8.2658
8.26313
8.26574
8.26541
8.27006
8.27607
8.28925
8.30062
8.31498
8.32342
8.33468
8.33802
8.3646
5.68823
7.88635
8.23024
8.29055
8.28483
8.28133
8.27099
8.27153
8.26851
8.2707
8.26931
8.27247
8.2766
8.2885
8.29897
8.31405
8.32191
8.33441
8.33722
8.36315
5.68823
7.88635
8.23024
8.29055
8.28483
8.28134
8.27099
8.27153
8.26851
8.27071
8.2693
8.27249
8.27659
8.28852
8.29894
8.31408
8.3219
8.3344
8.33725
8.36308
5.68185
7.8783
8.22315
8.28411
8.27858
8.27519
8.2651
8.26581
8.26312
8.26576
8.26539
8.27012
8.27598
8.28937
8.30046
8.31515
8.32325
8.33479
8.33798
8.36453
5.6936
7.89399
8.23886
8.29829
8.29339
8.29131
8.28428
8.28695
8.28687
8.29195
8.29511
8.30448
8.31388
8.32863
8.34059
8.3532
8.36178
8.36889
8.37271
8.39552
5.70236
7.9034
8.2516
8.31495
8.31685
8.32367
8.32441
8.33328
8.33758
8.34809
8.35492
8.36804
8.3779
8.39069
8.39874
8.40734
8.41095
8.41458
8.41233
8.44402
6.02087
8.24971
8.58728
8.62494
8.62284
8.61819
8.61437
8.61328
8.613
8.61416
8.6165
8.61895
8.62136
8.62256
8.62296
8.62247
8.61946
8.61906
8.61642
8.62927
7.67834
9.67782
9.76078
9.63003
9.59181
9.51856
9.51527
9.47491
9.4776
9.45145
9.45606
9.43771
9.44177
9.42751
9.43023
9.41781
9.42058
9.40615
9.405
9.45878
52.0459
56.509
56.5256
56.5459
56.4418
56.4337
56.3686
56.3827
56.351
56.377
56.3649
56.394
56.3885
56.4097
56.4017
56.4089
56.4049
56.3797
56.4492
56.5744
13.8448
14.0145
13.4374
12.8793
12.6085
12.5024
12.4132
12.3886
12.3455
12.3401
12.3174
12.3181
12.3039
12.305
12.2951
12.2945
12.2888
12.2811
12.4526
12.4595
8.08571
9.22444
9.33958
9.32009
9.26965
9.25249
9.2225
9.21799
9.20254
9.20242
9.19503
9.19962
9.19839
9.20514
9.20502
9.20907
9.20703
9.20685
9.21034
9.23512
7.48252
8.75515
9.00538
9.0913
9.10508
9.12905
9.12916
9.14355
9.1456
9.15829
9.16037
9.17347
9.18019
9.19856
9.20742
9.22401
9.22916
9.23986
9.24271
9.26947
7.41755
8.70127
8.96463
9.06658
9.09385
9.13107
9.14098
9.16908
9.17968
9.20457
9.21303
9.2348
9.24639
9.27333
9.28891
9.31587
9.32775
9.34805
9.35561
9.38769
7.42448
8.69777
8.95948
9.06281
9.09379
9.1357
9.1501
9.18471
9.19986
9.23137
9.24382
9.27086
9.28557
9.31722
9.3367
9.36939
9.38559
9.41121
9.42334
9.4572
7.42448
8.69777
8.95948
9.06281
9.09379
9.1357
9.1501
9.18471
9.19986
9.23138
9.24381
9.27088
9.28555
9.31725
9.33667
9.36943
9.38558
9.41124
9.42341
9.45723
7.41755
8.70127
8.96463
9.06658
9.09384
9.13107
9.14097
9.16909
9.17967
9.2046
9.21301
9.23486
9.24633
9.27344
9.28875
9.31608
9.32764
9.3482
9.35575
9.38785
7.48252
8.75515
9.00538
9.0913
9.10507
9.12906
9.12915
9.14357
9.14558
9.15833
9.16032
9.17358
9.18008
9.19879
9.20707
9.22452
9.2289
9.24041
9.24245
9.2698
8.08571
9.22444
9.33958
9.32009
9.26965
9.2525
9.22249
9.218
9.20252
9.20247
9.19496
9.19975
9.19821
9.20546
9.20455
9.20983
9.20583
9.20864
9.20888
9.23708
13.8448
14.0145
13.4374
12.8793
12.6085
12.5025
12.4132
12.3886
12.3455
12.3401
12.3174
12.3182
12.3037
12.3053
12.2945
12.2953
12.2871
12.2839
12.4463
12.4656
52.0459
56.509
56.5256
56.5459
56.4418
56.4337
56.3686
56.3827
56.351
56.3771
56.3648
56.3943
56.388
56.4107
56.4001
56.4117
56.3999
56.3882
56.4331
56.6046
143.638
145.563
146.653
147.599
148.243
148.699
148.931
149.085
149.14
149.189
149.195
149.214
149.209
149.22
149.215
149.223
149.219
149.226
149.222
149.229
149.225
149.231
149.228
149.233
149.231
149.236
149.234
149.238
149.236
149.241
149.239
149.243
149.241
149.245
149.243
149.247
149.245
149.248
149.247
149.25
149.248
149.251
149.249
149.251
149.25
149.251
149.25
149.251
149.25
149.251
149.25
149.251
149.25
149.251
149.25
149.251
149.251
149.253
149.253
149.255
149.255
149.258
149.259
149.261
149.263
149.266
149.269
149.272
149.275
149.279
149.282
149.286
149.289
149.294
149.298
149.302
149.307
149.311
149.316
149.321
149.325
149.33
149.335
149.339
149.347
149.343
149.371
149.321
149.389
149.306
47.1628
48.8775
49.2214
49.5493
49.7437
49.9136
49.9777
50.0458
50.0546
50.0853
50.0799
50.0992
50.092
50.1078
50.1017
50.1161
50.1114
50.1249
50.1213
50.1342
50.1316
50.1439
50.1422
50.154
50.1529
50.1644
50.1639
50.1751
50.1751
50.1858
50.1862
50.1966
50.1972
50.2072
50.208
50.2176
50.2184
50.2274
50.228
50.2364
50.2368
50.2443
50.2443
50.251
50.2504
50.2561
50.2549
50.2595
50.2575
50.2611
50.2584
50.2609
50.2575
50.259
50.255
50.2557
50.2512
50.2512
50.2465
50.2459
50.2411
50.2403
50.2356
50.2346
50.2301
50.2291
50.2249
50.2239
50.2202
50.2194
50.216
50.2155
50.2126
50.2123
50.2098
50.2097
50.2077
50.2079
50.2064
50.2068
50.2058
50.2065
50.206
50.2067
50.2076
50.206
50.2141
50.1983
50.2142
50.182
30.4819
32.478
32.674
32.896
33.0133
33.1571
33.2001
33.2729
33.2779
33.3183
33.3135
33.3432
33.3376
33.364
33.3601
33.3851
33.3833
33.4075
33.4074
33.4311
33.4324
33.4557
33.4582
33.4812
33.4847
33.5073
33.5118
33.534
33.5393
33.5612
33.567
33.5885
33.5947
33.6158
33.6223
33.6428
33.6495
33.6693
33.6759
33.6948
33.7012
33.7191
33.7249
33.7417
33.7469
33.7623
33.7666
33.7806
33.784
33.7964
33.7988
33.8097
33.811
33.8204
33.8208
33.8288
33.8284
33.8352
33.8342
33.84
33.8386
33.8436
33.8419
33.8463
33.8445
33.8484
33.8465
33.8501
33.8483
33.8516
33.8498
33.853
33.8513
33.8543
33.8529
33.8557
33.8544
33.8572
33.8562
33.8588
33.8581
33.8607
33.8605
33.8629
33.8637
33.8641
33.8701
33.8626
33.8754
33.8475
28.3218
30.7015
30.871
31.0674
31.1728
31.3319
31.3826
31.4734
31.4844
31.5371
31.536
31.5749
31.5724
31.6071
31.6064
31.6397
31.6413
31.6741
31.6778
31.7102
31.7156
31.7477
31.7545
31.7864
31.7945
31.8261
31.8353
31.8666
31.8767
31.9076
31.9184
31.9489
31.9602
31.9902
32.0018
32.0311
32.0428
32.0712
32.0828
32.11
32.1212
32.1471
32.1575
32.1818
32.1913
32.2138
32.2222
32.2428
32.2498
32.2683
32.2739
32.2903
32.2945
32.3089
32.3117
32.3242
32.326
32.3368
32.3377
32.3472
32.3474
32.3558
32.3557
32.3632
32.3628
32.3696
32.3691
32.3753
32.3748
32.3806
32.38
32.3855
32.385
32.3902
32.3898
32.3946
32.3943
32.3989
32.3988
32.4032
32.4034
32.4076
32.4082
32.4121
32.4138
32.4156
32.4222
32.4187
32.4293
32.4032
28.2019
30.8137
30.9695
31.1481
31.2423
31.4125
31.4688
31.5731
31.5888
31.651
31.6527
31.6983
31.698
31.7385
31.74
31.7791
31.7832
31.8219
31.8282
31.8666
31.8749
31.9131
31.923
31.9609
31.9723
32.01
32.0225
32.06
32.0735
32.1106
32.1249
32.1615
32.1763
32.2123
32.2274
32.2626
32.2777
32.3119
32.3268
32.3596
32.3741
32.4052
32.4188
32.448
32.4604
32.4874
32.4985
32.5232
32.5326
32.5548
32.5625
32.5822
32.5881
32.6054
32.6096
32.6247
32.6276
32.6407
32.6424
32.6539
32.6549
32.665
32.6655
32.6745
32.6746
32.6828
32.6827
32.6902
32.6901
32.6971
32.6969
32.7035
32.7033
32.7095
32.7094
32.7152
32.7153
32.7207
32.721
32.7262
32.7267
32.7317
32.7327
32.7374
32.7397
32.7424
32.7487
32.7481
32.7573
32.7338
28.3096
31.0683
31.2122
31.3709
31.4503
31.6182
31.6733
31.7807
31.7976
31.8631
31.8662
31.9147
31.9154
31.9585
31.9612
32.0029
32.0083
32.0497
32.0574
32.0986
32.1084
32.1495
32.161
32.202
32.215
32.2558
32.27
32.3106
32.3259
32.366
32.3821
32.4218
32.4384
32.4774
32.4944
32.5325
32.5495
32.5866
32.6033
32.6389
32.6551
32.6888
32.7041
32.7357
32.7497
32.7791
32.7915
32.8184
32.829
32.8532
32.8619
32.8834
32.8902
32.9091
32.9141
32.9305
32.934
32.9483
32.9506
32.9631
32.9646
32.9756
32.9765
32.9863
32.9868
32.9957
32.996
33.0042
33.0044
33.012
33.0121
33.0193
33.0194
33.0261
33.0263
33.0327
33.033
33.0389
33.0395
33.0451
33.046
33.0515
33.0528
33.058
33.0605
33.0641
33.0697
33.0712
33.0797
33.0557
28.3121
31.0604
31.1851
31.3223
31.3834
31.5348
31.5811
31.681
31.695
31.7585
31.7609
31.8091
31.8097
31.8527
31.8554
31.8971
31.9025
31.9439
31.9516
31.9929
32.0027
32.0437
32.0553
32.0962
32.1093
32.1501
32.1644
32.2049
32.2202
32.2604
32.2765
32.3162
32.3329
32.3719
32.3889
32.4271
32.4442
32.4812
32.498
32.5336
32.5499
32.5836
32.599
32.6307
32.6447
32.6741
32.6866
32.7135
32.7243
32.7485
32.7573
32.7789
32.7858
32.8047
32.8098
32.8263
32.8299
32.8443
32.8467
32.8593
32.8608
32.872
32.8729
32.8829
32.8835
32.8925
32.8929
32.9011
32.9014
32.9091
32.9093
32.9166
32.9168
32.9236
32.9239
32.9303
32.9307
32.9368
32.9374
32.9431
32.9441
32.9497
32.951
32.9564
32.9587
32.963
32.9676
32.9703
32.9782
32.9551
28.2075
30.7812
30.8724
30.9845
31.0245
31.1484
31.1795
31.2637
31.2719
31.3286
31.3289
31.3735
31.373
31.4133
31.4149
31.4539
31.4581
31.4967
31.5031
31.5415
31.5499
31.588
31.598
31.636
31.6474
31.6852
31.6978
31.7353
31.7489
31.7861
31.8004
31.8371
31.852
31.8881
31.9033
31.9386
31.9539
31.9881
32.0033
32.0361
32.0507
32.082
32.0957
32.1251
32.1377
32.1649
32.1761
32.201
32.2106
32.233
32.2409
32.2609
32.267
32.2845
32.289
32.3043
32.3074
32.3208
32.3228
32.3346
32.3358
32.3462
32.3469
32.3562
32.3566
32.3651
32.3653
32.3731
32.3732
32.3804
32.3805
32.3873
32.3874
32.3939
32.394
32.4001
32.4004
32.4061
32.4066
32.412
32.4128
32.4181
32.4192
32.4244
32.4262
32.4308
32.434
32.4375
32.4438
32.4227
28.3161
30.5982
30.6473
30.7315
30.7508
30.8418
30.8563
30.9199
30.9212
30.9669
30.9642
31.0018
30.9991
31.0335
31.0329
31.0661
31.0679
31.1006
31.1045
31.1369
31.1424
31.1745
31.1816
31.2134
31.2217
31.2534
31.2628
31.2942
31.3044
31.3355
31.3465
31.3771
31.3886
31.4187
31.4305
31.4599
31.4719
31.5004
31.5122
31.5397
31.5511
31.5772
31.5879
31.6124
31.6222
31.645
31.6537
31.6745
31.6819
31.7007
31.7066
31.7234
31.7279
31.7426
31.7459
31.7587
31.7608
31.7721
31.7733
31.7832
31.7839
31.7927
31.7929
31.8008
31.8008
31.808
31.8078
31.8145
31.8143
31.8205
31.8203
31.8262
31.826
31.8316
31.8315
31.8367
31.8368
31.8417
31.8419
31.8467
31.8471
31.8518
31.8525
31.8571
31.8583
31.8625
31.8646
31.8682
31.8722
31.8518
30.4164
32.2071
32.21
32.2672
32.269
32.3293
32.3288
32.3721
32.3665
32.4001
32.3935
32.4219
32.4162
32.4422
32.4385
32.4633
32.4617
32.4858
32.4859
32.5095
32.5111
32.5343
32.5371
32.56
32.5638
32.5864
32.5911
32.6135
32.6189
32.641
32.647
32.6686
32.6751
32.6963
32.7032
32.7238
32.7308
32.7508
32.7577
32.7768
32.7835
32.8016
32.8078
32.8248
32.8303
32.846
32.8507
32.865
32.8687
32.8815
32.8843
32.8955
32.8972
32.907
32.9078
32.9162
32.9162
32.9234
32.9227
32.929
32.9279
32.9333
32.932
32.9368
32.9353
32.9396
32.938
32.9419
32.9404
32.9441
32.9426
32.946
32.9447
32.9479
32.9467
32.9498
32.9488
32.9517
32.9509
32.9537
32.9532
32.956
32.9558
32.9587
32.9588
32.9616
32.9623
32.9649
32.9646
32.948
46.8845
48.1575
48.1423
48.1819
48.178
48.2177
48.2116
48.2393
48.231
48.252
48.2437
48.2608
48.2533
48.2684
48.2625
48.2765
48.2719
48.2852
48.2818
48.2946
48.2922
48.3044
48.3028
48.3147
48.3138
48.3254
48.3251
48.3363
48.3365
48.3473
48.3479
48.3584
48.3592
48.3693
48.3702
48.3799
48.3809
48.3899
48.3908
48.3992
48.3998
48.4074
48.4075
48.4143
48.4138
48.4196
48.4185
48.4232
48.4213
48.4249
48.4223
48.4248
48.4214
48.4229
48.4189
48.4194
48.4149
48.4147
48.4098
48.4091
48.4041
48.403
48.398
48.3966
48.3917
48.3903
48.3857
48.3843
48.3799
48.3786
48.3746
48.3735
48.3699
48.3689
48.3657
48.3649
48.3621
48.3615
48.3591
48.3587
48.3568
48.3566
48.3552
48.3553
48.3544
48.3547
48.3541
48.3552
48.3417
48.3342
142.504
143.062
143.055
143.111
143.134
143.189
143.199
143.23
143.229
143.247
143.242
143.254
143.248
143.257
143.251
143.259
143.254
143.261
143.257
143.263
143.26
143.265
143.263
143.267
143.265
143.27
143.268
143.272
143.271
143.275
143.273
143.277
143.276
143.279
143.278
143.281
143.279
143.282
143.281
143.283
143.281
143.283
143.281
143.282
143.279
143.28
143.277
143.277
143.274
143.273
143.27
143.269
143.266
143.265
143.261
143.26
143.256
143.255
143.251
143.25
143.247
143.246
143.243
143.242
143.24
143.239
143.237
143.236
143.235
143.234
143.233
143.233
143.232
143.232
143.232
143.232
143.232
143.232
143.232
143.232
143.232
143.233
143.233
143.233
143.234
143.234
143.234
143.235
143.21
143.204
30.0916
30.8273
31.0669
31.2533
31.3843
31.4699
31.5135
31.5421
31.5504
31.561
31.5595
31.5657
31.5622
31.5678
31.5641
31.5697
31.5664
31.5721
31.5691
31.5747
31.572
31.5776
31.5753
31.5808
31.5787
31.5841
31.5823
31.5876
31.586
31.5911
31.5897
31.5944
31.5931
31.5975
31.5962
31.6002
31.5988
31.6024
31.6007
31.6037
31.6017
31.604
31.6015
31.6031
31.6001
31.6009
31.5973
31.5972
31.593
31.5922
31.5875
31.5859
31.5807
31.5785
31.573
31.5704
31.5647
31.5617
31.5561
31.553
31.5476
31.5446
31.5396
31.5367
31.532
31.5294
31.5252
31.5229
31.5192
31.5172
31.514
31.5123
31.5096
31.5082
31.506
31.5049
31.5031
31.5023
31.501
31.5005
31.4996
31.4995
31.4991
31.4993
31.4999
31.4992
31.5046
31.4949
31.5132
31.4961
27.9614
29.2778
29.5134
29.702
29.8356
29.9314
29.9822
30.0186
30.0329
30.0486
30.0522
30.062
30.0632
30.0717
30.0727
30.0809
30.0821
30.0902
30.0916
30.0996
30.1012
30.1091
30.111
30.1189
30.121
30.1288
30.1312
30.1389
30.1416
30.1493
30.1521
30.1599
30.1629
30.1706
30.174
30.1816
30.1852
30.1929
30.1966
30.2043
30.2083
30.2159
30.22
30.2276
30.2318
30.2393
30.2435
30.2508
30.255
30.2621
30.2662
30.2731
30.277
30.2835
30.2872
30.2933
30.2966
30.3023
30.3053
30.3106
30.3133
30.3181
30.3206
30.325
30.3272
30.3313
30.3333
30.3371
30.3389
30.3425
30.3441
30.3476
30.3491
30.3523
30.3538
30.3568
30.3582
30.3611
30.3624
30.3652
30.3665
30.3692
30.3703
30.3729
30.3745
30.3754
30.3812
30.3736
30.3917
30.3838
25.7874
27.5913
27.826
27.9987
28.1361
28.2398
28.3027
28.3448
28.3665
28.3831
28.3907
28.3995
28.4034
28.4104
28.4135
28.4202
28.4234
28.43
28.4333
28.44
28.4433
28.45
28.4535
28.4602
28.4638
28.4705
28.4743
28.481
28.4849
28.4916
28.4958
28.5025
28.5068
28.5135
28.518
28.5248
28.5295
28.5364
28.5413
28.5483
28.5534
28.5605
28.5658
28.5729
28.5784
28.5856
28.5912
28.5985
28.6043
28.6116
28.6174
28.6247
28.6305
28.6377
28.6434
28.6505
28.6562
28.663
28.6685
28.6752
28.6805
28.687
28.6921
28.6983
28.7033
28.7093
28.714
28.7197
28.7243
28.7298
28.7341
28.7393
28.7434
28.7485
28.7523
28.7571
28.7607
28.7652
28.7686
28.7728
28.7758
28.7797
28.7825
28.7859
28.789
28.7903
28.7971
28.7915
28.8042
28.78
25.0971
27.1173
27.3179
27.4611
27.5921
27.7015
27.7731
27.8218
27.8487
27.8674
27.8767
27.885
27.889
27.8945
27.8974
27.9024
27.9052
27.91
27.9129
27.9177
27.9207
27.9255
27.9285
27.9333
27.9364
27.9412
27.9444
27.9492
27.9525
27.9574
27.9607
27.9657
27.9691
27.9741
27.9777
27.9827
27.9864
27.9915
27.9954
28.0006
28.0046
28.0099
28.0141
28.0194
28.0237
28.0292
28.0336
28.0391
28.0436
28.0491
28.0537
28.0592
28.0638
28.0692
28.0738
28.0791
28.0836
28.0888
28.0931
28.0981
28.1023
28.1072
28.1113
28.1159
28.1199
28.1244
28.1282
28.1326
28.1362
28.1404
28.1439
28.148
28.1513
28.1553
28.1585
28.1622
28.1653
28.1688
28.1717
28.175
28.1777
28.1808
28.1833
28.1859
28.189
28.1896
28.1957
28.1919
28.1999
28.187
24.6911
26.8497
27.0079
27.1131
27.2264
27.3323
27.4051
27.4569
27.4863
27.5067
27.5168
27.5252
27.5289
27.5337
27.5358
27.5399
27.5419
27.5456
27.5476
27.5513
27.5533
27.5571
27.5592
27.563
27.5651
27.5689
27.5712
27.575
27.5773
27.5812
27.5837
27.5876
27.5901
27.5941
27.5968
27.6008
27.6036
27.6077
27.6107
27.6149
27.6179
27.6223
27.6255
27.6298
27.6332
27.6376
27.6411
27.6456
27.6491
27.6536
27.6572
27.6617
27.6653
27.6698
27.6733
27.6776
27.6811
27.6853
27.6887
27.6927
27.6959
27.6998
27.7029
27.7067
27.7097
27.7133
27.7162
27.7197
27.7224
27.7258
27.7285
27.7317
27.7343
27.7374
27.7399
27.7429
27.7453
27.7482
27.7505
27.7532
27.7553
27.7579
27.7599
27.762
27.7648
27.7651
27.7699
27.7679
27.7722
27.7513
24.6225
26.8158
26.9355
27.0052
27.0962
27.1911
27.2587
27.3081
27.3369
27.3572
27.3674
27.3756
27.379
27.3835
27.3852
27.3889
27.3905
27.394
27.3957
27.3992
27.4009
27.4045
27.4062
27.4098
27.4115
27.4152
27.417
27.4207
27.4226
27.4263
27.4284
27.4321
27.4343
27.438
27.4403
27.4441
27.4466
27.4505
27.4531
27.457
27.4598
27.4639
27.4667
27.4709
27.4739
27.4781
27.4813
27.4855
27.4888
27.493
27.4963
27.5006
27.5039
27.5081
27.5113
27.5154
27.5186
27.5225
27.5256
27.5294
27.5323
27.536
27.5388
27.5423
27.545
27.5484
27.551
27.5542
27.5567
27.5599
27.5623
27.5653
27.5676
27.5706
27.5728
27.5756
27.5778
27.5805
27.5825
27.5851
27.587
27.5894
27.5913
27.5933
27.5957
27.5963
27.6003
27.5997
27.6022
27.5839
24.6238
26.8066
26.9073
26.9562
27.029
27.1096
27.1675
27.2109
27.2365
27.2552
27.2647
27.2726
27.2759
27.2803
27.2821
27.2858
27.2874
27.2909
27.2926
27.2962
27.2978
27.3014
27.3032
27.3068
27.3086
27.3123
27.3142
27.3178
27.3198
27.3235
27.3256
27.3294
27.3316
27.3354
27.3377
27.3416
27.3441
27.348
27.3506
27.3547
27.3574
27.3615
27.3645
27.3687
27.3717
27.376
27.3792
27.3835
27.3867
27.3911
27.3944
27.3987
27.402
27.4063
27.4096
27.4137
27.4169
27.4209
27.424
27.4279
27.4308
27.4345
27.4374
27.441
27.4437
27.4471
27.4498
27.4531
27.4556
27.4588
27.4613
27.4644
27.4668
27.4697
27.472
27.4749
27.4771
27.4799
27.482
27.4846
27.4866
27.489
27.4909
27.4931
27.4953
27.4964
27.4997
27.5001
27.502
27.4839
24.6945
26.8143
26.912
26.955
27.0155
27.0816
27.1281
27.1636
27.1845
27.2006
27.209
27.2165
27.2199
27.2246
27.2268
27.2309
27.2329
27.2368
27.2389
27.2426
27.2447
27.2486
27.2507
27.2546
27.2568
27.2607
27.263
27.2669
27.2694
27.2733
27.2759
27.2799
27.2825
27.2866
27.2894
27.2935
27.2964
27.3006
27.3037
27.308
27.3112
27.3156
27.3189
27.3234
27.3268
27.3314
27.3349
27.3396
27.3432
27.3478
27.3515
27.3561
27.3598
27.3644
27.3681
27.3725
27.3761
27.3804
27.3838
27.388
27.3914
27.3954
27.3986
27.4025
27.4056
27.4093
27.4123
27.4159
27.4188
27.4223
27.4251
27.4285
27.4312
27.4345
27.4371
27.4403
27.4428
27.4458
27.4482
27.4511
27.4534
27.4561
27.4582
27.4607
27.4629
27.4647
27.4675
27.4685
27.4708
27.451
25.0894
27.017
27.1038
27.1422
27.191
27.2408
27.2749
27.3014
27.3172
27.3304
27.3375
27.3447
27.3485
27.3538
27.3567
27.3617
27.3645
27.3694
27.3723
27.3772
27.3802
27.3851
27.3882
27.3931
27.3963
27.4012
27.4045
27.4095
27.4128
27.4178
27.4213
27.4263
27.4299
27.435
27.4387
27.4439
27.4477
27.453
27.457
27.4623
27.4665
27.4719
27.4762
27.4817
27.4861
27.4917
27.4963
27.5019
27.5066
27.5122
27.5169
27.5225
27.5273
27.5328
27.5375
27.543
27.5476
27.5529
27.5574
27.5625
27.5669
27.5719
27.5761
27.5809
27.585
27.5897
27.5936
27.5982
27.602
27.6063
27.61
27.6142
27.6178
27.6218
27.6252
27.6291
27.6324
27.6361
27.6391
27.6427
27.6455
27.6488
27.6514
27.6546
27.657
27.6596
27.6623
27.6644
27.6665
27.6567
25.7393
27.3699
27.4364
27.4689
27.5033
27.5371
27.5589
27.5777
27.5884
27.5995
27.6051
27.6129
27.6165
27.6233
27.6264
27.6331
27.6363
27.6429
27.6463
27.653
27.6564
27.6631
27.6668
27.6735
27.6772
27.684
27.6879
27.6947
27.6988
27.7055
27.7098
27.7166
27.7211
27.7279
27.7325
27.7395
27.7443
27.7513
27.7563
27.7633
27.7685
27.7757
27.7811
27.7884
27.7939
27.8012
27.8069
27.8143
27.8201
27.8275
27.8334
27.8407
27.8466
27.8539
27.8597
27.8668
27.8725
27.8794
27.885
27.8917
27.8971
27.9036
27.9088
27.9151
27.9201
27.9261
27.9309
27.9367
27.9413
27.9469
27.9512
27.9566
27.9607
27.9658
27.9697
27.9745
27.9782
27.9828
27.9862
27.9905
27.9935
27.9976
28.0003
28.0041
28.0065
28.0099
28.0121
28.015
28.0175
28.0014
27.8136
28.8672
28.8879
28.9062
28.9213
28.941
28.9495
28.9629
28.9668
28.9771
28.9789
28.9876
28.9887
28.9969
28.9979
29.006
29.0073
29.0153
29.0168
29.0248
29.0265
29.0344
29.0364
29.0443
29.0465
29.0544
29.0569
29.0647
29.0674
29.0752
29.0781
29.0859
29.0891
29.0969
29.1003
29.108
29.1116
29.1194
29.1232
29.1309
29.135
29.1426
29.1468
29.1544
29.1586
29.1661
29.1704
29.1777
29.1819
29.189
29.1932
29.2
29.2039
29.2103
29.214
29.22
29.2234
29.229
29.232
29.2371
29.2398
29.2445
29.2469
29.2512
29.2533
29.2573
29.2591
29.2628
29.2644
29.2678
29.2693
29.2725
29.2738
29.2768
29.278
29.2808
29.2819
29.2845
29.2855
29.288
29.2889
29.2913
29.2921
29.2945
29.2951
29.2975
29.2982
29.3007
29.3018
29.3083
29.8199
30.2502
30.2534
30.2531
30.2554
30.2601
30.2593
30.264
30.2616
30.2665
30.2632
30.2682
30.2645
30.2698
30.2663
30.2717
30.2685
30.274
30.2711
30.2767
30.2742
30.2797
30.2775
30.283
30.281
30.2864
30.2848
30.29
30.2886
30.2936
30.2923
30.2971
30.2958
30.3003
30.299
30.3031
30.3017
30.3053
30.3037
30.3067
30.3047
30.307
30.3046
30.3061
30.3031
30.3038
30.3002
30.3001
30.2958
30.2949
30.29
30.2883
30.2829
30.2804
30.2747
30.2717
30.2657
30.2624
30.2563
30.2528
30.2469
30.2433
30.2377
30.2343
30.229
30.2257
30.2208
30.2178
30.2133
30.2105
30.2065
30.204
30.2004
30.1982
30.195
30.1931
30.1903
30.1886
30.1863
30.1849
30.183
30.1819
30.1805
30.1799
30.1789
30.1788
30.1785
30.1794
30.1762
30.1774
3.65502
3.85639
3.88031
3.89348
3.90841
3.9199
3.92809
3.9395
3.94484
3.95715
3.96077
3.97339
3.97581
3.98845
3.99007
4.0026
4.00373
4.01604
4.01691
4.02894
4.0297
4.04141
4.04217
4.05357
4.0544
4.06547
4.06643
4.07718
4.07827
4.08868
4.0899
4.09997
4.10129
4.111
4.11238
4.12169
4.12308
4.13195
4.13327
4.14163
4.14278
4.15057
4.15148
4.15864
4.15922
4.16569
4.16588
4.17163
4.17138
4.17639
4.17569
4.17996
4.17883
4.18241