/*--------------------------------*- C++ -*----------------------------------*\
  =========                 |
  \\      /  F ield         | OpenFOAM: The Open Source CFD Toolbox
   \\    /   O peration     | Website:  https://openfoam.org
    \\  /    A nd           | Version:  7
     \\/     M anipulation  |
\*---------------------------------------------------------------------------*/
FoamFile
{
    version     2.0;
    format      ascii;
    class       volScalarField;
    location    "0.175";
    object      alphat;
}
// * * * * * * * * * * * * * * * * * * * * * * * * * * * * * * * * * * * * * //

dimensions      [1 -1 -1 0 0 0 0];

internalField   nonuniform List<scalar> 
1440
(
0.00814412
0.00817366
0.00781543
0.00730316
0.00703755
0.00699541
0.00703598
0.00707469
0.0070849
0.0070872
0.00709222
0.00709758
0.00710174
0.00710556
0.00710931
0.00711282
0.00711605
0.00711896
0.00712145
0.00712354
0.0071252
0.00712639
0.00712709
0.00712729
0.007127
0.00712621
0.00712494
0.00712322
0.00712107
0.00711852
0.00711561
0.00711239
0.00710892
0.00710523
0.00710143
0.00709751
0.00709357
0.00708973
0.00708596
0.00708237
0.00707906
0.00707605
0.00707343
0.00707125
0.00706955
0.00706843
0.00706791
0.00706803
0.00706885
0.00707044
0.00707277
0.00707593
0.00707995
0.00708476
0.00709049
0.00709709
0.0071046
0.00711301
0.00712234
0.00713257
0.0071437
0.00715573
0.00716864
0.00718244
0.00719709
0.00721258
0.00722888
0.007246
0.00726389
0.00728254
0.00730191
0.00732199
0.00734271
0.00736407
0.00738605
0.00740857
0.00743162
0.00745516
0.00747914
0.00750351
0.00752826
0.00755331
0.00757863
0.00760417
0.0076299
0.00765573
0.00768164
0.00770759
0.00773351
0.00775935
0.00778507
0.00781061
0.00783594
0.00786098
0.0078857
0.00791005
0.00793398
0.00795743
0.00798039
0.00800278
0.00802457
0.00804572
0.00806618
0.00808593
0.00810492
0.0081231
0.00814047
0.00815698
0.00817257
0.00818726
0.00820095
0.00821377
0.00822543
0.00823638
0.00824576
0.00825484
0.00826174
0.00826918
0.00827311
0.00827918
0.00559895
0.00728208
0.00779177
0.00779004
0.00769176
0.0076409
0.00766114
0.00771772
0.00776332
0.00779719
0.00782967
0.00786312
0.00789653
0.00792977
0.00796307
0.00799648
0.00802998
0.00806355
0.00809717
0.00813084
0.00816457
0.00819835
0.00823217
0.00826603
0.00829995
0.00833392
0.00836795
0.00840205
0.00843622
0.00847047
0.00850482
0.00853926
0.00857382
0.00860848
0.00864332
0.00867825
0.00871332
0.00874859
0.00878402
0.00881961
0.0088554
0.00889139
0.00892758
0.00896398
0.00900057
0.0090374
0.00907445
0.0091117
0.00914916
0.00918686
0.00922477
0.00926289
0.00930124
0.00933975
0.00937849
0.0094174
0.00945647
0.00949573
0.00953515
0.0095747
0.00961438
0.00965417
0.00969406
0.00973404
0.00977408
0.00981416
0.00985427
0.00989439
0.00993451
0.00997459
0.0100146
0.0100546
0.0100945
0.0101342
0.0101739
0.0102133
0.0102526
0.0102917
0.0103305
0.0103691
0.0104074
0.0104454
0.010483
0.0105203
0.0105572
0.0105937
0.0106298
0.0106653
0.0107004
0.010735
0.010769
0.0108024
0.0108352
0.0108673
0.0108988
0.0109296
0.0109597
0.010989
0.0110176
0.0110453
0.0110722
0.0110983
0.0111235
0.0111478
0.0111711
0.0111935
0.011215
0.0112354
0.0112548
0.0112732
0.0112906
0.0113069
0.011322
0.0113364
0.0113489
0.0113614
0.0113713
0.011382
0.0113885
0.0113986
0.00283666
0.00486585
0.00597942
0.00650913
0.00665905
0.00666253
0.00667029
0.00671266
0.00678054
0.00683979
0.00689462
0.00695027
0.00700648
0.00706249
0.00711832
0.00717409
0.00722975
0.00728522
0.00734044
0.00739538
0.00745001
0.00750429
0.0075582
0.00761172
0.0076648
0.00771744
0.00776962
0.00782133
0.00787255
0.0079233
0.00797356
0.00802331
0.00807258
0.00812131
0.00816961
0.00821741
0.00826469
0.00831152
0.00835793
0.00840385
0.00844935
0.00849443
0.0085391
0.00858338
0.00862725
0.00867077
0.00871395
0.00875677
0.00879924
0.00884141
0.00888328
0.00892482
0.0089661
0.00900711
0.00904785
0.00908831
0.0091285
0.00916847
0.00920818
0.00924763
0.00928685
0.0093258
0.00936452
0.009403
0.00944121
0.00947917
0.00951687
0.00955429
0.00959144
0.00962829
0.00966486
0.00970114
0.0097371
0.00977273
0.00980804
0.00984301
0.0098776
0.00991185
0.00994569
0.00997914
0.0100122
0.0100448
0.010077
0.0101088
0.0101401
0.0101709
0.0102012
0.010231
0.0102603
0.0102891
0.0103173
0.010345
0.010372
0.0103986
0.0104245
0.0104497
0.0104744
0.0104984
0.0105218
0.0105445
0.0105665
0.0105879
0.0106085
0.0106285
0.0106477
0.0106661
0.0106839
0.0107009
0.0107171
0.0107326
0.0107472
0.0107612
0.0107741
0.0107868
0.0107978
0.0108092
0.0108182
0.0108286
0.0108348
0.0108454
0.0010074
0.00244072
0.00356367
0.00445611
0.00487365
0.00496068
0.00495385
0.00496073
0.00498785
0.00504007
0.00508896
0.0051395
0.00519201
0.00524522
0.00529885
0.00535298
0.00540757
0.00546251
0.00551774
0.00557321
0.00562886
0.0056846
0.00574039
0.00579616
0.00585187
0.00590744
0.00596284
0.006018
0.00607287
0.00612746
0.00618167
0.00623543
0.00628883
0.00634161
0.00639409
0.00644601
0.00649721
0.00654799
0.00659821
0.00664773
0.00669666
0.00674499
0.00679266
0.00683974
0.0068861
0.00693185
0.00697702
0.00702151
0.0070653
0.00710853
0.00715114
0.00719304
0.00723446
0.00727527
0.00731543
0.00735499
0.00739401
0.0074325
0.00747041
0.00750776
0.00754459
0.0075809
0.0076167
0.00765197
0.00768678
0.00772112
0.00775494
0.00778826
0.00782114
0.00785351
0.00788545
0.00791696
0.00794797
0.00797852
0.00800865
0.00803834
0.00806753
0.00809629
0.00812458
0.00815245
0.00817987
0.00820684
0.00823334
0.00825936
0.00828496
0.00831007
0.00833472
0.00835892
0.00838263
0.00840589
0.00842863
0.00845091
0.00847269
0.00849402
0.00851482
0.0085351
0.00855492
0.0085742
0.00859294
0.00861119
0.00862894
0.00864613
0.00866279
0.00867889
0.00869445
0.00870948
0.00872397
0.00873784
0.00875118
0.00876408
0.00877633
0.0087881
0.00879894
0.00880994
0.00881927
0.00882971
0.00883748
0.00884736
0.00885307
0.00886378
0.0002821
0.00083801
0.00144696
0.00228085
0.00269515
0.00277509
0.00275286
0.00269189
0.00267922
0.00268876
0.00270874
0.00273317
0.00276118
0.00279055
0.00282063
0.00285143
0.00288294
0.00291513
0.00294794
0.00298137
0.00301538
0.00304996
0.00308509
0.00312073
0.00315685
0.00319345
0.00323034
0.00326792
0.00330552
0.00334359
0.00338199
0.00342052
0.00345951
0.00349824
0.00353768
0.00357706
0.00361621
0.00365564
0.00369537
0.00373474
0.00377407
0.00381347
0.00385271
0.003892
0.00393094
0.00396973
0.00400865
0.00404717
0.00408521
0.00412329
0.0041611
0.00419846
0.00423589
0.00427289
0.00430954
0.00434575
0.00438176
0.00441745
0.00445278
0.00448776
0.00452244
0.00455669
0.00459062
0.00462415
0.00465739
0.0046903
0.00472268
0.00475469
0.00478638
0.00481758
0.0048485
0.00487911
0.00490916
0.00493876
0.00496818
0.00499714
0.00502553
0.00505355
0.0050812
0.00510841
0.00513524
0.00516172
0.00518764
0.00521314
0.00523836
0.00526308
0.00528732
0.00531114
0.00533453
0.00535753
0.00538006
0.00540217
0.00542378
0.00544506
0.00546579
0.00548604
0.00550596
0.00552532
0.00554417
0.00556264
0.00558067
0.00559811
0.00561512
0.00563153
0.00564749
0.00566302
0.00567795
0.00569224
0.00570614
0.00571973
0.00573256
0.00574491
0.00575615
0.00576803
0.00577754
0.0057894
0.00579704
0.00580832
0.0058143
0.00582672
6.9669e-05
0.000198862
0.000371691
0.000716386
0.000906753
0.000923701
0.000890343
0.000825685
0.000800217
0.000793519
0.00079463
0.000798236
0.000805678
0.000813936
0.000822483
0.000831336
0.00084051
0.000850009
0.000859816
0.000869949
0.000880403
0.000891189
0.000902319
0.000913792
0.000925614
0.000937761
0.000950256
0.000963195
0.000976331
0.000989812
0.00100373
0.00101791
0.00103257
0.00104724
0.00106261
0.00107819
0.00109388
0.00110986
0.0011265
0.00114308
0.00115992
0.0011771
0.00119453
0.00121228
0.00123009
0.00124806
0.00126658
0.00128507
0.00130351
0.00132232
0.0013413
0.00136027
0.00137966
0.00139905
0.00141853
0.00143796
0.00145759
0.0014773
0.00149706
0.00151689
0.00153683
0.00155668
0.00157662
0.00159658
0.00161658
0.00163665
0.00165653
0.00167643
0.00169635
0.00171613
0.00173599
0.00175589
0.00177555
0.00179505
0.00181474
0.00183426
0.00185353
0.00187271
0.00189186
0.00191084
0.00192971
0.00194853
0.00196705
0.00198542
0.00200381
0.00202196
0.00203986
0.00205757
0.00207513
0.00209252
0.0021097
0.00212671
0.0021434
0.00216002
0.0021763
0.00219231
0.00220822
0.00222374
0.00223897
0.00225403
0.00226884
0.00228322
0.00229736
0.00231105
0.00232447
0.00233764
0.00235032
0.00236247
0.00237445
0.00238624
0.00239731
0.00240804
0.00241766
0.00242821
0.00243615
0.002447
0.00245314
0.0024633
0.00246836
0.00247942
6.98104e-05
0.000203012
0.000382685
0.000725275
0.00090956
0.000926141
0.000892606
0.000830197
0.00080647
0.000800406
0.00080175
0.00080553
0.000813018
0.000821352
0.000829942
0.000838874
0.000848152
0.000857744
0.000867661
0.000877901
0.000888468
0.000899369
0.000910606
0.000922172
0.000934129
0.000946298
0.00095899
0.000972023
0.000985156
0.000998767
0.00101273
0.0010271
0.0010416
0.00105657
0.00107199
0.00108745
0.00110328
0.00111935
0.00113596
0.00115254
0.00116941
0.00118666
0.00120404
0.00122183
0.00123962
0.0012576
0.00127607
0.00129454
0.00131293
0.00133175
0.00135069
0.0013696
0.00138893
0.00140826
0.00142764
0.00144703
0.00146653
0.0014862
0.00150582
0.00152553
0.00154536
0.0015651
0.00158491
0.00160473
0.00162458
0.00164449
0.00166422
0.00168395
0.00170369
0.00172329
0.00174296
0.00176267
0.00178214
0.00180144
0.00182093
0.00184023
0.00185929
0.00187825
0.00189717
0.0019159
0.00193455
0.00195313
0.0019714
0.00198955
0.00200768
0.00202556
0.0020432
0.00206066
0.00207797
0.00209509
0.00211201
0.00212874
0.00214516
0.00216152
0.00217752
0.00219328
0.00220891
0.00222418
0.00223914
0.00225399
0.00226843
0.00228271
0.00229637
0.00231
0.00232315
0.00233591
0.00234847
0.00236046
0.00237213
0.00238367
0.00239447
0.00240503
0.00241433
0.00242477
0.00243244
0.002443
0.00244909
0.00245892
0.00246386
0.0024747
0.00028173
0.000843664
0.00146821
0.00229763
0.00270588
0.00278561
0.00276365
0.00270494
0.0026936
0.00270341
0.00272382
0.00274845
0.00277664
0.00280621
0.00283643
0.00286739
0.00289908
0.00293143
0.00296441
0.00299799
0.00303216
0.00306688
0.00310213
0.00313787
0.00317415
0.0032107
0.00324793
0.00328541
0.00332304
0.00336122
0.00339961
0.00343834
0.00347701
0.00351611
0.0035555
0.0035947
0.00363393
0.00367338
0.003713
0.00375229
0.0037916
0.00383097
0.00387015
0.00390938
0.0039482
0.00398696
0.00402576
0.00406417
0.00410213
0.00414013
0.00417782
0.00421507
0.0042524
0.00428926
0.00432577
0.00436187
0.00439771
0.00443331
0.00446847
0.00450328
0.00453782
0.00457192
0.00460568
0.00463905
0.00467212
0.00470486
0.00473705
0.00476889
0.00480039
0.0048314
0.00486213
0.00489255
0.00492241
0.00495181
0.00498104
0.00500979
0.00503798
0.00506579
0.00509323
0.00512022
0.00514685
0.00517309
0.0051988
0.00522408
0.00524906
0.00527355
0.00529755
0.00532114
0.00534431
0.00536707
0.00538936
0.00541122
0.00543258
0.00545362
0.00547411
0.00549413
0.00551379
0.00553292
0.00555152
0.00556977
0.00558749
0.00560481
0.00562141
0.00563772
0.00565343
0.0056686
0.00568338
0.00569749
0.00571111
0.00572444
0.00573701
0.00574917
0.00576012
0.00577184
0.00578108
0.00579264
0.0058002
0.00581109
0.00581695
0.00582898
0.00100536
0.00244474
0.00358388
0.00447645
0.00489281
0.00497942
0.00497237
0.0049794
0.0050071
0.00505953
0.00510873
0.00515952
0.00521222
0.00526558
0.00531931
0.00537353
0.00542819
0.00548318
0.00553846
0.00559396
0.00564962
0.00570536
0.00576113
0.00581687
0.00587255
0.00592807
0.00598343
0.00603853
0.00609333
0.00614786
0.00620198
0.00625573
0.00630893
0.00636176
0.00641416
0.00646592
0.00651708
0.00656781
0.00661791
0.00666735
0.00671621
0.00676447
0.00681206
0.00685908
0.00690536
0.00695105
0.00699613
0.00704056
0.00708428
0.00712746
0.00717
0.00721184
0.00725321
0.00729395
0.00733406
0.00737356
0.00741252
0.00745096
0.00748882
0.00752611
0.00756289
0.00759915
0.00763489
0.00767012
0.00770487
0.00773916
0.00777292
0.00780619
0.00783903
0.00787134
0.00790322
0.00793468
0.00796564
0.00799612
0.0080262
0.00805582
0.00808495
0.00811364
0.00814187
0.00816966
0.00819701
0.00822391
0.00825033
0.00827628
0.00830178
0.00832681
0.00835137
0.00837548
0.0083991
0.00842226
0.00844491
0.00846708
0.00848875
0.00850998
0.00853067
0.00855084
0.00857053
0.00858971
0.00860833
0.00862645
0.00864406
0.00866115
0.00867765
0.00869364
0.00870906
0.00872394
0.0087383
0.00875204
0.00876522
0.00877798
0.00879008
0.00880172
0.0088124
0.00882325
0.00883244
0.00884269
0.00885038
0.00885998
0.00886567
0.00887613
0.00283171
0.00486737
0.00599266
0.00652901
0.00668061
0.00668298
0.00668946
0.00673157
0.00679984
0.00685963
0.00691493
0.00697092
0.00702737
0.00708356
0.00713954
0.00719542
0.00725116
0.00730669
0.00736194
0.0074169
0.00747152
0.00752579
0.00757968
0.00763316
0.00768621
0.0077388
0.00779095
0.00784261
0.00789379
0.00794449
0.0079947
0.00804442
0.00809363
0.00814236
0.00819062
0.00823837
0.00828562
0.00833245
0.00837883
0.00842474
0.00847023
0.00851531
0.00855997
0.00860426
0.00864813
0.00869166
0.00873485
0.00877768
0.00882018
0.00886237
0.00890427
0.00894584
0.00898716
0.0090282
0.00906899
0.00910948
0.00914972
0.00918973
0.00922949
0.009269
0.00930827
0.00934728
0.00938605
0.00942459
0.00946286
0.00950088
0.00953864
0.00957612
0.00961334
0.00965025
0.00968688
0.00972323
0.00975925
0.00979495
0.00983031
0.00986534
0.0099
0.0099343
0.0099682
0.0100017
0.0100348
0.0100675
0.0100998
0.0101316
0.0101629
0.0101937
0.0102241
0.010254
0.0102833
0.0103122
0.0103404
0.0103681
0.0103952
0.0104218
0.0104477
0.010473
0.0104977
0.0105218
0.0105452
0.0105679
0.0105899
0.0106113
0.010632
0.0106519
0.0106711
0.0106896
0.0107073
0.0107243
0.0107405
0.010756
0.0107706
0.0107846
0.0107975
0.0108101
0.0108211
0.0108325
0.0108415
0.0108517
0.0108581
0.0108686
0.00559992
0.00727787
0.00779683
0.00780739
0.00771206
0.00765933
0.00767775
0.00773406
0.00778032
0.00781504
0.00784822
0.00788222
0.00791608
0.0079497
0.00798332
0.00801701
0.00805074
0.00808449
0.00811827
0.00815208
0.00818591
0.00821976
0.00825365
0.00828758
0.00832154
0.00835555
0.00838962
0.00842375
0.00845794
0.00849221
0.00852658
0.00856105
0.00859562
0.00863034
0.00866518
0.00870014
0.00873526
0.00877056
0.00880602
0.00884166
0.00887751
0.00891355
0.00894979
0.00898625
0.0090229
0.0090598
0.00909692
0.00913424
0.00917179
0.00920957
0.00924757
0.00928578
0.00932422
0.00936283
0.00940168
0.00944069
0.00947988
0.00951925
0.00955879
0.00959846
0.00963827
0.00967818
0.00971821
0.00975832
0.0097985
0.00983873
0.00987899
0.00991927
0.00995954
0.00999979
0.01004
0.0100801
0.0101202
0.0101601
0.0101999
0.0102396
0.010279
0.0103183
0.0103573
0.0103961
0.0104346
0.0104728
0.0105106
0.0105481
0.0105852
0.0106219
0.0106582
0.010694
0.0107293
0.010764
0.0107982
0.0108319
0.0108649
0.0108973
0.010929
0.01096
0.0109903
0.0110199
0.0110486
0.0110766
0.0111037
0.01113
0.0111554
0.0111799
0.0112035
0.0112261
0.0112478
0.0112684
0.0112881
0.0113067
0.0113243
0.0113408
0.0113561
0.0113707
0.0113835
0.0113961
0.0114062
0.011417
0.0114239
0.0114341
0.00815009
0.00816896
0.00781794
0.00731677
0.00705355
0.00700915
0.00704797
0.00708648
0.00709733
0.00710042
0.00710612
0.00711201
0.00711661
0.0071208
0.00712486
0.00712864
0.00713208
0.00713517
0.00713779
0.00714
0.00714175
0.007143
0.00714375
0.007144
0.00714374
0.00714298
0.00714174
0.00714004
0.00713791
0.00713538
0.00713249
0.0071293
0.00712584
0.00712221
0.00711843
0.00711454
0.00711067
0.00710685
0.00710313
0.0070996
0.00709636
0.00709343
0.00709087
0.00708877
0.00708715
0.00708612
0.00708569
0.00708591
0.00708684
0.00708853
0.00709098
0.00709425
0.00709839
0.00710334
0.0071092
0.00711594
0.00712358
0.00713215
0.00714163
0.00715201
0.00716331
0.00717551
0.0071886
0.00720257
0.00721742
0.0072331
0.00724961
0.00726694
0.00728504
0.00730392
0.00732352
0.00734383
0.00736479
0.0073864
0.00740863
0.00743141
0.00745472
0.00747853
0.00750279
0.00752745
0.00755248
0.00757783
0.00760345
0.0076293
0.00765534
0.0076815
0.00770774
0.00773402
0.00776028
0.00778647
0.00781255
0.00783845
0.00786413
0.00788954
0.00791464
0.00793936
0.00796367
0.00798751
0.00801085
0.00803363
0.00805582
0.00807736
0.00809823
0.00811837
0.00813776
0.00815636
0.00817411
0.00819101
0.00820702
0.00822213
0.00823623
0.00824945
0.00826152
0.00827284
0.00828267
0.0082921
0.00829948
0.00830717
0.00831171
0.008318
)
;

boundaryField
{
    upperWall
    {
        type            zeroGradient;
    }
    lowerWall
    {
        type            zeroGradient;
    }
    inlet
    {
        type            zeroGradient;
    }
    outlet
    {
        type            zeroGradient;
    }
    frontAndBack
    {
        type            empty;
    }
}


// ************************************************************************* //
