/*--------------------------------*- C++ -*----------------------------------*\
  =========                 |
  \\      /  F ield         | OpenFOAM: The Open Source CFD Toolbox
   \\    /   O peration     | Website:  https://openfoam.org
    \\  /    A nd           | Version:  7
     \\/     M anipulation  |
\*---------------------------------------------------------------------------*/
FoamFile
{
    version     2.0;
    format      ascii;
    class       surfaceScalarField;
    location    "4.2";
    object      phi_0;
}
// * * * * * * * * * * * * * * * * * * * * * * * * * * * * * * * * * * * * * //

dimensions      [1 0 -1 0 0 0 0];

internalField   nonuniform List<scalar> 
4588
(
0.0134249
0.000351644
0.0124287
0.000942983
0.0111513
0.00122432
0.00983429
0.00126388
0.00863251
0.00114877
0.00761452
0.000965044
0.00679929
0.000762344
0.00617314
0.000573398
0.00570489
0.000415707
0.00536029
0.00029228
0.00510854
0.000199684
0.00492425
0.000132572
0.00478766
8.52434e-05
0.00468379
5.29607e-05
0.00460189
3.15251e-05
0.00453486
1.72348e-05
0.00447783
7.85138e-06
0.00442749
1.79974e-06
0.00438184
-2.12894e-06
0.00433971
-4.88659e-06
0.00430018
-6.84246e-06
0.00426275
-8.23176e-06
0.00422708
-9.25198e-06
0.00419299
-1.00555e-05
0.00416047
-1.08343e-05
0.0041293
-1.13774e-05
0.00409946
-1.18476e-05
0.00407083
-1.22212e-05
0.0040434
-1.25525e-05
0.00401703
-1.27072e-05
0.0039918
-1.28719e-05
0.00396743
-1.2737e-05
0.00394423
-1.29135e-05
0.0039213
-1.21955e-05
0.00390021
-1.30052e-05
0.00387768
-1.05109e-05
0.00386206
-1.63475e-05
0.003837
-5.72931e-06
0.00386617
-5.90485e-05
1.20622e-05
0.00382544
0.0139617
0.000170072
0.0142301
0.000624981
0.0144519
0.000952889
0.0145362
0.00112991
0.0144742
0.00116135
0.0143001
0.0010898
0.0140556
0.000957499
0.0137786
0.000801256
0.0134958
0.000649485
0.0132219
0.000517506
0.0129637
0.000409424
0.0127241
0.000323944
0.0125035
0.000258034
0.0123008
0.000208308
0.0121142
0.000171294
0.0119421
0.000142962
0.0117831
0.000120938
0.011636
0.000103674
0.0114994
8.97481e-05
0.0113723
7.81796e-05
0.0112539
6.82855e-05
0.0111433
5.97069e-05
0.01104
5.21844e-05
0.0109433
4.55071e-05
0.0108526
3.94222e-05
0.0107675
3.40991e-05
0.0106876
2.92704e-05
0.0106122
2.51082e-05
0.0105413
2.12085e-05
0.010474
1.82156e-05
0.0104107
1.50441e-05
0.0103501
1.33718e-05
0.0102934
1.02213e-05
0.0102378
1.07262e-05
0.0101873
5.84112e-06
0.010135
1.10397e-05
0.0100908
-1.98274e-06
0.0100382
1.7847e-05
0.00997621
-2.48847e-05
4.40449e-05
0.00991729
0.0139201
3.6808e-05
0.0141399
0.000362502
0.0144496
0.000600323
0.0147978
0.000739009
0.0151299
0.000786749
0.0154144
0.000762812
0.0156382
0.00069141
0.0158011
0.000596143
0.0159118
0.000496793
0.015981
0.000406472
0.0160185
0.000330357
0.0160324
0.000268875
0.0160291
0.0002204
0.0160134
0.000183485
0.0159887
0.00015581
0.0159572
0.000134805
0.0159203
0.000118611
0.0158793
0.000105899
0.0158351
9.56467e-05
0.0157885
8.70545e-05
0.01574
7.9664e-05
0.01569
7.31637e-05
0.0156388
6.73598e-05
0.0155867
6.21466e-05
0.0155341
5.73327e-05
0.0154811
5.30681e-05
0.0154281
4.90545e-05
0.0153749
4.5644e-05
0.0153221
4.22149e-05
0.0152695
3.97924e-05
0.0152174
3.67956e-05
0.0151656
3.57145e-05
0.0151147
3.23963e-05
0.0150638
3.3733e-05
0.0150143
2.82313e-05
0.014965
3.40739e-05
0.0149151
2.23501e-05
0.0148692
3.90851e-05
0.0148051
1.53127e-05
6.44019e-05
0.0147617
0.0138946
-6.13626e-05
0.0140758
0.000148452
0.0143389
0.000304256
0.0146495
0.00039549
0.0149755
0.000428048
0.0152912
0.000414549
0.0155788
0.000371312
0.0158292
0.000313408
0.0160419
0.000251935
0.0162212
0.00019521
0.0163725
0.000147227
0.0165014
0.000108538
0.0166122
7.8313e-05
0.0167093
5.54302e-05
0.0167959
3.85188e-05
0.016874
2.62629e-05
0.0169452
1.72838e-05
0.0170107
1.06648e-05
0.0170712
5.76961e-06
0.0171271
2.17337e-06
0.017179
-7.81567e-07
0.017227
-2.97747e-06
0.0172714
-4.68672e-06
0.0173123
-5.95012e-06
0.01735
-7.00243e-06
0.0173846
-7.59028e-06
0.0174162
-8.07324e-06
0.017445
-8.11759e-06
0.0174711
-8.23391e-06
0.0174947
-7.5553e-06
0.0175157
-7.4447e-06
0.0175346
-5.77042e-06
0.0175508
-5.77689e-06
0.0175656
-2.40791e-06
0.0175768
-3.71571e-06
0.0175888
2.00452e-06
0.0175929
-1.27323e-06
0.0176038
9.26328e-06
0.0175923
8.43271e-06
3.25765e-05
0.0176066
0.0138909
-0.00014283
0.0140583
-3.9849e-05
0.014304
3.76417e-05
0.0145952
8.35834e-05
0.0149017
0.000100912
0.0151999
9.58238e-05
0.015475
7.57816e-05
0.0157202
4.78563e-05
0.0159342
1.77953e-05
0.0161192
-9.8007e-06
0.0162796
-3.30845e-05
0.0164201
-5.17025e-05
0.0165447
-6.58004e-05
0.016657
-7.64292e-05
0.0167602
-8.39564e-05
0.0168563
-8.89525e-05
0.0169467
-9.21018e-05
0.0170327
-9.41172e-05
0.0171151
-9.51837e-05
0.0171946
-9.55648e-05
0.0172712
-9.54437e-05
0.0173454
-9.49158e-05
0.0174173
-9.40836e-05
0.0174872
-9.29603e-05
0.017555
-9.16374e-05
0.0176209
-8.99597e-05
0.0176849
-8.81855e-05
0.0177471
-8.60581e-05
0.0178076
-8.40757e-05
0.0178666
-8.14772e-05
0.0179236
-7.91224e-05
0.0179793
-7.58176e-05
0.0180332
-7.34545e-05
0.0180858
-6.87919e-05
0.0181359
-6.69137e-05
0.0181862
-6.09341e-05
0.0182319
-5.91572e-05
0.0182802
-5.08957e-05
0.0183234
-4.6249e-05
-3.18839e-05
0.018377
0.0138864
-0.000206832
0.014045
-0.000205885
0.0142813
-0.000205831
0.0145632
-0.000205488
0.0148619
-0.000204975
0.015155
-0.000204406
0.0154276
-0.000203795
0.0156716
-0.000203012
0.0158847
-0.000202047
0.0160691
-0.000200901
0.016229
-0.000199642
0.016369
-0.000198304
0.0164934
-0.000196666
0.0166055
-0.000194918
0.0167083
-0.00019316
0.0168042
-0.000191179
0.0168947
-0.000188996
0.0169808
-0.000186662
0.0170635
-0.000184218
0.0171434
-0.000181649
0.0172207
-0.000178933
0.0172959
-0.000176091
0.017369
-0.000173129
0.0174403
-0.000169978
0.0175098
-0.00016687
0.0175777
-0.000163343
0.017644
-0.000159914
0.0177089
-0.000156227
0.0177722
-0.000152522
0.0178345
-0.000148649
0.0178949
-0.0001444
0.0179546
-0.000140239
0.0180126
-0.000135968
0.0180703
-0.000130578
0.0181256
-0.000126507
0.0181806
-0.000120131
0.0182335
-0.000116226
0.0182862
-0.000107603
0.0183412
-0.000105024
-9.32181e-05
0.0183991
0.0138864
-0.000256697
0.0140451
-0.000357829
0.0142814
-0.000435274
0.0145634
-0.000480525
0.0148622
-0.000496876
0.0151553
-0.000490733
0.015428
-0.000469484
0.015672
-0.000440022
0.0158851
-0.00040812
0.0160695
-0.000378267
0.0162294
-0.000352521
0.0163697
-0.000331561
0.016494
-0.000314043
0.0166062
-0.000300225
0.016709
-0.000289258
0.016805
-0.000280571
0.0168954
-0.000272975
0.0169816
-0.000266554
0.0170644
-0.000260769
0.0171443
-0.000255437
0.0172217
-0.000250255
0.0172969
-0.000245308
0.0173701
-0.000240448
0.0174414
-0.000235535
0.0175109
-0.000230615
0.0175789
-0.000225673
0.0176452
-0.000220727
0.01771
-0.000215665
0.0177734
-0.000210559
0.0178355
-0.000205485
0.0178965
-0.000200288
0.0179561
-0.000194969
0.0180142
-0.00018923
0.0180717
-0.000183409
0.0181273
-0.000177539
0.0181823
-0.000170789
0.0182354
-0.000165028
0.018288
-0.000155931
0.0183434
-0.00015602
-0.00014577
0.0184001
0.0138906
-0.000296823
0.0140587
-0.000505339
0.0143046
-0.000660688
0.0145959
-0.00075131
0.0149025
-0.000783044
0.0152007
-0.000768619
0.0154759
-0.000724287
0.0157213
-0.000664999
0.0159354
-0.000601841
0.0161206
-0.000543154
0.0162812
-0.000493004
0.0164217
-0.000451975
0.0165464
-0.00041898
0.016659
-0.000393121
0.0167623
-0.000373128
0.0168583
-0.000357451
0.016949
-0.000344703
0.0170352
-0.000334065
0.0171177
-0.000324886
0.0171973
-0.000316894
0.017274
-0.000309173
0.0173483
-0.000301996
0.0174204
-0.000295272
0.0174904
-0.000288426
0.0175583
-0.000281797
0.0176243
-0.000275312
0.0176885
-0.000268788
0.0177509
-0.000262356
0.0178115
-0.000255725
0.0178706
-0.000249451
0.0179278
-0.000242677
0.0179838
-0.00023662
0.0180377
-0.000229304
0.0180911
-0.000223362
0.0181416
-0.000214904
0.0181924
-0.000208843
0.0182388
-0.000199059
0.0182874
-0.000192489
0.0183312
-0.000188008
-0.000185977
0.0183825
0.0138951
-0.00032905
0.0140764
-0.000653706
0.0143397
-0.000891275
0.0146506
-0.00102948
0.0149767
-0.0010766
0.0152926
-0.00105194
0.0155804
-0.000979624
0.015831
-0.000883201
0.0160439
-0.000782463
0.0162234
-0.000690587
0.016375
-0.000612735
0.016504
-0.000549334
0.0166151
-0.000498645
0.0167124
-0.000459319
0.0167991
-0.000429081
0.0168775
-0.000405291
0.016949
-0.000386023
0.0170147
-0.00037003
0.0170754
-0.000356275
0.0171315
-0.000344066
0.0171836
-0.000332759
0.0172318
-0.000322218
0.0172763
-0.000312217
0.0173176
-0.000302528
0.0173555
-0.000293145
0.0173903
-0.000284058
0.0174222
-0.000275125
0.0174513
-0.000266455
0.0174778
-0.000257756
0.0175018
-0.000249532
0.0175234
-0.000240941
0.0175428
-0.000233382
0.0175599
-0.000224379
0.0175757
-0.000217728
0.0175885
-0.000206853
0.0176019
-0.000202086
0.0176086
-0.000186217
0.0176211
-0.000186039
0.0176128
-0.000161476
-0.000180268
0.0176244
0.0139207
-0.000376556
0.0141406
-0.000830759
0.0144507
-0.00115853
0.0147992
-0.00133526
0.0151315
-0.00136631
0.0154163
-0.00129427
0.0156403
-0.00116132
0.0158035
-0.00100424
0.0159145
-0.000851485
0.015984
-0.000718422
0.0160218
-0.000609123
0.0160359
-0.000522297
0.0160329
-0.000454855
0.0160175
-0.000403438
0.0159932
-0.00036459
0.0159619
-0.00033429
0.0159253
-0.0003101
0.0158846
-0.000290534
0.0158408
-0.000274152
0.0157945
-0.000259961
0.0157462
-0.000247338
0.0156965
-0.000235848
0.0156455
-0.000225277
0.0155938
-0.000215425
0.0155416
-0.00020619
0.015489
-0.000197474
0.0154364
-0.000189215
0.0153838
-0.00018133
0.0153316
-0.000173747
0.0152797
-0.000166546
0.0152287
-0.000159552
0.015178
-0.000153151
0.0151286
-0.000146329
0.0150797
-0.000140897
0.0150327
-0.000132736
0.0149866
-0.000129695
0.0149409
-0.000115011
0.0148994
-0.000119903
0.0148407
-7.93392e-05
-0.000112389
0.0147952
0.0139621
-0.000458349
0.0142309
-0.00104953
0.0144531
-0.00133084
0.014538
-0.00137021
0.0144762
-0.00125488
0.0143023
-0.00107091
0.0140582
-0.000867854
0.0137815
-0.000678454
0.013499
-0.000520253
0.0132254
-0.000396271
0.0129675
-0.000303048
0.0127282
-0.000235237
0.012508
-0.000187125
0.0123056
-0.000153976
0.0121193
-0.000131583
0.0119475
-0.000116257
0.0117889
-0.000105752
0.0116421
-9.8543e-05
0.0115059
-9.32165e-05
0.0113791
-8.91639e-05
0.011261
-8.58408e-05
0.0111508
-8.29223e-05
0.0110479
-8.03212e-05
0.0109515
-7.78571e-05
0.0108613
-7.55333e-05
0.0107767
-7.32299e-05
0.0106973
-7.09877e-05
0.0106226
-6.87187e-05
0.0105524
-6.64885e-05
0.0104862
-6.42153e-05
0.010424
-6.2066e-05
0.010365
-5.98158e-05
0.0103098
-5.7724e-05
0.010257
-5.55358e-05
0.0102088
-5.30099e-05
0.0101613
-5.15687e-05
0.0101209
-4.48607e-05
0.0100782
-4.86567e-05
0.0100232
3.1996e-06
-5.22644e-05
0.00998969
0.0134257
0.0124297
0.0111526
0.00983592
0.00863434
0.00761658
0.00680165
0.00617581
0.00570785
0.00536358
0.00511217
0.0049282
0.00479195
0.00468848
0.00460695
0.00454027
0.00448358
0.00443359
0.00438837
0.00434651
0.0043073
0.00427023
0.00423492
0.00420129
0.00416916
0.00413846
0.00410912
0.00408112
0.00405434
0.00402882
0.00400449
0.00398145
0.00395955
0.00393887
0.0039197
0.00390097
0.00388792
0.00387003
0.00390303
0.00387962
0.00369747
3.1533e-05
0.00363321
-1.65692e-05
0.00355864
7.36066e-06
0.00350619
-4.30337e-07
0.00346717
-9.43639e-07
0.00343193
6.10201e-06
0.00340064
1.27275e-05
0.00337334
1.74065e-05
0.00335003
2.06726e-05
0.00332981
2.30169e-05
0.00331269
2.51895e-05
0.00329822
2.66093e-05
0.00328599
2.72666e-05
0.00327577
2.73048e-05
0.00326717
2.70611e-05
0.00326025
2.65128e-05
0.0032545
2.53745e-05
0.00324984
2.39506e-05
0.00324587
2.21387e-05
0.0032426
2.0462e-05
0.00323994
1.89122e-05
0.00323761
1.73455e-05
0.00323564
1.57285e-05
0.00323387
1.41323e-05
0.00323235
1.28096e-05
0.00323107
1.15497e-05
0.00322985
1.01031e-05
0.00322864
8.80198e-06
0.00322751
7.73702e-06
0.00322657
6.95668e-06
0.00322564
6.02519e-06
0.00322463
5.01816e-06
0.00322364
4.32092e-06
0.00322271
3.93029e-06
0.00322196
3.70972e-06
0.00322118
3.25409e-06
0.0032203
2.66772e-06
0.00321944
2.28884e-06
0.00321867
2.136e-06
0.00321795
1.97402e-06
0.00321719
1.69955e-06
0.00321641
1.48602e-06
0.00321566
1.41965e-06
0.00321498
1.43811e-06
0.00321434
1.41456e-06
0.00321366
1.26071e-06
0.00321296
1.11221e-06
0.00321233
1.08692e-06
0.00321175
1.02001e-06
0.00321113
8.08829e-07
0.00321044
6.08381e-07
0.00320979
6.28942e-07
0.00320925
7.98231e-07
0.00320873
8.50466e-07
0.00320815
7.34999e-07
0.00320754
6.22214e-07
0.00320697
6.67699e-07
0.00320648
7.89402e-07
0.003206
7.73198e-07
0.00320547
6.0315e-07
0.0032049
4.73968e-07
0.00320439
4.97397e-07
0.00320392
5.66193e-07
0.00320344
5.6626e-07
0.00320296
5.22023e-07
0.00320247
5.10794e-07
0.00320201
5.54293e-07
0.00320159
5.63988e-07
0.00320115
4.67196e-07
0.00320066
3.53884e-07
0.00320019
3.55113e-07
0.00319977
4.40959e-07
0.00319937
4.66416e-07
0.00319894
3.96167e-07
0.00319848
3.45814e-07
0.00319805
3.98884e-07
0.00319767
4.98424e-07
0.00319731
5.11293e-07
0.00319691
4.01272e-07
0.00319647
3.00292e-07
0.00319606
3.20104e-07
0.00319569
3.97033e-07
0.00319533
4.18172e-07
0.00319494
3.81717e-07
0.00319455
3.60719e-07
0.00319417
3.88178e-07
0.00319381
4.25801e-07
0.00319346
4.17436e-07
0.00319308
3.67678e-07
0.0031927
3.44282e-07
0.00319235
3.71226e-07
0.00319201
3.8421e-07
0.00319167
3.37542e-07
0.00319129
2.83604e-07
0.00319092
3.03538e-07
0.00319059
3.96636e-07
0.00319029
4.69852e-07
0.00318997
4.53401e-07
0.00318962
3.98106e-07
0.00318928
3.96811e-07
0.00318897
4.45742e-07
0.00318868
4.66995e-07
0.00318837
4.29527e-07
0.00318805
3.75621e-07
0.00318773
3.57133e-07
0.00318743
3.83957e-07
0.00318715
4.23313e-07
0.00318686
4.45748e-07
0.00318658
4.65408e-07
0.00318631
5.09439e-07
0.00318606
5.6009e-07
0.00318582
5.68943e-07
0.00318557
5.27283e-07
0.00318531
4.88609e-07
0.00318506
5.08432e-07
0.00318484
5.74113e-07
0.00318464
6.19041e-07
0.00318442
6.1554e-07
0.0031842
6.15781e-07
0.00318399
6.71968e-07
0.00318381
7.58049e-07
0.00318365
8.09601e-07
0.00318348
8.09765e-07
0.00318331
8.00666e-07
0.00318315
8.25318e-07
0.00318301
8.79457e-07
0.00318289
9.22738e-07
0.00318277
9.35689e-07
0.00318265
9.50396e-07
0.00318254
1.00517e-06
0.00318246
1.08632e-06
0.00318239
1.14785e-06
0.00318232
1.17778e-06
0.00318226
1.21063e-06
0.00318221
1.2715e-06
0.00318219
1.33521e-06
0.00318218
1.36196e-06
0.00318216
1.35982e-06
0.00318215
1.38316e-06
0.00318216
1.46145e-06
0.0031822
1.55935e-06
0.00318226
1.62117e-06
0.00318231
1.6475e-06
0.00318236
1.68372e-06
0.00318244
1.76283e-06
0.00318255
1.85157e-06
0.00318266
1.91913e-06
0.00318279
1.94485e-06
0.00318291
1.9843e-06
0.00318307
2.01827e-06
0.00318322
2.09452e-06
0.00318341
2.10682e-06
0.00318356
2.20395e-06
0.0031838
2.20025e-06
0.00318394
2.40862e-06
0.00318429
2.31712e-06
0.00318437
2.61938e-06
0.00318485
2.27183e-06
0.00318481
2.81839e-06
2.2954e-06
0.00958421
0.000272723
0.00938004
0.000108191
0.00921501
0.000107909
0.00908489
7.83912e-05
0.00898636
5.89111e-05
0.0089042
6.02976e-05
0.00883357
6.5647e-05
0.0087727
6.88133e-05
0.00872083
7.00043e-05
0.00867649
7.0011e-05
0.00863901
7.03708e-05
0.00860743
6.97978e-05
0.00858096
6.81787e-05
0.00855885
6.57854e-05
0.00854044
6.30835e-05
0.00852534
6.02591e-05
0.00851282
5.65819e-05
0.0085025
5.25248e-05
0.00849375
4.81466e-05
0.00848642
4.41735e-05
0.00848027
4.06595e-05
0.0084749
3.70647e-05
0.00847026
3.35185e-05
0.00846611
3.0105e-05
0.00846243
2.73089e-05
0.00845916
2.46803e-05
0.00845609
2.17432e-05
0.00845313
1.90232e-05
0.00845035
1.68477e-05
0.00844781
1.52353e-05
0.00844534
1.33353e-05
0.00844285
1.13144e-05
0.00844043
9.93009e-06
0.00843811
9.12542e-06
0.00843598
8.66791e-06
0.00843386
7.76314e-06
0.00843169
6.57734e-06
0.00842955
5.80474e-06
0.00842753
5.47561e-06
0.00842559
5.13435e-06
0.00842363
4.57263e-06
0.00842168
4.12629e-06
0.00841978
3.96308e-06
0.00841797
3.97469e-06
0.00841623
3.89548e-06
0.00841447
3.57223e-06
0.00841271
3.26134e-06
0.00841105
3.19125e-06
0.00840944
3.04046e-06
0.00840782
2.60769e-06
0.00840616
2.19449e-06
0.00840454
2.21614e-06
0.00840305
2.53141e-06
0.0084016
2.61811e-06
0.00840012
2.37516e-06
0.00839861
2.13712e-06
0.00839715
2.21059e-06
0.00839579
2.43575e-06
0.00839446
2.39101e-06
0.00839308
2.04363e-06
0.00839169
1.77622e-06
0.00839036
1.8091e-06
0.00838909
1.93207e-06
0.00838783
1.92037e-06
0.00838656
1.82173e-06
0.0083853
1.78793e-06
0.00838409
1.86255e-06
0.00838292
1.87181e-06
0.00838173
1.67177e-06
0.00838052
1.43915e-06
0.00837933
1.43115e-06
0.0083782
1.59049e-06
0.0083771
1.63188e-06
0.00837598
1.4852e-06
0.00837484
1.37707e-06
0.00837373
1.47227e-06
0.00837268
1.66e-06
0.00837166
1.67813e-06
0.0083706
1.45459e-06
0.00836953
1.24847e-06
0.00836848
1.27931e-06
0.00836747
1.42328e-06
0.00836649
1.458e-06
0.00836548
1.37944e-06
0.00836447
1.331e-06
0.00836349
1.37798e-06
0.00836254
1.4455e-06
0.00836159
1.42289e-06
0.00836063
1.31874e-06
0.00835967
1.26606e-06
0.00835874
1.31256e-06
0.00835783
1.33209e-06
0.00835692
1.23428e-06
0.00835599
1.12149e-06
0.00835507
1.15326e-06
0.0083542
1.32931e-06
0.00835335
1.46687e-06
0.0083525
1.42815e-06
0.00835163
1.31253e-06
0.00835076
1.30266e-06
0.00834993
1.39175e-06
0.00834913
1.42656e-06
0.00834832
1.34567e-06
0.0083475
1.23198e-06
0.0083467
1.18725e-06
0.00834591
1.2314e-06
0.00834515
1.30016e-06
0.0083444
1.33521e-06
0.00834365
1.36421e-06
0.00834293
1.44092e-06
0.00834224
1.53081e-06
0.00834156
1.53841e-06
0.00834088
1.44615e-06
0.00834021
1.35886e-06
0.00833955
1.38596e-06
0.00833893
1.50327e-06
0.00833834
1.5797e-06
0.00833775
1.56024e-06
0.00833716
1.54735e-06
0.0083366
1.64404e-06
0.00833607
1.79949e-06
0.00833558
1.88689e-06
0.0083351
1.87268e-06
0.00833462
1.83958e-06
0.00833417
1.87238e-06
0.00833375
1.96296e-06
0.00833337
2.03189e-06
0.00833301
2.04068e-06
0.00833265
2.05242e-06
0.00833233
2.14267e-06
0.00833205
2.28465e-06
0.0083318
2.38778e-06
0.00833157
2.42825e-06
0.00833136
2.47412e-06
0.00833119
2.57492e-06
0.00833106
2.6813e-06
0.00833095
2.71459e-06
0.00833087
2.6907e-06
0.0083308
2.71624e-06
0.00833077
2.85008e-06
0.0083308
3.02202e-06
0.00833087
3.12363e-06
0.00833095
3.15412e-06
0.00833105
3.2054e-06
0.0083312
3.33864e-06
0.0083314
3.49423e-06
0.00833163
3.60312e-06
0.00833189
3.63707e-06
0.00833218
3.68717e-06
0.0083325
3.74229e-06
0.00833286
3.8574e-06
0.00833327
3.88018e-06
0.00833368
4.02136e-06
0.00833416
4.03333e-06
0.00833464
4.36537e-06
0.00833525
4.24291e-06
0.00833573
4.71452e-06
0.00833648
4.14746e-06
0.00833692
5.0252e-06
4.10301e-06
0.0143332
0.000622991
0.0139738
0.000400462
0.013723
0.000303629
0.0135386
0.000219116
0.0134047
0.000159972
0.0133006
0.000140796
0.013215
0.000136418
0.013143
0.000132951
0.0130827
0.000128532
0.0130318
0.000123612
0.0129893
0.000119957
0.0129538
0.000115688
0.0129244
0.000110663
0.0129
0.000104848
0.0128797
9.89518e-05
0.012863
9.32833e-05
0.0128491
8.69215e-05
0.0128374
8.02394e-05
0.0128274
7.33977e-05
0.0128189
6.72352e-05
0.0128117
6.18298e-05
0.0128052
5.62501e-05
0.0127995
5.09182e-05
0.0127943
4.58469e-05
0.0127895
4.17102e-05
0.0127852
3.78414e-05
0.012781
3.35637e-05
0.012777
2.9529e-05
0.0127732
2.6337e-05
0.0127696
2.39355e-05
0.0127661
2.11391e-05
0.0127627
1.81836e-05
0.0127593
1.61476e-05
0.012756
1.49809e-05
0.0127529
1.429e-05
0.0127498
1.29709e-05
0.0127467
1.12376e-05
0.0127437
1.00995e-05
0.0127408
9.5868e-06
0.012738
9.07219e-06
0.0127351
8.22752e-06
0.0127324
7.55719e-06
0.0127296
7.277e-06
0.012727
7.24541e-06
0.0127245
7.10191e-06
0.0127219
6.59751e-06
0.0127194
6.12401e-06
0.012717
6.00166e-06
0.0127146
5.76232e-06
0.0127123
5.11629e-06
0.0127099
4.49753e-06
0.0127076
4.50571e-06
0.0127054
4.93675e-06
0.0127032
5.04055e-06
0.0127011
4.67089e-06
0.0126989
4.30793e-06
0.0126968
4.39377e-06
0.0126948
4.7001e-06
0.0126928
4.61945e-06
0.0126908
4.10264e-06
0.0126888
3.70065e-06
0.0126869
3.73154e-06
0.012685
3.89302e-06
0.0126831
3.86097e-06
0.0126813
3.70396e-06
0.0126794
3.64034e-06
0.0126777
3.73394e-06
0.0126759
3.73468e-06
0.0126742
3.43393e-06
0.0126724
3.08594e-06
0.0126707
3.06128e-06
0.012669
3.27881e-06
0.0126674
3.32715e-06
0.0126657
3.10462e-06
0.0126641
2.93716e-06
0.0126624
3.06272e-06
0.0126609
3.32288e-06
0.0126593
3.33965e-06
0.0126578
3.00807e-06
0.0126562
2.70108e-06
0.0126547
2.73534e-06
0.0126532
2.93336e-06
0.0126517
2.97435e-06
0.0126502
2.85212e-06
0.0126488
2.7731e-06
0.0126473
2.83181e-06
0.0126459
2.92077e-06
0.0126445
2.8802e-06
0.0126431
2.72194e-06
0.0126417
2.63754e-06
0.0126403
2.69642e-06
0.0126389
2.71691e-06
0.0126376
2.56813e-06
0.0126362
2.39701e-06
0.0126349
2.43363e-06
0.0126336
2.67852e-06
0.0126323
2.8686e-06
0.012631
2.80466e-06
0.0126297
2.62934e-06
0.0126284
2.60611e-06
0.0126272
2.7258e-06
0.012626
2.76738e-06
0.0126248
2.64191e-06
0.0126236
2.4686e-06
0.0126223
2.394e-06
0.0126212
2.44725e-06
0.01262
2.53591e-06
0.0126189
2.57543e-06
0.0126178
2.6055e-06
0.0126167
2.70416e-06
0.0126156
2.822e-06
0.0126145
2.82114e-06
0.0126135
2.6756e-06
0.0126125
2.53616e-06
0.0126115
2.56096e-06
0.0126105
2.71588e-06
0.0126096
2.81168e-06
0.0126086
2.76843e-06
0.0126077
2.73371e-06
0.0126068
2.85654e-06
0.012606
3.06405e-06
0.0126052
3.17321e-06
0.0126044
3.13518e-06
0.0126037
3.06907e-06
0.0126029
3.09744e-06
0.0126022
3.20885e-06
0.0126016
3.28864e-06
0.012601
3.28102e-06
0.0126004
3.277e-06
0.0125998
3.38589e-06
0.0125993
3.56922e-06
0.0125988
3.69613e-06
0.0125984
3.73203e-06
0.012598
3.77532e-06
0.0125977
3.89764e-06
0.0125974
4.028e-06
0.0125971
4.0524e-06
0.0125969
3.99379e-06
0.0125967
4.00567e-06
0.0125965
4.17403e-06
0.0125965
4.39673e-06
0.0125965
4.51864e-06
0.0125965
4.53629e-06
0.0125965
4.58567e-06
0.0125966
4.75025e-06
0.0125968
4.95139e-06
0.012597
5.0786e-06
0.0125973
5.10725e-06
0.0125976
5.14509e-06
0.012598
5.21092e-06
0.0125984
5.33258e-06
0.0125989
5.36571e-06
0.0125994
5.50378e-06
0.0126
5.55133e-06
0.0126006
5.92087e-06
0.0126013
5.83675e-06
0.0126021
6.32063e-06
0.0126029
5.71551e-06
0.0126037
6.64997e-06
5.64009e-06
0.0176172
0.000552668
0.0174711
0.000496287
0.0172917
0.000441897
0.0171243
0.000353826
0.016995
0.000265279
0.0168992
0.000219319
0.016828
0.000197266
0.0167729
0.000182732
0.01673
0.00017069
0.0166959
0.000160424
0.0166689
0.000153129
0.0166472
0.000145954
0.0166299
0.000138715
0.0166157
0.000130934
0.016604
0.00012315
0.0165944
0.000115937
0.0165862
0.000108164
0.0165791
0.000100133
0.0165728
9.19656e-05
0.0165672
8.47054e-05
0.016562
7.82016e-05
0.0165572
7.1327e-05
0.0165526
6.48986e-05
0.0165482
5.87823e-05
0.0165439
5.37562e-05
0.0165399
4.90489e-05
0.0165359
4.37934e-05
0.016532
3.88253e-05
0.0165281
3.4865e-05
0.0165244
3.18494e-05
0.0165207
2.8338e-05
0.016517
2.46384e-05
0.0165134
2.20853e-05
0.0165098
2.06192e-05
0.0165064
1.97472e-05
0.0165031
1.80797e-05
0.0164997
1.59308e-05
0.0164964
1.44867e-05
0.0164931
1.38116e-05
0.01649
1.31515e-05
0.0164869
1.20723e-05
0.0164838
1.11888e-05
0.0164808
1.08059e-05
0.0164778
1.07244e-05
0.016475
1.04896e-05
0.0164721
9.83288e-06
0.0164693
9.21949e-06
0.0164665
9.0433e-06
0.0164639
8.72563e-06
0.0164612
7.89963e-06
0.0164586
7.10522e-06
0.0164559
7.09381e-06
0.0164534
7.60886e-06
0.016451
7.7185e-06
0.0164485
7.23865e-06
0.0164461
6.76645e-06
0.0164437
6.85442e-06
0.0164413
7.21996e-06
0.0164391
7.10409e-06
0.0164368
6.44325e-06
0.0164345
5.92497e-06
0.0164323
5.94766e-06
0.0164301
6.13411e-06
0.0164279
6.07917e-06
0.0164258
5.86833e-06
0.0164237
5.77405e-06
0.0164216
5.87729e-06
0.0164196
5.86598e-06
0.0164175
5.47783e-06
0.0164155
5.02981e-06
0.0164135
4.9857e-06
0.0164115
5.24539e-06
0.0164096
5.29436e-06
0.0164077
5.00471e-06
0.0164058
4.78334e-06
0.0164039
4.92832e-06
0.016402
5.24292e-06
0.0164002
5.25446e-06
0.0163984
4.83032e-06
0.0163966
4.43599e-06
0.0163948
4.46835e-06
0.016393
4.70613e-06
0.0163913
4.7479e-06
0.0163895
4.58554e-06
0.0163878
4.47701e-06
0.0163861
4.54097e-06
0.0163844
4.6435e-06
0.0163828
4.58446e-06
0.0163811
4.37797e-06
0.0163794
4.26352e-06
0.0163778
4.32875e-06
0.0163762
4.34653e-06
0.0163746
4.15228e-06
0.016373
3.92918e-06
0.0163714
3.96547e-06
0.0163698
4.26251e-06
0.0163683
4.49179e-06
0.0163668
4.4034e-06
0.0163653
4.17507e-06
0.0163637
4.13671e-06
0.0163623
4.27758e-06
0.0163608
4.32091e-06
0.0163593
4.15495e-06
0.0163579
3.92845e-06
0.0163564
3.82473e-06
0.016355
3.88082e-06
0.0163536
3.98113e-06
0.0163523
4.01933e-06
0.0163509
4.04493e-06
0.0163496
4.15621e-06
0.0163483
4.29186e-06
0.016347
4.27888e-06
0.0163457
4.08396e-06
0.0163444
3.89538e-06
0.0163432
3.91174e-06
0.016342
4.09108e-06
0.0163408
4.19621e-06
0.0163397
4.12633e-06
0.0163385
4.0661e-06
0.0163374
4.20266e-06
0.0163364
4.44522e-06
0.0163354
4.56442e-06
0.0163344
4.49852e-06
0.0163334
4.39649e-06
0.0163324
4.41216e-06
0.0163315
4.53148e-06
0.0163307
4.61068e-06
0.0163299
4.57957e-06
0.0163291
4.55217e-06
0.0163283
4.66585e-06
0.0163276
4.87253e-06
0.016327
5.00804e-06
0.0163264
5.02875e-06
0.0163258
5.05826e-06
0.0163253
5.18655e-06
0.0163248
5.32489e-06
0.0163244
5.32979e-06
0.0163241
5.23001e-06
0.0163237
5.21757e-06
0.0163235
5.4014e-06
0.0163233
5.65254e-06
0.0163231
5.77797e-06
0.0163231
5.77095e-06
0.016323
5.80531e-06
0.0163231
5.98102e-06
0.0163232
6.20657e-06
0.0163233
6.33319e-06
0.0163235
6.34523e-06
0.0163238
6.35549e-06
0.0163242
6.42045e-06
0.0163246
6.52571e-06
0.016325
6.56379e-06
0.0163256
6.66649e-06
0.0163262
6.75644e-06
0.0163269
7.09562e-06
0.0163276
7.09911e-06
0.0163285
7.46017e-06
0.0163293
6.9796e-06
0.0163303
7.72423e-06
6.97874e-06
0.0187835
0.000108933
0.0190787
0.000170654
0.019294
0.000202034
0.0194243
0.0002041
0.019485
0.000190755
0.0195127
0.000181788
0.0195271
0.000177746
0.0195377
0.00016974
0.0195483
0.000160441
0.01956
0.000151215
0.0195726
0.000145124
0.0195852
0.000139541
0.0195969
0.000134464
0.0196072
0.000128919
0.0196157
0.000123128
0.0196225
0.000118053
0.0196275
0.000112064
0.0196311
0.000105466
0.0196332
9.82661e-05
0.0196341
9.17981e-05
0.0196342
8.57931e-05
0.0196335
7.89599e-05
0.0196323
7.25595e-05
0.0196306
6.63668e-05
0.0196286
6.11555e-05
0.0196263
5.62126e-05
0.0196239
5.05586e-05
0.0196213
4.51306e-05
0.0196186
4.07842e-05
0.019616
3.74373e-05
0.0196133
3.35222e-05
0.0196105
2.93871e-05
0.0196078
2.64866e-05
0.019605
2.48301e-05
0.0196024
2.3831e-05
0.0195998
2.19419e-05
0.0195971
1.95298e-05
0.0195945
1.79002e-05
0.019592
1.71119e-05
0.0195895
1.63463e-05
0.019587
1.51072e-05
0.0195845
1.40856e-05
0.019582
1.36164e-05
0.0195797
1.34872e-05
0.0195773
1.31977e-05
0.019575
1.2421e-05
0.0195727
1.17114e-05
0.0195704
1.15052e-05
0.0195682
1.11394e-05
0.019566
1.01945e-05
0.0195638
9.28348e-06
0.0195616
9.26195e-06
0.0195595
9.83501e-06
0.0195574
9.95194e-06
0.0195553
9.39954e-06
0.0195532
8.85448e-06
0.0195512
8.94596e-06
0.0195492
9.35501e-06
0.0195472
9.21756e-06
0.0195452
8.45939e-06
0.0195432
7.86185e-06
0.0195413
7.88011e-06
0.0195394
8.085e-06
0.0195375
8.01504e-06
0.0195356
7.76744e-06
0.0195338
7.65213e-06
0.0195319
7.76266e-06
0.0195301
7.74401e-06
0.0195283
7.29557e-06
0.0195265
6.77729e-06
0.0195247
6.71917e-06
0.019523
7.00817e-06
0.0195212
7.05743e-06
0.0195195
6.72028e-06
0.0195178
6.46022e-06
0.0195161
6.61783e-06
0.0195144
6.97001e-06
0.0195127
6.97785e-06
0.0195111
6.48838e-06
0.0195094
6.03158e-06
0.0195078
6.06166e-06
0.0195062
6.32653e-06
0.0195046
6.3679e-06
0.019503
6.17615e-06
0.0195014
6.04553e-06
0.0194998
6.11191e-06
0.0194983
6.22293e-06
0.0194967
6.14996e-06
0.0194952
5.90823e-06
0.0194937
5.77114e-06
0.0194921
5.83968e-06
0.0194907
5.85459e-06
0.0194892
5.62695e-06
0.0194877
5.36539e-06
0.0194862
5.39963e-06
0.0194847
5.73174e-06
0.0194833
5.98719e-06
0.0194819
5.88003e-06
0.0194805
5.61237e-06
0.019479
5.56142e-06
0.0194776
5.71561e-06
0.0194763
5.7586e-06
0.0194749
5.56218e-06
0.0194735
5.29573e-06
0.0194722
5.16894e-06
0.0194708
5.22465e-06
0.0194695
5.33076e-06
0.0194682
5.36526e-06
0.0194669
5.38461e-06
0.0194656
5.50178e-06
0.0194644
5.64724e-06
0.0194631
5.62283e-06
0.0194619
5.38943e-06
0.0194607
5.16191e-06
0.0194595
5.16813e-06
0.0194584
5.3608e-06
0.0194572
5.46832e-06
0.0194561
5.37467e-06
0.019455
5.29105e-06
0.0194539
5.43211e-06
0.0194529
5.69437e-06
0.0194519
5.81529e-06
0.0194509
5.72366e-06
0.01945
5.58969e-06
0.019449
5.58974e-06
0.0194482
5.70802e-06
0.0194473
5.77981e-06
0.0194465
5.72438e-06
0.0194457
5.67224e-06
0.019445
5.7811e-06
0.0194443
5.99614e-06
0.0194436
6.12911e-06
0.019443
6.12982e-06
0.0194425
6.14004e-06
0.0194419
6.26313e-06
0.0194415
6.39756e-06
0.0194411
6.37853e-06
0.0194407
6.23868e-06
0.0194404
6.19793e-06
0.0194401
6.38183e-06
0.0194399
6.64218e-06
0.0194398
6.75857e-06
0.0194397
6.7219e-06
0.0194397
6.73329e-06
0.0194397
6.90457e-06
0.0194398
7.13533e-06
0.01944
7.24845e-06
0.0194402
7.23637e-06
0.0194405
7.21242e-06
0.0194409
7.26612e-06
0.0194414
7.34173e-06
0.0194419
7.37766e-06
0.0194424
7.42703e-06
0.0194431
7.55648e-06
0.0194438
7.81933e-06
0.0194446
7.93321e-06
0.0194456
8.08287e-06
0.0194464
7.84223e-06
0.0194476
8.2145e-06
8.05097e-06
0.0188806
-0.000384938
0.0193059
-0.000264051
0.0197199
-0.000218899
0.0200979
-0.000179332
0.0204185
-0.000133161
0.0206893
-9.0755e-05
0.0209156
-4.84387e-05
0.0210997
-1.39549e-05
0.0212469
1.45355e-05
0.021363
3.70578e-05
0.0214536
5.71706e-05
0.0215234
7.28474e-05
0.0215766
8.47309e-05
0.0216167
9.25332e-05
0.0216466
9.69937e-05
0.0216685
0.000100001
0.0216844
0.000100124
0.0216957
9.82026e-05
0.0217034
9.42762e-05
0.0217087
9.01461e-05
0.021712
8.57063e-05
0.021714
7.99346e-05
0.021715
7.42753e-05
0.0217154
6.85947e-05
0.0217153
6.35947e-05
0.0217149
5.87593e-05
0.0217143
5.30593e-05
0.0217136
4.75224e-05
0.0217128
4.30583e-05
0.021712
3.95688e-05
0.0217111
3.55178e-05
0.0217103
3.11966e-05
0.0217095
2.81149e-05
0.0217087
2.63377e-05
0.0217079
2.5286e-05
0.0217072
2.32807e-05
0.0217064
2.07921e-05
0.0217056
1.90973e-05
0.0217048
1.82709e-05
0.0217041
1.74769e-05
0.0217033
1.61901e-05
0.0217025
1.51047e-05
0.0217017
1.46202e-05
0.0217009
1.44963e-05
0.0217001
1.41788e-05
0.0216992
1.33627e-05
0.0216984
1.26331e-05
0.0216975
1.24373e-05
0.0216967
1.20723e-05
0.0216958
1.10971e-05
0.021695
1.01555e-05
0.0216941
1.01487e-05
0.0216932
1.07641e-05
0.0216923
1.09022e-05
0.0216914
1.03348e-05
0.0216905
9.77329e-06
0.0216895
9.88198e-06
0.0216886
1.03259e-05