/*--------------------------------*- C++ -*----------------------------------*\
  =========                 |
  \\      /  F ield         | OpenFOAM: The Open Source CFD Toolbox
   \\    /   O peration     | Website:  https://openfoam.org
    \\  /    A nd           | Version:  7
     \\/     M anipulation  |
\*---------------------------------------------------------------------------*/
FoamFile
{
    version     2.0;
    format      ascii;
    class       volVectorField;
    location    "2.7675";
    object      U;
}
// * * * * * * * * * * * * * * * * * * * * * * * * * * * * * * * * * * * * * //

dimensions      [0 1 -1 0 0 0 0];

internalField   nonuniform List<vector> 
7920
(
(2.9301 0.10194 -32.3842)
(2.10512 -0.462117 -32.438)
(1.393 -0.616658 -32.4393)
(1.28456 -0.6729 -32.4488)
(1.05049 -0.689722 -32.4451)
(1.07646 -0.69468 -32.451)
(0.935932 -0.698798 -32.4476)
(0.981261 -0.699013 -32.4519)
(0.876326 -0.701227 -32.4494)
(0.921302 -0.70099 -32.4527)
(0.837885 -0.702559 -32.4507)
(0.878627 -0.702057 -32.4532)
(0.810731 -0.703044 -32.4517)
(0.846531 -0.702477 -32.4536)
(0.790544 -0.702843 -32.4526)
(0.821414 -0.702928 -32.4537)
(0.773928 -0.69899 -32.4538)
(0.795532 -0.705494 -32.453)
(0.760896 -0.646948 -32.4565)
(0.589846 -0.659587 -32.4463)
(4.41135 0.967671 -32.4309)
(4.33404 0.873002 -32.4755)
(3.68196 0.81874 -32.4789)
(3.53447 0.751714 -32.4914)
(3.13525 0.724054 -32.4905)
(3.1301 0.710708 -32.4973)
(2.86802 0.704194 -32.4959)
(2.91034 0.70075 -32.5003)
(2.71516 0.698697 -32.4996)
(2.76776 0.69702 -32.5028)
(2.61327 0.695941 -32.5023)
(2.66526 0.69477 -32.5046)
(2.5396 0.694107 -32.5044)
(2.58765 0.693156 -32.5057)
(2.48367 0.692521 -32.5064)
(2.52853 0.692586 -32.5059)
(2.436 0.689362 -32.509)
(2.49724 0.694226 -32.5033)
(2.37688 0.684538 -32.5166)
(2.65345 0.676495 -32.4773)
(4.75187 0.193193 -32.4353)
(5.25832 -0.229072 -32.4701)
(5.11399 -0.375157 -32.4615)
(5.22595 -0.493711 -32.473)
(4.9818 -0.558711 -32.4676)
(5.03218 -0.595436 -32.4763)
(4.81845 -0.619918 -32.4721)
(4.86157 -0.633765 -32.4792)
(4.6858 -0.64438 -32.4764)
(4.72675 -0.651069 -32.4823)
(4.58248 -0.656532 -32.4808)
(4.6207 -0.66057 -32.4854)
(4.50151 -0.663711 -32.4849)
(4.53606 -0.666444 -32.4879)
(4.43784 -0.668543 -32.4889)
(4.46525 -0.669509 -32.4892)
(4.39116 -0.672776 -32.4933)
(4.39175 -0.66862 -32.488)
(4.36592 -0.66951 -32.4998)
(4.27142 -0.690709 -32.4672)
(4.75292 0.649436 -32.4453)
(5.28462 0.749733 -32.4771)
(5.3855 0.797053 -32.4666)
(5.691 0.767403 -32.4743)
(5.63267 0.749542 -32.4683)
(5.8049 0.735227 -32.4746)
(5.71176 0.72491 -32.4707)
(5.82477 0.716891 -32.4759)
(5.73081 0.71084 -32.4737)
(5.81256 0.705243 -32.4781)
(5.72656 0.701297 -32.4774)
(5.78943 0.697125 -32.4809)
(5.71283 0.694647 -32.4815)
(5.7641 0.691184 -32.4838)
(5.6948 0.690331 -32.4856)
(5.74221 0.686371 -32.4863)
(5.67235 0.689307 -32.4895)
(5.7343 0.682137 -32.4876)
(5.64548 0.69669 -32.4929)
(5.78785 0.70714 -32.467)
(4.74499 -0.0881694 -32.4444)
(5.24812 -0.387205 -32.4759)
(5.4062 -0.479936 -32.4622)
(5.76724 -0.545848 -32.4699)
(5.7784 -0.581767 -32.4612)
(6.01096 -0.601841 -32.4675)
(5.98465 -0.616169 -32.4614)
(6.15044 -0.624173 -32.4668)
(6.11572 -0.631114 -32.4628)
(6.24114 -0.635513 -32.4675)
(6.20567 -0.63973 -32.4651)
(6.30352 -0.642781 -32.4692)
(6.26964 -0.645895 -32.4682)
(6.34752 -0.647789 -32.4717)
(6.31653 -0.651359 -32.4717)
(6.37791 -0.649907 -32.4743)
(6.35434 -0.659131 -32.475)
(6.39317 -0.647922 -32.4768)
(6.3903 -0.671448 -32.4777)
(6.38964 -0.6934 -32.4563)
(4.73247 0.352126 -32.448)
(5.19145 0.557247 -32.4802)
(5.35956 0.635737 -32.4663)
(5.73603 0.655944 -32.474)
(5.77105 0.666204 -32.4647)
(6.02735 0.66954 -32.471)
(6.0278 0.671712 -32.4644)
(6.21813 0.671813 -32.4695)
(6.21074 0.672153 -32.465)
(6.35965 0.671411 -32.4695)
(6.35028 0.671296 -32.4666)
(6.46956 0.67042 -32.4706)
(6.45931 0.67047 -32.469)
(6.5564 0.66921 -32.4726)
(6.5453 0.670575 -32.4719)
(6.62575 0.666953 -32.475)
(6.6145 0.674316 -32.4748)
(6.68228 0.66331 -32.4775)
(6.67549 0.686792 -32.4773)
(6.7406 0.708964 -32.4558)
(4.73247 -0.352126 -32.448)
(5.19145 -0.557247 -32.4802)
(5.35956 -0.635738 -32.4663)
(5.73603 -0.655943 -32.474)
(5.77105 -0.666204 -32.4647)
(6.02735 -0.669539 -32.471)
(6.0278 -0.671712 -32.4643)
(6.21813 -0.67181 -32.4696)
(6.21074 -0.672149 -32.4649)
(6.35965 -0.671402 -32.4695)
(6.35028 -0.67128 -32.4665)
(6.46956 -0.670398 -32.4706)
(6.45933 -0.670425 -32.469)
(6.55639 -0.66913 -32.4726)
(6.54539 -0.670484 -32.4718)
(6.62569 -0.666647 -32.475)
(6.61471 -0.674173 -32.4747)
(6.68213 -0.662374 -32.4775)
(6.6758 -0.68628 -32.4773)
(6.7403 -0.707196 -32.4557)
(4.74499 0.0881694 -32.4444)
(5.24813 0.387205 -32.4759)
(5.4062 0.479936 -32.4622)
(5.76724 0.545849 -32.4699)
(5.7784 0.581767 -32.4611)
(6.01096 0.601842 -32.4676)
(5.98465 0.61617 -32.4614)
(6.15044 0.624176 -32.4669)
(6.11572 0.631118 -32.4627)
(6.24116 0.635519 -32.4675)
(6.20566 0.639747 -32.4651)
(6.30357 0.642797 -32.4694)
(6.26962 0.645944 -32.4681)
(6.34763 0.647852 -32.4719)
(6.31649 0.651459 -32.4714)
(6.37818 0.650177 -32.4747)
(6.35441 0.659291 -32.4746)
(6.39385 0.648831 -32.4773)
(6.39092 0.671946 -32.4773)
(6.39144 0.695316 -32.4567)
(4.75292 -0.649436 -32.4453)
(5.28462 -0.749733 -32.4771)
(5.3855 -0.797053 -32.4666)
(5.691 -0.767402 -32.4743)
(5.63267 -0.749542 -32.4683)
(5.8049 -0.735226 -32.4746)
(5.71176 -0.72491 -32.4706)
(5.82477 -0.716888 -32.476)
(5.73081 -0.710838 -32.4736)
(5.81257 -0.705235 -32.4782)
(5.72656 -0.701287 -32.4772)
(5.78947 -0.697103 -32.4811)
(5.71286 -0.694617 -32.4812)
(5.76422 -0.691107 -32.4843)
(5.69491 -0.690278 -32.4849)
(5.74248 -0.686093 -32.4873)
(5.67281 -0.689261 -32.488)
(5.73482 -0.681329 -32.4896)
(5.64682 -0.696441 -32.4902)
(5.78901 -0.705821 -32.4703)
(4.75187 -0.193193 -32.4353)
(5.25832 0.229072 -32.4701)
(5.11399 0.375157 -32.4615)
(5.22595 0.493711 -32.473)
(4.9818 0.558712 -32.4675)
(5.03219 0.595436 -32.4763)
(4.81845 0.619919 -32.4721)
(4.86158 0.633766 -32.4792)
(4.6858 0.644384 -32.4764)
(4.72677 0.65107 -32.4824)
(4.58248 0.656547 -32.4806)
(4.62078 0.660572 -32.4856)
(4.50151 0.663751 -32.4845)
(4.53629 0.66646 -32.4885)
(4.43788 0.668627 -32.4878)
(4.46586 0.669628 -32.491)
(4.3915 0.67291 -32.4904)
(4.39328 0.669148 -32.4927)
(4.36742 0.66986 -32.4922)
(4.2759 0.691921 -32.4789)
(4.41135 -0.967671 -32.4309)
(4.33404 -0.873002 -32.4755)
(3.68196 -0.81874 -32.4789)
(3.53447 -0.751714 -32.4914)
(3.13525 -0.724054 -32.4905)
(3.1301 -0.710707 -32.4973)
(2.86802 -0.704194 -32.4959)
(2.91034 -0.700748 -32.5004)
(2.71517 -0.698697 -32.4996)
(2.76777 -0.697015 -32.5029)
(2.61329 -0.695939 -32.5022)
(2.66532 -0.694757 -32.5048)
(2.53965 -0.694101 -32.5042)
(2.58782 -0.693111 -32.5061)
(2.48384 -0.69252 -32.5057)
(2.52892 -0.692424 -32.5071)
(2.4367 -0.689441 -32.5067)
(2.49785 -0.693789 -32.5078)
(2.37925 -0.684824 -32.5071)
(2.65396 -0.676652 -32.4981)
(2.9301 -0.10194 -32.3842)
(2.10512 0.462117 -32.438)
(1.393 0.616658 -32.4393)
(1.28456 0.6729 -32.4488)
(1.05049 0.689722 -32.4451)
(1.07646 0.694679 -32.451)
(0.935933 0.698798 -32.4476)
(0.981263 0.699012 -32.4519)
(0.87633 0.701229 -32.4493)
(0.921311 0.700986 -32.4527)
(0.837893 0.702563 -32.4506)
(0.878658 0.702047 -32.4532)
(0.810749 0.703054 -32.4516)
(0.846625 0.702447 -32.4537)
(0.790608 0.702875 -32.4524)
(0.821639 0.702841 -32.454)
(0.774245 0.699121 -32.4531)
(0.795977 0.705341 -32.4543)
(0.762164 0.647604 -32.4536)
(0.591917 0.660372 -32.4539)
(4.32475 0.566029 0.00694281)
(3.07937 0.847744 0.0044753)
(2.31538 0.869654 0.00574786)
(1.74856 0.852871 0.00427166)
(1.61033 0.855589 0.00541708)
(1.40651 0.867415 0.00424903)
(1.39976 0.877408 0.00520473)
(1.27801 0.885504 0.00422431)
(1.28506 0.889796 0.00500646)
(1.19905 0.89348 0.0041793)
(1.20704 0.895241 0.00482064)
(1.14423 0.897306 0.00412626)
(1.15062 0.898097 0.00465313)
(1.10277 0.899577 0.0040721)
(1.10803 0.899432 0.00450409)
(1.06813 0.901846 0.00401808)
(1.07519 0.894345 0.00437277)
(1.05237 0.916133 0.0039617)
(1.0074 0.792456 0.00428412)
(1.44993 0.819882 0.00385124)
(4.75886 -0.100031 0.00436644)
(4.61226 -0.277173 0.00233369)
(4.52655 -0.477275 0.00363736)
(4.14465 -0.643272 0.00219488)
(4.00237 -0.73967 0.00334848)
(3.72445 -0.795019 0.00218588)
(3.6506 -0.822525 0.00314537)
(3.46378 -0.839635 0.0021676)
(3.42389 -0.849892 0.00295241)
(3.29154 -0.857688 0.00212704)
(3.26604 -0.863021 0.00277027)
(3.16819 -0.867512 0.00207685)
(3.14926 -0.870426 0.00260501)
(3.07347 -0.873732 0.00202454)
(3.0595 -0.874384 0.00245701)
(2.994 -0.878906 0.00197198)
(2.9941 -0.875757 0.002322)
(2.90903 -0.882837 0.00191914)
(2.98435 -0.886401 0.00217411)
(2.58305 -0.894616 0.00179562)
(4.63758 0.435287 0.00566483)
(4.82673 0.871403 0.00370894)
(5.14251 0.969605 0.00489467)
(5.08321 0.960438 0.003412)
(5.14528 0.942305 0.00453986)
(5.01007 0.929139 0.00336464)
(5.01626 0.919806 0.00431822)
(4.89757 0.913987 0.00333693)
(4.89216 0.907584 0.00411995)
(4.79631 0.904003 0.00329275)
(4.78607 0.899493 0.00393476)
(4.70926 0.89739 0.00324004)
(4.69639 0.894461 0.00376715)
(4.63505 0.892993 0.00318556)
(4.61909 0.891518 0.0036177)
(4.57407 0.889405 0.00313096)
(4.54502 0.888272 0.00348654)
(4.54026 0.88829 0.00307372)
(4.45996 0.849249 0.00339729)
(4.57819 0.889928 0.00298672)
(4.57574 -0.201721 0.00448597)
(4.70021 -0.398244 0.00274939)
(5.13112 -0.518939 0.00393964)
(5.23138 -0.623673 0.00248597)
(5.44874 -0.691484 0.00361533)
(5.45002 -0.738681 0.00244431)
(5.56184 -0.765346 0.00340071)
(5.53656 -0.784722 0.00242261)
(5.60111 -0.797336 0.00320824)
(5.57055 -0.807868 0.00238397)
(5.60894 -0.815667 0.00302777)
(5.57919 -0.822473 0.00233522)
(5.60198 -0.827773 0.00286339)
(5.57465 -0.832499 0.00228353)
(5.58834 -0.836439 0.00271568)
(5.56152 -0.839191 0.00223114)
(5.57398 -0.84641 0.00258019)
(5.5307 -0.840709 0.00217653)
(5.5703 -0.876287 0.0024295)
(5.37553 -0.897462 0.00207875)
(4.58881 0.341473 0.00513934)
(4.69625 0.688428 0.00344247)
(5.1071 0.803358 0.0045854)
(5.22818 0.844905 0.00311779)
(5.48573 0.861972 0.00423446)
(5.53604 0.87172 0.00305682)
(5.69866 0.875493 0.00400997)
(5.72583 0.878027 0.00302965)
(5.83896 0.877341 0.0038143)
(5.85643 0.87749 0.00298891)
(5.93726 0.875873 0.0036321)
(5.94892 0.875513 0.00293877)
(6.00726 0.874145 0.00346641)
(6.01572 0.873354 0.00288592)
(6.05681 0.873236 0.00331796)
(6.06611 0.870246 0.00283244)
(6.08825 0.8746 0.00318578)
(6.10664 0.866237 0.00277585)
(6.1068 0.870217 0.00308038)
(6.10501 0.91686 0.0027044)
(4.58276 -0.269106 0.00476843)
(4.66806 -0.539384 0.00313591)
(5.07379 -0.653843 0.00427803)
(5.19621 -0.724687 0.00281748)
(5.46522 -0.765195 0.00393234)
(5.53065 -0.792867 0.00275466)
(5.71125 -0.807519 0.00370772)
(5.75776 -0.818273 0.00272767)
(5.89092 -0.824063 0.00351272)
(5.9291 -0.82942 0.00268789)
(6.03027 -0.832603 0.00333145)
(6.0621 -0.835972 0.00263863)
(6.14005 -0.838266 0.00316651)
(6.16644 -0.840265 0.00258649)
(6.22706 -0.843018 0.00301839)
(6.24831 -0.842004 0.00253367)
(6.29616 -0.850865 0.00288406)
(6.30423 -0.840177 0.00247777)
(6.35518 -0.870904 0.00275344)
(6.26941 -0.905782 0.00240119)
(4.58276 0.269106 0.00476843)
(4.66806 0.539384 0.00313591)
(5.07379 0.653843 0.00427803)
(5.19621 0.724688 0.00281748)
(5.46522 0.765195 0.00393234)
(5.53065 0.792868 0.00275466)
(5.71125 0.80752 0.00370772)
(5.75776 0.818277 0.00272767)
(5.89092 0.824068 0.00351272)
(5.9291 0.82943 0.00268789)
(6.03026 0.832619 0.00333146)
(6.06212 0.836002 0.00263862)
(6.14003 0.83831 0.00316652)
(6.16649 0.840359 0.00258644)
(6.22699 0.843136 0.00301845)
(6.2485 0.842287 0.00253351)
(6.29604 0.851201 0.0028843)
(6.30485 0.840973 0.00247739)
(6.35542 0.871863 0.00275455)
(6.2705 0.907861 0.0024008)
(4.58881 -0.341473 0.00513934)
(4.69625 -0.688428 0.00344247)
(5.1071 -0.803358 0.0045854)
(5.22818 -0.844904 0.00311779)
(5.48573 -0.861972 0.00423445)
(5.53605 -0.871718 0.00305682)
(5.69866 -0.875492 0.00400996)
(5.72583 -0.878023 0.00302966)
(5.83896 -0.877338 0.00381429)
(5.85643 -0.877479 0.00298892)
(5.93727 -0.875861 0.00363208)
(5.94893 -0.875479 0.0029388)
(6.00729 -0.874111 0.00346638)
(6.01574 -0.873249 0.00288599)
(6.05694 -0.873152 0.00331785)
(6.06612 -0.869948 0.00283262)
(6.08864 -0.874371 0.00318545)
(6.10653 -0.86554 0.00277616)
(6.10756 -0.869523 0.00307926)
(6.10516 -0.915025 0.00270436)
(4.57574 0.201721 0.00448597)
(4.70021 0.398244 0.00274939)
(5.13112 0.518939 0.00393964)
(5.23138 0.623673 0.00248597)
(5.44874 0.691485 0.00361533)
(5.45002 0.738682 0.00244432)
(5.56183 0.765347 0.00340071)
(5.53657 0.784725 0.00242261)
(5.60111 0.797342 0.00320824)
(5.57057 0.807874 0.00238397)
(5.60893 0.815684 0.00302777)
(5.57925 0.822491 0.00233522)
(5.60197 0.827819 0.00286339)
(5.57482 0.832559 0.00228352)
(5.58835 0.836565 0.00271567)
(5.56199 0.839386 0.0022311)
(5.57415 0.84677 0.00258027)
(5.53204 0.841375 0.00217635)
(5.57133 0.87731 0.00243044)
(5.37906 0.899308 0.00207842)
(4.63758 -0.435287 0.00566483)
(4.82673 -0.871402 0.00370895)
(5.14251 -0.969605 0.00489467)
(5.08321 -0.960437 0.003412)
(5.14528 -0.942305 0.00453985)
(5.01008 -0.929137 0.00336465)
(5.01626 -0.919806 0.00431822)
(4.89758 -0.913983 0.00333694)
(4.89216 -0.907582 0.00411994)
(4.79633 -0.903993 0.00329277)
(4.78608 -0.899487 0.00393473)
(4.70933 -0.897362 0.00324008)
(4.69644 -0.894446 0.00376707)
(4.63522 -0.892907 0.00318568)
(4.61926 -0.891493 0.00361749)
(4.57448 -0.889165 0.00313127)
(4.5456 -0.888233 0.00348595)
(4.5412 -0.887824 0.00307435)
(4.46148 -0.849118 0.00339569)
(4.58074 -0.889274 0.0029871)
(4.75886 0.100031 0.00436644)
(4.61226 0.277173 0.00233369)
(4.52655 0.477275 0.00363736)
(4.14465 0.643272 0.00219488)
(4.00237 0.739671 0.00334848)
(3.72445 0.795019 0.00218588)
(3.6506 0.822526 0.00314537)
(3.46379 0.839634 0.0021676)
(3.4239 0.849896 0.00295241)
(3.29157 0.857687 0.00212705)
(3.26605 0.863033 0.00277027)
(3.16828 0.867508 0.00207686)
(3.1493 0.870459 0.00260499)
(3.07372 0.873722 0.00202457)
(3.05962 0.874481 0.00245694)
(2.99468 0.878889 0.00197206)
(2.99447 0.876046 0.00232184)
(2.91116 0.882974 0.00191935)
(2.98508 0.887266 0.00217417)
(2.59116 0.89613 0.00179626)
(4.32475 -0.566029 0.0069428)
(3.07937 -0.847744 0.00447529)
(2.31538 -0.869654 0.00574785)
(1.74856 -0.852871 0.00427166)
(1.61033 -0.85559 0.00541708)
(1.40651 -0.867415 0.00424903)
(1.39976 -0.877408 0.00520472)
(1.27802 -0.885503 0.00422432)
(1.28506 -0.889797 0.00500645)
(1.19907 -0.893476 0.0041793)
(1.20706 -0.895245 0.00482063)
(1.14428 -0.897292 0.00412628)
(1.15067 -0.89811 0.00465309)
(1.10289 -0.899531 0.00407217)
(1.10819 -0.899481 0.00450396)
(1.06842 -0.901711 0.00401831)
(1.07571 -0.894553 0.00437233)
(1.053 -0.915911 0.00396235)
(1.00899 -0.793546 0.00428238)
(1.45041 -0.821307 0.00385439)
(4.37834 0.0972604 0.0013833)
(3.96674 0.149132 0.00192716)
(3.43125 0.163045 0.000972413)
(2.95391 0.156797 0.00151528)
(2.54153 0.145196 0.000991934)
(2.23784 0.136616 0.00140863)
(2.0135 0.131629 0.00106473)
(1.861 0.131257 0.00132724)
(1.75826 0.133625 0.00109524)
(1.68463 0.138101 0.00124927)
(1.63866 0.14312 0.00110566)
(1.59758 0.148522 0.0011878)
(1.57473 0.153139 0.0011132)
(1.54698 0.158014 0.00114607)
(1.53286 0.160776 0.00112509)
(1.51439 0.166056 0.00112111)
(1.49755 0.164477 0.00114626)
(1.50095 0.174699 0.00110721)
(1.45363 0.160105 0.00116019)
(1.52962 0.167172 0.00117632)
(4.54135 0.0879653 0.00317556)
(4.67831 0.119577 0.00389871)
(4.72062 0.120924 0.002938)
(4.70915 0.094617 0.00345643)
(4.63173 0.0563913 0.0029088)
(4.53604 0.0139264 0.00331145)
(4.42832 -0.0241154 0.00295892)
(4.32312 -0.0567959 0.00321777)
(4.22724 -0.0817346 0.00298334)
(4.13544 -0.101581 0.00313675)
(4.05844 -0.116017 0.00299236)
(3.98225 -0.127661 0.00307451)
(3.9219 -0.136145 0.00299968)
(3.85925 -0.143392 0.00303237)
(3.81243 -0.148765 0.00301188)
(3.76133 -0.153292 0.00300672)
(3.7244 -0.15781 0.00303573)
(3.68589 -0.15937 0.00299049)
(3.6504 -0.165567 0.00308673)
(3.63118 -0.171013 0.00309178)
(4.51664 0.0458433 0.00174048)
(4.6564 0.110587 0.00234777)
(4.78875 0.163007 0.00141867)
(4.93736 0.191463 0.00194082)
(5.04504 0.201772 0.00139941)
(5.12937 0.20267 0.00180882)
(5.18007 0.199425 0.00146456)
(5.20918 0.196394 0.0017285)
(5.22318 0.194493 0.00149939)
(5.22345 0.194046 0.00165472)
(5.22044 0.194432 0.001513)
(5.20861 0.195344 0.00159553)
(5.19812 0.196055 0.00152194)
(5.18274 0.197223 0.00155481)
(5.16783 0.196702 0.00153414)
(5.1546 0.19931 0.00153079)
(5.13407 0.194115 0.00155296)
(5.12934 0.204134 0.00152297)
(5.09815 0.18402 0.00154957)
(5.10743 0.208226 0.00158361)
(4.51267 0.0442488 0.00275903)
(4.62191 0.050949 0.00347631)
(4.74633 0.0466785 0.00257217)
(4.90613 0.0291498 0.0030999)
(5.046 0.00690633 0.00254451)
(5.17857 -0.0182595 0.00294233)
(5.28557 -0.0421104 0.00258726)
(5.37515 -0.0636764 0.00284612)
(5.44941 -0.0813414 0.00261258)
(5.50908 -0.0959469 0.00276628)
(5.56293 -0.107465 0.00262247)
(5.6056 -0.116776 0.00270438)
(5.64726 -0.124507 0.00262961)
(5.68002 -0.13042 0.0026621)
(5.71348 -0.136483 0.0026411)
(5.73957 -0.139428 0.00263717)
(5.76796 -0.146308 0.00266307)
(5.78614 -0.144927 0.00262941)
(5.81606 -0.15504 0.00271675)
(5.81378 -0.153077 0.0027218)
(4.51379 0.016626 0.00205841)
(4.62308 0.055748 0.00273004)
(4.74051 0.0915158 0.00183546)
(4.89428 0.117187 0.00235417)
(5.03193 0.133512 0.00179657)
(5.16827 0.144614 0.00219454)
(5.28386 0.152374 0.00184219)
(5.38648 0.159085 0.00210327)
(5.47669 0.164941 0.00187243)
(5.55483 0.170493 0.00202739)
(5.62899 0.175324 0.00188527)
(5.69318 0.179745 0.00196769)
(5.75796 0.183119 0.00189392)
(5.81358 0.186539 0.0019267)
(5.87239 0.187935 0.00190599)
(5.92037 0.19181 0.00190304)
(5.97781 0.189016 0.00192472)
(6.01149 0.198348 0.00189951)
(6.08247 0.184356 0.00193527)
(6.07846 0.209436 0.00196768)
(4.51253 0.0119429 0.00239145)
(4.61522 -0.00401055 0.00309233)
(4.73124 -0.0234322 0.00220556)
(4.88329 -0.0449015 0.00273026)
(5.02008 -0.0640106 0.00217125)
(5.1563 -0.0818212 0.00256756)
(5.27298 -0.0973284 0.00221274)
(5.37783 -0.111085 0.00247279)
(5.4716 -0.122575 0.00224086)
(5.55409 -0.132317 0.00239552)
(5.63404 -0.140302 0.00225289)
(5.70407 -0.14684 0.00233518)
(5.77681 -0.152325 0.00226111)
(5.83888 -0.156575 0.00229372)
(5.9083 -0.160486 0.00227299)
(5.96163 -0.163168 0.00226977)
(6.034 -0.165903 0.00229343)
(6.06855 -0.168498 0.00226673)
(6.16224 -0.167895 0.00233077)
(6.15007 -0.177423 0.00234624)
(4.51253 -0.011943 0.00239145)
(4.61522 0.00401087 0.00309233)
(4.73124 0.0234319 0.00220556)
(4.88329 0.0449024 0.00273026)
(5.02008 0.0640105 0.00217125)
(5.1563 0.0818232 0.00256756)
(5.27298 0.0973291 0.00221274)
(5.37783 0.111089 0.00247279)
(5.4716 0.122579 0.00224086)
(5.55409 0.132329 0.00239553)
(5.63404 0.140316 0.00225288)
(5.70408 0.146875 0.0023352)
(5.7768 0.152359 0.00226109)
(5.83889 0.156683 0.00229377)
(5.9083 0.160559 0.00227293)
(5.96166 0.163484 0.0022699)
(6.03402 0.166093 0.00229312)
(6.06862 0.169284 0.00226697)
(6.16236 0.168594 0.00232903)
(6.15031 0.179023 0.0023466)
(4.51379 -0.0166262 0.00205841)
(4.62308 -0.0557476 0.00273004)
(4.74051 -0.091516 0.00183546)
(4.89428 -0.117187 0.00235417)
(5.03193 -0.133512 0.00179657)
(5.16827 -0.144612 0.00219454)
(5.28386 -0.152374 0.00184219)
(5.38648 -0.15908 0.00210327)
(5.47669 -0.164937 0.00187243)
(5.55484 -0.170481 0.00202739)
(5.629 -0.175311 0.00188527)
(5.69318 -0.179709 0.00196768)
(5.75798 -0.183087 0.00189394)
(5.81359 -0.186431 0.00192665)
(5.87246 -0.187867 0.00190605)
(5.92039 -0.191498 0.0019029)
(5.97801 -0.188841 0.00192498)
(6.01156 -0.197586 0.00189926)
(6.08291 -0.183711 0.00193669)
(6.07881 -0.207951 0.00196729)
(4.51267 -0.0442489 0.00275903)
(4.62191 -0.0509487 0.00347631)
(4.74633 -0.0466787 0.00257217)
(4.90613 -0.0291491 0.0030999)
(5.046 -0.00690643 0.00254451)
(5.17857 0.0182612 0.00294233)
(5.28556 0.0421112 0.00258726)
(5.37516 0.0636807 0.00284613)
(5.4494 0.0813456 0.00261257)
(5.5091 0.0959575 0.00276629)
(5.56293 0.107479 0.00262245)
(5.60563 0.116806 0.00270441)
(5.64726 0.12454 0.00262957)
(5.6801 0.130516 0.00266215)
(5.71355 0.136552 0.002641)
(5.73974 0.139713 0.00263728)
(5.76824 0.146474 0.0026627)
(5.78657 0.145658 0.00262962)
(5.81695 0.155647 0.00271508)
(5.81502 0.154591 0.0027218)
(4.51664 -0.0458434 0.00174048)
(4.6564 -0.110587 0.00234777)
(4.78875 -0.163007 0.00141867)
(4.93736 -0.191463 0.00194082)
(5.04504 -0.201772 0.00139941)
(5.12938 -0.202668 0.00180883)
(5.18007 -0.199425 0.00146456)
(5.20919 -0.19639 0.00172851)
(5.22317 -0.194491 0.00149938)
(5.22349 -0.194035 0.00165473)
(5.22042 -0.194423 0.00151298)
(5.20869 -0.195314 0.00159555)
(5.19812 -0.196033 0.00152192)
(5.18293 -0.197133 0.00155482)
(5.16791 -0.196661 0.00153413)
(5.15502 -0.199053 0.00153077)
(5.13447 -0.194019 0.001553)
(5.13027 -0.203526 0.00152294)
(5.09949 -0.183631 0.00155017)
(5.10967 -0.207217 0.00158356)
(4.54135 -0.0879653 0.00317556)
(4.67831 -0.119577 0.00389871)
(4.72062 -0.120924 0.002938)
(4.70915 -0.0946168 0.00345643)
(4.63173 -0.0563909 0.0029088)
(4.53604 -0.0139258 0.00331145)
(4.42832 0.0241168 0.00295891)
(4.32314 0.0567974 0.00321778)
(4.22724 0.0817389 0.00298332)
(4.13549 0.101585 0.00313679)
(4.05843 0.116028 0.0029923)
(3.98238 0.127672 0.00307459)
(3.92189 0.136171 0.00299955)
(3.85959 0.143433 0.00303259)
(3.81248 0.148813 0.00301153)
(3.76213 0.153431 0.00300725)
(3.7247 0.157907 0.00303475)
(3.68783 0.159749 0.0029918)
(3.65148 0.165909 0.0030838)
(3.636 0.171799 0.00309448)
(4.37834 -0.0972604 0.0013833)
(3.96674 -0.149132 0.00192716)
(3.43125 -0.163045 0.000972413)
(2.95391 -0.156796 0.00151528)
(2.54153 -0.145196 0.000991934)
(2.23784 -0.136616 0.00140863)
(2.0135 -0.131629 0.00106472)
(1.86101 -0.131257 0.00132725)
(1.75827 -0.133624 0.00109524)
(1.68466 -0.138099 0.00124927)
(1.63868 -0.143118 0.00110566)
(1.59766 -0.148517 0.0011878)
(1.57481 -0.153136 0.0011132)
(1.54719 -0.157997 0.00114608)
(1.5331 -0.160778 0.00112506)
(1.51485 -0.166002 0.00112116)
(1.4983 -0.164502 0.00114607)
(1.5021 -0.17457 0.00110753)
(1.45524 -0.160189 0.00115927)
(1.53386 -0.167298 0.00117793)
(4.37834 0.0972604 -0.0013833)
(3.96674 0.149132 -0.00192716)
(3.43125 0.163045 -0.000972416)
(2.95391 0.156797 -0.00151529)
(2.54153 0.145196 -0.000991938)
(2.23784 0.136616 -0.00140863)
(2.0135 0.131629 -0.00106473)
(1.861 0.131257 -0.00132725)
(1.75826 0.133625 -0.00109525)
(1.68463 0.138101 -0.00124928)
(1.63866 0.14312 -0.00110566)
(1.59758 0.148522 -0.0011878)
(1.57473 0.153139 -0.00111321)
(1.54698 0.158014 -0.00114607)
(1.53286 0.160776 -0.00112509)
(1.51439 0.166056 -0.00112112)
(1.49755 0.164477 -0.00114627)
(1.50095 0.174699 -0.00110721)
(1.45363 0.160105 -0.00116019)
(1.52962 0.167172 -0.00117632)
(4.54135 0.0879653 -0.00317556)
(4.67831 0.119577 -0.00389872)
(4.72062 0.120924 -0.002938)
(4.70915 0.094617 -0.00345643)
(4.63173 0.0563913 -0.00290881)
(4.53604 0.0139264 -0.00331145)
(4.42832 -0.0241154 -0.00295892)
(4.32312 -0.0567959 -0.00321777)
(4.22724 -0.0817346 -0.00298335)
(4.13544 -0.101581 -0.00313676)
(4.05844 -0.116017 -0.00299236)
(3.98225 -0.127661 -0.00307451)
(3.9219 -0.136145 -0.00299968)
(3.85925 -0.143392 -0.00303238)
(3.81243 -0.148765 -0.00301188)
(3.76133 -0.153292 -0.00300672)
(3.7244 -0.15781 -0.00303574)
(3.68589 -0.15937 -0.0029905)
(3.6504 -0.165567 -0.00308673)
(3.63118 -0.171013 -0.00309179)
(4.51664 0.0458433 -0.00174048)
(4.6564 0.110587 -0.00234777)
(4.78875 0.163007 -0.00141868)
(4.93736 0.191463 -0.00194082)
(5.04504 0.201772 -0.00139941)
(5.12937 0.20267 -0.00180883)
(5.18007 0.199425 -0.00146457)
(5.20918 0.196394 -0.0017285)
(5.22318 0.194493 -0.00149939)
(5.22345 0.194046 -0.00165472)
(5.22044 0.194432 -0.001513)
(5.20861 0.195344 -0.00159554)
(5.19812 0.196055 -0.00152194)
(5.18274 0.197223 -0.00155482)
(5.16783 0.196702 -0.00153415)
(5.1546 0.19931 -0.00153079)
(5.13407 0.194115 -0.00155297)
(5.12934 0.204134 -0.00152298)
(5.09815 0.18402 -0.00154957)
(5.10743 0.208226 -0.00158361)
(4.51267 0.0442488 -0.00275903)
(4.62191 0.050949 -0.00347632)
(4.74633 0.0466785 -0.00257218)
(4.90613 0.0291498 -0.0030999)
(5.046 0.00690633 -0.00254452)
(5.17857 -0.0182595 -0.00294233)
(5.28557 -0.0421104 -0.00258726)
(5.37515 -0.0636764 -0.00284613)
(5.44941 -0.0813414 -0.00261258)
(5.50908 -0.0959469 -0.00276628)
(5.56293 -0.107465 -0.00262247)
(5.6056 -0.116776 -0.00270438)
(5.64726 -0.124507 -0.00262961)
(5.68002 -0.13042 -0.0026621)
(5.71348 -0.136483 -0.0026411)
(5.73957 -0.139428 -0.00263717)
(5.76796 -0.146308 -0.00266307)
(5.78614 -0.144927 -0.00262941)
(5.81606 -0.15504 -0.00271675)
(5.81378 -0.153077 -0.00272181)
(4.51379 0.016626 -0.00205842)
(4.62308 0.055748 -0.00273004)
(4.74051 0.0915158 -0.00183546)
(4.89428 0.117187 -0.00235418)
(5.03193 0.133512 -0.00179657)
(5.16827 0.144614 -0.00219454)
(5.28386 0.152374 -0.00184219)
(5.38648 0.159085 -0.00210328)
(5.47669 0.164941 -0.00187243)
(5.55483 0.170493 -0.0020274)
(5.62899 0.175324 -0.00188527)
(5.69318 0.179745 -0.0019677)
(5.75796 0.183119 -0.00189393)
(5.81358 0.186539 -0.0019267)
(5.87239 0.187935 -0.00190599)
(5.92037 0.19181 -0.00190304)
(5.97781 0.189016 -0.00192473)
(6.01149 0.198348 -0.00189951)
(6.08247 0.184356 -0.00193527)
(6.07846 0.209436 -0.00196768)
(4.51253 0.0119429 -0.00239145)
(4.61522 -0.00401055 -0.00309233)
(4.73124 -0.0234322 -0.00220556)
(4.88329 -0.0449015 -0.00273026)
(5.02008 -0.0640106 -0.00217126)
(5.1563 -0.0818212 -0.00256757)
(5.27298 -0.0973284 -0.00221274)
(5.37783 -0.111085 -0.00247279)
(5.4716 -0.122575 -0.00224087)
(5.55409 -0.132317 -0.00239553)
(5.63404 -0.140302 -0.00225289)
(5.70407 -0.14684 -0.00233518)
(5.77681 -0.152326 -0.00226111)
(5.83888 -0.156575 -0.00229372)
(5.9083 -0.160486 -0.002273)
(5.96163 -0.163168 -0.00226977)
(6.034 -0.165903 -0.00229344)
(6.06855 -0.168498 -0.00226674)
(6.16224 -0.167895 -0.00233078)
(6.15007 -0.177423 -0.00234624)
(4.51253 -0.011943 -0.00239145)
(4.61522 0.00401087 -0.00309233)
(4.73124 0.0234319 -0.00220556)
(4.88329 0.0449024 -0.00273026)
(5.02008 0.0640105 -0.00217126)
(5.1563 0.0818232 -0.00256757)
(5.27298 0.0973291 -0.00221274)
(5.37783 0.111089 -0.0024728)
(5.4716 0.122579 -0.00224086)
(5.55409 0.132329 -0.00239554)
(5.63404 0.140316 -0.00225289)
(5.70408 0.146875 -0.0023352)
(5.7768 0.152359 -0.00226109)
(5.83889 0.156683 -0.00229377)
(5.9083 0.160559 -0.00227293)
(5.96166 0.163484 -0.00226991)
(6.03402 0.166093 -0.00229312)
(6.06862 0.169284 -0.00226697)
(6.16236 0.168594 -0.00232904)
(6.15031 0.179023 -0.00234661)
(4.51379 -0.0166262 -0.00205842)
(4.62308 -0.0557476 -0.00273004)
(4.74051 -0.091516 -0.00183546)
(4.89428 -0.117187 -0.00235418)
(5.03193 -0.133512 -0.00179657)
(5.16827 -0.144612 -0.00219454)
(5.28386 -0.152374 -0.0018422)
(5.38648 -0.15908 -0.00210328)
(5.47669 -0.164937 -0.00187243)
(5.55484 -0.170481 -0.00202739)
(5.629 -0.175311 -0.00188528)
(5.69318 -0.179709 -0.00196768)
(5.75798 -0.183087 -0.00189394)
(5.81359 -0.186431 -0.00192665)
(5.87246 -0.187867 -0.00190605)
(5.92038 -0.191498 -0.0019029)
(5.97801 -0.188841 -0.00192499)
(6.01156 -0.197586 -0.00189927)
(6.08291 -0.183711 -0.00193669)
(6.07881 -0.207951 -0.0019673)
(4.51267 -0.0442489 -0.00275903)
(4.62191 -0.0509487 -0.00347632)
(4.74633 -0.0466787 -0.00257218)
(4.90613 -0.0291491 -0.0030999)
(5.046 -0.00690642 -0.00254452)
(5.17857 0.0182612 -0.00294233)
(5.28556 0.0421112 -0.00258726)
(5.37516 0.0636807 -0.00284613)
(5.4494 0.0813456 -0.00261257)
(5.5091 0.0959575 -0.00276629)
(5.56293 0.107479 -0.00262245)
(5.60563 0.116806 -0.00270441)
(5.64726 0.12454 -0.00262958)
(5.6801 0.130516 -0.00266215)
(5.71355 0.136552 -0.002641)
(5.73974 0.139713 -0.00263729)
(5.76824 0.146474 -0.00266271)
(5.78657 0.145658 -0.00262963)
(5.81695 0.155647 -0.00271508)
(5.81502 0.154591 -0.0027218)
(4.51664 -0.0458434 -0.00174048)
(4.6564 -0.110587 -0.00234777)
(4.78875 -0.163007 -0.00141868)
(4.93736 -0.191463 -0.00194082)
(5.04504 -0.201772 -0.00139941)
(5.12938 -0.202668 -0.00180883)
(5.18007 -0.199425 -0.00146457)
(5.20919 -0.19639 -0.00172851)
(5.22317 -0.194491 -0.00149938)
(5.22349 -0.194035 -0.00165473)
(5.22042 -0.194423 -0.00151299)
(5.20869 -0.195314 -0.00159555)
(5.19812 -0.196033 -0.00152192)
(5.18293 -0.197133 -0.00155483)
(5.16791 -0.196661 -0.00153413)
(5.15502 -0.199053 -0.00153078)
(5.13447 -0.194019 -0.001553)
(5.13027 -0.203526 -0.00152295)
(5.09949 -0.183631 -0.00155018)
(5.10967 -0.207217 -0.00158356)
(4.54135 -0.0879653 -0.00317556)
(4.67831 -0.119577 -0.00389872)
(4.72062 -0.120924 -0.002938)
(4.70915 -0.0946168 -0.00345644)
(4.63173 -0.0563909 -0.0029088)
(4.53604 -0.0139258 -0.00331146)
(4.42832 0.0241168 -0.00295891)
(4.32314 0.0567974 -0.00321778)
(4.22724 0.0817389 -0.00298332)
(4.13549 0.101585 -0.00313679)
(4.05843 0.116028 -0.00299231)
(3.98238 0.127672 -0.0030746)
(3.92189 0.136171 -0.00299955)
(3.85959 0.143433 -0.00303259)
(3.81248 0.148813 -0.00301153)
(3.76213 0.153431 -0.00300725)
(3.7247 0.157907 -0.00303476)
(3.68783 0.159749 -0.00299181)
(3.65148 0.165909 -0.00308381)
(3.636 0.171799 -0.00309448)
(4.37834 -0.0972604 -0.0013833)
(3.96674 -0.149132 -0.00192716)
(3.43125 -0.163045 -0.000972416)
(2.95391 -0.156796 -0.00151529)
(2.54153 -0.145196 -0.000991938)
(2.23784 -0.136616 -0.00140863)
(2.0135 -0.131629 -0.00106473)
(1.86101 -0.131257 -0.00132725)
(1.75827 -0.133624 -0.00109525)
(1.68466 -0.138099 -0.00124928)
(1.63868 -0.143118 -0.00110566)
(1.59766 -0.148517 -0.0011878)
(1.57481 -0.153136 -0.0011132)
(1.54719 -0.157997 -0.00114608)
(1.5331 -0.160778 -0.00112506)
(1.51485 -0.166002 -0.00112116)
(1.4983 -0.164502 -0.00114608)
(1.5021 -0.17457 -0.00110753)
(1.45524 -0.160189 -0.00115927)
(1.53386 -0.167298 -0.00117794)
(4.32475 0.566029 -0.00694281)
(3.07937 0.847744 -0.0044753)
(2.31538 0.869654 -0.00574786)
(1.74856 0.852871 -0.00427166)
(1.61033 0.855589 -0.00541708)
(1.40651 0.867415 -0.00424903)
(1.39976 0.877408 -0.00520473)
(1.27801 0.885504 -0.00422431)
(1.28506 0.889796 -0.00500646)
(1.19905 0.89348 -0.0041793)
(1.20704 0.895241 -0.00482064)
(1.14423 0.897306 -0.00412626)
(1.15062 0.898097 -0.00465313)
(1.10277 0.899577 -0.0040721)
(1.10803 0.899432 -0.00450409)