/*--------------------------------*- C++ -*----------------------------------*\
  =========                 |
  \\      /  F ield         | OpenFOAM: The Open Source CFD Toolbox
   \\    /   O peration     | Website:  https://openfoam.org
    \\  /    A nd           | Version:  7
     \\/     M anipulation  |
\*---------------------------------------------------------------------------*/
FoamFile
{
    version     2.0;
    format      ascii;
    class       volScalarField;
    location    "0.2375";
    object      k;
}
// * * * * * * * * * * * * * * * * * * * * * * * * * * * * * * * * * * * * * //

dimensions      [0 2 -2 0 0 0 0];

internalField   nonuniform List<scalar> 
8640
(
22.8109
21.4606
20.9661
20.8825
20.8262
20.8014
20.7506
20.7239
20.6871
20.6747
20.655
20.6519
20.6411
20.6411
20.6343
20.6352
20.6304
20.6324
20.6305
20.6339
20.6333
20.6352
20.6323
20.6304
20.6243
20.6189
20.6155
20.6187
20.6254
20.6354
20.644
20.6522
20.6578
20.6634
20.6666
20.6698
20.6711
20.6727
20.6731
20.6741
20.6741
20.6748
20.6748
20.6754
20.6754
20.676
20.6759
20.6765
20.6764
20.6769
20.6769
20.6766
20.6772
20.6749
20.6774
20.6711
20.6798
20.6701
20.6873
20.9955
8.85236
6.1242
4.886
4.48862
4.36435
4.2795
4.20229
4.12537
4.04367
3.96852
3.8964
3.83275
3.77604
3.72552
3.68267
3.64367
3.61234
3.5837
3.56279
3.54492
3.53424
3.52458
3.51731
3.50799
3.50103
3.49884
3.4986
3.4994
3.50159
3.50428
3.50813
3.5116
3.5144
3.51545
3.5164
3.51665
3.51711
3.51724
3.51759
3.51775
3.51811
3.51832
3.51865
3.51896
3.51927
3.51978
3.52014
3.52097
3.52173
3.52296
3.52544
3.5272
3.53447
3.53571
3.55838
3.55318
3.62599
3.60176
3.76232
4.01045
8.25037
5.4711
3.90024
3.36275
3.16264
3.08599
3.05061
3.03429
3.02181
3.01515
3.00887
3.00622
3.00339
3.00266
3.00145
3.00132
3.00086
3.00092
3.00081
3.00098
3.00092
3.00089
3.00046
3.0001
2.99975
2.99975
2.99953
2.99899
2.99808
2.99753
2.99744
2.99838
3.00049
3.00332
3.00618
3.00907
3.01139
3.01333
3.01464
3.01565
3.01623
3.01672
3.01699
3.01729
3.01747
3.01772
3.01788
3.01812
3.01828
3.01855
3.01871
3.01907
3.01933
3.01981
3.02049
3.0212
3.02309
3.02429
3.02929
3.07371
8.24463
5.44301
3.85373
3.30917
3.1034
3.02546
2.99161
2.97848
2.97122
2.96965
2.96909
2.97043
2.97225
2.97571
2.97776
2.98087
2.98266
2.98524
2.98673
2.98869
2.98951
2.99051
2.99075
2.99132
2.99168
2.9924
2.99266
2.99265
2.992
2.9914
2.99121
2.99198
2.99403
2.99712
3.00042
3.00391
3.00684
3.00936
3.01111
3.01246
3.01326
3.01392
3.01426
3.01463
3.01481
3.01509
3.01522
3.01549
3.01565
3.0159
3.01614
3.01631
3.01668
3.01683
3.01738
3.01742
3.01835
3.01813
3.02091
3.05251
8.24285
5.44033
3.85039
3.30554
3.09929
3.02098
2.98684
2.97355
2.96632
2.96486
2.96444
2.96597
2.96799
2.97164
2.97384
2.97709
2.97901
2.98176
2.98341
2.98559
2.98665
2.98792
2.98834
2.98917
2.98973
2.99057
2.99088
2.99094
2.99049
2.99007
2.99003
2.99097
2.99311
2.99623
2.99958
3.00313
3.00613
3.00874
3.01057
3.012
3.01285
3.01354
3.0139
3.01426
3.01446
3.01472
3.01488
3.0151
3.01528
3.01546
3.01571
3.01585
3.01621
3.01634
3.01692
3.01701
3.01809
3.01814
3.02121
3.0531
8.24496
5.43785
3.84693
3.30253
3.09708
3.01923
2.98534
2.97215
2.96499
2.9636
2.96322
2.96482
2.96687
2.97053
2.97272
2.97597
2.97789
2.98068
2.98235
2.98453
2.98557
2.98683
2.98732
2.98831
2.989
2.99001
2.99049
2.9907
2.99043
2.99024
2.99037
2.99162
2.99391
2.99714
3.00057
3.00416
3.00718
3.0098
3.01162
3.01305
3.0139
3.01458
3.01494
3.01531
3.0155
3.01577
3.01594
3.01617
3.01637
3.01655
3.01685
3.01699
3.01742
3.01752
3.01825
3.01822
3.01955
3.01932
3.02272
3.0542
8.24496
5.43785
3.84693
3.30253
3.09708
3.01923
2.98534
2.97215
2.96499
2.9636
2.96322
2.96482
2.96687
2.97053
2.97272
2.97597
2.97789
2.98068
2.98235
2.98453
2.98557
2.98683
2.98732
2.98831
2.989
2.99001
2.99049
2.9907
2.99043
2.99023
2.99037
2.99162
2.99391
2.99714
3.00057
3.00416
3.00718
3.0098
3.01162
3.01305
3.0139
3.01458
3.01494
3.01531
3.0155
3.01578
3.01594
3.01617
3.01637
3.01655
3.01685
3.017
3.01743
3.01753
3.01825
3.01823
3.01956
3.01934
3.02273
3.05421
8.24285
5.44033
3.85039
3.30554
3.09929
3.02098
2.98684
2.97355
2.96632
2.96486
2.96444
2.96597
2.96799
2.97164
2.97384
2.97709
2.97901
2.98176
2.98341
2.98559
2.98665
2.98792
2.98834
2.98917
2.98973
2.99057
2.99088
2.99094
2.99049
2.99007
2.99003
2.99097
2.99311
2.99623
2.99958
3.00313
3.00613
3.00874
3.01057
3.012
3.01286
3.01354
3.0139
3.01427
3.01446
3.01472
3.01488
3.01511
3.01529
3.01548
3.01572
3.01586
3.01621
3.01636
3.01691
3.01703
3.01807
3.01818
3.02122
3.05314
8.24463
5.44301
3.85373
3.30917
3.1034
3.02546
2.99161
2.97848
2.97122
2.96965
2.96909
2.97043
2.97225
2.97571
2.97776
2.98087
2.98266
2.98524
2.98673
2.98869
2.98951
2.99051
2.99075
2.99131
2.99168
2.9924
2.99266
2.99265
2.992
2.9914
2.99121
2.99197
2.99403
2.99712
3.00042
3.00391
3.00684
3.00936
3.01111
3.01246
3.01326
3.01392
3.01426
3.01463
3.0148
3.0151
3.01522
3.0155
3.01563
3.01592
3.01611
3.01635
3.01667
3.01685
3.01736
3.01746
3.01834
3.01825
3.0209
3.05253
8.25037
5.4711
3.90024
3.36275
3.16264
3.08599
3.05061
3.03429
3.02181
3.01515
3.00887
3.00622
3.00339
3.00266
3.00145
3.00132
3.00086
3.00092
3.00081
3.00098
3.00093
3.00089
3.00045
3.0001
2.99975
2.99975
2.99953
2.999
2.99808
2.99753
2.99743
2.99837
3.00048
3.00331
3.00618
3.00907
3.01139
3.01334
3.01464
3.01565
3.01623
3.01672
3.01699
3.01729
3.01746
3.01772
3.01787
3.01814
3.01827
3.01857
3.01872
3.0191
3.01931
3.0199
3.02035
3.02122
3.02296
3.02436
3.02919
3.07359
8.85236
6.1242
4.886
4.48862
4.36434
4.2795
4.20229
4.12537
4.04367
3.96852
3.8964
3.83275
3.77604
3.72552
3.68267
3.64367
3.61234
3.5837
3.56279
3.54492
3.53424
3.52458
3.51731
3.50799
3.50103
3.49884
3.4986
3.49939
3.50158
3.50427
3.50812
3.51159
3.5144
3.51544
3.51639
3.51665
3.5171
3.51723
3.51758
3.51773
3.51808
3.51829
3.51861
3.51891
3.5192
3.51969
3.52003
3.52082
3.52153
3.52274
3.52516
3.52689
3.53403
3.53525
3.55765
3.55255
3.62468
3.6009
3.75956
4.00762
22.8109
21.4606
20.9661
20.8825
20.8262
20.8014
20.7506
20.7239
20.687
20.6747
20.655
20.6519
20.6411
20.641
20.6343
20.6352
20.6304
20.6324
20.6304
20.6339
20.6332
20.6351
20.6323
20.6304
20.6243
20.6189
20.6155
20.6187
20.6253
20.6354
20.6439
20.6521
20.6578
20.6634
20.6666
20.6698
20.6711
20.6727
20.6731
20.6741
20.6741
20.6748
20.6748
20.6754
20.6754
20.676
20.6759
20.6766
20.6764
20.677
20.6768
20.6768
20.677
20.6754
20.677
20.6721
20.6789
20.6722
20.6854
20.9965
0.979165
2.3526
2.95276
3.15364
3.23116
3.23702
3.2368
3.22573
3.21937
3.20446
3.19878
3.18537
3.17984
3.16771
3.16295
3.15299
3.14934
3.14181
3.13986
3.13574
3.1357
3.13429
3.13512
3.13472
3.13596
3.13588
3.13687
3.13667
3.13732
3.13711
3.13765
3.1375
3.13794
3.13782
3.13816
3.13803
3.13829
3.13818
3.13839
3.13829
3.13847
3.13839
3.13855
3.13847
3.13863
3.13854
3.13871
3.13858
3.1388
3.13857
3.13893
3.13849
3.13895
3.13823
3.13822
3.13753
3.13517
3.13605
3.12152
3.1855
0.412261
1.69039
2.34546
2.63094
2.745
2.79046
2.80443
2.80894
2.80822
2.80802
2.80767
2.80848
2.8092
2.81093
2.81174
2.81343
2.81414
2.81518
2.81522
2.81535
2.81499
2.81487
2.81458
2.81464
2.81445
2.81442
2.8145
2.8153
2.81658
2.81841
2.82015
2.82208
2.82361
2.82502
2.82596
2.82676
2.82723
2.82762
2.82783
2.82803
2.82815
2.82829
2.82839
2.8285
2.8286
2.82871
2.82881
2.82893
2.82901
2.82918
2.82924
2.82947
2.82953
2.82987
2.83025
2.8306
2.83173
2.83104
2.83272
2.86739
0.423387
1.66896
2.30959
2.59105
2.70334
2.74934
2.76305
2.76713
2.76555
2.76404
2.76191
2.76146
2.76073
2.76094
2.76078
2.76107
2.76103
2.76137
2.76145
2.76183
2.76185
2.76205
2.76219
2.76273
2.76319
2.76375
2.76383
2.76366
2.76322
2.7632
2.7638
2.76566
2.76812
2.77109
2.77392
2.77651
2.7785
2.78002
2.78101
2.78169
2.78207
2.78234
2.78249
2.78261
2.7827
2.78278
2.78287
2.78292
2.78303
2.78307
2.78318
2.78319
2.7833
2.78325
2.78335
2.78324
2.78334
2.78322
2.78334
2.81115
0.412566
1.66272
2.30871
2.59227
2.70515
2.75101
2.76449
2.7684
2.76677
2.76525
2.76314
2.76265
2.76185
2.76196
2.76167
2.76181
2.76161
2.76182
2.76183
2.7621
2.76205
2.76209
2.76201
2.76232
2.76279
2.76348
2.76367
2.76353
2.76289
2.76254
2.7627
2.76406
2.76642
2.76946
2.77256
2.77555
2.77797
2.7799
2.78121
2.78212
2.78265
2.78301
2.78321
2.78335
2.78346
2.78353
2.78363
2.78368
2.78378
2.78383
2.78394
2.784
2.78414
2.7842
2.78441
2.7844
2.78467
2.78457
2.78499
2.81142
0.4181
1.66447
2.30803
2.59078
2.70334
2.74904
2.76238
2.76619
2.76453
2.763
2.76089
2.76043
2.75965
2.75976
2.75945
2.75958
2.75938
2.7596
2.75962
2.75989
2.7598
2.75983
2.75978
2.76017
2.76073
2.76138
2.7615
2.76128
2.76054
2.76014
2.76025
2.76153
2.76388
2.76695
2.77012
2.77321
2.77574
2.77776
2.77913
2.7801
2.78067
2.78105
2.78126
2.78141
2.78151
2.78159
2.78168
2.78174
2.78184
2.78188
2.78199
2.78201
2.78211
2.78212
2.7822
2.78221
2.78229
2.7823
2.78246
2.80782
0.414865
1.66304
2.30833
2.59172
2.70451
2.7502
2.7635
2.76727
2.7656
2.7641
2.76203
2.76158
2.76082
2.76091
2.76059
2.7607
2.7605
2.76073
2.76075
2.76098
2.76088
2.76088
2.76085
2.76126
2.7618
2.76242
2.76251
2.76224
2.7615
2.76114
2.76131
2.76268
2.76505
2.76811
2.77125
2.7743
2.7768
2.77879
2.78014
2.78109
2.78166
2.78203
2.78224
2.78239
2.78249
2.78258
2.78266
2.78273
2.78281
2.78287
2.78297
2.78302
2.78314
2.78319
2.78332
2.78335
2.78351
2.78353
2.78379
2.80929
0.414865
1.66304
2.30833
2.59172
2.70451
2.7502
2.7635
2.76727
2.7656
2.7641
2.76203
2.76158
2.76082
2.76091
2.76059
2.7607
2.7605
2.76073
2.76075
2.76098
2.76087
2.76088
2.76085
2.76126
2.7618
2.76242
2.76251
2.76224
2.7615
2.76114
2.76131
2.76268
2.76505
2.76811
2.77125
2.7743
2.77679
2.77878
2.78014
2.78109
2.78166
2.78203
2.78224
2.78239
2.78249
2.78258
2.78266
2.78272
2.78281
2.78287
2.78297
2.78302
2.78314
2.78319
2.78331
2.78335
2.7835
2.78353
2.78378
2.80928
0.4181
1.66447
2.30803
2.59078
2.70334
2.74904
2.76238
2.76619
2.76453
2.763
2.76089
2.76043
2.75965
2.75976
2.75945
2.75958
2.75938
2.7596
2.75962
2.75989
2.7598
2.75983
2.75978
2.76017
2.76073
2.76138
2.7615
2.76128
2.76054
2.76014
2.76025
2.76153
2.76388
2.76695
2.77012
2.77321
2.77574
2.77776
2.77913
2.7801
2.78067
2.78105
2.78126
2.78141
2.78152
2.7816
2.78168
2.78175
2.78184
2.78189
2.78199
2.78202
2.7821
2.78212
2.78218
2.78223
2.78225
2.78231
2.78243
2.80781
0.412566
1.66272
2.30871
2.59227
2.70515
2.75101
2.76449
2.7684
2.76677
2.76525
2.76314
2.76265
2.76185
2.76196
2.76167
2.76181
2.76161
2.76182
2.76183
2.7621
2.76205
2.76209
2.76201
2.76232
2.76279
2.76348
2.76368
2.76354
2.76289
2.76254
2.7627
2.76405
2.76642
2.76946
2.77256
2.77555
2.77797
2.7799
2.78121
2.78212
2.78265
2.78301
2.78321
2.78335
2.78345
2.78354
2.78362
2.78369
2.78376
2.78384
2.78391
2.78401
2.78413
2.7842
2.78437
2.78442
2.78461
2.78463
2.78495
2.81139
0.423387
1.66896
2.30959
2.59105
2.70334
2.74935
2.76305
2.76713
2.76555
2.76403
2.76191
2.76146
2.76073
2.76094
2.76078
2.76107
2.76103
2.76137
2.76145
2.76183
2.76186
2.76205
2.76219
2.76273
2.76319
2.76375
2.76384
2.76367
2.76322
2.7632
2.7638
2.76565
2.76811
2.77108
2.77392
2.77652
2.7785
2.78003
2.78101
2.78169
2.78207
2.78234
2.78249
2.78261
2.7827
2.78278
2.78286
2.78293
2.78302
2.78307
2.78317
2.7832
2.78328
2.78328
2.78329
2.7833
2.78323
2.78334
2.78322
2.81108
0.412261
1.69039
2.34546
2.63094
2.745
2.79046
2.80443
2.80894
2.80822
2.80802
2.80767
2.80848
2.8092
2.81093
2.81174
2.81343
2.81414
2.81518
2.81522
2.81535
2.81499
2.81487
2.81458
2.81464
2.81445
2.81442
2.8145
2.81529
2.81657
2.8184
2.82015
2.82208
2.82361
2.82502
2.82597
2.82676
2.82723
2.82762
2.82783
2.82803
2.82815
2.82829
2.82838
2.8285
2.82859
2.82871
2.82879
2.82893
2.829
2.82918
2.82921
2.82948
2.82948
2.8299
2.8301
2.83058
2.83156
2.83117
2.83249
2.86717
0.979165
2.3526
2.95276
3.15364
3.23117
3.23702
3.2368
3.22573
3.21937
3.20446
3.19878
3.18537
3.17983
3.1677
3.16295
3.15298
3.14934
3.14181
3.13986
3.13574
3.1357
3.13428
3.13512
3.13472
3.13596
3.13587
3.13686
3.13667
3.13731
3.1371
3.13765
3.1375
3.13794
3.13782
3.13816
3.13803
3.13829
3.13818
3.13839
3.1383
3.13847
3.13839
3.13855
3.13848
3.13863
3.13856
3.13872
3.13861
3.13883
3.13862
3.13896
3.13856
3.13899
3.13836
3.13828
3.13771
3.13527
3.1365
3.12159
3.18563
0.0075184
0.0441539
0.111566
0.179743
0.237495
0.285991
0.321831
0.346825
0.361526
0.369568
0.372509
0.372563
0.371961
0.370505
0.368585
0.366866
0.36521
0.363841
0.362703
0.361959
0.361587
0.361583
0.361923
0.362621
0.363461
0.36443
0.365474
0.366576
0.367689
0.368868
0.370052
0.371314
0.372529
0.373826
0.375032
0.376349
0.377538
0.378879
0.380046
0.381418
0.382559
0.38397
0.385076
0.386543
0.387603
0.389138
0.390115
0.391774
0.392619
0.394408
0.395191
0.397003
0.397679
0.399634
0.400005
0.402096
0.401694
0.403544
0.401013
0.405726
0.000344857
0.00423118
0.0128357
0.0260883
0.037837
0.0502419
0.0612953
0.0717973
0.0796976
0.0858124
0.0894327
0.0917803
0.0927861
0.0932929
0.0933298
0.0932977
0.0929858
0.0924054
0.0914094
0.0904981
0.0893453
0.0883936
0.0874655
0.0868497
0.0863777
0.0861659
0.0860645
0.0860776
0.0861285
0.086249
0.0863099
0.0864193
0.0864799
0.0865745
0.0866357
0.0867066
0.086752
0.0868208
0.0868726
0.0869351
0.0869857
0.0870328
0.08707
0.0871364
0.0871804
0.0872617
0.0872993
0.0873809
0.0874042
0.0874942
0.0875178
0.0876941
0.0876837
0.0880045
0.087946
0.0886761
0.0886187
0.0901473
0.0904042
0.094863
0.000333976
0.00393766
0.0113818
0.0236578
0.0335466
0.0444459
0.0527119
0.0609766
0.0664722
0.0711684
0.0736391
0.0756015
0.076338
0.0769555
0.0770372
0.077137
0.0770837
0.0770883
0.0770335
0.0770377
0.0770084
0.0770359
0.0770422
0.0770959
0.0771151
0.077176
0.0771999
0.0772628
0.0772826
0.0773343
0.0773658
0.0774278
0.0774556
0.0775119
0.0775385
0.0775635
0.0775766
0.0776049
0.0776339
0.0776408
0.0776408
0.0776428
0.0776443
0.0776418
0.0776518
0.0776778
0.0777077
0.0777084
0.0777189
0.0777345
0.0777802
0.0778012
0.0778252
0.0778229
0.0778233
0.0778398
0.0778389
0.0778774
0.07785
0.0799615
0.000334584
0.00398352
0.0115204
0.0240446
0.0342653
0.0454293
0.0538711
0.0622092
0.0677165
0.0723953
0.0748489
0.0767983
0.0775233
0.0781455
0.078238
0.0783669
0.0783397
0.0783819
0.0783767
0.078429
0.078446
0.0785182
0.0785368
0.078595
0.0786096
0.0786608
0.0786789
0.0787302
0.0787463
0.0787939
0.0788248
0.0788801
0.0789084
0.0789672
0.0789987
0.0790261
0.0790415
0.0790752
0.0790918
0.0790953
0.0790954
0.0790918
0.0790921
0.0790956
0.0791193
0.0791241
0.079131
0.0791327
0.0791487
0.0791817
0.079218
0.0792138
0.0792279
0.079232
0.0792676
0.0792767
0.079324
0.0793383
0.0793986
0.0813954
0.000332435
0.00393991
0.0113798
0.0237769
0.0337998
0.0448302
0.0531462
0.0614262
0.0668836
0.0715463
0.0739805
0.0759227
0.0766377
0.077246
0.077326
0.0774369
0.0773987
0.0774267
0.0774027
0.0774388
0.0774378
0.077485
0.0775006
0.0775575
0.0775728
0.0776265
0.0776471
0.0777034
0.0777204
0.0777674
0.0777971
0.0778613
0.077891
0.0779477
0.0779789
0.078007
0.0780216
0.0780524
0.0780681
0.0780702
0.0780694
0.07807
0.0780811
0.0780997
0.0781189
0.078117
0.0781225
0.0781327
0.0781587
0.0781562
0.0781652
0.0781695
0.078187
0.0782139
0.0782562
0.0782784
0.0782916
0.0783142
0.078312
0.080178
0.000332908
0.00395753
0.0114409
0.0239038
0.0340355
0.0451389
0.0535232
0.0618372
0.0673214
0.0719938
0.0744368
0.0763817
0.0770996
0.0777127
0.0777974
0.077916
0.0778833
0.0779185
0.0779034
0.0779462
0.0779514
0.0780057
0.0780211
0.0780762
0.0780904
0.0781411
0.07816
0.0782137
0.0782308
0.0782787
0.0783094
0.0783697
0.0783991
0.0784566
0.0784868
0.0785142
0.0785291
0.0785614
0.0785804
0.0785831
0.0785829
0.0785804
0.0785807
0.0785852
0.07861
0.0786133
0.0786194
0.0786218
0.078642
0.0786634
0.0787099
0.0787147
0.0787357
0.078743
0.0787716
0.0787757
0.0788031
0.0788271
0.0788769
0.0807749
0.000332908
0.00395753
0.0114409
0.0239038
0.0340355
0.0451389
0.0535232
0.0618372
0.0673214
0.0719938
0.0744368
0.0763816
0.0770996
0.0777127
0.0777974
0.077916
0.0778833
0.0779185
0.0779034
0.0779461
0.0779514
0.0780057
0.0780211
0.0780762
0.0780904
0.0781411
0.07816
0.0782137
0.0782308
0.0782793
0.07831
0.078367
0.0783953
0.0784538
0.0784852
0.078513
0.0785283
0.0785615
0.0785805
0.0785832
0.078583
0.0785806
0.0785811
0.0785858
0.0786125
0.0786189
0.0786249
0.0786308
0.0786583
0.0786604
0.0786711
0.078675
0.0786978
0.0787127
0.0787661
0.0787835
0.0788199
0.0788349
0.0788774
0.0807728
0.000332435
0.0039399
0.0113798
0.0237769
0.0337998
0.0448302
0.0531461
0.0614262
0.0668836
0.0715463
0.0739805
0.0759227
0.0766377
0.077246
0.077326
0.0774369
0.0773987
0.0774268
0.0774028
0.0774389
0.0774379
0.0774851
0.0775007
0.0775575
0.0775729
0.0776266
0.0776471
0.0777034
0.0777205
0.0777682
0.077798
0.0778575
0.0778858
0.077944
0.0779752
0.0780036
0.0780185
0.0780511
0.0780702
0.0780747
0.0780747
0.0780714
0.0780726
0.0780777
0.0781039
0.0781101
0.0781179
0.0781194
0.0781371
0.0781554
0.0782042
0.0782152
0.0782395
0.0782447
0.0782633
0.0782783
0.0782857
0.0783078
0.0783142
0.0801837
0.000334584
0.00398352
0.0115204
0.0240445
0.0342654
0.0454293
0.0538711
0.0622092
0.0677166
0.0723953
0.0748488
0.0767984
0.0775233
0.0781454
0.0782379
0.0783674
0.0783407
0.0783836
0.0783791
0.0784319
0.0784483
0.0785189
0.078537
0.0785951
0.0786097
0.0786606
0.0786786
0.0787301
0.0787464
0.0787942
0.078825
0.0788796
0.0789078
0.0789667
0.0789985
0.079026
0.0790414
0.0790751
0.0790914
0.0790942
0.0790945
0.0790915
0.0790919
0.0790955
0.0791192
0.0791244
0.0791314
0.079133
0.0791478
0.0791821
0.0792209
0.0792172
0.0792303
0.0792334
0.079266
0.079276
0.0793238
0.0793388
0.0793986
0.0813885
0.000333976
0.00393766
0.0113818
0.0236578
0.0335466
0.0444459
0.0527119
0.0609766
0.0664722
0.0711684
0.0736391
0.0756015
0.076338
0.0769555
0.0770371
0.077137
0.0770837
0.0770884
0.0770335
0.0770377
0.0770084
0.0770359
0.0770421
0.0770958
0.0771151
0.0771759
0.0771997
0.0772626
0.0772826
0.0773353
0.0773666
0.0774237
0.0774501
0.0775069
0.0775363
0.0775628
0.0775757
0.0776063
0.0776289
0.0776327
0.0776326
0.0776314
0.077634
0.077642
0.0776741
0.0776921
0.0777031
0.0776993
0.077711
0.0777296
0.0777799
0.077802
0.0778237
0.0778231
0.0778235
0.0778372
0.0778342
0.077875
0.0778459
0.0799446
0.000344856
0.00423118
0.0128357
0.0260883
0.0378369
0.0502418
0.0612953
0.0717975
0.0796978
0.0858125
0.0894327
0.0917803
0.0927862
0.093293
0.0933298
0.0932977
0.0929857
0.0924054
0.0914094
0.0904981
0.0893453
0.0883937
0.0874656
0.0868497
0.0863777
0.0861658
0.0860645
0.0860777
0.0861289
0.0862495
0.0863101
0.0864172
0.0864861
0.0865692
0.0866211
0.0867118
0.0867691
0.0868363
0.0868863
0.086942
0.0869805
0.0870247
0.0870628
0.0871327
0.087182
0.0872623
0.0872992
0.0873785
0.0874009
0.0874871
0.0875089
0.0876787
0.0876658
0.0879789
0.0879149
0.0886316
0.0885619
0.0900727
0.0903071
0.0947015
0.0075184
0.0441539
0.111566
0.179743
0.237495
0.285991
0.32183
0.346825
0.361525
0.369568
0.372509
0.372563
0.371961
0.370505
0.368585
0.366866
0.36521
0.363841
0.362703
0.361959
0.361587
0.361583
0.361923
0.362621
0.363461
0.36443
0.365474
0.366576
0.367689
0.368868
0.370053
0.371314
0.372529
0.373826
0.375032
0.376349
0.377539
0.378879
0.380047
0.381418
0.382561
0.383971
0.385079
0.386545
0.387608
0.389142
0.390122
0.391782
0.39263
0.394424
0.395211
0.397033
0.397715
0.39969
0.400068
0.402199
0.401806
0.403727
0.401204
0.405972
0.0075184
0.0441539
0.111566
0.179743
0.237495
0.285991
0.32183
0.346825
0.361526
0.369568
0.372509
0.372563
0.371961
0.370505
0.368585
0.366866
0.36521
0.363841
0.362703
0.361959
0.361587
0.361583
0.361923
0.362621
0.363461
0.36443
0.365474
0.366576
0.367689
0.368868
0.370052
0.371314
0.372529
0.373825
0.375032
0.376349
0.377538
0.378879
0.380046
0.381417
0.382559
0.38397
0.385076
0.386543
0.387603
0.389137
0.390115
0.391774
0.392619
0.394408
0.395191
0.397003
0.397679
0.399634
0.400005
0.402096
0.401694
0.403544
0.401012
0.405726
0.000344857
0.00423118
0.0128357
0.0260883
0.0378369
0.0502418
0.0612952
0.0717973
0.0796976
0.0858124
0.0894327
0.0917803
0.0927861
0.0932929
0.0933298
0.0932977
0.0929858
0.0924053
0.0914094
0.0904981
0.0893453
0.0883936
0.0874655
0.0868497
0.0863777
0.0861659
0.0860645
0.0860776
0.0861285
0.0862491
0.0863102
0.0864197
0.0864808
0.0865755
0.0866362
0.0867065
0.0867518
0.0868209
0.0868728
0.0869335
0.0869861
0.0870326
0.0870671
0.0871375
0.0871861
0.0872592
0.0872927
0.0873691
0.0873991
0.0875063
0.0875313
0.0877022
0.0876883
0.0880069
0.0879466
0.0886753
0.0886173
0.0901458
0.0904029
0.0948621
0.000333976
0.00393766
0.0113818
0.0236578
0.0335466
0.0444459
0.0527118
0.0609766
0.0664721
0.0711683
0.0736391
0.0756015
0.076338
0.0769555
0.0770372
0.077137
0.0770837
0.0770884
0.0770335
0.0770377
0.0770084
0.0770359
0.0770422
0.0770958
0.0771151
0.077176
0.0771998
0.0772628
0.0772825
0.0773343
0.0773658
0.077428
0.0774554
0.0775116
0.0775398
0.0775645
0.0775776
0.0776088
0.0776257
0.0776276
0.077627
0.0776282
0.0776437
0.0776603
0.0776882
0.0776956
0.0777077
0.0777044
0.077716
0.0777329
0.0777805
0.0778015
0.077825
0.0778231
0.0778237
0.0778399
0.0778391
0.0778777
0.0778501
0.0799615
0.000334584
0.00398352
0.0115204
0.0240445
0.0342654
0.0454292
0.053871
0.0622092
0.0677165
0.0723953
0.0748488
0.0767984
0.0775233
0.0781454
0.0782379
0.0783674
0.0783407
0.0783836
0.0783791
0.0784318
0.0784483
0.0785189
0.078537
0.0785951
0.0786097
0.0786607
0.0786788
0.0787304
0.0787467
0.0787949
0.0788255
0.0788789
0.0789068
0.078966
0.0789983
0.0790261
0.0790416
0.0790753
0.0790919
0.0790949
0.0790949
0.0790917
0.0790921
0.0790959
0.0791197
0.0791242
0.079131
0.0791328
0.0791476
0.0791814
0.079221
0.0792173
0.0792311
0.0792338
0.0792668
0.0792758
0.0793232
0.0793375
0.0793978
0.0813949
0.000332435
0.0039399
0.0113798
0.0237769
0.0337998
0.0448302
0.0531461
0.0614261
0.0668836
0.0715463
0.0739805
0.0759227
0.0766377
0.077246
0.077326
0.0774369
0.0773987
0.0774268
0.0774028
0.0774389
0.0774379
0.077485
0.0775006
0.0775575
0.0775728
0.0776265
0.0776471
0.0777034
0.0777204
0.0777673
0.0777968
0.0778616
0.0778917
0.077948
0.0779782
0.0780054
0.0780203
0.0780522
0.0780685
0.0780707
0.0780707
0.0780707
0.0780785
0.0781018
0.0781186
0.0781139
0.0781189
0.0781213
0.0781364
0.0781553
0.0782067
0.0782188
0.0782415
0.0782517
0.0782708
0.0782672
0.078268
0.0782846
0.0782971
0.0801772
0.000332908
0.00395753
0.0114409
0.0239038
0.0340355
0.0451389
0.0535231
0.0618371
0.0673214
0.0719938
0.0744368
0.0763816
0.0770996
0.0777127
0.0777974
0.077916
0.0778833
0.0779185
0.0779034
0.0779461
0.0779514
0.0780057
0.0780211
0.0780763
0.0780904
0.0781412
0.0781601
0.0782138
0.0782309
0.0782793
0.0783101
0.0783672
0.0783956
0.0784541
0.0784852
0.0785131
0.0785283
0.0785616
0.0785793
0.0785829
0.0785832
0.07858
0.0785813
0.0785872
0.0786118
0.0786133
0.0786194
0.0786227
0.0786379
0.0786722
0.0787109
0.0787075
0.0787192
0.0787237
0.0787544
0.0787694
0.0788129
0.0788323
0.078877
0.0807727
0.000332909
0.00395753
0.0114409
0.0239039
0.0340353
0.0451389
0.0535232
0.0618371
0.0673213
0.0719938
0.0744368
0.0763816
0.0770996
0.0777127
0.0777974
0.077916
0.0778832
0.0779184
0.0779033
0.0779461
0.0779515
0.0780059
0.0780212
0.0780762
0.0780904
0.0781413
0.0781602
0.0782138
0.0782309
0.0782794
0.0783102
0.0783669
0.0783951
0.0784536
0.0784851
0.0785133
0.0785285
0.0785616
0.07858
0.0785829
0.0785829
0.0785808
0.0785834
0.0785941
0.0786144
0.078618
0.0786393
0.0786659
0.0786858
0.078682
0.0786954
0.0786988
0.0787124
0.0787148
0.0787424
0.0787603
0.078812
0.0788348
0.0788807
0.0807746
0.000332435
0.0039399
0.0113798
0.023777
0.0337997
0.0448302
0.0531462
0.0614261
0.0668836
0.0715463
0.0739805
0.0759226
0.0766377
0.077246
0.0773261
0.077437
0.0773988
0.0774269
0.077403
0.0774391
0.0774382
0.0774854
0.0775009
0.0775576
0.0775729
0.0776267
0.0776473
0.0777035
0.0777207
0.0777685
0.0777983
0.0778571
0.0778851
0.0779435
0.0779749
0.0780035
0.0780186
0.078051
0.0780721
0.0780753
0.0780752
0.0780733
0.0780755
0.0780862
0.0781069
0.0781106
0.0781326
0.0781602
0.0781808
0.0781768
0.0781901
0.0781969
0.0782131
0.078213
0.0782241
0.078258
0.0782886
0.0783234
0.0783242
0.0801873
0.000334584
0.00398351
0.0115204
0.0240445
0.0342654
0.0454292
0.053871
0.0622092
0.0677165
0.0723953
0.0748488
0.0767984
0.0775233
0.0781454
0.0782379
0.0783674
0.0783407
0.0783837
0.0783791
0.0784319
0.0784484
0.0785189
0.078537
0.078595
0.0786097
0.0786606
0.0786786
0.07873
0.0787463
0.0787939
0.0788247
0.0788803
0.0789085
0.0789673
0.0789989
0.0790268
0.079042
0.079075
0.0790922
0.0790953
0.0790953
0.0790927
0.0790954
0.0791064
0.0791255
0.0791295
0.0791531
0.0791737
0.0791886
0.079184
0.0791977
0.0792066
0.0792306
0.0792266
0.0792508
0.0792634
0.0793237
0.0793433
0.0794049
0.0813926
0.000333976
0.00393766
0.0113818
0.0236578
0.0335466
0.0444459
0.0527118
0.0609766
0.0664721
0.0711683
0.0736391
0.0756015
0.076338
0.0769555
0.0770372
0.077137
0.0770837
0.0770884
0.0770335
0.0770378
0.0770084
0.0770359
0.0770422
0.0770959
0.0771152
0.077176
0.0771998
0.0772627
0.0772827
0.0773355
0.0773669
0.0774244
0.0774509
0.0775074
0.0775371
0.0775625
0.0775756
0.0776069
0.0776248
0.077627
0.0776263
0.0776283
0.0776467
0.0776589
0.0776656
0.0776679
0.0776936
0.077729
0.0777533
0.0777507
0.0777631
0.0777796
0.0777972
0.0778024
0.0778149
0.0778481
0.0778349
0.077867
0.0778333
0.0799306
0.000344856
0.00423118
0.0128357
0.0260883
0.0378368
0.0502418
0.0612952
0.0717975
0.0796978
0.0858125
0.0894327
0.0917803
0.0927862
0.093293
0.0933298
0.0932977
0.0929858
0.0924055
0.0914095
0.0904982
0.0893454
0.0883937
0.0874657
0.0868498
0.0863777
0.0861658
0.0860646
0.0860778
0.086129
0.0862493
0.0863107
0.0864195
0.0864797
0.0865738
0.0866341
0.0867036
0.0867499
0.0868194
0.0868716
0.0869324
0.0869836
0.0870323
0.0870671
0.0871313
0.0871813
0.0872647
0.0873024
0.0873809
0.087402
0.0874893
0.087513
0.087682
0.0876664
0.0879785
0.0879145
0.0886312
0.0885613
0.0900718
0.0903061
0.0947003
0.0075184
0.0441539
0.111566
0.179743
0.237495
0.285991
0.32183
0.346825
0.361525
0.369568
0.372509
0.372563
0.371961
0.370505
0.368585
0.366866
0.36521
0.363841
0.362703
0.361959
0.361587
0.361583
0.361923
0.362621
0.363461
0.36443
0.365474
0.366576
0.367689
0.368868
0.370053
0.371314
0.372529
0.373826
0.375033
0.376349
0.377539
0.378879
0.380047
0.381418
0.382561
0.38397
0.385079
0.386545
0.387608
0.389142
0.390122
0.391782
0.39263
0.394424
0.395211
0.397033
0.397715
0.39969
0.400068
0.402198
0.401806
0.403727
0.401204
0.405972
0.979164
2.3526
2.95276
3.15364
3.23116
3.23702
3.2368
3.22573
3.21937
3.20446
3.19878
3.18537
3.17983
3.1677
3.16295
3.15298
3.14934
3.14181
3.13986
3.13574
3.1357
3.13428
3.13512
3.13472
3.13596
3.13587
3.13686
3.13667
3.13731
3.1371
3.13765
3.1375
3.13794
3.13781
3.13815
3.13803
3.13829
3.13818
3.13839
3.13829
3.13847
3.13839
3.13855
3.13847
3.13862
3.13854
3.13871
3.13858
3.1388
3.13857
3.13893
3.13848
3.13895
3.13822
3.13822
3.13753
3.13517
3.13605
3.12151
3.1855
0.412261
1.69039
2.34546
2.63094
2.745
2.79046
2.80443
2.80894
2.80822
2.80802
2.80767
2.80848
2.8092
2.81093
2.81174
2.81343
2.81414
2.81518
2.81522
2.81535
2.81499
2.81487
2.81458
2.81464
2.81445
2.81442
2.8145
2.8153
2.81658
2.8184
2.82015
2.82208
2.82361
2.82502
2.82596
2.82676
2.82723
2.82762
2.82783
2.82803
2.82815
2.82829
2.82839
2.8285
2.8286
2.82871
2.82881
2.82893
2.82901
2.82918
2.82924
2.82947
2.82953
2.82987
2.83025
2.8306
2.83173
2.83104
2.83272
2.86739
0.423387
1.66896
2.30959
2.59105
2.70334
2.74935
2.76305
2.76713
2.76555
2.76403
2.76191
2.76146
2.76073
2.76094
2.76078
2.76107
2.76103
2.76137
2.76145
2.76183
2.76185
2.76205
2.76219
2.76273
2.76319
2.76375
2.76383
2.76366
2.76321
2.7632
2.7638
2.76566
2.76812
2.77109
2.77392
2.77652
2.7785
2.78003
2.78101
2.78169
2.78207
2.78234
2.78249
2.78261
2.7827
2.78278
2.78287
2.78292
2.78303
2.78307
2.78318
2.7832
2.78331
2.78325
2.78335
2.78324
2.78334
2.78322
2.78334
2.81116
0.412566
1.66272
2.30871
2.59227
2.70515
2.75101
2.76449
2.7684
2.76677
2.76525
2.76313
2.76265
2.76185
2.76196
2.76167
2.76181
2.76161
2.76182
2.76183
2.7621
2.76205
2.76209
2.76201
2.76232
2.76279
2.76348
2.76368
2.76353
2.76288
2.76254
2.7627
2.76405
2.76642
2.76946
2.77256
2.77555
2.77797
2.7799
2.78121
2.78212
2.78266
2.78301
2.78321
2.78335
2.78346
2.78353
2.78363
2.78368
2.78378
2.78383
2.78394
2.784
2.78414
2.7842
2.78441
2.7844
2.78467
2.78457
2.78499
2.81142
0.4181
1.66447
2.30803
2.59078
2.70334
2.74905
2.76238
2.76619
2.76453
2.76299
2.76089
2.76043
2.75965
2.75976
2.75945
2.75958
2.75938
2.7596
2.75962
2.75989
2.7598
2.75983
2.75978
2.76017
2.76073
2.76138
2.7615
2.76128
2.76054
2.76014
2.76025
2.76153
2.76388
2.76695
2.77012
2.77321
2.77574
2.77776
2.77914
2.7801
2.78067
2.78105
2.78126
2.78141
2.78151
2.78159
2.78168
2.78174
2.78184
2.78188
2.78199
2.78201
2.78211
2.78212
2.7822
2.78221
2.78229
2.7823
2.78246
2.80782
0.414865
1.66304
2.30833
2.59172
2.70452
2.7502
2.7635
2.76726
2.7656
2.76409
2.76203
2.76158
2.76082
2.76091
2.76059
2.7607
2.7605
2.76073
2.76075
2.76099
2.76087
2.76088
2.76084
2.76126
2.7618
2.76243
2.76251
2.76224
2.7615
2.76114
2.76131
2.76267
2.76505
2.76811
2.77125
2.77431
2.7768
2.77879
2.78015
2.7811
2.78166
2.78203
2.78224
2.78239
2.78249
2.78258
2.78266
2.78273
2.78281
2.78287
2.78297
2.78302
2.78314
2.78319
2.78332
2.78335
2.78351
2.78353
2.78379
2.80929
0.414866
1.66304
2.30833
2.59172
2.70452
2.7502
2.7635
2.76726
2.7656
2.76409
2.76203
2.76158
2.76082
2.76091
2.76059
2.7607
2.7605
2.76073
2.76075
2.76099
2.76087
2.76088
2.76084
2.76126
2.7618
2.76243
2.76251
2.76224
2.76149
2.76114
2.76131
2.76267
2.76505
2.76811
2.77125
2.77431
2.7768
2.77879
2.78014
2.7811
2.78166
2.78203
2.78224
2.78239
2.78249
2.78258
2.78266
2.78272
2.78281
2.78287
2.78297
2.78302
2.78314
2.78319
2.78331
2.78335
2.7835
2.78353
2.78378
2.80928
0.4181
1.66447
2.30803
2.59078
2.70334
2.74905
2.76238
2.76619
2.76453
2.76299
2.76089
2.76043
2.75965
2.75976
2.75945
2.75958
2.75938
2.7596
2.75962
2.75989
2.7598
2.75982
2.75978
2.76017
2.76073
2.76138
2.7615
2.76128
2.76054
2.76014
2.76025
2.76153
2.76388
2.76695
2.77012
2.77321
2.77574
2.77776
2.77914
2.7801
2.78067
2.78105
2.78126
2.78141
2.78151
2.7816
2.78168
2.78175
2.78184
2.78189
2.78199
2.78202
2.7821
2.78212
2.78218
2.78223
2.78225
2.78231
2.78243
2.80781
0.412566
1.66272
2.30871
2.59227
2.70515
2.75101
2.76449
2.7684
2.76677
2.76525