/*--------------------------------*- C++ -*----------------------------------*\
  =========                 |
  \\      /  F ield         | OpenFOAM: The Open Source CFD Toolbox
   \\    /   O peration     | Website:  https://openfoam.org
    \\  /    A nd           | Version:  7
     \\/     M anipulation  |
\*---------------------------------------------------------------------------*/
FoamFile
{
    version     2.0;
    format      ascii;
    class       surfaceScalarField;
    location    "0.2";
    object      phi;
}
// * * * * * * * * * * * * * * * * * * * * * * * * * * * * * * * * * * * * * //

dimensions      [1 0 -1 0 0 0 0];

internalField   nonuniform List<scalar> 
21708
(
0.00129836
0.000993464
1.49342e-05
0.000914296
0.000393242
7.59733e-06
0.000712417
0.000203557
1.30079e-05
0.000627461
9.01977e-05
8.07168e-06
0.000582145
4.521e-05
1.211e-05
0.000562904
2.17112e-05
8.22232e-06
0.000554416
6.4601e-06
1.13806e-05
0.000552625
1.46934e-06
8.33462e-06
0.000549511
-1.05945e-06
1.0796e-05
0.000546179
1.49303e-07
8.37426e-06
0.000539767
-1.25731e-07
1.02599e-05
0.000532855
8.36778e-07
8.32825e-06
0.000523653
3.10418e-07
9.75516e-06
0.000513856
1.14051e-06
8.21764e-06
0.00050295
1.01042e-07
9.27225e-06
0.000489882
2.51319e-06
8.05842e-06
0.000477328
6.04651e-07
8.79964e-06
0.000462601
3.20219e-06
7.86035e-06
0.000404754
4.55388e-05
8.468e-06
2.84689e-05
7.28865e-06
0.000365275
0.00224548
0.00105016
4.31093e-06
0.00207677
0.000581798
-2.38539e-06
0.00188771
0.000404696
3.12883e-06
0.00175695
0.000236219
-1.67438e-06
0.00167368
0.000138344
2.45006e-06
0.00163781
6.98834e-05
-1.39237e-06
0.00162557
2.62708e-05
1.80739e-06
0.00162903
7.04345e-06
-1.22645e-06
0.00163072
2.31435e-06
1.24699e-06
0.00163394
2.99244e-06
-1.1821e-06
0.00163219
4.43278e-06
7.07611e-07
0.00163143
4.92899e-06
-1.23104e-06
0.00162733
5.0184e-06
1.99358e-07
0.00162343
5.89341e-06
-1.34297e-06
0.00161897
3.30568e-06
-2.86699e-07
0.00160983
1.06244e-05
-1.50043e-06
0.00161061
-2.57555e-06
-7.75198e-07
0.00158952
2.22988e-05
-1.68676e-06
0.00162935
3.16254e-06
-1.33604e-06
1.13158e-05
-2.38843e-06
0.0016451
0.00256681
0.000779135
1.09613e-05
0.00267738
0.000484515
4.7228e-06
0.00268688
0.000400979
9.86485e-06
0.00266414
0.000267825
4.95621e-06
0.00263136
0.000174756
8.99231e-06
0.00261166
9.59236e-05
5.08924e-06
0.00259925
4.0239e-05
8.23917e-06
0.00259743
1.15216e-05
5.17846e-06
0.00259574
2.25655e-06
7.63729e-06
0.00259736
4.16887e-07
5.20926e-06
0.00259628
1.33976e-06
7.09372e-06
0.00259665
1.10649e-06
5.15849e-06
0.00259452
1.13286e-06
6.58616e-06
0.002593
1.77945e-06
5.04722e-06
0.00258937
-7.63841e-07
6.1029e-06
0.00258639
6.20034e-06
4.88619e-06
0.00257918
-4.18338e-06
5.6371e-06
0.00257533
1.78207e-05
4.66873e-06
0.00255791
1.13757e-05
5.33146e-06
6.05374e-05
4.23024e-06
0.00250066
0.00257222
0.000507882
5.61634e-06
0.00275005
0.000325178
-3.4334e-07
0.00287228
0.000289722
4.75245e-06
0.00294705
0.000206963
-1.0278e-07
0.00298523
0.000145269
3.98219e-06
0.00300665
8.60464e-05
1.35542e-07
0.00301336
4.03704e-05
3.33785e-06
0.00301785
1.47916e-05
3.06666e-07
0.00301777
5.35182e-06
2.77912e-06
0.00301898
2.70662e-06
3.52785e-07
0.00301761
2.8756e-06
2.23979e-06
0.00301713
2.55476e-06
3.03822e-07
0.00301476
2.04557e-06
1.73297e-06
0.00301225
3.37207e-06
1.92947e-07
0.00300903
-4.68361e-07
1.24949e-06
0.00300456
8.09288e-06
3.33836e-08
0.00300234
-5.92793e-06
7.6572e-07
0.00299749
1.9187e-05
-1.81825e-07
0.00300951
-4.7062e-06
1.88067e-07
3.69318e-05
-7.69228e-07
0.00303007
0.0025614
0.000244272
8.91014e-06
0.00274454
0.000157051
3.15079e-06
0.00289482
0.00014705
8.10372e-06
0.00300419
0.000108093
3.24046e-06
0.00307653
7.82848e-05
7.2958e-06
0.00312303
4.7875e-05
3.4231e-06
0.00314363
2.3517e-05
6.59698e-06
0.00315379
9.3022e-06
3.54621e-06
0.0031554
3.537e-06
6.00721e-06
0.00315666
1.55009e-06
3.57869e-06
0.00315502
1.22096e-06
5.46191e-06
0.00315428
7.96598e-07
3.52658e-06
0.00315116
3.17794e-07
4.95414e-06
0.00314933
9.57279e-07
3.41623e-06
0.00314374
-1.07388e-06
4.47172e-06
0.00314275
3.26365e-06
3.25311e-06
0.00313262
-3.02265e-06
4.00338e-06
0.00313592
9.20566e-06
3.02206e-06
0.00312245
1.26153e-06
3.61836e-06
2.91156e-05
2.59909e-06
0.00312385
0.00254372
1.64126e-09
7.19774e-06
0.00271739
9.44921e-10
1.52738e-06
0.00287366
-3.27155e-10
6.46087e-06
0.00299386
-8.06393e-10
1.59866e-06
0.00307913
-8.3471e-10
5.65494e-06
0.00313698
-9.04073e-10
1.7899e-06
0.00316592
-1.02198e-09
4.97513e-06
0.00318154
-1.31485e-09
1.93147e-06
0.00318648
-1.54135e-09
4.39694e-06
0.0031897
5.75384e-12
1.96891e-06
0.00318915
-8.98893e-10
3.85367e-06
0.00318897
1.16275e-08
1.91852e-06
0.00318599
-1.99649e-09
3.34678e-06
0.00318421
5.49395e-08
1.80877e-06
0.00317854
-1.39223e-08
2.8643e-06
0.00317737
2.18796e-07
1.64797e-06
0.0031688
-5.7548e-08
2.38838e-06
0.00317225
6.66121e-07
1.41892e-06
0.00316754
1.97761e-07
1.89085e-06
1.36165e-06
9.38285e-07
0.00319054
0.00254372
-0.000244269
7.19774e-06
0.00271739
-0.00015705
1.52737e-06
0.00287366
-0.000147051
6.46087e-06
0.00299386
-0.000108095
1.59866e-06
0.00307913
-7.82864e-05
5.65494e-06
0.00313698
-4.78769e-05
1.7899e-06
0.00316592
-2.35188e-05
4.97513e-06
0.00318154
-9.30551e-06
1.93147e-06
0.00318648
-3.5393e-06
4.39697e-06
0.0031897
-1.55229e-06
1.96889e-06
0.00318915
-1.21951e-06
3.85371e-06
0.00318898
-7.82334e-07
1.91841e-06
0.00318599
-3.12605e-07
3.34691e-06
0.00318423
-8.69955e-07
1.80828e-06
0.00317855
1.06537e-06
2.86474e-06
0.00317739
-2.8423e-06
1.64632e-06
0.00316876
2.95925e-06
2.39038e-06
0.0031722
-7.85608e-06
1.41612e-06
0.00316743
-8.10696e-07
1.89773e-06
-2.61582e-05
9.35135e-07
0.00319019
0.0025614
-0.000507879
8.91014e-06
0.00274454
-0.000325176
3.15078e-06
0.00289482
-0.000289723
8.10372e-06
0.00300419
-0.000206965
3.24045e-06
0.00307653
-0.000145271
7.2958e-06
0.00312303
-8.60481e-05
3.4231e-06
0.00314363
-4.03724e-05
6.59698e-06
0.00315379
-1.47943e-05
3.54621e-06
0.0031554
-5.35463e-06
6.00718e-06
0.00315666
-2.70718e-06
3.5787e-06
0.00315502
-2.87579e-06
5.46187e-06
0.00315428
-2.53636e-06
3.52668e-06
0.00315116
-2.04406e-06
4.95401e-06
0.00314932
-3.28041e-06
3.4167e-06
0.00314374
4.52002e-07
4.47131e-06
0.00314278
-7.70228e-06
3.25469e-06
0.00313272
5.80829e-06
4.00146e-06
0.00313609
-1.79245e-05
3.02457e-06
0.00312285
4.94132e-06
3.61208e-06
-3.44156e-05
2.60128e-06
0.00312469
0.00257222
-0.000779132
5.61633e-06
0.00275005
-0.000484514
-3.43346e-07
0.00287228
-0.00040098
4.75245e-06
0.00294705
-0.000267827
-1.02785e-07
0.00298523
-0.000174757
3.98219e-06
0.00300665
-9.59253e-05
1.35536e-07
0.00301336
-4.0241e-05
3.33785e-06
0.00301785
-1.15248e-05
3.06674e-07
0.00301777
-2.2583e-06
2.77916e-06
0.00301898
-4.19675e-07
3.52784e-07
0.00301761
-1.33605e-06
2.23983e-06
0.00301715
-1.10067e-06
3.03729e-07
0.00301476
-1.11886e-06
1.73309e-06
0.00301229
-1.72795e-06
1.9254e-07
0.00300903
7.79637e-07
1.2499e-06
0.00300465
-5.89063e-06
3.20013e-08
0.00300236
4.13121e-06
7.6754e-07
0.00299765
-1.67001e-05
-1.8423e-07
0.0030097
-1.11614e-05
1.94716e-07
-5.81009e-05
-7.72456e-07
0.00303032
0.00256681
-0.00105016
1.09613e-05
0.00267738
-0.000581797
4.7228e-06
0.00268688
-0.000404697
9.86485e-06
0.00266414
-0.00023622
4.95621e-06
0.00263136
-0.000138346
8.9923e-06
0.00261166
-6.98852e-05
5.08924e-06
0.00259925
-2.62731e-05
8.23916e-06
0.00259742
-7.04605e-06
5.17845e-06
0.00259574
-2.31637e-06
7.63727e-06
0.00259736
-2.99386e-06
5.20926e-06
0.00259628
-4.43096e-06
7.09368e-06
0.00259665
-4.92363e-06
5.15855e-06
0.00259452
-5.00829e-06
6.58606e-06
0.00259303
-5.85679e-06
5.04753e-06
0.00258939
-3.29238e-06
6.10259e-06
0.00258653
-1.04261e-05
4.88737e-06
0.00257933
2.50147e-06
5.63569e-06
0.00257582
-2.15096e-05
4.67063e-06
0.00255872
-3.2506e-06
5.32707e-06
-1.00806e-05
4.23135e-06
0.00250265
0.00224548
-0.000993463
4.31092e-06
0.00207677
-0.000393242
-2.3854e-06
0.0018877
-0.000203559
3.12883e-06
0.00175695
-9.01999e-05
-1.67439e-06
0.00167368
-4.52124e-05
2.45005e-06
0.0016378
-2.17138e-05
-1.39238e-06
0.00162557
-6.4627e-06
1.80739e-06
0.00162902
-1.47197e-06
-1.22644e-06
0.00163072
1.05771e-06
1.24702e-06
0.00163394
-1.51245e-07
-1.18211e-06
0.00163219
1.26785e-07
7.07648e-07
0.00163144
-8.38112e-07
-1.23112e-06
0.00162734
-3.01929e-07
1.99486e-07
0.00162348
-1.1385e-06
-1.34327e-06
0.00161899
-7.51936e-08
-2.86309e-07
0.00161002
-2.46345e-06
-1.50137e-06
0.00161067
-5.68328e-07
-7.73769e-07
0.00159014
-2.95282e-06
-1.6889e-06
0.00162967
-4.53286e-05
-1.33021e-06
-2.78113e-05
-2.39296e-06
0.00164597
0.00129836
1.49342e-05
0.000914296
7.59731e-06
0.000712416
1.30079e-05
0.000627461
8.07168e-06
0.000582144
1.211e-05
0.000562903
8.22232e-06
0.000554415
1.13806e-05
0.000552624
8.33463e-06
0.000549511
1.0796e-05
0.00054618
8.37427e-06
0.000539769
1.02599e-05
0.000532859
8.32827e-06
0.000523664
9.75513e-06
0.000513874
8.21779e-06
0.000502985
9.27206e-06
0.000489981
8.05909e-06
0.000477442
8.79875e-06
0.000462986
7.862e-06
0.000405343
8.4656e-06
7.2903e-06
0.000366445
0.00189995
0.00041635
4.58893e-06
0.00140464
0.000513477
6.603e-06
0.00107709
0.000351829
3.64385e-06
0.000911952
0.000181189
5.43745e-06
0.000844876
8.75566e-05
3.66882e-06
0.000817863
4.08399e-05
5.03496e-06
0.000812823
2.19317e-05
3.77517e-06
0.000809359
1.50484e-05
4.69564e-06
0.000809627
1.33112e-05
3.82054e-06
0.00080548
1.32768e-05
4.41834e-06
0.000802221
1.3403e-05
3.84508e-06
0.000795138
1.34541e-05
4.20035e-06
0.000788415
1.34878e-05
3.85394e-06
0.00077876
1.3389e-05
4.02512e-06
0.000769654
1.29856e-05
3.8521e-06
0.000756582
1.4729e-05
3.87656e-06
0.000753183
5.17909e-06
3.85125e-06
0.000721015
3.26055e-05
3.73904e-06
0.000812615
-9.07719e-05
3.75727e-06
-5.8452e-05
3.83522e-06
0.000870744
0.00240109
0.000315827
9.99683e-06
0.00236332
0.0005547
1.18983e-05
0.00226071
0.000463592
9.37944e-06
0.0021456
0.000297678
1.07287e-05
0.00206466
0.000174188
9.25856e-06
0.00201425
9.06566e-05
1.02542e-05
0.00199512
4.29161e-05
9.29171e-06
0.00198706
1.95863e-05
9.93192e-06
0.00198896
9.43948e-06
9.31623e-06
0.00198908
7.01111e-06
9.69074e-06
0.00199133
5.95896e-06
9.31784e-06
0.00199001
6.15384e-06
9.49136e-06
0.00198925
5.9362e-06
9.29522e-06
0.00198549
6.01824e-06
9.32293e-06
0.001982
5.39108e-06
9.26028e-06
0.00197643
7.12291e-06
9.17207e-06
0.00196896
-5.14596e-07
9.22706e-06
0.00196721
1.99937e-05
9.02467e-06
0.00191396
-5.19378e-05
9.20845e-06
4.0736e-05
9.15783e-06
0.00179945
0.00242246
0.000204548
5.83208e-06
0.00257079
0.000421173
7.82443e-06
0.00265147
0.000403302
5.01176e-06
0.00266481
0.000296405
6.72231e-06
0.00265701
0.000198727
4.99097e-06
0.00264075
0.000117194
6.28741e-06
0.00263424
6.22009e-05
5.15079e-06
0.00262986
3.07326e-05
5.99793e-06
0.00263188
1.54985e-05
5.24001e-06
0.00263196
1.05151e-05
5.75537e-06
0.00263418
8.44984e-06
5.27475e-06
0.0026332
8.46922e-06
5.5551e-06
0.00263335
7.70446e-06
5.28205e-06
0.00262945
9.0206e-06
5.38981e-06
0.00262852
5.57205e-06
5.27254e-06
0.00261974
1.30268e-05
5.24856e-06
0.00262192
-5.48651e-06
5.25227e-06
0.00260746
3.03261e-05
5.13713e-06
0.00262068
-6.88413e-05
5.13237e-06
2.26079e-05
5.19965e-06
0.00263404
0.00237515
0.00013235
8.87442e-06
0.00253454
0.000268539
1.08118e-05
0.0026842
0.0002655
8.395e-06
0.0027774
0.000207073
9.80369e-06
0.00283777
0.000146846
8.28481e-06
0.00286629
9.11851e-05
9.3029e-06
0.0028829
5.05521e-05
8.31308e-06
0.00288726
2.54021e-05
8.97157e-06
0.00289074
1.19737e-05
8.33445e-06
0.00289007
6.59997e-06
8.72175e-06
0.00289097
3.96235e-06
8.33665e-06
0.00288919
3.47154e-06
8.52374e-06
0.00288823
2.51007e-06
8.32097e-06
0.0028849
3.53608e-06
8.35983e-06
0.00288104
7.87115e-07
8.29188e-06
0.00287722
6.14257e-06
8.21488e-06
0.00286668
-5.6305e-06
8.25988e-06
0.00286777
1.73138e-05
8.0961e-06
0.00282068
-3.372e-05
8.26676e-06
4.50802e-05
8.24226e-06
0.00278542
0.00237714
6.33518e-05
6.8752e-06
0.00252597
0.000131905
8.85249e-06
0.00267536
0.000133374
6.31307e-06
0.00278485
0.000106745
7.83977e-06
0.00286693
7.86628e-05
6.20025e-06
0.00291491
5.10505e-05
7.3393e-06
0.00294578
3.00383e-05
6.27558e-06
0.0029591
1.63464e-05
7.02469e-06
0.00296748
8.7331e-06
6.32712e-06
0.00296913
5.38852e-06
6.77585e-06
0.0029709
3.65412e-06
6.34331e-06
0.00296939
3.22318e-06
6.57814e-06
0.00296838
2.47314e-06
6.34201e-06
0.00296491
3.32878e-06
6.4168e-06
0.00296105
1.15718e-06
6.32466e-06
0.00295624
5.40683e-06
6.27852e-06
0.00294873
-3.59961e-06
6.2957e-06
0.00294696
1.22788e-05
6.17919e-06
0.00293
-2.3231e-05
6.21916e-06
1.58093e-05
6.24741e-06
0.00295183
0.00236885
1.35284e-09
7.85183e-06
0.00251037
6.94729e-10
9.81077e-06
0.00265828
5.99513e-10
7.3795e-06
0.00277154
7.2353e-10
8.83689e-06
0.00286141
6.06833e-10
7.26488e-06
0.0029177
-1.63489e-10
8.33055e-06
0.00295546
-4.15135e-10
7.31139e-06
0.00297349
-9.52582e-10
8.00635e-06
0.00298472
1.421e-10
7.34426e-06
0.00298791
1.27855e-09
7.7551e-06
0.00299036
1.63324e-09
7.35071e-06
0.00298918
1.12524e-08
7.55736e-06
0.00298797
6.95985e-10
7.34187e-06
0.00298497
4.84526e-08
7.39588e-06
0.00298003
2.48614e-09
7.31868e-06
0.00297712
1.82337e-07
7.25539e-06
0.00296538
5.62057e-08
7.28744e-06
0.00296773
5.49132e-07
7.15227e-06
0.00293478
4.80995e-07
7.26457e-06
1.51113e-06
7.24894e-06
0.00293896
0.00236885
-6.33492e-05
7.85183e-06
0.00251037
-0.000131903
9.81077e-06
0.00265828
-0.000133372
7.3795e-06
0.00277154
-0.000106744
8.83689e-06
0.00286141
-7.86617e-05
7.26488e-06
0.0029177
-5.10506e-05
8.33055e-06
0.00295546
-3.00392e-05
7.31139e-06
0.00297349
-1.63475e-05
8.00636e-06
0.00298472
-8.73353e-06
7.34425e-06
0.00298791
-5.38378e-06
7.7551e-06
0.00299036
-3.65386e-06
7.35068e-06
0.00298918
-3.19457e-06
7.55741e-06
0.00298797
-2.48069e-06
7.34178e-06
0.00298496
-3.21774e-06
7.39611e-06
0.00298004
-1.17887e-06
7.31841e-06
0.00297713
-5.03398e-06
7.25611e-06
0.00296546
3.6469e-06
7.28626e-06
0.00296785
-1.12297e-05
7.15369e-06
0.00293502
2.4084e-05
7.26058e-06
-1.31258e-05
7.25074e-06
0.00293954
0.00237714
-0.000132347
6.8752e-06
0.00252597
-0.000268538
8.85249e-06
0.00267536
-0.000265499
6.31306e-06
0.00278485
-0.000207072
7.83976e-06
0.00286693
-0.000146845
6.20025e-06
0.00291491
-9.11852e-05
7.3393e-06
0.00294578
-5.05527e-05
6.27558e-06
0.0029591
-2.54037e-05
7.02469e-06
0.00296748
-1.19733e-05
6.32713e-06
0.00296914
-6.59783e-06
6.77586e-06
0.0029709
-3.95866e-06
6.34333e-06
0.0029694
-3.4527e-06
6.57812e-06
0.00296838
-2.5064e-06
6.34207e-06
0.00296493
-3.45144e-06
6.41661e-06
0.00296105
-7.79199e-07
6.32486e-06
0.00295628
-5.81129e-06
6.27782e-06
0.00294872
5.72768e-06
6.29676e-06
0.00294698
-1.62969e-05
6.17778e-06
0.00293
3.45873e-05
6.22287e-06
-4.21604e-05
6.24566e-06
0.00295159
0.00237515
-0.000204546
8.87441e-06
0.00253454
-0.000421172
1.08118e-05
0.0026842
-0.000403302
8.395e-06
0.0027774
-0.000296404
9.80369e-06
0.00283777
-0.000198726
8.28481e-06
0.00286629
-0.000117194
9.3029e-06
0.00288291
-6.22012e-05
8.31307e-06
0.00288726
-3.07332e-05
8.97157e-06
0.00289074
-1.54985e-05
8.33443e-06
0.00289007
-1.05121e-05
8.72175e-06
0.00289097
-8.44819e-06
8.33662e-06
0.00288919
-8.45035e-06
8.5238e-06
0.00288823
-7.70567e-06
8.32087e-06
0.00288491
-8.9386e-06
8.36003e-06
0.00288106
-5.58361e-06
8.29158e-06
0.00287728
-1.27305e-05
8.21549e-06
0.00286682
5.50526e-06
8.25873e-06
0.00286803
-2.94365e-05
8.0973e-06
0.00282126
6.94204e-05
8.26299e-06
-2.03576e-05
8.24376e-06
0.00278664
0.00242246
-0.000315825
5.83207e-06
0.00257079
-0.000554699
7.82443e-06
0.00265147
-0.000463592
5.01175e-06
0.00266481
-0.000297677
6.72231e-06
0.00265701
-0.000174187
4.99097e-06
0.00264075
-9.06559e-05
6.28741e-06
0.00263424
-4.29157e-05
5.15079e-06
0.00262986
-1.95869e-05
5.99793e-06
0.00263188
-9.43883e-06
5.24003e-06
0.00263196
-7.01101e-06
5.75537e-06
0.00263418
-5.95494e-06
5.27479e-06
0.00263322
-6.14738e-06
5.55508e-06
0.00263335
-5.92557e-06
5.28211e-06
0.0026295
-5.97847e-06
5.38965e-06
0.00262853
-5.36846e-06
5.27268e-06
0.00261987
-6.93745e-06
5.24806e-06
0.00262198
5.84106e-07
5.2529e-06
0.00260776
-1.93409e-05
5.13613e-06
0.00262103
5.2477e-05
5.13503e-06
-3.87472e-05
5.19848e-06
0.00263464
0.00240109
-0.000416349
9.99683e-06
0.00236332
-0.000513476
1.18983e-05
0.00226071
-0.000351828
9.37943e-06
0.0021456
-0.000181189
1.07287e-05
0.00206466
-8.75558e-05
9.25856e-06
0.00201426
-4.08392e-05
1.02542e-05
0.00199512
-2.19313e-05
9.2917e-06
0.00198706
-1.50483e-05
9.93191e-06
0.00198896
-1.3311e-05
9.31622e-06
0.00198908
-1.32763e-05
9.69072e-06
0.00199133
-1.34017e-05
9.31786e-06
0.00199002
-1.34499e-05
9.49133e-06
0.00198926
-1.34842e-05
9.29525e-06
0.00198553
-1.33671e-05
9.32294e-06
0.00198204
-1.29829e-05
9.26011e-06
0.00197657
-1.46288e-05
9.17249e-06
0.00196918
-5.20295e-06
9.22601e-06
0.0019677
-3.22172e-05
9.02595e-06
0.00191509
9.07012e-05
9.20523e-06
5.86537e-05
9.16012e-06
0.00180233
0.00189995
4.58893e-06
0.00140464
6.60299e-06
0.00107709
3.64385e-06
0.000911952
5.43744e-06
0.000844876
3.66881e-06
0.000817863
5.03495e-06
0.000812823
3.77517e-06
0.00080936
4.69564e-06
0.000809628
3.82054e-06
0.000805482
4.41833e-06
0.000802224
3.84511e-06
0.000795148
4.20028e-06
0.000788424
3.85407e-06
0.0007788
4.02487e-06
0.000769682
3.85231e-06
0.000756732
3.8762e-06
0.000753284
3.85142e-06
0.000721522
3.73855e-06
0.000813054
3.75832e-06
3.83428e-06
0.000871333
0.00214157
0.000168784
6.08442e-12
0.0019219
0.000243693
4.28163e-12
0.00168937
0.000251337
1.2523e-12
0.0015088
0.000199788
-2.55826e-12
0.00140043
0.000124383
-9.44986e-12
0.00135531
6.08532e-05
-1.68841e-11
0.00134493
2.33092e-05
-2.45743e-11
0.00134978
7.63935e-06
-3.20159e-11
0.00135687
3.22414e-06
-3.92038e-11
0.00136351
2.91303e-06
-4.66807e-11
0.0013678
3.275e-06
-5.35876e-11
0.00137055
3.69422e-06
-6.0581e-11
0.00137174
3.5351e-06
-6.63195e-11
0.00137058
4.7084e-06
-7.24912e-11
0.00137135
1.55625e-06
-7.68191e-11
0.00136298
9.70952e-06
-8.11971e-11
0.00136971
-6.06134e-06
-8.3407e-11
0.00134553
2.4239e-05
-8.59133e-11
0.00136411
-1.87329e-05
-8.65885e-11
5.03492e-05
-8.74756e-11
0.00131379
0.00236356
0.000121007
5.68844e-12
0.00242979
0.00020713
4.19965e-12
0.00245517
0.000250698
9.12314e-13
0.00245306
0.000226451
-3.75324e-12
0.00244089
0.000158594
-1.07989e-11
0.00243426
8.90961e-05
-1.7255e-11
0.0024339
4.23769e-05
-2.35587e-11
0.00243975
1.91303e-05
-3.02806e-11
0.002448
9.99898e-06
-3.79487e-11
0.00245797
6.99421e-06
-4.64599e-11
0.00246765
6.07975e-06
-5.40375e-11
0.0024768
5.97266e-06
-6.13539e-11
0.00248521
5.16397e-06
-6.70721e-11
0.00249124
7.48248e-06
-7.29274e-11
0.00249908
1.42224e-06
-7.73197e-11
0.00250005
1.53745e-05
-8.14381e-11
0.0025099
-9.88059e-06
-8.3638e-11
0.00250339
3.60905e-05
-8.62054e-11
0.00251273
-2.27707e-05
-8.68324e-11
8.90222e-05
-8.76715e-11
0.00247939
0.00235097
8.16619e-05
5.45919e-12
0.00243947
0.000144261
4.16633e-12
0.00252603
0.000184468
9.12166e-13
0.00259771
0.000175269
-4.11259e-12
0.00264366
0.000130521
-1.17963e-11
0.00267085
7.98088e-05
-1.78331e-11
0.00268573
4.22704e-05
-2.28894e-11
0.00269714
2.10638e-05
-2.8559e-11
0.00270729
1.0479e-05
-3.65068e-11
0.00271815
5.81973e-06
-4.60397e-11
0.00272865
3.63931e-06
-5.4421e-11
0.0027386
3.28108e-06
-6.21379e-11
0.00274776
1.88891e-06
-6.77713e-11
0.00275517
4.91189e-06
-7.33601e-11
0.00276242
-2.13763e-06
-7.74071e-11
0.00276773
1.27801e-05
-8.14072e-11
0.00277286
-1.29592e-05
-8.36504e-11
0.00277919
3.12282e-05
-8.61217e-11
0.00277998
-2.2338e-05
-8.66989e-11
7.58572e-05
-8.75778e-11
0.00279454
0.0023412
5.51259e-05
5.42348e-12
0.00241911
9.4955e-05
3.9675e-12
0.00250625
0.000121014
6.28777e-13
0.0025885
0.000116586
-4.17612e-12
0.00265066
8.95442e-05
-1.13553e-11
0.00269413
5.73123e-05
-1.74532e-11
0.00272194
3.24442e-05
-2.31764e-11
0.00274173
1.75843e-05
-2.9296e-11
0.00275614
9.71705e-06
-3.72597e-11
0.00276859
5.90191e-06
-4.62637e-11
0.00277927
3.97242e-06
-5.42569e-11
0.00278922
3.47402e-06
-6.18293e-11
0.00279773
2.2541e-06
-6.75596e-11
0.0028059
4.52149e-06
-7.33466e-11
0.00281131
-8.50657e-07
-7.7366e-11
0.00281954
1.02325e-05
-8.15851e-11
0.00282012
-8.48881e-06
-8.38578e-11
0.00283215
2.36182e-05
-8.62831e-11
0.00282679
-1.26148e-05
-8.69766e-11
5.69343e-05
-8.77848e-11
0.00285014
0.00234185
2.59437e-05
5.42163e-12
0.00241751
4.59398e-05
4.07969e-12
0.00250072
5.93991e-05
7.00525e-13
0.00258149
5.74172e-05
-3.7317e-12
0.00264567
4.4476e-05
-1.05902e-11
0.00269302
2.89743e-05
-1.68679e-11
0.00272464
1.67725e-05
-2.33619e-11
0.00274733
9.25611e-06
-3.00282e-11
0.00276368
4.99784e-06
-3.78971e-11
0.00277732
2.81373e-06
-4.63204e-11
0.00278867
1.61109e-06
-5.38529e-11
0.00279901
1.31524e-06
-6.12159e-11
0.00280758
5.65096e-07
-6.6856e-11
0.00281606
1.88342e-06
-7.29673e-11
0.00282104
-1.10838e-06
-7.7087e-11
0.00283007
4.9569e-06
-8.14596e-11
0.00282973
-5.05782e-06
-8.37233e-11
0.002844
1.18471e-05
-8.61962e-11
0.0028403
-6.59588e-06
-8.69742e-11
2.8158e-05
-8.77254e-11
0.0028715
0.00233958
1.39993e-09
5.32709e-12
0.00241312
9.69342e-10
3.98372e-12
0.00249519
7.7072e-10
6.94292e-13
0.0025752
6.96628e-10
-3.61916e-12
0.00263985
3.83203e-10
-1.01497e-11
0.00268882
-6.15613e-11
-1.65074e-11
0.00272258
-5.76514e-10
-2.34667e-11
0.00274718
-2.9577e-10
-3.06671e-11
0.00276482
-1.39963e-09
-3.85433e-11
0.00277916
2.54332e-09
-4.65786e-11
0.00279077
-4.09315e-09
-5.37908e-11
0.00280122
1.46963e-08
-6.10221e-11
0.00280968
-1.56918e-08
-6.67573e-11
0.00281832
5.6339e-08
-7.29429e-11
0.00282297
-3.96902e-08
-7.71471e-11
0.00283248
1.81485e-07
-8.15909e-11
0.00283153
-3.62013e-08
-8.3944e-11
0.00284636
4.93465e-07
-8.65064e-11
0.00284282
3.14592e-07
-8.73444e-11
1.23953e-06
-8.8062e-11
0.00287316
0.00233958
-2.5941e-05
5.29311e-12
0.00241312
-4.59379e-05
4.02541e-12
0.00249519
-5.93977e-05
8.2037e-13
0.0025752
-5.74158e-05
-3.39122e-12
0.00263985
-4.44752e-05
-9.85277e-12
0.00268882
-2.89743e-05
-1.60842e-11
0.00272258
-1.67737e-05
-2.32237e-11
0.00274718
-9.25651e-06
-3.07838e-11
0.00276482
-5.00088e-06
-3.86738e-11
0.00277916
-2.80817e-06
-4.66859e-11
0.00279077
-1.62015e-06
-5.38605e-11
0.00280122
-1.28481e-06
-6.10763e-11
0.00280968
-5.98301e-07
-6.68062e-11
0.00281832
-1.76936e-06
-7.29108e-11
0.00282297
1.0248e-06
-7.70017e-11
0.00283248
-4.59554e-06
-8.15259e-11
0.00283155
4.9735e-06
-8.39163e-11
0.0028464
-1.08795e-05
-8.6469e-11
0.0028429
7.18724e-06
-8.73455e-11
-2.57349e-05
-8.79817e-11
0.00287328
0.00234185
-5.51235e-05
5.18763e-12
0.00241751
-9.49534e-05
3.94317e-12
0.00250072
-0.000121013
8.12041e-13
0.00258149
-0.000116585
-3.27838e-12
0.00264567
-8.95434e-05
-9.40881e-12
0.00269302
-5.73123e-05
-1.57282e-11
0.00272464
-3.24451e-05
-2.33484e-11
0.00274733
-1.75849e-05
-3.14229e-11
0.00276367
-9.71944e-06
-3.93237e-11
0.00277732
-5.8974e-06
-4.69189e-11
0.00278867
-3.97976e-06
-5.37271e-11
0.00279901
-3.44724e-06
-6.08736e-11
0.00280758
-2.28355e-06
-6.66701e-11
0.00281606
-4.41591e-06
-7.28765e-11
0.00282104
7.70943e-07
-7.70314e-11
0.00283009
-9.88715e-06
-8.16383e-11
0.00282976
8.39518e-06
-8.4153e-11
0.00284405
-2.26703e-05
-8.6791e-11
0.00284043
1.31322e-05
-8.76825e-11
-5.44997e-05
-8.82902e-11
0.00287161
0.0023412
-8.16599e-05
5.24332e-12
0.00241911
-0.00014426
3.98845e-12
0.00250625
-0.000184467
9.07807e-13
0.0025885
-0.000175268
-2.79079e-12
0.00265066
-0.00013052
-8.60761e-12
0.00269413
-7.98086e-05
-1.51954e-11
0.00272194
-4.22711e-05
-2.36571e-11
0.00274173
-2.10641e-05
-3.22433e-11
0.00275614
-1.04812e-05
-3.99547e-11
0.00276859
-5.81566e-06
-4.68807e-11
0.00277927
-3.64635e-06
-5.32464e-11
0.00278922
-3.25676e-06
-6.02041e-11
0.00279773
-1.91731e-06
-6.59822e-11
0.00280591
-4.81486e-06
-7.24835e-11
0.00281131
2.05772e-06
-7.6787e-11
0.00281958
-1.24607e-05
-8.14937e-11
0.00282018
1.28425e-05
-8.41083e-11
0.00283228
-3.03492e-05
-8.67354e-11
0.00282707
2.27123e-05
-8.76294e-11
-7.3566e-05
-8.81765e-11
0.00285054
0.00235097
-0.000121005
5.20359e-12
0.00243947
-0.000207129
3.79334e-12
0.00252603
-0.000250698
6.45317e-13
0.00259771
-0.00022645
-2.77249e-12
0.00264366
-0.000158593
-8.11011e-12
0.00267085
-8.90956e-05
-1.49161e-11
0.00268573
-4.2377e-05
-2.41416e-11
0.00269714
-1.91306e-05
-3.30872e-11
0.00270729
-1.00001e-05
-4.06412e-11
0.00271815
-6.99199e-06
-4.69293e-11
0.00272865
-6.08382e-06
-5.28785e-11
0.00273861
-5.95625e-06
-5.98284e-11
0.00274776
-5.18298e-06
-6.57825e-11
0.00275519
-7.4096e-06
-7.24347e-11
0.00276242
-1.48412e-06
-7.68239e-11
0.0027678
-1.51163e-05
-8.16297e-11
0.00277292
9.77334e-06
-8.43369e-11
0.00277937
-3.53374e-05
-8.70023e-11
0.00278032
2.30094e-05
-8.792e-11
-8.69327e-05
-8.84122e-11
0.00279505
0.00236356
-0.000168784
5.1506e-12
0.00242979
-0.000243693
3.76346e-12
0.00245516
-0.000251337
7.15449e-13
0.00245306
-0.000199788
-3.09091e-12
0.00244089
-0.000124383
-9.00815e-12
0.00243426
-6.08529e-05
-1.55133e-11
0.0024339
-2.33092e-05
-2.36232e-11
0.00243975
-7.63948e-06
-3.14837e-11
0.002448
-3.22447e-06
-3.91389e-11
0.00245797
-2.91226e-06
-4.62924e-11
0.00246765
-3.27619e-06
-5.30932e-11
0.00247682
-3.68716e-06
-6.05031e-11
0.0024852
-3.54264e-06
-6.65291e-11
0.00249128
-4.6714e-06
-7.28323e-11
0.00249907
-1.59001e-06
-7.69681e-11
0.00250017
-9.56083e-06
-8.16316e-11
0.00250998
5.98492e-06
-8.43087e-11
0.00250376
-2.37723e-05
-8.69512e-11
0.00251327
1.88118e-05
-8.78865e-11
-4.90992e-05
-8.83214e-11
0.00248076
0.00214157
4.78202e-12
0.0019219
3.72223e-12
0.00168937
3.79995e-13
0.0015088
-4.40029e-12
0.00140043
-1.02143e-11
0.00135531
-1.55836e-11
0.00134493
-2.25084e-11
0.00134978
-2.99437e-11
0.00135687
-3.81679e-11
0.00136351
-4.62011e-11
0.0013678
-5.35296e-11
0.00137056
-6.12138e-11
0.00137173
-6.71525e-11
0.00137064
-7.33049e-11
0.00137134
-7.72767e-11
0.00136314
-8.19005e-11
0.00136978
-8.45784e-11
0.00134607
-8.72093e-11
0.00136475
-8.81469e-11
-8.85794e-11
0.00131565
0.00214157
0.000168784
-4.5889e-06
0.0019219
0.000243693
-6.60297e-06
0.00168937
0.000251337
-3.64383e-06
0.0015088
0.000199788
-5.43743e-06
0.00140043
0.000124383
-3.66881e-06
0.00135531
6.0853e-05
-5.03496e-06
0.00134493
2.33092e-05
-3.77519e-06
0.00134978
7.63953e-06
-4.69567e-06
0.00135687
3.22442e-06
-3.82058e-06
0.00136351
2.91329e-06
-4.4184e-06
0.0013678
3.27516e-06
-3.84515e-06
0.00137055
3.6943e-06
-4.20044e-06
0.00137174
3.53508e-06
-3.85405e-06
0.00137058
4.70838e-06
-4.02524e-06
0.00137135
1.55619e-06
-3.85222e-06
0.00136298
9.70948e-06
-3.8767e-06
0.00136971
-6.06138e-06
-3.85139e-06
0.00134553
2.42389e-05
-3.73919e-06
0.00136411
-1.87329e-05
-3.75742e-06
5.03492e-05
-3.83537e-06
0.00131379
0.00236356
0.000121007
-9.9968e-06
0.00242979
0.00020713
-1.18983e-05
0.00245517
0.000250699
-9.37941e-06
0.00245306
0.000226451
-1.07287e-05
0.00244089
0.000158593
-9.25855e-06
0.00243426
8.9096e-05
-1.02542e-05
0.0024339
4.2377e-05
-9.29173e-06
0.00243974
1.91306e-05
-9.93195e-06
0.002448
9.99941e-06
-9.31628e-06
0.00245797
6.99455e-06
-9.69081e-06
0.00246765
6.07992e-06
-9.31792e-06
0.0024768
5.9727e-06
-9.49146e-06
0.00248521
5.16393e-06
-9.29533e-06
0.00249124
7.48242e-06
-9.32306e-06
0.00249908
1.42218e-06
-9.26041e-06
0.00250005
1.53745e-05
-9.17222e-06
0.0025099
-9.88062e-06
-9.22721e-06
0.00250339
3.60905e-05
-9.02483e-06
0.00251273
-2.27707e-05
-9.20862e-06
8.90222e-05
-9.15799e-06
0.00247939
0.00235097
8.16619e-05
-5.83204e-06
0.00243947
0.000144261
-7.8244e-06
0.00252603
0.000184468
-5.01173e-06
0.00259771
0.000175269
-6.7223e-06
0.00264366
0.000130521
-4.99096e-06
0.00267085
7.98089e-05
-6.28742e-06
0.00268573
4.22708e-05
-5.15081e-06
0.00269714
2.10643e-05
-5.99796e-06
0.00270729
1.04794e-05
-5.24006e-06
0.00271815
5.81979e-06
-5.75543e-06
0.00272865
3.63915e-06
-5.27483e-06
0.0027386
3.2808e-06
-5.5552e-06
0.00274776
1.88869e-06
-5.28216e-06
0.00275517
4.9117e-06
-5.38993e-06
0.00276242
-2.13774e-06
-5.27267e-06
0.00276773
1.278e-05
-5.2487e-06
0.00277286
-1.29593e-05
-5.25242e-06
0.00277919
3.12282e-05
-5.13728e-06
0.00277998
-2.2338e-05
-5.13252e-06
7.58572e-05
-5.19981e-06
0.00279454
0.0023412
5.51259e-05
-8.87438e-06
0.00241911
9.49553e-05
-1.08118e-05
0.00250625
0.000121014
-8.39498e-06
0.0025885
0.000116586
-9.80368e-06
0.00265066
8.95442e-05
-8.28481e-06
0.00269413
5.73126e-05
-9.30291e-06
0.00272194
3.24448e-05
-8.3131e-06
0.00274173
1.75849e-05
-8.97161e-06
0.00275614
9.71735e-06
-8.3345e-06
0.00276859
5.90175e-06
-8.72182e-06
0.00277927
3.97196e-06
-8.33673e-06
0.00278922
3.47347e-06
-8.52384e-06
0.00279773
2.25369e-06
-8.32108e-06
0.0028059
4.52119e-06
-8.35995e-06
0.00281131
-8.50811e-07
-8.29201e-06
0.00281954
1.02324e-05
-8.21503e-06
0.00282012
-8.48885e-06
-8.26003e-06
0.00283215
2.36182e-05
-8.09625e-06
0.00282679
-1.26148e-05
-8.26692e-06
5.69343e-05
-8.24242e-06
0.00285014
0.00234185
2.59437e-05
-6.87517e-06
0.00241751
4.59401e-05
-8.85247e-06
0.00250072
5.93995e-05
-6.31304e-06
0.00258149
5.74173e-05
-7.83975e-06
0.00264567
4.44761e-05
-6.20024e-06
0.00269302
2.89747e-05
-7.33931e-06
0.00272464
1.67732e-05
-6.27561e-06
0.00274733
9.25678e-06
-7.02472e-06
0.00276367
4.9981e-06
-6.32717e-06
0.00277732
2.81345e-06
-6.77591e-06
0.00278867
1.61048e-06
-6.34339e-06
0.00279901
1.31457e-06
-6.57824e-06
0.00280758
5.64591e-07
-6.34212e-06
0.00281606
1.88307e-06
-6.41693e-06
0.00282103
-1.10856e-06
-6.32479e-06
0.00283007
4.95682e-06
-6.27866e-06
0.00282973
-5.05786e-06
-6.29585e-06
0.002844
1.18472e-05
-6.17934e-06
0.0028403
-6.59588e-06
-6.21932e-06
2.81581e-05
-6.24756e-06
0.0028715
0.00233958
1.40552e-09
-7.8518e-06
0.00241312
1.28725e-09
-9.81074e-06
0.00249519
1.06721e-09
-7.37948e-06
0.0025752
7.99575e-10
-8.83687e-06
0.00263985
4.7531e-10
-7.26488e-06
0.00268882
3.40814e-10
-8.33056e-06
0.00272258
1.41762e-10
-7.31141e-06
0.00274718
3.85766e-10
-8.00639e-06
0.00276482
-1.1644e-09
-7.34431e-06
0.00277916
2.24052e-09
-7.75517e-06
0.00279077
-4.727e-09
-7.35079e-06
0.00280122
1.40121e-08
-7.55746e-06
0.00280968
-1.62044e-08
-7.34198e-06
0.00281832
5.60007e-08
-7.396e-06
0.00282297
-3.98635e-08
-7.31882e-06
0.00283248
1.81415e-07
-7.25553e-06
0.00283153
-3.62274e-08
-7.28759e-06
0.00284636
4.93486e-07
-7.15242e-06
0.00284282
3.14599e-07
-7.26473e-06
1.23957e-06
-7.24909e-06
0.00287316
0.00233958
-2.5941e-05
-7.8518e-06
0.00241312
-4.59376e-05
-9.81074e-06
0.00249519
-5.93974e-05
-7.37948e-06
0.0025752
-5.74157e-05
-8.83687e-06