/*--------------------------------*- C++ -*----------------------------------*\
  =========                 |
  \\      /  F ield         | OpenFOAM: The Open Source CFD Toolbox
   \\    /   O peration     | Website:  https://openfoam.org
    \\  /    A nd           | Version:  7
     \\/     M anipulation  |
\*---------------------------------------------------------------------------*/
FoamFile
{
    version     2.0;
    format      ascii;
    class       surfaceScalarField;
    location    "2.0125";
    object      phi;
}
// * * * * * * * * * * * * * * * * * * * * * * * * * * * * * * * * * * * * * //

dimensions      [1 0 -1 0 0 0 0];

internalField   nonuniform List<scalar> 
21708
(
0.00129458
0.00100221
1.37189e-05
0.000897917
0.000390991
6.31299e-06
0.000689196
0.000197571
1.17861e-05
0.000599857
8.31436e-05
6.82183e-06
0.000548004
4.15489e-05
1.09236e-05
0.000517497
2.4091e-05
7.02813e-06
0.00049437
1.35122e-05
1.02226e-05
0.000478211
9.59714e-06
7.16734e-06
0.000463938
5.21892e-06
9.66003e-06
0.000453415
3.88277e-06
7.24815e-06
0.000443418
1.43039e-06
9.1773e-06
0.000435952
8.1146e-07
7.26849e-06
0.000428534
-7.11121e-07
8.74652e-06
0.000422984
-1.06678e-06
7.23743e-06
0.000417245
-1.98814e-06
8.35037e-06
0.00041271
-2.00568e-06
7.16543e-06
0.000406701
-1.34167e-06
7.97492e-06
0.000403134
-2.86938e-06
7.06041e-06
0.000351233
4.48012e-05
7.72237e-06
2.51958e-05
6.62039e-06
0.000320039
0.00224802
0.00106135
2.97832e-06
0.00205911
0.000584346
-3.80502e-06
0.00185572
0.000399828
1.76698e-06
0.00171403
0.000228504
-3.06138e-06
0.00161193
0.000143115
1.12609e-06
0.00154236
9.69579e-05
-2.72765e-06
0.00148742
6.84951e-05
5.0225e-07
0.00144747
5.26239e-05
-2.54233e-06
0.00141216
4.10922e-05
-3.32053e-08
0.00138553
3.34954e-05
-2.4429e-06
0.00136037
2.76263e-05
-5.03973e-07
0.00134117
2.29832e-05
-2.41339e-06
0.00132229
1.96615e-05
-9.29012e-07
0.00130778
1.64612e-05
-2.43882e-06
0.00129356
1.41436e-05
-1.3233e-06
0.00128125
1.34007e-05
-2.50563e-06
0.00127415
8.07705e-06
-1.7141e-06
0.00125882
1.56621e-05
-2.59678e-06
0.00129992
6.50384e-06
-2.20283e-06
-2.11883e-05
-3.15316e-06
0.00135005
0.00257382
0.000788147
9.70274e-06
0.00266589
0.000489525
3.39636e-06
0.00265976
0.000397993
8.59889e-06
0.00262464
0.000260584
3.66466e-06
0.00257669
0.000183881
7.77212e-06
0.00253381
0.000136529
3.87203e-06
0.00249149
0.000104266
7.06576e-06
0.00245669
8.39276e-05
4.00097e-06
0.00242333
6.84404e-05
6.49154e-06
0.00239624
5.69813e-05
4.07337e-06
0.00237012
4.82204e-05
6.00164e-06
0.00234895
4.05421e-05
4.08876e-06
0.00232823
3.53061e-05
5.56647e-06
0.00231168
2.94747e-05
4.05438e-06
0.00229448
2.67216e-05
5.16789e-06
0.00228241
2.20549e-05
3.9788e-06
0.00226455
2.17351e-05
4.7979e-06
0.00225797
1.8987e-05
3.85733e-06
0.00222839
3.21095e-05
4.58556e-06
2.2453e-05
3.4942e-06
0.00218187
0.0025804
0.000513599
4.29663e-06
0.00274209
0.000330215
-1.74224e-06
0.00284875
0.000288558
3.41212e-06
0.00291118
0.000200247
-1.46587e-06
0.00294235
0.000150634
2.68136e-06
0.00296179
0.000118837
-1.18132e-06
0.00296844
9.6101e-05
2.04729e-06
0.00297259
8.12723e-05
-9.98515e-07
0.00297069
6.92921e-05
1.51054e-06
0.00296898
6.00444e-05
-8.97543e-07
0.00296408
5.25289e-05
1.04141e-06
0.00296008
4.58544e-05
-8.6554e-07
0.00295448
4.07297e-05
6.18622e-07
0.00294954
3.57821e-05
-8.89108e-07
0.00294478
3.17471e-05
2.26195e-07
0.00293889
2.94383e-05
-9.56945e-07
0.00293771
2.36374e-05
-1.61969e-07
0.00293088
2.74879e-05
-1.07246e-06
0.00294543
1.88289e-05
-6.65541e-07
9.34138e-06
-1.54229e-06
0.00296073
0.00256923
0.000246981
7.62787e-06
0.0027384
0.000159886
1.80015e-06
0.00287409
0.000146694
6.81312e-06
0.00296871
0.00010433
1.92441e-06
0.00303331
8.05957e-05
6.04497e-06
0.00308547
6.50754e-05
2.16682e-06
0.00312291
5.38183e-05
5.38006e-06
0.00315587
4.64781e-05
2.32425e-06
0.00318046
4.0357e-05
4.82368e-06
0.00320297
3.55788e-05
2.41041e-06
0.00322003
3.15605e-05
4.34316e-06
0.00323598
2.79099e-05
2.43353e-06
0.00324815
2.50711e-05
3.91343e-06
0.00325984
2.21344e-05
2.40374e-06
0.00326844
2.00952e-05
3.51757e-06
0.00327798
1.80747e-05
2.32978e-06
0.00328266
1.63445e-05
3.14549e-06
0.00329194
1.65858e-05
2.19873e-06
0.00329187
1.66433e-05
2.85974e-06
1.7026e-05
1.85409e-06
0.00328297
0.00255128
-4.22795e-11
5.89581e-06
0.00271165
9.39334e-11
1.54141e-07
0.00285383
-1.22832e-10
5.14651e-06
0.00295853
3.62173e-10
2.60042e-07
0.00303535
-7.44921e-11
4.38009e-06
0.00310049
1.13337e-09
5.05492e-07
0.00315111
5.5568e-10
3.72499e-06
0.00319741
3.0451e-09
6.71992e-07
0.00323506
3.59931e-09
3.1754e-06
0.00327033
7.45974e-09
7.63938e-07
0.00329961
1.43297e-08
2.6992e-06
0.00332714
2.03956e-08
7.90917e-07
0.00335033
4.11633e-08
2.27242e-06
0.00337206
7.41259e-08
7.64107e-07
0.00339064
8.254e-08
1.87792e-06
0.00340823
2.84834e-07
6.92517e-07
0.00342347
1.26697e-07
1.49638e-06
0.00343919
8.69039e-07
5.61962e-07
0.00345489
4.53343e-07
1.08255e-06
1.62979e-06
1.76546e-07
0.00347074
0.00255128
-0.000246982
5.89581e-06
0.00271165
-0.000159886
1.54141e-07
0.00285383
-0.000146695
5.14651e-06
0.00295853
-0.00010433
2.60041e-07
0.00303535
-8.05957e-05
4.3801e-06
0.00310049
-6.50733e-05
5.05487e-07
0.00315111
-5.3817e-05
3.725e-06
0.00319741
-4.64726e-05
6.71979e-07
0.00323506
-4.03494e-05
3.17541e-06
0.00327033
-3.55657e-05
7.63902e-07
0.00329961
-3.15307e-05
2.69923e-06
0.00332715
-2.78745e-05
7.90817e-07
0.00335033
-2.49851e-05
2.27252e-06
0.00337207
-2.20014e-05
7.63826e-07
0.00339065
-1.99196e-05
1.87824e-06
0.00340827
-1.75364e-05
6.91766e-07
0.00342348
-1.60661e-05
1.49781e-06
0.00343922
-1.48652e-05
5.60453e-07
0.00345489
-1.57049e-05
1.08973e-06
-1.35988e-05
1.74896e-07
0.00347057
0.00256923
-0.000513599
7.62787e-06
0.0027384
-0.000330215
1.80016e-06
0.00287409
-0.000288559
6.81312e-06
0.00296871
-0.000200246
1.92441e-06
0.00303331
-0.000150634
6.04496e-06
0.00308547
-0.000118835
2.16682e-06
0.00312291
-9.60999e-05
5.38006e-06
0.00315588
-8.12669e-05
2.32426e-06
0.00318046
-6.92856e-05
4.82367e-06
0.00320297
-6.00314e-05
2.41044e-06
0.00322004
-5.25033e-05
4.34313e-06
0.00323598
-4.58193e-05
2.43361e-06
0.00324817
-4.06569e-05
3.91334e-06
0.00325987
-3.56537e-05
2.404e-06
0.0032685
-3.16068e-05
3.51722e-06
0.00327807
-2.89339e-05
2.33049e-06
0.00328285
-2.34559e-05
3.14409e-06
0.00329228
-2.59158e-05
2.19997e-06
0.00329251
-1.81821e-05
2.85347e-06
-6.5842e-06
1.8546e-06
0.00328428
0.0025804
-0.000788147
4.29663e-06
0.00274209
-0.000489525
-1.74224e-06
0.00284875
-0.000397994
3.41212e-06
0.00291118
-0.000260584
-1.46587e-06
0.00294235
-0.000183881
2.68136e-06
0.00296179
-0.000136528
-1.18132e-06
0.00296844
-0.000104265
2.0473e-06
0.00297259
-8.3924e-05
-9.98525e-07
0.0029707
-6.84342e-05
1.51056e-06
0.00296899
-5.69728e-05
-8.97572e-07
0.00296409
-4.81972e-05
1.04146e-06
0.0029601
-4.05198e-05
-8.6562e-07
0.00295451
-3.52406e-05
6.18742e-07
0.00294961
-2.93868e-05
-8.89304e-07
0.00294486
-2.65938e-05
2.26524e-07
0.00293909
-2.16739e-05
-9.57443e-07
0.00293793
-2.15704e-05
-1.60598e-07
0.00293137
-1.76922e-05
-1.07366e-06
0.00294604
-3.15702e-05
-6.58543e-07
-2.00089e-05
-1.54337e-06
0.00296164
0.00257382
-0.00106135
9.70274e-06
0.00266589
-0.000584346
3.39636e-06
0.00265976
-0.000399828
8.59889e-06
0.00262464
-0.000228503
3.66466e-06
0.00257669
-0.000143115
7.77212e-06
0.00253381
-9.69571e-05
3.87204e-06
0.00249149
-6.84943e-05
7.06575e-06
0.00245669
-5.26218e-05
4.00098e-06
0.00242333
-4.10884e-05
6.49154e-06
0.00239625
-3.34904e-05
4.07339e-06
0.00237013
-2.7612e-05
6.00162e-06
0.00234897
-2.29702e-05
4.08881e-06
0.00232828
-1.96215e-05
5.56639e-06
0.00231177
-1.64082e-05
4.05457e-06
0.00229463
-1.4073e-05
5.16759e-06
0.0022827
-1.31631e-05
3.97935e-06
0.00226496
-8.0391e-06
4.79687e-06
0.00225885
-1.48328e-05
3.85815e-06
0.00222978
-6.47244e-06
4.5815e-06
2.21915e-05
3.49321e-06
0.0021847
0.00224802
-0.00100221
2.97832e-06
0.00205911
-0.000390991
-3.80502e-06
0.00185572
-0.000197571
1.76698e-06
0.00171404
-8.31436e-05
-3.06139e-06
0.00161193
-4.15489e-05
1.12609e-06
0.00154236
-2.40909e-05
-2.72765e-06
0.00148742
-1.3512e-05
5.02255e-07
0.00144747
-9.59665e-06
-2.54234e-06
0.00141217
-5.21751e-06
-3.319e-08
0.00138554
-3.88164e-06
-2.44291e-06
0.00136039
-1.42499e-06
-5.03934e-07
0.0013412
-8.08737e-07
-2.41344e-06
0.00132234
7.26658e-07
-9.28913e-07
0.00130787
1.07972e-06
-2.43894e-06
0.00129369
2.01981e-06
-1.32305e-06
0.00128155
2.07398e-06
-2.50597e-06
0.00127444
1.39073e-06
-1.71306e-06
0.00125968
3.12978e-06
-2.59797e-06
0.00130043
-4.44281e-05
-2.19716e-06
-2.46056e-05
-3.15591e-06
0.00135097
0.00129458
1.37189e-05
0.000897917
6.31296e-06
0.000689196
1.17861e-05
0.000599858
6.8218e-06
0.000548004
1.09236e-05
0.000517497
7.0281e-06
0.000494371
1.02225e-05
0.000478213
7.16732e-06
0.000463941
9.65999e-06
0.000453419
7.24813e-06
0.000443428
9.17726e-06
0.000435964
7.26851e-06
0.000428562
8.74643e-06
0.000423025
7.23757e-06
0.000417318
8.35013e-06
0.000412851
7.16589e-06
0.000406892
7.97428e-06
0.000403584
7.06132e-06
0.000352059
7.72062e-06
6.62188e-06
0.00032145
0.00189945
0.000420778
3.21257e-06
0.00138502
0.000516354
5.03255e-06
0.00104318
0.000351933
2.31891e-06
0.000863337
0.000183446
3.83721e-06
0.000775284
9.72461e-05
2.33378e-06
0.000722051
5.73506e-05
3.50306e-06
0.000688948
4.14355e-05
2.47711e-06
0.000660164
3.32859e-05
3.24972e-06
0.000639913
2.7954e-05
2.54361e-06
0.000620437
2.42934e-05
3.02014e-06
0.000606483
2.11549e-05
2.57083e-06
0.000592469
1.90349e-05
2.84774e-06
0.00058202
1.72058e-05
2.59545e-06
0.000571495
1.56356e-05
2.73599e-06
0.000562856
1.49676e-05
2.63445e-06
0.000554775
1.3187e-05
2.67323e-06
0.000551074
9.58713e-06
2.70119e-06
0.000533819
2.22819e-05
2.64308e-06
0.000635982
-9.65806e-05
2.74658e-06
-7.84524e-05
2.87084e-06
0.000718792
0.00240471
0.000320526
8.48289e-06
0.00234645
0.000561095
1.03611e-05
0.00222607
0.000466855
7.85805e-06
0.00209277
0.000305095
9.19726e-06
0.00198481
0.000199139
7.78187e-06
0.00189551
0.000135655
8.81726e-06
0.00182863
0.000101431
7.91444e-06
0.00177126
8.00597e-05
8.57095e-06
0.00172721
6.4495e-05
7.97682e-06
0.00168739
5.38163e-05
8.35657e-06
0.00165601
4.45483e-05
7.99698e-06
0.00162667
3.82986e-05
8.19092e-06
0.00160275
3.27366e-05
8.0119e-06
0.0015803
2.81306e-05
8.07825e-06
0.00156039
2.60987e-05
8.03927e-06
0.00154413
1.95284e-05
8.00949e-06
0.00152295
2.15541e-05
8.09671e-06
0.00152075
1.45179e-05
7.96683e-06
0.00143839
-2.4045e-05
8.22279e-06
4.88914e-06
8.23112e-06
0.00134425
0.00242809
0.000207683
4.22255e-06
0.00255881
0.00042814
6.26829e-06
0.00262419
0.000407307
3.39941e-06
0.00262615
0.000302252
5.17173e-06
0.00260727
0.000222974
3.40672e-06
0.00257518
0.000167365
4.81069e-06
0.00254632
0.000134206
3.66673e-06
0.00251527
0.000111013
4.58973e-06
0.00248939
9.3514e-05
3.82061e-06
0.00246282
8.05344e-05
4.3874e-06
0.0024407
6.92346e-05
3.897e-06
0.00241828
6.10571e-05
4.22619e-06
0.00239958
5.35383e-05
3.95115e-06
0.00238031
4.78562e-05
4.11682e-06
0.00236517
4.29533e-05
4.00846e-06
0.00234671
3.84915e-05
4.05462e-06
0.00233868
3.08991e-05
4.07955e-06
0.00231736
3.62701e-05
4.03854e-06
0.00232762
-3.31791e-05
4.08004e-06
-1.35499e-05
4.21591e-06
0.00234597
0.00238018
0.000134354
7.35295e-06
0.00252402
0.00027392
9.27045e-06
0.00265993
0.000268582
6.86813e-06
0.00274272
0.000210348
8.27244e-06
0.00279873
0.000163436
6.80365e-06
0.0028288
0.00012882
7.85683e-06
0.00285104
0.000107614
6.92311e-06
0.00286192
9.20137e-05
7.60303e-06
0.00287075
7.96774e-05
6.99302e-06
0.00287339
7.00487e-05
7.39167e-06
0.00287578
6.13109e-05
7.02e-06
0.00287453
5.46552e-05
7.22729e-06
0.00287364
4.84679e-05
7.03836e-06
0.00287065
4.33246e-05
7.11441e-06
0.00286769
3.95742e-05
7.06734e-06
0.00286453
3.41998e-05
7.04738e-06
0.00285718
3.15456e-05
7.12356e-06
0.00285681
2.91563e-05
7.02579e-06
0.00281763
-1.3033e-06
7.26231e-06
2.39438e-05
7.26661e-06
0.00277199
0.00238226
6.42043e-05
5.32111e-06
0.00251651
0.000134806
7.30436e-06
0.00265259
0.000135201
4.74913e-06
0.00275102
0.000108163
6.30261e-06
0.0028299
8.65089e-05
4.68682e-06
0.00288558
6.99928e-05
5.87518e-06
0.0029343
5.99548e-05
4.84582e-06
0.00297111
5.2388e-05
5.63002e-06
0.00300472
4.64148e-05
4.9513e-06
0.00303058
4.1622e-05
5.42638e-06
0.00305447
3.71991e-05
5.00296e-06
0.00307296
3.37685e-05
5.26662e-06
0.00309034
3.04012e-05
5.03917e-06
0.00310354
2.78305e-05
5.15745e-06
0.00311683
2.52037e-05
5.08179e-06
0.00312541
2.33777e-05
5.09543e-06
0.00313629
1.92315e-05
5.14041e-06
0.00314172
2.14411e-05
5.08823e-06
0.00314171
-2.98575e-06
5.17421e-06
7.92299e-06
5.27408e-06
0.00315497
0.00237363
-6.31867e-11
6.32069e-06
0.00250096
1.86087e-10
8.26704e-06
0.0026361
-2.60741e-11
5.84309e-06
0.00273784
5.03518e-10
7.30461e-06
0.00282356
1.36551e-10
5.77348e-06
0.00288774
1.32117e-09
6.87284e-06
0.00294604
1.04702e-09
5.90078e-06
0.00299297
3.42494e-09
6.62111e-06
0.00303704
4.40484e-09
5.98635e-06
0.00307346
9.28589e-09
6.41566e-06
0.00310776
1.44066e-08
6.02541e-06
0.00313646
2.77684e-08
6.25509e-06
0.00316348
4.06002e-08
6.05193e-06
0.00318629
8.70515e-08
6.14462e-06
0.00320765
1.09536e-07
6.08667e-06
0.0032259
2.60788e-07
6.08097e-06
0.00324072
3.12673e-07
6.14331e-06
0.00325651
7.33122e-07
6.07328e-06
0.00324808
8.94734e-07
6.24404e-06
1.92014e-06
6.28404e-06
0.00324863
0.00237363
-6.42044e-05
6.32069e-06
0.00250096
-0.000134806
8.26704e-06
0.0026361
-0.000135201
5.84309e-06
0.00273784
-0.000108162
7.30461e-06
0.00282356
-8.65087e-05
5.77348e-06
0.00288774
-6.999e-05
6.87284e-06
0.00294604
-5.99529e-05
5.90077e-06
0.00299297
-5.23808e-05
6.62112e-06
0.00303704
-4.64068e-05
5.98634e-06
0.00307346
-4.16022e-05
6.41568e-06
0.00310776
-3.7173e-05
6.02539e-06
0.00313646
-3.37094e-05
6.25514e-06
0.00316349
-3.03294e-05
6.05188e-06
0.00318629
-2.76468e-05
6.14476e-06
0.00320768
-2.50171e-05
6.08648e-06
0.00322591
-2.28428e-05
6.08134e-06
0.00324085
-1.87161e-05
6.14244e-06
0.00325673
-2.00715e-05
6.07391e-06
0.00324843
4.6591e-06
6.23932e-06
-4.48871e-06
6.28495e-06
0.00324939
0.00238226
-0.000134354
5.32111e-06
0.00251651
-0.000273919
7.30436e-06
0.00265259
-0.000268582
4.74913e-06
0.00275102
-0.000210347
6.30261e-06
0.0028299
-0.000163436
4.68682e-06
0.00288558
-0.000128818
5.87518e-06
0.0029343
-0.000107612
4.84583e-06
0.00297111
-9.20074e-05
5.63002e-06
0.00300472
-7.96692e-05
4.95131e-06
0.00303059
-7.00318e-05
5.42636e-06
0.00305448
-6.12845e-05
5.00298e-06
0.00307297
-5.46053e-05
5.26657e-06
0.00309035
-4.83948e-05
5.03922e-06
0.00310358
-4.31688e-05
5.15731e-06
0.00311686
-3.93807e-05
5.08196e-06
0.00312552
-3.37358e-05
5.09507e-06
0.00313636
-3.09972e-05
5.14113e-06
0.00314188
-2.7875e-05
5.08761e-06
0.00314194
2.89518e-06
5.17812e-06
-2.04434e-05
5.27323e-06
0.00315514
0.00238018
-0.000207683
7.35295e-06
0.00252402
-0.00042814
9.27045e-06
0.00265993
-0.000407308
6.86813e-06
0.00274272
-0.000302252
8.27244e-06
0.00279873
-0.000222973
6.80365e-06
0.0028288
-0.000167363
7.85683e-06
0.00285104
-0.000134204
6.92311e-06
0.00286193
-0.000111007
7.60303e-06
0.00287075
-9.35072e-05
6.99301e-06
0.0028734
-8.052e-05
7.39168e-06
0.00287579
-6.92134e-05
7.01998e-06
0.00287455
-6.10145e-05
7.22732e-06
0.00287367
-5.34821e-05
7.03829e-06
0.0028707
-4.7722e-05
7.11451e-06
0.00286781
-4.28151e-05
7.06712e-06
0.00286471
-3.80967e-05
7.04764e-06
0.00285755
-3.05363e-05
7.12261e-06
0.00285744
-3.52517e-05
7.02632e-06
0.00281879
3.42611e-05
7.25787e-06
1.6028e-05
7.26656e-06
0.00277416
0.00242809
-0.000320526
4.22255e-06
0.00255881
-0.000561095
6.26829e-06
0.00262419
-0.000466855
3.39941e-06
0.00262615
-0.000305095
5.17173e-06
0.00260727
-0.000199138
3.40672e-06
0.00257518
-0.000135654
4.81069e-06
0.00254632
-0.000101429
3.66673e-06
0.00251527
-8.00566e-05
4.58973e-06
0.0024894
-6.44893e-05
3.82061e-06
0.00246283
-5.38084e-05
4.38739e-06
0.00244072
-4.4531e-05
3.89702e-06
0.00241831
-3.82753e-05
4.22615e-06
0.00239963
-3.26902e-05
3.95119e-06
0.00238042
-2.80564e-05
4.11672e-06
0.00236529
-2.59798e-05
4.0086e-06
0.002347
-1.9306e-05
4.05433e-06
0.00233901
-2.12263e-05
4.07998e-06
0.00231808
-1.38891e-05
4.03809e-06
0.00232855
2.49203e-05
4.0824e-06
-2.88146e-06
4.21531e-06
0.00234736
0.00240471
-0.000420778
8.48289e-06
0.00234645
-0.000516354
1.03611e-05
0.00222607
-0.000351933
7.85805e-06
0.00209277
-0.000183445
9.19726e-06
0.00198481
-9.72459e-05
7.78186e-06
0.00189552
-5.73501e-05
8.81726e-06
0.00182864
-4.14349e-05
7.91444e-06
0.00177126
-3.32846e-05
8.57096e-06
0.00172722
-2.79517e-05
7.97681e-06
0.0016874
-2.42901e-05
8.35658e-06
0.00165603
-2.1148e-05
7.99696e-06
0.00162671
-1.90252e-05
8.19095e-06
0.00160281
-1.71881e-05
8.01185e-06
0.00158041
-1.56041e-05
8.07832e-06
0.00156058
-1.49274e-05
8.03909e-06
0.00154444
-1.30894e-05
8.00973e-06
0.00152352
-9.51829e-06
8.09592e-06
0.00152162
-2.19513e-05
7.96758e-06
0.00144037
9.63497e-05
8.21922e-06
7.84748e-05
8.23224e-06
0.00134821
0.00189945
3.21257e-06
0.00138502
5.03255e-06
0.00104318
2.31891e-06
0.000863338
3.83721e-06
0.000775285
2.33378e-06
0.000722052
3.50306e-06
0.000688949
2.47711e-06
0.000660167
3.24973e-06
0.000639918
2.54361e-06
0.000620445
3.02014e-06
0.000606498
2.57084e-06
0.000592494
2.84772e-06
0.000582063
2.59548e-06
0.00057157
2.73592e-06
0.000562971
2.63452e-06
0.000554987
2.67305e-06
0.000551354
2.70128e-06
0.000534432
2.64274e-06
0.000636363
2.74683e-06
2.86935e-06
0.000719189
0.00214149
0.000171245
-3.87929e-12
0.00189903
0.00024813
-3.89525e-12
0.00163977
0.000262209
-3.89576e-12
0.00141203
0.000232185
-3.99975e-12
0.00122873
0.000186209
-4.15028e-12
0.00109368
0.000139106
-4.37123e-12
0.000997353
9.93469e-05
-4.5497e-12
0.000932348
6.88004e-05
-4.7676e-12
0.000887522
4.79249e-05
-4.89658e-12
0.000857374
3.37311e-05
-4.99425e-12
0.000835479
2.50362e-05
-4.89984e-12
0.000819613
1.92893e-05
-4.73834e-12
0.000807069
1.57189e-05
-4.44553e-12
0.000796853
1.35338e-05
-4.20476e-12
0.000788938
1.11311e-05
-3.9403e-12
0.000780385
1.18053e-05
-3.83859e-12
0.000777463
6.19855e-06
-3.76656e-12
0.00076642
1.42532e-05
-3.90639e-12
0.000774816
-5.08493e-06
-3.99362e-12
-2.91417e-06
-4.32037e-12
0.000781167
0.00236583
0.00012341
-3.89721e-12
0.00241239
0.00021257
-3.94152e-12
0.00242092
0.000262175
-3.8936e-12
0.00239873
0.000264189
-3.74773e-12
0.00235485
0.000238449
-3.46185e-12
0.0023032
0.000200116
-3.29354e-12
0.00224898
0.000161983
-3.26863e-12
0.00219784
0.000128986
-3.50193e-12
0.00215005
0.000104162
-3.73212e-12
0.00210719
8.54142e-05
-3.96646e-12
0.00206826
7.24311e-05
-4.02398e-12
0.00203371
6.2534e-05
-4.03254e-12
0.00200262
5.53515e-05
-3.86119e-12
0.00197507
4.97336e-05
-3.68961e-12
0.00195052
4.43044e-05
-3.40353e-12
0.00192846
4.24885e-05
-3.17138e-12
0.00190982
3.35503e-05
-2.9149e-12
0.00189119
4.14539e-05
-2.66202e-12
0.00187802
1.69085e-05
-2.57074e-12
3.52598e-05
-2.5178e-12
0.00184865
0.00235386
8.32842e-05
-3.89294e-12
0.0024242
0.000149137
-3.92817e-12
0.00249684
0.000193575
-3.95964e-12
0.00256315
0.000203672
-4.029e-12
0.00261292
0.000192674
-3.97533e-12
0.00264809
0.000170299
-3.8718e-12
0.00266898
0.000145273
-3.65928e-12
0.00268048
0.000122549
-3.54177e-12
0.00268446
0.000104461
-3.45148e-12
0.00268414
9.05647e-05
-3.50884e-12
0.00268061
8.02889e-05
-3.57799e-12
0.00267527
7.25505e-05
-3.72881e-12
0.00266897
6.60734e-05
-3.82872e-12
0.00266164
6.16815e-05
-3.96409e-12
0.00265487
5.56297e-05
-4.05109e-12
0.00264675
5.52517e-05
-4.0719e-12
0.00264082
4.41752e-05
-3.99472e-12
0.00263225
5.47087e-05
-3.71883e-12
0.00262719
2.67015e-05
-3.49743e-12
5.15472e-05
-3.05266e-12
0.00261579
0.00234399
5.61527e-05
-3.88747e-12
0.0024045
9.85424e-05
-3.9155e-12
0.00247798
0.000127603
-3.93688e-12
0.00255541
0.00013513
-4.03604e-12
0.0026258
0.000129677
-4.0645e-12
0.00268778
0.000116716
-4.08505e-12
0.00273863
0.00010186
-3.98118e-12
0.00278112
8.81394e-05
-3.92376e-12
0.00281581
7.72226e-05
-3.82036e-12
0.00284534
6.88651e-05
-3.77913e-12
0.00287039
6.26897e-05
-3.66566e-12
0.00289242
5.81829e-05
-3.59096e-12
0.00291182
5.41582e-05
-3.51982e-12
0.00292924
5.18464e-05
-3.55465e-12
0.0029449
4.75486e-05
-3.69163e-12
0.0029594
4.83577e-05
-3.88636e-12
0.00297182
3.94692e-05
-4.07872e-12
0.00298482
4.93665e-05
-4.22625e-12
0.00299239
2.70405e-05
-4.22845e-12
5.2504e-05
-4.26669e-12
0.0029994
0.00234457
2.64074e-05
-3.88708e-12
0.00240329
4.77678e-05
-3.92468e-12
0.00247343
6.28552e-05
-3.93278e-12
0.00254874
6.67373e-05
-4.00818e-12
0.00261952
6.4171e-05
-4.01289e-12
0.00268467
5.7986e-05
-4.05433e-12
0.00274106
5.08299e-05
-4.00862e-12
0.00279099
4.43209e-05
-4.03456e-12
0.00283451
3.91121e-05
-4.00191e-12
0.00287399
3.52469e-05
-4.00836e-12
0.00290978
3.23362e-05
-3.9027e-12
0.00294327
3.03888e-05
-3.8001e-12
0.00297446
2.84407e-05
-3.65625e-12
0.00300426
2.7673e-05
-3.61143e-12
0.00303204
2.53581e-05
-3.62262e-12
0.0030596
2.64355e-05
-3.76194e-12
0.00308343
2.13549e-05
-3.85522e-12
0.00311093
2.75768e-05
-4.08889e-12
0.0031286
1.5184e-05
-4.10085e-12
2.97652e-05
-4.41107e-12
0.0031573
0.00234224
-1.10627e-10
-3.88731e-12
0.00239891
2.93215e-10
-3.9179e-12
0.00246825
-2.0679e-10
-3.92613e-12
0.00254291
7.44798e-10
-3.98098e-12
0.00261344
-1.23876e-10
-3.97212e-12
0.00267884
1.83011e-09
-4.00045e-12
0.00273608
7.29704e-10
-3.97602e-12
0.0027875
4.40522e-09
-4.02301e-12
0.00283305
3.9304e-09
-4.01964e-12
0.00287514
1.12331e-08
-4.04999e-12
0.00291392
1.25364e-08
-3.99403e-12
0.00295096
3.26456e-08
-3.96481e-12
0.00298586
3.06803e-08
-3.89362e-12
0.00302004
1.00816e-07
-3.90267e-12
0.00305192
6.67402e-08
-3.89799e-12
0.00308468
2.92765e-07
-3.96769e-12
0.00311258
1.74967e-07
-3.97999e-12
0.00314612
7.26147e-07
-4.07517e-12
0.00316755
6.44333e-07
-4.07945e-12
1.48085e-06
-4.26424e-12
0.00320279
0.00234224
-2.64076e-05
-3.89093e-12
0.00239891
-4.77673e-05
-3.91631e-12
0.00246825
-6.28557e-05
-3.92844e-12
0.00254291
-6.67358e-05
-3.97065e-12
0.00261344
-6.41713e-05
-3.95508e-12
0.00267884
-5.79823e-05
-3.97156e-12
0.00273608
-5.08286e-05
-3.95109e-12
0.0027875
-4.43119e-05
-4.00015e-12
0.00283305
-3.91047e-05
-4.0007e-12
0.00287514
-3.52241e-05
-4.04407e-12
0.00291392
-3.23121e-05
-4.03575e-12
0.00295096
-3.0323e-05
-4.10337e-12
0.00298586
-2.83814e-05
-4.14368e-12
0.00302004
-2.74714e-05
-4.25052e-12
0.00305193
-2.52295e-05
-4.28435e-12
0.0030847
-2.58536e-05
-4.29701e-12
0.00311261
-2.10191e-05
-4.27439e-12
0.00314617
-2.6146e-05
-4.18601e-12
0.00316764
-1.39487e-05
-4.18716e-12
-2.69084e-05
-4.13999e-12
0.003203
0.00234457
-5.61529e-05
-3.89102e-12
0.00240329
-9.85418e-05
-3.91015e-12
0.00247343
-0.000127603
-3.92217e-12
0.00254874
-0.000135129
-3.94421e-12
0.00261952
-0.000129677
-3.91488e-12
0.00268467
-0.000116713
-3.91933e-12
0.00274106
-0.000101859
-3.92086e-12
0.00279099
-8.81307e-05
-3.99092e-12
0.00283451
-7.72153e-05
-4.02211e-12
0.002874
-6.88435e-05
-4.09275e-12
0.00290978
-6.26659e-05
-4.1431e-12
0.00294327
-5.81212e-05
-4.28902e-12
0.00297447
-5.40998e-05
-4.40505e-12
0.00300428
-5.16565e-05
-4.55914e-12
0.00303206
-4.74243e-05
-4.56178e-12
0.00305965
-4.78035e-05
-4.50122e-12
0.0030835
-3.91557e-05
-4.38271e-12
0.00311105
-4.79867e-05
-4.16054e-12
0.00312881
-2.58891e-05
-4.16245e-12
-4.97233e-05
-3.96857e-12
0.00315759
0.00234399
-8.32844e-05
-3.88707e-12
0.0024045
-0.000149137
-3.91627e-12
0.00247798
-0.000193575
-3.91032e-12
0.00255541
-0.000203671
-3.90957e-12
0.0026258
-0.000192674
-3.85604e-12
0.00268779
-0.000170295
-3.88964e-12
0.00273863
-0.000145272
-3.95429e-12
0.00278112
-0.000122541
-4.11163e-12
0.00281581
-0.000104455
-4.21358e-12
0.00284535
-9.05446e-05
-4.33615e-12
0.0028704
-8.02682e-05
-4.40524e-12
0.00289243
-7.24941e-05
-4.52489e-12
0.00291184
-6.60233e-05
-4.57106e-12
0.00292928
-6.15092e-05
-4.61926e-12
0.00294496
-5.55287e-05
-4.47493e-12
0.00295951
-5.47504e-05
-4.34585e-12
0.002972
-4.39319e-05
-4.11092e-12
0.00298515
-5.34751e-05
-4.006e-12
0.00299295
-2.57807e-05
-4.022e-12
-4.92125e-05
-4.10351e-12
0.0030004
0.00235386
-0.00012341
-3.88418e-12
0.0024242
-0.00021257
-3.90516e-12
0.00249684
-0.000262176
-3.88665e-12
0.00256315
-0.000264188
-3.91353e-12
0.00261292
-0.000238449
-3.95049e-12
0.00264809
-0.000200114
-4.1225e-12
0.00266898
-0.000161982
-4.30716e-12
0.00268048
-0.00012898
-4.52547e-12
0.00268446
-0.000104156
-4.60587e-12
0.00268415
-8.53999e-05
-4.62682e-12
0.00268062
-7.24132e-05
-4.51284e-12
0.00267529
-6.24936e-05
-4.40483e-12
0.002669
-5.53105e-05
-4.27646e-12
0.00266173
-4.96071e-05
-4.18566e-12
0.00265498
-4.42295e-05
-4.09597e-12
0.00264698
-4.21109e-05
-4.11188e-12
0.00264113
-3.33883e-05
-4.19228e-12
0.00263285
-4.05132e-05
-4.54713e-12
0.00262808
-1.62708e-05
-4.76034e-12
-3.35269e-05
-5.39226e-12
0.00261728
0.00236583
-0.000171245
-3.86787e-12
0.00241239
-0.00024813
-3.887e-12
0.00242092
-0.000262209
-3.94886e-12
0.00239873
-0.000232184
-4.19407e-12
0.00235485
-0.000186208
-4.45302e-12
0.0023032
-0.000139105
-4.68136e-12
0.00224898
-9.93457e-05
-4.66497e-12
0.00219785
-6.87982e-05
-4.52161e-12
0.00215006
-4.79206e-05
-4.26386e-12
0.0021072
-3.37257e-05
-4.10087e-12
0.00206829
-2.50244e-05
-3.98817e-12
0.00203376
-1.92729e-05
-4.04003e-12
0.00200269
-1.56938e-05
-4.17205e-12
0.0019752
-1.34773e-05
-4.42017e-12
0.00195069
-1.10919e-05
-4.70255e-12
0.00192882
-1.16216e-05
-5.00299e-12
0.00191028
-6.13551e-06
-5.31706e-12
0.00189212
-1.37812e-05
-5.55704e-12
0.00187933
5.34292e-06
-5.70628e-12
3.46829e-06
-5.8811e-12
0.00185113
0.00214149
-3.8876e-12
0.00189903
-3.95402e-12
0.00163977
-3.99999e-12
0.00141203
-4.03627e-12
0.00122873
-3.87706e-12
0.00109368
-3.69259e-12
0.000997356
-3.4336e-12
0.000932353
-3.2846e-12
0.000887531
-3.15298e-12
0.000857389
-3.16754e-12
0.000835506
-3.24458e-12
0.000819656
-3.48119e-12
0.000807137
-3.725e-12
0.000796978
-4.03859e-12
0.000789102
-4.2519e-12
0.000780733
-4.4362e-12
0.000777872
-4.47486e-12
0.000767304
-4.39848e-12
0.000775958
-4.2818e-12
-3.96589e-12
0.000782849
0.00214149
0.000171245
-3.21257e-06
0.00189903
0.00024813
-5.03255e-06
0.00163977
0.000262209
-2.31891e-06
0.00141203
0.000232185
-3.83721e-06
0.00122873
0.000186209
-2.33378e-06
0.00109368
0.000139106
-3.50307e-06
0.000997353
9.93469e-05
-2.47711e-06
0.000932348
6.88004e-05
-3.24973e-06
0.000887522
4.79249e-05
-2.54361e-06
0.000857374
3.37311e-05
-3.02014e-06
0.000835479
2.50362e-05
-2.57084e-06
0.000819613
1.92893e-05
-2.84774e-06
0.000807069
1.5719e-05
-2.59545e-06
0.000796853
1.35338e-05
-2.73599e-06
0.000788938
1.11311e-05
-2.63446e-06
0.000780385
1.18053e-05
-2.67324e-06
0.000777463
6.19855e-06
-2.7012e-06
0.00076642
1.42532e-05
-2.64309e-06
0.000774816
-5.08492e-06
-2.74659e-06
-2.91416e-06
-2.87085e-06
0.000781167
0.00236583
0.00012341
-8.4829e-06
0.00241239
0.00021257
-1.03612e-05
0.00242092
0.000262175
-7.85805e-06
0.00239873
0.000264189
-9.19727e-06
0.00235485
0.000238449
-7.78187e-06
0.0023032
0.000200116
-8.81726e-06
0.00224898
0.000161983
-7.91445e-06
0.00219784
0.000128986
-8.57096e-06
0.00215005
0.000104162
-7.97682e-06
0.00210719
8.54142e-05
-8.35657e-06
0.00206826
7.24311e-05
-7.99698e-06
0.00203371
6.2534e-05
-8.19093e-06
0.00200262
5.53515e-05
-8.01191e-06
0.00197507
4.97336e-05
-8.07825e-06
0.00195052
4.43044e-05
-8.03927e-06
0.00192846
4.24885e-05
-8.00949e-06
0.00190982
3.35502e-05
-8.09671e-06
0.00189119
4.14539e-05
-7.96683e-06
0.00187802
1.69085e-05
-8.22279e-06
3.52597e-05
-8.23112e-06
0.00184865
0.00235386
8.32842e-05
-4.22256e-06
0.0024242
0.000149137
-6.2683e-06
0.00249684
0.000193575
-3.39942e-06
0.00256315
0.000203672
-5.17173e-06
0.00261292
0.000192674
-3.40672e-06
0.00264809
0.000170299
-4.81069e-06
0.00266898
0.000145273
-3.66673e-06
0.00268048
0.000122549
-4.58974e-06
0.00268446
0.000104461
-3.82061e-06
0.00268414
9.05647e-05
-4.38741e-06
0.00268061
8.02889e-05
-3.89701e-06
0.00267527
7.25505e-05
-4.22619e-06
0.00266897
6.60733e-05
-3.95115e-06
0.00266164
6.16814e-05
-4.11683e-06
0.00265487
5.56297e-05
-4.00847e-06
0.00264675
5.52516e-05
-4.05462e-06
0.00264082
4.41752e-05
-4.07955e-06
0.00263225
5.47087e-05
-4.03854e-06
0.00262719
2.67015e-05
-4.08004e-06
5.15472e-05
-4.21592e-06
0.00261579
0.00234399
5.61527e-05
-7.35295e-06
0.0024045
9.85424e-05
-9.27046e-06
0.00247798
0.000127603
-6.86813e-06
0.00255541
0.00013513
-8.27245e-06
0.0026258
0.000129677
-6.80365e-06
0.00268778
0.000116716
-7.85683e-06
0.00273863
0.00010186
-6.92311e-06
0.00278112
8.81393e-05
-7.60303e-06
0.00281581
7.72225e-05
-6.99302e-06
0.00284534
6.88651e-05
-7.39167e-06
0.00287039
6.26896e-05
-7.02e-06
0.00289242
5.81829e-05
-7.22729e-06
0.00291182
5.41581e-05
-7.03837e-06
0.00292924
5.18463e-05
-7.11442e-06
0.0029449
4.75485e-05
-7.06735e-06
0.0029594
4.83576e-05
-7.04738e-06
0.00297182
3.94692e-05
-7.12356e-06
0.00298482
4.93664e-05
-7.02579e-06
0.00299239
2.70405e-05
-7.26231e-06
5.2504e-05
-7.26661e-06
0.0029994
0.00234457
2.64074e-05
-5.32111e-06
0.00240329
4.77678e-05
-7.30437e-06
0.00247343
6.28552e-05
-4.74914e-06
0.00254874
6.67373e-05
-6.30262e-06
0.00261952
6.4171e-05
-4.68682e-06
0.00268467
5.7986e-05
-5.87519e-06
0.00274106
5.08299e-05
-4.84583e-06
0.00279099
4.43209e-05
-5.63003e-06
0.00283451
3.91121e-05
-4.95131e-06
0.00287399
3.52469e-05
-5.42638e-06
0.00290978
3.23361e-05
-5.00296e-06
0.00294327
3.03887e-05
-5.26663e-06
0.00297446
2.84406e-05
-5.03917e-06
0.00300426
2.76729e-05
-5.15745e-06
0.00303204
2.5358e-05
-5.0818e-06
0.0030596
2.64355e-05
-5.09543e-06
0.00308343
2.13549e-05
-5.14041e-06
0.00311093
2.75768e-05
-5.08823e-06
0.0031286
1.5184e-05
-5.17422e-06
2.97652e-05
-5.27408e-06
0.0031573
0.00234224
-1.1091e-10
-6.32069e-06
0.00239891
2.94876e-10
-8.26704e-06
0.00246825
-2.065e-10
-5.8431e-06
0.00254291
7.49522e-10
-7.30461e-06
0.00261344
-1.19607e-10
-5.77349e-06
0.00267884
1.8347e-09
-6.87284e-06
0.00273608
7.24297e-10
-5.90078e-06
0.0027875
4.39315e-09
-6.62111e-06
0.00283305
3.90787e-09
-5.98635e-06
0.00287514
1.12046e-08
-6.41567e-06
0.00291392
1.24958e-08
-6.02541e-06
0.00295096
3.25911e-08
-6.25509e-06
0.00298586
3.06082e-08
-6.05194e-06
0.00302004
1.00734e-07
-6.14462e-06
0.00305192
6.66568e-08
-6.08667e-06
0.00308468
2.92703e-07
-6.08098e-06
0.00311258
1.74925e-07
-6.14331e-06
0.00314612
7.26132e-07
-6.07329e-06
0.00316755
6.4433e-07
-6.24404e-06
1.48083e-06
-6.28405e-06
0.00320279
0.00234224