/*--------------------------------*- C++ -*----------------------------------*\
  =========                 |
  \\      /  F ield         | OpenFOAM: The Open Source CFD Toolbox
   \\    /   O peration     | Website:  https://openfoam.org
    \\  /    A nd           | Version:  7
     \\/     M anipulation  |
\*---------------------------------------------------------------------------*/
FoamFile
{
    version     2.0;
    format      ascii;
    class       volSymmTensorField;
    location    "0.1875";
    object      UPrime2Mean;
}
// * * * * * * * * * * * * * * * * * * * * * * * * * * * * * * * * * * * * * //

dimensions      [0 2 -2 0 0 0 0];

internalField   nonuniform List<symmTensor> 
1440
(
(0.0825862 0.000518615 0 1.08045e-05 0 0)
(0.0440885 0.00171107 0 0.000245457 0 0)
(0.0841075 0.0013046 0 0.000912879 0 0)
(0.1417 0.000599239 0 0.0019934 0 0)
(0.193078 -0.000204855 0 0.00336201 0 0)
(0.244448 -0.00232827 0 0.00481625 0 0)
(0.304792 -0.00658014 0 0.00613968 0 0)
(0.377981 -0.0126405 0 0.00712659 0 0)
(0.463971 -0.0194634 0 0.00767599 0 0)
(0.562824 -0.0260654 0 0.00775955 0 0)
(0.674335 -0.0318058 0 0.00745088 0 0)
(0.800127 -0.0366002 0 0.00691582 0 0)
(0.939889 -0.0401929 0 0.00622377 0 0)
(1.0921 -0.0426488 0 0.00545189 0 0)
(1.2551 -0.0441517 0 0.00467008 0 0)
(1.42725 -0.0448387 0 0.00391819 0 0)
(1.6073 -0.0448415 0 0.00322016 0 0)
(1.79412 -0.0441991 0 0.00259102 0 0)
(1.98629 -0.0428538 0 0.0020396 0 0)
(2.1821 -0.0407544 0 0.00156904 0 0)
(2.37973 -0.0378924 0 0.00117563 0 0)
(2.57726 -0.0343496 0 0.000854501 0 0)
(2.77283 -0.0302769 0 0.000600285 0 0)
(2.96475 -0.0258549 0 0.000406618 0 0)
(3.15158 -0.0212694 0 0.000265949 0 0)
(3.33225 -0.0166825 0 0.000170231 0 0)
(3.50601 -0.012236 0 0.000111735 0 0)
(3.67249 -0.00803994 0 8.29055e-05 0 0)
(3.83154 -0.00416205 0 7.66403e-05 0 0)
(3.98329 -0.000633122 0 8.67485e-05 0 0)
(4.12796 0.00253883 0 0.000108151 0 0)
(4.26588 0.00535832 0 0.000136833 0 0)
(4.39744 0.00783204 0 0.000169703 0 0)
(4.52308 0.0099662 0 0.000204424 0 0)
(4.64323 0.0117696 0 0.000239276 0 0)
(4.75839 0.013255 0 0.00027303 0 0)
(4.86905 0.0144363 0 0.000304796 0 0)
(4.97571 0.0153252 0 0.000333933 0 0)
(5.07885 0.015933 0 0.000360006 0 0)
(5.17896 0.0162799 0 0.000382763 0 0)
(5.27647 0.0163899 0 0.000402092 0 0)
(5.37183 0.016294 0 0.000417987 0 0)
(5.46546 0.0160208 0 0.00043049 0 0)
(5.55775 0.0155954 0 0.000439698 0 0)
(5.64902 0.0150493 0 0.000445773 0 0)
(5.73956 0.0144146 0 0.000448945 0 0)
(5.82963 0.0137249 0 0.000449445 0 0)
(5.91944 0.0130028 0 0.000447496 0 0)
(6.00918 0.0122671 0 0.000443366 0 0)
(6.09895 0.0115349 0 0.000437382 0 0)
(6.18883 0.0108287 0 0.000429933 0 0)
(6.2789 0.0101629 0 0.000421374 0 0)
(6.36919 0.00954146 0 0.000412024 0 0)
(6.4597 0.00896581 0 0.000402191 0 0)
(6.55041 0.00843904 0 0.000392192 0 0)
(6.6413 0.00795904 0 0.000382268 0 0)
(6.73232 0.00751958 0 0.000372605 0 0)
(6.82343 0.00711625 0 0.000363331 0 0)
(6.91459 0.00674061 0 0.000354554 0 0)
(7.00577 0.00639089 0 0.000346395 0 0)
(7.09695 0.00605639 0 0.00033887 0 0)
(7.18812 0.0057261 0 0.000331975 0 0)
(7.27925 0.00539637 0 0.000325674 0 0)
(7.37037 0.00506584 0 0.000319941 0 0)
(7.46151 0.00473216 0 0.000314745 0 0)
(7.55269 0.00438472 0 0.000309995 0 0)
(7.64394 0.00401941 0 0.000305601 0 0)
(7.73527 0.0036393 0 0.000301489 0 0)
(7.82673 0.00325496 0 0.000297615 0 0)
(7.91837 0.00287236 0 0.000293928 0 0)
(8.01021 0.00248567 0 0.000290363 0 0)
(8.10226 0.00210089 0 0.000286868 0 0)
(8.19452 0.00172278 0 0.000283415 0 0)
(8.28704 0.00136602 0 0.000280019 0 0)
(8.37983 0.00102814 0 0.000276662 0 0)
(8.4729 0.000700571 0 0.000273309 0 0)
(8.56622 0.000390665 0 0.000269961 0 0)
(8.6598 9.75401e-05 0 0.000266644 0 0)
(8.75368 -0.000168384 0 0.00026338 0 0)
(8.84788 -0.000413855 0 0.000260159 0 0)
(8.94237 -0.00064828 0 0.000256986 0 0)
(9.03717 -0.000869339 0 0.000253875 0 0)
(9.13227 -0.00107047 0 0.000250849 0 0)
(9.22773 -0.00125392 0 0.000247921 0 0)
(9.32353 -0.00143166 0 0.000245083 0 0)
(9.41966 -0.00160724 0 0.000242329 0 0)
(9.51612 -0.00177649 0 0.000239653 0 0)
(9.61292 -0.00193051 0 0.000237087 0 0)
(9.71008 -0.00207672 0 0.000234605 0 0)
(9.80757 -0.00222668 0 0.000232195 0 0)
(9.90537 -0.0023793 0 0.000229858 0 0)
(10.0035 -0.00252471 0 0.000227588 0 0)
(10.1018 -0.00265835 0 0.0002254 0 0)
(10.2005 -0.00278906 0 0.000223263 0 0)
(10.2995 -0.00292922 0 0.000221182 0 0)
(10.3987 -0.003072 0 0.000219142 0 0)
(10.4981 -0.00320679 0 0.000217161 0 0)
(10.5978 -0.00333094 0 0.000215204 0 0)
(10.6977 -0.00345616 0 0.000213299 0 0)
(10.7979 -0.00359326 0 0.000211397 0 0)
(10.8983 -0.00372581 0 0.000209554 0 0)
(10.9989 -0.00385082 0 0.000207693 0 0)
(11.0999 -0.00396583 0 0.000205953 0 0)
(11.2011 -0.00408529 0 0.000204069 0 0)
(11.3027 -0.00420666 0 0.000202434 0 0)
(11.4045 -0.00433949 0 0.000200511 0 0)
(11.5067 -0.00443348 0 0.000199077 0 0)
(11.609 -0.00454649 0 0.000197015 0 0)
(11.7117 -0.00461464 0 0.000195946 0 0)
(11.8143 -0.00475417 0 0.000193605 0 0)
(11.917 -0.00478307 0 0.000193279 0 0)
(12.0193 -0.00492111 0 0.000190385 0 0)
(12.1214 -0.00482601 0 0.000191505 0 0)
(12.2228 -0.00496399 0 0.000187509 0 0)
(12.323 -0.00474293 0 0.00019168 0 0)
(12.4224 -0.00473059 0 0.000185714 0 0)
(12.517 -0.00430338 0 0.0001957 0 0)
(12.6154 -0.00338257 0 0.000189366 0 0)
(12.6922 -0.0027554 0 0.000206151 0 0)
(12.8013 0.00279114 0 0.000267044 0 0)
(0.0832398 0.000735724 0 2.00252e-05 0 0)
(0.0481022 0.0019351 0 0.000232621 0 0)
(0.0909068 0.00252677 0 0.000764467 0 0)
(0.156878 0.00450556 0 0.00167196 0 0)
(0.22806 0.00863248 0 0.00295233 0 0)
(0.304583 0.0140754 0 0.00457248 0 0)
(0.38508 0.0197513 0 0.00647785 0 0)
(0.467513 0.0250675 0 0.00854876 0 0)
(0.551478 0.0298888 0 0.010607 0 0)
(0.636546 0.0341354 0 0.0124831 0 0)
(0.721848 0.0376449 0 0.0140791 0 0)
(0.806568 0.0401929 0 0.0153758 0 0)
(0.890313 0.0415894 0 0.0163749 0 0)
(0.973241 0.0417013 0 0.0170707 0 0)
(1.05568 0.040475 0 0.0174578 0 0)
(1.13791 0.0379192 0 0.0175424 0 0)
(1.22024 0.0340689 0 0.0173448 0 0)
(1.30318 0.0290374 0 0.0168935 0 0)
(1.38741 0.0230848 0 0.0162231 0 0)
(1.47364 0.016574 0 0.0153718 0 0)
(1.56254 0.00987973 0 0.0143807 0 0)
(1.65476 0.00332702 0 0.0132956 0 0)
(1.75076 -0.00282181 0 0.0121624 0 0)
(1.85088 -0.00838372 0 0.0110245 0 0)
(1.9553 -0.0132622 0 0.0099178 0 0)
(2.06407 -0.0174339 0 0.0088678 0 0)
(2.17715 -0.0209238 0 0.00789058 0 0)
(2.2944 -0.0237818 0 0.00699423 0 0)
(2.41568 -0.026066 0 0.00618105 0 0)
(2.54081 -0.0278358 0 0.00544954 0 0)
(2.66959 -0.0291466 0 0.00479582 0 0)
(2.80182 -0.0300504 0 0.00421489 0 0)
(2.93726 -0.0305955 0 0.00370113 0 0)
(3.07572 -0.0308256 0 0.00324858 0 0)
(3.21697 -0.0307823 0 0.0028514 0 0)
(3.3608 -0.0305063 0 0.00250394 0 0)
(3.50699 -0.0300357 0 0.00220085 0 0)
(3.65535 -0.0294087 0 0.00193724 0 0)
(3.80568 -0.0286631 0 0.00170861 0 0)
(3.9578 -0.0278331 0 0.00151072 0 0)
(4.11156 -0.0269508 0 0.00133973 0 0)
(4.26679 -0.0260451 0 0.00119217 0 0)
(4.42338 -0.0251408 0 0.00106495 0 0)
(4.58119 -0.0242592 0 0.000955418 0 0)
(4.74013 -0.0234164 0 0.000861175 0 0)
(4.9001 -0.0226238 0 0.000780089 0 0)
(5.06101 -0.0218875 0 0.000710207 0 0)
(5.22281 -0.0212101 0 0.000649827 0 0)
(5.38541 -0.0205891 0 0.000597485 0 0)
(5.54879 -0.0200186 0 0.000551911 0 0)
(5.7129 -0.0194885 0 0.000511989 0 0)
(5.8777 -0.0189886 0 0.000476766 0 0)
(6.04316 -0.0185073 0 0.000445468 0 0)
(6.20925 -0.0180323 0 0.000417473 0 0)
(6.37596 -0.0175512 0 0.000392257 0 0)
(6.54325 -0.0170549 0 0.00036942 0 0)
(6.7111 -0.0165381 0 0.000348674 0 0)
(6.87948 -0.0159971 0 0.000329803 0 0)
(7.04837 -0.0154299 0 0.000312667 0 0)
(7.21774 -0.0148356 0 0.000297129 0 0)
(7.38755 -0.0142191 0 0.000283135 0 0)
(7.55778 -0.0135871 0 0.000270641 0 0)
(7.72838 -0.0129457 0 0.000259565 0 0)
(7.89934 -0.0123 0 0.00024983 0 0)
(8.07059 -0.0116552 0 0.000241359 0 0)
(8.24211 -0.0110187 0 0.000234095 0 0)
(8.41384 -0.0103958 0 0.000227949 0 0)
(8.58573 -0.00978798 0 0.000222803 0 0)
(8.75776 -0.00919506 0 0.000218546 0 0)
(8.92984 -0.00861697 0 0.000215093 0 0)
(9.10194 -0.00805616 0 0.000212387 0 0)
(9.274 -0.00751309 0 0.000210341 0 0)
(9.44598 -0.00698798 0 0.00020887 0 0)
(9.61785 -0.00648007 0 0.000207904 0 0)
(9.78955 -0.00599186 0 0.000207394 0 0)
(9.96107 -0.00552814 0 0.000207315 0 0)
(10.1324 -0.00509048 0 0.000207586 0 0)
(10.3036 -0.00467987 0 0.000208151 0 0)
(10.4745 -0.00429517 0 0.00020895 0 0)
(10.6452 -0.00393811 0 0.000209942 0 0)
(10.8158 -0.00360982 0 0.000211094 0 0)
(10.9862 -0.00330907 0 0.000212367 0 0)
(11.1565 -0.00303295 0 0.000213727 0 0)
(11.3266 -0.00277761 0 0.000215138 0 0)
(11.4967 -0.00254148 0 0.000216591 0 0)
(11.6666 -0.00232143 0 0.000218061 0 0)
(11.8364 -0.00211395 0 0.000219532 0 0)
(12.0061 -0.00191319 0 0.000220981 0 0)
(12.1757 -0.00171597 0 0.000222396 0 0)
(12.3452 -0.00152022 0 0.000223781 0 0)
(12.5145 -0.0013224 0 0.000225115 0 0)
(12.6837 -0.00111876 0 0.000226359 0 0)
(12.8527 -0.000907076 0 0.000227527 0 0)
(13.0215 -0.000688268 0 0.000228622 0 0)
(13.1901 -0.000462794 0 0.000229681 0 0)
(13.3584 -0.000229636 0 0.000230648 0 0)
(13.5264 1.45043e-05 0 0.000231527 0 0)
(13.6942 0.000266218 0 0.000232286 0 0)
(13.8616 0.000524908 0 0.000233019 0 0)
(14.0286 0.0007836 0 0.000233661 0 0)
(14.1953 0.00104904 0 0.000234288 0 0)
(14.3617 0.00131439 0 0.000234716 0 0)
(14.5278 0.00158813 0 0.000235186 0 0)
(14.6935 0.00185062 0 0.000235411 0 0)
(14.8588 0.00212284 0 0.000235835 0 0)
(15.0239 0.00237391 0 0.000235833 0 0)
(15.1884 0.0026513 0 0.000236213 0 0)
(15.3528 0.00289279 0 0.000235879 0 0)
(15.5161 0.00317856 0 0.000236435 0 0)
(15.68 0.00340581 0 0.000235812 0 0)
(15.8413 0.00371531 0 0.000236883 0 0)
(16.0048 0.00397096 0 0.000235865 0 0)
(16.1624 0.00434212 0 0.000238008 0 0)
(16.3265 0.00475615 0 0.000236798 0 0)
(16.4766 0.00520544 0 0.000241178 0 0)
(16.6448 0.00621404 0 0.000240702 0 0)
(16.7788 0.00666661 0 0.00024948 0 0)
(16.9604 0.00979489 0 0.000256373 0 0)
(17.0575 0.00971877 0 0.000273031 0 0)
(17.2923 0.0198931 0 0.000356413 0 0)
(0.0831982 0.000506981 0 1.09917e-05 0 0)
(0.0475139 0.00138564 0 0.000123236 0 0)
(0.0897939 0.00178431 0 0.000401482 0 0)
(0.154329 0.0030693 0 0.000874894 0 0)
(0.222875 0.00584479 0 0.00154536 0 0)
(0.296769 0.00963191 0 0.0024032 0 0)
(0.376322 0.0138215 0 0.00342606 0 0)
(0.460814 0.0181707 0 0.00456301 0 0)
(0.550822 0.0227239 0 0.00573666 0 0)
(0.646904 0.0275105 0 0.00686463 0 0)
(0.748989 0.0324025 0 0.00788123 0 0)
(0.856534 0.0371648 0 0.00875257 0 0)
(0.968919 0.0415326 0 0.00945972 0 0)
(1.08563 0.0452452 0 0.0099859 0 0)
(1.20609 0.0480863 0 0.0103191 0 0)
(1.32944 0.0498979 0 0.0104557 0 0)
(1.45468 0.050584 0 0.0104034 0 0)
(1.58102 0.0501543 0 0.0101785 0 0)
(1.70779 0.0487619 0 0.00980494 0 0)
(1.83443 0.0466537 0 0.00931418 0 0)
(1.96049 0.044077 0 0.00874041 0 0)
(2.08575 0.0412429 0 0.00811586 0 0)
(2.2102 0.0383392 0 0.00746988 0 0)
(2.33389 0.0355178 0 0.00682811 0 0)
(2.45692 0.0328786 0 0.00621014 0 0)
(2.57944 0.0304677 0 0.00562989 0 0)
(2.70162 0.0282995 0 0.00509515 0 0)
(2.82364 0.0263748 0 0.00460873 0 0)
(2.94565 0.0246875 0 0.00417042 0 0)
(3.06779 0.0232271 0 0.00377837 0 0)
(3.19019 0.0219809 0 0.00342963 0 0)
(3.31294 0.0209356 0 0.00312075 0 0)
(3.43615 0.0200767 0 0.00284799 0 0)
(3.55991 0.0193885 0 0.0026077 0 0)
(3.68428 0.0188527 0 0.0023964 0 0)
(3.80933 0.0184487 0 0.0022109 0 0)
(3.93512 0.0181537 0 0.00204821 0 0)
(4.06167 0.0179442 0 0.00190559 0 0)
(4.18902 0.0177958 0 0.00178055 0 0)
(4.31718 0.0176857 0 0.00167084 0 0)
(4.44617 0.0175937 0 0.00157444 0 0)
(4.57597 0.0175043 0 0.00148961 0 0)
(4.7066 0.0174058 0 0.00141473 0 0)
(4.83804 0.0172905 0 0.00134836 0 0)
(4.97027 0.017155 0 0.00128928 0 0)
(5.10329 0.0169992 0 0.00123642 0 0)
(5.23709 0.0168266 0 0.00118887 0 0)
(5.37165 0.0166426 0 0.00114574 0 0)
(5.50696 0.0164534 0 0.00110625 0 0)
(5.64302 0.0162664 0 0.00106977 0 0)
(5.77982 0.0160881 0 0.00103581 0 0)
(5.91735 0.0159265 0 0.00100398 0 0)
(6.05561 0.0157885 0 0.000973886 0 0)
(6.1946 0.0156792 0 0.000945222 0 0)
(6.3343 0.0156024 0 0.000917811 0 0)
(6.47472 0.0155603 0 0.000891511 0 0)
(6.61585 0.0155538 0 0.00086624 0 0)
(6.7577 0.0155817 0 0.000841929 0 0)
(6.90024 0.0156404 0 0.000818522 0 0)
(7.04349 0.0157237 0 0.000796018 0 0)
(7.18742 0.0158251 0 0.00077438 0 0)
(7.33204 0.0159379 0 0.00075358 0 0)
(7.47734 0.0160561 0 0.000733625 0 0)
(7.62329 0.0161735 0 0.000714503 0 0)
(7.7699 0.0162849 0 0.000696145 0 0)
(7.91715 0.0163873 0 0.000678411 0 0)
(8.06503 0.0164802 0 0.000661213 0 0)
(8.21352 0.0165653 0 0.000644499 0 0)
(8.36263 0.0166448 0 0.000628307 0 0)
(8.51234 0.0167215 0 0.000612597 0 0)
(8.66264 0.0167978 0 0.000597267 0 0)
(8.81353 0.0168765 0 0.000582286 0 0)
(8.96502 0.0169596 0 0.000567677 0 0)
(9.11708 0.0170466 0 0.000553491 0 0)
(9.26972 0.0171367 0 0.000539693 0 0)
(9.42294 0.0172274 0 0.000526189 0 0)
(9.57671 0.0173157 0 0.000512973 0 0)
(9.73105 0.017398 0 0.000500049 0 0)
(9.88594 0.0174693 0 0.000487416 0 0)
(10.0414 0.0175259 0 0.000474966 0 0)
(10.1973 0.0175646 0 0.000462627 0 0)
(10.3538 0.0175835 0 0.000450391 0 0)
(10.5108 0.0175814 0 0.000438285 0 0)
(10.6684 0.0175591 0 0.000426265 0 0)
(10.8264 0.0175174 0 0.000414256 0 0)
(10.9849 0.0174595 0 0.000402259 0 0)
(11.1438 0.017389 0 0.000390326 0 0)
(11.3033 0.0173097 0 0.000378513 0 0)
(11.4632 0.0172262 0 0.000366794 0 0)
(11.6235 0.0171425 0 0.000355102 0 0)
(11.7843 0.0170635 0 0.00034351 0 0)
(11.9454 0.0169937 0 0.000332106 0 0)
(12.107 0.016936 0 0.000320967 0 0)
(12.2689 0.0168941 0 0.000310037 0 0)
(12.4313 0.0168699 0 0.000299272 0 0)
(12.5939 0.0168659 0 0.000288707 0 0)
(12.7569 0.0168837 0 0.000278475 0 0)
(12.9203 0.0169238 0 0.000268574 0 0)
(13.0839 0.0169865 0 0.000258999 0 0)
(13.2479 0.0170712 0 0.000249624 0 0)
(13.4122 0.0171776 0 0.000240579 0 0)
(13.5769 0.0173052 0 0.000231846 0 0)
(13.7418 0.0174522 0 0.000223591 0 0)
(13.9071 0.0176177 0 0.000215548 0 0)
(14.0727 0.0177986 0 0.000207932 0 0)
(14.2387 0.0179964 0 0.000200432 0 0)
(14.4047 0.0182043 0 0.000193637 0 0)
(14.5715 0.0184313 0 0.000186857 0 0)
(14.7375 0.0186599 0 0.000180942 0 0)
(14.9051 0.0189247 0 0.000174658 0 0)
(15.0703 0.0191706 0 0.000169623 0 0)
(15.2389 0.0195117 0 0.000164109 0 0)
(15.4015 0.019773 0 0.000160208 0 0)
(15.5725 0.020319 0 0.000155762 0 0)
(15.7285 0.0205984 0 0.000152705 0 0)
(15.9057 0.0217102 0 0.000150903 0 0)
(16.0473 0.0219728 0 0.000148524 0 0)
(16.2409 0.0247229 0 0.000157147 0 0)
(16.3493 0.0248656 0 0.000154355 0 0)
(16.6096 0.0317684 0 0.000205217 0 0)
(0.083196 0.0003203 0 5.43016e-06 0 0)
(0.0474635 0.000937844 0 5.65742e-05 0 0)
(0.0896924 0.00124799 0 0.000180593 0 0)
(0.15396 0.00212194 0 0.000392616 0 0)
(0.221865 0.00396918 0 0.000694211 0 0)
(0.294687 0.00645575 0 0.00107681 0 0)
(0.372713 0.00916116 0 0.00152469 0 0)
(0.455202 0.0119135 0 0.00201421 0 0)
(0.542714 0.0147432 0 0.00251408 0 0)
(0.635858 0.0176844 0 0.00299118 0 0)
(0.734734 0.0206776 0 0.00341881 0 0)
(0.839054 0.0235934 0 0.0037819 0 0)
(0.948476 0.0262865 0 0.00407435 0 0)
(1.06281 0.0286323 0 0.00429343 0 0)
(1.18181 0.0305496 0 0.00443858 0 0)
(1.30491 0.0319954 0 0.00451192 0 0)
(1.43135 0.032948 0 0.00451932 0 0)
(1.56046 0.0334125 0 0.00446891 0 0)
(1.69166 0.0334417 0 0.00437052 0 0)
(1.82431 0.0331229 0 0.00423434 0 0)
(1.95779 0.0325476 0 0.00407037 0 0)
(2.09171 0.0317956 0 0.00388745 0 0)
(2.22588 0.0309407 0 0.00369286 0 0)
(2.36019 0.0300534 0 0.00349264 0 0)
(2.49455 0.0291874 0 0.00329214 0 0)
(2.62893 0.0283713 0 0.00309549 0 0)
(2.76334 0.0276174 0 0.00290572 0 0)
(2.89785 0.0269316 0 0.0027251 0 0)
(3.03248 0.0263169 0 0.00255511 0 0)
(3.1673 0.025773 0 0.00239638 0 0)
(3.30235 0.0252981 0 0.00224901 0 0)
(3.43768 0.0248895 0 0.0021127 0 0)
(3.57335 0.0245438 0 0.00198698 0 0)
(3.70943 0.0242561 0 0.00187127 0 0)
(3.84597 0.0240201 0 0.00176496 0 0)
(3.98304 0.0238278 0 0.00166742 0 0)
(4.12066 0.0236703 0 0.00157802 0 0)
(4.2589 0.0235384 0 0.00149611 0 0)
(4.39778 0.0234233 0 0.00142116 0 0)
(4.53734 0.023317 0 0.00135259 0 0)
(4.67758 0.023213 0 0.00128988 0 0)
(4.81854 0.023106 0 0.00123253 0 0)
(4.9602 0.0229926 0 0.00118009 0 0)
(5.10258 0.0228706 0 0.00113207 0 0)
(5.24567 0.0227395 0 0.00108807 0 0)
(5.38946 0.0226001 0 0.00104762 0 0)
(5.53396 0.0224551 0 0.00101037 0 0)
(5.67914 0.0223076 0 0.000975986 0 0)
(5.82501 0.0221612 0 0.00094417 0 0)
(5.97155 0.0220192 0 0.000914622 0 0)
(6.11877 0.0218855 0 0.000887076 0 0)
(6.26666 0.0217629 0 0.000861253 0 0)
(6.41521 0.0216545 0 0.000836948 0 0)
(6.56441 0.0215619 0 0.000813972 0 0)
(6.71427 0.0214871 0 0.000792225 0 0)
(6.86477 0.0214318 0 0.000771601 0 0)
(7.0159 0.0213965 0 0.000752022 0 0)
(7.16766 0.0213799 0 0.000733386 0 0)
(7.32003 0.0213799 0 0.000715652 0 0)
(7.47299 0.0213938 0 0.000698787 0 0)
(7.62653 0.0214187 0 0.000682761 0 0)
(7.78062 0.0214508 0 0.000667516 0 0)
(7.93524 0.021487 0 0.000653039 0 0)
(8.09035 0.0215231 0 0.000639271 0 0)
(8.24592 0.0215566 0 0.000626172 0 0)
(8.40192 0.0215858 0 0.00061368 0 0)
(8.55831 0.0216103 0 0.000601765 0 0)
(8.71506 0.0216293 0 0.000590378 0 0)
(8.87215 0.0216426 0 0.000579499 0 0)
(9.02954 0.0216499 0 0.000569074 0 0)
(9.18721 0.0216517 0 0.000559085 0 0)
(9.34512 0.0216471 0 0.000549479 0 0)
(9.50327 0.0216355 0 0.000540244 0 0)
(9.66163 0.0216142 0 0.000531325 0 0)
(9.82018 0.0215818 0 0.000522704 0 0)
(9.9789 0.0215357 0 0.000514323 0 0)
(10.1378 0.0214737 0 0.000506158 0 0)
(10.2968 0.0213922 0 0.000498139 0 0)
(10.4559 0.0212892 0 0.000490255 0 0)
(10.615 0.021163 0 0.000482459 0 0)
(10.7743 0.0210134 0 0.000474739 0 0)
(10.9335 0.0208391 0 0.000467021 0 0)
(11.0928 0.020641 0 0.000459285 0 0)
(11.2521 0.0204207 0 0.000451516 0 0)
(11.4113 0.0201811 0 0.000443729 0 0)
(11.5704 0.019925 0 0.000435901 0 0)
(11.7295 0.0196557 0 0.00042802 0 0)
(11.8885 0.0193761 0 0.00042006 0 0)
(12.0474 0.0190902 0 0.000412056 0 0)
(12.2062 0.0188014 0 0.000404012 0 0)
(12.3648 0.0185145 0 0.000395983 0 0)
(12.5233 0.0182323 0 0.00038796 0 0)
(12.6817 0.0179577 0 0.000379966 0 0)
(12.8399 0.0176915 0 0.000371965 0 0)
(12.9979 0.0174365 0 0.000364014 0 0)
(13.1558 0.0171941 0 0.0003561 0 0)
(13.3136 0.0169666 0 0.000348311 0 0)
(13.4712 0.0167533 0 0.000340577 0 0)
(13.6287 0.0165547 0 0.000332984 0 0)
(13.7861 0.0163697 0 0.000325428 0 0)
(13.9434 0.0162002 0 0.000318085 0 0)
(14.1007 0.0160434 0 0.000310786 0 0)
(14.2579 0.0159022 0 0.00030382 0 0)
(14.4152 0.0157701 0 0.000296841 0 0)
(14.5724 0.0156529 0 0.000290362 0 0)
(14.7298 0.0155396 0 0.000283694 0 0)
(14.8869 0.0154431 0 0.000277846 0 0)
(15.0445 0.0153432 0 0.000271438 0 0)
(15.2012 0.0152647 0 0.000266418 0 0)
(15.3591 0.0151736 0 0.000260092 0 0)
(15.5148 0.0151159 0 0.000256141 0 0)
(15.6733 0.0150418 0 0.000249532 0 0)
(15.8263 0.0150233 0 0.000247054 0 0)
(15.9865 0.0150113 0 0.000239503 0 0)
(16.1337 0.0150843 0 0.000239243 0 0)
(16.2989 0.0152842 0 0.000229994 0 0)
(16.4343 0.0155648 0 0.000232931 0 0)
(16.6125 0.0163846 0 0.000223247 0 0)
(16.7208 0.0169539 0 0.000228942 0 0)
(16.9606 0.0189627 0 0.00022917 0 0)
(0.083195 0.000154435 0 2.00407e-06 0 0)
(0.0474356 0.000530749 0 1.82235e-05 0 0)
(0.0896359 0.000743443 0 5.72293e-05 0 0)
(0.153764 0.00124371 0 0.00012522 0 0)
(0.221363 0.00228846 0 0.000223427 0 0)
(0.293737 0.00369441 0 0.000348867 0 0)
(0.371179 0.00522095 0 0.000496226 0 0)
(0.452925 0.00676808 0 0.000658342 0 0)
(0.539496 0.00835205 0 0.000825988 0 0)
(0.631472 0.00999241 0 0.000989112 0 0)
(0.728946 0.0116592 0 0.0011391 0 0)
(0.831645 0.0132906 0 0.00127045 0 0)
(0.939249 0.0148192 0 0.00138084 0 0)
(1.05159 0.0161818 0 0.00146978 0 0)
(1.16845 0.0173255 0 0.00153729 0 0)
(1.28927 0.01821 0 0.00158349 0 0)
(1.41335 0.0188009 0 0.00160882 0 0)
(1.54011 0.0190751 0 0.00161407 0 0)
(1.66909 0.019042 0 0.00160045 0 0)
(1.79977 0.0187486 0 0.0015696 0 0)
(1.93161 0.0182607 0 0.00152375 0 0)
(2.06423 0.0176419 0 0.00146542 0 0)
(2.19745 0.0169499 0 0.00139725 0 0)
(2.33112 0.0162378 0 0.00132186 0 0)
(2.46512 0.0155465 0 0.00124202 0 0)
(2.59934 0.0148996 0 0.00116022 0 0)
(2.73378 0.0143076 0 0.00107866 0 0)
(2.86845 0.013774 0 0.00099912 0 0)
(3.00338 0.0132999 0 0.000922939 0 0)
(3.13862 0.012885 0 0.000851004 0 0)
(3.27421 0.0125283 0 0.000783825 0 0)
(3.4102 0.0122285 0 0.000721607 0 0)
(3.54664 0.0119834 0 0.000664369 0 0)
(3.6836 0.0117894 0 0.000611993 0 0)
(3.82114 0.0116413 0 0.000564283 0 0)
(3.9593 0.0115329 0 0.000520995 0 0)
(4.09814 0.0114574 0 0.000481868 0 0)
(4.23771 0.0114073 0 0.000446621 0 0)
(4.37803 0.0113751 0 0.000414959 0 0)
(4.51915 0.0113538 0 0.000386594 0 0)
(4.66109 0.0113372 0 0.000361248 0 0)
(4.80386 0.0113198 0 0.000338657 0 0)
(4.94748 0.0112977 0 0.000318573 0 0)
(5.09196 0.0112682 0 0.000300753 0 0)
(5.2373 0.0112303 0 0.000284967 0 0)
(5.3835 0.0111842 0 0.000270995 0 0)
(5.53055 0.0111314 0 0.000258637 0 0)
(5.67846 0.0110743 0 0.000247705 0 0)
(5.82722 0.0110156 0 0.000238014 0 0)
(5.97683 0.0109587 0 0.000229392 0 0)
(6.12729 0.010907 0 0.000221687 0 0)
(6.27859 0.0108642 0 0.000214762 0 0)
(6.43073 0.0108336 0 0.000208502 0 0)
(6.58371 0.0108182 0 0.000202805 0 0)
(6.73753 0.0108202 0 0.00019758 0 0)
(6.89218 0.0108413 0 0.000192753 0 0)
(7.04767 0.0108825 0 0.000188262 0 0)
(7.20397 0.0109441 0 0.000184071 0 0)
(7.36109 0.0110254 0 0.00018015 0 0)
(7.51901 0.011125 0 0.000176477 0 0)
(7.6777 0.0112408 0 0.00017304 0 0)
(7.83716 0.0113698 0 0.000169828 0 0)
(7.99735 0.0115087 0 0.000166828 0 0)
(8.15824 0.0116539 0 0.00016403 0 0)
(8.3198 0.0118029 0 0.000161432 0 0)
(8.48199 0.0119535 0 0.00015903 0 0)
(8.64478 0.0121035 0 0.000156813 0 0)
(8.80814 0.0122515 0 0.000154775 0 0)
(8.97202 0.0123958 0 0.000152894 0 0)
(9.1364 0.0125356 0 0.000151164 0 0)
(9.30125 0.0126706 0 0.000149578 0 0)
(9.46653 0.0128 0 0.000148125 0 0)
(9.63223 0.0129227 0 0.000146792 0 0)
(9.79831 0.0130373 0 0.000145562 0 0)
(9.96475 0.0131427 0 0.000144428 0 0)
(10.1315 0.013238 0 0.00014338 0 0)
(10.2986 0.0133217 0 0.000142402 0 0)
(10.466 0.0133924 0 0.000141482 0 0)
(10.6336 0.0134484 0 0.000140601 0 0)
(10.8015 0.0134891 0 0.000139749 0 0)
(10.9695 0.0135133 0 0.000138905 0 0)
(11.1378 0.0135209 0 0.000138055 0 0)
(11.3061 0.013512 0 0.000137185 0 0)
(11.4746 0.0134874 0 0.00013629 0 0)
(11.6431 0.0134488 0 0.000135362 0 0)
(11.8117 0.0133974 0 0.000134385 0 0)
(11.9803 0.0133353 0 0.000133354 0 0)
(12.1488 0.0132647 0 0.000132265 0 0)
(12.3174 0.0131886 0 0.000131127 0 0)
(12.4859 0.0131099 0 0.000129945 0 0)
(12.6544 0.0130301 0 0.000128711 0 0)
(12.8228 0.0129509 0 0.000127413 0 0)
(12.9911 0.0128743 0 0.000126054 0 0)
(13.1593 0.0128027 0 0.000124642 0 0)
(13.3274 0.0127385 0 0.000123199 0 0)
(13.4954 0.0126825 0 0.000121715 0 0)
(13.6633 0.0126352 0 0.0001202 0 0)
(13.8311 0.0125965 0 0.000118637 0 0)
(13.9988 0.012568 0 0.000117068 0 0)
(14.1665 0.0125492 0 0.000115475 0 0)
(14.3341 0.0125416 0 0.000113917 0 0)
(14.5018 0.0125425 0 0.000112336 0 0)
(14.6694 0.0125536 0 0.000110816 0 0)
(14.8371 0.0125703 0 0.000109257 0 0)
(15.0047 0.0125975 0 0.000107843 0 0)
(15.1726 0.0126257 0 0.000106355 0 0)
(15.3402 0.0126648 0 0.00010514 0 0)
(15.5085 0.0126962 0 0.000103736 0 0)
(15.6757 0.0127414 0 0.000102831 0 0)
(15.8444 0.0127678 0 0.000101535 0 0)
(16.0106 0.0128165 0 0.000101126 0 0)
(16.1801 0.0128323 0 9.99099e-05 0 0)
(16.3435 0.0128895 0 0.000100243 0 0)
(16.5153 0.0129084 0 9.9058e-05 0 0)
(16.6726 0.0130073 0 0.000100497 0 0)
(16.8502 0.0130955 0 9.93782e-05 0 0)
(16.9948 0.0133142 0 0.000102227 0 0)
(17.1873 0.0136177 0 0.000102299 0 0)
(17.3024 0.0139907 0 0.000105957 0 0)
(17.5616 0.0146665 0 0.000111444 0 0)
(0.0831949 -4.2854e-06 0 5.27583e-07 0 0)
(0.0474227 0.000137749 0 1.831e-06 0 0)
(0.0896067 0.000248308 0 4.24403e-06 0 0)
(0.153667 0.000389439 0 8.94138e-06 0 0)
(0.221116 0.000670505 0 1.62555e-05 0 0)
(0.29327 0.00105206 0 2.60059e-05 0 0)
(0.370435 0.00146516 0 3.78282e-05 0 0)
(0.451842 0.00187923 0 5.12615e-05 0 0)
(0.537992 0.00229422 0 6.56222e-05 0 0)
(0.629453 0.0027111 0 8.01107e-05 0 0)
(0.726338 0.00312151 0 9.39767e-05 0 0)
(0.828395 0.00351399 0 0.000106706 0 0)
(0.935291 0.00387376 0 0.000118057 0 0)
(1.04683 0.00417861 0 0.000128064 0 0)
(1.1628 0.00440355 0 0.000136747 0 0)
(1.28269 0.00453043 0 0.000144078 0 0)
(1.40582 0.00454894 0 0.000149901 0 0)
(1.53167 0.00445798 0 0.000154087 0 0)
(1.65987 0.00427176 0 0.000156446 0 0)
(1.78992 0.00402245 0 0.000156874 0 0)
(1.92126 0.00374777 0 0.000155361 0 0)
(2.0535 0.00347857 0 0.000152079 0 0)
(2.18642 0.00323496 0 0.000147298 0 0)
(2.31987 0.0030307 0 0.000141381 0 0)
(2.4537 0.00287382 0 0.000134666 0 0)
(2.58779 0.00276689 0 0.000127459 0 0)
(2.72211 0.00270767 0 0.000119995 0 0)
(2.85667 0.00269142 0 0.000112474 0 0)
(2.99152 0.00271258 0 0.000105045 0 0)
(3.12666 0.00276597 0 9.7831e-05 0 0)
(3.26216 0.00284662 0 9.09142e-05 0 0)
(3.39806 0.0029501 0 8.43495e-05 0 0)
(3.53441 0.00307147 0 7.81662e-05 0 0)
(3.67126 0.00320545 0 7.23873e-05 0 0)
(3.80868 0.00334617 0 6.70249e-05 0 0)
(3.94671 0.0034876 0 6.20913e-05 0 0)
(4.0854 0.0036235 0 5.75921e-05 0 0)
(4.2248 0.00374786 0 5.35318e-05 0 0)
(4.36495 0.00385505 0 4.99078e-05 0 0)
(4.50588 0.00394042 0 4.67171e-05 0 0)
(4.64763 0.00399992 0 4.3954e-05 0 0)
(4.7902 0.0040307 0 4.16114e-05 0 0)
(4.93363 0.00403106 0 3.96758e-05 0 0)
(5.07792 0.00400086 0 3.81279e-05 0 0)
(5.22307 0.00394116 0 3.69415e-05 0 0)
(5.3691 0.00385421 0 3.60851e-05 0 0)
(5.51599 0.00374326 0 3.55212e-05 0 0)
(5.66376 0.00361233 0 3.52085e-05 0 0)
(5.81239 0.00346582 0 3.51035e-05 0 0)
(5.96189 0.00330872 0 3.51613e-05 0 0)
(6.11225 0.00314596 0 3.53395e-05 0 0)
(6.26347 0.00298262 0 3.55972e-05 0 0)
(6.41554 0.00282354 0 3.58949e-05 0 0)
(6.56846 0.00267305 0 3.61975e-05 0 0)
(6.72222 0.00253484 0 3.64733e-05 0 0)
(6.87682 0.00241174 0 3.66984e-05 0 0)
(7.03226 0.00230603 0 3.68552e-05 0 0)
(7.18852 0.00221934 0 3.69332e-05 0 0)
(7.34559 0.00215271 0 3.69256e-05 0 0)
(7.50346 0.00210604 0 3.68326e-05 0 0)
(7.6621 0.00207883 0 3.66568e-05 0 0)
(7.8215 0.00206977 0 3.64059e-05 0 0)
(7.98162 0.00207733 0 3.60883e-05 0 0)
(8.14245 0.00209979 0 3.57156e-05 0 0)
(8.30394 0.00213538 0 3.52999e-05 0 0)
(8.46606 0.0021824 0 3.48522e-05 0 0)
(8.62879 0.00223911 0 3.43822e-05 0 0)
(8.79208 0.0023042 0 3.38982e-05 0 0)
(8.9559 0.00237629 0 3.34077e-05 0 0)
(9.12023 0.00245431 0 3.29179e-05 0 0)
(9.28503 0.00253733 0 3.2435e-05 0 0)
(9.45027 0.00262449 0 3.19652e-05 0 0)
(9.61594 0.00271466 0 3.15139e-05 0 0)
(9.782 0.00280645 0 3.10862e-05 0 0)
(9.94844 0.00289831 0 3.0687e-05 0 0)
(10.1152 0.00298887 0 3.03207e-05 0 0)
(10.2824 0.00307663 0 2.99909e-05 0 0)
(10.4498 0.00316032 0 2.96998e-05 0 0)
(10.6175 0.00323845 0 2.94487e-05 0 0)
(10.7854 0.00331002 0 2.9238e-05 0 0)
(10.9536 0.00337403 0 2.90681e-05 0 0)
(11.1219 0.0034298 0 2.89399e-05 0 0)
(11.2905 0.00347676 0 2.88529e-05 0 0)
(11.4591 0.00351475 0 2.88051e-05 0 0)
(11.6279 0.00354389 0 2.87944e-05 0 0)
(11.7968 0.00356485 0 2.8818e-05 0 0)
(11.9657 0.00357856 0 2.88731e-05 0 0)
(12.1347 0.00358628 0 2.89564e-05 0 0)
(12.3037 0.00358927 0 2.90643e-05 0 0)
(12.4727 0.00358867 0 2.91922e-05 0 0)
(12.6417 0.0035855 0 2.93358e-05 0 0)
(12.8107 0.00358112 0 2.94914e-05 0 0)
(12.9796 0.00357682 0 2.9657e-05 0 0)
(13.1486 0.00357382 0 2.98307e-05 0 0)
(13.3174 0.00357297 0 3.00106e-05 0 0)
(13.4863 0.00357486 0 3.01934e-05 0 0)
(13.6551 0.00357994 0 3.03789e-05 0 0)
(13.8238 0.0035887 0 3.05671e-05 0 0)
(13.9926 0.00360159 0 3.07623e-05 0 0)
(14.1613 0.00361848 0 3.09654e-05 0 0)
(14.3301 0.00363926 0 3.11832e-05 0 0)
(14.4989 0.0036631 0 3.14153e-05 0 0)
(14.6677 0.00369016 0 3.16744e-05 0 0)
(14.8368 0.00371875 0 3.1962e-05 0 0)
(15.0058 0.003749 0 3.23018e-05 0 0)
(15.1751 0.00377744 0 3.26933e-05 0 0)
(15.3442 0.00380484 0 3.31731e-05 0 0)
(15.514 0.00382452 0 3.37406e-05 0 0)
(15.6829 0.0038399 0 3.44491e-05 0 0)
(15.8533 0.00383769 0 3.53135e-05 0 0)
(16.0211 0.00382832 0 3.63821e-05 0 0)
(16.1926 0.00378471 0 3.7747e-05 0 0)
(16.3577 0.00373732 0 3.93619e-05 0 0)
(16.5316 0.0036294 0 4.15967e-05 0 0)
(16.6907 0.00354463 0 4.39602e-05 0 0)
(16.8709 0.00335356 0 4.77492e-05 0 0)
(17.0171 0.00327781 0 5.08339e-05 0 0)
(17.2129 0.00298317 0 5.76039e-05 0 0)
(17.3289 0.00303308 0 6.02661e-05 0 0)
(17.5924 0.00251444 0 7.32664e-05 0 0)
(0.0831957 -0.000163205 0 9.54515e-07 0 0)
(0.0474233 -0.000253962 0 5.94857e-06 0 0)
(0.0896038 -0.000247743 0 1.55656e-05 0 0)
(0.15366 -0.000461431 0 3.04487e-05 0 0)
(0.221106 -0.000932468 0 5.04545e-05 0 0)
(0.293256 -0.00155644 0 7.48201e-05 0 0)
(0.370415 -0.0022335 0 0.000102407 0 0)
(0.451817 -0.00293184 0 0.000131944 0 0)
(0.537963 -0.00367086 0 0.000161946 0 0)
(0.629421 -0.00446322 0 0.000190887 0 0)
(0.726304 -0.00529444 0 0.000217429 0 0)
(0.82836 -0.00613707 0 0.000240663 0 0)
(0.935258 -0.00696041 0 0.000260083 0 0)
(1.04681 -0.00772945 0 0.000275369 0 0)
(1.16279 -0.00840971 0 0.0002862 0 0)
(1.28269 -0.00897686 0 0.000292436 0 0)
(1.40583 -0.0094158 0 0.000294018 0 0)
(1.53171 -0.00972019 0 0.000291153 0 0)
(1.65993 -0.00989584 0 0.000284211 0 0)
(1.79001 -0.00996167 0 0.000273862 0 0)
(1.9214 -0.00993764 0 0.000260874 0 0)
(2.05369 -0.00983553 0 0.000246059 0 0)
(2.18665 -0.00966098 0 0.000230143 0 0)
(2.32014 -0.00942142 0 0.000213805 0 0)
(2.45399 -0.00912774 0 0.00019762 0 0)
(2.58808 -0.00879298 0 0.000182077 0 0)
(2.7224 -0.00843067 0 0.000167501 0 0)
(2.85695 -0.00805391 0 0.000154108 0 0)
(2.99177 -0.00767554 0 0.000141978 0 0)
(3.12688 -0.00730793 0 0.000131124 0 0)
(3.26234 -0.00696217 0 0.000121511 0 0)
(3.39819 -0.0066466 0 0.000113097 0 0)
(3.53448 -0.00636772 0 0.000105809 0 0)
(3.67128 -0.00613022 0 9.95671e-05 0 0)
(3.80862 -0.00593686 0 9.42766e-05 0 0)
(3.94658 -0.00578896 0 8.98544e-05 0 0)
(4.08519 -0.00568606 0 8.6218e-05 0 0)
(4.22451 -0.0056273 0 8.32935e-05 0 0)
(4.36457 -0.00561056 0 8.10109e-05 0 0)
(4.50541 -0.00563347 0 7.93107e-05 0 0)
(4.64706 -0.00569334 0 7.81292e-05 0 0)
(4.78955 -0.00578757 0 7.74094e-05 0 0)
(4.93289 -0.00591298 0 7.70941e-05 0 0)
(5.07709 -0.00606617 0 7.7135e-05 0 0)