/*--------------------------------*- C++ -*----------------------------------*\
  =========                 |
  \\      /  F ield         | OpenFOAM: The Open Source CFD Toolbox
   \\    /   O peration     | Website:  https://openfoam.org
    \\  /    A nd           | Version:  7
     \\/     M anipulation  |
\*---------------------------------------------------------------------------*/
FoamFile
{
    version     2.0;
    format      ascii;
    class       volVectorField;
    location    "1.2025";
    object      UMean;
}
// * * * * * * * * * * * * * * * * * * * * * * * * * * * * * * * * * * * * * //

dimensions      [0 1 -1 0 0 0 0];

internalField   nonuniform List<vector> 
7920
(
(2.94671 0.0987861 -32.3855)
(2.15596 -0.457686 -32.4396)
(1.46693 -0.608105 -32.4412)
(1.37684 -0.662562 -32.4507)
(1.15384 -0.678797 -32.4471)
(1.19029 -0.683602 -32.4528)
(1.05661 -0.687594 -32.4493)
(1.1089 -0.687776 -32.4534)
(1.00885 -0.689951 -32.4507)
(1.05891 -0.689582 -32.4538)
(0.979307 -0.69103 -32.4518)
(1.02406 -0.690414 -32.4542)
(0.95922 -0.691365 -32.4527)
(0.998418 -0.690779 -32.4546)
(0.944689 -0.691188 -32.4537)
(0.978987 -0.691283 -32.4548)
(0.9321 -0.687693 -32.455)
(0.959022 -0.693943 -32.4545)
(0.920221 -0.638258 -32.4578)
(0.763727 -0.646311 -32.4471)
(4.41025 0.951665 -32.4322)
(4.34792 0.852239 -32.4778)
(3.72119 0.798243 -32.4817)
(3.60287 0.732962 -32.4947)
(3.22968 0.706911 -32.4938)
(3.24673 0.694623 -32.5007)
(3.00479 0.688838 -32.4988)
(3.06267 0.685893 -32.503)
(2.88325 0.684082 -32.5014)
(2.94746 0.682701 -32.5043)
(2.80596 0.681725 -32.5033)
(2.86721 0.680732 -32.5054)
(2.75249 0.680125 -32.5051)
(2.80842 0.679456 -32.5064)
(2.71325 0.678783 -32.5071)
(2.76588 0.679408 -32.507)
(2.67832 0.675982 -32.5102)
(2.75092 0.681963 -32.5053)
(2.62299 0.672733 -32.518)
(2.91466 0.669099 -32.4804)
(4.74588 0.185717 -32.4368)
(5.24346 -0.236668 -32.4726)
(5.09395 -0.382648 -32.4653)
(5.21057 -0.49982 -32.4774)
(4.97198 -0.562454 -32.4727)
(5.03307 -0.597336 -32.4817)
(4.82872 -0.61984 -32.4777)
(4.88369 -0.632369 -32.4843)
(4.71819 -0.641756 -32.481)
(4.77041 -0.647562 -32.486)
(4.6361 -0.652292 -32.4837)
(4.68454 -0.655618 -32.4875)
(4.57449 -0.658334 -32.4863)
(4.6184 -0.660348 -32.4889)
(4.52805 -0.662407 -32.4896)
(4.56484 -0.662225 -32.4902)
(4.49592 -0.666416 -32.4942)
(4.50825 -0.658734 -32.4902)
(4.48076 -0.663356 -32.5015)
(4.40692 -0.669804 -32.4709)
(4.7466 0.638879 -32.4466)
(5.2657 0.732607 -32.4797)
(5.34708 0.7764 -32.4706)
(5.64056 0.745802 -32.4793)
(5.56753 0.72796 -32.4743)
(5.73351 0.713753 -32.4813)
(5.63087 0.703818 -32.4777)
(5.7418 0.696239 -32.4831)
(5.64185 0.690637 -32.4804)
(5.72381 0.685579 -32.4843)
(5.63402 0.682036 -32.4826)
(5.69827 0.678405 -32.4854)
(5.61937 0.676214 -32.4849)
(5.67246 0.673427 -32.4867)
(5.60206 0.672446 -32.4875)
(5.65097 0.66981 -32.4882)
(5.58171 0.671358 -32.491)
(5.64345 0.66735 -32.4898)
(5.55944 0.679667 -32.4953)
(5.69777 0.697344 -32.4707)
(4.73854 -0.089315 -32.4458)
(5.23105 -0.386576 -32.4782)
(5.3673 -0.479416 -32.4661)
(5.71189 -0.545353 -32.4747)
(5.70085 -0.580693 -32.4672)
(5.91894 -0.600362 -32.4743)
(5.87254 -0.613947 -32.469)
(6.02642 -0.621604 -32.4746)
(5.97399 -0.628065 -32.4706)
(6.08951 -0.63221 -32.4749)
(6.03845 -0.636101 -32.472)
(6.12787 -0.638858 -32.4753)
(6.08035 -0.641766 -32.4735)
(6.15077 -0.643261 -32.4761)
(6.10826 -0.646756 -32.4753)
(6.16231 -0.644545 -32.4774)
(6.13073 -0.654133 -32.4779)
(6.15927 -0.640217 -32.4796)
(6.15825 -0.666738 -32.4812)
(6.13779 -0.677692 -32.4607)
(4.72588 0.347638 -32.4494)
(5.17569 0.548717 -32.4823)
(5.32252 0.62525 -32.4701)
(5.68222 0.644751 -32.4785)
(5.69349 0.654511 -32.4706)
(5.93305 0.657488 -32.4776)
(5.91005 0.659294 -32.4719)
(6.08477 0.659266 -32.4773)
(6.05489 0.659462 -32.4729)
(6.18919 0.658772 -32.4771)
(6.15859 0.658628 -32.4738)
(6.26413 0.657858 -32.4771)
(6.23426 0.657913 -32.4749)
(6.3182 0.656852 -32.4777)
(6.28984 0.65806 -32.4764)
(6.35668 0.654847 -32.4787)
(6.3327 0.661535 -32.4784)
(6.38309 0.650856 -32.4807)
(6.37542 0.674973 -32.4813)
(6.41393 0.695169 -32.4607)
(4.72588 -0.347638 -32.4494)
(5.17569 -0.548717 -32.4823)
(5.32252 -0.62525 -32.4701)
(5.68222 -0.644751 -32.4785)
(5.69349 -0.654511 -32.4706)
(5.93305 -0.657487 -32.4776)
(5.91005 -0.659294 -32.4719)
(6.08477 -0.659263 -32.4773)
(6.05489 -0.65946 -32.4729)
(6.18919 -0.658766 -32.4771)
(6.1586 -0.658617 -32.4738)
(6.26412 -0.657841 -32.4772)
(6.23429 -0.657883 -32.4749)
(6.31818 -0.656788 -32.4777)
(6.28991 -0.658 -32.4763)
(6.35662 -0.654597 -32.4788)
(6.33289 -0.661442 -32.4783)
(6.38291 -0.650071 -32.4807)
(6.37563 -0.674564 -32.4813)
(6.41353 -0.693613 -32.4607)
(4.73854 0.089315 -32.4458)
(5.23105 0.386576 -32.4782)
(5.3673 0.479416 -32.4661)
(5.71189 0.545353 -32.4747)
(5.70085 0.580693 -32.4672)
(5.91894 0.600363 -32.4744)
(5.87254 0.613948 -32.469)
(6.02642 0.621606 -32.4746)
(5.97398 0.628068 -32.4706)
(6.08952 0.632215 -32.4749)
(6.03844 0.636113 -32.4719)
(6.1279 0.638869 -32.4754)
(6.08033 0.641801 -32.4734)
(6.15085 0.643309 -32.4763)
(6.10823 0.646828 -32.4751)
(6.16252 0.64476 -32.4777)
(6.13077 0.654249 -32.4775)
(6.15982 0.640975 -32.48)
(6.15876 0.667151 -32.4807)
(6.13939 0.679392 -32.4611)
(4.7466 -0.638879 -32.4466)
(5.2657 -0.732607 -32.4797)
(5.34708 -0.7764 -32.4706)
(5.64056 -0.745801 -32.4793)
(5.56753 -0.72796 -32.4743)
(5.73351 -0.713752 -32.4813)
(5.63087 -0.703818 -32.4777)
(5.74181 -0.696236 -32.4831)
(5.64185 -0.690636 -32.4804)
(5.72382 -0.685573 -32.4844)
(5.63402 -0.68203 -32.4825)
(5.69829 -0.678388 -32.4856)
(5.61939 -0.676195 -32.4846)
(5.67254 -0.673365 -32.4871)
(5.60215 -0.672414 -32.4869)
(5.65113 -0.669569 -32.489)
(5.58208 -0.671345 -32.4897)
(5.64375 -0.66664 -32.4915)
(5.56047 -0.679505 -32.493)
(5.69848 -0.69624 -32.4737)
(4.74588 -0.185717 -32.4368)
(5.24346 0.236668 -32.4726)
(5.09395 0.382648 -32.4653)
(5.21057 0.49982 -32.4774)
(4.97198 0.562454 -32.4727)
(5.03307 0.597336 -32.4817)
(4.82872 0.619841 -32.4777)
(4.8837 0.632369 -32.4844)
(4.71819 0.64176 -32.481)
(4.77043 0.647563 -32.4861)
(4.6361 0.652304 -32.4835)
(4.6846 0.655619 -32.4877)
(4.57449 0.658365 -32.486)
(4.61859 0.660359 -32.4895)
(4.52806 0.662475 -32.4887)
(4.56531 0.662313 -32.4917)
(4.49615 0.66653 -32.4917)
(4.50947 0.659183 -32.4943)
(4.4819 0.663681 -32.4948)
(4.41074 0.671052 -32.4813)
(4.41025 -0.951665 -32.4322)
(4.34792 -0.852239 -32.4778)
(3.72119 -0.798243 -32.4817)
(3.60287 -0.732962 -32.4947)
(3.22968 -0.706911 -32.4938)
(3.24673 -0.694622 -32.5007)
(3.0048 -0.688838 -32.4988)
(3.06268 -0.685892 -32.503)
(2.88325 -0.684082 -32.5014)
(2.94747 -0.682697 -32.5044)
(2.80597 -0.681724 -32.5032)
(2.86725 -0.680722 -32.5055)
(2.75252 -0.680123 -32.5048)
(2.80854 -0.679418 -32.5068)
(2.71337 -0.678791 -32.5064)
(2.76616 -0.679266 -32.5081)
(2.67888 -0.67607 -32.5081)
(2.75136 -0.681569 -32.5094)
(2.62493 -0.673023 -32.5093)
(2.91504 -0.669254 -32.4994)
(2.94671 -0.0987861 -32.3855)
(2.15596 0.457686 -32.4396)
(1.46693 0.608105 -32.4412)
(1.37684 0.662562 -32.4507)
(1.15384 0.678797 -32.4471)
(1.19029 0.683602 -32.4528)
(1.05661 0.687595 -32.4493)
(1.1089 0.687775 -32.4534)
(1.00885 0.689952 -32.4507)
(1.05892 0.68958 -32.4538)
(0.979312 0.691034 -32.4517)
(1.02409 0.690406 -32.4542)
(0.959232 0.691376 -32.4527)
(0.99849 0.690753 -32.4547)
(0.944736 0.691223 -32.4535)
(0.979166 0.691205 -32.4552)
(0.932359 0.687829 -32.4544)
(0.959394 0.693807 -32.4557)
(0.921327 0.638876 -32.4551)
(0.765593 0.647114 -32.4547)
(4.33038 0.554981 0.00706204)
(3.12982 0.832091 0.00462462)
(2.40213 0.853403 0.00587539)
(1.8795 0.837957 0.00441734)
(1.75685 0.840876 0.00553315)
(1.57962 0.852128 0.00437596)
(1.5785 0.861441 0.0053013)
(1.4765 0.868923 0.0043304)
(1.48637 0.872744 0.00508507)
(1.41625 0.87603 0.00426778)
(1.42565 0.877463 0.00488443)
(1.37585 0.87921 0.00419961)
(1.3828 0.87974 0.0047035)
(1.34599 0.880988 0.00413112)
(1.351 0.88065 0.00454112)
(1.32154 0.883096 0.00406277)
(1.32573 0.875252 0.00439587)
(1.31726 0.897996 0.00399242)
(1.25765 0.779034 0.00429205)
(1.71019 0.802588 0.00386693)
(4.74696 -0.104901 0.00450039)
(4.61189 -0.284185 0.00249528)
(4.53093 -0.48391 0.00377549)
(4.18222 -0.645262 0.00235078)
(4.05582 -0.737389 0.00347519)
(3.81244 -0.789237 0.00232361)
(3.75305 -0.814458 0.00325313)
(3.59657 -0.829911 0.00228474)
(3.56846 -0.838867 0.00304228)
(3.46217 -0.845632 0.00222651)
(3.44626 -0.850059 0.00284512)
(3.37087 -0.853784 0.00216108)
(3.35982 -0.856099 0.00266624)
(3.30378 -0.858742 0.00209424)
(3.29594 -0.859225 0.00250476)
(3.24901 -0.86282 0.00202716)
(3.2517 -0.860529 0.00235617)
(3.18846 -0.864965 0.00195998)
(3.25335 -0.87218 0.00219462)
(2.90371 -0.867051 0.00182393)
(4.62931 0.427675 0.00578857)
(4.81652 0.851582 0.00385708)
(5.10989 0.942856 0.00502053)
(5.05515 0.932366 0.00355637)
(5.10926 0.913965 0.00465531)
(4.98774 0.901193 0.00349148)
(4.99337 0.892168 0.00441517)
(4.89103 0.8868 0.0034435)
(4.888 0.880912 0.00419911)
(4.80873 0.877809 0.00338167)
(4.80216 0.873789 0.00399889)
(4.74125 0.872077 0.00331365)
(4.73252 0.869488 0.00381772)
(4.6861 0.868422 0.00324479)
(4.67414 0.866919 0.00365491)
(4.64325 0.865777 0.0031759)
(4.61727 0.863281 0.00350966)
(4.62626 0.867296 0.00310512)
(4.54727 0.824008 0.00340531)
(4.6794 0.872248 0.00300848)
(4.56941 -0.201913 0.00461781)
(4.69596 -0.3987 0.00290518)
(5.09854 -0.521317 0.00407316)
(5.19098 -0.625182 0.00263804)
(5.3846 -0.691811 0.00373907)
(5.3818 -0.737462 0.00257989)
(5.47631 -0.763048 0.0035067)
(5.45005 -0.781383 0.00253819)
(5.50177 -0.793117 0.00329654)
(5.47226 -0.802798 0.0024818)
(5.50107 -0.809819 0.0031009)
(5.47362 -0.815831 0.00241756)
(5.48919 -0.820561 0.00292271)
(5.46479 -0.824393 0.00235121)
(5.473 -0.828246 0.00276151)
(5.44928 -0.829441 0.00228428)
(5.45803 -0.83775 0.00261253)
(5.41651 -0.827886 0.0022153)
(5.458 -0.866295 0.00244814)
(5.25459 -0.872712 0.00210571)
(4.58194 0.336747 0.00526621)
(4.69294 0.67614 0.00359208)
(5.07658 0.786577 0.004713)
(5.18838 0.825924 0.00326403)
(5.41805 0.84147 0.00435227)
(5.4581 0.850289 0.00318645)
(5.5958 0.85334 0.00410984)
(5.61301 0.855428 0.00313913)
(5.70391 0.85448 0.00389633)
(5.71213 0.854491 0.00308047)
(5.77331 0.852846 0.00369878)
(5.77655 0.852485 0.00301466)
(5.81767 0.851163 0.0035192)
(5.81821 0.850501 0.00294709)
(5.84471 0.850311 0.00335709)
(5.84544 0.847862 0.00287904)
(5.85737 0.851208 0.00321066)
(5.86286 0.844778 0.00280836)
(5.86408 0.845994 0.00308989)
(5.84262 0.894304 0.00272384)
(4.57593 -0.266775 0.00489763)
(4.66565 -0.533308 0.00328749)
(5.04495 -0.646535 0.00440751)
(5.15872 -0.716035 0.00296566)
(5.39944 -0.755504 0.00405239)
(5.45335 -0.782236 0.00288682)
(5.6069 -0.796272 0.00381034)
(5.64054 -0.806511 0.00284001)
(5.74794 -0.811935 0.00359771)
(5.77269 -0.816955 0.00278241)
(5.84971 -0.81988 0.00340118)
(5.86811 -0.822953 0.00271753)
(5.92375 -0.825088 0.00322235)
(5.93677 -0.82675 0.00265067)
(5.97745 -0.829512 0.00306063)
(5.98459 -0.827943 0.00258328)
(6.01696 -0.836892 0.00291247)
(6.00671 -0.824693 0.00251315)
(6.05474 -0.855227 0.00276713)
(5.93994 -0.88388 0.00242237)
(4.57593 0.266775 0.00489763)
(4.66565 0.533309 0.00328749)
(5.04495 0.646535 0.00440751)
(5.15872 0.716035 0.00296566)
(5.39944 0.755504 0.00405239)
(5.45335 0.782237 0.00288682)
(5.6069 0.796272 0.00381034)
(5.64054 0.806514 0.00284001)
(5.74794 0.811938 0.00359771)
(5.7727 0.816962 0.0027824)
(5.8497 0.819891 0.00340118)
(5.86813 0.822974 0.00271752)
(5.92372 0.825118 0.00322237)
(5.93682 0.826821 0.00265062)
(5.97738 0.829595 0.00306069)
(5.98474 0.828168 0.00258314)
(6.01684 0.837137 0.00291271)
(6.00722 0.825361 0.00251281)
(6.05493 0.855993 0.00276825)
(5.94097 0.885684 0.00242216)
(4.58194 -0.336747 0.00526621)
(4.69294 -0.676139 0.00359208)
(5.07658 -0.786577 0.004713)
(5.18838 -0.825924 0.00326403)
(5.41805 -0.84147 0.00435227)
(5.4581 -0.850287 0.00318645)
(5.5958 -0.85334 0.00410984)
(5.61301 -0.855426 0.00313914)
(5.70391 -0.854478 0.00389632)
(5.71213 -0.854482 0.00308047)
(5.77331 -0.852839 0.00369877)
(5.77655 -0.852459 0.00301468)
(5.8177 -0.851142 0.00351917)
(5.81822 -0.850419 0.00294715)
(5.84482 -0.850256 0.00335699)
(5.84542 -0.847619 0.0028792)
(5.85769 -0.85105 0.00321033)
(5.8627 -0.844184 0.00280865)
(5.86466 -0.845413 0.00308875)
(5.84255 -0.892761 0.00272368)
(4.56941 0.201913 0.00461781)
(4.69596 0.3987 0.00290518)
(5.09854 0.521317 0.00407316)
(5.19098 0.625182 0.00263804)
(5.38459 0.691811 0.00373907)
(5.3818 0.737463 0.00257989)
(5.47631 0.763049 0.0035067)
(5.45005 0.781385 0.0025382)
(5.50177 0.793121 0.00329654)
(5.47227 0.802802 0.0024818)
(5.50106 0.809831 0.0031009)
(5.47367 0.815842 0.00241756)
(5.48917 0.820594 0.00292271)
(5.46491 0.824434 0.00235119)
(5.47299 0.828338 0.00276151)
(5.44964 0.829584 0.00228424)
(5.45812 0.838023 0.00261262)
(5.41756 0.828431 0.00221514)
(5.45876 0.86711 0.00244905)
(5.25748 0.874409 0.00210552)
(4.62931 -0.427675 0.00578857)
(4.81652 -0.851582 0.00385708)
(5.10989 -0.942856 0.00502053)
(5.05515 -0.932366 0.00355638)
(5.10926 -0.913965 0.0046553)
(4.98774 -0.901192 0.00349149)
(4.99336 -0.892167 0.00441517)
(4.89104 -0.886797 0.00344351)
(4.888 -0.880911 0.00419911)
(4.80875 -0.877802 0.00338169)
(4.80216 -0.873786 0.00399887)
(4.74129 -0.872055 0.00331368)
(4.73255 -0.86948 0.00381766)
(4.68621 -0.868351 0.00324488)
(4.67426 -0.866906 0.00365472)
(4.64354 -0.865564 0.00317617)
(4.6177 -0.863268 0.00350911)
(4.62692 -0.866853 0.00310569)
(4.54842 -0.823925 0.00340378)
(4.68124 -0.87161 0.00300881)
(4.74696 0.104901 0.00450039)
(4.61189 0.284185 0.00249528)
(4.53093 0.48391 0.00377549)
(4.18222 0.645262 0.00235078)
(4.05582 0.73739 0.00347519)
(3.81244 0.789237 0.00232361)
(3.75305 0.814459 0.00325313)
(3.59657 0.829911 0.00228474)
(3.56846 0.83887 0.00304228)
(3.46219 0.84563 0.00222652)
(3.44627 0.850068 0.00284512)
(3.37093 0.853779 0.00216108)
(3.35983 0.856125 0.00266622)
(3.30397 0.858727 0.00209425)
(3.296 0.859302 0.0025047)
(3.24955 0.862792 0.00202722)
(3.25191 0.860767 0.00235604)
(3.1902 0.865077 0.00196014)
(3.25379 0.87291 0.0021947)
(2.91059 0.868448 0.00182456)
(4.33038 -0.554981 0.00706205)
(3.12982 -0.832091 0.00462463)
(2.40213 -0.853403 0.00587539)
(1.8795 -0.837957 0.00441735)
(1.75685 -0.840876 0.00553315)
(1.57962 -0.852128 0.00437596)
(1.5785 -0.861442 0.0053013)
(1.47651 -0.868921 0.00433041)
(1.48638 -0.872745 0.00508507)
(1.41626 -0.876026 0.00426779)
(1.42566 -0.877466 0.00488442)
(1.37588 -0.879197 0.00419963)
(1.38284 -0.87975 0.00470347)
(1.34608 -0.880945 0.00413118)
(1.35112 -0.880692 0.00454101)
(1.32175 -0.882969 0.00406298)
(1.32615 -0.875434 0.00439547)
(1.31774 -0.897767 0.00399302)
(1.25902 -0.77996 0.00429044)
(1.71076 -0.803777 0.00386985)
(4.37765 0.0927266 0.00144109)
(3.99807 0.139537 0.00197802)
(3.49841 0.150495 0.00104024)
(3.07929 0.143233 0.00157153)
(2.71631 0.131914 0.00105337)
(2.47053 0.124326 0.00145419)
(2.28665 0.12045 0.00111107)
(2.17738 0.121019 0.00136097)
(2.09985 0.123886 0.00112991)
(2.05512 0.128457 0.00127538)
(2.02304 0.133189 0.0011326)
(2.00203 0.138002 0.00120896)
(1.98686 0.141965 0.00113425)
(1.97495 0.145931 0.00116318)
(1.96481 0.148066 0.00114082)
(1.96164 0.152367 0.00113443)
(1.94338 0.150322 0.0011567)
(1.96783 0.159752 0.00111731)
(1.90193 0.145098 0.00116335)
(2.01778 0.154575 0.00117829)
(4.53602 0.083866 0.00322081)
(4.67357 0.110323 0.00393255)
(4.70481 0.107162 0.00298912)
(4.70354 0.0782853 0.00349661)
(4.63026 0.0396519 0.00295524)
(4.55806 -0.00115978 0.00334319)
(4.46575 -0.0364252 0.0029921)
(4.39059 -0.0656579 0.0032389)
(4.31472 -0.0872942 0.00300558)
(4.2544 -0.103951 0.00315064)
(4.19825 -0.115811 0.00300708)
(4.15279 -0.125004 0.00308358)
(4.11227 -0.131815 0.00300867)
(4.07925 -0.136995 0.00303761)
(4.04957 -0.141731 0.00301572)
(4.02836 -0.143642 0.00300842)
(4.00259 -0.149455 0.00303429)
(3.99861 -0.145291 0.00298941)
(3.96039 -0.156832 0.00307835)
(3.98691 -0.145994 0.00308617)
(4.51242 0.0439306 0.00179664)
(4.65351 0.103858 0.00239514)
(4.76734 0.150496 0.00148382)
(4.90861 0.173885 0.00199531)
(4.99491 0.180596 0.00146052)
(5.07291 0.179497 0.00185502)
(5.10794 0.175356 0.00151193)
(5.13674 0.172124 0.0017634)
(5.14256 0.170158 0.00153501)
(5.14815 0.169715 0.00168167)
(5.14289 0.169875 0.00154051)
(5.14013 0.170622 0.00161718)
(5.13151 0.170858 0.0015433)
(5.12744 0.171988 0.00157223)
(5.11729 0.170647 0.00155014)
(5.11638 0.174038 0.00154448)
(5.10329 0.166996 0.00156386)
(5.10973 0.180136 0.00153402)
(5.0916 0.156781 0.00155575)
(5.10434 0.189831 0.00158804)
(4.50841 0.0420231 0.00280783)
(4.62075 0.046455 0.0035135)
(4.72809 0.0399507 0.00262566)
(4.8802 0.0207878 0.00314169)
(4.99545 -0.00230137 0.00259309)
(5.11496 -0.027287 0.00297659)
(5.19682 -0.0502163 0.00262332)
(5.27416 -0.0703053 0.00287017)
(5.32682 -0.0863968 0.00263771)
(5.37692 -0.0993388 0.00278302)
(5.41313 -0.109475 0.00263997)
(5.44838 -0.117349 0.0027162)
(5.47576 -0.124157 0.0026413)
(5.50229 -0.128683 0.00266998)
(5.52485 -0.134499 0.00264763)
(5.54441 -0.135463 0.00264146)
(5.56708 -0.143408 0.00266424)
(5.57469 -0.137772 0.00263066)
(5.61057 -0.151171 0.00271086)
(5.58567 -0.13859 0.00271844)
(4.50945 0.0160591 0.00211241)
(4.62169 0.0528716 0.00277296)
(4.72255 0.0856911 0.00189486)
(4.86939 0.108556 0.00240247)
(4.98299 0.122591 0.00185223)
(5.10612 0.131982 0.00223607)
(5.1955 0.138438 0.00188564)
(5.28373 0.144096 0.00213461)
(5.34925 0.148969 0.00190475)
(5.41372 0.153562 0.00205114)
(5.46529 0.157407 0.00190965)
(5.51626 0.16086 0.00198624)
(5.56019 0.163286 0.00191224)
(5.60232 0.165863 0.00194108)
(5.64224 0.166396 0.00191896)
(5.67533 0.169747 0.00191375)
(5.71764 0.166107 0.00193261)
(5.73244 0.17545 0.00190752)
(5.79754 0.161433 0.00193887)
(5.76726 0.187121 0.00196776)
(4.50822 0.0111745 0.00244309)
(4.6142 -0.00474353 0.00313237)
(4.71383 -0.0238112 0.00226185)
(4.85925 -0.0446763 0.00277505)
(4.97233 -0.0630608 0.00222335)
(5.09564 -0.0799545 0.00260559)
(5.18627 -0.0944008 0.00225277)
(5.27665 -0.106971 0.00250077)
(5.34534 -0.117265 0.00226985)
(5.4135 -0.125797 0.00241598)
(5.46975 -0.132686 0.002274)
(5.52529 -0.13814 0.00235049)
(5.57523 -0.14277 0.00227621)
(5.62197 -0.146045 0.00230494)
(5.66958 -0.14945 0.00228281)
(5.70585 -0.151065 0.00227733)
(5.75897 -0.153884 0.00229793)
(5.77268 -0.154648 0.0022711)
(5.85448 -0.155405 0.00232872)
(5.81605 -0.160681 0.00234321)
(4.50822 -0.0111746 0.00244309)
(4.6142 0.00474376 0.00313237)
(4.71383 0.0238111 0.00226185)
(4.85925 0.0446769 0.00277505)
(4.97233 0.0630605 0.00222335)
(5.09564 0.0799558 0.00260559)
(5.18627 0.0944009 0.00225277)
(5.27665 0.106974 0.00250077)
(5.34533 0.117267 0.00226985)
(5.4135 0.125805 0.00241598)
(5.46974 0.132693 0.00227399)
(5.52529 0.138164 0.0023505)
(5.57522 0.142787 0.00227619)
(5.62198 0.146125 0.00230499)
(5.66958 0.149487 0.00228275)
(5.70587 0.151311 0.00227746)
(5.75898 0.153997 0.00229763)
(5.77275 0.155287 0.00227135)
(5.85458 0.15595 0.0023272)
(5.81628 0.162049 0.00234342)
(4.50945 -0.0160591 0.00211241)
(4.62169 -0.0528714 0.00277297)
(4.72255 -0.0856913 0.00189486)
(4.86939 -0.108556 0.00240247)
(4.98299 -0.122591 0.00185223)
(5.10612 -0.131981 0.00223607)
(5.1955 -0.138438 0.00188564)
(5.28373 -0.144093 0.00213461)
(5.34925 -0.148968 0.00190475)
(5.41372 -0.153554 0.00205113)
(5.46529 -0.157401 0.00190965)
(5.51626 -0.160835 0.00198623)
(5.56021 -0.163271 0.00191225)
(5.60232 -0.165783 0.00194104)
(5.6423 -0.166364 0.00191901)
(5.67533 -0.169504 0.00191362)
(5.7178 -0.166008 0.00193284)
(5.73249 -0.174832 0.00190727)
(5.79786 -0.160936 0.00194012)
(5.76756 -0.185847 0.00196747)
(4.50841 -0.0420231 0.00280783)
(4.62075 -0.0464549 0.0035135)
(4.72808 -0.0399509 0.00262566)
(4.8802 -0.0207873 0.00314169)
(4.99545 0.0023012 0.00259309)
(5.11497 0.0272882 0.00297659)
(5.19682 0.0502164 0.00262331)
(5.27417 0.0703081 0.00287017)
(5.32682 0.0863987 0.00263771)
(5.37693 0.0993459 0.00278303)
(5.41313 0.109482 0.00263996)
(5.4484 0.11737 0.00271622)
(5.47576 0.124175 0.00264127)
(5.50234 0.128754 0.00267003)
(5.5249 0.134533 0.00264754)
(5.54452 0.135685 0.00264157)
(5.56728 0.143503 0.0026639)
(5.575 0.138371 0.00263088)
(5.61121 0.151636 0.00270936)
(5.58664 0.139907 0.00271843)
(4.51242 -0.0439307 0.00179664)
(4.65351 -0.103858 0.00239514)
(4.76734 -0.150496 0.00148382)
(4.90861 -0.173885 0.00199532)
(4.99491 -0.180596 0.00146052)
(5.07291 -0.179495 0.00185502)
(5.10793 -0.175356 0.00151193)
(5.13675 -0.172121 0.0017634)
(5.14256 -0.170157 0.00153501)
(5.14817 -0.169707 0.00168168)
(5.14288 -0.169872 0.0015405)
(5.14018 -0.1706 0.00161719)
(5.13151 -0.17085 0.00154329)
(5.12756 -0.17192 0.00157223)
(5.11734 -0.170634 0.00155012)
(5.11664 -0.173835 0.00154445)
(5.10357 -0.166956 0.00156389)
(5.11034 -0.179631 0.00153397)
(5.09256 -0.156493 0.0015563)
(5.10597 -0.188909 0.00158802)
(4.53602 -0.083866 0.00322081)
(4.67357 -0.110323 0.00393255)
(4.70481 -0.107162 0.00298912)
(4.70354 -0.0782852 0.00349661)
(4.63026 -0.0396517 0.00295524)
(4.55806 0.00116009 0.00334319)
(4.46575 0.036426 0.0029921)
(4.3906 0.0656586 0.00323891)
(4.31471 0.0872968 0.00300556)
(4.25443 0.103953 0.00315067)
(4.19823 0.115818 0.00300704)
(4.15288 0.125012 0.00308365)
(4.11225 0.131831 0.00300856)
(4.07949 0.137025 0.00303778)
(4.04957 0.141759 0.00301542)
(4.02894 0.143755 0.00300887)
(4.00273 0.149511 0.00303344)
(4.00005 0.145629 0.00299053)
(3.96106 0.157096 0.00307581)
(3.99071 0.146775 0.00308849)
(4.37765 -0.0927266 0.00144109)
(3.99807 -0.139536 0.00197802)
(3.49841 -0.150495 0.00104024)
(3.07929 -0.143233 0.00157153)
(2.71631 -0.131914 0.00105337)
(2.47053 -0.124326 0.00145419)
(2.28665 -0.120449 0.00111107)
(2.17739 -0.121019 0.00136097)
(2.09986 -0.123885 0.00112991)
(2.05514 -0.128456 0.00127538)
(2.02305 -0.133188 0.0011326)
(2.00208 -0.137998 0.00120896)
(1.9869 -0.141965 0.00113425)
(1.97509 -0.145917 0.00116318)
(1.96496 -0.148072 0.00114078)
(1.96197 -0.152317 0.00113448)
(1.94388 -0.150355 0.0011565)
(1.96874 -0.159627 0.00111761)
(1.90302 -0.145174 0.00116254)
(2.02167 -0.154601 0.00117966)
(4.37765 0.0927266 -0.00144115)
(3.99807 0.139537 -0.00197809)
(3.49841 0.150495 -0.0010403)
(3.07929 0.143233 -0.00157159)
(2.71631 0.131914 -0.00105344)
(2.47053 0.124326 -0.00145425)
(2.28665 0.12045 -0.00111114)
(2.17738 0.121019 -0.00136103)
(2.09985 0.123886 -0.00112998)
(2.05512 0.128457 -0.00127544)
(2.02304 0.133189 -0.00113266)
(2.00202 0.138002 -0.00120902)
(1.98686 0.141965 -0.00113432)
(1.97495 0.145931 -0.00116324)
(1.96481 0.148066 -0.00114088)
(1.96164 0.152367 -0.0011345)
(1.94338 0.150322 -0.00115676)
(1.96783 0.159752 -0.00111738)
(1.90193 0.145098 -0.00116342)
(2.01778 0.154575 -0.00117835)
(4.53602 0.083866 -0.00322087)
(4.67357 0.110323 -0.00393261)
(4.70481 0.107162 -0.00298918)
(4.70354 0.0782853 -0.00349667)
(4.63026 0.0396519 -0.00295531)
(4.55806 -0.00115983 -0.00334325)
(4.46575 -0.0364252 -0.00299217)
(4.39059 -0.0656579 -0.00323896)
(4.31472 -0.0872942 -0.00300564)
(4.2544 -0.103951 -0.00315071)
(4.19825 -0.115811 -0.00300715)
(4.15279 -0.125005 -0.00308364)
(4.11227 -0.131815 -0.00300873)
(4.07925 -0.136995 -0.00303767)
(4.04957 -0.141732 -0.00301578)
(4.02836 -0.143642 -0.00300848)
(4.00259 -0.149455 -0.00303435)
(3.99861 -0.145291 -0.00298948)
(3.96039 -0.156832 -0.00307842)
(3.98691 -0.145994 -0.00308624)
(4.51242 0.0439306 -0.00179671)
(4.65351 0.103858 -0.0023952)
(4.76734 0.150496 -0.00148388)
(4.90861 0.173885 -0.00199538)
(4.99491 0.180596 -0.00146059)
(5.07291 0.179497 -0.00185508)
(5.10794 0.175356 -0.00151199)
(5.13674 0.172124 -0.00176346)
(5.14256 0.170158 -0.00153508)
(5.14814 0.169715 -0.00168174)
(5.14289 0.169875 -0.00154058)
(5.14013 0.170622 -0.00161724)
(5.13151 0.170858 -0.00154336)
(5.12744 0.171988 -0.00157229)
(5.11729 0.170648 -0.0015502)
(5.11638 0.174039 -0.00154454)
(5.10328 0.166996 -0.00156393)
(5.10973 0.180137 -0.00153409)
(5.0916 0.156781 -0.00155581)
(5.10434 0.189831 -0.0015881)
(4.50841 0.0420231 -0.00280789)
(4.62075 0.046455 -0.00351356)
(4.72809 0.0399507 -0.00262573)
(4.8802 0.0207878 -0.00314175)
(4.99545 -0.0023014 -0.00259316)
(5.11496 -0.027287 -0.00297665)
(5.19682 -0.0502163 -0.00262338)
(5.27416 -0.0703053 -0.00287023)
(5.32682 -0.0863969 -0.00263778)
(5.37692 -0.0993389 -0.00278308)
(5.41313 -0.109475 -0.00264004)
(5.44838 -0.117349 -0.00271626)
(5.47576 -0.124157 -0.00264136)
(5.50229 -0.128683 -0.00267005)
(5.52485 -0.134499 -0.00264769)
(5.54441 -0.135463 -0.00264152)
(5.56708 -0.143408 -0.00266431)
(5.57469 -0.137772 -0.00263073)
(5.61057 -0.151171 -0.00271092)
(5.58567 -0.13859 -0.00271851)
(4.50945 0.0160591 -0.00211248)
(4.62169 0.0528716 -0.00277303)
(4.72255 0.0856911 -0.00189493)
(4.86939 0.108556 -0.00240253)
(4.98299 0.122591 -0.0018523)
(5.10612 0.131982 -0.00223614)
(5.1955 0.138438 -0.0018857)
(5.28373 0.144096 -0.00213467)
(5.34925 0.148969 -0.00190481)
(5.41372 0.153562 -0.0020512)
(5.46529 0.157407 -0.00190971)
(5.51626 0.16086 -0.00198631)
(5.56019 0.163286 -0.0019123)
(5.60232 0.165864 -0.00194115)
(5.64224 0.166396 -0.00191903)
(5.67533 0.169747 -0.00191382)
(5.71764 0.166108 -0.00193267)
(5.73244 0.17545 -0.00190758)
(5.79754 0.161433 -0.00193893)
(5.76726 0.187121 -0.00196783)
(4.50822 0.0111745 -0.00244315)
(4.6142 -0.00474355 -0.00313244)
(4.71383 -0.0238113 -0.00226191)
(4.85925 -0.0446764 -0.00277511)
(4.97233 -0.0630608 -0.00222342)
(5.09564 -0.0799545 -0.00260565)
(5.18627 -0.0944008 -0.00225283)
(5.27665 -0.106971 -0.00250083)
(5.34533 -0.117265 -0.00226992)
(5.4135 -0.125797 -0.00241604)
(5.46975 -0.132686 -0.00227406)
(5.52529 -0.13814 -0.00235055)
(5.57522 -0.14277 -0.00227627)
(5.62197 -0.146045 -0.002305)
(5.66958 -0.149451 -0.00228287)
(5.70585 -0.151065 -0.00227739)
(5.75897 -0.153884 -0.00229799)
(5.77268 -0.154648 -0.00227117)
(5.85448 -0.155405 -0.00232878)
(5.81605 -0.160681 -0.00234328)
(4.50822 -0.0111746 -0.00244315)
(4.6142 0.00474377 -0.00313244)
(4.71383 0.0238111 -0.00226191)
(4.85925 0.0446769 -0.00277511)
(4.97233 0.0630606 -0.00222342)
(5.09564 0.0799559 -0.00260565)
(5.18626 0.094401 -0.00225283)
(5.27665 0.106974 -0.00250083)
(5.34533 0.117267 -0.00226992)
(5.4135 0.125805 -0.00241605)
(5.46974 0.132693 -0.00227406)
(5.52529 0.138164 -0.00235057)
(5.57522 0.142787 -0.00227625)
(5.62198 0.146125 -0.00230505)
(5.66958 0.149487 -0.00228281)
(5.70587 0.151311 -0.00227752)
(5.75898 0.153997 -0.0022977)
(5.77275 0.155287 -0.00227142)
(5.85458 0.15595 -0.00232726)
(5.81628 0.162049 -0.00234349)
(4.50945 -0.0160591 -0.00211248)
(4.62169 -0.0528714 -0.00277303)
(4.72255 -0.0856913 -0.00189493)
(4.86939 -0.108556 -0.00240253)
(4.98299 -0.122591 -0.0018523)
(5.10612 -0.131981 -0.00223614)
(5.1955 -0.138438 -0.0018857)
(5.28373 -0.144093 -0.00213467)
(5.34925 -0.148968 -0.00190481)
(5.41372 -0.153554 -0.0020512)
(5.46529 -0.157401 -0.00190972)
(5.51626 -0.160835 -0.00198629)
(5.56021 -0.163271 -0.00191231)
(5.60232 -0.165783 -0.0019411)
(5.6423 -0.166364 -0.00191907)
(5.67533 -0.169504 -0.00191369)
(5.7178 -0.166008 -0.00193291)
(5.73249 -0.174832 -0.00190733)
(5.79786 -0.160936 -0.00194019)
(5.76756 -0.185847 -0.00196753)
(4.50841 -0.0420231 -0.00280789)
(4.62075 -0.0464548 -0.00351356)
(4.72808 -0.0399508 -0.00262572)
(4.8802 -0.0207873 -0.00314175)
(4.99545 0.00230124 -0.00259316)
(5.11497 0.0272882 -0.00297665)
(5.19682 0.0502165 -0.00262338)
(5.27417 0.0703081 -0.00287024)
(5.32682 0.0863988 -0.00263777)
(5.37693 0.099346 -0.00278309)
(5.41313 0.109482 -0.00264003)
(5.4484 0.11737 -0.00271628)
(5.47576 0.124175 -0.00264133)
(5.50234 0.128754 -0.00267009)
(5.5249 0.134534 -0.0026476)
(5.54452 0.135686 -0.00264164)
(5.56728 0.143503 -0.00266397)
(5.575 0.138371 -0.00263094)
(5.61121 0.151636 -0.00270943)
(5.58664 0.139907 -0.0027185)
(4.51242 -0.0439307 -0.00179671)
(4.65351 -0.103858 -0.0023952)
(4.76734 -0.150496 -0.00148388)
(4.90861 -0.173885 -0.00199538)
(4.99491 -0.180596 -0.00146058)
(5.07291 -0.179495 -0.00185508)
(5.10793 -0.175356 -0.00151199)
(5.13675 -0.172121 -0.00176346)
(5.14256 -0.170157 -0.00153507)
(5.14817 -0.169707 -0.00168174)
(5.14288 -0.169872 -0.00154057)
(5.14018 -0.1706 -0.00161725)
(5.13151 -0.17085 -0.00154335)
(5.12756 -0.17192 -0.00157229)
(5.11734 -0.170634 -0.00155018)
(5.11664 -0.173835 -0.00154451)
(5.10357 -0.166956 -0.00156396)
(5.11034 -0.179631 -0.00153404)
(5.09256 -0.156493 -0.00155637)
(5.10597 -0.188909 -0.00158809)
(4.53602 -0.083866 -0.00322087)
(4.67357 -0.110323 -0.00393261)
(4.70481 -0.107162 -0.00298918)
(4.70354 -0.0782852 -0.00349667)
(4.63026 -0.0396516 -0.0029553)
(4.55806 0.00116014 -0.00334325)
(4.46575 0.036426 -0.00299216)
(4.3906 0.0656587 -0.00323897)
(4.31471 0.0872968 -0.00300562)
(4.25443 0.103953 -0.00315073)
(4.19823 0.115818 -0.0030071)
(4.15288 0.125012 -0.00308371)
(4.11225 0.131831 -0.00300862)
(4.07949 0.137026 -0.00303785)
(4.04957 0.141759 -0.00301549)
(4.02894 0.143755 -0.00300893)
(4.00273 0.149511 -0.0030335)
(4.00005 0.145629 -0.00299059)
(3.96106 0.157096 -0.00307588)
(3.99071 0.146775 -0.00308856)
(4.37765 -0.0927266 -0.00144115)
(3.99807 -0.139537 -0.00197809)
(3.49841 -0.150495 -0.0010403)
(3.07929 -0.143233 -0.00157159)
(2.71631 -0.131914 -0.00105344)
(2.47053 -0.124326 -0.00145425)
(2.28665 -0.120449 -0.00111114)
(2.17739 -0.121019 -0.00136103)
(2.09986 -0.123885 -0.00112998)
(2.05514 -0.128456 -0.00127544)
(2.02305 -0.133188 -0.00113266)
(2.00208 -0.137998 -0.00120902)
(1.9869 -0.141965 -0.00113431)
(1.97508 -0.145917 -0.00116325)
(1.96496 -0.148072 -0.00114085)
(1.96197 -0.152317 -0.00113455)
(1.94388 -0.150355 -0.00115656)
(1.96874 -0.159627 -0.00111768)
(1.90302 -0.145174 -0.00116261)
(2.02167 -0.154601 -0.00117972)
(4.33038 0.554981 -0.00706209)
(3.12982 0.832091 -0.00462467)
(2.40213 0.853403 -0.00587543)
(1.8795 0.837957 -0.00441739)
(1.75685 0.840876 -0.0055332)
(1.57962 0.852128 -0.004376)
(1.5785 0.861441 -0.00530134)
(1.4765 0.868923 -0.00433045)
(1.48637 0.872744 -0.00508512)
(1.41625 0.87603 -0.00426783)
(1.42565 0.877463 -0.00488448)
(1.37585 0.87921 -0.00419965)
(1.3828 0.87974 -0.00470355)