/*--------------------------------*- C++ -*----------------------------------*\
  =========                 |
  \\      /  F ield         | OpenFOAM: The Open Source CFD Toolbox
   \\    /   O peration     | Website:  https://openfoam.org
    \\  /    A nd           | Version:  7
     \\/     M anipulation  |
\*---------------------------------------------------------------------------*/
FoamFile
{
    version     2.0;
    format      ascii;
    class       surfaceScalarField;
    location    "2.96";
    object      phi_0;
}
// * * * * * * * * * * * * * * * * * * * * * * * * * * * * * * * * * * * * * //

dimensions      [1 0 -1 0 0 0 0];

internalField   nonuniform List<scalar> 
11256
(
0.00287923
0.00403155
0.00172122
0.0011585
0.00146403
0.00025753
0.00132567
0.00013875
0.00123766
8.84913e-05
0.00118992
4.82795e-05
0.00115982
3.06354e-05
0.00113196
2.83774e-05
0.00110452
2.79259e-05
0.00108022
2.47585e-05
0.00105982
2.08435e-05
0.00104231
1.7928e-05
0.00102673
1.59926e-05
0.00101264
1.44919e-05
0.000999885
1.31577e-05
0.000988314
1.19689e-05
0.000977765
1.09463e-05
0.000968088
1.00722e-05
0.00095917
9.31129e-06
0.000950922
8.63753e-06
0.000943269
8.03594e-06
0.000936147
7.49635e-06
0.000929501
7.01034e-06
0.000923284
6.57098e-06
0.000917453
6.17303e-06
0.000911973
5.81212e-06
0.000906812
5.48416e-06
0.000901942
5.18518e-06
0.000897339
4.91137e-06
0.000892982
4.65934e-06
0.000888854
4.42626e-06
0.000884938
4.20978e-06
0.00088122
4.00808e-06
0.000877685
3.81954e-06
0.000874322
3.64285e-06
0.000871119
3.47704e-06
0.000868066
3.3208e-06
0.000865153
3.17314e-06
0.000862372
3.03407e-06
0.000859714
2.90329e-06
0.000857171
2.77982e-06
0.000854737
2.66322e-06
0.000852405
2.55346e-06
0.000850168
2.44988e-06
0.000848023
2.3519e-06
0.000845965
2.25891e-06
0.00084399
2.17003e-06
0.000842094
2.0852e-06
0.000840274
2.00354e-06
0.000838528
1.92584e-06
0.00083685
1.8514e-06
0.000835241
1.7781e-06
0.000833697
1.70749e-06
0.000832215
1.6393e-06
0.000830794
1.57274e-06
0.000829431
1.50821e-06
0.000828124
1.44608e-06
0.000826869
1.3864e-06
0.000825666
1.32867e-06
0.000824511
1.27322e-06
0.000823403
1.22002e-06
0.00082234
1.16852e-06
0.000821322
1.11968e-06
0.000820345
1.07255e-06
0.000819409
1.02733e-06
0.000818514
9.84128e-07
0.000817658
9.42866e-07
0.000816839
9.03454e-07
0.000816058
8.65916e-07
0.000815314
8.30485e-07
0.000814604
7.97032e-07
0.000813929
7.6563e-07
0.000813287
7.36501e-07
0.000812677
7.09819e-07
0.000812099
6.85723e-07
0.00081155
6.6433e-07
0.000811029
6.45816e-07
0.000810536
6.30313e-07
0.000810069
6.17905e-07
0.000809627
6.08643e-07
0.000809208
6.02551e-07
0.000808813
5.99623e-07
0.000808439
5.99839e-07
0.000808087
6.0314e-07
0.000807756
6.09431e-07
0.000807444
6.18552e-07
0.000807153
6.3038e-07
0.000806881
6.44798e-07
0.000806628
6.61677e-07
0.000806395
6.809e-07
0.000806179
7.02379e-07
0.000805982
7.25999e-07
0.000805803
7.51696e-07
0.000805641
7.79416e-07
0.000805497
8.09081e-07
0.000805368
8.40646e-07
0.000805255
8.74074e-07
0.000805157
9.09291e-07
0.000805073
9.46221e-07
0.000805003
9.84787e-07
0.000804947
1.02489e-06
0.000804903
1.06642e-06
0.000804871
1.10923e-06
0.000804852
1.15317e-06
0.000804844
1.19806e-06
0.000804847
1.24376e-06
0.000804862
1.29009e-06
0.000804889
1.33691e-06
0.000804927
1.38405e-06
0.000804976
1.43139e-06
0.000805037
1.47882e-06
0.00080511
1.52624e-06
0.000805193
1.5736e-06
0.000805288
1.62084e-06
0.000805393
1.66794e-06
0.000805509
1.71486e-06
0.000805634
1.76161e-06
0.000805769
1.80818e-06
0.000805913
1.85455e-06
0.000806066
1.90072e-06
0.000806226
1.94667e-06
0.000806394
1.99236e-06
0.000806569
2.03774e-06
0.000806752
2.08276e-06
0.000806941
2.12735e-06
0.000807136
2.17143e-06
0.000807339
2.21493e-06
0.000807548
2.25776e-06
0.000807763
2.29987e-06
0.000807985
2.34119e-06
0.000808214
2.38167e-06
0.00080845
2.42128e-06
0.000808692
2.46003e-06
0.000808941
2.4979e-06
0.000809196
2.53492e-06
0.000809457
2.57111e-06
0.000809725
2.60652e-06
0.000809997
2.64119e-06
0.000810275
2.67516e-06
0.000810557
2.70849e-06
0.000810844
2.74119e-06
0.000811134
2.77329e-06
0.000811428
2.80481e-06
0.000811726
2.83575e-06
0.000812027
2.86608e-06
0.00081233
2.8958e-06
0.000812637
2.92489e-06
0.000812947
2.95329e-06
0.000813259
2.981e-06
0.000813575
3.00799e-06
0.000813894
3.0342e-06
0.000814216
3.05961e-06
0.000814542
3.08422e-06
0.000814871
3.10803e-06
0.000815203
3.1311e-06
0.000815538
3.15347e-06
0.000815877
3.17516e-06
0.000816218
3.19616e-06
0.000816561
3.21655e-06
0.000816907
3.2364e-06
0.000817255
3.25578e-06
0.000817604
3.27469e-06
0.000817955
3.29317e-06
0.000818307
3.31118e-06
0.00081866
3.32881e-06
0.000819013
3.34614e-06
0.000819368
3.36296e-06
0.000819723
3.37927e-06
0.000820079
3.39531e-06
0.000820436
3.41076e-06
0.000820793
3.4257e-06
0.000821152
3.44026e-06
0.000821512
3.45417e-06
0.000821873
3.46757e-06
0.000822235
3.48034e-06
0.000822599
3.49263e-06
0.000822964
3.50431e-06
0.000823331
3.51561e-06
0.000823698
3.52653e-06
0.000824066
3.537e-06
0.000824435
3.54693e-06
0.000824805
3.5566e-06
0.000825174
3.56608e-06
0.000825544
3.57528e-06
0.000825913
3.58422e-06
0.000826282
3.59282e-06
0.000826651
3.60111e-06
0.000827018
3.60955e-06
0.000827386
3.61756e-06
0.000827753
3.62504e-06
0.000828119
3.63249e-06
0.000828485
3.63969e-06
0.000828851
3.64652e-06
0.000829217
3.65278e-06
0.000829583
3.65887e-06
0.000829949
3.66465e-06
0.000830316
3.67e-06
0.000830682
3.67489e-06
0.000831049
3.67957e-06
0.000831415
3.6839e-06
0.000831782
3.68791e-06
0.000832149
3.69174e-06
0.000832515
3.69536e-06
0.00083288
3.69863e-06
0.000833245
3.70182e-06
0.000833608
3.70498e-06
0.000833971
3.70794e-06
0.000834333
3.7107e-06
0.000834693
3.71337e-06
0.000835052
3.71599e-06
0.000835409
3.71855e-06
0.000835766
3.72084e-06
0.000836121
3.72301e-06
0.000836475
3.72498e-06
0.000836829
3.72674e-06
0.000837181
3.72836e-06
0.000837533
3.72989e-06
0.000837885
3.73075e-06
0.000838235
3.73182e-06
0.000838586
3.73234e-06
0.000838935
3.73317e-06
0.000839285
3.73282e-06
0.000839632
3.73361e-06
0.000839981
3.7326e-06
0.000840326
3.73403e-06
0.000840673
3.73129e-06
0.000841015
3.73427e-06
0.000841361
3.72893e-06
0.000841697
3.73603e-06
0.000842044
3.72414e-06
0.000842371
3.7406e-06
0.000842723
3.71484e-06
0.000843034
3.75226e-06
0.000843399
3.69611e-06
0.000843679
3.77919e-06
0.000844078
3.65891e-06
0.000844293
3.8394e-06
0.000844782
3.56442e-06
0.000844905
3.92763e-06
3.52945e-06
0.00551864
0.00542368
0.00437219
0.0023055
0.00388875
0.000741358
0.00355457
0.000473289
0.00332265
0.000320855
0.00318183
0.000189617
0.00309087
0.000122148
0.00301649
0.000103308
0.0029483
9.66695e-05
0.00288741
8.61792e-05
0.00283487
7.39008e-05
0.00278934
6.39529e-05
0.00274901
5.68114e-05
0.00271271
5.12709e-05
0.00267983
4.65058e-05
0.00264996
4.23156e-05
0.00262268
3.86957e-05
0.00259765
3.55844e-05
0.00257457
3.28774e-05
0.00255321
3.0489e-05
0.00253338
2.83631e-05
0.00251491
2.64605e-05
0.00249767
2.47502e-05
0.00248153
2.32071e-05
0.00246638
2.18113e-05
0.00245213
2.05457e-05
0.0024387
1.93949e-05
0.00242602
1.83447e-05
0.00241402
1.7382e-05
0.00240265
1.64955e-05
0.00239187
1.56757e-05
0.00238164
1.49154e-05
0.00237191
1.42083e-05
0.00236266
1.35491e-05
0.00235385
1.29334e-05
0.00234545
1.23572e-05
0.00233743
1.18158e-05
0.00232978
1.13065e-05
0.00232247
1.08283e-05
0.00231547
1.03787e-05
0.00230878
9.95497e-06
0.00230236
9.55556e-06
0.00229621
9.17953e-06
0.00229031
8.82453e-06
0.00228464
8.48868e-06
0.0022792
8.16977e-06
0.00227397
7.86557e-06
0.00226895
7.57542e-06
0.00226412
7.29687e-06
0.00225948
7.03259e-06
0.00225502
6.77984e-06
0.00225073
6.53336e-06
0.00224661
6.2967e-06
0.00224265
6.06828e-06
0.00223885
5.84635e-06
0.0022352
5.63249e-06
0.00223169
5.42716e-06
0.00222831
5.22974e-06
0.00222507
5.03922e-06
0.00222195
4.85646e-06
0.00221896
4.68031e-06
0.00221608
4.50948e-06
0.00221332
4.34701e-06
0.00221067
4.19047e-06
0.00220812
4.0397e-06
0.00220567
3.89495e-06
0.00220332
3.75602e-06
0.00220107
3.62264e-06
0.00219891
3.49491e-06
0.00219685
3.37322e-06
0.00219487
3.25716e-06
0.00219298
3.14681e-06
0.00219117
3.04267e-06
0.00218944
2.94503e-06
0.00218779
2.8541e-06
0.00218622
2.77009e-06
0.00218472
2.69332e-06
0.00218328
2.62402e-06
0.00218191
2.56228e-06
0.00218061
2.50813e-06
0.00217937
2.46158e-06
0.00217818
2.42257e-06
0.00217705
2.39102e-06
0.00217597
2.36675e-06
0.00217495
2.34944e-06
0.00217398
2.3387e-06
0.00217305
2.33422e-06
0.00217218
2.33574e-06
0.00217135
2.34291e-06
0.00217057
2.35548e-06
0.00216984
2.37322e-06
0.00216915
2.39588e-06
0.0021685
2.42331e-06
0.0021679
2.45541e-06
0.00216734
2.49201e-06
0.00216683
2.53303e-06
0.00216635
2.57837e-06
0.00216591
2.6279e-06
0.00216551
2.68146e-06
0.00216515
2.73887e-06
0.00216482
2.79994e-06
0.00216453
2.8644e-06
0.00216427
2.93193e-06
0.00216404
3.00219e-06
0.00216384
3.07482e-06
0.00216367
3.14945e-06
0.00216354
3.22574e-06
0.00216344
3.30335e-06
0.00216336
3.38195e-06
0.00216332
3.46129e-06
0.00216331
3.54113e-06
0.00216332
3.6213e-06
0.00216337
3.70169e-06
0.00216345
3.78221e-06
0.00216355
3.86282e-06
0.00216368
3.94351e-06
0.00216385
4.02427e-06
0.00216403
4.1051e-06
0.00216425
4.18598e-06
0.00216449
4.26689e-06
0.00216475
4.34778e-06
0.00216503
4.42857e-06
0.00216534
4.50914e-06
0.00216567
4.58936e-06
0.00216602
4.66905e-06
0.00216638
4.74803e-06
0.00216677
4.82613e-06
0.00216718
4.90318e-06
0.00216761
4.97903e-06
0.00216805
5.05353e-06
0.00216852
5.12659e-06
0.002169
5.19817e-06
0.00216951
5.26826e-06
0.00217003
5.33686e-06
0.00217057
5.40403e-06
0.00217112
5.46984e-06
0.0021717
5.53439e-06
0.00217229
5.59776e-06
0.0021729
5.66006e-06
0.00217352
5.72137e-06
0.00217416
5.78176e-06
0.00217481
5.84125e-06
0.00217547
5.89986e-06
0.00217615
5.95755e-06
0.00217683
6.01428e-06
0.00217753
6.06997e-06
0.00217823
6.12455e-06
0.00217895
6.17793e-06
0.00217968
6.23005e-06
0.00218042
6.28086e-06
0.00218116
6.33028e-06
0.00218192
6.37823e-06
0.00218269
6.42468e-06
0.00218346
6.46964e-06
0.00218425
6.51322e-06
0.00218505
6.55555e-06
0.00218585
6.5967e-06
0.00218667
6.6367e-06
0.00218749
6.67563e-06
0.00218832
6.71363e-06
0.00218916
6.75084e-06
0.00219001
6.78736e-06
0.00219086
6.82317e-06
0.00219172
6.85821e-06
0.00219258
6.89261e-06
0.00219345
6.92645e-06
0.00219432
6.95946e-06
0.0021952
6.99159e-06
0.00219608
7.02308e-06
0.00219696
7.05351e-06
0.00219785
7.08295e-06
0.00219874
7.11157e-06
0.00219964
7.13898e-06
0.00220054
7.16532e-06
0.00220145
7.19057e-06
0.00220235
7.21485e-06
0.00220327
7.23807e-06
0.00220419
7.26045e-06
0.00220511
7.2821e-06
0.00220604
7.30299e-06
0.00220697
7.32307e-06
0.0022079
7.34265e-06
0.00220884
7.36186e-06
0.00220978
7.38061e-06
0.00221072
7.39892e-06
0.00221166
7.41675e-06
0.0022126
7.4341e-06
0.00221354
7.45138e-06
0.00221449
7.46805e-06
0.00221543
7.48389e-06
0.00221638
7.49941e-06
0.00221732
7.51442e-06
0.00221827
7.52866e-06
0.00221921
7.54195e-06
0.00222016
7.5547e-06
0.00222111
7.56682e-06
0.00222206
7.57812e-06
0.00222301
7.5886e-06
0.00222396
7.59856e-06
0.00222492
7.6079e-06
0.00222587
7.61666e-06
0.00222683
7.62508e-06
0.00222778
7.63313e-06
0.00222874
7.64069e-06
0.0022297
7.64809e-06
0.00223065
7.65535e-06
0.00223161
7.66231e-06
0.00223256
7.66903e-06
0.00223351
7.67559e-06
0.00223447
7.68196e-06
0.00223541
7.68819e-06
0.00223636
7.69395e-06
0.00223731
7.69938e-06
0.00223825
7.70443e-06
0.00223919
7.70913e-06
0.00224013
7.71334e-06
0.00224107
7.71734e-06
0.00224201
7.72025e-06
0.00224295
7.72327e-06
0.00224389
7.72537e-06
0.00224482
7.72793e-06
0.00224576
7.72852e-06
0.00224669
7.73094e-06
0.00224763
7.73039e-06
0.00224856
7.73389e-06
0.00224949
7.73063e-06
0.00225042
7.73667e-06
0.00225134
7.72921e-06
0.00225226
7.74223e-06
0.00225319
7.72397e-06
0.0022541
7.75278e-06
0.00225502
7.71102e-06
0.00225591
7.77664e-06
0.00225684
7.68154e-06
0.0022577
7.83044e-06
0.00225865
7.62023e-06
0.00225944
7.95718e-06
0.00226045
7.45544e-06
0.00226116
8.12062e-06
7.2326e-06
0.00687423
0.0054602
0.00621358
0.00296677
0.00577354
0.00118183
0.00537302
0.000874171
0.00505758
0.000636675
0.00485046
0.000397186
0.00471251
0.000260614
0.00460351
0.000212873
0.00450697
0.000193792
0.00442093
0.000172804
0.00434571
0.000149692
0.00427995
0.000130279
0.00422156
0.000115737
0.004169
0.000104351
0.00412134
9.46726e-05
0.00407793
8.62203e-05
0.00403822
7.89041e-05
0.0040017
7.25906e-05
0.00396799
6.70906e-05
0.00393676
6.22409e-05
0.00390772
5.79271e-05
0.00388066
5.40673e-05
0.00385536
5.05978e-05
0.00383165
4.74672e-05
0.00380939
4.46342e-05
0.00378842
4.20636e-05
0.00376864
3.97237e-05
0.00374995
3.75857e-05
0.00373224
3.56235e-05
0.00371545
3.3815e-05
0.00369952
3.21421e-05
0.00368437
3.05903e-05
0.00366996
2.91479e-05
0.00365624
2.7804e-05
0.00364316
2.65501e-05
0.00363068
2.53778e-05
0.00361877
2.42771e-05
0.00360739
2.32432e-05
0.00359651
2.22735e-05
0.00358609
2.13614e-05
0.00357611
2.05011e-05
0.00356655
1.96903e-05
0.00355737
1.89265e-05
0.00354855
1.82046e-05
0.00354009
1.7521e-05
0.00353195
1.68714e-05
0.00352412
1.6252e-05
0.0035166
1.5661e-05
0.00350936
1.50943e-05
0.00350239
1.45568e-05
0.00349569
1.40432e-05
0.00348925
1.35447e-05
0.00348304
1.30669e-05
0.00347708
1.26056e-05
0.00347134
1.21584e-05
0.00346583
1.17286e-05
0.00346052
1.13164e-05
0.00345542
1.09199e-05
0.00345051
1.05373e-05
0.00344579
1.01697e-05
0.00344125
9.815e-06
0.00343688
9.47124e-06
0.00343267
9.14361e-06
0.00342862
8.8277e-06
0.00342473
8.52301e-06
0.00342099
8.23e-06
0.00341739
7.94823e-06
0.00341393
7.67737e-06
0.0034106
7.41767e-06
0.00340741
7.16956e-06
0.00340435
6.9322e-06
0.0034014
6.70572e-06
0.00339858
6.49084e-06
0.00339588
6.28784e-06
0.00339328
6.09694e-06
0.00339079
5.91836e-06
0.00338841
5.75246e-06
0.00338613
5.59946e-06
0.00338394
5.45939e-06
0.00338184
5.33216e-06
0.00337982
5.21769e-06
0.00337789
5.11584e-06
0.00337604
5.02643e-06
0.00337427
4.9491e-06
0.00337257
4.88331e-06
0.00337094
4.82837e-06
0.00336938
4.7838e-06
0.00336789
4.74918e-06
0.00336646
4.72395e-06
0.0033651
4.70768e-06
0.00336381
4.7e-06
0.00336258
4.70053e-06
0.00336141
4.709e-06
0.00336031
4.72522e-06
0.00335926
4.74894e-06
0.00335828
4.77997e-06
0.00335735
4.81814e-06
0.00335648
4.86321e-06
0.00335567
4.91491e-06
0.00335491
4.97293e-06
0.0033542
5.03694e-06
0.00335354
5.10651e-06
0.00335293
5.18115e-06
0.00335237
5.26029e-06
0.00335186
5.3434e-06
0.0033514
5.42994e-06
0.00335098
5.51939e-06
0.0033506
5.61126e-06
0.00335027
5.70509e-06
0.00334999
5.80052e-06
0.00334975
5.89722e-06
0.00334956
5.99497e-06
0.00334941
6.0936e-06
0.00334931
6.19301e-06
0.00334925
6.29316e-06
0.00334924
6.39401e-06
0.00334926
6.49554e-06
0.00334934
6.59774e-06
0.00334945
6.70055e-06
0.0033496
6.80391e-06
0.00334979
6.90771e-06
0.00335002
7.0118e-06
0.00335028
7.11599e-06
0.00335058
7.22002e-06
0.00335091
7.32365e-06
0.00335128
7.42659e-06
0.00335167
7.52859e-06
0.0033521
7.62939e-06
0.00335256
7.72879e-06
0.00335305
7.8266e-06
0.00335357
7.92272e-06
0.00335412
8.01707e-06
0.00335471
8.10968e-06
0.00335532
8.20057e-06
0.00335596
8.28984e-06
0.00335664
8.37757e-06
0.00335734
8.4639e-06
0.00335807
8.54894e-06
0.00335882
8.63283e-06
0.00335961
8.71566e-06
0.00336041
8.79747e-06
0.00336124
8.87829e-06
0.0033621
8.95809e-06
0.00336297
9.03678e-06
0.00336387
9.11427e-06
0.00336478
9.19042e-06
0.00336571
9.26513e-06
0.00336667
9.33825e-06
0.00336763
9.4097e-06
0.00336862
9.47941e-06
0.00336962
9.54732e-06
0.00337064
9.61335e-06
0.00337168
9.67742e-06
0.00337274
9.73956e-06
0.00337381
9.79993e-06
0.0033749
9.85875e-06
0.003376
9.91615e-06
0.00337712
9.97217e-06
0.00337826
1.00269e-05
0.00337941
1.00804e-05
0.00338058
1.0133e-05
0.00338176
1.01848e-05
0.00338295
1.02357e-05
0.00338416
1.02856e-05
0.00338537
1.03346e-05
0.0033866
1.03828e-05
0.00338783
1.043e-05
0.00338908
1.04758e-05
0.00339033
1.05207e-05
0.00339158
1.05642e-05
0.00339285
1.06062e-05
0.00339413
1.0647e-05
0.00339541
1.06863e-05
0.0033967
1.0724e-05
0.003398
1.07603e-05
0.00339931
1.07953e-05
0.00340062
1.0829e-05
0.00340195
1.08615e-05
0.00340328
1.08931e-05
0.00340462
1.09238e-05
0.00340597
1.09535e-05
0.00340733
1.09826e-05
0.00340869
1.10111e-05
0.00341006
1.10391e-05
0.00341143
1.10664e-05
0.00341281
1.10931e-05
0.0034142
1.11191e-05
0.00341558
1.11448e-05
0.00341697
1.11697e-05
0.00341836
1.11935e-05
0.00341975
1.12166e-05
0.00342115
1.12389e-05
0.00342254
1.12601e-05
0.00342394
1.12801e-05
0.00342535
1.12992e-05
0.00342675
1.13174e-05
0.00342816
1.13346e-05
0.00342957
1.13506e-05
0.00343099
1.1366e-05
0.00343241
1.13806e-05
0.00343383
1.13945e-05
0.00343526
1.14079e-05
0.00343669
1.14209e-05
0.00343812
1.14333e-05
0.00343955
1.14454e-05
0.00344099
1.14574e-05
0.00344242
1.14689e-05
0.00344386
1.148e-05
0.00344529
1.1491e-05
0.00344673
1.15015e-05
0.00344816
1.15117e-05
0.00344959
1.15213e-05
0.00345102
1.15302e-05
0.00345245
1.15387e-05
0.00345388
1.15466e-05
0.00345531
1.15537e-05
0.00345673
1.15605e-05
0.00345816
1.1566e-05
0.00345959
1.15714e-05
0.00346101
1.15758e-05
0.00346244
1.15806e-05
0.00346386
1.15833e-05
0.00346529
1.15878e-05
0.00346671
1.15893e-05
0.00346814
1.15949e-05
0.00346956
1.15937e-05
0.00347098
1.16017e-05
0.0034724
1.15964e-05
0.00347382
1.16116e-05
0.00347524
1.15951e-05
0.00347665
1.1627e-05
0.00347806
1.15852e-05
0.00347945
1.16584e-05
0.00348086
1.15567e-05
0.00348224
1.17277e-05
0.00348364
1.14937e-05
0.00348496
1.18999e-05
0.00348638
1.13038e-05
0.00348764
1.21316e-05
1.08358e-05
0.00749214
0.0048788
0.00734146
0.00311809
0.00714565
0.00137815
0.00683904
0.00118115
0.00653023
0.000945827
0.0063019
0.000625888
0.00614016
0.000422791
0.0060118
0.000341752
0.00589979
0.000306367
0.00580021
0.000272992
0.00571233
0.000238199
0.00563465
0.000208569
0.00556521
0.000185759
0.00550245
0.000167668
0.00544533
0.000152311
0.00539311
0.000138938
0.00534515
0.000127336
0.00530092
0.000117282
0.00525998
0.000108501
0.00522194
0.00010075
0.00518651
9.38494e-05
0.00515341
8.76699e-05
0.00512243
8.21098e-05
0.00509335
7.70877e-05
0.005066
7.25377e-05
0.00504022
6.84037e-05
0.00501586
6.46352e-05
0.0049928
6.11863e-05
0.00497094
5.80163e-05
0.00495018
5.50905e-05
0.00493045
5.2381e-05
0.00491167
4.98658e-05
0.00489377
4.75267e-05
0.00487672
4.5347e-05
0.00486044
4.33134e-05
0.0048449
4.14125e-05
0.00483005
3.96278e-05
0.00481585
3.7952e-05
0.00480226
3.63812e-05
0.00478924
3.49022e-05
0.00477677
3.35058e-05
0.0047648
3.21894e-05
0.00475332
3.0948e-05
0.00474228
2.97732e-05
0.00473167
2.86594e-05
0.00472147
2.75998e-05
0.00471165
2.65889e-05
0.0047022
2.56238e-05
0.0046931
2.46981e-05
0.00468434
2.38197e-05
0.0046759
2.29815e-05
0.00466777
2.21699e-05
0.00465994
2.13909e-05
0.00465241
2.06399e-05
0.00464516
1.99141e-05
0.00463818
1.92169e-05
0.00463147
1.85481e-05
0.004625
1.79048e-05
0.00461878
1.72844e-05
0.00461279
1.66872e-05
0.00460703
1.61106e-05
0.00460147
1.55523e-05
0.00459613
1.50196e-05
0.00459098
1.45052e-05
0.00458601
1.40086e-05
0.00458123
1.35306e-05
0.00457663
1.30706e-05
0.00457219
1.26282e-05
0.00456792
1.22039e-05
0.0045638
1.17981e-05
0.00455984
1.14096e-05
0.00455602
1.10385e-05
0.00455235
1.06857e-05
0.00454882
1.03515e-05
0.00454543
1.00359e-05
0.00454216
9.739e-06
0.00453901
9.46119e-06
0.00453599
9.20248e-06
0.00453308
8.96269e-06
0.00453027
8.74151e-06
0.00452757
8.53865e-06
0.00452497
8.35384e-06
0.00452246
8.18671e-06
0.00452005
8.03669e-06
0.00451771
7.90296e-06
0.00451547
7.78456e-06
0.0045133
7.68084e-06
0.00451121
7.59123e-06
0.0045092
7.515e-06
0.00450726
7.45157e-06
0.00450539
7.40043e-06
0.0045036
7.36109e-06
0.00450189
7.33319e-06
0.00450024
7.3164e-06
0.00449867
7.31035e-06
0.00449717
7.31473e-06
0.00449573
7.32922e-06
0.00449437
7.35343e-06
0.00449307
7.3869e-06
0.00449184
7.42918e-06
0.00449068
7.47971e-06
0.00448957
7.53788e-06
0.00448853
7.60298e-06
0.00448755
7.67428e-06
0.00448663
7.75103e-06
0.00448576
7.83255e-06
0.00448495
7.91822e-06
0.0044842
8.00746e-06
0.0044835
8.09974e-06
0.00448286
8.19464e-06
0.00448228
8.29182e-06
0.00448175
8.39105e-06
0.00448128
8.49216e-06
0.00448087
8.59507e-06
0.00448051
8.69972e-06
0.00448021
8.80606e-06
0.00447997
8.91405e-06
0.00447979
9.0236e-06
0.00447966
9.13458e-06
0.00447958
9.24684e-06
0.00447956
9.36017e-06
0.00447958
9.4743e-06
0.00447966
9.58893e-06
0.00447979
9.7037e-06
0.00447996
9.81823e-06
0.00448018
9.93219e-06
0.00448044
1.00453e-05
0.00448075
1.01571e-05
0.00448109
1.02676e-05
0.00448148
1.03765e-05
0.00448191
1.04838e-05
0.00448239
1.05894e-05
0.0044829
1.06934e-05
0.00448346
1.07959e-05
0.00448406
1.0897e-05
0.0044847
1.09969e-05
0.00448538
1.10956e-05
0.0044861
1.11933e-05
0.00448686
1.12902e-05
0.00448766
1.13861e-05
0.00448849
1.14813e-05
0.00448936
1.15755e-05
0.00449027
1.16687e-05
0.00449121
1.17607e-05
0.00449218
1.18513e-05
0.00449317
1.19404e-05
0.0044942
1.20278e-05
0.00449525
1.21132e-05
0.00449633
1.21967e-05
0.00449744
1.22782e-05
0.00449857
1.23576e-05
0.00449973
1.2435e-05
0.00450091
1.25103e-05
0.00450211
1.25836e-05
0.00450334
1.2655e-05
0.0045046
1.27249e-05
0.00450588
1.27935e-05
0.00450718
1.28608e-05
0.00450851
1.29269e-05
0.00450986
1.29919e-05
0.00451123
1.30559e-05
0.00451263
1.31191e-05
0.00451405
1.31814e-05
0.00451548
1.32425e-05
0.00451694
1.33025e-05
0.00451841
1.33615e-05
0.0045199
1.3419e-05
0.0045214
1.34749e-05
0.00452292
1.35295e-05
0.00452445
1.35823e-05
0.00452599
1.36333e-05
0.00452755
1.36828e-05
0.00452911
1.37304e-05
0.00453069
1.37763e-05
0.00453229
1.38206e-05
0.00453389
1.38636e-05
0.00453551
1.39052e-05
0.00453715
1.39456e-05
0.00453879
1.39851e-05
0.00454045
1.40237e-05
0.00454212
1.40613e-05
0.00454381
1.40983e-05
0.00454551
1.41348e-05
0.00454721
1.41706e-05
0.00454893
1.42056e-05
0.00455066
1.42398e-05
0.0045524
1.42731e-05
0.00455414
1.43057e-05
0.0045559
1.43372e-05
0.00455765
1.43672e-05
0.00455942
1.43963e-05
0.00456118
1.44242e-05
0.00456296
1.44507e-05
0.00456473
1.44757e-05
0.00456652
1.44996e-05
0.0045683
1.45225e-05
0.0045701
1.45442e-05
0.0045719
1.45648e-05
0.0045737
1.45847e-05
0.00457551
1.46039e-05
0.00457733
1.46223e-05
0.00457916
1.46404e-05
0.00458099
1.46581e-05
0.00458282
1.46752e-05
0.00458467
1.4692e-05
0.00458651
1.47085e-05
0.00458836
1.47245e-05
0.00459022
1.474e-05
0.00459208
1.47551e-05
0.00459394
1.47695e-05
0.0045958
1.47833e-05
0.00459766
1.47962e-05
0.00459952
1.48081e-05
0.00460138
1.48194e-05
0.00460324
1.48299e-05
0.0046051
1.48394e-05
0.00460696
1.48485e-05
0.00460882
1.48562e-05
0.00461068
1.48637e-05
0.00461254
1.48704e-05
0.0046144
1.48773e-05
0.00461627
1.48825e-05
0.00461813
1.4889e-05
0.00462
1.48936e-05
0.00462187
1.49011e-05
0.00462374
1.49036e-05
0.00462561
1.49129e-05
0.00462748
1.49124e-05
0.00462935
1.49278e-05
0.00463122
1.49176e-05
0.00463309
1.49474e-05
0.00463495
1.49147e-05
0.00463681
1.49833e-05
0.00463866
1.48935e-05
0.00464052
1.50611e-05
0.00464235
1.48398e-05
0.00464417
1.52635e-05
0.004646
1.46518e-05
0.00464775
1.5556e-05
1.39717e-05
0.0076521
0.00413741
0.00784383
0.00292702
0.00792916
0.00129337
0.00784179
0.00126894
0.00765053
0.00113742
0.00747065
0.000806076
0.00732624
0.000567564
0.00720467
0.000463748
0.00709643
0.000415125
0.00699903
0.000370984
0.00691179
0.000326081
0.00683349
0.000287523
0.00676262
0.000257264
0.00669796
0.00023294
0.00663863
0.000212203
0.00658399
0.000194094
0.00653348
0.000178313
0.00648663
0.00016457
0.00644303
0.000152517
0.00640234
0.000141846
0.00636428
0.000132324
0.00632862
0.000123777
0.00629513
0.000116071
0.00626362
0.000109096
0.00623391
0.000102765
0.00620585
9.70015e-05
0.0061793
9.17373e-05
0.00615411
8.691e-05
0.00613019
8.24643e-05
0.00610743
7.83534e-05
0.00608576
7.45399e-05
0.00606509
7.09943e-05
0.00604536
6.76927e-05
0.00602652
6.46132e-05
0.0060085
6.17379e-05
0.00599128
5.90483e-05
0.0059748
5.65232e-05
0.00595902
5.41517e-05
0.00594391
5.19261e-05
0.00592943
4.98294e-05
0.00591554
4.78495e-05
0.00590222
4.59817e-05
0.00588943
4.42177e-05
0.00587713
4.25461e-05
0.00586531
4.09594e-05
0.00585393
3.94478e-05
0.00584297
3.80045e-05
0.00583241
3.66248e-05
0.00582224
3.53006e-05
0.00581244
3.40426e-05
0.00580298
3.28429e-05
0.00579386
3.1683e-05
0.00578508
3.05673e-05
0.00577662
2.94926e-05
0.00576846
2.84572e-05
0.00576061
2.74629e-05
0.00575305
2.65089e-05
0.00574577
2.55915e-05
0.00573876
2.47071e-05
0.00573201
2.38558e-05
0.00572552
2.3033e-05
0.00571926
2.22369e-05
0.00571323
2.14768e-05
0.00570742
2.07424e-05
0.00570181
2.00331e-05
0.00569641
1.93499e-05
0.00569119
1.86922e-05
0.00568616
1.80594e-05
0.00568129
1.74526e-05
0.0056766
1.68722e-05
0.00567207
1.63164e-05
0.00566769
1.57856e-05
0.00566347
1.52809e-05
0.00565939
1.48024e-05
0.00565545
1.435e-05
0.00565165
1.39236e-05
0.00564798
1.35233e-05
0.00564444
1.3149e-05
0.00564102
1.28001e-05
0.00563771
1.24758e-05
0.00563452
1.21755e-05
0.00563143
1.18988e-05
0.00562844
1.16449e-05
0.00562554
1.1413e-05
0.00562273
1.12019e-05
0.00562001
1.10103e-05
0.00561736
1.08375e-05
0.0056148
1.06827e-05
0.0056123
1.05451e-05
0.00560989
1.0424e-05
0.00560754
1.03188e-05
0.00560527
1.02289e-05
0.00560307
1.01539e-05
0.00560094
1.00935e-05
0.00559888
1.0047e-05
0.00559689
1.00141e-05
0.00559498
9.99424e-06
0.00559314
9.98686e-06
0.00559138
9.99125e-06
0.00558968
1.00067e-05
0.00558805
1.00324e-05
0.0055865
1.00675e-05
0.00558501
1.01111e-05
0.00558359
1.01621e-05
0.00558224
1.02196e-05
0.00558094
1.02829e-05
0.00557971
1.03512e-05
0.00557855
1.04238e-05
0.00557744
1.05004e-05
0.00557639
1.05804e-05
0.00557541
1.06637e-05
0.00557448
1.075e-05
0.00557362
1.08393e-05
0.00557282
1.09316e-05
0.00557209
1.10268e-05
0.00557142
1.1125e-05
0.00557081
1.1226e-05
0.00557028
1.13297e-05
0.00556981
1.14359e-05
0.00556941
1.15443e-05
0.00556907
1.16545e-05
0.0055688
1.17661e-05
0.00556859
1.18786e-05
0.00556844
1.19915e-05
0.00556835
1.21043e-05
0.00556832
1.22165e-05
0.00556834
1.23279e-05
0.00556842
1.2438e-05
0.00556855
1.25468e-05
0.00556873
1.26541e-05
0.00556897
1.27599e-05
0.00556925
1.28644e-05
0.00556958
1.29677e-05
0.00556997
1.30701e-05
0.0055704
1.31717e-05
0.00557089
1.32727e-05
0.00557143
1.33734e-05
0.00557202
1.34737e-05
0.00557266
1.35739e-05
0.00557335
1.36738e-05
0.00557409
1.37733e-05
0.00557488
1.38722e-05
0.00557572
1.39702e-05
0.00557661
1.40672e-05
0.00557754
1.41627e-05
0.00557851
1.42564e-05
0.00557952
1.43481e-05
0.00558057
1.44377e-05
0.00558165
1.4525e-05
0.00558277
1.46101e-05
0.00558392
1.4693e-05
0.0055851
1.47739e-05
0.00558632
1.48527e-05
0.00558756
1.49296e-05
0.00558884
1.50049e-05
0.00559015
1.50791e-05
0.0055915
1.51525e-05
0.00559287
1.5225e-05
0.00559428
1.52968e-05
0.00559572
1.53679e-05
0.0055972
1.54383e-05
0.0055987
1.55082e-05
0.00560024
1.55774e-05
0.00560181
1.56453e-05
0.0056034
1.57119e-05
0.00560502
1.57774e-05
0.00560667
1.58411e-05
0.00560834
1.59027e-05
0.00561003
1.59626e-05
0.00561175
1.60203e-05
0.00561348
1.60757e-05
0.00561523
1.61294e-05
0.00561699
1.61811e-05
0.00561878
1.62308e-05
0.00562058
1.62789e-05
0.00562239
1.63259e-05
0.00562423
1.63717e-05
0.00562608
1.64165e-05
0.00562795
1.64607e-05
0.00562984
1.65044e-05
0.00563175
1.65474e-05
0.00563368
1.659e-05
0.00563562
1.66323e-05
0.00563759
1.66739e-05
0.00563957
1.67147e-05
0.00564157
1.67545e-05
0.00564359
1.67931e-05
0.00564562
1.68308e-05
0.00564767
1.68669e-05
0.00564972
1.69011e-05
0.00565179
1.69339e-05
0.00565386
1.69652e-05
0.00565594
1.69947e-05
0.00565803
1.70223e-05
0.00566013
1.70487e-05
0.00566223
1.7074e-05
0.00566435
1.70981e-05
0.00566647
1.71212e-05
0.00566859
1.71439e-05
0.00567073
1.7166e-05
0.00567288
1.71877e-05
0.00567503
1.72093e-05
0.0056772
1.72307e-05
0.00567938
1.72518e-05
0.00568157
1.72727e-05
0.00568377
1.72933e-05
0.00568597
1.73132e-05
0.00568819
1.73326e-05
0.00569041
1.73513e-05
0.00569264
1.7369e-05
0.00569488
1.73857e-05
0.00569712
1.74012e-05
0.00569936
1.74153e-05
0.00570161
1.74283e-05
0.00570385
1.74404e-05
0.0057061
1.74512e-05
0.00570835
1.74614e-05
0.00571059
1.74703e-05
0.00571284
1.74788e-05
0.00571509
1.7487e-05
0.00571734
1.74951e-05
0.0057196
1.75024e-05
0.00572186
1.75105e-05
0.00572412
1.75181e-05
0.00572638
1.75273e-05
0.00572865
1.7534e-05
0.00573093
1.75442e-05
0.0057332
1.75497e-05
0.00573549
1.75641e-05
0.00573777
1.75629e-05
0.00574006
1.75875e-05
0.00574233
1.75688e-05
0.00574463
1.76262e-05
0.0057469
1.75583e-05
0.00574918
1.77076e-05
0.00575144
1.75204e-05
0.0057537
1.7926e-05
0.00575593
1.73551e-05
0.00575815
1.82577e-05
1.65346e-05
0.00762214
0.00342597
0.00794934
0.00260049
0.0081758
0.00106748
0.00830808
0.00113711
0.00830908
0.00113677
0.00825501
0.000860436
0.00818719
0.000635677
0.0081142
0.000537094
0.00803962
0.000490146
0.00796702
0.000444122
0.00789852
0.000395208
0.00783463
0.000352092
0.00777509
0.000317496
0.00771952
0.000289195
0.00766757
0.000264794
0.00761896
0.000243288
0.0075734
0.00022438
0.00753062
0.000207786
0.0074904
0.000193135
0.00745252
0.00018009
0.00741681
0.000168393
0.0073831
0.000157849
0.00735127
0.000148304
0.00732118
0.000139635
0.00729269
0.00013174
0.00726568
0.000124532
0.00724004
0.00011793
0.00721565
0.000111859
0.00719242
0.000106253
0.00717026
0.000101057
0.00714909
9.62242e-05
0.00712884
9.17208e-05
0.00710946
8.75181e-05
0.00709089
8.35911e-05
0.0070731
7.99185e-05
0.00705603
7.64771e-05
0.00703967
7.3244e-05
0.00702397
7.02056e-05
0.00700891
6.7348e-05
0.00699447
6.46531e-05
0.00698062
6.21085e-05
0.00696732
5.97058e-05
0.00695455
5.74332e-05
0.00694228
5.52767e-05
0.00693048
5.32273e-05
0.00691912
5.12721e-05
0.00690818
4.9403e-05
0.00689763
4.76137e-05
0.00688746
4.58942e-05
0.00687765
4.42586e-05
0.00686818
4.26981e-05
0.00685903
4.11896e-05
0.0068502
3.97369e-05
0.00684168
3.83377e-05
0.00683347
3.69916e-05
0.00682555
3.56994e-05
0.00681793
3.44599e-05
0.00681058
3.32686e-05
0.00680351
3.2121e-05
0.0067967
3.10171e-05
0.00679015
2.99504e-05
0.00678385
2.89191e-05
0.00677777
2.79345e-05
0.00677192
2.69831e-05
0.00676628
2.60644e-05
0.00676083
2.51796e-05
0.00675557
2.43275e-05
0.00675048
2.3508e-05
0.00674555
2.27221e-05
0.00674078
2.19706e-05
0.00673616
2.12513e-05
0.00673167
2.05647e-05
0.00672733
1.99122e-05
0.00672312
1.92939e-05
0.00671904
1.87095e-05
0.00671508
1.81589e-05
0.00671125
1.76419e-05
0.00670753
1.71579e-05
0.00670393
1.67059e-05
0.00670044