/*--------------------------------*- C++ -*----------------------------------*\
  =========                 |
  \\      /  F ield         | OpenFOAM: The Open Source CFD Toolbox
   \\    /   O peration     | Website:  https://openfoam.org
    \\  /    A nd           | Version:  7
     \\/     M anipulation  |
\*---------------------------------------------------------------------------*/
FoamFile
{
    version     2.0;
    format      ascii;
    class       volScalarField;
    location    "2.7575";
    object      T;
}
// * * * * * * * * * * * * * * * * * * * * * * * * * * * * * * * * * * * * * //

dimensions      [0 0 0 1 0 0 0];

internalField   nonuniform List<scalar> 
7920
(
282.711
282.692
282.578
282.648
282.583
282.658
282.615
282.672
282.636
282.675
282.647
282.675
282.661
282.675
282.679
282.665
282.713
282.627
282.802
282.487
282.762
282.747
282.674
282.707
282.662
282.702
282.684
282.716
282.707
282.727
282.719
282.73
282.732
282.731
282.749
282.72
282.783
282.677
282.877
282.52
282.728
282.726
282.631
282.675
282.608
282.649
282.607
282.648
282.624
282.66
282.647
282.673
282.671
282.682
282.697
282.682
282.731
282.662
282.785
282.606
282.754
282.758
282.686
282.726
282.677
282.708
282.676
282.704
282.687
282.712
282.709
282.728
282.736
282.746
282.765
282.761
282.791
282.766
282.814
282.761
282.733
282.745
282.656
282.708
282.646
282.687
282.644
282.678
282.65
282.681
282.667
282.695
282.692
282.716
282.719
282.738
282.745
282.758
282.765
282.773
282.739
282.762
282.673
282.73
282.669
282.713
282.669
282.705
282.675
282.707
282.69
282.72
282.713
282.741
282.74
282.765
282.766
282.789
282.787
282.81
282.739
282.762
282.673
282.73
282.669
282.713
282.668
282.705
282.675
282.707
282.69
282.72
282.713
282.741
282.739
282.765
282.766
282.789
282.787
282.81
282.733
282.745
282.656
282.708
282.646
282.688
282.644
282.678
282.65
282.682
282.666
282.696
282.69
282.718
282.717
282.741
282.742
282.762
282.76
282.777
282.754
282.758
282.686
282.726
282.677
282.709
282.675
282.704
282.686
282.713
282.707
282.731
282.732
282.751
282.757
282.771
282.777
282.786
282.789
282.792
282.728
282.726
282.631
282.675
282.608
282.65
282.607
282.649
282.623
282.662
282.645
282.677
282.665
282.691
282.684
282.704
282.698
282.713
282.708
282.717
282.762
282.747
282.674
282.707
282.662
282.702
282.683
282.717
282.706
282.728
282.717
282.734
282.726
282.74
282.734
282.745
282.74
282.75
282.746
282.752
282.711
282.692
282.578
282.648
282.582
282.658
282.615
282.673
282.635
282.676
282.645
282.679
282.656
282.683
282.665
282.687
282.675
282.694
282.682
282.702
283.239
283.195
283.276
283.197
283.268
283.206
283.271
283.218
283.263
283.211
283.248
283.202
283.242
283.191
283.242
283.163
283.267
283.09
283.402
282.794
283.182
283.133
283.166
283.122
283.143
283.113
283.134
283.119
283.134
283.118
283.132
283.113
283.133
283.102
283.139
283.076
283.162
283.015
283.238
282.859
283.228
283.165
283.231
283.171
283.216
283.166
283.202
283.165
283.197
283.168
283.197
283.17
283.198
283.165
283.2
283.148
283.207
283.112
283.227
283.051
283.198
283.129
283.181
283.124
283.157
283.112
283.136
283.103
283.123
283.101
283.119
283.103
283.12
283.105
283.121
283.101
283.122
283.089
283.118
283.071
283.222
283.144
283.213
283.143
283.19
283.135
283.169
283.127
283.154
283.124
283.149
283.128
283.149
283.133
283.151
283.136
283.15
283.133
283.14
283.125
283.214
283.125
283.195
283.12
283.167
283.11
283.144
283.101
283.129
283.097
283.122
283.1
283.121
283.106
283.122
283.111
283.121
283.112
283.112
283.103
283.214
283.125
283.195
283.12
283.167
283.11
283.144
283.101
283.128
283.097
283.121
283.1
283.121
283.106
283.122
283.112
283.121
283.112
283.113
283.102
283.222
283.144
283.213
283.143
283.19
283.135
283.168
283.127
283.154
283.125
283.148
283.128
283.148
283.134
283.149
283.138
283.147
283.136
283.137
283.126
283.198
283.129
283.18
283.124
283.157
283.113
283.136
283.103
283.122
283.102
283.117
283.106
283.116
283.11
283.115
283.11
283.11
283.104
283.099
283.093
283.228
283.165
283.231
283.171
283.216
283.166
283.201
283.166
283.196
283.17
283.195
283.174
283.192
283.175
283.186
283.17
283.175
283.158
283.161
283.144
283.182
283.133
283.166
283.122
283.143
283.114
283.134
283.12
283.133
283.121
283.129
283.118
283.125
283.115
283.118
283.109
283.109
283.101
283.1
283.089
283.239
283.195
283.276
283.197
283.267
283.206
283.271
283.219
283.262
283.213
283.245
283.207
283.234
283.203
283.221
283.197
283.209
283.192
283.199
283.175
283.154
283.145
283.152
283.138
283.147
283.148
283.181
283.191
283.208
283.185
283.195
283.172
283.209
283.159
283.235
283.105
283.311
282.964
283.547
282.573
283.151
283.141
283.139
283.129
283.127
283.12
283.127
283.13
283.146
283.146
283.165
283.151
283.181
283.142
283.199
283.11
283.23
283.045
283.293
282.942
283.152
283.142
283.142
283.132
283.131
283.123
283.126
283.122
283.132
283.133
283.149
283.148
283.169
283.159
283.185
283.159
283.194
283.146
283.194
283.125
283.152
283.141
283.139
283.128
283.125
283.117
283.117
283.113
283.117
283.118
283.127
283.131
283.142
283.146
283.156
283.157
283.163
283.161
283.157
283.158
283.152
283.142
283.141
283.13
283.128
283.12
283.12
283.116
283.119
283.121
283.128
283.133
283.141
283.148
283.155
283.161
283.163
283.169
283.16
283.168
283.153
283.141
283.14
283.128
283.126
283.117
283.116
283.112
283.115
283.116
283.122
283.127
283.135
283.141
283.148
283.154
283.157
283.161
283.156
283.16
283.153
283.141
283.14
283.128
283.126
283.117
283.116
283.112
283.115
283.116
283.123
283.127
283.135
283.141
283.148
283.154
283.157
283.161
283.157
283.158
283.152
283.142
283.141
283.13
283.128
283.12
283.119
283.116
283.119
283.121
283.128
283.133
283.141
283.147
283.155
283.161
283.164
283.167
283.163
283.163
283.152
283.141
283.139
283.128
283.125
283.118
283.116
283.113
283.116
283.119
283.126
283.132
283.14
283.147
283.154
283.159
283.161
283.162
283.158
283.155
283.152
283.142
283.142
283.132
283.131
283.124
283.125
283.124
283.13
283.136
283.145
283.153
283.162
283.168
283.174
283.175
283.175
283.171
283.165
283.159
283.151
283.141
283.139
283.129
283.127
283.121
283.126
283.132
283.143
283.15
283.158
283.162
283.165
283.165
283.164
283.16
283.156
283.151
283.146
283.143
283.154
283.145
283.151
283.138
283.147
283.148
283.18
283.193
283.205
283.19
283.189
283.183
283.192
283.188
283.188
283.182
283.182
283.179
283.18
283.176
283.154
283.145
283.152
283.138
283.147
283.148
283.181
283.191
283.208
283.185
283.195
283.172
283.209
283.159
283.235
283.105
283.311
282.964
283.547
282.573
283.151
283.141
283.139
283.129
283.127
283.12
283.127
283.13
283.146
283.146
283.165
283.151
283.181
283.142
283.199
283.11
283.23
283.045
283.293
282.942
283.152
283.142
283.142
283.132
283.131
283.123
283.126
283.122
283.132
283.133
283.149
283.148
283.169
283.159
283.185
283.159
283.194
283.146
283.194
283.125
283.152
283.141
283.139
283.128
283.125
283.117
283.117
283.113
283.117
283.118
283.127
283.131
283.142
283.146
283.156
283.157
283.163
283.161
283.157
283.158
283.152
283.142
283.141
283.13
283.128
283.12
283.12
283.116
283.119
283.121
283.128
283.133
283.141
283.148
283.155
283.161
283.163
283.169
283.16
283.168
283.153
283.141
283.14
283.128
283.126
283.117
283.116
283.112
283.115
283.116
283.122
283.127
283.135
283.141
283.148
283.154
283.157
283.161
283.156
283.16
283.153
283.141
283.14
283.128
283.126
283.117
283.116
283.112
283.115
283.116
283.123
283.127
283.135
283.141
283.148
283.154
283.157
283.161
283.157
283.158
283.152
283.142
283.141
283.13
283.128
283.12
283.119
283.116
283.119
283.121
283.128
283.133
283.141
283.147
283.155
283.161
283.164
283.167
283.163
283.163
283.152
283.141
283.139
283.128
283.125
283.118
283.116
283.113
283.116
283.119
283.126
283.132
283.14
283.147
283.154
283.159
283.161
283.162
283.158
283.155
283.152
283.142
283.142
283.132
283.131
283.124
283.125
283.124
283.13
283.136
283.145
283.153
283.162
283.168
283.174
283.175
283.175
283.171
283.165
283.159
283.151
283.141
283.139
283.129
283.127
283.121
283.126
283.132
283.143
283.15
283.158
283.162
283.165
283.165
283.164
283.16
283.156
283.151
283.146
283.143
283.154
283.145
283.151
283.138
283.147
283.148
283.18
283.193
283.205
283.19
283.189
283.183
283.192
283.188
283.188
283.182
283.182
283.179
283.18
283.176
283.239
283.195
283.276
283.197
283.268
283.206
283.271
283.218
283.263
283.211
283.248
283.202
283.242
283.191
283.242
283.163
283.267
283.09
283.402
282.794
283.182
283.133
283.166
283.122
283.143
283.113
283.134
283.119
283.134
283.118
283.132
283.113
283.133
283.102
283.139
283.076
283.162
283.015
283.238
282.859
283.228
283.165
283.231
283.171
283.216
283.166
283.202
283.165
283.197
283.168
283.197
283.17
283.198
283.165
283.2
283.148
283.207
283.112
283.227
283.051
283.198
283.129
283.181
283.124
283.157
283.112
283.136
283.103
283.123
283.101
283.119
283.103
283.12
283.105
283.121
283.101
283.122
283.089
283.118
283.071
283.222
283.144
283.213
283.143
283.19
283.135
283.169
283.127
283.154
283.124
283.149
283.128
283.149
283.133
283.151
283.136
283.15
283.133
283.14
283.125
283.214
283.125
283.195
283.12
283.167
283.11
283.144
283.101
283.129
283.097
283.122
283.1
283.121
283.106
283.122
283.111
283.121
283.112
283.112
283.103
283.214
283.125
283.195
283.12
283.167
283.11
283.144
283.101
283.128
283.097
283.121
283.1
283.121
283.106
283.122
283.112
283.121
283.112
283.113
283.102
283.222
283.144
283.213
283.143
283.19
283.135
283.168
283.127
283.154
283.125
283.148
283.128
283.148
283.134
283.149
283.138
283.147
283.136
283.137
283.126
283.198
283.129
283.18
283.124
283.157
283.113
283.136
283.103
283.122
283.102
283.117
283.106
283.116
283.11
283.115
283.11
283.11
283.104
283.099
283.093
283.228
283.165
283.231
283.171
283.216
283.166
283.201
283.166
283.196
283.17
283.195
283.174
283.192
283.175
283.186
283.17
283.175
283.158
283.161
283.144
283.182
283.133
283.166
283.122
283.143
283.114
283.134
283.12
283.133
283.121
283.129
283.118
283.125
283.115
283.118
283.109
283.109
283.101
283.1
283.089
283.239
283.195
283.276
283.197
283.267
283.206
283.271
283.219
283.262
283.213
283.245
283.207
283.234
283.203
283.221
283.197
283.209
283.192
283.199
283.175
282.711
282.692
282.578
282.648
282.583
282.658
282.615
282.672
282.636
282.675
282.647
282.675
282.661
282.675
282.679
282.665
282.713
282.627
282.802
282.487
282.762
282.747
282.674
282.707
282.662
282.702
282.684
282.716
282.707
282.727
282.719
282.73
282.732
282.731
282.749
282.72
282.783
282.677
282.877
282.52
282.728
282.726
282.631
282.675
282.608
282.649
282.607
282.648
282.624
282.66
282.647
282.673
282.671
282.682
282.697
282.682
282.731
282.662
282.785
282.606
282.754
282.758
282.686
282.726
282.677
282.708
282.676
282.704
282.687
282.712
282.709
282.728
282.736
282.746
282.765
282.761
282.791
282.766
282.814
282.761
282.733
282.745
282.656
282.708
282.646
282.687
282.644
282.678
282.65
282.681
282.667
282.695
282.692
282.716
282.719
282.738
282.745
282.758
282.765
282.773
282.739
282.762
282.673
282.73
282.669
282.713
282.669
282.705
282.675
282.707
282.69
282.72
282.713
282.741
282.74
282.765
282.766
282.789
282.787
282.81
282.739
282.762
282.673
282.73
282.669
282.713
282.668
282.705
282.675
282.707
282.69
282.72
282.713
282.741
282.739
282.765
282.766
282.789
282.787
282.81
282.733
282.745
282.656
282.708
282.646
282.688
282.644
282.678
282.65
282.682
282.666
282.696
282.69
282.718
282.717
282.741
282.742
282.762
282.76
282.777
282.754
282.758
282.686
282.726
282.677
282.709
282.675
282.704
282.686
282.713
282.707
282.731
282.732
282.751
282.757
282.771
282.777
282.786
282.789
282.792
282.728
282.726
282.631
282.675
282.608
282.65
282.607
282.649
282.623
282.662
282.645
282.677
282.665
282.691
282.684
282.704
282.698
282.713
282.708
282.717
282.762
282.747
282.674
282.707
282.662
282.702
282.683
282.717
282.706
282.728
282.717
282.734
282.726
282.74
282.734
282.745
282.74
282.75
282.746
282.752
282.711
282.692
282.578
282.648
282.582
282.658
282.615
282.673
282.635
282.676
282.645
282.679
282.656
282.683
282.665
282.687
282.675
282.694
282.682
282.702
284.843
286.448
287.498
288.344
289.028
289.639
290.174
290.676
291.132
291.565
291.965
292.349
292.712
293.066
293.405
293.735
294.053
294.363
294.665
294.962
295.252
295.538
295.816
296.09
296.357
296.62
296.876
297.125
297.367
297.601
297.825
298.038
298.239
298.427
298.6
298.758
298.899
299.025
299.133
299.226
299.304
299.367
299.418
299.458
299.488
299.51
299.526
299.537
299.544
299.548
299.551
299.552
299.552
299.552
299.552
299.552
299.551
299.55
299.55
299.549
299.548
299.548
299.547
299.546
299.546
299.545
299.544
299.544
299.543
299.542
299.542
299.541
299.541
299.54
299.539
299.539
299.538
299.537
299.537
299.536
299.535
299.534
299.533
299.533
299.531
299.531
299.528
299.528
299.524
299.52
284.016
285.481
286.493
287.315
287.989
288.588
289.116
289.609
290.061
290.49
290.888
291.269
291.63
291.981
292.318
292.647
292.964
293.273
293.575
293.871
294.16
294.445
294.724
294.998
295.266
295.528
295.785
296.036
296.28
296.515
296.741
296.957
297.162
297.353
297.53
297.693
297.839
297.969
298.082
298.18
298.262
298.329
298.384
298.427
298.46
298.484
298.501
298.514
298.522
298.527
298.53
298.532
298.532
298.532
298.532
298.532
298.531
298.53
298.53
298.529
298.528
298.527
298.527
298.526
298.525
298.525
298.524
298.523
298.523
298.522
298.521
298.521
298.52
298.519
298.519
298.518
298.517
298.517
298.516
298.515
298.514
298.514
298.513
298.512
298.511
298.51
298.508
298.508
298.503
298.499
283.209
284.268
285.124
285.874
286.5
287.068
287.566
288.039
288.473
288.891
289.279
289.652
290.004
290.348
290.678
291.003
291.316
291.623
291.921
292.215
292.502
292.786
293.064
293.338
293.606
293.87
294.128
294.381
294.628
294.867
295.098
295.32
295.531
295.73
295.916
296.088
296.244
296.384
296.508
296.616
296.708
296.784
296.847
296.898
296.937
296.967
296.989
297.004
297.015
297.022
297.026
297.029
297.03
297.03
297.03
297.03
297.029
297.028
297.028
297.027
297.026
297.025
297.025
297.024
297.023
297.023
297.022
297.021
297.02
297.02
297.019
297.018
297.018
297.017
297.016
297.016
297.015
297.014
297.013
297.013
297.012
297.011
297.01
297.009
297.007
297.007
297.004
297.005
296.998
296.992
282.913
283.499
284.11
284.709
285.245
285.739
286.183
286.607
287.005
287.393
287.76
288.112
288.447
288.773
289.09
289.404
289.709
290.008
290.299
290.586
290.868
291.148
291.423
291.695
291.962
292.224
292.483
292.737
292.986
293.23
293.465
293.693
293.911
294.119
294.314
294.496
294.663
294.815
294.951
295.07
295.174
295.261
295.334
295.394
295.441
295.477
295.504
295.524
295.538
295.547
295.553
295.557
295.559
295.56
295.56
295.559
295.559
295.558
295.558
295.557
295.556
295.555
295.555
295.554
295.553
295.552
295.552
295.551
295.55
295.549
295.549
295.548
295.547
295.547
295.546
295.545
295.544
295.544
295.543
295.542
295.541
295.541
295.54
295.539
295.538
295.537
295.535
295.535
295.53
295.524
282.783
283.064
283.429
283.868
284.283
284.69
285.059
285.421
285.768
286.116
286.45
286.774
287.083
287.387
287.685
287.983
288.274
288.562
288.843
289.121
289.396
289.669
289.939
290.207
290.471
290.732
290.989
291.243
291.493
291.738
291.977
292.209
292.432
292.646
292.848
293.038
293.214
293.375
293.52
293.649
293.762
293.859
293.94
294.007
294.06
294.102
294.134
294.158
294.174
294.186
294.193
294.198
294.2
294.201
294.202
294.202
294.201
294.201
294.2
294.199
294.199
294.198
294.197
294.196
294.195
294.195
294.194
294.193
294.193
294.192
294.191
294.19
294.19
294.189
294.188
294.187
294.187
294.186
294.185
294.184
294.183
294.183
294.182
294.181
294.179
294.179
294.176
294.176
294.173
294.167
282.791
282.914
283.104
283.397
283.694
284
284.289
284.576
284.864
285.16
285.452
285.739
286.017
286.292
286.565
286.841
287.116
287.388
287.656
287.921
288.185
288.45
288.713
288.974
289.233
289.49
289.744
289.996
290.245
290.49
290.73
290.963
291.188
291.404
291.61
291.804
291.984
292.15
292.3
292.434
292.552
292.653
292.739
292.81
292.867
292.912
292.946
292.972
292.99
293.003
293.011
293.016
293.019
293.021
293.021
293.021
293.021
293.02
293.02
293.019
293.018
293.017
293.016
293.016
293.015
293.014
293.013
293.013
293.012
293.011
293.011
293.01
293.009
293.008
293.008
293.007
293.006
293.006
293.005
293.004
293.003
293.003
293.002
293.001
293
292.999
292.998
292.997
292.996
292.992
282.795
282.852
282.941
283.127
283.325
283.545
283.757
283.978
284.209
284.454
284.703
284.952
285.197
285.443
285.692
285.946
286.202
286.457
286.711
286.964
287.218
287.473
287.728
287.982
288.236
288.487
288.738
288.986
289.233
289.476
289.714
289.945
290.169
290.385
290.59
290.783
290.963
291.129
291.278
291.412
291.529
291.63
291.715
291.786
291.843
291.888
291.923
291.948
291.966
291.979
291.987
291.992
291.995
291.997
291.997
291.997
291.997
291.996
291.995
291.995
291.994
291.993
291.992
291.992
291.991
291.99
291.989
291.989
291.988
291.987
291.986
291.986
291.985
291.984
291.984
291.983
291.982
291.981
291.981
291.98
291.979
291.979
291.978
291.977
291.976
291.975
291.974
291.973
291.973
291.97
282.775
282.812
282.852
282.969
283.095
283.247
283.396
283.567
283.749
283.953
284.161
284.378
284.593
284.815
285.041
285.276
285.514
285.755
285.995
286.237
286.48
286.727
286.974
287.223
287.47
287.717
287.963
288.208
288.451
288.69
288.925
289.153
289.373
289.584
289.784
289.973
290.147
290.307
290.451
290.579
290.69
290.786
290.867
290.933
290.986
291.028
291.059
291.083
291.099
291.11
291.118
291.122
291.125
291.126
291.126
291.126
291.126
291.125
291.124
291.124
291.123
291.122
291.121
291.121
291.12
291.119
291.118
291.118
291.117
291.116
291.115
291.115
291.114
291.113
291.112
291.112
291.111
291.11
291.109
291.109
291.108
291.107
291.106
291.105
291.104
291.103
291.102
291.1
291.099
291.097
282.8
282.825
282.848
282.918
282.996
283.095
283.201
283.331
283.477
283.645
283.822
284.008
284.199
284.401
284.61
284.828
285.05
285.277
285.506
285.739
285.974
286.213
286.453
286.696
286.938
287.18
287.422
287.663
287.901
288.136
288.365
288.587
288.8
289.004
289.196
289.375
289.54
289.69
289.824
289.941
290.043
290.13
290.202
290.26
290.306
290.342
290.369
290.388
290.402
290.411
290.417
290.42
290.422
290.423
290.423
290.423
290.422
290.421
290.421
290.42
290.419
290.418
290.418
290.417
290.416
290.415
290.415
290.414
290.413
290.412
290.412
290.411
290.41
290.409
290.409
290.408
290.407
290.407
290.406
290.405
290.404
290.404
290.403
290.402
290.401
290.4
290.399
290.397
290.397
290.396
282.733
282.772
282.786
282.84
282.886
282.961
283.04
283.15
283.274
283.421
283.576
283.745
283.921
284.11
284.307
284.515
284.727
284.946
285.167
285.394
285.623
285.857
286.093
286.331
286.569
286.808
287.047
287.284
287.517
287.747
287.969
288.184
288.39
288.584
288.766
288.934
289.087
289.225
289.346
289.451
289.541
289.617
289.678
289.727
289.766
289.795
289.816
289.831
289.841
289.848
289.852
289.854
289.855
289.856
289.855
289.855
289.854
289.854
289.853
289.852
289.851
289.85
289.85
289.849
289.848
289.847
289.847
289.846
289.845
289.844
289.844
289.843
289.842
289.842
289.841
289.84
289.839
289.839
289.838
289.837
289.836
289.835
289.834
289.833
289.832
289.831
289.829
289.828
289.827
289.826
282.768
282.8
282.811
282.849
282.88
282.938
283.007
283.105
283.217
283.351
283.494
283.653
283.821
284.004
284.195
284.396
284.602
284.815
285.033
285.256
285.483
285.713
285.946
286.182
286.418
286.654
286.89
287.124
287.353
287.578
287.795
288.004
288.202
288.389
288.561
288.719
288.862
288.989
289.099
289.194
289.274
289.339
289.392
289.434
289.465
289.489
289.506
289.517
289.525
289.53
289.532
289.534
289.534
289.534
289.534
289.533
289.533
289.532
289.531
289.53
289.529
289.529
289.528
289.527
289.526
289.526
289.525
289.524
289.523
289.523
289.522
289.521
289.52
289.52
289.519
289.518
289.517
289.517
289.516
289.515
289.514
289.514
289.513
289.512
289.511
289.51
289.508
289.507
289.506
289.505
282.706
282.744
282.752
282.789
282.815
282.873
282.938
283.036
283.144
283.276
283.415
283.572
283.739
283.92
284.11
284.31
284.514
284.726
284.942
285.165
285.391
285.621
285.853
286.087
286.323
286.558
286.793
287.025
287.253
287.476
287.691
287.897
288.091
288.274
288.442
288.596
288.734
288.855
288.961
289.051
289.126
289.188
289.237
289.275
289.304
289.325
289.34
289.35
289.356
289.36
289.363
289.364
289.364
289.364
289.363
289.363
289.362
289.361
289.36
289.36
289.359
289.358
289.357
289.356
289.356
289.355
289.354
289.353
289.353
289.352
289.351
289.35
289.35
289.349
289.348
289.347
289.347
289.346
289.345
289.344
289.343
289.343
289.342
289.341
289.339
289.339
289.337
289.336
289.334
289.333
285.527
287.279
288.393
289.234
289.941
290.544
291.092
291.588
292.052
292.48
292.885
293.266
293.633
293.984
294.325
294.654
294.973
295.283
295.586
295.883
296.174
296.458
296.738
297.011
297.279
297.541
297.797
298.046
298.288
298.521
298.744
298.956
299.156
299.343
299.515
299.671
299.811
299.935
300.042
300.134
300.21
300.272
300.322
300.36
300.389
300.411
300.426
300.436
300.443
300.447
300.449
300.451
300.451
300.451
300.45
300.45
300.449
300.449
300.448
300.447
300.447
300.446
300.445
300.445
300.444
300.443
300.443
300.442
300.442
300.441
300.44
300.44
300.439
300.439
300.438
300.438
300.437
300.437
300.436
300.436
300.435
300.435
300.434
300.434
300.434
300.433
300.434
300.433
300.438
300.437
284.186
285.635
286.678
287.498
288.189
288.785
289.323
289.813
290.272
290.699
291.101
291.481
291.845
292.195
292.535
292.863
293.182
293.491
293.794
294.09
294.38
294.665
294.945
295.219
295.487
295.75
296.008
296.259
296.503
296.739
296.965
297.182
297.387
297.579
297.757
297.92
298.067
298.198
298.312
298.41
298.493
298.562
298.617
298.661
298.694
298.719
298.736
298.749
298.757
298.762
298.766
298.767
298.768
298.768
298.768
298.767
298.767
298.766
298.765
298.765
298.764
298.763
298.763
298.762
298.761
298.761
298.76
298.759
298.759
298.758
298.758
298.757
298.756
298.756
298.755
298.755
298.754
298.753
298.753
298.752
298.752
298.751
298.751
298.75
298.75
298.749
298.75
298.748
298.752
298.751
283.494
284.423
285.274
285.99
286.625
287.176
287.681
288.142
288.582
288.993
289.386
289.755
290.11
290.45
290.783
291.106
291.421
291.726
292.026
292.318
292.606
292.89
293.168
293.442
293.711
293.974
294.233
294.486
294.734
294.974
295.206
295.429
295.641
295.842
296.029
296.203
296.361
296.503
296.629
296.739
296.833
296.911
296.976
297.028
297.069
297.1
297.122
297.139
297.15
297.157
297.162
297.165
297.166
297.166
297.166
297.166
297.165
297.165
297.164
297.163
297.163
297.162
297.161
297.16
297.16
297.159
297.158
297.158
297.157
297.156
297.156
297.155
297.155
297.154
297.153
297.153
297.152
297.152
297.151
297.151
297.15
297.15
297.149
297.149
297.149
297.148
297.149
297.148
297.151
297.15
283.146
283.609
284.178
284.734
285.261
285.737
286.18
286.594
286.994
287.378
287.747
288.097
288.434
288.759
289.077
289.39
289.696
289.995
290.287
290.574
290.857
291.136
291.412
291.684
291.951
292.214
292.473
292.728
292.978
293.222
293.459
293.688
293.907
294.117
294.314
294.498
294.668
294.822
294.961
295.083
295.189
295.279
295.355
295.416
295.466
295.504
295.532
295.553
295.568
295.578
295.584
295.588
295.59
295.591
295.591
295.591
295.591
295.59
295.589
295.589
295.588
295.587
295.586
295.586
295.585
295.584
295.584
295.583
295.582
295.582
295.581
295.58
295.58
295.579
295.578
295.578
295.577
295.576
295.576
295.575
295.575
295.574
295.574
295.573
295.573
295.572
295.572
295.571
295.573
295.571
283.1
283.254
283.577
283.942
284.337
284.707
285.067
285.409
285.752
286.089
286.422
286.741
287.05
287.35
287.647
287.941
288.233
288.519
288.801
289.077
289.351
289.623
289.894
290.161
290.425
290.685
290.942
291.197
291.447
291.693
291.933
292.166
292.39
292.606
292.81
293.003
293.182
293.346
293.494
293.626
293.742
293.842
293.926
293.996
294.052
294.096
294.13
294.155
294.173
294.185
294.193
294.198
294.201
294.203
294.203
294.203
294.203
294.202
294.201
294.201
294.2
294.199
294.198
294.198
294.197
294.196
294.196
294.195
294.194
294.193
294.193
294.192
294.191
294.191
294.19
294.189
294.189
294.188
294.188
294.187
294.187
294.186
294.186
294.185
294.185
294.184
294.185
294.184
294.186
294.184
283.072
283.082
283.236
283.448
283.717
283.985
284.255
284.524
284.803
285.088
285.377
285.659
285.934
286.206
286.477
286.75
287.024
287.294
287.562
287.826
288.09
288.353
288.616
288.877
289.136
289.392
289.646
289.898
290.148
290.393
290.634
290.868
291.095
291.313
291.521
291.718
291.902
292.071
292.224
292.362
292.483
292.588
292.677
292.752
292.812
292.86
292.896
292.924
292.943
292.957
292.966
292.972
292.975
292.977
292.978
292.978
292.977
292.977
292.976
292.975
292.975
292.974
292.973
292.972
292.971
292.971
292.97
292.969
292.968
292.968
292.967
292.966
292.966
292.965
292.964
292.964
292.963
292.962
292.962
292.961
292.961
292.96
292.959
292.959
292.958
292.957
292.957
292.956
292.957
292.956
283.078
283.034
283.099
283.21
283.381
283.558
283.748
283.947
284.165
284.397
284.638
284.88
285.12
285.36
285.605
285.855
286.108
286.361
286.613
286.864
287.115
287.368
287.622
287.876
288.129
288.38
288.63
288.878
289.124
289.368
289.606
289.839
290.065
290.282
290.49
290.686
290.869
291.037
291.191
291.328
291.449
291.553
291.642
291.716
291.777
291.824
291.861
291.888
291.907
291.921
291.93
291.936
291.939
291.941
291.942
291.942
291.941
291.941
291.94
291.939
291.938
291.938
291.937
291.936
291.935
291.935
291.934
291.933
291.932
291.932
291.931
291.93
291.929
291.929
291.928
291.927
291.927
291.926
291.925
291.925
291.924
291.924
291.923
291.922
291.922
291.921
291.921
291.92
291.921
291.919
283.1
283.047
283.072
283.127
283.232
283.341
283.471
283.612
283.78
283.963
284.163
284.366
284.574
284.785
285.006
285.233
285.467
285.702
285.94
286.177
286.418
286.661
286.907
287.153
287.399
287.644
287.889
288.134
288.376
288.615
288.85
289.079
289.3
289.513
289.715
289.906
290.083
290.246
290.393
290.524
290.639
290.738
290.821
290.89
290.946
290.99
291.023
291.048
291.066
291.078
291.086
291.091
291.093
291.095
291.095
291.095
291.095
291.094
291.093
291.093
291.092
291.091
291.09
291.089
291.089
291.088
291.087
291.086
291.086
291.085
291.084
291.084
291.083
291.082
291.082
291.081
291.08
291.08
291.079
291.078
291.078
291.077
291.077
291.076
291.076
291.075
291.076
291.075
291.076
291.076
283.067
283.033
283.043
283.076
283.138
283.208
283.297
283.404
283.538
283.689
283.857
284.032
284.216
284.408
284.611
284.822
285.041
285.263
285.489
285.717
285.95
286.186
286.424
286.664
286.905
287.146
287.387
287.627
287.865
288.1
288.329
288.552
288.767
288.972
289.166
289.347
289.514
289.666
289.803
289.923
290.028
290.117
290.191
290.251
290.3
290.337
290.365
290.386
290.4
290.41
290.416
290.42
290.422
290.423
290.423
290.422
290.422
290.421
290.42
290.42
290.419
290.418
290.417
290.417
290.416
290.415
290.414
290.413
290.413
290.412
290.411
290.411
290.41
290.409
290.409
290.408
290.407
290.406
290.406
290.405
290.405
290.404
290.404
290.403
290.403
290.402
290.402
290.401
290.401
290.401
283.126
283.094
283.105
283.116
283.155
283.196
283.265
283.349
283.463
283.591
283.738
283.893
284.063
284.241
284.433
284.633
284.841
285.054
285.272
285.494
285.721
285.952
286.185
286.421
286.658
286.895
287.133
287.369
287.602
287.831
288.055
288.27
288.477
288.672
288.856
289.025
289.18
289.319
289.443
289.55
289.642
289.719
289.782
289.833
289.872
289.903
289.925
289.94
289.951
289.958
289.963
289.965
289.966
289.967
289.966
289.966
289.965
289.964
289.964
289.963
289.962
289.961
289.96
289.96
289.959
289.958
289.957
289.957
289.956
289.955
289.954
289.954
289.953
289.952
289.952
289.951
289.95
289.95
289.949
289.949
289.948
289.947
289.947
289.946
289.947
289.945
289.946
289.945
289.946
289.947
283.083
283.071
283.081
283.09
283.116
283.152
283.213
283.293
283.398
283.518
283.655
283.803
283.967
284.141
284.328
284.524
284.727
284.935
285.15
285.37
285.595
285.823
286.055
286.288
286.523
286.758
286.993
287.226
287.456
287.68
287.898
288.107
288.305
288.492
288.665
288.824
288.967
289.095
289.206
289.301
289.382
289.448
289.502
289.544
289.576
289.6
289.617
289.628
289.636
289.641
289.644
289.646
289.646
289.646
289.646
289.645
289.644
289.643
289.643
289.642
289.641
289.64
289.639
289.639
289.638
289.637
289.636
289.636
289.635
289.634
289.633
289.633
289.632
289.631
289.631
289.63
289.629
289.629
289.628
289.627
289.627
289.626
289.626
289.625
289.625
289.624
289.624
289.623
289.623
289.624
283.184
283.168
283.181
283.181
283.206
283.235
283.297
283.374
283.478
283.593
283.728
283.873
284.036
284.209
284.395
284.588
284.79
284.997
285.211
285.43
285.654
285.881
286.112
286.345
286.579
286.813
287.047
287.278
287.506
287.727
287.941
288.145
288.339
288.52
288.687
288.839
288.975
289.095
289.199
289.288
289.361
289.421
289.469
289.506
289.534
289.554
289.568
289.578
289.584
289.588
289.59
289.591
289.591
289.591
289.59
289.59
289.589
289.588
289.587
289.586
289.586
289.585
289.584
289.583
289.582
289.582
289.581
289.58
289.579
289.579
289.578
289.577
289.577
289.576
289.575
289.574
289.574
289.573
289.573
289.572
289.572
289.571
289.571
289.57
289.57
289.569
289.57
289.568
289.57
289.57
286.133
288.404
289.695
290.626
291.383
292.026
292.6
293.118
293.596
294.037
294.452
294.843
295.218
295.576
295.923
296.255
296.579
296.892
297.198
297.497
297.79
298.076
298.356
298.63
298.898
299.16
299.416
299.663
299.904
300.134
300.355
300.563
300.76
300.941
301.109
301.259
301.394
301.512
301.614
301.699
301.771
301.828
301.873
301.908
301.934
301.952
301.965
301.974
301.98
301.983
301.985
301.985
301.986
301.985
301.985
301.984
301.983
301.982
301.982
301.981
301.98
301.979
301.979
301.978
301.977
301.977
301.976
301.975
301.975
301.974
301.973
301.973
301.972
301.971
301.971
301.97
301.97
301.969
301.968
301.968
301.967
301.966
301.966
301.965
301.965
301.964
301.965
301.963
301.969
301.97
283.942
285.546
286.741
287.652
288.401
289.039
289.608
290.124
290.602
291.046
291.461
291.853
292.227
292.587
292.933
293.268
293.592
293.907
294.213
294.513
294.806
295.094