/*--------------------------------*- C++ -*----------------------------------*\
  =========                 |
  \\      /  F ield         | OpenFOAM: The Open Source CFD Toolbox
   \\    /   O peration     | Website:  https://openfoam.org
    \\  /    A nd           | Version:  7
     \\/     M anipulation  |
\*---------------------------------------------------------------------------*/
FoamFile
{
    version     2.0;
    format      ascii;
    class       volScalarField;
    location    "1.41";
    object      nut;
}
// * * * * * * * * * * * * * * * * * * * * * * * * * * * * * * * * * * * * * //

dimensions      [0 2 -1 0 0 0 0];

internalField   nonuniform List<scalar> 
4950
(
0.00877025
0.00934361
0.00936346
0.00937115
0.00936561
0.00936784
0.00936208
0.0093629
0.00935807
0.00935893
0.00935532
0.0093564
0.00935373
0.00935483
0.00935291
0.00935362
0.00935305
0.00935176
0.00935735
0.00938092
0.00461239
0.00491415
0.0048811
0.00479017
0.00472158
0.00468719
0.0046626
0.00465154
0.00463986
0.00463494
0.00462769
0.00462495
0.00461989
0.00461819
0.0046147
0.00461335
0.00461391
0.00460818
0.00465388
0.00466551
0.00366638
0.00406246
0.00414962
0.00417117
0.00417399
0.00417942
0.0041801
0.00418321
0.00418349
0.00418568
0.00418572
0.0041874
0.00418738
0.00418879
0.00418873
0.00419002
0.00418996
0.00419067
0.00419251
0.00420095
0.00358507
0.00397949
0.004082
0.00412248
0.00414052
0.00415678
0.00416544
0.00417607
0.00418146
0.00418937
0.00419314
0.00419951
0.00420239
0.00420774
0.00421004
0.00421446
0.00421662
0.00421967
0.00422201
0.00423012
0.00357312
0.0039712
0.00407437
0.00411657
0.00413551
0.00415311
0.00416265
0.0041747
0.00418113
0.00419054
0.00419545
0.0042033
0.00420733
0.00421404
0.00421743
0.00422309
0.0042262
0.00423063
0.00423338
0.00424243
0.00358507
0.00397949
0.004082
0.00412248
0.00414052
0.00415678
0.00416543
0.00417608
0.00418146
0.00418938
0.00419313
0.00419953
0.00420237
0.00420776
0.00421001
0.0042145
0.00421658
0.00421972
0.00422202
0.00423018
0.00366638
0.00406246
0.00414962
0.00417117
0.00417399
0.00417942
0.0041801
0.00418321
0.00418349
0.00418569
0.00418571
0.00418741
0.00418736
0.00418883
0.00418868
0.0041901
0.00418985
0.00419083
0.0041924
0.00420115
0.00461239
0.00491415
0.0048811
0.00479017
0.00472158
0.00468719
0.00466259
0.00465154
0.00463985
0.00463495
0.00462767
0.00462497
0.00461984
0.00461821
0.0046146
0.00461345
0.00461362
0.0046086
0.00465271
0.00466616
0.00877025
0.00934361
0.00936346
0.00937115
0.00936561
0.00936784
0.00936207
0.0093629
0.00935806
0.00935894
0.0093553
0.00935643
0.00935369
0.00935491
0.00935279
0.00935385
0.00935265
0.00935247
0.00935608
0.00938359
0.00344768
0.00414569
0.00423511
0.00421989
0.00420816
0.00418858
0.00418404
0.00417243
0.00417059
0.00416294
0.00416209
0.00415655
0.00415617
0.00415184
0.00415185
0.00414792
0.00414879
0.00414369
0.00414338
0.00415997
0.00297283
0.00376587
0.00392093
0.00395273
0.00396014
0.0039633
0.00396504
0.00396674
0.0039677
0.00396884
0.00396949
0.00397035
0.00397083
0.00397154
0.00397181
0.00397247
0.00397242
0.00397261
0.00397421
0.00397899
0.00289901
0.00368553
0.00384477
0.00388231
0.00388973
0.00389346
0.00389419
0.00389612
0.00389692
0.00389887
0.00389988
0.00390189
0.0039031
0.00390493
0.0039063
0.00390781
0.00390925
0.0039103
0.00391078
0.00391962
0.00290212
0.00368727
0.00384483
0.00388202
0.00388934
0.00389224
0.00389206
0.00389248
0.00389215
0.0038925
0.00389243
0.00389296
0.00389322
0.00389404
0.00389449
0.00389545
0.00389613
0.00389707
0.00389797
0.00390489
0.00289541
0.00367964
0.00383823
0.00387625
0.00388361
0.00388666
0.00388631
0.00388667
0.00388607
0.00388627
0.00388587
0.0038862
0.00388612
0.00388661
0.00388675
0.00388745
0.0038877
0.00388852
0.00388876
0.00389487
0.00290212
0.00368727
0.00384483
0.00388202
0.00388934
0.00389224
0.00389206
0.00389248
0.00389215
0.0038925
0.00389243
0.00389297
0.00389321
0.00389405
0.00389447
0.00389547
0.00389607
0.00389709
0.00389794
0.00390487
0.00289901
0.00368553
0.00384477
0.00388231
0.00388973
0.00389346
0.00389419
0.00389613
0.00389692
0.00389888
0.00389986
0.00390192
0.00390305
0.003905
0.00390619
0.00390796
0.00390904
0.00391053
0.00391065
0.00391966
0.00297283
0.00376587
0.00392093
0.00395273
0.00396014
0.00396331
0.00396504
0.00396674
0.00396769
0.00396885
0.00396947
0.00397038
0.00397078
0.0039716
0.00397176
0.00397256
0.00397219
0.0039729
0.00397375
0.00397966
0.00344768
0.00414569
0.00423511
0.00421989
0.00420816
0.00418858
0.00418404
0.00417243
0.00417059
0.00416295
0.00416209
0.00415656
0.00415616
0.00415187
0.00415183
0.004148
0.0041487
0.00414399
0.00414297
0.00416097
0.000824404
0.00150658
0.0016915
0.00172033
0.00170649
0.00167597
0.00164534
0.00161995
0.0015998
0.00158307
0.00157077
0.00155946
0.00155185
0.00154357
0.00153866
0.00153239
0.00152847
0.00152504
0.00151769
0.00152886
0.000386262
0.000922391
0.00116862
0.00127023
0.00131083
0.00133096
0.00134085
0.0013495
0.00135561
0.00136202
0.00136667
0.00137138
0.00137461
0.00137791
0.00138009
0.00138223
0.00138412
0.00138485
0.0013864
0.00139056
0.000357133
0.000848447
0.00107027
0.0011729
0.00121118
0.00123257
0.00123867
0.00124526
0.00124698
0.00125083
0.00125246
0.00125599
0.00125795
0.00126131
0.00126358
0.00126659
0.00126889
0.0012717
0.00127311
0.00127838
0.000362222
0.000859414
0.00108051
0.00117954
0.00121713
0.0012364
0.0012422
0.00124661
0.00124722
0.00124853
0.00124867
0.00124924
0.00124947
0.00124999
0.00125053
0.00125094
0.0012518
0.0012522
0.00125306
0.00125667
0.000356468
0.000847024
0.00106567
0.00116696
0.00120411
0.00122482
0.00122999
0.00123508
0.00123537
0.00123657
0.00123636
0.00123678
0.0012366
0.0012369
0.00123684
0.00123709
0.0012371
0.00123734
0.00123705
0.00123985
0.000362222
0.000859414
0.00108051
0.00117954
0.00121713
0.0012364
0.0012422
0.00124661
0.00124722
0.00124853
0.00124867
0.00124924
0.00124947
0.00124999
0.00125052
0.00125093
0.00125179
0.00125219
0.00125305
0.00125664
0.000357133
0.000848447
0.00107027
0.0011729
0.00121118
0.00123257
0.00123866
0.00124526
0.00124698
0.00125083
0.00125246
0.001256
0.00125792
0.00126133
0.00126354
0.00126662
0.00126884
0.00127169
0.00127308
0.0012783
0.000386262
0.000922392
0.00116862
0.00127023
0.00131083
0.00133096
0.00134085
0.0013495
0.00135561
0.00136203
0.00136666
0.0013714
0.00137457
0.00137794
0.00138003
0.00138228
0.00138402
0.00138484
0.00138633
0.00139049
0.000824404
0.00150658
0.0016915
0.00172033
0.00170649
0.00167597
0.00164534
0.00161995
0.0015998
0.00158308
0.00157077
0.00155948
0.00155184
0.00154362
0.00153865
0.0015325
0.00152845
0.00152527
0.00151772
0.00152943
0.00344768
0.00414569
0.00423511
0.00421989
0.00420816
0.00418858
0.00418404
0.00417243
0.00417059
0.00416294
0.00416209
0.00415655
0.00415617
0.00415184
0.00415185
0.00414792
0.00414879
0.00414369
0.00414338
0.00415997
0.00297283
0.00376587
0.00392093
0.00395273
0.00396014
0.00396331
0.00396504
0.00396674
0.0039677
0.00396884
0.00396949
0.00397035
0.00397083
0.00397154
0.00397181
0.00397247
0.00397242
0.00397261
0.00397421
0.00397899
0.00289901
0.00368553
0.00384477
0.00388231
0.00388973
0.00389346
0.00389419
0.00389612
0.00389692
0.00389887
0.00389988
0.00390189
0.0039031
0.00390493
0.0039063
0.00390781
0.00390925
0.0039103
0.00391078
0.00391962
0.00290212
0.00368727
0.00384483
0.00388202
0.00388934
0.00389224
0.00389207
0.00389248
0.00389215
0.0038925
0.00389243
0.00389296
0.00389322
0.00389404
0.00389449
0.00389545
0.00389613
0.00389707
0.00389797
0.00390489
0.00289541
0.00367964
0.00383823
0.00387625
0.00388361
0.00388666
0.00388631
0.00388667
0.00388607
0.00388627
0.00388587
0.0038862
0.00388612
0.00388661
0.00388675
0.00388745
0.0038877
0.00388852
0.00388876
0.00389487
0.00290212
0.00368727
0.00384483
0.00388202
0.00388934
0.00389224
0.00389206
0.00389248
0.00389215
0.0038925
0.00389243
0.00389297
0.00389321
0.00389405
0.00389447
0.00389547
0.00389607
0.00389709
0.00389794
0.00390487
0.00289901
0.00368553
0.00384477
0.00388231
0.00388973
0.00389346
0.00389419
0.00389613
0.00389692
0.00389888
0.00389986
0.00390192
0.00390305
0.003905
0.00390619
0.00390796
0.00390904
0.00391053
0.00391065
0.00391966
0.00297283
0.00376587
0.00392093
0.00395273
0.00396014
0.00396331
0.00396504
0.00396674
0.00396769
0.00396885
0.00396947
0.00397038
0.00397078
0.0039716
0.00397176
0.00397256
0.00397219
0.0039729
0.00397375
0.00397966
0.00344768
0.00414569
0.00423511
0.00421989
0.00420816
0.00418858
0.00418403
0.00417243
0.00417059
0.00416295
0.00416209
0.00415656
0.00415616
0.00415187
0.00415183
0.004148
0.0041487
0.00414399
0.00414297
0.00416097
0.00877025
0.00934361
0.00936346
0.00937115
0.00936561
0.00936784
0.00936208
0.0093629
0.00935807
0.00935893
0.00935532
0.0093564
0.00935373
0.00935483
0.00935291
0.00935362
0.00935305
0.00935176
0.00935735
0.00938092
0.00461239
0.00491415
0.0048811
0.00479017
0.00472158
0.00468719
0.0046626
0.00465154
0.00463986
0.00463494
0.00462769
0.00462495
0.00461989
0.00461819
0.0046147
0.00461335
0.00461391
0.00460818
0.00465388
0.00466551
0.00366638
0.00406246
0.00414962
0.00417117
0.00417399
0.00417942
0.0041801
0.00418321
0.00418349
0.00418568
0.00418572
0.0041874
0.00418738
0.00418879
0.00418873
0.00419002
0.00418996
0.00419067
0.00419251
0.00420095
0.00358507
0.00397949
0.004082
0.00412248
0.00414052
0.00415678
0.00416544
0.00417607
0.00418146
0.00418937
0.00419314
0.00419951
0.00420239
0.00420773
0.00421004
0.00421446
0.00421662
0.00421967
0.00422201
0.00423012
0.00357312
0.0039712
0.00407437
0.00411657
0.00413551
0.00415311
0.00416265
0.0041747
0.00418113
0.00419054
0.00419545
0.0042033
0.00420733
0.00421404
0.00421743
0.00422309
0.0042262
0.00423063
0.00423338
0.00424243
0.00358507
0.00397949
0.004082
0.00412248
0.00414052
0.00415678
0.00416543
0.00417608
0.00418146
0.00418938
0.00419313
0.00419953
0.00420237
0.00420776
0.00421001
0.0042145
0.00421658
0.00421972
0.00422202
0.00423018
0.00366638
0.00406246
0.00414962
0.00417117
0.00417399
0.00417942
0.0041801
0.00418321
0.00418349
0.00418569
0.00418571
0.00418741
0.00418736
0.00418883
0.00418868
0.0041901
0.00418985
0.00419083
0.0041924
0.00420115
0.00461239
0.00491415
0.0048811
0.00479017
0.00472158
0.00468719
0.00466259
0.00465154
0.00463985
0.00463495
0.00462767
0.00462497
0.00461984
0.00461821
0.0046146
0.00461345
0.00461362
0.00460861
0.00465271
0.00466616
0.00877025
0.00934361
0.00936346
0.00937115
0.00936561
0.00936784
0.00936207
0.0093629
0.00935806
0.00935894
0.0093553
0.00935643
0.00935369
0.00935491
0.00935279
0.00935385
0.00935265
0.00935247
0.00935608
0.00938359
0.0274869
0.0277128
0.0277963
0.0278692
0.0279227
0.0279753
0.0280139
0.0280544
0.0280878
0.0281248
0.0281555
0.028187
0.0282118
0.0282369
0.0282568
0.0282773
0.0282929
0.0283083
0.0283187
0.0283283
0.0283336
0.0283386
0.0283403
0.0283426
0.0283427
0.0283437
0.0283432
0.0283437
0.028343
0.0283434
0.0283427
0.0283431
0.0283424
0.0283427
0.0283421
0.0283424
0.0283418
0.0283421
0.0283416
0.0283419
0.0283414
0.0283416
0.0283412
0.0283414
0.028341
0.0283412
0.0283409
0.0283411
0.0283407
0.028341
0.0283407
0.0283409
0.0283406
0.0283408
0.0283406
0.0283408
0.0283406
0.0283408
0.0283406
0.0283408
0.0283407
0.0283409
0.0283408
0.028341
0.0283409
0.0283411
0.028341
0.0283412
0.0283411
0.0283413
0.0283413
0.0283415
0.0283414
0.0283416
0.0283416
0.0283418
0.0283418
0.028342
0.0283419
0.0283421
0.0283421
0.0283422
0.0283422
0.0283423
0.0283422
0.0283424
0.0283421
0.0283424
0.0283379
0.0283351
0.0160309
0.016526
0.0165801
0.0166264
0.0166518
0.016686
0.0167038
0.0167304
0.0167457
0.0167699
0.0167843
0.0168054
0.0168168
0.0168338
0.0168427
0.0168567
0.0168635
0.0168745
0.0168786
0.0168861
0.0168874
0.0168919
0.0168914
0.0168941
0.0168927
0.0168945
0.0168929
0.0168944
0.0168927
0.0168941
0.0168925
0.0168938
0.0168923
0.0168935
0.0168922
0.0168933
0.0168921
0.0168932
0.0168921
0.0168931
0.0168921
0.016893
0.0168922
0.0168931
0.0168923
0.0168931
0.0168924
0.0168932
0.0168926
0.0168934
0.0168928
0.0168936
0.0168931
0.0168938
0.0168933
0.0168941
0.0168937
0.0168944
0.016894
0.0168947
0.0168944
0.0168951
0.0168948
0.0168955
0.0168953
0.0168959
0.0168957
0.0168963
0.0168962
0.0168968
0.0168966
0.0168972
0.0168971
0.0168977
0.0168976
0.0168981
0.0168981
0.0168986
0.0168985
0.016899
0.016899
0.0168994
0.0168994
0.0168998
0.0168998
0.0169002
0.0169
0.0169007
0.0168977
0.0168971
0.0134604
0.0141714
0.0142284
0.0142673
0.0142814
0.0143125
0.0143228
0.0143466
0.0143544
0.0143758
0.0143844
0.0144046
0.0144117
0.0144284
0.0144334
0.0144472
0.0144512
0.014463
0.0144655
0.0144745
0.014475
0.0144811
0.01448
0.0144842
0.0144823
0.0144855
0.0144833
0.014486
0.0144839
0.0144864
0.0144844
0.0144867
0.0144849
0.0144871
0.0144855
0.0144876
0.0144862
0.0144882
0.0144869
0.0144888
0.0144877
0.0144895
0.0144885
0.0144903
0.0144894
0.0144911
0.0144903
0.0144919
0.0144913
0.0144928
0.0144923
0.0144938
0.0144933
0.0144948
0.0144944
0.0144958
0.0144955
0.0144969
0.0144966
0.0144979
0.0144977
0.014499
0.0144989
0.0145002
0.0145001
0.0145013
0.0145013
0.0145025
0.0145024
0.0145036
0.0145036
0.0145048
0.0145048
0.0145059
0.014506
0.0145071
0.0145071
0.0145082
0.0145083
0.0145092
0.0145093
0.0145103
0.0145104
0.0145113
0.0145114
0.0145123
0.0145123
0.014513
0.0145135
0.0145084
0.0131506
0.0140113
0.0140862
0.0141221
0.0141303
0.0141584
0.0141657
0.0141873
0.0141916
0.0142106
0.0142168
0.0142363
0.0142421
0.0142586
0.0142623
0.014276
0.0142791
0.0142913
0.0142937
0.0143039
0.0143046
0.0143119
0.0143111
0.0143162
0.0143144
0.0143183
0.0143161
0.0143194
0.0143173
0.0143203
0.0143183
0.0143212
0.0143194
0.0143221
0.0143205
0.0143232
0.0143218
0.0143243
0.014323
0.0143254
0.0143244
0.0143267
0.0143257
0.014328
0.0143272
0.0143293
0.0143287
0.0143307
0.0143302
0.0143322
0.0143317
0.0143337
0.0143334
0.0143352
0.014335
0.0143368
0.0143367
0.0143384
0.0143383
0.0143401
0.01434
0.0143417
0.0143418
0.0143434
0.0143435
0.0143451
0.0143452
0.0143468
0.0143469
0.0143485
0.0143486
0.0143501
0.0143503
0.0143518
0.014352
0.0143534
0.0143537
0.014355
0.0143553
0.0143566
0.0143568
0.0143581
0.0143584
0.0143596
0.0143598
0.014361
0.0143612
0.0143621
0.0143629
0.0143583
0.0131469
0.0140211
0.0140948
0.014126
0.0141289
0.0141525
0.0141566
0.0141751
0.0141765
0.0141925
0.0141966
0.0142144
0.0142187
0.0142339
0.0142364
0.014249
0.0142512
0.0142629
0.0142649
0.0142751
0.0142758
0.0142834
0.0142826
0.014288
0.0142862
0.0142904
0.0142882
0.0142918
0.0142896
0.0142929
0.0142909
0.014294
0.0142922
0.0142951
0.0142935
0.0142963
0.014295
0.0142976
0.0142965
0.014299
0.014298
0.0143005
0.0142996
0.014302
0.0143013
0.0143036
0.014303
0.0143052
0.0143047
0.0143069
0.0143065
0.0143086
0.0143083
0.0143104
0.0143102
0.0143122
0.0143121
0.014314
0.014314
0.0143159
0.0143159
0.0143178
0.0143178
0.0143196
0.0143198
0.0143215
0.0143217
0.0143234
0.0143236
0.0143253
0.0143256
0.0143272
0.0143275
0.014329
0.0143293
0.0143309
0.0143312
0.0143326
0.014333
0.0143344
0.0143347
0.0143361
0.0143364
0.0143377
0.014338
0.0143392
0.0143396
0.0143405
0.0143423
0.0143367
0.0131507
0.0140029
0.014066
0.0140899
0.0140886
0.0141067
0.0141077
0.0141219
0.0141209
0.014134
0.0141361
0.0141509
0.0141535
0.0141663
0.0141674
0.014178
0.0141792
0.0141893
0.0141906
0.0141996
0.0141999
0.0142067
0.0142057
0.0142107
0.0142088
0.0142127
0.0142105
0.0142138
0.0142117
0.0142148
0.0142128
0.0142157
0.0142139
0.0142167
0.0142151
0.0142178
0.0142164
0.0142189
0.0142177
0.0142201
0.0142191
0.0142214
0.0142205
0.0142228
0.014222
0.0142242
0.0142235
0.0142256
0.0142251
0.0142271
0.0142267
0.0142287
0.0142284
0.0142303
0.01423
0.0142319
0.0142317
0.0142336
0.0142335
0.0142352
0.0142352
0.014237
0.014237
0.0142387
0.0142387
0.0142404
0.0142405
0.0142421
0.0142423
0.0142438
0.014244
0.0142455
0.0142458
0.0142472
0.0142475
0.0142489
0.0142492
0.0142505
0.0142508
0.0142521
0.0142524
0.0142537
0.0142539
0.0142552
0.0142554
0.0142566
0.0142569
0.0142578
0.0142587
0.0142542
0.0134531
0.0141373
0.0141673
0.0141821
0.0141776
0.0141907
0.0141883
0.0141985
0.0141957
0.0142059
0.0142059
0.014217
0.0142175
0.0142268
0.0142265
0.0142345
0.0142344
0.0142422
0.0142423
0.0142492
0.0142486
0.0142538
0.0142523
0.0142563
0.0142542
0.0142574
0.0142552
0.0142579
0.0142558
0.0142584
0.0142564
0.0142588
0.014257
0.0142593
0.0142577
0.0142599
0.0142585
0.0142605
0.0142593
0.0142612
0.0142601
0.014262
0.014261
0.0142628
0.014262
0.0142637
0.0142629
0.0142646
0.014264
0.0142656
0.014265
0.0142666
0.0142662
0.0142677
0.0142673
0.0142688
0.0142685
0.0142699
0.0142696
0.014271
0.0142709
0.0142722
0.0142721
0.0142734
0.0142733
0.0142746
0.0142746
0.0142758
0.0142758
0.014277
0.014277
0.0142782
0.0142783
0.0142794
0.0142795
0.0142806
0.0142807
0.0142818
0.0142819
0.0142829
0.014283
0.014284
0.0142841
0.014285
0.0142851
0.014286
0.0142862
0.0142868
0.0142876
0.0142827
0.0159904
0.0164253
0.0164327
0.0164409
0.0164364
0.0164446
0.0164414
0.0164476
0.0164449
0.0164514
0.0164508
0.0164576
0.0164571
0.0164626
0.0164617
0.0164666
0.0164661
0.0164708
0.0164704
0.0164744
0.0164735
0.0164766
0.0164752
0.0164774
0.0164757
0.0164774
0.0164757
0.0164772
0.0164755
0.0164769
0.0164754
0.0164767
0.0164753
0.0164765
0.0164752
0.0164763
0.0164751
0.0164762
0.0164752
0.0164762
0.0164752
0.0164762
0.0164753
0.0164763
0.0164755
0.0164764
0.0164756
0.0164765
0.0164758
0.0164767
0.0164761
0.0164769
0.0164764
0.0164772
0.0164767
0.0164775
0.0164771
0.0164778
0.0164775
0.0164782
0.0164779
0.0164786
0.0164783
0.016479
0.0164787
0.0164794
0.0164792
0.0164798
0.0164797
0.0164803
0.0164802
0.0164808
0.0164807
0.0164812
0.0164811
0.0164817
0.0164816
0.0164822
0.0164821
0.0164826
0.0164826
0.016483
0.016483
0.0164835
0.0164834
0.0164838
0.0164837
0.0164843
0.0164816
0.0164811
0.0273721
0.0274841
0.0274853
0.0274906
0.0274899
0.0274965
0.0274963
0.0275008
0.0275006
0.0275056
0.0275074
0.0275127
0.0275145
0.0275186
0.0275196
0.0275232
0.0275244
0.0275279
0.0275291
0.0275319
0.0275325
0.0275344
0.0275343
0.0275354
0.0275348
0.0275355
0.0275348
0.0275353
0.0275346
0.027535
0.0275343
0.0275346
0.027534
0.0275343
0.0275337
0.027534
0.0275334
0.0275337
0.0275332
0.0275335
0.027533
0.0275332
0.0275328
0.027533
0.0275326
0.0275328
0.0275325
0.0275327
0.0275323
0.0275325
0.0275322
0.0275324
0.0275321
0.0275323
0.0275321
0.0275323
0.0275321
0.0275323
0.0275321
0.0275323
0.0275321
0.0275323
0.0275321
0.0275323
0.0275322
0.0275324
0.0275322
0.0275324
0.0275323
0.0275325
0.0275324
0.0275326
0.0275325
0.0275327
0.0275326
0.0275328
0.0275327
0.0275329
0.0275328
0.027533
0.0275329
0.0275331
0.027533
0.0275331
0.027533
0.0275331
0.027533
0.0275331
0.0275289
0.0275262
0.0134432
0.0136827
0.0137292
0.013763
0.0137902
0.0138147
0.0138335
0.0138534
0.0138693
0.0138879
0.0139018
0.0139177
0.0139284
0.0139413
0.0139496
0.0139604
0.0139665
0.0139746
0.0139781
0.0139834
0.0139844
0.0139874
0.0139869
0.0139887
0.0139875
0.0139887
0.0139873
0.0139883
0.0139869
0.0139878
0.0139865
0.0139873
0.013986
0.0139868
0.0139856
0.0139863
0.0139852
0.0139859
0.0139849
0.0139855
0.0139846
0.0139852
0.0139844
0.0139849
0.0139842
0.0139847
0.013984
0.0139845
0.0139838
0.0139843
0.0139837
0.0139842
0.0139837
0.0139841
0.0139837
0.0139841
0.0139837
0.0139841
0.0139837
0.0139842
0.0139838
0.0139842
0.0139839
0.0139844
0.0139841
0.0139845
0.0139843
0.0139847
0.0139845
0.0139849
0.0139847
0.0139851
0.0139849
0.0139853
0.0139852
0.0139856
0.0139855
0.0139859
0.0139858
0.0139862
0.0139862
0.0139866
0.0139866
0.0139871
0.013987
0.0139876
0.0139876
0.0139886
0.0139872
0.0139881
0.0128311
0.0133186
0.0133769
0.0134117
0.0134386
0.013464
0.0134833
0.0135031
0.0135193
0.0135376
0.0135525
0.0135685
0.0135805
0.0135934
0.0136028
0.0136136
0.013621
0.0136294
0.0136344
0.0136401
0.0136425
0.0136459
0.0136467
0.0136486
0.0136486
0.0136498
0.0136495
0.0136504
0.01365
0.0136508
0.0136505
0.0136512
0.0136509
0.0136516
0.0136513
0.013652
0.0136517
0.0136524
0.0136522
0.0136528
0.0136526
0.0136532
0.013653
0.0136536
0.0136535
0.013654
0.0136539
0.0136545
0.0136544
0.0136549
0.0136548
0.0136553
0.0136553
0.0136558
0.0136557
0.0136562
0.0136562
0.0136566
0.0136566
0.0136571
0.0136571
0.0136575
0.0136575
0.013658
0.013658
0.0136584
0.0136585
0.0136589
0.0136589
0.0136593
0.0136594
0.0136598
0.0136598
0.0136602
0.0136603
0.0136607
0.0136607
0.0136611
0.0136612
0.0136616
0.0136616
0.013662
0.0136621
0.0136625
0.0136625
0.013663
0.013663
0.0136633
0.0136638
0.013664
0.0122252
0.0129179
0.0129961
0.0130284
0.0130531
0.0130769
0.0130954
0.0131129
0.0131277
0.0131437
0.0131584
0.0131736
0.0131861
0.0131982
0.013208
0.013218
0.0132262
0.0132345
0.0132407
0.0132467
0.0132505
0.0132541
0.0132559
0.0132578
0.0132585
0.0132596
0.0132598
0.0132605
0.0132606
0.0132611
0.0132612
0.0132617
0.0132618
0.0132622
0.0132623
0.0132628
0.0132629
0.0132633
0.0132634
0.0132639
0.013264
0.0132644
0.0132645
0.0132649
0.013265
0.0132655
0.0132656
0.013266
0.0132661
0.0132665
0.0132666
0.013267
0.0132671
0.0132675
0.0132676
0.013268
0.0132681
0.0132685
0.0132686
0.013269
0.0132691
0.0132695
0.0132696
0.01327
0.0132701
0.0132704
0.0132706
0.0132709
0.013271
0.0132713
0.0132715
0.0132718
0.0132719
0.0132722
0.0132724
0.0132727
0.0132728
0.0132731
0.0132732
0.0132735
0.0132736
0.0132739
0.013274
0.0132743
0.0132744
0.0132747
0.0132747
0.013275
0.0132754
0.0132712
0.0120561
0.0128075
0.0128877
0.0129121
0.0129311
0.0129516
0.0129678
0.0129825
0.0129946
0.013008
0.0130212
0.0130352
0.0130472
0.0130586
0.0130677
0.0130769
0.0130848
0.0130929
0.0130995
0.0131058
0.0131103
0.0131142
0.0131165
0.0131185
0.0131195
0.0131205
0.0131208
0.0131214
0.0131215
0.013122
0.013122
0.0131224
0.0131224
0.0131228
0.0131228
0.0131232
0.0131232
0.0131236
0.0131236
0.013124
0.013124
0.0131244
0.0131244
0.0131248
0.0131248
0.0131251
0.0131252
0.0131255
0.0131256
0.0131259
0.013126
0.0131263
0.0131264
0.0131267
0.0131268
0.0131271
0.0131272
0.0131274
0.0131275
0.0131278
0.0131279
0.0131282
0.0131283
0.0131285
0.0131287
0.0131289
0.013129
0.0131293
0.0131294
0.0131296
0.0131297
0.01313
0.0131301
0.0131303
0.0131304
0.0131307
0.0131308
0.013131
0.0131311
0.0131313
0.0131314
0.0131316
0.0131317
0.0131319
0.013132
0.0131322
0.0131323
0.0131325
0.0131324
0.0131293
0.0119469
0.0127411
0.0128204
0.0128377
0.0128507
0.0128665
0.0128792
0.0128905
0.0128994
0.0129099
0.0129207
0.0129329
0.0129433
0.0129532
0.012961
0.0129689
0.0129758
0.0129832
0.0129894
0.0129954
0.0129998
0.0130037
0.0130061
0.0130082
0.0130091
0.0130102
0.0130104
0.013011
0.0130111
0.0130115
0.0130115
0.0130118
0.0130119
0.0130122
0.0130122
0.0130125
0.0130125
0.0130128
0.0130129
0.0130132
0.0130132
0.0130135
0.0130135
0.0130138
0.0130139
0.0130141
0.0130142
0.0130145
0.0130145
0.0130148
0.0130149
0.0130151
0.0130152
0.0130155
0.0130155
0.0130158
0.0130159
0.0130161
0.0130162
0.0130164
0.0130165
0.0130168
0.0130169
0.0130171
0.0130172
0.0130174
0.0130175
0.0130177
0.0130178
0.0130181
0.0130181
0.0130184
0.0130185
0.0130187
0.0130188
0.013019
0.0130191
0.0130193
0.0130194
0.0130196
0.0130197
0.0130199
0.0130199
0.0130201
0.0130202
0.0130204
0.0130204
0.0130205
0.0130209
0.0130162
0.0120557
0.0127981
0.012866
0.0128785
0.0128873
0.012899
0.012908
0.012916
0.0129221
0.0129301
0.0129386
0.0129484
0.0129567
0.0129646
0.0129707
0.0129771
0.0129828
0.012989
0.0129943
0.0129996
0.0130034
0.0130068
0.0130089
0.0130108
0.0130117
0.0130127
0.013013
0.0130136
0.0130137
0.0130141
0.0130142
0.0130145
0.0130146
0.013015
0.013015
0.0130154
0.0130155
0.0130158
0.0130159
0.0130162
0.0130163
0.0130166
0.0130167
0.013017
0.0130171
0.0130175
0.0130176
0.0130179
0.013018
0.0130183
0.0130184
0.0130187
0.0130188
0.0130191
0.0130192
0.0130195
0.0130196
0.0130199
0.01302
0.0130203
0.0130204
0.0130207
0.0130208
0.0130211
0.0130212
0.0130214
0.0130216
0.0130218
0.0130219
0.0130222
0.0130223
0.0130226
0.0130227
0.0130229
0.0130231
0.0130233
0.0130234
0.0130237
0.0130238
0.013024
0.0130241
0.0130243
0.0130244
0.0130247
0.0130247
0.013025
0.013025
0.0130252
0.0130252
0.0130222
0.0122193
0.0128868
0.0129393
0.0129483
0.0129542
0.0129623
0.0129676
0.0129728
0.0129766
0.0129826
0.0129885
0.0129957
0.0130012
0.0130069
0.013011
0.0130158
0.0130197
0.0130245
0.0130282
0.0130323
0.0130349
0.0130377
0.0130391
0.0130407
0.0130413
0.0130423
0.0130425
0.0130432
0.0130433
0.0130438
0.0130439
0.0130445
0.0130445
0.013045
0.0130451
0.0130456
0.0130457
0.0130462
0.0130463
0.0130468
0.0130469
0.0130474
0.0130475
0.0130479
0.0130481
0.0130485
0.0130486
0.013049
0.0130492
0.0130496
0.0130497
0.0130501
0.0130503
0.0130507
0.0130508
0.0130512
0.0130514
0.0130518
0.0130519
0.0130523
0.0130524
0.0130528
0.013053
0.0130533
0.0130535
0.0130538
0.013054
0.0130543
0.0130545
0.0130548
0.013055
0.0130553
0.0130554
0.0130558
0.0130559
0.0130562
0.0130564
0.0130567
0.0130568
0.0130571
0.0130573
0.0130576
0.0130577
0.013058
0.0130581
0.0130584
0.0130585
0.0130587
0.0130593
0.0130553
0.0128034
0.0132437
0.0132645
0.0132686
0.0132712
0.0132763
0.0132782
0.0132819
0.0132834
0.0132878
0.0132905
0.0132955
0.0132978
0.0133018
0.0133033
0.0133069
0.0133085
0.013312
0.0133135
0.0133165
0.0133173
0.0133195
0.0133196
0.0133211
0.0133209
0.013322
0.0133217
0.0133226
0.0133223
0.0133231
0.0133227
0.0133235
0.0133232
0.013324
0.0133237
0.0133244
0.0133242
0.0133249
0.0133246
0.0133253
0.0133251
0.0133258
0.0133256
0.0133262
0.0133261
0.0133267
0.0133266
0.0133271
0.013327
0.0133276
0.0133275
0.013328
0.013328
0.0133285
0.0133285
0.013329
0.013329
0.0133294
0.0133295
0.0133299
0.0133299
0.0133304
0.0133304
0.0133309
0.0133309
0.0133313
0.0133314
0.0133318
0.0133319
0.0133323
0.0133323
0.0133327
0.0133328
0.0133332
0.0133333
0.0133337
0.0133337
0.0133341
0.0133342
0.0133346
0.0133347
0.0133351
0.0133351
0.0133356
0.0133356
0.0133361
0.0133361
0.0133364
0.013337
0.0133372
0.013379
0.0135593
0.0135645
0.0135651
0.0135656
0.0135675
0.0135671
0.013569
0.0135682
0.0135708
0.0135705
0.0135733
0.0135726
0.0135751
0.0135741
0.0135765
0.0135756
0.0135779
0.0135769
0.0135789
0.0135777
0.0135793
0.0135779
0.0135792
0.0135777
0.0135788
0.0135773
0.0135783
0.0135769
0.0135778
0.0135765
0.0135773
0.0135761
0.0135768
0.0135757
0.0135764
0.0135753
0.013576
0.013575
0.0135757
0.0135748
0.0135754
0.0135745
0.0135751
0.0135743
0.0135749
0.0135741
0.0135747
0.013574
0.0135745
0.0135739
0.0135744
0.0135739
0.0135743
0.0135738
0.0135743
0.0135738
0.0135743
0.0135739
0.0135743
0.013574
0.0135744
0.0135741
0.0135745
0.0135742
0.0135746
0.0135743
0.0135747
0.0135745
0.0135749
0.0135747
0.0135751
0.0135749
0.0135753
0.0135752
0.0135756
0.0135755
0.0135759
0.0135758
0.0135762
0.0135761
0.0135765
0.0135765
0.013577
0.013577
0.0135775
0.0135775
0.0135785
0.0135771
0.013578
0.00602734
0.00626667
0.00629485
0.00630825
0.00632287
0.00633525
0.0063456
0.00635768
0.00636557
0.00637756
0.00638316
0.00639408
0.00639746
0.00640709
0.00640895
0.00641742
0.00641794
0.00642497
0.00642411
0.00642965
0.0064277
0.00643211
0.00642954
0.00643323
0.00643042
0.00643368
0.00643085
0.00643382
0.00643107
0.00643382
0.00643119
0.00643374
0.00643125
0.00643362
0.00643128
0.00643349
0.0064313
0.00643336
0.00643132
0.00643325
0.00643135
0.00643316
0.0064314
0.00643311
0.00643148
0.0064331
0.0064316
0.00643313
0.00643175
0.00643321
0.00643195
0.00643334
0.00643219
0.00643352
0.00643247
0.00643375
0.0064328
0.00643403
0.00643317
0.00643436
0.00643358
0.00643473
0.00643403
0.00643515
0.00643452
0.00643561
0.00643504
0.00643612
0.00643561
0.00643667
0.00643622
0.00643727
0.00643687
0.00643792
0.00643757
0.00643863
0.00643832
0.0064394
0.00643913
0.00644023
0.00644
0.00644113
0.00644092
0.00644208
0.00644189
0.00644307
0.00644281
0.00644427
0.00644296
0.00644392
0.00579063
0.00639714
0.00647185
0.00649405
0.00650921
0.00652289
0.00653343
0.00654471
0.00655352
0.00656416
0.0065718
0.00658118
0.0065871
0.00659503
0.00659966
0.00660651
0.00661005
0.00661567
0.00661793
0.00662215
0.00662326
0.00662625
0.00662667
0.00662888
0.00662899
0.00663081
0.00663082
0.00663245
0.00663244
0.00663397
0.00663396
0.00663542
0.00663543
0.00663682
0.00663686
0.00663819
0.00663825
0.00663952
0.0066396
0.00664082
0.00664093
0.0066421
0.00664223
0.00664336
0.0066435
0.00664459
0.00664474
0.0066458
0.00664597
0.00664698
0.00664717
0.00664815
0.00664834
0.00664929
0.00664949
0.00665041
0.00665062
0.00665151
0.00665173
0.00665259
0.00665282
0.00665365
0.00665388
0.00665468
0.00665492
0.0066557
0.00665594
0.0066567
0.00665694
0.00665768
0.00665792
0.00665864
0.00665888
0.00665959
0.00665984
0.00666053
0.00666077
0.00666146
0.0066617
0.00666239
0.00666262
0.00666331
0.00666353
0.00666422
0.00666443
0.00666511
0.00666534
0.00666571
0.00666643
0.00666762
0.00521872
0.00605827
0.00618778
0.00621996
0.00623564
0.00624859
0.00625811
0.0062673
0.00627502
0.00628361
0.00629115
0.00629901
0.00630529
0.00631163
0.00631667
0.00632202
0.0063263
0.00633078
0.00633408
0.00633736
0.00633947
0.00634158
0.00634277
0.0063441
0.00634477
0.00634571
0.00634617
0.00634693
0.00634732
0.00634801
0.00634838
0.00634904
0.00634941
0.00635004
0.00635041
0.00635102
0.00635138
0.00635198
0.00635234
0.00635293
0.00635328
0.00635385
0.00635421
0.00635476
0.00635511
0.00635565
0.006356
0.00635653
0.00635687
0.00635739
0.00635773
0.00635823
0.00635857
0.00635906
0.00635939
0.00635987
0.0063602
0.00636066
0.00636098
0.00636144
0.00636175
0.0063622
0.00636251
0.00636294
0.00636324
0.00636366
0.00636396
0.00636437
0.00636466
0.00636506
0.00636534
0.00636573
0.006366
0.00636638
0.00636665
0.00636702
0.00636728
0.00636764
0.00636789
0.00636824
0.00636848
0.00636883
0.00636906
0.00636941
0.00636961
0.00636996
0.00637014
0.00637047
0.00637093
0.00636959
0.00500428
0.00590311
0.00605391
0.00608492
0.00609893
0.00610822
0.00611647
0.0061224
0.00612868
0.0061346
0.00614133
0.00614748
0.00615333
0.00615821
0.00616272
0.00616681
0.00617077
0.00617446
0.00617775
0.00618056
0.00618274
0.00618444
0.00618561
0.00618649
0.00618703
0.00618748
0.00618775
0.00618803
0.0061882
0.00618843
0.00618858
0.00618879
0.00618894
0.00618916
0.00618931
0.00618953
0.00618968
0.0061899
0.00619005
0.00619027
0.00619043
0.00619065
0.0061908
0.00619102
0.00619117
0.00619139
0.00619154