/*--------------------------------*- C++ -*----------------------------------*\
  =========                 |
  \\      /  F ield         | OpenFOAM: The Open Source CFD Toolbox
   \\    /   O peration     | Website:  https://openfoam.org
    \\  /    A nd           | Version:  7
     \\/     M anipulation  |
\*---------------------------------------------------------------------------*/
FoamFile
{
    version     2.0;
    format      ascii;
    class       volScalarField;
    location    "0.1275";
    object      pPrime2Mean;
}
// * * * * * * * * * * * * * * * * * * * * * * * * * * * * * * * * * * * * * //

dimensions      [2 -2 -4 0 0 0 0];

internalField   nonuniform List<scalar> 
1440
(
4.15791e+06
4.13331e+06
4.11159e+06
4.09406e+06
4.07927e+06
4.06511e+06
4.05052e+06
4.03547e+06
4.02031e+06
4.00526e+06
3.99034e+06
3.97546e+06
3.96054e+06
3.94551e+06
3.93033e+06
3.91493e+06
3.89926e+06
3.88326e+06
3.86687e+06
3.85004e+06
3.83277e+06
3.81503e+06
3.79682e+06
3.77814e+06
3.759e+06
3.73942e+06
3.7194e+06
3.69898e+06
3.67817e+06
3.65698e+06
3.63545e+06
3.6136e+06
3.59143e+06
3.56897e+06
3.54624e+06
3.52324e+06
3.5e+06
3.47653e+06
3.45282e+06
3.4289e+06
3.40477e+06
3.38043e+06
3.35589e+06
3.33115e+06
3.30622e+06
3.2811e+06
3.25579e+06
3.2303e+06
3.20463e+06
3.17878e+06
3.15276e+06
3.12658e+06
3.10023e+06
3.07371e+06
3.04704e+06
3.02022e+06
2.99325e+06
2.96614e+06
2.93889e+06
2.91149e+06
2.88397e+06
2.85632e+06
2.82854e+06
2.80064e+06
2.77262e+06
2.74449e+06
2.71624e+06
2.68789e+06
2.65944e+06
2.63089e+06
2.60223e+06
2.57349e+06
2.54465e+06
2.51572e+06
2.48671e+06
2.45761e+06
2.42844e+06
2.39918e+06
2.36985e+06
2.34045e+06
2.31098e+06
2.28144e+06
2.25183e+06
2.22217e+06
2.19244e+06
2.16266e+06
2.13282e+06
2.10294e+06
2.073e+06
2.04303e+06
2.01301e+06
1.98295e+06
1.95286e+06
1.92273e+06
1.89258e+06
1.86239e+06
1.83218e+06
1.80194e+06
1.77166e+06
1.74135e+06
1.711e+06
1.6806e+06
1.65016e+06
1.61967e+06
1.58912e+06
1.55851e+06
1.52786e+06
1.49716e+06
1.46644e+06
1.43571e+06
1.40499e+06
1.37434e+06
1.34377e+06
1.31334e+06
1.28311e+06
1.2531e+06
1.2234e+06
1.19406e+06
1.16511e+06
1.13677e+06
4.15775e+06
4.13344e+06
4.11201e+06
4.09468e+06
4.08002e+06
4.06597e+06
4.05148e+06
4.03651e+06
4.02135e+06
4.00625e+06
3.99127e+06
3.97633e+06
3.96136e+06
3.94627e+06
3.93102e+06
3.91554e+06
3.89977e+06
3.88367e+06
3.86719e+06
3.85029e+06
3.83295e+06
3.81516e+06
3.79691e+06
3.77821e+06
3.75905e+06
3.73945e+06
3.71943e+06
3.699e+06
3.67819e+06
3.657e+06
3.63548e+06
3.61362e+06
3.59146e+06
3.56901e+06
3.54628e+06
3.5233e+06
3.50006e+06
3.47659e+06
3.4529e+06
3.42899e+06
3.40486e+06
3.38053e+06
3.35599e+06
3.33126e+06
3.30634e+06
3.28122e+06
3.25592e+06
3.23043e+06
3.20477e+06
3.17892e+06
3.15291e+06
3.12672e+06
3.10037e+06
3.07387e+06
3.0472e+06
3.02038e+06
2.99342e+06
2.96631e+06
2.93906e+06
2.91167e+06
2.88415e+06
2.8565e+06
2.82872e+06
2.80082e+06
2.77281e+06
2.74468e+06
2.71644e+06
2.68809e+06
2.65964e+06
2.63108e+06
2.60243e+06
2.57369e+06
2.54485e+06
2.51593e+06
2.48692e+06
2.45782e+06
2.42865e+06
2.39939e+06
2.37007e+06
2.34066e+06
2.31119e+06
2.28165e+06
2.25205e+06
2.22238e+06
2.19266e+06
2.16288e+06
2.13304e+06
2.10316e+06
2.07323e+06
2.04325e+06
2.01323e+06
1.98317e+06
1.95308e+06
1.92296e+06
1.8928e+06
1.86262e+06
1.83241e+06
1.80216e+06
1.77189e+06
1.74158e+06
1.71123e+06
1.68083e+06
1.65039e+06
1.6199e+06
1.58935e+06
1.55874e+06
1.52809e+06
1.49739e+06
1.46666e+06
1.43593e+06
1.40522e+06
1.37456e+06
1.34399e+06
1.31356e+06
1.28331e+06
1.25331e+06
1.22359e+06
1.19424e+06
1.16522e+06
1.13682e+06
4.15779e+06
4.1336e+06
4.11233e+06
4.09512e+06
4.08055e+06
4.06658e+06
4.05218e+06
4.03726e+06
4.02212e+06
4.00697e+06
3.9919e+06
3.97684e+06
3.9617e+06
3.94643e+06
3.93096e+06
3.91525e+06
3.89924e+06
3.88293e+06
3.86627e+06
3.84923e+06
3.83181e+06
3.81397e+06
3.79571e+06
3.77702e+06
3.75791e+06
3.73838e+06
3.71843e+06
3.69809e+06
3.67736e+06
3.65627e+06
3.63483e+06
3.61306e+06
3.59097e+06
3.56859e+06
3.54593e+06
3.523e+06
3.49981e+06
3.47638e+06
3.45272e+06
3.42883e+06
3.40473e+06
3.38041e+06
3.35589e+06
3.33116e+06
3.30624e+06
3.28113e+06
3.25583e+06
3.23034e+06
3.20468e+06
3.17883e+06
3.15282e+06
3.12664e+06
3.10029e+06
3.07378e+06
3.04712e+06
3.0203e+06
2.99334e+06
2.96623e+06
2.93898e+06
2.91159e+06
2.88407e+06
2.85642e+06
2.82864e+06
2.80074e+06
2.77272e+06
2.74459e+06
2.71635e+06
2.688e+06
2.65955e+06
2.631e+06
2.60235e+06
2.5736e+06
2.54476e+06
2.51584e+06
2.48682e+06
2.45773e+06
2.42855e+06
2.3993e+06
2.36997e+06
2.34057e+06
2.3111e+06
2.28156e+06
2.25195e+06
2.22228e+06
2.19256e+06
2.16278e+06
2.13294e+06
2.10306e+06
2.07313e+06
2.04315e+06
2.01313e+06
1.98308e+06
1.95298e+06
1.92286e+06
1.89271e+06
1.86252e+06
1.83231e+06
1.80207e+06
1.77179e+06
1.74148e+06
1.71113e+06
1.68074e+06
1.6503e+06
1.6198e+06
1.58925e+06
1.55865e+06
1.52799e+06
1.49729e+06
1.46657e+06
1.43584e+06
1.40512e+06
1.37446e+06
1.34389e+06
1.31346e+06
1.28321e+06
1.25321e+06
1.22348e+06
1.19412e+06
1.16509e+06
1.13668e+06
4.15786e+06
4.13372e+06
4.11252e+06
4.0954e+06
4.0809e+06
4.06699e+06
4.05263e+06
4.03774e+06
4.02258e+06
4.00739e+06
3.99223e+06
3.97706e+06
3.96181e+06
3.94641e+06
3.93081e+06
3.91497e+06
3.89886e+06
3.88246e+06
3.86573e+06
3.84867e+06
3.83122e+06
3.81338e+06
3.79514e+06
3.77648e+06
3.7574e+06
3.73791e+06
3.718e+06
3.69771e+06
3.67702e+06
3.65597e+06
3.63457e+06
3.61283e+06
3.59078e+06
3.56843e+06
3.54579e+06
3.52288e+06
3.49971e+06
3.4763e+06
3.45265e+06
3.42877e+06
3.40467e+06
3.38035e+06
3.35583e+06
3.33111e+06
3.30619e+06
3.28108e+06
3.25578e+06
3.23029e+06
3.20463e+06
3.17879e+06
3.15277e+06
3.12659e+06
3.10025e+06
3.07374e+06
3.04708e+06
3.02026e+06
2.9933e+06
2.96619e+06
2.93894e+06
2.91156e+06
2.88404e+06
2.85639e+06
2.82862e+06
2.80072e+06
2.7727e+06
2.74457e+06
2.71633e+06
2.68799e+06
2.65953e+06
2.63098e+06
2.60233e+06
2.57359e+06
2.54475e+06
2.51583e+06
2.48682e+06
2.45772e+06
2.42854e+06
2.39929e+06
2.36996e+06
2.34056e+06
2.31109e+06
2.28155e+06
2.25195e+06
2.22228e+06
2.19256e+06
2.16278e+06
2.13294e+06
2.10306e+06
2.07313e+06
2.04315e+06
2.01313e+06
1.98308e+06
1.95299e+06
1.92287e+06
1.89271e+06
1.86253e+06
1.83232e+06
1.80207e+06
1.7718e+06
1.74149e+06
1.71114e+06
1.68075e+06
1.65031e+06
1.61981e+06
1.58926e+06
1.55866e+06
1.528e+06
1.4973e+06
1.46658e+06
1.43585e+06
1.40513e+06
1.37447e+06
1.3439e+06
1.31347e+06
1.28322e+06
1.2532e+06
1.22347e+06
1.19409e+06
1.16507e+06
1.13663e+06
4.15792e+06
4.1338e+06
4.11265e+06
4.09557e+06
4.08112e+06
4.06725e+06
4.05292e+06
4.03804e+06
4.02288e+06
4.00766e+06
3.99247e+06
3.97725e+06
3.96193e+06
3.94647e+06
3.93082e+06
3.91492e+06
3.89875e+06
3.88228e+06
3.86551e+06
3.84839e+06
3.83091e+06
3.81304e+06
3.79477e+06
3.7761e+06
3.75702e+06
3.73753e+06
3.71763e+06
3.69735e+06
3.67668e+06
3.65565e+06
3.63427e+06
3.61256e+06
3.59054e+06
3.56821e+06
3.54559e+06
3.52271e+06
3.49956e+06
3.47616e+06
3.45253e+06
3.42866e+06
3.40457e+06
3.38027e+06
3.35576e+06
3.33104e+06
3.30613e+06
3.28102e+06
3.25572e+06
3.23024e+06
3.20458e+06
3.17874e+06
3.15273e+06
3.12655e+06
3.10021e+06
3.07371e+06
3.04705e+06
3.02024e+06
2.99328e+06
2.96617e+06
2.93892e+06
2.91154e+06
2.88402e+06
2.85638e+06
2.8286e+06
2.80071e+06
2.77269e+06
2.74457e+06
2.71633e+06
2.68798e+06
2.65953e+06
2.63098e+06
2.60233e+06
2.57358e+06
2.54475e+06
2.51582e+06
2.48681e+06
2.45772e+06
2.42854e+06
2.39929e+06
2.36996e+06
2.34056e+06
2.31109e+06
2.28155e+06
2.25194e+06
2.22228e+06
2.19255e+06
2.16277e+06
2.13294e+06
2.10305e+06
2.07312e+06
2.04315e+06
2.01313e+06
1.98308e+06
1.95299e+06
1.92286e+06
1.89271e+06
1.86253e+06
1.83232e+06
1.80207e+06
1.7718e+06
1.74149e+06
1.71114e+06
1.68075e+06
1.65031e+06
1.61981e+06
1.58926e+06
1.55866e+06
1.528e+06
1.4973e+06
1.46658e+06
1.43584e+06
1.40513e+06
1.37446e+06
1.34389e+06
1.31345e+06
1.2832e+06
1.25318e+06
1.22345e+06
1.19407e+06
1.16504e+06
1.13658e+06
4.15794e+06
4.13383e+06
4.1127e+06
4.09565e+06
4.08123e+06
4.06738e+06
4.05307e+06
4.0382e+06
4.02304e+06
4.00781e+06
3.9926e+06
3.97736e+06
3.96202e+06
3.94654e+06
3.93085e+06
3.91491e+06
3.8987e+06
3.88219e+06
3.86538e+06
3.84823e+06
3.83072e+06
3.81283e+06
3.79456e+06
3.77588e+06
3.7568e+06
3.73732e+06
3.71744e+06
3.69717e+06
3.67652e+06
3.65552e+06
3.63416e+06
3.61247e+06
3.59046e+06
3.56815e+06
3.54555e+06
3.52267e+06
3.49954e+06
3.47615e+06
3.45252e+06
3.42866e+06
3.40457e+06
3.38027e+06
3.35576e+06
3.33104e+06
3.30613e+06
3.28102e+06
3.25572e+06
3.23023e+06
3.20457e+06
3.17873e+06
3.15272e+06
3.12654e+06
3.1002e+06
3.0737e+06
3.04704e+06
3.02023e+06
2.99327e+06
2.96616e+06
2.93892e+06
2.91153e+06
2.88402e+06
2.85637e+06
2.8286e+06
2.8007e+06
2.77269e+06
2.74456e+06
2.71632e+06
2.68798e+06
2.65953e+06
2.63097e+06
2.60232e+06
2.57358e+06
2.54474e+06
2.51582e+06
2.48681e+06
2.45771e+06
2.42854e+06
2.39928e+06
2.36995e+06
2.34055e+06
2.31108e+06
2.28154e+06
2.25193e+06
2.22227e+06
2.19254e+06
2.16276e+06
2.13293e+06
2.10305e+06
2.07311e+06
2.04314e+06
2.01312e+06
1.98307e+06
1.95298e+06
1.92286e+06
1.8927e+06
1.86252e+06
1.83231e+06
1.80207e+06
1.77179e+06
1.74148e+06
1.71113e+06
1.68074e+06
1.6503e+06
1.61981e+06
1.58926e+06
1.55865e+06
1.52799e+06
1.49729e+06
1.46657e+06
1.43583e+06
1.40512e+06
1.37445e+06
1.34388e+06
1.31344e+06
1.28319e+06
1.25317e+06
1.22343e+06
1.19404e+06
1.16501e+06
1.13655e+06
4.15791e+06
4.1338e+06
4.11268e+06
4.09564e+06
4.08122e+06
4.06737e+06
4.05307e+06
4.03821e+06
4.02305e+06
4.00784e+06
3.99263e+06
3.97739e+06
3.96206e+06
3.94657e+06
3.93088e+06
3.91495e+06
3.89873e+06
3.88222e+06
3.86541e+06
3.84825e+06
3.83074e+06
3.81285e+06
3.79457e+06
3.7759e+06
3.75682e+06
3.73733e+06
3.71745e+06
3.69719e+06
3.67654e+06
3.65553e+06
3.63417e+06
3.61248e+06
3.59047e+06
3.56816e+06
3.54556e+06
3.52269e+06
3.49955e+06
3.47616e+06
3.45254e+06
3.42867e+06
3.40459e+06
3.38028e+06
3.35577e+06
3.33105e+06
3.30614e+06
3.28102e+06
3.25572e+06
3.23024e+06
3.20458e+06
3.17874e+06
3.15272e+06
3.12655e+06
3.1002e+06
3.0737e+06
3.04704e+06
3.02023e+06
2.99327e+06
2.96617e+06
2.93892e+06
2.91154e+06
2.88402e+06
2.85638e+06
2.82861e+06
2.80071e+06
2.7727e+06
2.74457e+06
2.71633e+06
2.68799e+06
2.65954e+06
2.63099e+06
2.60234e+06
2.57359e+06
2.54476e+06
2.51583e+06
2.48682e+06
2.45773e+06
2.42855e+06
2.39929e+06
2.36997e+06
2.34056e+06
2.31109e+06
2.28155e+06
2.25195e+06
2.22228e+06
2.19256e+06
2.16277e+06
2.13294e+06
2.10306e+06
2.07313e+06
2.04315e+06
2.01313e+06
1.98308e+06
1.95299e+06
1.92287e+06
1.89271e+06
1.86253e+06
1.83232e+06
1.80208e+06
1.7718e+06
1.74149e+06
1.71114e+06
1.68075e+06
1.65031e+06
1.61981e+06
1.58926e+06
1.55866e+06
1.528e+06
1.4973e+06
1.46657e+06
1.43584e+06
1.40512e+06
1.37445e+06
1.34388e+06
1.31344e+06
1.28319e+06
1.25317e+06
1.22344e+06
1.19404e+06
1.16501e+06
1.13655e+06
4.15783e+06
4.13372e+06
4.11258e+06
4.09552e+06
4.08109e+06
4.06724e+06
4.05293e+06
4.03808e+06
4.02293e+06
4.00774e+06
3.99255e+06
3.97734e+06
3.96204e+06
3.94658e+06
3.93093e+06
3.91503e+06
3.89885e+06
3.88238e+06
3.86559e+06
3.84847e+06
3.83098e+06
3.8131e+06
3.79483e+06
3.77615e+06
3.75706e+06
3.73756e+06
3.71767e+06
3.69738e+06
3.67672e+06
3.65569e+06
3.63432e+06
3.61261e+06
3.59059e+06
3.56826e+06
3.54565e+06
3.52276e+06
3.49962e+06
3.47622e+06
3.45258e+06
3.42872e+06
3.40463e+06
3.38032e+06
3.35581e+06
3.33108e+06
3.30617e+06
3.28105e+06
3.25575e+06
3.23027e+06
3.2046e+06
3.17876e+06
3.15275e+06
3.12657e+06
3.10022e+06
3.07372e+06
3.04706e+06
3.02025e+06
2.99329e+06
2.96619e+06
2.93894e+06
2.91156e+06
2.88404e+06
2.8564e+06
2.82863e+06
2.80073e+06
2.77272e+06
2.7446e+06
2.71636e+06
2.68801e+06
2.65956e+06
2.63101e+06
2.60236e+06
2.57362e+06
2.54478e+06
2.51586e+06
2.48685e+06
2.45775e+06
2.42857e+06
2.39932e+06
2.36999e+06
2.34059e+06
2.31111e+06
2.28157e+06
2.25197e+06
2.2223e+06
2.19258e+06
2.1628e+06
2.13296e+06
2.10308e+06
2.07314e+06
2.04317e+06
2.01315e+06
1.9831e+06
1.95301e+06
1.92289e+06
1.89273e+06
1.86255e+06
1.83234e+06
1.80209e+06
1.77182e+06
1.74151e+06
1.71116e+06
1.68077e+06
1.65032e+06
1.61983e+06
1.58928e+06
1.55867e+06
1.52801e+06
1.49731e+06
1.46658e+06
1.43585e+06
1.40513e+06
1.37446e+06
1.34389e+06
1.31345e+06
1.28319e+06
1.25317e+06
1.22344e+06
1.19406e+06
1.16503e+06
1.13658e+06
4.15771e+06
4.13359e+06
4.11242e+06
4.09531e+06
4.08084e+06
4.06697e+06
4.05265e+06
4.03779e+06
4.02267e+06
4.0075e+06
3.99237e+06
3.97722e+06
3.96198e+06
3.94659e+06
3.931e+06
3.91516e+06
3.89904e+06
3.88263e+06
3.86589e+06
3.84881e+06
3.83134e+06
3.81349e+06
3.79523e+06
3.77655e+06
3.75746e+06
3.73796e+06
3.71805e+06
3.69775e+06
3.67707e+06
3.65602e+06
3.63462e+06
3.61289e+06
3.59085e+06
3.5685e+06
3.54587e+06
3.52296e+06
3.4998e+06
3.47639e+06
3.45274e+06
3.42885e+06
3.40475e+06
3.38043e+06
3.35591e+06
3.33118e+06
3.30625e+06
3.28113e+06
3.25583e+06
3.23033e+06
3.20466e+06
3.17882e+06
3.1528e+06
3.12662e+06
3.10027e+06
3.07377e+06
3.0471e+06
3.02029e+06
2.99333e+06
2.96622e+06
2.93898e+06
2.9116e+06
2.88408e+06
2.85644e+06
2.82866e+06
2.80077e+06
2.77276e+06
2.74463e+06
2.7164e+06
2.68805e+06
2.6596e+06
2.63105e+06
2.6024e+06
2.57366e+06
2.54482e+06
2.51589e+06
2.48688e+06
2.45778e+06
2.42861e+06
2.39935e+06
2.37002e+06
2.34062e+06
2.31115e+06
2.2816e+06
2.252e+06
2.22233e+06
2.19261e+06
2.16282e+06
2.13299e+06
2.1031e+06
2.07317e+06
2.0432e+06
2.01318e+06
1.98312e+06
1.95303e+06
1.92291e+06
1.89276e+06
1.86257e+06
1.83236e+06
1.80212e+06
1.77184e+06
1.74153e+06
1.71118e+06
1.68079e+06
1.65034e+06
1.61985e+06
1.58929e+06
1.55869e+06
1.52803e+06
1.49733e+06
1.4666e+06
1.43586e+06
1.40514e+06
1.37447e+06
1.3439e+06
1.31346e+06
1.28321e+06
1.25319e+06
1.22346e+06
1.19408e+06
1.16506e+06
1.13663e+06
4.15758e+06
4.13342e+06
4.11218e+06
4.09501e+06
4.08048e+06
4.06655e+06
4.0522e+06
4.03733e+06
4.02222e+06
4.00711e+06
3.99207e+06
3.97703e+06
3.96192e+06
3.94666e+06
3.9312e+06
3.9155e+06
3.8995e+06
3.88318e+06
3.86651e+06
3.84946e+06
3.83202e+06
3.81416e+06
3.79588e+06
3.77718e+06
3.75805e+06
3.73851e+06
3.71856e+06
3.69821e+06
3.67748e+06
3.65639e+06
3.63495e+06
3.61319e+06
3.59111e+06
3.56873e+06
3.54607e+06
3.52315e+06
3.49996e+06
3.47653e+06
3.45287e+06
3.42897e+06
3.40486e+06
3.38054e+06
3.356e+06
3.33127e+06
3.30634e+06
3.28121e+06
3.2559e+06
3.23041e+06
3.20473e+06
3.17888e+06
3.15286e+06
3.12668e+06
3.10033e+06
3.07382e+06
3.04716e+06
3.02034e+06
2.99338e+06
2.96627e+06
2.93903e+06
2.91164e+06
2.88413e+06
2.85648e+06
2.82871e+06
2.80082e+06
2.77281e+06
2.74468e+06
2.71644e+06
2.6881e+06
2.65965e+06
2.63109e+06
2.60244e+06
2.5737e+06
2.54486e+06
2.51594e+06
2.48692e+06
2.45783e+06
2.42865e+06
2.3994e+06
2.37006e+06
2.34066e+06
2.31119e+06
2.28164e+06
2.25204e+06
2.22237e+06
2.19264e+06
2.16286e+06
2.13303e+06
2.10314e+06
2.07321e+06
2.04323e+06
2.01321e+06
1.98316e+06
1.95306e+06
1.92294e+06
1.89279e+06
1.8626e+06
1.83239e+06
1.80214e+06
1.77187e+06
1.74156e+06
1.71121e+06
1.68081e+06
1.65037e+06
1.61987e+06
1.58932e+06
1.55871e+06
1.52805e+06
1.49735e+06
1.46662e+06
1.43588e+06
1.40516e+06
1.37449e+06
1.34391e+06
1.31348e+06
1.28322e+06
1.25321e+06
1.22349e+06
1.19412e+06
1.16511e+06
1.1367e+06
4.15747e+06
4.13322e+06
4.11184e+06
4.09456e+06
4.07996e+06
4.06597e+06
4.05154e+06
4.03661e+06
4.0215e+06
4.00643e+06
3.99147e+06
3.97655e+06
3.96158e+06
3.94649e+06
3.93123e+06
3.91573e+06
3.89995e+06
3.88384e+06
3.86734e+06
3.85042e+06
3.83306e+06
3.81525e+06
3.79698e+06
3.77826e+06
3.75909e+06
3.73949e+06
3.71947e+06
3.69904e+06
3.67823e+06
3.65706e+06
3.63554e+06
3.6137e+06
3.59155e+06
3.56911e+06
3.54639e+06
3.52341e+06
3.50019e+06
3.47672e+06
3.45303e+06
3.42911e+06
3.40498e+06
3.38064e+06
3.35609e+06
3.33135e+06
3.30641e+06
3.28129e+06
3.25597e+06
3.23047e+06
3.2048e+06
3.17894e+06
3.15292e+06
3.12673e+06
3.10038e+06
3.07387e+06
3.04721e+06
3.02039e+06
2.99343e+06
2.96632e+06
2.93907e+06
2.91169e+06
2.88417e+06
2.85653e+06
2.82876e+06
2.80086e+06
2.77285e+06
2.74473e+06
2.71649e+06
2.68814e+06
2.65969e+06
2.63114e+06
2.60249e+06
2.57375e+06
2.54491e+06
2.51598e+06
2.48697e+06
2.45787e+06
2.4287e+06
2.39944e+06
2.37011e+06
2.3407e+06
2.31123e+06
2.28169e+06
2.25208e+06
2.22241e+06
2.19269e+06
2.1629e+06
2.13307e+06
2.10318e+06
2.07325e+06
2.04327e+06
2.01325e+06
1.98319e+06
1.9531e+06
1.92298e+06
1.89282e+06
1.86264e+06
1.83242e+06
1.80218e+06
1.7719e+06
1.74159e+06
1.71124e+06
1.68084e+06
1.6504e+06
1.6199e+06
1.58934e+06
1.55874e+06
1.52808e+06
1.49737e+06
1.46664e+06
1.4359e+06
1.40518e+06
1.37451e+06
1.34394e+06
1.3135e+06
1.28325e+06
1.25324e+06
1.22352e+06
1.19417e+06
1.16518e+06
1.1368e+06
4.15757e+06
4.13304e+06
4.11137e+06
4.09391e+06
4.07921e+06
4.06514e+06
4.05064e+06
4.03567e+06
4.02058e+06
4.0056e+06
3.99073e+06
3.9759e+06
3.96102e+06
3.94603e+06
3.93086e+06
3.91547e+06
3.89979e+06
3.88376e+06
3.86733e+06
3.85048e+06
3.83316e+06
3.81538e+06
3.79714e+06
3.77843e+06
3.75927e+06
3.73967e+06
3.71964e+06
3.69921e+06
3.6784e+06
3.65722e+06
3.63569e+06
3.61384e+06
3.59168e+06
3.56923e+06
3.54651e+06
3.52352e+06
3.50028e+06
3.47681e+06
3.4531e+06
3.42918e+06
3.40504e+06
3.38069e+06
3.35614e+06
3.3314e+06
3.30645e+06
3.28132e+06
3.256e+06
3.2305e+06
3.20482e+06
3.17897e+06
3.15294e+06
3.12675e+06
3.1004e+06
3.07389e+06
3.04722e+06
3.0204e+06
2.99343e+06
2.96633e+06
2.93908e+06
2.91169e+06
2.88417e+06
2.85653e+06
2.82875e+06
2.80086e+06
2.77285e+06
2.74472e+06
2.71648e+06
2.68814e+06
2.65968e+06
2.63113e+06
2.60248e+06
2.57374e+06
2.5449e+06
2.51597e+06
2.48696e+06
2.45786e+06
2.42868e+06
2.39943e+06
2.3701e+06
2.34069e+06
2.31122e+06
2.28167e+06
2.25207e+06
2.2224e+06
2.19267e+06
2.16289e+06
2.13305e+06
2.10316e+06
2.07323e+06
2.04325e+06
2.01323e+06
1.98318e+06
1.95309e+06
1.92296e+06
1.89281e+06
1.86262e+06
1.83241e+06
1.80216e+06
1.77189e+06
1.74158e+06
1.71122e+06
1.68083e+06
1.65038e+06
1.61989e+06
1.58933e+06
1.55872e+06
1.52807e+06
1.49736e+06
1.46663e+06
1.43589e+06
1.40517e+06
1.3745e+06
1.34393e+06
1.31349e+06
1.28325e+06
1.25324e+06
1.22353e+06
1.19419e+06
1.16523e+06
1.13692e+06
)
;

boundaryField
{
    upperWall
    {
        type            calculated;
        value           nonuniform List<scalar> 
120
(
4.15757e+06
4.13304e+06
4.11137e+06
4.09391e+06
4.07921e+06
4.06514e+06
4.05064e+06
4.03567e+06
4.02058e+06
4.0056e+06
3.99073e+06
3.9759e+06
3.96102e+06
3.94603e+06
3.93086e+06
3.91547e+06
3.89979e+06
3.88376e+06
3.86733e+06
3.85048e+06
3.83316e+06
3.81538e+06
3.79714e+06
3.77843e+06
3.75927e+06
3.73967e+06
3.71964e+06
3.69921e+06
3.6784e+06
3.65722e+06
3.63569e+06
3.61384e+06
3.59168e+06
3.56923e+06
3.54651e+06
3.52352e+06
3.50028e+06
3.47681e+06
3.4531e+06
3.42918e+06
3.40504e+06
3.38069e+06
3.35614e+06
3.3314e+06
3.30645e+06
3.28132e+06
3.256e+06
3.2305e+06
3.20482e+06
3.17897e+06
3.15294e+06
3.12675e+06
3.1004e+06
3.07389e+06
3.04722e+06
3.0204e+06
2.99343e+06
2.96633e+06
2.93908e+06
2.91169e+06
2.88417e+06
2.85653e+06
2.82875e+06
2.80086e+06
2.77285e+06
2.74472e+06
2.71648e+06
2.68814e+06
2.65968e+06
2.63113e+06
2.60248e+06
2.57374e+06
2.5449e+06
2.51597e+06
2.48696e+06
2.45786e+06
2.42868e+06
2.39943e+06
2.3701e+06
2.34069e+06
2.31122e+06
2.28167e+06
2.25207e+06
2.2224e+06
2.19267e+06
2.16289e+06
2.13305e+06
2.10316e+06
2.07323e+06
2.04325e+06
2.01323e+06
1.98318e+06
1.95309e+06
1.92296e+06
1.89281e+06
1.86262e+06
1.83241e+06
1.80216e+06
1.77189e+06
1.74158e+06
1.71122e+06
1.68083e+06
1.65038e+06
1.61989e+06
1.58933e+06
1.55872e+06
1.52807e+06
1.49736e+06
1.46663e+06
1.43589e+06
1.40517e+06
1.3745e+06
1.34393e+06
1.31349e+06
1.28325e+06
1.25324e+06
1.22353e+06
1.19419e+06
1.16523e+06
1.13692e+06
)
;
    }
    lowerWall
    {
        type            calculated;
        value           nonuniform List<scalar> 
120
(
4.15791e+06
4.13331e+06
4.11159e+06
4.09406e+06
4.07927e+06
4.06511e+06
4.05052e+06
4.03547e+06
4.02031e+06
4.00526e+06
3.99034e+06
3.97546e+06
3.96054e+06
3.94551e+06
3.93033e+06
3.91493e+06
3.89926e+06
3.88326e+06
3.86687e+06
3.85004e+06
3.83277e+06
3.81503e+06
3.79682e+06
3.77814e+06
3.759e+06
3.73942e+06
3.7194e+06
3.69898e+06
3.67817e+06
3.65698e+06
3.63545e+06
3.6136e+06
3.59143e+06
3.56897e+06
3.54624e+06
3.52324e+06
3.5e+06
3.47653e+06
3.45282e+06
3.4289e+06
3.40477e+06
3.38043e+06
3.35589e+06
3.33115e+06
3.30622e+06
3.2811e+06
3.25579e+06
3.2303e+06
3.20463e+06
3.17878e+06
3.15276e+06
3.12658e+06
3.10023e+06
3.07371e+06
3.04704e+06
3.02022e+06
2.99325e+06
2.96614e+06
2.93889e+06
2.91149e+06
2.88397e+06
2.85632e+06
2.82854e+06
2.80064e+06
2.77262e+06
2.74449e+06
2.71624e+06
2.68789e+06
2.65944e+06
2.63089e+06
2.60223e+06
2.57349e+06
2.54465e+06
2.51572e+06
2.48671e+06
2.45761e+06
2.42844e+06
2.39918e+06
2.36985e+06
2.34045e+06
2.31098e+06
2.28144e+06
2.25183e+06
2.22217e+06
2.19244e+06
2.16266e+06
2.13282e+06
2.10294e+06
2.073e+06
2.04303e+06
2.01301e+06
1.98295e+06
1.95286e+06
1.92273e+06
1.89258e+06
1.86239e+06
1.83218e+06
1.80194e+06
1.77166e+06
1.74135e+06
1.711e+06
1.6806e+06
1.65016e+06
1.61967e+06
1.58912e+06
1.55851e+06
1.52786e+06
1.49716e+06
1.46644e+06
1.43571e+06
1.40499e+06
1.37434e+06
1.34377e+06
1.31334e+06
1.28311e+06
1.2531e+06
1.2234e+06
1.19406e+06
1.16511e+06
1.13677e+06
)
;
    }
    inlet
    {
        type            calculated;
        value           nonuniform List<scalar> 
12
(
4.15791e+06
4.15775e+06
4.15779e+06
4.15786e+06
4.15792e+06
4.15794e+06
4.15791e+06
4.15783e+06
4.15771e+06
4.15758e+06
4.15747e+06
4.15757e+06
)
;
    }
    outlet
    {
        type            calculated;
        value           nonuniform List<scalar> 
12
(
1.1223e+06
1.12224e+06
1.12211e+06
1.12207e+06
1.12202e+06
1.12198e+06
1.12199e+06
1.12201e+06
1.12206e+06
1.12213e+06
1.12225e+06
1.12247e+06
)
;
    }
    frontAndBack
    {
        type            empty;
    }
}


// ************************************************************************* //
