/*--------------------------------*- C++ -*----------------------------------*\
  =========                 |
  \\      /  F ield         | OpenFOAM: The Open Source CFD Toolbox
   \\    /   O peration     | Website:  https://openfoam.org
    \\  /    A nd           | Version:  7
     \\/     M anipulation  |
\*---------------------------------------------------------------------------*/
FoamFile
{
    version     2.0;
    format      ascii;
    class       volScalarField;
    location    "0.5425";
    object      T;
}
// * * * * * * * * * * * * * * * * * * * * * * * * * * * * * * * * * * * * * //

dimensions      [0 0 0 1 0 0 0];

internalField   nonuniform List<scalar> 
7920
(
282.756
282.735
282.706
282.759
282.749
282.809
282.821
282.879
282.887
282.921
282.914
282.925
282.906
282.901
282.877
282.862
282.847
282.82
282.848
282.741
282.641
282.451
282.381
282.453
282.469
282.57
282.651
282.793
282.887
282.979
283.017
283.039
283.026
282.995
282.948
282.872
282.834
282.708
282.794
282.47
282.583
282.323
282.158
282.228
282.21
282.298
282.343
282.535
282.705
282.928
283.053
283.167
283.205
283.227
283.203
283.117
283.046
282.842
282.823
282.522
282.605
282.343
282.168
282.228
282.212
282.272
282.274
282.419
282.593
282.861
283.065
283.243
283.342
283.414
283.462
283.441
283.408
283.232
283.108
282.847
282.586
282.322
282.129
282.193
282.167
282.222
282.194
282.307
282.453
282.726
282.953
283.164
283.283
283.378
283.454
283.499
283.511
283.422
283.263
283.051
282.591
282.337
282.145
282.214
282.188
282.243
282.208
282.31
282.443
282.713
282.945
283.166
283.29
283.388
283.468
283.54
283.577
283.54
283.387
283.207
282.591
282.337
282.145
282.214
282.188
282.243
282.208
282.31
282.443
282.713
282.945
283.167
283.289
283.388
283.467
283.541
283.576
283.541
283.386
283.207
282.586
282.322
282.129
282.193
282.167
282.222
282.194
282.307
282.452
282.726
282.952
283.165
283.282
283.38
283.451
283.503
283.506
283.427
283.258
283.056
282.605
282.343
282.168
282.228
282.212
282.272
282.274
282.419
282.593
282.862
283.064
283.245
283.339
283.419
283.455
283.452
283.392
283.255
283.08
282.879
282.583
282.323
282.158
282.229
282.21
282.298
282.343
282.536
282.705
282.928
283.052
283.169
283.202
283.232
283.193
283.135
283.016
282.893
282.745
282.634
282.641
282.451
282.381
282.453
282.469
282.57
282.651
282.793
282.887
282.98
283.016
283.04
283.024
282.998
282.942
282.883
282.811
282.757
282.692
282.675
282.756
282.735
282.706
282.759
282.749
282.809
282.821
282.879
282.887
282.921
282.914
282.925
282.906
282.902
282.876
282.865
282.841
282.834
282.816
282.825
283.095
282.895
282.926
282.89
282.974
282.979
283.077
283.09
283.154
283.14
283.167
283.132
283.131
283.081
283.069
283.014
283.019
282.945
283.055
282.706
283.034
282.73
282.692
282.664
282.727
282.768
282.919
283.061
283.227
283.322
283.395
283.405
283.398
283.328
283.263
283.128
283.083
282.887
283.006
282.612
283.082
282.75
282.728
282.682
282.754
282.739
282.868
283.007
283.259
283.435
283.611
283.681
283.755
283.734
283.718
283.566
283.478
283.207
283.18
282.846
283.053
282.703
282.671
282.625
282.685
282.646
282.725
282.83
283.079
283.296
283.518
283.635
283.748
283.788
283.84
283.769
283.698
283.459
283.3
283.011
283.075
282.722
282.703
282.65
282.718
282.666
282.732
282.811
283.052
283.273
283.515
283.646
283.772
283.828
283.921
283.911
283.89
283.707
283.514
283.244
283.067
282.704
282.685
282.629
282.697
282.64
282.702
282.773
283.009
283.229
283.475
283.608
283.734
283.791
283.893
283.911
283.917
283.773
283.577
283.319
283.067
282.704
282.685
282.629
282.697
282.64
282.702
282.773
283.009
283.229
283.475
283.608
283.734
283.791
283.893
283.911
283.916
283.774
283.577
283.319
283.075
282.722
282.703
282.65
282.718
282.666
282.732
282.811
283.052
283.273
283.515
283.646
283.771
283.83
283.919
283.914
283.886
283.711
283.511
283.247
283.053
282.703
282.671
282.625
282.685
282.646
282.725
282.83
283.079
283.296
283.517
283.636
283.745
283.792
283.834
283.779
283.684
283.477
283.279
283.036
283.082
282.75
282.728
282.682
282.754
282.739
282.868
283.007
283.259
283.436
283.61
283.683
283.751
283.74
283.707
283.586
283.447
283.257
283.107
282.945
283.034
282.73
282.692
282.664
282.727
282.768
282.919
283.062
283.227
283.322
283.394
283.407
283.395
283.333
283.253
283.148
283.045
282.958
282.876
282.845
283.095
282.895
282.926
282.89
282.974
282.979
283.077
283.09
283.154
283.14
283.166
283.132
283.13
283.083
283.066
283.021
283.005
282.978
282.965
282.962
282.997
282.756
282.691
282.692
282.772
282.908
283.05
283.123
283.151
283.139
283.122
283.083
283.053
283
282.984
282.918
282.98
282.806
283.179
282.419
282.995
282.71
282.625
282.618
282.633
282.694
282.856
283.08
283.306
283.474
283.599
283.645
283.641
283.518
283.405
283.167
283.108
282.816
282.962
282.567
282.997
282.708
282.629
282.633
282.635
282.64
282.736
282.937
283.202
283.436
283.62
283.744
283.849
283.88
283.863
283.69
283.532
283.213
283.087
282.763
282.996
282.705
282.627
282.634
282.633
282.624
282.697
282.882
283.144
283.392
283.577
283.704
283.818
283.91
283.977
283.909
283.789
283.506
283.283
282.991
282.997
282.705
282.629
282.637
282.636
282.625
282.696
282.879
283.142
283.39
283.574
283.695
283.803
283.901
283.995
283.972
283.884
283.641
283.389
283.122
282.997
282.704
282.629
282.635
282.633
282.622
282.693
282.878
283.141
283.388
283.57
283.688
283.793
283.89
283.987
283.977
283.898
283.673
283.415
283.156
282.997
282.704
282.629
282.635
282.633
282.622
282.693
282.878
283.141
283.388
283.57
283.688
283.793
283.889
283.988
283.977
283.899
283.672
283.416
283.155
282.997
282.705
282.629
282.637
282.636
282.625
282.696
282.879
283.142
283.39
283.574
283.695
283.802
283.901
283.995
283.972
283.885
283.64
283.392
283.118
282.996
282.705
282.627
282.634
282.633
282.625
282.697
282.882
283.144
283.392
283.577
283.705
283.817
283.912
283.975
283.912
283.786
283.508
283.282
282.99
282.997
282.708
282.629
282.633
282.635
282.641
282.736
282.938
283.201
283.438
283.618
283.747
283.844
283.887
283.852
283.706
283.51
283.241
283.054
282.801
282.995
282.711
282.625
282.618
282.633
282.694
282.856
283.081
283.305
283.476
283.595
283.65
283.632
283.533
283.38
283.21
283.038
282.923
282.805
282.778
282.997
282.756
282.691
282.692
282.772
282.908
283.049
283.124
283.151
283.14
283.121
283.086
283.049
283.006
282.972
282.942
282.926
282.926
282.905
282.972
282.997
282.756
282.691
282.692
282.772
282.908
283.05
283.123
283.151
283.139
283.122
283.084
283.053
283
282.984
282.918
282.98
282.806
283.179
282.419
282.995
282.71
282.625
282.618
282.633
282.694
282.856
283.08
283.306
283.474
283.599
283.645
283.641
283.518
283.405
283.167
283.108
282.816
282.962
282.567
282.997
282.708
282.629
282.633
282.636
282.64
282.736
282.937
283.202
283.436
283.62
283.744
283.849
283.88
283.863
283.69
283.532
283.213
283.087
282.763
282.996
282.705
282.627
282.634
282.633
282.624
282.697
282.882
283.144
283.392
283.577
283.704
283.818
283.91
283.977
283.909
283.789
283.506
283.283
282.991
282.997
282.705
282.629
282.637
282.636
282.625
282.696
282.879
283.142
283.39
283.574
283.695
283.802
283.901
283.995
283.972
283.884
283.641
283.389
283.122
282.997
282.704
282.629
282.635
282.633
282.622
282.693
282.878
283.141
283.388
283.57
283.688
283.793
283.89
283.988
283.977
283.899
283.673
283.415
283.156
282.997
282.704
282.629
282.635
282.633
282.622
282.693
282.878
283.141
283.388
283.57
283.688
283.793
283.889
283.988
283.977
283.899
283.672
283.416
283.155
282.997
282.705
282.629
282.637
282.636
282.625
282.696
282.879
283.142
283.39
283.574
283.695
283.802
283.901
283.995
283.972
283.885
283.639
283.392
283.118
282.996
282.705
282.627
282.634
282.633
282.625
282.697
282.882
283.144
283.392
283.577
283.705
283.817
283.912
283.975
283.912
283.786
283.508
283.282
282.99
282.997
282.708
282.629
282.633
282.635
282.641
282.736
282.938
283.201
283.438
283.618
283.747
283.844
283.888
283.852
283.706
283.51
283.241
283.054
282.801
282.995
282.711
282.625
282.618
282.633
282.694
282.856
283.081
283.305
283.476
283.595
283.65
283.632
283.533
283.38
283.21
283.038
282.923
282.805
282.778
282.997
282.756
282.691
282.692
282.772
282.908
283.049
283.124
283.151
283.14
283.121
283.086
283.049
283.006
282.972
282.942
282.926
282.926
282.905
282.972
283.095
282.895
282.926
282.89
282.974
282.979
283.077
283.09
283.154
283.14
283.167
283.132
283.131
283.081
283.069
283.014
283.019
282.945
283.055
282.706
283.034
282.73
282.692
282.664
282.727
282.768
282.919
283.061
283.227
283.322
283.395
283.405
283.398
283.328
283.263
283.128
283.083
282.887
283.006
282.612
283.082
282.75
282.728
282.682
282.754
282.739
282.868
283.007
283.259
283.435
283.611
283.681
283.755
283.734
283.718
283.566
283.478
283.207
283.18
282.846
283.053
282.703
282.671
282.625
282.685
282.646
282.725
282.83
283.079
283.296
283.518
283.635
283.748
283.788
283.841
283.769
283.698
283.459
283.3
283.011
283.075
282.722
282.703
282.65
282.718
282.666
282.732
282.811
283.052
283.273
283.515
283.646
283.772
283.828
283.921
283.911
283.89
283.707
283.514
283.244
283.067
282.704
282.685
282.629
282.697
282.64
282.702
282.773
283.009
283.229
283.475
283.608
283.734
283.791
283.893
283.911
283.917
283.773
283.577
283.319
283.067
282.704
282.685
282.629
282.697
282.64
282.702
282.773
283.009
283.229
283.475
283.608
283.734
283.791
283.893
283.912
283.916
283.774
283.577
283.319
283.075
282.722
282.703
282.65
282.718
282.666
282.732
282.811
283.052
283.273
283.515
283.646
283.771
283.83
283.919
283.914
283.886
283.711
283.511
283.247
283.053
282.703
282.671
282.625
282.685
282.646
282.725
282.83
283.079
283.296
283.517
283.636
283.745
283.792
283.834
283.779
283.684
283.477
283.279
283.036
283.082
282.75
282.728
282.682
282.754
282.739
282.868
283.007
283.259
283.436
283.61
283.683
283.752
283.74
283.707
283.586
283.447
283.257
283.107
282.945
283.034
282.73
282.692
282.664
282.727
282.768
282.919
283.062
283.227
283.322
283.394
283.407
283.395
283.333
283.253
283.148
283.045
282.958
282.875
282.845
283.095
282.895
282.926
282.89
282.974
282.979
283.077
283.09
283.154
283.14
283.166
283.132
283.13
283.083
283.065
283.021
283.005
282.978
282.965
282.962
282.756
282.735
282.706
282.759
282.749
282.809
282.821
282.879
282.887
282.921
282.914
282.925
282.906
282.901
282.877
282.862
282.847
282.82
282.848
282.741
282.641
282.451
282.381
282.453
282.469
282.57
282.651
282.793
282.887
282.979
283.017
283.039
283.026
282.995
282.948
282.872
282.834
282.709
282.794
282.47
282.583
282.323
282.158
282.228
282.21
282.298
282.343
282.535
282.705
282.927
283.053
283.167
283.205
283.227
283.204
283.117
283.046
282.843
282.824
282.522
282.605
282.343
282.168
282.228
282.212
282.272
282.274
282.419
282.593
282.861
283.065
283.243
283.342
283.414
283.462
283.441
283.408
283.232
283.108
282.847
282.586
282.322
282.129
282.193
282.167
282.222
282.194
282.307
282.453
282.726
282.953
283.164
283.283
283.378
283.454
283.499
283.511
283.422
283.263
283.051
282.591
282.337
282.145
282.214
282.188
282.243
282.208
282.31
282.443
282.713
282.945
283.166
283.29
283.388
283.468
283.54
283.577
283.54
283.387
283.207
282.591
282.337
282.145
282.214
282.188
282.243
282.208
282.31
282.443
282.713
282.945
283.167
283.289
283.388
283.467
283.541
283.576
283.541
283.386
283.207
282.586
282.322
282.129
282.193
282.167
282.222
282.194
282.307
282.452
282.726
282.952
283.165
283.282
283.38
283.451
283.503
283.506
283.427
283.258
283.056
282.605
282.343
282.168
282.228
282.212
282.272
282.274
282.42
282.593
282.862
283.064
283.245
283.339
283.419
283.455
283.453
283.392
283.255
283.08
282.879
282.583
282.323
282.158
282.229
282.21
282.298
282.343
282.536
282.705
282.928
283.052
283.169
283.202
283.232
283.193
283.134
283.016
282.893
282.745
282.634
282.641
282.451
282.381
282.453
282.469
282.57
282.651
282.793
282.887
282.98
283.016
283.04
283.024
282.998
282.942
282.883
282.811
282.757
282.692
282.675
282.756
282.735
282.706
282.759
282.749
282.809
282.821
282.88
282.887
282.921
282.914
282.925
282.906
282.902
282.876
282.865
282.841
282.834
282.816
282.825
284.594
286.28
287.412
288.194
288.643
288.895
289.007
289.068
289.089
289.105
289.109
289.116
289.118
289.123
289.125
289.13
289.133
289.138
289.142
289.147
289.152
289.158
289.163
289.17
289.175
289.181
289.187
289.192
289.197
289.202
289.207
289.211
289.214
289.217
289.219
289.221
289.222
289.223
289.223
289.222
289.221
289.22
289.218
289.216
289.214
289.212
289.209
289.206
289.203
289.199
289.196
289.192
289.189
289.185
289.181
289.178
289.174
289.17
289.166
289.162
289.158
289.155
289.151
289.147
289.143
289.139
289.135
289.132
289.128
289.124
289.12
289.117
289.113
289.109
289.106
289.102
289.098
289.094
289.091
289.087
289.083
289.08
289.076
289.072
289.068
289.063
289.065
289.03
289.132
288.927
283.741
285.269
286.392
287.195
287.679
287.956
288.089
288.159
288.186
288.203
288.208
288.215
288.217
288.221
288.223
288.228
288.23
288.235
288.239
288.244
288.249
288.254
288.26
288.265
288.271
288.277
288.282
288.287
288.292
288.297
288.301
288.305
288.308
288.311
288.313
288.315
288.315
288.316
288.316
288.315
288.314
288.313
288.311
288.309
288.306
288.304
288.301
288.298
288.294
288.291
288.287
288.284
288.28
288.276
288.273
288.269
288.265
288.261
288.257
288.253
288.249
288.245
288.241
288.237
288.233
288.229
288.225
288.222
288.218
288.214
288.21
288.206
288.202
288.199
288.195
288.191
288.187
288.183
288.18
288.176
288.172
288.168
288.164
288.16
288.157
288.151
288.155
288.115
288.216
288.04
282.885
283.952
284.969
285.791
286.323
286.653
286.824
286.92
286.961
286.987
286.995
287.004
287.006
287.012
287.014
287.019
287.022
287.027
287.031
287.037
287.042
287.048
287.053
287.059
287.065
287.071
287.076
287.082
287.087
287.092
287.096
287.1
287.103
287.106
287.108
287.11
287.111
287.111
287.111
287.111
287.109
287.108
287.106
287.104
287.102
287.099
287.096
287.093
287.09
287.086
287.083
287.079
287.075
287.072
287.068
287.064
287.06
287.056
287.052
287.048
287.044
287.04
287.036
287.032
287.028
287.024
287.02
287.016
287.012
287.009
287.005
287.001
286.997
286.993
286.989
286.985
286.981
286.978
286.974
286.97
286.966
286.962
286.958
286.954
286.95
286.943
286.95
286.907
286.994
286.871
282.578
283.066
283.873
284.641
285.189
285.548
285.752
285.87
285.926
285.957
285.97
285.978
285.981
285.986
285.988
285.992
285.995
285.999
286.003
286.008
286.013
286.019
286.024
286.03
286.035
286.041
286.046
286.052
286.057
286.061
286.065
286.069
286.072
286.075
286.077
286.079
286.08
286.08
286.08
286.079
286.078
286.077
286.075
286.073
286.071
286.068
286.065
286.062
286.059
286.055
286.052
286.048
286.044
286.041
286.037
286.033
286.029
286.025
286.021
286.017
286.013
286.009
286.005
286.001
285.997
285.993
285.989
285.986
285.982
285.978
285.974
285.97
285.966
285.962
285.958
285.955
285.951
285.947
285.943
285.939
285.935
285.931
285.928
285.924
285.92
285.913
285.921
285.881
285.945
285.871
282.469
282.532
283.106
283.784
284.299
284.659
284.872
285.005
285.071
285.11
285.126
285.136
285.14
285.145
285.148
285.153
285.156
285.161
285.165
285.17
285.175
285.181
285.187
285.193
285.199
285.205
285.21
285.216
285.221
285.225
285.23
285.234
285.237
285.24
285.242
285.244
285.245
285.246
285.246
285.245
285.244
285.243
285.241
285.239
285.237
285.234
285.231
285.228
285.225
285.222
285.218
285.215
285.211
285.207
285.204
285.2
285.196
285.192
285.188
285.184
285.18
285.176
285.172
285.169
285.165
285.161
285.157
285.153
285.149
285.145
285.142
285.138
285.134
285.13
285.126
285.123
285.119
285.115
285.111
285.107
285.104
285.1
285.096
285.092
285.088
285.081
285.087
285.056
285.096
285.054
282.506
282.328
282.727
283.299
283.748
284.072
284.271
284.396
284.464
284.501
284.518
284.527
284.531
284.535
284.537
284.54
284.543
284.547
284.551
284.556
284.56
284.566
284.571
284.577
284.582
284.588
284.593
284.599
284.604
284.608
284.612
284.616
284.619
284.622
284.624
284.626
284.627
284.628
284.628
284.627
284.626
284.625
284.623
284.621
284.619
284.616
284.614
284.611
284.607
284.604
284.601
284.597
284.593
284.59
284.586
284.583
284.579
284.575
284.571
284.567
284.563
284.56
284.556
284.552
284.548
284.545
284.541
284.537
284.533
284.529
284.526
284.522
284.518
284.515
284.511
284.507
284.504
284.5
284.496
284.493
284.489
284.485
284.482
284.478
284.474
284.468
284.472
284.449
284.474
284.449
282.51
282.263
282.563
283.036
283.403
283.669
283.833
283.942
284.002
284.036
284.051
284.06
284.064
284.067
284.07
284.073
284.076
284.08
284.084
284.089
284.093
284.099
284.104
284.11
284.116
284.122
284.127
284.132
284.137
284.142
284.146
284.15
284.154
284.157
284.159
284.161
284.162
284.163
284.163
284.162
284.162
284.161
284.159
284.157
284.155
284.153
284.15
284.148
284.144
284.141
284.138
284.135
284.131
284.128
284.125
284.121
284.118
284.114
284.11
284.107
284.103
284.099
284.096
284.092
284.089
284.085
284.082
284.078
284.075
284.071
284.068
284.064
284.061
284.057
284.054
284.05
284.047
284.044
284.04
284.037
284.033
284.03
284.026
284.023
284.019
284.015
284.016
284
284.014
283.998
282.462
282.27
282.524
282.904
283.184
283.383
283.504
283.588
283.635
283.665
283.678
283.687
283.691
283.696
283.699
283.703
283.707
283.712
283.716
283.722
283.727
283.733
283.739
283.746
283.752
283.758
283.764
283.77
283.776
283.781
283.786
283.791
283.795
283.798
283.801
283.803
283.805
283.806
283.807
283.807
283.806
283.806
283.805
283.803
283.802
283.8
283.798
283.796
283.793
283.79
283.788
283.785
283.782
283.779
283.776
283.773
283.77
283.767
283.764
283.76
283.757
283.754
283.751
283.748
283.745
283.742
283.739
283.736
283.733
283.73
283.727
283.724
283.721
283.718
283.715
283.712
283.709
283.706
283.703
283.7
283.697
283.694
283.691
283.688
283.685
283.681
283.68
283.67
283.676
283.665
282.472
282.38
282.602
282.882
283.075
283.205
283.284
283.339
283.371
283.392
283.401
283.408
283.412
283.416
283.419
283.424
283.427
283.432
283.437
283.443
283.449
283.455
283.461
283.468
283.475
283.482
283.488
283.495
283.501
283.507
283.512
283.517
283.522
283.526
283.529
283.532
283.535
283.536
283.538
283.539
283.539
283.539
283.539
283.538
283.537
283.536
283.535
283.533
283.532
283.53
283.528
283.526
283.524
283.522
283.519
283.517
283.515
283.513
283.51
283.508
283.506
283.503
283.501
283.499
283.497
283.494
283.492
283.49
283.488
283.486
283.483
283.481
283.479
283.477
283.475
283.473
283.471
283.469
283.467
283.465
283.463
283.46
283.458
283.456
283.454
283.452
283.45
283.445
283.448
283.44
282.452
282.461
282.627
282.814
282.925
283.004
283.048
283.084
283.103
283.119
283.126
283.133
283.137
283.143
283.147
283.152
283.157
283.163
283.169
283.176
283.183
283.191
283.198
283.207
283.214
283.222
283.23
283.238
283.245
283.252
283.259
283.265
283.271
283.277
283.281
283.286
283.289
283.292
283.295
283.297
283.299
283.3
283.301
283.302
283.302
283.302
283.302
283.302
283.301
283.3
283.3
283.299
283.298
283.297
283.296
283.295
283.294
283.293
283.292
283.29
283.289
283.288
283.287
283.286
283.285
283.284
283.283
283.282
283.281
283.28
283.278
283.278
283.277
283.276
283.275
283.274
283.273
283.272
283.271
283.27
283.269
283.268
283.267
283.266
283.264
283.264
283.262
283.26
283.261
283.256
282.659
282.686
282.779
282.868
282.918
282.953
282.972
282.989
282.998
283.006
283.01
283.014
283.017
283.021
283.024
283.028
283.032
283.038
283.043
283.049
283.056
283.063
283.07
283.078
283.085
283.093
283.101
283.109
283.117
283.124
283.131
283.138
283.145
283.151
283.156
283.161
283.165
283.169
283.173
283.176
283.178
283.181
283.183
283.184
283.186
283.187
283.188
283.188
283.189
283.189
283.189
283.189
283.19
283.19
283.19
283.19
283.19
283.189
283.189
283.189
283.189
283.189
283.189
283.188
283.188
283.188
283.188
283.188
283.188
283.188
283.188
283.188
283.188
283.188
283.188
283.188
283.188
283.188
283.188
283.188
283.188
283.188
283.188
283.188
283.187
283.188
283.187
283.187
283.188
283.186
282.897
282.913
282.94
282.968
282.981
282.993
282.998
283.005
283.007
283.01
283.011
283.012
283.013
283.014
283.014
283.016
283.017
283.019
283.021
283.023
283.026
283.03
283.033
283.038
283.042
283.047
283.051
283.056
283.061
283.066
283.07
283.075
283.08
283.084
283.088
283.091
283.095
283.098
283.1
283.103
283.105
283.107
283.109
283.11
283.111
283.113
283.114
283.114
283.115
283.115
283.116
283.116
283.117
283.117
283.117
283.118
283.118
283.118
283.118
283.118
283.118
283.118
283.119
283.119
283.119
283.119
283.119
283.12
283.12
283.12
283.12
283.12
283.12
283.121
283.121
283.121
283.121
283.122
283.122
283.122
283.122
283.122
283.122
283.123
283.123
283.123
283.123
283.123
283.123
283.122
285.245
287.115
288.308
289.073
289.528
289.754
289.864
289.906
289.926
289.93
289.933
289.932
289.933
289.932
289.933
289.933
289.935
289.937
289.94
289.943
289.946
289.95
289.955
289.96
289.964
289.969
289.974
289.978
289.983
289.987
289.991
289.994
289.997
289.999
290.001
290.003
290.003
290.004
290.003
290.003
290.001
290
289.998
289.996
289.994
289.991
289.988
289.985
289.982
289.978
289.975
289.971
289.967
289.964
289.96
289.956
289.952
289.948
289.944
289.94
289.936
289.932
289.929
289.925
289.921
289.917
289.913
289.909
289.906
289.902
289.898
289.894
289.891
289.887
289.883
289.88
289.876
289.872
289.869
289.865
289.862
289.858
289.855
289.851
289.849
289.843
289.849
289.806
289.936
289.707
283.851
285.406
286.575
287.386
287.892
288.165
288.303
288.365
288.392
288.402
288.406
288.407
288.408
288.409
288.41
288.411
288.413
288.415
288.418
288.422
288.426
288.43
288.435
288.44
288.445
288.45
288.455
288.46
288.465
288.469
288.473
288.476
288.479
288.482
288.484
288.486
288.486
288.487
288.486
288.486
288.485
288.483
288.481
288.479
288.477
288.474
288.471
288.468
288.465
288.462
288.458
288.455
288.451
288.447
288.443
288.44
288.436
288.432
288.428
288.424
288.42
288.416
288.412
288.408
288.404
288.401
288.397
288.393
288.389
288.385
288.381
288.378
288.374
288.37
288.367
288.363
288.359
288.356
288.352
288.348
288.345
288.341
288.338
288.333
288.331
288.324
288.334
288.283
288.408
288.229
283.096
284.085
285.12
285.924
286.476
286.796
286.975
287.06
287.102
287.117
287.124
287.124
287.125
287.124
287.125
287.125
287.126
287.128
287.13
287.133
287.137
287.141
287.145
287.15
287.154
287.159
287.163
287.168
287.172
287.176
287.18
287.183
287.186
287.188
287.19
287.191
287.192
287.192
287.192
287.191
287.19
287.188
287.186
287.184
287.181
287.179
287.176
287.173
287.169
287.166
287.162
287.158
287.154
287.151
287.147
287.143
287.139
287.135
287.131
287.127
287.123
287.119
287.115
287.111
287.107
287.104
287.1
287.096
287.092
287.088
287.084
287.08
287.077
287.073
287.069
287.065
287.062
287.058
287.054
287.05
287.047
287.043
287.04
287.036
287.034
287.026
287.039
286.987
287.088
286.974
282.71
283.141
283.937
284.676
285.224
285.573
285.782
285.893
285.951
285.976
285.987
285.99
285.992
285.992
285.993
285.993
285.995
285.997
285.999
286.003
286.006
286.01
286.015
286.02
286.024
286.029
286.034
286.038
286.043
286.047
286.051
286.054
286.057
286.059
286.061
286.062
286.063
286.063
286.063
286.062
286.061
286.059
286.057
286.055
286.053
286.05
286.047
286.044
286.04
286.037
286.033
286.03
286.026
286.022
286.018
286.014
286.01
286.006
286.002
285.998
285.994
285.99
285.986
285.982
285.978
285.975
285.971
285.967
285.963
285.959
285.955
285.951
285.948
285.944
285.94
285.936
285.933
285.929
285.925
285.921
285.918
285.914
285.911
285.906
285.904
285.896
285.908
285.864
285.933
285.868
282.676
282.685
283.251
283.87
284.372
284.702
284.915
285.035
285.103
285.132
285.147
285.149
285.151
285.15
285.151
285.151
285.152
285.154
285.156
285.159
285.162
285.166
285.17
285.174
285.179
285.184
285.188
285.193
285.197
285.201
285.204
285.207
285.21
285.213
285.214
285.216
285.216
285.216
285.216
285.215
285.214
285.212
285.21
285.208
285.205
285.203
285.2
285.197
285.193
285.19
285.186
285.182
285.179
285.175
285.171
285.167
285.163
285.159
285.155
285.151
285.147
285.143
285.139
285.135
285.131
285.128
285.124
285.12
285.116
285.112
285.108
285.104
285.101
285.097
285.093
285.09
285.086
285.082
285.078
285.075
285.071
285.067
285.064
285.06
285.058
285.05
285.06
285.027
285.07
285.035
282.664
282.456
282.856
283.362
283.789
284.073
284.264
284.379
284.447
284.48
284.496
284.501
284.504
284.504
284.505
284.506
284.508
284.51
284.512
284.516
284.52
284.524
284.528
284.533
284.538
284.543
284.548
284.553
284.557
284.561
284.565
284.569
284.572
284.574
284.576
284.577
284.578
284.579
284.578
284.578
284.576
284.575
284.573
284.571
284.569
284.566
284.563
284.56
284.557
284.554
284.55
284.546
284.543
284.539
284.535
284.532
284.528
284.524
284.52
284.516
284.512
284.508
284.504
284.5
284.497
284.493
284.489
284.485
284.481
284.478
284.474
284.47
284.466
284.463
284.459
284.455
284.452
284.448
284.444
284.441
284.437
284.433
284.43
284.426
284.424
284.417
284.422
284.4
284.423
284.403
282.669
282.404
282.717
283.129
283.475
283.698
283.851
283.944
284.001
284.03
284.045
284.05
284.052
284.053
284.054
284.054
284.056
284.058
284.061
284.065
284.069
284.073
284.078
284.082
284.088
284.093
284.098
284.102
284.107
284.111
284.115
284.119
284.122
284.125
284.127
284.128
284.129
284.129
284.129
284.129
284.128
284.127
284.125
284.123
284.121
284.118
284.115
284.113
284.109
284.106
284.103
284.099
284.096
284.092
284.089
284.085
284.081
284.078
284.074
284.07
284.066
284.063
284.059
284.055
284.052
284.048
284.045
284.041
284.037
284.034
284.03
284.026
284.023
284.019
284.016
284.012
284.009
284.005
284.002
283.998
283.995
283.991
283.988
283.985
283.982
283.977
283.979
283.964
283.976
283.964
282.674
282.466
282.741
283.073
283.337
283.496
283.606
283.67
283.713
283.732
283.744
283.745
283.747
283.746
283.747
283.747
283.749
283.75
283.753
283.756
283.76
283.764
283.769
283.773
283.778
283.783
283.788
283.793
283.798
283.802
283.806
283.81
283.813
283.816
283.818
283.82
283.821
283.821
283.821
283.821
283.82
283.819
283.818
283.816
283.814
283.812
283.81
283.807
283.804
283.801
283.798
283.795
283.792
283.789
283.785
283.782
283.779
283.775
283.772
283.769
283.765
283.762
283.758
283.755
283.752
283.749
283.745
283.742
283.739
283.736
283.732
283.729
283.726
283.723
283.72
283.717
283.714
283.711
283.708
283.704
283.702
283.698
283.696
283.693
283.69
283.686
283.687
283.677
283.685
283.676
282.63
282.542
282.786
283.043
283.226
283.331
283.401
283.443
283.471
283.484
283.492
283.494
283.495
283.496
283.497
283.498
283.501
283.503
283.507
283.511
283.515
283.52
283.526
283.531
283.537
283.542
283.548
283.554
283.559
283.564
283.569
283.573
283.577
283.581
283.584
283.586
283.588
283.589
283.59
283.59
283.59
283.59
283.589
283.588
283.587
283.585
283.583
283.582
283.579
283.577
283.575
283.572
283.57
283.567
283.565
283.562
283.56
283.557
283.554
283.552
283.549
283.546
283.544
283.541
283.538
283.536
283.533
283.531
283.528
283.526
283.523
283.521
283.518
283.516
283.514
283.511
283.509
283.506
283.504
283.502
283.499
283.497
283.495
283.493
283.491
283.488
283.487
283.482
283.485
283.479
282.73
282.718
282.913
283.076
283.187
283.24
283.281
283.3
283.317
283.323
283.328
283.328
283.33
283.33
283.332
283.333
283.336
283.339
283.343
283.348
283.353
283.358
283.364
283.371
283.377
283.383
283.39
283.396
283.402
283.408
283.414
283.419
283.424
283.428
283.432
283.436
283.438
283.441
283.442
283.444
283.445
283.445
283.446
283.446
283.445
283.445
283.444
283.443
283.442
283.441
283.44
283.438
283.437
283.435
283.434
283.432
283.431
283.429
283.428
283.426
283.424
283.423
283.421
283.42
283.418
283.417
283.415
283.414
283.412
283.411
283.409
283.408
283.407
283.405
283.404
283.403
283.401
283.4
283.399
283.397
283.396
283.395
283.394
283.393
283.392
283.391
283.391
283.388
283.391
283.388
282.779
282.798
282.916
283.003
283.057
283.082
283.102
283.112
283.121
283.125
283.129
283.13
283.133
283.134
283.137
283.14
283.144
283.148
283.153
283.159
283.165
283.172
283.179
283.186
283.194
283.202
283.209
283.217
283.224
283.231
283.238
283.245
283.251
283.257
283.262
283.266
283.271
283.274
283.277
283.28
283.282
283.284
283.286
283.287
283.288
283.289
283.289
283.29
283.29
283.29
283.29
283.29
283.289
283.289
283.289
283.288
283.288
283.288
283.287
283.287
283.286
283.286
283.285
283.285
283.285
283.284
283.284
283.284
283.283
283.283
283.283
283.282
283.282
283.282
283.282
283.282
283.281
283.281
283.281
283.281
283.281
283.281
283.281
283.28
283.281
283.28
283.281
283.28
283.282
283.281
283.03
283.033
283.073
283.092
283.109
283.111
283.118
283.118
283.121
283.12
283.122
283.121
283.122
283.121
283.123
283.123
283.125
283.127
283.13
283.133
283.137
283.141
283.146
283.151
283.156
283.162
283.168
283.174
283.18
283.185
283.191
283.197
283.202
283.207
283.212
283.216
283.22
283.223
283.226
283.229
283.232
283.234
283.236
283.237
283.239
283.24
283.241
283.242
283.243
283.244
283.244
283.245
283.245
283.245
283.246
283.246
283.246
283.246
283.247
283.247
283.247
283.247
283.247
283.248
283.248
283.248
283.248
283.249
283.249
283.249
283.249
283.25
283.25
283.25
283.251
283.251
283.251
283.252
283.252
283.252
283.253
283.253
283.254
283.254
283.255
283.255
283.256
283.256
283.257
283.258
285.773
288.205
289.564
290.379
290.832
291.045
291.138
291.17
291.183
291.183
291.184
291.181
291.18
291.178
291.178
291.177
291.178
291.178
291.18
291.182
291.185
291.188
291.192
291.195
291.2
291.203
291.208
291.211
291.215
291.218
291.222
291.224
291.227
291.228
291.23
291.231
291.231
291.23
291.23
291.228
291.227
291.224
291.222
291.219
291.216
291.213
291.209
291.205
291.202
291.197
291.194
291.189
291.185
291.181
291.176
291.172
291.168
291.163
291.159
291.154
291.15
291.145
291.141
291.136
291.132
291.128
291.124
291.119
291.115
291.111
291.107
291.102
291.099
291.094
291.091
291.086
291.083
291.078
291.075
291.07
291.067
291.063
291.06
291.055
291.053
291.046
291.056
290.994
291.179
290.872
283.54
285.296
286.634
287.536
288.085
288.375
288.517
288.577
288.602
288.611
288.615
288.615
288.616
288.617
288.618
288.619
288.621
288.624
288.627
288.631
288.636