/*--------------------------------*- C++ -*----------------------------------*\
  =========                 |
  \\      /  F ield         | OpenFOAM: The Open Source CFD Toolbox
   \\    /   O peration     | Website:  https://openfoam.org
    \\  /    A nd           | Version:  7
     \\/     M anipulation  |
\*---------------------------------------------------------------------------*/
FoamFile
{
    version     2.0;
    format      ascii;
    class       volVectorField;
    location    "0.5425";
    object      U;
}
// * * * * * * * * * * * * * * * * * * * * * * * * * * * * * * * * * * * * * //

dimensions      [0 1 -1 0 0 0 0];

internalField   nonuniform List<vector> 
13200
(
(1.9481 0.0383522 -32.2385)
(1.08532 -0.366698 -32.2807)
(0.619838 -0.415687 -32.2799)
(0.592179 -0.427525 -32.2858)
(0.467933 -0.433161 -32.2841)
(0.498258 -0.435022 -32.2894)
(0.417547 -0.437217 -32.2894)
(0.451756 -0.43699 -32.2941)
(0.388696 -0.437869 -32.2937)
(0.420778 -0.437296 -32.2965)
(0.369568 -0.437755 -32.2951)
(0.398172 -0.437137 -32.2963)
(0.355444 -0.437352 -32.2944)
(0.380477 -0.436793 -32.2945)
(0.344634 -0.43683 -32.2926)
(0.366921 -0.436446 -32.292)
(0.33782 -0.43472 -32.2911)
(0.356371 -0.436843 -32.2896)
(0.334528 -0.411552 -32.292)
(0.284426 -0.42321 -32.2833)
(3.66348 0.929873 -32.3553)
(2.87537 0.572336 -32.3876)
(2.00572 0.47819 -32.386)
(1.89382 0.439699 -32.3969)
(1.59978 0.433545 -32.3965)
(1.65114 0.432058 -32.4084)
(1.46302 0.430434 -32.413)
(1.53436 0.430256 -32.4255)
(1.38993 0.428925 -32.4288)
(1.46104 0.428846 -32.4357)
(1.34531 0.427807 -32.4348)
(1.41092 0.427811 -32.4364)
(1.31559 0.426942 -32.4326)
(1.37521 0.426917 -32.4304)
(1.29706 0.426052 -32.4257)
(1.35341 0.425926 -32.421)
(1.2912 0.423696 -32.4191)
(1.34835 0.425783 -32.4112)
(1.29356 0.410558 -32.421)
(1.46672 0.41529 -32.3818)
(4.5398 0.490277 -32.3771)
(4.53965 -0.04598 -32.3888)
(3.85061 -0.214784 -32.3771)
(3.7113 -0.320704 -32.3905)
(3.32565 -0.360234 -32.3893)
(3.34127 -0.377065 -32.4055)
(3.09043 -0.386526 -32.4151)
(3.15017 -0.390938 -32.4392)
(2.96167 -0.39493 -32.4518)
(3.03089 -0.396891 -32.4684)
(2.88121 -0.398981 -32.472)
(2.949 -0.39983 -32.4773)
(2.82652 -0.401073 -32.4735)
(2.89134 -0.401662 -32.47)
(2.79259 -0.402512 -32.4618)
(2.85719 -0.403393 -32.4505)
(2.7828 -0.40286 -32.4452)
(2.83982 -0.405149 -32.4254)
(2.79865 -0.3994 -32.4409)
(2.77813 -0.409849 -32.3804)
(4.81793 0.873324 -32.393)
(5.25772 0.655035 -32.3928)
(4.98375 0.581047 -32.3741)
(5.01233 0.498111 -32.3851)
(4.72839 0.463508 -32.3828)
(4.76162 0.444314 -32.3943)
(4.54118 0.433054 -32.4018)
(4.58828 0.426065 -32.4291)
(4.41306 0.421275 -32.452)
(4.46398 0.417667 -32.4802)
(4.32156 0.415406 -32.4946)
(4.37125 0.413275 -32.5072)
(4.25323 0.411755 -32.5098)
(4.30148 0.409775 -32.5096)
(4.2044 0.407924 -32.5041)
(4.25746 0.405773 -32.4893)
(4.17507 0.403844 -32.4805)
(4.25137 0.402085 -32.4506)
(4.15208 0.397272 -32.4566)
(4.32655 0.412475 -32.3942)
(4.87154 0.340559 -32.3942)
(5.45395 -0.0395242 -32.3872)
(5.44662 -0.144996 -32.3622)
(5.63044 -0.245289 -32.3709)
(5.47941 -0.290187 -32.3669)
(5.57553 -0.314355 -32.374)
(5.42523 -0.329752 -32.3742)
(5.49663 -0.338964 -32.3965)
(5.36593 -0.346641 -32.421)
(5.42552 -0.351961 -32.4567)
(5.31409 -0.356427 -32.4801)
(5.36481 -0.359656 -32.5005)
(5.26963 -0.362833 -32.5097)
(5.31409 -0.365651 -32.5161)
(5.23406 -0.369375 -32.5175)
(5.27526 -0.372023 -32.508)
(5.21126 -0.377446 -32.4989)
(5.24757 -0.375739 -32.469)
(5.20325 -0.387668 -32.4587)
(5.20665 -0.390379 -32.4009)
(4.8577 0.622866 -32.4012)
(5.41236 0.537771 -32.3933)
(5.52821 0.526757 -32.3663)
(5.80693 0.472993 -32.3742)
(5.75407 0.449511 -32.3698)
(5.91785 0.434305 -32.3749)
(5.83891 0.424433 -32.37)
(5.95498 0.417665 -32.3859)
(5.87744 0.412495 -32.4076)
(5.96693 0.408258 -32.4452)
(5.89622 0.405278 -32.4738)
(5.96733 0.402482 -32.4993)
(5.90393 0.400269 -32.5125)
(5.96209 0.397609 -32.5233)
(5.90554 0.395039 -32.5308)
(5.95625 0.392018 -32.5299)
(5.9017 0.390331 -32.5251)
(5.95782 0.386854 -32.5013)
(5.89298 0.387948 -32.4814)
(5.98102 0.407919 -32.425)
(4.84561 0.147001 -32.4015)
(5.35426 -0.127483 -32.391)
(5.508 -0.191292 -32.3627)
(5.82232 -0.259038 -32.3699)
(5.81618 -0.288988 -32.3652)
(6.01919 -0.305298 -32.3695)
(5.98382 -0.315983 -32.3619)
(6.13453 -0.322209 -32.3739)
(6.09679 -0.327955 -32.3924)
(6.21615 -0.331924 -32.4296)
(6.18075 -0.335681 -32.4602)
(6.27665 -0.338305 -32.4881)
(6.24401 -0.341332 -32.5026)
(6.3216 -0.343772 -32.5149)
(6.29227 -0.348026 -32.5251)
(6.35335 -0.349932 -32.531)
(6.32757 -0.358126 -32.5315)
(6.36761 -0.353814 -32.5159)
(6.35261 -0.373949 -32.4928)
(6.35345 -0.376338 -32.4381)
(4.83442 0.404282 -32.406)
(5.29799 0.415584 -32.3952)
(5.46368 0.433321 -32.3668)
(5.78975 0.411036 -32.3741)
(5.80192 0.402328 -32.3693)
(6.0234 0.395779 -32.3734)
(6.00978 0.39164 -32.3649)
(6.18084 0.388688 -32.3753)
(6.1665 0.38649 -32.3921)
(6.30624 0.384531 -32.4287)
(6.29437 0.38323 -32.4599)
(6.40972 0.381866 -32.4885)
(6.39983 0.38082 -32.5031)
(6.49524 0.37932 -32.5151)
(6.48653 0.37807 -32.5258)
(6.5641 0.375835 -32.5354)
(6.5528 0.376435 -32.5399)
(6.61446 0.37211 -32.5311)
(6.5996 0.379615 -32.5082)
(6.64742 0.398041 -32.4554)
(4.82786 -0.0334433 -32.4072)
(5.26586 -0.218046 -32.3946)
(5.4346 -0.262868 -32.3659)
(5.76178 -0.30043 -32.3728)
(5.77904 -0.316978 -32.3678)
(6.00648 -0.3254 -32.3717)
(6.00036 -0.330845 -32.3628)
(6.17985 -0.333635 -32.3729)
(6.17583 -0.336485 -32.3892)
(6.3259 -0.338211 -32.4256)
(6.32628 -0.340149 -32.4568)
(6.45283 -0.341248 -32.4854)
(6.45646 -0.342908 -32.4997)
(6.56292 -0.343907 -32.5111)
(6.56882 -0.3467 -32.5214)
(6.65447 -0.346898 -32.5326)
(6.66116 -0.353945 -32.5389)
(6.71874 -0.348278 -32.5344)
(6.73325 -0.367419 -32.5124)
(6.74675 -0.374412 -32.4613)
(4.82428 0.212783 -32.4103)
(5.24841 0.311557 -32.3968)
(5.41885 0.34409 -32.3681)
(5.74677 0.351719 -32.3747)
(5.76541 0.355749 -32.3695)
(5.99458 0.356777 -32.3733)
(5.9907 0.357541 -32.3644)
(6.17305 0.357581 -32.3744)
(6.17263 0.358 -32.3907)
(6.32658 0.357984 -32.427)
(6.33172 0.358377 -32.4582)
(6.463 0.358336 -32.4868)
(6.47243 0.358712 -32.5008)
(6.58423 0.358526 -32.5118)
(6.59636 0.359346 -32.5218)
(6.68781 0.358354 -32.5334)
(6.69968 0.362308 -32.5405)
(6.76546 0.357461 -32.5379)
(6.7818 0.37113 -32.5166)
(6.81106 0.385469 -32.4661)
(4.82428 -0.212782 -32.4103)
(5.24841 -0.311558 -32.3968)
(5.41885 -0.344092 -32.3681)
(5.74677 -0.351721 -32.3747)
(5.76541 -0.355752 -32.3695)
(5.99458 -0.356778 -32.3733)
(5.9907 -0.357542 -32.3644)
(6.17305 -0.35758 -32.3744)
(6.17263 -0.357999 -32.3907)
(6.32658 -0.357979 -32.427)
(6.33173 -0.358366 -32.4582)
(6.463 -0.358317 -32.4868)
(6.47245 -0.358674 -32.5008)
(6.58422 -0.358453 -32.5118)
(6.59645 -0.359267 -32.5218)
(6.68778 -0.358064 -32.5334)
(6.69992 -0.362178 -32.5405)
(6.76543 -0.356519 -32.5379)
(6.78216 -0.370703 -32.5167)
(6.81102 -0.383381 -32.4661)
(4.82786 0.0334433 -32.4072)
(5.26586 0.218044 -32.3946)
(5.4346 0.262865 -32.3659)
(5.76178 0.300428 -32.3728)
(5.77904 0.316975 -32.3678)
(6.00648 0.325399 -32.3717)
(6.00036 0.330843 -32.3628)
(6.17985 0.333636 -32.3729)
(6.17583 0.336486 -32.3892)
(6.3259 0.338215 -32.4256)
(6.32627 0.340161 -32.4567)
(6.45284 0.341264 -32.4855)
(6.45644 0.342946 -32.4996)
(6.56295 0.343973 -32.5111)
(6.56877 0.346781 -32.5214)
(6.65454 0.347177 -32.5326)
(6.66108 0.35407 -32.539)
(6.71888 0.349226 -32.5344)
(6.73334 0.367791 -32.5127)
(6.74739 0.376628 -32.461)
(4.83442 -0.404282 -32.406)
(5.29799 -0.415585 -32.3952)
(5.46368 -0.433323 -32.3668)
(5.78975 -0.411038 -32.3741)
(5.80192 -0.402331 -32.3693)
(6.02341 -0.39578 -32.3734)
(6.00978 -0.391641 -32.3649)
(6.18085 -0.388687 -32.3753)
(6.1665 -0.386489 -32.3921)
(6.30625 -0.384526 -32.4288)
(6.29437 -0.383219 -32.4599)
(6.40974 -0.381846 -32.4886)
(6.39985 -0.380786 -32.503)
(6.49527 -0.379244 -32.5152)
(6.48665 -0.377996 -32.5257)
(6.56416 -0.375544 -32.5355)
(6.55317 -0.376313 -32.5398)
(6.61462 -0.371185 -32.5311)
(6.60047 -0.379177 -32.5084)
(6.64798 -0.396107 -32.4551)
(4.84561 -0.147001 -32.4015)
(5.35426 0.127482 -32.391)
(5.508 0.191289 -32.3627)
(5.82232 0.259035 -32.3699)
(5.81618 0.288986 -32.3652)
(6.0192 0.305297 -32.3695)
(5.98382 0.315982 -32.3619)
(6.13453 0.322209 -32.3739)
(6.09679 0.327956 -32.3924)
(6.21616 0.331927 -32.4296)
(6.18075 0.335692 -32.4602)
(6.27669 0.338318 -32.4882)
(6.24399 0.341368 -32.5024)
(6.32169 0.343825 -32.5151)
(6.29224 0.348101 -32.5247)
(6.35358 0.350171 -32.5315)
(6.32764 0.358225 -32.531)
(6.36814 0.354661 -32.5166)
(6.35327 0.374124 -32.4924)
(6.35513 0.378454 -32.4384)
(4.8577 -0.622866 -32.4012)
(5.41236 -0.537772 -32.3933)
(5.52821 -0.526759 -32.3663)
(5.80693 -0.472995 -32.3742)
(5.75407 -0.449513 -32.3698)
(5.91785 -0.434306 -32.3749)
(5.8389 -0.424434 -32.3699)
(5.95498 -0.417664 -32.386)
(5.87743 -0.412495 -32.4075)
(5.96695 -0.408253 -32.4452)
(5.89623 -0.405269 -32.4737)
(5.96738 -0.402464 -32.4995)
(5.90395 -0.40024 -32.5121)
(5.96222 -0.397537 -32.5239)
(5.90565 -0.39498 -32.5299)
(5.95658 -0.391743 -32.5311)
(5.90219 -0.390243 -32.5234)
(5.95852 -0.38597 -32.5036)
(5.8945 -0.387547 -32.479)
(5.9827 -0.406243 -32.4276)
(4.87154 -0.340559 -32.3942)
(5.45395 0.0395227 -32.3872)
(5.44662 0.144993 -32.3622)
(5.63044 0.245287 -32.3709)
(5.47941 0.290184 -32.3669)
(5.57553 0.314353 -32.374)
(5.42523 0.329751 -32.3742)
(5.49663 0.338963 -32.3965)
(5.36593 0.346642 -32.421)
(5.42554 0.351961 -32.4567)
(5.31408 0.356436 -32.4799)
(5.36488 0.35966 -32.5008)
(5.26962 0.362864 -32.5092)
(5.3143 0.365675 -32.517)
(5.23405 0.369436 -32.5161)
(5.27581 0.372161 -32.5104)
(5.21143 0.377501 -32.4953)
(5.2489 0.376261 -32.4743)
(5.20439 0.387588 -32.4517)
(5.21023 0.392 -32.4095)
(4.81793 -0.873323 -32.393)
(5.25772 -0.655036 -32.3928)
(4.98375 -0.581049 -32.3741)
(5.01233 -0.498113 -32.3851)
(4.72838 -0.46351 -32.3828)
(4.76162 -0.444316 -32.3943)
(4.54117 -0.433056 -32.4018)
(4.58828 -0.426065 -32.4291)
(4.41306 -0.421275 -32.452)
(4.464 -0.417664 -32.4803)
(4.32157 -0.415401 -32.4944)
(4.37132 -0.413263 -32.5075)
(4.25327 -0.411734 -32.5093)
(4.3017 -0.409723 -32.5106)
(4.20456 -0.407876 -32.5025)
(4.25805 -0.405554 -32.4923)
(4.17568 -0.403786 -32.4753)
(4.25269 -0.401255 -32.4594)
(4.1542 -0.397126 -32.4426)
(4.32955 -0.411077 -32.4144)
(4.5398 -0.490277 -32.3771)
(4.53965 0.045979 -32.3888)
(3.85061 0.214782 -32.3771)
(3.71129 0.320702 -32.3905)
(3.32564 0.360232 -32.3892)
(3.34126 0.377063 -32.4055)
(3.09042 0.386524 -32.4151)
(3.15017 0.390936 -32.4392)
(2.96167 0.39493 -32.4517)
(3.03091 0.396888 -32.4684)
(2.88122 0.398984 -32.4718)
(2.94907 0.399824 -32.4775)
(2.82654 0.401086 -32.4732)
(2.89156 0.401642 -32.4706)
(2.79267 0.402536 -32.4606)
(2.85776 0.403334 -32.4528)
(2.78323 0.402877 -32.4408)
(2.8412 0.405121 -32.4341)
(2.80039 0.39928 -32.4241)
(2.78271 0.410118 -32.4124)
(3.66348 -0.929873 -32.3553)
(2.87537 -0.572337 -32.3876)
(2.00572 -0.478191 -32.386)
(1.89382 -0.4397 -32.3969)
(1.59977 -0.433546 -32.3964)
(1.65113 -0.432059 -32.4084)
(1.46302 -0.430436 -32.413)
(1.53436 -0.430257 -32.4255)
(1.38993 -0.428927 -32.4288)
(1.46105 -0.428844 -32.4357)
(1.34532 -0.427806 -32.4347)
(1.41096 -0.427803 -32.4364)
(1.31563 -0.426936 -32.4325)
(1.37535 -0.426881 -32.4306)
(1.29718 -0.426033 -32.4253)
(1.35375 -0.425779 -32.422)
(1.29171 -0.423667 -32.4172)
(1.34894 -0.425375 -32.4153)
(1.29557 -0.410571 -32.4115)
(1.46656 -0.414788 -32.4071)
(1.9481 -0.0383517 -32.2385)
(1.08532 0.366698 -32.2807)
(0.619837 0.415687 -32.2799)
(0.592178 0.427525 -32.2857)
(0.467932 0.433161 -32.2841)
(0.498257 0.435022 -32.2894)
(0.417546 0.437217 -32.2894)
(0.451756 0.436989 -32.2941)
(0.388697 0.437869 -32.2937)
(0.420782 0.437294 -32.2965)
(0.369573 0.437754 -32.2951)
(0.398188 0.437128 -32.2963)
(0.355453 0.437351 -32.2944)
(0.380531 0.43676 -32.2945)
(0.344664 0.436823 -32.2924)
(0.367055 0.436322 -32.2922)
(0.337978 0.43471 -32.2906)
(0.356632 0.43654 -32.2907)
(0.335255 0.411686 -32.2894)
(0.285542 0.423041 -32.2902)
(3.72029 0.563937 0.00715541)
(2.06871 0.630925 0.00489529)
(1.40086 0.606414 0.00613291)
(1.08867 0.603027 0.00489453)
(1.02883 0.611351 0.00590625)
(0.915629 0.617228 0.00486235)
(0.90817 0.620313 0.00569898)
(0.838261 0.622067 0.0048242)
(0.839505 0.622967 0.00552541)
(0.792805 0.623548 0.00479252)
(0.795025 0.623672 0.00537746)
(0.762817 0.623781 0.00476183)
(0.763979 0.623453 0.0052448)
(0.742351 0.6234 0.00472518)
(0.743632 0.622706 0.00512046)
(0.73049 0.623413 0.00468286)
(0.734314 0.618565 0.00500744)
(0.729149 0.629229 0.00463866)
(0.718104 0.56247 0.00492207)
(1.02871 0.58358 0.00456705)
(4.79425 0.000739829 0.00484754)
(4.17517 -0.218022 0.00290125)
(3.6286 -0.413091 0.00415988)
(3.11068 -0.515803 0.002932)
(2.89753 -0.555163 0.00394973)
(2.6568 -0.573272 0.00291075)
(2.58543 -0.581692 0.00375176)
(2.44959 -0.587341 0.00287839)
(2.4198 -0.590679 0.00358146)
(2.33334 -0.593185 0.00284755)
(2.31761 -0.594659 0.003433)
(2.25997 -0.595844 0.00281577)
(2.25038 -0.596516 0.00329879)
(2.21435 -0.597257 0.00277787)
(2.2117 -0.597367 0.00317295)
(2.1931 -0.599048 0.00273492)
(2.20105 -0.595147 0.00305692)
(2.18524 -0.603713 0.00269176)
(2.2285 -0.586222 0.00293846)
(2.01556 -0.591003 0.00261659)
(4.77537 0.53074 0.00603292)
(4.89033 0.779684 0.0041278)
(4.80494 0.74409 0.00529996)
(4.47992 0.683262 0.00405248)
(4.3147 0.650231 0.00505977)
(4.08039 0.631246 0.00401669)
(3.9896 0.620213 0.00485698)
(3.83985 0.614001 0.00398536)
(3.78835 0.609267 0.00469093)
(3.68831 0.606809 0.00395811)
(3.65474 0.604142 0.00454573)
(3.58539 0.602781 0.0039284)
(3.56126 0.6005 0.00441205)
(3.51552 0.599108 0.00388877)
(3.50094 0.596371 0.00428308)
(3.47869 0.594887 0.00384177)
(3.46993 0.589778 0.00416733)
(3.4847 0.594597 0.00379448)
(3.43626 0.556653 0.00408978)
(3.62588 0.591077 0.00374208)
(4.63844 -0.0620644 0.00475666)
(4.89516 -0.175618 0.00306337)
(5.1413 -0.293266 0.00422389)
(5.07926 -0.387202 0.00299171)
(5.08284 -0.439382 0.00400547)
(4.95778 -0.473735 0.00296864)
(4.92534 -0.494687 0.00381097)
(4.81858 -0.50992 0.00294104)
(4.78753 -0.52065 0.00364675)
(4.70627 -0.528557 0.00291494)
(4.68001 -0.534715 0.00350329)
(4.61924 -0.539337 0.0028876)
(4.59713 -0.543984 0.00337318)
(4.55332 -0.547982 0.00285111)
(4.53739 -0.552215 0.0032453)
(4.50886 -0.555846 0.00280374)
(4.50444 -0.558889 0.00312368)
(4.48108 -0.560499 0.00275678)
(4.50493 -0.570094 0.00299741)
(4.37256 -0.569411 0.00269726)
(4.62298 0.410137 0.00565836)
(4.87457 0.656837 0.00403277)
(5.19818 0.678911 0.00512919)
(5.25926 0.655281 0.00388311)
(5.38037 0.636471 0.00488364)
(5.35942 0.62151 0.0038417)
(5.4073 0.610504 0.00468142)
(5.3687 0.602622 0.00381024)
(5.38737 0.595745 0.00451544)
(5.34942 0.591208 0.00378389)
(5.35439 0.586632 0.00437328)
(5.32167 0.583727 0.00375894)
(5.31977 0.579917 0.00424672)
(5.29382 0.577213 0.00372587)
(5.28827 0.573329 0.00412165)
(5.27208 0.570472 0.0036791)
(5.26049 0.566479 0.00400323)
(5.27015 0.566455 0.00363009)
(5.23052 0.545355 0.00392127)
(5.31123 0.586588 0.00358717)
(4.59948 -0.110388 0.00484406)
(4.79007 -0.238068 0.00332424)
(5.13881 -0.319418 0.00440016)
(5.25223 -0.383243 0.00315922)
(5.43926 -0.418813 0.00415963)
(5.48351 -0.443982 0.00312121)
(5.59149 -0.459649 0.00396236)
(5.60883 -0.472133 0.00309119)
(5.67602 -0.481346 0.00379443)
(5.68239 -0.488814 0.00306175)
(5.72494 -0.494956 0.00365)
(5.72599 -0.499931 0.00303616)
(5.75307 -0.505268 0.00352424)
(5.75156 -0.509927 0.00300436)
(5.76859 -0.51598 0.00339999)
(5.7635 -0.519914 0.00295845)
(5.77579 -0.528332 0.00327887)
(5.7595 -0.525756 0.00291194)
(5.78618 -0.548473 0.00315621)
(5.6876 -0.54968 0.00286707)
(4.61232 0.325751 0.00540626)
(4.78968 0.541409 0.00394376)
(5.11782 0.580493 0.00498507)
(5.23291 0.580163 0.00374144)
(5.43436 0.576123 0.0047348)
(5.50189 0.571856 0.00369413)
(5.63794 0.568098 0.0045346)
(5.68621 0.565456 0.00366296)
(5.78434 0.562448 0.0043661)
(5.82186 0.560578 0.00363323)
(5.89369 0.558106 0.00422198)
(5.92291 0.556651 0.00360884)
(5.97586 0.554224 0.00409797)
(5.99847 0.552499 0.00357874)
(6.03634 0.549913 0.00397526)
(6.05262 0.547455 0.00353366)
(6.07369 0.546208 0.00385843)
(6.09021 0.543385 0.00348811)
(6.09188 0.538411 0.0037739)
(6.10966 0.57504 0.00345304)
(4.60168 -0.154529 0.00494636)
(4.75173 -0.301536 0.00353482)
(5.08034 -0.368082 0.00456237)
(5.19797 -0.41419 0.00331916)
(5.40729 -0.438749 0.00431033)
(5.48375 -0.455818 0.0032705)
(5.63157 -0.465751 0.00411116)
(5.69343 -0.47374 0.00323916)
(5.80713 -0.479273 0.00394112)
(5.86132 -0.483957 0.00320719)
(5.95074 -0.487663 0.00379495)
(5.99755 -0.490825 0.00318157)
(6.06868 -0.494356 0.0036703)
(6.1077 -0.497451 0.00315094)
(6.16393 -0.502203 0.00354644)
(6.19105 -0.504286 0.00310491)
(6.23501 -0.513151 0.00342647)
(6.23966 -0.507947 0.0030606)
(6.28924 -0.53338 0.00331472)
(6.2201 -0.540735 0.00302591)
(4.60729 0.258397 0.00521324)
(4.754 0.44832 0.00383339)
(5.0733 0.496909 0.00484536)
(5.18717 0.512787 0.0036034)
(5.39437 0.518721 0.00459207)
(5.4708 0.522059 0.0035517)
(5.62071 0.523343 0.0043924)
(5.68636 0.524701 0.0035205)
(5.8055 0.524946 0.00422295)
(5.86641 0.525635 0.00348927)
(5.9638 0.525535 0.00407757)
(6.01937 0.525916 0.00346458)
(6.1002 0.525668 0.00395388)
(6.14905 0.525699 0.00343479)
(6.2152 0.525676 0.0038308)
(6.25325 0.524617 0.00338911)
(6.30353 0.527386 0.00371325)
(6.3269 0.522984 0.00334514)
(6.36934 0.532515 0.00362259)
(6.35369 0.56015 0.00331418)
(4.60387 -0.202602 0.00506585)
(4.74232 -0.370043 0.00370108)
(5.06182 -0.426854 0.00470841)
(5.17585 -0.457706 0.00346576)
(5.38414 -0.472911 0.00445321)
(5.46112 -0.483141 0.00341277)
(5.61196 -0.48871 0.00425328)
(5.6787 -0.493323 0.0033811)
(5.79961 -0.496125 0.00408312)
(5.86266 -0.49872 0.00334906)
(5.96298 -0.500438 0.00393701)
(6.02178 -0.502114 0.00332384)
(6.10675 -0.503727 0.00381289)
(6.15939 -0.505187 0.00329367)
(6.23082 -0.507689 0.00368914)
(6.27156 -0.507903 0.00324753)
(6.32997 -0.514391 0.00357009)
(6.34879 -0.508565 0.00320404)
(6.40855 -0.528666 0.00346945)
(6.36681 -0.544976 0.00317365)
(4.60387 0.202602 0.00506585)
(4.74232 0.370043 0.00370108)
(5.06182 0.426855 0.00470841)
(5.17585 0.457707 0.00346576)
(5.38414 0.472912 0.00445322)
(5.46112 0.483143 0.00341277)
(5.61195 0.488712 0.00425328)
(5.6787 0.493327 0.00338109)
(5.7996 0.49613 0.00408312)
(5.86266 0.49873 0.00334906)
(5.96297 0.500452 0.00393701)
(6.02179 0.502145 0.00332382)
(6.10672 0.503758 0.00381289)
(6.15941 0.505286 0.00329359)
(6.23074 0.507778 0.00368913)
(6.27163 0.508192 0.00324723)
(6.32973 0.514691 0.00357009)
(6.34914 0.509384 0.00320313)
(6.40839 0.529513 0.00346972)
(6.36715 0.547321 0.00317179)
(4.60729 -0.258398 0.00521324)
(4.754 -0.44832 0.00383339)
(5.0733 -0.496908 0.00484536)
(5.18717 -0.512786 0.0036034)
(5.39437 -0.51872 0.00459207)
(5.4708 -0.522057 0.0035517)
(5.62071 -0.523341 0.0043924)
(5.68636 -0.524698 0.0035205)
(5.80551 -0.524941 0.00422295)
(5.86641 -0.525623 0.00348928)
(5.96381 -0.525522 0.00407757)
(6.01937 -0.525883 0.0034646)
(6.10024 -0.52564 0.00395388)
(6.14904 -0.525594 0.00343487)
(6.21532 -0.525595 0.0038308)
(6.25322 -0.524311 0.00338941)
(6.3039 -0.527118 0.00371322)
(6.32667 -0.52219 0.00334601)
(6.36994 -0.531617 0.00362233)
(6.3538 -0.557954 0.0033158)
(4.60168 0.154528 0.00494636)
(4.75173 0.301535 0.00353482)
(5.08034 0.368082 0.00456237)
(5.19797 0.414191 0.00331916)
(5.40729 0.43875 0.00431033)
(5.48375 0.45582 0.0032705)
(5.63157 0.465752 0.00411116)
(5.69343 0.473743 0.00323916)
(5.80713 0.479278 0.00394112)
(5.86132 0.483967 0.00320719)
(5.95074 0.487677 0.00379494)
(5.99756 0.490852 0.00318155)
(6.06867 0.494387 0.00367029)
(6.10774 0.497537 0.00315087)
(6.1639 0.502292 0.00354641)
(6.19119 0.504533 0.00310466)
(6.23494 0.513452 0.00342644)
(6.24023 0.508697 0.00305979)
(6.28958 0.53412 0.00331505)
(6.22117 0.543068 0.003024)
(4.61232 -0.325752 0.00540626)
(4.78968 -0.541409 0.00394376)
(5.11782 -0.580493 0.00498507)
(5.23291 -0.580162 0.00374144)
(5.43436 -0.576122 0.0047348)
(5.50189 -0.571854 0.00369413)
(5.63794 -0.568097 0.0045346)
(5.68621 -0.565452 0.00366296)
(5.78434 -0.562444 0.00436609)
(5.82187 -0.560567 0.00363324)
(5.8937 -0.558094 0.00422196)
(5.92293 -0.556617 0.00360888)
(5.9759 -0.554199 0.00409794)
(5.99851 -0.552391 0.00357885)
(6.03649 -0.549845 0.00397521)
(6.05271 -0.547137 0.00353398)
(6.0742 -0.545985 0.00385831)
(6.09027 -0.542607 0.00348895)
(6.09309 -0.537562 0.0037736)
(6.11046 -0.572943 0.00345445)
(4.59948 0.110387 0.00484406)
(4.79007 0.238068 0.00332424)
(5.13881 0.319418 0.00440016)
(5.25223 0.383244 0.00315922)
(5.43926 0.418814 0.00415962)
(5.48351 0.443984 0.00312121)
(5.59149 0.45965 0.00396236)
(5.60883 0.472136 0.0030912)
(5.67602 0.481351 0.00379443)
(5.68241 0.488821 0.00306175)
(5.72493 0.494969 0.00364998)
(5.72604 0.49995 0.00303616)
(5.75306 0.505298 0.00352421)
(5.75168 0.509989 0.00300435)
(5.7686 0.51606 0.00339988)
(5.76384 0.520085 0.00295833)
(5.77589 0.5286 0.00327869)
(5.7606 0.526313 0.0029114)
(5.78705 0.549035 0.00315646)
(5.69024 0.551783 0.00286525)
(4.62298 -0.410138 0.00565835)
(4.87457 -0.656838 0.00403277)
(5.19818 -0.678911 0.00512919)
(5.25927 -0.65528 0.00388311)
(5.38037 -0.63647 0.00488364)
(5.35942 -0.621508 0.00384171)
(5.4073 -0.610502 0.00468142)
(5.3687 -0.602618 0.00381025)
(5.38737 -0.595742 0.00451543)
(5.34944 -0.591198 0.00378391)
(5.3544 -0.586623 0.00437326)
(5.32173 -0.583698 0.00375899)
(5.3198 -0.579898 0.00424665)
(5.29397 -0.577115 0.00372604)
(5.28842 -0.57328 0.00412144)
(5.27248 -0.570163 0.0036796)
(5.26105 -0.566315 0.00400275)
(5.27097 -0.565706 0.00363128)
(5.23222 -0.544887 0.00392042)
(5.31356 -0.584636 0.00358901)
(4.63844 0.062064 0.00475666)
(4.89516 0.175618 0.00306337)
(5.1413 0.293267 0.00422389)
(5.07926 0.387202 0.00299171)
(5.08284 0.439383 0.00400547)
(4.95779 0.473736 0.00296865)
(4.92534 0.494689 0.00381097)
(4.81859 0.509922 0.00294105)
(4.78753 0.520654 0.00364675)
(4.7063 0.52856 0.00291495)
(4.68001 0.534725 0.00350327)
(4.61932 0.539342 0.00288761)
(4.59713 0.544008 0.00337312)
(4.55355 0.547999 0.00285116)
(4.53743 0.552276 0.00324508)
(4.50952 0.555868 0.00280389)
(4.50456 0.55906 0.0031231)
(4.48321 0.56062 0.00275704)
(4.50564 0.570731 0.00299682)
(4.37859 0.570737 0.00269652)
(4.77537 -0.53074 0.00603292)
(4.89033 -0.779684 0.0041278)
(4.80494 -0.74409 0.00529996)
(4.47992 -0.683261 0.00405248)
(4.3147 -0.65023 0.00505977)
(4.08039 -0.631244 0.0040167)
(3.9896 -0.620212 0.00485697)
(3.83986 -0.613999 0.00398537)
(3.78835 -0.609265 0.00469092)
(3.68834 -0.606803 0.00395812)
(3.65475 -0.604136 0.0045457)
(3.58547 -0.602761 0.00392844)
(3.56131 -0.600487 0.00441198)
(3.51574 -0.599033 0.00388893)
(3.50112 -0.596331 0.00428283)
(3.4793 -0.594616 0.0038424)
(3.47048 -0.589633 0.00416638)
(3.48639 -0.593885 0.00379649)
(3.4376 -0.556786 0.00408699)
(3.63063 -0.590005 0.00374651)
(4.79425 -0.000739964 0.00484754)
(4.17517 0.218022 0.00290125)
(3.6286 0.41309 0.00415988)
(3.11068 0.515803 0.00293199)
(2.89753 0.555162 0.00394972)
(2.65681 0.573271 0.00291075)
(2.58543 0.581691 0.00375175)
(2.44959 0.58734 0.00287839)
(2.4198 0.590679 0.00358145)
(2.33336 0.593182 0.00284756)
(2.31763 0.594662 0.00343299)
(2.26004 0.595835 0.00281577)
(2.25042 0.596523 0.00329876)
(2.21454 0.597215 0.00277787)
(2.21185 0.59739 0.00317285)
(2.19364 0.598908 0.00273496)
(2.20145 0.595211 0.00305652)
(2.1872 0.603372 0.00269226)
(2.2289 0.586726 0.00293704)
(2.02461 0.591653 0.00261904)
(3.72029 -0.563936 0.0071554)
(2.06871 -0.630925 0.00489529)
(1.40086 -0.606414 0.00613291)
(1.08867 -0.603028 0.00489453)
(1.02883 -0.611351 0.00590625)
(0.915629 -0.617229 0.00486235)
(0.908171 -0.620314 0.00569897)
(0.838263 -0.622067 0.0048242)
(0.83951 -0.622968 0.0055254)
(0.792816 -0.623545 0.00479253)
(0.795037 -0.623671 0.00537745)
(0.762849 -0.623766 0.00476185)
(0.764016 -0.623451 0.00524478)
(0.742435 -0.623344 0.00472523)
(0.743766 -0.622707 0.00512037)
(0.730708 -0.623226 0.0046831)
(0.734734 -0.618576 0.00500712)
(0.729704 -0.62871 0.00463952)
(0.719523 -0.563317 0.00492037)
(1.02764 -0.584106 0.00457306)
(4.00764 0.159119 0.0015317)
(2.99928 0.123037 0.00178069)
(2.15338 0.0745396 0.00126548)
(1.7067 0.0397197 0.00162542)
(1.47823 0.0265915 0.00130903)
(1.39581 0.0266694 0.00151735)
(1.34414 0.031213 0.00129749)
(1.32428 0.036503 0.00142282)
(1.30061 0.0406534 0.0012876)
(1.28835 0.0439196 0.00135733)
(1.27333 0.0462638 0.00128311)
(1.26545 0.0482158 0.00131242)
(1.25933 0.0495261 0.00128007)
(1.26078 0.0506832 0.00127894)
(1.26375 0.0510199 0.0012761)
(1.27568 0.0521322 0.00125368)
(1.28105 0.0512256 0.00127501)
(1.30355 0.0543026 0.00123593)
(1.29134 0.0478683 0.00127467)
(1.36482 0.055976 0.00125028)
(4.62489 0.179232 0.003349)
(4.64578 0.194079 0.00370321)
(4.38486 0.14792 0.00316379)
(4.1129 0.0806891 0.00350698)
(3.86104 0.0322755 0.00318203)
(3.67983 0.00318908 0.00338968)
(3.52797 -0.0123433 0.0031721)
(3.41692 -0.0219262 0.0033013)
(3.32085 -0.0276475 0.00316828)
(3.24665 -0.0320631 0.00323977)
(3.18229 -0.0353156 0.00316528)
(3.13415 -0.0385536 0.00319387)
(3.09886 -0.0415469 0.00315994)
(3.08168 -0.0441086 0.00315687)
(3.07312 -0.0462976 0.00315297)
(3.08272 -0.0477336 0.00312791)
(3.08619 -0.0487071 0.00315203)
(3.11345 -0.0486331 0.00310592)
(3.10681 -0.0513005 0.00317396)
(3.16023 -0.0423284 0.003139)
(4.56716 0.12457 0.00179235)
(4.81747 0.173848 0.00205717)
(4.93388 0.173516 0.00153138)
(4.974 0.138047 0.00187639)
(4.93675 0.109251 0.00156024)
(4.88935 0.093238 0.00177055)
(4.82431 0.0856623 0.00155489)
(4.76594 0.0818773 0.00168299)
(4.70293 0.0794409 0.0015509)
(4.64629 0.0774787 0.00162199)
(4.58993 0.0751739 0.00154913)
(4.54124 0.0723863 0.00157858)
(4.49779 0.0684073 0.001546)
(4.46838 0.0653065 0.00154313)
(4.44378 0.0610831 0.00153864)
(4.44209 0.0604978 0.0015141)
(4.42947 0.0563655 0.00153318)
(4.45836 0.0617126 0.00149576)
(4.43167 0.0502367 0.00151688)
(4.50221 0.0737576 0.00151006)
(4.54907 0.121294 0.00309117)
(4.75226 0.14096 0.00347693)
(4.9319 0.128767 0.00295868)
(5.07924 0.0882841 0.00329548)
(5.15721 0.0537171 0.00296668)
(5.21615 0.0301168 0.00317246)
(5.24764 0.0160376 0.00295325)
(5.27552 0.00671082 0.00308181)
(5.28964 0.000227624 0.0029498)
(5.30053 -0.00511152 0.00302255)
(5.30299 -0.0101634 0.00295025)
(5.30362 -0.0154841 0.00298172)
(5.29992 -0.0220981 0.00295068)
(5.29787 -0.0277372 0.00294945)
(5.29282 -0.0348378 0.00294495)
(5.29608 -0.0380315 0.0029188)
(5.29198 -0.0443113 0.00293923)
(5.30966 -0.0414705 0.00289463)
(5.29862 -0.0513842 0.00296059)
(5.33579 -0.0327223 0.00292778)
(4.55203 0.0841668 0.00198546)
(4.73937 0.120447 0.00229562)
(4.90604 0.128792 0.00177459)
(5.06212 0.111021 0.00210237)
(5.16366 0.0962449 0.00177765)
(5.25398 0.0885684 0.00198625)
(5.32107 0.0860256 0.00176943)
(5.38822 0.0857391 0.00189682)
(5.44395 0.0859167 0.00176412)
(5.49773 0.0860143 0.00183487)
(5.54298 0.0850961 0.00176232)
(5.58454 0.0833671 0.00179303)
(5.61919 0.0795588 0.0017626)
(5.64958 0.0765551 0.00176191)
(5.67363 0.0710605 0.00175825)
(5.69511 0.0701979 0.00173366)
(5.71103 0.0634533 0.001751)
(5.73114 0.0701344 0.00171481)
(5.74358 0.05542 0.00173074)
(5.76193 0.0834939 0.00173377)
(4.54746 0.0795846 0.00286511)
(4.71375 0.0903898 0.00325984)
(4.87621 0.0824887 0.0027522)
(5.03006 0.0538629 0.00308537)
(5.13528 0.0294648 0.00275692)
(5.23319 0.012311 0.00296558)
(5.31062 0.00183025 0.00274774)
(5.39047 -0.00491143 0.00287606)
(5.46131 -0.00945122 0.00274293)
(5.53202 -0.0128712 0.00281447)
(5.59636 -0.0162759 0.00274183)
(5.65715 -0.0197142 0.00277349)
(5.71283 -0.024674 0.00274349)
(5.76106 -0.0285513 0.00274367)
(5.80618 -0.0345623 0.0027406)
(5.83929 -0.0365904 0.00271599)
(5.87662 -0.043005 0.00273694)
(5.89616 -0.0395252 0.00269626)
(5.9378 -0.0492432 0.00275909)
(5.93524 -0.0332591 0.00272764)
(4.548 0.0498536 0.00215838)
(4.70961 0.0757063 0.0025054)
(4.86609 0.0854872 0.00199344)
(5.01704 0.0780144 0.00231479)
(5.12155 0.0718312 0.0019855)
(5.21976 0.069364 0.00219343)
(5.29812 0.06967 0.00197579)
(5.37987 0.0711059 0.00210241)
(5.4539 0.0726041 0.00196803)
(5.52918 0.0738935 0.00203765)
(5.5997 0.0743054 0.0019646)
(5.6674 0.074105 0.00199551)
(5.73154 0.0722783 0.00196531)
(5.78766 0.0710436 0.00196457)
(5.84269 0.0677283 0.00196077)
(5.88315 0.0679178 0.00193639)
(5.93149 0.0630587 0.00195445)
(5.95515 0.0689726 0.00192035)
(6.01197 0.0579556 0.00194096)
(6.00778 0.0800955 0.00194567)
(4.54535 0.0440465 0.00266813)
(4.69527 0.046164 0.00306246)
(4.85029 0.0392274 0.00255904)
(4.99988 0.0201676 0.0028873)
(5.10496 0.00379504 0.00255801)
(5.20419 -0.00833541 0.00276756)
(5.2838 -0.0162974 0.00255036)
(5.3667 -0.0216613 0.00267851)
(5.44214 -0.0253899 0.00254467)
(5.51895 -0.0280915 0.00261541)
(5.59182 -0.0306038 0.00254279)
(5.66194 -0.0328639 0.0025746)
(5.72983 -0.0360316 0.00254484)
(5.78884 -0.0383431 0.00254452)
(5.84913 -0.0420888 0.00254095)
(5.89195 -0.0432248 0.0025164)
(5.9478 -0.0472372 0.00253735)
(5.97119 -0.0452242 0.00250074)
(6.03968 -0.0503556 0.00255639)
(6.03094 -0.0429 0.00253095)
(4.54554 0.0184777 0.00232443)
(4.69319 0.0346085 0.00269688)
(4.84557 0.0437802 0.00219116)
(4.99395 0.0454065 0.00251195)
(5.09863 0.0468884 0.00218116)
(5.19755 0.0492718 0.00238934)
(5.27676 0.0521291 0.00217154)
(5.35927 0.0548766 0.00229834)
(5.43444 0.0571634 0.00216359)
(5.51117 0.0589855 0.00223315)
(5.58434 0.06018 0.0021601)
(5.655 0.0609046 0.00219131)
(5.72398 0.0608193 0.00216119)
(5.78413 0.0608878 0.00216017)
(5.84617 0.0599491 0.0021558)
(5.89051 0.060649 0.00213113)
(5.94881 0.058656 0.00214981)
(5.97365 0.0623851 0.0021167)
(6.04629 0.0567278 0.00214709)
(6.03934 0.0698677 0.00214494)
(4.54469 0.0121158 0.0024909)
(4.68858 0.005271 0.00287777)
(4.84047 -0.00253136 0.00237488)
(4.98839 -0.0127991 0.00269871)
(5.09324 -0.0216725 0.0023684)
(5.19242 -0.0289107 0.00257747)
(5.2719 -0.0343378 0.00236004)
(5.35458 -0.0383984 0.00248757)
(5.42988 -0.0414238 0.00235321)
(5.50664 -0.0436753 0.00242333)
(5.57998 -0.0455286 0.00235057)