/*--------------------------------*- C++ -*----------------------------------*\
  =========                 |
  \\      /  F ield         | OpenFOAM: The Open Source CFD Toolbox
   \\    /   O peration     | Website:  https://openfoam.org
    \\  /    A nd           | Version:  7
     \\/     M anipulation  |
\*---------------------------------------------------------------------------*/
FoamFile
{
    version     2.0;
    format      ascii;
    class       volScalarField;
    location    "0.0475";
    object      k_0;
}
// * * * * * * * * * * * * * * * * * * * * * * * * * * * * * * * * * * * * * //

dimensions      [0 2 -2 0 0 0 0];

internalField   nonuniform List<scalar> 
1440
(
0.0244237
0.132061
0.337021
0.581601
0.82201
1.02825
1.18593
1.29351
1.35659
1.38425
1.38095
1.36694
1.33703
1.29814
1.2556
1.21167
1.16809
1.12613
1.0863
1.0489
1.01423
0.98236
0.953069
0.926222
0.901771
0.879575
0.859402
0.841061
0.824429
0.809397
0.795838
0.783625
0.772661
0.762889
0.754267
0.746741
0.74022
0.734579
0.72969
0.725438
0.721716
0.718425
0.715485
0.712843
0.710465
0.708339
0.706465
0.704859
0.703545
0.702544
0.701862
0.701484
0.70136
0.7014
0.701574
0.70175
0.701856
0.701865
0.701743
0.701459
0.701097
0.700687
0.700269
0.699877
0.699536
0.699256
0.699036
0.698867
0.698738
0.698637
0.698555
0.698483
0.698416
0.698351
0.698287
0.698222
0.698156
0.698089
0.698022
0.697954
0.697884
0.697815
0.697744
0.697672
0.6976
0.697527
0.697453
0.697378
0.697303
0.697227
0.69715
0.697073
0.696995
0.696916
0.696836
0.696757
0.696676
0.696595
0.696513
0.696431
0.696348
0.696265
0.696181
0.696097
0.696012
0.695927
0.695841
0.695755
0.695669
0.695582
0.695495
0.695407
0.695321
0.695231
0.695149
0.695052
0.69498
0.694872
0.694815
0.694685
8.10593e-05
0.00135793
0.00661691
0.0191675
0.0445435
0.0815958
0.125831
0.172931
0.217954
0.258987
0.293655
0.322325
0.345061
0.362278
0.374729
0.383367
0.389164
0.392786
0.394797
0.395751
0.395678
0.395338
0.394595
0.393609
0.392559
0.391522
0.39053
0.389578
0.388639
0.387697
0.386752
0.385802
0.384859
0.38392
0.382914
0.381751
0.3804
0.378899
0.37732
0.375736
0.374186
0.372665
0.371171
0.36975
0.368482
0.36743
0.36661
0.365983
0.365455
0.364906
0.364255
0.363522
0.362817
0.362278
0.361982
0.361901
0.361918
0.36206
0.362428
0.362743
0.362941
0.363015
0.36301
0.362902
0.362603
0.362297
0.362024
0.361798
0.361629
0.361518
0.361458
0.361438
0.361438
0.361462
0.361521
0.361581
0.361643
0.361707
0.361773
0.36184
0.361906
0.361974
0.362041
0.362108
0.362175
0.362243
0.36231
0.362378
0.362446
0.362513
0.362581
0.362649
0.362716
0.362784
0.362851
0.362919
0.362986
0.363054
0.363121
0.36319
0.363256
0.363325
0.363391
0.363461
0.363526
0.363596
0.363661
0.363732
0.363795
0.363867
0.363928
0.364003
0.364061
0.364139
0.364193
0.364274
0.364322
0.364406
0.364448
0.364547
2.00658e-05
2.41125e-05
5.604e-05
0.000186657
0.000579517
0.00147332
0.00328665
0.00621008
0.01024
0.0152556
0.020943
0.0270959
0.0335229
0.0398526
0.0458926
0.051585
0.056754
0.0613837
0.0655062
0.0691251
0.0723061
0.0751381
0.0775785
0.0796423
0.0813752
0.0828042
0.0840618
0.0852378
0.086227
0.0870119
0.0877437
0.0884222
0.0889275
0.0893074
0.0896785
0.0900025
0.090182
0.09023
0.0902296
0.09021
0.0901461
0.0899764
0.0897583
0.0895172
0.0892408
0.0889145
0.0885325
0.0881055
0.0876502
0.0871651
0.0866181
0.0859647
0.0851802
0.0842788
0.0833136
0.0823661
0.081529
0.0808731
0.0804167
0.0801252
0.0799319
0.0797578
0.0795336
0.0792182
0.07881
0.0783374
0.0778416
0.0773643
0.0769381
0.0765839
0.0763104
0.0761177
0.0759988
0.0759397
0.0759201
0.0759179
0.0759205
0.0759331
0.0759713
0.076028
0.0760813
0.0761393
0.0761924
0.0762503
0.0763041
0.0763621
0.0764163
0.0764752
0.0765295
0.0765892
0.0766437
0.0767045
0.0767586
0.0768208
0.0768749
0.0769375
0.076992
0.0770555
0.0771096
0.0771744
0.0772282
0.077294
0.0773471
0.0774147
0.0774669
0.0775357
0.0775873
0.0776577
0.0777081
0.0777802
0.0778294
0.0779035
0.0779507
0.0780272
0.0780724
0.078151
0.0781938
0.0782742
0.0783145
0.078413
2.00046e-05
2.00395e-05
2.0218e-05
2.106e-05
2.42909e-05
3.40427e-05
5.89e-05
0.000111942
0.000216604
0.000407553
0.000638153
0.000958812
0.00142493
0.00195438
0.00251522
0.00312676
0.00380225
0.00456649
0.00530861
0.00594206
0.00656568
0.00729537
0.00808469
0.0087521
0.00929573
0.00977188
0.0102566
0.010826
0.0113785
0.0117799
0.0120783
0.0123922
0.0127569
0.0131315
0.0134348
0.013606
0.0136871
0.0137825
0.0139256
0.0140481
0.0140946
0.0140955
0.0140839
0.0140506
0.0139679
0.0138321
0.0136752
0.0135052
0.0133285
0.0131442
0.0129411
0.0127004
0.0124034
0.0120405
0.0116198
0.0111677
0.0107229
0.0103235
0.00999334
0.00973344
0.00952251
0.00932535
0.00910553
0.00883712
0.00851109
0.00813546
0.0077308
0.00732349
0.0069392
0.00659804
0.00631203
0.00608487
0.00591317
0.00578917
0.00570328
0.00564667
0.00561197
0.00559324
0.00558512
0.00558283
0.00558266
0.00558357
0.00558746
0.00559849
0.0056078
0.00561903
0.00562735
0.00563856
0.00564675
0.005658
0.00566612
0.00567789
0.00568572
0.00569773
0.00570589
0.00571773
0.00572597
0.00573825
0.00574627
0.00575866
0.00576688
0.00577949
0.0057874
0.0058004
0.00580841
0.00582137
0.00582937
0.00584269
0.00585059
0.00586394
0.00587189
0.00588554
0.00589328
0.00590707
0.00591478
0.00592877
0.00593623
0.00595036
0.00595751
0.00597501
1.9995e-05
2.00083e-05
2.00586e-05
2.01842e-05
2.03736e-05
2.07187e-05
2.13369e-05
2.21928e-05
2.37297e-05
2.7149e-05
3.21938e-05
3.79861e-05
4.92084e-05
6.88363e-05
8.84644e-05
0.000106005
0.000131674
0.00017524
0.000222287
0.000253659
0.000277909
0.000322549
0.000394834
0.000463089
0.00050468
0.000530353
0.000570197
0.000638762
0.00071399
0.000765956
0.000793393
0.000820352
0.000867868
0.00093413
0.00099807
0.00104005
0.00105838
0.00106709
0.00108206
0.00111592
0.00115312
0.00117982
0.00119148
0.00119322
0.0011922
0.00118798
0.00117499
0.00115642
0.00114043
0.00112668
0.00111164
0.00109049
0.0010591
0.00101546
0.000960493
0.000898149
0.00083447
0.000775777
0.000726549
0.000687937
0.000657531
0.000630527
0.000601635
0.000566929
0.000524905
0.000476537
0.000424556
0.000372406
0.000323307
0.000279653
0.000242776
0.000213032
0.000190014
0.000172872
0.000160557
0.00015202
0.000146318
0.000142659
0.000140417
0.000139135
0.000138484
0.000138233
0.000138186
0.000138208
0.000138336
0.000138791
0.000139167
0.000139705
0.000140037
0.00014056
0.00014088
0.00014143
0.000141733
0.00014229
0.00014262
0.000143161
0.000143494
0.000144064
0.000144384
0.000144953
0.000145291
0.00014587
0.00014619
0.000146787
0.00014712
0.000147708
0.000148042
0.00014865
0.000148984
0.000149587
0.000149927
0.000150546
0.000150878
0.000151498
0.000151835
0.000152463
0.000152791
0.000153421
0.000153737
0.000154514
1.99864e-05
1.99944e-05
2.00348e-05
2.01326e-05
2.0301e-05
2.06317e-05
2.09805e-05
2.13004e-05
2.18362e-05
2.2566e-05
2.30875e-05
2.34549e-05
2.41864e-05
2.52491e-05
2.60476e-05
2.64851e-05
2.70841e-05
2.84653e-05
3.00669e-05
3.10804e-05
3.16249e-05
3.23774e-05
3.42528e-05
3.68309e-05
3.85717e-05
3.94224e-05
4.0148e-05
4.1719e-05
4.4745e-05
4.73365e-05
4.87841e-05
4.95275e-05
5.05648e-05
5.30272e-05
5.62742e-05
5.88162e-05
6.01863e-05
6.07233e-05
6.11255e-05
6.19821e-05
6.40521e-05
6.60644e-05
6.73221e-05
6.78111e-05
6.78725e-05
6.78181e-05
6.75803e-05
6.68849e-05
6.60701e-05
6.5436e-05
6.49431e-05
6.43194e-05
6.3228e-05
6.14598e-05
5.89918e-05
5.59723e-05
5.26984e-05
4.95456e-05
4.68512e-05
4.48164e-05
4.34599e-05
4.26279e-05
4.20694e-05
4.15551e-05
4.09809e-05
4.03846e-05
3.98492e-05
3.93382e-05
3.85684e-05
3.70017e-05
3.28601e-05
2.67039e-05
2.0794e-05
1.56674e-05
1.15357e-05
8.3929e-06
6.11388e-06
4.52834e-06
3.46487e-06
2.77563e-06
2.34195e-06
2.07764e-06
1.9212e-06
1.83305e-06
1.78664e-06
1.76541e-06
1.75747e-06
1.75593e-06
1.75605e-06
1.75811e-06
1.76284e-06
1.77281e-06
1.778e-06
1.78756e-06
1.79291e-06
1.80204e-06
1.80724e-06
1.81685e-06
1.82187e-06
1.83138e-06
1.8367e-06
1.84642e-06
1.85141e-06
1.8614e-06
1.8667e-06
1.8765e-06
1.88181e-06
1.89199e-06
1.89733e-06
1.9074e-06
1.91287e-06
1.92323e-06
1.92861e-06
1.93899e-06
1.94449e-06
1.955e-06
1.96041e-06
1.97093e-06
1.97624e-06
1.98932e-06
1.99863e-05
1.99942e-05
2.00345e-05
2.01321e-05
2.03007e-05
2.06321e-05
2.09796e-05
2.12999e-05
2.18405e-05
2.2569e-05
2.30745e-05
2.34499e-05
2.42067e-05
2.52444e-05
2.59971e-05
2.64102e-05
2.7019e-05
2.83862e-05
2.98909e-05
3.08193e-05
3.13109e-05
3.20016e-05
3.37278e-05
3.60376e-05
3.75421e-05
3.82234e-05
3.87807e-05
3.99894e-05
4.24775e-05
4.45829e-05
4.57155e-05
4.62249e-05
4.68428e-05
4.83695e-05
5.06087e-05
5.2305e-05
5.3161e-05
5.34407e-05
5.35875e-05
5.38976e-05
5.48596e-05
5.58856e-05
5.63991e-05
5.65278e-05
5.65169e-05
5.64033e-05
5.59597e-05
5.47947e-05
5.36458e-05
5.27849e-05
5.22592e-05
5.19141e-05
5.13858e-05
5.02466e-05
4.85608e-05
4.65104e-05
4.42479e-05
4.19605e-05
3.98604e-05
3.81291e-05
3.69108e-05
3.62151e-05
3.58971e-05
3.57525e-05
3.56214e-05
3.5442e-05
3.52257e-05
3.4964e-05
3.45284e-05
3.36349e-05
3.1305e-05
2.55853e-05
1.96707e-05
1.4577e-05
1.04973e-05
7.40649e-06
5.17029e-06
3.61617e-06
2.57427e-06
1.89874e-06
1.47367e-06
1.21416e-06
1.05989e-06
9.71581e-07
9.22966e-07
8.98135e-07
8.86483e-07
8.82205e-07
8.81182e-07
8.8124e-07
8.81926e-07
8.8505e-07
8.87795e-07
8.92498e-07
8.94913e-07
8.99366e-07
9.01647e-07
9.06219e-07
9.08524e-07
9.13103e-07
9.15447e-07
9.20133e-07
9.22499e-07
9.27244e-07
9.29652e-07
9.34474e-07
9.36913e-07
9.4181e-07
9.44287e-07
9.4925e-07
9.5176e-07
9.56796e-07
9.59339e-07
9.64432e-07
9.67008e-07
9.72176e-07
9.74787e-07
9.80013e-07
9.82651e-07
9.89265e-07
1.99947e-05
2.00077e-05
2.00574e-05
2.01797e-05
2.0366e-05
2.07284e-05
2.1329e-05
2.21569e-05
2.36829e-05
2.71568e-05
3.17753e-05
3.74852e-05
4.898e-05
6.77773e-05
8.66197e-05
0.000103137
0.000128899
0.000170753
0.000215364
0.000244831
0.000268451
0.000310921
0.000376893
0.000441717
0.000480516
0.00050106
0.00053478
0.000597856
0.000665791
0.000711822
0.000734248
0.000754571
0.000792609
0.000846607
0.000897968
0.000930983
0.000944966
0.000950293
0.000957759
0.000978318
0.00100536
0.00102201
0.00102743
0.00102754
0.00102579
0.00101958
0.00100127
0.000976039
0.00095292
0.000935762
0.000924758
0.000912042
0.000884305
0.000839703
0.000790295
0.000740513
0.000691753
0.000644647
0.000600823
0.000562824
0.00053218
0.000507151
0.000482172
0.000452195
0.000415283
0.000372371
0.000326227
0.000280222
0.000237396
0.000199961
0.000169151
0.000145233
0.000127578
0.000114949
0.000106139
0.000100165
9.62364e-05
9.37449e-05
9.22381e-05
9.13973e-05
9.09935e-05
9.08596e-05
9.08441e-05
9.0874e-05
9.09936e-05
9.13416e-05
9.15808e-05
9.19388e-05
9.21595e-05
9.2502e-05
9.27166e-05
9.30802e-05
9.32727e-05
9.36525e-05
9.38579e-05
9.42273e-05
9.44381e-05
9.48275e-05
9.50311e-05
9.5419e-05
9.56398e-05
9.60342e-05
9.62411e-05
9.66518e-05
9.68676e-05
9.72737e-05
9.74881e-05
9.79106e-05
9.8126e-05
9.85449e-05
9.8764e-05
9.91945e-05
9.9412e-05
9.9843e-05
0.000100064
0.000100503
0.000100723
0.000101164
0.000101385
0.000101939
2.00043e-05
2.00383e-05
2.02133e-05
2.1039e-05
2.42144e-05
3.38127e-05
5.82497e-05
0.000110575
0.000214209
0.000405417
0.000621087
0.000946133
0.00140958
0.00192368
0.00247864
0.00307478
0.00374545
0.00448754
0.00521419
0.00583048
0.00644237
0.00715011
0.00789176
0.00855624
0.00907057
0.00949219
0.00996454
0.0105111
0.0110163
0.0113951
0.011669
0.011925
0.0122388
0.0125843
0.0128455
0.0129618
0.0130093
0.0130909
0.013201
0.0132678
0.0132783
0.0132726
0.0132526
0.0132085
0.0131103
0.0129523
0.012756
0.0125539
0.0123797
0.0122348
0.0120774
0.0118514
0.0115309
0.0111392
0.0107253
0.0103237
0.00994831
0.00960363
0.00929441
0.00902802
0.00880416
0.00859935
0.00837148
0.00809003
0.00774537
0.00734814
0.00692306
0.0065003
0.00610772
0.00576563
0.00548466
0.00526632
0.00510503
0.00499147
0.00491526
0.00486717
0.00483943
0.00482569
0.0048205
0.00481945
0.00481961
0.00482163
0.00482811
0.00483958
0.00484779
0.00485816
0.00486581
0.00487595
0.00488359
0.00489364
0.00490127
0.00491182
0.00491896
0.00493001
0.0049373
0.00494817
0.00495567
0.00496688
0.00497421
0.00498548
0.00499313
0.0050045
0.00501183
0.00502369
0.00503103
0.00504285
0.00505017
0.00506237
0.00506958
0.00508174
0.00508907
0.00510146
0.00510859
0.0051211
0.00512822
0.00514093
0.00514777
0.00516064
0.00516716
0.0051831
2.00642e-05
2.40163e-05
5.53731e-05
0.000184209
0.000572878
0.00145818
0.00324713
0.00616111
0.0101596
0.0151403
0.0207422
0.0268838
0.0332725
0.0395515
0.0455671
0.0512271
0.0563309
0.0609432
0.0650356
0.068619
0.071776
0.0745721
0.0769847
0.0790334
0.0807204
0.0821063
0.0833724
0.0845316
0.0854527
0.0862067
0.08692
0.0875144
0.0879334
0.0882866
0.0886134
0.0888292
0.0889071
0.0889148
0.0889025
0.0888553
0.088721
0.0885203
0.0882908
0.0880273
0.087722
0.0873753
0.087001
0.0866177
0.0862266
0.0857907
0.0852472
0.0845568
0.0837453
0.0828826
0.0820201
0.0811761
0.0803851
0.0797083
0.0792058
0.0788901
0.0786907
0.0784996
0.0782416
0.0778784
0.0774145
0.0768854
0.0763389
0.0758218
0.0753695
0.0750026
0.0747282
0.0745432
0.0744362
0.0743883
0.0743755
0.074375
0.0743799
0.0743982
0.0744463
0.0745041
0.0745589
0.0746176
0.0746709
0.0747294
0.0747828
0.074841
0.0748947
0.0749535
0.0750075
0.0750669
0.0751214
0.0751816
0.0752356
0.0752977
0.0753512
0.075414
0.0754681
0.0755317
0.0755853
0.0756502
0.0757038
0.0757693
0.0758225
0.0758898
0.0759418
0.0760106
0.0760619
0.0761324
0.0761823
0.0762545
0.0763035
0.0763774
0.0764245
0.0765007
0.0765459
0.0766243
0.076667
0.0767473
0.0767877
0.0768863
8.00153e-05
0.0013397
0.00655236
0.0190261
0.0442915
0.0811705
0.125301
0.172172
0.217058
0.257949
0.292422
0.321152
0.343872
0.36113
0.373625
0.382423
0.388253
0.392051
0.394118
0.395325
0.395326
0.395103
0.394556
0.393718
0.392812
0.391907
0.391039
0.390207
0.389372
0.388506
0.387605
0.386681
0.385732
0.384744
0.383652
0.382425
0.381053
0.379572
0.378052
0.376562
0.375113
0.373684
0.372287
0.370995
0.369911
0.369091
0.3685
0.36804
0.367603
0.367105
0.366516
0.365877
0.365279
0.364823
0.364559
0.364472
0.364478
0.364581
0.364904
0.365216
0.365417
0.365498
0.365497
0.365399
0.365127
0.364857
0.364622
0.364435
0.364305
0.364231
0.364203
0.364201
0.364222
0.364284
0.364349
0.364416
0.364484
0.364553
0.364622
0.364692
0.364761
0.364831
0.3649
0.36497
0.36504
0.36511
0.36518
0.36525
0.36532
0.36539
0.36546
0.36553
0.3656
0.365671
0.365741
0.365811
0.365881
0.365952
0.366021
0.366093
0.366162
0.366233
0.366302
0.366374
0.366442
0.366515
0.366582
0.366656
0.366722
0.366798
0.366861
0.366939
0.366999
0.36708
0.367136
0.367221
0.367271
0.36736
0.367404
0.367509
0.024412
0.131924
0.336784
0.580895
0.820744
1.02585
1.18246
1.28835
1.35043
1.3758
1.37179
1.3567
1.32519
1.28543
1.24217
1.19776
1.15388
1.11163
1.07165
1.03429
0.9997
0.967892
0.938777
0.912233
0.888116
0.866245
0.846431
0.828514
0.81236
0.797848
0.784853
0.773261
0.762972
0.753899
0.745971
0.739078
0.73311
0.727947
0.723472
0.719578
0.716177
0.71318
0.710489
0.708036
0.705797
0.703772
0.701973
0.700424
0.699158
0.698201
0.697553
0.697186
0.697042
0.69704
0.697142
0.697295
0.697425
0.69749
0.69747
0.697307
0.697024
0.696682
0.696314
0.69596
0.695645
0.695384
0.695178
0.695019
0.694897
0.694801
0.694721
0.694651
0.694585
0.694522
0.69446
0.694399
0.694337
0.694275
0.694213
0.69415
0.694086
0.694022
0.693958
0.693892
0.693826
0.693759
0.693691
0.693623
0.693553
0.693484
0.693413
0.693342
0.69327
0.693197
0.693124
0.693051
0.692976
0.692901
0.692826
0.69275
0.692673
0.692596
0.692518
0.69244
0.692361
0.692283
0.692203
0.692124
0.692043
0.691963
0.691882
0.691801
0.69172
0.691637
0.69156
0.691471
0.691402
0.691303
0.69125
0.691128
)
;

boundaryField
{
    upperWall
    {
        type            fixedValue;
        value           uniform 0;
    }
    lowerWall
    {
        type            fixedValue;
        value           uniform 0;
    }
    inlet
    {
        type            fixedValue;
        value           uniform 2e-05;
    }
    outlet
    {
        type            inletOutlet;
        inletValue      uniform 0;
        value           nonuniform List<scalar> 
12
(
0.694685
0.364547
0.078413
0.00597501
0.000154514
1.98932e-06
9.89265e-07
0.000101939
0.0051831
0.0768863
0.367509
0.691128
)
;
    }
    frontAndBack
    {
        type            empty;
    }
}


// ************************************************************************* //
