/*--------------------------------*- C++ -*----------------------------------*\
  =========                 |
  \\      /  F ield         | OpenFOAM: The Open Source CFD Toolbox
   \\    /   O peration     | Website:  https://openfoam.org
    \\  /    A nd           | Version:  7
     \\/     M anipulation  |
\*---------------------------------------------------------------------------*/
FoamFile
{
    version     2.0;
    format      ascii;
    class       volScalarField;
    location    "1.65";
    object      pMean;
}
// * * * * * * * * * * * * * * * * * * * * * * * * * * * * * * * * * * * * * //

dimensions      [1 -1 -2 0 0 0 0];

internalField   nonuniform List<scalar> 
7920
(
103130
102814
103006
102902
102966
102925
102947
102928
102935
102924
102924
102917
102912
102906
102898
102893
102877
102871
102839
102832
102549
102229
102416
102310
102375
102333
102356
102337
102343
102333
102333
102326
102321
102316
102307
102302
102286
102281
102246
102241
102749
102421
102610
102501
102567
102524
102547
102528
102535
102524
102524
102517
102513
102507
102498
102493
102477
102472
102436
102433
102634
102306
102492
102384
102450
102408
102430
102411
102418
102408
102407
102400
102396
102390
102381
102376
102360
102355
102320
102316
102695
102371
102560
102450
102516
102473
102496
102477
102484
102473
102473
102466
102461
102456
102447
102442
102426
102421
102384
102382
102669
102344
102531
102422
102488
102446
102469
102450
102456
102446
102445
102438
102434
102428
102420
102415
102398
102394
102357
102355
102669
102344
102531
102422
102488
102446
102469
102450
102456
102446
102445
102438
102434
102428
102420
102415
102398
102394
102357
102355
102695
102371
102560
102450
102516
102473
102496
102477
102484
102473
102473
102466
102461
102456
102447
102442
102426
102421
102384
102382
102634
102306
102492
102384
102450
102408
102430
102411
102418
102408
102407
102400
102396
102390
102381
102376
102360
102355
102320
102316
102749
102421
102610
102501
102567
102524
102547
102528
102535
102524
102524
102517
102513
102507
102498
102493
102477
102472
102436
102433
102549
102229
102416
102310
102375
102333
102356
102337
102343
102333
102333
102326
102321
102316
102307
102302
102286
102281
102246
102241
103130
102814
103006
102902
102966
102925
102947
102928
102935
102924
102924
102917
102912
102906
102898
102893
102877
102871
102839
102832
102110
102321
102204
102233
102211
102210
102204
102199
102196
102191
102188
102184
102182
102179
102179
102175
102181
102176
102201
102189
102638
102896
102766
102799
102774
102774
102767
102762
102759
102755
102752
102748
102746
102742
102742
102738
102744
102739
102764
102751
102368
102581
102464
102490
102469
102467
102462
102456
102454
102449
102446
102442
102440
102436
102436
102432
102437
102432
102454
102442
102496
102752
102625
102661
102635
102635
102628
102623
102620
102615
102612
102608
102606
102602
102602
102599
102606
102601
102629
102615
102431
102665
102541
102570
102546
102544
102538
102533
102530
102525
102522
102518
102516
102512
102512
102508
102514
102509
102534
102521
102455
102700
102575
102608
102583
102582
102575
102570
102567
102562
102559
102555
102553
102549
102549
102545
102552
102547
102574
102561
102455
102700
102575
102608
102583
102582
102575
102570
102567
102562
102559
102555
102553
102549
102549
102545
102552
102547
102574
102561
102431
102665
102541
102570
102546
102544
102538
102533
102530
102525
102522
102518
102516
102512
102512
102508
102514
102509
102534
102521
102496
102752
102625
102661
102635
102635
102628
102623
102620
102615
102612
102608
102606
102602
102602
102599
102606
102601
102629
102615
102368
102581
102464
102490
102469
102467
102462
102456
102454
102449
102446
102442
102440
102436
102436
102432
102437
102432
102454
102442
102638
102896
102766
102799
102774
102774
102767
102762
102759
102755
102752
102748
102746
102742
102742
102738
102744
102739
102764
102751
102110
102321
102204
102233
102211
102210
102204
102199
102196
102191
102188
102184
102182
102179
102179
102175
102181
102176
102202
102189
102522
102553
102514
102548
102520
102537
102522
102529
102521
102522
102518
102517
102515
102513
102512
102510
102508
102506
102501
102499
102526
102560
102518
102553
102524
102541
102526
102533
102525
102526
102522
102521
102519
102517
102516
102514
102512
102510
102505
102503
102516
102544
102505
102539
102511
102529
102513
102520
102512
102514
102510
102509
102506
102505
102504
102501
102500
102497
102491
102490
102526
102560
102518
102553
102524
102541
102525
102532
102524
102526
102521
102521
102518
102517
102515
102513
102512
102509
102504
102502
102519
102549
102509
102543
102514
102532
102517
102524
102516
102517
102513
102512
102510
102508
102507
102505
102503
102501
102495
102494
102523
102556
102514
102549
102520
102537
102522
102528
102520
102522
102518
102517
102515
102513
102512
102510
102508
102506
102500
102498
102523
102556
102514
102549
102520
102537
102522
102528
102520
102522
102518
102517
102515
102513
102512
102510
102508
102506
102500
102498
102519
102549
102509
102543
102514
102532
102517
102524
102516
102517
102513
102512
102510
102508
102507
102505
102503
102501
102495
102494
102526
102560
102518
102553
102524
102541
102525
102532
102524
102526
102521
102521
102518
102517
102515
102513
102512
102509
102504
102502
102516
102544
102505
102539
102511
102529
102513
102520
102512
102514
102510
102509
102507
102505
102504
102501
102500
102498
102491
102490
102526
102560
102518
102553
102524
102541
102526
102533
102525
102526
102522
102521
102519
102517
102516
102514
102512
102510
102505
102503
102522
102553
102514
102548
102520
102537
102522
102529
102521
102522
102518
102517
102515
102513
102512
102510
102508
102506
102501
102499
102522
102553
102514
102548
102520
102537
102522
102529
102521
102522
102518
102517
102515
102513
102512
102510
102508
102506
102501
102499
102526
102560
102518
102553
102524
102541
102526
102533
102525
102526
102522
102521
102519
102517
102516
102514
102512
102510
102505
102503
102516
102544
102505
102539
102511
102529
102513
102520
102512
102514
102510
102509
102507
102505
102504
102501
102500
102497
102491
102490
102526
102560
102518
102553
102524
102541
102525
102532
102524
102526
102521
102521
102518
102517
102515
102513
102512
102509
102504
102502
102519
102549
102509
102543
102514
102532
102517
102524
102516
102517
102513
102512
102510
102508
102507
102505
102503
102501
102495
102494
102523
102556
102514
102549
102520
102537
102522
102528
102520
102522
102518
102517
102515
102513
102512
102510
102508
102506
102500
102498
102523
102556
102514
102549
102520
102537
102522
102528
102520
102522
102518
102517
102515
102513
102512
102510
102508
102506
102500
102498
102519
102549
102509
102543
102514
102532
102517
102524
102516
102517
102513
102512
102510
102508
102507
102505
102503
102501
102495
102494
102526
102560
102518
102553
102524
102541
102525
102532
102524
102526
102521
102521
102518
102517
102515
102513
102512
102509
102504
102502
102516
102544
102505
102539
102511
102529
102513
102520
102512
102514
102510
102509
102507
102505
102504
102501
102500
102498
102491
102490
102526
102560
102518
102553
102524
102541
102526
102533
102525
102526
102522
102521
102519
102517
102516
102514
102512
102510
102505
102503
102522
102553
102514
102548
102520
102537
102522
102529
102521
102522
102518
102517
102515
102513
102512
102510
102508
102506
102501
102499
102110
102321
102204
102233
102211
102210
102204
102199
102196
102191
102188
102184
102182
102179
102179
102175
102181
102176
102201
102189
102638
102896
102766
102799
102774
102774
102767
102762
102759
102755
102752
102748
102746
102742
102742
102738
102744
102739
102764
102751
102368
102581
102464
102490
102469
102467
102462
102456
102454
102449
102446
102442
102440
102436
102436
102432
102437
102432
102454
102442
102496
102752
102625
102661
102635
102635
102628
102623
102620
102615
102612
102608
102606
102602
102602
102599
102606
102601
102629
102615
102431
102665
102541
102570
102546
102544
102538
102533
102530
102525
102522
102518
102516
102512
102512
102508
102514
102509
102534
102521
102455
102700
102575
102608
102583
102582
102575
102570
102567
102562
102559
102555
102553
102549
102549
102545
102552
102547
102574
102561
102455
102700
102575
102608
102583
102582
102575
102570
102567
102562
102559
102555
102553
102549
102549
102545
102552
102547
102574
102561
102431
102665
102541
102570
102546
102544
102538
102533
102530
102525
102522
102518
102516
102512
102512
102508
102514
102509
102534
102521
102496
102752
102625
102661
102635
102635
102628
102623
102620
102615
102612
102608
102606
102602
102602
102599
102606
102601
102629
102615
102368
102581
102464
102490
102469
102467
102462
102456
102454
102449
102446
102442
102440
102436
102436
102432
102437
102432
102454
102442
102638
102896
102766
102799
102774
102774
102767
102762
102759
102755
102752
102748
102746
102742
102742
102738
102744
102739
102764
102751
102110
102321
102204
102233
102211
102210
102204
102199
102196
102191
102188
102184
102182
102179
102179
102175
102181
102176
102202
102189
103130
102814
103006
102902
102966
102925
102947
102928
102935
102924
102924
102917
102912
102906
102898
102893
102877
102871
102839
102832
102549
102229
102416
102310
102375
102333
102356
102337
102343
102333
102333
102326
102321
102316
102307
102302
102286
102281
102246
102241
102749
102421
102610
102501
102567
102524
102547
102528
102535
102524
102524
102517
102513
102507
102498
102493
102477
102472
102436
102433
102634
102306
102492
102384
102450
102408
102430
102411
102418
102408
102407
102400
102396
102390
102381
102376
102360
102355
102320
102316
102695
102371
102560
102450
102516
102473
102496
102477
102484
102473
102473
102466
102461
102456
102447
102442
102426
102421
102384
102382
102669
102344
102531
102422
102488
102446
102469
102450
102456
102446
102445
102438
102434
102428
102420
102415
102398
102394
102357
102355
102669
102344
102531
102422
102488
102446
102469
102450
102456
102446
102445
102438
102434
102428
102420
102415
102398
102394
102357
102355
102695
102371
102560
102450
102516
102473
102496
102477
102484
102473
102473
102466
102461
102456
102447
102442
102426
102421
102384
102382
102634
102306
102492
102384
102450
102408
102430
102411
102418
102408
102407
102400
102396
102390
102381
102376
102360
102355
102320
102316
102749
102421
102610
102501
102567
102524
102547
102528
102535
102524
102524
102517
102513
102507
102498
102493
102477
102472
102436
102433
102549
102229
102416
102310
102375
102333
102356
102337
102343
102333
102333
102326
102321
102316
102307
102302
102286
102281
102246
102241
103130
102814
103006
102902
102966
102925
102947
102928
102935
102924
102924
102917
102912
102906
102898
102893
102877
102871
102839
102832
103184
103163
103105
103075
103044
103015
102987
102959
102932
102904
102876
102849
102821
102794
102766
102739
102712
102684
102657
102629
102602
102575
102547
102520
102493
102465
102438
102411
102384
102356
102329
102302
102275
102247
102220
102193
102166
102139
102112
102084
102057
102030
102003
101976
101949
101922
101895
101867
101840
101813
101786
101759
101732
101705
101678
101651
101624
101597
101570
101543
101516
101489
101462
101435
101408
101381
101354
101328
101301
101274
101247
101220
101193
101166
101139
101113
101086
101059
101032
101005
100978
100951
100925
100897
100871
100844
100817
100789
100762
100734
102300
102272
102213
102183
102152
102123
102095
102068
102040
102013
101986
101958
101931
101904
101877
101850
101822
101795
101768
101741
101714
101687
101660
101633
101606
101579
101551
101524
101497
101470
101443
101416
101389
101363
101336
101309
101282
101255
101228
101201
101174
101147
101120
101093
101066
101040
101013
100986
100959
100932
100905
100878
100852
100825
100798
100771
100745
100718
100691
100664
100638
100611
100584
100557
100531
100504
100477
100451
100424
100397
100371
100344
100317
100291
100264
100238
100211
100184
100158
100131
100105
100078
100051
100024
99998
99970.8
99944.6
99917.1
99890.7
99862.7
102465
102436
102377
102347
102315
102287
102259
102231
102204
102176
102149
102122
102094
102067
102040
102013
101985
101958
101931
101904
101877
101849
101822
101795
101768
101741
101714
101687
101660
101633
101606
101579
101552
101525
101498
101471
101444
101417
101390
101363
101336
101309
101282
101255
101228
101201
101174
101147
101120
101094
101067
101040
101013
100986
100959
100932
100906
100879
100852
100825
100799
100772
100745
100718
100692
100665
100638
100611
100585
100558
100531
100505
100478
100451
100425
100398
100371
100345
100318
100291
100265
100238
100211
100184
100158
100131
100105
100077
100050
100022
102378
102349
102290
102260
102229
102200
102172
102145
102117
102090
102063
102035
102008
101981
101954
101926
101899
101872
101845
101818
101791
101763
101736
101709
101682
101655
101628
101601
101574
101547
101520
101493
101466
101439
101412
101385
101358
101331
101304
101277
101250
101223
101196
101170
101143
101116
101089
101062
101035
101008
100981
100954
100928
100901
100874
100847
100820
100794
100767
100740
100713
100687
100660
100633
100606
100580
100553
100526
100500
100473
100446
100420
100393
100366
100340
100313
100287
100260
100233
100206
100180
100153
100127
100100
100073
100046
100020
99992.4
99966
99938
102417
102387
102328
102297
102266
102237
102209
102182
102154
102127
102100
102072
102045
102018
101991
101963
101936
101909
101882
101855
101827
101800
101773
101746
101719
101692
101665
101638
101611
101584
101557
101530
101503
101476
101449
101422
101395
101368
101341
101314
101287
101260
101233
101206
101179
101152
101125
101099
101072
101045
101018
100991
100964
100937
100911
100884
100857
100830
100803
100777
100750
100723
100696
100670
100643
100616
100590
100563
100536
100509
100483
100456
100429
100403
100376
100349
100323
100296
100270
100243
100216
100189
100163
100136
100110
100082
100056
100029
100002
99974.2
102408
102378
102319
102288
102257
102228
102200
102173
102145
102118
102091
102063
102036
102009
101982
101954
101927
101900
101873
101846
101819
101791
101764
101737
101710
101683
101656
101629
101602
101575
101548
101521
101494
101467
101440
101413
101386
101359
101332
101305
101278
101251
101224
101197
101170
101144
101117
101090
101063
101036
101009
100982
100955
100929
100902
100875
100848
100821
100795
100768
100741
100714
100688
100661
100634
100607
100581
100554
100527
100501
100474
100447
100421
100394
100367
100341
100314
100287
100261
100234
100208
100181
100154
100127
100101
100074
100047
100020
99993.5
99965.4
102408
102378
102319
102288
102257
102228
102200
102173
102145
102118
102091
102063
102036
102009
101982
101954
101927
101900
101873
101846
101819
101791
101764
101737
101710
101683
101656
101629
101602
101575
101548
101521
101494
101467
101440
101413
101386
101359
101332
101305
101278
101251
101224
101197
101170
101143
101117
101090
101063
101036
101009
100982
100955
100929
100902
100875
100848
100821
100795
100768
100741
100714
100688
100661
100634
100607
100581
100554
100527
100501
100474
100447
100421
100394
100367
100341
100314
100287
100261
100234
100208
100181
100154
100127
100101
100074
100047
100020
99993.5
99965.4
102417
102387
102327
102297
102266
102237
102209
102182
102154
102127
102100
102072
102045
102018
101991
101963
101936
101909
101882
101855
101827
101800
101773
101746
101719
101692
101665
101638
101611
101584
101557
101530
101503
101476
101449
101422
101395
101368
101341
101314
101287
101260
101233
101206
101179
101152
101125
101099
101072
101045
101018
100991
100964
100937
100911
100884
100857
100830
100803
100777
100750
100723
100696
100670
100643
100616
100589
100563
100536
100509
100483
100456
100429
100403
100376
100349
100323
100296
100270
100243
100216
100189
100163
100136
100110
100082
100056
100029
100002
99974.2
102378
102349
102290
102260
102229
102200
102172
102145
102117
102090
102063
102035
102008
101981
101954
101926
101899
101872
101845
101818
101790
101763
101736
101709
101682
101655
101628
101601
101574
101547
101520
101493
101466
101439
101412
101385
101358
101331
101304
101277
101250
101223
101196
101169
101143
101116
101089
101062
101035
101008
100981
100954
100928
100901
100874
100847
100820
100794
100767
100740
100713
100686
100660
100633
100606
100580
100553
100526
100500
100473
100446
100420
100393
100366
100340
100313
100286
100260
100233
100206
100180
100153
100127
100100
100073
100046
100020
99992.3
99965.9
99938
102465
102436
102377
102346
102315
102287
102259
102231
102203
102176
102149
102121
102094
102067
102040
102012
101985
101958
101931
101904
101876
101849
101822
101795
101768
101741
101714
101687
101660
101632
101605
101578
101551
101524
101497
101470
101443
101416
101390
101363
101336
101309
101282
101255
101228
101201
101174
101147
101120
101093
101066
101040
101013
100986
100959
100932
100905
100879
100852
100825
100798
100771
100745
100718
100691
100665
100638
100611
100584
100558
100531
100504
100478
100451
100424
100398
100371
100344
100318
100291
100264
100238
100211
100184
100158
100131
100104
100077
100050
100022
102298
102271
102212
102182
102151
102123
102095
102067
102040
102012
101985
101958
101930
101903
101876
101849
101822
101794
101767
101740
101713
101686
101659
101632
101605
101578
101550
101523
101496
101469
101442
101415
101388
101362
101335
101308
101281
101254
101227
101200
101173
101146
101119
101092
101065
101039
101012
100985
100958
100931
100904
100877
100851
100824
100797
100770
100743
100717
100690
100663
100637
100610
100583
100556
100530
100503
100476
100450
100423
100396
100370
100343
100316
100290
100263
100236
100210
100183
100157
100130
100104
100077
100050
100023
99997
99969.8
99943.6
99916.1
99889.6
99862
103184
103162
103105
103075
103043
103014
102986
102958
102931
102903
102876
102848
102821
102793
102766
102738
102711
102683
102656
102629
102601
102574
102547
102519
102492
102465
102437
102410
102383
102356
102328
102301
102274
102247
102220
102192
102165
102138
102111
102084
102057
102029
102002
101975
101948
101921
101894
101867
101840
101813
101785
101758
101731
101704
101677
101650
101623
101596
101569
101542
101515
101488
101461
101434
101408
101381
101354
101327
101300
101273
101246
101219
101192
101166
101139
101112
101085
101058
101031
101004
100978
100951
100924
100897
100870
100843
100816
100789
100761
100733
101906
101890
101875
101848
101821
101793
101766
101739
101712
101685
101658
101630
101603
101576
101549
101522
101495
101468
101441
101414
101387
101360
101333
101306
101279
101252
101225
101198
101171
101144
101117
101090
101063
101036
101010
100983
100956
100929
100902
100875
100849
100822
100795
100768
100741
100715
100688
100661
100634
100607
100581
100554
100527
100501
100474
100447
100420
100394
100367
100340
100314
100287
100261
100234
100207
100181
100154
100128
100101
100074
100048
100021
99994.8
99968.2
99941.8
99915.1
99888.7
99862.1
99835.7
99809
99782.6
99755.8
99729.5
99702.7
99676.4
99649.4
99623.3
99596.1
99570.6
99542.2
102756
102745
102732
102705
102678
102650
102623
102595
102568
102540
102513
102486
102458
102431
102404
102376
102349
102322
102294
102267
102240
102212
102185
102158
102131
102104
102076
102049
102022
101995
101968
101941
101914
101886
101859
101832
101805
101778
101751
101724
101697
101670
101643
101616
101589
101562
101535
101508
101481
101454
101427
101400
101373
101346
101319
101292
101265
101238
101211
101185
101158
101131
101104
101077
101050
101023
100997
100970
100943
100916
100890
100863
100836
100809
100782
100756
100729
100702
100675
100649
100622
100595
100568
100541
100515
100488
100461
100434
100408
100380
102407
102395
102380
102353
102327
102299
102272
102244
102217
102189
102162
102135
102108
102080
102053
102026
101999
101971
101944
101917
101890
101863
101836
101808
101781
101754
101727
101700
101673
101646
101619
101592
101565
101538
101511
101484
101457
101430
101403
101376
101349
101322
101295
101268
101241
101214
101187
101160
101134
101107
101080
101053
101026
100999
100972
100946
100919
100892
100865
100838
100812
100785
100758
100731
100705
100678
100651
100624
100598
100571
100544
100518
100491
100464
100438
100411
100384
100357
100331
100304
100278
100251
100224
100197
100171
100144
100117
100090
100064
100036
102529
102518
102505
102478
102451
102423
102396
102368
102341
102314
102287
102259
102232
102204
102177
102150
102123
102095
102068
102041
102014
101987
101959
101932
101905
101878
101851
101824
101797
101770
101743
101715
101688
101661
101634
101607
101580
101553
101526
101499
101472
101445
101418
101391
101364
101337
101311
101284
101257
101230
101203
101176
101149
101122
101095
101068
101042
101015
100988
100961
100934
100907
100881
100854
100827
100800
100774
100747
100720
100693
100667
100640
100613
100586
100560
100533
100506
100480
100453
100426
100400
100373
100346
100319
100293
100266
100239
100212
100186
100158
102472
102461
102447
102420
102393
102365
102338
102311
102283
102256
102229
102201
102174
102147
102119
102092
102065
102038
102010
101983
101956
101929
101902
101875
101847
101820
101793
101766
101739
101712
101685
101658
101631
101604
101577
101550
101523
101496
101469
101442
101415
101388
101361
101334
101307
101280
101253
101226
101199
101172
101146
101119
101092
101065
101038
101011
100984
100958
100931
100904
100877
100850
100824
100797
100770
100743
100717
100690
100663
100636
100610
100583
100556
100530
100503
100476
100450
100423
100396
100369
100343
100316
100289
100262
100236
100209
100183
100155
100129
100102
102486
102475
102462
102435
102408
102380
102353
102325
102298
102271
102244
102216
102189
102162
102134
102107
102080
102053
102025
101998
101971
101944
101917
101889
101862
101835
101808
101781
101754
101727
101700
101673
101646
101619
101592
101565
101538
101511
101484
101457
101430
101403
101376
101349
101322
101295
101268
101241
101214
101187
101160
101133
101106
101080
101053
101026
100999
100972
100945
100919
100892
100865
100838
100811
100785
100758
100731
100704
100678
100651
100624
100598
100571
100544
100518
100491
100464
100437
100411
100384
100358
100331
100304
100277
100251
100224
100197
100170
100144
100116
102486
102475
102462
102435
102408
102380
102353
102325
102298
102271
102243
102216
102189
102161
102134
102107
102080
102052
102025
101998
101971
101944
101917
101889
101862
101835
101808
101781
101754
101727
101700
101673
101646
101619
101592
101565
101538
101511
101484
101457
101430
101403
101376
101349
101322
101295
101268
101241
101214
101187
101160
101133
101106
101080
101053
101026
100999
100972
100945
100919
100892
100865
100838
100811
100785
100758
100731
100704
100678
100651
100624
100598
100571
100544
100518
100491
100464
100437
100411
100384
100357
100331
100304
100277
100251
100224
100197
100170
100144
100116
102472
102461
102447
102420
102393
102365
102338
102310
102283
102256
102229
102201
102174
102147
102119
102092
102065
102038
102010
101983
101956
101929
101902
101874
101847
101820
101793
101766
101739
101712
101685
101658
101631
101604
101577
101550
101523
101496
101469
101442
101415
101388
101361
101334
101307
101280
101253
101226
101199
101172
101145
101118
101092
101065
101038
101011
100984
100957
100931
100904
100877
100850
100823
100797
100770
100743
100716
100690
100663
100636
100610
100583
100556
100529
100503
100476
100449
100423
100396
100369
100343
100316
100289
100262
100236
100209
100182
100155
100129
100101
102529
102518
102504
102477
102450
102423
102396
102368
102341
102313
102286
102259
102231
102204
102177
102149
102122
102095
102068
102041
102013
101986
101959
101932
101905
101878
101850
101823
101796
101769
101742
101715
101688
101661
101634
101607
101580
101553
101526
101499
101472
101445
101418
101391
101364
101337
101310
101283
101256
101229
101202
101175
101149
101122
101095
101068
101041
101014
100987
100961
100934
100907
100880
100853
100827
100800
100773
100746
100720
100693
100666
100639
100613
100586
100559
100533
100506
100479
100453
100426
100399
100372
100346
100319
100292
100265
100239
100212
100186
100158
102407
102395
102380
102353
102326
102298
102271
102243
102216
102189
102161
102134
102107
102079
102052
102025
101998
101971
101943
101916
101889
101862
101835
101808
101780
101753
101726
101699
101672
101645
101618
101591
101564
101537
101510
101483
101456
101429
101402
101375
101348
101321
101294
101267
101240
101214
101187
101160
101133
101106
101079
101052
101025
100998
100972
100945
100918
100891
100864
100838
100811
100784
100757
100730
100704
100677
100650
100624
100597
100570
100544
100517
100490
100463
100437
100410
100383
100357
100330
100303
100277
100250
100224
100197
100170
100143
100117
100089
100064
100036
102756
102745
102731
102704
102677
102649
102622
102594
102567
102539
102512
102484
102457
102430
102402
102375
102348
102320
102293
102266
102239
102211
102184
102157
102130
102103
102075
102048
102021
101994
101967
101940
101913
101885
101858
101831
101804
101777
101750
101723
101696
101669
101642
101615
101588
101561
101534
101507
101480
101453
101426
101399
101372
101345
101318
101291
101264
101237
101210
101184
101157
101130
101103
101076
101049
101023
100996
100969
100942
100915
100889
100862
100835
100808
100782
100755
100728
100701
100675
100648
100621
100594
100568
100540
100514
100487
100460
100433
100407
100378
101904
101888
101873
101846
101819
101791
101764
101737
101710
101683
101656
101628
101601
101574
101547
101520
101493
101466
101439
101412
101385
101358
101331
101304
101277
101250
101223
101196
101169
101142
101115
101088
101061
101034
101008
100981
100954
100927
100900
100873
100847
100820
100793
100766
100739
100713
100686
100659
100632
100605
100579
100552
100525
100499
100472
100445
100418
100392
100365
100338
100312
100285
100259
100232
100205
100179
100152
100126
100099
100072
100046
100019
99992.8
99966.2
99939.8
99913.1
99886.7
99860
99833.7
99807
99780.6
99753.8
99727.5
99700.7
99674.4
99647.4
99621.3
99594.1
99568.6
99540.3
102433
102397
102384
102357
102334
102307
102280
102253
102226
102198
102171
102144
102117
102089
102062
102035
102008
101980
101953
101926
101899
101872
101845
101817
101790
101763
101736
101709
101682
101655
101628
101601
101574
101547
101520
101493
101466
101439
101412
101385
101358
101331
101304
101277
101250
101223
101196
101169
101143
101116
101089
101062
101035
101008
100981
100954
100928
100901
100874
100847
100821
100794
100767
100740
100713
100687
100660
100633
100607
100580
100553
100526
100500
100473
100447
100420
100393
100366
100340
100313
100287
100260
100233
100206
100180
100153
100126
100099
100073
100044
102462
102427
102414
102387
102363
102336
102310
102282
102255
102228
102201
102173
102146
102119
102092
102064
102037
102010
101983
101955
101928
101901
101874
101847
101820
101793
101766
101738
101711
101684
101657
101630
101603
101576
101549
101522
101495
101468
101441
101414
101387
101360
101333
101306
101280
101253
101226
101199
101172
101145
101118
101091
101064
101037
101011
100984
100957
100930
100903
100876
100850
100823
100796
100769
100743
100716
100689
100662
100636
100609
100582
100556
100529
100502
100476
100449
100422
100395
100369
100342
100316
100289
100262
100235
100209
100182
100155
100128
100101
100073
102433
102396
102383
102356
102333
102306
102279
102252
102225
102197
102170
102143
102116
102088
102061
102034
102007
101979
101952
101925
101898
101871
101844
101816
101789
101762
101735
101708
101681
101654
101627
101600
101573
101546
101519
101492
101465
101438
101411
101384
101357
101330
101303
101276
101249
101222
101195
101169
101142
101115
101088
101061
101034
101007
100980
100954
100927
100900
100873
100846
100820
100793
100766
100739
100713
100686
100659
100632
100606
100579
100552
100526
100499
100472
100446
100419
100392
100365
100339
100312
100286
100259
100232
100205
100179
100152
100126
100098
100072
100043
102461
102425
102412
102385
102362
102335
102308
102281
102254
102227
102199
102172
102145
102117
102090
102063
102036
102008
101981
101954
101927
101900
101873
101845
101818
101791
101764
101737
101710
101683
101656
101629
101602
101575
101548
101521
101494
101467
101440
101413
101386
101359
101332
101305
101278
101251
101224
101197
101170
101143
101117
101090
101063
101036
101009
100982
100955
100929
100902
100875
100848
100821
100795
100768
100741
100714
100688
100661
100634
100608
100581
100554
100528
100501
100474
100447
100421
100394
100368
100341
100314
100287
100261
100234
100207
100180
100154
100127
100100
100072
102447
102410
102397
102370
102347
102320
102293
102266
102239
102211
102184
102157
102130
102102
102075
102048
102021
101993
101966
101939
101912
101885
101858
101830
101803
101776
101749
101722
101695
101668
101641
101614
101587
101560
101533
101506
101479
101452
101425
101398
101371
101344
101317
101290
101263
101236
101209
101182
101155
101129
101102
101075
101048
101021
100994
100967
100941
100914
100887
100860
100833
100807
100780
100753
100726
100700
100673
100646
100619
100593
100566
100539
100513
100486
100459
100433
100406
100379
100353
100326
100299
100272
100246
100219
100193
100166
100139
100112
100085
100057
102455
102419
102406
102379
102356
102328
102302
102275
102248
102220
102193
102166
102138
102111
102084
102057
102029
102002
101975
101948
101921
101893
101866
101839
101812
101785
101758
101731
101704
101677
101650
101623
101596
101569
101542
101515
101488
101461
101434
101407
101380
101353
101326
101299
101272
101245
101218
101191
101164
101137
101110
101083
101057
101030
101003
100976
100949
100922
100896
100869
100842
100815
100789
100762
100735
100708
100682
100655
100628
100601
100575
100548
100521
100495
100468
100441
100415
100388
100361
100334
100308
100281
100255
100228
100201
100174
100148
100121
100094
100066
102455
102419
102406
102379
102355
102328
102302
102275
102248
102220
102193
102166
102138
102111
102084
102057
102029
102002
101975
101948
101921
101893
101866
101839
101812
101785
101758
101731
101704
101677
101650
101622
101595
101568
101541
101514
101487
101461
101434
101407