/*--------------------------------*- C++ -*----------------------------------*\
  =========                 |
  \\      /  F ield         | OpenFOAM: The Open Source CFD Toolbox
   \\    /   O peration     | Website:  https://openfoam.org
    \\  /    A nd           | Version:  7
     \\/     M anipulation  |
\*---------------------------------------------------------------------------*/
FoamFile
{
    version     2.0;
    format      ascii;
    class       volScalarField;
    location    "0.205";
    object      k_0;
}
// * * * * * * * * * * * * * * * * * * * * * * * * * * * * * * * * * * * * * //

dimensions      [0 2 -2 0 0 0 0];

internalField   nonuniform List<scalar> 
8640
(
22.8048
21.454
20.9353
20.8145
20.7349
20.7124
20.6821
20.6787
20.6636
20.6633
20.6529
20.6543
20.6477
20.6503
20.646
20.6503
20.6505
20.6569
20.6564
20.6576
20.6529
20.6496
20.6434
20.6447
20.6504
20.6621
20.6725
20.683
20.6893
20.6957
20.6987
20.702
20.703
20.7048
20.705
20.7062
20.7064
20.7074
20.7076
20.7085
20.7088
20.7097
20.71
20.711
20.7112
20.7122
20.7125
20.7135
20.7138
20.7146
20.7151
20.7151
20.7163
20.7143
20.7172
20.7123
20.7178
20.7124
20.73
21.0155
8.84652
6.11883
4.87838
4.47732
4.35023
4.26564
4.19177
4.11925
4.04181
3.96888
3.89712
3.83045
3.76818
3.71045
3.66191
3.6203
3.59007
3.56595
3.55028
3.53557
3.52363
3.51515
3.51368
3.51422
3.51621
3.5192
3.52349
3.52841
3.53299
3.53501
3.53658
3.53701
3.53773
3.53796
3.53857
3.53893
3.53958
3.54004
3.54069
3.54121
3.54185
3.54243
3.54307
3.54374
3.54436
3.54521
3.54587
3.54708
3.54805
3.54959
3.55225
3.55396
3.56175
3.5625
3.58567
3.58022
3.64858
3.63377
3.75451
4.00058
8.24486
5.46677
3.89666
3.3563
3.15269
3.07488
3.04131
3.02894
3.02099
3.01827
3.01468
3.01346
3.01107
3.0104
3.00918
3.00911
3.00883
3.00895
3.00884
3.00898
3.00884
3.00879
3.00829
3.00756
3.00673
3.00669
3.00757
3.0102
3.01335
3.01703
3.02021
3.02312
3.0252
3.02693
3.02805
3.02905
3.0297
3.03041
3.03092
3.03155
3.03204
3.03266
3.03316
3.03378
3.03428
3.03491
3.03542
3.03606
3.03656
3.03725
3.03773
3.03853
3.03907
3.03997
3.041
3.04195
3.04422
3.04585
3.05074
3.09584
8.23909
5.43871
3.85029
3.30277
3.09349
3.0146
2.98279
2.97372
2.97183
2.97332
2.97524
2.97927
2.98169
2.98556
2.98794
2.99117
2.99283
2.99494
2.99597
2.99771
2.99876
2.99979
2.99986
2.99966
2.99909
2.99922
3.00038
3.00332
3.00678
3.01093
3.01463
3.01807
3.02058
3.02266
3.024
3.02515
3.02589
3.02666
3.0272
3.02786
3.02836
3.029
3.02949
3.03014
3.03063
3.03128
3.03178
3.03244
3.03296
3.03361
3.03423
3.03478
3.0356
3.03602
3.0371
3.03742
3.03889
3.03898
3.04213
3.07458
8.23732
5.43606
3.84696
3.29912
3.08935
3.01014
2.97812
2.96896
2.96714
2.96867
2.97069
2.97488
2.97746
2.98153
2.98407
2.98747
2.9893
2.99169
2.993
2.995
2.99622
2.99747
2.99773
2.99771
2.99742
2.99776
2.99915
3.00216
3.00565
3.00982
3.01353
3.017
3.01954
3.02166
3.02303
3.02421
3.02496
3.02575
3.02629
3.02695
3.02745
3.02809
3.02859
3.02922
3.02973
3.03036
3.03089
3.0315
3.03206
3.03265
3.03329
3.03378
3.03463
3.03504
3.03615
3.03655
3.0382
3.03858
3.0422
3.07504
8.23942
5.43358
3.8435
3.29605
3.08709
3.00841
2.97675
2.96776
2.96601
2.96756
2.96956
2.97374
2.97631
2.9804
2.98292
2.9863
2.98809
2.99047
2.99184
2.99396
2.99528
2.99669
2.99706
2.99724
2.99725
2.99796
2.99968
3.00286
3.00648
3.01072
3.01448
3.01796
3.02051
3.02262
3.02398
3.02517
3.02591
3.0267
3.02724
3.02791
3.02841
3.02905
3.02955
3.03019
3.03069
3.03133
3.03185
3.03248
3.03306
3.03363
3.03435
3.03478
3.03576
3.03613
3.03738
3.03766
3.03957
3.03971
3.04359
3.07609
8.23942
5.43358
3.8435
3.29605
3.08709
3.00841
2.97675
2.96776
2.96601
2.96756
2.96956
2.97374
2.97631
2.9804
2.98292
2.9863
2.98809
2.99047
2.99184
2.99396
2.99528
2.99669
2.99706
2.99724
2.99725
2.99796
2.99968
3.00286
3.00648
3.01072
3.01448
3.01796
3.02051
3.02262
3.02398
3.02517
3.02591
3.0267
3.02724
3.02791
3.02841
3.02905
3.02955
3.03019
3.03069
3.03133
3.03185
3.03248
3.03305
3.03363
3.03435
3.03479
3.03576
3.03614
3.03738
3.03768
3.03958
3.03973
3.0436
3.07611
8.23732
5.43606
3.84696
3.29912
3.08935
3.01014
2.97812
2.96896
2.96714
2.96867
2.97069
2.97488
2.97746
2.98153
2.98407
2.98747
2.9893
2.99169
2.993
2.995
2.99622
2.99747
2.99773
2.99771
2.99742
2.99776
2.99915
3.00216
3.00565
3.00982
3.01353
3.017
3.01954
3.02166
3.02303
3.02421
3.02496
3.02575
3.02629
3.02695
3.02745
3.02809
3.02859
3.02923
3.02973
3.03037
3.03089
3.03151
3.03206
3.03266
3.03329
3.03381
3.03463
3.03505
3.03614
3.03658
3.03818
3.03863
3.04223
3.0751
8.23909
5.43871
3.85029
3.30277
3.09349
3.0146
2.98279
2.97372
2.97183
2.97332
2.97524
2.97927
2.98169
2.98556
2.98794
2.99118
2.99283
2.99494
2.99597
2.99771
2.99876
2.99979
2.99986
2.99966
2.99909
2.99922
3.00038
3.00332
3.00678
3.01093
3.01463
3.01807
3.02058
3.02266
3.024
3.02515
3.02589
3.02666
3.0272
3.02786
3.02836
3.029
3.02949
3.03014
3.03063
3.03129
3.03177
3.03245
3.03295
3.03364
3.0342
3.03483
3.03557
3.03605
3.03709
3.03748
3.03884
3.03908
3.04216
3.07467
8.24486
5.46677
3.89666
3.3563
3.15269
3.07488
3.04131
3.02894
3.02099
3.01827
3.01468
3.01346
3.01107
3.0104
3.00918
3.00911
3.00883
3.00895
3.00884
3.00897
3.00884
3.00879
3.0083
3.00756
3.00673
3.00669
3.00756
3.01019
3.01335
3.01703
3.02021
3.02313
3.0252
3.02694
3.02805
3.02905
3.0297
3.03041
3.03092
3.03156
3.03205
3.03267
3.03316
3.03378
3.03428
3.03492
3.03541
3.03608
3.03655
3.03729
3.0377
3.03859
3.03904
3.0401
3.04079
3.04214
3.04401
3.0459
3.0506
3.09571
8.84652
6.11883
4.87838
4.47732
4.35023
4.26565
4.19177
4.11925
4.04181
3.96888
3.89712
3.83046
3.76818
3.71046
3.66191
3.6203
3.59007
3.56595
3.55028
3.53557
3.52363
3.51516
3.51368
3.51421
3.5162
3.51919
3.52349
3.5284
3.533
3.53501
3.53659
3.53701
3.53773
3.53796
3.53857
3.53893
3.53958
3.54003
3.54068
3.54119
3.54183
3.54241
3.54303
3.54369
3.54431
3.54514
3.54577
3.54695
3.54788
3.54939
3.55198
3.55366
3.5613
3.56204
3.58486
3.57957
3.64706
3.63289
3.75214
3.99728
22.8048
21.454
20.9353
20.8145
20.7349
20.7124
20.6821
20.6787
20.6636
20.6632
20.6529
20.6543
20.6477
20.6503
20.646
20.6503
20.6504
20.6569
20.6564
20.6576
20.6529
20.6496
20.6433
20.6446
20.6503
20.662
20.6725
20.683
20.6892
20.6957
20.6987
20.702
20.703
20.7048
20.705
20.7062
20.7064
20.7074
20.7076
20.7085
20.7088
20.7097
20.71
20.711
20.7112
20.7123
20.7125
20.7136
20.7138
20.7148
20.715
20.7153
20.7161
20.7149
20.7166
20.7136
20.7164
20.7153
20.727
21.0176
0.979765
2.35014
2.94685
3.1453
3.22311
3.23207
3.23619
3.22738
3.2229
3.21012
3.20495
3.19244
3.18774
3.1772
3.17353
3.16558
3.16395
3.16025
3.16093
3.16006
3.1617
3.16181
3.16394
3.16431
3.16617
3.16634
3.16767
3.16784
3.16905
3.16927
3.17037
3.17064
3.17166
3.17197
3.17294
3.1733
3.17423
3.17464
3.17552
3.17599
3.17683
3.17733
3.17815
3.17866
3.17947
3.17997
3.18082
3.18125
3.1822
3.1825
3.18359
3.1837
3.1848
3.18475
3.18487
3.18553
3.18271
3.18474
3.17088
3.23056
0.425936
1.69716
2.34416
2.62333
2.73392
2.77928
2.79587
2.80416
2.80673
2.80934
2.81013
2.8118
2.81243
2.81383
2.81426
2.81499
2.81484
2.81473
2.81392
2.81348
2.81296
2.81297
2.81304
2.81385
2.81517
2.8174
2.81946
2.82168
2.82327
2.82468
2.82549
2.82618
2.8265
2.82681
2.82693
2.82709
2.82716
2.82728
2.82734
2.82745
2.82752
2.82762
2.8277
2.82779
2.82787
2.82796
2.82805
2.82816
2.82823
2.82839
2.82843
2.82868
2.82872
2.82916
2.82946
2.82991
2.83118
2.83067
2.83227
2.86615
0.433565
1.67444
2.30827
2.58369
2.69219
2.73748
2.75327
2.76142
2.76312
2.76512
2.7651
2.76559
2.76547
2.76592
2.76593
2.7663
2.7662
2.76637
2.76644
2.76709
2.76759
2.768
2.7678
2.76746
2.7672
2.76775
2.76945
2.77228
2.77529
2.77846
2.78102
2.78313
2.78449
2.78546
2.78597
2.78633
2.78648
2.78663
2.78668
2.78676
2.7868
2.78687
2.78692
2.78698
2.78703
2.78708
2.78715
2.78719
2.78728
2.7873
2.7874
2.7874
2.78751
2.78744
2.78754
2.78743
2.78754
2.78741
2.78761
2.81482
0.424629
1.66932
2.30776
2.58491
2.69396
2.73929
2.75506
2.76316
2.76482
2.76672
2.76664
2.76704
2.76685
2.76723
2.76719
2.76749
2.7673
2.76738
2.76739
2.76801
2.76846
2.76884
2.76856
2.76804
2.76759
2.76794
2.76943
2.77224
2.77533
2.7787
2.78152
2.78391
2.78551
2.78667
2.7873
2.78775
2.78794
2.7881
2.78816
2.78825
2.78829
2.78836
2.7884
2.78846
2.78851
2.78856
2.78863
2.78867
2.78874
2.78879
2.78887
2.78893
2.78905
2.78909
2.78929
2.78928
2.78953
2.78941
2.78983
2.81585
0.429104
1.67045
2.30681
2.5833
2.69212
2.73736
2.75307
2.76112
2.76273
2.76458
2.76447
2.76485
2.76466
2.76505
2.76501
2.76528
2.76507
2.76515
2.7652
2.76588
2.76634
2.7667
2.76638
2.7658
2.76533
2.76565
2.76712
2.76993
2.77304
2.77646
2.77936
2.78182
2.78348
2.78469
2.78535
2.78581
2.78601
2.78618
2.78624
2.78633
2.78637
2.78644
2.78648
2.78654
2.78659
2.78664
2.7867
2.78674
2.78682
2.78685
2.78694
2.78695
2.78704
2.78704
2.78711
2.78711
2.78718
2.78716
2.7873
2.81231
0.426471
1.66938
2.30723
2.58424
2.69328
2.73856
2.75431
2.76236
2.76398
2.76581
2.76568
2.76605
2.76585
2.76623
2.76617
2.7664
2.76617
2.76626
2.76634
2.76703
2.76744
2.76772
2.76732
2.76675
2.76633
2.76673
2.7683
2.77114
2.77424
2.77763
2.78047
2.78288
2.78451
2.78569
2.78633
2.78679
2.78698
2.78715
2.78721
2.7873
2.78734
2.78741
2.78745
2.78751
2.78756
2.78761
2.78767
2.78772
2.78779
2.78784
2.78791
2.78795
2.78805
2.78808
2.7882
2.78822
2.78837
2.78837
2.7886
2.81375
0.426471
1.66938
2.30723
2.58424
2.69328
2.73856
2.75431
2.76236
2.76398
2.76581
2.76568
2.76605
2.76585
2.76623
2.76617
2.7664
2.76617
2.76626
2.76634
2.76703
2.76744
2.76772
2.76732
2.76675
2.76633
2.76673
2.7683
2.77114
2.77424
2.77763
2.78047
2.78288
2.78451
2.78569
2.78633
2.78679
2.78698
2.78715
2.78721
2.7873
2.78734
2.78741
2.78745
2.78751
2.78756
2.78761
2.78767
2.78772
2.78779
2.78784
2.78791
2.78795
2.78805
2.78809
2.78819
2.78822
2.78835
2.78837
2.78859
2.81374
0.429103
1.67045
2.30681
2.5833
2.69212
2.73736
2.75307
2.76112
2.76273
2.76458
2.76447
2.76485
2.76466
2.76505
2.76501
2.76528
2.76507
2.76515
2.76521
2.76588
2.76634
2.7667
2.76638
2.7658
2.76533
2.76565
2.76712
2.76993
2.77304
2.77646
2.77936
2.78182
2.78348
2.78469
2.78535
2.78581
2.78601
2.78618
2.78624
2.78633
2.78637
2.78644
2.78648
2.78654
2.78659
2.78664
2.7867
2.78675
2.78682
2.78685
2.78694
2.78695
2.78702
2.78703
2.78707
2.78711
2.78713
2.78716
2.78728
2.8123
0.424629
1.66931
2.30776
2.58491
2.69396
2.73929
2.75506
2.76316
2.76482
2.76672
2.76664
2.76704
2.76685
2.76723
2.76719
2.76749
2.7673
2.76738
2.76739
2.76801
2.76846
2.76884
2.76856
2.76804
2.76759
2.76793
2.76943
2.77224
2.77533
2.7787
2.78152
2.78391
2.78551
2.78668
2.7873
2.78775
2.78794
2.7881
2.78816
2.78825
2.78829
2.78836
2.7884
2.78846
2.78851
2.78856
2.78862
2.78867
2.78873
2.7888
2.78885
2.78895
2.78903
2.78911
2.78924
2.78929
2.78944
2.78947
2.78975
2.8158
0.433565
1.67444
2.30827
2.58369
2.69219
2.73748
2.75327
2.76142
2.76312
2.76512
2.7651
2.76559
2.76547
2.76592
2.76594
2.7663
2.7662
2.76637
2.76643
2.76709
2.76759
2.768
2.7678
2.76746
2.7672
2.76774
2.76944
2.77228
2.77529
2.77846
2.78102
2.78313
2.78449
2.78546
2.78597
2.78633
2.78648
2.78663
2.78668
2.78677
2.7868
2.78688
2.78692
2.78698
2.78703
2.78709
2.78715
2.7872
2.78727
2.7873
2.78738
2.78741
2.78746
2.78746
2.78745
2.78751
2.78742
2.78757
2.78747
2.81473
0.425936
1.69716
2.34416
2.62333
2.73392
2.77928
2.79587
2.80416
2.80673
2.80934
2.81013
2.8118
2.81243
2.81383
2.81427
2.81499
2.81484
2.81473
2.81392
2.81348
2.81297
2.81298
2.81304
2.81384
2.81516
2.81739
2.81946
2.82168
2.82328
2.82468
2.8255
2.82618
2.8265
2.82681
2.82693
2.82709
2.82716
2.82728
2.82734
2.82745
2.82752
2.82762
2.82769
2.82779
2.82787
2.82796
2.82804
2.82816
2.82821
2.82839
2.82841
2.82869
2.82867
2.82921
2.82936
2.83003
2.83086
2.83077
2.83195
2.86589
0.979766
2.35014
2.94685
3.14529
3.22311
3.23207
3.23619
3.22738
3.2229
3.21012
3.20494
3.19244
3.18774
3.1772
3.17353
3.16558
3.16394
3.16025
3.16092
3.16006
3.1617
3.16181
3.16394
3.1643
3.16616
3.16634
3.16767
3.16784
3.16905
3.16927
3.17037
3.17064
3.17166
3.17197
3.17294
3.1733
3.17423
3.17464
3.17553
3.17599
3.17683
3.17733
3.17815
3.17867
3.17948
3.17999
3.18083
3.18127
3.18222
3.18254
3.18363
3.18377
3.18482
3.18489
3.18494
3.1858
3.18278
3.1853
3.17088
3.23082
0.00753912
0.0460261
0.108325
0.176127
0.23905
0.291766
0.327942
0.35064
0.362341
0.367553
0.368673
0.368509
0.367824
0.366835
0.365799
0.36514
0.364717
0.364641
0.364887
0.365638
0.366587
0.367756
0.369063
0.370485
0.371983
0.37356
0.375172
0.376781
0.378389
0.380044
0.381687
0.383373
0.38501
0.386718
0.388352
0.390095
0.391728
0.393507
0.395132
0.396955
0.398566
0.40044
0.402033
0.403977
0.405528
0.407543
0.40905
0.41118
0.412566
0.414882
0.416063
0.418605
0.419645
0.42229
0.423024
0.425778
0.425716
0.428112
0.425986
0.431339
0.000367058
0.00433292
0.0130456
0.0255604
0.0378345
0.0515907
0.0632822
0.0729178
0.0790503
0.0830198
0.0847982
0.0856281
0.0857139
0.085684
0.0853455
0.0847606
0.0837165
0.0828297
0.0817317
0.0809288
0.0801883
0.0797898
0.0795087
0.0794322
0.079408
0.0794625
0.0795136
0.0795981
0.0796327
0.079703
0.0797347
0.0797943
0.0798238
0.0798783
0.0799026
0.07994
0.0799824
0.0800345
0.0800696
0.0801101
0.0801341
0.0801648
0.080215
0.0802724
0.0803122
0.0803685
0.0803866
0.0804277
0.0804486
0.0805714
0.0805904
0.0807362
0.0807036
0.0810327
0.0809399
0.0817223
0.0815094
0.0833026
0.083303
0.0878099
0.000352408
0.00402899
0.0116001
0.0234571
0.0337252
0.0453852
0.0540269
0.061716
0.066095
0.0694455
0.0708391
0.0719185
0.0721461
0.0723664
0.0723213
0.0723459
0.0722951
0.0723236
0.0723079
0.072361
0.072376
0.0724438
0.0724606
0.0725291
0.0725642
0.0726578
0.0726843
0.0727393
0.0727592
0.0728064
0.0728122
0.07283
0.0728444
0.072864
0.0728636
0.0728739
0.0729006
0.0729298
0.0729403
0.0729401
0.0729395
0.0729347
0.0729388
0.0729658
0.0730036
0.0730109
0.0730217
0.0730417
0.073103
0.0731263
0.0731717
0.0731807
0.0731951
0.0731933
0.0732034
0.0732491
0.0732425
0.0732662
0.0732323
0.0752301
0.000354996
0.00408372
0.0117504
0.0238662
0.0344755
0.0463818
0.0551768
0.0629422
0.0673619
0.070739
0.0721486
0.07324
0.0734766
0.0737205
0.073695
0.0737486
0.0737388
0.0738054
0.0738246
0.07391
0.0739255
0.0739849
0.0739976
0.0740592
0.0740908
0.0741775
0.0742043
0.074261
0.0742832
0.0743262
0.0743291
0.0743458
0.0743645
0.0743848
0.0743839
0.0743944
0.0744208
0.0744413
0.0744412
0.0744408
0.0744372
0.0744363
0.0744552
0.0744837
0.0744957
0.0744934
0.0745011
0.0745338
0.0746091
0.0746191
0.0746303
0.0746308
0.0746623
0.0746766
0.0747204
0.0747256
0.0747704
0.0747914
0.0748591
0.0767681
0.000351669
0.00403613
0.0116042
0.023591
0.0340006
0.0457716
0.0544486
0.0621567
0.0665264
0.0698793
0.0712659
0.0723393
0.0725591
0.0727833
0.0727467
0.0727864
0.0727565
0.0728071
0.0728092
0.0728726
0.0728871
0.0729482
0.0729611
0.0730229
0.0730556
0.0731452
0.0731721
0.0732289
0.07325
0.0733006
0.0733111
0.0733315
0.0733424
0.073361
0.0733613
0.0733685
0.0733959
0.0734137
0.07341
0.073408
0.0734158
0.0734371
0.0734535
0.0734708
0.0734869
0.0734905
0.0735152
0.0735357
0.0735517
0.0735499
0.0735626
0.0735862
0.0736505
0.0736869
0.0737073
0.0737279
0.0737348
0.0737527
0.0737525
0.0755355
0.000352783
0.00405552
0.0116679
0.0237237
0.0342428
0.0460873
0.0548294
0.0625709
0.0669673
0.0703331
0.0717298
0.0728104
0.0730365
0.0732688
0.0732369
0.073284
0.073265
0.0733229
0.07333
0.0733962
0.0734091
0.0734673
0.0734798
0.0735406
0.073573
0.0736617
0.0736887
0.0737456
0.0737666
0.0738143
0.0738209
0.0738389
0.0738538
0.073873
0.0738723
0.073881
0.0739066
0.0739282
0.0739281
0.0739278
0.073924
0.0739243
0.0739458
0.0739735
0.0739851
0.073982
0.0739909
0.0740264
0.0740889
0.0741003
0.0741294
0.0741432
0.07418
0.0741811
0.074204
0.0742177
0.0742564
0.0742913
0.0743389
0.0761501
0.000352783
0.00405552
0.0116679
0.0237237
0.0342428
0.0460873
0.0548294
0.0625709
0.0669673
0.070333
0.0717298
0.0728104
0.0730365
0.0732687
0.0732368
0.073284
0.073265
0.0733228
0.0733299
0.0733962
0.073409
0.0734673
0.0734798
0.0735406
0.073573
0.0736616
0.0736887
0.0737459
0.0737673
0.0738123
0.0738163
0.0738333
0.0738508
0.0738712
0.0738703
0.0738803
0.0739064
0.0739286
0.0739285
0.0739282
0.0739248
0.0739254
0.0739476
0.0739782
0.0739921
0.0739921
0.0740117
0.0740398
0.0740599
0.0740587
0.0740724
0.0740922
0.0741555
0.0741862
0.0742277
0.0742298
0.0742557
0.0742945
0.0743406
0.0761491
0.000351669
0.00403613
0.0116042
0.023591
0.0340006
0.0457716
0.0544486
0.0621567
0.0665264
0.0698792
0.0712659
0.0723393
0.0725591
0.0727833
0.0727467
0.0727864
0.0727566
0.0728072
0.0728093
0.0728727
0.0728872
0.0729483
0.0729612
0.073023
0.0730557
0.0731452
0.0731722
0.0732296
0.0732507
0.0732985
0.0733045
0.0733224
0.0733384
0.0733589
0.0733582
0.0733672
0.073394
0.0734171
0.0734171
0.0734168
0.0734135
0.0734141
0.0734356
0.0734649
0.0734809
0.0734794
0.0734865
0.073512
0.0735804
0.0735989
0.0736359
0.0736462
0.0736751
0.0736838
0.0737012
0.073716
0.0737258
0.0737637
0.0737746
0.0755604
0.000354996
0.00408376
0.0117503
0.0238662
0.0344756
0.0463815
0.0551769
0.0629423
0.0673618
0.0707389
0.0721487
0.0732401
0.0734763
0.0737205
0.0736957
0.0737507
0.0737422
0.07381
0.0738288
0.0739114
0.073926
0.0739854
0.0739981
0.0740588
0.0740903
0.0741775
0.0742044
0.0742611
0.0742837
0.0743259
0.0743284
0.0743452
0.0743642
0.0743846
0.0743837
0.0743942
0.0744205
0.0744413
0.0744412
0.0744408
0.0744373
0.0744363
0.0744549
0.0744837
0.074496
0.0744938
0.0745015
0.074533
0.0746102
0.0746259
0.0746366
0.0746331
0.0746596
0.0746757
0.0747207
0.0747259
0.074769
0.0747913
0.0748592
0.0767619
0.000352408
0.00402899
0.0116001
0.0234571
0.0337252
0.0453852
0.0540269
0.061716
0.066095
0.0694455
0.0708391
0.0719185
0.0721461
0.0723664
0.0723213
0.0723459
0.0722951
0.0723236
0.0723079
0.0723609
0.0723759
0.0724437
0.0724604
0.0725289
0.0725639
0.0726576
0.0726844
0.0727398
0.0727604
0.0728033
0.0728051
0.0728221
0.0728398
0.0728615
0.0728612
0.0728719
0.0728996
0.0729278
0.0729277
0.0729271
0.0729258
0.0729285
0.0729547
0.0729833
0.0730047
0.0730063
0.0730137
0.0730362
0.0731017
0.0731266
0.0731717
0.0731795
0.073191
0.0731889
0.073199
0.0732475
0.073241
0.0732662
0.0732298
0.0752142
0.000367057
0.00433292
0.0130456
0.0255605
0.0378346
0.0515908
0.0632823
0.0729178
0.0790503
0.0830198
0.0847982
0.0856281
0.0857139
0.085684
0.0853455
0.0847606
0.0837165
0.0828297
0.0817317
0.0809288
0.0801884
0.0797899
0.0795087
0.079432
0.0794078
0.0794627
0.0795141
0.0795987
0.0796334
0.0797028
0.0797344
0.0797946
0.0798194
0.0798613
0.0799178
0.0799775
0.0800027
0.0800467
0.0800728
0.0800977
0.0801195
0.0801603
0.0802142
0.0802783
0.0803167
0.0803692
0.0803871
0.0804263
0.0804454
0.080564
0.0805825
0.080724
0.0806904
0.0810117
0.0809194
0.081683
0.0814594
0.0832202
0.083195
0.0876423
0.00753911
0.0460261
0.108325
0.176127
0.239049
0.291766
0.327942
0.350641
0.362341
0.367553
0.368673
0.368509
0.367824
0.366835
0.365799
0.36514
0.364716
0.364641
0.364887
0.365638
0.366587
0.367756
0.369063
0.370485
0.371983
0.37356
0.375172
0.376782
0.378389
0.380044
0.381687
0.383373
0.38501
0.386718
0.388353
0.390095
0.391729
0.393507
0.395134
0.396955
0.398568
0.400441
0.402035
0.403978
0.405531
0.407547
0.409056
0.411188
0.412576
0.414897
0.416082
0.418634
0.41968
0.422347
0.423082
0.425876
0.425819
0.428297
0.426176
0.431586
0.00753911
0.046026
0.108325
0.176127
0.239049
0.291766
0.327942
0.35064
0.36234
0.367553
0.368673
0.368509
0.367824
0.366835
0.365799
0.36514
0.364716
0.364641
0.364887
0.365638
0.366587
0.367756
0.369063
0.370485
0.371983
0.37356
0.375172
0.376781
0.378389
0.380044
0.381687
0.383373
0.38501
0.386718
0.388352
0.390095
0.391728
0.393507
0.395132
0.396955
0.398566
0.40044
0.402033
0.403977
0.405527
0.407543
0.40905
0.41118
0.412566
0.414882
0.416063
0.418605
0.419645
0.42229
0.423024
0.425778
0.425716
0.428112
0.425986
0.431339
0.000367057
0.00433292
0.0130456
0.0255604
0.0378345
0.0515907
0.0632822
0.0729178
0.0790503
0.0830198
0.0847982
0.0856281
0.0857139
0.085684
0.0853455
0.0847606
0.0837164
0.0828296
0.0817317
0.0809288
0.0801883
0.0797898
0.0795087
0.0794322
0.079408
0.0794626
0.0795136
0.0795982
0.079633
0.079704
0.0797355
0.0797956
0.0798251
0.0798785
0.079902
0.0799396
0.0799825
0.0800341
0.0800682
0.0801091
0.0801346
0.080162
0.0802168
0.080278
0.080305
0.0803501
0.0803758
0.0804456
0.0804694
0.0805826
0.0805991
0.080743
0.0807055
0.0810303
0.0809361
0.0817193
0.0815076
0.0833018
0.0833026
0.0878097
0.000352408
0.00402898
0.0116001
0.023457
0.0337251
0.0453852
0.0540269
0.0617159
0.066095
0.0694454
0.0708392
0.0719185
0.0721461
0.0723664
0.0723213
0.0723459
0.0722951
0.0723236
0.072308
0.072361
0.072376
0.0724438
0.0724606
0.0725291
0.0725641
0.0726578
0.0726844
0.0727394
0.0727593
0.0728065
0.0728123
0.07283
0.0728445
0.0728645
0.0728646
0.0728731
0.0729048
0.0729232
0.072919
0.0729175
0.0729264
0.0729487
0.0729687
0.072985
0.0730076
0.0730112
0.0730199
0.07304
0.0731028
0.0731263
0.0731716
0.0731803
0.0731942
0.0731922
0.0732022
0.0732484
0.0732422
0.0732661
0.0732322
0.0752301
0.000354996
0.00408376
0.0117502
0.0238662
0.0344756
0.0463815
0.0551768
0.0629422
0.0673618
0.0707389
0.0721487
0.0732401
0.0734763
0.0737206
0.0736957
0.0737507
0.0737422
0.07381
0.0738288
0.0739114
0.073926
0.0739853
0.0739981
0.0740588
0.0740905
0.0741781
0.0742051
0.0742614
0.0742847
0.0743253
0.074327
0.0743439
0.0743636
0.0743844
0.0743836
0.0743943
0.0744208
0.0744412
0.0744411
0.0744407
0.0744371
0.0744362
0.0744554
0.0744839
0.0744959
0.0744935
0.0745012
0.0745324
0.0746102
0.0746259
0.0746371
0.0746336
0.0746608
0.0746759
0.0747199
0.0747244
0.0747692
0.0747908
0.0748594
0.076769
0.000351669
0.00403612
0.0116041
0.0235909
0.0340006
0.0457715
0.0544486
0.0621567
0.0665264
0.0698792
0.0712659
0.0723393
0.0725591
0.0727834
0.0727468
0.0727865
0.0727566
0.0728072
0.0728093
0.0728727
0.0728872
0.0729482
0.0729611
0.0730228
0.0730556
0.0731453
0.0731721
0.0732291
0.0732498
0.0733003
0.0733119
0.0733325
0.0733422
0.0733614
0.0733612
0.073368
0.0733962
0.0734139
0.0734102
0.0734079
0.0734147
0.0734349
0.0734603
0.0734723
0.073484
0.0734817
0.0734884
0.0735115
0.0735801
0.073605
0.0736415
0.073651
0.073685
0.0736948
0.0737014
0.0737023
0.0737108
0.0737573
0.0737712
0.0755614
0.000352782
0.00405551
0.0116679
0.0237237
0.0342427
0.0460872
0.0548293
0.0625709
0.0669673
0.0703331
0.0717298
0.0728104
0.0730365
0.0732687
0.0732368
0.073284
0.073265
0.0733228
0.0733299
0.0733963
0.0734091
0.0734674
0.0734798
0.0735407
0.0735731
0.0736619
0.0736889
0.0737459
0.0737675
0.0738127
0.0738166
0.0738336
0.0738511
0.0738712
0.0738704
0.0738804
0.0739062
0.0739288
0.0739287
0.0739284
0.0739248
0.0739254
0.0739487
0.0739744
0.0739853
0.0739833
0.0739911
0.0740228
0.0740999
0.0741158
0.0741264
0.0741231
0.0741476
0.0741668
0.0742146
0.074223
0.0742537
0.0742905
0.0743386
0.0761503
0.000352783
0.00405548
0.011668
0.0237236
0.0342426
0.0460874
0.0548292
0.0625709
0.0669674
0.0703331
0.0717297
0.0728104
0.0730366
0.0732687
0.0732368
0.0732838
0.0732648
0.0733226
0.0733299
0.0733966
0.0734093
0.0734673
0.0734798
0.0735409
0.0735733
0.0736619
0.0736889
0.073746
0.0737676
0.0738123
0.073816
0.073833
0.0738507
0.0738712
0.0738704
0.0738806
0.0739058
0.073929
0.0739289
0.0739285
0.0739257
0.0739307
0.0739546
0.0739618
0.0739753
0.0740238
0.0740727
0.0740713
0.0740779
0.0740911
0.0741177
0.0741144
0.0741286
0.074152
0.0742119
0.0742246
0.0742589
0.0742933
0.0743402
0.076151
0.000351669
0.00403608
0.0116043
0.0235909
0.0340004
0.0457718
0.0544485
0.0621566
0.0665265
0.0698793
0.0712658
0.0723392
0.0725592
0.0727835
0.0727469
0.0727866
0.0727568
0.0728075
0.0728097
0.0728732
0.0728876
0.0729484
0.0729612
0.0730232
0.0730559
0.0731455
0.0731726
0.0732299
0.0732512
0.0732983
0.0733037
0.0733214
0.0733379
0.0733586
0.0733579
0.0733678
0.073393
0.0734179
0.0734179
0.0734176
0.0734152
0.0734203
0.0734444
0.0734517
0.0734655
0.073515
0.0735652
0.073564
0.0735708
0.073584
0.0736126
0.0736118
0.0736223
0.0736457
0.0737002
0.0737406
0.0737517
0.0737722
0.0737723
0.0755535
0.000354996
0.00408375
0.0117503
0.0238662
0.0344756
0.0463815
0.0551768
0.0629422
0.0673618
0.0707389
0.0721487
0.0732401
0.0734763
0.0737206
0.0736957
0.0737507
0.0737423
0.0738101
0.0738288
0.0739114
0.073926
0.0739853
0.073998
0.0740587
0.0740903
0.0741774
0.0742043
0.074261
0.0742831
0.0743265
0.0743294
0.0743461
0.0743647
0.0743853
0.0743845
0.0743948
0.07442
0.0744421
0.074442
0.0744415
0.0744385
0.0744436
0.0744674
0.0744737
0.0744879
0.074537
0.0745767
0.0745726
0.074578
0.0745889
0.0746244
0.0746253
0.0746412
0.0746574
0.0747167
0.07473
0.0747779
0.0747952
0.0748592
0.0767612
0.000352408
0.00402898
0.0116001
0.023457
0.0337251
0.0453852
0.0540269
0.0617159
0.066095
0.0694454
0.0708391
0.0719185
0.0721461
0.0723664
0.0723213
0.0723459
0.0722951
0.0723236
0.072308
0.072361
0.072376
0.0724438
0.0724605
0.0725291
0.0725641
0.0726578
0.0726846
0.07274
0.0727608
0.0728043
0.0728062
0.0728234
0.0728404
0.0728613
0.0728613
0.07287
0.0729027
0.0729224
0.0729181
0.0729171
0.0729266
0.072952
0.0729639
0.0729651
0.0729782
0.0730338
0.0730845
0.0730834
0.0730902
0.0731044
0.0731355
0.073136
0.0731486
0.0731896
0.073208
0.0732305
0.0732151
0.0732411
0.0732065
0.0751918
0.000367057
0.00433291
0.0130455
0.0255604
0.0378346
0.0515908
0.0632823
0.0729178
0.0790503
0.0830198
0.0847983
0.0856281
0.0857139
0.0856841
0.0853455
0.0847607
0.0837165
0.0828298
0.0817317
0.0809289
0.0801885
0.07979
0.0795087
0.0794321
0.0794078
0.0794627
0.0795142
0.0795988
0.0796334
0.0797039
0.0797352
0.0797932
0.0798222
0.0798752
0.0798985
0.0799369
0.0799814
0.0800325
0.0800668
0.0801074
0.0801336
0.0801621
0.080211
0.0802778
0.0803231
0.0803744
0.0803887
0.0804267
0.080452
0.0805725
0.0805846
0.0807213
0.0806901
0.0810119
0.080919
0.0816815
0.0814574
0.0832181
0.0831931
0.0876406
0.00753911
0.046026
0.108325
0.176127
0.239049
0.291766
0.327942
0.350641
0.362341
0.367553
0.368673
0.368509
0.367824
0.366835
0.365799
0.36514
0.364717
0.364641
0.364887
0.365638
0.366587
0.367756
0.369063
0.370484
0.371983
0.37356
0.375172
0.376782
0.378389
0.380044
0.381687
0.383373
0.38501
0.386718
0.388352
0.390095
0.391729
0.393507
0.395133
0.396955
0.398568
0.400441
0.402035
0.403978
0.405531
0.407547
0.409056
0.411188
0.412576
0.414897
0.416082
0.418634
0.41968
0.422347
0.423082
0.425876
0.425819
0.428297
0.426176
0.431586
0.979765
2.35014
2.94685
3.14529
3.22311
3.23207
3.23619
3.22738
3.2229
3.21012
3.20494
3.19244
3.18774
3.17719
3.17353
3.16558
3.16394
3.16025
3.16092
3.16006
3.1617
3.16181
3.16394
3.1643
3.16616
3.16633
3.16767
3.16784
3.16905
3.16927
3.17037
3.17064
3.17166
3.17197
3.17294
3.1733
3.17423
3.17464
3.17552
3.17599
3.17683
3.17733
3.17814
3.17866
3.17947
3.17997
3.18082
3.18125
3.1822
3.1825
3.18359
3.1837
3.18479
3.18475
3.18487
3.18553
3.18271
3.18474
3.17088
3.23056
0.425936
1.69716
2.34416
2.62333
2.73392
2.77928
2.79587
2.80416
2.80673
2.80934
2.81013
2.8118
2.81242
2.81383
2.81426
2.81499
2.81484
2.81473
2.81392
2.81348
2.81296
2.81297
2.81304
2.81384
2.81516
2.81739
2.81946
2.82168
2.82327
2.82468
2.82549
2.82618
2.8265
2.82681
2.82693
2.82709
2.82716
2.82728
2.82734
2.82745
2.82752
2.82762
2.8277
2.82779
2.82788
2.82796
2.82805
2.82816
2.82823
2.82839
2.82843
2.82868
2.82872
2.82916
2.82946
2.82991
2.83118
2.83067
2.83227
2.86615
0.433565
1.67444
2.30827
2.58369
2.69219
2.73748
2.75327
2.76142
2.76312
2.76512
2.7651
2.76559
2.76547
2.76592
2.76594
2.7663
2.7662
2.76637
2.76643
2.76709
2.76759
2.768
2.7678
2.76746
2.7672
2.76774
2.76945
2.77228
2.77529
2.77846
2.78102
2.78313
2.78449
2.78546
2.78597
2.78633
2.78648
2.78663
2.78668
2.78677
2.7868
2.78687
2.78692
2.78698
2.78703
2.78708
2.78715
2.78719
2.78728
2.7873
2.78741
2.7874
2.78751
2.78744
2.78754
2.78744
2.78754
2.78741
2.78761
2.81482
0.424629
1.66932
2.30776
2.58491
2.69396
2.73929
2.75506
2.76316
2.76482
2.76672
2.76664
2.76704
2.76685
2.76723
2.76719
2.76749
2.7673
2.76738
2.76739
2.76801
2.76846
2.76884
2.76856
2.76803
2.76758
2.76793
2.76942
2.77224
2.77533
2.77871
2.78152
2.78391
2.78551
2.78668
2.78731
2.78775
2.78794
2.7881
2.78817
2.78825
2.78829
2.78836
2.7884
2.78846
2.78851
2.78856
2.78863
2.78867
2.78874
2.78879
2.78887
2.78893
2.78905
2.78909
2.78929
2.78928
2.78953
2.78941
2.78983
2.81585
0.429104
1.67045
2.30681
2.5833
2.69212
2.73736
2.75307
2.76112
2.76273
2.76458
2.76447
2.76485
2.76466
2.76505
2.76501
2.76528
2.76507
2.76515
2.7652
2.76588
2.76634
2.7667
2.76638
2.7658
2.76532
2.76565
2.76711
2.76993
2.77304
2.77647
2.77936
2.78182
2.78348
2.78469
2.78535
2.78581
2.78601
2.78618
2.78624
2.78633
2.78637
2.78644
2.78648
2.78654
2.78659
2.78664
2.7867
2.78674
2.78682
2.78685
2.78694
2.78695
2.78704
2.78704
2.78711
2.78711
2.78718
2.78716
2.7873
2.81231
0.426471
1.66938
2.30723
2.58424
2.69328
2.73856
2.75431
2.76236
2.76398
2.76581
2.76568
2.76605
2.76585
2.76623
2.76617
2.7664
2.76617
2.76626
2.76634
2.76703
2.76744
2.76772
2.76732
2.76675
2.76632
2.76673
2.7683
2.77114
2.77424
2.77763
2.78047
2.78289
2.78451
2.78569
2.78633
2.78679
2.78698
2.78715
2.78721
2.7873
2.78734
2.78741
2.78745
2.78751
2.78756
2.78761
2.78767
2.78772
2.78779
2.78784
2.78791
2.78795
2.78805
2.78808
2.7882
2.78822
2.78837
2.78837
2.7886
2.81375
0.426471
1.66938
2.30723
2.58424
2.69328
2.73856
2.75431
2.76236
2.76398
2.76581
2.76568
2.76605
2.76585
2.76623
2.76617
2.7664
2.76617
2.76626
2.76634
2.76703
2.76744
2.76772
2.76732
2.76675
2.76632
2.76673
2.7683
2.77114
2.77424
2.77763
2.78047
2.78289
2.78451
2.78569
2.78633
2.78679
2.78698
2.78715
2.78721
2.7873
2.78734
2.78741
2.78745
2.78751
2.78756
2.78761
2.78767
2.78772
2.78779
2.78784
2.78791
2.78795
2.78805
2.78809
2.78819
2.78822
2.78835
2.78837
2.78859
2.81374
0.429104
1.67045
2.30681
2.5833
2.69212
2.73736
2.75307
2.76112
2.76273
2.76458
2.76447
2.76485
2.76466
2.76505
2.76501
2.76528
2.76507
2.76515
2.7652
2.76588
2.76634
2.7667
2.76638
2.7658
2.76532
2.76565
2.76711
2.76993
2.77304
2.77647
2.77936
2.78182
2.78348
2.78469
2.78535
2.78581
2.78601
2.78618
2.78624
2.78633
2.78637
2.78644
2.78648
2.78654
2.78659
2.78664
2.7867
2.78675
2.78682
2.78686
2.78694
2.78696
2.78702
2.78703
2.78707
2.78711
2.78712
2.78716
2.78728
2.8123
0.424629
1.66932
2.30776
2.58491
2.69396
2.73929
2.75506
2.76316
2.76482