/*--------------------------------*- C++ -*----------------------------------*\
  =========                 |
  \\      /  F ield         | OpenFOAM: The Open Source CFD Toolbox
   \\    /   O peration     | Website:  https://openfoam.org
    \\  /    A nd           | Version:  7
     \\/     M anipulation  |
\*---------------------------------------------------------------------------*/
FoamFile
{
    version     2.0;
    format      ascii;
    class       volScalarField;
    location    "2.9";
    object      k_0;
}
// * * * * * * * * * * * * * * * * * * * * * * * * * * * * * * * * * * * * * //

dimensions      [0 2 -2 0 0 0 0];

internalField   nonuniform List<scalar> 
6000
(
0.00759878
0.0408968
0.107685
0.197494
0.301091
0.408858
0.513317
0.608392
0.691072
0.759223
0.813529
0.853814
0.883022
0.900666
0.911691
0.91282
0.91059
0.904819
0.894595
0.881998
0.867708
0.852263
0.83609
0.81952
0.802811
0.78616
0.769716
0.75359
0.737863
0.722595
0.707826
0.693582
0.679881
0.666726
0.65412
0.642055
0.630523
0.619512
0.609005
0.598986
0.589436
0.580337
0.571668
0.563409
0.555542
0.548048
0.540907
0.5341
0.527611
0.521422
0.515514
0.509873
0.504482
0.499326
0.494389
0.489658
0.485121
0.480764
0.476578
0.472552
0.468676
0.464941
0.461337
0.457857
0.454493
0.451237
0.448084
0.445026
0.44206
0.43918
0.43638
0.433653
0.430996
0.428406
0.425879
0.423414
0.421004
0.418648
0.416344
0.414085
0.411874
0.409706
0.407581
0.405489
0.403441
0.401415
0.399441
0.397467
0.395571
0.39362
0.391821
0.389839
0.388189
0.386063
0.384635
0.382205
0.380895
0.378187
0.37576
0.380001
2.6527e-05
0.000161677
0.000768767
0.00238694
0.00583557
0.0118878
0.0208813
0.0324137
0.046357
0.0617752
0.0782901
0.0948904
0.111322
0.12679
0.141263
0.154322
0.165924
0.176153
0.184982
0.192497
0.198811
0.204049
0.20834
0.211809
0.214577
0.21675
0.21843
0.2197
0.220641
0.221312
0.221778
0.222079
0.222265
0.222359
0.222403
0.2224
0.222392
0.222374
0.222373
0.222383
0.222411
0.222469
0.222557
0.222676
0.222825
0.223004
0.223212
0.223448
0.223708
0.223991
0.224293
0.224613
0.224947
0.225293
0.225647
0.226008
0.226373
0.22674
0.227106
0.227472
0.227833
0.22819
0.22854
0.228883
0.229215
0.22954
0.229852
0.230155
0.230445
0.230726
0.230991
0.231246
0.231485
0.231712
0.231924
0.232126
0.23231
0.232487
0.232645
0.232797
0.232929
0.233058
0.233167
0.233276
0.233362
0.233454
0.233518
0.233596
0.233641
0.233708
0.233737
0.233795
0.233816
0.233868
0.233876
0.233916
0.23388
0.233883
0.233707
0.234066
2.0018e-05
2.01698e-05
2.13899e-05
2.6851e-05
4.45706e-05
9.00904e-05
0.000189765
0.000378885
0.000708659
0.00119191
0.00187251
0.00275065
0.00383939
0.00512145
0.00658135
0.00819256
0.00992333
0.0117422
0.0136188
0.0155216
0.0174251
0.0193031
0.0211374
0.022909
0.0246087
0.0262249
0.0277553
0.0291929
0.0305397
0.0317914
0.0329538
0.0340254
0.0350153
0.0359226
0.0367582
0.0375213
0.0382234
0.0388632
0.0394532
0.0399908
0.0404885
0.0409419
0.0413649
0.0417507
0.0421147
0.0424486
0.0427689
0.0430641
0.0433524
0.0436195
0.0438855
0.0441334
0.0443863
0.0446235
0.0448708
0.0451035
0.0453506
0.0455831
0.045834
0.0460697
0.0463285
0.0465712
0.0468413
0.047093
0.047376
0.0476375
0.0479348
0.0482073
0.0485207
0.0488048
0.049135
0.0494305
0.0497779
0.0500842
0.0504492
0.050766
0.051149
0.0514754
0.051877
0.052212
0.052632
0.0529741
0.0534129
0.0537609
0.0542195
0.0545727
0.0550523
0.0554097
0.055912
0.0562723
0.0567986
0.0571607
0.0577149
0.0580788
0.0586665
0.0590337
0.0596658
0.0600477
0.0607495
0.061191
2.00615e-05
2.00512e-05
2.00545e-05
2.00729e-05
2.01389e-05
2.03374e-05
2.08616e-05
2.20874e-05
2.48744e-05
2.96415e-05
4.01594e-05
5.23537e-05
7.79085e-05
0.000103919
0.000150291
0.000198884
0.000270176
0.000345355
0.000444213
0.000546993
0.000673116
0.000802017
0.00095245
0.0011031
0.00127277
0.00143989
0.00162385
0.00180237
0.0019953
0.00217955
0.00237566
0.00256028
0.00275513
0.0029364
0.00312669
0.00330138
0.00348437
0.00365046
0.00382475
0.00398136
0.00414616
0.00429203
0.00444628
0.00458049
0.00472381
0.00484691
0.00498045
0.00509342
0.00521744
0.00532017
0.00543462
0.0055273
0.0056334
0.00571777
0.00581723
0.00589449
0.00598797
0.00605847
0.0061463
0.00621032
0.00629326
0.00635219
0.00643147
0.0064861
0.00656247
0.00661308
0.00668664
0.00673394
0.00680598
0.00685069
0.0069218
0.00696496
0.00703559
0.00707672
0.00714711
0.00718702
0.00725767
0.00729662
0.00736796
0.00740664
0.00747928
0.00751785
0.00759155
0.00762984
0.00770479
0.00774326
0.00781994
0.00785948
0.00793876
0.00797987
0.00806244
0.00810535
0.00819172
0.00823698
0.00832889
0.00837775
0.00847853
0.00853352
0.00865119
0.00871843
2.00776e-05
2.00633e-05
2.00599e-05
2.00651e-05
2.00817e-05
2.01101e-05
2.01723e-05
2.02277e-05
2.0345e-05
2.04425e-05
2.06547e-05
2.08373e-05
2.12437e-05
2.15992e-05
2.23804e-05
2.30446e-05
2.44776e-05
2.56075e-05
2.80098e-05
2.97594e-05
3.34367e-05
3.59336e-05
4.11295e-05
4.44468e-05
5.12894e-05
5.5447e-05
6.39735e-05
6.89588e-05
7.91335e-05
8.48795e-05
9.65437e-05
0.000102932
0.000115839
0.000122745
0.000136561
0.000144065
0.000158445
0.000166505
0.000181206
0.000189651
0.000204635
0.000213303
0.000228503
0.000237192
0.000252335
0.000260981
0.000276173
0.000284889
0.000299991
0.000308653
0.00032361
0.000332
0.000346709
0.000354936
0.000369604
0.000377785
0.00039237
0.000400446
0.000414841
0.00042266
0.000436814
0.000444449
0.00045848
0.000466019
0.000479926
0.000487298
0.000500948
0.000508067
0.000521586
0.0005286
0.000542077
0.000549077
0.000562499
0.000569358
0.000582593
0.000589344
0.000602453
0.000609108
0.000622157
0.000628811
0.000641847
0.000648469
0.000661426
0.000667923
0.000680711
0.000687078
0.000699748
0.00070608
0.000718788
0.00072521
0.000738148
0.000744685
0.000757823
0.000764451
0.00077782
0.000784664
0.000798626
0.000805975
0.000821441
0.000829854
2.00882e-05
2.00752e-05
2.00654e-05
2.00685e-05
2.00803e-05
2.01041e-05
2.01572e-05
2.02034e-05
2.03017e-05
2.03696e-05
2.05113e-05
2.0598e-05
2.07762e-05
2.08772e-05
2.10832e-05
2.11944e-05
2.142e-05
2.15383e-05
2.17782e-05
2.19024e-05
2.21543e-05
2.2284e-05
2.25479e-05
2.2684e-05
2.2962e-05
2.3106e-05
2.34014e-05
2.35552e-05
2.38711e-05
2.40362e-05
2.43758e-05
2.45535e-05
2.49189e-05
2.51098e-05
2.55017e-05
2.57065e-05
2.61259e-05
2.63447e-05
2.67918e-05
2.70251e-05
2.75012e-05
2.77489e-05
2.82535e-05
2.85146e-05
2.90448e-05
2.93178e-05
2.98724e-05
3.01582e-05
3.07384e-05
3.10365e-05
3.16402e-05
3.19481e-05
3.25705e-05
3.2888e-05
3.35305e-05
3.386e-05
3.45279e-05
3.48702e-05
3.55625e-05
3.59146e-05
3.66245e-05
3.69842e-05
3.77098e-05
3.80786e-05
3.88231e-05
3.92012e-05
3.99635e-05
4.03492e-05
4.11264e-05
4.15202e-05
4.23149e-05
4.27193e-05
4.3536e-05
4.39509e-05
4.47876e-05
4.5211e-05
4.60631e-05
4.64933e-05
4.73597e-05
4.77983e-05
4.86824e-05
4.91298e-05
5.00308e-05
5.04847e-05
5.13966e-05
5.18548e-05
5.27743e-05
5.32373e-05
5.41693e-05
5.46423e-05
5.55974e-05
5.60855e-05
5.7071e-05
5.75737e-05
5.85798e-05
5.91216e-05
6.01445e-05
6.07213e-05
6.17934e-05
6.245e-05
2.00869e-05
2.00759e-05
2.00659e-05
2.00692e-05
2.00809e-05
2.01048e-05
2.01581e-05
2.02045e-05
2.03029e-05
2.0371e-05
2.05128e-05
2.05995e-05
2.07778e-05
2.08789e-05
2.1085e-05
2.1196e-05
2.14213e-05
2.15393e-05
2.17783e-05
2.19019e-05
2.21527e-05
2.22818e-05
2.25446e-05
2.26799e-05
2.29562e-05
2.30993e-05
2.33926e-05
2.35453e-05
2.38584e-05
2.40219e-05
2.43578e-05
2.45338e-05
2.48958e-05
2.50858e-05
2.54759e-05
2.56801e-05
2.60984e-05
2.6317e-05
2.67634e-05
2.69955e-05
2.74685e-05
2.77136e-05
2.82124e-05
2.8471e-05
2.89975e-05
2.92698e-05
2.98223e-05
3.01063e-05
3.06812e-05
3.09761e-05
3.15739e-05
3.1882e-05
3.25067e-05
3.28274e-05
3.34755e-05
3.38053e-05
3.44699e-05
3.48076e-05
3.54887e-05
3.58372e-05
3.65418e-05
3.69022e-05
3.763e-05
3.80006e-05
3.87472e-05
3.91266e-05
3.98911e-05
4.02797e-05
4.10622e-05
4.1459e-05
4.22573e-05
4.26608e-05
4.34714e-05
4.38803e-05
4.47023e-05
4.51181e-05
4.59548e-05
4.63778e-05
4.72279e-05
4.76561e-05
4.85155e-05
4.89479e-05
4.98159e-05
5.02555e-05
5.11409e-05
5.15905e-05
5.24959e-05
5.29542e-05
5.38754e-05
5.43375e-05
5.52635e-05
5.57274e-05
5.66584e-05
5.71273e-05
5.80723e-05
5.85539e-05
5.95321e-05
6.00362e-05
6.1073e-05
6.16152e-05
2.0075e-05
2.00651e-05
2.00614e-05
2.00668e-05
2.00836e-05
2.0112e-05
2.0174e-05
2.02294e-05
2.03466e-05
2.0443e-05
2.06525e-05
2.08317e-05
2.12309e-05
2.15788e-05
2.23475e-05
2.29977e-05
2.44121e-05
2.55206e-05
2.78993e-05
2.96201e-05
3.32661e-05
3.5722e-05
4.08732e-05
4.41481e-05
5.09628e-05
5.50846e-05
6.35909e-05
6.85191e-05
7.86193e-05
8.42827e-05
9.58425e-05
0.000102165
0.000115016
0.000121892
0.00013569
0.000143238
0.000157548
0.000165681
0.000180401
0.000188748
0.000203683
0.000212226
0.000227252
0.000235955
0.000251078
0.000259844
0.0002749
0.000283569
0.000298472
0.000307025
0.000321928
0.000330558
0.000345418
0.000353895
0.000368503
0.000376696
0.000391036
0.000399056
0.000413281
0.000421214
0.000435355
0.000443151
0.000457108
0.000464669
0.000478453
0.000485954
0.00049963
0.000507018
0.000520541
0.000527729
0.000541036
0.000548033
0.000561155
0.000567987
0.000581013
0.000587774
0.000600683
0.000607285
0.000620022
0.000626458
0.000639024
0.000645334
0.000657815
0.000664111
0.000676655
0.000683038
0.000695609
0.000701958
0.000714368
0.000720523
0.000732751
0.000738856
0.000751095
0.000757261
0.000769718
0.000776065
0.000789024
0.000795713
0.000809749
0.000817222
2.00568e-05
2.0054e-05
2.00568e-05
2.00742e-05
2.01368e-05
2.03255e-05
2.08275e-05
2.20084e-05
2.47161e-05
2.93683e-05
3.97416e-05
5.17179e-05
7.70584e-05
0.000102655
0.000148802
0.000196883
0.000267936
0.00034261
0.000441273
0.000543657
0.000669423
0.000797501
0.000947535
0.00109771
0.00126773
0.00143482
0.00161876
0.00179653
0.0019886
0.00217182
0.00236761
0.00255192
0.00274698
0.00292809
0.00311872
0.00329367
0.00347732
0.00364378
0.00381837
0.00397416
0.00413845
0.00428339
0.00443747
0.00457171
0.00471555
0.0048386
0.0049718
0.00508369
0.00520701
0.00530912
0.0054242
0.00551777
0.0056251
0.00570984
0.00580936
0.00588584
0.00597857
0.00604836
0.00613597
0.00620011
0.00628352
0.00634249
0.00642193
0.00647636
0.0065527
0.0066036
0.00667756
0.0067253
0.00679749
0.00684217
0.00691288
0.00695517
0.0070249
0.00706531
0.0071347
0.00717383
0.00724326
0.0072813
0.00735096
0.00738818
0.00745843
0.00749544
0.00756697
0.00760435
0.00767745
0.00771527
0.00778994
0.00782824
0.00790423
0.00794305
0.0080207
0.0080606
0.00814085
0.00818244
0.00826691
0.00831106
0.00840266
0.00845165
0.00855787
0.00861765
2.00132e-05
2.01504e-05
2.12679e-05
2.64701e-05
4.36507e-05
8.82254e-05
0.000186675
0.000373424
0.000700817
0.00118178
0.00186007
0.00273498
0.00382053
0.00509967
0.00655759
0.00816705
0.00989671
0.0117147
0.0135909
0.0154927
0.0173948
0.019271
0.0211048
0.022877
0.0245785
0.0261957
0.027726
0.0291614
0.0305059
0.0317554
0.0329176
0.0339895
0.0349811
0.0358898
0.0367273
0.0374912
0.0381946
0.0388343
0.0394244
0.0399603
0.0404576
0.0409094
0.0413326
0.0417179
0.0420831
0.0424161
0.0427369
0.0430305
0.0433195
0.0435857
0.043854
0.0441022
0.0443576
0.0445936
0.0448419
0.0450718
0.0453197
0.0455496
0.0458026
0.0460366
0.0462983
0.0465384
0.0468111
0.0470594
0.0473453
0.0476032
0.0479038
0.0481717
0.0484882
0.0487662
0.0490994
0.0493872
0.0497378
0.0500354
0.0504042
0.0507108
0.0510977
0.051412
0.0518178
0.052139
0.052564
0.0528909
0.053336
0.0536668
0.0541317
0.054464
0.0549492
0.0552813
0.0557883
0.0561185
0.0566494
0.0569766
0.057533
0.0578561
0.0584414
0.0587636
0.0593846
0.0597217
0.0603929
0.0608005
2.49621e-05
0.000154452
0.000750201
0.00235406
0.00578865
0.0118249
0.0207989
0.0323117
0.0462412
0.0616519
0.0781609
0.0947548
0.111181
0.126648
0.141124
0.154188
0.165795
0.176028
0.18486
0.192377
0.198695
0.203936
0.208231
0.211705
0.214476
0.216652
0.218333
0.219603
0.220546
0.22122
0.22169
0.221996
0.222187
0.222285
0.222331
0.22233
0.222323
0.222305
0.222306
0.222317
0.222346
0.222405
0.222494
0.222615
0.222766
0.222948
0.223158
0.223395
0.223656
0.223941
0.224245
0.224567
0.224902
0.225248
0.225603
0.225964
0.226329
0.226697
0.227065
0.227431
0.227793
0.22815
0.228499
0.228841
0.229172
0.229495
0.229805
0.230107
0.230395
0.230673
0.230936
0.231186
0.231421
0.231645
0.231853
0.232051
0.232232
0.232404
0.232558
0.232705
0.232834
0.232956
0.233059
0.233159
0.233238
0.233318
0.233372
0.233434
0.233468
0.233516
0.233532
0.233564
0.233569
0.233583
0.233568
0.233563
0.233503
0.233451
0.233164
0.233456
0.00759115
0.0409053
0.1077
0.197522
0.301121
0.408892
0.513363
0.608453
0.691146
0.759307
0.81362
0.853911
0.883126
0.900774
0.911801
0.91293
0.910699
0.904926
0.894699
0.882098
0.867804
0.852357
0.836181
0.819609
0.802897
0.786242
0.769794
0.753664
0.737935
0.722665
0.707895
0.69365
0.679947
0.666791
0.654182
0.642115
0.630581
0.619567
0.609058
0.599038
0.589487
0.580387
0.571717
0.563458
0.555591
0.548097
0.540956
0.53415
0.527661
0.521471
0.515564
0.509923
0.504532
0.499376
0.494441
0.489711
0.485175
0.480821
0.476637
0.472614
0.46874
0.465008
0.461408
0.457931
0.454571
0.45132
0.448172
0.44512
0.442161
0.439288
0.436496
0.433778
0.431133
0.428556
0.426044
0.423592
0.4212
0.418862
0.416578
0.414343
0.412156
0.410014
0.407916
0.40586
0.403845
0.401865
0.399932
0.398017
0.396162
0.394293
0.392531
0.390667
0.38903
0.387085
0.385623
0.383457
0.382057
0.379691
0.37706
0.381438
0.713288
0.890121
0.925671
0.921258
0.907806
0.89075
0.874584
0.859927
0.846767
0.834653
0.823499
0.813215
0.803702
0.79485
0.786601
0.778894
0.771657
0.764846
0.758417
0.752353
0.746628
0.741219
0.736097
0.731252
0.726665
0.722311
0.718182
0.714261
0.71054
0.707006
0.703647
0.70045
0.697411
0.694519
0.691764
0.689139
0.686639
0.684253
0.681977
0.679806
0.677729
0.675741
0.673839
0.672021
0.670282
0.668615
0.667018
0.665483
0.664011
0.6626
0.661249
0.659955
0.658713
0.65752
0.656375
0.655278
0.654228
0.653224
0.652263
0.651343
0.650464
0.649623
0.648822
0.648058
0.647331
0.646639
0.645979
0.645352
0.644756
0.644191
0.643655
0.643147
0.642666
0.642211
0.64178
0.641373
0.64099
0.64063
0.64029
0.639972
0.639674
0.639396
0.639137
0.638896
0.638673
0.638467
0.638279
0.638107
0.637951
0.637812
0.637688
0.637579
0.637484
0.637403
0.637337
0.637284
0.637244
0.637216
0.6372
0.637198
0.637206
0.637224
0.637254
0.637294
0.637343
0.637401
0.637467
0.637542
0.637625
0.637716
0.637814
0.637919
0.638031
0.638148
0.638271
0.6384
0.638535
0.638674
0.638819
0.638968
0.639122
0.63928
0.639442
0.639608
0.639777
0.63995
0.640127
0.640307
0.640489
0.640675
0.640863
0.641054
0.641246
0.641441
0.641638
0.641836
0.642036
0.642237
0.64244
0.642644
0.642848
0.643053
0.643259
0.643465
0.643671
0.643878
0.644084
0.644291
0.644497
0.644703
0.644909
0.645114
0.645319
0.645523
0.645727
0.64593
0.646132
0.646333
0.646534
0.646734
0.646933
0.647131
0.647329
0.647525
0.647721
0.647916
0.64811
0.648303
0.648495
0.648686
0.648876
0.649065
0.649253
0.64944
0.649626
0.649811
0.649996
0.650179
0.650361
0.650541
0.650721
0.6509
0.651077
0.651253
0.651428
0.651602
0.651775
0.651946
0.652117
0.652286
0.652454
0.65262
0.652786
0.652951
0.653114
0.653276
0.653438
0.653598
0.653757
0.653915
0.654073
0.65423
0.654385
0.65454
0.654695
0.654848
0.655001
0.655153
0.655304
0.655455
0.655605
0.655755
0.655904
0.656053
0.6562
0.656348
0.656495
0.656641
0.656787
0.656932
0.657076
0.65722
0.657364
0.657506
0.657649
0.65779
0.657931
0.658072
0.658212
0.658352
0.658491
0.658629
0.658767
0.658905
0.659042
0.659179
0.659316
0.659452
0.659588
0.659724
0.65986
0.659996
0.660132
0.660267
0.660403
0.660539
0.660674
0.66081
0.660946
0.661082
0.661218
0.661354
0.66149
0.661627
0.661764
0.6619
0.662037
0.662174
0.662311
0.662449
0.662586
0.662723
0.662861
0.662999
0.663137
0.663275
0.663413
0.663551
0.66369
0.663828
0.663967
0.664106
0.664246
0.664385
0.664525
0.664666
0.664807
0.664948
0.66509
0.665232
0.665375
0.665519
0.665663
0.665808
0.665953
0.666099
0.666246
0.666394
0.666542
0.666692
0.666841
0.666992
0.667144
0.667296
0.667449
0.667603
0.667757
0.667912
0.668068
0.668225
0.668382
0.66854
0.668699
0.668858
0.669018
0.669179
0.66934
0.669503
0.669666
0.669829
0.669994
0.670159
0.670325
0.670492
0.670659
0.670828
0.670998
0.671168
0.67134
0.671512
0.671686
0.67186
0.672036
0.672212
0.67239
0.672569
0.672749
0.67293
0.673112
0.673295
0.673479
0.673665
0.673851
0.674038
0.674227
0.674416
0.674607
0.674798
0.67499
0.675183
0.675377
0.675572
0.675768
0.675965
0.676162
0.676361
0.67656
0.67676
0.67696
0.677162
0.677364
0.677568
0.677772
0.677977
0.678183
0.678389
0.678597
0.678805
0.679015
0.679225
0.679437
0.679649
0.679862
0.680076
0.680291
0.680507
0.680724
0.680942
0.681161
0.681381
0.681601
0.681823
0.682045
0.682268
0.682492
0.682717
0.682942
0.683168
0.683395
0.683623
0.683851
0.68408
0.684309
0.68454
0.684768
0.685002
0.68523
0.685467
0.685693
0.685936
0.686156
0.68641
0.686618
0.686891
0.687076
0.687383
0.687535
0.687882
0.687996
0.688407
0.322759
0.491529
0.612434
0.68673
0.725152
0.742381
0.746106
0.744546
0.740314
0.733669
0.726531
0.719348
0.712367
0.705726
0.699474
0.69362
0.688161
0.683082
0.678351
0.673944
0.669843
0.666027
0.662471
0.659147
0.656032
0.65311
0.650367
0.647782
0.645343
0.643043
0.640873
0.638823
0.636886
0.635052
0.633318
0.631674
0.630118
0.628649
0.627261
0.625944
0.624696
0.623514
0.622396
0.621338
0.620335
0.619386
0.618487
0.617637
0.616834
0.616074
0.615355
0.614676
0.614035
0.613432
0.612863
0.61233
0.611829
0.611362
0.610925
0.610519
0.610141
0.609791
0.609468
0.609172
0.608901
0.608655
0.608432
0.608231
0.608053
0.607895
0.607759
0.60764
0.60754
0.607459
0.607395
0.607347
0.607313
0.607296
0.607294
0.6073
0.607319
0.607357
0.607406
0.607466
0.607538
0.607619
0.607711
0.607814
0.607927
0.60805
0.608181
0.608322
0.608472
0.60863
0.608797
0.608972
0.609154
0.609344
0.609541
0.609744
0.609954
0.610171
0.610394
0.610623
0.610857
0.611097
0.611342
0.611592
0.611846
0.612104
0.612366
0.612633
0.612902
0.613176
0.613452
0.613732
0.614014
0.614299
0.614587
0.614877
0.615169
0.615464
0.61576
0.616058
0.616358
0.61666
0.616963
0.617267
0.617573
0.61788
0.618188
0.618498
0.618808
0.619119
0.619431
0.619743
0.620056
0.62037
0.620684
0.620999
0.621313
0.621629
0.621944
0.622259
0.622574
0.62289
0.623205
0.623519
0.623834
0.624147
0.624461
0.624773
0.625086
0.625397
0.625708
0.626018
0.626327
0.626635
0.626942
0.627248
0.627553
0.627857
0.62816
0.628462
0.628763
0.629062
0.629361
0.629659
0.629955
0.630251
0.630546
0.63084
0.631132
0.631424
0.631715
0.632005
0.632294
0.632582
0.63287
0.633156
0.633442
0.633726
0.63401
0.634293
0.634575
0.634856
0.635137
0.635416
0.635694
0.635971
0.636247
0.636523
0.636797
0.63707
0.637342
0.637613
0.637883
0.638152
0.638419
0.638686
0.638952
0.639217
0.639481
0.639744
0.640006
0.640268
0.640528
0.640788
0.641047
0.641306
0.641564
0.641822
0.642079
0.642335
0.642591
0.642847
0.643102
0.643357
0.643611
0.643865
0.644119
0.644372
0.644625
0.644877
0.645129
0.645381
0.645632
0.645882
0.646132
0.646382
0.646631
0.64688
0.647128
0.647375
0.647622
0.647868
0.648114
0.64836
0.648605
0.648849
0.649093
0.649337
0.64958
0.649823
0.650066
0.650308
0.65055
0.650792
0.651034
0.651276
0.651518
0.651759
0.652001
0.652243
0.652484
0.652726
0.652968
0.653209
0.653451
0.653693
0.653934
0.654176
0.654418
0.654659
0.654901
0.655142
0.655383
0.655624
0.655865
0.656106
0.656347
0.656587
0.656827
0.657067
0.657307
0.657546
0.657785
0.658024
0.658263
0.658502
0.658741
0.65898
0.659218
0.659457
0.659695
0.659934
0.660172
0.660411
0.66065
0.660889
0.661128
0.661367
0.661607
0.661846
0.662086
0.662327
0.662567
0.662807
0.663048
0.663289
0.66353
0.663771
0.664012
0.664253
0.664494
0.664736
0.664977
0.665218
0.665459
0.665701
0.665942
0.666183
0.666424
0.666665
0.666905
0.667146
0.667387
0.667627
0.667868
0.668108
0.668349
0.668589
0.66883
0.66907
0.669311
0.669552
0.669793
0.670034
0.670275
0.670516
0.670758
0.671
0.671242
0.671485
0.671727
0.67197
0.672213
0.672457
0.6727
0.672944
0.673188
0.673432
0.673676
0.67392
0.674164
0.674408
0.674653
0.674897
0.675141
0.675385
0.67563
0.675874
0.676118
0.676362
0.676605
0.676849
0.677093
0.677336
0.67758
0.677824
0.678067
0.678311
0.678554
0.678798
0.679042
0.679285
0.679529
0.679773
0.680018
0.680262
0.680507
0.680751
0.680996
0.681242
0.681487
0.681733
0.681978
0.682224
0.68247
0.682717
0.682963
0.68321
0.683455
0.683703
0.683948
0.684197
0.68444
0.684692
0.684931
0.685188
0.68542
0.685686
0.685905
0.686187
0.686385
0.686694
0.686861
0.687199
0.687351
0.687741
0.0708907
0.101279
0.139756
0.182905
0.226634
0.26683
0.301257
0.329595
0.352467
0.370485
0.384501
0.395304
0.403587
0.409933
0.414796
0.418537
0.421427
0.423676
0.42544
0.426826
0.427922
0.42879
0.429487
0.430047
0.430503
0.430878
0.431189
0.431451
0.43167
0.431857
0.432021
0.43217
0.432305
0.432434
0.432561
0.432687
0.432813
0.432945
0.433084
0.43323
0.433387
0.433552
0.433725
0.433906
0.434098
0.434299
0.434513
0.434737
0.43497
0.435209
0.435454
0.435705
0.435964
0.436231
0.436505
0.436784
0.437068
0.437355
0.437646
0.437942
0.438242
0.438546
0.438853
0.439164
0.439478
0.439795
0.440116
0.44044
0.440765
0.441094
0.441425
0.44176
0.442097
0.442437
0.442779
0.443122
0.443468
0.443816
0.444164
0.444513
0.444863
0.445214
0.445566
0.445918
0.446271
0.446622
0.446974
0.447324
0.447674
0.448023
0.448372
0.448719
0.449064
0.449409
0.449753
0.450095
0.450436
0.450775
0.451113
0.451451
0.451787
0.452122
0.452456
0.452788
0.45312
0.45345
0.45378
0.454109
0.454437
0.454765
0.455091
0.455416
0.45574
0.456062
0.456384
0.456705
0.457025
0.457343
0.457661
0.457977
0.458292
0.458606
0.458918
0.45923
0.45954
0.459848
0.460155
0.460461
0.460766
0.461069
0.461371
0.461672
0.461972
0.462271
0.462568
0.462865
0.46316
0.463455
0.463748
0.464041
0.464333
0.464624
0.464914
0.465204
0.465493
0.465782
0.46607
0.466358
0.466644
0.466931
0.467216
0.467501
0.467785
0.468069
0.468352
0.468634
0.468916
0.469197
0.469477
0.469756
0.470034
0.470312
0.470588
0.470864
0.471138
0.471411
0.471684
0.471955
0.472226
0.472495
0.472764
0.473032
0.473299
0.473565
0.47383
0.474094
0.474357
0.47462
0.474882
0.475143
0.475404
0.475664
0.475924
0.476183
0.476442
0.4767
0.476957
0.477214
0.477471
0.477727
0.477982
0.478237
0.478491
0.478744
0.478997
0.47925
0.479501
0.479752
0.480002
0.480251
0.480499
0.480747
0.480993
0.481239
0.481484
0.481727
0.48197
0.482213
0.482454
0.482694
0.482934
0.483173
0.483411
0.483648
0.483885
0.484121
0.484357
0.484592
0.484826
0.485061
0.485294
0.485528
0.485761
0.485993
0.486226
0.486458
0.486689
0.48692
0.487151
0.487381
0.487612
0.487841
0.48807
0.488299
0.488527
0.488755
0.488982
0.489209
0.489434
0.489659
0.489884
0.490108
0.490331
0.490553
0.490775
0.490996
0.491216
0.491436
0.491655
0.491874
0.492092
0.492309
0.492526
0.492743
0.492959
0.493175
0.493391
0.493606
0.493821
0.494036
0.494251
0.494465
0.49468
0.494894
0.495108
0.495322
0.495536
0.49575
0.495963
0.496176
0.49639
0.496602
0.496815
0.497027
0.497239
0.49745
0.497661
0.497872
0.498082
0.498291
0.4985
0.498709
0.498917
0.499124
0.499332
0.499538
0.499744
0.49995
0.500156
0.500361
0.500565
0.50077
0.500974
0.501178
0.501382
0.501585
0.501789
0.501992
0.502196
0.502399
0.502603
0.502806
0.503009
0.503213
0.503416
0.50362
0.503823
0.504026
0.50423
0.504433
0.504636
0.504839
0.505042
0.505244
0.505446
0.505648
0.50585
0.506051
0.506252
0.506453
0.506654
0.506853
0.507053
0.507252
0.507451
0.50765
0.507848
0.508046
0.508244
0.508442
0.508639
0.508836
0.509033
0.50923
0.509427
0.509624
0.509821
0.510018
0.510216
0.510413
0.51061
0.510807
0.511005
0.511202
0.5114
0.511597
0.511795
0.511993
0.51219
0.512388
0.512586
0.512784
0.512981
0.513178
0.513376
0.513573
0.51377
0.513966
0.514163
0.514359
0.514555
0.51475
0.514946
0.515141
0.515335
0.51553
0.515724
0.515919
0.516113
0.516307
0.5165
0.516694
0.516888
0.517081
0.517275
0.517469
0.517663
0.517857
0.51805
0.518245
0.518439
0.518634
0.518828
0.519024
0.519217
0.519415
0.519607
0.519807
0.519996
0.5202
0.520385
0.520595
0.520771
0.520992
0.521155
0.521391
0.521537
0.521791
0.52192
0.522229
0.00939527
0.0115623
0.0147741
0.0194045
0.0257413
0.0336568
0.0428481
0.0529674
0.0637086
0.0747704
0.0858848
0.0968398
0.107473
0.117669
0.127361
0.136507
0.145111
0.153175
0.160727
0.167783
0.174375
0.180529
0.186285
0.191666
0.196708
0.201436
0.205881
0.210065
0.214002
0.21771
0.221212
0.224524
0.227657
0.230623
0.233439
0.236112
0.23865
0.241064
0.243366
0.245559
0.247655
0.249663
0.251587
0.253432
0.255203
0.256905
0.258542
0.260122
0.261651
0.263128
0.264555
0.265937
0.267279
0.268583
0.269852
0.271085
0.272284
0.273449
0.274583
0.275687
0.276763
0.277811
0.278832
0.279828
0.280798
0.281745
0.28267
0.283573
0.284453
0.285313
0.286152
0.286972
0.287776
0.288562
0.289332
0.290085
0.290823
0.291547
0.292256
0.29295
0.293629
0.294296
0.294949
0.29559
0.296218
0.296833
0.297437
0.298027
0.298605
0.299172
0.299726
0.300268
0.300798
0.301317
0.301823
0.302318
0.302803
0.303277
0.303741
0.304194
0.304637
0.30507
0.305493
0.305907
0.306312
0.306709
0.307096
0.307477
0.307849
0.308215
0.308574
0.308925
0.309271
0.30961
0.309944
0.310271
0.310593
0.31091
0.311221
0.311527
0.311828
0.312125
0.312417
0.312705
0.312988
0.313267
0.313542
0.313812
0.314079
0.314342
0.3146
0.314856
0.315108
0.315356
0.315602
0.315844
0.316083
0.316319
0.316553
0.316784
0.317013
0.317239
0.317462
0.317684
0.317904
0.318122
0.318338
0.318553
0.318766
0.318979
0.319189
0.319399
0.319608
0.319815
0.320021
0.320227
0.320432
0.320636
0.320839
0.321042
0.321244
0.321445
0.321646
0.321846
0.322045
0.322244
0.322442
0.32264
0.322836
0.323033
0.323228
0.323423
0.323617
0.323811
0.324004
0.324196
0.324388
0.324579
0.324769
0.324959
0.325149
0.325337
0.325526
0.325714
0.325902
0.326089
0.326276
0.326464
0.32665
0.326837
0.327024
0.32721
0.327396
0.327583
0.327769
0.327955
0.328141
0.328328
0.328514
0.3287
0.328886
0.329072
0.329258
0.329443
0.329628
0.329813
0.329998
0.330182
0.330365
0.330549
0.330731
0.330914
0.331096
0.331277
0.331457
0.331637
0.331817
0.331996
0.332174
0.332352
0.33253
0.332707
0.332884
0.333061
0.333237
0.333413
0.333589
0.333764
0.33394
0.334115
0.33429
0.334465
0.33464
0.334815
0.33499
0.335164
0.335339
0.335514
0.335688
0.335862
0.336036
0.33621
0.336383
0.336555
0.336728
0.3369
0.337071
0.337242
0.337413
0.337583
0.337752
0.337921
0.338089
0.338257
0.338424
0.33859
0.338756
0.338921
0.339086
0.33925
0.339414
0.339578
0.339741
0.339904
0.340067
0.340229
0.340391
0.340553
0.340715
0.340877
0.341039
0.341201
0.341362
0.341524
0.341686
0.341847
0.342008
0.342169
0.34233
0.342491
0.342651
0.342811
0.342971
0.34313
0.343289
0.343448
0.343606
0.343763
0.343921
0.344077
0.344233
0.344389
0.344543
0.344698
0.344852
0.345005
0.345158
0.345311
0.345463
0.345615
0.345766
0.345918
0.346069
0.34622
0.346371
0.346521
0.346672
0.346822
0.346973
0.347123
0.347273
0.347424
0.347574
0.347725
0.347875
0.348026
0.348176
0.348326
0.348476
0.348626
0.348776
0.348925
0.349074
0.349223
0.349371
0.34952
0.349667
0.349815
0.349962
0.350108
0.350254
0.3504
0.350545
0.35069
0.350835
0.350979
0.351122
0.351266
0.351409
0.351552
0.351695
0.351838
0.35198
0.352123
0.352265
0.352408
0.35255
0.352693
0.352835
0.352978
0.35312
0.353263
0.353406
0.353549
0.353692
0.353835
0.353977
0.35412
0.354263
0.354406
0.354549
0.354691
0.354833
0.354976
0.355118
0.355259
0.355401
0.355542
0.355683
0.355823
0.355963
0.356103
0.356243
0.356382
0.356521
0.35666
0.356798
0.356937
0.357074
0.357214
0.35735
0.35749
0.357626
0.357766
0.357901
0.358043
0.358177
0.358321
0.358452
0.3586
0.358727
0.358881
0.359002
0.359164
0.359276
0.359449
0.35955
0.359734
0.359827
0.360052
0.000879344
0.00100965
0.00117479
0.00138699
0.00168886
0.00210896
0.00267364
0.0034049
0.00432349
0.00544627
0.0067828
0.00833372
0.0100954
0.0120514
0.0141898
0.0164913
0.018941
0.0215213
0.0242163
0.0270096
0.0298885
0.032833
0.0358338
0.038874
0.0419452
0.0450328
0.0481317
0.0512347
0.0543319
0.0574153
0.0604797
0.0635212
0.0665333
0.0695114
0.0724533
0.0753584
0.0782196
0.0810362
0.0838075
0.0865307
0.0892043
0.0918312
0.0944089
0.0969385
0.0994202
0.101855
0.104242
0.106585
0.108882
0.111135
0.113341
0.115499
0.117612
0.119681
0.121706
0.123688
0.125624
0.127517
0.129365
0.131169
0.132931
0.134649
0.136322
0.13795
0.139535
0.141076
0.142575
0.144032
0.145448
0.146822
0.148156
0.14945
0.150705
0.151921
0.1531
0.154243
0.15535
0.156424
0.157464
0.158472
0.159449
0.160395
0.161313
0.162201
0.163061
0.163894
0.164701
0.165482
0.166239
0.166971
0.16768
0.168366
0.16903
0.169672
0.170292
0.170891
0.17147
0.172028
0.172567
0.173087
0.173589
0.174072
0.174538
0.174988
0.175422
0.17584
0.176243
0.176632
0.177006
0.177368
0.177716
0.178052
0.178377
0.17869
0.178993
0.179287
0.17957
0.179845
0.18011
0.180367
0.180616
0.180857
0.18109
0.181317
0.181537
0.18175
0.181958
0.182159
0.182355
0.182546
0.182731
0.182912
0.183087
0.183258
0.183424
0.183586
0.183743
0.183897
0.184047
0.184194
0.184337
0.184477
0.184613
0.184747
0.184877
0.185005
0.185129
0.185252
0.185372
0.185489
0.185605
0.185719
0.185831
0.185942
0.186051
0.186159
0.186266
0.186371
0.186475
0.186578
0.186681
0.186783
0.186884
0.186986
0.187087
0.187187
0.187288
0.187388
0.187488
0.187587
0.187687
0.187786
0.187885
0.187984
0.188083
0.188182
0.18828
0.188379
0.188477
0.188575
0.188673
0.18877
0.188867
0.188964
0.18906
0.189157
0.189253
0.189349
0.189444
0.18954
0.189636
0.189732
0.189828
0.189924
0.19002
0.190116
0.190212
0.190309
0.190406
0.190504
0.190602
0.190701
0.190801
0.1909
0.191001
0.191102
0.191203
0.191305
0.191407
0.191509
0.191612
0.191714
0.191818
0.191921
0.192024
0.192128
0.192231
0.192335
0.192438
0.192541
0.192643
0.192746
0.192848
0.19295
0.193052
0.193154
0.193255
0.193356
0.193458
0.193559
0.19366
0.193761
0.193862
0.193963
0.194065
0.194166
0.194268
0.19437
0.194472
0.194575
0.194678
0.194782
0.194885
0.194989
0.195093
0.195198
0.195302
0.195407
0.195512
0.195616
0.195721
0.195826
0.195931
0.196035
0.196139
0.196243
0.196347
0.19645
0.196553
0.196655
0.196757
0.196859
0.19696
0.19706
0.197161
0.197261
0.19736
0.19746
0.197559
0.197658
0.197757
0.197855
0.197954