/*--------------------------------*- C++ -*----------------------------------*\
  =========                 |
  \\      /  F ield         | OpenFOAM: The Open Source CFD Toolbox
   \\    /   O peration     | Website:  https://openfoam.org
    \\  /    A nd           | Version:  7
     \\/     M anipulation  |
\*---------------------------------------------------------------------------*/
FoamFile
{
    version     2.0;
    format      ascii;
    class       volVectorField;
    location    "2.9475";
    object      U;
}
// * * * * * * * * * * * * * * * * * * * * * * * * * * * * * * * * * * * * * //

dimensions      [0 1 -1 0 0 0 0];

internalField   nonuniform List<vector> 
7920
(
(2.92996 0.101917 -32.3845)
(2.10481 -0.462207 -32.4389)
(1.39258 -0.616796 -32.4406)
(1.28411 -0.673063 -32.4503)
(1.05002 -0.689899 -32.4468)
(1.07601 -0.694861 -32.4527)
(0.9355 -0.698973 -32.4493)
(0.980856 -0.699182 -32.4535)
(0.875945 -0.701421 -32.4508)
(0.920934 -0.701172 -32.454)
(0.837536 -0.702733 -32.4518)
(0.878291 -0.702221 -32.4543)
(0.810404 -0.703188 -32.4527)
(0.846222 -0.702608 -32.4546)
(0.790239 -0.702966 -32.4537)
(0.82112 -0.703045 -32.4547)
(0.773667 -0.699099 -32.4549)
(0.795205 -0.705601 -32.4543)
(0.76067 -0.647061 -32.4577)
(0.589461 -0.659704 -32.4477)
(4.41121 0.967679 -32.4313)
(4.33366 0.872999 -32.4768)
(3.68123 0.818731 -32.4811)
(3.53348 0.751699 -32.4944)
(3.13397 0.724047 -32.4941)
(3.12864 0.710707 -32.5012)
(2.86633 0.704204 -32.4998)
(2.90847 0.700769 -32.504)
(2.71306 0.698708 -32.5029)
(2.7655 0.69702 -32.5057)
(2.61078 0.695933 -32.5047)
(2.6626 0.694754 -32.5066)
(2.5367 0.694069 -32.5061)
(2.58461 0.693104 -32.5072)
(2.48039 0.692461 -32.5078)
(2.5251 0.692511 -32.5074)
(2.43238 0.689298 -32.5107)
(2.49334 0.69414 -32.5053)
(2.37306 0.684484 -32.5188)
(2.64922 0.676474 -32.4798)
(4.75175 0.193197 -32.4357)
(5.25801 -0.229115 -32.4713)
(5.11337 -0.375252 -32.4638)
(5.22506 -0.493857 -32.4762)
(4.98056 -0.558902 -32.4717)
(5.03063 -0.59566 -32.481)
(4.8165 -0.620162 -32.4772)
(4.85929 -0.63402 -32.4843)
(4.68309 -0.644625 -32.4812)
(4.72366 -0.651305 -32.4865)
(4.57893 -0.656759 -32.4842)
(4.61678 -0.660789 -32.488)
(4.49713 -0.66392 -32.4867)
(4.53133 -0.666645 -32.4891)
(4.43266 -0.668738 -32.4896)
(4.45977 -0.66972 -32.4897)
(4.38526 -0.672952 -32.4937)
(4.38554 -0.668862 -32.4887)
(4.35944 -0.669696 -32.5008)
(4.26429 -0.691 -32.4687)
(4.7528 0.649446 -32.4457)
(5.28432 0.749756 -32.4783)
(5.38495 0.797089 -32.4688)
(5.69021 0.767443 -32.4774)
(5.63156 0.749589 -32.4723)
(5.80348 0.735279 -32.4794)
(5.70995 0.724968 -32.476)
(5.8226 0.716957 -32.4815)
(5.72821 0.710901 -32.4791)
(5.80957 0.705301 -32.4831)
(5.72311 0.70135 -32.4817)
(5.78556 0.697177 -32.4844)
(5.70848 0.694684 -32.4839)
(5.75933 0.691214 -32.4853)
(5.68956 0.690355 -32.4862)
(5.73658 0.686381 -32.4861)
(5.66625 0.689347 -32.4888)
(5.72791 0.682109 -32.4867)
(5.63855 0.696762 -32.4922)
(5.78079 0.707084 -32.4664)
(4.74488 -0.0881716 -32.4447)
(5.24783 -0.387239 -32.4771)
(5.40567 -0.48 -32.4644)
(5.76649 -0.545944 -32.473)
(5.77736 -0.581894 -32.4652)
(6.00965 -0.60199 -32.4723)
(5.98299 -0.616334 -32.4668)
(6.14846 -0.624347 -32.4725)
(6.11335 -0.63128 -32.4684)
(6.23841 -0.635672 -32.4729)
(6.2025 -0.639881 -32.4699)
(6.29996 -0.642927 -32.4732)
(6.26561 -0.646034 -32.4712)
(6.34306 -0.647923 -32.4736)
(6.31159 -0.65149 -32.4726)
(6.37255 -0.650051 -32.4742)
(6.34851 -0.659256 -32.4742)
(6.38702 -0.648095 -32.4753)
(6.38355 -0.671599 -32.4762)
(6.38276 -0.693667 -32.4544)
(4.73235 0.352132 -32.4484)
(5.19115 0.557275 -32.4814)
(5.35902 0.635788 -32.4685)
(5.73528 0.656013 -32.4771)
(5.77002 0.666294 -32.4687)
(6.02607 0.669643 -32.4757)
(6.02619 0.671827 -32.4697)
(6.21622 0.671936 -32.4752)
(6.20845 0.672269 -32.4707)
(6.35703 0.671523 -32.475)
(6.34724 0.6714 -32.4715)
(6.46615 0.67052 -32.4748)
(6.45545 0.670559 -32.4722)
(6.55213 0.669295 -32.4747)
(6.54058 0.670656 -32.473)
(6.62059 0.667033 -32.475)
(6.60887 0.674406 -32.474)
(6.67632 0.663386 -32.4758)
(6.66891 0.686919 -32.4755)
(6.73394 0.709084 -32.4535)
(4.73235 -0.352132 -32.4484)
(5.19115 -0.557275 -32.4814)
(5.35902 -0.635788 -32.4685)
(5.73528 -0.656013 -32.4771)
(5.77002 -0.666294 -32.4687)
(6.02607 -0.669642 -32.4757)
(6.02619 -0.671826 -32.4697)
(6.21622 -0.671932 -32.4752)
(6.20845 -0.672265 -32.4707)
(6.35702 -0.671514 -32.475)
(6.34725 -0.671385 -32.4715)
(6.46614 -0.670498 -32.4748)
(6.45548 -0.670514 -32.4722)
(6.55212 -0.669215 -32.4748)
(6.54066 -0.670564 -32.4729)
(6.62054 -0.666726 -32.475)
(6.60908 -0.674261 -32.474)
(6.67617 -0.662446 -32.4758)
(6.66922 -0.6864 -32.4755)
(6.73366 -0.707304 -32.4534)
(4.74488 0.0881716 -32.4447)
(5.24783 0.387239 -32.4771)
(5.40567 0.48 -32.4644)
(5.76649 0.545944 -32.473)
(5.77736 0.581894 -32.4652)
(6.00965 0.601991 -32.4723)
(5.98299 0.616335 -32.4667)
(6.14846 0.62435 -32.4725)
(6.11335 0.631284 -32.4684)
(6.23843 0.635678 -32.4729)
(6.20249 0.639898 -32.4699)
(6.3 0.642943 -32.4733)
(6.26559 0.646082 -32.4711)
(6.34317 0.647986 -32.4738)
(6.31157 0.651591 -32.4723)
(6.37283 0.650323 -32.4745)
(6.34858 0.659418 -32.4738)
(6.38769 0.649006 -32.4757)
(6.38418 0.672098 -32.4757)
(6.38453 0.695592 -32.4548)
(4.7528 -0.649446 -32.4457)
(5.28432 -0.749756 -32.4783)
(5.38495 -0.797089 -32.4688)
(5.69022 -0.767442 -32.4774)
(5.63156 -0.749589 -32.4723)
(5.80348 -0.735277 -32.4794)
(5.70995 -0.724968 -32.4759)
(5.82261 -0.716954 -32.4815)
(5.72821 -0.710898 -32.4791)
(5.80959 -0.705292 -32.4832)
(5.72311 -0.701339 -32.4816)
(5.7856 -0.697154 -32.4846)
(5.70851 -0.694653 -32.4836)
(5.75945 -0.691137 -32.4857)
(5.68967 -0.690301 -32.4855)
(5.73685 -0.686103 -32.4871)
(5.66671 -0.689299 -32.4874)
(5.72843 -0.681297 -32.4887)
(5.6399 -0.696502 -32.4895)
(5.78198 -0.705741 -32.4698)
(4.75175 -0.193197 -32.4357)
(5.25801 0.229115 -32.4713)
(5.11337 0.375252 -32.4638)
(5.22506 0.493857 -32.4762)
(4.98056 0.558903 -32.4716)
(5.03063 0.59566 -32.481)
(4.8165 0.620163 -32.4772)
(4.8593 0.634021 -32.4844)
(4.68309 0.644629 -32.4812)
(4.72369 0.651306 -32.4866)
(4.57893 0.656774 -32.4841)
(4.61686 0.66079 -32.4883)
(4.49713 0.66396 -32.4864)
(4.53157 0.666661 -32.4897)
(4.43271 0.668822 -32.4885)
(4.46038 0.66984 -32.4914)
(4.38561 0.673085 -32.4908)
(4.38706 0.66939 -32.4933)
(4.36096 0.670042 -32.4932)
(4.26877 0.6922 -32.4805)
(4.41121 -0.967679 -32.4313)
(4.33366 -0.872999 -32.4768)
(3.68123 -0.818731 -32.4811)
(3.53348 -0.751699 -32.4944)
(3.13397 -0.724047 -32.4941)
(3.12864 -0.710706 -32.5012)
(2.86633 -0.704204 -32.4998)
(2.90847 -0.700767 -32.504)
(2.71306 -0.698707 -32.5029)
(2.76551 -0.697015 -32.5057)
(2.6108 -0.695931 -32.5046)
(2.66266 -0.694741 -32.5067)
(2.53675 -0.694063 -32.5059)
(2.58479 -0.693058 -32.5076)
(2.48056 -0.692459 -32.5071)
(2.52549 -0.692347 -32.5086)
(2.43308 -0.689374 -32.5084)
(2.49395 -0.693698 -32.5097)
(2.37545 -0.68476 -32.5094)
(2.64975 -0.676612 -32.5008)
(2.92996 -0.101917 -32.3845)
(2.10481 0.462207 -32.4389)
(1.39258 0.616796 -32.4406)
(1.28411 0.673063 -32.4503)
(1.05002 0.689899 -32.4468)
(1.07601 0.694861 -32.4527)
(0.935501 0.698974 -32.4493)
(0.980858 0.699181 -32.4535)
(0.875948 0.701423 -32.4508)
(0.920943 0.701169 -32.454)
(0.837544 0.702737 -32.4518)
(0.878323 0.702212 -32.4543)
(0.810422 0.703198 -32.4527)
(0.846316 0.702577 -32.4547)
(0.790304 0.702997 -32.4535)
(0.821345 0.702957 -32.4551)
(0.773985 0.699227 -32.4543)
(0.79565 0.705444 -32.4556)
(0.761943 0.64771 -32.4549)
(0.591534 0.66047 -32.4553)
(4.32464 0.56603 0.00692322)
(3.07894 0.847765 0.0044557)
(2.31472 0.86969 0.0057285)
(1.74772 0.852934 0.00425239)
(1.60945 0.85568 0.00539798)
(1.40555 0.86753 0.00422998)
(1.39881 0.87753 0.00518573)
(1.277 0.885623 0.0042054)
(1.28406 0.889899 0.00498761)
(1.19799 0.893566 0.00416062)
(1.20598 0.895304 0.00480209)
(1.14311 0.897347 0.00410792)
(1.14949 0.898115 0.00463496)
(1.10158 0.899577 0.00405419)
(1.10682 0.899419 0.00448641)
(1.06688 0.901817 0.00400066)
(1.07392 0.894324 0.00435567)
(1.05091 0.916077 0.00394484)
(1.0063 0.792356 0.00426759)
(1.44844 0.819901 0.00383529)
(4.75875 -0.100034 0.00434677)
(4.61182 -0.277207 0.00231392)
(4.52581 -0.47738 0.0036178)
(4.14352 -0.643455 0.00217538)
(4.00094 -0.739914 0.00332923)
(3.72264 -0.795291 0.00216668)
(3.64852 -0.822815 0.00312632)
(3.46133 -0.83992 0.00214856)
(3.42117 -0.850168 0.00293349)
(3.28843 -0.857946 0.00210821)
(3.26266 -0.863261 0.00275157)
(3.16444 -0.867731 0.00205833)
(3.14524 -0.87063 0.00258667)
(3.06912 -0.873915 0.00200647)
(3.05488 -0.87456 0.00243917)
(2.98909 -0.879073 0.00195443)
(2.98891 -0.875894 0.00230476)
(2.90353 -0.883032 0.00190215)
(2.97873 -0.886483 0.00215744)
(2.57623 -0.8948 0.00177945)
(4.63748 0.435299 0.0056452)
(4.82636 0.871461 0.00368926)
(5.14192 0.96969 0.00487524)
(5.08225 0.960529 0.00339266)
(5.144 0.942404 0.00452081)
(5.00836 0.929243 0.00334569)
(5.01418 0.919911 0.00429948)
(4.89503 0.91409 0.0033182)
(4.88924 0.907679 0.00410131)
(4.7929 0.904089 0.00327414)
(4.78226 0.899564 0.00391623)
(4.70498 0.897446 0.0032216)
(4.69172 0.894495 0.00374879)
(4.62993 0.893014 0.00316741)
(4.6136 0.891519 0.00359973)
(4.56817 0.889396 0.00311328)
(4.53879 0.888278 0.00346918)
(4.53364 0.88822 0.00305667)
(4.45299 0.849339 0.00338062)
(4.57105 0.889818 0.00297053)
(4.57563 -0.201733 0.00446631)
(4.69982 -0.398277 0.00272964)
(5.13054 -0.519008 0.0039201)
(5.23052 -0.623791 0.00246648)
(5.44762 -0.691648 0.00359611)
(5.44854 -0.738874 0.00242517)
(5.56003 -0.765556 0.00338179)
(5.53435 -0.784935 0.00240373)
(5.59851 -0.797542 0.00318954)
(5.56749 -0.808061 0.00236535)
(5.60546 -0.815848 0.0030093)
(5.57523 -0.822638 0.00231687)
(5.59758 -0.827929 0.00284516)
(5.56977 -0.832641 0.00226548)
(5.58304 -0.836578 0.00269777)
(5.55577 -0.839332 0.00221348)
(5.56785 -0.846516 0.00256276)
(5.52419 -0.840894 0.00215941)
(5.56337 -0.876377 0.00241266)
(5.36839 -0.897687 0.0020624)
(4.5887 0.341484 0.0051197)
(4.69585 0.688476 0.00342277)
(5.10653 0.803439 0.00456594)
(5.22734 0.845012 0.00309839)
(5.48466 0.862102 0.00421534)
(5.53464 0.871866 0.00303779)
(5.69697 0.875646 0.00399115)
(5.72376 0.878178 0.00301088)
(5.83655 0.877483 0.00379568)
(5.8536 0.87762 0.00297036)
(5.93405 0.875987 0.00361369)
(5.94526 0.875612 0.00292047)
(6.00319 0.874227 0.00344823)
(6.01118 0.873424 0.0028679)
(6.05187 0.873294 0.00330007)
(6.06068 0.870298 0.00281479)
(6.08244 0.87466 0.00316835)
(6.10047 0.866254 0.00275869)
(6.10006 0.870346 0.00306351)
(6.09833 0.916838 0.00268792)
(4.58265 -0.269118 0.00474877)
(4.66765 -0.539426 0.00311619)
(5.0732 -0.653917 0.00425853)
(5.19535 -0.724797 0.00279803)
(5.46414 -0.765335 0.00391317)
(5.52926 -0.793029 0.00273556)
(5.7096 -0.807693 0.00368884)
(5.75575 -0.818448 0.00270883)
(5.8886 -0.824229 0.00349406)
(5.92638 -0.829575 0.0026693)
(6.02719 -0.832744 0.00331303)
(6.05858 -0.836098 0.00262033)
(6.13614 -0.838379 0.00314834)
(6.16206 -0.840367 0.0025685)
(6.22228 -0.843113 0.00300055)
(6.24305 -0.842098 0.00251605)
(6.29051 -0.850948 0.00286667)
(6.29819 -0.840277 0.00246064)
(6.34859 -0.871015 0.00273658)
(6.26279 -0.905911 0.00238472)
(4.58265 0.269118 0.00474877)
(4.66765 0.539427 0.00311619)
(5.0732 0.653917 0.00425853)
(5.19535 0.724797 0.00279803)
(5.46414 0.765336 0.00391317)
(5.52926 0.793031 0.00273556)
(5.70959 0.807694 0.00368884)
(5.75576 0.818451 0.00270883)
(5.88859 0.824234 0.00349406)
(5.92638 0.829585 0.0026693)
(6.02718 0.832759 0.00331303)
(6.0586 0.836128 0.00262031)
(6.13611 0.838424 0.00314836)
(6.16211 0.840461 0.00256844)
(6.22221 0.843232 0.0030006)
(6.24324 0.842383 0.00251588)
(6.29038 0.851285 0.00286691)
(6.29881 0.841077 0.00246025)
(6.34883 0.871985 0.00273767)
(6.26388 0.907996 0.00238431)
(4.5887 -0.341484 0.0051197)
(4.69585 -0.688476 0.00342277)
(5.10653 -0.803439 0.00456594)
(5.22734 -0.845012 0.00309839)
(5.48466 -0.862102 0.00421534)
(5.53464 -0.871864 0.00303779)
(5.69697 -0.875645 0.00399115)
(5.72376 -0.878174 0.00301088)
(5.83655 -0.877479 0.00379568)
(5.8536 -0.877609 0.00297037)
(5.93406 -0.875975 0.00361368)
(5.94527 -0.875579 0.0029205)
(6.00322 -0.874193 0.00344819)
(6.0112 -0.87332 0.00286797)
(6.05199 -0.873209 0.00329997)
(6.06069 -0.869998 0.00281497)
(6.08283 -0.87443 0.00316802)
(6.10035 -0.865553 0.00275901)
(6.10083 -0.869643 0.0030624)
(6.09848 -0.914992 0.0026879)
(4.57563 0.201733 0.00446631)
(4.69982 0.398277 0.00272964)
(5.13054 0.519008 0.0039201)
(5.23052 0.623792 0.00246648)
(5.44761 0.691649 0.00359611)
(5.44854 0.738875 0.00242517)
(5.56003 0.765558 0.00338178)
(5.53435 0.784937 0.00240373)
(5.59851 0.797548 0.00318954)
(5.56752 0.808067 0.00236535)
(5.60545 0.815865 0.00300929)
(5.57529 0.822656 0.00231687)
(5.59757 0.827976 0.00284516)
(5.56994 0.832702 0.00226547)
(5.58306 0.836704 0.00269777)
(5.55624 0.839529 0.00221344)
(5.56803 0.846878 0.00256285)
(5.52553 0.841561 0.00215923)
(5.56441 0.877412 0.00241359)
(5.37192 0.899532 0.00206205)
(4.63748 -0.435299 0.0056452)
(4.82636 -0.871461 0.00368927)
(5.14192 -0.96969 0.00487524)
(5.08225 -0.960528 0.00339266)
(5.144 -0.942404 0.00452081)
(5.00836 -0.929242 0.00334569)
(5.01418 -0.919911 0.00429947)
(4.89504 -0.914086 0.00331821)
(4.88924 -0.907677 0.0041013)
(4.79292 -0.904079 0.00327416)
(4.78227 -0.899557 0.0039162)
(4.70505 -0.897418 0.00322164)
(4.69177 -0.89448 0.00374872)
(4.6301 -0.892927 0.00316753)
(4.61377 -0.891494 0.00359952)
(4.56858 -0.889154 0.00311359)
(4.53938 -0.888239 0.00346859)
(4.53458 -0.887751 0.0030573)
(4.45454 -0.8492 0.00337903)
(4.57361 -0.889149 0.00297092)
(4.75875 0.100034 0.00434677)
(4.61182 0.277207 0.00231392)
(4.52581 0.47738 0.0036178)
(4.14352 0.643455 0.00217538)
(4.00094 0.739915 0.00332923)
(3.72265 0.795291 0.00216668)
(3.64852 0.822816 0.00312632)
(3.46134 0.83992 0.00214857)
(3.42117 0.850172 0.00293349)
(3.28846 0.857945 0.00210822)
(3.26267 0.863273 0.00275156)
(3.16453 0.867727 0.00205834)
(3.14528 0.870663 0.00258666)
(3.06936 0.873905 0.0020065)
(3.055 0.874657 0.00243911)
(2.98977 0.879056 0.00195451)
(2.98929 0.876185 0.00230461)
(2.90565 0.883166 0.00190235)
(2.97948 0.887357 0.00215751)
(2.58437 0.896302 0.00178006)
(4.32464 -0.56603 0.00692322)
(3.07894 -0.847765 0.0044557)
(2.31472 -0.86969 0.0057285)
(1.74772 -0.852934 0.00425239)
(1.60945 -0.85568 0.00539798)
(1.40555 -0.86753 0.00422999)
(1.39881 -0.87753 0.00518573)
(1.277 -0.885622 0.00420541)
(1.28406 -0.8899 0.0049876)
(1.198 -0.893561 0.00416063)
(1.206 -0.895308 0.00480208)
(1.14315 -0.897333 0.00410795)
(1.14954 -0.898128 0.00463493)
(1.1017 -0.89953 0.00405427)
(1.10699 -0.899468 0.00448629)
(1.06717 -0.901682 0.0040009)
(1.07444 -0.894532 0.00435524)
(1.05154 -0.91585 0.00394549)
(1.00789 -0.79345 0.00426588)
(1.44894 -0.821312 0.00383839)
(4.37819 0.0972678 0.00137283)
(3.96621 0.149142 0.00191665)
(3.43031 0.163062 0.000961927)
(2.95243 0.156799 0.00150487)
(2.53963 0.145179 0.000981573)
(2.23557 0.136575 0.00139834)
(2.01107 0.131585 0.00105442)
(1.85839 0.131223 0.00131702)
(1.75552 0.133606 0.00108502)
(1.68164 0.138084 0.00123922)
(1.63545 0.143099 0.00109563)
(1.59409 0.148486 0.00117796)
(1.57103 0.153093 0.00110338)
(1.54301 0.157955 0.00113647)
(1.52866 0.16071 0.0011155)
(1.50997 0.165988 0.00111175)
(1.49288 0.164412 0.00113693)
(1.49599 0.174612 0.0010981)
(1.44876 0.160076 0.00115118)
(1.52384 0.166997 0.00116746)
(4.54121 0.0879753 0.00316515)
(4.67783 0.119605 0.00388836)
(4.71986 0.120983 0.00292778)
(4.70798 0.0946742 0.00344639)
(4.63014 0.0564186 0.0028989)
(4.53394 0.0138944 0.00330171)
(4.42577 -0.0241864 0.00294916)
(4.32007 -0.0568839 0.00320805)
(4.22374 -0.0818097 0.0029735)
(4.13144 -0.101641 0.00312695)
(4.054 -0.11606 0.00298244)
(3.97733 -0.127696 0.00306468)
(3.91657 -0.136176 0.0029898)
(3.85352 -0.143411 0.0030227)
(3.80631 -0.14879 0.00300224)
(3.75488 -0.153308 0.00299738)
(3.71757 -0.157806 0.00302652)
(3.67872 -0.159446 0.0029816)
(3.64301 -0.165516 0.00307805)
(3.62318 -0.171242 0.00308327)
(4.51651 0.0458461 0.00173002)
(4.65592 0.1106 0.00233728)
(4.78806 0.163054 0.00140823)
(4.93638 0.19153 0.00193048)
(5.04382 0.201837 0.00138918)
(5.12778 0.202707 0.00179876)
(5.17809 0.199444 0.00145453)
(5.20673 0.196406 0.0017186)
(5.22028 0.194512 0.00148944)
(5.22006 0.194063 0.00164489)
(5.21659 0.194442 0.00150311)
(5.20427 0.195339 0.00158576)
(5.19333 0.196033 0.0015121)
(5.17749 0.197192 0.00154513)
(5.16215 0.196654 0.00152442)
(5.14852 0.199265 0.00152128)
(5.12759 0.194082 0.00154349)
(5.12258 0.204033 0.00151376)
(5.0909 0.184046 0.00154049)
(5.10012 0.207948 0.0015747)
(4.51254 0.044254 0.0027486)
(4.62142 0.050963 0.00346592)
(4.74563 0.0467104 0.0025619)
(4.90515 0.0291874 0.00308978)
(5.04483 0.00693551 0.00253452)
(5.17708 -0.0182588 0.00293251)
(5.28377 -0.0421333 0.00257747)
(5.37296 -0.0637113 0.00283645)
(5.44683 -0.0813711 0.00260285)
(5.50607 -0.0959677 0.00275665)
(5.55951 -0.107476 0.00261275)
(5.60172 -0.116781 0.00269476)
(5.64293 -0.124513 0.00261988)
(5.67523 -0.130417 0.00265248)
(5.70825 -0.136492 0.0026314)
(5.73387 -0.139425 0.00262765)
(5.76188 -0.146302 0.00265355)
(5.77968 -0.144972 0.00262013)
(5.80914 -0.155005 0.0027076)
(5.80678 -0.15326 0.00271275)
(4.51365 0.0166264 0.00204797)
(4.62259 0.0557516 0.00271959)
(4.7398 0.0915342 0.00182508)
(4.89329 0.117217 0.00234391)
(5.03074 0.133547 0.0017864)
(5.16679 0.144645 0.00218454)
(5.28209 0.152404 0.00183222)
(5.38433 0.159115 0.00209343)
(5.47419 0.164974 0.00186256)
(5.55192 0.170522 0.00201765)
(5.62569 0.175345 0.00187548)
(5.68946 0.179751 0.00195805)
(5.75381 0.183112 0.00188421)
(5.80898 0.186523 0.00191713)
(5.86736 0.187908 0.00189636)
(5.91487 0.191783 0.00189357)
(5.97193 0.188994 0.00191525)
(6.00518 0.198298 0.00189021)
(6.07571 0.184358 0.00192606)
(6.07154 0.209308 0.00195856)
(4.51239 0.011945 0.00238101)
(4.61473 -0.00400568 0.00308191)
(4.73053 -0.0234263 0.00219523)
(4.8823 -0.0448984 0.00272007)
(5.01888 -0.0640142 0.00216117)
(5.1548 -0.0818357 0.00255765)
(5.2712 -0.0973531 0.00220285)
(5.37568 -0.111115 0.00246302)
(5.46911 -0.122604 0.00223105)
(5.5512 -0.132339 0.00238584)
(5.63077 -0.140315 0.00224315)
(5.70039 -0.146843 0.00232556)
(5.77271 -0.152323 0.00225142)
(5.83433 -0.156563 0.00228416)
(5.90333 -0.160476 0.00226338)
(5.95618 -0.163151 0.00226032)
(6.02819 -0.16589 0.00228398)
(6.0623 -0.168493 0.00225746)
(6.15555 -0.167878 0.00232159)
(6.14318 -0.177453 0.00233711)
(4.51239 -0.0119451 0.00238101)
(4.61473 0.00400601 0.00308191)
(4.73053 0.0234261 0.00219523)
(4.8823 0.0448992 0.00272007)
(5.01888 0.0640141 0.00216117)
(5.1548 0.0818377 0.00255765)
(5.2712 0.0973538 0.00220285)
(5.37568 0.11112 0.00246303)
(5.46911 0.122608 0.00223105)
(5.55121 0.132351 0.00238584)
(5.63077 0.140329 0.00224314)
(5.7004 0.146878 0.00232558)
(5.77271 0.152357 0.0022514)
(5.83434 0.156672 0.00228421)
(5.90333 0.16055 0.00226331)
(5.95621 0.163469 0.00226045)
(6.02821 0.16608 0.00228367)
(6.06236 0.169281 0.00225769)
(6.15567 0.168582 0.00231984)
(6.14342 0.179052 0.00233749)
(4.51365 -0.0166265 0.00204797)
(4.62259 -0.0557512 0.00271959)
(4.7398 -0.0915345 0.00182508)
(4.89329 -0.117216 0.00234391)
(5.03074 -0.133547 0.0017864)
(5.16679 -0.144643 0.00218454)
(5.28209 -0.152404 0.00183222)
(5.38433 -0.15911 0.00209343)
(5.47419 -0.16497 0.00186256)
(5.55193 -0.17051 0.00201765)
(5.6257 -0.175332 0.00187549)
(5.68946 -0.179716 0.00195803)
(5.75383 -0.18308 0.00188423)
(5.80898 -0.186415 0.00191707)
(5.86743 -0.18784 0.00189641)
(5.91488 -0.191469 0.00189343)
(5.97213 -0.188818 0.00191551)
(6.00525 -0.197534 0.00188997)
(6.07615 -0.183709 0.00192748)
(6.07189 -0.207823 0.00195817)
(4.51254 -0.0442541 0.0027486)
(4.62142 -0.0509627 0.00346593)
(4.74563 -0.0467105 0.0025619)
(4.90515 -0.0291867 0.00308978)
(5.04482 -0.00693561 0.00253452)
(5.17708 0.0182606 0.00293251)
(5.28377 0.042134 0.00257746)
(5.37296 0.0637156 0.00283645)
(5.44682 0.0813752 0.00260284)
(5.50609 0.0959783 0.00275666)
(5.5595 0.10749 0.00261274)
(5.60175 0.116811 0.00269479)
(5.64294 0.124546 0.00261985)
(5.6753 0.130512 0.00265254)
(5.70832 0.136561 0.00263131)
(5.73405 0.139712 0.00262776)
(5.76216 0.146469 0.00265319)
(5.78011 0.145703 0.00262034)
(5.81004 0.155617 0.00270591)
(5.80801 0.154772 0.00271275)
(4.51651 -0.0458462 0.00173002)
(4.65592 -0.1106 0.00233728)
(4.78806 -0.163054 0.00140823)
(4.93639 -0.191529 0.00193048)
(5.04382 -0.201837 0.00138918)
(5.12778 -0.202705 0.00179877)
(5.17809 -0.199444 0.00145453)
(5.20674 -0.196402 0.0017186)
(5.22027 -0.194509 0.00148944)
(5.22009 -0.194052 0.0016449)
(5.21657 -0.194433 0.0015031)
(5.20435 -0.195309 0.00158578)
(5.19332 -0.196011 0.00151209)
(5.17768 -0.197102 0.00154513)
(5.16223 -0.196613 0.00152441)
(5.14894 -0.199007 0.00152126)
(5.12799 -0.193986 0.00154352)
(5.1235 -0.203424 0.00151373)
(5.09225 -0.183652 0.00154109)
(5.10236 -0.206942 0.00157465)
(4.54121 -0.0879753 0.00316515)
(4.67783 -0.119605 0.00388836)
(4.71986 -0.120983 0.00292778)
(4.70798 -0.094674 0.00344639)
(4.63014 -0.0564182 0.0028989)
(4.53395 -0.0138938 0.00330172)
(4.42577 0.0241877 0.00294915)
(4.32009 0.0568854 0.00320807)
(4.22373 0.081814 0.00297348)
(4.13149 0.101645 0.00312699)
(4.05399 0.116072 0.00298239)
(3.97746 0.127707 0.00306477)
(3.91656 0.136202 0.00298967)
(3.85385 0.143453 0.00302291)
(3.80636 0.148838 0.0030019)
(3.75568 0.153448 0.0029979)
(3.71788 0.157904 0.00302555)
(3.68065 0.159825 0.0029829)
(3.6441 0.165862 0.00307513)
(3.62801 0.172024 0.00308597)
(4.37819 -0.0972678 0.00137283)
(3.96621 -0.149142 0.00191665)
(3.43031 -0.163062 0.000961927)
(2.95243 -0.156799 0.00150487)
(2.53963 -0.145179 0.000981573)
(2.23558 -0.136574 0.00139834)
(2.01107 -0.131585 0.00105442)
(1.8584 -0.131222 0.00131702)
(1.75553 -0.133605 0.00108502)
(1.68167 -0.138082 0.00123922)
(1.63548 -0.143097 0.00109562)
(1.59417 -0.148481 0.00117797)
(1.5711 -0.153089 0.00110338)
(1.54322 -0.157938 0.00113647)
(1.5289 -0.160712 0.00111547)
(1.51044 -0.165933 0.00111179)
(1.49363 -0.164437 0.00113674)
(1.49713 -0.174484 0.00109841)
(1.45039 -0.160159 0.00115027)
(1.52808 -0.167127 0.00116904)
(4.37819 0.0972678 -0.00137284)
(3.96621 0.149142 -0.00191666)
(3.43031 0.163062 -0.000961932)
(2.95243 0.156799 -0.00150488)
(2.53963 0.145179 -0.000981578)
(2.23557 0.136575 -0.00139835)
(2.01107 0.131585 -0.00105442)
(1.85839 0.131223 -0.00131702)
(1.75552 0.133606 -0.00108503)
(1.68164 0.138084 -0.00123922)
(1.63545 0.143099 -0.00109563)
(1.59409 0.148486 -0.00117797)
(1.57103 0.153093 -0.00110339)
(1.54301 0.157955 -0.00113647)
(1.52866 0.16071 -0.0011155)
(1.50997 0.165988 -0.00111175)
(1.49288 0.164412 -0.00113693)
(1.49599 0.174612 -0.0010981)
(1.44876 0.160076 -0.00115118)
(1.52384 0.166997 -0.00116747)
(4.54121 0.0879753 -0.00316515)
(4.67783 0.119605 -0.00388836)
(4.71986 0.120983 -0.00292778)
(4.70798 0.0946742 -0.00344639)
(4.63014 0.0564186 -0.00289891)
(4.53394 0.0138944 -0.00330172)
(4.42577 -0.0241864 -0.00294916)
(4.32007 -0.056884 -0.00320806)
(4.22374 -0.0818097 -0.00297351)
(4.13144 -0.101641 -0.00312695)
(4.054 -0.11606 -0.00298245)
(3.97733 -0.127696 -0.00306469)
(3.91657 -0.136176 -0.00298981)
(3.85352 -0.143411 -0.0030227)
(3.80631 -0.14879 -0.00300225)
(3.75488 -0.153308 -0.00299738)
(3.71757 -0.157806 -0.00302653)
(3.67872 -0.159446 -0.00298161)
(3.64301 -0.165516 -0.00307806)
(3.62318 -0.171242 -0.00308328)
(4.51651 0.0458461 -0.00173002)
(4.65592 0.1106 -0.00233728)
(4.78806 0.163054 -0.00140823)
(4.93638 0.19153 -0.00193049)
(5.04382 0.201837 -0.00138918)
(5.12778 0.202707 -0.00179877)
(5.17809 0.199444 -0.00145454)
(5.20673 0.196406 -0.0017186)
(5.22028 0.194512 -0.00148945)
(5.22006 0.194063 -0.0016449)
(5.21659 0.194442 -0.00150311)
(5.20427 0.195339 -0.00158577)
(5.19333 0.196033 -0.00151211)
(5.17749 0.197192 -0.00154513)
(5.16215 0.196654 -0.00152443)
(5.14852 0.199265 -0.00152129)
(5.12759 0.194082 -0.0015435)
(5.12258 0.204033 -0.00151377)
(5.0909 0.184046 -0.0015405)
(5.10012 0.207948 -0.0015747)
(4.51254 0.044254 -0.00274861)
(4.62142 0.050963 -0.00346593)
(4.74563 0.0467104 -0.00256191)
(4.90515 0.0291874 -0.00308979)
(5.04483 0.0069355 -0.00253453)
(5.17708 -0.0182588 -0.00293251)
(5.28377 -0.0421333 -0.00257747)
(5.37296 -0.0637113 -0.00283645)
(5.44683 -0.0813711 -0.00260285)
(5.50607 -0.0959677 -0.00275665)
(5.55951 -0.107476 -0.00261276)
(5.60172 -0.116781 -0.00269477)
(5.64293 -0.124513 -0.00261989)
(5.67523 -0.130417 -0.00265249)
(5.70825 -0.136492 -0.00263141)
(5.73387 -0.139425 -0.00262766)
(5.76188 -0.146302 -0.00265356)
(5.77968 -0.144972 -0.00262013)
(5.80914 -0.155005 -0.0027076)
(5.80678 -0.15326 -0.00271275)
(4.51365 0.0166264 -0.00204797)
(4.62259 0.0557516 -0.00271959)
(4.7398 0.0915342 -0.00182508)
(4.89329 0.117217 -0.00234392)
(5.03074 0.133547 -0.00178641)
(5.16679 0.144645 -0.00218455)
(5.28209 0.152404 -0.00183222)
(5.38433 0.159115 -0.00209344)
(5.47419 0.164974 -0.00186256)
(5.55192 0.170522 -0.00201766)
(5.62569 0.175345 -0.00187549)
(5.68946 0.179751 -0.00195805)
(5.75381 0.183112 -0.00188421)
(5.80898 0.186523 -0.00191713)
(5.86736 0.187908 -0.00189636)
(5.91487 0.191783 -0.00189357)
(5.97193 0.188994 -0.00191526)
(6.00518 0.198298 -0.00189022)
(6.07571 0.184358 -0.00192606)
(6.07154 0.209308 -0.00195857)
(4.51239 0.011945 -0.00238102)
(4.61473 -0.00400569 -0.00308191)
(4.73053 -0.0234263 -0.00219524)
(4.8823 -0.0448984 -0.00272008)
(5.01888 -0.0640143 -0.00216118)
(5.1548 -0.0818357 -0.00255766)
(5.2712 -0.0973531 -0.00220286)
(5.37568 -0.111115 -0.00246303)
(5.46911 -0.122604 -0.00223106)
(5.5512 -0.132339 -0.00238584)
(5.63077 -0.140315 -0.00224315)
(5.70039 -0.146843 -0.00232556)
(5.77271 -0.152323 -0.00225142)
(5.83433 -0.156563 -0.00228417)
(5.90333 -0.160476 -0.00226338)
(5.95618 -0.163151 -0.00226032)
(6.02819 -0.16589 -0.00228399)
(6.0623 -0.168493 -0.00225746)
(6.15555 -0.167878 -0.00232159)
(6.14318 -0.177453 -0.00233711)
(4.51239 -0.0119451 -0.00238102)
(4.61473 0.00400601 -0.00308191)
(4.73053 0.0234261 -0.00219524)
(4.8823 0.0448992 -0.00272008)
(5.01888 0.0640141 -0.00216118)
(5.1548 0.0818377 -0.00255766)
(5.2712 0.0973538 -0.00220285)
(5.37568 0.11112 -0.00246303)
(5.46911 0.122608 -0.00223106)
(5.55121 0.132351 -0.00238585)
(5.63077 0.140329 -0.00224314)
(5.7004 0.146878 -0.00232558)
(5.77271 0.152357 -0.00225141)
(5.83434 0.156672 -0.00228422)
(5.90333 0.16055 -0.00226332)
(5.95621 0.163469 -0.00226046)
(6.02821 0.16608 -0.00228367)
(6.06236 0.169281 -0.0022577)
(6.15567 0.168582 -0.00231984)
(6.14342 0.179052 -0.00233749)
(4.51365 -0.0166265 -0.00204797)
(4.62259 -0.0557512 -0.00271959)
(4.7398 -0.0915345 -0.00182508)
(4.89329 -0.117216 -0.00234392)
(5.03074 -0.133547 -0.00178641)
(5.16679 -0.144643 -0.00218455)
(5.28209 -0.152404 -0.00183222)
(5.38433 -0.15911 -0.00209344)
(5.47419 -0.16497 -0.00186256)
(5.55193 -0.17051 -0.00201765)
(5.6257 -0.175332 -0.00187549)
(5.68946 -0.179716 -0.00195803)
(5.75383 -0.18308 -0.00188423)
(5.80898 -0.186415 -0.00191708)
(5.86743 -0.18784 -0.00189642)
(5.91488 -0.191469 -0.00189344)
(5.97213 -0.188818 -0.00191551)
(6.00525 -0.197534 -0.00188998)
(6.07615 -0.183709 -0.00192748)
(6.07189 -0.207823 -0.00195817)
(4.51254 -0.0442541 -0.00274861)
(4.62142 -0.0509627 -0.00346593)
(4.74563 -0.0467105 -0.0025619)
(4.90515 -0.0291867 -0.00308979)
(5.04482 -0.00693561 -0.00253452)
(5.17708 0.0182606 -0.00293252)
(5.28377 0.042134 -0.00257747)
(5.37296 0.0637156 -0.00283646)
(5.44682 0.0813752 -0.00260284)
(5.50609 0.0959783 -0.00275667)
(5.5595 0.10749 -0.00261274)
(5.60175 0.116811 -0.00269479)
(5.64294 0.124546 -0.00261985)
(5.6753 0.130512 -0.00265254)
(5.70832 0.136561 -0.00263131)
(5.73405 0.139712 -0.00262777)
(5.76216 0.146469 -0.00265319)
(5.78011 0.145703 -0.00262034)
(5.81004 0.155617 -0.00270592)
(5.80801 0.154772 -0.00271276)
(4.51651 -0.0458462 -0.00173002)
(4.65592 -0.1106 -0.00233728)
(4.78806 -0.163054 -0.00140823)
(4.93639 -0.191529 -0.00193049)
(5.04382 -0.201837 -0.00138918)
(5.12778 -0.202705 -0.00179877)
(5.17809 -0.199444 -0.00145453)
(5.20674 -0.196402 -0.00171861)
(5.22027 -0.194509 -0.00148944)
(5.22009 -0.194052 -0.00164491)
(5.21657 -0.194433 -0.0015031)
(5.20435 -0.195309 -0.00158578)
(5.19332 -0.196011 -0.00151209)
(5.17768 -0.197102 -0.00154514)
(5.16223 -0.196613 -0.00152441)
(5.14894 -0.199007 -0.00152127)
(5.12799 -0.193986 -0.00154353)
(5.1235 -0.203424 -0.00151374)
(5.09225 -0.183652 -0.0015411)
(5.10236 -0.206942 -0.00157465)
(4.54121 -0.0879753 -0.00316515)
(4.67783 -0.119605 -0.00388836)
(4.71986 -0.120983 -0.00292778)
(4.70798 -0.094674 -0.0034464)
(4.63014 -0.0564182 -0.00289891)
(4.53395 -0.0138938 -0.00330172)
(4.42577 0.0241877 -0.00294916)
(4.32009 0.0568854 -0.00320807)
(4.22373 0.081814 -0.00297349)
(4.13149 0.101645 -0.00312699)
(4.05399 0.116072 -0.00298239)
(3.97746 0.127707 -0.00306478)
(3.91656 0.136202 -0.00298968)
(3.85385 0.143453 -0.00302291)
(3.80636 0.148838 -0.0030019)
(3.75568 0.153448 -0.00299791)
(3.71788 0.157904 -0.00302555)
(3.68065 0.159825 -0.0029829)
(3.6441 0.165862 -0.00307513)
(3.62801 0.172024 -0.00308597)
(4.37819 -0.0972678 -0.00137284)
(3.96621 -0.149142 -0.00191666)
(3.43031 -0.163062 -0.000961932)
(2.95243 -0.156799 -0.00150488)
(2.53963 -0.145179 -0.000981578)
(2.23558 -0.136574 -0.00139835)
(2.01107 -0.131585 -0.00105442)
(1.8584 -0.131222 -0.00131703)
(1.75553 -0.133605 -0.00108503)
(1.68167 -0.138082 -0.00123922)
(1.63548 -0.143097 -0.00109563)
(1.59417 -0.148481 -0.00117797)
(1.5711 -0.153089 -0.00110338)
(1.54322 -0.157938 -0.00113648)
(1.5289 -0.160712 -0.00111547)
(1.51044 -0.165933 -0.0011118)
(1.49363 -0.164437 -0.00113674)
(1.49713 -0.174484 -0.00109842)
(1.45039 -0.160159 -0.00115028)
(1.52808 -0.167127 -0.00116904)
(4.32464 0.56603 -0.00692323)
(3.07894 0.847765 -0.0044557)
(2.31472 0.86969 -0.0057285)
(1.74772 0.852934 -0.0042524)
(1.60945 0.85568 -0.00539798)
(1.40555 0.86753 -0.00422999)
(1.39881 0.87753 -0.00518574)
(1.277 0.885623 -0.00420541)
(1.28406 0.889899 -0.00498761)
(1.19799 0.893566 -0.00416062)
(1.20598 0.895304 -0.00480209)
(1.14311 0.897347 -0.00410793)
(1.14949 0.898115 -0.00463497)