/*--------------------------------*- C++ -*----------------------------------*\
  =========                 |
  \\      /  F ield         | OpenFOAM: The Open Source CFD Toolbox
   \\    /   O peration     | Website:  https://openfoam.org
    \\  /    A nd           | Version:  7
     \\/     M anipulation  |
\*---------------------------------------------------------------------------*/
FoamFile
{
    version     2.0;
    format      ascii;
    class       volVectorField;
    location    "0.505";
    object      UMean;
}
// * * * * * * * * * * * * * * * * * * * * * * * * * * * * * * * * * * * * * //

dimensions      [0 1 -1 0 0 0 0];

internalField   nonuniform List<vector> 
7920
(
(2.96859 0.0936962 -32.3705)
(2.22436 -0.451972 -32.4142)
(1.56709 -0.596509 -32.4102)
(1.50207 -0.648368 -32.4241)
(1.29417 -0.663686 -32.4142)
(1.34474 -0.668144 -32.4198)
(1.22031 -0.671833 -32.411)
(1.28188 -0.671911 -32.4179)
(1.18843 -0.674039 -32.415)
(1.24522 -0.673586 -32.4237)
(1.17074 -0.674956 -32.4243)
(1.22072 -0.674319 -32.4324)
(1.15994 -0.675302 -32.4341)
(1.20343 -0.674768 -32.4404)
(1.15271 -0.67527 -32.4431)
(1.19116 -0.675414 -32.4463)
(1.14512 -0.672356 -32.4519)
(1.17833 -0.678242 -32.4481)
(1.13387 -0.626488 -32.4643)
(0.996008 -0.628476 -32.4348)
(4.40811 0.929197 -32.4314)
(4.36485 0.823357 -32.4731)
(3.77232 0.769666 -32.4719)
(3.69338 0.706772 -32.485)
(3.35551 0.682893 -32.4806)
(3.40239 0.671993 -32.4853)
(3.18774 0.66715 -32.4789)
(3.26644 0.664849 -32.4821)
(3.10833 0.663373 -32.4794)
(3.18795 0.662408 -32.4845)
(3.06392 0.661644 -32.4853)
(3.13724 0.661027 -32.4909)
(3.03708 0.660588 -32.4935)
(3.103 0.660376 -32.498)
(3.01944 0.659728 -32.5021)
(3.08152 0.661163 -32.504)
(3.00026 0.657595 -32.5116)
(3.08629 0.665179 -32.5063)
(2.94743 0.656555 -32.5255)
(3.25725 0.659101 -32.4844)
(4.73713 0.174945 -32.4392)
(5.2214 -0.247384 -32.4763)
(5.0639 -0.393039 -32.469)
(5.18589 -0.508218 -32.4815)
(4.95417 -0.567473 -32.4771)
(5.029 -0.599722 -32.4855)
(4.83675 -0.619439 -32.4799)
(4.907 -0.630141 -32.4841)
(4.75483 -0.637877 -32.4785)
(4.82163 -0.642518 -32.4816)
(4.70028 -0.646321 -32.4783)
(4.76193 -0.648776 -32.4817)
(4.66381 -0.65095 -32.481)
(4.71969 -0.652052 -32.4843)
(4.63944 -0.65399 -32.4865)
(4.68796 -0.652259 -32.4888)
(4.62534 -0.657574 -32.4951)
(4.65209 -0.644941 -32.4935)
(4.6213 -0.654686 -32.5072)
(4.57307 -0.640833 -32.4794)
(4.73732 0.624082 -32.4491)
(5.23785 0.708766 -32.4852)
(5.2915 0.747581 -32.4782)
(5.56743 0.715615 -32.4889)
(5.47331 0.697709 -32.4856)
(5.62972 0.683568 -32.4941)
(5.51314 0.6741 -32.491)
(5.62022 0.667116 -32.4958)
(5.51108 0.662175 -32.4915)
(5.5923 0.657933 -32.4934)
(5.49636 0.655064 -32.4894)
(5.56153 0.652326 -32.4904)
(5.47857 0.650654 -32.488)
(5.53326 0.648909 -32.4885)
(5.46048 0.647882 -32.4882)
(5.51072 0.647183 -32.4889)
(5.44142 0.647101 -32.4919)
(5.50248 0.647496 -32.4921)
(5.42404 0.657124 -32.4996)
(5.55671 0.684702 -32.4773)
(4.72911 -0.0910856 -32.4484)
(5.20596 -0.385784 -32.4835)
(5.31126 -0.478637 -32.4744)
(5.63215 -0.544523 -32.485)
(5.58968 -0.578948 -32.4803)
(5.78686 -0.59798 -32.4894)
(5.7119 -0.610481 -32.486)
(5.84835 -0.61765 -32.492)
(5.77048 -0.623483 -32.4876)
(5.8713 -0.627337 -32.4904)
(5.79774 -0.630866 -32.4858)
(5.87452 -0.633327 -32.4871)
(5.80725 -0.636012 -32.4833)
(5.86652 -0.637041 -32.4839)
(5.80722 -0.640398 -32.4811)
(5.8506 -0.637174 -32.4816)
(5.80718 -0.647143 -32.4812)
(5.82174 -0.629349 -32.4826)
(5.82268 -0.660015 -32.4857)
(5.77589 -0.655464 -32.4668)
(4.71623 0.341416 -32.4521)
(5.15237 0.536876 -32.4873)
(5.269 0.610589 -32.4783)
(5.6046 0.629042 -32.4887)
(5.58228 0.638006 -32.4838)
(5.79784 0.640412 -32.4929)
(5.74165 0.641653 -32.4894)
(5.89388 0.641433 -32.4957)
(5.83203 0.641468 -32.4915)
(5.94516 0.640912 -32.4946)
(5.88427 0.640828 -32.4901)
(5.96987 0.640328 -32.4916)
(5.91198 0.640487 -32.4876)
(5.97692 0.639811 -32.4882)
(5.92379 0.640855 -32.4848)
(5.97141 0.638315 -32.4849)
(5.92906 0.644124 -32.4834)
(5.95594 0.633934 -32.4845)
(5.94665 0.659086 -32.4863)
(5.94989 0.676439 -32.467)
(4.71623 -0.341416 -32.4521)
(5.15237 -0.536876 -32.4873)
(5.269 -0.610589 -32.4783)
(5.6046 -0.629042 -32.4887)
(5.58228 -0.638006 -32.4838)
(5.79784 -0.640412 -32.4929)
(5.74165 -0.641653 -32.4894)
(5.89388 -0.641431 -32.4957)
(5.83203 -0.641467 -32.4915)
(5.94515 -0.640908 -32.4946)
(5.88428 -0.640823 -32.49)
(5.96986 -0.640314 -32.4916)
(5.912 -0.640474 -32.4876)
(5.97689 -0.639758 -32.4882)
(5.92387 -0.640836 -32.4847)
(5.97132 -0.638106 -32.485)
(5.92924 -0.644113 -32.4833)
(5.95572 -0.63328 -32.4846)
(5.94675 -0.658834 -32.4862)
(5.9494 -0.675108 -32.467)
(4.72911 0.0910855 -32.4484)
(5.20596 0.385784 -32.4835)
(5.31126 0.478637 -32.4744)
(5.63215 0.544523 -32.485)
(5.58968 0.578948 -32.4803)
(5.78686 0.59798 -32.4894)
(5.7119 0.610481 -32.4859)
(5.84835 0.617651 -32.492)
(5.77048 0.623485 -32.4876)
(5.87131 0.62734 -32.4904)
(5.79773 0.630873 -32.4858)
(5.87455 0.633335 -32.4872)
(5.80722 0.636031 -32.4832)
(5.86659 0.637079 -32.484)
(5.80717 0.640431 -32.4809)
(5.85077 0.637345 -32.4818)
(5.80717 0.647182 -32.4809)
(5.82216 0.629977 -32.483)
(5.82306 0.660278 -32.4852)
(5.77725 0.656927 -32.4674)
(4.73732 -0.624082 -32.4491)
(5.23785 -0.708766 -32.4852)
(5.2915 -0.747582 -32.4782)
(5.56743 -0.715615 -32.4889)
(5.47331 -0.697709 -32.4856)
(5.62972 -0.683567 -32.4941)
(5.51314 -0.6741 -32.491)
(5.62022 -0.667114 -32.4958)
(5.51108 -0.662175 -32.4915)
(5.59231 -0.657928 -32.4934)
(5.49636 -0.655063 -32.4893)
(5.56154 -0.652312 -32.4905)
(5.47858 -0.650649 -32.4877)
(5.53329 -0.648853 -32.4889)
(5.46056 -0.647881 -32.4877)
(5.51077 -0.646953 -32.4897)
(5.44172 -0.647145 -32.4907)
(5.50254 -0.646846 -32.4938)
(5.42475 -0.657087 -32.4973)
(5.55698 -0.683826 -32.4803)
(4.73713 -0.174945 -32.4392)
(5.2214 0.247384 -32.4763)
(5.0639 0.393039 -32.469)
(5.18589 0.508218 -32.4815)
(4.95417 0.567473 -32.4771)
(5.029 0.599722 -32.4855)
(4.83674 0.61944 -32.4799)
(4.90701 0.630141 -32.4842)
(4.75482 0.63788 -32.4785)
(4.82164 0.642518 -32.4817)
(4.70027 0.646329 -32.4782)
(4.76198 0.648774 -32.4819)
(4.66378 0.650971 -32.4806)
(4.71982 0.652057 -32.4849)
(4.63941 0.654034 -32.4855)
(4.68831 0.652319 -32.4904)
(4.62543 0.657638 -32.4925)
(4.65299 0.645335 -32.4977)
(4.62211 0.654915 -32.5006)
(4.57606 0.642079 -32.4893)
(4.40811 -0.929197 -32.4314)
(4.36485 -0.823357 -32.4731)
(3.77232 -0.769666 -32.4719)
(3.69338 -0.706772 -32.485)
(3.35551 -0.682894 -32.4806)
(3.40239 -0.671993 -32.4853)
(3.18774 -0.66715 -32.4789)
(3.26645 -0.664848 -32.4822)
(3.10833 -0.663374 -32.4794)
(3.18796 -0.662404 -32.4845)
(3.06393 -0.661646 -32.4852)
(3.13727 -0.661016 -32.491)
(3.03709 -0.660592 -32.4931)
(3.10308 -0.660341 -32.4986)
(3.01952 -0.659747 -32.501)
(3.0817 -0.661032 -32.5059)
(3.00067 -0.657687 -32.5082)
(3.08656 -0.664828 -32.5124)
(2.94891 -0.656828 -32.514)
(3.25754 -0.659294 -32.5055)
(2.96859 -0.0936962 -32.3705)
(2.22436 0.451972 -32.4142)
(1.56709 0.596509 -32.4102)
(1.50207 0.648368 -32.4241)
(1.29417 0.663686 -32.4142)
(1.34474 0.668144 -32.4198)
(1.22031 0.671834 -32.411)
(1.28188 0.67191 -32.4179)
(1.18843 0.674041 -32.415)
(1.24523 0.673583 -32.4238)
(1.17074 0.674961 -32.4242)
(1.22074 0.674309 -32.4326)
(1.15994 0.675316 -32.4339)
(1.20349 0.67474 -32.4409)
(1.15273 0.675312 -32.4423)
(1.19131 0.675339 -32.4479)
(1.14527 0.672483 -32.449)
(1.1787 0.678136 -32.4535)
(1.13467 0.627009 -32.4539)
(0.997704 0.629256 -32.4554)
(4.33829 0.539509 0.00719095)
(3.199 0.810341 0.00479555)
(2.52126 0.830769 0.00601603)
(2.05862 0.817229 0.00458403)
(1.95713 0.820395 0.00565832)
(1.81588 0.830816 0.00451604)
(1.82246 0.839023 0.00539836)
(1.74726 0.845599 0.00444161)
(1.76102 0.848725 0.00515819)
(1.71229 0.851515 0.00435601)
(1.72345 0.852546 0.00493892)
(1.69082 0.853966 0.00426887)
(1.69819 0.8542 0.00474173)
(1.67559 0.855216 0.00418282)
(1.67987 0.854656 0.00456336)
(1.66339 0.857184 0.00409698)
(1.6635 0.849011 0.00440155)
(1.67245 0.872772 0.00400954)
(1.59339 0.75991 0.00428019)
(2.05704 0.778627 0.0038659)
(4.73008 -0.111756 0.00464966)
(4.61018 -0.293931 0.0026843)
(4.53531 -0.492986 0.00393156)
(4.23153 -0.647909 0.00253259)
(4.12648 -0.7341 0.00361629)
(3.92973 -0.781093 0.00248087)
(3.88953 -0.803074 0.00336799)
(3.77378 -0.816232 0.00241329)
(3.76124 -0.823364 0.00313201)
(3.68989 -0.828751 0.00233044)
(3.68668 -0.831935 0.00291435)
(3.64116 -0.834682 0.00224457)
(3.64035 -0.836175 0.00271797)
(3.61005 -0.837978 0.00215928)
(3.60982 -0.838175 0.00253975)
(3.58618 -0.840548 0.00207415)
(3.5914 -0.839303 0.00237441)
(3.55427 -0.840014 0.00198954)
(3.60418 -0.852003 0.0021961)
(3.31816 -0.828965 0.00183957)
(4.61742 0.416962 0.00592365)
(4.80088 0.823957 0.00402677)
(5.0626 0.905662 0.00515874)
(5.01327 0.893397 0.00372121)
(5.05568 0.874518 0.00477967)
(4.95203 0.862208 0.00363249)
(4.95609 0.853491 0.00451418)
(4.87524 0.848742 0.00355648)
(4.87468 0.843582 0.00427328)
(4.81724 0.841242 0.00347002)
(4.81497 0.838025 0.00405232)
(4.77494 0.837008 0.00338133)
(4.7712 0.835049 0.00385341)
(4.7442 0.83467 0.00329401)
(4.73696 0.833349 0.003674)
(4.72416 0.833618 0.00320761)
(4.70137 0.829712 0.00351174)
(4.72746 0.838846 0.00312084)
(4.64873 0.790796 0.0033893)
(4.79759 0.849311 0.003014)
(4.56028 -0.20219 0.0047643)
(4.6887 -0.399346 0.00308609)
(5.05133 -0.524529 0.00422289)
(5.13206 -0.627164 0.00281443)
(5.29218 -0.692075 0.00387591)
(5.28278 -0.735542 0.00273399)
(5.35254 -0.759541 0.00361944)
(5.32378 -0.776422 0.00266488)
(5.35685 -0.786913 0.00338481)
(5.32763 -0.795464 0.00258382)
(5.34237 -0.801416 0.00316804)
(5.31709 -0.806394 0.00249825)
(5.32195 -0.810307 0.00297118)
(5.30078 -0.812934 0.00241251)
(5.30076 -0.816522 0.00279252)
(5.28082 -0.815522 0.00232716)
(5.28374 -0.824987 0.00262668)
(5.24467 -0.809156 0.00224059)
(5.28758 -0.851416 0.00244545)
(5.07334 -0.837717 0.00211731)
(4.57206 0.330095 0.00540574)
(4.68695 0.659011 0.00376401)
(5.03218 0.763204 0.00485403)
(5.13019 0.799524 0.00343185)
(5.32063 0.812869 0.00448035)
(5.34553 0.820327 0.00333171)
(5.44804 0.82227 0.00421353)
(5.45044 0.823724 0.00325684)
(5.50977 0.822411 0.00397557)
(5.50415 0.822315 0.00317354)
(5.53736 0.82073 0.00375696)
(5.52805 0.820509 0.00308641)
(5.54468 0.819383 0.00355868)
(5.53365 0.81904 0.00299939)
(5.53941 0.818905 0.00337888)
(5.52828 0.817306 0.00291284)
(5.52569 0.819556 0.00321456)
(5.51465 0.815588 0.00282486)
(5.51691 0.814062 0.00307482)
(5.47092 0.864552 0.00272456)
(4.56612 -0.263496 0.00504046)
(4.66091 -0.524849 0.00346232)
(5.00289 -0.636314 0.00455141)
(5.10375 -0.703943 0.00313644)
(5.3047 -0.741883 0.00418387)
(5.34173 -0.767253 0.00303586)
(5.45714 -0.780337 0.00391813)
(5.47192 -0.789847 0.00296195)
(5.54288 -0.794747 0.00368135)
(5.54802 -0.799362 0.00287987)
(5.59084 -0.801976 0.00346384)
(5.5898 -0.804733 0.00279369)
(5.61394 -0.806696 0.0032663)
(5.6079 -0.807957 0.00270736)
(5.62054 -0.810735 0.00308691)
(5.60821 -0.808387 0.00262144)
(5.61902 -0.817425 0.00292128)
(5.58485 -0.802903 0.00253371)
(5.62882 -0.833779 0.00275758)
(5.47721 -0.853571 0.00242547)
(4.56612 0.263496 0.00504046)
(4.66091 0.524849 0.00346232)
(5.00289 0.636314 0.00455141)
(5.10375 0.703944 0.00313644)
(5.3047 0.741883 0.00418387)
(5.34173 0.767253 0.00303586)
(5.45714 0.780337 0.00391813)
(5.47192 0.789849 0.00296195)
(5.54287 0.794748 0.00368135)
(5.54802 0.799366 0.00287987)
(5.59083 0.80198 0.00346385)
(5.58982 0.804749 0.00279367)
(5.61391 0.806706 0.00326632)
(5.60795 0.808014 0.0027073)
(5.62046 0.810765 0.00308699)
(5.60836 0.808575 0.00262127)
(5.61891 0.817556 0.00292157)
(5.58529 0.80344 0.0025333)
(5.62901 0.834386 0.00275883)
(5.47825 0.854986 0.00242529)
(4.57206 -0.330095 0.00540574)
(4.68695 -0.659011 0.00376401)
(5.03218 -0.763204 0.00485403)
(5.13019 -0.799524 0.00343185)
(5.32063 -0.812869 0.00448035)
(5.34553 -0.820326 0.00333171)
(5.44804 -0.82227 0.00421353)
(5.45044 -0.823722 0.00325684)
(5.50977 -0.822411 0.00397556)
(5.50415 -0.822309 0.00317354)
(5.53737 -0.820729 0.00375695)
(5.52805 -0.820488 0.00308643)
(5.54471 -0.819381 0.00355864)
(5.53363 -0.818968 0.00299946)
(5.53952 -0.818899 0.00337876)
(5.5282 -0.817095 0.00291303)
(5.52594 -0.819495 0.00321419)
(5.51441 -0.815115 0.00282522)
(5.51725 -0.813573 0.00307357)
(5.47051 -0.863506 0.00272436)
(4.56028 0.20219 0.0047643)
(4.6887 0.399346 0.00308609)
(5.05133 0.524529 0.00422289)
(5.13206 0.627164 0.00281443)
(5.29218 0.692076 0.00387591)
(5.28278 0.735542 0.00273399)
(5.35254 0.759542 0.00361944)
(5.32378 0.776422 0.00266488)
(5.35685 0.786915 0.00338481)
(5.32764 0.795465 0.00258382)
(5.34236 0.801422 0.00316804)
(5.31713 0.806399 0.00249824)
(5.32192 0.810323 0.00297118)
(5.30088 0.812961 0.00241249)
(5.30072 0.816568 0.00279254)
(5.28108 0.815627 0.00232708)
(5.28376 0.825156 0.00262682)
(5.24545 0.809587 0.00224035)
(5.28808 0.852052 0.00244646)
(5.07558 0.839268 0.00211702)
(4.61742 -0.416962 0.00592365)
(4.80088 -0.823957 0.00402677)
(5.0626 -0.905662 0.00515874)
(5.01327 -0.893397 0.00372121)
(5.05568 -0.874518 0.00477967)
(4.95204 -0.862207 0.00363249)
(4.95609 -0.853491 0.00451418)
(4.87525 -0.84874 0.00355648)
(4.87468 -0.843582 0.00427327)
(4.81725 -0.841236 0.00347003)
(4.81497 -0.838026 0.00405229)
(4.77497 -0.836987 0.00338137)
(4.77121 -0.835054 0.00385333)
(4.74426 -0.834595 0.00329412)
(4.73705 -0.833368 0.00367378)
(4.7243 -0.833399 0.00320791)
(4.70167 -0.829752 0.00351115)
(4.72778 -0.838444 0.00312144)
(4.64954 -0.790687 0.00338777)
(4.79856 -0.848912 0.0030143)
(4.73008 0.111756 0.00464966)
(4.61018 0.293931 0.0026843)
(4.53531 0.492986 0.00393156)
(4.23153 0.647909 0.00253259)
(4.12648 0.7341 0.00361629)
(3.92973 0.781092 0.00248087)
(3.88953 0.803074 0.00336799)
(3.77379 0.816231 0.00241329)
(3.76124 0.823367 0.00313201)
(3.68991 0.828748 0.00233043)
(3.68667 0.831942 0.00291435)
(3.6412 0.834672 0.00224456)
(3.64033 0.836194 0.00271795)
(3.61019 0.837956 0.00215928)
(3.6098 0.838229 0.0025397)
(3.58659 0.840512 0.00207418)
(3.59144 0.839484 0.00237429)
(3.55566 0.840128 0.00198963)
(3.6043 0.852649 0.00219625)
(3.32381 0.830269 0.00183995)
(4.33829 -0.539509 0.00719095)
(3.199 -0.81034 0.00479555)
(2.52126 -0.830769 0.00601604)
(2.05862 -0.817229 0.00458404)
(1.95713 -0.820395 0.00565832)
(1.81588 -0.830815 0.00451604)
(1.82246 -0.839024 0.00539836)
(1.74727 -0.845597 0.00444161)
(1.76102 -0.848727 0.00515819)
(1.71229 -0.85151 0.00435602)
(1.72346 -0.852551 0.0049389)
(1.69083 -0.853949 0.0042689)
(1.69821 -0.854214 0.00474166)
(1.67563 -0.855164 0.00418294)
(1.67996 -0.854702 0.0045631)
(1.66351 -0.857048 0.00409738)
(1.66383 -0.849184 0.00440073)
(1.67279 -0.872573 0.00401078)
(1.59431 -0.76071 0.00427736)
(2.05812 -0.779717 0.00386996)
(4.37672 0.0862811 0.00150468)
(4.0409 0.126133 0.00203175)
(3.59062 0.133066 0.00111823)
(3.25109 0.124462 0.0016335)
(2.95567 0.113564 0.00112289)
(2.78854 0.107361 0.00150129)
(2.65965 0.105003 0.00115925)
(2.60901 0.106838 0.00139159)
(2.56598 0.11039 0.00116211)
(2.56015 0.115142 0.00129597)
(2.54641 0.119542 0.00115452)
(2.55086 0.123566 0.00122337)
(2.5446 0.12658 0.00114876)
(2.55121 0.129161 0.00117293)
(2.54507 0.130261 0.00114893)
(2.55865 0.132981 0.00114003)
(2.53807 0.130117 0.00115861)
(2.58528 0.138219 0.00111967)
(2.49549 0.123297 0.0011568)
(2.65812 0.135921 0.00117075)
(4.52824 0.0780342 0.00326627)
(4.66547 0.0973699 0.00396177)
(4.68087 0.0880502 0.00304265)
(4.69277 0.0557014 0.00353499)
(4.62465 0.0165788 0.00300249)
(4.58383 -0.0219214 0.00337006)
(4.51195 -0.0533544 0.0030207)
(4.47698 -0.0778795 0.00325057)
(4.42787 -0.0949262 0.00301837)
(4.40967 -0.10708 0.00315188)
(4.38138 -0.115137 0.00300947)
(4.37648 -0.120759 0.00307878)
(4.36193 -0.12495 0.00300421)
(4.36667 -0.127182 0.00302901)
(4.35855 -0.130641 0.00300583)
(4.37311 -0.128961 0.00299676)
(4.36011 -0.135931 0.00301892)
(4.39459 -0.12411 0.00297589)
(4.35078 -0.142327 0.00305574)
(4.42656 -0.109686 0.00306832)
(4.50622 0.0411884 0.00185782)
(4.64791 0.0944103 0.0024439)
(4.73533 0.133059 0.0015577)
(4.86541 0.149503 0.00205429)
(4.92154 0.1513 0.00152903)
(4.98982 0.147475 0.00190299)
(5.00251 0.142086 0.00156166)
(5.02977 0.13853 0.00179589)
(5.02344 0.136511 0.00156823)
(5.03519 0.136201 0.0017028)
(5.02607 0.136325 0.00156209)
(5.03483 0.137061 0.00163085)
(5.02805 0.136988 0.00155651)
(5.03855 0.138165 0.00158062)
(5.03391 0.13618 0.00155668)
(5.04867 0.140573 0.00154887)
(5.04406 0.131844 0.0015645)
(5.06415 0.148801 0.00153617)
(5.06101 0.122134 0.0015512)
(5.07634 0.166333 0.0015825)
(4.50217 0.0388654 0.00285834)
(4.61762 0.0401698 0.00354758)
(4.70051 0.0306032 0.00268271)
(4.8409 0.00921965 0.00318244)
(4.92143 -0.0149959 0.00264343)
(5.02196 -0.0397069 0.00300718)
(5.06841 -0.0613487 0.00265643)
(5.12778 -0.0794253 0.00288683)
(5.14974 -0.0933165 0.00265571)
(5.18557 -0.103891 0.00278955)
(5.19671 -0.111912 0.00264738)
(5.22121 -0.117612 0.00271607)
(5.22852 -0.122812 0.00264096)
(5.24665 -0.125215 0.00266499)
(5.25393 -0.130188 0.00264089)
(5.26569 -0.128207 0.00263255)
(5.28001 -0.136856 0.00265128)
(5.27603 -0.125221 0.00261906)
(5.3186 -0.142344 0.00269012)
(5.26775 -0.115134 0.00270179)
(4.5031 0.0152376 0.00217043)
(4.61825 0.0488254 0.00281537)
(4.69538 0.0775617 0.00196056)
(4.83155 0.0965695 0.00245264)
(4.91121 0.107461 0.00191288)
(5.0151 0.114502 0.00227721)
(5.0676 0.119148 0.00192951)
(5.13491 0.123338 0.00216186)
(5.16547 0.12687 0.00193321)
(5.21007 0.130203 0.00206786)
(5.22981 0.132804 0.00192703)
(5.26211 0.135034 0.00199585)
(5.2771 0.136301 0.0019214)
(5.30104 0.137793 0.00194544)
(5.31516 0.137354 0.00192136)
(5.32949 0.140005 0.00191399)
(5.35154 0.135599 0.00192892)
(5.34431 0.144797 0.00190514)
(5.4017 0.131287 0.00193026)
(5.34172 0.157428 0.00195546)
(4.50189 0.0100935 0.00249769)
(4.61127 -0.00575615 0.00317061)
(4.68744 -0.0243201 0.00232301)
(4.8226 -0.0443414 0.00282017)
(4.90221 -0.0617141 0.00227881)
(5.0067 -0.0773354 0.00264162)
(5.06064 -0.0903061 0.00229162)
(5.13001 -0.101241 0.00252309)
(5.1632 -0.109877 0.00229346)
(5.21059 -0.116732 0.00242795)
(5.2335 -0.122069 0.0022867)
(5.26857 -0.125978 0.00235551)
(5.28696 -0.129341 0.00228088)
(5.31292 -0.13118 0.00230487)
(5.33091 -0.133754 0.00228088)
(5.34535 -0.13375 0.00227317)
(5.37297 -0.136512 0.0022897)
(5.36182 -0.134546 0.00226376)
(5.42849 -0.137057 0.00231298)
(5.36005 -0.136192 0.00232666)
(4.50189 -0.0100936 0.00249769)
(4.61127 0.00575628 0.00317061)
(4.68744 0.02432 0.00232301)
(4.8226 0.0443417 0.00282017)
(4.90221 0.0617139 0.00227881)
(5.0067 0.0773363 0.00264162)
(5.06064 0.0903057 0.00229162)
(5.13001 0.101243 0.0025231)
(5.1632 0.109877 0.00229346)
(5.21059 0.116738 0.00242796)
(5.23349 0.122068 0.00228669)
(5.26858 0.125996 0.00235553)
(5.28695 0.129338 0.00228086)
(5.31293 0.131238 0.00230494)
(5.3309 0.133748 0.0022808)
(5.34537 0.13393 0.00227335)
(5.37297 0.136547 0.00228934)
(5.36188 0.13502 0.00226409)
(5.42857 0.137458 0.00231148)
(5.36025 0.137276 0.00232664)
(4.5031 -0.0152376 0.00217043)
(4.61825 -0.0488253 0.00281537)
(4.69538 -0.0775618 0.00196056)
(4.83155 -0.0965692 0.00245264)
(4.91121 -0.107461 0.00191288)
(5.0151 -0.114501 0.00227721)
(5.0676 -0.119149 0.00192951)
(5.13491 -0.123335 0.00216186)
(5.16548 -0.126871 0.00193321)
(5.21007 -0.130197 0.00206785)
(5.22981 -0.132806 0.00192703)
(5.2621 -0.135015 0.00199583)
(5.27711 -0.136306 0.00192142)
(5.30103 -0.137734 0.00194537)
(5.3152 -0.137364 0.00192142)
(5.32947 -0.139826 0.00191381)
(5.35165 -0.135577 0.00192922)
(5.34433 -0.144342 0.0019048)
(5.40189 -0.130926 0.00193155)
(5.34195 -0.156414 0.00195532)
(4.50217 -0.0388654 0.00285834)
(4.61762 -0.0401697 0.00354758)
(4.70051 -0.0306032 0.00268271)
(4.8409 -0.0092194 0.00318244)
(4.92143 0.0149958 0.00264343)
(5.02196 0.0397076 0.00300718)
(5.06841 0.0613485 0.00265643)
(5.12778 0.0794269 0.00288684)
(5.14973 0.0933162 0.0026557)
(5.18557 0.103895 0.00278956)
(5.19671 0.111912 0.00264737)
(5.22122 0.117627 0.0027161)
(5.22853 0.122811 0.00264092)
(5.24667 0.125265 0.00266506)
(5.25395 0.130184 0.00264078)
(5.26575 0.128371 0.00263271)
(5.28013 0.13688 0.0026509)
(5.27621 0.125676 0.00261934)
(5.31899 0.142677 0.00268863)
(5.26842 0.116208 0.00270184)
(4.50622 -0.0411884 0.00185782)
(4.64791 -0.0944102 0.0024439)
(4.73533 -0.133059 0.0015577)
(4.86541 -0.149503 0.00205429)
(4.92154 -0.1513 0.00152903)
(4.98983 -0.147474 0.00190299)
(5.00251 -0.142087 0.00156166)
(5.02977 -0.138529 0.00179589)
(5.02343 -0.136512 0.00156823)
(5.0352 -0.136195 0.0017028)
(5.02607 -0.136328 0.00156209)
(5.03486 -0.137045 0.00163084)
(5.02805 -0.136996 0.00155651)
(5.0386 -0.138113 0.0015806)
(5.03394 -0.136199 0.00155668)
(5.04878 -0.140419 0.00154879)
(5.04424 -0.13186 0.00156461)
(5.06442 -0.148414 0.001536)
(5.06161 -0.121926 0.00155187)
(5.07728 -0.165538 0.00158252)
(4.52824 -0.0780342 0.00326627)
(4.66547 -0.0973699 0.00396177)
(4.68086 -0.0880502 0.00304265)
(4.69278 -0.0557014 0.003535)
(4.62465 -0.0165787 0.00300248)
(4.58383 0.0219215 0.00337007)
(4.51195 0.0533547 0.00302069)
(4.47699 0.0778797 0.00325058)
(4.42786 0.0949272 0.00301835)
(4.40969 0.107081 0.0031519)
(4.38136 0.11514 0.00300942)
(4.37654 0.120764 0.00307885)
(4.36189 0.124955 0.0030041)
(4.36682 0.127205 0.00302919)
(4.35848 0.130646 0.00300553)
(4.37347 0.129051 0.00299719)
(4.3601 0.13595 0.00301813)
(4.39552 0.124393 0.00297689)
(4.3511 0.142539 0.00305342)
(4.42921 0.110416 0.00307037)
(4.37672 -0.0862811 0.00150468)
(4.0409 -0.126133 0.00203175)
(3.59062 -0.133066 0.00111823)
(3.25109 -0.124462 0.0016335)
(2.95567 -0.113564 0.00112289)
(2.78854 -0.107361 0.00150129)
(2.65965 -0.105003 0.00115925)
(2.60901 -0.106838 0.00139159)
(2.56598 -0.110391 0.00116211)
(2.56016 -0.11514 0.00129597)
(2.54641 -0.119543 0.00115452)
(2.55089 -0.123561 0.00122338)
(2.54459 -0.126585 0.00114873)
(2.55132 -0.129145 0.00117296)
(2.54507 -0.130277 0.00114884)
(2.55896 -0.13293 0.00114014)
(2.53815 -0.130163 0.00115833)
(2.58625 -0.138098 0.00112003)
(2.49565 -0.123359 0.00115594)
(2.66194 -0.135867 0.0011722)
(4.37672 0.0862811 -0.00150478)
(4.0409 0.126133 -0.00203185)
(3.59062 0.133066 -0.00111833)
(3.25109 0.124462 -0.0016336)
(2.95567 0.113564 -0.00112299)
(2.78854 0.107361 -0.00150139)
(2.65965 0.105003 -0.00115935)
(2.60901 0.106838 -0.0013917)
(2.56598 0.11039 -0.00116222)
(2.56015 0.115142 -0.00129607)
(2.54641 0.119542 -0.00115462)
(2.55086 0.123566 -0.00122347)
(2.54459 0.12658 -0.00114886)
(2.55121 0.129161 -0.00117303)
(2.54507 0.130261 -0.00114903)
(2.55865 0.132981 -0.00114013)
(2.53807 0.130117 -0.00115872)
(2.58528 0.138219 -0.00111977)
(2.49549 0.123297 -0.0011569)
(2.65812 0.135921 -0.00117085)
(4.52824 0.0780342 -0.00326637)
(4.66547 0.0973699 -0.00396187)
(4.68087 0.0880502 -0.00304275)
(4.69277 0.0557014 -0.00353509)
(4.62465 0.0165788 -0.00300259)
(4.58383 -0.0219215 -0.00337016)
(4.51195 -0.0533545 -0.0030208)
(4.47698 -0.0778796 -0.00325067)
(4.42787 -0.0949263 -0.00301847)
(4.40967 -0.10708 -0.00315198)
(4.38138 -0.115137 -0.00300957)
(4.37648 -0.120759 -0.00307889)
(4.36193 -0.12495 -0.00300431)
(4.36667 -0.127182 -0.00302912)
(4.35855 -0.130641 -0.00300593)
(4.3731 -0.128961 -0.00299686)
(4.36011 -0.135931 -0.00301903)
(4.39459 -0.12411 -0.00297599)
(4.35077 -0.142327 -0.00305584)
(4.42656 -0.109686 -0.00306843)
(4.50622 0.0411884 -0.00185792)
(4.64791 0.0944103 -0.002444)
(4.73533 0.133059 -0.0015578)
(4.86541 0.149503 -0.00205439)
(4.92154 0.1513 -0.00152913)
(4.98982 0.147475 -0.00190309)
(5.00251 0.142086 -0.00156176)
(5.02977 0.138531 -0.00179599)
(5.02344 0.136511 -0.00156833)
(5.03519 0.136201 -0.0017029)
(5.02607 0.136325 -0.00156219)
(5.03483 0.137061 -0.00163095)
(5.02805 0.136989 -0.00155662)
(5.03855 0.138165 -0.00158072)
(5.03391 0.13618 -0.00155678)
(5.04867 0.140573 -0.00154897)
(5.04406 0.131844 -0.00156461)
(5.06415 0.148801 -0.00153628)
(5.06101 0.122134 -0.0015513)
(5.07634 0.166333 -0.00158261)
(4.50217 0.0388654 -0.00285844)
(4.61762 0.0401698 -0.00354768)
(4.70051 0.0306031 -0.00268281)
(4.8409 0.00921959 -0.00318254)
(4.92143 -0.014996 -0.00264353)
(5.02196 -0.0397071 -0.00300728)
(5.06841 -0.0613488 -0.00265654)
(5.12778 -0.0794254 -0.00288693)
(5.14974 -0.0933166 -0.00265581)
(5.18557 -0.103891 -0.00278965)
(5.19671 -0.111912 -0.00264748)
(5.22121 -0.117613 -0.00271617)
(5.22852 -0.122812 -0.00264106)
(5.24665 -0.125215 -0.00266509)
(5.25393 -0.130188 -0.00264099)
(5.26569 -0.128207 -0.00263265)
(5.28001 -0.136856 -0.00265139)
(5.27603 -0.125221 -0.00261917)
(5.3186 -0.142344 -0.00269022)
(5.26774 -0.115135 -0.0027019)
(4.5031 0.0152376 -0.00217053)
(4.61825 0.0488254 -0.00281547)
(4.69538 0.0775617 -0.00196066)
(4.83155 0.0965696 -0.00245274)
(4.91121 0.107461 -0.00191298)
(5.0151 0.114502 -0.00227731)
(5.0676 0.119148 -0.00192961)
(5.13491 0.123338 -0.00216196)
(5.16547 0.12687 -0.00193331)
(5.21007 0.130203 -0.00206796)
(5.22981 0.132804 -0.00192713)
(5.26211 0.135034 -0.00199595)
(5.2771 0.136301 -0.00192151)
(5.30104 0.137794 -0.00194554)
(5.31516 0.137354 -0.00192147)
(5.32949 0.140005 -0.00191409)
(5.35154 0.135599 -0.00192903)
(5.34431 0.144797 -0.00190524)
(5.4017 0.131287 -0.00193037)
(5.34172 0.157428 -0.00195557)
(4.50189 0.0100935 -0.00249779)
(4.61127 -0.00575618 -0.00317071)
(4.68744 -0.0243201 -0.00232311)
(4.8226 -0.0443415 -0.00282027)
(4.90221 -0.0617142 -0.00227892)
(5.0067 -0.0773356 -0.00264172)
(5.06064 -0.0903062 -0.00229172)
(5.13001 -0.101242 -0.00252319)
(5.1632 -0.109878 -0.00229356)
(5.21059 -0.116733 -0.00242805)
(5.2335 -0.122069 -0.0022868)
(5.26857 -0.125978 -0.00235561)
(5.28696 -0.129341 -0.00228098)
(5.31292 -0.13118 -0.00230497)
(5.33091 -0.133754 -0.00228099)
(5.34535 -0.13375 -0.00227328)
(5.37297 -0.136512 -0.0022898)
(5.36181 -0.134546 -0.00226387)
(5.42849 -0.137057 -0.00231308)
(5.36005 -0.136192 -0.00232677)
(4.50189 -0.0100936 -0.00249779)
(4.61127 0.00575629 -0.00317071)
(4.68744 0.02432 -0.00232311)
(4.8226 0.0443417 -0.00282027)
(4.90221 0.0617139 -0.00227892)
(5.0067 0.0773363 -0.00264172)
(5.06064 0.0903057 -0.00229172)
(5.13001 0.101243 -0.0025232)
(5.1632 0.109877 -0.00229356)
(5.21059 0.116738 -0.00242806)
(5.23349 0.122068 -0.00228679)
(5.26858 0.125996 -0.00235564)
(5.28695 0.129338 -0.00228096)
(5.31293 0.131239 -0.00230504)
(5.3309 0.133749 -0.00228091)
(5.34537 0.13393 -0.00227346)
(5.37297 0.136548 -0.00228944)
(5.36188 0.13502 -0.00226419)
(5.42857 0.137458 -0.00231159)
(5.36025 0.137276 -0.00232674)
(4.5031 -0.0152376 -0.00217053)
(4.61825 -0.0488253 -0.00281547)
(4.69538 -0.0775619 -0.00196066)
(4.83155 -0.0965693 -0.00245274)
(4.91121 -0.107461 -0.00191298)
(5.0151 -0.114501 -0.00227731)
(5.0676 -0.119149 -0.00192961)
(5.13491 -0.123336 -0.00216196)
(5.16547 -0.126871 -0.00193331)
(5.21007 -0.130197 -0.00206796)
(5.22981 -0.132806 -0.00192713)
(5.2621 -0.135015 -0.00199593)
(5.27711 -0.136306 -0.00192152)
(5.30103 -0.137734 -0.00194548)
(5.3152 -0.137364 -0.00192153)
(5.32947 -0.139826 -0.00191392)
(5.35165 -0.135577 -0.00192932)
(5.34433 -0.144342 -0.0019049)
(5.40189 -0.130926 -0.00193166)
(5.34195 -0.156414 -0.00195543)
(4.50217 -0.0388654 -0.00285844)
(4.61762 -0.0401697 -0.00354768)
(4.70051 -0.0306032 -0.00268281)
(4.8409 -0.00921939 -0.00318254)
(4.92143 0.0149958 -0.00264353)
(5.02196 0.0397076 -0.00300728)
(5.06841 0.0613485 -0.00265653)
(5.12778 0.0794269 -0.00288694)
(5.14973 0.0933163 -0.00265581)
(5.18557 0.103895 -0.00278966)
(5.19671 0.111912 -0.00264747)
(5.22122 0.117627 -0.0027162)
(5.22853 0.122811 -0.00264102)
(5.24667 0.125265 -0.00266516)
(5.25395 0.130184 -0.00264088)
(5.26575 0.128371 -0.00263281)
(5.28013 0.13688 -0.00265101)
(5.27621 0.125676 -0.00261945)
(5.31899 0.142677 -0.00268873)
(5.26842 0.116208 -0.00270195)
(4.50622 -0.0411884 -0.00185792)
(4.64791 -0.0944103 -0.002444)
(4.73533 -0.133059 -0.0015578)
(4.86541 -0.149503 -0.00205439)
(4.92154 -0.1513 -0.00152913)
(4.98983 -0.147474 -0.00190309)
(5.00251 -0.142087 -0.00156176)
(5.02977 -0.138529 -0.00179599)
(5.02343 -0.136512 -0.00156833)
(5.0352 -0.136195 -0.0017029)
(5.02607 -0.136328 -0.00156219)
(5.03486 -0.137045 -0.00163095)
(5.02805 -0.136996 -0.00155661)
(5.0386 -0.138113 -0.0015807)
(5.03394 -0.136199 -0.00155679)
(5.04878 -0.140419 -0.00154889)
(5.04424 -0.13186 -0.00156471)
(5.06442 -0.148414 -0.00153611)
(5.06161 -0.121926 -0.00155198)
(5.07728 -0.165538 -0.00158262)
(4.52824 -0.0780342 -0.00326637)
(4.66547 -0.0973699 -0.00396187)
(4.68086 -0.0880501 -0.00304275)
(4.69278 -0.0557014 -0.0035351)
(4.62465 -0.0165787 -0.00300259)
(4.58383 0.0219216 -0.00337017)
(4.51195 0.0533548 -0.00302079)
(4.47699 0.0778797 -0.00325068)
(4.42786 0.0949272 -0.00301845)
(4.40969 0.107081 -0.003152)
(4.38136 0.11514 -0.00300953)
(4.37654 0.120764 -0.00307895)
(4.36189 0.124955 -0.0030042)
(4.36682 0.127205 -0.00302929)
(4.35848 0.130646 -0.00300563)
(4.37347 0.129051 -0.0029973)
(4.3601 0.13595 -0.00301823)
(4.39552 0.124393 -0.00297699)
(4.3511 0.142539 -0.00305352)
(4.42921 0.110416 -0.00307048)
(4.37672 -0.0862811 -0.00150478)
(4.0409 -0.126133 -0.00203185)
(3.59062 -0.133066 -0.00111833)
(3.25109 -0.124462 -0.0016336)
(2.95567 -0.113564 -0.00112299)
(2.78854 -0.107361 -0.00150139)
(2.65965 -0.105003 -0.00115935)
(2.60901 -0.106838 -0.0013917)
(2.56598 -0.110391 -0.00116222)
(2.56016 -0.11514 -0.00129607)
(2.54641 -0.119543 -0.00115462)
(2.55089 -0.123561 -0.00122348)
(2.54459 -0.126585 -0.00114883)
(2.55132 -0.129145 -0.00117307)
(2.54507 -0.130277 -0.00114894)
(2.55896 -0.13293 -0.00114024)
(2.53815 -0.130163 -0.00115844)
(2.58625 -0.138098 -0.00112013)
(2.49565 -0.123359 -0.00115604)
(2.66194 -0.135867 -0.00117231)
(4.33829 0.539509 -0.00719103)
(3.199 0.810341 -0.00479562)
(2.52126 0.830769 -0.00601611)
(2.05862 0.817229 -0.00458411)
(1.95713 0.820395 -0.00565839)
(1.81588 0.830815 -0.00451611)
(1.82246 0.839023 -0.00539844)
(1.74726 0.845599 -0.00444168)
(1.76102 0.848725 -0.00515827)
(1.71229 0.851515 -0.00435608)
(1.72345 0.852546 -0.00493899)
(1.69082 0.853966 -0.00426895)
(1.69819 0.8542 -0.00474181)