/*--------------------------------*- C++ -*----------------------------------*\
  =========                 |
  \\      /  F ield         | OpenFOAM: The Open Source CFD Toolbox
   \\    /   O peration     | Website:  https://openfoam.org
    \\  /    A nd           | Version:  7
     \\/     M anipulation  |
\*---------------------------------------------------------------------------*/
FoamFile
{
    version     2.0;
    format      ascii;
    class       volVectorField;
    location    "0.175";
    object      U;
}
// * * * * * * * * * * * * * * * * * * * * * * * * * * * * * * * * * * * * * //

dimensions      [0 1 -1 0 0 0 0];

internalField   nonuniform List<vector> 
1440
(
(9.861 0.0308398 0)
(9.78263 0.113922 0)
(9.62382 0.18931 0)
(9.39302 0.248842 0)
(9.10854 0.291465 0)
(8.78753 0.317091 0)
(8.44386 0.327134 0)
(8.088 0.324021 0)
(7.72953 0.311113 0)
(7.37486 0.290961 0)
(7.03145 0.266418 0)
(6.70163 0.239952 0)
(6.38876 0.212413 0)
(6.09495 0.185114 0)
(5.82104 0.159046 0)
(5.56732 0.134781 0)
(5.33369 0.112647 0)
(5.11973 0.0927984 0)
(4.9247 0.0752775 0)
(4.74764 0.0600345 0)
(4.58759 0.046996 0)
(4.4435 0.0359137 0)
(4.31406 0.026422 0)
(4.198 0.0182314 0)
(4.09408 0.0111678 0)
(4.00116 0.00512259 0)
(3.91814 4.62626e-06 0)
(3.844 -0.00427798 0)
(3.77779 -0.00781676 0)
(3.71862 -0.0106985 0)
(3.66569 -0.0130029 0)
(3.61828 -0.0148035 0)
(3.57572 -0.0161671 0)
(3.53742 -0.0171547 0)
(3.50287 -0.0178215 0)
(3.47158 -0.0182166 0)
(3.44315 -0.0183836 0)
(3.41722 -0.0183611 0)
(3.39346 -0.0181831 0)
(3.37159 -0.0178791 0)
(3.35137 -0.0174751 0)
(3.3326 -0.0169932 0)
(3.31508 -0.0164527 0)
(3.29865 -0.0158694 0)
(3.28319 -0.0152568 0)
(3.26856 -0.014625 0)
(3.25468 -0.0139824 0)
(3.24143 -0.0133365 0)
(3.22876 -0.0126942 0)
(3.21659 -0.0120615 0)
(3.20487 -0.0114425 0)
(3.19354 -0.0108401 0)
(3.18256 -0.0102561 0)
(3.1719 -0.00969159 0)
(3.16153 -0.00914717 0)
(3.15143 -0.00862302 0)
(3.14156 -0.00811904 0)
(3.13191 -0.00763495 0)
(3.12246 -0.00717035 0)
(3.11321 -0.00672476 0)
(3.10413 -0.0062977 0)
(3.09522 -0.00588875 0)
(3.08647 -0.00549753 0)
(3.07787 -0.0051237 0)
(3.06942 -0.00476686 0)
(3.0611 -0.00442661 0)
(3.05292 -0.00410249 0)
(3.04488 -0.00379409 0)
(3.03696 -0.00350092 0)
(3.02916 -0.00322256 0)
(3.02149 -0.00295851 0)
(3.01393 -0.00270832 0)
(3.00649 -0.0024715 0)
(2.99916 -0.00224758 0)
(2.99195 -0.00203606 0)
(2.98484 -0.0018365 0)
(2.97785 -0.00164837 0)
(2.97096 -0.00147121 0)
(2.96418 -0.00130454 0)
(2.9575 -0.00114797 0)
(2.95092 -0.001001 0)
(2.94445 -0.000863239 0)
(2.93807 -0.000734163 0)
(2.9318 -0.000613406 0)
(2.92562 -0.000500553 0)
(2.91954 -0.000395349 0)
(2.91355 -0.000297382 0)
(2.90765 -0.000206326 0)
(2.90185 -0.000121665 0)
(2.89614 -4.31165e-05 0)
(2.89051 2.96782e-05 0)
(2.88498 9.67816e-05 0)
(2.87953 0.000158496 0)
(2.87417 0.000215011 0)
(2.86889 0.000266864 0)
(2.86369 0.000314373 0)
(2.85857 0.000357894 0)
(2.85353 0.000397445 0)
(2.84858 0.000432904 0)
(2.8437 0.000464418 0)
(2.8389 0.000491802 0)
(2.83417 0.000516271 0)
(2.82952 0.00053718 0)
(2.82493 0.00055722 0)
(2.82042 0.000573162 0)
(2.81597 0.000590416 0)
(2.81161 0.000599727 0)
(2.80731 0.000614241 0)
(2.80311 0.000612012 0)
(2.79892 0.000625931 0)
(2.79488 0.000604852 0)
(2.79077 0.00062718 0)
(2.78692 0.000573646 0)
(2.78282 0.000623984 0)
(2.77926 0.000507744 0)
(2.77506 0.000622732 0)
(2.77206 0.000387778 0)
(2.76741 0.000653051 0)
(2.76567 0.000246844 0)
(2.75931 0.000906741 0)
(9.87882 0.0417093 0)
(9.90961 0.115495 0)
(9.96354 0.178727 0)
(10.032 0.233808 0)
(10.1063 0.281675 0)
(10.1787 0.321525 0)
(10.2433 0.352665 0)
(10.2956 0.37521 0)
(10.3334 0.389988 0)
(10.3555 0.397933 0)
(10.3628 0.399963 0)
(10.356 0.396999 0)
(10.3369 0.389824 0)
(10.307 0.379172 0)
(10.2681 0.365783 0)
(10.2217 0.35034 0)
(10.1694 0.333464 0)
(10.1126 0.315681 0)
(10.0523 0.297456 0)
(9.98969 0.279173 0)
(9.92557 0.26114 0)
(9.86058 0.243598 0)
(9.79524 0.226688 0)
(9.73003 0.210525 0)
(9.66537 0.195211 0)
(9.60154 0.180822 0)
(9.53876 0.1674 0)
(9.47716 0.154956 0)
(9.41683 0.143475 0)
(9.35782 0.132926 0)
(9.30017 0.123265 0)
(9.24389 0.114442 0)
(9.18898 0.1064 0)
(9.13541 0.0990831 0)
(9.08317 0.092432 0)
(9.03222 0.0863899 0)
(8.98253 0.0809022 0)
(8.93406 0.0759172 0)
(8.88678 0.0713866 0)
(8.84066 0.0672661 0)
(8.79566 0.0635151 0)
(8.75175 0.0600963 0)
(8.70889 0.0569762 0)
(8.66706 0.0541243 0)
(8.62624 0.0515133 0)
(8.58638 0.0491185 0)
(8.54747 0.0469192 0)
(8.50948 0.0448962 0)
(8.47238 0.0430321 0)
(8.43615 0.0413108 0)
(8.40077 0.0397177 0)
(8.36621 0.0382396 0)
(8.33246 0.0368645 0)
(8.2995 0.0355815 0)
(8.26729 0.0343811 0)
(8.23584 0.0332544 0)
(8.20511 0.0321937 0)
(8.17509 0.031192 0)
(8.14577 0.0302431 0)
(8.11712 0.0293419 0)
(8.08912 0.028484 0)
(8.06178 0.027666 0)
(8.03505 0.0268846 0)
(8.00894 0.0261371 0)
(7.98342 0.0254212 0)
(7.95849 0.0247348 0)
(7.93412 0.0240759 0)
(7.9103 0.0234427 0)
(7.88702 0.0228339 0)
(7.86426 0.0222479 0)
(7.84201 0.0216836 0)
(7.82026 0.0211397 0)
(7.79899 0.0206154 0)
(7.7782 0.0201096 0)
(7.75786 0.0196216 0)
(7.73797 0.0191504 0)
(7.71851 0.0186956 0)
(7.69948 0.0182563 0)
(7.68085 0.017832 0)
(7.66263 0.017422 0)
(7.6448 0.017026 0)
(7.62734 0.0166431 0)
(7.61026 0.0162732 0)
(7.59353 0.0159156 0)
(7.57715 0.01557 0)
(7.56111 0.0152358 0)
(7.5454 0.0149128 0)
(7.53001 0.0146004 0)
(7.51493 0.0142983 0)
(7.50016 0.0140063 0)
(7.48567 0.013724 0)
(7.47148 0.0134509 0)
(7.45756 0.0131866 0)
(7.44392 0.0129309 0)
(7.43053 0.0126834 0)
(7.41741 0.0124442 0)
(7.40452 0.0122128 0)
(7.39189 0.0119891 0)
(7.37949 0.0117723 0)
(7.36732 0.0115624 0)
(7.35537 0.0113581 0)
(7.34364 0.0111607 0)
(7.33211 0.0109684 0)
(7.3208 0.0107839 0)
(7.30968 0.0106034 0)
(7.29876 0.010432 0)
(7.28804 0.0102604 0)
(7.27748 0.0101001 0)
(7.26715 0.00993166 0)
(7.25691 0.00978074 0)
(7.247 0.00960768 0)
(7.23701 0.0094679 0)
(7.22758 0.00927897 0)
(7.21768 0.00915484 0)
(7.20896 0.00892877 0)
(7.19878 0.00882152 0)
(7.19139 0.0085221 0)
(7.18005 0.00841834 0)
(7.17559 0.00804069 0)
(7.16082 0.0079435 0)
(9.87779 0.0245483 0)
(9.89357 0.0719928 0)
(9.92523 0.116043 0)
(9.97196 0.155882 0)
(10.0318 0.191233 0)
(10.1027 0.2217 0)
(10.1825 0.246812 0)
(10.2689 0.266333 0)
(10.3592 0.280393 0)
(10.451 0.289348 0)
(10.5423 0.293642 0)
(10.6312 0.29382 0)
(10.7166 0.290413 0)
(10.7975 0.283967 0)
(10.8732 0.275073 0)
(10.9432 0.264323 0)
(11.0075 0.252261 0)
(11.066 0.239361 0)
(11.1189 0.226021 0)
(11.1664 0.212578 0)
(11.2087 0.199293 0)
(11.2461 0.186408 0)
(11.279 0.174136 0)
(11.3077 0.162623 0)
(11.3328 0.151943 0)
(11.3544 0.142122 0)
(11.3729 0.133154 0)
(11.3885 0.125017 0)
(11.4017 0.117674 0)
(11.4126 0.111077 0)
(11.4215 0.105171 0)
(11.4285 0.0999004 0)
(11.4339 0.0952052 0)
(11.4378 0.0910281 0)
(11.4404 0.0873137 0)
(11.4418 0.0840096 0)
(11.4421 0.0810674 0)
(11.4414 0.0784426 0)
(11.4399 0.0760952 0)
(11.4376 0.0739892 0)
(11.4345 0.0720929 0)
(11.4308 0.0703782 0)
(11.4265 0.0688206 0)
(11.4216 0.0673982 0)
(11.4162 0.066092 0)
(11.4103 0.064884 0)
(11.404 0.0637574 0)
(11.3973 0.0626977 0)
(11.3902 0.0616934 0)
(11.3827 0.0607355 0)
(11.3749 0.0598165 0)
(11.3668 0.0589301 0)
(11.3584 0.0580712 0)
(11.3497 0.0572351 0)
(11.3408 0.0564183 0)
(11.3316 0.0556176 0)
(11.3222 0.0548307 0)
(11.3126 0.0540551 0)
(11.3027 0.0532888 0)
(11.2927 0.0525302 0)
(11.2826 0.0517785 0)
(11.2722 0.0510328 0)
(11.2617 0.050293 0)
(11.2511 0.049559 0)
(11.2404 0.0488309 0)
(11.2295 0.0481089 0)
(11.2185 0.0473933 0)
(11.2074 0.046684 0)
(11.1963 0.0459813 0)
(11.185 0.0452854 0)
(11.1737 0.0445965 0)
(11.1623 0.0439147 0)
(11.1508 0.0432404 0)
(11.1393 0.0425737 0)
(11.1277 0.0419148 0)
(11.1161 0.041264 0)
(11.1045 0.0406215 0)
(11.0928 0.0399875 0)
(11.0811 0.0393621 0)
(11.0694 0.0387455 0)
(11.0577 0.038138 0)
(11.046 0.0375394 0)
(11.0343 0.0369501 0)
(11.0226 0.03637 0)
(11.0108 0.0357993 0)
(10.9992 0.0352378 0)
(10.9875 0.0346858 0)
(10.9758 0.0341429 0)
(10.9642 0.0336096 0)
(10.9526 0.0330855 0)
(10.941 0.0325708 0)
(10.9295 0.0320651 0)
(10.918 0.0315687 0)
(10.9066 0.0310808 0)
(10.8952 0.0306023 0)
(10.8838 0.0301321 0)
(10.8725 0.0296712 0)
(10.8613 0.0292182 0)
(10.8501 0.0287743 0)
(10.8389 0.0283373 0)
(10.8278 0.0279095 0)
(10.8168 0.0274876 0)
(10.8059 0.027076 0)
(10.795 0.0266687 0)
(10.7842 0.0262737 0)
(10.7735 0.0258792 0)
(10.7628 0.0255004 0)
(10.7522 0.0251138 0)
(10.7417 0.0247512 0)
(10.7312 0.0243641 0)
(10.7209 0.0240212 0)
(10.7105 0.0236191 0)
(10.7005 0.0233069 0)
(10.69 0.0228598 0)
(10.6806 0.0226017 0)
(10.6695 0.0220425 0)
(10.6615 0.0218842 0)
(10.6489 0.0210632 0)
(10.6439 0.0210811 0)
(10.6273 0.0196571 0)
(9.87772 0.0172331 0)
(9.89196 0.0510785 0)
(9.92031 0.0830318 0)
(9.96199 0.111961 0)
(10.0153 0.137259 0)
(10.0782 0.158671 0)
(10.1489 0.176054 0)
(10.2259 0.189366 0)
(10.3073 0.198742 0)
(10.3918 0.204516 0)
(10.4777 0.207145 0)
(10.5641 0.207123 0)
(10.6498 0.204929 0)
(10.7341 0.200998 0)
(10.8163 0.195739 0)
(10.8959 0.189514 0)
(10.9724 0.182639 0)
(11.0455 0.175364 0)
(11.115 0.167885 0)
(11.1808 0.160347 0)
(11.2429 0.152874 0)
(11.3014 0.145576 0)
(11.3562 0.138544 0)
(11.4077 0.131833 0)
(11.456 0.12547 0)
(11.5012 0.119467 0)
(11.5437 0.11383 0)
(11.5835 0.108561 0)
(11.621 0.103662 0)
(11.6563 0.0991262 0)
(11.6896 0.094945 0)
(11.7212 0.0911033 0)
(11.7511 0.0875844 0)
(11.7795 0.0843679 0)
(11.8066 0.0814332 0)
(11.8326 0.0787578 0)
(11.8574 0.0763202 0)
(11.8812 0.0740981 0)
(11.9042 0.0720715 0)
(11.9263 0.0702201 0)
(11.9477 0.0685263 0)
(11.9684 0.0669725 0)
(11.9885 0.065544 0)
(12.008 0.0642261 0)
(12.0269 0.0630064 0)
(12.0453 0.0618721 0)
(12.0633 0.0608116 0)
(12.0807 0.0598138 0)
(12.0978 0.0588712 0)
(12.1144 0.0579765 0)
(12.1306 0.0571249 0)
(12.1465 0.0563112 0)
(12.162 0.0555323 0)
(12.1771 0.0547843 0)
(12.1919 0.054065 0)
(12.2064 0.0533717 0)
(12.2205 0.052703 0)
(12.2343 0.0520571 0)
(12.2478 0.0514336 0)
(12.261 0.0508308 0)
(12.2738 0.0502477 0)
(12.2864 0.0496824 0)
(12.2987 0.0491342 0)
(12.3107 0.0486011 0)
(12.3225 0.0480829 0)
(12.3339 0.047578 0)
(12.3451 0.0470863 0)
(12.356 0.0466064 0)
(12.3667 0.0461382 0)
(12.3771 0.0456803 0)
(12.3872 0.0452327 0)
(12.3971 0.0447941 0)
(12.4067 0.0443646 0)
(12.4161 0.0439431 0)
(12.4252 0.0435297 0)
(12.4341 0.0431233 0)
(12.4428 0.0427242 0)
(12.4512 0.0423315 0)
(12.4594 0.0419455 0)
(12.4674 0.0415652 0)
(12.4752 0.0411912 0)
(12.4827 0.0408223 0)
(12.4901 0.0404592 0)
(12.4972 0.0401009 0)
(12.5041 0.039748 0)
(12.5108 0.0393994 0)
(12.5173 0.039056 0)
(12.5236 0.0387165 0)
(12.5298 0.0383819 0)
(12.5357 0.0380509 0)
(12.5414 0.0377245 0)
(12.547 0.0374014 0)
(12.5524 0.0370827 0)
(12.5576 0.0367668 0)
(12.5626 0.0364552 0)
(12.5675 0.036146 0)
(12.5722 0.0358412 0)
(12.5767 0.0355382 0)
(12.5811 0.0352397 0)
(12.5853 0.0349421 0)
(12.5893 0.0346495 0)
(12.5932 0.0343562 0)
(12.597 0.0340698 0)
(12.6006 0.0337797 0)
(12.604 0.0335005 0)
(12.6074 0.033211 0)
(12.6105 0.0329406 0)
(12.6136 0.0326455 0)
(12.6165 0.0323876 0)
(12.6193 0.0320752 0)
(12.6219 0.0318396 0)
(12.6245 0.0314882 0)
(12.6268 0.031297 0)
(12.6292 0.0308641 0)
(12.6312 0.0307595 0)
(12.6335 0.0301596 0)
(12.6351 0.0302119 0)
(12.6374 0.0292757 0)
(12.6382 0.0295543 0)
(12.641 0.0279075 0)
(9.87767 0.0101736 0)
(9.89089 0.0301376 0)
(9.91718 0.0489572 0)
(9.95607 0.0659603 0)
(10.0062 0.0807729 0)
(10.0658 0.0932754 0)
(10.1332 0.103447 0)
(10.2066 0.111304 0)
(10.2846 0.116932 0)
(10.3657 0.12052 0)
(10.4485 0.122329 0)
(10.5319 0.12264 0)
(10.6149 0.121707 0)
(10.6967 0.119748 0)
(10.7767 0.116946 0)
(10.8542 0.113467 0)
(10.929 0.109463 0)
(11.0006 0.105072 0)
(11.069 0.100403 0)
(11.134 0.0955491 0)
(11.1955 0.090597 0)
(11.2537 0.0856311 0)
(11.3087 0.0807354 0)
(11.3605 0.0759869 0)
(11.4093 0.0714474 0)
(11.4554 0.0671612 0)
(11.499 0.063156 0)
(11.5401 0.0594452 0)
(11.5791 0.0560319 0)
(11.6161 0.0529113 0)
(11.6513 0.0500727 0)
(11.6849 0.0475017 0)
(11.7169 0.0451814 0)
(11.7477 0.0430934 0)
(11.7772 0.0412187 0)
(11.8057 0.0395383 0)
(11.8332 0.0380335 0)
(11.8598 0.0366864 0)
(11.8857 0.0354802 0)
(11.9108 0.0343992 0)
(11.9353 0.0334291 0)
(11.9592 0.0325571 0)
(11.9826 0.0317714 0)
(12.0056 0.0310615 0)
(12.0281 0.0304179 0)
(12.0501 0.0298329 0)
(12.0719 0.0293006 0)
(12.0932 0.0288159 0)
(12.1143 0.0283737 0)
(12.1351 0.0279691 0)
(12.1555 0.0275975 0)
(12.1758 0.0272549 0)
(12.1957 0.0269376 0)
(12.2155 0.0266425 0)
(12.235 0.0263666 0)
(12.2542 0.0261078 0)
(12.2733 0.0258639 0)
(12.2922 0.0256338 0)
(12.3108 0.0254162 0)
(12.3293 0.0252102 0)
(12.3476 0.0250144 0)
(12.3657 0.0248274 0)
(12.3836 0.024648 0)
(12.4013 0.0244749 0)
(12.4189 0.0243068 0)
(12.4363 0.0241427 0)
(12.4535 0.0239819 0)
(12.4705 0.023824 0)
(12.4874 0.0236685 0)
(12.5041 0.0235151 0)
(12.5207 0.0233636 0)
(12.5371 0.0232138 0)
(12.5534 0.0230655 0)
(12.5695 0.0229186 0)
(12.5854 0.022773 0)
(12.6012 0.0226288 0)
(12.6168 0.0224858 0)
(12.6323 0.0223441 0)
(12.6477 0.0222036 0)
(12.6629 0.0220644 0)
(12.678 0.0219265 0)
(12.6929 0.0217899 0)
(12.7077 0.0216546 0)
(12.7223 0.0215207 0)
(12.7369 0.0213881 0)
(12.7513 0.0212568 0)
(12.7655 0.0211269 0)
(12.7797 0.0209984 0)
(12.7937 0.0208712 0)
(12.8075 0.0207454 0)
(12.8213 0.020621 0)
(12.8349 0.0204979 0)
(12.8484 0.0203762 0)
(12.8618 0.0202558 0)
(12.8751 0.0201367 0)
(12.8882 0.0200188 0)
(12.9012 0.0199023 0)
(12.9141 0.0197868 0)
(12.9269 0.0196729 0)
(12.9396 0.0195594 0)
(12.9522 0.019448 0)
(12.9647 0.019336 0)
(12.977 0.0192274 0)
(12.9893 0.0191161 0)
(13.0014 0.0190111 0)
(13.0135 0.0188987 0)
(13.0254 0.0187983 0)
(13.0372 0.0186808 0)
(13.0489 0.0185873 0)
(13.0606 0.0184571 0)
(13.072 0.0183766 0)
(13.0837 0.01822 0)
(13.0945 0.0181661 0)
(13.1064 0.017957 0)
(13.1165 0.0179544 0)
(13.1291 0.0176405 0)
(13.1375 0.017725 0)
(13.1519 0.0171967 0)
(13.1568 0.0173854 0)
(13.1756 0.0163965 0)
(9.87764 0.00336359 0)
(9.89032 0.00994754 0)
(9.91561 0.0161467 0)
(9.95315 0.021752 0)
(10.0017 0.0266435 0)
(10.0598 0.0307855 0)
(10.1256 0.0341773 0)
(10.1975 0.0368326 0)
(10.274 0.0387824 0)
(10.3537 0.0400861 0)
(10.4354 0.0408199 0)
(10.5177 0.041065 0)
(10.5998 0.0408897 0)
(10.6808 0.0403561 0)
(10.76 0.0395152 0)
(10.8369 0.038422 0)
(10.9111 0.037127 0)
(10.9823 0.0356801 0)
(11.0503 0.0341258 0)
(11.1149 0.0325097 0)
(11.1762 0.0308718 0)
(11.2342 0.029251 0)
(11.2891 0.0276848 0)
(11.3408 0.0262132 0)
(11.3897 0.0248673 0)
(11.4359 0.0236637 0)
(11.4795 0.0226037 0)
(11.5207 0.0216806 0)
(11.5597 0.0208819 0)
(11.5967 0.020194 0)
(11.6319 0.0196019 0)
(11.6654 0.0190922 0)
(11.6975 0.0186514 0)
(11.7281 0.0182685 0)
(11.7576 0.0179331 0)
(11.786 0.0176371 0)
(11.8134 0.0173731 0)
(11.8399 0.0171352 0)
(11.8657 0.0169183 0)
(11.8907 0.0167184 0)
(11.9151 0.0165326 0)
(11.939 0.0163588 0)
(11.9623 0.0161953 0)
(11.9851 0.0160408 0)
(12.0076 0.0158942 0)
(12.0296 0.0157551 0)
(12.0513 0.0156232 0)
(12.0726 0.0154982 0)
(12.0936 0.0153793 0)
(12.1144 0.0152655 0)
(12.1349 0.0151559 0)
(12.1551 0.0150495 0)
(12.1751 0.0149457 0)
(12.1948 0.0148442 0)
(12.2144 0.0147443 0)
(12.2337 0.014646 0)
(12.2528 0.0145489 0)
(12.2718 0.0144527 0)
(12.2906 0.0143568 0)
(12.3091 0.0142609 0)
(12.3276 0.0141645 0)
(12.3458 0.0140674 0)
(12.3639 0.0139694 0)
(12.3818 0.0138705 0)
(12.3995 0.0137704 0)
(12.4171 0.0136689 0)
(12.4346 0.0135661 0)
(12.4519 0.0134624 0)
(12.469 0.0133579 0)
(12.4861 0.0132527 0)
(12.5029 0.0131471 0)
(12.5197 0.0130412 0)
(12.5363 0.0129351 0)
(12.5527 0.0128291 0)
(12.569 0.0127233 0)
(12.5853 0.0126179 0)
(12.6013 0.0125129 0)
(12.6173 0.0124087 0)
(12.6331 0.0123051 0)
(12.6488 0.0122025 0)
(12.6644 0.0121008 0)
(12.6799 0.0120002 0)
(12.6952 0.0119007 0)
(12.7105 0.0118024 0)
(12.7256 0.0117053 0)
(12.7406 0.0116094 0)
(12.7555 0.0115148 0)
(12.7703 0.0114214 0)
(12.785 0.0113294 0)
(12.7996 0.0112386 0)
(12.8141 0.011149 0)
(12.8285 0.0110607 0)
(12.8428 0.0109736 0)
(12.857 0.0108877 0)
(12.8711 0.0108028 0)
(12.8851 0.0107191 0)
(12.8991 0.0106364 0)
(12.9129 0.0105546 0)
(12.9266 0.0104738 0)
(12.9403 0.0103937 0)
(12.9539 0.0103146 0)
(12.9674 0.0102357 0)
(12.9808 0.0101583 0)
(12.9941 0.0100802 0)
(13.0073 0.0100043 0)
(13.0205 0.00992613 0)
(13.0336 0.00985164 0)
(13.0466 0.00977169 0)
(13.0595 0.00969885 0)
(13.0725 0.00961419 0)
(13.085 0.00954468 0)
(13.0981 0.00945071 0)
(13.1102 0.00938917 0)
(13.1235 0.00927715 0)
(13.1348 0.00923294 0)
(13.149 0.00908374 0)
(13.1584 0.00907215 0)
(13.1748 0.00883898 0)
(13.1803 0.00887232 0)
(13.2017 0.00842789 0)
(9.87764 -0.00332615 0)
(9.89032 -0.00984082 0)
(9.9156 -0.0159813 0)
(9.95313 -0.0215392 0)
(10.0017 -0.0263903 0)
(10.0598 -0.0304916 0)
(10.1256 -0.0338338 0)
(10.1975 -0.0364244 0)
(10.274 -0.0382921 0)
(10.3537 -0.039496 0)
(10.4354 -0.0401145 0)
(10.5177 -0.0402319 0)
(10.5998 -0.0399198 0)
(10.6808 -0.0392432 0)
(10.76 -0.0382551 0)
(10.837 -0.0370132 0)
(10.9112 -0.0355694 0)
(10.9823 -0.0339765 0)
(11.0503 -0.0322732 0)
(11.1149 -0.0305026 0)
(11.1762 -0.028707 0)
(11.2343 -0.0269284 0)
(11.2891 -0.0252041 0)
(11.3409 -0.0235718 0)
(11.3898 -0.0220609 0)
(11.4359 -0.0206942 0)
(11.4794 -0.0194818 0)
(11.5206 -0.0184239 0)
(11.5596 -0.0175116 0)
(11.5966 -0.0167319 0)
(11.6318 -0.0160694 0)
(11.6653 -0.0155092 0)
(11.6973 -0.0150366 0)
(11.728 -0.0146386 0)
(11.7574 -0.0143033 0)
(11.7858 -0.0140208 0)
(11.8132 -0.013782 0)
(11.8397 -0.0135798 0)
(11.8655 -0.013408 0)
(11.8905 -0.0132613 0)
(11.9149 -0.0131344 0)
(11.9387 -0.0130232 0)
(11.9621 -0.0129235 0)
(11.9849 -0.0128324 0)
(12.0073 -0.0127471 0)
(12.0294 -0.0126658 0)
(12.0511 -0.0125869 0)
(12.0724 -0.0125091 0)
(12.0934 -0.0124315 0)
(12.1142 -0.0123538 0)
(12.1347 -0.0122753 0)
(12.1549 -0.0121957 0)
(12.1749 -0.0121147 0)
(12.1946 -0.012032 0)
(12.2142 -0.0119475 0)
(12.2335 -0.0118612 0)
(12.2527 -0.0117734 0)
(12.2716 -0.0116841 0)
(12.2904 -0.0115936 0)
(12.309 -0.0115017 0)
(12.3274 -0.0114083 0)
(12.3456 -0.0113134 0)
(12.3637 -0.0112172 0)
(12.3816 -0.0111196 0)
(12.3993 -0.0110204 0)
(12.4169 -0.0109197 0)
(12.4344 -0.0108175 0)
(12.4517 -0.010714 0)
(12.4688 -0.0106095 0)
(12.4858 -0.0105044 0)
(12.5027 -0.010399 0)
(12.5194 -0.0102935 0)
(12.536 -0.0101883 0)
(12.5525 -0.0100836 0)
(12.5688 -0.00997953 0)
(12.585 -0.00987628 0)
(12.6011 -0.00977395 0)
(12.617 -0.00967271 0)
(12.6329 -0.00957262 0)
(12.6486 -0.00947383 0)
(12.6641 -0.00937637 0)
(12.6796 -0.00928036 0)
(12.695 -0.00918583 0)
(12.7102 -0.00909286 0)
(12.7253 -0.00900146 0)
(12.7403 -0.00891169 0)
(12.7552 -0.00882356 0)
(12.77 -0.00873713 0)
(12.7847 -0.00865238 0)
(12.7993 -0.00856935 0)
(12.8138 -0.00848804 0)
(12.8282 -0.00840847 0)
(12.8425 -0.00833064 0)
(12.8567 -0.00825455 0)
(12.8708 -0.00818023 0)
(12.8848 -0.00810763 0)
(12.8987 -0.00803684 0)
(12.9126 -0.00796773 0)
(12.9263 -0.00790053 0)
(12.94 -0.0078349 0)
(12.9535 -0.00777137 0)
(12.967 -0.00770918 0)
(12.9804 -0.00764943 0)
(12.9938 -0.00759051 0)
(13.007 -0.00753483 0)
(13.0202 -0.00747892 0)
(13.0332 -0.00742798 0)
(13.0463 -0.00737452 0)
(13.0591 -0.00732953 0)
(13.0721 -0.00727689 0)
(13.0847 -0.0072397 0)
(13.0977 -0.00718376 0)
(13.1098 -0.00715744 0)
(13.1232 -0.00708938 0)
(13.1344 -0.00707984 0)
(13.1486 -0.00698145 0)
(13.158 -0.0069981 0)
(13.1744 -0.00682714 0)
(13.1799 -0.00687263 0)
(13.2013 -0.00652045 0)
(9.87767 -0.0101295 0)
(9.89087 -0.0300138 0)
(9.91715 -0.0487707 0)
(9.95603 -0.0657307 0)
(10.0061 -0.0805142 0)
(10.0658 -0.0929888 0)
(10.1331 -0.103123 0)
(10.2066 -0.110925 0)
(10.2846 -0.116482 0)
(10.3657 -0.11998 0)
(10.4486 -0.121678 0)
(10.532 -0.121854 0)
(10.615 -0.120764 0)
(10.6968 -0.11863 0)
(10.7768 -0.115645 0)
(10.8543 -0.111982 0)
(10.9291 -0.1078 0)
(11.0007 -0.103239 0)
(11.0691 -0.0984204 0)
(11.1341 -0.0934435 0)
(11.1956 -0.0883937 0)
(11.2538 -0.0833512 0)
(11.3087 -0.0783941 0)
(11.3605 -0.0735953 0)
(11.4094 -0.0690161 0)
(11.4555 -0.0646992 0)
(11.499 -0.0606698 0)
(11.5401 -0.0569394 0)
(11.5791 -0.0535099 0)
(11.6161 -0.0503757 0)
(11.6512 -0.0475268 0)
(11.6847 -0.0449491 0)
(11.7168 -0.042626 0)
(11.7475 -0.0405393 0)
(11.777 -0.0386701 0)
(11.8055 -0.0369996 0)
(11.8329 -0.0355097 0)
(11.8595 -0.0341829 0)
(11.8853 -0.033002 0)
(11.9104 -0.0319505 0)
(11.9349 -0.0310121 0)
(11.9588 -0.0301725 0)
(11.9822 -0.0294188 0)
(12.0051 -0.0287398 0)
(12.0276 -0.0281254 0)
(12.0497 -0.0275665 0)
(12.0714 -0.0270554 0)
(12.0928 -0.0265859 0)
(12.1138 -0.0261531 0)
(12.1346 -0.0257526 0)
(12.1551 -0.0253807 0)
(12.1753 -0.0250339 0)
(12.1952 -0.0247092 0)
(12.215 -0.0244039 0)
(12.2345 -0.0241155 0)
(12.2538 -0.0238422 0)
(12.2728 -0.0235822 0)
(12.2917 -0.0233341 0)
(12.3103 -0.0230967 0)
(12.3288 -0.022869 0)
(12.3471 -0.0226497 0)
(12.3652 -0.0224381 0)
(12.3831 -0.0222331 0)
(12.4008 -0.022034 0)
(12.4184 -0.0218398 0)
(12.4358 -0.0216499 0)
(12.453 -0.0214637 0)
(12.4701 -0.0212812 0)
(12.4869 -0.0211023 0)
(12.5037 -0.0209271 0)
(12.5202 -0.0207556 0)
(12.5367 -0.0205879 0)
(12.5529 -0.0204238 0)
(12.569 -0.0202634 0)
(12.585 -0.0201065 0)
(12.6008 -0.0199529 0)
(12.6164 -0.0198024 0)
(12.6319 -0.019655 0)
(12.6473 -0.0195105 0)
(12.6625 -0.0193689 0)
(12.6776 -0.01923 0)
(12.6926 -0.0190937 0)
(12.7074 -0.01896 0)
(12.7221 -0.0188288 0)
(12.7366 -0.0187001 0)
(12.751 -0.0185738 0)
(12.7653 -0.0184499 0)
(12.7794 -0.0183283 0)
(12.7935 -0.0182091 0)
(12.8074 -0.0180922 0)
(12.8211 -0.0179775 0)
(12.8348 -0.0178651 0)
(12.8483 -0.017755 0)
(12.8617 -0.0176471 0)
(12.875 -0.0175415 0)
(12.8882 -0.017438 0)
(12.9012 -0.017337 0)
(12.9142 -0.0172378 0)
(12.927 -0.0171414 0)
(12.9397 -0.0170464 0)
(12.9523 -0.0169548 0)
(12.9648 -0.0168638 0)
(12.9772 -0.0167773 0)
(12.9895 -0.0166896 0)
(13.0017 -0.0166091 0)
(13.0138 -0.0165234 0)
(13.0257 -0.0164507 0)
(13.0376 -0.0163642 0)
(13.0493 -0.0163026 0)
(13.0611 -0.016209 0)
(13.0724 -0.0161651 0)
(13.0842 -0.0160513 0)
(13.095 -0.016037 0)
(13.107 -0.0158763 0)
(13.1171 -0.0159134 0)
(13.1297 -0.0156539 0)
(13.1381 -0.0157745 0)
(13.1526 -0.0153092 0)
(13.1575 -0.0155227 0)
(13.1763 -0.0146028 0)
(9.87772 -0.0171857 0)
(9.89193 -0.0509361 0)
(9.92024 -0.0828092 0)
(9.96188 -0.111685 0)
(10.0151 -0.136949 0)
(10.0781 -0.158329 0)
(10.1489 -0.175672 0)
(10.2258 -0.188934 0)
(10.3073 -0.198253 0)
(10.3918 -0.203965 0)
(10.4778 -0.206518 0)
(10.5642 -0.206395 0)
(10.65 -0.204062 0)
(10.7343 -0.199948 0)
(10.8166 -0.19446 0)
(10.8961 -0.187967 0)
(10.9726 -0.180796 0)
(11.0456 -0.173212 0)
(11.1151 -0.165429 0)
(11.1808 -0.157604 0)
(11.2429 -0.149862 0)
(11.3012 -0.142299 0)
(11.3561 -0.134994 0)
(11.4075 -0.128006 0)
(11.4557 -0.121377 0)
(11.5009 -0.115131 0)
(11.5433 -0.109285 0)
(11.5831 -0.103845 0)
(11.6205 -0.0988121 0)
(11.6558 -0.0941784 0)
(11.6891 -0.0899329 0)
(11.7206 -0.0860575 0)
(11.7505 -0.0825319 0)
(11.7789 -0.0793317 0)
(11.8061 -0.0764325 0)
(11.832 -0.0738086 0)
(11.8568 -0.0714377 0)
(11.8807 -0.0692987 0)
(11.9036 -0.0673707 0)
(11.9258 -0.0656292 0)
(11.9472 -0.0640512 0)
(11.9679 -0.0626155 0)
(11.9881 -0.0613047 0)
(12.0076 -0.0601029 0)
(12.0266 -0.0589969 0)
(12.045 -0.057972 0)
(12.063 -0.0570155 0)
(12.0806 -0.0561166 0)
(12.0977 -0.0552673 0)
(12.1144 -0.0544608 0)
(12.1306 -0.0536923 0)
(12.1466 -0.0529569 0)
(12.1621 -0.0522516 0)
(12.1773 -0.0515728 0)
(12.1921 -0.0509186 0)
(12.2066 -0.0502861 0)
(12.2208 -0.0496741 0)
(12.2347 -0.0490806 0)
(12.2482 -0.0485052 0)
(12.2615 -0.0479462 0)
(12.2744 -0.0474032 0)
(12.287 -0.0468749 0)
(12.2994 -0.0463609 0)
(12.3115 -0.0458597 0)
(12.3232 -0.0453708 0)
(12.3348 -0.044892 0)
(12.346 -0.0444227 0)
(12.357 -0.0439618 0)
(12.3677 -0.0435096 0)
(12.3781 -0.0430654 0)
(12.3883 -0.0426294 0)
(12.3982 -0.042201 0)
(12.4079 -0.0417805 0)
(12.4173 -0.0413672 0)
(12.4265 -0.0409615 0)
(12.4355 -0.0405624 0)
(12.4442 -0.0401705 0)
(12.4527 -0.0397848 0)
(12.4609 -0.0394058 0)
(12.4689 -0.0390325 0)
(12.4767 -0.0386655 0)
(12.4843 -0.0383038 0)
(12.4917 -0.037948 0)
(12.4989 -0.0375971 0)
(12.5058 -0.0372518 0)
(12.5126 -0.0369111 0)
(12.5191 -0.0365757 0)
(12.5255 -0.0362446 0)
(12.5316 -0.0359186 0)
(12.5376 -0.0355966 0)
(12.5433 -0.0352795 0)
(12.5489 -0.0349661 0)
(12.5543 -0.0346576 0)
(12.5596 -0.0343525 0)
(12.5646 -0.0340522 0)
(12.5695 -0.0337549 0)
(12.5742 -0.0334626 0)
(12.5787 -0.0331729 0)
(12.5831 -0.0328884 0)
(12.5873 -0.0326058 0)
(12.5914 -0.0323292 0)
(12.5952 -0.0320532 0)
(12.599 -0.0317848 0)
(12.6026 -0.0315142 0)
(12.606 -0.031255 0)
(12.6093 -0.0309877 0)
(12.6125 -0.03074 0)
(12.6155 -0.0304716 0)
(12.6184 -0.0302403 0)
(12.6211 -0.0299611 0)
(12.6237 -0.0297563 0)
(12.6263 -0.0294458 0)
(12.6285 -0.0292875 0)
(12.6309 -0.0289037 0)
(12.6328 -0.0288297 0)
(12.635 -0.02829 0)
(12.6365 -0.0283639 0)
(12.6387 -0.0275077 0)
(12.6395 -0.0277928 0)
(12.6421 -0.0262711 0)
(9.87779 -0.0245231 0)
(9.89354 -0.0719276 0)
(9.92515 -0.115966 0)
(9.97182 -0.155814 0)
(10.0317 -0.191166 0)
(10.1026 -0.221605 0)
(10.1824 -0.246664 0)
(10.2687 -0.266127 0)
(10.3591 -0.280141 0)
(10.4509 -0.289072 0)
(10.5421 -0.293375 0)
(10.631 -0.293589 0)
(10.7163 -0.290232 0)
(10.7971 -0.283834 0)
(10.8727 -0.274975 0)
(10.9426 -0.264239 0)
(11.0068 -0.252172 0)
(11.0651 -0.239256 0)
(11.1178 -0.225902 0)
(11.165 -0.21246 0)
(11.2071 -0.199219 0)
(11.2443 -0.186406 0)
(11.2771 -0.174189 0)
(11.3058 -0.162682 0)
(11.3306 -0.151958 0)
(11.3521 -0.142055 0)
(11.3704 -0.132983 0)
(11.386 -0.124729 0)
(11.399 -0.117267 0)
(11.4098 -0.110553 0)
(11.4186 -0.104538 0)
(11.4255 -0.0991646 0)
(11.4309 -0.0943751 0)
(11.4348 -0.0901101 0)
(11.4373 -0.0863112 0)
(11.4387 -0.0829231 0)
(11.439 -0.0798948 0)
(11.4384 -0.0771913 0)
(11.4368 -0.0747772 0)
(11.4345 -0.0726144 0)
(11.4314 -0.0706664 0)
(11.4277 -0.0689011 0)
(11.4234 -0.067291 0)
(11.4185 -0.0658128 0)
(11.4131 -0.0644467 0)
(11.4072 -0.0631761 0)
(11.4009 -0.0619869 0)
(11.3941 -0.0608666 0)
(11.387 -0.0598041 0)
(11.3794 -0.0587899 0)
(11.3716 -0.0578159 0)
(11.3634 -0.0568757 0)
(11.3549 -0.055964 0)
(11.3461 -0.0550765 0)
(11.3371 -0.0542097 0)
(11.3278 -0.0533609 0)
(11.3183 -0.0525279 0)
(11.3085 -0.0517091 0)
(11.2986 -0.0509031 0)
(11.2885 -0.0501088 0)
(11.2781 -0.0493254 0)
(11.2677 -0.0485525 0)
(11.257 -0.0477898 0)
(11.2463 -0.0470375 0)
(11.2353 -0.0462956 0)
(11.2243 -0.0455629 0)
(11.2131 -0.0448385 0)
(11.2019 -0.0441221 0)
(11.1905 -0.0434137 0)
(11.1791 -0.0427136 0)
(11.1676 -0.0420219 0)
(11.156 -0.0413384 0)
(11.1443 -0.0406632 0)
(11.1326 -0.0399961 0)
(11.1208 -0.0393375 0)
(11.109 -0.0386874 0)
(11.0971 -0.038046 0)
(11.0852 -0.0374135 0)
(11.0733 -0.0367901 0)
(11.0614 -0.0361758 0)
(11.0494 -0.035571 0)
(11.0374 -0.0349755 0)
(11.0255 -0.0343897 0)
(11.0135 -0.0338135 0)
(11.0015 -0.0332471 0)
(10.9896 -0.0326904 0)
(10.9776 -0.0321436 0)
(10.9657 -0.0316065 0)
(10.9538 -0.0310794 0)
(10.9419 -0.0305619 0)
(10.9301 -0.0300544 0)
(10.9183 -0.0295565 0)
(10.9065 -0.0290684 0)
(10.8947 -0.0285897 0)
(10.883 -0.0281209 0)
(10.8714 -0.0276611 0)
(10.8598 -0.0272113 0)
(10.8482 -0.0267701 0)
(10.8367 -0.0263388 0)
(10.8252 -0.0259157 0)
(10.8138 -0.0255028 0)
(10.8024 -0.025097 0)
(10.7911 -0.0247022 0)
(10.7799 -0.0243128 0)
(10.7687 -0.0239363 0)
(10.7576 -0.0235617 0)
(10.7466 -0.0232038 0)
(10.7356 -0.022841 0)
(10.7247 -0.0225036 0)
(10.7138 -0.0221461 0)
(10.7032 -0.0218332 0)
(10.6923 -0.0214675 0)
(10.6819 -0.0211883 0)
(10.6709 -0.0207848 0)
(10.6612 -0.020559 0)
(10.6496 -0.0200538 0)
(10.6412 -0.0199222 0)
(10.6279 -0.0191767 0)
(10.6227 -0.019207 0)
(10.6051 -0.0179114 0)
(9.87881 -0.0414136 0)
(9.90942 -0.114872 0)
(9.96306 -0.178074 0)
(10.0312 -0.23326 0)
(10.1051 -0.281206 0)
(10.177 -0.321052 0)
(10.2409 -0.352096 0)
(10.2924 -0.374466 0)
(10.3292 -0.388991 0)
(10.3504 -0.396603 0)
(10.3566 -0.398236 0)
(10.3487 -0.39483 0)
(10.3284 -0.38719 0)
(10.2975 -0.376078 0)
(10.2576 -0.362246 0)
(10.2102 -0.346387 0)
(10.157 -0.329114 0)
(10.0992 -0.310951 0)
(10.038 -0.292348 0)
(9.97457 -0.27369 0)
(9.90966 -0.255287 0)
(9.84397 -0.237402 0)
(9.77809 -0.220221 0)
(9.71245 -0.203881 0)
(9.64743 -0.188478 0)
(9.58327 -0.17407 0)
(9.52018 -0.16068 0)
(9.4583 -0.148307 0)
(9.39772 -0.136931 0)
(9.3385 -0.126513 0)
(9.28065 -0.117005 0)
(9.22419 -0.108353 0)
(9.16911 -0.100496 0)
(9.11538 -0.0933747 0)
(9.06299 -0.0869267 0)
(9.01188 -0.0810908 0)
(8.96204 -0.075809 0)
(8.91338 -0.0710172 0)
(8.86589 -0.0666592 0)
(8.81955 -0.0626899 0)
(8.77432 -0.0590719 0)
(8.73016 -0.0557717 0)
(8.68704 -0.0527561 0)
(8.64493 -0.0499969 0)
(8.60379 -0.0474669 0)
(8.5636 -0.0451442 0)
(8.52434 -0.0430108 0)
(8.48597 -0.0410488 0)
(8.44849 -0.0392411 0)
(8.41186 -0.0375714 0)
(8.37606 -0.0360254 0)
(8.34109 -0.0345898 0)
(8.30691 -0.0332534 0)
(8.27351 -0.0320057 0)
(8.24087 -0.0308378 0)
(8.20897 -0.0297416 0)
(8.17779 -0.0287103 0)
(8.14732 -0.0277375 0)
(8.11755 -0.0268177 0)
(8.08844 -0.0259461 0)
(8.06 -0.0251184 0)
(8.0322 -0.0243307 0)
(8.00503 -0.0235797 0)
(7.97847 -0.0228626 0)
(7.9525 -0.0221774 0)
(7.92712 -0.0215235 0)
(7.90231 -0.0209003 0)
(7.87805 -0.0203063 0)
(7.85433 -0.0197394 0)
(7.83114 -0.0191976 0)
(7.80846 -0.018679 0)
(7.78628 -0.0181817 0)
(7.76459 -0.0177043 0)
(7.74337 -0.0172453 0)
(7.72261 -0.0168037 0)
(7.70231 -0.0163785 0)
(7.68243 -0.015969 0)
(7.66298 -0.0155743 0)
(7.64395 -0.0151939 0)
(7.62531 -0.0148271 0)
(7.60707 -0.0144733 0)
(7.5892 -0.0141321 0)
(7.5717 -0.0138031 0)
(7.55456 -0.0134856 0)
(7.53777 -0.0131794 0)
(7.52132 -0.0128839 0)
(7.5052 -0.012599 0)
(7.48939 -0.0123241 0)
(7.4739 -0.012059 0)
(7.45871 -0.0118032 0)
(7.4438 -0.0115565 0)
(7.42919 -0.0113186 0)
(7.41485 -0.0110892 0)
(7.40078 -0.0108679 0)
(7.38697 -0.0106545 0)
(7.37341 -0.0104488 0)
(7.3601 -0.0102505 0)
(7.34703 -0.0100593 0)
(7.33418 -0.00987488 0)
(7.32157 -0.00969734 0)
(7.30917 -0.00952585 0)
(7.29698 -0.0093611 0)
(7.285 -0.00920149 0)
(7.27322 -0.00904883 0)
(7.26163 -0.00889987 0)
(7.25023 -0.00875881 0)
(7.23903 -0.0086188 0)
(7.22797 -0.00848918 0)
(7.21714 -0.00835524 0)
(7.20639 -0.00823753 0)
(7.19595 -0.00810413 0)
(7.18542 -0.00799965 0)
(7.17547 -0.00785573 0)
(7.165 -0.0077665 0)
(7.15576 -0.0075907 0)