/*--------------------------------*- C++ -*----------------------------------*\
  =========                 |
  \\      /  F ield         | OpenFOAM: The Open Source CFD Toolbox
   \\    /   O peration     | Website:  https://openfoam.org
    \\  /    A nd           | Version:  7
     \\/     M anipulation  |
\*---------------------------------------------------------------------------*/
FoamFile
{
    version     2.0;
    format      ascii;
    class       volScalarField;
    location    "0.04";
    object      rho;
}
// * * * * * * * * * * * * * * * * * * * * * * * * * * * * * * * * * * * * * //

dimensions      [1 -3 0 0 0 0 0];

internalField   nonuniform List<scalar> 
1600
(
1.15628
1.15198
1.14857
1.14599
1.14409
1.14277
1.14191
1.1414
1.14114
1.14105
1.14106
1.14113
1.1412
1.14127
1.14132
1.14135
1.14136
1.14135
1.14133
1.14129
1.14125
1.14121
1.14116
1.14112
1.14108
1.14104
1.141
1.14097
1.14094
1.14091
1.14088
1.14086
1.14084
1.14082
1.1408
1.14078
1.14077
1.14076
1.14075
1.14075
1.15759
1.1548
1.15206
1.14973
1.14792
1.14663
1.14577
1.14528
1.14504
1.14498
1.14502
1.14511
1.14521
1.1453
1.14537
1.14542
1.14544
1.14544
1.14542
1.14538
1.14534
1.14529
1.14525
1.1452
1.14515
1.14511
1.14506
1.14502
1.14499
1.14495
1.14492
1.1449
1.14487
1.14485
1.14483
1.14481
1.14479
1.14478
1.14477
1.14477
1.15814
1.15643
1.15442
1.1525
1.15089
1.14968
1.14888
1.14842
1.14821
1.14819
1.14827
1.14841
1.14855
1.14868
1.14878
1.14885
1.14889
1.1489
1.14889
1.14886
1.14882
1.14877
1.14872
1.14866
1.14861
1.14855
1.14851
1.14846
1.14842
1.14838
1.14834
1.14831
1.14827
1.14825
1.14822
1.1482
1.14818
1.14816
1.14815
1.14814
1.15838
1.15734
1.15593
1.15443
1.15309
1.15204
1.15131
1.1509
1.15073
1.15074
1.15086
1.15104
1.15122
1.15139
1.15153
1.15163
1.15169
1.15172
1.15172
1.1517
1.15166
1.15161
1.15156
1.1515
1.15144
1.15138
1.15133
1.15127
1.15122
1.15118
1.15114
1.1511
1.15106
1.15103
1.151
1.15097
1.15095
1.15093
1.15091
1.1509
1.15848
1.15782
1.15686
1.15576
1.15471
1.15383
1.1532
1.15282
1.15268
1.15272
1.15287
1.15307
1.15329
1.15348
1.15365
1.15377
1.15386
1.1539
1.15392
1.15391
1.15388
1.15383
1.15378
1.15373
1.15367
1.15361
1.15355
1.1535
1.15344
1.1534
1.15335
1.15331
1.15327
1.15323
1.1532
1.15317
1.15314
1.15312
1.1531
1.15309
1.15854
1.15812
1.15747
1.15669
1.15588
1.15517
1.15463
1.15431
1.15419
1.15423
1.15438
1.15459
1.15482
1.15503
1.15521
1.15535
1.15545
1.15551
1.15554
1.15554
1.15552
1.15549
1.15544
1.15539
1.15534
1.15529
1.15523
1.15518
1.15513
1.15508
1.15504
1.155
1.15496
1.15492
1.15489
1.15486
1.15483
1.15481
1.15479
1.15477
1.15857
1.15831
1.15788
1.15733
1.15673
1.15617
1.15572
1.15544
1.15533
1.15537
1.15551
1.15571
1.15593
1.15613
1.15631
1.15646
1.15656
1.15663
1.15667
1.15669
1.15668
1.15666
1.15662
1.15658
1.15654
1.1565
1.15645
1.1564
1.15636
1.15632
1.15628
1.15624
1.1562
1.15617
1.15614
1.15611
1.15608
1.15606
1.15604
1.15602
1.15859
1.15843
1.15814
1.15776
1.15732
1.15689
1.15654
1.1563
1.1562
1.15622
1.15634
1.15651
1.15671
1.1569
1.15707
1.15721
1.15731
1.15738
1.15743
1.15745
1.15745
1.15744
1.15742
1.15739
1.15736
1.15733
1.15729
1.15725
1.15722
1.15718
1.15715
1.15712
1.15708
1.15706
1.15703
1.157
1.15698
1.15696
1.15694
1.15693
1.1586
1.1585
1.15831
1.15805
1.15774
1.15742
1.15714
1.15695
1.15686
1.15686
1.15696
1.1571
1.15727
1.15743
1.15758
1.1577
1.1578
1.15787
1.15791
1.15793
1.15795
1.15794
1.15793
1.15792
1.15789
1.15787
1.15784
1.15782
1.15779
1.15776
1.15774
1.15771
1.15769
1.15766
1.15764
1.15762
1.1576
1.15758
1.15757
1.15755
1.15861
1.15854
1.15842
1.15825
1.15803
1.1578
1.15759
1.15743
1.15735
1.15735
1.15741
1.15752
1.15766
1.1578
1.15792
1.15802
1.1581
1.15816
1.1582
1.15823
1.15824
1.15825
1.15825
1.15824
1.15823
1.15821
1.15819
1.15817
1.15815
1.15814
1.15812
1.1581
1.15808
1.15806
1.15804
1.15803
1.15801
1.158
1.15798
1.15797
1.15861
1.15857
1.15849
1.15838
1.15823
1.15806
1.15791
1.15778
1.15772
1.15771
1.15775
1.15783
1.15794
1.15805
1.15814
1.15823
1.15829
1.15834
1.15838
1.1584
1.15842
1.15843
1.15843
1.15843
1.15842
1.15841
1.1584
1.15839
1.15838
1.15837
1.15835
1.15834
1.15833
1.15831
1.1583
1.15829
1.15828
1.15827
1.15826
1.15825
1.15862
1.15859
1.15854
1.15846
1.15836
1.15825
1.15813
1.15804
1.15799
1.15797
1.158
1.15806
1.15814
1.15822
1.15829
1.15836
1.15841
1.15845
1.15848
1.1585
1.15852
1.15852
1.15853
1.15853
1.15853
1.15853
1.15852
1.15852
1.15851
1.1585
1.15849
1.15849
1.15848
1.15847
1.15846
1.15845
1.15844
1.15843
1.15843
1.15842
1.15862
1.1586
1.15857
1.15852
1.15845
1.15837
1.15829
1.15822
1.15818
1.15817
1.15819
1.15823
1.15828
1.15834
1.15839
1.15844
1.15848
1.15851
1.15854
1.15855
1.15857
1.15858
1.15858
1.15859
1.15859
1.15859
1.15859
1.15859
1.15858
1.15858
1.15857
1.15857
1.15856
1.15856
1.15855
1.15855
1.15854
1.15854
1.15853
1.15853
1.15862
1.15861
1.15859
1.15856
1.15851
1.15846
1.1584
1.15835
1.15832
1.15831
1.15832
1.15835
1.15838
1.15842
1.15846
1.1585
1.15853
1.15855
1.15857
1.15858
1.15859
1.1586
1.15861
1.15862
1.15862
1.15862
1.15863
1.15863
1.15862
1.15862
1.15862
1.15862
1.15861
1.15861
1.15861
1.1586
1.1586
1.15859
1.15859
1.15859
1.15862
1.15862
1.1586
1.15858
1.15855
1.15851
1.15848
1.15844
1.15842
1.15841
1.15841
1.15843
1.15845
1.15848
1.15851
1.15853
1.15855
1.15857
1.15858
1.1586
1.15861
1.15862
1.15862
1.15863
1.15864
1.15864
1.15864
1.15864
1.15864
1.15864
1.15864
1.15864
1.15864
1.15864
1.15863
1.15863
1.15863
1.15863
1.15862
1.15862
1.15862
1.15862
1.15861
1.1586
1.15858
1.15855
1.15853
1.1585
1.15849
1.15848
1.15848
1.15849
1.15851
1.15852
1.15854
1.15856
1.15857
1.15858
1.15859
1.1586
1.15861
1.15862
1.15863
1.15864
1.15864
1.15865
1.15865
1.15865
1.15865
1.15866
1.15866
1.15865
1.15865
1.15865
1.15865
1.15865
1.15865
1.15864
1.15864
1.15864
1.15862
1.15862
1.15862
1.15861
1.15859
1.15858
1.15856
1.15855
1.15853
1.15853
1.15853
1.15853
1.15854
1.15855
1.15856
1.15857
1.15858
1.15859
1.1586
1.1586
1.15861
1.15862
1.15863
1.15864
1.15864
1.15865
1.15865
1.15866
1.15866
1.15866
1.15866
1.15866
1.15866
1.15866
1.15866
1.15866
1.15866
1.15865
1.15865
1.15865
1.15862
1.15862
1.15862
1.15861
1.1586
1.15859
1.15858
1.15857
1.15856
1.15856
1.15856
1.15856
1.15856
1.15857
1.15857
1.15858
1.15859
1.15859
1.1586
1.15861
1.15861
1.15862
1.15863
1.15864
1.15864
1.15865
1.15865
1.15866
1.15866
1.15866
1.15866
1.15866
1.15866
1.15866
1.15866
1.15866
1.15866
1.15866
1.15866
1.15866
1.15862
1.15862
1.15862
1.15862
1.15861
1.15861
1.1586
1.15859
1.15858
1.15858
1.15858
1.15858
1.15858
1.15858
1.15858
1.15859
1.15859
1.15859
1.1586
1.1586
1.15861
1.15862
1.15863
1.15863
1.15864
1.15865
1.15865
1.15866
1.15866
1.15866
1.15866
1.15866
1.15867
1.15867
1.15866
1.15866
1.15866
1.15866
1.15866
1.15866
1.15862
1.15862
1.15862
1.15862
1.15862
1.15861
1.15861
1.1586
1.1586
1.15859
1.15859
1.15859
1.15859
1.15859
1.15859
1.15859
1.15859
1.15859
1.1586
1.1586
1.15861
1.15862
1.15862
1.15863
1.15864
1.15864
1.15865
1.15866
1.15866
1.15866
1.15866
1.15867
1.15867
1.15867
1.15867
1.15866
1.15866
1.15866
1.15866
1.15866
1.15862
1.15862
1.15862
1.15862
1.15862
1.15862
1.15861
1.15861
1.15861
1.1586
1.1586
1.1586
1.15859
1.15859
1.15859
1.15859
1.15859
1.15859
1.1586
1.1586
1.15861
1.15861
1.15862
1.15863
1.15863
1.15864
1.15865
1.15865
1.15866
1.15866
1.15866
1.15867
1.15867
1.15867
1.15867
1.15867
1.15866
1.15866
1.15866
1.15866
1.15862
1.15862
1.15862
1.15862
1.15862
1.15862
1.15862
1.15861
1.15861
1.15861
1.1586
1.1586
1.1586
1.1586
1.15859
1.15859
1.15859
1.15859
1.1586
1.1586
1.1586
1.15861
1.15862
1.15862
1.15863
1.15864
1.15865
1.15865
1.15866
1.15866
1.15866
1.15866
1.15867
1.15867
1.15867
1.15867
1.15866
1.15866
1.15866
1.15866
1.15862
1.15862
1.15862
1.15862
1.15862
1.15862
1.15862
1.15862
1.15861
1.15861
1.15861
1.1586
1.1586
1.1586
1.1586
1.15859
1.15859
1.15859
1.15859
1.1586
1.1586
1.15861
1.15861
1.15862
1.15863
1.15864
1.15864
1.15865
1.15865
1.15866
1.15866
1.15866
1.15867
1.15867
1.15867
1.15867
1.15867
1.15866
1.15866
1.15866
1.15862
1.15862
1.15862
1.15862
1.15862
1.15862
1.15862
1.15862
1.15862
1.15861
1.15861
1.15861
1.1586
1.1586
1.1586
1.15859
1.15859
1.15859
1.15859
1.15859
1.1586
1.1586
1.15861
1.15862
1.15862
1.15863
1.15864
1.15865
1.15865
1.15866
1.15866
1.15866
1.15866
1.15867
1.15867
1.15867
1.15867
1.15866
1.15866
1.15866
1.15862
1.15862
1.15862
1.15862
1.15862
1.15862
1.15862
1.15862
1.15862
1.15861
1.15861
1.15861
1.1586
1.1586
1.1586
1.15859
1.15859
1.15859
1.15859
1.15859
1.1586
1.1586
1.15861
1.15861
1.15862
1.15863
1.15863
1.15864
1.15865
1.15865
1.15866
1.15866
1.15866
1.15867
1.15867
1.15867
1.15867
1.15866
1.15866
1.15866
1.15862
1.15862
1.15862
1.15862
1.15862
1.15862
1.15862
1.15862
1.15862
1.15862
1.15861
1.15861
1.15861
1.1586
1.1586
1.1586
1.15859
1.15859
1.15859
1.15859
1.15859
1.1586
1.1586
1.15861
1.15862
1.15862
1.15863
1.15864
1.15865
1.15865
1.15866
1.15866
1.15866
1.15866
1.15867
1.15867
1.15866
1.15866
1.15866
1.15866
1.15862
1.15862
1.15862
1.15862
1.15862
1.15862
1.15862
1.15862
1.15862
1.15862
1.15861
1.15861
1.15861
1.1586
1.1586
1.1586
1.15859
1.15859
1.15859
1.15859
1.15859
1.1586
1.1586
1.1586
1.15861
1.15862
1.15863
1.15864
1.15864
1.15865
1.15865
1.15866
1.15866
1.15866
1.15866
1.15866
1.15866
1.15866
1.15866
1.15866
1.15862
1.15862
1.15862
1.15862
1.15862
1.15862
1.15862
1.15862
1.15862
1.15862
1.15861
1.15861
1.15861
1.1586
1.1586
1.1586
1.1586
1.15859
1.15859
1.15859
1.15859
1.15859
1.1586
1.1586
1.15861
1.15862
1.15862
1.15863
1.15864
1.15865
1.15865
1.15866
1.15866
1.15866
1.15866
1.15866
1.15866
1.15866
1.15866
1.15866
1.15862
1.15862
1.15862
1.15862
1.15862
1.15862
1.15862
1.15862
1.15862
1.15862
1.15862
1.15861
1.15861
1.15861
1.1586
1.1586
1.1586
1.15859
1.15859
1.15859
1.15859
1.15859
1.1586
1.1586
1.15861
1.15861
1.15862
1.15863
1.15864
1.15864
1.15865
1.15866
1.15866
1.15866
1.15866
1.15866
1.15866
1.15866
1.15866
1.15866
1.15862
1.15862
1.15862
1.15862
1.15862
1.15862
1.15862
1.15862
1.15862
1.15862
1.15862
1.15861
1.15861
1.15861
1.15861
1.1586
1.1586
1.1586
1.1586
1.15859
1.15859
1.15859
1.1586
1.1586
1.1586
1.15861
1.15862
1.15863
1.15864
1.15864
1.15865
1.15865
1.15866
1.15866
1.15866
1.15866
1.15866
1.15866
1.15866
1.15866
1.15862
1.15862
1.15862
1.15862
1.15862
1.15862
1.15862
1.15862
1.15862
1.15862
1.15862
1.15862
1.15861
1.15861
1.15861
1.15861
1.1586
1.1586
1.1586
1.1586
1.1586
1.1586
1.1586
1.1586
1.15861
1.15861
1.15862
1.15863
1.15863
1.15864
1.15865
1.15865
1.15866
1.15866
1.15866
1.15866
1.15866
1.15866
1.15866
1.15866
1.15862
1.15862
1.15862
1.15862
1.15862
1.15862
1.15862
1.15862
1.15862
1.15862
1.15862
1.15862
1.15862
1.15861
1.15861
1.15861
1.15861
1.1586
1.1586
1.1586
1.1586
1.1586
1.1586
1.1586
1.15861
1.15861
1.15862
1.15863
1.15863
1.15864
1.15865
1.15865
1.15866
1.15866
1.15866
1.15866
1.15866
1.15866
1.15866
1.15866
1.15862
1.15862
1.15862
1.15862
1.15862
1.15862
1.15862
1.15862
1.15862
1.15862
1.15862
1.15862
1.15862
1.15862
1.15861
1.15861
1.15861
1.15861
1.15861
1.1586
1.1586
1.1586
1.1586
1.1586
1.15861
1.15861
1.15862
1.15863
1.15863
1.15864
1.15865
1.15865
1.15865
1.15866
1.15866
1.15866
1.15866
1.15866
1.15866
1.15866
1.15862
1.15862
1.15862
1.15862
1.15862
1.15862
1.15862
1.15862
1.15862
1.15862
1.15862
1.15862
1.15862
1.15862
1.15862
1.15861
1.15861
1.15861
1.15861
1.15861
1.15861
1.15861
1.15861
1.15861
1.15861
1.15862
1.15862
1.15863
1.15864
1.15864
1.15865
1.15865
1.15865
1.15865
1.15865
1.15865
1.15865
1.15865
1.15865
1.15865
1.15862
1.15862
1.15862
1.15862
1.15862
1.15862
1.15862
1.15862
1.15862
1.15862
1.15862
1.15862
1.15862
1.15862
1.15862
1.15862
1.15861
1.15861
1.15861
1.15861
1.15861
1.15861
1.15861
1.15861
1.15862
1.15862
1.15863
1.15863
1.15864
1.15864
1.15864
1.15865
1.15865
1.15865
1.15865
1.15865
1.15865
1.15865
1.15865
1.15865
1.15862
1.15862
1.15862
1.15862
1.15862
1.15862
1.15862
1.15862
1.15862
1.15862
1.15862
1.15862
1.15862
1.15862
1.15862
1.15862
1.15862
1.15861
1.15861
1.15861
1.15861
1.15861
1.15861
1.15862
1.15862
1.15862
1.15863
1.15863
1.15864
1.15864
1.15864
1.15865
1.15865
1.15865
1.15865
1.15865
1.15865
1.15865
1.15865
1.15865
1.15862
1.15862
1.15862
1.15862
1.15862
1.15862
1.15862
1.15862
1.15862
1.15862
1.15862
1.15862
1.15862
1.15862
1.15862
1.15862
1.15862
1.15862
1.15862
1.15861
1.15861
1.15861
1.15862
1.15862
1.15862
1.15863
1.15863
1.15863
1.15864
1.15864
1.15864
1.15864
1.15864
1.15864
1.15864
1.15864
1.15864
1.15864
1.15864
1.15864
1.15862
1.15862
1.15862
1.15862
1.15862
1.15862
1.15862
1.15862
1.15862
1.15862
1.15862
1.15862
1.15862
1.15862
1.15862
1.15862
1.15862
1.15862
1.15862
1.15862
1.15862
1.15862
1.15862
1.15862
1.15862
1.15863
1.15863
1.15863
1.15863
1.15864
1.15864
1.15864
1.15864
1.15864
1.15864
1.15864
1.15864
1.15864
1.15864
1.15864
1.15862
1.15862
1.15862
1.15862
1.15862
1.15862
1.15862
1.15862
1.15862
1.15862
1.15862
1.15862
1.15862
1.15862
1.15862
1.15862
1.15862
1.15862
1.15862
1.15862
1.15862
1.15862
1.15862
1.15862
1.15862
1.15863
1.15863
1.15863
1.15863
1.15863
1.15863
1.15863
1.15863
1.15863
1.15863
1.15863
1.15863
1.15863
1.15863
1.15863
1.15862
1.15862
1.15862
1.15862
1.15862
1.15862
1.15862
1.15862
1.15862
1.15862
1.15862
1.15862
1.15862
1.15862
1.15862
1.15862
1.15862
1.15862
1.15862
1.15862
1.15862
1.15862
1.15862
1.15862
1.15862
1.15862
1.15862
1.15863
1.15863
1.15863
1.15863
1.15863
1.15863
1.15863
1.15863
1.15863
1.15863
1.15863
1.15863
1.15863
)
;

boundaryField
{
    upperWall
    {
        type            calculated;
        value           nonuniform List<scalar> 
40
(
1.15862
1.15862
1.15862
1.15862
1.15862
1.15862
1.15862
1.15862
1.15862
1.15862
1.15862
1.15862
1.15862
1.15862
1.15862
1.15862
1.15862
1.15862
1.15862
1.15862
1.15862
1.15862
1.15862
1.15862
1.15862
1.15862
1.15862
1.15862
1.15862
1.15862
1.15862
1.15862
1.15862
1.15862
1.15862
1.15862
1.15862
1.15862
1.15862
1.15862
)
;
    }
    lowerWall
    {
        type            calculated;
        value           nonuniform List<scalar> 
40
(
1.15388
1.1496
1.1462
1.14363
1.14175
1.14043
1.13957
1.13906
1.1388
1.13871
1.13873
1.13879
1.13887
1.13893
1.13898
1.13901
1.13902
1.13901
1.13899
1.13895
1.13891
1.13887
1.13883
1.13878
1.13874
1.1387
1.13866
1.13863
1.1386
1.13857
1.13855
1.13852
1.1385
1.13848
1.13846
1.13845
1.13844
1.13842
1.13842
1.13842
)
;
    }
    inlet
    {
        type            calculated;
        value           nonuniform List<scalar> 
40
(
1.15862
1.15862
1.15862
1.15863
1.15863
1.15863
1.15863
1.15863
1.15863
1.15862
1.15862
1.15862
1.15862
1.15862
1.15862
1.15862
1.15862
1.15862
1.15862
1.15862
1.15862
1.15862
1.15862
1.15862
1.15862
1.15862
1.15862
1.15862
1.15862
1.15862
1.15862
1.15862
1.15862
1.15862
1.15863
1.15863
1.15863
1.15862
1.15863
1.15862
)
;
    }
    outlet
    {
        type            calculated;
        value           nonuniform List<scalar> 
40
(
1.14075
1.14477
1.14814
1.1509
1.15309
1.15477
1.15602
1.15693
1.15755
1.15797
1.15825
1.15842
1.15853
1.15859
1.15862
1.15864
1.15865
1.15866
1.15866
1.15866
1.15866
1.15866
1.15866
1.15866
1.15866
1.15866
1.15866
1.15866
1.15866
1.15866
1.15866
1.15866
1.15866
1.15865
1.15865
1.15865
1.15864
1.15864
1.15863
1.15863
)
;
    }
    frontAndBack
    {
        type            empty;
    }
}


// ************************************************************************* //
