/*--------------------------------*- C++ -*----------------------------------*\
  =========                 |
  \\      /  F ield         | OpenFOAM: The Open Source CFD Toolbox
   \\    /   O peration     | Website:  https://openfoam.org
    \\  /    A nd           | Version:  7
     \\/     M anipulation  |
\*---------------------------------------------------------------------------*/
FoamFile
{
    version     2.0;
    format      ascii;
    class       surfaceScalarField;
    location    "0.165";
    object      phi;
}
// * * * * * * * * * * * * * * * * * * * * * * * * * * * * * * * * * * * * * //

dimensions      [1 0 -1 0 0 0 0];

internalField   nonuniform List<scalar> 
3120
(
-7.44274e-10
1.03857e-09
-9.61315e-09
8.68621e-09
-2.39396e-08
1.41789e-08
-1.79755e-08
-6.13864e-09
-2.60682e-08
7.90082e-09
-6.64571e-08
4.02334e-08
-7.04361e-08
3.78655e-09
-1.77965e-08
-5.28417e-08
1.62684e-08
-3.42333e-08
3.02056e-08
-1.40415e-08
3.71223e-08
-6.89919e-09
4.03128e-08
-3.15862e-09
2.78955e-08
1.22832e-08
3.6278e-08
-8.53717e-09
4.10916e-08
-4.92036e-09
3.49846e-08
6.03908e-09
2.55697e-08
9.40167e-09
1.40674e-08
1.15395e-08
5.24061e-09
8.8929e-09
3.32522e-09
1.9978e-09
6.69384e-09
-3.28561e-09
7.47151e-09
-6.83686e-10
3.69819e-09
3.84008e-09
-1.08364e-09
4.7527e-09
-8.62273e-09
7.42002e-09
-1.90066e-08
1.01765e-08
-2.73003e-08
7.98209e-09
-2.75442e-08
-1.70629e-10
-1.90813e-08
-8.91815e-09
-6.15655e-09
-1.32717e-08
2.53585e-09
-8.8483e-09
-2.89356e-09
5.37054e-09
-1.75845e-08
1.46664e-08
-1.57991e-08
-1.78318e-09
-9.77805e-09
-5.99063e-09
-8.43837e-09
-1.31996e-09
-8.23541e-09
-1.46087e-10
-8.07991e-09
-9.73978e-11
-6.11316e-09
-1.95567e-09
-1.10719e-09
5.00211e-09
-3.62519e-09
-7.89303e-09
2.14377e-08
-3.67205e-08
4.28837e-08
-3.9337e-08
-3.63981e-09
-2.05109e-08
-1.1068e-08
-4.69152e-08
6.65128e-08
-2.033e-09
-4.12815e-08
1.32609e-08
-6.8344e-08
1.06669e-08
-3.18042e-08
-7.85761e-09
4.38744e-09
-1.22752e-08
-2.46381e-09
2.23848e-09
-1.75312e-08
8.76735e-09
5.79671e-09
-2.73135e-09
2.7321e-09
-1.90873e-08
1.12369e-08
-3.68396e-08
2.37375e-08
-4.90361e-08
2.15984e-08
-5.86835e-08
2.11965e-08
-6.17422e-08
1.19939e-08
-5.78765e-08
-1.80972e-09
-4.98879e-08
-1.12359e-08
-4.18361e-08
-8.69222e-09
-4.05172e-08
2.54903e-09
-4.93543e-08
1.35269e-08
-6.23389e-08
2.02634e-08
-7.27256e-08
2.03556e-08
-7.83193e-08
1.32932e-08
-7.52532e-08
-3.56459e-09
-6.28102e-08
-2.1644e-08
-4.34924e-08
-3.2791e-08
-1.90292e-08
-3.34575e-08
-1.66665e-09
-1.20786e-08
-1.0523e-08
2.34415e-08
-1.62629e-08
3.95073e-09
-1.69197e-08
-5.30571e-09
-1.93125e-08
1.07765e-09
-2.0079e-08
6.26374e-10
-1.98584e-08
-3.30297e-10
-1.98421e-08
-2.012e-09
-1.65038e-09
-7.29995e-09
4.05745e-09
-2.81489e-08
4.21832e-08
-2.62313e-08
4.08594e-08
-1.10448e-08
-1.89193e-08
9.31593e-10
-2.31279e-08
-3.48354e-08
1.02158e-07
6.26574e-08
-1.38918e-07
3.46652e-08
-4.05411e-08
1.12934e-08
-8.61764e-09
9.69432e-09
5.83327e-09
4.13215e-09
3.00279e-09
1.58606e-09
-1.49822e-08
3.94764e-09
3.50796e-09
-9.60268e-09
1.62541e-08
-3.00961e-08
3.16211e-08
-4.50358e-08
3.84905e-08
-5.59847e-08
3.23648e-08
-6.50802e-08
3.01677e-08
-7.01502e-08
1.702e-08
-6.84354e-08
-3.54214e-09
-6.41967e-08
-1.55016e-08
-6.19677e-08
-1.09403e-08
-6.48285e-08
5.38431e-09
-7.48408e-08
2.34272e-08
-8.5399e-08
3.06467e-08
-9.20166e-08
2.67524e-08
-9.38851e-08
1.49226e-08
-8.97454e-08
-7.89796e-09
-7.92419e-08
-3.21939e-08
-6.37153e-08
-4.82672e-08
-4.33939e-08
-5.37787e-08
-2.13045e-08
-3.42234e-08
-1.90049e-08
2.1039e-08
-2.6223e-08
1.11067e-08
-2.87524e-08
-2.82868e-09
-2.82461e-08
5.09342e-10
-2.84674e-08
7.82358e-10
-2.92686e-08
3.91818e-10
-3.03996e-08
-9.69935e-10
-2.5386e-09
-2.50068e-08
2.94783e-08
-3.08152e-08
4.78865e-08
-9.66791e-09
1.95941e-08
-7.92272e-09
-2.07771e-08
-1.43179e-08
-1.68262e-08
4.43706e-09
8.32715e-08
3.0853e-08
-1.65431e-07
2.61927e-08
-3.6021e-08
2.61778e-08
-8.74582e-09
3.40809e-08
-2.21244e-09
3.20175e-08
4.93194e-09
1.53983e-08
1.53078e-09
1.89544e-08
-7.75807e-11
1.9688e-08
1.54985e-08
9.29107e-09
4.19961e-08
-7.66758e-09
5.54117e-08
-3.03851e-08
5.5001e-08
-4.87025e-08
4.83594e-08
-6.07744e-08
2.89597e-08
-6.02657e-08
-4.1702e-09
-5.17761e-08
-2.40953e-08
-5.94698e-08
-3.30916e-09
-7.99114e-08
2.5782e-08
-9.18937e-08
3.52688e-08
-9.49135e-08
3.34886e-08
-9.36227e-08
2.5277e-08
-8.69742e-08
8.11459e-09
-7.73706e-08
-1.76033e-08
-6.46408e-08
-4.49489e-08
-5.34872e-08
-5.94227e-08
-4.30667e-08
-6.42271e-08
-2.9004e-08
-4.83538e-08
-1.96831e-08
1.16268e-08
-2.42652e-08
1.56036e-08
-2.93109e-08
2.12573e-09
-3.11083e-08
2.20942e-09
-3.3102e-08
2.67521e-09
-3.49305e-08
2.11689e-09
-3.60726e-08
7.0514e-11
-3.32027e-09
-2.99822e-08
5.99034e-08
-1.90575e-08
3.68651e-08
-6.19519e-09
6.64269e-09
-5.18637e-09
-2.18767e-08
-1.05123e-09
-2.10535e-08
6.02857e-08
2.18386e-08
1.02151e-08
-1.15415e-07
1.97599e-08
-4.56375e-08
2.87371e-08
-1.78086e-08
3.31882e-08
-6.75761e-09
3.97406e-08
-1.71586e-09
3.93646e-08
1.80801e-09
3.92419e-08
-3.8031e-11
4.57674e-08
8.90988e-09
5.14482e-08
3.62719e-08
4.84984e-08
5.83414e-08
3.72316e-08
6.62588e-08
2.4389e-08
6.11843e-08
7.84663e-09
4.54785e-08
-1.76351e-08
2.12916e-08
-3.31281e-08
-8.62955e-09
-4.2192e-08
5.72914e-09
-5.64584e-08
4.00701e-08
-5.98353e-08
3.86063e-08
-5.51303e-08
2.86275e-08
-4.21125e-08
1.20873e-08
-2.32302e-08
-1.08903e-08
-1.09162e-08
-2.99824e-08
-7.03345e-10
-5.52466e-08
9.35319e-11
-6.0309e-08
-1.10659e-08
-5.3136e-08
-1.78755e-08
-4.16293e-08
-1.70401e-08
1.07e-08
-1.96025e-08
1.80675e-08
-2.53835e-08
7.79313e-09
-3.07327e-08
7.44066e-09
-3.471e-08
6.53742e-09
-3.7143e-08
4.43815e-09
-3.84819e-08
1.30318e-09
-4.02075e-09
-1.8535e-08
7.89106e-08
-6.34922e-09
2.45974e-08
-2.69917e-09
2.92646e-09
5.35383e-09
-2.99987e-08
2.06987e-08
-3.64708e-08
7.07491e-08
-2.82915e-08
1.82636e-08
-6.30018e-08
1.58918e-08
-4.33431e-08
2.60481e-08
-2.80407e-08
3.77e-08
-1.84885e-08
4.84671e-08
-1.25651e-08
5.65585e-08
-6.36486e-09
5.68838e-08
-4.47485e-10
6.03461e-08
5.36903e-09
7.10262e-08
2.55234e-08
7.80061e-08
5.13101e-08
7.7428e-08
6.68094e-08
7.08902e-08
6.77128e-08
5.84739e-08
5.78997e-08
3.59966e-08
4.37942e-08
2.03093e-09
2.53874e-08
-1.45481e-08
2.23646e-08
-1.23117e-08
3.78917e-08
-1.02515e-08
3.66157e-08
-7.13896e-09
2.55433e-08
-7.82932e-10
5.70906e-09
1.21196e-08
-2.38379e-08
2.64602e-08
-4.44063e-08
3.87636e-08
-6.7689e-08
4.6083e-08
-6.77737e-08
3.03908e-08
-3.75554e-08
2.50648e-09
-1.38757e-08
-1.73191e-08
3.03532e-08
-2.3464e-08
2.40471e-08
-2.60383e-08
1.02348e-08
-3.1392e-08
1.2666e-08
-3.49555e-08
9.97796e-09
-3.75529e-08
6.91863e-09
-3.90703e-08
2.71023e-09
-4.67225e-09
-5.70781e-10
7.99734e-08
-3.58907e-09
2.7561e-08
-2.65875e-10
-4.3878e-10
1.04833e-08
-4.07963e-08
2.44768e-08
-5.05258e-08
4.49479e-08
-4.88334e-08
3.31903e-08
-5.13179e-08
3.37823e-08
-4.4011e-08
4.12175e-08
-3.5552e-08
5.09457e-08
-2.82923e-08
6.01234e-08
-2.18229e-08
6.77329e-08
-1.40537e-08
7.09376e-08
-3.73141e-09
7.13993e-08
4.82732e-09
7.80921e-08
1.87554e-08
8.65584e-08
4.27737e-08
9.01333e-08
6.31772e-08
8.77642e-08
7.00431e-08
8.04545e-08
6.51909e-08
6.91244e-08
5.51331e-08
5.11497e-08
4.34052e-08
3.72184e-08
3.63579e-08
3.79432e-08
3.72341e-08
4.09779e-08
3.36518e-08
4.38577e-08
2.2747e-08
4.49016e-08
4.74484e-09
4.27962e-08
-2.17044e-08
4.24683e-08
-4.41273e-08
3.91319e-08
-6.44809e-08
4.52717e-08
-7.40554e-08
3.25484e-08
-2.49602e-08
-3.18201e-09
2.17251e-08
-1.69321e-08
4.39229e-08
-2.77765e-08
3.47017e-08
-3.04624e-08
1.27684e-08
-3.24587e-08
1.4528e-08
-3.49112e-08
1.23024e-08
-3.75691e-08
9.45478e-09
-3.89124e-08
3.93874e-09
-5.31811e-09
1.31825e-08
6.72925e-08
8.37187e-09
3.2343e-08
1.39085e-08
-5.99817e-09
2.13689e-08
-4.82929e-08
3.0022e-08
-5.92321e-08
3.90102e-08
-5.78867e-08
4.17458e-08
-5.41245e-08
4.57508e-08
-4.80899e-08
5.23183e-08
-4.21956e-08
6.03865e-08
-3.64365e-08
6.83325e-08
-2.9846e-08
7.48367e-08
-2.06379e-08
7.85806e-08
-7.55315e-09
7.8716e-08
4.61143e-09
8.09773e-08
1.64176e-08
8.65829e-08
3.70954e-08
9.01278e-08
5.95639e-08
8.92686e-08
7.08435e-08
8.46448e-08
6.97717e-08
7.79943e-08
6.1765e-08
6.94066e-08
5.20055e-08
6.18219e-08
4.39819e-08
5.96096e-08
3.94873e-08
5.81546e-08
3.51385e-08
5.55116e-08
2.54636e-08
4.98737e-08
1.04859e-08
3.52813e-08
-7.09305e-09
1.24267e-08
-2.13103e-08
-1.38178e-08
-3.83515e-08
-4.12594e-08
-4.67256e-08
-4.66322e-08
-1.96962e-08
-5.18339e-08
2.68156e-08
-4.17558e-08
3.36981e-08
-3.18772e-08
2.46668e-08
-3.32578e-08
1.40027e-08
-3.34627e-08
1.4595e-08
-3.55808e-08
1.42885e-08
-3.80033e-08
1.1751e-08
-3.89098e-08
4.72593e-09
-5.83243e-09
1.58705e-08
5.19328e-08
1.72504e-08
3.09492e-08
2.2542e-08
-1.13057e-08
2.74785e-08
-5.32633e-08
3.36148e-08
-6.54179e-08
4.01717e-08
-6.45043e-08
4.54921e-08
-5.9512e-08
5.1388e-08
-5.40566e-08
5.8299e-08
-4.91801e-08
6.59188e-08
-4.41316e-08
7.33314e-08
-3.73328e-08
7.90066e-08
-2.63912e-08
8.24116e-08
-1.10352e-08
8.23993e-08
4.54507e-09
8.15236e-08
1.7216e-08
8.32729e-08
3.52762e-08
8.47889e-08
5.79824e-08
8.34361e-08
7.21349e-08
7.95243e-08
7.36296e-08
7.43264e-08
6.69256e-08
6.8789e-08
5.75316e-08
6.3755e-08
4.90252e-08
6.01665e-08
4.30835e-08
5.69363e-08
3.83906e-08
5.34955e-08
2.89654e-08
4.70885e-08
1.69647e-08
3.39472e-08
6.01898e-09
1.34113e-08
-8.08051e-10
-1.41773e-08
-1.08355e-08
-4.39018e-08
-1.71021e-08
-4.791e-08
-1.5809e-08
-5.10335e-08
2.982e-08
-4.33235e-08
2.58533e-08
-3.38748e-08
1.50734e-08
-3.55371e-08
1.55189e-08
-3.61493e-08
1.50669e-08
-3.75607e-08
1.55643e-08
-3.91589e-08
1.32183e-08
-3.97141e-08
5.1574e-09
-6.08407e-09
1.49453e-08
3.75032e-08
1.91801e-08
2.6701e-08
2.57937e-08
-1.7939e-08
3.08132e-08
-5.83187e-08
3.61114e-08
-7.07639e-08
4.18008e-08
-7.02501e-08
4.743e-08
-6.52041e-08
5.35123e-08
-6.02061e-08
6.03264e-08
-5.60639e-08
6.7821e-08
-5.16993e-08
7.4921e-08
-4.45062e-08
7.99652e-08
-3.15128e-08
8.29123e-08
-1.40611e-08
8.24625e-08
4.91663e-09
7.94449e-08
2.01552e-08
7.79379e-08
3.67149e-08
7.72804e-08
5.85802e-08
7.48861e-08
7.44717e-08
7.07339e-08
7.77259e-08
6.58577e-08
7.17563e-08
6.11855e-08
6.21793e-08
5.69345e-08
5.32666e-08
5.33894e-08
4.66298e-08
5.0428e-08
4.13778e-08
4.84901e-08
3.09539e-08
4.50149e-08
2.04558e-08
3.74667e-08
1.34941e-08
3.03965e-08
6.19215e-09
1.31524e-08
6.33427e-09
-2.91798e-08
2.51019e-08
-6.0621e-08
1.54725e-08
-5.34244e-08
2.24924e-08
-4.26374e-08
1.4932e-08
-3.63382e-08
8.62622e-09
-3.72986e-08
1.63295e-08
-3.91447e-08
1.67679e-08
-4.03708e-08
1.66494e-08
-4.14446e-08
1.41562e-08
-4.18514e-08
5.43615e-09
-6.01798e-09
1.22402e-08
2.57766e-08
1.75953e-08
2.13312e-08
2.73391e-08
-2.77049e-08
3.29988e-08
-6.40136e-08
3.76382e-08
-7.54481e-08
4.24332e-08
-7.50966e-08
4.72455e-08
-7.00736e-08
5.2697e-08
-6.57198e-08
5.9419e-08
-6.28518e-08
6.69304e-08
-5.92804e-08
7.31723e-08
-5.08206e-08
7.70947e-08
-3.55131e-08
7.96105e-08
-1.6659e-08
7.88098e-08
5.6359e-09
7.44561e-08
2.4429e-08
7.05975e-08
4.05048e-08
6.83448e-08
6.0775e-08
6.54532e-08
7.73073e-08
6.12932e-08
8.18295e-08
5.67175e-08
7.62841e-08
5.23575e-08
6.65092e-08
4.8522e-08
5.70855e-08
4.57037e-08
4.94529e-08
4.3358e-08
4.37593e-08
4.04036e-08
3.39271e-08
3.06551e-08
3.01523e-08
8.07826e-09
3.59768e-08
-1.01749e-08
2.43439e-08
-3.40216e-08
3.00622e-08
-3.68698e-08
2.77852e-08
-4.37851e-08
2.22237e-08
-4.25251e-08
2.10935e-08
-3.91361e-08
1.14001e-08
-3.86395e-08
7.97379e-09
-3.99726e-08
1.75065e-08
-4.23896e-08
1.90323e-08
-4.39232e-08
1.80346e-08
-4.48826e-08
1.49735e-08
-4.51798e-08
5.60093e-09
-5.70791e-09
7.04077e-09
1.92463e-08
1.6944e-08
1.14075e-08
2.8429e-08
-3.92152e-08
3.4055e-08
-6.96729e-08
3.79272e-08
-7.93604e-08
4.14994e-08
-7.87161e-08
4.50462e-08
-7.36735e-08
4.97481e-08
-7.048e-08
5.61402e-08
-6.93057e-08
6.24068e-08
-6.56108e-08
6.5697e-08
-5.4179e-08
6.6849e-08
-3.67417e-08
6.9081e-08
-1.89741e-08
6.89912e-08
5.64127e-09
6.48715e-08
2.84661e-08
6.01038e-08
4.52016e-08
5.69811e-08
6.38387e-08
5.42394e-08
7.9992e-08
5.08847e-08
8.51268e-08
4.73394e-08
7.97807e-08
4.39187e-08
6.98959e-08
4.09454e-08
6.00471e-08
3.87242e-08
5.16958e-08
3.70374e-08
4.54588e-08
3.32191e-08
3.76936e-08
2.31886e-08
4.00893e-08
8.13697e-09
5.09362e-08
-4.01254e-09
3.63914e-08
-1.58577e-08
4.17775e-08
-2.8138e-08
3.98996e-08
-3.36184e-08
2.75408e-08
-3.36984e-08
2.10266e-08
-3.54807e-08
1.3027e-08
-4.05712e-08
1.28998e-08
-4.34366e-08
2.02072e-08
-4.59569e-08
2.13898e-08
-4.75634e-08
1.94833e-08
-4.8179e-08
1.54394e-08
-4.81882e-08
5.47253e-09
-5.3992e-09
2.02397e-09
1.77299e-08
1.65508e-08
-3.14862e-09
2.82781e-08
-5.09731e-08
3.36296e-08
-7.50593e-08
3.68892e-08
-8.26592e-08
3.93726e-08
-8.12456e-08
4.17321e-08
-7.60858e-08
4.52511e-08
-7.40561e-08
4.93755e-08
-7.34871e-08
5.12748e-08
-6.75658e-08
4.92905e-08
-5.22556e-08
4.62976e-08
-3.38201e-08
4.88132e-08
-2.15695e-08
5.0532e-08
3.83811e-09
4.87229e-08
3.01922e-08
4.52676e-08
4.85848e-08
4.25414e-08
6.65039e-08
4.0571e-08
8.19037e-08
3.86535e-08
8.69862e-08
3.66738e-08
8.17115e-08
3.48069e-08
7.17347e-08
3.36105e-08
6.12417e-08
3.25946e-08
5.26966e-08
3.14743e-08
4.65123e-08
2.62179e-08
4.28389e-08
1.31504e-08
5.304e-08
-3.90315e-09
6.78961e-08
-1.78687e-08
5.02472e-08
-2.68164e-08
5.05977e-08
-2.81075e-08
4.10354e-08
-2.66855e-08
2.59564e-08
-2.84583e-08
2.26401e-08
-3.42296e-08
1.86293e-08
-4.15126e-08
2.00079e-08
-4.52792e-08
2.37982e-08
-4.73053e-08
2.32419e-08
-4.79846e-08
1.99946e-08
-4.75963e-08
1.48929e-08
-4.72418e-08
4.97342e-09
-5.55958e-09
2.28013e-09
1.59557e-08
1.73286e-08
-1.82306e-08
2.69353e-08
-6.06137e-08
3.19699e-08
-8.01316e-08
3.50305e-08
-8.57621e-08
3.69286e-08
-8.31901e-08
3.8284e-08
-7.74936e-08
3.98941e-08
-7.572e-08
4.0096e-08
-7.37375e-08
3.65166e-08
-6.40322e-08
2.98293e-08
-4.56216e-08
2.11068e-08
-2.51633e-08
2.27833e-08
-2.33228e-08
2.857e-08
-2.0321e-09
2.96036e-08
2.90769e-08
2.80463e-08
5.00707e-08
2.63233e-08
6.81661e-08
2.53777e-08
8.27917e-08
2.50324e-08
8.72746e-08
2.50955e-08
8.16044e-08
2.5666e-08
7.11388e-08
2.62837e-08
6.05815e-08
2.63799e-08
5.25056e-08
2.50537e-08
4.77025e-08
1.77393e-08
5.00071e-08
4.42074e-09
6.62333e-08
-6.37061e-09
7.85889e-08
-9.1534e-09
5.29071e-08
-6.94349e-09
4.8253e-08
-1.00021e-08
4.39397e-08
-1.66164e-08
3.24031e-08
-2.45118e-08
3.03647e-08
-3.27357e-08
2.66739e-08
-3.92129e-08
2.63008e-08
-4.15734e-08
2.59737e-08
-4.11062e-08
2.25931e-08
-3.92085e-08
1.79234e-08
-3.72667e-08
1.27881e-08
-3.6436e-08
3.98939e-09
-6.83133e-09
4.70041e-09
1.17613e-08
1.75868e-08
-3.11502e-08
2.54119e-08
-6.84732e-08
3.00178e-08
-8.47758e-08
3.29152e-08
-8.8702e-08
3.44583e-08
-8.47782e-08
3.51087e-08
-7.81929e-08
3.52512e-08
-7.59101e-08
3.32969e-08
-7.18225e-08
2.90202e-08
-5.97934e-08
2.54583e-08
-4.21072e-08
2.27835e-08
-2.25487e-08
1.60361e-08
-1.66466e-08
1.23375e-08
1.5888e-09
1.23925e-08
2.89474e-08
1.18494e-08
5.05492e-08
1.03745e-08
6.95835e-08
9.86293e-09
8.32461e-08
1.08332e-08
8.62519e-08
1.29983e-08
7.94e-08
1.57072e-08
6.83695e-08
1.74649e-08
5.87016e-08
1.71444e-08
5.26612e-08
1.28034e-08
5.18714e-08
2.40599e-09
6.02523e-08
-7.765e-09
7.6283e-08
-9.53854e-09
8.02578e-08
-7.76383e-09
5.09996e-08
-7.06118e-09
4.74092e-08
-1.11643e-08
4.7884e-08
-1.74676e-08
3.85326e-08
-2.43001e-08
3.70188e-08
-3.05702e-08
3.27583e-08
-3.41543e-08
2.96947e-08
-3.3639e-08
2.52698e-08
-3.0696e-08
1.94686e-08
-2.79575e-08
1.50142e-08
-2.71212e-08
1.17896e-08
-2.69732e-08
3.67841e-09
-8.416e-09
6.41008e-09
5.85842e-09
1.73493e-08
-4.21213e-08
2.39464e-08
-7.51035e-08
2.8079e-08
-8.8945e-08
3.06316e-08
-9.12937e-08
3.16096e-08
-8.57983e-08
3.16364e-08
-7.82659e-08
3.12596e-08
-7.55779e-08
2.96966e-08
-7.02963e-08
2.83841e-08
-5.85152e-08
2.90701e-08
-4.28345e-08
2.86975e-08
-2.22314e-08
1.88056e-08
-6.81978e-09
9.6901e-09
1.06367e-08
4.04583e-09
3.45264e-08
-7.09192e-10
5.52445e-08
-4.03762e-09
7.28537e-08
-4.71878e-09
8.38723e-08
-2.82282e-09
8.43116e-08
8.26983e-10
7.56885e-08
4.40949e-09
6.46516e-08
5.55344e-09
5.73665e-08
2.99688e-09
5.50242e-08
-4.30702e-09
5.90053e-08
-1.36584e-08
6.94648e-08
-1.71382e-08
7.96472e-08
-1.28129e-08
7.58207e-08
-1.27691e-08
5.08187e-08
-1.51375e-08
4.96306e-08
-1.8198e-08
5.07795e-08
-2.22207e-08
4.23775e-08
-2.50599e-08
3.96757e-08
-2.70083e-08
3.45175e-08
-2.69018e-08
2.93955e-08
-2.438e-08
2.25596e-08
-2.23665e-08
1.72768e-08
-2.37075e-08
1.61887e-08
-2.73632e-08
1.52834e-08
-2.96501e-08
5.79336e-09
-9.21713e-09
7.70309e-09
-1.33665e-09
1.69532e-08
-5.14032e-08
2.26071e-08
-8.07902e-08
2.62136e-08
-9.25867e-08
2.81518e-08
-9.32697e-08
2.8129e-08
-8.5817e-08
2.70275e-08
-7.72093e-08
2.54318e-08
-7.40261e-08
2.26778e-08
-6.75791e-08
1.9821e-08
-5.56912e-08
1.71232e-08
-4.01771e-08
1.97841e-08
-2.49478e-08
1.25685e-08
3.37062e-10
1.04857e-09
2.20952e-08
-6.67382e-09
4.21868e-08
-1.32462e-08
6.1758e-08
-1.72177e-08
7.67713e-08
-1.76735e-08
8.42808e-08
-1.50748e-08
8.1655e-08
-1.07294e-08
7.12212e-08
-7.82091e-09
6.15444e-08
-9.14018e-09
5.84791e-08
-1.44969e-08
6.02019e-08
-2.16695e-08
6.60297e-08
-2.65046e-08
7.41767e-08
-2.49471e-08
7.79771e-08
-1.95177e-08
7.02731e-08
-2.18362e-08
5.29969e-08
-2.43729e-08
5.2013e-08
-2.4487e-08
5.07229e-08
-2.48709e-08
4.25801e-08
-2.30156e-08
3.76339e-08
-2.0422e-08
3.17302e-08
-1.80675e-08
2.68453e-08
-1.67219e-08
2.10257e-08
-1.91839e-08
1.95667e-08
-2.5046e-08
2.18928e-08
-2.98107e-08
1.98914e-08
-3.13697e-08
7.17935e-09
-1.04862e-08
8.49839e-09
-9.32651e-09
1.63271e-08
-5.92638e-08
2.12123e-08
-8.57086e-08
2.42163e-08
-9.56263e-08
2.52688e-08
-9.43605e-08
2.38833e-08
-8.44722e-08
2.13045e-08
-7.46733e-08
1.80152e-08
-7.07803e-08
1.41183e-08
-6.37202e-08
1.30626e-08
-5.46678e-08
1.32378e-08
-4.03881e-08
8.85453e-09
-2.06135e-08
-2.24763e-09
1.13864e-08
-1.21941e-08
3.19864e-08
-2.00173e-08
4.99547e-08
-2.65844e-08
6.82749e-08
-3.00421e-08
8.01847e-08
-3.04162e-08
8.46016e-08
-2.80856e-08
7.92277e-08
-2.47027e-08
6.76713e-08
-2.37372e-08
6.03784e-08
-2.65199e-08
6.10863e-08
-3.11059e-08
6.46395e-08
-3.48169e-08
6.96135e-08
-3.51138e-08
7.43597e-08
-3.13472e-08
7.40966e-08
-2.73438e-08
6.61449e-08
-2.94068e-08
5.49145e-08
-2.99154e-08
5.23592e-08
-2.71866e-08
4.78177e-08
-2.33964e-08
3.8604e-08
-1.61963e-08
3.02415e-08
-1.01387e-08
2.54746e-08
-7.28647e-09
2.37962e-08
-8.53861e-09
2.20933e-08
-1.45045e-08
2.53704e-08
-1.99417e-08
2.71798e-08
-2.07624e-08
2.05637e-08
-2.14319e-08
7.67981e-09
-1.26647e-08
8.5568e-09
-1.7374e-08
1.53603e-08
-6.60985e-08
1.964e-08
-9.00214e-08
2.20409e-08
-9.8063e-08
2.20145e-08
-9.43721e-08
1.89121e-08
-8.14089e-08
1.45169e-08
-7.03192e-08
9.22677e-09
-6.55347e-08
2.79358e-09
-5.73286e-08
-3.59436e-09
-4.83141e-08
-9.13113e-09
-3.48847e-08
-1.72566e-08
-1.25248e-08
-2.38574e-08
1.79492e-08
-2.98757e-08
3.79644e-08
-3.60226e-08
5.60597e-08
-4.07676e-08
7.2977e-08
-4.32865e-08
8.2654e-08
-4.35412e-08
8.47821e-08
-4.15516e-08
7.71191e-08
-3.9072e-08
6.50296e-08
-3.86835e-08
5.98242e-08
-4.0305e-08
6.25683e-08
-4.21044e-08
6.6313e-08
-4.2451e-08
6.98443e-08
-4.03587e-08
7.21556e-08
-3.66175e-08
7.02373e-08
-3.42376e-08
6.36331e-08
-3.51823e-08
5.5707e-08
-3.3875e-08
5.08826e-08
-2.92046e-08
4.29653e-08
-2.17308e-08
3.09376e-08
-1.04573e-08
1.87687e-08
-2.65454e-09
1.74683e-08
-1.05703e-09
2.20004e-08
-6.05209e-09
2.69077e-08
-1.409e-08
3.32512e-08
-1.65099e-08
2.9453e-08
-1.07082e-08
1.46215e-08
-5.3458e-09
2.15039e-09
-1.51764e-08
8.1571e-09
-2.50207e-08
1.41931e-08
-7.21644e-08
1.7935e-08
-9.37956e-08
1.96202e-08
-9.97835e-08
1.82755e-08
-9.3065e-08
1.31976e-08
-7.63697e-08
6.63381e-09
-6.37963e-08
-1.10987e-09
-5.78378e-08
-1.0018e-08
-4.84665e-08
-1.93974e-08
-3.89736e-08
-2.85496e-08
-2.57664e-08
-3.84946e-08
-2.61061e-09
-4.30847e-08
2.25087e-08
-4.71992e-08
4.20457e-08
-5.1254e-08
6.0076e-08
-5.38836e-08
7.55577e-08
-5.51331e-08
8.38382e-08
-5.44289e-08
8.39895e-08
-5.18309e-08
7.44059e-08
-4.92198e-08
6.22804e-08
-4.82521e-08
5.87212e-08
-4.81896e-08
6.23882e-08
-4.78149e-08
6.58235e-08
-4.64007e-08
6.83179e-08
-4.38113e-08
6.94524e-08
-4.11324e-08
6.74346e-08
-3.99638e-08
6.23251e-08
-3.9986e-08
5.55704e-08
-3.68511e-08
4.75733e-08
-2.84212e-08
3.43495e-08
-1.18316e-08
1.41504e-08
6.5785e-09
1.52798e-10
2.41335e-08
-2.9165e-10
3.61016e-08
9.83603e-09
4.4361e-08
1.84705e-08
4.76448e-08
2.98089e-08
4.01e-08
3.68573e-08
1.92958e-08
3.53011e-08
1.17374e-08
9.5452e-09
-1.79586e-08
7.44733e-09
-3.19564e-08
1.28786e-08
-7.76243e-08
1.60649e-08
-9.70133e-08
1.68844e-08
-1.00638e-07
1.40827e-08
-9.03009e-08
6.90679e-09
-6.92327e-08
-1.91465e-09
-5.5016e-08
-1.18479e-08
-4.79535e-08
-2.16831e-08
-3.86828e-08
-3.19735e-08
-2.87304e-08
-4.25103e-08
-1.52711e-08
-5.13859e-08
6.22918e-09
-5.58978e-08
2.69843e-08
-5.948e-08
4.5587e-08
-6.22273e-08
6.27745e-08
-6.33225e-08
7.65926e-08
-6.30027e-08
8.34448e-08
-6.07833e-08
8.16833e-08
-5.72957e-08
7.08163e-08
-5.43904e-08
5.92547e-08
-5.28181e-08
5.70296e-08
-5.15716e-08
6.10335e-08
-5.01062e-08
6.42463e-08
-4.82825e-08
6.63805e-08
-4.62736e-08
6.73253e-08
-4.49744e-08
6.60052e-08
-4.49394e-08
6.21436e-08
-4.47348e-08
5.52022e-08
-3.91666e-08
4.18279e-08
-2.38216e-08
1.88114e-08
-4.73013e-09
-5.15484e-09
1.35905e-08
-1.83901e-08
3.25294e-08
-1.9458e-08
4.2773e-08
-6.25929e-10
5.55702e-08
5.49156e-09
7.13912e-08
1.38313e-08
8.15409e-08
2.65612e-08
7.12951e-08
4.54174e-08
5.23946e-08
2.8305e-08
-1.48431e-08
6.48195e-09
-3.79251e-08
1.13639e-08
-8.25331e-08
1.3921e-08
-9.96008e-08
1.38073e-08
-1.00559e-07
9.56219e-09
-8.60933e-08
4.32866e-10
-6.01421e-08
-1.0538e-08
-4.40867e-08
-2.15914e-08
-3.6952e-08
-3.13559e-08
-2.89778e-08
-4.08807e-08
-1.92653e-08
-5.1264e-08
-4.94188e-09
-5.85787e-08
1.34964e-08
-6.32473e-08
3.16057e-08
-6.64785e-08
4.87668e-08
-6.81385e-08
6.43757e-08
-6.79062e-08
7.62937e-08
-6.60496e-08
8.15163e-08
-6.26353e-08
7.81918e-08
-5.88031e-08
6.68925e-08
-5.5987e-08
5.6327e-08
-5.4051e-08
5.49835e-08
-5.2077e-08
5.89554e-08
-5.01578e-08
6.22151e-08
-4.85121e-08
6.4618e-08
-4.74401e-08
6.61305e-08
-4.76436e-08
6.60737e-08
-4.93755e-08
6.37253e-08
-5.10455e-08
5.67058e-08
-4.83765e-08
3.89742e-08
-4.07181e-08
1.09434e-08
-3.08446e-08
-1.52367e-08
-1.19706e-08
-3.74369e-08
6.33328e-09
-3.79461e-08
2.54229e-08
-1.99118e-08
4.92714e-08
-1.85197e-08
6.46427e-08
-1.67835e-09
7.01234e-08
2.09339e-08
7.83606e-08
3.70436e-08
7.48392e-08
3.17027e-08
-8.14895e-09
5.75982e-09
-4.31699e-08
9.74724e-09
-8.65452e-08
1.14395e-08
-1.01322e-07
1.02915e-08
-9.94461e-08
4.69848e-09
-8.05374e-08
-5.81993e-09
-4.96625e-08
-1.82125e-08
-3.17372e-08
-2.90418e-08
-2.6181e-08
-3.80668e-08
-2.00226e-08
-4.70613e-08
-1.0342e-08
-5.60156e-08
3.94555e-09
-6.21749e-08
1.95932e-08
-6.63885e-08
3.57577e-08
-6.88812e-08
5.11977e-08
-6.94561e-08
6.48877e-08
-6.81044e-08
7.4877e-08
-6.52081e-08
7.85538e-08
-6.13222e-08
7.42348e-08
-5.77522e-08
6.32337e-08
-5.53409e-08
5.38061e-08
-5.33032e-08
5.28402e-08
-5.10396e-08
5.65894e-08
-4.90262e-08
6.00892e-08
-4.77022e-08
6.31753e-08
-4.76514e-08
6.59541e-08
-4.96095e-08
6.78945e-08
-5.38225e-08
6.77859e-08
-5.87962e-08
6.15073e-08
-6.06346e-08
4.06149e-08
-5.91578e-08
9.25969e-09
-5.33105e-08
-2.12414e-08
-4.69679e-08
-4.39032e-08
-4.43441e-08
-4.06835e-08
-2.42774e-08
-4.01141e-08
1.5263e-08
-5.82051e-08
5.16222e-08
-3.81718e-08
6.66163e-08
5.77528e-09
6.81453e-08
3.53697e-08
6.42056e-08
3.55122e-08
-2.67428e-09
5.04494e-09
-4.76977e-08
7.88883e-09
-8.94113e-08
8.36379e-09
-1.01826e-07
5.8918e-09
-9.70085e-08
-1.11372e-09
-7.35687e-08
-1.23623e-08
-3.84535e-08
-2.44077e-08
-1.97381e-08
-3.41187e-08
-1.65342e-08
-4.29268e-08
-1.12917e-08
-5.12881e-08
-2.05943e-09
-5.81525e-08
1.07346e-08
-6.31053e-08
2.44723e-08
-6.62533e-08
3.88321e-08
-6.76694e-08
5.25409e-08
-6.72452e-08
6.43942e-08
-6.51104e-08
7.26773e-08
-6.17501e-08
7.51305e-08
-5.79573e-08
7.03713e-08
-5.48918e-08
6.00759e-08
-5.28477e-08
5.16511e-08
-5.08503e-08
5.07378e-08
-4.85872e-08
5.42231e-08
-4.66248e-08
5.80135e-08
-4.54938e-08
6.19243e-08
-4.59049e-08
6.62374e-08
-4.86742e-08
7.05243e-08
-5.42293e-08
7.31861e-08
-6.18932e-08
6.89945e-08
-6.94405e-08
4.79653e-08
-7.45235e-08
1.41676e-08
-7.24291e-08
-2.34601e-08
-6.61122e-08
-5.03412e-08
-5.64219e-08
-5.04769e-08
-4.04782e-08
-5.61751e-08
-1.73497e-08
-8.14923e-08
1.94011e-08
-7.50581e-08
4.06697e-08
-1.56582e-08
4.50735e-08
3.08244e-08
3.99429e-08
4.05169e-08
-4.40647e-09
4.10853e-09
-5.12869e-08
5.56379e-09
-9.08863e-08
4.47178e-09
-1.00761e-07
2.98089e-10
-9.28691e-08
-8.31662e-09
-6.49906e-08
-1.99011e-08
-2.69102e-08
-3.00608e-08
-9.62883e-09
-3.77655e-08
-8.89518e-09
-4.63376e-08
-2.79714e-09
-5.36651e-08
5.18669e-09
-5.88522e-08
1.5843e-08
-6.22737e-08
2.78158e-08
-6.40184e-08
4.04987e-08
-6.42207e-08
5.26654e-08
-6.29489e-08
6.30473e-08
-6.03663e-08
7.00242e-08
-5.69496e-08
7.16461e-08
-5.35196e-08
6.68657e-08
-5.0977e-08
5.74365e-08
-4.91972e-08
4.97597e-08
-4.73144e-08
4.87496e-08
-4.51752e-08
5.19789e-08
-4.31549e-08
5.58791e-08
-4.17383e-08
6.03875e-08
-4.17215e-08
6.60923e-08
-4.41003e-08
7.27624e-08
-4.95165e-08
7.84452e-08
-5.77572e-08
7.70575e-08
-6.75783e-08
5.75992e-08
-7.53363e-08
2.17719e-08
-7.69337e-08
-2.19944e-08
-7.11859e-08
-5.62209e-08
-6.07494e-08
-6.10346e-08
-5.06181e-08
-6.64686e-08
-4.62552e-08
-8.60161e-08
-2.51805e-08
-9.62684e-08
-2.47755e-09
-3.85106e-08
6.37483e-09
2.18485e-08
4.42098e-09
4.23524e-08
-1.69374e-08
2.94835e-09
-5.37134e-08
2.78431e-09
-9.074e-08
-2.3356e-10
-9.77707e-08
-6.3257e-09
-8.6811e-08
-1.606e-08
-5.52928e-08
-2.66204e-08
-1.63938e-08
-3.39849e-08
-2.31778e-09
-4.11655e-08
-1.77645e-09
-4.86319e-08
4.59863e-09
-5.44446e-08
1.09204e-08
-5.83664e-08
1.96867e-08
-6.04095e-08
2.97809e-08
-6.07965e-08
4.08083e-08
-5.98075e-08
5.16003e-08
-5.7722e-08
6.08875e-08
-5.47555e-08
6.69847e-08
-5.13725e-08
6.81886e-08
-4.82582e-08
6.36676e-08
-4.60215e-08
5.50983e-08
-4.4402e-08
4.80285e-08
-4.26165e-08
4.68574e-08
-4.05057e-08
4.97603e-08
-3.83979e-08
5.36556e-08
-3.66218e-08
5.84909e-08
-3.55839e-08
6.49268e-08
-3.59429e-08
7.29825e-08
-3.81665e-08
8.05141e-08
-4.19004e-08
8.06184e-08
-4.80804e-08
6.35991e-08
-5.3991e-08
2.75251e-08
-5.93982e-08
-1.67431e-08
-5.81904e-08
-5.75669e-08
-4.87074e-08
-7.06432e-08
-4.4522e-08
-7.07962e-08
-5.53467e-08
-7.53309e-08
-6.20755e-08
-8.9674e-08
-4.40904e-08
-5.66369e-08
-3.29065e-08
1.0547e-08
-2.84537e-08
3.7774e-08
-2.97408e-08
1.57761e-09
-5.47666e-08
-3.3193e-10
-8.88471e-08
-5.34011e-09
-9.27903e-08
-1.30889e-08
-7.90958e-08
-2.35552e-08
-4.48636e-08
-3.24215e-08
-7.5749e-09
-3.6692e-08
1.89959e-09
-4.31962e-08
4.6715e-09
-4.89922e-08
1.0334e-08
-5.34914e-08
1.53483e-08
-5.64724e-08
2.25926e-08
-5.76307e-08
3.08631e-08
-5.70961e-08
4.01979e-08
-5.51751e-08
4.96055e-08
-5.23062e-08
5.79472e-08
-4.89201e-08
6.35277e-08
-4.55731e-08
6.47652e-08
-4.27599e-08
6.0765e-08
-4.07924e-08
5.3025e-08
-3.93641e-08
4.64879e-08
-3.77156e-08
4.51008e-08
-3.55849e-08
4.75191e-08
-3.32747e-08
5.12274e-08
-3.08475e-08
5.5941e-08
-2.83445e-08
6.2296e-08
-2.50193e-08
6.95208e-08
-2.01762e-08
7.55222e-08
-1.5382e-08
7.56594e-08
-1.51048e-08
6.31476e-08
-1.94347e-08
3.16942e-08
-2.40733e-08
-1.22802e-08
-2.57421e-08
-5.60465e-08
-2.71447e-08
-6.93666e-08
-2.95535e-08
-6.85093e-08
-4.10396e-08
-6.39559e-08
-6.67206e-08
-6.41162e-08
-7.17705e-08
-5.17092e-08
-4.19939e-08
-1.93474e-08
-8.25977e-09
3.9127e-09
-3.71297e-08
2.75868e-10
-5.45155e-08
-2.98399e-09
-8.56045e-08
-9.30609e-09
-8.64971e-08
-1.79688e-08
-7.04668e-08
-2.78695e-08
-3.50014e-08
-3.46776e-08
-8.16891e-10
-3.76116e-08
4.78281e-09
-4.27713e-08
9.77998e-09
-4.71012e-08
1.4612e-08
-5.06638e-08
1.88492e-08
-5.29924e-08
2.48528e-08
-5.37027e-08
3.1501e-08
-5.2761e-08
3.91825e-08
-5.03513e-08
4.71228e-08
-4.6908e-08
5.44327e-08
-4.30407e-08
5.95898e-08
-3.94485e-08
6.10965e-08
-3.66015e-08
5.7827e-08
-3.46481e-08
5.09636e-08
-3.32721e-08
4.49972e-08
-3.18418e-08
4.3558e-08
-3.00348e-08
4.55966e-08
-2.78542e-08
4.89244e-08
-2.40641e-08
5.2026e-08
-1.74855e-08
5.55903e-08
-7.34408e-09
5.92469e-08
4.91967e-09
6.31174e-08
1.70556e-08
6.33712e-08
2.53359e-08
5.47046e-08
2.77141e-08
2.91564e-08
2.36153e-08
-8.3458e-09
1.64786e-08
-4.90595e-08
8.51737e-09
-6.15312e-08
-8.49611e-10
-5.92452e-08
-9.79601e-09
-5.51055e-08
-2.74178e-08
-4.65956e-08
-3.96243e-08
-3.95999e-08
-1.86549e-08
-4.04251e-08
1.52833e-08
-3.01301e-08
-4.58524e-08
-5.12045e-10
-5.34746e-08
-4.65212e-09
-8.14842e-08
-1.17798e-08
-7.94003e-08
-2.05834e-08
-6.16976e-08
-2.91247e-08
-2.65001e-08
-3.45533e-08
4.5601e-09
-3.69558e-08
7.13691e-09
-4.00294e-08
1.28067e-08
-4.33391e-08
1.78752e-08
-4.62811e-08
2.17389e-08
-4.81422e-08
2.66543e-08
-4.85952e-08
3.18883e-08
-4.75327e-08
3.80498e-08
-4.50313e-08
4.4549e-08
-4.14053e-08
5.07335e-08
-3.72617e-08
5.53719e-08
-3.33902e-08
5.71453e-08
-3.04858e-08
5.48302e-08
-2.87874e-08
4.91574e-08
-2.78278e-08
4.3924e-08
-2.67903e-08
4.24095e-08
-2.50683e-08
4.37619e-08
-2.14629e-08
4.51978e-08
-1.46411e-08
4.50784e-08
-5.71245e-09
4.65343e-08
4.25471e-09
4.91502e-08
1.65172e-08
5.07213e-08
3.18445e-08
4.79054e-08
4.58846e-08
4.05225e-08
5.27798e-08
2.21218e-08
5.18953e-08
-7.60001e-09
4.29559e-08
-4.02463e-08
3.23026e-08
-5.09843e-08
2.22321e-08
-4.92672e-08
1.3761e-08
-4.67193e-08
1.1853e-08
-4.47687e-08
1.31709e-08
-4.10035e-08
1.58455e-08
-4.31915e-08
2.75219e-08
-4.18819e-08
-5.41408e-08
-9.79602e-10
-5.19649e-08
-6.31405e-09
-7.61741e-08
-1.3525e-08
-7.22237e-08
-2.17654e-08
-5.34931e-08
-2.8495e-08
-1.98119e-08
-3.2622e-08
8.63369e-09
-3.44568e-08
8.92279e-09
-3.63288e-08
1.46335e-08
-3.85603e-08
2.00621e-08
-4.08775e-08
2.40103e-08
-4.2339e-08
2.80645e-08
-4.26071e-08
3.20984e-08
-4.1491e-08
3.68697e-08
-3.90279e-08
4.20168e-08
-3.54504e-08
4.70825e-08
-3.12614e-08
5.11049e-08
-2.71983e-08
5.29976e-08
-2.4097e-08
5.16334e-08
-2.24258e-08
4.73783e-08
-2.16333e-08
4.30171e-08
-2.02609e-08
4.09224e-08
-1.60606e-08
3.94459e-08
-8.81619e-09
3.78316e-08
-2.26533e-09
3.84e-08
3.5296e-09
4.06105e-08
1.14255e-08
4.11275e-08
2.16308e-08
4.03886e-08
3.48616e-08
3.45469e-08
4.89549e-08
2.63036e-08
5.88255e-08
1.21292e-08
5.94757e-08
-8.36692e-09
4.96196e-08
-3.04971e-08
3.81824e-08
-3.96417e-08
2.90413e-08
-4.02102e-08
2.3784e-08
-4.15395e-08
2.27235e-08
-4.37799e-08
2.67433e-08
-4.50906e-08
3.0016e-08
-4.65365e-08
3.60335e-08