/*--------------------------------*- C++ -*----------------------------------*\
  =========                 |
  \\      /  F ield         | OpenFOAM: The Open Source CFD Toolbox
   \\    /   O peration     | Website:  https://openfoam.org
    \\  /    A nd           | Version:  7
     \\/     M anipulation  |
\*---------------------------------------------------------------------------*/
FoamFile
{
    version     2.0;
    format      ascii;
    class       volScalarField;
    location    "0.0125";
    object      nut;
}
// * * * * * * * * * * * * * * * * * * * * * * * * * * * * * * * * * * * * * //

dimensions      [0 2 -1 0 0 0 0];

internalField   nonuniform List<scalar> 
1440
(
0.000219534
0.000510211
0.00081668
0.00107558
0.00128063
0.00143481
0.0015429
0.00161472
0.00165532
0.00167673
0.00167623
0.00167015
0.00165578
0.00163452
0.00161053
0.00158526
0.00155959
0.00153429
0.00150989
0.00148654
0.00146432
0.00144337
0.00142377
0.00140535
0.00138802
0.00137179
0.0013567
0.00134277
0.00132998
0.00131836
0.00130794
0.00129872
0.00129067
0.00128375
0.00127786
0.00127289
0.00126879
0.00126548
0.00126284
0.00126076
0.00125914
0.0012579
0.00125696
0.00125628
0.00125585
0.00125562
0.00125554
0.00125561
0.00125589
0.0012563
0.00125684
0.0012575
0.00125826
0.00125911
0.00126003
0.00126098
0.00126192
0.00126283
0.00126365
0.00126436
0.00126496
0.00126543
0.00126581
0.00126611
0.00126638
0.00126664
0.00126693
0.00126726
0.00126766
0.00126813
0.00126867
0.00126926
0.00126992
0.00127061
0.00127132
0.00127206
0.00127281
0.00127356
0.00127431
0.00127505
0.00127579
0.00127651
0.00127722
0.00127792
0.00127861
0.00127929
0.00127995
0.00128061
0.00128125
0.00128187
0.00128249
0.00128309
0.00128368
0.00128426
0.00128483
0.00128538
0.00128593
0.00128646
0.00128698
0.00128749
0.00128798
0.00128847
0.00128894
0.0012894
0.00128985
0.00129029
0.00129071
0.00129113
0.00129153
0.00129194
0.00129229
0.0012927
0.00129301
0.00129341
0.00129368
0.00129406
0.00129432
0.00129459
0.00129491
0.00129516
1.03641e-05
4.9019e-05
0.000110093
0.000189205
0.000289431
0.00039472
0.000491224
0.000578436
0.00065093
0.000711831
0.000759508
0.000796962
0.00082587
0.0008475
0.000863176
0.000874232
0.000881653
0.000886473
0.000889303
0.000890766
0.000891364
0.000891312
0.000891125
0.000890754
0.000890427
0.000890233
0.000890179
0.000890186
0.000890147
0.000889981
0.000889535
0.000888756
0.000887643
0.000886194
0.000884452
0.000882527
0.000880519
0.00087843
0.000876249
0.000874031
0.00087187
0.000869863
0.000868054
0.000866438
0.000864996
0.000863715
0.000862608
0.000861699
0.00086099
0.00086048
0.000860139
0.000859866
0.000859571
0.000859363
0.000859333
0.000859364
0.000859475
0.000859714
0.000860264
0.000861039
0.000861925
0.000862845
0.000863721
0.000864496
0.000865125
0.000865607
0.000865937
0.000866144
0.000866271
0.000866357
0.000866431
0.000866515
0.000866628
0.000866783
0.000866979
0.000867213
0.000867478
0.000867769
0.000868076
0.000868398
0.000868729
0.000869067
0.000869408
0.000869754
0.000870101
0.000870451
0.000870801
0.000871152
0.000871501
0.000871852
0.000872201
0.000872551
0.000872898
0.000873247
0.000873593
0.000873941
0.000874286
0.00087463
0.000874976
0.000875315
0.000875663
0.000875994
0.000876347
0.000876668
0.000877026
0.000877339
0.000877697
0.000878005
0.000878364
0.000878662
0.000879026
0.000879318
0.000879676
0.00087999
0.000880298
0.000880705
0.000880938
0.000881431
0.000881711
0.000882595
1.5987e-06
2.92384e-06
7.74201e-06
1.67288e-05
3.09429e-05
5.03836e-05
7.54037e-05
0.000105547
0.000135887
0.000166318
0.000195916
0.00022371
0.000249147
0.000272314
0.000292713
0.000310619
0.000326381
0.000340032
0.000351744
0.000361741
0.000370147
0.000377409
0.000383911
0.00038955
0.000394515
0.000398981
0.00040282
0.000406283
0.000409535
0.000412307
0.000414631
0.000416681
0.000418333
0.000419582
0.00042061
0.000421394
0.000421793
0.000421885
0.000421881
0.000421826
0.00042159
0.000421244
0.000420872
0.000420464
0.000420016
0.000419536
0.000419012
0.000418409
0.000417696
0.000416884
0.000416018
0.00041512
0.000414171
0.00041316
0.000412077
0.00041092
0.000409728
0.000408586
0.000407652
0.000406926
0.000406565
0.000406533
0.000406588
0.00040681
0.000407064
0.000407234
0.000407276
0.000407205
0.000406998
0.000406782
0.000406641
0.00040661
0.000406618
0.000406656
0.000406741
0.000406851
0.000407099
0.00040756
0.000408053
0.000408635
0.000409201
0.000409837
0.000410433
0.000411099
0.000411713
0.0004124
0.000413026
0.00041372
0.000414353
0.000415041
0.000415691
0.000416355
0.000417042
0.000417672
0.000418407
0.000419004
0.000419777
0.000420362
0.000421146
0.000421736
0.000422525
0.000423107
0.000423916
0.000424486
0.000425291
0.000425893
0.000426641
0.000427319
0.000427976
0.000428753
0.000429316
0.000430152
0.000430691
0.000431545
0.00043204
0.000432962
0.000433433
0.000434386
0.000434875
0.000436184
1.57793e-06
1.58867e-06
1.65282e-06
1.96979e-06
2.94613e-06
4.88821e-06
7.96896e-06
1.24971e-05
1.81138e-05
2.42762e-05
3.26678e-05
4.05963e-05
4.82044e-05
5.68025e-05
6.55062e-05
7.33487e-05
8.03443e-05
8.75526e-05
9.54346e-05
0.000102296
0.000107287
0.000112166
0.000117831
0.000123407
0.000128386
0.000132512
0.000135885
0.000139496
0.000143608
0.000147317
0.00015015
0.000152433
0.000154455
0.000156375
0.000158348
0.000160187
0.000161457
0.000162122
0.000162605
0.000163041
0.000163231
0.000163234
0.000163187
0.000163064
0.00016281
0.000162373
0.000161781
0.000161043
0.000160168
0.00015918
0.000158119
0.000157013
0.000155849
0.000154572
0.000153113
0.000151425
0.000149519
0.000147472
0.000145415
0.000143498
0.000141849
0.000140513
0.000139427
0.000138443
0.000137374
0.000136062
0.000134422
0.000132448
0.000130197
0.000127772
0.000125284
0.000122848
0.000120564
0.00011854
0.000116848
0.00011555
0.000114634
0.000114061
0.000113752
0.000113629
0.000113603
0.000113624
0.000113764
0.0001142
0.000114524
0.000115013
0.000115374
0.000115868
0.000116267
0.000116728
0.000117185
0.000117584
0.000118114
0.000118451
0.000119033
0.000119346
0.000119935
0.000120265
0.00012084
0.000121177
0.000121766
0.000122084
0.000122685
0.000123009
0.00012359
0.000123938
0.000124484
0.000124893
0.00012534
0.000125868
0.000126199
0.000126805
0.000127108
0.000127695
0.000128015
0.000128623
0.00012893
0.00012955
0.00012987
0.000130712
1.57704e-06
1.5822e-06
1.59586e-06
1.62029e-06
1.66648e-06
1.73318e-06
1.86093e-06
2.1052e-06
2.54883e-06
3.17257e-06
4.11973e-06
5.57882e-06
6.70836e-06
7.95481e-06
1.0093e-05
1.19907e-05
1.32052e-05
1.46539e-05
1.69761e-05
1.93859e-05
2.09216e-05
2.17932e-05
2.31745e-05
2.54626e-05
2.78132e-05
2.94323e-05
3.02591e-05
3.12614e-05
3.32027e-05
3.53485e-05
3.68233e-05
3.76542e-05
3.83769e-05
3.93349e-05
4.05199e-05
4.17022e-05
4.2628e-05
4.31897e-05
4.34991e-05
4.37678e-05
4.40965e-05
4.4409e-05
4.45889e-05
4.46324e-05
4.46264e-05
4.45876e-05
4.45018e-05
4.42664e-05
4.39055e-05
4.3491e-05
4.30488e-05
4.25895e-05
4.20972e-05
4.15318e-05
4.08452e-05
4.00027e-05
3.90002e-05
3.78719e-05
3.6686e-05
3.55302e-05
3.44856e-05
3.35969e-05
3.28541e-05
3.21969e-05
3.15383e-05
3.07961e-05
2.99125e-05
2.88636e-05
2.76547e-05
2.63174e-05
2.48994e-05
2.3461e-05
2.20633e-05
2.07646e-05
1.96056e-05
1.86154e-05
1.77992e-05
1.71579e-05
1.66761e-05
1.63399e-05
1.61245e-05
1.60102e-05
1.59638e-05
1.59559e-05
1.59602e-05
1.60044e-05
1.60717e-05
1.61881e-05
1.62783e-05
1.63836e-05
1.64961e-05
1.65816e-05
1.67161e-05
1.67869e-05
1.69301e-05
1.70024e-05
1.7141e-05
1.72158e-05
1.73567e-05
1.74281e-05
1.75711e-05
1.76427e-05
1.77844e-05
1.78554e-05
1.7997e-05
1.8069e-05
1.82068e-05
1.82835e-05
1.84111e-05
1.85038e-05
1.86083e-05
1.87258e-05
1.88038e-05
1.89432e-05
1.90127e-05
1.91514e-05
1.9225e-05
1.93769e-05
1.94536e-05
1.96568e-05
1.57663e-06
1.58065e-06
1.59212e-06
1.61901e-06
1.65373e-06
1.69599e-06
1.77167e-06
1.86139e-06
1.92555e-06
1.99799e-06
2.12906e-06
2.27172e-06
2.35847e-06
2.43073e-06
2.59841e-06
2.81577e-06
2.95247e-06
3.04555e-06
3.21778e-06
3.52132e-06
3.76412e-06
3.90088e-06
4.0062e-06
4.21339e-06
4.61149e-06
4.94987e-06
5.1477e-06
5.25967e-06
5.42176e-06
5.80465e-06
6.1913e-06
6.4487e-06
6.56964e-06
6.6359e-06
6.77353e-06
7.03803e-06
7.26415e-06
7.38713e-06
7.42419e-06
7.44584e-06
7.48102e-06
7.50479e-06
7.50879e-06
7.50669e-06
7.49765e-06
7.48236e-06
7.44684e-06
7.369e-06
7.29295e-06
7.22235e-06
7.14999e-06
7.0649e-06
6.96215e-06
6.85053e-06
6.73861e-06
6.62298e-06
6.49314e-06
6.33896e-06
6.15516e-06
5.945e-06
5.71908e-06
5.49116e-06
5.2749e-06
5.08305e-06
4.92891e-06
4.82566e-06
4.78217e-06
4.81344e-06
5.13459e-06
5.52522e-06
5.8073e-06
5.98291e-06
6.07024e-06
6.09508e-06
6.05786e-06
5.70187e-06
5.13526e-06
4.56168e-06
4.00687e-06
3.49255e-06
3.03286e-06
2.63759e-06
2.30992e-06
2.05073e-06
1.8548e-06
1.71617e-06
1.62348e-06
1.56702e-06
1.53546e-06
1.52081e-06
1.51584e-06
1.515e-06
1.51748e-06
1.52296e-06
1.53473e-06
1.54099e-06
1.55229e-06
1.55868e-06
1.56961e-06
1.57548e-06
1.58643e-06
1.59197e-06
1.60252e-06
1.60791e-06
1.61826e-06
1.6234e-06
1.63348e-06
1.63863e-06
1.64832e-06
1.6538e-06
1.66252e-06
1.66913e-06
1.67602e-06
1.68481e-06
1.68974e-06
1.7e-06
1.70531e-06
1.71604e-06
1.7219e-06
1.73827e-06
1.57663e-06
1.58065e-06
1.59215e-06
1.61872e-06
1.6551e-06
1.69534e-06
1.76996e-06
1.86159e-06
1.92895e-06
1.99785e-06
2.12336e-06
2.27222e-06
2.36845e-06
2.43967e-06
2.59687e-06
2.82595e-06
2.97406e-06
3.06771e-06
3.23091e-06
3.5338e-06
3.77457e-06
3.90132e-06
3.98397e-06
4.14451e-06
4.46064e-06
4.72186e-06
4.87052e-06
4.94544e-06
5.0218e-06
5.2219e-06
5.51017e-06
5.74659e-06
5.89721e-06
5.98146e-06
6.05911e-06
6.28137e-06
6.61585e-06
6.83694e-06
6.93619e-06
7.03294e-06
7.20829e-06
7.41725e-06
7.58892e-06
7.72144e-06
7.83155e-06
7.90191e-06
7.92188e-06
7.92033e-06
7.90963e-06
7.86658e-06
7.80438e-06
7.75099e-06
7.68849e-06
7.59923e-06
7.47596e-06
7.32798e-06
7.15565e-06
6.95905e-06
6.71879e-06
6.42632e-06
6.10251e-06
5.7771e-06
5.47423e-06
5.21317e-06
5.0109e-06
4.8806e-06
4.82643e-06
4.83917e-06
5.09033e-06
5.46536e-06
5.74258e-06
5.91822e-06
6.00683e-06
6.03239e-06
5.99684e-06
5.64562e-06
5.07838e-06
4.50301e-06
3.94507e-06
3.42592e-06
2.95962e-06
2.55589e-06
2.21832e-06
1.94835e-06
1.74173e-06
1.59315e-06
1.49201e-06
1.42847e-06
1.39157e-06
1.37297e-06
1.36543e-06
1.36351e-06
1.36426e-06
1.36781e-06
1.37718e-06
1.38244e-06
1.39153e-06
1.39682e-06
1.40552e-06
1.41029e-06
1.41895e-06
1.42337e-06
1.43169e-06
1.43596e-06
1.44406e-06
1.44811e-06
1.45598e-06
1.46002e-06
1.4676e-06
1.47172e-06
1.47881e-06
1.48337e-06
1.48974e-06
1.49555e-06
1.50028e-06
1.50833e-06
1.51261e-06
1.52155e-06
1.52676e-06
1.54109e-06
1.57704e-06
1.58221e-06
1.5958e-06
1.62036e-06
1.6664e-06
1.73328e-06
1.86174e-06
2.10536e-06
2.55863e-06
3.19192e-06
4.0931e-06
5.61097e-06
6.84488e-06
8.01812e-06
1.01607e-05
1.21752e-05
1.34232e-05
1.48156e-05
1.70852e-05
1.95105e-05
2.10696e-05
2.18917e-05
2.30588e-05
2.50661e-05
2.71994e-05
2.85848e-05
2.92279e-05
2.99592e-05
3.12745e-05
3.29452e-05
3.44375e-05
3.53523e-05
3.5832e-05
3.64749e-05
3.76519e-05
3.90889e-05
4.02655e-05
4.10039e-05
4.15538e-05
4.22199e-05
4.29962e-05
4.37035e-05
4.42866e-05
4.48066e-05
4.52349e-05
4.54736e-05
4.55248e-05
4.55119e-05
4.54562e-05
4.5239e-05
4.49235e-05
4.46542e-05
4.43667e-05
4.39509e-05
4.33344e-05
4.24974e-05
4.1449e-05
4.0223e-05
3.8886e-05
3.7532e-05
3.62562e-05
3.51193e-05
3.41226e-05
3.32126e-05
3.23053e-05
3.13215e-05
3.02049e-05
2.89352e-05
2.7522e-05
2.60024e-05
2.44295e-05
2.28668e-05
2.13757e-05
2.0011e-05
1.88091e-05
1.77924e-05
1.69646e-05
1.63213e-05
1.58451e-05
1.55182e-05
1.53147e-05
1.52104e-05
1.51711e-05
1.51655e-05
1.51717e-05
1.52242e-05
1.52935e-05
1.54099e-05
1.5496e-05
1.56015e-05
1.57075e-05
1.57932e-05
1.59207e-05
1.59899e-05
1.6127e-05
1.61959e-05
1.63282e-05
1.64001e-05
1.65335e-05
1.66018e-05
1.67378e-05
1.68058e-05
1.69401e-05
1.70079e-05
1.71422e-05
1.7211e-05
1.73407e-05
1.74149e-05
1.7536e-05
1.76212e-05
1.77269e-05
1.78277e-05
1.79145e-05
1.80382e-05
1.81037e-05
1.82416e-05
1.83124e-05
1.84555e-05
1.85281e-05
1.8728e-05
1.57793e-06
1.58867e-06
1.65285e-06
1.97022e-06
2.94877e-06
4.89377e-06
7.9986e-06
1.24084e-05
1.83044e-05
2.43341e-05
3.2572e-05
4.09029e-05
4.86131e-05
5.69799e-05
6.60017e-05
7.39926e-05
8.09234e-05
8.82102e-05
9.59308e-05
0.000102797
0.000108047
0.000112448
0.000117368
0.00012281
0.000127425
0.000130663
0.000133417
0.00013649
0.000139713
0.000142734
0.00014537
0.000147383
0.000148963
0.000150834
0.000153175
0.000155343
0.000156962
0.000158278
0.000159481
0.000160506
0.00016138
0.000162256
0.000163058
0.000163537
0.000163661
0.000163647
0.000163549
0.000163313
0.000162719
0.00016192
0.000161055
0.000160152
0.000159149
0.00015795
0.000156474
0.000154679
0.000152586
0.000150291
0.000147947
0.000145733
0.000143791
0.000142167
0.00014079
0.000139494
0.000138092
0.000136437
0.00013446
0.000132173
0.000129645
0.000126986
0.000124312
0.00012174
0.000119377
0.000117322
0.000115645
0.000114379
0.000113502
0.00011296
0.000112675
0.000112564
0.000112544
0.000112587
0.000112783
0.000113239
0.000113564
0.000114056
0.000114414
0.00011491
0.000115301
0.000115767
0.000116212
0.000116616
0.000117133
0.000117472
0.000118044
0.000118354
0.000118934
0.000119258
0.000119822
0.000120154
0.00012073
0.000121044
0.00012163
0.000121952
0.000122513
0.000122867
0.000123384
0.000123802
0.00012423
0.000124737
0.000125088
0.000125651
0.000125957
0.000126543
0.000126843
0.000127438
0.00012774
0.000128354
0.00012867
0.000129496
1.59867e-06
2.92232e-06
7.73991e-06
1.67294e-05
3.09587e-05
5.03909e-05
7.56488e-05
0.000105345
0.000136248
0.000166613
0.000196236
0.000224147
0.000249881
0.000273024
0.000293748
0.00031186
0.000327574
0.000341389
0.000353134
0.000362949
0.000371204
0.000378188
0.000384054
0.000389098
0.000393401
0.000396884
0.000399793
0.000402402
0.000404698
0.000406729
0.000408635
0.000410387
0.000411962
0.000413511
0.000415075
0.000416474
0.000417646
0.000418697
0.000419679
0.000420501
0.000421072
0.00042142
0.000421642
0.00042179
0.000421876
0.000421891
0.000421777
0.000421346
0.000420722
0.00041994
0.000419057
0.000418118
0.000417086
0.000415912
0.000414594
0.000413153
0.000411647
0.000410177
0.000408884
0.000407878
0.00040722
0.00040689
0.00040687
0.000406925
0.00040704
0.000407097
0.000407069
0.000406921
0.000406723
0.000406548
0.000406472
0.000406471
0.000406488
0.00040655
0.000406638
0.000406768
0.000407081
0.000407564
0.000408069
0.000408659
0.000409229
0.000409867
0.000410465
0.000411133
0.000411746
0.000412433
0.000413055
0.000413749
0.000414377
0.000415064
0.000415708
0.000416373
0.000417054
0.000417683
0.000418412
0.000419007
0.000419774
0.000420353
0.000421131
0.000421714
0.000422496
0.000423071
0.000423873
0.000424433
0.000425237
0.00042582
0.000426577
0.000427227
0.000427897
0.000428648
0.000429213
0.00043004
0.000430569
0.000431414
0.000431907
0.000432818
0.000433284
0.00043423
0.000434718
0.000436032
1.03532e-05
4.89803e-05
0.000110053
0.000189174
0.000289489
0.000394684
0.000491354
0.000578548
0.000651196
0.000712125
0.000759976
0.000797505
0.000826645
0.000848371
0.000864281
0.000875494
0.000883072
0.000888057
0.000890792
0.000892499
0.000892747
0.000892555
0.000892057
0.000891198
0.0008902
0.000889174
0.000888201
0.000887332
0.000886579
0.000885922
0.000885325
0.000884753
0.000884162
0.00088349
0.000882693
0.000881769
0.000880716
0.000879504
0.000878078
0.000876416
0.000874594
0.000872746
0.000870956
0.000869247
0.000867611
0.000866067
0.000864646
0.000863397
0.000862355
0.000861548
0.000860973
0.000860539
0.00086011
0.00085971
0.000859517
0.000859509
0.000859568
0.000859746
0.000860184
0.000860962
0.000861888
0.000862874
0.000863841
0.000864714
0.000865449
0.000866024
0.000866441
0.000866721
0.000866906
0.000867037
0.000867141
0.000867245
0.000867372
0.000867533
0.000867732
0.000867968
0.000868233
0.000868524
0.000868832
0.000869156
0.000869489
0.00086983
0.000870175
0.000870524
0.000870875
0.00087123
0.000871583
0.000871939
0.000872292
0.000872648
0.000873001
0.000873356
0.000873708
0.000874063
0.000874414
0.000874767
0.000875118
0.000875468
0.000875819
0.000876164
0.000876518
0.000876856
0.000877215
0.000877542
0.000877907
0.000878225
0.00087859
0.000878904
0.000879271
0.000879574
0.000879947
0.000880243
0.000880611
0.000880927
0.000881248
0.000881661
0.000881901
0.000882414
0.000882704
0.000883634
0.000219526
0.0005101
0.000816644
0.00107544
0.00128045
0.00143447
0.00154248
0.00161409
0.00165462
0.00167573
0.00167512
0.00166885
0.00165415
0.00163255
0.00160813
0.00158234
0.00155619
0.00153039
0.00150543
0.00148165
0.00145924
0.00143832
0.00141895
0.00140108
0.00138467
0.00136965
0.00135593
0.0013434
0.00133195
0.00132148
0.00131191
0.00130318
0.00129525
0.00128809
0.00128169
0.00127602
0.00127108
0.00126686
0.00126331
0.00126034
0.00125787
0.00125584
0.0012542
0.00125291
0.00125193
0.00125129
0.00125094
0.00125081
0.00125087
0.00125124
0.00125178
0.0012525
0.00125336
0.00125436
0.00125546
0.00125661
0.00125777
0.00125889
0.00125993
0.00126085
0.00126163
0.00126226
0.00126276
0.00126316
0.0012635
0.00126381
0.00126412
0.00126446
0.00126486
0.00126532
0.00126584
0.00126642
0.00126706
0.00126774
0.00126845
0.00126918
0.00126992
0.00127067
0.00127142
0.00127216
0.0012729
0.00127363
0.00127434
0.00127504
0.00127574
0.00127642
0.00127708
0.00127774
0.00127838
0.00127901
0.00127963
0.00128023
0.00128083
0.00128141
0.00128198
0.00128254
0.00128308
0.00128362
0.00128414
0.00128465
0.00128515
0.00128564
0.00128612
0.00128658
0.00128704
0.00128748
0.00128791
0.00128833
0.00128873
0.00128914
0.0012895
0.00128991
0.00129023
0.00129064
0.0012909
0.00129129
0.00129155
0.00129183
0.00129217
0.0012924
)
;

boundaryField
{
    upperWall
    {
        type            zeroGradient;
    }
    lowerWall
    {
        type            zeroGradient;
    }
    inlet
    {
        type            zeroGradient;
    }
    outlet
    {
        type            zeroGradient;
    }
    frontAndBack
    {
        type            empty;
    }
}


// ************************************************************************* //
