/*--------------------------------*- C++ -*----------------------------------*\
  =========                 |
  \\      /  F ield         | OpenFOAM: The Open Source CFD Toolbox
   \\    /   O peration     | Website:  https://openfoam.org
    \\  /    A nd           | Version:  7
     \\/     M anipulation  |
\*---------------------------------------------------------------------------*/
FoamFile
{
    version     2.0;
    format      ascii;
    class       volSymmTensorField;
    location    "0.1725";
    object      UPrime2Mean;
}
// * * * * * * * * * * * * * * * * * * * * * * * * * * * * * * * * * * * * * //

dimensions      [0 2 -2 0 0 0 0];

internalField   nonuniform List<symmTensor> 
1440
(
(0.0268598 0.00025117 0 3.41624e-06 0 0)
(0.00583161 0.000197964 0 7.47428e-05 0 0)
(0.01401 -0.000380226 0 0.000287101 0 0)
(0.0216591 -0.000719218 0 0.000656895 0 0)
(0.0297625 -0.00128281 0 0.00114916 0 0)
(0.041265 -0.00271345 0 0.00167579 0 0)
(0.057803 -0.00514687 0 0.00212738 0 0)
(0.0805112 -0.00821088 0 0.00241483 0 0)
(0.110351 -0.0113668 0 0.00251684 0 0)
(0.147805 -0.0142105 0 0.00245332 0 0)
(0.192673 -0.0165219 0 0.00227453 0 0)
(0.245018 -0.0182079 0 0.00203319 0 0)
(0.304152 -0.0191048 0 0.00175161 0 0)
(0.368737 -0.0191848 0 0.00146055 0 0)
(0.437206 -0.0185308 0 0.00118471 0 0)
(0.508056 -0.0172926 0 0.000938819 0 0)
(0.579985 -0.0156614 0 0.000729698 0 0)
(0.651878 -0.0138267 0 0.000558464 0 0)
(0.722846 -0.0119375 0 0.000422671 0 0)
(0.792134 -0.0100976 0 0.000318477 0 0)
(0.859238 -0.00835453 0 0.000240005 0 0)
(0.92386 -0.00671257 0 0.000181052 0 0)
(0.985828 -0.00515663 0 0.000136904 0 0)
(1.04505 -0.00367154 0 0.00010426 0 0)
(1.10145 -0.00224885 0 8.10582e-05 0 0)
(1.15499 -0.000891233 0 6.56248e-05 0 0)
(1.20567 0.000389011 0 5.64183e-05 0 0)
(1.25348 0.00157494 0 5.19375e-05 0 0)
(1.29849 0.0026488 0 5.08573e-05 0 0)
(1.34078 0.00359547 0 5.20788e-05 0 0)
(1.38048 0.0044067 0 5.46766e-05 0 0)
(1.41776 0.0050817 0 5.8123e-05 0 0)
(1.45281 0.00562473 0 6.19236e-05 0 0)
(1.48583 0.00604479 0 6.55909e-05 0 0)
(1.51705 0.00635469 0 6.88087e-05 0 0)
(1.54667 0.00656995 0 7.14661e-05 0 0)
(1.57489 0.00670337 0 7.34298e-05 0 0)
(1.6019 0.00676739 0 7.45469e-05 0 0)
(1.62784 0.0067754 0 7.47719e-05 0 0)
(1.65287 0.00673971 0 7.41795e-05 0 0)
(1.67711 0.00666967 0 7.28942e-05 0 0)
(1.70068 0.00657295 0 7.10568e-05 0 0)
(1.72366 0.00645484 0 6.88027e-05 0 0)
(1.74614 0.00631965 0 6.62566e-05 0 0)
(1.76819 0.00617081 0 6.35344e-05 0 0)
(1.78987 0.00601048 0 6.07241e-05 0 0)
(1.81125 0.00584123 0 5.78899e-05 0 0)
(1.83237 0.00566526 0 5.50768e-05 0 0)
(1.85327 0.00548496 0 5.23184e-05 0 0)
(1.874 0.00530299 0 4.96414e-05 0 0)
(1.89457 0.00512191 0 4.70625e-05 0 0)
(1.91502 0.00494386 0 4.45929e-05 0 0)
(1.93536 0.0047703 0 4.22371e-05 0 0)
(1.95562 0.00460216 0 3.99952e-05 0 0)
(1.97581 0.00443992 0 3.78676e-05 0 0)
(1.99594 0.00428387 0 3.58509e-05 0 0)
(2.01601 0.00413458 0 3.3943e-05 0 0)
(2.03605 0.00399161 0 3.21402e-05 0 0)
(2.05605 0.00385481 0 3.04383e-05 0 0)
(2.07601 0.00372409 0 2.88343e-05 0 0)
(2.09596 0.00359899 0 2.73251e-05 0 0)
(2.11587 0.00347928 0 2.59074e-05 0 0)
(2.13578 0.00336479 0 2.45786e-05 0 0)
(2.15566 0.00325526 0 2.33356e-05 0 0)
(2.17554 0.00315042 0 2.21744e-05 0 0)
(2.1954 0.00305011 0 2.10919e-05 0 0)
(2.21525 0.00295414 0 2.00837e-05 0 0)
(2.2351 0.00286273 0 1.91464e-05 0 0)
(2.25493 0.0027755 0 1.82762e-05 0 0)
(2.27476 0.00269247 0 1.7469e-05 0 0)
(2.29457 0.00261341 0 1.67209e-05 0 0)
(2.31438 0.00253855 0 1.60273e-05 0 0)
(2.33417 0.00246808 0 1.53851e-05 0 0)
(2.35395 0.00240109 0 1.47905e-05 0 0)
(2.37371 0.00233815 0 1.42395e-05 0 0)
(2.39345 0.00227909 0 1.37288e-05 0 0)
(2.41317 0.00222385 0 1.3255e-05 0 0)
(2.43287 0.00217206 0 1.28156e-05 0 0)
(2.45255 0.00212367 0 1.2408e-05 0 0)
(2.4722 0.00207868 0 1.20291e-05 0 0)
(2.49183 0.00203696 0 1.16772e-05 0 0)
(2.51143 0.00199806 0 1.13501e-05 0 0)
(2.531 0.00196199 0 1.10459e-05 0 0)
(2.55054 0.00192849 0 1.07626e-05 0 0)
(2.57005 0.00189756 0 1.04982e-05 0 0)
(2.58953 0.00186874 0 1.02518e-05 0 0)
(2.60898 0.00184198 0 1.00214e-05 0 0)
(2.62839 0.00181756 0 9.80627e-06 0 0)
(2.64776 0.00179452 0 9.60443e-06 0 0)
(2.6671 0.00177328 0 9.41483e-06 0 0)
(2.6864 0.0017536 0 9.23621e-06 0 0)
(2.70567 0.00173553 0 9.06781e-06 0 0)
(2.72489 0.00171896 0 8.90892e-06 0 0)
(2.74407 0.00170393 0 8.75886e-06 0 0)
(2.76321 0.00169026 0 8.61677e-06 0 0)
(2.78231 0.00167796 0 8.4817e-06 0 0)
(2.80138 0.00166684 0 8.35274e-06 0 0)
(2.8204 0.00165687 0 8.22926e-06 0 0)
(2.83938 0.00164805 0 8.1112e-06 0 0)
(2.85833 0.00164036 0 7.99808e-06 0 0)
(2.87724 0.00163397 0 7.89068e-06 0 0)
(2.89612 0.00162884 0 7.78682e-06 0 0)
(2.91497 0.00162466 0 7.69011e-06 0 0)
(2.9338 0.00162119 0 7.59186e-06 0 0)
(2.9526 0.00161826 0 7.50598e-06 0 0)
(2.97137 0.00161528 0 7.40582e-06 0 0)
(2.99009 0.00161368 0 7.33509e-06 0 0)
(3.00879 0.00160958 0 7.22494e-06 0 0)
(3.0274 0.00161108 0 7.18146e-06 0 0)
(3.04599 0.00160296 0 7.05157e-06 0 0)
(3.06445 0.00161181 0 7.05758e-06 0 0)
(3.08287 0.00159476 0 6.88584e-06 0 0)
(3.10107 0.00161924 0 6.9844e-06 0 0)
(3.1193 0.00158373 0 6.73323e-06 0 0)
(3.13696 0.00164228 0 6.98026e-06 0 0)
(3.15519 0.00157073 0 6.66e-06 0 0)
(3.17148 0.00170285 0 7.03227e-06 0 0)
(3.19055 0.0015986 0 6.90068e-06 0 0)
(3.20274 0.00184937 0 7.15642e-06 0 0)
(3.22645 0.00201498 0 9.30678e-06 0 0)
(0.027146 0.000348894 0 7.07976e-06 0 0)
(0.00631248 0.000291635 0 8.29942e-05 0 0)
(0.0136746 6.33725e-05 0 0.000265517 0 0)
(0.0223862 0.000580577 0 0.00057406 0 0)
(0.0328254 0.00161823 0 0.00102536 0 0)
(0.0442777 0.00269459 0 0.00161854 0 0)
(0.0555597 0.0034982 0 0.00231218 0 0)
(0.0667103 0.00394119 0 0.0030283 0 0)
(0.0783175 0.00410136 0 0.00369584 0 0)
(0.0901325 0.00404944 0 0.00427773 0 0)
(0.101505 0.00377009 0 0.00476085 0 0)
(0.112419 0.00324032 0 0.00513915 0 0)
(0.123308 0.00251501 0 0.00540486 0 0)
(0.134433 0.0016918 0 0.00555376 0 0)
(0.14586 0.000862437 0 0.00559066 0 0)
(0.157665 8.9832e-05 0 0.00552934 0 0)
(0.169965 -0.000606396 0 0.00538828 0 0)
(0.182862 -0.0012444 0 0.0051854 0 0)
(0.196417 -0.00185617 0 0.00493605 0 0)
(0.210644 -0.00247155 0 0.00465286 0 0)
(0.225542 -0.0031139 0 0.00434509 0 0)
(0.241119 -0.00379617 0 0.00402093 0 0)
(0.25741 -0.00451232 0 0.00368765 0 0)
(0.27446 -0.00523892 0 0.00335286 0 0)
(0.292316 -0.00594106 0 0.00302437 0 0)
(0.311018 -0.00658202 0 0.00270929 0 0)
(0.330588 -0.00713151 0 0.00241307 0 0)
(0.351033 -0.00756961 0 0.00213921 0 0)
(0.372337 -0.00788769 0 0.00188955 0 0)
(0.394464 -0.0080884 0 0.00166467 0 0)
(0.417364 -0.00818344 0 0.00146406 0 0)
(0.440977 -0.00819004 0 0.00128639 0 0)
(0.465239 -0.00812799 0 0.00112994 0 0)
(0.490088 -0.00801693 0 0.000992748 0 0)
(0.515467 -0.00787425 0 0.000872864 0 0)
(0.541326 -0.0077136 0 0.000768343 0 0)
(0.567619 -0.00754462 0 0.000677385 0 0)
(0.594314 -0.00737328 0 0.000598279 0 0)
(0.621388 -0.00720298 0 0.000529495 0 0)
(0.648823 -0.00703554 0 0.000469708 0 0)
(0.676604 -0.00687189 0 0.000417776 0 0)
(0.704721 -0.00671229 0 0.000372682 0 0)
(0.733163 -0.0065567 0 0.000333522 0 0)
(0.761919 -0.00640494 0 0.000299486 0 0)
(0.79098 -0.00625679 0 0.000269863 0 0)
(0.820332 -0.00611201 0 0.000244022 0 0)
(0.849958 -0.00597038 0 0.000221424 0 0)
(0.879844 -0.00583168 0 0.000201608 0 0)
(0.90997 -0.00569566 0 0.000184173 0 0)
(0.940316 -0.005562 0 0.000168774 0 0)
(0.970863 -0.00543032 0 0.000155114 0 0)
(1.00159 -0.00530025 0 0.00014294 0 0)
(1.03247 -0.00517151 0 0.000132041 0 0)
(1.06349 -0.00504391 0 0.000122236 0 0)
(1.09463 -0.00491728 0 0.000113377 0 0)
(1.12587 -0.00479156 0 0.000105337 0 0)
(1.1572 -0.00466669 0 9.80134e-05 0 0)
(1.18859 -0.00454269 0 9.13181e-05 0 0)
(1.22003 -0.00441972 0 8.518e-05 0 0)
(1.25151 -0.00429792 0 7.95392e-05 0 0)
(1.28303 -0.00417746 0 7.43467e-05 0 0)
(1.31457 -0.00405842 0 6.95609e-05 0 0)
(1.34612 -0.00394082 0 6.51467e-05 0 0)
(1.37767 -0.00382468 0 6.10737e-05 0 0)
(1.40923 -0.00371004 0 5.73154e-05 0 0)
(1.44078 -0.00359678 0 5.3847e-05 0 0)
(1.47232 -0.0034847 0 5.06464e-05 0 0)
(1.50385 -0.00337356 0 4.76921e-05 0 0)
(1.53535 -0.0032632 0 4.4965e-05 0 0)
(1.56683 -0.00315345 0 4.24468e-05 0 0)
(1.59827 -0.00304409 0 4.01203e-05 0 0)
(1.62968 -0.00293502 0 3.79698e-05 0 0)
(1.66104 -0.00282612 0 3.59805e-05 0 0)
(1.69235 -0.0027175 0 3.41387e-05 0 0)
(1.72361 -0.00260928 0 3.24318e-05 0 0)
(1.75481 -0.00250153 0 3.08473e-05 0 0)
(1.78594 -0.00239438 0 2.93743e-05 0 0)
(1.817 -0.0022881 0 2.80029e-05 0 0)
(1.84799 -0.00218286 0 2.67232e-05 0 0)
(1.8789 -0.00207878 0 2.5526e-05 0 0)
(1.90973 -0.00197602 0 2.4404e-05 0 0)
(1.94048 -0.00187468 0 2.33503e-05 0 0)
(1.97114 -0.0017749 0 2.23591e-05 0 0)
(2.00171 -0.00167665 0 2.14246e-05 0 0)
(2.0322 -0.00158001 0 2.05431e-05 0 0)
(2.06259 -0.00148492 0 1.97105e-05 0 0)
(2.09289 -0.00139139 0 1.89239e-05 0 0)
(2.12309 -0.0012993 0 1.81801e-05 0 0)
(2.1532 -0.00120868 0 1.74778e-05 0 0)
(2.18322 -0.0011196 0 1.68157e-05 0 0)
(2.21313 -0.00103212 0 1.61928e-05 0 0)
(2.24295 -0.00094627 0 1.56074e-05 0 0)
(2.27267 -0.00086203 0 1.50581e-05 0 0)
(2.30228 -0.000779447 0 1.45434e-05 0 0)
(2.3318 -0.000698536 0 1.40619e-05 0 0)
(2.36122 -0.00061946 0 1.36127e-05 0 0)
(2.39054 -0.000542212 0 1.31943e-05 0 0)
(2.41976 -0.000466997 0 1.28054e-05 0 0)
(2.44888 -0.000393592 0 1.24439e-05 0 0)
(2.47791 -0.000322222 0 1.21077e-05 0 0)
(2.50685 -0.000252385 0 1.17948e-05 0 0)
(2.53571 -0.000184607 0 1.15027e-05 0 0)
(2.56447 -0.000118074 0 1.1231e-05 0 0)
(2.59316 -5.42857e-05 0 1.0977e-05 0 0)
(2.62175 8.83296e-06 0 1.07413e-05 0 0)
(2.65027 6.78723e-05 0 1.05197e-05 0 0)
(2.67868 0.000128139 0 1.03135e-05 0 0)
(2.70703 0.000181645 0 1.01176e-05 0 0)
(2.73521 0.000241398 0 9.93253e-06 0 0)
(2.76338 0.000287881 0 9.75817e-06 0 0)
(2.7912 0.000352298 0 9.58103e-06 0 0)
(2.81924 0.000388959 0 9.43389e-06 0 0)
(2.84644 0.000466992 0 9.24062e-06 0 0)
(2.87456 0.000492347 0 9.15187e-06 0 0)
(2.90051 0.000597794 0 8.89264e-06 0 0)
(2.92942 0.000627041 0 8.96403e-06 0 0)
(2.95259 0.000776213 0 8.55531e-06 0 0)
(2.98426 0.000906969 0 9.20468e-06 0 0)
(3.00081 0.00108016 0 8.56616e-06 0 0)
(3.04283 0.00170495 0 1.26649e-05 0 0)
(0.0271365 0.000207938 0 2.8193e-06 0 0)
(0.00625342 0.000181294 0 3.39924e-05 0 0)
(0.0136455 1.13628e-05 0 0.000113463 0 0)
(0.0220436 0.000302791 0 0.000254082 0 0)
(0.0319072 0.000929348 0 0.000464893 0 0)
(0.0428803 0.00160122 0 0.000748212 0 0)
(0.0540013 0.0021716 0 0.00109173 0 0)
(0.0654941 0.00265796 0 0.00146762 0 0)
(0.0781378 0.00315168 0 0.00184346 0 0)
(0.0917462 0.0037027 0 0.00219391 0 0)
(0.105591 0.00429104 0 0.00250225 0 0)
(0.119539 0.00489089 0 0.00275811 0 0)
(0.133902 0.00550805 0 0.00295352 0 0)
(0.148808 0.00616273 0 0.00308353 0 0)
(0.164196 0.00686585 0 0.00314858 0 0)
(0.180022 0.00760486 0 0.00315459 0 0)
(0.196288 0.00833694 0 0.0031104 0 0)
(0.212989 0.00899845 0 0.00302484 0 0)
(0.230083 0.00952808 0 0.00290581 0 0)
(0.247475 0.00988228 0 0.00276021 0 0)
(0.265037 0.0100405 0 0.00259535 0 0)
(0.282643 0.010005 0 0.00241879 0 0)
(0.300193 0.00979904 0 0.00223736 0 0)
(0.317615 0.00946307 0 0.00205704 0 0)
(0.334856 0.00904327 0 0.00188229 0 0)
(0.351886 0.0085841 0 0.00171652 0 0)
(0.368695 0.00812213 0 0.00156222 0 0)
(0.385295 0.00768305 0 0.00142086 0 0)
(0.40171 0.0072819 0 0.00129302 0 0)
(0.417967 0.0069246 0 0.00117845 0 0)
(0.434093 0.00661028 0 0.00107651 0 0)
(0.450112 0.0063336 0 0.000986316 0 0)
(0.466047 0.00608763 0 0.000906857 0 0)
(0.481916 0.00586558 0 0.000837122 0 0)
(0.497738 0.00566157 0 0.000776138 0 0)
(0.51353 0.00547089 0 0.000723023 0 0)
(0.529305 0.00529027 0 0.000676807 0 0)
(0.545078 0.00511749 0 0.000636548 0 0)
(0.560861 0.00495079 0 0.000601483 0 0)
(0.576666 0.00478872 0 0.000570986 0 0)
(0.592504 0.00463001 0 0.000544498 0 0)
(0.608387 0.00447347 0 0.000521501 0 0)
(0.624324 0.00431809 0 0.000501512 0 0)
(0.640328 0.00416314 0 0.000484097 0 0)
(0.656407 0.00400825 0 0.000468863 0 0)
(0.672569 0.00385341 0 0.000455458 0 0)
(0.688823 0.00369903 0 0.00044355 0 0)
(0.705174 0.00354574 0 0.000432837 0 0)
(0.721628 0.00339447 0 0.000423061 0 0)
(0.738188 0.00324626 0 0.000414012 0 0)
(0.754858 0.00310204 0 0.000405527 0 0)
(0.771639 0.00296254 0 0.000397468 0 0)
(0.788533 0.00282815 0 0.000389725 0 0)
(0.80554 0.002699 0 0.000382204 0 0)
(0.822662 0.00257491 0 0.000374833 0 0)
(0.839898 0.00245542 0 0.000367556 0 0)
(0.857249 0.0023398 0 0.00036033 0 0)
(0.874716 0.0022272 0 0.000353128 0 0)
(0.892297 0.00211673 0 0.00034593 0 0)
(0.909994 0.0020076 0 0.000338721 0 0)
(0.927808 0.00189909 0 0.000331498 0 0)
(0.945739 0.00179057 0 0.000324262 0 0)
(0.963788 0.00168159 0 0.000317022 0 0)
(0.981956 0.00157194 0 0.000309789 0 0)
(1.00024 0.00146161 0 0.00030258 0 0)
(1.01865 0.00135085 0 0.000295412 0 0)
(1.03719 0.00123995 0 0.000288303 0 0)
(1.05584 0.00112936 0 0.00028127 0 0)
(1.07463 0.00101961 0 0.000274326 0 0)
(1.09353 0.000911359 0 0.000267481 0 0)
(1.11257 0.000805156 0 0.000260744 0 0)
(1.13174 0.000701513 0 0.000254119 0 0)
(1.15103 0.000600836 0 0.00024761 0 0)
(1.17045 0.00050356 0 0.000241217 0 0)
(1.19001 0.000409851 0 0.000234941 0 0)
(1.20969 0.000319845 0 0.00022878 0 0)
(1.2295 0.00023351 0 0.000222732 0 0)
(1.24943 0.000150815 0 0.000216793 0 0)
(1.26949 7.16039e-05 0 0.000210959 0 0)
(1.28967 -4.28058e-06 0 0.000205226 0 0)
(1.30998 -7.70948e-05 0 0.000199594 0 0)
(1.3304 -0.000146965 0 0.000194056 0 0)
(1.35094 -0.000214089 0 0.000188613 0 0)
(1.37159 -0.000278566 0 0.000183264 0 0)
(1.39236 -0.00034055 0 0.000178009 0 0)
(1.41323 -0.000400043 0 0.000172847 0 0)
(1.43421 -0.000457135 0 0.000167783 0 0)
(1.45529 -0.00051174 0 0.000162817 0 0)
(1.47647 -0.000563904 0 0.000157955 0 0)
(1.49775 -0.000613579 0 0.000153198 0 0)
(1.51912 -0.000660802 0 0.000148553 0 0)
(1.54059 -0.000705526 0 0.000144021 0 0)
(1.56214 -0.000747821 0 0.000139607 0 0)
(1.58378 -0.000787662 0 0.000135309 0 0)
(1.60551 -0.00082516 0 0.000131133 0 0)
(1.62732 -0.000860301 0 0.000127075 0 0)
(1.64922 -0.000893274 0 0.000123144 0 0)
(1.6712 -0.000924002 0 0.00011933 0 0)
(1.69326 -0.000952793 0 0.000115643 0 0)
(1.7154 -0.000979456 0 0.000112066 0 0)
(1.73762 -0.00100444 0 0.000108614 0 0)
(1.75992 -0.00102737 0 0.000105259 0 0)
(1.78231 -0.00104887 0 0.000102031 0 0)
(1.80477 -0.00106831 0 9.88843e-05 0 0)
(1.82732 -0.00108656 0 9.58756e-05 0 0)
(1.84993 -0.00110269 0 9.2919e-05 0 0)
(1.87262 -0.00111773 0 9.01269e-05 0 0)
(1.89535 -0.0011308 0 8.73232e-05 0 0)
(1.91814 -0.00114202 0 8.47466e-05 0 0)
(1.94096 -0.00115235 0 8.20286e-05 0 0)
(1.96374 -0.00115787 0 7.96856e-05 0 0)
(1.98663 -0.00116531 0 7.6949e-05 0 0)
(2.00921 -0.00116105 0 7.4908e-05 0 0)
(2.03226 -0.00116198 0 7.19753e-05 0 0)
(2.05418 -0.00113992 0 7.03978e-05 0 0)
(2.07785 -0.00111577 0 6.69382e-05 0 0)
(2.09806 -0.00106301 0 6.61457e-05 0 0)
(2.12378 -0.000943527 0 6.16913e-05 0 0)
(2.13957 -0.000861949 0 6.21406e-05 0 0)
(2.17437 -0.000464656 0 5.68252e-05 0 0)
(0.0271377 0.000143339 0 1.44913e-06 0 0)
(0.00625567 0.000129499 0 1.71978e-05 0 0)
(0.0136374 8.33257e-06 0 5.73421e-05 0 0)
(0.021966 0.000208412 0 0.000128365 0 0)
(0.031693 0.000633401 0 0.000232744 0 0)
(0.0424461 0.00107042 0 0.000368925 0 0)
(0.0532438 0.00142964 0 0.000530546 0 0)
(0.0643422 0.00173441 0 0.000705771 0 0)
(0.0765824 0.00204031 0 0.000880048 0 0)
(0.0898159 0.00237818 0 0.00104104 0 0)
(0.103335 0.00274632 0 0.00118106 0 0)
(0.117032 0.0031379 0 0.00129628 0 0)
(0.131247 0.00355785 0 0.00138505 0 0)
(0.146141 0.0040172 0 0.00144697 0 0)
(0.161676 0.00452273 0 0.00148337 0 0)
(0.177837 0.00506943 0 0.00149708 0 0)
(0.194658 0.00563772 0 0.00149193 0 0)
(0.212187 0.00619794 0 0.00147165 0 0)
(0.230441 0.00672088 0 0.0014395 0 0)
(0.249372 0.00718363 0 0.00139803 0 0)
(0.268872 0.00757033 0 0.00134941 0 0)
(0.28881 0.00787126 0 0.00129555 0 0)
(0.309069 0.00808436 0 0.0012381 0 0)
(0.329546 0.00821608 0 0.00117839 0 0)
(0.350151 0.00827998 0 0.00111764 0 0)
(0.370812 0.00829214 0 0.00105684 0 0)
(0.391484 0.00826881 0 0.000997007 0 0)
(0.412149 0.00822433 0 0.000939087 0 0)
(0.432806 0.00816996 0 0.000883892 0 0)
(0.453465 0.0081133 0 0.000831914 0 0)
(0.474139 0.00805897 0 0.000783453 0 0)
(0.494844 0.00800897 0 0.000738608 0 0)
(0.515591 0.00796371 0 0.000697372 0 0)
(0.53639 0.00792249 0 0.00065962 0 0)
(0.557248 0.00788418 0 0.000625175 0 0)
(0.57817 0.00784741 0 0.000593825 0 0)
(0.599157 0.0078109 0 0.000565395 0 0)
(0.620212 0.0077734 0 0.000539743 0 0)
(0.641334 0.00773416 0 0.000516714 0 0)
(0.662524 0.00769278 0 0.000496094 0 0)
(0.683781 0.00764939 0 0.000477658 0 0)
(0.705107 0.00760428 0 0.000461171 0 0)
(0.7265 0.00755817 0 0.000446422 0 0)
(0.74796 0.00751185 0 0.000433208 0 0)
(0.769485 0.00746642 0 0.000421349 0 0)
(0.791074 0.00742285 0 0.000410665 0 0)
(0.812724 0.0073821 0 0.000400992 0 0)
(0.834435 0.00734483 0 0.00039216 0 0)
(0.856204 0.00731171 0 0.000384034 0 0)
(0.87803 0.00728317 0 0.000376494 0 0)
(0.899911 0.00725953 0 0.000369454 0 0)
(0.921848 0.00724074 0 0.000362832 0 0)
(0.943837 0.00722664 0 0.000356568 0 0)
(0.965878 0.0072167 0 0.000350603 0 0)
(0.98797 0.00721025 0 0.000344899 0 0)
(1.01011 0.00720638 0 0.00033941 0 0)
(1.0323 0.0072042 0 0.000334115 0 0)
(1.05453 0.00720267 0 0.000328986 0 0)
(1.0768 0.00720095 0 0.000324013 0 0)
(1.09911 0.00719815 0 0.000319183 0 0)
(1.12145 0.00719365 0 0.000314495 0 0)
(1.14383 0.00718679 0 0.000309935 0 0)
(1.16623 0.00717715 0 0.000305503 0 0)
(1.18865 0.00716438 0 0.000301185 0 0)
(1.21109 0.00714845 0 0.000296982 0 0)
(1.23355 0.0071293 0 0.000292885 0 0)
(1.25601 0.0071072 0 0.000288899 0 0)
(1.27848 0.00708233 0 0.000285017 0 0)
(1.30096 0.0070552 0 0.000281245 0 0)
(1.32344 0.00702611 0 0.000277573 0 0)
(1.34591 0.00699555 0 0.000274004 0 0)
(1.36838 0.00696379 0 0.000270525 0 0)
(1.39084 0.00693128 0 0.000267137 0 0)
(1.41329 0.00689818 0 0.000263827 0 0)
(1.43573 0.0068648 0 0.000260595 0 0)
(1.45816 0.00683114 0 0.000257425 0 0)
(1.48057 0.0067974 0 0.000254319 0 0)
(1.50296 0.00676345 0 0.000251258 0 0)
(1.52534 0.0067294 0 0.000248247 0 0)
(1.5477 0.00669501 0 0.000245266 0 0)
(1.57003 0.00666037 0 0.000242321 0 0)
(1.59234 0.0066252 0 0.000239394 0 0)
(1.61462 0.00658962 0 0.000236493 0 0)
(1.63687 0.00655336 0 0.000233603 0 0)
(1.65909 0.00651656 0 0.000230732 0 0)
(1.68127 0.00647897 0 0.000227867 0 0)
(1.70342 0.00644078 0 0.00022502 0 0)
(1.72553 0.00640173 0 0.000222177 0 0)
(1.7476 0.00636207 0 0.000219354 0 0)
(1.76963 0.00632152 0 0.000216538 0 0)
(1.79161 0.00628036 0 0.000213745 0 0)
(1.81355 0.0062383 0 0.000210961 0 0)
(1.83544 0.00619566 0 0.000208205 0 0)
(1.85728 0.00615208 0 0.00020546 0 0)
(1.87908 0.00610793 0 0.000202748 0 0)
(1.90082 0.00606283 0 0.00020005 0 0)
(1.92252 0.00601723 0 0.000197391 0 0)
(1.94418 0.00597067 0 0.000194745 0 0)
(1.96579 0.00592371 0 0.000192148 0 0)
(1.98735 0.00587572 0 0.000189555 0 0)
(2.00888 0.00582755 0 0.000187022 0 0)
(2.03036 0.00577818 0 0.000184476 0 0)
(2.05182 0.00572912 0 0.000182011 0 0)
(2.07323 0.00567847 0 0.000179498 0 0)
(2.09462 0.0056292 0 0.000177119 0 0)
(2.11594 0.00557724 0 0.000174615 0 0)
(2.13726 0.00552885 0 0.000172355 0 0)
(2.15847 0.00547483 0 0.000169797 0 0)
(2.1797 0.00542926 0 0.000167714 0 0)
(2.20076 0.00537124 0 0.000164974 0 0)
(2.22183 0.00533248 0 0.000163189 0 0)
(2.24271 0.00526707 0 0.00016003 0 0)
(2.26348 0.00524349 0 0.000158796 0 0)
(2.28421 0.00516629 0 0.000154783 0 0)
(2.30437 0.00517453 0 0.000154592 0 0)
(2.32525 0.00508276 0 0.000148902 0 0)
(2.34403 0.00514932 0 0.000150576 0 0)
(2.36612 0.0050455 0 0.000141728 0 0)
(2.38152 0.00517873 0 0.000145911 0 0)
(2.41141 0.0050481 0 0.000131125 0 0)
(0.027138 8.0597e-05 0 5.09031e-07 0 0)
(0.00625588 7.69003e-05 0 5.9643e-06 0 0)
(0.0136325 5.84593e-06 0 1.97624e-05 0 0)
(0.0219187 0.000117536 0 4.40003e-05 0 0)
(0.031573 0.000356183 0 7.92843e-05 0 0)
(0.0422306 0.000599204 0 0.000124874 0 0)
(0.0528951 0.000798591 0 0.000178781 0 0)
(0.0638267 0.000969853 0 0.000237573 0 0)
(0.0758963 0.001143 0 0.000296863 0 0)
(0.0889729 0.00133314 0 0.000352627 0 0)
(0.102345 0.00153877 0 0.000402181 0 0)
(0.1159 0.00175671 0 0.000444187 0 0)
(0.129971 0.00199089 0 0.000478111 0 0)
(0.144711 0.002249 0 0.000503759 0 0)
(0.160069 0.00253699 0 0.000521174 0 0)
(0.176006 0.00285497 0 0.000530732 0 0)
(0.192537 0.00319368 0 0.000533147 0 0)
(0.209697 0.00353431 0 0.000529235 0 0)
(0.227504 0.00385379 0 0.000519784 0 0)
(0.245922 0.00413093 0 0.000505441 0 0)
(0.26486 0.00434967 0 0.000486803 0 0)
(0.284214 0.00450037 0 0.000464525 0 0)
(0.3039 0.00458079 0 0.000439376 0 0)
(0.32385 0.00459704 0 0.000412265 0 0)
(0.344002 0.00456215 0 0.0003842 0 0)
(0.364301 0.00449188 0 0.000356098 0 0)
(0.384711 0.00440148 0 0.000328715 0 0)
(0.405211 0.00430376 0 0.000302607 0 0)
(0.425797 0.0042083 0 0.000278152 0 0)
(0.446469 0.00412109 0 0.000255589 0 0)
(0.467233 0.00404481 0 0.000234999 0 0)
(0.488095 0.00397974 0 0.000216324 0 0)
(0.509062 0.00392463 0 0.000199465 0 0)
(0.530141 0.00387745 0 0.000184335 0 0)
(0.551336 0.00383595 0 0.000170849 0 0)
(0.572651 0.00379819 0 0.000158899 0 0)
(0.594088 0.00376277 0 0.000148342 0 0)
(0.61565 0.00372876 0 0.000139026 0 0)
(0.637336 0.00369566 0 0.00013081 0 0)
(0.659145 0.00366336 0 0.000123572 0 0)
(0.681079 0.00363205 0 0.000117204 0 0)
(0.703135 0.00360207 0 0.00011161 0 0)
(0.725314 0.00357377 0 0.000106701 0 0)
(0.747613 0.00354751 0 0.000102395 0 0)
(0.770033 0.00352361 0 9.8616e-05 0 0)
(0.792572 0.00350242 0 9.52977e-05 0 0)
(0.81523 0.00348433 0 9.23832e-05 0 0)
(0.838005 0.00346987 0 8.98277e-05 0 0)
(0.8609 0.00345948 0 8.75902e-05 0 0)
(0.883915 0.0034535 0 8.56319e-05 0 0)
(0.907053 0.00345212 0 8.3915e-05 0 0)
(0.930313 0.0034554 0 8.24058e-05 0 0)
(0.9537 0.00346324 0 8.10736e-05 0 0)
(0.977213 0.00347537 0 7.98922e-05 0 0)
(1.00085 0.00349138 0 7.88376e-05 0 0)
(1.02462 0.00351076 0 7.789e-05 0 0)
(1.04852 0.00353289 0 7.70318e-05 0 0)
(1.07255 0.00355713 0 7.62493e-05 0 0)
(1.0967 0.00358281 0 7.55311e-05 0 0)
(1.12098 0.00360937 0 7.48706e-05 0 0)
(1.14538 0.00363626 0 7.42611e-05 0 0)
(1.16989 0.00366301 0 7.36969e-05 0 0)
(1.19452 0.00368916 0 7.31714e-05 0 0)
(1.21925 0.00371439 0 7.26792e-05 0 0)
(1.24409 0.00373843 0 7.2215e-05 0 0)
(1.26903 0.00376116 0 7.17751e-05 0 0)
(1.29405 0.0037825 0 7.13547e-05 0 0)
(1.31917 0.00380247 0 7.09504e-05 0 0)
(1.34437 0.00382115 0 7.05591e-05 0 0)
(1.36965 0.0038387 0 7.0179e-05 0 0)
(1.395 0.00385529 0 6.98081e-05 0 0)
(1.42042 0.00387112 0 6.94451e-05 0 0)
(1.44592 0.00388635 0 6.90883e-05 0 0)
(1.47148 0.00390114 0 6.87366e-05 0 0)
(1.4971 0.00391561 0 6.83883e-05 0 0)
(1.52279 0.00392985 0 6.80421e-05 0 0)
(1.54853 0.00394392 0 6.76961e-05 0 0)
(1.57433 0.00395783 0 6.73492e-05 0 0)
(1.60018 0.00397161 0 6.69995e-05 0 0)
(1.62609 0.00398522 0 6.6646e-05 0 0)
(1.65205 0.00399864 0 6.6287e-05 0 0)
(1.67805 0.00401182 0 6.59219e-05 0 0)
(1.70409 0.00402469 0 6.55497e-05 0 0)
(1.73018 0.00403724 0 6.51703e-05 0 0)
(1.75631 0.00404943 0 6.47832e-05 0 0)
(1.78247 0.00406123 0 6.43886e-05 0 0)
(1.80866 0.00407262 0 6.39867e-05 0 0)
(1.83489 0.00408358 0 6.35783e-05 0 0)
(1.86113 0.0040941 0 6.31639e-05 0 0)
(1.88741 0.00410419 0 6.27446e-05 0 0)
(1.9137 0.00411386 0 6.23213e-05 0 0)
(1.94001 0.00412309 0 6.18951e-05 0 0)
(1.96633 0.00413192 0 6.14674e-05 0 0)
(1.99266 0.00414027 0 6.10385e-05 0 0)
(2.01901 0.00414821 0 6.06109e-05 0 0)
(2.04536 0.00415568 0 6.01837e-05 0 0)
(2.07172 0.00416278 0 5.97609e-05 0 0)
(2.09808 0.00416938 0 5.93391e-05 0 0)
(2.12446 0.00417572 0 5.89252e-05 0 0)
(2.15083 0.00418149 0 5.851e-05 0 0)
(2.17722 0.00418719 0 5.81072e-05 0 0)
(2.2036 0.00419212 0 5.76966e-05 0 0)
(2.23001 0.00419737 0 5.73081e-05 0 0)
(2.2564 0.00420137 0 5.68975e-05 0 0)
(2.28282 0.00420657 0 5.653e-05 0 0)
(2.30922 0.00420942 0 5.61093e-05 0 0)
(2.33563 0.00421535 0 5.57749e-05 0 0)
(2.36201 0.00421631 0 5.53196e-05 0 0)
(2.38838 0.00422439 0 5.50399e-05 0 0)
(2.4147 0.00422178 0 5.45005e-05 0 0)
(2.44094 0.00423489 0 5.4321e-05 0 0)
(2.46721 0.00422577 0 5.36058e-05 0 0)
(2.4931 0.00424995 0 5.36218e-05 0 0)
(2.51945 0.00423015 0 5.25622e-05 0 0)
(2.54452 0.00427702 0 5.29495e-05 0 0)
(2.5715 0.00424113 0 5.1233e-05 0 0)
(2.59459 0.00432623 0 5.22383e-05 0 0)
(2.6238 0.00426253 0 4.92722e-05 0 0)
(2.64195 0.00438023 0 5.09272e-05 0 0)
(2.68136 0.00424894 0 4.55457e-05 0 0)
(0.027138 1.94248e-05 0 4.89409e-08 0 0)
(0.00625504 2.40307e-05 0 5.39752e-07 0 0)
(0.0136295 2.99748e-06 0 1.82758e-06 0 0)
(0.021896 3.46405e-05 0 4.14493e-06 0 0)
(0.0315163 0.000104613 0 7.57116e-06 0 0)
(0.0421305 0.000175723 0 1.2048e-05 0 0)
(0.0527366 0.000234188 0 1.74068e-05 0 0)
(0.0635947 0.000285637 0 2.33564e-05 0 0)
(0.0755864 0.00033878 0 2.95086e-05 0 0)
(0.0885909 0.00039743 0 3.5477e-05 0 0)
(0.101902 0.000461602 0 4.09641e-05 0 0)
(0.115406 0.00053185 0 4.57856e-05 0 0)
(0.129434 0.00061034 0 4.98252e-05 0 0)
(0.144131 0.000699421 0 5.30041e-05 0 0)
(0.159438 0.000800235 0 5.52514e-05 0 0)
(0.175302 0.000911678 0 5.65446e-05 0 0)
(0.191725 0.00102849 0 5.68949e-05 0 0)
(0.208729 0.00114143 0 5.63542e-05 0 0)
(0.226336 0.00123984 0 5.49745e-05 0 0)
(0.244526 0.00131593 0 5.28641e-05 0 0)
(0.263225 0.00136655 0 5.0159e-05 0 0)
(0.282343 0.00139311 0 4.70344e-05 0 0)
(0.301807 0.00140016 0 4.36737e-05 0 0)
(0.321557 0.00139429 0 4.02691e-05 0 0)
(0.34153 0.00138274 0 3.69978e-05 0 0)
(0.361669 0.00137184 0 3.39977e-05 0 0)
(0.381931 0.00136553 0 3.13378e-05 0 0)
(0.402291 0.0013655 0 2.90369e-05 0 0)
(0.42274 0.00137172 0 2.70789e-05 0 0)
(0.443278 0.00138323 0 2.54331e-05 0 0)
(0.463908 0.00139861 0 2.40603e-05 0 0)
(0.484638 0.00141632 0 2.29246e-05 0 0)
(0.505476 0.00143499 0 2.1991e-05 0 0)
(0.526427 0.00145362 0 2.12302e-05 0 0)
(0.547498 0.00147162 0 2.06128e-05 0 0)
(0.568691 0.00148876 0 2.01119e-05 0 0)
(0.59001 0.00150496 0 1.97019e-05 0 0)
(0.611453 0.00152026 0 1.93632e-05 0 0)
(0.633021 0.00153467 0 1.90804e-05 0 0)
(0.654713 0.00154828 0 1.88439e-05 0 0)
(0.676528 0.00156116 0 1.86466e-05 0 0)
(0.698465 0.00157346 0 1.84841e-05 0 0)
(0.720522 0.00158528 0 1.8352e-05 0 0)
(0.742698 0.00159679 0 1.82468e-05 0 0)
(0.764992 0.00160816 0 1.81653e-05 0 0)
(0.787404 0.00161971 0 1.81052e-05 0 0)
(0.809934 0.00163177 0 1.80644e-05 0 0)
(0.832581 0.00164476 0 1.80422e-05 0 0)
(0.855348 0.00165903 0 1.80365e-05 0 0)
(0.878235 0.00167481 0 1.80443e-05 0 0)
(0.901246 0.0016922 0 1.80618e-05 0 0)
(0.924382 0.00171121 0 1.80855e-05 0 0)
(0.947646 0.00173172 0 1.81118e-05 0 0)
(0.97104 0.0017535 0 1.81385e-05 0 0)
(0.994566 0.00177623 0 1.81631e-05 0 0)
(1.01823 0.00179955 0 1.81839e-05 0 0)
(1.04202 0.00182306 0 1.81995e-05 0 0)
(1.06595 0.00184639 0 1.8209e-05 0 0)
(1.09001 0.00186916 0 1.82115e-05 0 0)
(1.11421 0.00189105 0 1.82056e-05 0 0)
(1.13853 0.00191175 0 1.819e-05 0 0)
(1.16298 0.00193111 0 1.81643e-05 0 0)
(1.18755 0.00194899 0 1.8128e-05 0 0)
(1.21224 0.00196538 0 1.80814e-05 0 0)
(1.23704 0.00198027 0 1.80244e-05 0 0)
(1.26195 0.00199377 0 1.79576e-05 0 0)
(1.28697 0.00200593 0 1.78812e-05 0 0)
(1.31208 0.00201689 0 1.77955e-05 0 0)
(1.33728 0.00202677 0 1.77011e-05 0 0)
(1.36258 0.00203573 0 1.75987e-05 0 0)
(1.38796 0.00204391 0 1.7489e-05 0 0)
(1.41342 0.00205143 0 1.73728e-05 0 0)
(1.43896 0.00205842 0 1.72505e-05 0 0)
(1.46458 0.00206497 0 1.7123e-05 0 0)
(1.49027 0.00207114 0 1.69907e-05 0 0)
(1.51604 0.00207699 0 1.68543e-05 0 0)
(1.54187 0.00208256 0 1.67142e-05 0 0)
(1.56777 0.00208787 0 1.6571e-05 0 0)
(1.59374 0.00209294 0 1.6425e-05 0 0)
(1.61978 0.0020978 0 1.62769e-05 0 0)
(1.64588 0.00210248 0 1.61267e-05 0 0)
(1.67204 0.00210697 0 1.5975e-05 0 0)
(1.69825 0.00211127 0 1.58218e-05 0 0)
(1.72453 0.00211541 0 1.56677e-05 0 0)
(1.75086 0.00211939 0 1.55128e-05 0 0)
(1.77724 0.00212322 0 1.53575e-05 0 0)
(1.80368 0.00212693 0 1.5202e-05 0 0)
(1.83016 0.00213052 0 1.50466e-05 0 0)
(1.85668 0.002134 0 1.48916e-05 0 0)
(1.88325 0.00213736 0 1.47374e-05 0 0)
(1.90986 0.0021406 0 1.45841e-05 0 0)
(1.9365 0.00214374 0 1.44319e-05 0 0)
(1.96318 0.00214675 0 1.42812e-05 0 0)
(1.98989 0.0021496 0 1.4132e-05 0 0)
(2.01663 0.00215228 0 1.39846e-05 0 0)
(2.04341 0.00215477 0 1.3839e-05 0 0)
(2.07021 0.00215709 0 1.36957e-05 0 0)
(2.09704 0.00215919 0 1.35542e-05 0 0)
(2.12389 0.00216111 0 1.34155e-05 0 0)
(2.15078 0.00216278 0 1.32782e-05 0 0)
(2.17769 0.00216436 0 1.31441e-05 0 0)
(2.20464 0.00216566 0 1.30101e-05 0 0)
(2.23161 0.00216698 0 1.28804e-05 0 0)
(2.25862 0.00216788 0 1.27488e-05 0 0)
(2.28565 0.00216907 0 1.26242e-05 0 0)
(2.31271 0.0021695 0 1.24932e-05 0 0)
(2.33979 0.00217077 0 1.23751e-05 0 0)
(2.36687 0.0021705 0 1.22408e-05 0 0)
(2.39396 0.00217216 0 1.21312e-05 0 0)
(2.42105 0.00217066 0 1.1986e-05 0 0)
(2.44804 0.00217345 0 1.18907e-05 0 0)
(2.47515 0.00216986 0 1.17211e-05 0 0)
(2.50182 0.00217538 0 1.16544e-05 0 0)
(2.52911 0.00216844 0 1.14352e-05 0 0)
(2.55495 0.00218004 0 1.14256e-05 0 0)
(2.58301 0.00216778 0 1.11034e-05 0 0)
(2.6068 0.00219046 0 1.11958e-05 0 0)
(2.63734 0.00216677 0 1.06488e-05 0 0)
(2.6559 0.00220029 0 1.0859e-05 0 0)
(2.69708 0.00214059 0 9.7689e-06 0 0)
(0.0271381 -4.11929e-05 0 1.02377e-07 0 0)
(0.00625493 -2.85022e-05 0 9.95237e-07 0 0)
(0.0136293 6.94624e-07 0 3.02785e-06 0 0)
(0.0218955 -4.43737e-05 0 6.3741e-06 0 0)
(0.0315151 -0.000137395 0 1.10515e-05 0 0)
(0.0421284 -0.000232119 0 1.69209e-05 0 0)
(0.052734 -0.000310276 0 2.37061e-05 0 0)
(0.0635923 -0.000377511 0 3.09751e-05 0 0)
(0.0755851 -0.000444471 0 3.81942e-05 0 0)
(0.0885914 -0.000515012 0 4.48844e-05 0 0)
(0.101905 -0.000586775 0 5.07263e-05 0 0)
(0.115412 -0.000658191 0 5.55735e-05 0 0)
(0.129442 -0.000730974 0 5.93711e-05 0 0)
(0.144141 -0.0008082 0 6.21048e-05 0 0)
(0.159449 -0.000892634 0 6.37776e-05 0 0)
(0.175312 -0.000985608 0 6.44533e-05 0 0)
(0.191732 -0.0010849 0 6.42272e-05 0 0)
(0.208733 -0.00118438 0 6.31941e-05 0 0)
(0.226336 -0.00127599 0 6.14046e-05 0 0)
(0.244522 -0.00135318 0 5.89063e-05 0 0)
(0.263218 -0.00141255 0 5.57881e-05 0 0)
(0.282335 -0.00145383 0 5.21997e-05 0 0)