/*--------------------------------*- C++ -*----------------------------------*\
  =========                 |
  \\      /  F ield         | OpenFOAM: The Open Source CFD Toolbox
   \\    /   O peration     | Website:  https://openfoam.org
    \\  /    A nd           | Version:  7
     \\/     M anipulation  |
\*---------------------------------------------------------------------------*/
FoamFile
{
    version     2.0;
    format      ascii;
    class       volScalarField;
    location    "1.3325";
    object      rho_0;
}
// * * * * * * * * * * * * * * * * * * * * * * * * * * * * * * * * * * * * * //

dimensions      [1 -3 0 0 0 0 0];

internalField   nonuniform List<scalar> 
4950
(
1.23246
1.23213
1.23223
1.232
1.23216
1.23197
1.23208
1.2319
1.23197
1.23181
1.23186
1.23174
1.23178
1.23169
1.23173
1.23169
1.2317
1.23175
1.23162
1.23204
1.23242
1.23238
1.23256
1.23241
1.2326
1.23248
1.23256
1.23239
1.23237
1.23218
1.23212
1.23195
1.23188
1.23179
1.23173
1.23176
1.23164
1.23193
1.23146
1.23244
1.2327
1.23279
1.23322
1.23312
1.23347
1.2334
1.23362
1.23348
1.23355
1.23334
1.23331
1.23307
1.23297
1.23275
1.23261
1.23249
1.23236
1.23242
1.23225
1.23257
1.23241
1.23249
1.2328
1.23278
1.23305
1.23306
1.23324
1.23318
1.23322
1.23308
1.23303
1.23286
1.23274
1.23253
1.23236
1.23216
1.23202
1.23191
1.23186
1.23182
1.23268
1.2328
1.23326
1.2332
1.23357
1.23354
1.2338
1.23371
1.23382
1.23365
1.23366
1.23346
1.23339
1.23314
1.23301
1.23275
1.23265
1.23243
1.23246
1.23232
1.23241
1.23249
1.2328
1.23277
1.23305
1.23305
1.23324
1.23318
1.23322
1.23308
1.23304
1.23286
1.23275
1.23253
1.23237
1.23215
1.23204
1.23189
1.23188
1.23181
1.2327
1.23279
1.23322
1.23312
1.23347
1.2334
1.23362
1.23347
1.23355
1.23333
1.23332
1.23306
1.23298
1.23273
1.23264
1.23244
1.23242
1.23232
1.23238
1.2324
1.23242
1.23237
1.23256
1.23241
1.2326
1.23248
1.23256
1.23239
1.23237
1.23218
1.23212
1.23194
1.23189
1.23177
1.23176
1.2317
1.23175
1.23174
1.2318
1.23185
1.23246
1.23213
1.23223
1.232
1.23216
1.23197
1.23208
1.2319
1.23197
1.23181
1.23187
1.23173
1.23179
1.23169
1.23174
1.23168
1.23173
1.23168
1.23174
1.23169
1.23084
1.23099
1.23076
1.23096
1.23078
1.23092
1.23072
1.23081
1.23063
1.2307
1.23056
1.23063
1.23052
1.23061
1.23052
1.23065
1.23051
1.23081
1.23023
1.23177
1.23109
1.23137
1.2313
1.23152
1.2315
1.23164
1.23156
1.23157
1.23142
1.23135
1.23117
1.23107
1.23089
1.23087
1.23072
1.23085
1.23064
1.23107
1.23054
1.23163
1.23082
1.23104
1.23085
1.23112
1.23104
1.23126
1.23115
1.23124
1.23106
1.23106
1.23083
1.23076
1.23049
1.23041
1.23015
1.23017
1.22996
1.23013
1.22994
1.23026
1.23109
1.23137
1.23132
1.23155
1.23157
1.23175
1.23174
1.23179
1.2317
1.23166
1.23152
1.23142
1.23122
1.23106
1.23084
1.2307
1.23056
1.2305
1.2305
1.23048
1.23082
1.23104
1.23085
1.23112
1.23105
1.23129
1.23121
1.23132
1.23117
1.23118
1.231
1.23094
1.23072
1.23059
1.23036
1.23022
1.23006
1.22999
1.22996
1.2299
1.23109
1.23137
1.23132
1.23155
1.23157
1.23175
1.23174
1.23179
1.23171
1.23166
1.23153
1.23141
1.23122
1.23105
1.23085
1.23069
1.23057
1.23049
1.23051
1.23047
1.23082
1.23104
1.23085
1.23112
1.23104
1.23126
1.23116
1.23124
1.23107
1.23105
1.23083
1.23075
1.2305
1.23039
1.23018
1.23012
1.23002
1.23005
1.23005
1.23012
1.23109
1.23137
1.2313
1.23152
1.2315
1.23164
1.23156
1.23157
1.23143
1.23134
1.23117
1.23106
1.23091
1.23084
1.23077
1.23077
1.23078
1.23084
1.2309
1.23103
1.23084
1.23099
1.23076
1.23096
1.23078
1.23092
1.23072
1.23081
1.23063
1.2307
1.23056
1.23063
1.23053
1.2306
1.23054
1.23061
1.23058
1.23066
1.23063
1.23072
1.23098
1.23109
1.23116
1.23128
1.23131
1.23132
1.23121
1.23111
1.23097
1.23092
1.23085
1.23087
1.23083
1.2309
1.23081
1.231
1.23068
1.23137
1.23005
1.23268
1.23098
1.23111
1.23122
1.23138
1.2315
1.23159
1.23159
1.23154
1.23141
1.23129
1.23108
1.23093
1.2307
1.23066
1.23044
1.23063
1.23035
1.23088
1.23033
1.23137
1.23097
1.2311
1.23119
1.23134
1.23145
1.23156
1.23157
1.23156
1.23146
1.23136
1.23118
1.23103
1.23078
1.23061
1.23037
1.23031
1.23015
1.23021
1.23015
1.23029
1.23097
1.23111
1.23122
1.23138
1.23152
1.23163
1.23166
1.23165
1.23158
1.2315
1.23136
1.23121
1.231
1.23081
1.2306
1.23044
1.23033
1.23024
1.23026
1.2302
1.23097
1.2311
1.23119
1.23134
1.23145
1.23157
1.23158
1.23157
1.23149
1.2314
1.23126
1.23112
1.23091
1.23071
1.2305
1.23034
1.23022
1.23012
1.23013
1.23007
1.23098
1.23111
1.23122
1.23138
1.23152
1.23163
1.23166
1.23165
1.23158
1.23149
1.23136
1.23121
1.231
1.2308
1.2306
1.23044
1.23033
1.23025
1.23025
1.23022
1.23097
1.2311
1.23119
1.23134
1.23145
1.23156
1.23157
1.23156
1.23146
1.23136
1.23119
1.23102
1.23079
1.23059
1.2304
1.23028
1.23018
1.23017
1.23019
1.23025
1.23098
1.23111
1.23122
1.23138
1.2315
1.23159
1.23159
1.23154
1.23142
1.23128
1.23109
1.23091
1.23073
1.23061
1.23053
1.23051
1.23053
1.23062
1.2307
1.23087
1.23098
1.23109
1.23116
1.23128
1.23131
1.23132
1.23121
1.23111
1.23097
1.23091
1.23085
1.23086
1.23084
1.23087
1.23086
1.23089
1.2309
1.23092
1.23095
1.23095
1.23084
1.23099
1.23076
1.23096
1.23078
1.23092
1.23072
1.23081
1.23063
1.2307
1.23056
1.23063
1.23052
1.23061
1.23052
1.23065
1.23051
1.23081
1.23023
1.23177
1.23109
1.23137
1.2313
1.23152
1.2315
1.23164
1.23156
1.23157
1.23142
1.23135
1.23117
1.23107
1.23089
1.23087
1.23072
1.23085
1.23064
1.23107
1.23054
1.23163
1.23082
1.23104
1.23085
1.23112
1.23104
1.23126
1.23115
1.23124
1.23106
1.23106
1.23083
1.23076
1.23049
1.23041
1.23015
1.23017
1.22996
1.23013
1.22994
1.23026
1.23109
1.23137
1.23132
1.23155
1.23157
1.23175
1.23174
1.23179
1.2317
1.23166
1.23152
1.23142
1.23122
1.23106
1.23084
1.2307
1.23056
1.2305
1.2305
1.23048
1.23082
1.23104
1.23085
1.23112
1.23105
1.23129
1.23121
1.23132
1.23117
1.23118
1.231
1.23094
1.23072
1.23059
1.23036
1.23022
1.23006
1.22999
1.22996
1.2299
1.23109
1.23137
1.23132
1.23155
1.23157
1.23175
1.23174
1.23179
1.23171
1.23166
1.23153
1.23141
1.23122
1.23105
1.23085
1.23069
1.23057
1.23049
1.23051
1.23047
1.23082
1.23104
1.23085
1.23112
1.23104
1.23126
1.23116
1.23124
1.23107
1.23105
1.23083
1.23075
1.2305
1.23039
1.23018
1.23012
1.23002
1.23005
1.23005
1.23012
1.23109
1.23137
1.2313
1.23152
1.2315
1.23164
1.23156
1.23157
1.23143
1.23134
1.23117
1.23106
1.23091
1.23084
1.23077
1.23077
1.23078
1.23084
1.2309
1.23103
1.23084
1.23099
1.23076
1.23096
1.23078
1.23092
1.23072
1.23081
1.23063
1.2307
1.23056
1.23063
1.23053
1.2306
1.23054
1.23061
1.23058
1.23066
1.23063
1.23072
1.23246
1.23213
1.23223
1.232
1.23216
1.23197
1.23208
1.2319
1.23197
1.23181
1.23186
1.23174
1.23178
1.23169
1.23173
1.23169
1.2317
1.23175
1.23162
1.23204
1.23242
1.23238
1.23256
1.23241
1.2326
1.23248
1.23256
1.23239
1.23237
1.23218
1.23212
1.23195
1.23188
1.23179
1.23173
1.23176
1.23164
1.23193
1.23146
1.23244
1.2327
1.23279
1.23322
1.23312
1.23347
1.2334
1.23362
1.23348
1.23355
1.23334
1.23331
1.23307
1.23297
1.23275
1.23261
1.23249
1.23236
1.23242
1.23225
1.23257
1.23241
1.23249
1.2328
1.23278
1.23305
1.23306
1.23324
1.23318
1.23322
1.23308
1.23303
1.23286
1.23274
1.23253
1.23236
1.23216
1.23202
1.23191
1.23186
1.23182
1.23268
1.2328
1.23326
1.2332
1.23357
1.23354
1.2338
1.23371
1.23382
1.23365
1.23366
1.23346
1.23339
1.23314
1.23301
1.23275
1.23265
1.23243
1.23246
1.23232
1.23241
1.23249
1.2328
1.23277
1.23305
1.23305
1.23324
1.23318
1.23322
1.23308
1.23304
1.23286
1.23275
1.23253
1.23237
1.23215
1.23204
1.23189
1.23188
1.23181
1.2327
1.23279
1.23322
1.23312
1.23347
1.2334
1.23362
1.23347
1.23355
1.23333
1.23332
1.23306
1.23298
1.23273
1.23264
1.23244
1.23242
1.23232
1.23238
1.2324
1.23242
1.23237
1.23256
1.23241
1.2326
1.23248
1.23256
1.23239
1.23237
1.23218
1.23212
1.23194
1.23189
1.23177
1.23176
1.2317
1.23175
1.23174
1.2318
1.23185
1.23246
1.23213
1.23223
1.232
1.23216
1.23197
1.23208
1.2319
1.23197
1.23181
1.23187
1.23173
1.23179
1.23169
1.23174
1.23168
1.23173
1.23168
1.23174
1.23169
1.22514
1.21928
1.2154
1.21215
1.20975
1.20757
1.20577
1.20389
1.20225
1.20061
1.19925
1.19795
1.19687
1.1958
1.19491
1.19406
1.19341
1.19283
1.19245
1.19212
1.19194
1.19176
1.19168
1.19157
1.19153
1.19146
1.19143
1.19137
1.19135
1.19129
1.19127
1.19121
1.19119
1.19114
1.19111
1.19106
1.19104
1.19099
1.19097
1.19092
1.1909
1.19085
1.19083
1.19078
1.19076
1.19072
1.19069
1.19065
1.19063
1.19059
1.19056
1.19052
1.1905
1.19046
1.19044
1.1904
1.19038
1.19034
1.19032
1.19028
1.19026
1.19022
1.1902
1.19016
1.19014
1.19011
1.19008
1.19005
1.19002
1.18999
1.18997
1.18993
1.18991
1.18988
1.18985
1.18982
1.1898
1.18977
1.18975
1.18972
1.18969
1.18966
1.18964
1.18961
1.18959
1.18956
1.18954
1.18951
1.1895
1.18947
1.22879
1.22386
1.22022
1.21702
1.2146
1.21243
1.21067
1.20887
1.20724
1.20559
1.2042
1.20287
1.20177
1.2007
1.19979
1.19891
1.19821
1.19759
1.19715
1.19678
1.19656
1.19636
1.19626
1.19614
1.1961
1.19602
1.19599
1.19593
1.19591
1.19585
1.19583
1.19577
1.19575
1.1957
1.19567
1.19562
1.1956
1.19555
1.19553
1.19548
1.19546
1.19541
1.19539
1.19534
1.19532
1.19528
1.19525
1.19521
1.19519
1.19515
1.19512
1.19509
1.19506
1.19502
1.195
1.19496
1.19494
1.1949
1.19488
1.19484
1.19482
1.19478
1.19476
1.19472
1.1947
1.19467
1.19464
1.19461
1.19458
1.19455
1.19453
1.1945
1.19447
1.19444
1.19442
1.19439
1.19436
1.19433
1.19431
1.19428
1.19425
1.19422
1.1942
1.19417
1.19415
1.19412
1.1941
1.19407
1.19406
1.19404
1.23196
1.2293
1.22671
1.22389
1.22158
1.21949
1.2179
1.21628
1.21479
1.21317
1.21175
1.21039
1.20929
1.20823
1.20732
1.20641
1.20566
1.20494
1.20441
1.20396
1.20367
1.20341
1.20328
1.20314
1.20308
1.20299
1.20296
1.20289
1.20287
1.20281
1.20279
1.20273
1.20271
1.20266
1.20263
1.20258
1.20256
1.20251
1.20249
1.20244
1.20241
1.20237
1.20234
1.2023
1.20228
1.20223
1.20221
1.20217
1.20214
1.2021
1.20208
1.20204
1.20201
1.20197
1.20195
1.20191
1.20189
1.20185
1.20183
1.20179
1.20177
1.20173
1.20171
1.20167
1.20165
1.20162
1.20159
1.20156
1.20153
1.2015
1.20148
1.20144
1.20142
1.20139
1.20136
1.20133
1.20131
1.20128
1.20125
1.20122
1.2012
1.20117
1.20115
1.20112
1.2011
1.20107
1.20105
1.20102
1.201
1.20099
1.23196
1.23119
1.22987
1.22781
1.22587
1.22406
1.22275
1.22145
1.22021
1.21875
1.21741
1.2161
1.21505
1.21406
1.21322
1.21234
1.21158
1.21082
1.21023
1.20971
1.20937
1.20907
1.2089
1.20874
1.20867
1.20858
1.20854
1.20847
1.20845
1.20839
1.20836
1.20831
1.20828
1.20823
1.20821
1.20815
1.20813
1.20808
1.20806
1.20801
1.20799
1.20794
1.20791
1.20787
1.20785
1.2078
1.20778
1.20773
1.20771
1.20767
1.20764
1.2076
1.20758
1.20754
1.20752
1.20748
1.20745
1.20742
1.20739
1.20736
1.20733
1.20729
1.20727
1.20724
1.20721
1.20718
1.20715
1.20712
1.20709
1.20706
1.20703
1.207
1.20698
1.20695
1.20692
1.20689
1.20686
1.20683
1.20681
1.20678
1.20675
1.20672
1.2067
1.20667
1.20665
1.20662
1.2066
1.20657
1.20655
1.20653
1.23265
1.23262
1.2322
1.2308
1.22935
1.2279
1.22695
1.22598
1.22504
1.2238
1.22262
1.22144
1.22053
1.21966
1.21894
1.21815
1.21744
1.21671
1.21613
1.2156
1.21524
1.21493
1.21476
1.21459
1.21451
1.21441
1.21437
1.2143
1.21427
1.21421
1.21419
1.21413
1.21411
1.21405
1.21403
1.21397
1.21395
1.2139
1.21387
1.21383
1.2138
1.21375
1.21373
1.21368
1.21366
1.21361
1.21359
1.21354
1.21352
1.21348
1.21345
1.21341
1.21339
1.21335
1.21332
1.21328
1.21326
1.21322
1.21319
1.21316
1.21313
1.21309
1.21307
1.21303
1.21301
1.21297
1.21295
1.21291
1.21289
1.21285
1.21283
1.21279
1.21277
1.21273
1.21271
1.21268
1.21265
1.21262
1.21259
1.21256
1.21254
1.21251
1.21248
1.21245
1.21243
1.2124
1.21238
1.21235
1.21232
1.2123
1.232
1.23221
1.23213
1.2312
1.2302
1.2292
1.2286
1.22794
1.22727
1.22629
1.22536
1.22441
1.22371
1.22302
1.22245
1.2218
1.22121
1.22058
1.22008
1.21962
1.21931
1.21903
1.21887
1.21872
1.21865
1.21855
1.21852
1.21845
1.21842
1.21836
1.21833
1.21827
1.21825
1.21819
1.21817
1.21812
1.21809
1.21804
1.21801
1.21796
1.21794
1.21789
1.21787
1.21782
1.21779
1.21775
1.21772
1.21768
1.21765
1.21761
1.21758
1.21754
1.21751
1.21747
1.21745
1.21741
1.21738
1.21734
1.21732
1.21728
1.21725
1.21721
1.21719
1.21715
1.21713
1.21709
1.21706
1.21703
1.217
1.21697
1.21694
1.21691
1.21688
1.21685
1.21682
1.21679
1.21676
1.21673
1.2167
1.21667
1.21664
1.21661
1.21658
1.21655
1.21653
1.2165
1.21647
1.21645
1.21642
1.21639
1.23263
1.23266
1.23265
1.23196
1.23137
1.23073
1.23042
1.22997
1.22952
1.22879
1.22816
1.22749
1.22702
1.22653
1.22613
1.22564
1.22521
1.22474
1.22438
1.22403
1.2238
1.22359
1.22347
1.22335
1.22329
1.2232
1.22317
1.2231
1.22307
1.22301
1.22298
1.22292
1.2229
1.22284
1.22282
1.22276
1.22273
1.22268
1.22266
1.2226
1.22258
1.22253
1.2225
1.22245
1.22243
1.22238
1.22235
1.22231
1.22228
1.22224
1.22221
1.22217
1.22214
1.2221
1.22207
1.22203
1.222
1.22196
1.22194
1.2219
1.22187
1.22183
1.22181
1.22177
1.22174
1.2217
1.22168
1.22164
1.22161
1.22158
1.22155
1.22152
1.22149
1.22145
1.22143
1.22139
1.22136
1.22133
1.2213
1.22127
1.22124
1.22121
1.22119
1.22115
1.22113
1.2211
1.22107
1.22105
1.22101
1.22098
1.23176
1.23166
1.23162
1.23118
1.23091
1.23057
1.23045
1.23016
1.22991
1.22947
1.22914
1.22875
1.22852
1.22822
1.228
1.22769
1.22745
1.22716
1.22697
1.22675
1.22663
1.22648
1.22642
1.22632
1.22628
1.2262
1.22617
1.22611
1.22608
1.22602
1.22599
1.22593
1.22591
1.22585
1.22582
1.22577
1.22574
1.22569
1.22566
1.22561
1.22559
1.22554
1.22551
1.22546
1.22544
1.22539
1.22536
1.22532
1.22529
1.22525
1.22522
1.22518
1.22515
1.22511
1.22508
1.22504
1.22501
1.22497
1.22495
1.22491
1.22488
1.22484
1.22482
1.22478
1.22475
1.22472
1.22469
1.22465
1.22463
1.22459
1.22456
1.22453
1.2245
1.22447
1.22444
1.22441
1.22438
1.22435
1.22432
1.22429
1.22426
1.22423
1.2242
1.22417
1.22414
1.22411
1.22409
1.22406
1.22403
1.224
1.23179
1.23163
1.23162
1.23137
1.2313
1.23111
1.23108
1.2309
1.23081
1.2306
1.23049
1.23031
1.23023
1.23007
1.22999
1.22983
1.22975
1.2296
1.22953
1.22941
1.22936
1.22926
1.22923
1.22915
1.22912
1.22905
1.22902
1.22896
1.22893
1.22887
1.22885
1.22879
1.22877
1.22871
1.22869
1.22863
1.22861
1.22855
1.22853
1.22848
1.22846
1.22841
1.22838
1.22834
1.22831
1.22827
1.22824
1.2282
1.22817
1.22813
1.2281
1.22806
1.22804
1.228
1.22797
1.22794
1.22791
1.22787
1.22785
1.22781
1.22779
1.22775
1.22773
1.22769
1.22767
1.22763
1.22761
1.22757
1.22755
1.22752
1.22749
1.22746
1.22743
1.2274
1.22738
1.22735
1.22732
1.22729
1.22727
1.22724
1.22721
1.22718
1.22716
1.22713
1.22711
1.22708
1.22705
1.22703
1.227
1.22697
1.22243
1.21596
1.21183
1.20873
1.20626
1.20418
1.20233
1.20053
1.19886
1.19729
1.19593
1.19467
1.19358
1.19255
1.19166
1.19083
1.19019
1.18964
1.18927
1.18896
1.18879
1.18863
1.18855
1.18846
1.18842
1.18835
1.18833
1.18827
1.18825
1.1882
1.18818
1.18812
1.1881
1.18805
1.18803
1.18798
1.18796
1.18791
1.18789
1.18784
1.18782
1.18778
1.18775
1.18771
1.18769
1.18765
1.18762
1.18758
1.18756
1.18752
1.18749
1.18746
1.18743
1.18739
1.18737
1.18733
1.18731
1.18727
1.18725
1.18721
1.18719
1.18716
1.18713
1.1871
1.18707
1.18704
1.18701
1.18698
1.18696
1.18693
1.1869
1.18687
1.18684
1.18681
1.18679
1.18676
1.18673
1.1867
1.18667
1.18664
1.18662
1.18659
1.18656
1.18653
1.1865
1.18647
1.18644
1.18642
1.18636
1.18632
1.2284
1.22372
1.22001
1.21692
1.21442
1.21231
1.21052
1.20878
1.20714
1.20552
1.2041
1.20279
1.20168
1.20061
1.1997
1.19882
1.19811
1.19748
1.19704
1.19666
1.19643
1.19623
1.19613
1.19602
1.19598
1.1959
1.19588
1.19582
1.19579
1.19574
1.19572
1.19566
1.19564
1.19559
1.19557
1.19552
1.1955
1.19545
1.19543
1.19538
1.19536
1.19531
1.19529
1.19525
1.19522
1.19518
1.19516
1.19512
1.19509
1.19505
1.19503
1.19499
1.19496
1.19493
1.1949
1.19487
1.19484
1.1948
1.19478
1.19474
1.19472
1.19469
1.19466
1.19463
1.1946
1.19457
1.19454
1.19451
1.19449
1.19445
1.19443
1.1944
1.19437
1.19434
1.19431
1.19428
1.19426
1.19423
1.1942
1.19417
1.19414
1.19412
1.19409
1.19406
1.19403
1.194
1.19397
1.19395
1.1939
1.19386
1.22985
1.22785
1.22531
1.2227
1.22035
1.21838
1.21677
1.21525
1.21376
1.21219
1.21076
1.20942
1.2083
1.20726
1.20635
1.20545
1.20468
1.20396
1.20342
1.20295
1.20265
1.2024
1.20226
1.20212
1.20206
1.20198
1.20195
1.20189
1.20187
1.20181
1.20179
1.20174
1.20172
1.20166
1.20164
1.20159
1.20157
1.20152
1.2015
1.20145
1.20143
1.20139
1.20136
1.20132
1.2013
1.20125
1.20123
1.20119
1.20116
1.20112
1.2011
1.20106
1.20104
1.201
1.20097
1.20094
1.20091
1.20087
1.20085
1.20081
1.20079
1.20076
1.20073
1.2007
1.20067
1.20064
1.20061
1.20058
1.20055
1.20052
1.2005
1.20047
1.20044
1.20041
1.20038
1.20035
1.20033
1.2003
1.20027
1.20024
1.20021
1.20018
1.20015
1.20012
1.20009
1.20007
1.20003
1.20001
1.19997
1.19993
1.23088
1.23058
1.22942
1.22758
1.22565
1.22394
1.22263
1.22142
1.2202
1.21879
1.21743
1.21613
1.21507
1.21409
1.21324
1.21237
1.21159
1.21083
1.21022
1.20968
1.20932
1.20902
1.20884
1.20868
1.20861
1.20851
1.20848
1.20841
1.20839
1.20833
1.20831
1.20826
1.20823
1.20818
1.20816
1.20811
1.20809
1.20804
1.20802
1.20797
1.20795
1.2079
1.20788
1.20783
1.20781
1.20777
1.20774
1.2077
1.20768
1.20764
1.20761
1.20757
1.20755
1.20751
1.20748
1.20745
1.20742
1.20738
1.20736
1.20732
1.2073
1.20726
1.20724
1.2072
1.20718
1.20715
1.20712
1.20709
1.20706
1.20703
1.207
1.20697
1.20694
1.20691
1.20689
1.20686
1.20683
1.2068
1.20677
1.20674
1.20671
1.20669
1.20666
1.20663
1.2066
1.20657
1.20654
1.20651
1.20647
1.20644
1.23018
1.23068
1.23035
1.22923
1.2278
1.22651
1.22558
1.22474
1.22383
1.22267
1.22149
1.22034
1.21941
1.21857
1.21784
1.21707
1.21635
1.21562
1.21502
1.21448
1.21411
1.21379
1.21361
1.21344
1.21336
1.21326
1.21323
1.21316
1.21313
1.21308
1.21306
1.213
1.21298
1.21293
1.21291
1.21285
1.21283
1.21278
1.21276
1.21271
1.21269
1.21264
1.21262
1.21257
1.21255
1.21251
1.21248
1.21244
1.21242
1.21237
1.21235
1.21231
1.21228
1.21224
1.21222
1.21218
1.21216
1.21212
1.21209
1.21206
1.21203
1.212
1.21197
1.21194
1.21191
1.21188
1.21185
1.21182
1.21179
1.21176
1.21173
1.2117
1.21167
1.21164
1.21161
1.21158
1.21155
1.21152
1.21149
1.21146
1.21144
1.21141
1.21138
1.21135
1.21132
1.21129
1.21125
1.21123
1.21119
1.21116
1.23088
1.23145
1.23144
1.23071
1.22973
1.22885
1.22828
1.22773
1.22709
1.22617
1.22523
1.2243
1.22358
1.22291
1.22234
1.2217
1.2211
1.22046
1.21994
1.21947
1.21914
1.21885
1.21869
1.21853
1.21846
1.21837
1.21833
1.21826
1.21824
1.21818
1.21816
1.2181
1.21808
1.21803
1.218
1.21795
1.21793
1.21788
1.21785
1.21781
1.21778
1.21773
1.21771
1.21766
1.21764
1.21759
1.21757
1.21753
1.2175
1.21746
1.21743
1.21739
1.21737
1.21733
1.2173
1.21726
1.21723
1.2172
1.21717
1.21713
1.21711
1.21707
1.21704
1.21701
1.21698
1.21695
1.21692
1.21688
1.21686
1.21682
1.2168
1.21676
1.21674
1.2167
1.21668
1.21664
1.21662
1.21658
1.21655
1.21652
1.21649
1.21646
1.21643
1.2164
1.21637
1.21634
1.21631
1.21628
1.21625
1.21621
1.23036
1.23083
1.2308
1.23032
1.2297
1.22921
1.22892
1.22859
1.22814
1.22747
1.22681
1.22616
1.22568
1.22521
1.2248
1.22432
1.22387
1.22339
1.22301
1.22265
1.22242
1.2222
1.22208
1.22195
1.22189
1.22181
1.22178
1.22171
1.22169
1.22163
1.22161
1.22155
1.22153
1.22147
1.22145
1.2214
1.22137
1.22132
1.2213
1.22125
1.22122
1.22118
1.22115
1.2211
1.22108
1.22103
1.22101
1.22096
1.22094
1.22089
1.22087
1.22082
1.2208
1.22076
1.22073
1.22069
1.22066
1.22062
1.2206
1.22056
1.22053
1.22049
1.22047
1.22043
1.2204
1.22037
1.22034
1.2203
1.22027
1.22024
1.22021
1.22018
1.22015
1.22011
1.22009
1.22005
1.22002
1.21999
1.21996
1.21993
1.2199
1.21987
1.21984
1.2198
1.21977
1.21974
1.2197
1.21967
1.21964
1.21961
1.23116
1.23131
1.23124
1.2309
1.23059
1.23033
1.23021
1.22998
1.2297
1.22926
1.22888
1.22849
1.22823
1.22793
1.22768
1.22736
1.22709
1.22677
1.22655
1.22632
1.22618
1.22603
1.22595
1.22585
1.22581
1.22574
1.22571
1.22565
1.22562
1.22556
1.22554
1.22548
1.22546
1.2254
1.22538
1.22532
1.2253
1.22525
1.22522
1.22517
1.22514
1.22509
1.22507
1.22502
1.22499
1.22495
1.22492
1.22488
1.22485
1.22481
1.22478
1.22474
1.22471
1.22467
1.22464
1.2246
1.22457
1.22453
1.22451
1.22447
1.22444
1.2244
1.22437
1.22434
1.22431
1.22427
1.22424
1.22421
1.22418
1.22415
1.22412
1.22408
1.22405
1.22402
1.22399
1.22396
1.22393
1.2239
1.22387
1.22383
1.2238
1.22377
1.22374
1.22371
1.22368
1.22365
1.22361
1.22358
1.22355
1.22352
1.23047
1.23048
1.23041
1.23028
1.23017
1.23006
1.23002
1.22989
1.22978
1.22959
1.22946
1.22929
1.2292
1.22905
1.22896
1.2288
1.2287
1.22855
1.22847
1.22835
1.22829
1.2282
1.22816
1.22809
1.22806
1.22799
1.22797
1.2279
1.22788
1.22782
1.2278
1.22774
1.22772
1.22766
1.22764
1.22758
1.22756
1.22751
1.22748
1.22743
1.22741
1.22736
1.22734
1.22729
1.22726
1.22722
1.22719
1.22715
1.22712
1.22708
1.22706
1.22702
1.22699
1.22695
1.22692
1.22689
1.22686
1.22682
1.2268
1.22676
1.22673
1.2267
1.22667
1.22664
1.22661
1.22658
1.22655
1.22652
1.22649
1.22646
1.22643
1.2264
1.22637
1.22634
1.22631
1.22628
1.22625
1.22622
1.2262
1.22617
1.22614
1.22611
1.22608
1.22605
1.22602
1.22599
1.22596
1.22593
1.2259
1.22587
1.22157
1.21379
1.20928
1.20606
1.20354
1.20141
1.19949
1.19765
1.19596
1.19439
1.19304
1.19178
1.19069
1.18965
1.18876
1.18796
1.18734
1.18681
1.18646
1.18617
1.18601
1.18586
1.18579
1.18571
1.18567
1.18561
1.18559
1.18553
1.18551
1.18546
1.18544
1.18539
1.18537
1.18532
1.1853
1.18525
1.18523
1.18518
1.18516
1.18512
1.1851
1.18505
1.18503
1.18499
1.18496
1.18492
1.1849
1.18486
1.18484
1.1848
1.18478
1.18474
1.18471
1.18468
1.18465
1.18462
1.18459
1.18456
1.18453
1.1845
1.18448
1.18444
1.18442
1.18438
1.18436
1.18433
1.1843
1.18427
1.18425
1.18422
1.18419
1.18416
1.18413
1.1841
1.18408
1.18405
1.18402
1.18399
1.18397
1.18394
1.18391
1.18388
1.18385
1.18383
1.1838
1.18377
1.18374
1.18372
1.18366
1.18361
1.229
1.22412
1.2201
1.21683
1.21421
1.21204
1.21019
1.2084
1.20671
1.20506
1.20361
1.20228
1.20114
1.20006
1.19913
1.19823
1.19751
1.19688
1.19642
1.19605
1.19582
1.19562
1.19552
1.19541
1.19536
1.19529
1.19527
1.1952
1.19518
1.19513
1.19511
1.19506
1.19504
1.19498
1.19496
1.19491
1.19489
1.19484
1.19482
1.19477
1.19475
1.19471
1.19468
1.19464
1.19462
1.19457
1.19455
1.19451
1.19448
1.19444
1.19442
1.19438
1.19436
1.19432
1.19429
1.19426
1.19423
1.19419
1.19417
1.19413
1.19411
1.19408
1.19405
1.19402
1.19399
1.19396
1.19393
1.1939
1.19387
1.19384
1.19382
1.19378
1.19376
1.19373
1.1937
1.19367
1.19364
1.19361
1.19359
1.19356
1.19353
1.1935
1.19347
1.19344
1.19341
1.19339
1.19336
1.19333
1.19329
1.19324
1.2305
1.22897
1.22656
1.22392
1.22149
1.21944
1.21779
1.21623
1.2147
1.2131
1.21161
1.21023
1.20907
1.208
1.20706
1.20612
1.20532
1.20457
1.204
1.2035
1.20318
1.20291
1.20276
1.20262
1.20256
1.20247
1.20244
1.20238
1.20236
1.2023
1.20228
1.20223
1.20221
1.20216
1.20214
1.20209
1.20207
1.20202
1.202
1.20195
1.20193
1.20188
1.20186
1.20181
1.20179
1.20175
1.20172
1.20168
1.20166
1.20162
1.20159
1.20155
1.20153
1.20149
1.20147
1.20143
1.20141
1.20137
1.20135
1.20131
1.20128
1.20125
1.20122
1.20119
1.20117
1.20113
1.20111
1.20107
1.20105
1.20102
1.20099
1.20096
1.20093
1.2009
1.20088
1.20084
1.20082
1.20079
1.20076
1.20073
1.2007
1.20067
1.20065
1.20062
1.20059
1.20056
1.20053
1.2005
1.20046
1.20043
1.23062
1.23072
1.22986
1.22819
1.22628
1.22456
1.22325
1.22206
1.22085
1.21944
1.21803
1.21668
1.21557
1.21456
1.21369
1.21279
1.21198
1.21118
1.21052
1.20995
1.20955
1.20921
1.20902
1.20885
1.20876
1.20867
1.20863
1.20856
1.20854
1.20848
1.20846
1.20841
1.20839
1.20834
1.20832
1.20827
1.20824
1.2082
1.20817
1.20813
1.2081
1.20806
1.20804
1.20799
1.20797
1.20793
1.2079
1.20786
1.20784
1.2078
1.20777
1.20773
1.20771
1.20767
1.20764
1.20761
1.20758
1.20755
1.20752
1.20749
1.20746
1.20743
1.2074
1.20737
1.20734
1.20731
1.20728
1.20725
1.20722
1.20719
1.20716
1.20713
1.20711
1.20708
1.20705
1.20702
1.20699
1.20696
1.20693
1.2069
1.20688
1.20685
1.20682
1.20679
1.20676
1.20673
1.2067
1.20668
1.20664
1.20661
1.23036
1.231
1.23095
1.23001
1.22867
1.2274
1.22649
1.22571
1.22486
1.22373
1.22252
1.22132
1.22035
1.21948
1.21874
1.21796
1.21721
1.21644
1.2158
1.21521
1.21479
1.21444
1.21423
1.21405
1.21396
1.21386
1.21382
1.21375
1.21373
1.21367
1.21365
1.21359
1.21357
1.21352
1.2135
1.21345
1.21343
1.21338
1.21336
1.21331
1.21329
1.21324
1.21322
1.21317
1.21315
1.2131
1.21308
1.21304
1.21301
1.21297
1.21295
1.21291
1.21288
1.21284
1.21282
1.21278
1.21276
1.21272
1.21269
1.21266
1.21263
1.2126
1.21257
1.21254
1.21251
1.21248
1.21245
1.21242
1.21239
1.21236
1.21233
1.2123
1.21227
1.21224
1.21222
1.21219
1.21216
1.21213
1.2121
1.21207
1.21204
1.21201
1.21198
1.21195
1.21192
1.21189
1.21186
1.21183
1.2118
1.21177
1.23052
1.23117
1.23129
1.23069
1.22977
1.22894
1.22843
1.22797
1.2274
1.22652
1.22557
1.22461
1.22387
1.22319
1.22262
1.22197
1.22135
1.22069
1.22013
1.21962
1.21926
1.21894
1.21876
1.21859
1.21851
1.21842
1.21838
1.21831
1.21829
1.21823
1.21821
1.21815
1.21813
1.21808
1.21806
1.218
1.21798
1.21793
1.21791
1.21786
1.21784
1.21779
1.21777
1.21772
1.2177
1.21765
1.21763
1.21758
1.21756
1.21752
1.21749
1.21745
1.21742
1.21738
1.21736
1.21732
1.21729
1.21726
1.21723
1.21719
1.21717
1.21713
1.21711
1.21707
1.21704
1.21701
1.21698
1.21695
1.21692
1.21689
1.21686
1.21683
1.2168
1.21677
1.21674
1.21671
1.21668
1.21665
1.21662
1.21659
1.21656
1.21653
1.2165
1.21647
1.21644
1.21641
1.21638
1.21635
1.21632
1.21629
1.2306
1.23108
1.2311
1.23064
1.23007
1.22962
1.2294
1.22913
1.22872
1.22806
1.22739
1.22673
1.22624
1.22577
1.22536
1.22487
1.22441
1.2239
1.2235
1.22311
1.22286
1.22262
1.22249
1.22236
1.2223
1.22222
1.22218
1.22212
1.2221
1.22204
1.22201
1.22196
1.22194
1.22188
1.22186
1.22181
1.22178
1.22173
1.22171
1.22166
1.22163
1.22159
1.22156
1.22151
1.22149
1.22144
1.22142
1.22137
1.22135
1.2213
1.22128
1.22124
1.22121
1.22117
1.22114
1.2211
1.22108
1.22104
1.22101
1.22097
1.22094
1.22091
1.22088
1.22084
1.22082
1.22078
1.22075
1.22072
1.22069
1.22065
1.22063
1.22059
1.22056
1.22053
1.2205
1.22047
1.22044
1.22041
1.22038
1.22034
1.22031
1.22028
1.22025
1.22022
1.22019
1.22016
1.22013
1.22009
1.22006
1.22003
1.23096
1.2311
1.231
1.23068
1.23039
1.23019
1.23011
1.22991
1.22962
1.22918
1.2288
1.22841
1.22815
1.22785
1.22759
1.22726
1.22697
1.22665
1.22641
1.22616
1.22602
1.22586
1.22579
1.22569
1.22565
1.22557
1.22555
1.22548
1.22546
1.2254
1.22537
1.22532
1.22529
1.22524
1.22521
1.22516
1.22514
1.22508
1.22506
1.22501
1.22498
1.22493
1.22491
1.22486
1.22483
1.22479
1.22476
1.22471
1.22469
1.22464
1.22462
1.22457
1.22455
1.2245
1.22448
1.22444
1.22441
1.22437
1.22434
1.2243
1.22427
1.22423
1.22421
1.22417
1.22414
1.2241
1.22408
1.22404
1.22401
1.22397
1.22395
1.22391
1.22388
1.22385
1.22382
1.22378
1.22375
1.22372
1.22369
1.22366
1.22363
1.22359
1.22356
1.22353
1.2235
1.22347
1.22343
1.2234
1.22337
1.22334
1.23087
1.23086
1.23077
1.23063
1.23054
1.23045
1.23041
1.23029
1.23016
1.22997
1.22983
1.22967
1.22957
1.22942
1.22932
1.22916
1.22905
1.2289
1.22881
1.22869
1.22863
1.22854
1.2285
1.22842
1.2284
1.22833
1.22831
1.22824
1.22822
1.22816
1.22814
1.22808
1.22805
1.228
1.22797
1.22792
1.22789
1.22784
1.22782
1.22777
1.22774
1.22769
1.22767
1.22762
1.22759
1.22755
1.22752
1.22748
1.22745
1.22741
1.22738
1.22734
1.22731
1.22727
1.22725
1.22721
1.22718
1.22714
1.22711
1.22708
1.22705
1.22701
1.22698
1.22695
1.22692
1.22689
1.22686
1.22682
1.2268
1.22676
1.22673
1.2267
1.22667
1.22664
1.22661
1.22658
1.22655
1.22652
1.22649
1.22646
1.22643
1.2264
1.22637
1.22634
1.22631
1.22628
1.22625
1.22622
1.22619
1.22616
1.22243
1.21596
1.21183
1.20873
1.20626
1.20418
1.20233
1.20053
1.19886
1.19729
1.19593
1.19467
1.19358
1.19255
1.19166
1.19083
1.19019
1.18964
1.18927
1.18896
1.18879
1.18863
1.18855
1.18846
1.18842
1.18835
1.18833
1.18827
1.18825
1.1882
1.18818
1.18812
1.1881
1.18805
1.18803
1.18798
1.18796
1.18791
1.18789
1.18784
1.18782
1.18778
1.18775
1.18771
1.18769
1.18765
1.18762
1.18758
1.18756
1.18752
1.18749
1.18746
1.18743
1.18739
1.18737
1.18733
1.18731
1.18727
1.18725
1.18721
1.18719
1.18716
1.18713
1.1871
1.18707
1.18704
1.18701
1.18698
1.18696
1.18693
1.1869
1.18687
1.18684
1.18681
1.18679
1.18676
1.18673
1.1867
1.18667
1.18664
1.18662
1.18659
1.18656
1.18653
1.1865
1.18647
1.18644
1.18642
1.18636
1.18632
1.2284
1.22372
1.22001
1.21692
1.21442
1.21231
1.21052
1.20878
1.20714
1.20552
1.2041
1.20279
1.20168
1.20061
1.1997
1.19882
1.19811
1.19748
1.19704
1.19666
1.19643
1.19623
1.19613
1.19602
1.19598
1.1959
1.19588
1.19582
1.19579
1.19574
1.19572
1.19566
1.19564
1.19559
1.19557
1.19552
1.1955
1.19545
1.19543
1.19538
1.19536
1.19531
1.19529
1.19525
1.19522
1.19518
1.19516
1.19512
1.19509
1.19505
1.19503
1.19499
1.19496
1.19493
1.1949
1.19487
1.19484
1.1948
1.19478
1.19474
1.19472
1.19469
1.19466
1.19463
1.1946
1.19457
1.19454
1.19451
1.19449
1.19445
1.19443
1.1944
1.19437
1.19434
1.19431
1.19428
1.19426
1.19423
1.1942
1.19417
1.19414
1.19412
1.19409
1.19406
1.19403
1.194
1.19397
1.19395
1.1939
1.19386
1.22985
1.22785
1.22531
1.2227
1.22035
1.21838
1.21677
1.21525
1.21376
1.21219
1.21076
1.20942
1.2083
1.20726
1.20635
1.20545
1.20468
1.20396
1.20342
1.20295
1.20265
1.2024
1.20226
1.20212
1.20206
1.20198
1.20195
1.20189
1.20187
1.20181
1.20179
1.20174
1.20172
1.20166
1.20164
1.20159
1.20157
1.20152
1.2015
1.20145
1.20143
1.20139
1.20136
1.20132
1.2013
1.20125
1.20123
1.20119
1.20116
1.20112
1.2011
1.20106
1.20104
1.201
1.20097
1.20094
1.20091
1.20087
1.20085
1.20081
1.20079
1.20076
1.20073
1.2007
1.20067
1.20064
1.20061
1.20058
1.20055
1.20052
1.2005
1.20047
1.20044
1.20041
1.20038
1.20035
1.20033
1.2003
1.20027
1.20024
1.20021
1.20018
1.20015
1.20012
1.20009
1.20007
1.20003
1.20001
1.19997
1.19993
1.23088
1.23058
1.22942
1.22758
1.22565
1.22394
1.22263
1.22142
1.2202
1.21879
1.21743
1.21613
1.21507
1.21409
1.21324
1.21237
1.21159
1.21083
1.21022
1.20968
1.20932
1.20902
1.20884
1.20868
1.20861
1.20851
1.20848
1.20841
1.20839
1.20833
1.20831
1.20826
1.20823
1.20818
1.20816
1.20811
1.20809
1.20804
1.20802
1.20797
1.20795
1.2079
1.20788
1.20783
1.20781
1.20777
1.20774
1.2077
1.20768
1.20764
1.20761
1.20757
1.20755
1.20751
1.20748
1.20745
1.20742
1.20738
1.20736
1.20732
1.2073
1.20726
1.20724
1.2072
1.20718
1.20715
1.20712
1.20709
1.20706
1.20703
1.207
1.20697
1.20694
1.20691
1.20689
1.20686
1.20683
1.2068
1.20677
1.20674
1.20671
1.20669
1.20666
1.20663
1.2066
1.20657
1.20654
1.20651
1.20647
1.20644
1.23018
1.23068
1.23035
1.22923
1.2278
1.22651
1.22558
1.22474
1.22383
1.22267
1.22149
1.22034
1.21941
1.21857
1.21784
1.21707
1.21635
1.21562
1.21502
1.21448
1.21411
1.21379
1.21361