/*--------------------------------*- C++ -*----------------------------------*\
  =========                 |
  \\      /  F ield         | OpenFOAM: The Open Source CFD Toolbox
   \\    /   O peration     | Website:  https://openfoam.org
    \\  /    A nd           | Version:  7
     \\/     M anipulation  |
\*---------------------------------------------------------------------------*/
FoamFile
{
    version     2.0;
    format      ascii;
    class       volVectorField;
    location    "0.1875";
    object      U;
}
// * * * * * * * * * * * * * * * * * * * * * * * * * * * * * * * * * * * * * //

dimensions      [0 1 -1 0 0 0 0];

internalField   nonuniform List<vector> 
1440
(
(4.92867 0.0178169 0)
(4.88988 0.0623942 0)
(4.81066 0.101158 0)
(4.69428 0.130889 0)
(4.55031 0.15178 0)
(4.38803 0.16405 0)
(4.21463 0.168452 0)
(4.03543 0.166302 0)
(3.85508 0.159398 0)
(3.67694 0.149156 0)
(3.50459 0.137083 0)
(3.33957 0.12446 0)
(3.18356 0.111458 0)
(3.03743 0.0984847 0)
(2.90145 0.0859327 0)
(2.77574 0.0740956 0)
(2.66021 0.0631572 0)
(2.55464 0.0531974 0)
(2.45861 0.0442257 0)
(2.37163 0.0362176 0)
(2.29311 0.0291271 0)
(2.22247 0.0228972 0)
(2.15909 0.0174638 0)
(2.10235 0.0127607 0)
(2.05164 0.00872027 0)
(2.00639 0.00527619 0)
(1.96604 0.00236486 0)
(1.93007 -7.34918e-05 0)
(1.898 -0.00209452 0)
(1.86939 -0.00374958 0)
(1.84384 -0.00508565 0)
(1.82098 -0.00614536 0)
(1.80049 -0.00696713 0)
(1.78207 -0.00758539 0)
(1.76546 -0.00803094 0)
(1.75043 -0.00833117 0)
(1.73678 -0.00851036 0)
(1.72433 -0.00858987 0)
(1.71293 -0.00858818 0)
(1.70244 -0.00852068 0)
(1.69275 -0.00839943 0)
(1.68375 -0.00823318 0)
(1.67535 -0.0080297 0)
(1.66748 -0.00779765 0)
(1.66006 -0.00754572 0)
(1.65304 -0.00728092 0)
(1.64636 -0.00700806 0)
(1.63999 -0.00673034 0)
(1.63388 -0.00644998 0)
(1.62801 -0.00616875 0)
(1.62235 -0.00588825 0)
(1.61688 -0.00560993 0)
(1.61157 -0.00533513 0)
(1.60641 -0.00506508 0)
(1.60139 -0.00480081 0)
(1.5965 -0.00454313 0)
(1.59172 -0.0042926 0)
(1.58705 -0.00404962 0)
(1.58248 -0.0038145 0)
(1.578 -0.00358751 0)
(1.5736 -0.00336884 0)
(1.56929 -0.00315862 0)
(1.56505 -0.00295686 0)
(1.56089 -0.00276351 0)
(1.55679 -0.00257848 0)
(1.55277 -0.00240169 0)
(1.54881 -0.00223302 0)
(1.54492 -0.00207226 0)
(1.54109 -0.00191913 0)
(1.53731 -0.00177333 0)
(1.5336 -0.00163461 0)
(1.52995 -0.00150287 0)
(1.52635 -0.00137799 0)
(1.52281 -0.00125981 0)
(1.51932 -0.00114792 0)
(1.51589 -0.00104185 0)
(1.5125 -0.00094108 0)
(1.50917 -0.000845393 0)
(1.50589 -0.000754827 0)
(1.50266 -0.000669667 0)
(1.49948 -0.000590117 0)
(1.49634 -0.000516125 0)
(1.49325 -0.000447145 0)
(1.49021 -0.000382272 0)
(1.48721 -0.000320321 0)
(1.48426 -0.000260223 0)
(1.48134 -0.000201119 0)
(1.47846 -0.000142654 0)
(1.47563 -8.48059e-05 0)
(1.47282 -2.79882e-05 0)
(1.47005 2.7315e-05 0)
(1.46732 8.04674e-05 0)
(1.46462 0.000131047 0)
(1.46194 0.000178652 0)
(1.45931 0.000223184 0)
(1.4567 0.000264576 0)
(1.45412 0.000302987 0)
(1.45158 0.000338591 0)
(1.44907 0.000371598 0)
(1.44658 0.000402357 0)
(1.44413 0.000430878 0)
(1.44171 0.000457799 0)
(1.43933 0.000482559 0)
(1.43697 0.000506547 0)
(1.43464 0.000527869 0)
(1.43234 0.000549829 0)
(1.43008 0.000567429 0)
(1.42783 0.000588612 0)
(1.42564 0.000601096 0)
(1.42344 0.000623801 0)
(1.42132 0.000627484 0)
(1.41916 0.000656499 0)
(1.41714 0.000642867 0)
(1.41498 0.000688236 0)
(1.41311 0.000639455 0)
(1.41089 0.000722118 0)
(1.40933 0.000607322 0)
(1.40684 0.000778727 0)
(1.40595 0.000568694 0)
(1.40252 0.000973388 0)
(4.93893 0.0228802 0)
(4.95487 0.0622071 0)
(4.98278 0.0946006 0)
(5.01797 0.122128 0)
(5.05573 0.145934 0)
(5.09222 0.165798 0)
(5.12457 0.18131 0)
(5.15067 0.192499 0)
(5.16939 0.199802 0)
(5.18028 0.203735 0)
(5.1836 0.204746 0)
(5.17984 0.203289 0)
(5.16968 0.199645 0)
(5.15403 0.194109 0)
(5.13383 0.187068 0)
(5.10995 0.178925 0)
(5.08317 0.170039 0)
(5.05415 0.160699 0)
(5.0235 0.151147 0)
(4.99172 0.141578 0)
(4.95925 0.132156 0)
(4.92642 0.123016 0)
(4.89353 0.11425 0)
(4.8608 0.10593 0)
(4.82839 0.0981024 0)
(4.79645 0.0907925 0)
(4.76506 0.0840094 0)
(4.73429 0.0777496 0)
(4.70418 0.0719993 0)
(4.67477 0.0667373 0)
(4.64607 0.0619373 0)
(4.61808 0.0575696 0)
(4.59079 0.0536029 0)
(4.56419 0.0500052 0)
(4.53828 0.0467454 0)
(4.51303 0.043793 0)
(4.48842 0.0411195 0)
(4.46445 0.0386979 0)
(4.44109 0.0365029 0)
(4.41833 0.0345111 0)
(4.39615 0.0327001 0)
(4.37453 0.0310515 0)
(4.35346 0.0295509 0)
(4.33292 0.0281841 0)
(4.31288 0.0269375 0)
(4.29335 0.0257976 0)
(4.27429 0.0247522 0)
(4.2557 0.02379 0)
(4.23756 0.0229005 0)
(4.21987 0.0220739 0)
(4.20261 0.0213023 0)
(4.18576 0.0205795 0)
(4.16933 0.0199007 0)
(4.15328 0.0192616 0)
(4.13763 0.0186587 0)
(4.12235 0.0180885 0)
(4.10744 0.0175481 0)
(4.09289 0.0170349 0)
(4.07868 0.0165465 0)
(4.06481 0.0160807 0)
(4.05127 0.0156358 0)
(4.03805 0.0152102 0)
(4.02514 0.0148026 0)
(4.01254 0.0144117 0)
(4.00023 0.0140364 0)
(3.98822 0.0136758 0)
(3.97648 0.013329 0)
(3.96501 0.0129952 0)
(3.95381 0.0126737 0)
(3.94287 0.012364 0)
(3.93218 0.0120654 0)
(3.92174 0.0117775 0)
(3.91153 0.0114997 0)
(3.90155 0.0112315 0)
(3.89179 0.0109728 0)
(3.88226 0.010723 0)
(3.87293 0.010482 0)
(3.86381 0.0102493 0)
(3.85489 0.0100249 0)
(3.84616 0.0098082 0)
(3.83762 0.00959903 0)
(3.82926 0.00939706 0)
(3.82107 0.0092022 0)
(3.81306 0.00901438 0)
(3.80521 0.00883377 0)
(3.79752 0.00866048 0)
(3.78998 0.00849474 0)
(3.78259 0.00833652 0)
(3.77534 0.00818581 0)
(3.76823 0.00804227 0)
(3.76126 0.00790557 0)
(3.75441 0.00777515 0)
(3.74768 0.00765051 0)
(3.74107 0.00753107 0)
(3.73458 0.00741633 0)
(3.7282 0.00730588 0)
(3.72192 0.00719927 0)
(3.71574 0.00709634 0)
(3.70967 0.00699667 0)
(3.70369 0.00690042 0)
(3.6978 0.00680696 0)
(3.69201 0.00671696 0)
(3.68631 0.00662917 0)
(3.68069 0.00654524 0)
(3.67515 0.00646252 0)
(3.6697 0.00638465 0)
(3.66433 0.00630598 0)
(3.65902 0.00623443 0)
(3.65382 0.00615787 0)
(3.64864 0.00609336 0)
(3.64362 0.00601504 0)
(3.63854 0.00595922 0)
(3.63374 0.00587142 0)
(3.62867 0.00582717 0)
(3.62422 0.00571515 0)
(3.61897 0.00568605 0)
(3.61519 0.00552693 0)
(3.6093 0.00551903 0)
(3.60702 0.00531303 0)
(3.59932 0.00536837 0)
(4.9384 0.0122409 0)
(4.9467 0.0360449 0)
(4.9634 0.0582529 0)
(4.98787 0.0783553 0)
(5.01887 0.0962008 0)
(5.05524 0.111609 0)
(5.09596 0.124321 0)
(5.13989 0.134154 0)
(5.18575 0.141123 0)
(5.23227 0.145364 0)
(5.27832 0.147095 0)
(5.32302 0.146574 0)
(5.36575 0.144177 0)
(5.4061 0.140298 0)
(5.44381 0.135298 0)
(5.4787 0.129496 0)
(5.51068 0.123168 0)
(5.53974 0.116547 0)
(5.56592 0.109823 0)
(5.58935 0.103153 0)
(5.61018 0.0966616 0)
(5.62856 0.0904433 0)
(5.64469 0.0845666 0)
(5.65875 0.079076 0)
(5.67091 0.0739957 0)
(5.68134 0.0693338 0)
(5.69022 0.065086 0)
(5.69771 0.0612389 0)
(5.70393 0.0577724 0)
(5.70903 0.054662 0)
(5.71312 0.0518808 0)
(5.7163 0.0494007 0)
(5.71868 0.0471936 0)
(5.72034 0.045232 0)
(5.72134 0.0434902 0)
(5.72177 0.0419438 0)
(5.72167 0.0405708 0)
(5.7211 0.0393507 0)
(5.7201 0.0382657 0)
(5.71872 0.0372988 0)
(5.71698 0.0364349 0)
(5.71493 0.0356572 0)
(5.71259 0.0349486 0)
(5.70998 0.0342954 0)
(5.70712 0.033688 0)
(5.70404 0.0331197 0)
(5.70074 0.0325849 0)
(5.69724 0.0320788 0)
(5.69356 0.0315971 0)
(5.6897 0.0311342 0)
(5.68569 0.0306856 0)
(5.68153 0.030248 0)
(5.67723 0.0298194 0)
(5.67281 0.0293984 0)
(5.66827 0.0289841 0)
(5.66362 0.0285759 0)
(5.65886 0.0281736 0)
(5.65401 0.0277766 0)
(5.64907 0.0273846 0)
(5.64405 0.0269969 0)
(5.63895 0.0266134 0)
(5.63378 0.0262338 0)
(5.62854 0.025858 0)
(5.62324 0.0254861 0)
(5.61789 0.0251181 0)
(5.61248 0.0247541 0)
(5.60703 0.0243941 0)
(5.60153 0.0240383 0)
(5.596 0.0236868 0)
(5.59043 0.0233397 0)
(5.58483 0.0229973 0)
(5.5792 0.0226597 0)
(5.57355 0.0223268 0)
(5.56788 0.0219989 0)
(5.56219 0.021676 0)
(5.55649 0.0213584 0)
(5.55077 0.0210461 0)
(5.54505 0.0207394 0)
(5.53932 0.0204382 0)
(5.53358 0.0201424 0)
(5.52785 0.0198521 0)
(5.52212 0.0195672 0)
(5.51638 0.0192881 0)
(5.51066 0.019015 0)
(5.50493 0.0187485 0)
(5.49922 0.0184889 0)
(5.49352 0.0182365 0)
(5.48783 0.0179914 0)
(5.48215 0.0177535 0)
(5.47648 0.0175223 0)
(5.47083 0.0172977 0)
(5.4652 0.0170788 0)
(5.45959 0.0168654 0)
(5.454 0.0166566 0)
(5.44842 0.0164524 0)
(5.44287 0.016252 0)
(5.43734 0.0160556 0)
(5.43183 0.0158624 0)
(5.42635 0.0156729 0)
(5.42089 0.0154862 0)
(5.41546 0.0153033 0)
(5.41005 0.0151227 0)
(5.40467 0.0149462 0)
(5.39932 0.0147711 0)
(5.394 0.0146011 0)
(5.3887 0.0144306 0)
(5.38344 0.0142673 0)
(5.3782 0.0140997 0)
(5.37302 0.0139439 0)
(5.36782 0.0137758 0)
(5.36273 0.0136295 0)
(5.35755 0.0134532 0)
(5.35262 0.0133211 0)
(5.34736 0.0131202 0)
(5.34273 0.0130129 0)
(5.33719 0.0127523 0)
(5.3332 0.0126919 0)
(5.32689 0.0122938 0)
(5.32444 0.0123145 0)
(5.31616 0.0115988 0)
(4.93839 0.00910768 0)
(4.94596 0.026986 0)
(4.96081 0.0437395 0)
(4.98241 0.0587057 0)
(5.00977 0.0716066 0)
(5.0419 0.0824088 0)
(5.07793 0.0911176 0)
(5.11704 0.0977337 0)
(5.15842 0.102326 0)
(5.20127 0.105072 0)
(5.24487 0.106236 0)
(5.28862 0.10612 0)
(5.33201 0.105022 0)
(5.37465 0.103186 0)
(5.4162 0.10078 0)
(5.45636 0.0979275 0)
(5.4949 0.094735 0)
(5.53166 0.0913006 0)
(5.56654 0.0877106 0)
(5.59951 0.0840394 0)
(5.63056 0.0803499 0)
(5.65975 0.076696 0)
(5.68713 0.0731234 0)
(5.7128 0.06967 0)
(5.73684 0.0663662 0)
(5.75936 0.0632341 0)
(5.78048 0.060289 0)
(5.80031 0.0575385 0)
(5.81896 0.0549853 0)
(5.83653 0.0526267 0)
(5.85312 0.050457 0)
(5.86883 0.0484675 0)
(5.88373 0.046648 0)
(5.89792 0.0449867 0)
(5.91146 0.0434716 0)
(5.9244 0.0420902 0)
(5.93682 0.0408305 0)
(5.94874 0.0396806 0)
(5.96023 0.0386298 0)
(5.97132 0.0376675 0)
(5.98203 0.0367846 0)
(5.9924 0.03597 0)
(6.00245 0.0352122 0)
(6.01219 0.0345018 0)
(6.02167 0.0338326 0)
(6.03089 0.0332002 0)
(6.03987 0.0326012 0)
(6.04862 0.0320328 0)
(6.05715 0.0314932 0)
(6.06548 0.0309823 0)
(6.07359 0.0304996 0)
(6.08152 0.0300433 0)
(6.08926 0.029611 0)
(6.09682 0.0291997 0)
(6.1042 0.0288072 0)
(6.11142 0.0284316 0)
(6.11847 0.0280719 0)
(6.12535 0.0277269 0)
(6.13207 0.0273956 0)
(6.13864 0.0270767 0)
(6.14505 0.0267692 0)
(6.15131 0.026472 0)
(6.15743 0.0261844 0)
(6.16339 0.0259054 0)
(6.16921 0.0256346 0)
(6.17489 0.025371 0)
(6.18044 0.0251144 0)
(6.18584 0.0248641 0)
(6.19111 0.02462 0)
(6.19624 0.0243814 0)
(6.20125 0.0241485 0)
(6.20612 0.0239206 0)
(6.21087 0.0236978 0)
(6.2155 0.0234795 0)
(6.22 0.0232661 0)
(6.22437 0.0230569 0)
(6.22863 0.0228523 0)
(6.23278 0.0226518 0)
(6.2368 0.0224556 0)
(6.24071 0.0222633 0)
(6.24451 0.0220752 0)
(6.2482 0.021891 0)
(6.25179 0.021711 0)
(6.25526 0.0215351 0)
(6.25863 0.0213637 0)
(6.26189 0.0211967 0)
(6.26506 0.0210344 0)
(6.26812 0.0208766 0)
(6.27109 0.0207234 0)
(6.27396 0.0205743 0)
(6.27674 0.0204294 0)
(6.27942 0.0202879 0)
(6.28201 0.0201499 0)
(6.28452 0.0200144 0)
(6.28694 0.0198818 0)
(6.28927 0.0197509 0)
(6.29152 0.0196223 0)
(6.29368 0.0194946 0)
(6.29577 0.019369 0)
(6.29777 0.0192436 0)
(6.2997 0.0191205 0)
(6.30155 0.0189966 0)
(6.30332 0.0188759 0)
(6.30502 0.0187526 0)
(6.30665 0.0186346 0)
(6.3082 0.0185106 0)
(6.30968 0.0183965 0)
(6.3111 0.0182688 0)
(6.31245 0.0181611 0)
(6.31374 0.0180241 0)
(6.31495 0.0179284 0)
(6.31613 0.0177702 0)
(6.31719 0.0176977 0)
(6.31827 0.0174949 0)
(6.31916 0.0174669 0)
(6.32019 0.0171724 0)
(6.32087 0.0172242 0)
(6.32191 0.0167438 0)
(6.32226 0.0169053 0)
(6.32346 0.0160315 0)
(4.93834 0.00531344 0)
(4.94516 0.0156292 0)
(4.95874 0.0252081 0)
(4.97875 0.0337436 0)
(5.00445 0.0411173 0)
(5.03491 0.0473305 0)
(5.06924 0.0524029 0)
(5.10661 0.0563399 0)
(5.14624 0.0591676 0)
(5.1874 0.0609684 0)
(5.22941 0.061872 0)
(5.27169 0.0620181 0)
(5.31371 0.0615289 0)
(5.35507 0.0605016 0)
(5.3954 0.0590094 0)
(5.43444 0.0571171 0)
(5.472 0.0548965 0)
(5.50794 0.0524321 0)
(5.54219 0.0498113 0)
(5.57471 0.047118 0)
(5.60551 0.0444231 0)
(5.63463 0.0417806 0)
(5.66212 0.0392291 0)
(5.68807 0.0367963 0)
(5.71256 0.0345016 0)
(5.73568 0.0323577 0)
(5.75753 0.0303717 0)
(5.77821 0.0285459 0)
(5.7978 0.0268786 0)
(5.81641 0.0253647 0)
(5.83412 0.0239972 0)
(5.85103 0.0227671 0)
(5.8672 0.0216646 0)
(5.88272 0.0206791 0)
(5.89764 0.0197999 0)
(5.91203 0.0190165 0)
(5.92595 0.0183184 0)
(5.93944 0.017696 0)
(5.95254 0.0171398 0)
(5.96529 0.0166417 0)
(5.97773 0.0161935 0)
(5.98988 0.0157907 0)
(6.00177 0.0154307 0)
(6.01343 0.0151107 0)
(6.02487 0.0148264 0)
(6.03612 0.0145734 0)
(6.04718 0.0143469 0)
(6.05808 0.0141434 0)
(6.06882 0.0139602 0)
(6.07941 0.0137968 0)
(6.08987 0.0136525 0)
(6.1002 0.0135258 0)
(6.11039 0.0134141 0)
(6.12047 0.0133152 0)
(6.13042 0.0132266 0)
(6.14027 0.013146 0)
(6.15 0.0130709 0)
(6.15963 0.0129996 0)
(6.16916 0.0129313 0)
(6.17859 0.0128653 0)
(6.18792 0.0128012 0)
(6.19715 0.0127387 0)
(6.20628 0.0126774 0)
(6.21533 0.0126172 0)
(6.22428 0.0125578 0)
(6.23315 0.0124992 0)
(6.24192 0.0124412 0)
(6.25061 0.0123838 0)
(6.25922 0.0123269 0)
(6.26773 0.0122706 0)
(6.27617 0.0122149 0)
(6.28452 0.0121597 0)
(6.2928 0.0121052 0)
(6.30099 0.0120512 0)
(6.3091 0.0119979 0)
(6.31714 0.0119452 0)
(6.3251 0.0118934 0)
(6.33298 0.0118423 0)
(6.34078 0.0117922 0)
(6.34852 0.0117432 0)
(6.35618 0.0116952 0)
(6.36376 0.0116485 0)
(6.37128 0.0116032 0)
(6.37872 0.0115595 0)
(6.38609 0.0115177 0)
(6.3934 0.0114779 0)
(6.40063 0.0114404 0)
(6.4078 0.0114053 0)
(6.4149 0.0113726 0)
(6.42194 0.0113422 0)
(6.42892 0.011314 0)
(6.43583 0.0112876 0)
(6.44268 0.0112629 0)
(6.44947 0.0112394 0)
(6.4562 0.0112169 0)
(6.46286 0.0111951 0)
(6.46947 0.0111738 0)
(6.47602 0.0111527 0)
(6.48252 0.0111319 0)
(6.48895 0.0111107 0)
(6.49533 0.0110901 0)
(6.50166 0.0110684 0)
(6.50792 0.0110479 0)
(6.51414 0.0110252 0)
(6.52029 0.0110052 0)
(6.5264 0.0109806 0)
(6.53244 0.0109619 0)
(6.53846 0.0109336 0)
(6.54437 0.0109179 0)
(6.55032 0.0108822 0)
(6.55607 0.0108728 0)
(6.56201 0.0108224 0)
(6.56752 0.0108256 0)
(6.57355 0.0107459 0)
(6.57865 0.0107731 0)
(6.58502 0.0106359 0)
(6.58931 0.0107027 0)
(6.5966 0.0104522 0)
(6.59912 0.0105655 0)
(6.60863 0.0100857 0)
(4.93833 0.00175556 0)
(4.94483 0.0051737 0)
(4.95785 0.00837054 0)
(4.97716 0.0112421 0)
(5.00209 0.0137461 0)
(5.03179 0.0158812 0)
(5.06534 0.017653 0)
(5.10194 0.0190622 0)
(5.14082 0.0201136 0)
(5.18128 0.0208266 0)
(5.22265 0.0212343 0)
(5.26435 0.0213727 0)
(5.30586 0.0212737 0)
(5.34675 0.0209708 0)
(5.38667 0.0205058 0)
(5.42538 0.0199216 0)
(5.46267 0.0192563 0)
(5.49843 0.0185437 0)
(5.53257 0.0178182 0)
(5.56505 0.0171084 0)
(5.59585 0.0164361 0)
(5.625 0.0158157 0)
(5.65252 0.0152545 0)
(5.67848 0.0147537 0)
(5.70297 0.0143101 0)
(5.72607 0.013918 0)
(5.74789 0.0135707 0)
(5.76852 0.0132615 0)
(5.78806 0.0129843 0)
(5.8066 0.0127336 0)
(5.82425 0.012505 0)
(5.84108 0.0122944 0)
(5.85717 0.0120988 0)
(5.87261 0.0119157 0)
(5.88746 0.0117429 0)
(5.90179 0.0115788 0)
(5.91563 0.0114218 0)
(5.92905 0.0112708 0)
(5.9421 0.0111251 0)
(5.9548 0.0109842 0)
(5.96719 0.0108486 0)
(5.9793 0.0107191 0)
(5.99116 0.010597 0)
(6.00279 0.0104825 0)
(6.01421 0.0103752 0)
(6.02545 0.0102738 0)
(6.03651 0.0101774 0)
(6.0474 0.0100856 0)
(6.05815 0.00999818 0)
(6.06876 0.0099137 0)
(6.07924 0.00983078 0)
(6.08959 0.00974844 0)
(6.09982 0.00966631 0)
(6.10994 0.00958416 0)
(6.11994 0.00950203 0)
(6.12985 0.00941939 0)
(6.13965 0.00933572 0)
(6.14936 0.00925085 0)
(6.15897 0.009165 0)
(6.16849 0.00907851 0)
(6.17792 0.00899178 0)
(6.18727 0.00890515 0)
(6.19653 0.00881895 0)
(6.20572 0.00873344 0)
(6.21482 0.0086489 0)
(6.22384 0.00856549 0)
(6.23279 0.00848341 0)
(6.24166 0.0084028 0)
(6.25046 0.00832384 0)
(6.25919 0.00824667 0)
(6.26784 0.00817142 0)
(6.27642 0.00809819 0)
(6.28494 0.00802702 0)
(6.29338 0.00795797 0)
(6.30176 0.00789113 0)
(6.31008 0.00782657 0)
(6.31832 0.00776435 0)
(6.32651 0.00770452 0)
(6.33463 0.0076471 0)
(6.34269 0.00759211 0)
(6.35069 0.00753958 0)
(6.35863 0.00748955 0)
(6.36651 0.00744211 0)
(6.37434 0.00739737 0)
(6.38211 0.00735544 0)
(6.38982 0.00731642 0)
(6.39748 0.00728036 0)
(6.40508 0.00724726 0)
(6.41264 0.00721701 0)
(6.42014 0.00718946 0)
(6.42759 0.00716438 0)
(6.43499 0.00714146 0)
(6.44235 0.00712042 0)
(6.44966 0.00710093 0)
(6.45692 0.00708271 0)
(6.46414 0.00706547 0)
(6.47131 0.00704903 0)
(6.47844 0.00703309 0)
(6.48553 0.00701763 0)
(6.49258 0.00700229 0)
(6.49958 0.0069873 0)
(6.50655 0.00697204 0)
(6.51347 0.00695722 0)
(6.52036 0.00694162 0)
(6.5272 0.00692683 0)
(6.53402 0.00691038 0)
(6.54077 0.00689568 0)
(6.54754 0.00687761 0)
(6.55418 0.00686335 0)
(6.56092 0.00684221 0)
(6.56742 0.00682923 0)
(6.5742 0.00680222 0)
(6.58047 0.00679245 0)
(6.58741 0.0067541 0)
(6.59324 0.00675154 0)
(6.60064 0.00669069 0)
(6.60555 0.0067021 0)
(6.61407 0.00659321 0)
(6.61693 0.00662261 0)
(6.62807 0.00639668 0)
(4.93833 -0.00167939 0)
(4.94483 -0.00495213 0)
(4.95783 -0.00802212 0)
(4.97713 -0.010793 0)
(5.00205 -0.0132212 0)
(5.03174 -0.0152958 0)
(5.06529 -0.0170113 0)
(5.10189 -0.0183606 0)
(5.14077 -0.0193455 0)
(5.18123 -0.0199868 0)
(5.2226 -0.0203214 0)
(5.2643 -0.0203915 0)
(5.30581 -0.0202331 0)
(5.34671 -0.0198723 0)
(5.38666 -0.019329 0)
(5.4254 -0.0186251 0)
(5.46271 -0.0177937 0)
(5.49847 -0.0168797 0)
(5.53259 -0.0159294 0)
(5.56503 -0.0149884 0)
(5.59578 -0.0140931 0)
(5.62487 -0.0132663 0)
(5.65235 -0.0125178 0)
(5.67828 -0.0118491 0)
(5.70274 -0.0112572 0)
(5.72583 -0.0107367 0)
(5.74763 -0.0102813 0)
(5.76825 -0.0098838 0)
(5.78778 -0.00953749 0)
(5.80632 -0.0092357 0)
(5.82397 -0.00897248 0)
(5.8408 -0.00874242 0)
(5.8569 -0.00854087 0)
(5.87234 -0.00836376 0)
(5.8872 -0.00820767 0)
(5.90152 -0.00806971 0)
(5.91538 -0.0079475 0)
(5.9288 -0.00783894 0)
(5.94185 -0.00774204 0)
(5.95455 -0.00765481 0)
(5.96695 -0.0075756 0)
(5.97907 -0.00750267 0)
(5.99093 -0.007434 0)
(6.00257 -0.00736763 0)
(6.014 -0.00730219 0)
(6.02524 -0.0072369 0)
(6.0363 -0.00717139 0)
(6.0472 -0.00710562 0)
(6.05795 -0.00703929 0)
(6.06856 -0.00697219 0)
(6.07904 -0.00690417 0)
(6.08939 -0.0068348 0)
(6.09962 -0.00676381 0)
(6.10973 -0.00669094 0)
(6.11974 -0.00661631 0)
(6.12964 -0.00653959 0)
(6.13944 -0.00646047 0)
(6.14914 -0.00637891 0)
(6.15876 -0.00629521 0)
(6.16828 -0.00620976 0)
(6.17771 -0.006123 0)
(6.18706 -0.0060353 0)
(6.19632 -0.00594707 0)
(6.2055 -0.00585864 0)
(6.2146 -0.00577035 0)
(6.22362 -0.00568242 0)
(6.23256 -0.00559503 0)
(6.24143 -0.00550827 0)
(6.25023 -0.00542224 0)
(6.25895 -0.00533696 0)
(6.2676 -0.0052525 0)
(6.27618 -0.00516886 0)
(6.28469 -0.00508605 0)
(6.29313 -0.00500404 0)
(6.30151 -0.00492279 0)
(6.30982 -0.00484226 0)
(6.31806 -0.00476241 0)
(6.32624 -0.00468319 0)
(6.33436 -0.00460456 0)
(6.34242 -0.00452642 0)
(6.35042 -0.00444873 0)
(6.35835 -0.0043714 0)
(6.36623 -0.00429433 0)
(6.37405 -0.0042174 0)
(6.38182 -0.00414047 0)
(6.38952 -0.00406341 0)
(6.39718 -0.00398614 0)
(6.40478 -0.00390864 0)
(6.41233 -0.00383096 0)
(6.41983 -0.00375316 0)
(6.42728 -0.0036754 0)
(6.43468 -0.00359782 0)
(6.44203 -0.00352064 0)
(6.44933 -0.00344405 0)
(6.45659 -0.00336829 0)
(6.4638 -0.00329351 0)
(6.47097 -0.00321992 0)
(6.4781 -0.00314758 0)
(6.48518 -0.00307671 0)
(6.49222 -0.0030072 0)
(6.49922 -0.00293938 0)
(6.50618 -0.00287294 0)
(6.51309 -0.00280846 0)
(6.51998 -0.00274513 0)
(6.52681 -0.00268412 0)
(6.53363 -0.00262369 0)
(6.54037 -0.00256637 0)
(6.54714 -0.00250841 0)
(6.55378 -0.00245529 0)
(6.56051 -0.00239894 0)
(6.56701 -0.00235104 0)
(6.57378 -0.00229436 0)
(6.58005 -0.0022537 0)
(6.58698 -0.0021926 0)
(6.59281 -0.00216302 0)
(6.60021 -0.00208862 0)
(6.60511 -0.0020763 0)
(6.61364 -0.00196774 0)
(6.61648 -0.00197832 0)
(6.62761 -0.00178307 0)
(4.93834 -0.00522628 0)
(4.94514 -0.0153865 0)
(4.95868 -0.0248457 0)
(4.97866 -0.0333027 0)
(5.00432 -0.0406272 0)
(5.03477 -0.0468019 0)
(5.0691 -0.0518319 0)
(5.10648 -0.0557169 0)
(5.14612 -0.0584818 0)
(5.18728 -0.0602073 0)
(5.22929 -0.0610187 0)
(5.27155 -0.061054 0)
(5.31357 -0.0604404 0)
(5.35492 -0.0592853 0)
(5.39529 -0.057682 0)
(5.43438 -0.0557153 0)
(5.47199 -0.0534616 0)
(5.50798 -0.0509896 0)
(5.54227 -0.0483679 0)
(5.57482 -0.0456611 0)
(5.60564 -0.0429285 0)
(5.63476 -0.0402228 0)
(5.66225 -0.0375883 0)
(5.68819 -0.0350599 0)
(5.71265 -0.0326636 0)
(5.73574 -0.0304176 0)
(5.75755 -0.0283333 0)
(5.77817 -0.0264158 0)
(5.79772 -0.0246657 0)
(5.81628 -0.0230792 0)
(5.83395 -0.0216496 0)
(5.85081 -0.020368 0)
(5.86694 -0.0192241 0)
(5.88241 -0.0182068 0)
(5.89729 -0.0173051 0)
(5.91164 -0.0165079 0)
(5.92552 -0.0158044 0)
(5.93897 -0.0151841 0)
(5.95204 -0.0146369 0)
(5.96476 -0.0141528 0)
(5.97718 -0.0137244 0)
(5.98931 -0.013345 0)
(6.00119 -0.0130072 0)
(6.01284 -0.0127039 0)
(6.02428 -0.0124297 0)
(6.03552 -0.0121806 0)
(6.04658 -0.0119532 0)
(6.05747 -0.011745 0)
(6.06821 -0.0115546 0)
(6.0788 -0.0113809 0)
(6.08925 -0.0112221 0)
(6.09958 -0.0110764 0)
(6.10977 -0.0109416 0)
(6.11984 -0.0108158 0)
(6.1298 -0.0106974 0)
(6.13964 -0.0105851 0)
(6.14938 -0.0104778 0)
(6.15901 -0.0103749 0)
(6.16853 -0.0102758 0)
(6.17796 -0.0101802 0)
(6.18729 -0.0100876 0)
(6.19652 -0.00999787 0)
(6.20566 -0.00991059 0)
(6.21471 -0.00982557 0)
(6.22367 -0.00974253 0)
(6.23254 -0.00966128 0)
(6.24132 -0.00958158 0)
(6.25002 -0.00950324 0)
(6.25863 -0.009426 0)
(6.26716 -0.00934971 0)
(6.27561 -0.00927421 0)
(6.28398 -0.00919947 0)
(6.29227 -0.00912538 0)
(6.30047 -0.00905193 0)
(6.30861 -0.008979 0)
(6.31666 -0.00890654 0)
(6.32464 -0.00883446 0)
(6.33254 -0.00876267 0)
(6.34037 -0.00869108 0)
(6.34812 -0.00861963 0)
(6.35581 -0.00854821 0)
(6.36342 -0.00847681 0)
(6.37096 -0.00840532 0)
(6.37844 -0.00833367 0)
(6.38584 -0.00826174 0)
(6.39318 -0.00818946 0)
(6.40045 -0.00811675 0)
(6.40766 -0.00804364 0)
(6.4148 -0.00797014 0)
(6.42188 -0.00789636 0)
(6.42889 -0.00782239 0)
(6.43585 -0.00774841 0)
(6.44274 -0.00767461 0)
(6.44958 -0.00760117 0)
(6.45635 -0.00752835 0)
(6.46307 -0.00745626 0)
(6.46973 -0.00738521 0)
(6.47633 -0.0073151 0)
(6.48288 -0.00724642 0)
(6.48937 -0.00717873 0)
(6.49581 -0.00711296 0)
(6.5022 -0.00704788 0)
(6.50853 -0.00698541 0)
(6.51481 -0.00692273 0)
(6.52104 -0.006864 0)
(6.52723 -0.0068031 0)
(6.53334 -0.00674899 0)
(6.53944 -0.00668842 0)
(6.54543 -0.00664061 0)
(6.55147 -0.00657724 0)
(6.5573 -0.00653901 0)
(6.56334 -0.00646635 0)
(6.56894 -0.00644409 0)
(6.57507 -0.0063491 0)
(6.58026 -0.00635429 0)
(6.58676 -0.00621078 0)
(6.59112 -0.00626011 0)
(6.59857 -0.0060131 0)
(6.60112 -0.00611284 0)
(6.61084 -0.0056361 0)
(4.93838 -0.00898461 0)
(4.94589 -0.0266366 0)
(4.96066 -0.0432189 0)
(4.98217 -0.0580838 0)
(5.00948 -0.0709343 0)
(5.04159 -0.0817046 0)
(5.07763 -0.0903808 0)
(5.11676 -0.0969641 0)
(5.15816 -0.101529 0)
(5.20104 -0.104253 0)
(5.24467 -0.105379 0)
(5.28844 -0.105169 0)
(5.33185 -0.103872 0)
(5.37448 -0.101718 0)
(5.41599 -0.0989114 0)
(5.45609 -0.095631 0)
(5.49458 -0.0920214 0)
(5.5313 -0.0881971 0)
(5.56615 -0.0842504 0)
(5.59909 -0.0802576 0)
(5.63013 -0.0762833 0)
(5.65929 -0.0723832 0)
(5.68664 -0.0686045 0)
(5.71226 -0.0649841 0)
(5.73626 -0.0615499 0)
(5.75875 -0.0583209 0)
(5.77983 -0.0553089 0)
(5.79962 -0.0525187 0)
(5.81823 -0.0499499 0)
(5.83577 -0.0475973 0)
(5.85234 -0.0454525 0)
(5.86803 -0.0435041 0)
(5.88293 -0.0417392 0)
(5.89711 -0.0401441 0)
(5.91065 -0.0387053 0)
(5.9236 -0.0374104 0)
(5.93602 -0.0362477 0)
(5.94796 -0.0352036 0)
(5.95947 -0.0342639 0)
(5.97058 -0.0334151 0)
(5.98132 -0.0326443 0)
(5.99173 -0.0319402 0)
(6.00183 -0.0312916 0)
(6.01163 -0.0306882 0)
(6.02117 -0.0301228 0)
(6.03045 -0.0295897 0)
(6.03948 -0.0290854 0)
(6.04829 -0.0286069 0)
(6.05688 -0.0281527 0)
(6.06526 -0.0277216 0)
(6.07343 -0.0273121 0)
(6.08142 -0.0269223 0)
(6.08922 -0.0265505 0)
(6.09684 -0.0261948 0)
(6.10428 -0.0258535 0)
(6.11155 -0.0255249 0)
(6.11866 -0.025208 0)
(6.1256 -0.0249012 0)
(6.13238 -0.0246037 0)
(6.13901 -0.0243143 0)
(6.14548 -0.0240325 0)
(6.1518 -0.0237572 0)
(6.15797 -0.0234883 0)
(6.164 -0.0232248 0)
(6.16988 -0.0229666 0)
(6.17563 -0.0227131 0)
(6.18123 -0.0224643 0)
(6.1867 -0.0222194 0)
(6.19203 -0.0219783 0)
(6.19724 -0.0217401 0)
(6.20231 -0.0215051 0)
(6.20725 -0.0212729 0)
(6.21207 -0.0210437 0)
(6.21677 -0.0208173 0)
(6.22134 -0.0205938 0)
(6.22579 -0.0203728 0)
(6.23013 -0.0201543 0)
(6.23434 -0.019938 0)
(6.23845 -0.0197239 0)
(6.24244 -0.0195117 0)
(6.24632 -0.0193016 0)
(6.2501 -0.019093 0)
(6.25377 -0.0188864 0)
(6.25733 -0.0186812 0)
(6.26079 -0.0184778 0)
(6.26416 -0.0182756 0)
(6.26742 -0.0180752 0)
(6.27059 -0.0178759 0)
(6.27367 -0.0176783 0)
(6.27665 -0.017482 0)
(6.27954 -0.0172874 0)
(6.28235 -0.0170943 0)
(6.28507 -0.0169033 0)
(6.2877 -0.0167139 0)
(6.29026 -0.0165271 0)
(6.29273 -0.016342 0)
(6.29513 -0.0161599 0)
(6.29745 -0.0159796 0)
(6.29969 -0.0158026 0)
(6.30186 -0.0156274 0)
(6.30396 -0.015456 0)
(6.30599 -0.0152857 0)
(6.30795 -0.0151202 0)
(6.30984 -0.0149544 0)
(6.31166 -0.0147953 0)
(6.31343 -0.014633 0)
(6.31512 -0.0144814 0)
(6.31676 -0.0143203 0)
(6.31833 -0.0141785 0)
(6.31986 -0.0140136 0)
(6.3213 -0.0138868 0)
(6.32273 -0.0137079 0)
(6.32402 -0.0136064 0)
(6.32538 -0.0133924 0)
(6.3265 -0.0133358 0)
(6.32784 -0.0130442 0)
(6.32872 -0.0130657 0)
(6.33013 -0.0126122 0)
(6.3306 -0.0127463 0)
(6.33231 -0.0119423 0)
(4.9384 -0.012155 0)
(4.9466 -0.035814 0)
(4.96315 -0.0579377 0)
(4.98746 -0.0780067 0)
(5.01835 -0.0958263 0)
(5.05468 -0.111191 0)
(5.09538 -0.123849 0)
(5.13927 -0.133651 0)
(5.18508 -0.140643 0)
(5.23153 -0.145001 0)
(5.27755 -0.146965 0)
(5.32228 -0.14682 0)
(5.36507 -0.144843 0)
(5.40546 -0.141322 0)
(5.44314 -0.136569 0)
(5.47791 -0.130896 0)
(5.50972 -0.12459 0)
(5.53857 -0.117908 0)
(5.56454 -0.111062 0)
(5.58775 -0.104229 0)
(5.60836 -0.0975465 0)
(5.62653 -0.0911215 0)
(5.64245 -0.0850306 0)
(5.65631 -0.0793248 0)
(5.66829 -0.0740342 0)
(5.67857 -0.0691715 0)
(5.68731 -0.0647356 0)
(5.69467 -0.060715 0)
(5.7008 -0.0570908 0)
(5.70582 -0.0538385 0)
(5.70985 -0.0509303 0)
(5.71299 -0.0483367 0)
(5.71534 -0.0460264 0)
(5.71697 -0.0439694 0)
(5.71797 -0.0421344 0)
(5.71839 -0.0404995 0)
(5.71829 -0.0390468 0)
(5.71772 -0.0377549 0)
(5.71673 -0.0366008 0)
(5.71535 -0.035563 0)
(5.71363 -0.0346221 0)
(5.71158 -0.0337613 0)
(5.70925 -0.03297 0)
(5.70664 -0.0322406 0)
(5.70378 -0.0315653 0)
(5.70068 -0.030936 0)
(5.69736 -0.0303456 0)
(5.69384 -0.0297876 0)
(5.69012 -0.0292563 0)
(5.68623 -0.0287465 0)
(5.68218 -0.0282546 0)
(5.67797 -0.0277775 0)
(5.67361 -0.0273131 0)
(5.66912 -0.0268593 0)
(5.66451 -0.0264147 0)
(5.65978 -0.0259781 0)
(5.65494 -0.0255486 0)
(5.64999 -0.0251254 0)
(5.64496 -0.024708 0)
(5.63983 -0.0242962 0)
(5.63462 -0.0238896 0)
(5.62934 -0.0234882 0)
(5.62398 -0.0230919 0)
(5.61856 -0.0227007 0)
(5.61308 -0.0223147 0)
(5.60755 -0.0219341 0)
(5.60196 -0.021559 0)
(5.59633 -0.0211898 0)
(5.59066 -0.0208259 0)
(5.58496 -0.0204667 0)
(5.57922 -0.0201122 0)
(5.57345 -0.0197625 0)
(5.56766 -0.0194176 0)
(5.56184 -0.0190777 0)
(5.55601 -0.0187427 0)
(5.55016 -0.0184126 0)
(5.54431 -0.0180876 0)
(5.53844 -0.0177674 0)
(5.53257 -0.0174522 0)
(5.5267 -0.0171417 0)
(5.52083 -0.016836 0)
(5.51497 -0.0165349 0)
(5.50911 -0.0162383 0)
(5.50326 -0.0159459 0)
(5.49742 -0.0156578 0)
(5.4916 -0.0153738 0)
(5.4858 -0.015094 0)
(5.48001 -0.0148184 0)
(5.47425 -0.0145472 0)
(5.46851 -0.0142801 0)
(5.46279 -0.0140176 0)
(5.45711 -0.0137594 0)
(5.45145 -0.013506 0)
(5.44582 -0.0132572 0)
(5.44023 -0.0130134 0)
(5.43467 -0.0127743 0)
(5.42914 -0.0125405 0)
(5.42366 -0.0123115 0)
(5.4182 -0.0120878 0)
(5.41279 -0.0118688 0)
(5.40742 -0.0116553 0)
(5.40209 -0.011446 0)
(5.39679 -0.0112428 0)
(5.39154 -0.0110427 0)
(5.38633 -0.0108496 0)
(5.38117 -0.0106579 0)
(5.37604 -0.010475 0)
(5.37096 -0.01029 0)
(5.36593 -0.0101182 0)
(5.36091 -0.00993666 0)
(5.35601 -0.00977794 0)
(5.35102 -0.00959299 0)
(5.34628 -0.00945207 0)
(5.34126 -0.00924903 0)
(5.33682 -0.00913605 0)
(5.33156 -0.00888292 0)
(5.32773 -0.00881798 0)
(5.32176 -0.00844469 0)
(5.31939 -0.00845984 0)
(5.31154 -0.00780953 0)
(4.93891 -0.022394 0)
(4.95455 -0.0611649 0)
(4.98201 -0.0934826 0)
(5.01673 -0.121143 0)
(5.05402 -0.145042 0)
(5.08997 -0.164878 0)
(5.12165 -0.180244 0)
(5.14694 -0.191171 0)
(5.1647 -0.198094 0)
(5.17449 -0.201507 0)
(5.17668 -0.201902 0)
(5.17175 -0.199753 0)
(5.16058 -0.195463 0)
(5.14406 -0.189419 0)
(5.12304 -0.18201 0)
(5.09834 -0.173595 0)
(5.07075 -0.164499 0)
(5.04096 -0.154997 0)
(5.00958 -0.145327 0)
(4.97714 -0.135684 0)
(4.94405 -0.126222 0)
(4.91067 -0.117075 0)
(4.87728 -0.108329 0)
(4.84409 -0.100052 0)
(4.81129 -0.0922885 0)
(4.779 -0.0850615 0)
(4.74729 -0.0783781 0)
(4.71625 -0.0722321 0)
(4.68591 -0.0666074 0)
(4.65628 -0.0614802 0)
(4.62739 -0.0568224 0)
(4.59921 -0.0526014 0)
(4.57176 -0.0487848 0)
(4.545 -0.0453372 0)
(4.51893 -0.0422257 0)
(4.49352 -0.0394141 0)
(4.46874 -0.0368664 0)
(4.44457 -0.0345526 0)
(4.42101 -0.032449 0)
(4.39804 -0.0305337 0)
(4.37563 -0.0287888 0)
(4.35376 -0.027197 0)
(4.33241 -0.0257453 0)
(4.31157 -0.0244228 0)
(4.29122 -0.0232177 0)
(4.27135 -0.0221178 0)
(4.25194 -0.0211109 0)
(4.233 -0.0201858 0)
(4.2145 -0.0193324 0)
(4.19644 -0.0185422 0)
(4.1788 -0.0178079 0)
(4.16157 -0.0171235 0)
(4.14475 -0.0164841 0)
(4.12832 -0.0158849 0)
(4.11227 -0.015322 0)
(4.0966 -0.0147918 0)
(4.08129 -0.0142913 0)
(4.06634 -0.0138179 0)
(4.05173 -0.013369 0)
(4.03747 -0.0129427 0)
(4.02353 -0.0125371 0)
(4.00992 -0.0121505 0)
(3.99662 -0.0117816 0)
(3.98363 -0.0114289 0)
(3.97094 -0.0110913 0)
(3.95855 -0.0107674 0)
(3.94643 -0.0104566 0)
(3.93459 -0.0101579 0)
(3.92303 -0.00987128 0)
(3.91173 -0.00959666 0)
(3.90068 -0.00933359 0)
(3.88989 -0.00908124 0)
(3.87934 -0.00883881 0)
(3.86902 -0.00860562 0)
(3.85894 -0.00838118 0)
(3.84908 -0.00816503 0)
(3.83944 -0.00795676 0)
(3.83001 -0.00775595 0)
(3.82079 -0.00756225 0)
(3.81177 -0.00737526 0)
(3.80295 -0.00719467 0)
(3.79432 -0.00702001 0)
(3.78588 -0.0068509 0)
(3.77762 -0.00668696 0)
(3.76953 -0.00652794 0)
(3.76162 -0.00637359 0)
(3.75388 -0.00622381 0)
(3.7463 -0.00607841 0)
(3.73888 -0.00593736 0)
(3.73161 -0.00580055 0)
(3.7245 -0.00566798 0)
(3.71753 -0.00553959 0)
(3.71071 -0.0054154 0)
(3.70403 -0.00529538 0)
(3.69748 -0.00517951 0)
(3.69106 -0.00506776 0)
(3.68478 -0.00496007 0)
(3.67862 -0.00485641 0)
(3.67258 -0.00475663 0)