/*--------------------------------*- C++ -*----------------------------------*\
  =========                 |
  \\      /  F ield         | OpenFOAM: The Open Source CFD Toolbox
   \\    /   O peration     | Website:  https://openfoam.org
    \\  /    A nd           | Version:  7
     \\/     M anipulation  |
\*---------------------------------------------------------------------------*/
FoamFile
{
    version     2.0;
    format      ascii;
    class       volVectorField;
    location    "0.605";
    object      U_0;
}
// * * * * * * * * * * * * * * * * * * * * * * * * * * * * * * * * * * * * * //

dimensions      [0 1 -1 0 0 0 0];

internalField   nonuniform List<vector> 
4950
(
(3.51396 0.420202 -27.0249)
(2.808 0.15087 -27.0544)
(2.05748 0.0460853 -27.0484)
(1.8489 -0.0217918 -27.05)
(1.57095 -0.042822 -27.0454)
(1.55313 -0.0497466 -27.0492)
(1.39682 -0.0509264 -27.0478)
(1.42058 -0.0499209 -27.0527)
(1.30705 -0.0487381 -27.0531)
(1.33899 -0.0475681 -27.0584)
(1.24931 -0.0460324 -27.0594)
(1.28173 -0.046011 -27.0634)
(1.20883 -0.0429278 -27.0636)
(1.2397 -0.0456581 -27.0656)
(1.17884 -0.0366551 -27.0647)
(1.20811 -0.0468482 -27.0646)
(1.15353 -0.0158894 -27.0637)
(1.17057 -0.0450903 -27.0611)
(1.14746 0.0930681 -27.0627)
(0.923358 0.122925 -27.0503)
(4.60327 0.549128 -27.05)
(4.79834 0.379425 -27.071)
(4.50972 0.291438 -27.0573)
(4.45568 0.192479 -27.0492)
(4.1653 0.136011 -27.0375)
(4.13525 0.10442 -27.037)
(3.91229 0.0847179 -27.0352)
(3.91294 0.0733043 -27.0403)
(3.74092 0.064648 -27.0443)
(3.7583 0.0591763 -27.0538)
(3.62237 0.0539003 -27.0627)
(3.64809 0.051504 -27.073)
(3.53768 0.0461915 -27.0806)
(3.56883 0.0476976 -27.0863)
(3.47438 0.0371074 -27.0899)
(3.51637 0.0474798 -27.0889)
(3.42195 0.0184938 -27.0906)
(3.50775 0.0388863 -27.0814)
(3.37011 -0.0152398 -27.0871)
(3.71636 -0.0720837 -27.0512)
(4.72281 0.288717 -27.0517)
(5.2098 0.211917 -27.0684)
(5.32928 0.191467 -27.0483)
(5.57699 0.131902 -27.0353)
(5.53064 0.0950929 -27.0153)
(5.65833 0.0696269 -27.0098)
(5.57821 0.0512956 -27.0035)
(5.66233 0.0386243 -27.0064)
(5.58231 0.028737 -27.0055)
(5.64502 0.0206826 -27.0118)
(5.57357 0.0149594 -27.0184)
(5.62292 0.00878778 -27.033)
(5.56309 0.00631523 -27.0475)
(5.59954 0.000326755 -27.0631)
(5.5551 0.00225666 -27.075)
(5.56999 -0.00542001 -27.0829)
(5.55377 0.00714732 -27.0894)
(5.51596 -0.00408587 -27.0901)
(5.54409 0.0387812 -27.0924)
(5.39486 0.0555326 -27.0695)
(4.70078 0.169333 -27.0604)
(5.12654 0.131653 -27.0779)
(5.34532 0.124777 -27.0595)
(5.69497 0.0953607 -27.0442)
(5.77221 0.0768989 -27.0241)
(6.00393 0.0647821 -27.0159)
(6.03027 0.055959 -27.0099)
(6.19756 0.0501235 -27.011)
(6.20409 0.0450425 -27.0098)
(6.3319 0.0411862 -27.0114)
(6.32867 0.0374273 -27.0149)
(6.43126 0.0347515 -27.0253)
(6.42175 0.0311883 -27.0403)
(6.50955 0.0301708 -27.0587)
(6.49135 0.0248624 -27.0752)
(6.57663 0.0273948 -27.0889)
(6.54267 0.0157002 -27.0975)
(6.65507 0.0218881 -27.1064)
(6.59445 0.00431807 -27.1075)
(6.82685 -0.00981531 -27.0964)
(4.70218 -5.61151e-09 -27.0556)
(5.12335 1.57595e-07 -27.0714)
(5.35234 1.05667e-07 -27.0502)
(5.71688 2.00691e-07 -27.0351)
(5.8089 -1.27092e-07 -27.0128)
(6.05666 2.93386e-07 -27.0049)
(6.10237 1.83767e-09 -26.9973)
(6.28859 1.12979e-06 -26.9991)
(6.318 1.29808e-06 -26.9962)
(6.46484 3.65171e-06 -26.9979)
(6.48621 4.91524e-06 -26.9987)
(6.60389 1.33678e-05 -27.0085)
(6.62241 1.04419e-05 -27.0217)
(6.71401 5.21394e-05 -27.0414)
(6.73578 1.49046e-05 -27.0579)
(6.7928 0.000173111 -27.0744)
(6.83331 3.55626e-05 -27.0825)
(6.82639 0.000458506 -27.0946)
(6.90101 0.000164775 -27.0949)
(6.79143 0.00069151 -27.0892)
(4.70078 -0.169333 -27.0604)
(5.12654 -0.131653 -27.0779)
(5.34532 -0.124777 -27.0595)
(5.69497 -0.0953603 -27.0442)
(5.77221 -0.0768989 -27.0241)
(6.00393 -0.0647817 -27.0159)
(6.03027 -0.0559585 -27.0099)
(6.19756 -0.0501219 -27.011)
(6.20409 -0.0450387 -27.0097)
(6.33191 -0.0411819 -27.0114)
(6.32867 -0.037414 -27.0148)
(6.43129 -0.0347384 -27.0253)
(6.42175 -0.0311541 -27.0402)
(6.50961 -0.0301212 -27.0589)
(6.49137 -0.0247864 -27.075)
(6.57677 -0.0272319 -27.0892)
(6.54281 -0.0155116 -27.0972)
(6.65535 -0.0214406 -27.1067)
(6.59489 -0.00368398 -27.1072)
(6.82756 0.0109338 -27.0965)
(4.72281 -0.288717 -27.0517)
(5.2098 -0.211917 -27.0684)
(5.32928 -0.191466 -27.0483)
(5.57699 -0.131902 -27.0353)
(5.53064 -0.095093 -27.0153)
(5.65833 -0.0696265 -27.0098)
(5.57821 -0.0512954 -27.0035)
(5.66234 -0.0386229 -27.0065)
(5.58231 -0.0287348 -27.0055)
(5.64504 -0.0206779 -27.0119)
(5.57357 -0.0149522 -27.0183)
(5.62297 -0.00876953 -27.0332)
(5.56307 -0.00630298 -27.0471)
(5.59969 -0.00025273 -27.0636)
(5.55511 -0.00225356 -27.0743)
(5.57036 0.00566677 -27.084)
(5.55393 -0.00717328 -27.0879)
(5.51679 0.00471508 -27.092)
(5.54491 -0.0386337 -27.0901)
(5.39694 -0.0543055 -27.0723)
(4.60327 -0.549128 -27.05)
(4.79834 -0.379424 -27.071)
(4.50972 -0.291438 -27.0573)
(4.45568 -0.192479 -27.0492)
(4.1653 -0.136011 -27.0375)
(4.13525 -0.10442 -27.037)
(3.91229 -0.0847173 -27.0352)
(3.91294 -0.0733041 -27.0403)
(3.74092 -0.0646455 -27.0443)
(3.75831 -0.0591758 -27.0538)
(3.62238 -0.053892 -27.0626)
(3.64814 -0.0515018 -27.0731)
(3.53771 -0.0461694 -27.0804)
(3.56897 -0.0476828 -27.0867)
(3.47452 -0.0370588 -27.089)
(3.51667 -0.0474159 -27.0903)
(3.42243 -0.0183818 -27.0882)
(3.50845 -0.0387002 -27.0855)
(3.37137 0.0155725 -27.0805)
(3.71827 0.0722489 -27.0617)
(3.51396 -0.420202 -27.0249)
(2.808 -0.15087 -27.0544)
(2.05748 -0.0460852 -27.0484)
(1.8489 0.021792 -27.05)
(1.57095 0.0428219 -27.0454)
(1.55313 0.0497467 -27.0492)
(1.39682 0.0509262 -27.0478)
(1.42059 0.0499211 -27.0527)
(1.30706 0.0487373 -27.0531)
(1.339 0.0475688 -27.0584)
(1.24931 0.0460303 -27.0594)
(1.28176 0.0460134 -27.0635)
(1.20886 0.0429204 -27.0635)
(1.23978 0.0456637 -27.0657)
(1.17892 0.0366324 -27.0645)
(1.20829 0.0468594 -27.0651)
(1.15385 0.0158363 -27.0629)
(1.17099 0.045166 -27.0625)
(1.14836 -0.0930572 -27.0599)
(0.92496 -0.122382 -27.0571)
(4.49957 0.193071 0.00536959)
(3.73739 0.282053 0.0037404)
(3.13808 0.243984 0.00453216)
(2.55606 0.167408 0.00348059)
(2.28501 0.117414 0.00424212)
(2.00418 0.08394 0.00340877)
(1.92395 0.068035 0.00408707)
(1.77727 0.059087 0.00337589)
(1.75764 0.0552313 0.00395464)
(1.66436 0.0532983 0.00333547)
(1.66107 0.0518648 0.00382402)
(1.59465 0.0521866 0.00328524)
(1.59617 0.0494922 0.00369788)
(1.54697 0.0528627 0.00323015)
(1.55044 0.0433803 0.00357918)
(1.5158 0.0567623 0.00317299)
(1.51382 0.0163672 0.00347245)
(1.52907 0.0628639 0.003114)
(1.45543 -0.122842 0.00341075)
(1.89142 -0.168614 0.0029946)
(4.63616 0.109701 0.0034858)
(4.67343 0.234265 0.00217057)
(4.81895 0.214505 0.0029222)
(4.6897 0.16235 0.00188476)
(4.66926 0.107655 0.00263978)
(4.50375 0.0645543 0.00180399)
(4.46251 0.0358224 0.00247695)
(4.32559 0.0174849 0.00176394)
(4.29362 0.00539857 0.00233987)
(4.18822 -0.00252515 0.00172116)
(4.166 -0.0080356 0.00220818)
(4.0847 -0.0130611 0.00167022)
(4.07017 -0.0144098 0.00208036)
(4.00437 -0.0207636 0.00161513)
(3.9998 -0.0149528 0.00195754)
(3.93552 -0.0279638 0.00155894)
(3.95581 -0.00609777 0.00183471)
(3.84942 -0.0256294 0.00149532)
(3.94938 0.00644946 0.00168719)
(3.55123 0.0657399 0.00130243)
(4.56734 0.0617304 0.00479113)
(4.72981 0.187233 0.00356643)
(5.06836 0.218677 0.00428432)
(5.18686 0.196576 0.0032341)
(5.38549 0.166705 0.0039764)
(5.40946 0.135758 0.00313393)
(5.50983 0.114351 0.00380662)
(5.49532 0.0979047 0.00309392)
(5.55169 0.0863145 0.00367298)
(5.52879 0.0775768 0.00305657)
(5.56435 0.0701173 0.00354778)
(5.54343 0.0650406 0.00301144)
(5.56547 0.0587067 0.00342715)
(5.55135 0.0565381 0.00295983)
(5.55801 0.0479284 0.00331466)
(5.56205 0.0510245 0.00290587)
(5.5406 0.0280475 0.0032208)
(5.59533 0.0432094 0.00285247)
(5.52683 -0.0365282 0.00319955)
(5.6767 -0.0458137 0.00280712)
(4.52487 0.0290959 0.00331882)
(4.59267 0.0723134 0.00221183)
(4.95375 0.0766717 0.0029205)
(5.12631 0.0691932 0.00189324)
(5.40799 0.0565433 0.0026323)
(5.51784 0.0442391 0.00179)
(5.70205 0.0350809 0.00245791)
(5.76796 0.0283442 0.00174311)
(5.89658 0.02342 0.00231835)
(5.94182 0.0196486 0.00170102)
(6.03883 0.0166118 0.00218822)
(6.07289 0.0137277 0.00165192)
(6.15055 0.0120174 0.0020612)
(6.17382 0.00879671 0.00159713)
(6.2408 0.00933024 0.00193834)
(6.24415 0.0045246 0.00154218)
(6.31653 0.00867749 0.00181251)
(6.25867 0.00482318 0.001474)
(6.36934 0.00521017 0.00162904)
(6.08893 0.0303101 0.00130096)
(4.55705 -1.30324e-08 0.00470203)
(4.67598 5.87117e-08 0.00359606)
(5.00894 9.08296e-10 0.00429194)
(5.17217 5.55732e-08 0.0032475)
(5.44555 -2.14636e-08 0.00398121)
(5.55907 3.23077e-07 0.00313425)
(5.75054 4.44153e-07 0.00380412)
(5.82856 1.17502e-06 0.00308978)
(5.97043 1.69182e-06 0.00366871)
(6.03223 2.88934e-06 0.00305249)
(6.14372 5.42192e-06 0.00354393)
(6.19786 7.0928e-06 0.00300771)
(6.28619 1.68385e-05 0.00342319)
(6.33759 1.76303e-05 0.00295577)
(6.40083 4.76124e-05 0.0033116)
(6.46025 4.41052e-05 0.00290339)
(6.48848 0.00012857 0.00322436)
(6.57868 0.000131305 0.00285447)
(6.57583 0.000375721 0.00322047)
(6.68288 0.000559037 0.00283539)
(4.52487 -0.029096 0.00331882)
(4.59267 -0.0723132 0.00221183)
(4.95375 -0.0766718 0.0029205)
(5.12631 -0.069193 0.00189324)
(5.40799 -0.0565436 0.0026323)
(5.51784 -0.0442382 0.00179)
(5.70205 -0.0350807 0.00245791)
(5.76796 -0.0283409 0.00174311)
(5.89657 -0.0234186 0.00231835)
(5.94182 -0.019639 0.00170102)
(6.03882 -0.0166073 0.00218822)
(6.07291 -0.0136984 0.00165192)
(6.15054 -0.0120058 0.00206119)
(6.17387 -0.00870589 0.00159714)
(6.2408 -0.00930786 0.00193832)
(6.24428 -0.0042503 0.00154217)
(6.31659 -0.00862729 0.00181248)
(6.25898 -0.00409619 0.00147394)
(6.36972 -0.00496442 0.00162914)
(6.08971 -0.0288539 0.00130082)
(4.56734 -0.0617304 0.00479113)
(4.72981 -0.187233 0.00356643)
(5.06836 -0.218677 0.00428432)
(5.18687 -0.196576 0.0032341)
(5.38549 -0.166705 0.0039764)
(5.40946 -0.135758 0.00313393)
(5.50983 -0.11435 0.00380662)
(5.49533 -0.097903 0.00309392)
(5.55169 -0.086311 0.00367297)
(5.52881 -0.0775721 0.00305657)
(5.56435 -0.0701066 0.00354776)
(5.54348 -0.0650278 0.00301147)
(5.56547 -0.0586753 0.0034271)
(5.55146 -0.0565013 0.00295989)
(5.55804 -0.0478423 0.00331457)
(5.56233 -0.0509128 0.00290599)
(5.54079 -0.0278143 0.00322063)
(5.59598 -0.0429108 0.00285266)
(5.52751 0.0372044 0.00319922)
(5.67825 0.0465546 0.00280718)
(4.63616 -0.109701 0.0034858)
(4.67343 -0.234264 0.00217057)
(4.81895 -0.214505 0.0029222)
(4.6897 -0.162349 0.00188476)
(4.66926 -0.107655 0.00263978)
(4.50375 -0.0645539 0.00180399)
(4.46251 -0.0358221 0.00247695)
(4.3256 -0.0174835 0.00176394)
(4.29362 -0.00539727 0.00233987)
(4.18824 0.00252908 0.00172117)
(4.166 0.00803904 0.00220818)
(4.08476 0.0130743 0.00167023)
(4.07017 0.0144156 0.00208034)
(4.00455 0.0208086 0.00161517)
(3.99981 0.0149517 0.00195745)
(3.93603 0.0281127 0.00155904)
(3.95586 0.00605792 0.00183451)
(3.85082 0.0260492 0.0014955)
(3.94972 -0.00641042 0.00168696)
(3.55509 -0.0647328 0.00130262)
(4.49957 -0.193071 0.00536959)
(3.73739 -0.282053 0.0037404)
(3.13808 -0.243984 0.00453216)
(2.55606 -0.167408 0.00348059)
(2.28501 -0.117413 0.00424212)
(2.00418 -0.08394 0.00340877)
(1.92396 -0.0680347 0.00408707)
(1.77727 -0.0590872 0.00337589)
(1.75765 -0.05523 0.00395463)
(1.66437 -0.0532987 0.00333547)
(1.66108 -0.0518608 0.00382402)
(1.59469 -0.0521881 0.00328525)
(1.59621 -0.0494796 0.00369786)
(1.54706 -0.0528672 0.00323019)
(1.55058 -0.0433437 0.00357911)
(1.51601 -0.0567689 0.00317313)
(1.51426 -0.016276 0.00347215)
(1.52958 -0.0629009 0.0031146)
(1.45646 0.122938 0.00340925)
(1.89342 0.167997 0.00299725)
(4.4583 0.0662062 -2.42922e-09)
(4.23056 0.122316 -2.38489e-09)
(3.85775 0.133991 -2.43661e-09)
(3.49675 0.119647 -2.54149e-09)
(3.14054 0.0951154 -2.59399e-09)
(2.84759 0.071245 -2.61441e-09)
(2.60059 0.0484387 -2.65569e-09)
(2.41173 0.031251 -2.70069e-09)
(2.26793 0.0168058 -2.76597e-09)
(2.15918 0.00767919 -2.80158e-09)
(2.08394 4.8377e-05 -2.82801e-09)
(2.02321 -0.00350732 -2.80928e-09)
(1.98677 -0.00792532 -2.76753e-09)
(1.95462 -0.00783674 -2.68525e-09)
(1.93757 -0.0120252 -2.60842e-09)
(1.92764 -0.0075973 -2.54589e-09)
(1.90723 -0.0160851 -2.5253e-09)
(1.93531 -0.00650002 -2.51341e-09)
(1.87283 -0.0273575 -2.56528e-09)
(1.99772 -0.0497179 -2.54333e-09)
(4.5163 0.058347 -2.41432e-09)
(4.65253 0.112838 -2.47987e-09)
(4.74875 0.145648 -2.59561e-09)
(4.83272 0.156811 -2.62406e-09)
(4.85641 0.153281 -2.48395e-09)
(4.86094 0.138953 -2.31492e-09)
(4.83532 0.121289 -2.31742e-09)
(4.80038 0.101663 -2.45225e-09)
(4.75816 0.0849879 -2.5633e-09)
(4.71184 0.0695863 -2.51321e-09)
(4.67019 0.0585521 -2.42107e-09)
(4.62456 0.0483143 -2.38214e-09)
(4.58928 0.0416883 -2.43532e-09)
(4.54807 0.0347103 -2.49729e-09)
(4.52177 0.0304538 -2.51569e-09)
(4.48594 0.0274149 -2.46452e-09)
(4.46988 0.021625 -2.41223e-09)
(4.43992 0.0279834 -2.37643e-09)
(4.42812 0.011946 -2.44567e-09)
(4.40664 0.0374254 -2.59411e-09)
(4.50599 0.0220552 -2.43267e-09)
(4.62961 0.0568595 -2.48281e-09)
(4.75153 0.0839632 -2.59556e-09)
(4.91886 0.0982381 -2.65134e-09)
(5.06255 0.101243 -2.52811e-09)
(5.20739 0.0972093 -2.36236e-09)
(5.32332 0.0880362 -2.3987e-09)
(5.42426 0.0780016 -2.61255e-09)
(5.50402 0.067363 -2.80888e-09)
(5.56852 0.0585613 -2.75513e-09)
(5.62191 0.0503831 -2.51171e-09)
(5.66412 0.0444158 -2.26925e-09)
(5.70022 0.0380964 -2.22794e-09)
(5.72949 0.0345683 -2.41503e-09)
(5.75268 0.0281853 -2.69965e-09)
(5.77552 0.0284587 -2.81048e-09)
(5.79094 0.0176599 -2.72933e-09)
(5.80929 0.0254313 -2.47008e-09)
(5.82728 0.00164699 -2.26871e-09)
(5.83035 0.00960288 -2.41264e-09)
(4.50436 0.0176498 -2.44133e-09)
(4.60372 0.0346302 -2.49838e-09)
(4.71295 0.0463428 -2.57749e-09)
(4.87536 0.0521258 -2.58598e-09)
(5.02798 0.0539943 -2.47808e-09)
(5.19335 0.052299 -2.37512e-09)
(5.3392 0.0489881 -2.43457e-09)
(5.47675 0.0444014 -2.61402e-09)
(5.59774 0.0401275 -2.77328e-09)
(5.70521 0.0358537 -2.71617e-09)
(5.80427 0.03257 -2.48587e-09)
(5.88981 0.0294663 -2.24801e-09)
(5.9735 0.0270789 -2.21197e-09)
(6.0419 0.0249612 -2.40459e-09)
(6.11501 0.0226591 -2.72114e-09)
(6.16625 0.022352 -2.87998e-09)
(6.23838 0.0179734 -2.83183e-09)
(6.26186 0.0229576 -2.61607e-09)
(6.35209 0.0119768 -2.34441e-09)
(6.31417 0.0282689 -2.50942e-09)
(4.50503 -2.1372e-08 -2.44484e-09)
(4.61613 8.27604e-08 -2.49398e-09)
(4.72638 -2.39892e-08 -2.5529e-09)
(4.88782 1.80252e-07 -2.55038e-09)
(5.03658 -3.61262e-08 -2.47679e-09)
(5.20023 5.59246e-07 -2.44604e-09)
(5.34612 2.60962e-07 -2.53523e-09)
(5.48664 1.66174e-06 -2.64842e-09)
(5.612 1.20437e-06 -2.68915e-09)
(5.72633 4.68533e-06 -2.57553e-09)
(5.83215 3.92222e-06 -2.42776e-09)
(5.92756 1.36139e-05 -2.3549e-09)
(6.01869 1.08433e-05 -2.45638e-09)
(6.10013 4.02325e-05 -2.64543e-09)
(6.17968 2.74296e-05 -2.78599e-09)
(6.248 0.000112828 -2.75348e-09)
(6.32468 8.03028e-05 -2.63481e-09)
(6.3699 0.000277369 -2.47551e-09)
(6.47116 0.000284091 -2.48057e-09)
(6.45663 0.000587034 -2.73966e-09)
(4.50436 -0.0176499 -2.44985e-09)
(4.60372 -0.03463 -2.49017e-09)
(4.71295 -0.0463429 -2.51347e-09)
(4.87536 -0.0521254 -2.49052e-09)
(5.02798 -0.0539944 -2.45843e-09)
(5.19335 -0.0522978 -2.50769e-09)
(5.3392 -0.0489878 -2.61993e-09)
(5.47675 -0.0443979 -2.65188e-09)
(5.59774 -0.0401258 -2.57058e-09)
(5.70521 -0.0358435 -2.4237e-09)
(5.80427 -0.0325649 -2.40827e-09)
(5.88982 -0.0294354 -2.54999e-09)
(5.97351 -0.0270667 -2.80155e-09)
(6.04192 -0.0248684 -2.93685e-09)
(6.11504 -0.0226316 -2.82493e-09)
(6.16631 -0.0220951 -2.56321e-09)
(6.23848 -0.0178764 -2.40055e-09)
(6.26199 -0.0223471 -2.37376e-09)
(6.35241 -0.0115264 -2.75343e-09)
(6.31457 -0.0270576 -3.04787e-09)
(4.50599 -0.0220552 -2.45931e-09)
(4.62961 -0.0568594 -2.49654e-09)
(4.75152 -0.0839632 -2.49404e-09)
(4.91886 -0.0982378 -2.44627e-09)
(5.06255 -0.101243 -2.45722e-09)
(5.20739 -0.0972084 -2.58538e-09)
(5.32332 -0.0880357 -2.6936e-09)
(5.42426 -0.0779988 -2.61797e-09)
(5.50401 -0.0673606 -2.43306e-09)
(5.56854 -0.0585531 -2.30818e-09)
(5.6219 -0.0503762 -2.42339e-09)
(5.66416 -0.0443916 -2.67473e-09)
(5.70021 -0.0380784 -2.91967e-09)
(5.72959 -0.0344964 -2.90097e-09)
(5.7527 -0.0281432 -2.66492e-09)
(5.77574 -0.0282563 -2.44419e-09)
(5.79111 -0.0175403 -2.4438e-09)
(5.80979 -0.0249406 -2.69857e-09)
(5.82795 -0.0012042 -3.12621e-09)
(5.83153 -0.00861144 -3.21015e-09)
(4.5163 -0.058347 -2.48208e-09)
(4.65253 -0.112838 -2.49185e-09)
(4.74875 -0.145648 -2.45234e-09)
(4.83272 -0.156811 -2.43508e-09)
(4.85641 -0.153281 -2.52865e-09)
(4.86094 -0.138953 -2.70128e-09)
(4.83531 -0.121288 -2.77752e-09)
(4.80039 -0.101661 -2.66214e-09)
(4.75815 -0.0849857 -2.53631e-09)
(4.71187 -0.069581 -2.53923e-09)
(4.67018 -0.0585471 -2.68334e-09)
(4.62465 -0.0482958 -2.79387e-09)
(4.58926 -0.0416811 -2.82437e-09)
(4.54829 -0.0346493 -2.7495e-09)
(4.52175 -0.030449 -2.72754e-09)
(4.48648 -0.027237 -2.76452e-09)
(4.46995 -0.021612 -2.90538e-09)
(4.44117 -0.0275651 -3.01108e-09)
(4.4287 -0.0117573 -3.03794e-09)
(4.40949 -0.0366777 -2.92075e-09)
(4.4583 -0.0662062 -2.46879e-09)
(4.23056 -0.122316 -2.55394e-09)
(3.85775 -0.133991 -2.58002e-09)
(3.49675 -0.119647 -2.54373e-09)
(3.14054 -0.0951153 -2.51326e-09)
(2.8476 -0.071245 -2.48864e-09)
(2.60059 -0.0484382 -2.44714e-09)
(2.41174 -0.031251 -2.37388e-09)
(2.26794 -0.016804 -2.33308e-09)
(2.1592 -0.00767936 -2.31802e-09)
(2.08396 -4.33219e-05 -2.35126e-09)
(2.02327 0.00350734 -2.3843e-09)
(1.98681 0.00793707 -2.45024e-09)
(1.95476 0.00784096 -2.51843e-09)
(1.93774 0.0120482 -2.62677e-09)
(1.92798 0.00762169 -2.70971e-09)
(1.90767 0.0161293 -2.80296e-09)
(1.93636 0.00657256 -2.842e-09)
(1.87349 0.0274736 -2.85426e-09)
(2.00153 0.0497139 -2.82907e-09)
(4.49957 0.193071 -0.00536959)
(3.73739 0.282053 -0.0037404)
(3.13808 0.243984 -0.00453216)
(2.55606 0.167408 -0.00348059)
(2.28501 0.117414 -0.00424212)
(2.00418 0.08394 -0.00340877)
(1.92395 0.0680351 -0.00408707)
(1.77727 0.0590871 -0.00337589)
(1.75764 0.0552312 -0.00395464)
(1.66436 0.0532983 -0.00333547)
(1.66107 0.0518648 -0.00382403)
(1.59465 0.0521866 -0.00328524)
(1.59617 0.0494922 -0.00369788)
(1.54697 0.0528627 -0.00323015)
(1.55044 0.0433804 -0.00357919)
(1.5158 0.0567624 -0.00317299)
(1.51382 0.0163673 -0.00347245)
(1.52907 0.062864 -0.003114)
(1.45543 -0.122842 -0.00341075)
(1.89142 -0.168614 -0.00299461)
(4.63616 0.109701 -0.00348581)
(4.67343 0.234265 -0.00217057)
(4.81895 0.214505 -0.0029222)
(4.6897 0.16235 -0.00188476)
(4.66926 0.107655 -0.00263979)
(4.50375 0.0645544 -0.00180399)
(4.46251 0.0358225 -0.00247696)
(4.32559 0.017485 -0.00176395)
(4.29362 0.00539872 -0.00233988)
(4.18822 -0.00252493 -0.00172117)
(4.166 -0.00803536 -0.00220819)
(4.0847 -0.0130609 -0.00167022)
(4.07017 -0.0144096 -0.00208037)
(4.00437 -0.0207634 -0.00161513)
(3.9998 -0.0149527 -0.00195754)
(3.93552 -0.0279638 -0.00155894)
(3.95581 -0.00609785 -0.00183472)
(3.84942 -0.0256295 -0.00149533)
(3.94938 0.00644921 -0.0016872)
(3.55123 0.0657396 -0.00130243)
(4.56734 0.0617304 -0.00479114)
(4.72981 0.187233 -0.00356643)
(5.06836 0.218677 -0.00428432)
(5.18686 0.196576 -0.00323411)
(5.38549 0.166705 -0.0039764)
(5.40946 0.135758 -0.00313393)
(5.50983 0.114351 -0.00380663)
(5.49532 0.0979046 -0.00309392)
(5.55169 0.0863144 -0.00367298)
(5.52879 0.0775767 -0.00305657)
(5.56435 0.0701172 -0.00354778)
(5.54343 0.0650404 -0.00301145)
(5.56547 0.0587065 -0.00342715)
(5.55135 0.0565379 -0.00295983)
(5.55801 0.0479282 -0.00331466)
(5.56205 0.0510243 -0.00290587)
(5.5406 0.0280474 -0.00322081)
(5.59533 0.0432094 -0.00285248)
(5.52683 -0.0365282 -0.00319955)
(5.6767 -0.0458137 -0.00280712)
(4.52487 0.0290959 -0.00331883)
(4.59267 0.0723133 -0.00221183)
(4.95375 0.0766717 -0.0029205)
(5.12631 0.0691933 -0.00189325)
(5.40799 0.0565435 -0.0026323)
(5.51784 0.0442393 -0.00179)
(5.70205 0.035081 -0.00245792)
(5.76796 0.0283442 -0.00174311)
(5.89658 0.02342 -0.00231836)
(5.94182 0.0196487 -0.00170102)
(6.03883 0.0166119 -0.00218823)
(6.07289 0.0137278 -0.00165192)
(6.15055 0.0120174 -0.0020612)
(6.17382 0.00879644 -0.00159713)
(6.2408 0.00932985 -0.00193835)
(6.24415 0.00452421 -0.00154219)
(6.31653 0.00867718 -0.00181251)
(6.25867 0.00482296 -0.001474)
(6.36934 0.00521 -0.00162904)
(6.08893 0.0303098 -0.00130097)
(4.55705 -1.68353e-08 -0.00470203)
(4.67598 5.62879e-08 -0.00359606)
(5.00894 5.07691e-08 -0.00429195)
(5.17217 1.9049e-07 -0.0032475)
(5.44555 1.51776e-07 -0.00398121)
(5.55907 4.21324e-07 -0.00313425)
(5.75054 4.07641e-07 -0.00380412)
(5.82856 1.05066e-06 -0.00308979)
(5.97043 1.57598e-06 -0.00366872)
(6.03223 2.83457e-06 -0.00305249)
(6.14372 5.39147e-06 -0.00354393)
(6.19786 6.99754e-06 -0.00300771)
(6.28619 1.66036e-05 -0.00342319)
(6.33759 1.72527e-05 -0.00295578)
(6.40083 4.7169e-05 -0.00331161)
(6.46025 4.37613e-05 -0.0029034)
(6.48848 0.00012835 -0.00322436)
(6.57868 0.000131263 -0.00285447)
(6.57583 0.000375771 -0.00322048)
(6.68288 0.000559038 -0.0028354)
(4.52487 -0.029096 -0.00331883)
(4.59267 -0.0723132 -0.00221183)
(4.95375 -0.0766718 -0.0029205)
(5.12631 -0.0691928 -0.00189325)
(5.40799 -0.0565434 -0.0026323)
(5.51784 -0.044238 -0.00179)
(5.70205 -0.0350806 -0.00245792)
(5.76796 -0.0283408 -0.00174311)
(5.89657 -0.0234185 -0.00231836)
(5.94182 -0.0196388 -0.00170102)
(6.03882 -0.0166071 -0.00218822)
(6.07291 -0.0136983 -0.00165192)
(6.15054 -0.0120059 -0.00206119)
(6.17387 -0.00870618 -0.00159714)
(6.2408 -0.00930824 -0.00193832)
(6.24428 -0.00425068 -0.00154218)
(6.31659 -0.00862758 -0.00181248)
(6.25898 -0.00409639 -0.00147395)
(6.36971 -0.00496458 -0.00162914)
(6.08971 -0.0288541 -0.00130082)
(4.56734 -0.0617305 -0.00479114)
(4.72981 -0.187233 -0.00356643)
(5.06836 -0.218677 -0.00428432)
(5.18687 -0.196576 -0.00323411)
(5.38549 -0.166705 -0.0039764)
(5.40946 -0.135758 -0.00313393)
(5.50983 -0.11435 -0.00380662)
(5.49533 -0.0979031 -0.00309393)
(5.55169 -0.0863111 -0.00367298)
(5.52881 -0.0775723 -0.00305658)
(5.56435 -0.0701067 -0.00354776)
(5.54348 -0.0650279 -0.00301147)
(5.56547 -0.0586755 -0.00342711)
(5.55146 -0.0565015 -0.00295989)
(5.55804 -0.0478425 -0.00331457)
(5.56233 -0.050913 -0.002906)
(5.54079 -0.0278143 -0.00322063)
(5.59598 -0.0429108 -0.00285266)
(5.52751 0.0372045 -0.00319922)
(5.67825 0.0465546 -0.00280718)
(4.63616 -0.109701 -0.00348581)
(4.67343 -0.234264 -0.00217057)
(4.81895 -0.214505 -0.0029222)
(4.6897 -0.162349 -0.00188476)
(4.66926 -0.107655 -0.00263979)
(4.50375 -0.0645538 -0.00180399)
(4.46251 -0.035822 -0.00247695)
(4.3256 -0.0174835 -0.00176395)
(4.29362 -0.00539712 -0.00233988)
(4.18824 0.00252931 -0.00172117)
(4.166 0.00803931 -0.00220818)
(4.08476 0.0130745 -0.00167023)
(4.07017 0.0144158 -0.00208034)
(4.00455 0.0208088 -0.00161517)
(3.99981 0.0149518 -0.00195745)
(3.93603 0.0281127 -0.00155904)
(3.95585 0.00605787 -0.00183452)
(3.85082 0.0260491 -0.0014955)
(3.94972 -0.00641066 -0.00168696)
(3.55509 -0.064733 -0.00130262)
(4.49957 -0.193071 -0.00536959)
(3.73739 -0.282053 -0.0037404)
(3.13808 -0.243984 -0.00453216)
(2.55606 -0.167408 -0.00348059)
(2.28501 -0.117414 -0.00424212)
(2.00418 -0.08394 -0.00340877)
(1.92396 -0.0680347 -0.00408707)
(1.77727 -0.0590871 -0.00337589)
(1.75765 -0.05523 -0.00395464)
(1.66437 -0.0532987 -0.00333547)
(1.66108 -0.0518608 -0.00382402)
(1.59469 -0.0521882 -0.00328525)
(1.59621 -0.0494796 -0.00369786)
(1.54706 -0.0528672 -0.0032302)
(1.55058 -0.0433437 -0.00357912)
(1.51601 -0.0567689 -0.00317313)
(1.51426 -0.0162759 -0.00347216)
(1.52958 -0.0629008 -0.00311461)
(1.45646 0.122939 -0.00340925)
(1.89342 0.167998 -0.00299725)
(3.51396 0.420202 27.0249)
(2.808 0.15087 27.0544)
(2.05748 0.0460852 27.0484)
(1.8489 -0.0217919 27.05)
(1.57094 -0.042822 27.0454)
(1.55313 -0.0497465 27.0492)
(1.39682 -0.0509263 27.0478)
(1.42058 -0.0499207 27.0527)
(1.30705 -0.0487378 27.0531)
(1.33899 -0.0475678 27.0584)
(1.24931 -0.0460321 27.0594)
(1.28173 -0.0460107 27.0634)
(1.20883 -0.0429276 27.0636)
(1.2397 -0.0456579 27.0656)
(1.17884 -0.0366551 27.0647)
(1.20811 -0.0468482 27.0646)
(1.15354 -0.0158895 27.0637)
(1.17057 -0.0450904 27.0611)
(1.14746 0.0930679 27.0627)
(0.923358 0.122925 27.0503)
(4.60327 0.549128 27.05)
(4.79834 0.379424 27.071)
(4.50972 0.291438 27.0573)
(4.45568 0.192479 27.0492)
(4.1653 0.136011 27.0375)
(4.13525 0.10442 27.037)
(3.91229 0.0847181 27.0352)
(3.91293 0.0733045 27.0403)
(3.74091 0.0646482 27.0443)
(3.75829 0.0591765 27.0538)
(3.62237 0.0539006 27.0627)
(3.64809 0.0515042 27.073)
(3.53768 0.0461917 27.0806)
(3.56883 0.0476978 27.0863)
(3.47438 0.0371076 27.0899)
(3.51637 0.0474799 27.0889)
(3.42195 0.018494 27.0906)
(3.50775 0.0388864 27.0814)
(3.37011 -0.0152397 27.0871)
(3.71636 -0.0720837 27.0512)
(4.72281 0.288717 27.0517)
(5.2098 0.211917 27.0684)
(5.32928 0.191466 27.0483)
(5.57699 0.131902 27.0353)
(5.53064 0.0950931 27.0153)
(5.65833 0.0696272 27.0098)
(5.57821 0.0512961 27.0035)
(5.66233 0.0386248 27.0064)
(5.58231 0.0287375 27.0055)
(5.64502 0.0206832 27.0118)
(5.57357 0.01496 27.0184)
(5.62292 0.00878845 27.033)
(5.56308 0.00631587 27.0475)
(5.59954 0.000327293 27.0631)
(5.5551 0.00225712 27.075)
(5.56999 -0.00541967 27.0829)
(5.55377 0.00714758 27.0894)
(5.51596 -0.00408573 27.0901)
(5.54409 0.0387813 27.0924)
(5.39486 0.0555325 27.0695)
(4.70078 0.169333 27.0604)
(5.12654 0.131653 27.0779)
(5.34532 0.124777 27.0595)
(5.69497 0.0953606 27.0442)
(5.77221 0.0768991 27.0241)
(6.00393 0.0647824 27.0159)
(6.03027 0.0559594 27.0099)
(6.19756 0.0501239 27.011)
(6.20409 0.0450428 27.0098)
(6.3319 0.0411865 27.0114)
(6.32867 0.0374276 27.0149)
(6.43126 0.0347518 27.0253)
(6.42175 0.0311887 27.0403)
(6.50955 0.0301711 27.0587)
(6.49135 0.0248627 27.0752)
(6.57663 0.027395 27.0889)
(6.54267 0.0157004 27.0975)
(6.65507 0.0218884 27.1064)
(6.59445 0.00431843 27.1075)
(6.82685 -0.00981498 27.0964)
(4.70218 -7.16484e-09 27.0556)
(5.12335 1.8405e-08 27.0714)
(5.35234 -9.76272e-08 27.0502)
(5.71688 1.61807e-07 27.0351)
(5.8089 9.02186e-08 27.0128)
(6.05666 7.28592e-07 27.0049)
(6.10237 5.70694e-07 26.9973)
(6.28859 1.7697e-06 26.9991)
(6.318 1.96275e-06 26.9962)
(6.46484 4.32312e-06 26.9979)
(6.48621 5.62675e-06 26.9987)
(6.60389 1.41036e-05 27.0085)
(6.62241 1.12036e-05 27.0217)
(6.71401 5.28139e-05 27.0414)
(6.73578 1.54938e-05 27.0579)
(6.7928 0.000173514 27.0744)
(6.83331 3.59629e-05 27.0825)
(6.82639 0.00045878 27.0946)
(6.90101 0.00016503 27.0949)
(6.79143 0.000691646 27.0892)
(4.70078 -0.169333 27.0604)
(5.12654 -0.131653 27.0779)
(5.34532 -0.124777 27.0595)
(5.69497 -0.0953604 27.0442)
(5.77221 -0.0768988 27.0241)
(6.00393 -0.0647814 27.0159)
(6.03027 -0.0559581 27.0099)
(6.19756 -0.0501215 27.011)
(6.20409 -0.0450384 27.0097)
(6.33191 -0.0411816 27.0114)
(6.32867 -0.0374137 27.0148)
(6.43129 -0.0347381 27.0253)
(6.42175 -0.0311538 27.0402)
(6.50961 -0.0301209 27.0589)
(6.49137 -0.0247861 27.075)
(6.57677 -0.0272317 27.0892)
(6.54281 -0.0155113 27.0972)
(6.65535 -0.0214403 27.1067)
(6.59489 -0.00368359 27.1072)
(6.82756 0.0109341 27.0965)
(4.72281 -0.288717 27.0517)
(5.2098 -0.211917 27.0684)
(5.32928 -0.191467 27.0483)
(5.57699 -0.131902 27.0353)
(5.53064 -0.0950928 27.0153)
(5.65834 -0.0696262 27.0098)
(5.57821 -0.051295 27.0035)
(5.66234 -0.0386224 27.0065)
(5.58231 -0.0287342 27.0055)
(5.64504 -0.0206773 27.0119)
(5.57357 -0.0149515 27.0183)
(5.62298 -0.00876883 27.0332)
(5.56307 -0.00630232 27.0471)
(5.59969 -0.000252174 27.0636)
(5.55511 -0.00225311 27.0743)
(5.57036 0.00566712 27.084)
(5.55393 -0.00717299 27.0879)
(5.51678 0.00471524 27.092)
(5.54491 -0.0386336 27.0901)
(5.39694 -0.0543057 27.0723)
(4.60327 -0.549128 27.05)
(4.79834 -0.379424 27.071)
(4.50972 -0.291438 27.0573)
(4.45568 -0.192479 27.0492)
(4.1653 -0.136011 27.0375)
(4.13525 -0.10442 27.037)
(3.91229 -0.0847172 27.0352)
(3.91294 -0.0733039 27.0403)
(3.74092 -0.0646452 27.0443)
(3.75831 -0.0591755 27.0538)
(3.62238 -0.0538917 27.0626)
(3.64814 -0.0515015 27.0731)
(3.53771 -0.0461692 27.0804)
(3.56897 -0.0476826 27.0867)
(3.47452 -0.0370586 27.089)
(3.51667 -0.0474158 27.0903)
(3.42243 -0.0183817 27.0882)
(3.50845 -0.0387 27.0855)
(3.37137 0.0155726 27.0805)
(3.71827 0.072249 27.0617)
(3.51396 -0.420202 27.0249)
(2.808 -0.15087 27.0544)
(2.05748 -0.0460853 27.0484)
(1.8489 0.0217919 27.05)
(1.57095 0.0428219 27.0454)
(1.55313 0.0497467 27.0492)
(1.39682 0.0509262 27.0478)
(1.42059 0.0499212 27.0527)
(1.30706 0.0487376 27.0531)
(1.339 0.0475691 27.0584)
(1.24931 0.0460305 27.0594)
(1.28176 0.0460136 27.0635)
(1.20886 0.0429206 27.0635)
(1.23978 0.0456638 27.0657)
(1.17892 0.0366324 27.0645)
(1.20829 0.0468594 27.0651)
(1.15385 0.0158362 27.0629)
(1.17099 0.0451659 27.0625)
(1.14836 -0.0930573 27.0599)
(0.92496 -0.122383 27.0571)
(1.05735 -0.155433 -27.0765)
(1.16217 -0.143296 -27.196)
(1.12404 -0.113646 -27.2891)
(1.14536 -0.110491 -27.3676)
(1.11788 -0.110348 -27.4225)
(1.13531 -0.110372 -27.4599)
(1.11457 -0.110711 -27.4807)
(1.12969 -0.11063 -27.4932)
(1.11369 -0.110765 -27.4989)
(1.12697 -0.110629 -27.5023)
(1.11418 -0.110687 -27.5034)
(1.12583 -0.110563 -27.5044)
(1.11519 -0.110597 -27.5045)
(1.12551 -0.110496 -27.5048)
(1.11654 -0.110522 -27.5048)
(1.12598 -0.110441 -27.505)
(1.11859 -0.110463 -27.505)
(1.12765 -0.110399 -27.5051)
(1.12171 -0.110419 -27.5051)
(1.13046 -0.110367 -27.5052)
(1.12552 -0.110383 -27.5052)
(1.13367 -0.110338 -27.5052)
(1.12921 -0.110351 -27.5052)
(1.13655 -0.110311 -27.5052)
(1.1324 -0.110321 -27.5052)
(1.13919 -0.110285 -27.5052)
(1.13565 -0.110294 -27.5051)
(1.1424 -0.110262 -27.5051)
(1.13977 -0.110271 -27.5051)
(1.14672 -0.110244 -27.505)
(1.14491 -0.110254 -27.505)
(1.15179 -0.110231 -27.505)
(1.15034 -0.11024 -27.505)
(1.15673 -0.110219 -27.505)
(1.15526 -0.110226 -27.5049)
(1.16102 -0.110205 -27.5049)
(1.15953 -0.110209 -27.5049)
(1.16492 -0.110186 -27.5048)
(1.16373 -0.110188 -27.5048)
(1.16914 -0.110167 -27.5048)
(1.16855 -0.110169 -27.5047)
(1.17424 -0.110152 -27.5047)
(1.17437 -0.110157 -27.5047)
(1.18034 -0.110143 -27.5047)
(1.18101 -0.110149 -27.5047)
(1.18695 -0.110137 -27.5047)
(1.18767 -0.11014 -27.5047)
(1.19311 -0.110127 -27.5047)
(1.19344 -0.110128 -27.5047)
(1.19813 -0.110113 -27.5047)
(1.19808 -0.110109 -27.5047)
(1.20233 -0.110093 -27.5047)