/*--------------------------------*- C++ -*----------------------------------*\
  =========                 |
  \\      /  F ield         | OpenFOAM: The Open Source CFD Toolbox
   \\    /   O peration     | Website:  https://openfoam.org
    \\  /    A nd           | Version:  7
     \\/     M anipulation  |
\*---------------------------------------------------------------------------*/
FoamFile
{
    version     2.0;
    format      ascii;
    class       volScalarField;
    location    "1.81";
    object      pPrime2Mean;
}
// * * * * * * * * * * * * * * * * * * * * * * * * * * * * * * * * * * * * * //

dimensions      [2 -2 -4 0 0 0 0];

internalField   nonuniform List<scalar> 
4950
(
802052
801107
801151
800131
800114
798883
798732
797308
796996
795420
794961
793286
792711
790976
790310
788526
787783
785953
785167
783475
802150
801143
801151
800094
800062
798816
798666
797238
796933
795354
794901
793221
792648
790906
790237
788445
787694
785857
785045
783385
802064
801052
801072
800042
800021
798790
798639
797219
796911
795339
794885
793212
792641
790906
790243
788457
787712
785873
785075
783278
802173
801135
801130
800064
800025
798776
798623
797196
796895
795322
794874
793199
792631
790892
790228
788438
787684
785849
785017
783255
802076
801049
801064
800029
800007
798777
798625
797205
796899
795329
794876
793205
792635
790902
790241
788457
787712
785874
785062
783232
802173
801135
801130
800064
800025
798776
798623
797196
796895
795322
794874
793199
792631
790892
790228
788438
787684
785849
785017
783255
802064
801052
801072
800042
800021
798790
798639
797219
796911
795339
794885
793212
792640
790906
790243
788457
787712
785874
785074
783279
802150
801143
801151
800095
800062
798816
798666
797238
796932
795354
794901
793221
792648
790906
790237
788445
787693
785858
785044
783386
802052
801107
801151
800131
800114
798883
798732
797308
796996
795420
794961
793286
792711
790976
790311
788526
787783
785953
785166
783476
801030
799697
800050
798724
799080
797610
797788
796142
796126
794359
794178
792342
792025
790153
789718
787819
787275
785344
784729
782814
801012
799624
799998
798684
799043
797588
797773
796146
796138
794386
794210
792385
792069
790205
789771
787879
787338
785416
784830
782838
801082
799709
800058
798716
799062
797592
797779
796146
796143
794387
794215
792385
792072
790202
789769
787867
787318
785378
784739
782759
801039
799637
799999
798664
799015
797555
797745
796123
796123
794377
794205
792384
792072
790212
789781
787892
787351
785416
784822
782785
801098
799711
800053
798702
799043
797571
797761
796131
796132
794379
794209
792381
792070
790202
789770
787869
787320
785376
784738
782735
801039
799637
799999
798664
799015
797555
797745
796123
796123
794377
794205
792384
792072
790212
789781
787892
787350
785416
784822
782785
801082
799709
800058
798716
799062
797592
797779
796146
796143
794387
794215
792385
792072
790202
789769
787867
787318
785378
784739
782759
801012
799624
799998
798684
799043
797588
797773
796146
796138
794386
794210
792385
792069
790205
789771
787879
787337
785416
784828
782840
801030
799697
800050
798724
799080
797610
797788
796142
796126
794359
794179
792342
792025
790153
789719
787819
787275
785345
784727
782816
800636
799303
799512
798221
798481
797106
797278
795735
795726
794026
793854
792059
791759
789905
789496
787586
787081
785108
784564
782632
800672
799324
799525
798229
798483
797103
797272
795729
795724
794029
793863
792072
791775
789922
789512
787601
787093
785116
784567
782580
800671
799331
799529
798226
798471
797083
797250
795712
795713
794023
793861
792073
791780
789928
789521
787611
787102
785124
784567
782568
800692
799343
799537
798231
798474
797084
797248
795707
795707
794018
793856
792069
791776
789926
789521
787611
787104
785124
784568
782563
800681
799340
799535
798228
798468
797076
797241
795702
795706
794018
793858
792071
791778
789928
789523
787613
787106
785126
784568
782568
800692
799343
799537
798231
798474
797084
797248
795707
795707
794018
793856
792069
791776
789926
789521
787611
787104
785124
784568
782563
800671
799331
799529
798226
798471
797083
797250
795712
795713
794023
793861
792073
791780
789928
789521
787611
787102
785124
784566
782569
800672
799324
799525
798229
798483
797103
797272
795729
795724
794029
793863
792072
791775
789922
789512
787601
787092
785117
784566
782582
800636
799303
799512
798221
798481
797106
797278
795735
795726
794026
793854
792059
791759
789905
789496
787587
787080
785109
784561
782636
801030
799697
800050
798724
799080
797610
797788
796142
796127
794359
794179
792342
792025
790153
789719
787819
787275
785344
784729
782814
801012
799624
799998
798684
799043
797588
797773
796146
796138
794386
794210
792385
792069
790205
789771
787879
787338
785416
784830
782838
801083
799709
800058
798716
799062
797592
797779
796146
796143
794387
794215
792385
792072
790202
789769
787867
787318
785378
784739
782759
801039
799637
799999
798664
799015
797555
797745
796124
796123
794377
794205
792384
792072
790212
789782
787892
787351
785416
784822
782785
801098
799711
800053
798702
799044
797571
797761
796131
796132
794379
794209
792381
792070
790202
789770
787869
787320
785376
784738
782735
801039
799637
799999
798664
799015
797555
797745
796124
796123
794377
794205
792384
792072
790212
789782
787892
787351
785416
784822
782786
801083
799709
800058
798716
799062
797592
797779
796146
796143
794387
794215
792385
792072
790203
789769
787867
787318
785379
784739
782759
801012
799624
799998
798684
799043
797588
797773
796146
796138
794386
794210
792385
792069
790205
789771
787879
787337
785417
784828
782840
801030
799697
800050
798724
799080
797610
797788
796142
796127
794359
794179
792342
792025
790153
789719
787819
787275
785345
784727
782816
802052
801108
801152
800131
800114
798883
798732
797308
796996
795420
794961
793286
792712
790976
790311
788526
787783
785953
785167
783475
802150
801143
801152
800095
800062
798816
798667
797238
796933
795354
794901
793221
792648
790906
790237
788445
787694
785857
785045
783386
802064
801052
801072
800042
800021
798791
798640
797219
796911
795340
794885
793213
792641
790907
790243
788457
787712
785873
785075
783279
802173
801135
801130
800064
800026
798776
798623
797197
796895
795322
794874
793199
792631
790892
790228
788438
787685
785849
785017
783255
802076
801050
801064
800030
800008
798777
798625
797205
796899
795329
794876
793205
792635
790903
790241
788457
787712
785875
785062
783232
802173
801135
801130
800064
800026
798776
798623
797197
796895
795322
794874
793199
792631
790892
790228
788438
787684
785849
785017
783255
802064
801052
801072
800042
800021
798791
798640
797219
796911
795340
794885
793213
792641
790907
790243
788457
787712
785874
785074
783279
802150
801143
801152
800095
800062
798816
798667
797238
796933
795354
794901
793221
792648
790906
790237
788445
787693
785858
785044
783386
802052
801108
801152
800131
800114
798883
798732
797308
796996
795420
794961
793286
792712
790976
790311
788527
787783
785953
785166
783476
781089
773196
769753
761678
757534
749108
744366
735638
730351
721349
715554
706300
700033
690547
683842
674143
667029
657134
649642
639567
631724
621485
613318
602930
594464
583941
575202
564559
555571
544823
535608
524769
515352
504438
494841
483866
474114
463096
453213
442170
432185
421140
411069
400007
389825
378754
368532
357519
347299
336365
326178
315346
305219
294505
284462
273884
263947
253521
243714
233456
223803
213729
204255
194383
185112
175461
166419
157006
148223
139070
130573
121702
113526
104956
97135.1
88896.7
81466.4
73583.6
66592.4
59101.6
52588.2
45525.3
39556.5
32963.3
27587.1
21589.9
16953.8
11463.2
7545.02
3333.07
780824
772800
769325
761222
757063
748614
743857
735110
729809
720794
714989
705725
699451
689959
683249
673547
666432
656536
649043
638970
631128
620893
612728
602345
593883
583367
574632
563997
555014
544274
535066
524236
514826
503921
494332
483367
473623
462614
452740
441708
431731
420696
410635
399583
389410
378350
368137
357134
346924
336000
325823
315000
304883
294180
284146
273578
263651
253234
243437
233189
223545
213482
204016
194154
184892
175251
166218
156815
148041
138897
130410
121547
113380
104819
97007
88777.5
81355.6
73481.6
66498.7
59016.5
52511.2
45456.6
39495.6
32910.4
27541.7
21552.1
16923.1
11439.4
7527.82
3321.41
780659
772883
769430
761360
757216
748792
744048
735321
730032
721033
715238
705987
699720
690238
683533
673838
666726
656835
649345
639275
631434
621200
613036
602652
594190
583672
574936
564298
555313
544570
535359
524526
515113
504203
494611
483641
473893
462879
453001
441963
431982
420941
410874
399817
389639
378573
368355
357346
347130
336200
326018
315190
305067
294357
284318
273744
263811
253389
243586
233332
223683
213613
204142
194275
185007
175360
166322
156913
148134
138985
130492
121624
113451
104886
97068.7
88834.1
81407.6
73528.7
66541.3
59054.4
52544.9
45485.9
39521.1
32931.8
27559.6
21566.4
16934.3
11447.5
7532.59
3324.84
780670
772661
769163
761057
756896
748445
743684
734934
729630
720613
714806
705541
699265
689772
683060
673358
666240
656345
648851
638778
630936
620701
612536
602153
593691
583176
574442
563808
554825
544087
534880
524052
514643
503739
494152
483189
473447
462440
452568
441538
431563
420531
410471
399422
389252
378193
367983
356983
346775
335854
325680
314860
304746
294045
284014
273449
263525
253112
243318
233072
223432
213372
203909
194051
184792
175154
166124
156725
147954
138814
130330
121470
113307
104750
96941.4
88715.5
81297.4
73427.1
66447.9
58969.5
52468
45417.2
39460.2
32878.8
27514.1
21528.4
16903.5
11423.7
7516.14
3313.71
780618
772861
769392
761323
757181
748757
744013
735285
729996
720996
715201
705949
699682
690199
683494
673798
666686
656794
649304
639233
631392
621157
612992
602608
594145
583627
574891
564253
555268
544524
535313
524479
515066
504156
494564
483594
473846
462832
452954
441916
431935
420895
410828
399771
389594
378528
368310
357302
347086
336157
325975
315147
305025
294316
284277
273704
263772
253350
243549
233295
223647
213578
204108
194241
184975
175328
166291
156884
148105
138957
130466
121599
113428
104863
97047.1
88813.7
81388.3
73510.6
66524.5
59038.9
52530.6
45472.9
39509.3
32921.3
27550.4
21558.4
16927.7
11442.2
7528.45
3322.08
780671
772656
769155
761047
756885
748434
743672
734921
729617
720600
714792
705527
699251
689758
683046
673344
666226
656331
648837
638764
630922
620687
612522
602140
593678
583163
574429
563795
554813
544075
534868
524040
514631
503728
494141
483178
473436
462429
452557
441527
431553
420521
410461
399412
389242
378184
367974
356974
346766
335845
325671
314852
304738
294037
284007
273442
263518
253105
243311
233066
223426
213365
203903
194045
184786
175148
166119
156720
147949
138809
130325
121466
113303
104746
96937.9
88712.3
81294.4
73424.3
66445.4
58967.1
52465.9
45415.3
39458.5
32877.3
27512.8
21527.2
16902.5
11423
7515.62
3313.31
780657
772878
769425
761357
757215
748792
744048
735322
730033
721034
715240
705988
699722
690240
683536
673840
666729
656838
649348
639277
631437
621202
613038
602655
594192
583674
574938
564301
555315
544572
535362
524528
515115
504205
494613
483643
473895
462881
453003
441965
431984
420943
410876
399819
389641
378575
368357
357348
347132
336202
326020
315191
305069
294359
284320
273746
263813
253391
243588
233334
223685
213615
204144
194277
185009
175362
166324
156915
148136
138986
130494
121626
113453
104887
97070.5
88835.9
81409.3
73530.4
66543
59056
52546.5
45487.4
39522.5
32933.1
27560.8
21567.4
16935.3
11448.3
7533.21
3325.15
780820
772779
769294
761188
757026
748576
743817
735068
729767
720751
714945
705681
699407
689915
683205
673503
666387
656492
649000
638927
631086
620850
612686
602304
593842
583326
574592
563957
554975
544236
535028
524199
514790
503885
494297
483332
473589
462581
452707
441675
431699
420665
410604
399552
389381
378320
368108
357106
346896
335973
325797
314975
304858
294155
284122
273554
263628
253212
243416
233168
223525
213462
203997
194136
184874
175234
166202
156799
148026
138883
130396
121534
113367
104807
96995.8
88767
81345.8
73472.5
66490.3
59008.7
52504.1
45450.2
39490
32905.4
27537.5
21548.4
16920.2
11437.1
7526.22
3320.21
781080
773186
769752
761685
757547
749125
744386
735661
730375
721375
715582
706329
700063
690577
683873
674174
667061
657166
649674
639599
631756
621517
613349
602961
594495
583972
575232
564589
555600
544851
535637
524797
515380
504465
494868
483893
474140
463121
453238
442195
432209
421164
411092
400030
389848
378776
368554
357540
347320
336385
326198
315365
305238
294523
284480
273901
263964
253537
243730
233472
223818
213744
204269
194397
185125
175474
166431
157018
148235
139081
130584
121712
113535
104965
97143.7
88904.8
81474
73590.7
66599
59107.7
52593.8
45530.4
39561.1
32967.4
27590.7
21593.1
16956.6
11465.5
7546.77
3334.18
781149
772992
769886
761647
757727
749175
744582
735755
730570
721487
715764
706441
700224
690680
684010
674260
667171
657233
649758
639646
631815
621544
613385
602969
594510
583964
575230
564567
555583
544818
535608
524756
515343
504417
494825
483841
474094
463068
453190
442142
432162
421113
411047
399982
389806
378732
368515
357500
347286
336350
326170
315337
305216
294502
284465
273888
263957
253532
243731
233475
223828
213756
204287
194418
185152
175503
166467
157056
148279
139127
130637
121765
113595
105025
97209.7
88969.1
81543.7
73657.1
66669.5
59173
52661
45589.9
39619.7
33015.7
27634.4
21624
16979.7
11472.4
7541.98
3320.13
781306
773305
770224
762011
758103
749578
745001
736196
731025
721961
716249
706941
700733
691200
684537
674795
667711
657778
650306
640196
632367
622096
613938
603520
595060
584511
575774
565107
556120
545350
536135
525276
515858
504925
495327
484335
474581
463547
453661
442604
432617
421558
411485
400410
390225
379142
368916
357892
347668
336723
326533
315690
305560
294836
284789
274202
264262
253827
244017
233750
224094
214012
204534
194654
185380
175720
166675
157255
148468
139306
130807
121925
113746
105166
97342.3
89092.4
81658.1
73762.3
66765.9
59260.5
52740
45660.3
39681.8
33069.4
27680.2
21662
17010.3
11495.5
7558.35
3330.37
781146
773085
769974
761745
757827
749275
744681
735853
730668
721586
715863
706541
700323
690780
684109
674361
667272
657334
649858
639746
631915
621644
613485
603069
594609
584063
575328
564665
555681
544915
535704
524851
515437
504511
494918
483933
474184
463157
453278
442229
432248
421197
411130
400064
389886
378811
368592
357576
347360
336423
326241
315406
305283
294568
284529
273950
264018
253591
243789
233530
223882
213808
204338
194466
185199
175548
166510
157098
148319
139165
130673
121799
113627
105055
97238
88995.5
81568.3
73679.9
66690.4
59192.1
52678.4
45605.6
39633.6
33027.9
27644.9
21633
16987.1
11478.3
7546.66
3323.1
781235
773327
770249
762041
758136
749612
745034
736229
731058
721994
716283
706974
700767
691233
684569
674827
667743
657809
650337
640227
632397
622126
613967
603549
595088
584538
575801
565134
556145
545375
536160
525300
515882
504948
495350
484357
474603
463568
453682
442625
432637
421578
411504
400429
390243
379159
368933
357908
347684
336739
326548
315705
305574
294850
284803
274215
264275
253839
244029
233762
224105
214023
204544
194664
185389
175729
166684
157262
148476
139313
130814
121932
113752
105172
97347.6
89097.3
81662.6
73766.5
66769.9
59264.1
52743.3
45663.2
39684.5
33071.8
27682.3
21663.8
17011.9
11496.7
7559.55
3331.06
781111
773062
769949
761724
757808
749257
744662
735833
730647
721565
715842
706520
700302
690759
684088
674340
667250
657313
649837
639726
631894
621623
613465
603049
594589
584043
575309
564646
555661
544896
535685
524832
515419
504492
494900
483915
474167
463140
453261
442212
432231
421181
411114
400048
389870
378795
368577
357561
347345
336408
326226
315392
305270
294555
284516
273937
264005
253579
243777
233519
223870
213797
204327
194455
185189
175538
166501
157088
148310
139156
130664
121791
113620
105048
97231.1
88989
81562.2
73674.1
66685.1
59187.2
52673.9
45601.4
39629.9
33024.6
27642
21630.5
16985.1
11476.6
7545.58
3322.26
781234
773326
770251
762045
758143
749621
745044
736239
731069
722005
716294
706986
700779
691245
684582
674840
667756
657822
650350
640239
632410
622138
613979
603561
595100
584550
575813
565145
556157
545386
536171
525311
515892
504959
495360
484368
474613
463578
453692
442635
432646
421587
411513
400438
390252
379168
368942
357917
347692
336747
326556
315713
305582
294858
284810
274223
264282
253846
244036
233768
224111
214029
204550
194670
185395
175735
166689
157268
148481
139318
130818
121936
113757
105176
97351.6
89101
81666.2
73769.8
66773
59266.9
52745.9
45665.7
39686.7
33073.8
27684.1
21665.4
17013.2
11497.8
7560.36
3331.58
781147
773075
769961
761732
757813
749261
744666
735838
730653
721570
715847
706525
700307
690764
684093
674345
667256
657318
649843
639731
631900
621629
613470
603055
594595
584049
575314
564652
555667
544902
535691
524838
515425
504498
494906
483921
474173
463146
453267
442218
432237
421187
411120
400054
389876
378801
368582
357567
347351
336414
326232
315398
305275
294560
284521
273943
264011
253584
243782
233524
223875
213802
204332
194460
185194
175542
166505
157093
148314
139160
130668
121795
113624
105051
97234.7
88992.4
81565.5
73677.2
66688
59189.9
52676.4
45603.8
39632.1
33026.5
27643.8
21632
16986.4
11477.7
7546.34
3322.77
781297
773294
770221
762016
758115
749593
745018
736215
731046
721983
716273
706965
700759
691226
684563
674822
667738
657805
650333
640223
632394
622123
613964
603547
595086
584536
575800
565133
556144
545374
536159
525300
515881
504948
495350
484357
474603
463568
453683
442626
432638
421579
411505
400430
390245
379161
368935
357910
347686
336741
326551
315707
305577
294853
284806
274218
264278
253843
244032
233765
224108
214026
204548
194668
185393
175733
166688
157267
148480
139317
130818
121936
113757
105176
97351.6
89101.1
81666.4
73770.2
66773.4
59267.4
52746.5
45666.3
39687.3
33074.4
27684.7
21665.9
17013.7
11498.3
7560.56
3331.73
781140
772962
769848
761606
757684
749131
744537
735708
730523
721439
715716
706393
700176
690632
683962
674214
667125
657187
649713
639601
631770
621500
613342
602927
594468
583922
575189
564527
555544
544780
535570
524718
515306
504381
494790
483806
474059
463034
453157
442109
432130
421081
411017
399952
389776
378703
368486
357472
347258
336324
326143
315311
305191
294478
284441
273864
263934
253510
243710
233454
223808
213736
204268
194399
185135
175486
166451
157040
148264
139112
130623
121752
113583
105013
97198.3
88958.3
81533.6
73647.6
66660.7
59164.9
52653.6
45583.3
39613.8
33010.4
27629.8
21620.2
16976.7
11470.1
7540.43
3318.93
781104
773387
770294
762222
758340
749862
745327
736529
731404
722325
716655
707323
701149
691588
684951
675182
668117
658156
650699
640563
632744
622449
614298
603859
595403
584835
576101
565417
556432
545647
536434
525561
516144
505199
495603
484600
474847
463803
453919
442854
432867
421801
411728
400646
390461
379371
369145
358115
347891
336941
326750
315902
305772
295044
284996
274405
264464
254025
244214
233943
224286
214200
204721
194837
185561
175898
166852
157426
148639
139471
130970
122083
113902
105315
97487.6
89230.1
81791.3
73887
66885
59370
52843
45752.6
39767.8
33143.4
27748.9
21717.2
17061.6
11530
7588.87
3342.28
781013
773364
770274
762205
758323
749846
745310
736513
731387
722310
716639
707308
701135
691574
684937
675168
668104
658144
650686
640551
632732
622438
614287
603849
595393
584825
576092
565409
556424
545639
536426
525554
516137
505193
495596
484594
474841
463798
453914
442849
432862
421797
411724
400642
390458
379368
369142
358112
347888
336938
326748
315900
305769
295042
284994
274403
264462
254023
244212
233942
224285
214199
204720
194836
185560
175897
166851
157425
148638
139470
130969
122082
113901
105314
97486.9
89229.5
81790.7
73886.4
66884.4
59369.5
52842.5
45752.1
39767.4
33143
27748.5
21716.9
17061.4
11529.8
7588.61
3342.03
781050
773378
770287
762218
758338
749861
745325
736526
731401
722323
716653
707321
701148
691587
684950
675180
668116
658155
650698
640562
632743
622448
614297
603858
595402
584834
576101
565417
556431
545646
536433
525561
516144
505199
495602
484600
474847
463803
453919
442854
432867
421801
411728
400646
390461
379372
369146
358115
347892
336941
326751
315903
305772
295044
284997
274405
264465
254025
244214
233944
224287
214201
204722
194838
185562
175898
166852
157427
148639
139472
130971
122084
113902
105316
97488.2
89230.7
81791.9
73887.6
66885.5
59370.5
52843.5
45753.1
39768.3
33143.8
27749.3
21717.5
17062
11530.3
7589.14
3342.26
780990
773339
770249
762185
758308
749831
745295
736497
731371
722294
716624
707293
701119
691559
684922
675153
668089
658129
650672
640537
632718
622424
614273
603835
595379
584812
576079
565395
556410
545626
536413
525541
516125
505180
495584
484582
474829
463786
453902
442837
432851
421785
411713
400632
390447
379358
369132
358102
347878
336928
326738
315891
305760
295033
284986
274394
264454
254015
244205
233934
224277
214192
204713
194829
185554
175890
166845
157419
148632
139465
130964
122077
113896
105310
97482.8
89225.6
81787
73883
66881.3
59366.5
52839.9
45749.7
39765.2
33141.1
27746.9
21715.4
17060.3
11528.8
7587.94
3341.48
781050
773372
770282
762218
758340
749864
745328
736529
731404
722325
716656
707324
701150
691590
684953
675183
668119
658158
650700
640565
632745
622451
614299
603860
595405
584836
576103
565419
556433
545648
536435
525563
516146
505201
495604
484601
474848
463805
453920
442855
432868
421802
411729
400648
390463
379373
369147
358116
347893
336942
326752
315904
305773
295045
284998
274406
264465
254026
244215
233944
224287
214201
204722
194838
185563
175899
166853
157427
148640
139472
130971
122084
113903
105316
97488.6
89231.2
81792.3
73888
66885.9
59370.9
52843.9
45753.4
39768.6
33144.1
27749.6
21717.8
17062.2
11530.5
7589.33
3342.31
780990
773338
770247
762184
758308
749832
745295
736497
731371
722294
716624
707293
701120
691560
684923
675154
668090
658130
650672
640538
632719
622425
614274
603835
595380
584812
576079
565396
556411
545626
536414
525542
516126
505181
495585
484583
474830
463787
453903
442838
432852
421786
411714
400632
390448
379358
369133
358103
347879
336929
326739
315892
305761
295033
284986
274395
264455
254016
244205
233935
224278
214192
204714
194830
185555
175891
166845
157420
148633
139466
130965
122078
113897
105310
97483.3
89226.1
81787.5
73883.5
66881.7
59366.9
52840.3
45750.1
39765.6
33141.4
27747.2
21715.7
17060.5
11529.1
7588.15
3341.57
781050
773372
770280
762213
758334
749857
745322
736523
731398
722320
716650
707319
701145
691584
684948
675178
668114
658153
650695
640560
632741
622446
614295
603856
595401
584832
576099
565415
556430
545645
536432
525559
516143
505198
495601
484599
474845
463802
453918
442853
432866
421800
411727
400645
390461
379371
369145
358115
347891
336940
326750
315902
305772
295044
284996
274405
264464
254025
244214
233943
224286
214200
204722
194838
185562
175898
166852
157427
148639
139472
130971
122084
113902
105316
97488.4
89231
81792.2
73887.9
66885.8
59370.8
52843.9
45753.4
39768.6
33144.2
27749.6
21717.8
17062.3
11530.6
7589.42
3342.36
781009
773349
770257
762189
758309
749832
745297
736499
731374
722296
716626
707295
701122
691562
684925
675156
668092
658132
650675
640540
632721
622427
614276
603838
595382
584815
576082
565398
556413
545629
536416
525544
516128
505183
495587
484585
474832
463789
453905
442840
432853
421788
411715
400634
390450
379360
369135
358105
347881
336931
326741
315893
305763
295035
284988
274397
264457
254017
244207
233936
224280
214194
204715
194832
185556
175893
166847
157422
148634
139467
130966
122079
113898
105312
97484.7
89227.5
81788.9
73884.8
66883
59368.1
52841.4
45751.1
39766.6
33142.4
27748
21716.5
17061.2
11529.6
7588.62
3341.9
781093
773359
770264
762194
758313
749837
745302
736505
731380
722302
716632
707301
701127
691567
684930
675161
668097
658136
650679
640544
632725
622431
614280
603841
595386
584818
576085
565401
556416
545631
536418
525546
516130
505185
495589
484587
474834
463790
453906
442841
432855
421789
411716
400635
390450
379361
369135
358105
347881
336931
326741
315893
305763
295035
284988
274397
264456
254017
244207
233936
224279
214194
204715
194831
185556
175892
166847
157421
148634
139467
130966
122079
113898
105312
97484.5
89227.3
81788.7
73884.6
66882.8
59368.1
52841.4
45751.1
39766.6
33142.4
27748.1
21716.6
17061.3
11529.9
7588.91
3342.11
781149
772992
769887
761647
757727
749175
744583
735755
730570
721487
715764
706441
700224
690680
684010
674261
667172
657233
649758
639646
631815
621544
613385
602969
594510
583964
575230
564567
555583
544819
535608
524756
515343
504417
494825
483841
474094
463068
453190
442142
432162
421113
411048
399982
389806
378732
368515
357500
347286
336350
326170
315337
305216
294502
284465
273888
263957
253532
243731
233475
223828
213756
204287
194418
185152
175503
166467
157056
148279
139127
130637
121765
113595
105025
97209.7
88969.1
81543.7
73657.1
66669.5
59173
52661
45589.9
39619.7
33015.7
27634.4
21624
16979.7
11472.4
7541.98
3320.13
781306
773305
770224
762011
758103
749578
745001
736196
731025
721961
716249
706941
700733
691200
684537
674795
667711
657778
650306
640196
632367
622096
613938
603520
595060
584511
575774
565107
556120
545350
536135
525276
515858
504925
495327
484335
474581
463547
453662
442605
432617
421559
411485
400410
390225
379142
368916
357892
347668
336723
326533
315690
305560
294836
284790
274202
264262
253827
244017
233750
224094
214012
204534
194654
185380
175720
166676
157255
148468
139306
130807
121925
113746
105166
97342.4
89092.4
81658.1
73762.3
66765.9
59260.5
52740
45660.3
39681.8
33069.4
27680.2
21662
17010.3
11495.5
7558.35
3330.37
781146
773085
769974
761745
757827
749275
744681
735854
730668
721586
715863
706541
700324
690780
684109
674361
667272
657334
649858
639746
631915
621644
613485
603069
594610
584063
575328
564665
555681
544915
535704
524851
515437
504511
494918
483933
474184
463157
453279
442229
432248
421197
411130
400064
389886
378811
368592
357576
347360
336423
326241
315406
305283
294568
284529
273950
264018
253591
243789
233530
223882
213808
204338
194466
185199
175548
166510
157098
148319
139165
130673
121799
113627
105055
97238
88995.5
81568.3
73679.9
66690.5
59192.1
52678.4
45605.6
39633.6
33027.9
27645
21633
16987.1
11478.3
7546.66
3323.1
781235
773327
770249
762041
758136
749612
745034
736230
731058
721994
716283
706974
700767
691233
684569
674828
667743
657809
650337
640227
632397
622126
613967
603549
595088
584538
575801
565134
556146
545375
536160
525300
515882
504948
495350
484357
474603
463568
453682
442625
432637
421578
411504
400429
390243
379159
368933
357908
347684
336739
326548
315705
305574
294850
284803
274215
264275
253839
244029
233762
224105
214023
204544
194664
185389
175729
166684
157263
148476
139313
130814
121932
113752
105172
97347.6
89097.3
81662.7
73766.5
66769.9
59264.1
52743.3
45663.2
39684.5
33071.8
27682.3
21663.8
17011.9
11496.7
7559.55
3331.07
781111
773062
769949
761724
757808
749257
744662
735833
730647
721565
715842
706520
700303
690759
684088
674340
667251
657313
649838
639726
631895
621623
613465
603049
594589
584043
575309
564646
555661
544896
535685
524832
515419
504492
494900
483915
474167
463140
453261
442212
432231
421181
411114
400048
389870
378795
368577
357561
347345
336408
326226
315392
305270
294555
284516
273937
264005
253579
243777
233519
223870
213797
204327
194456
185189
175538
166501
157088
148310
139156
130664
121791
113620
105048
97231.1
88989
81562.2
73674.1
66685.1
59187.2
52673.9
45601.4
39629.9
33024.6
27642
21630.5
16985.1
11476.6
7545.58
3322.26
781234
773326
770251
762045
758143
749621
745044
736239
731069
722005
716294
706986
700779
691245
684582
674840
667756
657822
650350
640240
632410
622138
613979
603561
595100
584550
575813
565145
556157
545386
536171
525311
515892
504959
495360
484368
474613
463578
453692
442635
432646
421587
411513
400438
390252
379168
368942
357917
347692
336747
326556
315713
305582
294858
284810
274223
264282
253846
244036
233768
224111
214029
204550
194670
185395
175735
166689
157268
148481
139318
130818
121936
113757
105176
97351.6
89101
81666.2
73769.8
66773
59266.9
52745.9
45665.7
39686.7
33073.8
27684.1
21665.4
17013.2
11497.8
7560.36
3331.58
781147
773075
769961
761732
757813
749261
744667
735838
730653
721570
715847
706525
700308
690764
684093
674345
667256
657318
649843
639731
631900
621629
613470
603055
594595
584049
575314
564652
555667
544902
535691
524838
515425
504498
494906
483921
474173
463146
453267
442218
432237
421187
411120
400054
389876
378801
368583
357567
347351
336414
326232
315398
305275
294560
284522
273943
264011
253584
243782
233524
223875
213802
204332
194460
185194
175542
166505
157093
148314
139160
130668
121795
113624
105051
97234.7
88992.5
81565.5
73677.2
66688
59189.9
52676.4
45603.8
39632.1
33026.5
27643.8
21632
16986.4
11477.7
7546.34
3322.78
781297
773294
770221
762017
758115
749593
745018
736215
731046
721983
716273
706965
700759
691226
684563
674822
667738
657805
650333
640223
632394
622123
613964
603547
595086
584537
575800
565133
556145
545374
536159
525300
515881
504948
495350
484357
474603
463568
453683
442626
432638
421579
411505
400430
390245
379161
368935
357910
347686
336741
326551
315707
305577
294853
284806
274218
264278
253843
244032
233765
224108
214026
204548
194668
185393
175733
166688
157267
148480
139317
130818
121936
113757
105176
97351.6
89101.1
81666.4
73770.2
66773.4
59267.4
52746.5
45666.3
39687.3
33074.4
27684.7
21665.9
17013.7
11498.3
7560.56
3331.73
781140
772962
769848
761606
757684
749131
744537
735708
730523
721439
715716
706393
700176
690633
683962
674214
667125
657187
649713
639601
631771
621500
613342
602927
594468
583923
575189
564527
555544
544780
535570
524718
515306
504381
494790
483806
474059
463034
453157
442109
432130
421082
411017
399952
389776
378703
368486
357472
347258
336324
326143
315311
305191
294478
284441
273865
263934
253510
243710
233454
223808
213736
204268
194399
185135
175486
166451
157040
148264
139112