/*--------------------------------*- C++ -*----------------------------------*\
  =========                 |
  \\      /  F ield         | OpenFOAM: The Open Source CFD Toolbox
   \\    /   O peration     | Website:  https://openfoam.org
    \\  /    A nd           | Version:  7
     \\/     M anipulation  |
\*---------------------------------------------------------------------------*/
FoamFile
{
    version     2.0;
    format      ascii;
    class       volVectorField;
    location    "0.3775";
    object      UMean;
}
// * * * * * * * * * * * * * * * * * * * * * * * * * * * * * * * * * * * * * //

dimensions      [0 1 -1 0 0 0 0];

internalField   nonuniform List<vector> 
7920
(
(2.98323 0.0919075 -32.3878)
(2.26723 -0.447752 -32.4401)
(1.62861 -0.588913 -32.4402)
(1.57793 -0.639318 -32.4479)
(1.37863 -0.654199 -32.4434)
(1.43708 -0.658648 -32.4481)
(1.31762 -0.662423 -32.4444)
(1.38408 -0.662402 -32.4483)
(1.29393 -0.664361 -32.446)
(1.35407 -0.663839 -32.4494)
(1.2819 -0.665154 -32.4481)
(1.33411 -0.664446 -32.451)
(1.27475 -0.665378 -32.4502)
(1.31938 -0.664777 -32.4525)
(1.26901 -0.665216 -32.4522)
(1.30785 -0.665306 -32.4535)
(1.26061 -0.66229 -32.454)
(1.29511 -0.668183 -32.4535)
(1.24583 -0.618026 -32.457)
(1.11623 -0.616846 -32.4445)
(4.40809 0.91667 -32.4345)
(4.37834 0.806848 -32.4787)
(3.80763 0.75344 -32.4781)
(3.75292 0.691973 -32.4873)
(3.43705 0.669397 -32.4824)
(3.50211 0.659386 -32.4869)
(3.30427 0.655107 -32.4825)
(3.39556 0.653229 -32.4864)
(3.25055 0.65205 -32.4849)
(3.33936 0.651385 -32.4893)
(3.22597 0.650823 -32.4899)
(3.30579 0.650466 -32.4942)
(3.2135 0.650244 -32.4959)
(3.28303 0.650345 -32.4993)
(3.20422 0.649825 -32.5017)
(3.26796 0.651683 -32.5031)
(3.18762 0.64792 -32.5071)
(3.27669 0.656519 -32.5033)
(3.12964 0.64766 -32.5154)
(3.44487 0.653307 -32.4793)
(4.73303 0.169352 -32.4395)
(5.21092 -0.25315 -32.4741)
(5.05061 -0.39864 -32.4639)
(5.17734 -0.512541 -32.4715)
(4.95164 -0.569748 -32.4631)
(5.03625 -0.600383 -32.4679)
(4.85331 -0.61839 -32.4607)
(4.93434 -0.627967 -32.4643)
(4.79233 -0.634726 -32.4599)
(4.86959 -0.638565 -32.4651)
(4.75817 -0.641518 -32.4648)
(4.82904 -0.643028 -32.4714)
(4.73949 -0.644241 -32.4739)
(4.80236 -0.644255 -32.4802)
(4.72818 -0.645547 -32.4846)
(4.78147 -0.6426 -32.4891)
(4.72158 -0.648376 -32.4955)
(4.75335 -0.632965 -32.495)
(4.71923 -0.645263 -32.506)
(4.68275 -0.62052 -32.4784)
(4.73304 0.615786 -32.449)
(5.22422 0.695082 -32.4818)
(5.26325 0.731088 -32.47)
(5.53029 0.698362 -32.4754)
(5.42568 0.680517 -32.4669)
(5.57821 0.666521 -32.4709)
(5.45571 0.657394 -32.4637)
(5.56261 0.650772 -32.4659)
(5.45064 0.646249 -32.4606)
(5.53376 0.64243 -32.4638)
(5.43713 0.639999 -32.4628)
(5.50563 0.637872 -32.4685)
(5.42368 0.636823 -32.4712)
(5.48242 0.635916 -32.4777)
(5.41166 0.635394 -32.4827)
(5.46542 0.635896 -32.4888)
(5.39891 0.635478 -32.4957)
(5.4611 0.638176 -32.4996)
(5.38815 0.646211 -32.5074)
(5.51756 0.678909 -32.487)
(4.72469 -0.0918186 -32.4484)
(5.19365 -0.385094 -32.4796)
(5.28245 -0.478006 -32.4654)
(5.59078 -0.543839 -32.4703)
(5.53164 -0.577745 -32.4604)
(5.7181 -0.596391 -32.4643)
(5.62849 -0.60823 -32.4565)
(5.75662 -0.615067 -32.4588)
(5.66635 -0.620514 -32.4524)
(5.76087 -0.624093 -32.4551)
(5.67709 -0.627168 -32.4529)
(5.74956 -0.629085 -32.4583)
(5.67473 -0.631019 -32.4601)
(5.73211 -0.631098 -32.4669)
(5.66839 -0.633577 -32.471)
(5.71189 -0.629147 -32.4783)
(5.66754 -0.638778 -32.484)
(5.68145 -0.618749 -32.4912)
(5.68837 -0.651077 -32.497)
(5.63435 -0.638304 -32.4822)
(4.71169 0.337818 -32.452)
(5.14119 0.529975 -32.4833)
(5.24175 0.602104 -32.4691)
(5.56451 0.619954 -32.4737)
(5.52421 0.628505 -32.4635)
(5.72713 0.63061 -32.4673)
(5.65343 0.63154 -32.4594)
(5.79423 0.631199 -32.4616)
(5.71597 0.631156 -32.455)
(5.8189 0.630614 -32.4575)
(5.74314 0.63049 -32.4549)
(5.82018 0.630029 -32.4601)
(5.74997 0.630154 -32.4615)
(5.80898 0.629523 -32.4683)
(5.74749 0.63045 -32.472)
(5.79189 0.628072 -32.4795)
(5.74647 0.633489 -32.4848)
(5.76984 0.623528 -32.4927)
(5.76679 0.64889 -32.4982)
(5.76056 0.664751 -32.4843)
(4.71169 -0.337818 -32.452)
(5.14119 -0.529975 -32.4833)
(5.24175 -0.602104 -32.4691)
(5.56451 -0.619954 -32.4737)
(5.52421 -0.628505 -32.4635)
(5.72713 -0.63061 -32.4673)
(5.65343 -0.63154 -32.4594)
(5.79423 -0.631198 -32.4616)
(5.71597 -0.631156 -32.455)
(5.81889 -0.630611 -32.4576)
(5.74315 -0.630488 -32.4549)
(5.82017 -0.63002 -32.4601)
(5.74998 -0.630148 -32.4615)
(5.80895 -0.629483 -32.4684)
(5.74755 -0.630441 -32.472)
(5.7918 -0.627906 -32.4796)
(5.74662 -0.633484 -32.4847)
(5.76961 -0.622982 -32.4928)
(5.76687 -0.648658 -32.4981)
(5.76001 -0.663559 -32.4844)
(4.72469 0.0918185 -32.4484)
(5.19365 0.385094 -32.4796)
(5.28245 0.478006 -32.4654)
(5.59078 0.543839 -32.4703)
(5.53164 0.577745 -32.4604)
(5.71811 0.596391 -32.4643)
(5.62849 0.60823 -32.4565)
(5.75662 0.615067 -32.4588)
(5.66635 0.620515 -32.4524)
(5.76088 0.624095 -32.4552)
(5.67708 0.627173 -32.4528)
(5.74958 0.629091 -32.4584)
(5.67471 0.631032 -32.46)
(5.73216 0.631125 -32.4671)
(5.66835 0.633602 -32.4708)
(5.71201 0.62928 -32.4786)
(5.66751 0.638819 -32.4837)
(5.6818 0.619285 -32.4916)
(5.68863 0.651353 -32.4965)
(5.63556 0.639699 -32.4827)
(4.73304 -0.615786 -32.449)
(5.22422 -0.695082 -32.4818)
(5.26325 -0.731088 -32.47)
(5.53029 -0.698362 -32.4754)
(5.42568 -0.680517 -32.4669)
(5.57821 -0.666521 -32.4709)
(5.45571 -0.657394 -32.4637)
(5.56261 -0.650771 -32.466)
(5.45064 -0.64625 -32.4606)
(5.53376 -0.642427 -32.4639)
(5.43713 -0.639999 -32.4627)
(5.50563 -0.637862 -32.4686)
(5.42369 -0.636823 -32.471)
(5.48243 -0.635875 -32.478)
(5.41171 -0.635401 -32.4823)
(5.46543 -0.635713 -32.4895)
(5.39914 -0.635527 -32.4947)
(5.46108 -0.637654 -32.501)
(5.38868 -0.6462 -32.5055)
(5.51761 -0.678075 -32.4895)
(4.73303 -0.169352 -32.4395)
(5.21092 0.25315 -32.4741)
(5.05061 0.39864 -32.4639)
(5.17734 0.512541 -32.4715)
(4.95164 0.569748 -32.4631)
(5.03625 0.600384 -32.4679)
(4.85331 0.61839 -32.4607)
(4.93434 0.627967 -32.4643)
(4.79233 0.634728 -32.4599)
(4.86959 0.638564 -32.4651)
(4.75816 0.641525 -32.4647)
(4.82907 0.643027 -32.4716)
(4.73947 0.64426 -32.4736)
(4.80246 0.644259 -32.4807)
(4.72814 0.645591 -32.4838)
(4.78173 0.642647 -32.4903)
(4.72161 0.648455 -32.4934)
(4.75409 0.633316 -32.4984)
(4.71981 0.645544 -32.5007)
(4.68536 0.621808 -32.4865)
(4.40809 -0.91667 -32.4345)
(4.37834 -0.806848 -32.4787)
(3.80763 -0.75344 -32.4781)
(3.75292 -0.691973 -32.4873)
(3.43705 -0.669398 -32.4824)
(3.50211 -0.659386 -32.4869)
(3.30427 -0.655108 -32.4825)
(3.39556 -0.653229 -32.4865)
(3.25055 -0.652051 -32.4848)
(3.33936 -0.651384 -32.4893)
(3.22598 -0.650826 -32.4899)
(3.30581 -0.650459 -32.4943)
(3.21351 -0.650251 -32.4957)
(3.28308 -0.650321 -32.4996)
(3.20428 -0.649848 -32.5011)
(3.26809 -0.651576 -32.5042)
(3.18795 -0.648016 -32.5051)
(3.27688 -0.656208 -32.5071)
(3.1309 -0.647936 -32.5076)
(3.44523 -0.653387 -32.4953)
(2.98323 -0.0919076 -32.3878)
(2.26723 0.447752 -32.4401)
(1.62861 0.588913 -32.4402)
(1.57794 0.639318 -32.4479)
(1.37863 0.654199 -32.4434)
(1.43708 0.658648 -32.4481)
(1.31762 0.662424 -32.4444)
(1.38408 0.662402 -32.4483)
(1.29393 0.664363 -32.446)
(1.35407 0.663837 -32.4494)
(1.28191 0.665159 -32.4481)
(1.33412 0.664441 -32.451)
(1.27476 0.665392 -32.4502)
(1.31942 0.66476 -32.4526)
(1.26903 0.665258 -32.452)
(1.30796 0.665246 -32.4538)
(1.26078 0.662424 -32.4534)
(1.29537 0.668083 -32.4547)
(1.24666 0.618546 -32.4543)
(1.11774 0.617635 -32.4525)
(4.34278 0.530866 0.00738575)
(3.24045 0.797823 0.00501389)
(2.59235 0.81774 0.00621564)
(2.16595 0.805061 0.00479663)
(2.07675 0.80827 0.00584638)
(1.95676 0.818119 0.00471251)
(1.96712 0.825895 0.00557054)
(1.90712 0.832056 0.00462052)
(1.92187 0.834921 0.00531531)
(1.88453 0.837378 0.00452086)
(1.89511 0.83811 0.00508468)
(1.87096 0.839182 0.00442258)
(1.87668 0.839143 0.00487714)
(1.8601 0.839912 0.00432529)
(1.86179 0.839165 0.00468735)
(1.8496 0.841568 0.00422746)
(1.8453 0.833175 0.00451277)
(1.86041 0.85694 0.00412822)
(1.76827 0.748316 0.00437721)
(2.23453 0.764337 0.00397191)
(4.72111 -0.115545 0.00485649)
(4.61151 -0.299414 0.0029122)
(4.54142 -0.497977 0.00414021)
(4.26573 -0.64879 0.00275415)
(4.17451 -0.731255 0.00381318)
(4.00697 -0.775275 0.00268541)
(3.97945 -0.795316 0.00354787)
(3.88936 -0.80704 0.00260026)
(3.88695 -0.812967 0.0032978)
(3.83707 -0.81733 0.0025047)
(3.84123 -0.819502 0.00307027)
(3.81257 -0.821383 0.0024086)
(3.81596 -0.822009 0.00286422)
(3.79775 -0.823099 0.00231231)
(3.79855 -0.822718 0.00267482)
(3.78337 -0.824305 0.00221496)
(3.78631 -0.823547 0.00249706)
(3.75786 -0.821662 0.00211788)
(3.79684 -0.836988 0.00230676)
(3.54085 -0.804674 0.00195658)
(4.61139 0.411026 0.00612227)
(4.79433 0.808055 0.00424424)
(5.03884 0.884046 0.00535787)
(4.99444 0.870599 0.00393376)
(5.03183 0.851581 0.00496761)
(4.94094 0.839644 0.00382814)
(4.94619 0.831345 0.00468459)
(4.88045 0.827071 0.00373426)
(4.88359 0.822512 0.00442953)
(4.8415 0.820686 0.00363521)
(4.84394 0.81813 0.00419929)
(4.81823 0.817688 0.00353725)
(4.81872 0.816456 0.00399218)
(4.8036 0.81665 0.00344032)
(4.79885 0.815849 0.00380293)
(4.79495 0.816853 0.00334276)
(4.77261 0.812639 0.0036287)
(4.80518 0.823953 0.00324406)
(4.72554 0.774173 0.00349285)
(4.87795 0.838351 0.0031273)
(4.55577 -0.202289 0.00496929)
(4.68695 -0.399587 0.00330937)
(5.02764 -0.526227 0.00442781)
(5.10299 -0.627963 0.00303307)
(5.24505 -0.691771 0.0040706)
(5.23369 -0.733887 0.00293695)
(5.29101 -0.756924 0.00379736)
(5.2633 -0.772842 0.00285004)
(5.28809 -0.782424 0.00354796)
(5.26215 -0.790023 0.00275558)
(5.27183 -0.794859 0.00332102)
(5.25152 -0.798623 0.00265982)
(5.25378 -0.801095 0.00311531)
(5.23869 -0.802203 0.00256394)
(5.23755 -0.804447 0.0029266)
(5.22392 -0.801705 0.00246709)
(5.22624 -0.811019 0.00274905)
(5.19196 -0.791723 0.00236809)
(5.23707 -0.836837 0.0025556)
(5.02135 -0.813046 0.00223269)
(4.56709 0.326392 0.00560677)
(4.68598 0.649113 0.00398257)
(5.01011 0.749565 0.00505434)
(5.10154 0.783954 0.00364581)
(5.27045 0.796055 0.00467019)
(5.28827 0.802757 0.00352977)
(5.37196 0.804213 0.00438639)
(5.36797 0.805384 0.00343703)
(5.41125 0.803984 0.00413353)
(5.40064 0.803838 0.00334003)
(5.42077 0.802348 0.00390435)
(5.4084 0.802227 0.00324252)
(5.41528 0.801349 0.00369725)
(5.40362 0.801237 0.00314566)
(5.40327 0.801338 0.00350788)
(5.39327 0.800162 0.00304825)
(5.38862 0.802079 0.0033322)
(5.37731 0.799135 0.00294872)
(5.38548 0.797604 0.00317963)
(5.33344 0.849039 0.00283615)
(4.5612 -0.261641 0.00524334)
(4.66063 -0.519885 0.00368237)
(4.9822 -0.630254 0.00475314)
(5.07699 -0.69664 0.00335195)
(5.25603 -0.733678 0.00437552)
(5.28485 -0.758246 0.00323607)
(5.37958 -0.770838 0.00409338)
(5.3855 -0.779904 0.00314466)
(5.43744 -0.784458 0.00384186)
(5.43418 -0.78869 0.0030489)
(5.46026 -0.790892 0.00361367)
(5.45225 -0.793149 0.0029521)
(5.4627 -0.794516 0.00340702)
(5.45226 -0.795077 0.0028556)
(5.45528 -0.797173 0.0032178)
(5.44132 -0.793965 0.0027585)
(5.44751 -0.80249 0.0030408)
(5.41152 -0.786419 0.00265886)
(5.46006 -0.818757 0.00286472)
(5.30112 -0.833357 0.00253735)
(4.5612 0.261641 0.00524334)
(4.66063 0.519885 0.00368237)
(4.9822 0.630254 0.00475314)
(5.07699 0.69664 0.00335195)
(5.25603 0.733678 0.00437552)
(5.28485 0.758246 0.00323607)
(5.37958 0.770838 0.00409338)
(5.3855 0.779905 0.00314466)
(5.43744 0.784458 0.00384186)
(5.43419 0.788693 0.0030489)
(5.46025 0.790894 0.00361368)
(5.45226 0.793159 0.00295209)
(5.46268 0.794525 0.00340704)
(5.4523 0.795112 0.00285557)
(5.45521 0.797199 0.00321786)
(5.44145 0.7941 0.0027584)
(5.4474 0.802587 0.00304106)
(5.41188 0.78689 0.00265859)
(5.46013 0.8192 0.00286585)
(5.30196 0.834738 0.00253734)
(4.56709 -0.326392 0.00560677)
(4.68598 -0.649113 0.00398257)
(5.01011 -0.749565 0.00505434)
(5.10154 -0.783954 0.00364581)
(5.27045 -0.796055 0.00467019)
(5.28827 -0.802756 0.00352978)
(5.37196 -0.804214 0.00438639)
(5.36797 -0.805383 0.00343703)
(5.41125 -0.803984 0.00413352)
(5.40063 -0.803834 0.00334004)
(5.42077 -0.802348 0.00390433)
(5.4084 -0.802213 0.00324253)
(5.4153 -0.801347 0.00369722)
(5.4036 -0.801187 0.0031457)
(5.40335 -0.801333 0.00350778)
(5.39319 -0.799999 0.00304837)
(5.38882 -0.802043 0.00333188)
(5.37709 -0.798696 0.00294896)
(5.38578 -0.797258 0.0031785)
(5.3331 -0.847929 0.00283594)
(4.55577 0.202289 0.00496929)
(4.68695 0.399587 0.00330937)
(5.02764 0.526227 0.00442781)
(5.10299 0.627963 0.00303307)
(5.24505 0.691771 0.0040706)
(5.23369 0.733887 0.00293695)
(5.29101 0.756925 0.00379736)
(5.2633 0.772842 0.00285004)
(5.28808 0.782425 0.00354796)
(5.26216 0.790023 0.00275558)
(5.27182 0.794863 0.00332102)
(5.25154 0.798624 0.00265982)
(5.25375 0.801108 0.0031153)
(5.23876 0.802213 0.00256394)
(5.2375 0.804489 0.00292661)
(5.22413 0.801767 0.00246706)
(5.22621 0.811161 0.00274916)
(5.19256 0.792103 0.00236797)
(5.23735 0.837298 0.00255646)
(5.02323 0.814579 0.00223269)
(4.61139 -0.411026 0.00612227)
(4.79433 -0.808055 0.00424424)
(5.03884 -0.884046 0.00535787)
(4.99444 -0.870599 0.00393376)
(5.03183 -0.851581 0.00496761)
(4.94094 -0.839644 0.00382814)
(4.94619 -0.831346 0.00468459)
(4.88045 -0.82707 0.00373426)
(4.88359 -0.822512 0.00442952)
(4.8415 -0.820682 0.00363522)
(4.84394 -0.818131 0.00419927)
(4.81824 -0.817674 0.00353727)
(4.81872 -0.816458 0.00399212)
(4.80364 -0.816597 0.0034404)
(4.7989 -0.815859 0.00380275)
(4.79505 -0.816681 0.00334298)
(4.77279 -0.812687 0.0036282)
(4.80544 -0.823559 0.00324455)
(4.72611 -0.774159 0.00349143)
(4.87885 -0.837784 0.0031276)
(4.72111 0.115545 0.00485649)
(4.61151 0.299414 0.0029122)
(4.54142 0.497977 0.00414021)
(4.26573 0.64879 0.00275415)
(4.17451 0.731255 0.00381318)
(4.00697 0.775275 0.00268541)
(3.97945 0.795317 0.00354787)
(3.88936 0.807039 0.00260026)
(3.88695 0.812969 0.0032978)
(3.83708 0.817328 0.0025047)
(3.84122 0.819507 0.00307027)
(3.81259 0.821374 0.0024086)
(3.81595 0.822026 0.00286422)
(3.79785 0.823075 0.00231232)
(3.79852 0.822771 0.00267478)
(3.7837 0.824261 0.002215)
(3.78627 0.823715 0.00249695)
(3.75901 0.821758 0.00211802)
(3.79679 0.837453 0.00230679)
(3.54568 0.805936 0.00195723)
(4.34278 -0.530866 0.00738575)
(3.24045 -0.797823 0.00501389)
(2.59235 -0.81774 0.00621564)
(2.16595 -0.805061 0.00479664)
(2.07675 -0.80827 0.00584638)
(1.95676 -0.818119 0.00471251)
(1.96712 -0.825895 0.00557054)
(1.90712 -0.832055 0.00462052)
(1.92187 -0.834922 0.00531531)
(1.88453 -0.837375 0.00452086)
(1.89511 -0.838114 0.00508467)
(1.87097 -0.839169 0.00442258)
(1.8767 -0.839153 0.00487711)
(1.86014 -0.839872 0.00432533)
(1.86185 -0.839203 0.00468725)
(1.84971 -0.841454 0.00422761)
(1.84555 -0.833329 0.0045124)
(1.86066 -0.85672 0.00412875)
(1.76932 -0.748943 0.00437568)
(2.23528 -0.765163 0.00397467)
(4.37643 0.0827881 0.00160078)
(4.06717 0.118536 0.00212265)
(3.64669 0.123002 0.00122184)
(3.35581 0.113598 0.00172733)
(3.10179 0.102972 0.00122015)
(2.98283 0.0976344 0.00158569)
(2.88726 0.0963237 0.00124408)
(2.87019 0.099242 0.00146612)
(2.84359 0.103433 0.00123758)
(2.85485 0.108212 0.00136504)
(2.84541 0.11195 0.00122535)
(2.85862 0.114861 0.00129013)
(2.85255 0.116659 0.0012164)
(2.86494 0.117933 0.0012376)
(2.85783 0.118138 0.00121294)
(2.87593 0.119818 0.00120211)
(2.85241 0.116569 0.00121836)
(2.90676 0.124125 0.0011793)
(2.80315 0.109006 0.00121071)
(2.98787 0.124541 0.00122471)
(4.52466 0.0748765 0.00335301)
(4.66365 0.0899978 0.0040395)
(4.67108 0.0768436 0.00313312)
(4.69254 0.0423407 0.00361561)
(4.62934 0.00297556 0.00308693)
(4.60931 -0.0339297 0.00344151)
(4.55179 -0.0626074 0.00309304)
(4.54252 -0.0834693 0.00331308)
(4.51028 -0.0968069 0.00308309)
(4.5165 -0.105487 0.00321111)
(4.5026 -0.110685 0.00307142)
(4.51722 -0.113884 0.00313729)
(4.51221 -0.116104 0.00306403)
(4.53054 -0.116587 0.00308601)
(4.52724 -0.118875 0.00306213)
(4.55092 -0.115525 0.00305097)
(4.53899 -0.122892 0.0030703)
(4.58125 -0.107444 0.00302735)
(4.53351 -0.129789 0.00310078)
(4.61916 -0.0859046 0.00311555)
(4.50349 0.0397441 0.00195282)
(4.64769 0.089125 0.00253217)
(4.72117 0.122968 0.00165955)
(4.84623 0.135169 0.00214718)
(4.88607 0.134008 0.00162628)
(4.95045 0.12866 0.00198713)
(4.95208 0.122946 0.00164611)
(4.98118 0.120005 0.00186971)
(4.97106 0.11889 0.00164341)
(4.9901 0.119398 0.00177176)
(4.98231 0.120045 0.00163328)
(5.00087 0.121056 0.00169838)
(4.99761 0.121222 0.00162537)
(5.01796 0.122438 0.00164685)
(5.01713 0.120635 0.00162259)
(5.03992 0.125082 0.00161286)
(5.03887 0.116195 0.0016265)
(5.063 0.134086 0.00159749)
(5.06611 0.106502 0.00160859)
(5.07684 0.155373 0.00163872)
(4.49938 0.0371368 0.00294781)
(4.61873 0.0365848 0.0036279)
(4.68892 0.0251214 0.00277513)
(4.82403 0.00234731 0.00326466)
(4.88546 -0.0225442 0.0027301)
(4.97637 -0.0469889 0.00308113)
(5.00373 -0.0675456 0.00273122)
(5.05522 -0.0837945 0.00295125)
(5.06295 -0.0955274 0.00272171)
(5.09545 -0.103866 0.00284936)
(5.09764 -0.109793 0.00270961)
(5.12237 -0.113548 0.00277483)
(5.12453 -0.116901 0.00270145)
(5.14529 -0.117553 0.00272326)
(5.15012 -0.120996 0.00269928)
(5.16567 -0.117229 0.00268948)
(5.17971 -0.125335 0.00270611)
(5.178 -0.110782 0.00267428)
(5.22504 -0.12976 0.00274)
(5.16933 -0.0953646 0.0027528)
(4.50025 0.0148215 0.00226382)
(4.61917 0.0465844 0.00290016)
(4.68401 0.0728938 0.00205777)
(4.81556 0.0895639 0.0025404)
(4.87661 0.0985577 0.00200568)
(4.97072 0.104218 0.00235763)
(5.0032 0.107949 0.00201095)
(5.06084 0.111601 0.00223294)
(5.07461 0.114728 0.0020057)
(5.11272 0.117628 0.00213388)
(5.11988 0.119709 0.00199508)
(5.14856 0.121332 0.00206007)
(5.15428 0.122081 0.00198697)
(5.17688 0.122977 0.00200847)
(5.18455 0.122258 0.00198425)
(5.19933 0.124406 0.00197522)
(5.21765 0.120069 0.00198831)
(5.21104 0.128888 0.00196417)
(5.26945 0.116262 0.00198555)
(5.20705 0.142322 0.00200851)
(4.49906 0.00948487 0.00258932)
(4.61247 -0.00636858 0.00325316)
(4.67651 -0.0246645 0.00241769)
(4.80731 -0.044195 0.00290495)
(4.8686 -0.0609539 0.00236853)
(4.96358 -0.0757811 0.00271895)
(4.99761 -0.0878002 0.00237005)
(5.05723 -0.09762 0.00259121)
(5.07327 -0.10504 0.00236305)
(5.11361 -0.110633 0.00249109)
(5.12307 -0.114725 0.0023519)
(5.15349 -0.117439 0.00241692)
(5.16118 -0.119673 0.00234368)
(5.18437 -0.120413 0.00236523)
(5.19399 -0.12208 0.00234113)
(5.20746 -0.120973 0.00233188)
(5.22923 -0.123406 0.00234633)
(5.21793 -0.119819 0.00232042)
(5.28338 -0.123501 0.00236504)
(5.21331 -0.119148 0.0023774)
(4.49906 -0.00948488 0.00258932)
(4.61247 0.00636862 0.00325316)
(4.67651 0.0246645 0.00241769)
(4.80731 0.0441951 0.00290495)
(4.8686 0.0609537 0.00236853)
(4.96358 0.0757816 0.00271895)
(4.99761 0.0877997 0.00237005)
(5.05723 0.0976213 0.00259121)
(5.07327 0.105038 0.00236304)
(5.11362 0.110637 0.00249109)
(5.12307 0.114723 0.00235189)
(5.1535 0.117452 0.00241693)
(5.16117 0.119666 0.00234367)
(5.18438 0.120457 0.00236527)
(5.19399 0.122066 0.00234108)
(5.20748 0.121121 0.00233201)
(5.22923 0.12341 0.00234604)
(5.21799 0.120244 0.0023207)
(5.28344 0.12381 0.00236387)
(5.21349 0.120198 0.00237753)
(4.50025 -0.0148215 0.00226382)
(4.61917 -0.0465843 0.00290016)
(4.68401 -0.0728939 0.00205777)
(4.81556 -0.0895637 0.0025404)
(4.87661 -0.0985579 0.00200568)
(4.97072 -0.104218 0.00235763)
(5.0032 -0.10795 0.00201095)
(5.06084 -0.111599 0.00223294)
(5.07461 -0.11473 0.0020057)
(5.11272 -0.117624 0.00213388)
(5.11988 -0.119712 0.00199508)
(5.14855 -0.121318 0.00206006)
(5.15429 -0.122088 0.00198698)
(5.17687 -0.122932 0.00200843)
(5.18458 -0.122276 0.00198429)
(5.19932 -0.12426 0.0019751)
(5.21773 -0.120077 0.00198854)
(5.21106 -0.128479 0.0019639)
(5.2696 -0.11599 0.00198656)
(5.20729 -0.141327 0.00200828)
(4.49938 -0.0371368 0.00294781)
(4.61873 -0.0365848 0.0036279)
(4.68892 -0.0251214 0.00277513)
(4.82403 -0.00234725 0.00326466)
(4.88546 0.0225441 0.0027301)
(4.97637 0.0469892 0.00308113)
(5.00373 0.0675453 0.00273122)
(5.05522 0.0837955 0.00295125)
(5.06295 0.0955266 0.0027217)
(5.09546 0.10387 0.00284937)
(5.09763 0.109791 0.0027096)
(5.12238 0.113559 0.00277485)
(5.12453 0.116896 0.00270142)
(5.14531 0.117591 0.00272331)
(5.15014 0.120983 0.0026992)
(5.1657 0.117363 0.0026896)
(5.1798 0.125327 0.0027058)
(5.17815 0.111193 0.00267454)
(5.22533 0.13 0.00273881)
(5.16995 0.0964163 0.00275284)
(4.50349 -0.0397441 0.00195282)
(4.64769 -0.0891249 0.00253217)
(4.72117 -0.122969 0.00165955)
(4.84623 -0.135169 0.00214718)
(4.88607 -0.134008 0.00162628)
(4.95045 -0.12866 0.00198713)
(4.95208 -0.122947 0.00164611)
(4.98118 -0.120004 0.00186971)
(4.97106 -0.118891 0.00164341)
(4.99011 -0.119394 0.00177176)
(4.9823 -0.120048 0.00163328)
(5.00088 -0.121045 0.00169838)
(4.99761 -0.12123 0.00162536)
(5.01799 -0.122399 0.00164684)
(5.01715 -0.120658 0.00162258)
(5.03999 -0.124953 0.00161282)
(5.03898 -0.116236 0.00162653)
(5.0632 -0.133726 0.00159741)
(5.06651 -0.106376 0.00160906)
(5.07767 -0.154536 0.00163866)
(4.52466 -0.0748765 0.00335301)
(4.66365 -0.0899978 0.0040395)
(4.67108 -0.0768436 0.00313312)
(4.69254 -0.0423407 0.00361561)
(4.62934 -0.0029755 0.00308693)
(4.60931 0.0339297 0.00344152)
(4.55179 0.0626076 0.00309304)
(4.54252 0.0834692 0.00331309)
(4.51027 0.0968075 0.00308309)
(4.51651 0.105487 0.00321113)
(4.50259 0.110687 0.00307139)
(4.51725 0.113886 0.00313734)
(4.51218 0.116107 0.00306395)
(4.53065 0.116604 0.00308614)
(4.52716 0.118872 0.0030619)
(4.55121 0.115604 0.00305132)
(4.53889 0.122883 0.00306963)
(4.58203 0.107726 0.00302821)
(4.5336 0.129912 0.00309886)
(4.62149 0.0867061 0.00311723)
(4.37643 -0.0827882 0.00160078)
(4.06717 -0.118536 0.00212265)
(3.64669 -0.123002 0.00122184)
(3.35581 -0.113598 0.00172733)
(3.10179 -0.102972 0.00122015)
(2.98283 -0.0976344 0.00158569)
(2.88726 -0.0963238 0.00124408)
(2.87019 -0.0992419 0.00146612)
(2.84359 -0.103433 0.00123758)
(2.85485 -0.108212 0.00136504)
(2.84541 -0.111951 0.00122535)
(2.85864 -0.114858 0.00129013)
(2.85255 -0.116662 0.00121639)
(2.86498 -0.117921 0.0012376)
(2.85786 -0.118152 0.00121289)
(2.87608 -0.119774 0.00120217)
(2.85254 -0.116616 0.00121815)
(2.9074 -0.123997 0.0011796)
(2.80337 -0.109084 0.00121002)
(2.99129 -0.12436 0.0012258)
(4.37643 0.0827881 -0.00160089)
(4.06717 0.118537 -0.00212276)
(3.64669 0.123002 -0.00122195)
(3.35581 0.113598 -0.00172744)
(3.10179 0.102972 -0.00122027)
(2.98283 0.0976345 -0.0015858)
(2.88726 0.0963238 -0.00124419)
(2.87019 0.0992421 -0.00146623)
(2.84359 0.103433 -0.00123769)
(2.85485 0.108212 -0.00136515)
(2.84541 0.11195 -0.00122546)
(2.85862 0.114861 -0.00129025)
(2.85255 0.116659 -0.00121651)
(2.86494 0.117933 -0.00123771)
(2.85783 0.118139 -0.00121305)
(2.87593 0.119818 -0.00120223)
(2.85241 0.116569 -0.00121847)
(2.90676 0.124126 -0.00117941)
(2.80315 0.109006 -0.00121082)
(2.98787 0.124541 -0.00122483)
(4.52466 0.0748765 -0.00335312)
(4.66365 0.0899978 -0.00403961)
(4.67108 0.0768436 -0.00313323)
(4.69254 0.0423406 -0.00361572)
(4.62934 0.00297552 -0.00308704)
(4.60931 -0.0339298 -0.00344163)
(4.55179 -0.0626074 -0.00309315)
(4.54252 -0.0834694 -0.00331319)
(4.51028 -0.0968069 -0.00308321)
(4.5165 -0.105487 -0.00321122)
(4.5026 -0.110685 -0.00307153)
(4.51722 -0.113884 -0.0031374)
(4.51221 -0.116104 -0.00306414)
(4.53054 -0.116587 -0.00308612)
(4.52724 -0.118875 -0.00306225)
(4.55092 -0.115525 -0.00305108)
(4.53899 -0.122892 -0.00307042)
(4.58125 -0.107444 -0.00302746)
(4.53351 -0.129789 -0.00310089)
(4.61916 -0.0859047 -0.00311566)
(4.50349 0.0397441 -0.00195293)
(4.64769 0.089125 -0.00253228)
(4.72117 0.122969 -0.00165966)
(4.84623 0.135169 -0.00214729)
(4.88607 0.134008 -0.00162639)
(4.95045 0.128661 -0.00198724)
(4.95208 0.122946 -0.00164622)
(4.98118 0.120005 -0.00186982)
(4.97106 0.11889 -0.00164352)
(4.9901 0.119398 -0.00177187)
(4.98231 0.120045 -0.00163339)
(5.00087 0.121056 -0.00169849)
(4.99761 0.121222 -0.00162549)
(5.01796 0.122438 -0.00164696)
(5.01713 0.120635 -0.00162271)
(5.03992 0.125082 -0.00161297)
(5.03887 0.116195 -0.00162661)
(5.063 0.134086 -0.0015976)
(5.06611 0.106502 -0.0016087)
(5.07684 0.155373 -0.00163883)
(4.49938 0.0371368 -0.00294792)
(4.61873 0.0365848 -0.00362801)
(4.68892 0.0251213 -0.00277524)
(4.82403 0.00234729 -0.00326477)
(4.88546 -0.0225442 -0.00273021)
(4.97637 -0.0469889 -0.00308124)
(5.00373 -0.0675457 -0.00273133)
(5.05522 -0.0837945 -0.00295136)
(5.06295 -0.0955274 -0.00272182)
(5.09545 -0.103866 -0.00284947)
(5.09764 -0.109793 -0.00270972)
(5.12237 -0.113548 -0.00277495)
(5.12453 -0.116901 -0.00270156)
(5.14529 -0.117553 -0.00272338)
(5.15012 -0.120996 -0.00269939)
(5.16567 -0.117229 -0.00268959)
(5.17971 -0.125335 -0.00270623)
(5.178 -0.110783 -0.0026744)
(5.22504 -0.12976 -0.00274012)
(5.16932 -0.0953648 -0.00275291)
(4.50025 0.0148215 -0.00226393)
(4.61917 0.0465844 -0.00290027)
(4.684 0.0728939 -0.00205788)
(4.81556 0.0895639 -0.00254051)
(4.87661 0.0985578 -0.00200579)
(4.97072 0.104218 -0.00235774)
(5.0032 0.107949 -0.00201107)
(5.06084 0.111601 -0.00223305)
(5.0746 0.114728 -0.00200581)
(5.11272 0.117628 -0.002134)
(5.11988 0.119709 -0.00199519)
(5.14856 0.121332 -0.00206018)
(5.15428 0.122081 -0.00198708)
(5.17688 0.122977 -0.00200858)
(5.18455 0.122258 -0.00198437)
(5.19933 0.124406 -0.00197534)
(5.21765 0.120069 -0.00198842)
(5.21104 0.128888 -0.00196429)
(5.26945 0.116262 -0.00198567)
(5.20705 0.142322 -0.00200863)
(4.49906 0.00948487 -0.00258943)
(4.61247 -0.0063686 -0.00325327)
(4.67651 -0.0246645 -0.0024178)
(4.80731 -0.044195 -0.00290506)
(4.8686 -0.0609539 -0.00236864)
(4.96358 -0.0757812 -0.00271906)
(4.99761 -0.0878003 -0.00237016)
(5.05723 -0.09762 -0.00259132)
(5.07327 -0.10504 -0.00236316)
(5.11361 -0.110633 -0.0024912)
(5.12307 -0.114725 -0.00235201)
(5.15349 -0.117439 -0.00241703)
(5.16118 -0.119673 -0.00234379)
(5.18437 -0.120413 -0.00236534)
(5.19399 -0.12208 -0.00234125)
(5.20746 -0.120973 -0.00233199)
(5.22923 -0.123406 -0.00234645)
(5.21793 -0.11982 -0.00232053)
(5.28338 -0.123501 -0.00236516)
(5.21331 -0.119148 -0.00237751)
(4.49906 -0.00948487 -0.00258943)
(4.61247 0.00636865 -0.00325327)
(4.67651 0.0246645 -0.0024178)
(4.80731 0.0441952 -0.00290506)
(4.8686 0.0609538 -0.00236864)
(4.96358 0.0757817 -0.00271906)
(4.99761 0.0877998 -0.00237016)
(5.05723 0.0976214 -0.00259132)
(5.07327 0.105039 -0.00236316)
(5.11361 0.110637 -0.00249121)
(5.12307 0.114723 -0.002352)
(5.1535 0.117452 -0.00241704)
(5.16117 0.119667 -0.00234378)
(5.18438 0.120458 -0.00236539)
(5.19398 0.122066 -0.00234119)
(5.20748 0.121121 -0.00233212)
(5.22923 0.12341 -0.00234615)
(5.21799 0.120244 -0.00232082)
(5.28344 0.12381 -0.00236398)
(5.21349 0.120198 -0.00237764)
(4.50025 -0.0148215 -0.00226393)
(4.61917 -0.0465844 -0.00290027)
(4.68401 -0.0728939 -0.00205788)
(4.81556 -0.0895638 -0.00254051)
(4.87661 -0.0985579 -0.00200579)
(4.97072 -0.104218 -0.00235774)
(5.0032 -0.10795 -0.00201107)
(5.06084 -0.111599 -0.00223305)
(5.07461 -0.11473 -0.00200581)
(5.11272 -0.117624 -0.00213399)
(5.11988 -0.119712 -0.00199519)
(5.14855 -0.121319 -0.00206017)
(5.15429 -0.122088 -0.00198709)
(5.17687 -0.122932 -0.00200854)
(5.18458 -0.122276 -0.0019844)
(5.19932 -0.12426 -0.00197522)
(5.21773 -0.120077 -0.00198865)
(5.21106 -0.128479 -0.00196401)
(5.2696 -0.11599 -0.00198668)
(5.20729 -0.141328 -0.0020084)
(4.49938 -0.0371368 -0.00294792)
(4.61873 -0.0365848 -0.00362801)
(4.68892 -0.0251213 -0.00277524)
(4.82403 -0.00234719 -0.00326477)
(4.88546 0.0225442 -0.00273021)
(4.97637 0.0469893 -0.00308124)
(5.00373 0.0675454 -0.00273133)
(5.05522 0.0837956 -0.00295136)
(5.06295 0.0955268 -0.00272182)
(5.09546 0.10387 -0.00284948)
(5.09763 0.109791 -0.00270971)
(5.12238 0.113559 -0.00277496)
(5.12453 0.116897 -0.00270154)
(5.14531 0.117591 -0.00272342)
(5.15014 0.120983 -0.00269931)
(5.1657 0.117364 -0.00268972)
(5.1798 0.125327 -0.00270591)
(5.17815 0.111193 -0.00267466)
(5.22532 0.13 -0.00273893)
(5.16995 0.0964164 -0.00275296)
(4.50349 -0.0397441 -0.00195293)
(4.64769 -0.089125 -0.00253228)
(4.72117 -0.122969 -0.00165966)
(4.84623 -0.135169 -0.00214729)
(4.88607 -0.134008 -0.00162639)
(4.95045 -0.12866 -0.00198724)
(4.95208 -0.122947 -0.00164622)
(4.98118 -0.120004 -0.00186982)
(4.97106 -0.118891 -0.00164352)
(4.99011 -0.119394 -0.00177187)
(4.9823 -0.120048 -0.00163339)
(5.00088 -0.121045 -0.00169849)
(4.99761 -0.12123 -0.00162548)
(5.01799 -0.122399 -0.00164695)
(5.01715 -0.120658 -0.00162269)
(5.03999 -0.124953 -0.00161293)
(5.03898 -0.116236 -0.00162665)
(5.0632 -0.133726 -0.00159752)
(5.06651 -0.106376 -0.00160918)
(5.07767 -0.154536 -0.00163877)
(4.52466 -0.0748765 -0.00335312)
(4.66365 -0.0899978 -0.00403961)
(4.67108 -0.0768436 -0.00313323)
(4.69254 -0.0423406 -0.00361572)
(4.62934 -0.00297543 -0.00308704)
(4.60931 0.0339298 -0.00344163)
(4.55179 0.0626077 -0.00309315)
(4.54252 0.0834693 -0.0033132)
(4.51027 0.0968076 -0.0030832)
(4.51651 0.105487 -0.00321124)
(4.50259 0.110687 -0.00307151)
(4.51725 0.113887 -0.00313745)
(4.51218 0.116107 -0.00306406)
(4.53065 0.116604 -0.00308626)
(4.52716 0.118873 -0.00306201)
(4.55121 0.115604 -0.00305143)
(4.53889 0.122883 -0.00306974)
(4.58203 0.107726 -0.00302832)
(4.5336 0.129912 -0.00309897)
(4.62149 0.0867063 -0.00311735)
(4.37643 -0.0827882 -0.00160089)
(4.06717 -0.118536 -0.00212276)
(3.64669 -0.123002 -0.00122195)
(3.35581 -0.113598 -0.00172744)
(3.10179 -0.102972 -0.00122027)
(2.98283 -0.0976344 -0.0015858)
(2.88726 -0.0963238 -0.00124419)
(2.87019 -0.0992419 -0.00146623)
(2.84359 -0.103433 -0.00123769)
(2.85485 -0.108212 -0.00136515)
(2.84541 -0.111951 -0.00122546)
(2.85864 -0.114858 -0.00129024)
(2.85255 -0.116662 -0.00121651)
(2.86498 -0.117921 -0.00123771)
(2.85786 -0.118152 -0.001213)
(2.87608 -0.119774 -0.00120228)
(2.85254 -0.116616 -0.00121826)
(2.9074 -0.123997 -0.00117971)
(2.80337 -0.109084 -0.00121013)
(2.99129 -0.12436 -0.00122591)
(4.34278 0.530866 -0.00738583)
(3.24045 0.797823 -0.00501397)
(2.59235 0.81774 -0.00621572)
(2.16595 0.805061 -0.00479671)
(2.07675 0.80827 -0.00584646)
(1.95676 0.818119 -0.00471259)
(1.96712 0.825895 -0.00557062)
(1.90711 0.832056 -0.0046206)
(1.92186 0.834921 -0.00531539)
(1.88453 0.837378 -0.00452094)
(1.89511 0.838111 -0.00508476)
(1.87096 0.839182 -0.00442266)