/*--------------------------------*- C++ -*----------------------------------*\
  =========                 |
  \\      /  F ield         | OpenFOAM: The Open Source CFD Toolbox
   \\    /   O peration     | Website:  https://openfoam.org
    \\  /    A nd           | Version:  7
     \\/     M anipulation  |
\*---------------------------------------------------------------------------*/
FoamFile
{
    version     2.0;
    format      ascii;
    class       volVectorField;
    location    "0.725";
    object      UMean;
}
// * * * * * * * * * * * * * * * * * * * * * * * * * * * * * * * * * * * * * //

dimensions      [0 1 -1 0 0 0 0];

internalField   nonuniform List<vector> 
7920
(
(2.95788 0.0967416 -32.3859)
(2.18993 -0.454614 -32.4391)
(1.51627 -0.602226 -32.4401)
(1.43823 -0.655459 -32.449)
(1.22249 -0.671287 -32.4452)
(1.26574 -0.675989 -32.4506)
(1.13647 -0.679921 -32.4472)
(1.19321 -0.680083 -32.4513)
(1.09627 -0.682183 -32.4488)
(1.14958 -0.681747 -32.452)
(1.0724 -0.683142 -32.4502)
(1.11969 -0.682488 -32.4527)
(1.05678 -0.683438 -32.4514)
(1.0981 -0.682849 -32.4533)
(1.04579 -0.683286 -32.4525)
(1.08225 -0.683383 -32.4536)
(1.03563 -0.680008 -32.4537)
(1.0661 -0.686112 -32.4531)
(1.02429 -0.63228 -32.4563)
(0.877581 -0.637378 -32.445)
(4.40976 0.941112 -32.4325)
(4.35764 0.838569 -32.4771)
(3.74818 0.784764 -32.4793)
(3.64944 0.720646 -32.491)
(3.29386 0.695644 -32.4889)
(3.32576 0.684045 -32.4952)
(3.09744 0.678717 -32.4928)
(3.16579 0.676085 -32.4973)
(2.9971 0.674455 -32.4959)
(3.06916 0.673284 -32.4995)
(2.93658 0.672402 -32.4991)
(3.00413 0.671564 -32.5018)
(2.89699 0.671019 -32.502)
(2.95826 0.670544 -32.5038)
(2.86929 0.669846 -32.5047)
(2.92721 0.670855 -32.5047)
(2.8432 0.667243 -32.5077)
(2.92366 0.674027 -32.5027)
(2.79047 0.665023 -32.5146)
(3.09271 0.664225 -32.4775)
(4.74213 0.180784 -32.4372)
(5.23414 -0.241598 -32.472)
(5.08173 -0.387412 -32.4635)
(5.20182 -0.503576 -32.474)
(4.9675 -0.564565 -32.4681)
(5.03611 -0.59817 -32.4759)
(4.83862 -0.619333 -32.4711)
(4.90192 -0.630978 -32.4773)
(4.74392 -0.639583 -32.4741)
(4.80416 -0.644827 -32.4796)
(4.6772 -0.649093 -32.4782)
(4.73298 -0.651979 -32.4831)
(4.62979 -0.65442 -32.4831)
(4.68043 -0.655963 -32.4869)
(4.59606 -0.657994 -32.4884)
(4.6395 -0.656997 -32.4899)
(4.57473 -0.661877 -32.494)
(4.59533 -0.651702 -32.4906)
(4.56714 -0.658906 -32.5008)
(4.50812 -0.655447 -32.4707)
(4.74264 0.63191 -32.4469)
(5.25367 0.721284 -32.4794)
(5.32259 0.762731 -32.469)
(5.60851 0.731501 -32.4766)
(5.52633 0.713664 -32.4703)
(5.68868 0.699525 -32.4764)
(5.58044 0.689833 -32.4719)
(5.6906 0.682532 -32.4766)
(5.58743 0.677243 -32.4736)
(5.67018 0.672543 -32.4779)
(5.5787 0.669277 -32.4768)
(5.64456 0.666015 -32.4809)
(5.56499 0.664027 -32.4816)
(5.61998 0.661679 -32.4851)
(5.54969 0.66061 -32.4872)
(5.60025 0.658852 -32.4894)
(5.53224 0.659448 -32.493)
(5.59432 0.657624 -32.4931)
(5.51443 0.668304 -32.4985)
(5.6503 0.690955 -32.4747)
(4.73449 -0.0900664 -32.4461)
(5.22025 -0.386103 -32.4776)
(5.3425 -0.478957 -32.4646)
(5.67653 -0.544853 -32.4718)
(5.65135 -0.579756 -32.4634)
(5.86032 -0.599118 -32.4695)
(5.80127 -0.612186 -32.4635)
(5.94781 -0.619602 -32.4684)
(5.88435 -0.625766 -32.4641)
(5.99395 -0.62976 -32.4685)
(5.93337 -0.633451 -32.4663)
(6.01789 -0.636034 -32.4707)
(5.9622 -0.638809 -32.4703)
(6.02843 -0.640036 -32.4745)
(5.97915 -0.643477 -32.4754)
(6.02909 -0.640712 -32.4792)
(5.99309 -0.650588 -32.481)
(6.0154 -0.634755 -32.4843)
(6.0167 -0.66331 -32.4865)
(5.98342 -0.666727 -32.4676)
(4.72173 0.344673 -32.4498)
(5.16576 0.543049 -32.4816)
(5.29895 0.61825 -32.4684)
(5.64788 0.637253 -32.4754)
(5.64395 0.646649 -32.4667)
(5.87287 0.649366 -32.4726)
(5.83496 0.650913 -32.4663)
(5.99987 0.650788 -32.4711)
(5.95578 0.650908 -32.4665)
(6.081 0.650262 -32.4707)
(6.03712 0.650115 -32.4681)
(6.13423 0.649431 -32.4725)
(6.09221 0.649498 -32.4717)
(6.16818 0.648562 -32.476)
(6.12923 0.649661 -32.4764)
(6.18785 0.646695 -32.4805)
(6.15632 0.652933 -32.4817)
(6.19581 0.642456 -32.4859)
(6.18872 0.666918 -32.4874)
(6.20979 0.685756 -32.4689)
(4.72173 -0.344673 -32.4498)
(5.16576 -0.543049 -32.4816)
(5.29895 -0.61825 -32.4684)
(5.64788 -0.637253 -32.4754)
(5.64395 -0.646649 -32.4667)
(5.87287 -0.649366 -32.4726)
(5.83496 -0.650913 -32.4663)
(5.99987 -0.650786 -32.4711)
(5.95579 -0.650907 -32.4665)
(6.081 -0.650258 -32.4707)
(6.03712 -0.650108 -32.4681)
(6.13423 -0.649417 -32.4725)
(6.09223 -0.649478 -32.4717)
(6.16816 -0.648509 -32.4761)
(6.1293 -0.649622 -32.4763)
(6.18778 -0.646481 -32.4806)
(6.15649 -0.652875 -32.4817)
(6.19562 -0.64178 -32.4859)
(6.18886 -0.666581 -32.4874)
(6.20933 -0.684361 -32.4688)
(4.73449 0.0900664 -32.4461)
(5.22025 0.386103 -32.4776)
(5.3425 0.478957 -32.4646)
(5.67653 0.544854 -32.4718)
(5.65135 0.579756 -32.4634)
(5.86032 0.599118 -32.4695)
(5.80127 0.612186 -32.4635)
(5.94781 0.619603 -32.4684)
(5.88435 0.625768 -32.4641)
(5.99396 0.629763 -32.4685)
(5.93336 0.63346 -32.4662)
(6.01792 0.636043 -32.4708)
(5.96218 0.638835 -32.4702)
(6.0285 0.640076 -32.4747)
(5.97912 0.643529 -32.4752)
(6.02926 0.640891 -32.4794)
(5.9931 0.650672 -32.4807)
(6.01587 0.635408 -32.4847)
(6.01711 0.663661 -32.4861)
(5.98486 0.668257 -32.468)
(4.74264 -0.63191 -32.4469)
(5.25367 -0.721284 -32.4794)
(5.32259 -0.762731 -32.469)
(5.60851 -0.731501 -32.4766)
(5.52633 -0.713664 -32.4703)
(5.68869 -0.699524 -32.4764)
(5.58044 -0.689833 -32.4718)
(5.6906 -0.682531 -32.4767)
(5.58743 -0.677242 -32.4736)
(5.67019 -0.672538 -32.4779)
(5.5787 -0.669273 -32.4767)
(5.64458 -0.666001 -32.4811)
(5.565 -0.664015 -32.4814)
(5.62004 -0.661626 -32.4854)
(5.54976 -0.660593 -32.4866)
(5.60036 -0.658635 -32.4902)
(5.53254 -0.659458 -32.4919)
(5.5945 -0.656984 -32.4947)
(5.51524 -0.668199 -32.4964)
(5.65075 -0.690004 -32.4773)
(4.74213 -0.180784 -32.4372)
(5.23414 0.241598 -32.472)
(5.08173 0.387412 -32.4635)
(5.20182 0.503575 -32.474)
(4.9675 0.564565 -32.4681)
(5.03611 0.598171 -32.4759)
(4.83862 0.619334 -32.4711)
(4.90192 0.630978 -32.4773)
(4.74392 0.639586 -32.474)
(4.80417 0.644827 -32.4796)
(4.6772 0.649103 -32.4781)
(4.73303 0.651978 -32.4833)
(4.62978 0.654446 -32.4828)
(4.68058 0.655971 -32.4874)
(4.59605 0.65805 -32.4875)
(4.63989 0.657066 -32.4913)
(4.57488 0.661974 -32.4917)
(4.59634 0.652098 -32.4944)
(4.56804 0.6592 -32.4948)
(4.51141 0.656699 -32.48)
(4.40976 -0.941112 -32.4325)
(4.35764 -0.838569 -32.4771)
(3.74818 -0.784764 -32.4793)
(3.64944 -0.720646 -32.491)
(3.29386 -0.695644 -32.4889)
(3.32576 -0.684044 -32.4952)
(3.09744 -0.678717 -32.4928)
(3.16579 -0.676084 -32.4973)
(2.9971 -0.674456 -32.4959)
(3.06917 -0.673281 -32.4995)
(2.93659 -0.672402 -32.499)
(3.00416 -0.671555 -32.5019)
(2.89701 -0.67102 -32.5018)
(2.95836 -0.670512 -32.5041)
(2.86938 -0.669859 -32.5041)
(2.92743 -0.670729 -32.5058)
(2.84366 -0.667332 -32.5056)
(2.924 -0.673674 -32.5067)
(2.79212 -0.665295 -32.5064)
(3.09308 -0.66436 -32.4952)
(2.95788 -0.0967417 -32.3859)
(2.18993 0.454614 -32.4391)
(1.51627 0.602226 -32.4401)
(1.43823 0.655459 -32.449)
(1.22249 0.671287 -32.4452)
(1.26574 0.675989 -32.4506)
(1.13647 0.679921 -32.4472)
(1.19321 0.680082 -32.4513)
(1.09628 0.682185 -32.4487)
(1.14959 0.681745 -32.452)
(1.0724 0.683146 -32.4502)
(1.11971 0.682481 -32.4528)
(1.05679 0.68345 -32.4514)
(1.09816 0.682826 -32.4534)
(1.04583 0.683323 -32.4524)
(1.0824 0.683315 -32.4539)
(1.03585 0.680139 -32.4531)
(1.06642 0.685997 -32.4543)
(1.02527 0.632841 -32.4536)
(0.879278 0.638169 -32.4527)
(4.33427 0.547706 0.00717573)
(3.16374 0.821751 0.00475812)
(2.46032 0.842647 0.00599406)
(1.96701 0.828035 0.00454779)
(1.85461 0.831041 0.00564372)
(1.69493 0.841876 0.00449355)
(1.69742 0.850735 0.00539872)
(1.60846 0.857824 0.00443393)
(1.62009 0.861372 0.00517034)
(1.56045 0.86443 0.00435922)
(1.57069 0.865688 0.00495934)
(1.52947 0.867266 0.00428041)
(1.53672 0.867653 0.00476881)
(1.50717 0.868772 0.00420165)
(1.51197 0.868316 0.0045967)
(1.48932 0.870801 0.00412295)
(1.49158 0.862706 0.00444122)
(1.49274 0.886127 0.00404239)
(1.42275 0.770317 0.00432635)
(1.88244 0.791099 0.00390534)
(4.73929 -0.108108 0.0046239)
(4.61235 -0.288749 0.00263719)
(4.53502 -0.488089 0.00390157)
(4.20882 -0.646239 0.0024885)
(4.09334 -0.735446 0.00359318)
(3.87332 -0.784945 0.00244877)
(3.82387 -0.808633 0.00335821)
(3.68795 -0.823012 0.00239595)
(3.66802 -0.831131 0.00313525)
(3.5795 -0.837253 0.00232563)
(3.57036 -0.84111 0.00292772)
(3.51035 -0.84437 0.00224947)
(3.50493 -0.846302 0.0027391)
(3.46243 -0.848536 0.0021722)
(3.45907 -0.848896 0.00256778)
(3.42479 -0.851882 0.00209458)
(3.42964 -0.850188 0.0024091)
(3.38118 -0.852765 0.00201691)
(3.43933 -0.862575 0.00223753)
(3.12576 -0.848531 0.0018711)
(4.62402 0.42264 0.0059053)
(4.81035 0.838422 0.00398996)
(5.08929 0.925089 0.00513828)
(5.03816 0.913724 0.00368616)
(5.08758 0.895144 0.00476543)
(4.97579 0.882631 0.00360892)
(4.98166 0.873816 0.00451243)
(4.89087 0.868757 0.00354705)
(4.89006 0.863228 0.00428434)
(4.82253 0.860456 0.00347325)
(4.81905 0.856782 0.00407394)
(4.76942 0.855348 0.00339476)
(4.7641 0.853012 0.00388344)
(4.72827 0.852222 0.00331585)
(4.71959 0.850726 0.00371113)
(4.69873 0.85023 0.00323675)
(4.67532 0.846808 0.00355556)
(4.69402 0.85358 0.00315593)
(4.61644 0.807193 0.00344)
(4.75796 0.860877 0.0030514)
(4.56542 -0.202019 0.00473993)
(4.69377 -0.398946 0.00304324)
(5.07796 -0.522764 0.00419618)
(5.16569 -0.625972 0.0027732)
(5.34408 -0.691743 0.00385506)
(5.33918 -0.736332 0.00270353)
(5.42283 -0.76118 0.00361037)
(5.39659 -0.778834 0.00264807)
(5.44051 -0.790001 0.00338803)
(5.41245 -0.799148 0.00257942)
(5.43568 -0.805674 0.00318188)
(5.41057 -0.81119 0.00250433)
(5.42212 -0.815546 0.00299403)
(5.40048 -0.818805 0.00242769)
(5.4058 -0.822584 0.00282331)
(5.38493 -0.822726 0.00235048)
(5.39188 -0.831792 0.00266455)
(5.35224 -0.819001 0.00227107)
(5.39566 -0.859449 0.00249011)
(5.18698 -0.855874 0.00215234)
(4.57758 0.333614 0.00538502)
(4.69138 0.667961 0.00372598)
(5.05734 0.775381 0.00483196)
(5.16342 0.813236 0.00339516)
(5.37509 0.827746 0.00446411)
(5.40889 0.835935 0.0033059)
(5.53065 0.838507 0.00420921)
(5.5419 0.840314 0.00324474)
(5.61871 0.839215 0.00398347)
(5.62154 0.839159 0.00317374)
(5.67042 0.837521 0.00377531)
(5.66889 0.837182 0.00309703)
(5.69936 0.835909 0.00358604)
(5.6955 0.835341 0.00301917)
(5.71308 0.83511 0.00341435)
(5.70901 0.833014 0.00294087)
(5.71489 0.835669 0.00325773)
(5.71256 0.830576 0.00286004)
(5.71552 0.829759 0.00312584)
(5.68096 0.879467 0.00276568)
(4.57161 -0.265218 0.005018)
(4.66468 -0.529234 0.00342273)
(5.02683 -0.641592 0.00452779)
(5.13531 -0.710148 0.00309817)
(5.35774 -0.748883 0.00416583)
(5.40454 -0.774967 0.00300808)
(5.54069 -0.788583 0.00391168)
(5.56639 -0.798491 0.00294766)
(5.65734 -0.803691 0.00368694)
(5.6739 -0.808514 0.00287776)
(5.7356 -0.81129 0.00347979)
(5.74591 -0.814191 0.00280192)
(5.78752 -0.81623 0.0032912)
(5.79254 -0.81768 0.0027247)
(5.82076 -0.820441 0.0031199)
(5.81945 -0.818487 0.00264704)
(5.84231 -0.827495 0.0029618)
(5.82072 -0.814242 0.00256665)
(5.86784 -0.844621 0.00280585)
(5.73396 -0.869129 0.00246535)
(4.57161 0.265218 0.005018)
(4.66468 0.529235 0.00342273)
(5.02683 0.641592 0.00452779)
(5.13531 0.710148 0.00309817)
(5.35774 0.748883 0.00416583)
(5.40454 0.774967 0.00300808)
(5.54069 0.788583 0.00391168)
(5.5664 0.798493 0.00294766)
(5.65733 0.803693 0.00368694)
(5.6739 0.808519 0.00287775)
(5.7356 0.811297 0.0034798)
(5.74592 0.814207 0.00280191)
(5.7875 0.816251 0.00329122)
(5.79258 0.817735 0.00272466)
(5.8207 0.820501 0.00311995)
(5.81959 0.818672 0.00264691)
(5.84221 0.82768 0.00296204)
(5.82116 0.814821 0.00256634)
(5.868 0.84525 0.00280695)
(5.73496 0.870736 0.00246525)
(4.57758 -0.333614 0.00538502)
(4.69138 -0.667961 0.00372598)
(5.05734 -0.775381 0.00483196)
(5.16342 -0.813235 0.00339516)
(5.37509 -0.827746 0.00446411)
(5.40889 -0.835934 0.00330591)
(5.53065 -0.838507 0.0042092)
(5.5419 -0.840312 0.00324474)
(5.61871 -0.839214 0.00398346)
(5.62154 -0.839152 0.00317375)
(5.67043 -0.837517 0.0037753)
(5.66889 -0.837162 0.00309705)
(5.69939 -0.835896 0.00358601)
(5.6955 -0.835273 0.00301922)
(5.71317 -0.835075 0.00341425)
(5.70897 -0.832807 0.00294102)
(5.71516 -0.835557 0.00325742)
(5.71238 -0.830057 0.00286031)
(5.71597 -0.829262 0.00312472)
(5.68076 -0.878158 0.00276546)
(4.56542 0.202019 0.00473993)
(4.69377 0.398946 0.00304324)
(5.07796 0.522764 0.00419618)
(5.16569 0.625972 0.0027732)
(5.34408 0.691743 0.00385505)
(5.33918 0.736333 0.00270353)
(5.42282 0.76118 0.00361037)
(5.3966 0.778835 0.00264808)
(5.4405 0.790004 0.00338803)
(5.41246 0.79915 0.00257942)
(5.43567 0.805683 0.00318188)
(5.4106 0.811197 0.00250433)
(5.4221 0.81557 0.00299403)
(5.40058 0.818833 0.00242769)
(5.40577 0.822654 0.00282331)
(5.38522 0.822834 0.00235044)
(5.39192 0.832006 0.00266464)
(5.3531 0.819467 0.00227093)
(5.39623 0.860115 0.002491)
(5.18945 0.857491 0.00215224)
(4.62402 -0.42264 0.0059053)
(4.81035 -0.838422 0.00398996)
(5.08929 -0.925089 0.00513828)
(5.03816 -0.913724 0.00368616)
(5.08758 -0.895144 0.00476543)
(4.97579 -0.882631 0.00360892)
(4.98166 -0.873816 0.00451243)
(4.89088 -0.868755 0.00354705)
(4.89005 -0.863228 0.00428433)
(4.82254 -0.86045 0.00347326)
(4.81905 -0.85678 0.00407392)
(4.76945 -0.85533 0.00339479)
(4.76412 -0.853008 0.00388338)
(4.72835 -0.852158 0.00331594)
(4.71968 -0.850722 0.00371095)
(4.69894 -0.850035 0.003237)
(4.67565 -0.846813 0.00355503)
(4.69452 -0.853156 0.00315646)
(4.61733 -0.807146 0.00343855)
(4.75938 -0.860281 0.00305171)
(4.73929 0.108108 0.0046239)
(4.61235 0.288749 0.00263719)
(4.53502 0.488089 0.00390157)
(4.20882 0.646239 0.0024885)
(4.09334 0.735446 0.00359318)
(3.87332 0.784945 0.00244877)
(3.82387 0.808633 0.00335821)
(3.68796 0.823011 0.00239595)
(3.66802 0.831133 0.00313524)
(3.57952 0.837251 0.00232563)
(3.57036 0.841117 0.00292772)
(3.5104 0.844363 0.00224947)
(3.50493 0.846324 0.00273909)
(3.46258 0.848517 0.00217221)
(3.45909 0.848961 0.00256773)
(3.42524 0.851847 0.00209463)
(3.42975 0.85039 0.00240898)
(3.38267 0.852869 0.00201707)
(3.43955 0.863196 0.00223757)
(3.13177 0.849894 0.00187175)
(4.33427 -0.547706 0.00717573)
(3.16374 -0.821751 0.00475812)
(2.46032 -0.842647 0.00599406)
(1.96701 -0.828035 0.00454779)
(1.85461 -0.831041 0.00564372)
(1.69493 -0.841876 0.00449355)
(1.69742 -0.850735 0.00539872)
(1.60846 -0.857823 0.00443393)
(1.6201 -0.861373 0.00517033)
(1.56045 -0.864426 0.00435923)
(1.5707 -0.865691 0.00495933)
(1.52949 -0.867254 0.00428042)
(1.53675 -0.867663 0.00476878)
(1.50723 -0.86873 0.0042017)
(1.51207 -0.868354 0.00459659)
(1.48949 -0.87068 0.00412314)
(1.49193 -0.86287 0.00444084)
(1.49313 -0.885905 0.00404296)
(1.42397 -0.77112 0.00432478)
(1.88306 -0.792178 0.00390822)
(4.37745 0.0897251 0.00149797)
(4.01956 0.13321 0.00203042)
(3.54413 0.142209 0.0011038)
(3.16419 0.134305 0.00162734)
(2.83442 0.1232 0.00111254)
(2.62736 0.1163 0.00150274)
(2.47042 0.113154 0.00116019)
(2.38988 0.114328 0.0014016)
(2.32917 0.117496 0.00117113)
(2.30381 0.122126 0.00131063)
(2.28122 0.126674 0.00116831)
(2.2738 0.131122 0.00124046)
(2.26406 0.134678 0.0011656)
(2.26285 0.138071 0.00119152)
(2.25572 0.139812 0.00116817)
(2.26265 0.143467 0.0011598)
(2.24387 0.141104 0.00118007)
(2.28225 0.150025 0.00114008)
(2.2039 0.13521 0.00118137)
(2.34725 0.146507 0.00119529)
(4.53273 0.081146 0.00326935)
(4.6712 0.104186 0.00397347)
(4.69561 0.0980069 0.00304118)
(4.70172 0.0674396 0.00354111)
(4.63186 0.0285878 0.0030036)
(4.57598 -0.0110369 0.00338151)
(4.4946 -0.0444062 0.00303137)
(4.44009 -0.0713321 0.00327009)
(4.37819 -0.0908055 0.00303768)
(4.33945 -0.105383 0.00317716)
(4.29783 -0.115568 0.00303433)
(4.27339 -0.123168 0.00310693)
(4.24668 -0.128867 0.00303203)
(4.2338 -0.132704 0.00305815)
(4.21613 -0.136977 0.00303525)
(4.21498 -0.137165 0.00302602)
(4.19725 -0.143835 0.00304958)
(4.21624 -0.135731 0.00300438)
(4.17648 -0.151026 0.00308812)
(4.23366 -0.128897 0.00309747)
(4.50987 0.0426652 0.00185246)
(4.65237 0.0994101 0.00244522)
(4.75433 0.142181 0.00154556)
(4.89121 0.162194 0.00204985)
(4.96383 0.166529 0.00151926)
(5.03825 0.164149 0.0019036)
(5.06359 0.159443 0.00156122)
(5.09296 0.156091 0.00180422)
(5.09417 0.154075 0.00157635)
(5.10408 0.153638 0.00171706)
(5.09815 0.153664 0.00157632)
(5.1022 0.154322 0.00164887)
(5.0956 0.154289 0.00157486)
(5.09977 0.155408 0.00160089)
(5.09349 0.153589 0.00157787)
(5.10139 0.157495 0.00157032)
(5.09389 0.149252 0.00158777)
(5.10817 0.164582 0.00155759)
(5.09942 0.13889 0.00157584)
(5.11446 0.178366 0.00160674)
(4.50583 0.0405461 0.00285873)
(4.62076 0.0434742 0.00355668)
(4.71719 0.0354688 0.00267939)
(4.86466 0.0152194 0.00318741)
(4.96399 -0.00841467 0.00264306)
(5.07538 -0.0332361 0.00301676)
(5.14116 -0.0555188 0.0026646)
(5.21105 -0.0746114 0.00290329)
(5.25012 -0.0896679 0.00267161)
(5.29461 -0.101525 0.00281117)
(5.3199 -0.11076 0.00266873)
(5.35103 -0.1177 0.002741)
(5.36975 -0.123885 0.00266615)
(5.39301 -0.127509 0.00269212)
(5.40912 -0.133112 0.00266899)
(5.42527 -0.132773 0.00266106)
(5.44482 -0.141393 0.00268178)
(5.44631 -0.132824 0.00264788)
(5.48689 -0.148516 0.00272314)
(5.44741 -0.128451 0.00273229)
(4.50682 0.0156852 0.00216679)
(4.62155 0.0509745 0.00282005)
(4.71184 0.0818252 0.00195271)
(4.85455 0.102819 0.00245277)
(4.95262 0.115331 0.00190723)
(5.06748 0.123595 0.00228144)
(5.14005 0.129188 0.00193221)
(5.21936 0.13415 0.00217294)
(5.26918 0.13837 0.00194376)
(5.32529 0.142338 0.00208422)
(5.36263 0.145548 0.00194318)
(5.40561 0.148387 0.00201564)
(5.43651 0.150216 0.00194153)
(5.47055 0.152256 0.00196753)
(5.49875 0.15225 0.00194452)
(5.52294 0.15526 0.00193755)
(5.55597 0.151072 0.0019545)
(5.55925 0.160473 0.00192918)
(5.62134 0.146368 0.00195746)
(5.57426 0.172705 0.00198393)
(4.50559 0.0106638 0.00249589)
(4.6143 -0.00523483 0.00317751)
(4.7035 -0.0240699 0.00231753)
(4.84499 -0.0445307 0.0028229)
(4.94276 -0.0624245 0.00227582)
(5.05801 -0.0786938 0.00264845)
(5.1319 -0.0924217 0.00229689)
(5.21332 -0.104199 0.0025367)
(5.26602 -0.113704 0.0023065)
(5.32537 -0.121448 0.00244675)
(5.36663 -0.127627 0.00230524)
(5.41331 -0.132383 0.00237765)
(5.44893 -0.136455 0.00230329)
(5.48636 -0.139102 0.00232922)
(5.52032 -0.142163 0.00230623)
(5.54627 -0.143077 0.00229899)
(5.58737 -0.145937 0.00231753)
(5.58832 -0.14546 0.00229033)
(5.66314 -0.147133 0.00234355)
(5.60801 -0.149483 0.00235734)
(4.50559 -0.0106639 0.00249589)
(4.6143 0.00523499 0.00317751)
(4.7035 0.0240698 0.00231753)
(4.84499 0.044531 0.0028229)
(4.94276 0.0624242 0.00227582)
(5.05801 0.0786948 0.00264845)
(5.1319 0.0924215 0.00229689)
(5.21332 0.104201 0.0025367)
(5.26602 0.113704 0.0023065)
(5.32537 0.121454 0.00244675)
(5.36663 0.127629 0.00230524)
(5.41332 0.132401 0.00237766)
(5.44893 0.136461 0.00230328)
(5.48637 0.139165 0.00232927)
(5.52031 0.142178 0.00230617)
(5.54629 0.143278 0.00229912)
(5.58738 0.146003 0.00231725)
(5.58839 0.146002 0.00229059)
(5.66323 0.147577 0.00234219)
(5.60822 0.150703 0.00235743)
(4.50682 -0.0156852 0.00216679)
(4.62155 -0.0509743 0.00282005)
(4.71184 -0.0818254 0.00195271)
(4.85455 -0.102819 0.00245277)
(4.95262 -0.115331 0.00190723)
(5.06748 -0.123594 0.00228144)
(5.14005 -0.129188 0.00193221)
(5.21936 -0.134147 0.00217294)
(5.26918 -0.13837 0.00194376)
(5.32529 -0.142332 0.00208422)
(5.36264 -0.145546 0.00194318)
(5.40561 -0.148367 0.00201563)
(5.43653 -0.150211 0.00194154)
(5.47054 -0.152192 0.00196748)
(5.49879 -0.15224 0.00194457)
(5.52293 -0.155061 0.00193742)
(5.55609 -0.151019 0.00195472)
(5.55929 -0.15995 0.00192893)
(5.62158 -0.145968 0.0019586)
(5.57453 -0.171563 0.0019837)
(4.50583 -0.0405462 0.00285873)
(4.62076 -0.0434741 0.00355668)
(4.71719 -0.0354689 0.00267939)
(4.86466 -0.0152191 0.00318741)
(4.96399 0.00841447 0.00264306)
(5.07538 0.0332369 0.00301676)
(5.14116 0.0555187 0.0026646)
(5.21106 0.0746133 0.00290329)
(5.25011 0.0896685 0.00267161)
(5.29462 0.10153 0.00281117)
(5.3199 0.110763 0.00266872)
(5.35105 0.117716 0.00274102)
(5.36975 0.123892 0.00266613)
(5.39304 0.127565 0.00269217)
(5.40915 0.133126 0.00266891)
(5.42535 0.132956 0.00266118)
(5.44497 0.141444 0.00268146)
(5.44654 0.13334 0.0026481)
(5.48738 0.148884 0.00272179)
(5.44822 0.129645 0.00273228)
(4.50987 -0.0426652 0.00185246)
(4.65237 -0.09941 0.00244522)
(4.75433 -0.142181 0.00154556)
(4.89121 -0.162193 0.00204985)
(4.96383 -0.166529 0.00151926)
(5.03825 -0.164148 0.0019036)
(5.06358 -0.159443 0.00156122)
(5.09296 -0.156088 0.00180422)
(5.09416 -0.154076 0.00157635)
(5.10409 -0.153632 0.00171706)
(5.09814 -0.153663 0.00157632)
(5.10223 -0.154305 0.00164887)
(5.09559 -0.154289 0.00157485)
(5.09985 -0.155353 0.00160089)
(5.09352 -0.153592 0.00157786)
(5.10157 -0.157325 0.00157029)
(5.09409 -0.149248 0.0015878)
(5.10859 -0.164141 0.00155752)
(5.10013 -0.138671 0.00157637)
(5.11571 -0.17749 0.00160673)
(4.53273 -0.081146 0.00326935)
(4.6712 -0.104186 0.00397347)
(4.69561 -0.0980068 0.00304118)
(4.70172 -0.0674396 0.00354111)
(4.63186 -0.0285876 0.00300359)
(4.57598 0.011037 0.00338151)
(4.4946 0.0444067 0.00303137)
(4.44009 0.0713324 0.0032701)
(4.37819 0.0908071 0.00303767)
(4.33947 0.105384 0.00317718)
(4.29781 0.115573 0.00303429)
(4.27346 0.123173 0.00310699)
(4.24665 0.128876 0.00303193)
(4.23398 0.132728 0.00305831)
(4.21609 0.136992 0.00303498)
(4.21543 0.137263 0.00302644)
(4.19727 0.143863 0.0030488)
(4.21738 0.136045 0.0030054)
(4.17689 0.151231 0.00308583)
(4.23682 0.129682 0.00309953)
(4.37745 -0.0897251 0.00149797)
(4.01956 -0.13321 0.00203042)
(3.54413 -0.142209 0.0011038)
(3.16419 -0.134305 0.00162734)
(2.83442 -0.1232 0.00111254)
(2.62736 -0.1163 0.00150274)
(2.47042 -0.113154 0.00116019)
(2.38988 -0.114327 0.0014016)
(2.32917 -0.117496 0.00117112)
(2.30382 -0.122125 0.00131063)
(2.28122 -0.126674 0.00116831)
(2.27383 -0.131119 0.00124046)
(2.26408 -0.134679 0.00116559)
(2.26295 -0.138058 0.00119152)
(2.25581 -0.139821 0.00116813)
(2.2629 -0.143421 0.00115985)
(2.24421 -0.14114 0.00117986)
(2.28304 -0.149901 0.00114038)
(2.20463 -0.135283 0.00118059)
(2.35093 -0.146455 0.00119659)
(4.37745 0.0897251 -0.00149806)
(4.01956 0.13321 -0.0020305)
(3.54413 0.142209 -0.00110388)
(3.16419 0.134305 -0.00162742)
(2.83442 0.1232 -0.00111262)
(2.62736 0.1163 -0.00150283)
(2.47042 0.113154 -0.00116027)
(2.38988 0.114328 -0.00140168)
(2.32917 0.117496 -0.00117121)
(2.30381 0.122126 -0.00131071)
(2.28122 0.126674 -0.00116839)
(2.2738 0.131122 -0.00124054)
(2.26406 0.134678 -0.00116568)
(2.26285 0.138071 -0.0011916)
(2.25572 0.139812 -0.00116825)
(2.26265 0.143467 -0.00115988)
(2.24387 0.141104 -0.00118015)
(2.28225 0.150025 -0.00114016)
(2.2039 0.13521 -0.00118145)
(2.34725 0.146507 -0.00119537)
(4.53273 0.081146 -0.00326943)
(4.6712 0.104186 -0.00397355)
(4.69561 0.0980069 -0.00304126)
(4.70172 0.0674396 -0.00354119)
(4.63186 0.0285877 -0.00300368)
(4.57598 -0.0110369 -0.00338159)
(4.4946 -0.0444063 -0.00303145)
(4.44009 -0.0713321 -0.00327017)
(4.37819 -0.0908056 -0.00303777)
(4.33944 -0.105383 -0.00317724)
(4.29783 -0.115568 -0.00303441)
(4.27339 -0.123168 -0.00310702)
(4.24668 -0.128867 -0.00303211)
(4.2338 -0.132704 -0.00305823)
(4.21613 -0.136977 -0.00303534)
(4.21498 -0.137165 -0.00302611)
(4.19725 -0.143835 -0.00304966)
(4.21624 -0.135731 -0.00300446)
(4.17648 -0.151026 -0.0030882)
(4.23366 -0.128897 -0.00309755)
(4.50987 0.0426652 -0.00185254)
(4.65237 0.0994101 -0.0024453)
(4.75433 0.142181 -0.00154564)
(4.89121 0.162194 -0.00204993)
(4.96383 0.166529 -0.00151934)
(5.03825 0.164149 -0.00190368)
(5.06359 0.159443 -0.00156131)
(5.09296 0.156091 -0.0018043)
(5.09417 0.154075 -0.00157643)
(5.10408 0.153638 -0.00171714)
(5.09815 0.153664 -0.0015764)
(5.1022 0.154322 -0.00164895)
(5.0956 0.154289 -0.00157494)
(5.09977 0.155408 -0.00160098)
(5.09349 0.153589 -0.00157796)
(5.10139 0.157495 -0.00157041)
(5.09389 0.149252 -0.00158786)
(5.10817 0.164582 -0.00155767)
(5.09942 0.13889 -0.00157593)
(5.11446 0.178367 -0.00160682)
(4.50583 0.0405461 -0.00285881)
(4.62076 0.0434742 -0.00355676)
(4.71719 0.0354687 -0.00267947)
(4.86466 0.0152194 -0.00318749)
(4.96399 -0.0084147 -0.00264315)
(5.07538 -0.0332361 -0.00301684)
(5.14116 -0.0555189 -0.00266468)
(5.21105 -0.0746114 -0.00290337)
(5.25011 -0.089668 -0.00267169)
(5.29461 -0.101525 -0.00281125)
(5.3199 -0.11076 -0.00266882)
(5.35103 -0.1177 -0.00274108)
(5.36975 -0.123885 -0.00266624)
(5.39301 -0.127509 -0.0026922)
(5.40912 -0.133113 -0.00266907)
(5.42527 -0.132774 -0.00266115)
(5.44482 -0.141393 -0.00268186)
(5.44631 -0.132824 -0.00264796)
(5.48689 -0.148516 -0.00272322)
(5.44741 -0.128451 -0.00273237)
(4.50682 0.0156852 -0.00216687)
(4.62155 0.0509745 -0.00282013)
(4.71184 0.0818252 -0.00195279)
(4.85455 0.102819 -0.00245285)
(4.95262 0.115331 -0.00190731)
(5.06748 0.123595 -0.00228152)
(5.14005 0.129188 -0.00193229)
(5.21936 0.13415 -0.00217302)
(5.26918 0.13837 -0.00194384)
(5.32529 0.142339 -0.0020843)
(5.36263 0.145548 -0.00194326)
(5.40561 0.148387 -0.00201573)
(5.43651 0.150216 -0.00194161)
(5.47055 0.152256 -0.00196761)
(5.49875 0.15225 -0.00194461)
(5.52294 0.15526 -0.00193763)
(5.55597 0.151072 -0.00195458)
(5.55925 0.160473 -0.00192927)
(5.62134 0.146368 -0.00195754)
(5.57426 0.172705 -0.00198401)
(4.50559 0.0106638 -0.00249597)
(4.6143 -0.00523485 -0.00317759)
(4.7035 -0.02407 -0.00231761)
(4.84499 -0.0445307 -0.00282298)
(4.94276 -0.0624245 -0.0022759)
(5.05801 -0.0786939 -0.00264853)
(5.1319 -0.0924217 -0.00229697)
(5.21332 -0.104199 -0.00253678)
(5.26602 -0.113704 -0.00230658)
(5.32537 -0.121448 -0.00244683)
(5.36663 -0.127627 -0.00230533)
(5.41331 -0.132383 -0.00237773)
(5.44893 -0.136455 -0.00230337)
(5.48636 -0.139102 -0.0023293)
(5.52032 -0.142163 -0.00230631)
(5.54626 -0.143077 -0.00229907)
(5.58737 -0.145937 -0.00231762)
(5.58832 -0.14546 -0.00229042)
(5.66314 -0.147133 -0.00234364)
(5.60801 -0.149483 -0.00235743)
(4.50559 -0.0106639 -0.00249597)
(4.6143 0.00523501 -0.00317759)
(4.7035 0.0240698 -0.00231761)
(4.84499 0.0445311 -0.00282298)
(4.94276 0.0624242 -0.0022759)
(5.05801 0.0786948 -0.00264853)
(5.1319 0.0924215 -0.00229697)
(5.21332 0.104201 -0.00253678)
(5.26602 0.113704 -0.00230658)
(5.32537 0.121454 -0.00244683)
(5.36663 0.127629 -0.00230532)
(5.41331 0.132402 -0.00237775)
(5.44893 0.136461 -0.00230336)
(5.48637 0.139165 -0.00232935)
(5.52031 0.142178 -0.00230626)
(5.54629 0.143278 -0.0022992)
(5.58737 0.146003 -0.00231733)
(5.58839 0.146003 -0.00229067)
(5.66323 0.147577 -0.00234227)
(5.60822 0.150703 -0.00235752)
(4.50682 -0.0156852 -0.00216687)
(4.62155 -0.0509744 -0.00282013)
(4.71184 -0.0818254 -0.00195279)
(4.85455 -0.102819 -0.00245285)
(4.95262 -0.115331 -0.00190731)
(5.06748 -0.123594 -0.00228152)
(5.14005 -0.129188 -0.00193229)
(5.21936 -0.134147 -0.00217302)
(5.26918 -0.13837 -0.00194384)
(5.32529 -0.142332 -0.0020843)
(5.36264 -0.145546 -0.00194327)
(5.40561 -0.148367 -0.00201571)
(5.43653 -0.150211 -0.00194162)
(5.47054 -0.152192 -0.00196756)
(5.49879 -0.15224 -0.00194465)
(5.52293 -0.155061 -0.0019375)
(5.55609 -0.151019 -0.0019548)
(5.55929 -0.15995 -0.00192901)
(5.62158 -0.145968 -0.00195869)
(5.57453 -0.171563 -0.00198378)
(4.50583 -0.0405462 -0.00285881)
(4.62076 -0.0434741 -0.00355676)
(4.71719 -0.0354688 -0.00267947)
(4.86466 -0.0152191 -0.00318749)
(4.96399 0.00841452 -0.00264315)
(5.07538 0.0332369 -0.00301685)
(5.14116 0.0555188 -0.00266468)
(5.21106 0.0746134 -0.00290338)
(5.25011 0.0896686 -0.00267169)
(5.29462 0.10153 -0.00281126)
(5.3199 0.110763 -0.00266881)
(5.35105 0.117716 -0.0027411)
(5.36975 0.123892 -0.00266621)
(5.39304 0.127565 -0.00269225)
(5.40915 0.133126 -0.00266899)
(5.42535 0.132957 -0.00266126)
(5.44497 0.141444 -0.00268154)
(5.44654 0.13334 -0.00264818)
(5.48738 0.148884 -0.00272187)
(5.44822 0.129645 -0.00273236)
(4.50987 -0.0426652 -0.00185254)
(4.65237 -0.09941 -0.0024453)
(4.75433 -0.142181 -0.00154564)
(4.89121 -0.162193 -0.00204993)
(4.96383 -0.166529 -0.00151934)
(5.03825 -0.164149 -0.00190368)
(5.06358 -0.159443 -0.0015613)
(5.09296 -0.156088 -0.0018043)
(5.09416 -0.154076 -0.00157643)
(5.10409 -0.153632 -0.00171714)
(5.09814 -0.153663 -0.0015764)
(5.10223 -0.154305 -0.00164895)
(5.09559 -0.154289 -0.00157493)
(5.09985 -0.155353 -0.00160097)
(5.09352 -0.153592 -0.00157794)
(5.10157 -0.157325 -0.00157037)
(5.09409 -0.149248 -0.00158789)
(5.10859 -0.164142 -0.00155761)
(5.10013 -0.138671 -0.00157645)
(5.11571 -0.17749 -0.00160681)
(4.53273 -0.081146 -0.00326943)
(4.6712 -0.104186 -0.00397355)
(4.69561 -0.0980068 -0.00304126)
(4.70172 -0.0674395 -0.00354119)
(4.63186 -0.0285876 -0.00300368)
(4.57598 0.0110371 -0.0033816)
(4.4946 0.0444068 -0.00303145)
(4.44009 0.0713325 -0.00327018)
(4.37819 0.0908072 -0.00303775)
(4.33947 0.105384 -0.00317726)
(4.29781 0.115573 -0.00303437)
(4.27346 0.123173 -0.00310708)
(4.24665 0.128877 -0.00303201)
(4.23398 0.132728 -0.00305839)
(4.21609 0.136992 -0.00303506)
(4.21543 0.137263 -0.00302652)
(4.19727 0.143863 -0.00304889)
(4.21738 0.136045 -0.00300548)
(4.17689 0.151232 -0.00308592)
(4.23682 0.129682 -0.00309961)
(4.37745 -0.0897251 -0.00149806)
(4.01956 -0.13321 -0.0020305)
(3.54413 -0.142209 -0.00110388)
(3.16419 -0.134305 -0.00162742)
(2.83442 -0.1232 -0.00111262)
(2.62736 -0.1163 -0.00150283)
(2.47042 -0.113154 -0.00116027)
(2.38988 -0.114327 -0.00140168)
(2.32917 -0.117496 -0.00117121)
(2.30382 -0.122125 -0.00131071)
(2.28122 -0.126674 -0.00116839)
(2.27383 -0.131119 -0.00124054)
(2.26408 -0.134679 -0.00116567)
(2.26295 -0.138058 -0.00119161)
(2.25581 -0.139821 -0.00116821)
(2.2629 -0.143421 -0.00115994)
(2.24421 -0.14114 -0.00117995)
(2.28304 -0.149901 -0.00114047)
(2.20463 -0.135283 -0.00118068)
(2.35093 -0.146455 -0.00119667)
(4.33427 0.547706 -0.00717579)
(3.16374 0.821751 -0.00475818)
(2.46032 0.842647 -0.00599412)
(1.96701 0.828035 -0.00454785)
(1.85461 0.831041 -0.00564378)
(1.69493 0.841876 -0.00449361)
(1.69742 0.850735 -0.00539878)
(1.60846 0.857824 -0.00443398)
(1.62009 0.861372 -0.0051704)
(1.56045 0.86443 -0.00435928)
(1.57069 0.865688 -0.0049594)
(1.52947 0.867266 -0.00428047)
(1.53672 0.867653 -0.00476887)
(1.50717 0.868772 -0.00420171)