/*--------------------------------*- C++ -*----------------------------------*\
  =========                 |
  \\      /  F ield         | OpenFOAM: The Open Source CFD Toolbox
   \\    /   O peration     | Website:  https://openfoam.org
    \\  /    A nd           | Version:  7
     \\/     M anipulation  |
\*---------------------------------------------------------------------------*/
FoamFile
{
    version     2.0;
    format      ascii;
    class       volVectorField;
    location    "0.1175";
    object      UMean;
}
// * * * * * * * * * * * * * * * * * * * * * * * * * * * * * * * * * * * * * //

dimensions      [0 1 -1 0 0 0 0];

internalField   nonuniform List<vector> 
1440
(
(11.9737 0.0522721 0)
(11.9088 0.155093 0)
(11.6942 0.254552 0)
(11.4366 0.326962 0)
(11.0996 0.374839 0)
(10.7334 0.398751 0)
(10.3347 0.403362 0)
(9.92907 0.392901 0)
(9.52063 0.372119 0)
(9.12171 0.344414 0)
(8.73679 0.313158 0)
(8.37079 0.280862 0)
(8.02612 0.248393 0)
(7.70496 0.216994 0)
(7.40787 0.187351 0)
(7.13512 0.159919 0)
(6.88608 0.134862 0)
(6.66002 0.112167 0)
(6.45579 0.0918388 0)
(6.27209 0.0737835 0)
(6.10749 0.0578074 0)
(5.96058 0.0438132 0)
(5.8298 0.0316564 0)
(5.71371 0.0211467 0)
(5.61087 0.0121502 0)
(5.51993 0.00455915 0)
(5.4395 -0.00178421 0)
(5.36843 -0.00710754 0)
(5.30566 -0.0115332 0)
(5.25017 -0.0150853 0)
(5.201 -0.0178735 0)
(5.15733 -0.0200393 0)
(5.11844 -0.0216702 0)
(5.08368 -0.0228201 0)
(5.05246 -0.0235596 0)
(5.02429 -0.0240424 0)
(4.99885 -0.0243125 0)
(4.97574 -0.0243693 0)
(4.9547 -0.0241994 0)
(4.93536 -0.0238614 0)
(4.91757 -0.0234553 0)
(4.90113 -0.0229091 0)
(4.88578 -0.0222676 0)
(4.87146 -0.0215878 0)
(4.85799 -0.0208593 0)
(4.84528 -0.0200576 0)
(4.83318 -0.0191786 0)
(4.82159 -0.0183507 0)
(4.81055 -0.0175954 0)
(4.79999 -0.0167972 0)
(4.78981 -0.0159851 0)
(4.78 -0.0152099 0)
(4.77052 -0.0144433 0)
(4.7613 -0.0136092 0)
(4.75228 -0.0128002 0)
(4.74338 -0.0120483 0)
(4.73486 -0.0114086 0)
(4.72617 -0.0107155 0)
(4.7184 -0.0100368 0)
(4.70914 -0.00945167 0)
(11.991 0.0553094 0)
(12.0426 0.130616 0)
(12.0847 0.2071 0)
(12.1721 0.270264 0)
(12.2498 0.324461 0)
(12.337 0.367208 0)
(12.4083 0.399613 0)
(12.4699 0.421764 0)
(12.5122 0.434821 0)
(12.5387 0.439655 0)
(12.5471 0.437506 0)
(12.5406 0.429709 0)
(12.52 0.417147 0)
(12.4879 0.400984 0)
(12.4461 0.382144 0)
(12.3966 0.361534 0)
(12.3411 0.339886 0)
(12.2813 0.3178 0)
(12.2185 0.295793 0)
(12.1539 0.274269 0)
(12.0883 0.2535 0)
(12.0224 0.233734 0)
(11.957 0.215126 0)
(11.8924 0.197754 0)
(11.829 0.181677 0)
(11.767 0.166912 0)
(11.7066 0.153434 0)
(11.648 0.141166 0)
(11.591 0.130042 0)
(11.5358 0.120016 0)
(11.4824 0.111004 0)
(11.4306 0.102906 0)
(11.3806 0.0956392 0)
(11.3322 0.0891212 0)
(11.2853 0.0832725 0)
(11.24 0.0779814 0)
(11.1961 0.0731844 0)
(11.1536 0.0688328 0)
(11.1124 0.0648858 0)
(11.0725 0.061297 0)
(11.0338 0.0579949 0)
(10.9963 0.0549818 0)
(10.9599 0.0522164 0)
(10.9247 0.0496621 0)
(10.8905 0.0473055 0)
(10.8574 0.0451307 0)
(10.8253 0.0431272 0)
(10.7942 0.0412444 0)
(10.764 0.039454 0)
(10.7347 0.037792 0)
(10.7063 0.0362305 0)
(10.6787 0.0347654 0)
(10.652 0.0333817 0)
(10.6261 0.0321247 0)
(10.601 0.0309215 0)
(10.5767 0.0298042 0)
(10.5531 0.0286983 0)
(10.5301 0.0276857 0)
(10.5079 0.026731 0)
(10.4862 0.0257899 0)
(11.99 0.025937 0)
(12.0336 0.0751336 0)
(12.0584 0.125434 0)
(12.1262 0.170057 0)
(12.1908 0.210397 0)
(12.2778 0.243964 0)
(12.3663 0.271021 0)
(12.465 0.290964 0)
(12.564 0.304306 0)
(12.6654 0.311392 0)
(12.7644 0.313005 0)
(12.861 0.310102 0)
(12.9529 0.303269 0)
(13.0397 0.293394 0)
(13.1203 0.281189 0)
(13.1946 0.267354 0)
(13.2623 0.252464 0)
(13.3235 0.237007 0)
(13.3783 0.221394 0)
(13.4271 0.205963 0)
(13.4702 0.190956 0)
(13.508 0.176586 0)
(13.541 0.163002 0)
(13.5696 0.150295 0)
(13.5941 0.138529 0)
(13.6151 0.127737 0)
(13.6329 0.117918 0)
(13.6478 0.109027 0)
(13.6602 0.101021 0)
(13.6704 0.0938671 0)
(13.6787 0.0875059 0)
(13.6852 0.0818673 0)
(13.6902 0.0768809 0)
(13.6939 0.0724757 0)
(13.6965 0.0685916 0)
(13.698 0.0651394 0)
(13.6986 0.0620622 0)
(13.6985 0.0593158 0)
(13.6975 0.0568642 0)
(13.696 0.0546734 0)
(13.6939 0.052686 0)
(13.6912 0.0508956 0)
(13.6881 0.0492709 0)
(13.6846 0.0477857 0)
(13.6807 0.0464231 0)
(13.6764 0.0451681 0)
(13.6719 0.0440154 0)
(13.6671 0.0429265 0)
(13.662 0.0418768 0)
(13.6568 0.0408892 0)
(13.6512 0.0399484 0)
(13.6455 0.03906 0)
(13.6397 0.038206 0)
(13.6336 0.0374232 0)
(13.6275 0.0366674 0)
(13.6212 0.0359532 0)
(13.6148 0.0352348 0)
(13.6083 0.0345573 0)
(13.6017 0.0339133 0)
(13.595 0.033267 0)
(11.9891 0.0238836 0)
(12.0273 0.0653095 0)
(12.0449 0.105825 0)
(12.1019 0.139853 0)
(12.1556 0.169384 0)
(12.2308 0.192903 0)
(12.3084 0.211336 0)
(12.397 0.224727 0)
(12.4878 0.23381 0)
(12.5832 0.239043 0)
(12.6786 0.241008 0)
(12.7745 0.240245 0)
(12.8685 0.237147 0)
(12.9603 0.23217 0)
(13.0487 0.225666 0)
(13.1334 0.217993 0)
(13.2138 0.209454 0)
(13.2899 0.200319 0)
(13.3615 0.19083 0)
(13.4286 0.181195 0)
(13.4912 0.171581 0)
(13.5495 0.162142 0)
(13.6037 0.152991 0)
(13.654 0.144219 0)
(13.7007 0.135893 0)
(13.744 0.128059 0)
(13.7842 0.120744 0)
(13.8216 0.113952 0)
(13.8564 0.107678 0)
(13.8889 0.101915 0)
(13.9193 0.0966392 0)
(13.9478 0.09182 0)
(13.9746 0.087427 0)
(13.9999 0.0834227 0)
(14.0238 0.079773 0)
(14.0465 0.0764341 0)
(14.0682 0.0733752 0)
(14.0888 0.0705681 0)
(14.1085 0.0679858 0)
(14.1273 0.0656071 0)
(14.1454 0.0634013 0)
(14.1628 0.0613599 0)
(14.1795 0.0594618 0)
(14.1957 0.0576912 0)
(14.2113 0.0560366 0)
(14.2263 0.0544866 0)
(14.2409 0.0530313 0)
(14.255 0.0516578 0)
(14.2687 0.0503515 0)
(14.282 0.0491199 0)
(14.2948 0.0479476 0)
(14.3073 0.0468398 0)
(14.3194 0.0457802 0)
(14.3311 0.0447867 0)
(14.3425 0.0438289 0)
(14.3536 0.0429237 0)
(14.3644 0.0420441 0)
(14.3749 0.041208 0)
(14.3851 0.0404122 0)
(14.395 0.0396355 0)
(11.9888 0.0103694 0)
(12.026 0.0291393 0)
(12.0435 0.0480519 0)
(12.0997 0.0649438 0)
(12.1521 0.0804893 0)
(12.2251 0.0936411 0)
(12.2996 0.104509 0)
(12.3845 0.112722 0)
(12.471 0.118392 0)
(12.5619 0.121568 0)
(12.6529 0.122479 0)
(12.7445 0.121438 0)
(12.8347 0.118703 0)
(12.9231 0.114623 0)
(13.0087 0.109498 0)
(13.0912 0.103632 0)
(13.1701 0.0972815 0)
(13.2451 0.0906742 0)
(13.316 0.0839972 0)
(13.3829 0.0774065 0)
(13.4457 0.0710187 0)
(13.5046 0.0649281 0)
(13.5596 0.0592015 0)
(13.611 0.0538821 0)
(13.6589 0.0489964 0)
(13.7037 0.044555 0)
(13.7455 0.0405563 0)
(13.7846 0.0369835 0)
(13.8212 0.0338161 0)
(13.8555 0.0310321 0)
(13.8879 0.0286032 0)
(13.9184 0.0264974 0)
(13.9472 0.0246827 0)
(13.9746 0.0231251 0)
(14.0006 0.0217957 0)
(14.0255 0.0206594 0)
(14.0493 0.0196893 0)
(14.0722 0.0188627 0)
(14.0942 0.018159 0)
(14.1154 0.0175631 0)
(14.1359 0.0170529 0)
(14.1558 0.0166203 0)
(14.175 0.0162513 0)
(14.1938 0.0159357 0)
(14.212 0.0156647 0)
(14.2297 0.015431 0)
(14.247 0.0152281 0)
(14.2639 0.0150483 0)
(14.2804 0.0148804 0)
(14.2965 0.0147311 0)
(14.3123 0.0145908 0)
(14.3278 0.0144675 0)
(14.343 0.0143495 0)
(14.3578 0.0142511 0)
(14.3724 0.0141558 0)
(14.3867 0.0140725 0)
(14.4007 0.0139873 0)
(14.4145 0.0139091 0)
(14.428 0.0138407 0)
(14.4413 0.0137684 0)
(11.9887 0.00534831 0)
(12.0253 0.0157517 0)
(12.041 0.0257002 0)
(12.0945 0.034115 0)
(12.1443 0.0412559 0)
(12.2145 0.0468143 0)
(12.2866 0.0510627 0)
(12.3695 0.0541008 0)
(12.4544 0.0561854 0)
(12.5441 0.0574933 0)
(12.6341 0.0582063 0)
(12.725 0.0584545 0)
(12.8146 0.0583328 0)
(12.9025 0.0579162 0)
(12.9877 0.057251 0)
(13.0698 0.0563771 0)
(13.1483 0.0553228 0)
(13.2229 0.0541143 0)
(13.2936 0.0527759 0)
(13.3602 0.0513321 0)
(13.4228 0.0498052 0)
(13.4814 0.0482193 0)
(13.5363 0.0465958 0)
(13.5876 0.0449549 0)
(13.6355 0.0433149 0)
(13.6802 0.0416918 0)
(13.722 0.0400987 0)
(13.7611 0.038546 0)
(13.7977 0.037042 0)
(13.8321 0.0355933 0)
(13.8645 0.0342035 0)
(13.8951 0.0328743 0)
(13.9241 0.0316065 0)
(13.9515 0.0303994 0)
(13.9777 0.029251 0)
(14.0027 0.0281594 0)
(14.0266 0.027122 0)
(14.0496 0.0261368 0)
(14.0718 0.0252009 0)
(14.0931 0.0243123 0)
(14.1137 0.0234672 0)
(14.1337 0.0226652 0)
(14.1531 0.0219028 0)
(14.1719 0.0211789 0)
(14.1903 0.0204905 0)
(14.2082 0.0198377 0)
(14.2256 0.0192165 0)
(14.2426 0.0186285 0)
(14.2593 0.0180681 0)
(14.2756 0.0175402 0)
(14.2915 0.0170367 0)
(14.3072 0.0165635 0)
(14.3225 0.0161115 0)
(14.3375 0.0156881 0)
(14.3523 0.0152831 0)
(14.3668 0.0149023 0)
(14.381 0.0145386 0)
(14.395 0.0141949 0)
(14.4087 0.0138736 0)
(14.4222 0.0135667 0)
(11.9887 -0.0053483 0)
(12.0253 -0.0157517 0)
(12.041 -0.0257002 0)
(12.0945 -0.034115 0)
(12.1443 -0.0412559 0)
(12.2145 -0.0468143 0)
(12.2866 -0.0510627 0)
(12.3695 -0.0541007 0)
(12.4544 -0.0561853 0)
(12.5441 -0.0574932 0)
(12.6341 -0.0582061 0)
(12.725 -0.0584542 0)
(12.8146 -0.0583324 0)
(12.9025 -0.0579157 0)
(12.9877 -0.0572505 0)
(13.0698 -0.0563764 0)
(13.1483 -0.0553219 0)
(13.2229 -0.0541132 0)
(13.2936 -0.0527746 0)
(13.3602 -0.0513305 0)
(13.4228 -0.0498032 0)
(13.4814 -0.0482169 0)
(13.5363 -0.0465929 0)
(13.5876 -0.0449515 0)
(13.6355 -0.0433109 0)
(13.6802 -0.041687 0)
(13.722 -0.0400931 0)
(13.7611 -0.0385392 0)
(13.7977 -0.0370341 0)
(13.8321 -0.0355839 0)
(13.8645 -0.0341926 0)
(13.8951 -0.0328615 0)
(13.9241 -0.0315916 0)
(13.9515 -0.0303825 0)
(13.9777 -0.0292322 0)
(14.0027 -0.0281386 0)
(14.0266 -0.027099 0)
(14.0496 -0.026111 0)
(14.0718 -0.0251719 0)
(14.0931 -0.0242791 0)
(14.1137 -0.0234293 0)
(14.1337 -0.0226208 0)
(14.1531 -0.0218514 0)
(14.1719 -0.0211178 0)
(14.1903 -0.0204196 0)
(14.2082 -0.019753 0)
(14.2256 -0.0191184 0)
(14.2426 -0.0185103 0)
(14.2593 -0.0179313 0)
(14.2756 -0.0173753 0)
(14.2916 -0.0168461 0)
(14.3072 -0.0163352 0)
(14.3225 -0.0158477 0)
(14.3375 -0.0153762 0)
(14.3523 -0.0149231 0)
(14.3668 -0.0144848 0)
(14.381 -0.014062 0)
(14.395 -0.0136526 0)
(14.4087 -0.0132521 0)
(14.4223 -0.0128627 0)
(11.9888 -0.0103694 0)
(12.026 -0.0291393 0)
(12.0435 -0.0480519 0)
(12.0997 -0.0649438 0)
(12.1521 -0.0804892 0)
(12.2251 -0.0936411 0)
(12.2996 -0.104509 0)
(12.3845 -0.112722 0)
(12.471 -0.118392 0)
(12.5619 -0.121568 0)
(12.6529 -0.122479 0)
(12.7445 -0.121438 0)
(12.8347 -0.118702 0)
(12.9231 -0.114623 0)
(13.0087 -0.109497 0)
(13.0912 -0.103631 0)
(13.1701 -0.0972807 0)
(13.2451 -0.0906731 0)
(13.316 -0.0839959 0)
(13.3829 -0.0774049 0)
(13.4457 -0.0710168 0)
(13.5046 -0.0649258 0)
(13.5596 -0.0591987 0)
(13.611 -0.0538787 0)
(13.6589 -0.0489924 0)
(13.7037 -0.0445504 0)
(13.7455 -0.0405507 0)
(13.7846 -0.036977 0)
(13.8212 -0.0338084 0)
(13.8555 -0.031023 0)
(13.8879 -0.0285927 0)
(13.9184 -0.0264847 0)
(13.9472 -0.0246675 0)
(13.9746 -0.0231077 0)
(14.0006 -0.0217765 0)
(14.0255 -0.0206386 0)
(14.0494 -0.0196666 0)
(14.0722 -0.0188376 0)
(14.0942 -0.0181309 0)
(14.1154 -0.0175309 0)
(14.1359 -0.0170161 0)
(14.1558 -0.0165773 0)
(14.1751 -0.0162015 0)
(14.1938 -0.0158765 0)
(14.212 -0.0155959 0)
(14.2297 -0.0153486 0)
(14.247 -0.0151327 0)
(14.2639 -0.0149334 0)
(14.2804 -0.0147476 0)
(14.2966 -0.0145702 0)
(14.3124 -0.0144052 0)
(14.3279 -0.0142439 0)
(14.343 -0.0140909 0)
(14.3579 -0.0139436 0)
(14.3725 -0.0137989 0)
(14.3868 -0.0136567 0)
(14.4008 -0.013515 0)
(14.4146 -0.0133739 0)
(14.4282 -0.013228 0)
(14.4415 -0.013073 0)
(11.9891 -0.0238836 0)
(12.0273 -0.0653095 0)
(12.0449 -0.105825 0)
(12.1019 -0.139853 0)
(12.1556 -0.169383 0)
(12.2308 -0.192903 0)
(12.3084 -0.211336 0)
(12.397 -0.224727 0)
(12.4878 -0.23381 0)
(12.5832 -0.239043 0)
(12.6786 -0.241008 0)
(12.7745 -0.240245 0)
(12.8685 -0.237147 0)
(12.9603 -0.23217 0)
(13.0487 -0.225665 0)
(13.1334 -0.217993 0)
(13.2138 -0.209453 0)
(13.2899 -0.200318 0)
(13.3615 -0.190829 0)
(13.4286 -0.181193 0)
(13.4912 -0.17158 0)
(13.5495 -0.162139 0)
(13.6037 -0.152989 0)
(13.654 -0.144216 0)
(13.7007 -0.135889 0)
(13.744 -0.128055 0)
(13.7842 -0.120739 0)
(13.8216 -0.113945 0)
(13.8564 -0.107671 0)
(13.8889 -0.101906 0)
(13.9193 -0.0966289 0)
(13.9478 -0.0918076 0)
(13.9746 -0.0874124 0)
(13.9999 -0.083406 0)
(14.0238 -0.0797546 0)
(14.0465 -0.0764142 0)
(14.0682 -0.0733534 0)
(14.0888 -0.0705439 0)
(14.1085 -0.0679589 0)
(14.1273 -0.0655764 0)
(14.1454 -0.0633664 0)
(14.1628 -0.0613191 0)
(14.1796 -0.0594146 0)
(14.1957 -0.057635 0)
(14.2113 -0.0559711 0)
(14.2264 -0.0544086 0)
(14.241 -0.0529411 0)
(14.2551 -0.0515485 0)
(14.2688 -0.0502252 0)
(14.2821 -0.0489663 0)
(14.2949 -0.0477707 0)
(14.3074 -0.0466248 0)
(14.3195 -0.0455333 0)
(14.3313 -0.0444898 0)
(14.3427 -0.0434849 0)
(14.3538 -0.0425204 0)
(14.3647 -0.0415898 0)
(14.3752 -0.0406919 0)
(14.3854 -0.0398187 0)
(14.3954 -0.038961 0)
(11.99 -0.025937 0)
(12.0336 -0.0751336 0)
(12.0584 -0.125434 0)
(12.1262 -0.170057 0)
(12.1908 -0.210397 0)
(12.2778 -0.243964 0)
(12.3663 -0.271021 0)
(12.465 -0.290964 0)
(12.564 -0.304306 0)
(12.6654 -0.311391 0)
(12.7644 -0.313005 0)
(12.861 -0.310102 0)
(12.9529 -0.303269 0)
(13.0397 -0.293394 0)
(13.1203 -0.281188 0)
(13.1946 -0.267353 0)
(13.2623 -0.252464 0)
(13.3235 -0.237007 0)
(13.3783 -0.221393 0)
(13.4271 -0.205961 0)
(13.4702 -0.190954 0)
(13.508 -0.176584 0)
(13.541 -0.162999 0)
(13.5696 -0.150292 0)
(13.5941 -0.138526 0)
(13.6151 -0.127733 0)
(13.6329 -0.117913 0)
(13.6478 -0.109022 0)
(13.6602 -0.101015 0)
(13.6704 -0.0938592 0)
(13.6787 -0.0874977 0)
(13.6852 -0.0818557 0)
(13.6902 -0.0768647 0)
(13.6939 -0.0724565 0)
(13.6965 -0.0685719 0)
(13.698 -0.0651202 0)
(13.6987 -0.0620424 0)
(13.6985 -0.0592948 0)
(13.6976 -0.0568409 0)
(13.696 -0.0546471 0)
(13.6939 -0.052656 0)
(13.6913 -0.0508607 0)
(13.6882 -0.0492305 0)
(13.6847 -0.0477374 0)
(13.6808 -0.0463667 0)
(13.6765 -0.0451008 0)
(13.672 -0.043938 0)
(13.6673 -0.042833 0)
(13.6622 -0.0417697 0)
(13.657 -0.040756 0)
(13.6515 -0.0397978 0)
(13.6458 -0.0388718 0)
(13.64 -0.0379915 0)
(13.634 -0.037158 0)
(13.6279 -0.0363482 0)
(13.6217 -0.0355704 0)
(13.6154 -0.0348187 0)
(13.6089 -0.0341003 0)
(13.6025 -0.0333929 0)
(13.5959 -0.0326702 0)
(11.991 -0.0553094 0)
(12.0426 -0.130616 0)
(12.0847 -0.2071 0)
(12.1721 -0.270264 0)
(12.2498 -0.324461 0)
(12.337 -0.367208 0)
(12.4083 -0.399613 0)
(12.4699 -0.421764 0)
(12.5122 -0.434821 0)
(12.5387 -0.439655 0)
(12.5471 -0.437506 0)
(12.5406 -0.429709 0)
(12.52 -0.417147 0)
(12.4879 -0.400984 0)
(12.4461 -0.382144 0)
(12.3966 -0.361534 0)
(12.3411 -0.339885 0)
(12.2813 -0.317799 0)
(12.2185 -0.295793 0)
(12.1539 -0.274268 0)
(12.0883 -0.253498 0)
(12.0224 -0.233733 0)
(11.957 -0.215124 0)
(11.8924 -0.197752 0)
(11.829 -0.181674 0)
(11.767 -0.166909 0)
(11.7067 -0.15343 0)
(11.648 -0.141162 0)
(11.591 -0.130037 0)
(11.5358 -0.12001 0)
(11.4824 -0.110998 0)
(11.4307 -0.102898 0)
(11.3806 -0.0956277 0)
(11.3322 -0.0891078 0)
(11.2854 -0.0832586 0)
(11.2401 -0.077968 0)
(11.1962 -0.0731708 0)
(11.1537 -0.0688186 0)
(11.1125 -0.0648705 0)
(11.0726 -0.0612801 0)
(11.0339 -0.0579758 0)
(10.9964 -0.0549596 0)
(10.9601 -0.0521911 0)
(10.9249 -0.0496312 0)
(10.8907 -0.0472693 0)
(10.8576 -0.045088 0)
(10.8255 -0.0430788 0)
(10.7944 -0.0411838 0)
(10.7643 -0.0393861 0)
(10.735 -0.0377049 0)
(10.7067 -0.0361343 0)
(10.6792 -0.034638 0)
(10.6526 -0.0332435 0)
(10.6268 -0.0319397 0)
(10.6018 -0.0306932 0)
(10.5775 -0.0295214 0)
(10.554 -0.028414 0)
(10.5313 -0.02738 0)
(10.5092 -0.0263866 0)
(10.4878 -0.0254015 0)
(11.9737 -0.052272 0)
(11.9088 -0.155093 0)
(11.6942 -0.254552 0)
(11.4366 -0.326962 0)
(11.0996 -0.374839 0)
(10.7334 -0.398751 0)
(10.3347 -0.403362 0)
(9.92907 -0.392901 0)
(9.52063 -0.372119 0)
(9.12171 -0.344414 0)
(8.73679 -0.313158 0)
(8.37079 -0.280862 0)
(8.02612 -0.248393 0)
(7.70496 -0.216994 0)
(7.40787 -0.187351 0)
(7.13512 -0.159919 0)
(6.88608 -0.134862 0)
(6.66002 -0.112167 0)
(6.45579 -0.0918386 0)
(6.27209 -0.0737832 0)
(6.10749 -0.057807 0)
(5.96058 -0.0438128 0)
(5.8298 -0.031656 0)
(5.71372 -0.0211462 0)
(5.61088 -0.0121494 0)
(5.51994 -0.00455835 0)
(5.43951 0.0017854 0)
(5.36845 0.00710847 0)
(5.30567 0.0115351 0)
(5.25019 0.0150862 0)
(5.20102 0.0178705 0)
(5.15736 0.0200404 0)
(5.11847 0.0216795 0)
(5.08373 0.0228322 0)
(5.05251 0.0235675 0)
(5.02436 0.0240451 0)
(4.99892 0.0243139 0)
(4.97582 0.024371 0)
(4.95479 0.0242019 0)
(4.93546 0.0238652 0)
(4.91768 0.0234605 0)
(4.90125 0.0229141 0)
(4.88592 0.0222735 0)
(4.87162 0.021595 0)
(4.85816 0.020867 0)
(4.84548 0.0200691 0)
(4.83341 0.0191912 0)
(4.82185 0.0183639 0)
(4.81085 0.0176111 0)
(4.80034 0.0168232 0)
(4.79022 0.0160074 0)
(4.78047 0.0152486 0)
(4.77109 0.0144666 0)
(4.76194 0.0136716 0)
(4.75307 0.0129384 0)
(4.74443 0.0122279 0)
(4.73602 0.0115216 0)
(4.72778 0.0107833 0)
(4.71965 0.0101129 0)
(4.71173 0.00956507 0)
(4.70329 -0.0087924 0)
(4.6978 -0.00821079 0)
(4.69225 -0.0076792 0)
(4.68679 -0.00716129 0)
(4.68126 -0.00658641 0)
(4.67571 -0.00605304 0)
(4.67014 -0.00561931 0)
(4.66463 -0.00518195 0)
(4.65908 -0.00473723 0)
(4.65357 -0.00436334 0)
(4.6481 -0.00404321 0)
(4.64274 -0.0036813 0)
(4.63734 -0.00333469 0)
(4.63206 -0.00307103 0)
(4.62684 -0.00281708 0)
(4.62173 -0.00261724 0)
(4.61676 -0.00235142 0)
(4.61176 -0.00204188 0)
(4.60683 -0.00183394 0)
(4.60199 -0.00160086 0)
(4.59714 -0.00136475 0)
(4.59237 -0.00122069 0)
(4.5877 -0.00101931 0)
(4.58301 -0.000828512 0)
(4.57843 -0.000749932 0)
(4.57395 -0.000614098 0)
(4.56949 -0.000442905 0)
(4.5651 -0.000334895 0)
(4.56078 -0.000259683 0)
(4.55657 -0.000235045 0)
(4.55249 -0.000139705 0)
(4.5484 1.93669e-05 0)
(4.54436 9.52034e-05 0)
(4.54041 0.000214332 0)
(4.53641 0.000316784 0)
(4.53254 0.000318041 0)
(4.52875 0.000402548 0)
(4.52495 0.000507834 0)
(4.52123 0.000512388 0)
(4.51762 0.000570966 0)
(4.51398 0.000669596 0)
(4.51042 0.000703256 0)
(4.50689 0.000739585 0)
(4.50344 0.000791767 0)
(4.49999 0.000871784 0)
(4.49658 0.000917201 0)
(4.49321 0.00087726 0)
(4.48998 0.000839799 0)
(4.48678 0.000910444 0)
(4.48358 0.000942387 0)
(4.48048 0.000943859 0)
(4.47736 0.000919287 0)
(4.47445 0.00104139 0)
(4.47119 0.000994811 0)
(4.46859 0.00106574 0)
(4.46517 0.000835451 0)
(4.46329 0.000951062 0)
(4.45957 0.000722906 0)
(4.45861 0.000870907 0)
(4.45458 0.000914571 0)
(10.4652 0.0249953 0)
(10.445 0.0241997 0)
(10.4253 0.0234517 0)
(10.4063 0.0227346 0)
(10.3879 0.0220788 0)
(10.3701 0.0214421 0)
(10.3529 0.0208084 0)
(10.3362 0.0202023 0)
(10.3201 0.0196194 0)
(10.3044 0.0190368 0)
(10.2893 0.0184579 0)
(10.2746 0.0179062 0)
(10.2605 0.0173737 0)
(10.2467 0.0168284 0)
(10.2335 0.0163072 0)
(10.2206 0.01579 0)
(10.2081 0.0153181 0)
(10.1961 0.0148909 0)
(10.1845 0.0144584 0)
(10.1733 0.0140633 0)
(10.1624 0.0136966 0)
(10.1519 0.0133155 0)
(10.1416 0.0129698 0)
(10.1318 0.0126443 0)
(10.1222 0.0122996 0)
(10.1129 0.0119862 0)
(10.1038 0.0116946 0)
(10.0951 0.0113939 0)
(10.0866 0.0111023 0)
(10.0784 0.0108064 0)
(10.0703 0.0105437 0)
(10.0625 0.0103201 0)
(10.055 0.0100806 0)
(10.0477 0.00987447 0)
(10.0405 0.00967913 0)
(10.0336 0.00945155 0)
(10.0269 0.00925286 0)
(10.0203 0.00907215 0)
(10.014 0.00886676 0)
(10.0078 0.00868873 0)
(10.0018 0.00853156 0)
(9.99598 0.00836363 0)
(9.99028 0.00820947 0)
(9.98476 0.00806053 0)
(9.97937 0.00792786 0)
(9.97418 0.00778947 0)
(9.96908 0.00763918 0)
(9.96411 0.00748254 0)
(9.95923 0.00738294 0)
(9.95455 0.00723966 0)
(9.94994 0.00716092 0)
(9.94543 0.00698034 0)
(9.94109 0.00698609 0)
(9.93675 0.00672392 0)
(9.93279 0.00678758 0)
(9.92844 0.00633375 0)
(9.92501 0.00645141 0)
(9.92049 0.00583165 0)
(9.91815 0.0058943 0)
(9.91324 0.00509124 0)
(13.5882 0.0326837 0)
(13.5815 0.0321009 0)
(13.5746 0.0315452 0)
(13.5677 0.0309955 0)
(13.5608 0.0304781 0)
(13.5539 0.0299682 0)
(13.547 0.029445 0)
(13.5401 0.0289218 0)
(13.5332 0.028403 0)
(13.5263 0.0278706 0)
(13.5194 0.0273234 0)
(13.5125 0.0267806 0)
(13.5057 0.0262444 0)
(13.4989 0.0256895 0)
(13.4921 0.0251424 0)
(13.4853 0.0245881 0)
(13.4786 0.0240556 0)
(13.4719 0.0235579 0)
(13.4653 0.0230594 0)
(13.4587 0.0225781 0)
(13.4522 0.0221196 0)
(13.4457 0.021655 0)
(13.4394 0.0212105 0)
(13.4331 0.0207819 0)
(13.4268 0.0203397 0)
(13.4207 0.019914 0)
(13.4146 0.01951 0)
(13.4086 0.0191018 0)
(13.4027 0.018698 0)
(13.3969 0.0182925 0)
(13.3911 0.0179038 0)
(13.3854 0.017554 0)
(13.3798 0.0172032 0)
(13.3744 0.01687 0)
(13.369 0.0165452 0)
(13.3637 0.0162018 0)
(13.3584 0.0158731 0)
(13.3533 0.0155607 0)
(13.3483 0.0152347 0)
(13.3433 0.0149226 0)
(13.3385 0.0146357 0)
(13.3337 0.0143448 0)
(13.329 0.0140702 0)
(13.3244 0.0137989 0)
(13.3199 0.0135412 0)
(13.3155 0.0132776 0)
(13.3112 0.0130122 0)
(13.307 0.0127214 0)
(13.3028 0.0125056 0)
(13.2988 0.0122342 0)
(13.2948 0.0120716 0)
(13.2909 0.0117346 0)
(13.2871 0.01169 0)
(13.2834 0.0112145 0)
(13.2799 0.0113205 0)
(13.2761 0.0104956 0)
(13.2732 0.0108366 0)
(13.2691 0.00944173 0)
(13.2671 0.0100366 0)
(13.2624 0.00776001 0)
(14.4047 0.038918 0)
(14.4141 0.0382113 0)
(14.4232 0.0375383 0)
(14.4321 0.0368793 0)
(14.4407 0.0362458 0)
(14.4492 0.0356218 0)
(14.4574 0.0350055 0)
(14.4653 0.0343976 0)
(14.4731 0.0337981 0)
(14.4806 0.0332004 0)
(14.488 0.0326071 0)
(14.4951 0.0320198 0)
(14.502 0.0314415 0)
(14.5087 0.030862 0)
(14.5151 0.0302941 0)
(14.5214 0.0297318 0)
(14.5275 0.029185 0)
(14.5334 0.0286563 0)
(14.5391 0.0281346 0)
(14.5447 0.027629 0)
(14.55 0.0271381 0)
(14.5552 0.026651 0)
(14.5603 0.0261768 0)
(14.5652 0.0257125 0)
(14.57 0.0252496 0)
(14.5746 0.0247973 0)
(14.579 0.024354 0)
(14.5834 0.0239124 0)
(14.5876 0.0234787 0)
(14.5917 0.0230503 0)
(14.5956 0.0226333 0)
(14.5994 0.0222334 0)
(14.6031 0.0218367 0)
(14.6068 0.0214536 0)
(14.6103 0.0210794 0)
(14.6137 0.0207043 0)
(14.617 0.0203395 0)
(14.6202 0.0199843 0)
(14.6233 0.0196297 0)
(14.6263 0.0192858 0)
(14.6292 0.0189531 0)
(14.632 0.0186213 0)
(14.6347 0.0183013 0)
(14.6374 0.0179809 0)
(14.64 0.0176746 0)
(14.6425 0.0173592 0)
(14.6449 0.0170665 0)
(14.6473 0.0167438 0)
(14.6495 0.0164897 0)
(14.6517 0.0161476 0)
(14.6538 0.0159503 0)
(14.6559 0.0155353 0)
(14.6579 0.0154521 0)
(14.6599 0.0148638 0)
(14.6616 0.0149719 0)
(14.6636 0.0140172 0)
(14.665 0.0144317 0)
(14.6671 0.0128239 0)
(14.6679 0.0135714 0)
(14.6702 0.0109583 0)
(14.4544 0.0137131 0)
(14.4673 0.0136526 0)
(14.4799 0.0136005 0)
(14.4923 0.0135435 0)
(14.5045 0.013491 0)
(14.5166 0.0134334 0)
(14.5284 0.0133678 0)
(14.54 0.0132932 0)
(14.5514 0.0132114 0)
(14.5626 0.0131176 0)
(14.5737 0.0130132 0)
(14.5845 0.0128996 0)
(14.5951 0.0127808 0)
(14.6056 0.0126488 0)
(14.6158 0.0125135 0)
(14.6259 0.0123711 0)
(14.6358 0.0122284 0)
(14.6455 0.0120909 0)
(14.655 0.0119522 0)
(14.6644 0.0118158 0)
(14.6735 0.0116834 0)
(14.6826 0.0115483 0)
(14.6914 0.0114147 0)
(14.7001 0.0112821 0)
(14.7087 0.0111451 0)
(14.7171 0.0110081 0)
(14.7254 0.0108736 0)
(14.7335 0.0107358 0)
(14.7414 0.0105971 0)
(14.7493 0.0104586 0)
(14.757 0.0103217 0)
(14.7645 0.0101945 0)
(14.772 0.0100678 0)
(14.7793 0.009945 0)
(14.7864 0.00982456 0)
(14.7935 0.00970016 0)
(14.8004 0.00957756 0)
(14.8072 0.00945782 0)
(14.8139 0.00933678 0)
(14.8204 0.00921707 0)
(14.8269 0.00910518 0)
(14.8332 0.00899095 0)
(14.8394 0.00888441 0)
(14.8455 0.00877457 0)
(14.8515 0.00867433 0)
(14.8574 0.00856347 0)
(14.8631 0.00846953 0)
(14.8688 0.00834782 0)
(14.8743 0.00827844 0)
(14.8798 0.00814654 0)
(14.8851 0.00811824 0)
(14.8905 0.00793856 0)
(14.8954 0.00798442 0)
(14.9007 0.00769772 0)
(14.9052 0.00785911 0)
(14.9105 0.00734386 0)
(14.9142 0.00767527 0)
(14.9199 0.00676519 0)
(14.9222 0.00725175 0)
(14.9287 0.0057684 0)
(14.4355 0.0132857 0)
(14.4486 0.0130143 0)
(14.4614 0.0127611 0)
(14.4741 0.0125153 0)
(14.4865 0.0122828 0)
(14.4988 0.0120558 0)
(14.5109 0.011835 0)
(14.5227 0.0116182 0)
(14.5344 0.0114074 0)
(14.5459 0.011199 0)
(14.5572 0.0109964 0)
(14.5683 0.0107979 0)
(14.5792 0.0106047 0)
(14.59 0.0104113 0)
(14.6005 0.0102217 0)
(14.6109 0.0100332 0)
(14.621 0.00984823 0)
(14.6311 0.00966815 0)
(14.6409 0.00949132 0)
(14.6506 0.00932164 0)
(14.6601 0.00915708 0)
(14.6694 0.00899515 0)
(14.6786 0.00883636 0)
(14.6877 0.00867824 0)
(14.6966 0.00852077 0)
(14.7054 0.00836435 0)
(14.714 0.00821008 0)
(14.7225 0.00805611 0)
(14.7308 0.00790321 0)
(14.739 0.00775335 0)
(14.7471 0.00760729 0)
(14.755 0.00746715 0)
(14.7629 0.00733095 0)
(14.7706 0.0072007 0)
(14.7781 0.00707516 0)
(14.7856 0.00695294 0)
(14.7929 0.00683529 0)
(14.8001 0.00672115 0)
(14.8072 0.00661061 0)
(14.8142 0.00650318 0)
(14.821 0.00640075 0)
(14.8278 0.00629784 0)
(14.8344 0.00620223 0)
(14.8409 0.00610339 0)
(14.8473 0.00601603 0)
(14.8536 0.00591953 0)
(14.8598 0.00584464 0)
(14.8659 0.00574847 0)
(14.8718 0.00569422 0)
(14.8778 0.00559209 0)
(14.8834 0.00556426 0)
(14.8892 0.00544356 0)
(14.8946 0.00545658 0)
(14.9003 0.00529786 0)
(14.9052 0.00536816 0)
(14.911 0.00514578 0)
(14.915 0.005284 0)
(14.9212 0.00496067 0)
(14.9236 0.00513239 0)
(14.9306 0.00466013 0)
(14.4355 -0.0124792 0)
(14.4486 -0.0121076 0)
(14.4615 -0.0117429 0)
(14.4741 -0.0113908 0)
(14.4866 -0.0110451 0)
(14.4988 -0.0107115 0)
(14.5109 -0.0103886 0)
(14.5228 -0.0100784 0)
(14.5344 -0.00977783 0)
(14.5459 -0.00949001 0)
(14.5572 -0.00921152 0)
(14.5683 -0.00894362 0)
(14.5792 -0.00868577 0)
(14.59 -0.00844187 0)
(14.6005 -0.00820834 0)
(14.6108 -0.00798756 0)
(14.621 -0.00777726 0)
(14.631 -0.00757501 0)
(14.6409 -0.00738006 0)
(14.6506 -0.00718929 0)
(14.6601 -0.0070044 0)
(14.6694 -0.00682563 0)
(14.6786 -0.00665388 0)
(14.6877 -0.00649011 0)
(14.6966 -0.00633197 0)
(14.7053 -0.00618166 0)
(14.7139 -0.00603597 0)
(14.7224 -0.00589672 0)
(14.7307 -0.0057642 0)
(14.739 -0.00563388 0)
(14.747 -0.00550735 0)
(14.755 -0.00538171 0)
(14.7628 -0.00525602 0)
(14.7705 -0.00513126 0)
(14.7781 -0.00500759 0)
(14.7855 -0.00488503 0)
(14.7928 -0.00476436 0)
(14.8001 -0.00464607 0)
(14.8071 -0.00452735 0)
(14.8141 -0.00441213 0)
(14.8209 -0.00429631 0)
(14.8277 -0.00418393 0)
(14.8343 -0.00406927 0)
(14.8408 -0.00395937 0)
(14.8472 -0.00384452 0)
(14.8536 -0.00373654 0)
(14.8597 -0.00361813 0)
(14.8658 -0.00350963 0)
(14.8718 -0.0033848 0)
(14.8777 -0.00327085 0)
(14.8834 -0.00313993 0)
(14.8892 -0.00301045 0)
(14.8945 -0.00287851 0)
(14.9003 -0.00270949 0)
(14.9051 -0.00258651 0)
(14.911 -0.00232822 0)
(14.915 -0.00223958 0)
(14.9212 -0.00180253 0)
(14.9236 -0.00178878 0)
(14.9306 -0.00103404 0)
(14.4546 -0.0129125 0)
(14.4674 -0.0127499 0)
(14.4801 -0.0125843 0)
(14.4925 -0.0124206 0)
(14.5047 -0.0122511 0)
(14.5167 -0.0120824 0)
(14.5285 -0.0119136 0)
(14.5401 -0.0117461 0)
(14.5515 -0.011574 0)
(14.5627 -0.0114026 0)
(14.5738 -0.0112229 0)
(14.5846 -0.011036 0)
(14.5952 -0.0108471 0)
(14.6057 -0.0106634 0)
(14.6159 -0.0104844 0)
(14.6259 -0.0103129 0)
(14.6358 -0.0101491 0)
(14.6455 -0.0099933 0)
(14.655 -0.00983975 0)
(14.6644 -0.00968032 0)
(14.6736 -0.00952296 0)
(14.6826 -0.00936601 0)
(14.6915 -0.00921566 0)
(14.7002 -0.00907646 0)
(14.7087 -0.00894046 0)
(14.7171 -0.00881187 0)
(14.7254 -0.00868527 0)
(14.7335 -0.00856307 0)
(14.7415 -0.00844934 0)
(14.7493 -0.00833478 0)
(14.757 -0.008221 0)
(14.7646 -0.00810947 0)
(14.772 -0.00799276 0)
(14.7794 -0.00787389 0)
(14.7866 -0.00775348 0)
(14.7936 -0.00762735 0)
(14.8006 -0.00750129 0)
(14.8074 -0.00737709 0)
(14.8141 -0.00724777 0)
(14.8206 -0.00711976 0)
(14.8271 -0.0069943 0)
(14.8334 -0.00687076 0)
(14.8397 -0.00674566 0)
(14.8458 -0.00662411 0)
(14.8518 -0.00649852 0)
(14.8577 -0.006377 0)
(14.8635 -0.006243 0)
(14.8692 -0.00611011 0)
(14.8747 -0.00597053 0)
(14.8803 -0.00582633 0)
(14.8856 -0.00569542 0)
(14.891 -0.00551083 0)
(14.8959 -0.00541038 0)
(14.9013 -0.00512528 0)
(14.9058 -0.00508633 0)
(14.9112 -0.00455347 0)
(14.9149 -0.00463562 0)
(14.9207 -0.00363376 0)
(14.923 -0.00389717 0)
(14.9295 -0.00213048 0)
(14.4051 -0.0381269 0)
(14.4145 -0.0373125 0)
(14.4236 -0.0365207 0)
(14.4326 -0.0357511 0)
(14.4413 -0.0349935 0)
(14.4497 -0.0342559 0)
(14.458 -0.0335356 0)
(14.466 -0.0328336 0)
(14.4738 -0.0321429 0)
(14.4814 -0.031469 0)
(14.4887 -0.0308015 0)
(14.4959 -0.0301402 0)
(14.5029 -0.0294941 0)
(14.5096 -0.028867 0)
(14.5161 -0.0282567 0)
(14.5225 -0.0276691 0)
(14.5286 -0.0271038 0)
(14.5346 -0.0265593 0)
(14.5404 -0.0260269 0)
(14.5461 -0.0254989 0)
(14.5515 -0.0249842 0)
(14.5568 -0.0244785 0)
(14.562 -0.023991 0)
(14.5669 -0.0235225 0)
(14.5718 -0.0230615 0)
(14.5765 -0.0226174 0)
(14.581 -0.0221812 0)
(14.5854 -0.021759 0)
(14.5897 -0.0213537 0)
(14.5939 -0.0209507 0)
(14.5979 -0.020559 0)
(14.6019 -0.020177 0)
(14.6057 -0.019792 0)
(14.6094 -0.0194132 0)
(14.613 -0.0190399 0)
(14.6165 -0.0186645 0)
(14.6199 -0.0182979 0)
(14.6232 -0.017939 0)
(14.6264 -0.0175767 0)
(14.6295 -0.0172241 0)
(14.6325 -0.0168789 0)
(14.6354 -0.016538 0)
(14.6382 -0.0162011 0)
(14.641 -0.01587 0)
(14.6436 -0.0155413 0)
(14.6463 -0.0152151 0)
(14.6487 -0.0148857 0)
(14.6512 -0.0145504 0)
(14.6535 -0.0142281 0)
(14.6559 -0.0138775 0)
(14.6581 -0.0135794 0)
(14.6603 -0.0131656 0)
(14.6623 -0.0129351 0)
(14.6645 -0.0123617 0)
(14.6663 -0.0122557 0)
(14.6685 -0.011312 0)
(14.67 -0.0114415 0)
(14.6723 -0.00978129 0)
(14.6732 -0.010243 0)
(14.6756 -0.00734206 0)
(13.5893 -0.0319662 0)
(13.5826 -0.0312744 0)
(13.5759 -0.0306062 0)
(13.5692 -0.0299594 0)
(13.5625 -0.0293101 0)
(13.5557 -0.0286734 0)
(13.549 -0.0280575 0)
(13.5422 -0.0274543 0)
(13.5355 -0.0268517 0)
(13.5288 -0.0262658 0)
(13.5221 -0.02566 0)
(13.5155 -0.0250288 0)
(13.5088 -0.0244037 0)
(13.5022 -0.0238019 0)
(13.4956 -0.0232191 0)
(13.489 -0.0226579 0)
(13.4825 -0.022127 0)
(13.476 -0.0216341 0)
(13.4696 -0.0211428 0)
(13.4632 -0.0206295 0)
(13.4569 -0.0201255 0)
(13.4507 -0.0196212 0)
(13.4444 -0.0191477 0)
(13.4383 -0.0187129 0)
(13.4322 -0.0182849 0)
(13.4262 -0.0178779 0)
(13.4202 -0.0174708 0)
(13.4143 -0.017082 0)
(13.4085 -0.0167276 0)
(13.4028 -0.0163675 0)
(13.3972 -0.0160179 0)
(13.3916 -0.0156881 0)
(13.3862 -0.0153444 0)
(13.3808 -0.0150076 0)
(13.3755 -0.0146752 0)
(13.3703 -0.0143259 0)
(13.3651 -0.0139947 0)
(13.3601 -0.0136781 0)
(13.3551 -0.0133435 0)
(13.3502 -0.0130198 0)
(13.3454 -0.0127188 0)
(13.3407 -0.0124211 0)
(13.3361 -0.0121291 0)
(13.3315 -0.0118439 0)
(13.3271 -0.011571 0)
(13.3227 -0.0113011 0)
(13.3185 -0.0110155 0)
(13.3143 -0.0107182 0)
(13.3102 -0.0104345 0)
(13.3062 -0.01015 0)
(13.3023 -0.00989612 0)
(13.2985 -0.00956696 0)
(13.2948 -0.00938676 0)