/*--------------------------------*- C++ -*----------------------------------*\
  =========                 |
  \\      /  F ield         | OpenFOAM: The Open Source CFD Toolbox
   \\    /   O peration     | Website:  https://openfoam.org
    \\  /    A nd           | Version:  7
     \\/     M anipulation  |
\*---------------------------------------------------------------------------*/
FoamFile
{
    version     2.0;
    format      ascii;
    class       volScalarField;
    location    "0.04";
    object      pPrime2Mean;
}
// * * * * * * * * * * * * * * * * * * * * * * * * * * * * * * * * * * * * * //

dimensions      [2 -2 -4 0 0 0 0];

internalField   nonuniform List<scalar> 
1440
(
427112
424494
423022
421977
420850
419575
418264
416971
415662
414308
412918
411500
410050
408564
407040
405479
403881
402244
400570
398858
397109
395323
393499
391639
389743
387811
385844
383843
381807
379738
377637
375503
373337
371140
368913
366654
364367
362049
359702
357327
354923
352491
350031
347543
345028
342486
339917
337321
334699
332051
329378
326679
323956
321208
318436
315642
312825
309986
307126
304246
301347
298430
295495
292543
289576
286594
283598
280588
277566
274531
271485
268428
265360
262282
259194
256097
252991
249876
246754
243624
240487
237343
234193
231038
227877
224712
221542
218369
215192
212013
208831
205647
202462
199275
196088
192900
189712
186524
183336
180148
176959
173771
170583
167396
164210
161026
157844
154666
151494
148330
145176
142035
138911
135807
132726
129673
126651
123664
120715
117807
427112
424507
423036
422008
420893
419615
418303
417015
415708
414353
412961
411543
410094
408607
407082
405520
403921
402285
400610
398898
397149
395362
393539
391679
389783
387852
385885
383884
381849
379781
377680
375547
373382
371185
368958
366701
364414
362097
359751
357376
354972
352540
350080
347593
345078
342536
339967
337371
334750
332102
329429
326730
324007
321259
318488
315694
312877
310038
307178
304299
301400
298483
295548
292596
289629
286648
283651
280642
277619
274585
271539
268481
265414
262335
259248
256150
253044
249930
246808
243678
240541
237397
234247
231092
227931
224765
221596
218422
215246
212066
208884
205700
202515
199328
196141
192953
189765
186576
183388
180200
177011
173823
170635
167447
164261
161076
157894
154716
151543
148379
145224
142083
138958
135854
132772
129718
126695
123707
120755
117848
427122
424530
423066
422046
420934
419652
418335
417042
415732
414372
412975
411553
410100
408610
407083
405520
403921
402284
400609
398897
397148
395362
393539
391680
389785
387854
385888
383887
381853
379785
377685
375552
373387
371191
368964
366707
364419
362102
359756
357381
354977
352545
350085
347597
345081
342539
339970
337374
334752
332104
329430
326731
324008
321260
318489
315694
312877
310038
307179
304299
301400
298482
295547
292596
289629
286647
283651
280641
277618
274584
271537
268480
265412
262334
259246
256148
253042
249928
246805
243675
240538
237394
234244
231089
227928
224763
221593
218419
215243
212063
208881
205697
202512
199325
196138
192950
189761
186573
183384
180196
177008
173819
170631
167444
164257
161072
157890
154712
151539
148375
145220
142079
138954
135849
132768
129714
126691
123703
120753
117848
427121
424532
423071
422054
420943
419660
418341
417048
415737
414377
412979
411557
410103
408612
407083
405519
403918
402280
400604
398891
397141
395354
393530
391670
389775
387844
385878
383878
381844
379776
377676
375544
373379
371184
368957
366700
364413
362096
359750
357375
354971
352539
350079
347591
345075
342533
339964
337368
334745
332097
329424
326725
324002
321254
318482
315688
312871
310032
307173
304293
301394
298477
295542
292591
289624
286642
283646
280636
277614
274579
271533
268475
265407
262329
259241
256144
253038
249923
246801
243671
240534
237390
234240
231085
227924
224759
221589
218415
215239
212059
208877
205693
202508
199322
196134
192946
189758
186570
183381
180193
177005
173816
170628
167441
164254
161070
157888
154709
151537
148372
145218
142076
138952
135847
132765
129711
126688
123700
120749
117844
427116
424532
423075
422061
420954
419673
418355
417063
415753
414393
412995
411571
410117
408623
407092
405527
403925
402285
400608
398894
397143
395356
393532
391672
389777
387846
385881
383881
381848
379781
377682
375551
373387
371192
368966
366710
364423
362107
359761
357386
354982
352550
350090
347602
345086
342544
339974
337378
334756
332108
329434
326735
324012
321264
318493
315698
312882
310043
307184
304304
301405
298488
295553
292602
289635
286653
283657
280647
277625
274590
271544
268486
265418
262340
259252
256155
253049
249934
246811
243681
240544
237401
234251
231095
227934
224769
221599
218426
215249
212069
208887
205703
202518
199331
196144
192956
189768
186579
183391
180202
177014
173826
170637
167450
164263
161079
157896
154718
151545
148381
145226
142084
138959
135854
132773
129718
126695
123707
120757
117852
427107
424525
423071
422060
420955
419677
418361
417071
415763
414404
413006
411583
410128
408634
407102
405535
403932
402291
400613
398897
397146
395357
393532
391672
389776
387845
385880
383880
381847
379781
377682
375551
373388
371194
368968
366712
364426
362109
359764
357389
354985
352553
350092
347604
345088
342545
339975
337379
334757
332108
329435
326736
324012
321264
318493
315699
312882
310043
307184
304304
301406
298489
295554
292603
289636
286654
283658
280648
277625
274591
271544
268487
265418
262340
259252
256155
253048
249934
246811
243681
240544
237400
234250
231095
227934
224769
221599
218425
215249
212069
208887
205703
202518
199331
196144
192956
189768
186579
183391
180202
177013
173825
170637
167449
164263
161078
157896
154717
151545
148380
145225
142084
138959
135853
132772
129717
126694
123706
120756
117850
427094
424513
423061
422053
420951
419676
418364
417076
415771
414413
413017
411594
410140
408645
407113
405545
403940
402298
400618
398901
397148
395358
393533
391671
389775
387844
385879
383879
381847
379781
377683
375552
373389
371196
368971
366715
364429
362113
359767
357392
354988
352556
350096
347607
345091
342548
339978
337382
334759
332110
329436
326738
324014
321266
318495
315701
312884
310045
307186
304307
301408
298491
295557
292605
289639
286657
283660
280651
277628
274593
271547
268489
265421
262343
259255
256157
253051
249936
246814
243684
240546
237403
234253
231097
227937
224771
221601
218428
215251
212072
208890
205706
202520
199334
196146
192958
189770
186582
183393
180205
177016
173828
170640
167452
164265
161080
157898
154720
151547
148382
145227
142086
138961
135855
132774
129719
126696
123708
120758
117852
427076
424497
423047
422040
420942
419671
418362
417079
415776
414421
413027
411606
410152
408658
407125
405556
403951
402307
400625
398907
397152
395361
393535
391673
389776
387844
385879
383879
381847
379781
377683
375553
373391
371198
368973
366718
364432
362116
359771
357396
354992
352560
350099
347610
345094
342551
339981
337384
334761
332112
329438
326739
324016
321268
318497
315702
312886
310047
307188
304309
301410
298493
295559
292608
289641
286659
283663
280653
277631
274596
271550
268492
265424
262345
259257
256159
253053
249938
246816
243686
240549
237405
234255
231099
227939
224773
221604
218430
215253
212074
208892
205708
202523
199336
196149
192961
189772
186584
183395
180207
177018
173830
170642
167454
164267
161082
157900
154722
151549
148384
145229
142087
138962
135857
132775
129721
126697
123710
120759
117854
427054
424476
423027
422023
420928
419661
418358
417078
415779
414427
413036
411617
410164
408671
407139
405569
403963
402318
400635
398915
397159
395367
393539
391676
389778
387846
385880
383880
381847
379782
377684
375554
373392
371199
368975
366720
364434
362119
359773
357398
354995
352562
350101
347612
345096
342552
339982
337385
334762
332113
329439
326740
324016
321269
318497
315703
312887
310048
307189
304310
301412
298495
295560
292609
289643
286661
283665
280655
277632
274598
271551
268493
265425
262347
259258
256161
253054
249940
246817
243687
240550
237406
234256
231101
227940
224775
221605
218431
215255
212075
208893
205709
202524
199337
196150
192962
189774
186585
183397
180208
177020
173831
170643
167455
164269
161084
157901
154723
151550
148385
145230
142089
138963
135858
132776
129722
126698
123710
120760
117855
427028
424450
423000
421997
420906
419645
418349
417075
415779
414431
413043
411627
410176
408684
407152
405582
403974
402328
400643
398922
397165
395371
393542
391678
389780
387847
385880
383881
381848
379783
377685
375555
373394
371201
368977
366722
364436
362121
359776
357401
354997
352564
350103
347614
345098
342554
339983
337386
334763
332114
329440
326741
324017
321269
318498
315704
312887
310049
307190
304311
301413
298496
295562
292611
289644
286662
283666
280656
277634
274599
271552
268495
265426
262348
259260
256162
253056
249941
246818
243688
240551
237407
234257
231102
227941
224776
221606
218433
215256
212076
208894
205711
202525
199339
196151
192963
189775
186587
183398
180209
177021
173832
170644
167457
164270
161085
157903
154724
151551
148386
145231
142090
138964
135859
132777
129723
126699
123711
120761
117856
427003
424425
422975
421969
420880
419628
418340
417070
415777
414433
413049
411637
410190
408701
407171
405601
403992
402344
400658
398935
397176
395381
393550
391684
389784
387850
385883
383882
381849
379783
377685
375555
373393
371200
368977
366722
364437
362121
359776
357401
354997
352565
350104
347615
345098
342554
339984
337386
334763
332114
329440
326741
324017
321269
318498
315704
312888
310049
307191
304311
301413
298496
295562
292611
289645
286663
283667
280657
277634
274600
271553
268495
265427
262348
259260
256163
253056
249941
246819
243689
240551
237408
234258
231102
227942
224776
221607
218433
215257
212077
208895
205711
202526
199339
196152
192964
189776
186587
183399
180210
177022
173833
170645
167457
164271
161086
157903
154725
151552
148387
145232
142090
138965
135859
132777
129723
126700
123712
120762
117857
426953
424376
422928
421920
420835
419600
418326
417062
415770
414429
413049
411638
410191
408703
407174
405605
403995
402347
400661
398937
397178
395382
393551
391685
389785
387850
385883
383882
381849
379783
377685
375555
373393
371201
368977
366722
364437
362121
359776
357402
354998
352565
350104
347615
345098
342554
339983
337386
334763
332114
329440
326740
324017
321269
318498
315704
312887
310049
307190
304311
301413
298496
295562
292611
289644
286663
283667
280657
277634
274600
271553
268495
265427
262348
259260
256163
253056
249941
246819
243689
240552
237408
234258
231102
227942
224776
221607
218433
215257
212077
208895
205712
202526
199340
196152
192964
189776
186588
183399
180210
177022
173833
170645
167458
164271
161086
157904
154725
151552
148387
145232
142090
138965
135860
132778
129723
126700
123713
120763
117858
)
;

boundaryField
{
    upperWall
    {
        type            calculated;
        value           nonuniform List<scalar> 
120
(
426953
424376
422928
421920
420835
419600
418326
417062
415770
414429
413049
411638
410191
408703
407174
405605
403995
402347
400661
398937
397178
395382
393551
391685
389785
387850
385883
383882
381849
379783
377685
375555
373393
371201
368977
366722
364437
362121
359776
357402
354998
352565
350104
347615
345098
342554
339983
337386
334763
332114
329440
326740
324017
321269
318498
315704
312887
310049
307190
304311
301413
298496
295562
292611
289644
286663
283667
280657
277634
274600
271553
268495
265427
262348
259260
256163
253056
249941
246819
243689
240552
237408
234258
231102
227942
224776
221607
218433
215257
212077
208895
205712
202526
199340
196152
192964
189776
186588
183399
180210
177022
173833
170645
167458
164271
161086
157904
154725
151552
148387
145232
142090
138965
135860
132778
129723
126700
123713
120763
117858
)
;
    }
    lowerWall
    {
        type            calculated;
        value           nonuniform List<scalar> 
120
(
427112
424494
423022
421977
420850
419575
418264
416971
415662
414308
412918
411500
410050
408564
407040
405479
403881
402244
400570
398858
397109
395323
393499
391639
389743
387811
385844
383843
381807
379738
377637
375503
373337
371140
368913
366654
364367
362049
359702
357327
354923
352491
350031
347543
345028
342486
339917
337321
334699
332051
329378
326679
323956
321208
318436
315642
312825
309986
307126
304246
301347
298430
295495
292543
289576
286594
283598
280588
277566
274531
271485
268428
265360
262282
259194
256097
252991
249876
246754
243624
240487
237343
234193
231038
227877
224712
221542
218369
215192
212013
208831
205647
202462
199275
196088
192900
189712
186524
183336
180148
176959
173771
170583
167396
164210
161026
157844
154666
151494
148330
145176
142035
138911
135807
132726
129673
126651
123664
120715
117807
)
;
    }
    inlet
    {
        type            calculated;
        value           nonuniform List<scalar> 
12
(
427112
427112
427122
427121
427116
427107
427094
427076
427054
427028
427003
426953
)
;
    }
    outlet
    {
        type            calculated;
        value           nonuniform List<scalar> 
12
(
116324
116369
116369
116365
116373
116371
116373
116375
116376
116377
116378
116380
)
;
    }
    frontAndBack
    {
        type            empty;
    }
}


// ************************************************************************* //
