/*--------------------------------*- C++ -*----------------------------------*\
  =========                 |
  \\      /  F ield         | OpenFOAM: The Open Source CFD Toolbox
   \\    /   O peration     | Website:  https://openfoam.org
    \\  /    A nd           | Version:  7
     \\/     M anipulation  |
\*---------------------------------------------------------------------------*/
FoamFile
{
    version     2.0;
    format      ascii;
    class       volScalarField;
    location    "0.02";
    object      pPrime2Mean;
}
// * * * * * * * * * * * * * * * * * * * * * * * * * * * * * * * * * * * * * //

dimensions      [2 -2 -4 0 0 0 0];

internalField   nonuniform List<scalar> 
1352
(
572251
554853
541506
530185
519840
505923
573125
555079
541612
530926
520975
512614
573918
555304
542011
531959
523846
517466
574475
555835
542710
533283
526171
520803
575208
556593
543749
534930
528627
524066
576970
558503
546212
538215
532768
528792
578401
560180
548364
540834
535634
531677
578316
560782
549427
542041
536762
532696
578283
561308
550232
542795
537306
533060
577203
561232
550318
542882
537378
533067
519850
519972
520213
520522
520869
521180
521390
521433
521267
520882
520319
519641
518884
518008
516926
515532
513736
511499
508840
505833
502584
499202
495793
492438
489196
486107
483204
480520
478078
475878
473883
472018
470206
468382
466504
464548
462504
460367
458134
455804
453374
450845
448214
445483
442652
439719
436685
433550
430313
426973
423527
419974
416310
412527
408619
404573
400383
396036
391561
387013
519156
519343
519709
520185
520720
521247
521709
522055
522231
522189
521922
521458
520819
519968
518824
517293
515313
512874
510016
506820
503399
499881
496372
492949
489657
486517
483553
480793
478272
476004
473964
472076
470256
468428
466547
464587
462537
460395
458158
455822
453387
450853
448220
445488
442655
439722
436688
433552
430315
426974
423529
419975
416310
412528
408619
404572
400378
396022
391497
386762
517492
517779
518325
519098
520051
521112
522193
523182
523972
524498
524728
524636
524178
523310
521991
520198
517921
515173
512009
508525
504850
501119
497446
493907
490534
487323
484272
481398
478749
476370
474240
472288
470421
468559
466650
464667
462598
460439
458187
455841
453399
450861
448225
445490
442657
439723
436689
433554
430316
426975
423530
419976
416311
412528
408618
404570
400370
396001
391434
386621
514864
515223
516087
517470
519302
521406
523566
525578
527280
528525
529184
529177
528506
527231
525431
523166
520464
517344
513856
510088
506166
502231
498404
494765
491324
488058
484945
481993
479254
476783
474574
472558
470638
468730
466783
464768
462674
460495
458228
455870
453419
450874
448234
445496
442661
439726
436691
433555
430317
426976
423530
419976
416311
412527
408616
404565
400358
395974
391377
386514
509406
509765
511038
513444
516823
520796
524843
528492
531342
533105
533670
533124
531702
529685
527308
524628
521640
518326
514704
510851
506876
502906
499053
495386
491920
488633
485496
482513
479734
477216
474957
472886
470908
468945
466949
464896
462771
460568
458281
455909
453447
450894
448248
445506
442667
439730
436694
433557
430318
426977
423530
419976
416310
412526
408613
404559
400345
395947
391324
386417
498648
497166
497725
501738
508394
515850
522711
528224
531917
533787
534045
533069
531264
528985
526464
523762
520838
517649
514197
510533
506752
502957
499235
495649
492224
488957
485837
482877
480120
477609
475331
473218
471185
469165
467121
465029
462874
460646
458341
455953
453480
450918
448265
445518
442676
439737
436699
433561
430321
426979
423532
419978
416311
412525
408611
404554
400334
395923
391279
386341
484711
481675
483135
491184
501418
511045
518872
524656
528362
530159
530403
529520
527914
525910
523697
521319
518735
515902
512811
509499
506039
502512
498993
495543
492206
489005
485951
483067
480383
477916
475640
473496
471418
469355
467273
465149
462969
460721
458398
455997
453513
450943
448283
445532
442686
439744
436704
433565
430324
426982
423534
419979
416311
412525
408609
404549
400323
395902
391242
386283
480353
480193
484064
492086
501548
510135
517072
522188
525459
527043
527256
526489
525112
523396
521473
519366
517042
514469
511641
508581
505344
501999
498621
495280
492034
488921
485961
483171
480565
478140
475869
473704
471595
469501
467392
465246
463046
460781
458446
456034
453542
450965
448300
445545
442696
439752
436711
433570
430329
426986
423538
419982
416314
412527
408610
404547
400318
395889
391219
386246
481310
485270
489655
495949
503550
510752
516624
520948
523713
525016
525132
524419
523196
521668
519929
517995
515842
513434
510757
507834
504717
501481
498207
494970
491829
488819
485959
483256
480711
478317
476049
473872
471742
469626
467495
465329
463113
460835
458488
456066
453567
450984
448315
445556
442705
439760
436717
433575
430333
426989
423541
419984
416316
412528
408610
404547
400315
395883
391207
386227
494340
493373
495386
499969
506062
512021
516849
520320
522478
523450
523472
522824
521732
520340
518722
516896
514836
512509
509909
507062
504031
500897
497742
494634
491621
488731
485974
483351
480860
478491
476225
474036
471887
469749
467596
465412
463179
460887
458529
456098
453592
451004
448330
445569
442715
439767
436723
433580
430338
426993
423544
419987
416319
412530
408612
404548
400316
395883
391206
386225
506161
502596
502534
505368
509621
513829
517197
519558
521002
521644
521608
521041
520076
518808
517286
515521
513503
511225
508696
505958
503074
500118
497158
494244
491408
488667
486026
483486
481045
478698
476433
474228
472056
469892
467714
465506
463253
460945
458573
456133
453618
451024
448347
445581
442725
439775
436729
433586
430342
426997
423547
419990
416321
412533
408614
404551
400320
395891
391222
386250
512970
510538
510059
511252
513313
515473
517254
518515
519284
519577
519406
518819
517887
516665
515187
513467
511514
509346
506990
504484
501876
499212
496533
493868
491240
488660
486139
483681
481290
478963
476693
474465
472262
470063
467853
465616
463338
461010
458623
456171
453648
451047
448365
445596
442737
439786
436738
433594
430349
427003
423553
419996
416326
412538
408620
404558
400331
395911
391255
386304
517362
515441
514571
514699
515491
516511
517416
518035
518320
518263
517862
517144
516145
514900
513431
511757
509897
507868
505695
503402
501022
498585
496116
493634
491158
488701
486278
483895
481551
479245
476968
474713
472471
470231
467983
465715
463412
461065
458664
456201
453671
451065
448379
445607
442746
439792
436744
433598
430353
427006
423555
419998
416328
412540
408623
404563
400341
395932
391297
386380
521147
519315
518078
517460
517330
517481
517682
517742
517571
517159
516515
515647
514565
513288
511834
510219
508458
506565
504555
502447
500262
498022
495743
493436
491112
488782
486461
484155
481860
479569
477277
474984
472693
470405
468115
465812
463484
461117
458703
456231
453694
451083
448394
445620
442757
439802
436752
433606
430360
427012
423561
420003
416334
412546
408629
404572
400356
395961
391352
386482
526024
524034
522329
520989
519978
519173
518432
517663
516831
515920
514916
513802
512572
511225
509771
508216
506569
504837
503032
501165
499251
497300
495317
493294
491219
489085
486898
484666
482392
480074
477719
475345
472969
470607
468259
465914
463556
461169
458741
456259
453715
451101
448408
445632
442768
439812
436761
433613
430367
427019
423567
420009
416339
412551
408635
404580
400370
395990
391414
386601
528801
526643
524683
522975
521477
520113
518825
517580
516353
515118
513855
512545
511180
509753
508266
506721
505129
503499
501848
500185
498516
496836
495130
493380
491566
489659
487624
485440
483109
480663
478148
475623
473137
470704
468312
465942
463571
461178
458747
456265
453722
451108
448416
445641
442776
439820
436769
433620
430373
427025
423573
420015
416345
412556
408641
404586
400381
396007
391460
386716
529772
527573
525534
523681
521982
520394
518891
517454
516062
514693
513324
511935
510513
509047
507534
505978
504390
502794
501216
499677
498178
496681
495105
493392
491565
489667
487691
485586
483298
480830
478259
475685
473166
470712
468309
465934
463563
461173
458745
456266
453724
451111
448420
445644
442780
439824
436773
433625
430378
427029
423577
420018
416348
412559
408645
404589
400387
396015
391493
386810
530089
527906
525886
524003
522225
520536
518934
517409
515947
514525
513123
511719
510295
508835
507331
505782
504198
502601
501021
499495
498050
496644
495151
493473
491623
489658
487613
485463
483167
480728
478201
475655
473149
470702
468304
465933
463565
461176
458750
456271
453730
451117
448426
445651
442787
439830
436779
433631
430384
427035
423583
420024
416354
412566
408651
404596
400394
396023
391515
386897
530071
527939
525973
524105
522314
520608
518988
517445
515965
514528
513116
511708
510284
508828
507332
505794
504224
502639
501066
499532
498056
496604
495082
493402
491574
489633
487599
485451
483157
480718
478193
475653
473152
470707
468311
465940
463572
461183
458757
456278
453736
451123
448432
445656
442792
439836
436784
433636
430389
427040
423588
420029
416358
412569
408655
404599
400398
396028
391522
386954
382275
376198
368942
360161
349218
335441
318011
296897
381617
375613
368405
359600
348632
334849
317436
296344
381526
375637
368389
359519
348505
334692
317248
296187
381336
375337
368068
359183
348154
334329
316885
295840
381203
375251
367985
359056
347993
334142
316683
295658
381098
375115
367817
358870
347799
333938
316480
295458
381021
375035
367737
358768
347675
333798
316334
295325
380972
374975
367664
358680
347578
333694
316229
295229
380946
374943
367630
358637
347524
333632
316165
295176
380945
374941
367624
358626
347506
333608
316141
295163
380979
374980
367665
358669
347543
333640
316173
295209
381052
375060
367745
358758
347633
333730
316267
295315
381166
375184
367891
358914
347786
333885
316422
295488
381315
375337
368043
359090
347970
334080
316625
295709
381491
375570
368309
359366
348245
334364
316909
296008
381668
375700
368443
359524
348423
334559
317123
296231
381894
375937
368676
359764
348669
334805
317362
296464
382043
375994
368739
359837
348750
334893
317453
296573
382259
376137
368883
359983
348896
335039
317591
296722
)
;

boundaryField
{
    inlet
    {
        type            calculated;
        value           nonuniform List<scalar> 10(572251 573125 573918 574475 575208 576970 578401 578316 578283 577203);
    }
    outlet
    {
        type            calculated;
        value           nonuniform List<scalar> 
19
(
281140
280594
280443
280115
279942
279753
279627
279536
279485
279473
279517
279617
279781
279991
280275
280488
280721
280855
281049
)
;
    }
    upperWall
    {
        type            calculated;
        value           nonuniform List<scalar> 
74
(
577203
561232
550318
542882
537378
533067
530071
527939
525973
524105
522314
520608
518988
517445
515965
514528
513116
511708
510284
508828
507332
505794
504224
502639
501066
499532
498056
496604
495082
493402
491574
489633
487599
485451
483157
480718
478193
475653
473152
470707
468311
465940
463572
461183
458757
456278
453736
451123
448432
445656
442792
439836
436784
433636
430389
427040
423588
420029
416358
412569
408655
404599
400398
396028
391522
386954
382259
376137
368883
359983
348896
335039
317591
296722
)
;
    }
    lowerWall
    {
        type            calculated;
        value           nonuniform List<scalar> 
83
(
572251
554853
541506
530185
519840
505923
519850
519156
517492
514864
509406
498648
484711
480353
481310
519850
519972
520213
520522
520869
521180
521390
521433
521267
520882
520319
519641
518884
518008
516926
515532
513736
511499
508840
505833
502584
499202
495793
492438
489196
486107
483204
480520
478078
475878
473883
472018
470206
468382
466504
464548
462504
460367
458134
455804
453374
450845
448214
445483
442652
439719
436685
433550
430313
426973
423527
419974
416310
412527
408619
404573
400383
396036
391561
387013
382275
376198
368942
360161
349218
335441
318011
296897
)
;
    }
    frontAndBack
    {
        type            empty;
    }
}


// ************************************************************************* //
