/*--------------------------------*- C++ -*----------------------------------*\
  =========                 |
  \\      /  F ield         | OpenFOAM: The Open Source CFD Toolbox
   \\    /   O peration     | Website:  https://openfoam.org
    \\  /    A nd           | Version:  7
     \\/     M anipulation  |
\*---------------------------------------------------------------------------*/
FoamFile
{
    version     2.0;
    format      ascii;
    class       volScalarField;
    location    "1.6325";
    object      pPrime2Mean;
}
// * * * * * * * * * * * * * * * * * * * * * * * * * * * * * * * * * * * * * //

dimensions      [2 -2 -4 0 0 0 0];

internalField   nonuniform List<scalar> 
7920
(
1.05252e+06
1.05128e+06
1.05131e+06
1.04998e+06
1.04991e+06
1.04835e+06
1.04809e+06
1.04631e+06
1.04584e+06
1.04388e+06
1.04323e+06
1.04116e+06
1.04036e+06
1.03821e+06
1.03729e+06
1.03508e+06
1.03404e+06
1.03177e+06
1.03066e+06
1.02849e+06
1.05245e+06
1.05118e+06
1.05117e+06
1.04981e+06
1.04974e+06
1.04816e+06
1.0479e+06
1.0461e+06
1.04563e+06
1.04366e+06
1.04301e+06
1.04093e+06
1.04013e+06
1.03797e+06
1.03705e+06
1.03483e+06
1.03379e+06
1.0315e+06
1.0304e+06
1.02822e+06
1.05246e+06
1.05116e+06
1.05115e+06
1.0498e+06
1.04972e+06
1.04816e+06
1.04791e+06
1.04613e+06
1.04567e+06
1.04372e+06
1.04308e+06
1.04101e+06
1.04021e+06
1.03806e+06
1.03714e+06
1.03492e+06
1.03388e+06
1.0316e+06
1.03047e+06
1.02827e+06
1.05245e+06
1.05116e+06
1.05115e+06
1.04979e+06
1.04971e+06
1.04814e+06
1.04788e+06
1.04608e+06
1.04562e+06
1.04366e+06
1.04302e+06
1.04094e+06
1.04015e+06
1.038e+06
1.03707e+06
1.03486e+06
1.03382e+06
1.03152e+06
1.03041e+06
1.02814e+06
1.05246e+06
1.05116e+06
1.05114e+06
1.04979e+06
1.0497e+06
1.04813e+06
1.04787e+06
1.04609e+06
1.04563e+06
1.04368e+06
1.04304e+06
1.04097e+06
1.04018e+06
1.03804e+06
1.03712e+06
1.0349e+06
1.03386e+06
1.03158e+06
1.03044e+06
1.02816e+06
1.05245e+06
1.05115e+06
1.05113e+06
1.04977e+06
1.04969e+06
1.04812e+06
1.04786e+06
1.04608e+06
1.04562e+06
1.04366e+06
1.04302e+06
1.04095e+06
1.04016e+06
1.03801e+06
1.03709e+06
1.03488e+06
1.03384e+06
1.03155e+06
1.03042e+06
1.02812e+06
1.05245e+06
1.05115e+06
1.05113e+06
1.04977e+06
1.04969e+06
1.04812e+06
1.04786e+06
1.04608e+06
1.04562e+06
1.04366e+06
1.04302e+06
1.04095e+06
1.04016e+06
1.03801e+06
1.03709e+06
1.03488e+06
1.03384e+06
1.03155e+06
1.03042e+06
1.02812e+06
1.05246e+06
1.05116e+06
1.05114e+06
1.04979e+06
1.0497e+06
1.04813e+06
1.04787e+06
1.04609e+06
1.04563e+06
1.04368e+06
1.04304e+06
1.04097e+06
1.04018e+06
1.03804e+06
1.03712e+06
1.0349e+06
1.03386e+06
1.03158e+06
1.03043e+06
1.02816e+06
1.05245e+06
1.05116e+06
1.05115e+06
1.04979e+06
1.04971e+06
1.04814e+06
1.04788e+06
1.04608e+06
1.04562e+06
1.04366e+06
1.04302e+06
1.04094e+06
1.04015e+06
1.038e+06
1.03707e+06
1.03486e+06
1.03382e+06
1.03153e+06
1.03041e+06
1.02814e+06
1.05246e+06
1.05116e+06
1.05115e+06
1.0498e+06
1.04972e+06
1.04816e+06
1.04791e+06
1.04613e+06
1.04567e+06
1.04372e+06
1.04308e+06
1.04101e+06
1.04021e+06
1.03806e+06
1.03714e+06
1.03493e+06
1.03388e+06
1.0316e+06
1.03047e+06
1.02827e+06
1.05245e+06
1.05118e+06
1.05117e+06
1.04981e+06
1.04974e+06
1.04816e+06
1.0479e+06
1.0461e+06
1.04563e+06
1.04366e+06
1.04301e+06
1.04093e+06
1.04013e+06
1.03797e+06
1.03705e+06
1.03483e+06
1.03379e+06
1.0315e+06
1.0304e+06
1.02822e+06
1.05252e+06
1.05128e+06
1.05131e+06
1.04998e+06
1.04991e+06
1.04835e+06
1.04809e+06
1.04631e+06
1.04584e+06
1.04388e+06
1.04323e+06
1.04116e+06
1.04036e+06
1.03821e+06
1.03729e+06
1.03508e+06
1.03404e+06
1.03177e+06
1.03066e+06
1.02849e+06
1.05152e+06
1.04995e+06
1.05031e+06
1.04869e+06
1.04894e+06
1.0471e+06
1.04716e+06
1.04515e+06
1.045e+06
1.04285e+06
1.0425e+06
1.04026e+06
1.03974e+06
1.03745e+06
1.03678e+06
1.03445e+06
1.03364e+06
1.03127e+06
1.03035e+06
1.02801e+06
1.05158e+06
1.04996e+06
1.05031e+06
1.04871e+06
1.04898e+06
1.04718e+06
1.04726e+06
1.04527e+06
1.04514e+06
1.04301e+06
1.04267e+06
1.04044e+06
1.03992e+06
1.03764e+06
1.03697e+06
1.03465e+06
1.03384e+06
1.03148e+06
1.03057e+06
1.02825e+06
1.05157e+06
1.04997e+06
1.05034e+06
1.04873e+06
1.04899e+06
1.04716e+06
1.04722e+06
1.04522e+06
1.04507e+06
1.04293e+06
1.04259e+06
1.04036e+06
1.03984e+06
1.03755e+06
1.03688e+06
1.03455e+06
1.03374e+06
1.03136e+06
1.03045e+06
1.02803e+06
1.05161e+06
1.04997e+06
1.05031e+06
1.04869e+06
1.04895e+06
1.04713e+06
1.04721e+06
1.04523e+06
1.0451e+06
1.04298e+06
1.04264e+06
1.04042e+06
1.03991e+06
1.03763e+06
1.03697e+06
1.03464e+06
1.03383e+06
1.03146e+06
1.03053e+06
1.02814e+06
1.0516e+06
1.04996e+06
1.05031e+06
1.04868e+06
1.04895e+06
1.04713e+06
1.0472e+06
1.04521e+06
1.04507e+06
1.04294e+06
1.0426e+06
1.04038e+06
1.03986e+06
1.03758e+06
1.03692e+06
1.03459e+06
1.03378e+06
1.0314e+06
1.03048e+06
1.02803e+06
1.05161e+06
1.04997e+06
1.05031e+06
1.04868e+06
1.04894e+06
1.04713e+06
1.0472e+06
1.04521e+06
1.04508e+06
1.04296e+06
1.04262e+06
1.0404e+06
1.03989e+06
1.03761e+06
1.03694e+06
1.03462e+06
1.0338e+06
1.03143e+06
1.0305e+06
1.02807e+06
1.05161e+06
1.04997e+06
1.05031e+06
1.04868e+06
1.04894e+06
1.04713e+06
1.0472e+06
1.04521e+06
1.04508e+06
1.04296e+06
1.04262e+06
1.0404e+06
1.03989e+06
1.03761e+06
1.03694e+06
1.03462e+06
1.0338e+06
1.03143e+06
1.0305e+06
1.02807e+06
1.0516e+06
1.04996e+06
1.05031e+06
1.04868e+06
1.04895e+06
1.04713e+06
1.0472e+06
1.04521e+06
1.04507e+06
1.04294e+06
1.0426e+06
1.04038e+06
1.03986e+06
1.03759e+06
1.03692e+06
1.03459e+06
1.03378e+06
1.0314e+06
1.03048e+06
1.02803e+06
1.05161e+06
1.04997e+06
1.05031e+06
1.04869e+06
1.04895e+06
1.04713e+06
1.04721e+06
1.04523e+06
1.0451e+06
1.04298e+06
1.04264e+06
1.04042e+06
1.03991e+06
1.03763e+06
1.03697e+06
1.03465e+06
1.03382e+06
1.03146e+06
1.03053e+06
1.02814e+06
1.05157e+06
1.04997e+06
1.05034e+06
1.04873e+06
1.04899e+06
1.04716e+06
1.04722e+06
1.04522e+06
1.04507e+06
1.04293e+06
1.04259e+06
1.04036e+06
1.03984e+06
1.03755e+06
1.03688e+06
1.03455e+06
1.03374e+06
1.03136e+06
1.03044e+06
1.02803e+06
1.05158e+06
1.04996e+06
1.05031e+06
1.04871e+06
1.04898e+06
1.04718e+06
1.04726e+06
1.04527e+06
1.04514e+06
1.04301e+06
1.04267e+06
1.04044e+06
1.03992e+06
1.03764e+06
1.03697e+06
1.03465e+06
1.03384e+06
1.03148e+06
1.03057e+06
1.02826e+06
1.05152e+06
1.04995e+06
1.05031e+06
1.04869e+06
1.04894e+06
1.0471e+06
1.04716e+06
1.04515e+06
1.045e+06
1.04285e+06
1.0425e+06
1.04026e+06
1.03974e+06
1.03745e+06
1.03678e+06
1.03445e+06
1.03364e+06
1.03127e+06
1.03035e+06
1.02801e+06
1.0514e+06
1.04984e+06
1.05003e+06
1.04851e+06
1.04873e+06
1.04706e+06
1.0471e+06
1.0452e+06
1.04502e+06
1.04295e+06
1.04259e+06
1.04041e+06
1.03989e+06
1.03763e+06
1.03697e+06
1.03464e+06
1.03384e+06
1.03143e+06
1.03057e+06
1.02818e+06
1.05143e+06
1.04985e+06
1.05003e+06
1.0485e+06
1.04871e+06
1.04704e+06
1.04708e+06
1.04519e+06
1.04502e+06
1.04296e+06
1.04261e+06
1.04043e+06
1.03991e+06
1.03766e+06
1.03699e+06
1.03466e+06
1.03386e+06
1.03144e+06
1.03058e+06
1.02816e+06
1.05144e+06
1.04986e+06
1.05004e+06
1.0485e+06
1.04871e+06
1.04703e+06
1.04708e+06
1.04519e+06
1.04502e+06
1.04296e+06
1.04261e+06
1.04044e+06
1.03992e+06
1.03767e+06
1.037e+06
1.03467e+06
1.03387e+06
1.03145e+06
1.03058e+06
1.02813e+06
1.05146e+06
1.04987e+06
1.05005e+06
1.0485e+06
1.0487e+06
1.04701e+06
1.04706e+06
1.04517e+06
1.04501e+06
1.04295e+06
1.0426e+06
1.04043e+06
1.03992e+06
1.03767e+06
1.03701e+06
1.03468e+06
1.03388e+06
1.03146e+06
1.03058e+06
1.02813e+06
1.05146e+06
1.04987e+06
1.05005e+06
1.0485e+06
1.04869e+06
1.04701e+06
1.04706e+06
1.04517e+06
1.04501e+06
1.04295e+06
1.0426e+06
1.04043e+06
1.03992e+06
1.03767e+06
1.03701e+06
1.03468e+06
1.03388e+06
1.03146e+06
1.03058e+06
1.02813e+06
1.05146e+06
1.04987e+06
1.05005e+06
1.0485e+06
1.04869e+06
1.04701e+06
1.04705e+06
1.04517e+06
1.04501e+06
1.04295e+06
1.0426e+06
1.04043e+06
1.03992e+06
1.03767e+06
1.03701e+06
1.03468e+06
1.03388e+06
1.03146e+06
1.03058e+06
1.02813e+06
1.05146e+06
1.04987e+06
1.05005e+06
1.0485e+06
1.04869e+06
1.04701e+06
1.04705e+06
1.04517e+06
1.04501e+06
1.04295e+06
1.0426e+06
1.04043e+06
1.03992e+06
1.03767e+06
1.03701e+06
1.03468e+06
1.03388e+06
1.03146e+06
1.03058e+06
1.02813e+06
1.05146e+06
1.04987e+06
1.05005e+06
1.0485e+06
1.04869e+06
1.04701e+06
1.04706e+06
1.04517e+06
1.04501e+06
1.04295e+06
1.0426e+06
1.04043e+06
1.03992e+06
1.03767e+06
1.03701e+06
1.03468e+06
1.03388e+06
1.03146e+06
1.03058e+06
1.02813e+06
1.05146e+06
1.04987e+06
1.05005e+06
1.0485e+06
1.0487e+06
1.04701e+06
1.04706e+06
1.04517e+06
1.04501e+06
1.04295e+06
1.0426e+06
1.04043e+06
1.03992e+06
1.03767e+06
1.03701e+06
1.03468e+06
1.03388e+06
1.03146e+06
1.03058e+06
1.02814e+06
1.05144e+06
1.04986e+06
1.05004e+06
1.0485e+06
1.04871e+06
1.04703e+06
1.04708e+06
1.04519e+06
1.04502e+06
1.04296e+06
1.04261e+06
1.04044e+06
1.03992e+06
1.03767e+06
1.037e+06
1.03467e+06
1.03387e+06
1.03145e+06
1.03058e+06
1.02813e+06
1.05143e+06
1.04985e+06
1.05003e+06
1.0485e+06
1.04871e+06
1.04704e+06
1.04708e+06
1.04519e+06
1.04502e+06
1.04296e+06
1.04261e+06
1.04043e+06
1.03991e+06
1.03766e+06
1.03699e+06
1.03466e+06
1.03386e+06
1.03144e+06
1.03058e+06
1.02816e+06
1.0514e+06
1.04984e+06
1.05003e+06
1.04851e+06
1.04873e+06
1.04706e+06
1.0471e+06
1.0452e+06
1.04502e+06
1.04295e+06
1.04259e+06
1.04041e+06
1.03989e+06
1.03763e+06
1.03697e+06
1.03464e+06
1.03384e+06
1.03143e+06
1.03057e+06
1.02819e+06
1.0514e+06
1.04984e+06
1.05003e+06
1.04851e+06
1.04873e+06
1.04706e+06
1.0471e+06
1.0452e+06
1.04502e+06
1.04295e+06
1.04259e+06
1.04041e+06
1.03989e+06
1.03763e+06
1.03697e+06
1.03464e+06
1.03385e+06
1.03143e+06
1.03057e+06
1.02818e+06
1.05143e+06
1.04985e+06
1.05003e+06
1.0485e+06
1.04871e+06
1.04704e+06
1.04708e+06
1.04519e+06
1.04502e+06
1.04296e+06
1.04261e+06
1.04043e+06
1.03991e+06
1.03766e+06
1.03699e+06
1.03466e+06
1.03386e+06
1.03144e+06
1.03058e+06
1.02816e+06
1.05144e+06
1.04986e+06
1.05004e+06
1.0485e+06
1.04871e+06
1.04703e+06
1.04708e+06
1.04519e+06
1.04502e+06
1.04296e+06
1.04261e+06
1.04044e+06
1.03992e+06
1.03767e+06
1.037e+06
1.03467e+06
1.03387e+06
1.03145e+06
1.03058e+06
1.02813e+06
1.05146e+06
1.04987e+06
1.05005e+06
1.0485e+06
1.0487e+06
1.04701e+06
1.04706e+06
1.04517e+06
1.04501e+06
1.04295e+06
1.0426e+06
1.04043e+06
1.03992e+06
1.03767e+06
1.03701e+06
1.03468e+06
1.03388e+06
1.03146e+06
1.03059e+06
1.02813e+06
1.05146e+06
1.04987e+06
1.05005e+06
1.0485e+06
1.04869e+06
1.04701e+06
1.04706e+06
1.04517e+06
1.04501e+06
1.04295e+06
1.0426e+06
1.04043e+06
1.03992e+06
1.03767e+06
1.03701e+06
1.03468e+06
1.03388e+06
1.03146e+06
1.03058e+06
1.02813e+06
1.05146e+06
1.04987e+06
1.05005e+06
1.0485e+06
1.04869e+06
1.04701e+06
1.04705e+06
1.04517e+06
1.04501e+06
1.04295e+06
1.0426e+06
1.04043e+06
1.03992e+06
1.03767e+06
1.03701e+06
1.03468e+06
1.03388e+06
1.03146e+06
1.03058e+06
1.02813e+06
1.05146e+06
1.04987e+06
1.05005e+06
1.0485e+06
1.04869e+06
1.04701e+06
1.04705e+06
1.04517e+06
1.04501e+06
1.04295e+06
1.0426e+06
1.04043e+06
1.03992e+06
1.03767e+06
1.03701e+06
1.03468e+06
1.03388e+06
1.03146e+06
1.03058e+06
1.02813e+06
1.05146e+06
1.04987e+06
1.05005e+06
1.0485e+06
1.04869e+06
1.04701e+06
1.04706e+06
1.04517e+06
1.04501e+06
1.04295e+06
1.0426e+06
1.04043e+06
1.03992e+06
1.03767e+06
1.03701e+06
1.03468e+06
1.03388e+06
1.03146e+06
1.03058e+06
1.02813e+06
1.05146e+06
1.04987e+06
1.05005e+06
1.0485e+06
1.0487e+06
1.04701e+06
1.04706e+06
1.04517e+06
1.04501e+06
1.04295e+06
1.0426e+06
1.04043e+06
1.03992e+06
1.03767e+06
1.03701e+06
1.03468e+06
1.03388e+06
1.03146e+06
1.03058e+06
1.02814e+06
1.05144e+06
1.04986e+06
1.05004e+06
1.0485e+06
1.04871e+06
1.04703e+06
1.04708e+06
1.04519e+06
1.04502e+06
1.04296e+06
1.04261e+06
1.04044e+06
1.03992e+06
1.03767e+06
1.037e+06
1.03467e+06
1.03387e+06
1.03145e+06
1.03058e+06
1.02813e+06
1.05143e+06
1.04985e+06
1.05003e+06
1.0485e+06
1.04871e+06
1.04704e+06
1.04708e+06
1.04519e+06
1.04502e+06
1.04296e+06
1.04261e+06
1.04043e+06
1.03991e+06
1.03766e+06
1.03699e+06
1.03466e+06
1.03386e+06
1.03144e+06
1.03058e+06
1.02816e+06
1.0514e+06
1.04984e+06
1.05003e+06
1.04851e+06
1.04873e+06
1.04706e+06
1.0471e+06
1.0452e+06
1.04502e+06
1.04295e+06
1.04259e+06
1.04041e+06
1.03989e+06
1.03763e+06
1.03697e+06
1.03464e+06
1.03384e+06
1.03143e+06
1.03057e+06
1.02819e+06
1.05152e+06
1.04995e+06
1.05031e+06
1.04869e+06
1.04894e+06
1.0471e+06
1.04716e+06
1.04515e+06
1.045e+06
1.04285e+06
1.0425e+06
1.04026e+06
1.03974e+06
1.03745e+06
1.03678e+06
1.03445e+06
1.03364e+06
1.03127e+06
1.03035e+06
1.02801e+06
1.05158e+06
1.04996e+06
1.05031e+06
1.04871e+06
1.04898e+06
1.04718e+06
1.04726e+06
1.04527e+06
1.04514e+06
1.04301e+06
1.04267e+06
1.04044e+06
1.03992e+06
1.03764e+06
1.03697e+06
1.03465e+06
1.03384e+06
1.03148e+06
1.03057e+06
1.02825e+06
1.05158e+06
1.04997e+06
1.05034e+06
1.04873e+06
1.04899e+06
1.04716e+06
1.04722e+06
1.04522e+06
1.04507e+06
1.04293e+06
1.04259e+06
1.04036e+06
1.03984e+06
1.03755e+06
1.03688e+06
1.03455e+06
1.03374e+06
1.03136e+06
1.03045e+06
1.02803e+06
1.05161e+06
1.04997e+06
1.05031e+06
1.04869e+06
1.04895e+06
1.04713e+06
1.04721e+06
1.04523e+06
1.0451e+06
1.04298e+06
1.04264e+06
1.04042e+06
1.03991e+06
1.03764e+06
1.03697e+06
1.03465e+06
1.03383e+06
1.03146e+06
1.03053e+06
1.02814e+06
1.0516e+06
1.04996e+06
1.05031e+06
1.04868e+06
1.04895e+06
1.04713e+06
1.0472e+06
1.04521e+06
1.04507e+06
1.04294e+06
1.0426e+06
1.04038e+06
1.03986e+06
1.03759e+06
1.03692e+06
1.03459e+06
1.03378e+06
1.0314e+06
1.03048e+06
1.02803e+06
1.05161e+06
1.04997e+06
1.05031e+06
1.04868e+06
1.04894e+06
1.04713e+06
1.0472e+06
1.04522e+06
1.04508e+06
1.04296e+06
1.04262e+06
1.0404e+06
1.03989e+06
1.03761e+06
1.03694e+06
1.03462e+06
1.0338e+06
1.03143e+06
1.0305e+06
1.02807e+06
1.05161e+06
1.04997e+06
1.05031e+06
1.04868e+06
1.04894e+06
1.04713e+06
1.0472e+06
1.04522e+06
1.04508e+06
1.04296e+06
1.04262e+06
1.0404e+06
1.03989e+06
1.03761e+06
1.03694e+06
1.03462e+06
1.0338e+06
1.03143e+06
1.0305e+06
1.02807e+06
1.0516e+06
1.04996e+06
1.05031e+06
1.04868e+06
1.04895e+06
1.04713e+06
1.0472e+06
1.04521e+06
1.04507e+06
1.04294e+06
1.0426e+06
1.04038e+06
1.03986e+06
1.03759e+06
1.03692e+06
1.03459e+06
1.03378e+06
1.0314e+06
1.03048e+06
1.02803e+06
1.05161e+06
1.04997e+06
1.05031e+06
1.04869e+06
1.04895e+06
1.04713e+06
1.04721e+06
1.04523e+06
1.0451e+06
1.04298e+06
1.04264e+06
1.04042e+06
1.03991e+06
1.03764e+06
1.03697e+06
1.03465e+06
1.03383e+06
1.03146e+06
1.03053e+06
1.02814e+06
1.05158e+06
1.04997e+06
1.05034e+06
1.04873e+06
1.04899e+06
1.04716e+06
1.04722e+06
1.04522e+06
1.04507e+06
1.04293e+06
1.04259e+06
1.04036e+06
1.03984e+06
1.03755e+06
1.03688e+06
1.03455e+06
1.03374e+06
1.03136e+06
1.03045e+06
1.02803e+06
1.05158e+06
1.04996e+06
1.05031e+06
1.04871e+06
1.04898e+06
1.04718e+06
1.04726e+06
1.04527e+06
1.04514e+06
1.04301e+06
1.04267e+06
1.04044e+06
1.03992e+06
1.03764e+06
1.03697e+06
1.03465e+06
1.03384e+06
1.03148e+06
1.03057e+06
1.02826e+06
1.05152e+06
1.04995e+06
1.05031e+06
1.04869e+06
1.04894e+06
1.0471e+06
1.04716e+06
1.04515e+06
1.045e+06
1.04285e+06
1.0425e+06
1.04026e+06
1.03974e+06
1.03745e+06
1.03678e+06
1.03445e+06
1.03364e+06
1.03127e+06
1.03035e+06
1.02801e+06
1.05252e+06
1.05128e+06
1.05131e+06
1.04998e+06
1.04991e+06
1.04835e+06
1.04809e+06
1.04631e+06
1.04584e+06
1.04388e+06
1.04323e+06
1.04116e+06
1.04036e+06
1.03821e+06
1.03729e+06
1.03508e+06
1.03404e+06
1.03177e+06
1.03066e+06
1.02849e+06
1.05245e+06
1.05118e+06
1.05117e+06
1.04981e+06
1.04974e+06
1.04816e+06
1.0479e+06
1.0461e+06
1.04563e+06
1.04366e+06
1.04301e+06
1.04093e+06
1.04013e+06
1.03797e+06
1.03705e+06
1.03483e+06
1.03379e+06
1.0315e+06
1.0304e+06
1.02822e+06
1.05246e+06
1.05116e+06
1.05115e+06
1.0498e+06
1.04972e+06
1.04816e+06
1.04791e+06
1.04613e+06
1.04567e+06
1.04372e+06
1.04308e+06
1.04101e+06
1.04021e+06
1.03806e+06
1.03714e+06
1.03493e+06
1.03388e+06
1.0316e+06
1.03047e+06
1.02827e+06
1.05245e+06
1.05116e+06
1.05115e+06
1.04979e+06
1.04971e+06
1.04814e+06
1.04788e+06
1.04608e+06
1.04562e+06
1.04366e+06
1.04302e+06
1.04094e+06
1.04015e+06
1.038e+06
1.03707e+06
1.03486e+06
1.03382e+06
1.03153e+06
1.03041e+06
1.02814e+06
1.05246e+06
1.05116e+06
1.05114e+06
1.04979e+06
1.0497e+06
1.04813e+06
1.04787e+06
1.04609e+06
1.04563e+06
1.04368e+06
1.04304e+06
1.04097e+06
1.04018e+06
1.03804e+06
1.03712e+06
1.0349e+06
1.03386e+06
1.03158e+06
1.03044e+06
1.02816e+06
1.05245e+06
1.05115e+06
1.05113e+06
1.04977e+06
1.04969e+06
1.04812e+06
1.04786e+06
1.04608e+06
1.04562e+06
1.04366e+06
1.04302e+06
1.04095e+06
1.04016e+06
1.03801e+06
1.03709e+06
1.03488e+06
1.03384e+06
1.03155e+06
1.03042e+06
1.02813e+06
1.05245e+06
1.05115e+06
1.05113e+06
1.04977e+06
1.04969e+06
1.04812e+06
1.04786e+06
1.04608e+06
1.04562e+06
1.04366e+06
1.04302e+06
1.04095e+06
1.04016e+06
1.03801e+06
1.03709e+06
1.03488e+06
1.03384e+06
1.03155e+06
1.03042e+06
1.02812e+06
1.05246e+06
1.05116e+06
1.05114e+06
1.04979e+06
1.0497e+06
1.04813e+06
1.04787e+06
1.04609e+06
1.04563e+06
1.04368e+06
1.04304e+06
1.04097e+06
1.04018e+06
1.03804e+06
1.03712e+06
1.0349e+06
1.03386e+06
1.03158e+06
1.03043e+06
1.02816e+06
1.05245e+06
1.05116e+06
1.05115e+06
1.04979e+06
1.04971e+06
1.04814e+06
1.04788e+06
1.04608e+06
1.04562e+06
1.04366e+06
1.04302e+06
1.04094e+06
1.04015e+06
1.038e+06
1.03707e+06
1.03486e+06
1.03382e+06
1.03153e+06
1.03041e+06
1.02814e+06
1.05246e+06
1.05116e+06
1.05115e+06
1.0498e+06
1.04972e+06
1.04816e+06
1.04791e+06
1.04613e+06
1.04567e+06
1.04372e+06
1.04308e+06
1.04101e+06
1.04021e+06
1.03806e+06
1.03714e+06
1.03493e+06
1.03388e+06
1.0316e+06
1.03047e+06
1.02827e+06
1.05245e+06
1.05118e+06
1.05117e+06
1.04981e+06
1.04974e+06
1.04816e+06
1.0479e+06
1.0461e+06
1.04563e+06
1.04366e+06
1.04301e+06
1.04093e+06
1.04013e+06
1.03797e+06
1.03705e+06
1.03483e+06
1.03379e+06
1.0315e+06
1.0304e+06
1.02822e+06
1.05252e+06
1.05128e+06
1.05131e+06
1.04998e+06
1.04991e+06
1.04835e+06
1.04809e+06
1.04631e+06
1.04584e+06
1.04388e+06
1.04323e+06
1.04116e+06
1.04036e+06
1.03821e+06
1.03729e+06
1.03508e+06
1.03404e+06
1.03177e+06
1.03066e+06
1.02849e+06
1.02557e+06
1.01566e+06
1.01081e+06
1.00052e+06
994701
983893
977272
966026
958678
947036
939023
927023
918400
906076
896892
884270
874568
861675
851495
838353
827733
814365
803339
789766
778369
764611
752874
738953
726907
712841
700516
686326
673753
659460
646668
632292
619311
604875
591739
577270
564014
549540
536184
521688
508202
493694
480164
465730
452213
437880
424415
410215
396837
382793
369531
355666
342551
328887
315949
302507
289775
276579
264085
251157
238933
226300
214381
202067
190490
178524
167327
155743
144971
133800
123501
112787
103012
92797.5
83614.9
73959.8
65434.1
56405.2
48636.1
40315.4
33393.7
25958.1
20082.6
13507.5
8725.98
3877.04
1.02497e+06
1.01508e+06
1.01025e+06
999970
994163
983360
976743
965501
958159
946523
938518
926525
917909
905590
896413
883797
874101
861213
851039
837903
827288
813925
802905
789337
777945
764193
752461
738545
726504
712444
700125
685941
673374
659087
646301
631931
618958
604528
591399
576937
563687
549221
535872
521383
507905
493404
479883
465456
451947
437622
424165
409973
396602
382567
369313
355457
342349
328693
315763
302329
289605
276417
263930
251011
238794
226168
214256
201950
190380
178422
167231
155654
144888
133724
123431
112723
102954
92745.5
83568.1
73918.5
65397.5
56373.7
48608.9
40292.7
33374.9
25943
20070.8
13498.7
8718.75
3871.4
1.02495e+06
1.01506e+06
1.01019e+06
999910
994095
983292
976668
965427
958079
946445
938435
926445
917826
905512
896333
883723
874027
861145
850972
837842
827229
813873
802855
789294
777905
764158
752430
738519
726481
712426
700110
685930
673366
659082
646299
631932
618960
604533
591405
576944
563696
549230
535883
521394
507916
493415
479894
465467
451957
437631
424173
409981
396609
382572
369317
355459
342351
328693
315761
302326
289600
276410
263922
251001
238783
226155
214242
201934
190362
178403
167212
155633
144867
133702
123408
112700
102930
92721.6
83544.5
73895
65374.8
56351.5
48588
40272.8
33356.7
25926.5
20056.5
13486.8
8710.07
3865.98
1.02481e+06
1.01498e+06
1.01013e+06
999855
994047
983245
976625
965382
958037
946403
938397
926405
917788
905472
896294
883681
873985
861100
850927
837794
827180
813820
802802
789237
777847
764098
752368
738455
726416
712359
700042
685861
673295
659010
646227
631859
618887
604460
591332
576872
563624
549160
535813
521325
507848
493349
479828
465403
451895
437571
424115
409924
396555
382520
369267
355411
342305
328650
315720
302287
289564
276376
263891
250972
238756
226131
214220
201914
190345
178388
167198
155622
144857
133694
123402
112695
102927
92719.9
83543.8
73895.5
65376.1
56353.7
48590.7
40276.1
33360.1
25930
20059.8
13489.7
8711.59
3866.63
1.02485e+06
1.01498e+06
1.01011e+06
999820
994007
983202
976576
965331
957983
946348
938338
926346
917727
905410
896231
883619
873923
861039
850865
837733
827120
813762
802744
789181
777792
764044
752315
738404
726366
712310
699994
685814
673250
658966
646183
631816
618845
604419
591291
576832
563584
549120
535773
521286
507809
493310
479790
465365
451856
437533
424077
409886
396516
382481
369228
355372
342266
328611
315681
302248
289524
276337
263851
250932
238717
226092
214181
201876
190307
178350
167161
155585
144821
133659
123368
112662
102895
92689
83514.3
73867.4
65349.7
56328.8
48567.7
40254.9
33341.2
25913.3
20045.7
13478.1
8703.23
3861.21
1.02481e+06
1.01497e+06
1.01009e+06
999821
994015
983215
976593
965350
958004
946370
938362
926371
917753
905437
896258
883645
873949
861065
850891
837758
827145
813785
802767
789203
777812
764064
752334
738422
726383
712327
700010
685829
673264
658979
646196
631829
618857
604430
591302
576842
563595
549130
535783
521296
507818
493320
479799
465374
451865
437542
424086
409895
396526
382491
369238
355382
342276
328621
315691
302259
289535
276348
263863
250944
238729
226104
214193
201888
190319
178362
167173
155597
144833
133671
123379
112673
102906
92699.9
83524.9
73877.6
65359.3
56338
48576.2
40262.9
33348.3
25919.6
20051
13482.5
8706.1
3863.07
1.02482e+06
1.01496e+06
1.01009e+06
999802
993989
983184
976559
965312
957964
946328
938319
926327
917709
905392
896213
883600
873905
861020
850847
837715
827102
813743
802725
789162
777772
764024
752295
738383
726345
712289
699973
685793
673228
658944
646161
631795
618823
604397
591270
576811
563564
549099
535753
521266
507789
493291
479771
465347
451839
437516
424060
409870
396501
382467
369215
355359
342254
328599
315670
302238
289515
276328
263844
250925
238711
226086
214176
201871
190303
178347
167159
155583
144820
133658
123367
112662
102895
92689.6
83515.2
73868.5
65351
56330.3
48569.3
40256.6
33342.8
25914.9
20047.2
13479.4
8703.99
3861.49
1.02484e+06
1.01498e+06
1.01011e+06
999832
994025
983226
976603
965361
958014
946380
938372
926381
917762
905446
896267
883655
873959
861074
850901
837769
827155
813796
802778
789214
777824
764076
752347
738435
726397
712340
700024
685844
673279
658994
646211
631844
618872
604445
591317
576857
563610
549145
535798
521310
507832
493333
479812
465387
451878
437554
424098
409906
396536
382501
369248
355391
342285
328629
315698
302265
289541
276354
263868
250948
238732
226107
214196
201890
190320
178363
167174
155597
144833
133670
123378
112672
102905
92698.3
83523.2
73875.7
65357.3
56336
48574.2
40260.9
33346.3
25917.8
20049.4
13481.1
8705.3
3862.66
1.02483e+06
1.01497e+06
1.01011e+06
999822
994008
983200
976576
965330
957983
946347
938339
926346
917729
905412
896234
883621
873926
861041
850869
837736
827123
813764
802746
789182
777793
764044
752315
738403
726365
712309
699993
685812
673248
658964
646181
631814
618843
604416
591289
576830
563583
549119
535773
521286
507809
493311
479791
465367
451859
437537
424081
409891
396522
382489
369236
355381
342276
328621
315692
302260
289538
276351
263866
250948
238733
226109
214198
201893
190325
178369
167180
155604
144840
133678
123387
112681
102914
92707.3
83532.1
73884.7
65366.2
56344.6
48582.5
40268.7
33353.8
25924.6
20055.4
13486.1
8709.13
3864.72
1.02494e+06
1.01505e+06
1.01019e+06
999912
994104
983306
976685
965446
958100
946468
938460
926471
917853
905538
896360
883749
874054
861171
850999
837868
827255
813898
802880
789318
777929
764182
752453
738542
726504
712448
700132
685952
673387
659103
646319
631952
618979
604552
591424
576963
563715
549249
535901
521412
507933
493432
479910
465483
451973
437647
424189
409996
396624
382587
369332
355473
342365
328707
315774
302339
289613
276423
263934
251013
238795
226167
214253
201945
190373
178414
167222
155643
144876
133711
123417
112708
102939
92729.6
83552.1
73902.2
65381.6
56357.9
48593.9
40278.3
33361.6
25930.7
20060.2
13489.7
8712.19
3867.33
1.02497e+06
1.01506e+06
1.01021e+06
999918
994105
983298
976677
965431
958087
946449
938443
926449
917832
905514
896337
883721
874026
861139
850966
837830
827216
813855
802835
789269
777877
764126
752395
738480
726441
712382
700064
685881
673314
659028
646243
631874
618901
604473
591345
576884
563635
549170
535822
521334
507856
493357
479836
465411
451902
437578
424122
409931
396561
382527
369274
355418
342312
328657
315727
302295
289571
276384
263899
250980
238764
226140
214228
201923
190354
178397
167208
155631
144867
133703
123411
112705
102936
92729.2
83552.9
73904.4
65384.6
56361.9
48598.4
40283.4
33366.8
25936.1
20065.3
13494.2
8715.62
3869
1.02554e+06
1.01565e+06
1.01081e+06
1.00054e+06
994735
983936
977320
966078
958733
947094
939084
927085
918464
906139
896956
884334
874633
861738
851559
838416
827795
814426
803400
789826
778428
764669
752932
739009
726962
712896
700570
686380
673806
659511
646719
632341
619361
604924
591787
577317
564060
549585
536229
521731
508245
493736
480206
465770
452252
437919
424453
410252
396873
382828
369566
355700
342585
328919
315980
302538
289805
276608
264113
251185
238960
226325
214405
202091
190512
178547
167349
155763
144990
133818
123518
112803
103027
92812.2
83628.6
73972.5
65445.7
56415.9
48645.8
40324.1
33401.3
25964.7
20088.1
13512.1
8729.31
3879.22
1.02537e+06
1.01523e+06
1.01078e+06
1.00035e+06
994763
983852
977376
966051
958800
947095
939149
927095
918519
906146
896995
884330
874651
861719
851555
838380
827770
814372
803354
789756
778364
764584
752851
738911
726869
712788
700467
686265
673696
659392
646605
632222
619247
604805
591675
577202
563952
549476
536128
521630
508150
493642
480119
465685
452175
437843
424385
410187
396816
382775
369520
355658
342550
328889
315958
302519
289794
276601
264114
251189
238971
226340
214427
202116
190544
178581
167389
155805
145038
133867
123572
112856
103085
92867.8
83687.6
74027.3
65502.2
56465.8
48694.5
40363.6
33435.6
25987.1
20100.5
13508.6
8708.12
3853.61
1.02599e+06
1.01581e+06
1.01135e+06
1.00092e+06
995334
984431
977959
966638
959390
947686
939740
927685
919107
906731
897578
884909
875226
862289
852121
838939
828324
814920
803896
790290
778892
765105
753366
739418
727369
713280
700952
686741
674165
659853
647058
632666
619683
605233
592094
577612
564355
549869
536512
522005
508517
493999
480468
466024
452505
438164
424697
410490
397109
383059
369795
355924
342807
329136
316196
302749
290015
276812
264316
251382
239157
226517
214595
202275
190695
178723
167523
155931
145156
133977
123674
112951
103172
92946.9
83759.7
74092
65560
56516.6
48738.9
40401.3
33467.2
26012.8
20120.5
13523.4
8718.49
3860.77
1.02551e+06
1.0155e+06
1.01105e+06
1.00063e+06
995049
984140
977665
966341
959092
947388
939443
927388
918812
906437
897285
884618
874937
862002
851836
838657
828045
814644
803622
790020
778624
764841
753104
739160
727113
713028
700703
686496
673923
659615
646824
632435
619456
605010
591875
577398
564144
549663
536310
521808
508324
493811
480284
465846
452331
437995
424534
410331
396956
382910
369651
355785
342673
329008
316073
302630
289901
276704
264213
251284
239063
226428
214511
202195
190620
178653
167457
155870
145099
133924
123626
112906
103131
92910.3
83726.6
74062.7
65534.1
56494.3
48719.6
40385.4
33454.1
26002.6
20113
13518.1
8715.1
3858.2
1.02581e+06
1.01574e+06
1.01128e+06
1.00086e+06
995273
984368
977893
966570
959320
947616
939671
927615
919038
906662
897508
884839
875157
862220
852052
838871
828257
814854
803830
790225
778828
765042
753303
739356
727307
713219
700892
686682
674107
659796
647002
632610
619628
605179
592041
577560
564303
549819
536463
521957
508470
493953
480423
465980
452462
438122
424657
410450
397071
383022
369759
355889
342774
329104
316165
302718
289986
276784
264290
251357
239132
226493
214573
202254
190675
178704
167506
155914
145141
133962
123661
112938
103161
92936.2
83749.9
74083.2
65552.1
56509.6
48732.7
40396.1
33462.7
26009.2
20117.7
13521.3
8717.57
3859.82
1.02556e+06
1.01557e+06
1.01112e+06
1.0007e+06
995130
984224
977749
966425
959176
947473
939529
927475
918898
906523
897370
884702
875021
862085
851918
838738
828125
814723
803701
790097
778700
764916
753178
739232
727185
713099
700773
686565
673991
659681
646889
632499
619519
605072
591936
577457
564202
549720
536366
521862
508377
493862
480334
465894
452378
438041
424578
410374
396997
382950
369690
355822
342709
329042
316105
302661
289931
276732
264240
251309
239087
226451
214533
202216
190639
178670
167474
155885
145113
133937
123638
112917
103141
92919.2
83734.6
74069.7
65540.3
56499.6
48724.1
40389.1
33457.1
26004.8
20114.6
13519.1
8715.96
3858.63
1.02567e+06
1.01565e+06
1.01119e+06
1.00077e+06
995187
984280
977803
966478
959227
947523
939577
927522
918945
906569
897415
884747
875065
862129
851962
838782
828168
814765
803743
790139
778742
764957
753219
739273
727225
713138
700812
686603
674028
659718
646925
632535
619554
605106
591970
577490
564234
549751
536396
521892
508406
493890
480361
465921
452404
438065
424601
410396
397019
382971
369710
355841
342727
329059
316122
302677
289945
276746
264252
251321
239098
226461
214542
202224
190647
178677
167480
155891
145118
133941
123641
112920
103144
92920.9
83735.9
74070.5
65540.8
56499.6
48723.9
40388.4
33456.3
26003.8
20113.5
13518.1
8715.33
3858.13
1.02566e+06
1.01566e+06
1.01121e+06
1.00079e+06
995223
984319
977845
966523
959275
947572
939628
927574
918997
906622
897468
884800
875118
862181
852014
838832
828219
814815
803792
790187
778789
765003
753265
739318
727270
713182
700855
686646
674071
659760
646966
632575
619594
605145
592008
577528
564271
549788