/*--------------------------------*- C++ -*----------------------------------*\
  =========                 |
  \\      /  F ield         | OpenFOAM: The Open Source CFD Toolbox
   \\    /   O peration     | Website:  https://openfoam.org
    \\  /    A nd           | Version:  7
     \\/     M anipulation  |
\*---------------------------------------------------------------------------*/
FoamFile
{
    version     2.0;
    format      ascii;
    class       volVectorField;
    location    "6.65";
    object      U_0;
}
// * * * * * * * * * * * * * * * * * * * * * * * * * * * * * * * * * * * * * //

dimensions      [0 1 -1 0 0 0 0];

internalField   nonuniform List<vector> 
7920
(
(-3.10117 -9.0325 -243.659)
(2.40886 -10.272 -250.301)
(-0.359591 -10.6792 -249.747)
(1.23863 -10.4931 -250.142)
(0.36811 -10.6307 -249.961)
(0.95205 -10.5657 -250.055)
(0.628907 -10.6132 -249.991)
(0.863619 -10.589 -250.017)
(0.739283 -10.6049 -249.991)
(0.845525 -10.5943 -249.996)
(0.798796 -10.597 -249.983)
(0.862737 -10.5911 -249.98)
(0.848118 -10.5855 -249.971)
(0.915269 -10.5814 -249.964)
(0.913476 -10.5646 -249.956)
(1.0321 -10.5614 -249.941)
(1.03225 -10.5197 -249.939)
(1.29038 -10.5174 -249.901)
(1.28987 -10.3876 -249.912)
(1.56136 -10.3594 -250.129)
(-2.12523 5.57321 -271.371)
(5.35748 5.42844 -278.562)
(0.38362 5.35835 -281.079)
(3.32917 5.43059 -281.097)
(1.58108 5.35201 -281.585)
(2.73541 5.39369 -281.473)
(2.0777 5.36569 -281.596)
(2.5553 5.38141 -281.529)
(2.29999 5.37111 -281.541)
(2.52044 5.37736 -281.49)
(2.42403 5.37413 -281.448)
(2.55947 5.37619 -281.396)
(2.52824 5.37678 -281.303)
(2.67136 5.37584 -281.243)
(2.66188 5.38043 -281.064)
(2.90991 5.37407 -280.982)
(2.88823 5.38876 -280.619)
(3.44084 5.36415 -280.466)
(3.35081 5.42574 -279.542)
(4.81982 5.4925 -278.439)
(-2.82165 -2.60097 -272.628)
(7.56521 -3.28717 -282.217)
(1.44659 -4.10836 -284.722)
(5.22201 -3.8839 -285.984)
(3.06883 -4.11107 -286.116)
(4.49986 -4.03812 -286.263)
(3.71281 -4.10506 -286.236)
(4.30041 -4.07881 -286.233)
(4.00118 -4.0994 -286.174)
(4.27508 -4.08801 -286.131)
(4.16521 -4.09126 -286.039)
(4.34127 -4.08546 -285.975)
(4.30794 -4.07776 -285.834)
(4.50643 -4.07533 -285.755)
(4.49458 -4.05258 -285.521)
(4.85148 -4.05646 -285.412)
(4.80458 -3.9997 -285.005)
(5.61745 -4.02334 -284.768)
(5.37477 -3.89672 -283.846)
(7.56217 -3.87154 -281.504)
(-2.60209 1.91939 -273.073)
(8.21715 1.99041 -279.231)
(2.61683 1.88348 -282.992)
(6.28171 1.82957 -283.014)
(4.31722 1.75948 -283.895)
(5.68378 1.74436 -283.707)
(4.95301 1.73273 -283.928)
(5.5106 1.73104 -283.803)
(5.23008 1.73001 -283.816)
(5.49233 1.73087 -283.713)
(5.38965 1.73203 -283.616)
(5.56254 1.73286 -283.515)
(5.53248 1.73512 -283.311)
(5.73095 1.73491 -283.209)
(5.71954 1.7382 -282.836)
(6.07217 1.73437 -282.714)
(6.02041 1.73832 -282.035)
(6.79171 1.72677 -281.737)
(6.56706 1.68377 -280.569)
(8.33335 1.80587 -277.418)
(-2.88571 -0.949013 -272.166)
(8.44782 -1.19575 -278.233)
(2.99407 -1.67856 -282.143)
(6.89149 -1.56057 -282.049)
(5.02294 -1.69129 -283.058)
(6.40808 -1.66627 -282.828)
(5.71339 -1.7023 -283.084)
(6.26687 -1.6942 -282.935)
(6.00018 -1.70418 -282.949)
(6.25979 -1.70048 -282.83)
(6.16321 -1.70173 -282.717)
(6.33771 -1.69966 -282.603)
(6.31091 -1.6954 -282.37)
(6.51697 -1.69449 -282.258)
(6.50695 -1.68192 -281.839)
(6.8793 -1.68426 -281.706)
(6.82223 -1.65124 -280.983)
(7.64761 -1.66473 -280.597)
(7.38965 -1.58715 -279.6)
(9.2754 -1.61188 -275.811)
(-2.86485 0.863385 -272.395)
(8.47142 0.997317 -277.641)
(3.2279 1.14183 -281.567)
(7.13098 1.05877 -281.156)
(5.3818 1.06295 -282.164)
(6.7573 1.03587 -281.904)
(6.10049 1.04245 -282.163)
(6.64129 1.03578 -282.004)
(6.38607 1.03966 -282.014)
(6.63847 1.03812 -281.887)
(6.54586 1.03968 -281.765)
(6.71647 1.03933 -281.645)
(6.69157 1.03906 -281.398)
(6.89422 1.03892 -281.282)
(6.88609 1.03547 -280.847)
(7.251 1.03509 -280.707)
(7.19842 1.02201 -279.982)
(7.99428 1.02441 -279.545)
(7.76594 0.956791 -278.675)
(9.48146 1.03601 -274.647)
(-2.86484 -0.863394 -272.395)
(8.47143 -0.997312 -277.641)
(3.2279 -1.14184 -281.567)
(7.13097 -1.05881 -281.156)
(5.38181 -1.06296 -282.164)
(6.7573 -1.03586 -281.904)
(6.10049 -1.04243 -282.163)
(6.64129 -1.03578 -282.004)
(6.38607 -1.03967 -282.014)
(6.63847 -1.03813 -281.887)
(6.54586 -1.03969 -281.765)
(6.71647 -1.03935 -281.645)
(6.69157 -1.03907 -281.398)
(6.89421 -1.03899 -281.282)
(6.88609 -1.03544 -280.847)
(7.25098 -1.03544 -280.707)
(7.19836 -1.02155 -279.983)
(7.99434 -1.0259 -279.542)
(7.76563 -0.954572 -278.683)
(9.4813 -1.03665 -274.631)
(-2.88571 0.948966 -272.166)
(8.44784 1.19577 -278.233)
(2.99407 1.67858 -282.143)
(6.89148 1.56055 -282.049)
(5.02295 1.69127 -283.058)
(6.40809 1.66627 -282.828)
(5.7134 1.70232 -283.084)
(6.26686 1.69421 -282.935)
(6.00017 1.70418 -282.949)
(6.25979 1.70047 -282.83)
(6.16321 1.70173 -282.717)
(6.3377 1.69966 -282.603)
(6.31088 1.69539 -282.37)
(6.51696 1.69442 -282.257)
(6.50685 1.68194 -281.84)
(6.87933 1.68395 -281.705)
(6.82175 1.65163 -280.987)
(7.64801 1.66337 -280.588)
(7.38851 1.58925 -279.624)
(9.27456 1.61152 -275.76)
(-2.60208 -1.91946 -273.073)
(8.21717 -1.99039 -279.231)
(2.61683 -1.88343 -282.992)
(6.2817 -1.82953 -283.014)
(4.31722 -1.75949 -283.895)
(5.68379 -1.74436 -283.707)
(4.95302 -1.73271 -283.928)
(5.51059 -1.73103 -283.803)
(5.23007 -1.73002 -283.816)
(5.49232 -1.73088 -283.713)
(5.38965 -1.73203 -283.616)
(5.56253 -1.73286 -283.515)
(5.53245 -1.73512 -283.312)
(5.73092 -1.73496 -283.208)
(5.71944 -1.73819 -282.837)
(6.07215 -1.73459 -282.712)
(6.01988 -1.73793 -282.041)
(6.79221 -1.7279 -281.724)
(6.565 -1.68111 -280.606)
(8.33442 -1.80662 -277.329)
(-2.82162 2.60096 -272.628)
(7.56524 3.28721 -282.217)
(1.44659 4.10839 -284.722)
(5.22199 3.88393 -285.983)
(3.06882 4.11108 -286.116)
(4.49987 4.03813 -286.263)
(3.71282 4.10506 -286.236)
(4.3004 4.0788 -286.233)
(4.00117 4.09939 -286.174)
(4.27507 4.08801 -286.131)
(4.16521 4.09126 -286.039)
(4.34126 4.08545 -285.975)
(4.3079 4.07776 -285.834)
(4.50641 4.07529 -285.755)
(4.49444 4.0526 -285.522)
(4.85157 4.05629 -285.41)
(4.80383 3.99995 -285.01)
(5.61886 4.02245 -284.755)
(5.37149 3.89921 -283.887)
(7.56831 3.87075 -281.376)
(-2.12522 -5.57317 -271.371)
(5.35748 -5.42841 -278.562)
(0.383609 -5.35836 -281.079)
(3.32917 -5.43059 -281.097)
(1.58108 -5.35199 -281.585)
(2.73541 -5.39367 -281.473)
(2.07769 -5.36569 -281.596)
(2.55529 -5.38143 -281.529)
(2.29999 -5.37112 -281.541)
(2.52044 -5.37736 -281.49)
(2.42403 -5.37413 -281.448)
(2.55946 -5.37619 -281.396)
(2.52822 -5.37679 -281.303)
(2.67134 -5.37584 -281.242)
(2.66179 -5.38043 -281.065)
(2.90991 -5.37408 -280.981)
(2.88776 -5.38875 -280.622)
(3.44168 -5.36428 -280.459)
(3.34818 -5.42507 -279.563)
(4.83166 -5.49262 -278.35)
(-3.10115 9.03252 -243.659)
(2.40888 10.272 -250.301)
(-0.359591 10.6792 -249.747)
(1.23861 10.4931 -250.142)
(0.368097 10.6307 -249.961)
(0.952052 10.5657 -250.055)
(0.62891 10.6132 -249.991)
(0.863612 10.589 -250.017)
(0.739277 10.6049 -249.991)
(0.845527 10.5943 -249.996)
(0.798801 10.597 -249.983)
(0.862735 10.5911 -249.98)
(0.848107 10.5855 -249.971)
(0.915261 10.5814 -249.964)
(0.913447 10.5646 -249.956)
(1.03213 10.5614 -249.941)
(1.03211 10.5197 -249.939)
(1.2908 10.5171 -249.9)
(1.28872 10.3879 -249.915)
(1.56568 10.3573 -250.138)
(9.11853 13.0906 0.8371)
(0.804317 14.9192 0.361019)
(1.85334 14.5854 0.688104)
(0.714976 14.5367 0.49398)
(1.00261 14.5095 0.624164)
(0.814987 14.5246 0.541527)
(0.829907 14.5097 0.594719)
(0.802504 14.5177 0.55847)
(0.787036 14.5093 0.578881)
(0.78362 14.5128 0.561964)
(0.772366 14.5077 0.567369)
(0.764653 14.5089 0.558375)
(0.759236 14.5046 0.555434)
(0.732101 14.505 0.549554)
(0.73171 14.4984 0.539408)
(0.650078 14.4991 0.534748)
(0.66496 14.4837 0.514224)
(0.417629 14.4841 0.510258)
(0.541459 14.3385 0.471542)
(1.09022 14.3371 0.463772)
(12.3294 -4.96115 0.0329003)
(2.09858 -7.21251 -0.464759)
(4.73796 -7.14546 -0.144734)
(2.31665 -7.59029 -0.343504)
(2.73357 -7.45549 -0.211088)
(2.29654 -7.48843 -0.295062)
(2.29349 -7.44824 -0.240928)
(2.22171 -7.44643 -0.277594)
(2.17541 -7.43548 -0.256798)
(2.16227 -7.43021 -0.273806)
(2.13267 -7.42902 -0.268175)
(2.11168 -7.42511 -0.277119)
(2.0983 -7.43245 -0.279904)
(2.02893 -7.42874 -0.285651)
(2.02873 -7.45574 -0.295651)
(1.81453 -7.44901 -0.300013)
(1.84899 -7.53167 -0.320478)
(1.21238 -7.51919 -0.323678)
(1.44353 -8.03202 -0.364818)
(-0.446008 -7.90571 -0.368896)
(12.5839 5.1986 0.33252)
(4.02908 6.68873 -0.173925)
(6.37142 6.24632 0.149734)
(4.19363 6.08893 -0.0540909)
(4.37268 5.92092 0.0795424)
(3.99681 5.93838 -0.00634236)
(3.91436 5.90039 0.0484208)
(3.86245 5.91687 0.0110574)
(3.78609 5.90518 0.032099)
(3.77991 5.91369 0.0147935)
(3.73916 5.90963 0.0204807)
(3.72086 5.91426 0.0113821)
(3.70476 5.9122 0.0085596)
(3.63378 5.91618 0.00268493)
(3.63565 5.91168 -0.00740395)
(3.40602 5.9167 -0.0119338)
(3.44459 5.89737 -0.0324888)
(2.74516 5.89318 -0.0360212)
(2.95241 5.80796 -0.0773249)
(0.310463 5.8431 -0.0805761)
(12.3586 -0.926209 0.15337)
(4.01497 -1.84601 -0.353523)
(7.453 -1.84576 -0.0368342)
(5.48809 -2.34992 -0.234212)
(5.74822 -2.40558 -0.102839)
(5.34972 -2.44628 -0.185376)
(5.24685 -2.4434 -0.132067)
(5.17197 -2.43448 -0.167912)
(5.082 -2.43101 -0.1475)
(5.06403 -2.42268 -0.164096)
(5.01734 -2.42321 -0.158566)
(4.99018 -2.41787 -0.167276)
(4.97448 -2.4255 -0.169953)
(4.88667 -2.42024 -0.175547)
(4.89736 -2.44718 -0.185265)
(4.61604 -2.43831 -0.189529)
(4.67975 -2.52536 -0.209431)
(3.79791 -2.52055 -0.212575)
(4.04429 -2.88683 -0.252595)
(1.37674 -2.83062 -0.253901)
(12.2346 1.7162 0.250578)
(4.27989 2.65767 -0.248977)
(7.91539 2.50748 0.0714176)
(6.39724 2.51608 -0.129359)
(6.64888 2.4162 0.00219025)
(6.32567 2.4254 -0.0817611)
(6.20881 2.39274 -0.0283957)
(6.14572 2.39843 -0.0646239)
(6.05078 2.38982 -0.0441809)
(6.03382 2.39233 -0.0609017)
(5.98624 2.39048 -0.0553941)
(5.96041 2.39215 -0.0641665)
(5.9466 2.3936 -0.0668802)
(5.86319 2.39544 -0.072522)
(5.88019 2.40051 -0.0823102)
(5.6089 2.40264 -0.0866537)
(5.68714 2.41453 -0.106737)
(4.82566 2.41002 -0.109962)
(5.07325 2.43321 -0.151404)
(2.15347 2.44981 -0.151878)
(12.0978 -0.596292 0.208874)
(4.04347 -1.18759 -0.294329)
(8.0415 -1.1222 0.0243983)
(6.71116 -1.39098 -0.174529)
(7.08455 -1.42854 -0.0432188)
(6.80878 -1.46704 -0.12588)
(6.70761 -1.46344 -0.0728335)
(6.64566 -1.46335 -0.108503)
(6.55119 -1.45985 -0.0882396)
(6.53131 -1.4572 -0.104702)
(6.48337 -1.45698 -0.0992322)
(6.45498 -1.45516 -0.107868)
(6.44226 -1.45951 -0.110543)
(6.35504 -1.45759 -0.116094)
(6.37634 -1.47266 -0.125775)
(6.09378 -1.4691 -0.130026)
(6.18218 -1.51632 -0.149941)
(5.28074 -1.51483 -0.153027)
(5.53615 -1.67223 -0.193972)
(2.76282 -1.66851 -0.193878)
(12.0979 0.596251 0.208841)
(4.04349 1.1876 -0.29431)
(8.0415 1.1222 0.0244165)
(6.71115 1.39095 -0.174537)
(7.08455 1.42851 -0.0432328)
(6.80879 1.46703 -0.125877)
(6.70761 1.46345 -0.0728233)
(6.64566 1.46336 -0.1085)
(6.55119 1.45985 -0.0882453)
(6.53131 1.45718 -0.104707)
(6.48337 1.45697 -0.0992298)
(6.45498 1.45513 -0.107864)
(6.44225 1.45948 -0.110543)
(6.35503 1.45746 -0.116099)
(6.3763 1.47247 -0.125778)
(6.09376 1.46865 -0.130027)
(6.18197 1.51503 -0.149944)
(5.28057 1.51363 -0.153036)
(5.5354 1.66374 -0.193995)
(2.75871 1.6667 -0.193883)
(12.2346 -1.71624 0.250525)
(4.27994 -2.65765 -0.248945)
(7.91538 -2.50744 0.0714494)
(6.39722 -2.51608 -0.129366)
(6.64888 -2.41622 0.0021651)
(6.32569 -2.42541 -0.0817606)
(6.20881 -2.39273 -0.0283778)
(6.14572 -2.39843 -0.064616)
(6.05078 -2.38982 -0.0441903)
(6.03381 -2.39234 -0.0609115)
(5.98624 -2.39048 -0.0553911)
(5.96039 -2.39218 -0.0641571)
(5.94655 -2.39363 -0.0668785)
(5.86312 -2.39555 -0.072528)
(5.88 -2.40069 -0.0823146)
(5.60854 -2.40302 -0.0866476)
(5.68642 -2.41568 -0.10674)
(4.82338 -2.41108 -0.109944)
(5.07094 -2.44133 -0.151474)
(2.14318 -2.45164 -0.151786)
(12.3586 0.926181 0.15336)
(4.01498 1.84604 -0.353517)
(7.45298 1.84578 -0.0368307)
(5.48807 2.34993 -0.23421)
(5.74823 2.40557 -0.102848)
(5.34973 2.44628 -0.185378)
(5.24685 2.44341 -0.132059)
(5.17196 2.43448 -0.167907)
(5.08199 2.431 -0.147503)
(5.06403 2.42267 -0.164101)
(5.01734 2.4232 -0.158566)
(4.99016 2.41786 -0.167272)
(4.97442 2.42548 -0.169951)
(4.88659 2.42016 -0.17555)
(4.89712 2.44703 -0.185269)
(4.61563 2.43803 -0.189531)
(4.67877 2.52449 -0.209442)
(3.79506 2.51995 -0.212573)
(4.04099 2.88141 -0.252693)
(1.35797 2.83025 -0.253822)
(12.5838 -5.19857 0.332551)
(4.02908 -6.68868 -0.173946)
(6.37142 -6.24632 0.149711)
(4.1936 -6.08892 -0.0540876)
(4.37267 -5.92089 0.0795584)
(3.99682 -5.93836 -0.00634098)
(3.91437 -5.9004 0.0484119)
(3.86244 -5.9169 0.011053)
(3.78607 -5.90519 0.0321028)
(3.7799 -5.91369 0.0147979)
(3.73915 -5.90962 0.0204792)
(3.72084 -5.91428 0.0113777)
(3.70469 -5.91222 0.00855889)
(3.63368 -5.91624 0.00268807)
(3.63536 -5.91179 -0.00740339)
(3.40553 -5.91687 -0.0119362)
(3.44353 -5.89809 -0.0325064)
(2.74229 -5.89354 -0.0360029)
(2.94936 -5.8123 -0.0774634)
(0.285017 -5.84325 -0.0804036)
(12.3293 4.96119 0.0329396)
(2.09853 7.21254 -0.464781)
(4.73796 7.14546 -0.144757)
(2.31666 7.59029 -0.343501)
(2.73357 7.45552 -0.211067)
(2.29653 7.48845 -0.29506)
(2.29348 7.44823 -0.240943)
(2.22171 7.44641 -0.277602)
(2.17541 7.43547 -0.256792)
(2.16226 7.43022 -0.273798)
(2.13266 7.42903 -0.268177)
(2.11166 7.4251 -0.277127)
(2.09825 7.43245 -0.279906)
(2.02886 7.42873 -0.285648)
(2.02849 7.45574 -0.295649)
(1.81405 7.44897 -0.300019)
(1.84816 7.53155 -0.320495)
(1.20909 7.51917 -0.323678)
(1.44165 8.03267 -0.364946)
(-0.472389 7.90683 -0.368799)
(9.1185 -13.0905 0.837104)
(0.804275 -14.9191 0.361025)
(1.85333 -14.5854 0.688108)
(0.714994 -14.5367 0.493976)
(1.00261 -14.5095 0.624159)
(0.814969 -14.5245 0.541523)
(0.829895 -14.5097 0.594715)
(0.802507 -14.5177 0.558467)
(0.787045 -14.5093 0.57888)
(0.78362 -14.5128 0.561966)
(0.772355 -14.5077 0.56737)
(0.764641 -14.5089 0.558374)
(0.759212 -14.5047 0.555432)
(0.732076 -14.505 0.549552)
(0.731596 -14.4984 0.539408)
(0.649898 -14.4991 0.534744)
(0.664575 -14.4839 0.514216)
(0.416492 -14.484 0.51025)
(0.540678 -14.3382 0.471479)
(1.09212 -14.3333 0.463781)
(2.24878 -0.0543702 -0.623039)
(1.81778 0.213087 -0.353935)
(2.41733 0.282151 -0.473055)
(1.09546 0.133853 -0.479566)
(2.25596 0.184361 -0.470081)
(1.34517 0.148015 -0.499129)
(2.00831 0.156919 -0.483899)
(1.52742 0.139848 -0.50241)
(1.84753 0.139479 -0.494255)
(1.60023 0.13119 -0.504121)
(1.74041 0.12887 -0.501103)
(1.59443 0.124272 -0.506399)
(1.6485 0.12121 -0.505559)
(1.54595 0.11755 -0.508733)
(1.56302 0.114745 -0.506469)
(1.51597 0.111047 -0.508818)
(1.51693 0.109102 -0.49683)
(1.68816 0.120382 -0.500226)
(1.54602 0.0662028 -0.452853)
(3.03686 0.130639 -0.466419)
(4.86152 -0.0660613 0.169262)
(3.34268 -1.11859 0.510651)
(4.87516 -1.13887 0.37848)
(2.98444 -1.29071 0.375637)
(4.05526 -1.32775 0.381433)
(3.07186 -1.31008 0.353853)
(3.66332 -1.34153 0.367475)
(3.19747 -1.31736 0.349327)
(3.47706 -1.33391 0.356659)
(3.24027 -1.31879 0.346839)
(3.35936 -1.32581 0.349379)
(3.20818 -1.31748 0.344024)
(3.25011 -1.32103 0.344456)
(3.11922 -1.31639 0.341175)
(3.12623 -1.3232 0.342907)
(3.00159 -1.32031 0.340373)
(2.99657 -1.34695 0.351309)
(2.95276 -1.33129 0.34734)
(2.94669 -1.50444 0.390097)
(3.28811 -1.52063 0.370072)
(4.47489 0.505661 -0.226154)
(4.13086 1.22285 0.0556541)
(5.67549 1.27735 -0.0622643)
(4.19426 1.0973 -0.0741997)
(5.28132 1.04054 -0.0628082)
(4.44007 0.972253 -0.0931857)
(5.03307 0.937025 -0.0774939)
(4.6162 0.917626 -0.0964268)
(4.89153 0.901245 -0.0883184)
(4.67029 0.894152 -0.0983692)
(4.7851 0.885798 -0.0955233)
(4.63845 0.882072 -0.100963)
(4.67461 0.877049 -0.100453)
(4.5495 0.873156 -0.103809)
(4.54413 0.870429 -0.102161)
(4.44827 0.863925 -0.104769)
(4.40662 0.860835 -0.0941699)
(4.4756 0.861028 -0.0980312)
(4.35177 0.79487 -0.0556813)
(4.97286 0.857913 -0.0714218)
(4.42461 -0.328795 -0.0458895)
(3.92154 -1.09169 0.290687)
(6.16281 -1.01217 0.161747)
(5.04336 -1.21543 0.162627)
(6.17273 -1.27057 0.168187)
(5.49907 -1.29101 0.140388)
(6.0098 -1.32708 0.15373)
(5.66549 -1.31586 0.135499)
(5.89006 -1.33209 0.142682)
(5.70399 -1.32215 0.132812)
(5.79512 -1.32922 0.135336)
(5.66594 -1.32301 0.129968)
(5.6937 -1.32756 0.130539)
(5.572 -1.32357 0.127217)
(5.56869 -1.33367 0.129409)
(5.44261 -1.32908 0.126751)
(5.42287 -1.36778 0.139109)
(5.33177 -1.34758 0.134955)
(5.31643 -1.52277 0.183436)
(5.35684 -1.5631 0.164078)
(4.37983 0.439129 -0.135972)
(4.04393 1.159 0.175597)
(6.21998 1.23732 0.0487732)
(5.37036 1.21866 0.0408377)
(6.60268 1.18325 0.0474296)
(6.07581 1.13265 0.0177756)
(6.63916 1.09303 0.0319004)
(6.36219 1.0696 0.0133649)
(6.60386 1.05146 0.0208129)
(6.44459 1.04295 0.0109382)
(6.53962 1.03524 0.013515)
(6.42266 1.03119 0.00816247)
(6.4497 1.02847 0.00865221)
(6.33925 1.02464 0.00533038)
(6.33079 1.02707 0.00717672)
(6.22858 1.01986 0.004512)
(6.19142 1.03113 0.0157929)
(6.16232 1.02123 0.0116901)
(6.09603 1.01649 0.0564499)
(6.21675 1.08686 0.0395214)
(4.31546 -0.39131 -0.104977)
(3.86023 -1.05936 0.219892)
(6.22903 -1.03007 0.0913039)
(5.50317 -1.15558 0.0889764)
(6.83076 -1.17594 0.0948274)
(6.39841 -1.1708 0.0661813)
(6.97619 -1.17036 0.0797586)
(6.73638 -1.1571 0.0614205)
(6.97561 -1.15721 0.0686197)
(6.83119 -1.14952 0.0587887)
(6.92318 -1.14972 0.0612859)
(6.81251 -1.14516 0.0559454)
(6.83853 -1.14656 0.0564875)
(6.72958 -1.14288 0.0531632)
(6.72286 -1.15007 0.0552779)
(6.61311 -1.14401 0.05257)
(6.58272 -1.17164 0.0647039)
(6.51612 -1.15702 0.0605261)
(6.46267 -1.24041 0.107971)
(6.50683 -1.30499 0.0900719)
(4.31545 0.391249 -0.10498)
(3.86022 1.05935 0.219913)
(6.22903 1.0301 0.0913067)
(5.50317 1.15557 0.0889618)
(6.83076 1.17589 0.0948215)
(6.39842 1.17078 0.0661887)
(6.97619 1.17038 0.0797644)
(6.73637 1.15713 0.0614183)
(6.97561 1.15721 0.0686152)
(6.83118 1.14949 0.0587883)
(6.92318 1.14971 0.0612891)
(6.8125 1.14512 0.0559467)
(6.83851 1.14654 0.056485)
(6.72953 1.14274 0.053159)
(6.72282 1.14984 0.0552757)
(6.61293 1.14384 0.0525677)
(6.58259 1.17035 0.0646881)
(6.51557 1.15708 0.060517)
(6.46212 1.23637 0.107897)
(6.50518 1.30184 0.0900476)
(4.37987 -0.439175 -0.135978)
(4.044 -1.15898 0.175631)
(6.21999 -1.23729 0.0487774)
(5.37033 -1.21866 0.0408187)
(6.60268 -1.18327 0.0474176)
(6.07583 -1.13265 0.0177816)
(6.63917 -1.09301 0.0319095)
(6.36218 -1.0696 0.0133639)
(6.60385 -1.05147 0.0208059)
(6.44459 -1.04297 0.0109361)
(6.53961 -1.03525 0.0135197)
(6.42265 -1.03123 0.00816686)
(6.44964 -1.02849 0.008651)
(6.33923 -1.02478 0.00532714)
(6.33061 -1.0273 0.00718061)
(6.22841 -1.02 0.00451841)
(6.19106 -1.03251 0.0158169)
(6.161 -1.02104 0.011703)
(6.09585 -1.02083 0.056562)
(6.2113 -1.09033 0.0395155)
(4.4246 0.328777 -0.0458895)
(3.92151 1.09175 0.290688)
(6.16279 1.01216 0.161745)
(5.04335 1.21542 0.162631)
(6.17275 1.27057 0.168182)
(5.4991 1.29102 0.140386)
(6.00979 1.32708 0.153733)
(5.66547 1.31585 0.1355)
(5.89005 1.33208 0.14268)
(5.70399 1.32214 0.13281)
(5.79511 1.32922 0.135337)
(5.66591 1.32298 0.12997)
(5.69361 1.32753 0.13054)
(5.57192 1.32347 0.127215)
(5.56845 1.3335 0.129409)
(5.44214 1.32899 0.126748)
(5.42238 1.36682 0.139114)
(5.32936 1.34771 0.134957)
(5.31576 1.52021 0.183502)
(5.34788 1.5608 0.164051)
(4.47493 -0.505626 -0.226152)
(4.13091 -1.22279 0.0556287)
(5.67548 -1.27736 -0.0622702)
(4.19423 -1.09733 -0.0741854)
(5.28132 -1.04049 -0.0628019)
(4.44009 -0.972206 -0.0931937)
(5.03307 -0.937047 -0.0775032)
(4.61618 -0.917672 -0.096427)
(4.89152 -0.901252 -0.0883132)
(4.67029 -0.894133 -0.098367)
(4.78508 -0.885788 -0.0955261)
(4.63843 -0.882118 -0.100966)
(4.6745 -0.87708 -0.100451)
(4.54943 -0.873226 -0.103805)
(4.54381 -0.870557 -0.102159)
(4.44781 -0.863959 -0.104769)
(4.4061 -0.861761 -0.0941602)
(4.47296 -0.860672 -0.0980098)
(4.35204 -0.797642 -0.0556275)
(4.96313 -0.860394 -0.0714225)
(4.86145 0.0661825 0.169268)
(3.34262 1.11863 0.510633)
(4.87518 1.13881 0.378479)
(2.98447 1.29069 0.375646)
(4.05524 1.32779 0.38144)
(3.07185 1.31011 0.353844)
(3.66332 1.3415 0.367464)
(3.19747 1.31733 0.349326)
(3.47706 1.3339 0.356665)
(3.24025 1.31881 0.346841)
(3.35933 1.32582 0.349377)
(3.20816 1.31745 0.344021)
(3.25001 1.321 0.344457)
(3.11913 1.31637 0.341177)
(3.12589 1.32314 0.342912)
(3.00102 1.3203 0.340369)
(2.99612 1.34658 0.351331)
(2.94927 1.33138 0.34734)
(2.94765 1.504 0.390258)
(3.273 1.51981 0.369955)
(2.24872 0.0543218 -0.623046)
(1.81777 -0.213057 -0.353921)
(2.41736 -0.282091 -0.473042)
(1.09549 -0.133862 -0.479573)
(2.25594 -0.184375 -0.470096)
(1.34515 -0.148003 -0.499135)
(2.0083 -0.156911 -0.483896)
(1.52744 -0.139853 -0.502407)
(1.84753 -0.139489 -0.494258)
(1.60021 -0.131194 -0.504124)
(1.74038 -0.128862 -0.501101)
(1.59442 -0.124273 -0.506396)
(1.64843 -0.121211 -0.505559)
(1.5459 -0.117568 -0.508736)
(1.56279 -0.114758 -0.50647)
(1.5156 -0.111029 -0.508812)
(1.51679 -0.109205 -0.496826)
(1.68616 -0.120336 -0.500194)
(1.54683 -0.0656996 -0.452803)
(3.0356 -0.130952 -0.466281)
(2.24881 -0.0543437 0.623095)
(1.81778 0.213088 0.35392)
(2.41733 0.282128 0.47304)
(1.09546 0.133851 0.479584)
(2.25596 0.184375 0.470107)
(1.34517 0.14802 0.499134)
(2.00831 0.156908 0.483885)
(1.52742 0.139841 0.502399)
(1.84753 0.139484 0.494259)
(1.60023 0.131197 0.504129)
(1.74041 0.128868 0.501102)
(1.59443 0.124266 0.506392)
(1.6485 0.121208 0.505557)
(1.54595 0.117554 0.508738)
(1.56302 0.114748 0.506472)
(1.51597 0.111045 0.508816)
(1.51693 0.109099 0.496826)
(1.68816 0.120383 0.500226)
(1.54602 0.0662049 0.452855)
(3.03686 0.130641 0.466421)
(4.86151 -0.066045 -0.169218)
(3.34265 -1.1186 -0.510635)
(4.87515 -1.13889 -0.378493)
(2.98446 -1.29071 -0.375639)
(4.05527 -1.32773 -0.381414)
(3.07185 -1.31007 -0.353837)
(3.66331 -1.34153 -0.367482)
(3.19747 -1.31737 -0.349342)
(3.47707 -1.3339 -0.35666)
(3.24027 -1.31879 -0.346829)
(3.35935 -1.32581 -0.349375)
(3.20817 -1.31748 -0.34403)
(3.25011 -1.32103 -0.344461)
(3.11923 -1.31639 -0.341172)
(3.12623 -1.32319 -0.342902)
(3.00159 -1.32031 -0.340373)
(2.99657 -1.34695 -0.351313)
(2.95277 -1.33129 -0.347341)
(2.94669 -1.50444 -0.390096)
(3.28811 -1.52063 -0.37007)
(4.47488 0.505695 0.226132)
(4.13086 1.22285 -0.0556175)
(5.67549 1.27732 0.0622802)
(4.19426 1.09728 0.0741851)
(5.28132 1.04054 0.0627997)
(4.44007 0.97226 0.093196)
(5.03307 0.937025 0.0775003)
(4.6162 0.917624 0.0964215)
(4.89153 0.901244 0.0883125)
(4.67029 0.894153 0.0983705)
(4.7851 0.885799 0.0955279)
(4.63845 0.882071 0.100964)
(4.67461 0.877047 0.100449)
(4.5495 0.873156 0.103806)
(4.54413 0.87043 0.102163)
(4.44826 0.863926 0.104772)
(4.40662 0.860834 0.0941697)
(4.4756 0.861027 0.0980292)
(4.35177 0.79487 0.0556811)
(4.97286 0.857913 0.0714232)
(4.4246 -0.328794 0.0458421)
(3.92154 -1.09169 -0.290673)
(6.16281 -1.01217 -0.161727)
(5.04336 -1.21545 -0.162641)
(6.17273 -1.27059 -0.168206)
(5.49907 -1.291 -0.140388)
(6.0098 -1.32707 -0.153719)
(5.66549 -1.31586 -0.135493)
(5.89006 -1.33209 -0.142686)
(5.70399 -1.32215 -0.132818)
(5.79512 -1.32922 -0.135336)
(5.66594 -1.32301 -0.129964)
(5.6937 -1.32756 -0.130538)
(5.572 -1.32357 -0.127221)
(5.56869 -1.33368 -0.129411)
(5.44261 -1.32908 -0.126749)
(5.42287 -1.36778 -0.139107)
(5.33177 -1.34758 -0.134955)
(5.31643 -1.52278 -0.183437)
(5.35684 -1.56311 -0.164079)
(4.37983 0.439087 0.135951)
(4.04393 1.159 -0.175634)
(6.21999 1.23734 -0.048779)
(5.37036 1.21866 -0.0408277)
(6.60268 1.18323 -0.0474267)
(6.0758 1.13264 -0.0177838)
(6.63916 1.09304 -0.0318979)
(6.36219 1.06961 -0.0133532)
(6.60386 1.05146 -0.0208079)
(6.44459 1.04294 -0.0109438)
(6.53962 1.03524 -0.013521)
(6.42266 1.03119 -0.00816091)
(6.4497 1.02847 -0.00864669)
(6.33925 1.02464 -0.00532917)
(6.33079 1.02706 -0.00718046)
(6.22858 1.01986 -0.00451441)
(6.19142 1.03114 -0.0157912)
(6.16232 1.02123 -0.0116879)
(6.09603 1.01648 -0.0564499)
(6.21675 1.08685 -0.0395231)
(4.31545 -0.391328 0.104997)
(3.86022 -1.05935 -0.219939)
(6.22904 -1.03005 -0.0913309)
(5.50317 -1.15557 -0.0889667)
(6.83076 -1.17595 -0.0948162)
(6.39841 -1.17081 -0.0661881)
(6.97619 -1.17035 -0.0797596)
(6.73638 -1.15709 -0.0614094)
(6.97561 -1.15721 -0.0686125)
(6.83119 -1.14952 -0.0587928)
(6.92318 -1.14972 -0.0612927)
(6.81251 -1.14515 -0.0559455)
(6.83853 -1.14655 -0.0564818)
(6.72958 -1.14288 -0.0531603)
(6.72285 -1.15008 -0.0552812)
(6.61311 -1.14401 -0.0525735)
(6.58272 -1.17164 -0.0647026)
(6.51612 -1.15702 -0.0605232)
(6.46267 -1.24041 -0.107972)
(6.50683 -1.30499 -0.0900744)
(4.31545 0.391257 0.105015)
(3.86022 1.05935 -0.219926)
(6.22903 1.03009 -0.0913399)
(5.50316 1.15558 -0.0889776)
(6.83075 1.17591 -0.0948136)
(6.39843 1.17078 -0.0661819)
(6.9762 1.17037 -0.0797593)
(6.73637 1.15712 -0.0614144)
(6.9756 1.15721 -0.0686147)
(6.83118 1.14949 -0.0587898)
(6.92318 1.14971 -0.0612897)
(6.8125 1.14512 -0.0559459)
(6.83851 1.14654 -0.0564841)
(6.72952 1.14274 -0.0531589)
(6.72282 1.14984 -0.0552763)
(6.61293 1.14384 -0.052568)
(6.58259 1.17035 -0.0646876)
(6.51557 1.15708 -0.0605164)
(6.46212 1.23638 -0.107898)
(6.50518 1.30184 -0.0900491)
(4.37986 -0.439132 0.135979)
(4.04399 -1.15897 -0.175612)
(6.21999 -1.23731 -0.048791)
(5.37033 -1.21866 -0.0408396)
(6.60267 -1.18325 -0.0474175)
(6.07582 -1.13264 -0.017773)
(6.63917 -1.09303 -0.0319006)
(6.36218 -1.06961 -0.0133627)
(6.60385 -1.05147 -0.0208099)
(6.44458 -1.04296 -0.0109378)
(6.53961 -1.03525 -0.0135171)
(6.42265 -1.03124 -0.00816411)
(6.44964 -1.0285 -0.00865178)
(6.33923 -1.02478 -0.00532952)
(6.33061 -1.02729 -0.00718083)
(6.22841 -1.02 -0.00451674)
(6.19106 -1.03252 -0.0158162)
(6.161 -1.02104 -0.0117036)
(6.09585 -1.02083 -0.0565627)
(6.2113 -1.09033 -0.0395158)
(4.4246 0.328798 0.0458428)
(3.92152 1.09175 -0.290672)
(6.1628 1.01216 -0.161724)
(5.04336 1.21542 -0.16263)
(6.17275 1.27058 -0.168197)
(5.49909 1.29102 -0.140387)
(6.00979 1.32707 -0.153724)
(5.66548 1.31584 -0.135497)
(5.89005 1.33208 -0.142684)
(5.70399 1.32215 -0.132815)
(5.7951 1.32923 -0.135335)
(5.66591 1.32297 -0.129965)
(5.69362 1.32753 -0.130539)
(5.57192 1.32347 -0.127218)
(5.56845 1.3335 -0.129411)
(5.44214 1.32899 -0.126747)
(5.42238 1.36681 -0.139112)
(5.32936 1.34771 -0.134957)
(5.31576 1.52021 -0.183503)
(5.34787 1.5608 -0.164051)
(4.47492 -0.505637 0.226112)
(4.13091 -1.2228 -0.0556299)
(5.67548 -1.27735 0.0622962)
(4.19423 -1.09733 0.0741964)
(5.28133 -1.04049 0.0627895)
(4.44009 -0.972212 0.0931863)
(5.03306 -0.937049 0.0775027)
(4.61618 -0.917672 0.0964272)
(4.89152 -0.901251 0.0883119)
(4.67029 -0.894131 0.0983657)
(4.78508 -0.885788 0.0955266)
(4.63842 -0.882119 0.100968)
(4.6745 -0.877081 0.100452)
(4.54943 -0.873225 0.103804)
(4.54382 -0.870557 0.102158)
(4.4478 -0.863959 0.104769)
(4.4061 -0.861761 0.094161)
(4.47296 -0.860672 0.0980098)
(4.35204 -0.797642 0.0556274)
(4.96313 -0.860394 0.0714225)
(4.86145 0.0661636 -0.169248)
(3.34262 1.11863 -0.510642)
(4.87517 1.13883 -0.378476)
(2.98447 1.29069 -0.375635)
(4.05525 1.32778 -0.381435)
(3.07184 1.31011 -0.353853)
(3.66331 1.34151 -0.367477)
(3.19747 1.31733 -0.349333)
(3.47707 1.3339 -0.356661)
(3.24025 1.31881 -0.346836)
(3.35932 1.32581 -0.349377)
(3.20815 1.31745 -0.344025)
(3.25001 1.32101 -0.344459)
(3.11913 1.31637 -0.341174)
(3.1259 1.32313 -0.34291)
(3.00102 1.3203 -0.34037)
(2.99612 1.34658 -0.351333)
(2.94927 1.33138 -0.347341)
(2.94765 1.504 -0.390256)
(3.273 1.51981 -0.369953)
(2.24874 0.0543061 0.623096)
(1.81778 -0.213057 0.353921)
(2.41736 -0.282083 0.473034)
(1.09548 -0.133859 0.479577)
(2.25594 -0.184381 0.470104)
(1.34515 -0.148011 0.499129)
(2.00831 -0.156907 0.483881)
(1.52744 -0.139848 0.502398)
(1.84753 -0.13949 0.494261)
(1.60021 -0.131198 0.504131)
(1.74038 -0.128863 0.501103)
(1.59442 -0.124271 0.506391)
(1.64842 -0.12121 0.505556)
(1.5459 -0.117569 0.508738)
(1.56279 -0.11476 0.506473)
(1.51561 -0.111028 0.508811)
(1.51679 -0.109203 0.496824)
(1.68616 -0.120335 0.500193)
(1.54683 -0.0657004 0.452804)
(3.0356 -0.130953 0.466282)
(9.11858 13.0906 -0.83706)
(0.804348 14.9191 -0.361021)
(1.85331 14.5854 -0.688124)
(0.714941 14.5367 -0.493972)
(1.00262 14.5095 -0.624136)
(0.815009 14.5246 -0.541514)
(0.829905 14.5097 -0.59473)
(0.802486 14.5177 -0.558481)
(0.787034 14.5093 -0.578878)
(0.783633 14.5128 -0.561956)
(0.772373 14.5077 -0.567368)
(0.764646 14.5089 -0.558381)
(0.759227 14.5046 -0.555437)
(0.732103 14.505 -0.54955)
(0.731717 14.4984 -0.539403)
(0.65008 14.4991 -0.534749)
(0.664955 14.4837 -0.514228)
(0.417626 14.4841 -0.510258)
(0.541461 14.3385 -0.47154)
(1.09022 14.3371 -0.463771)
(12.3293 -4.96108 -0.0328714)
(2.09852 -7.21253 0.464774)
(4.73796 -7.14552 0.144728)
(2.31667 -7.59031 0.343504)
(2.73358 -7.45547 0.211102)
(2.29652 -7.48842 0.295071)
(2.29347 -7.44826 0.240923)
(2.22171 -7.44644 0.277585)
(2.17542 -7.43546 0.256798)
(2.16227 -7.4302 0.273812)
(2.13266 -7.42903 0.268177)
(2.11168 -7.42512 0.277116)
(2.09831 -7.43246 0.2799)
(2.02894 -7.42874 0.285653)
(2.02873 -7.45574 0.295654)
(1.81452 -7.44902 0.300013)
(1.84899 -7.53168 0.320475)
(1.21238 -7.51919 0.323677)
(1.44353 -8.03201 0.364819)
(-0.446008 -7.9057 0.368898)
(12.5838 5.19869 -0.332525)
(4.02905 6.68871 0.173943)
(6.37143 6.24623 -0.14972)
(4.19364 6.08887 0.0540877)
(4.37268 5.92094 -0.0795521)
(3.99679 5.9384 0.00634291)
(3.91436 5.90038 -0.0484159)
(3.86245 5.91686 -0.0110569)
(3.78609 5.90519 -0.0321019)
(3.7799 5.91371 -0.0147948)
(3.73915 5.90963 -0.020479)
(3.72086 5.91425 -0.0113804)
(3.70477 5.91219 -0.00856042)
(3.63378 5.91619 -0.00268697)
(3.63564 5.91169 0.00740377)
(3.40602 5.9167 0.0119355)
(3.44459 5.89737 0.0324896)
(2.74516 5.89318 0.0360205)
(2.95241 5.80796 0.077324)
(0.310462 5.8431 0.080576)
(12.3586 -0.926246 -0.1534)
(4.01499 -1.84599 0.353524)
(7.45299 -1.84576 0.0368335)
(5.48808 -2.34997 0.234199)
(5.74823 -2.40562 0.102826)
(5.34972 -2.44627 0.185375)
(5.24685 -2.44338 0.132073)
(5.17197 -2.43447 0.167915)
(5.082 -2.43102 0.147498)
(5.06404 -2.4227 0.164093)
(5.01734 -2.42321 0.158567)
(4.99018 -2.41786 0.167278)
(4.97448 -2.4255 0.169953)
(4.88667 -2.42025 0.175545)
(4.89736 -2.44718 0.185264)
(4.61604 -2.4383 0.18953)
(4.67974 -2.52535 0.209432)
(3.79791 -2.52055 0.212575)
(4.04429 -2.88684 0.252594)