/*--------------------------------*- C++ -*----------------------------------*\
  =========                 |
  \\      /  F ield         | OpenFOAM: The Open Source CFD Toolbox
   \\    /   O peration     | Website:  https://openfoam.org
    \\  /    A nd           | Version:  7
     \\/     M anipulation  |
\*---------------------------------------------------------------------------*/
FoamFile
{
    version     2.0;
    format      ascii;
    class       volScalarField;
    location    "3.6";
    object      T;
}
// * * * * * * * * * * * * * * * * * * * * * * * * * * * * * * * * * * * * * //

dimensions      [0 0 0 1 0 0 0];

internalField   nonuniform List<scalar> 
1800
(
283.143
283.144
283.144
283.144
283.143
283.143
283.143
283.143
283.143
283.143
283.143
283.143
283.144
283.144
283.144
283.144
283.144
283.144
283.144
283.143
283.145
283.143
283.146
283.141
283.151
283.133
283.168
283.091
283.276
282.806
283.143
283.142
283.142
283.142
283.143
283.143
283.143
283.144
283.144
283.144
283.145
283.145
283.145
283.145
283.145
283.145
283.145
283.144
283.146
283.144
283.147
283.141
283.151
283.136
283.16
283.121
283.185
283.082
283.246
282.993
283.144
283.143
283.142
283.142
283.141
283.141
283.142
283.142
283.142
283.142
283.143
283.143
283.144
283.144
283.145
283.144
283.145
283.144
283.146
283.144
283.146
283.143
283.148
283.141
283.151
283.138
283.155
283.133
283.16
283.13
283.145
283.145
283.144
283.143
283.143
283.143
283.142
283.142
283.142
283.142
283.142
283.142
283.142
283.142
283.143
283.143
283.143
283.143
283.143
283.143
283.143
283.143
283.143
283.143
283.143
283.143
283.142
283.145
283.14
283.149
283.147
283.147
283.146
283.146
283.145
283.145
283.145
283.144
283.144
283.144
283.144
283.144
283.144
283.144
283.144
283.144
283.144
283.144
283.144
283.144
283.143
283.143
283.143
283.143
283.143
283.143
283.142
283.143
283.142
283.143
283.149
283.148
283.148
283.147
283.147
283.146
283.146
283.146
283.146
283.145
283.145
283.145
283.145
283.145
283.145
283.145
283.145
283.144
283.144
283.144
283.144
283.144
283.144
283.144
283.143
283.143
283.143
283.143
283.143
283.143
283.151
283.15
283.15
283.15
283.149
283.148
283.148
283.148
283.147
283.147
283.147
283.147
283.146
283.146
283.146
283.146
283.146
283.146
283.146
283.145
283.145
283.145
283.145
283.145
283.145
283.145
283.145
283.144
283.144
283.144
283.153
283.153
283.153
283.152
283.151
283.151
283.15
283.15
283.149
283.149
283.149
283.149
283.148
283.148
283.148
283.147
283.147
283.147
283.147
283.147
283.147
283.147
283.147
283.147
283.147
283.147
283.146
283.146
283.146
283.146
283.155
283.155
283.154
283.153
283.153
283.152
283.151
283.151
283.151
283.151
283.15
283.15
283.15
283.149
283.149
283.149
283.149
283.149
283.149
283.149
283.149
283.149
283.149
283.149
283.149
283.149
283.149
283.149
283.149
283.149
283.156
283.156
283.155
283.155
283.154
283.154
283.153
283.153
283.153
283.153
283.153
283.153
283.153
283.153
283.153
283.153
283.153
283.153
283.153
283.153
283.153
283.153
283.153
283.153
283.153
283.153
283.153
283.153
283.152
283.153
283.157
283.157
283.157
283.157
283.157
283.157
283.157
283.157
283.157
283.157
283.157
283.157
283.156
283.156
283.156
283.156
283.156
283.156
283.156
283.155
283.155
283.155
283.155
283.155
283.155
283.155
283.154
283.155
283.154
283.155
283.158
283.16
283.161
283.16
283.159
283.158
283.158
283.158
283.157
283.157
283.157
283.157
283.157
283.157
283.157
283.156
283.156
283.156
283.156
283.156
283.156
283.156
283.156
283.156
283.155
283.155
283.155
283.155
283.155
283.154
285.973
288.184
289.613
290.75
291.718
292.573
293.343
294.044
294.69
295.291
295.854
296.386
296.892
297.377
297.843
298.293
298.728
299.151
299.563
299.964
300.355
300.737
301.111
301.477
301.836
302.188
302.533
302.872
303.205
303.533
303.855
304.172
304.484
304.792
305.095
305.394
305.689
305.979
306.266
306.549
306.828
307.104
307.376
307.646
307.911
308.174
308.434
308.691
308.945
309.196
309.444
309.69
309.933
310.173
310.411
310.646
310.878
311.109
311.336
311.562
311.785
312.005
312.223
312.438
312.651
312.862
313.07
313.275
313.478
313.678
313.875
314.069
314.261
314.449
314.634
314.817
314.995
315.171
315.343
315.512
315.677
315.838
315.995
316.149
316.299
316.444
316.586
316.724
316.857
316.986
317.111
317.231
317.348
317.46
317.567
317.671
317.77
317.864
317.955
318.041
318.123
318.201
318.274
318.344
318.41
318.472
318.53
318.585
318.636
318.683
318.727
318.768
318.805
318.84
318.871
318.902
318.926
318.953
318.968
318.998
283.855
285.38
286.625
287.654
288.546
289.345
290.072
290.74
291.36
291.94
292.488
293.007
293.503
293.979
294.437
294.88
295.31
295.727
296.133
296.529
296.916
297.294
297.664
298.026
298.381
298.729
299.071
299.407
299.737
300.062
300.382
300.696
301.006
301.311
301.612
301.908
302.201
302.489
302.774
303.055
303.332
303.606
303.877
304.144
304.408
304.669
304.928
305.183
305.435
305.685
305.931
306.175
306.417
306.656
306.892
307.126
307.357
307.586
307.813
308.037
308.259
308.478
308.695
308.91
309.122
309.332
309.539
309.743
309.946
310.145
310.342
310.536
310.728
310.916
311.102
311.284
311.464
311.64
311.813
311.983
312.149
312.311
312.471
312.626
312.777
312.925
313.069
313.209
313.345
313.476
313.604
313.728
313.847
313.962
314.073
314.18
314.282
314.38
314.474
314.564
314.65
314.732
314.809
314.883
314.952
315.018
315.08
315.139
315.194
315.245
315.293
315.337
315.378
315.417
315.451
315.486
315.512
315.544
315.56
315.597
283.197
283.836
284.635
285.412
286.137
286.813
287.445
288.038
288.598
289.129
289.635
290.12
290.586
291.036
291.472
291.895
292.306
292.706
293.097
293.479
293.853
294.218
294.577
294.928
295.273
295.612
295.945
296.272
296.594
296.911
297.222
297.53
297.832
298.131
298.425
298.716
299.002
299.285
299.564
299.839
300.112
300.38
300.646
300.909
301.168
301.425
301.678
301.929
302.177
302.423
302.666
302.906
303.143
303.378
303.611
303.841
304.069
304.295
304.518
304.739
304.957
305.174
305.388
305.599
305.809
306.016
306.221
306.423
306.623
306.82
307.016
307.208
307.398
307.585
307.77
307.952
308.13
308.306
308.479
308.649
308.816
308.979
309.139
309.296
309.449
309.598
309.744
309.886
310.024
310.159
310.289
310.416
310.539
310.657
310.772
310.883
310.989
311.092
311.19
311.285
311.375
311.462
311.544
311.622
311.697
311.768
311.835
311.898
311.958
312.014
312.067
312.117
312.162
312.206
312.245
312.284
312.314
312.352
312.37
312.414
283.117
283.242
283.567
283.996
284.463
284.941
285.415
285.88
286.333
286.774
287.203
287.621
288.028
288.426
288.815
289.196
289.569
289.935
290.293
290.645
290.991
291.331
291.665
291.993
292.317
292.635
292.948
293.257
293.561
293.861
294.157
294.449
294.737
295.021
295.302
295.579
295.852
296.123
296.39
296.654
296.915
297.173
297.428
297.68
297.93
298.177
298.421
298.662
298.901
299.138
299.372
299.604
299.833
300.06
300.285
300.507
300.727
300.945
301.161
301.375
301.586
301.795
302.003
302.208
302.411
302.612
302.81
303.007
303.201
303.393
303.583
303.771
303.956
304.139
304.319
304.497
304.672
304.845
305.015
305.182
305.347
305.508
305.667
305.822
305.974
306.123
306.269
306.411
306.55
306.686
306.818
306.946
307.071
307.191
307.309
307.422
307.532
307.638
307.74
307.838
307.932
308.023
308.11
308.193
308.272
308.348
308.419
308.488
308.552
308.614
308.671
308.726
308.777
308.826
308.869
308.914
308.947
308.993
309.012
309.065
283.14
283.136
283.192
283.332
283.539
283.791
284.072
284.37
284.677
284.989
285.304
285.621
285.937
286.252
286.565
286.876
287.185
287.491
287.795
288.095
288.392
288.686
288.977
289.264
289.549
289.831
290.109
290.384
290.657
290.926
291.193
291.456
291.717
291.975
292.23
292.483
292.733
292.981
293.226
293.469
293.709
293.946
294.182
294.415
294.646
294.874
295.1
295.325
295.547
295.766
295.984
296.2
296.413
296.625
296.834
297.042
297.247
297.451
297.652
297.852
298.05
298.246
298.44
298.632
298.822
299.011
299.197
299.382
299.565
299.745
299.924
300.101
300.275
300.448
300.619
300.787
300.953
301.118
301.279
301.439
301.596
301.75
301.902
302.051
302.198
302.341
302.482
302.621
302.756
302.888
303.017
303.143
303.265
303.385
303.501
303.614
303.723
303.829
303.931
304.03
304.126
304.218
304.307
304.392
304.473
304.552
304.626
304.698
304.765
304.83
304.891
304.95
305.004
305.057
305.103
305.153
305.189
305.24
305.261
305.321
283.143
283.141
283.14
283.154
283.195
283.269
283.374
283.505
283.658
283.827
284.009
284.202
284.402
284.609
284.82
285.036
285.254
285.474
285.695
285.918
286.142
286.365
286.589
286.813
287.036
287.259
287.481
287.703
287.923
288.143
288.361
288.578
288.793
289.008
289.221
289.433
289.644
289.853
290.06
290.266
290.471
290.673
290.875
291.075
291.273
291.47
291.665
291.859
292.051
292.242
292.431
292.618
292.804
292.988
293.171
293.352
293.531
293.709
293.886
294.061
294.234
294.406
294.576
294.745
294.912
295.078
295.242
295.405
295.566
295.725
295.883
296.039
296.194
296.347
296.498
296.647
296.795
296.941
297.086
297.228
297.369
297.507
297.644
297.778
297.91
298.04
298.168
298.294
298.417
298.538
298.656
298.771
298.885
298.995
299.103
299.208
299.31
299.409
299.505
299.599
299.69
299.777
299.862
299.943
300.022
300.097
300.17
300.24
300.306
300.37
300.43
300.489
300.542
300.596
300.642
300.693
300.73
300.782
300.803
300.866
283.144
283.143
283.142
283.142
283.144
283.154
283.174
283.209
283.257
283.32
283.395
283.482
283.579
283.685
283.798
283.917
284.043
284.173
284.307
284.446
284.587
284.732
284.879
285.029
285.18
285.334
285.488
285.644
285.801
285.958
286.117
286.275
286.434
286.593
286.752
286.911
287.07
287.229
287.387
287.545
287.702
287.859
288.015
288.17
288.325
288.479
288.632
288.784
288.935
289.086
289.235
289.383
289.531
289.677
289.823
289.967
290.11
290.253
290.394
290.534
290.673
290.81
290.947
291.083
291.217
291.35
291.483
291.614
291.744
291.872
292
292.126
292.251
292.375
292.498
292.619
292.74
292.859
292.976
293.092
293.207
293.32
293.432
293.542
293.651
293.758
293.864
293.967
294.069
294.17
294.268
294.365
294.459
294.551
294.642
294.73
294.816
294.9
294.982
295.062
295.139
295.214
295.286
295.356
295.424
295.489
295.552
295.613
295.671
295.727
295.779
295.831
295.878
295.926
295.967
296.013
296.045
296.093
296.111
296.169
283.146
283.146
283.146
283.146
283.146
283.147
283.15
283.157
283.17
283.19
283.217
283.252
283.294
283.343
283.399
283.461
283.528
283.601
283.678
283.76
283.846
283.935
284.028
284.124
284.223
284.324
284.428
284.533
284.64
284.749
284.859
284.971
285.083
285.196
285.31
285.425
285.54
285.656
285.771
285.887
286.003
286.119
286.235
286.35
286.466
286.581
286.696
286.81
286.924
287.037
287.15
287.263
287.374
287.485
287.596
287.706
287.815
287.924
288.031
288.138
288.244
288.35
288.455
288.558
288.662
288.764
288.865
288.966
289.066
289.165
289.263
289.361
289.457
289.552
289.647
289.741
289.834
289.926
290.016
290.106
290.195
290.283
290.37
290.455
290.54
290.623
290.705
290.786
290.866
290.944
291.021
291.096
291.17
291.243
291.314
291.383
291.451
291.517
291.581
291.644
291.705
291.764
291.821
291.877
291.931
291.982
292.032
292.081
292.127
292.171
292.213
292.255
292.292
292.331
292.363
292.4
292.426
292.465
292.479
292.526
283.149
283.149
283.149
283.149
283.149
283.149
283.149
283.15
283.154
283.161
283.171
283.186
283.205
283.229
283.257
283.291
283.329
283.371
283.417
283.466
283.52
283.576
283.636
283.699
283.764
283.832
283.902
283.974
284.047
284.122
284.199
284.277
284.356
284.436
284.517
284.599
284.681
284.764
284.847
284.931
285.015
285.099
285.183
285.267
285.352
285.436
285.52
285.604
285.687
285.771
285.854
285.937
286.019
286.101
286.183
286.264
286.345
286.425
286.505
286.584
286.663
286.741
286.819
286.896
286.973
287.049
287.124
287.199
287.274
287.347
287.42
287.493
287.565
287.636
287.706
287.776
287.846
287.914
287.982
288.049
288.116
288.181
288.246
288.31
288.373
288.435
288.497
288.557
288.617
288.675
288.733
288.79
288.845
288.899
288.952
289.004
289.055
289.105
289.153
289.2
289.246
289.29
289.333
289.375
289.415
289.454
289.491
289.528
289.562
289.596
289.627
289.658
289.686
289.715
289.739
289.767
289.786
289.815
289.826
289.861
283.152
283.152
283.152
283.151
283.151
283.15
283.15
283.15
283.151
283.154
283.158
283.165
283.174
283.186
283.202
283.221
283.242
283.267
283.295
283.326
283.359
283.395
283.433
283.474
283.516
283.56
283.606
283.654
283.703
283.753
283.805
283.857
283.911
283.965
284.02
284.076
284.132
284.188
284.246
284.303
284.361
284.418
284.476
284.535
284.593
284.651
284.709
284.767
284.825
284.883
284.941
284.998
285.056
285.113
285.169
285.226
285.282
285.338
285.394
285.449
285.504
285.558
285.613
285.666
285.72
285.773
285.826
285.878
285.93
285.981
286.032
286.083
286.133
286.183
286.232
286.281
286.33
286.378
286.425
286.472
286.518
286.564
286.609
286.654
286.698
286.742
286.785
286.827
286.869
286.91
286.95
286.989
287.028
287.066
287.103
287.139
287.175
287.209
287.243
287.276
287.308
287.338
287.368
287.397
287.425
287.452
287.478
287.503
287.527
287.551
287.572
287.594
287.613
287.633
287.65
287.669
287.682
287.702
287.71
287.734
283.154
283.153
283.153
283.153
283.152
283.152
283.151
283.151
283.151
283.152
283.154
283.157
283.162
283.168
283.176
283.187
283.199
283.212
283.228
283.246
283.265
283.285
283.308
283.331
283.356
283.382
283.409
283.438
283.467
283.497
283.527
283.559
283.591
283.623
283.656
283.69
283.723
283.757
283.792
283.826
283.861
283.896
283.931
283.966
284.001
284.036
284.072
284.107
284.142
284.177
284.212
284.246
284.281
284.316
284.35
284.384
284.418
284.452
284.486
284.519
284.553
284.586
284.619
284.651
284.684
284.716
284.748
284.78
284.811
284.842
284.873
284.904
284.935
284.965
284.995
285.024
285.054
285.083
285.112
285.14
285.168
285.196
285.223
285.251
285.277
285.304
285.33
285.355
285.381
285.405
285.43
285.454
285.477
285.5
285.522
285.544
285.566
285.586
285.607
285.627
285.646
285.664
285.682
285.7
285.717
285.733
285.748
285.763
285.778
285.792
285.805
285.817
285.829
285.841
285.851
285.862
285.87
285.882
285.887
285.9
283.155
283.154
283.154
283.153
283.153
283.152
283.152
283.152
283.152
283.152
283.152
283.153
283.155
283.157
283.159
283.163
283.167
283.171
283.177
283.182
283.189
283.196
283.204
283.212
283.22
283.229
283.238
283.248
283.258
283.268
283.279
283.289
283.3
283.312
283.323
283.334
283.346
283.358
283.37
283.381
283.393
283.405
283.417
283.43
283.442
283.454
283.466
283.478
283.49
283.502
283.514
283.526
283.538
283.55
283.562
283.574
283.585
283.597
283.609
283.62
283.632
283.643
283.654
283.666
283.677
283.688
283.699
283.71
283.721
283.731
283.742
283.753
283.763
283.774
283.784
283.794
283.804
283.814
283.824
283.834
283.844
283.853
283.863
283.872
283.881
283.89
283.899
283.908
283.917
283.925
283.933
283.942
283.95
283.958
283.965
283.973
283.98
283.987
283.994
284.001
284.007
284.014
284.02
284.026
284.032
284.037
284.043
284.048
284.053
284.057
284.062
284.066
284.07
284.074
284.077
284.081
284.084
284.088
284.089
284.094
)
;

boundaryField
{
    upperWall
    {
        type            fixedValue;
        value           uniform 283.15;
    }
    lowerWall
    {
        type            fixedValue;
        value           uniform 283.15;
    }
    heatedWall
    {
        type            externalWallHeatFluxTemperature;
        mode            power;
        kappaMethod     fluidThermo;
        kappa           none;
        alphaAni        Anialpha;
        Q               5040;
        qr              none;
        refValue        nonuniform List<scalar> 
120
(
287.835
289.963
291.408
292.567
293.551
294.419
295.199
295.908
296.559
297.163
297.729
298.263
298.771
299.256
299.723
300.174
300.61
301.033
301.445
301.847
302.238
302.621
302.996
303.362
303.722
304.074
304.42
304.759
305.093
305.421
305.744
306.061
306.374
306.682
306.985
307.285
307.58
307.871
308.158
308.441
308.721
308.997
309.27
309.539
309.805
310.068
310.328
310.585
310.84
311.091
311.34
311.585
311.829
312.069
312.307
312.543
312.776
313.006
313.234
313.46
313.683
313.903
314.121
314.337
314.55
314.761
314.969
315.175
315.378
315.578
315.775
315.97
316.161
316.35
316.535
316.718
316.897
317.072
317.245
317.413
317.578
317.74
317.897
318.051
318.201
318.347
318.488
318.626
318.759
318.888
319.013
319.133
319.25
319.362
319.469
319.572
319.671
319.766
319.856
319.942
320.024
320.101
320.175
320.245
320.31
320.372
320.43
320.484
320.535
320.582
320.626
320.666
320.703
320.738
320.768
320.798
320.822
320.849
320.863
320.893
)
;
        refGradient     nonuniform List<scalar> 
120
(
223.441
213.479
215.358
218.07
220.004
221.539
222.754
223.655
224.304
224.744
225.052
225.257
225.406
225.517
225.607
225.685
225.758
225.828
225.897
225.966
226.034
226.101
226.168
226.233
226.296
226.358
226.419
226.477
226.534
226.589
226.642
226.694
226.744
226.793
226.841
226.887
226.932
226.975
227.018
227.06
227.1
227.14
227.179
227.217
227.254
227.29
227.326
227.361
227.396
227.429
227.463
227.495
227.527
227.559
227.59
227.621
227.651
227.68
227.71
227.738
227.766
227.794
227.821
227.848
227.875
227.9
227.925
227.95
227.974
227.997
228.02
228.042
228.063
228.084
228.103
228.122
228.139
228.156
228.171
228.186
228.199
228.211
228.221
228.23
228.238
228.244
228.249
228.252
228.253
228.253
228.251
228.247
228.241
228.234
228.224
228.213
228.199
228.184
228.167
228.148
228.127
228.104
228.079
228.052
228.023
227.992
227.96
227.925
227.889
227.85
227.812
227.768
227.728
227.678
227.64
227.579
227.549
227.472
227.453
227.353
)
;
        valueFraction   uniform 0;
        value           nonuniform List<scalar> 
120
(
287.835
289.963
291.408
292.567
293.551
294.419
295.199
295.908
296.559
297.163
297.729
298.263
298.771
299.256
299.723
300.174
300.61
301.033
301.445
301.847
302.238
302.621
302.996
303.362
303.722
304.074
304.42
304.759
305.093
305.421
305.744
306.061
306.374
306.682
306.985
307.285
307.58
307.871
308.158
308.441
308.721
308.997
309.27
309.539
309.805
310.068
310.328
310.585
310.84
311.091
311.34
311.585
311.829
312.069
312.307
312.543
312.776
313.006
313.234
313.46
313.683
313.903
314.121
314.337
314.55
314.761
314.969
315.175
315.378
315.578
315.775
315.97
316.161
316.35
316.535
316.718
316.897
317.072
317.245
317.413
317.578
317.74
317.897
318.051
318.201
318.347
318.488
318.626
318.759
318.888
319.013
319.133
319.25
319.362
319.469
319.572
319.671
319.766
319.856
319.942
320.024
320.101
320.175
320.245
320.31
320.372
320.43
320.484
320.535
320.582
320.626
320.666
320.703
320.738
320.768
320.798
320.822
320.849
320.863
320.893
)
;
    }
    inlet
    {
        type            fixedValue;
        value           uniform 283.15;
    }
    outlet
    {
        type            inletOutlet;
        inletValue      uniform 283.15;
        value           nonuniform List<scalar> 
12
(
318.998
315.597
312.414
309.065
305.321
300.866
296.169
292.526
289.861
287.734
285.9
284.094
)
;
    }
    frontAndBack
    {
        type            empty;
    }
}


// ************************************************************************* //
