/*--------------------------------*- C++ -*----------------------------------*\
  =========                 |
  \\      /  F ield         | OpenFOAM: The Open Source CFD Toolbox
   \\    /   O peration     | Website:  https://openfoam.org
    \\  /    A nd           | Version:  7
     \\/     M anipulation  |
\*---------------------------------------------------------------------------*/
FoamFile
{
    version     2.0;
    format      ascii;
    class       volScalarField;
    location    "1.9575";
    object      rho_0;
}
// * * * * * * * * * * * * * * * * * * * * * * * * * * * * * * * * * * * * * //

dimensions      [1 -3 0 0 0 0 0];

internalField   nonuniform List<scalar> 
4950
(
1.2352
1.23477
1.2348
1.23449
1.23461
1.2344
1.23451
1.23434
1.23444
1.23431
1.23439
1.23429
1.23436
1.23428
1.23432
1.23428
1.23428
1.2343
1.23416
1.23456
1.23516
1.23501
1.23506
1.23476
1.23479
1.23456
1.23458
1.23442
1.23443
1.23432
1.23435
1.23429
1.23432
1.2343
1.2343
1.23435
1.23424
1.23449
1.23397
1.23491
1.23544
1.23543
1.23573
1.23549
1.23567
1.23543
1.23554
1.23533
1.2354
1.23523
1.23528
1.23515
1.2352
1.23514
1.23517
1.23519
1.23515
1.23528
1.2351
1.23543
1.23515
1.23512
1.23532
1.23515
1.23526
1.2351
1.23515
1.23501
1.23502
1.23491
1.23491
1.23482
1.23483
1.23479
1.2348
1.23481
1.23482
1.23487
1.23486
1.23494
1.23542
1.23544
1.23578
1.23558
1.23578
1.23558
1.23571
1.23553
1.23562
1.23546
1.23551
1.23538
1.23543
1.23534
1.2354
1.23535
1.23542
1.2354
1.23548
1.23549
1.23515
1.23512
1.23532
1.23515
1.23526
1.2351
1.23515
1.23501
1.23502
1.2349
1.23491
1.23482
1.23483
1.23478
1.23481
1.2348
1.23484
1.23485
1.23488
1.23492
1.23544
1.23543
1.23573
1.23549
1.23567
1.23543
1.23554
1.23533
1.2354
1.23522
1.23528
1.23515
1.23521
1.23512
1.2352
1.23514
1.23522
1.23518
1.23524
1.23524
1.23516
1.23501
1.23506
1.23476
1.23479
1.23456
1.23458
1.23442
1.23443
1.23432
1.23435
1.23428
1.23433
1.23428
1.23433
1.2343
1.23433
1.2343
1.23432
1.23428
1.2352
1.23477
1.2348
1.23449
1.23461
1.2344
1.23451
1.23434
1.23444
1.23431
1.23439
1.23429
1.23436
1.23427
1.23433
1.23426
1.23431
1.23424
1.23428
1.2342
1.23359
1.23363
1.23329
1.23337
1.23311
1.23322
1.23303
1.23315
1.23301
1.23313
1.23302
1.23313
1.23304
1.23314
1.23305
1.23316
1.23301
1.23327
1.23268
1.23419
1.23384
1.234
1.2338
1.23386
1.23367
1.23368
1.23353
1.23352
1.23342
1.23343
1.23336
1.2334
1.23336
1.23344
1.23337
1.23353
1.23333
1.2337
1.23311
1.23411
1.23357
1.23368
1.23337
1.23348
1.23322
1.23328
1.23306
1.2331
1.23292
1.23295
1.23282
1.23288
1.23279
1.23289
1.23281
1.23297
1.23286
1.23309
1.23287
1.2332
1.23384
1.23401
1.23383
1.2339
1.23374
1.23376
1.23364
1.23363
1.23353
1.23351
1.23344
1.23344
1.23339
1.23342
1.23341
1.23347
1.23347
1.23355
1.23357
1.23365
1.23357
1.23368
1.23336
1.23348
1.23323
1.2333
1.2331
1.23315
1.23299
1.23302
1.2329
1.23294
1.23286
1.23292
1.23289
1.23297
1.23296
1.23305
1.23306
1.23312
1.23384
1.23401
1.23383
1.2339
1.23374
1.23376
1.23364
1.23363
1.23353
1.23351
1.23344
1.23343
1.2334
1.23342
1.23341
1.23346
1.23348
1.23354
1.23358
1.23364
1.23357
1.23368
1.23337
1.23347
1.23322
1.23328
1.23306
1.23309
1.23292
1.23295
1.23282
1.23287
1.2328
1.23287
1.23284
1.23292
1.23292
1.233
1.23299
1.23305
1.23384
1.234
1.2338
1.23386
1.23367
1.23368
1.23353
1.23352
1.23342
1.23342
1.23337
1.23339
1.23337
1.23341
1.23341
1.23345
1.23346
1.23348
1.23348
1.23348
1.23359
1.23363
1.23329
1.23337
1.23311
1.23322
1.23303
1.23315
1.23301
1.23313
1.23302
1.23312
1.23304
1.23313
1.23306
1.23313
1.23308
1.23312
1.23308
1.23312
1.23372
1.23373
1.23366
1.23362
1.23351
1.23345
1.23335
1.23334
1.23329
1.23332
1.23329
1.23332
1.23328
1.23333
1.23323
1.2334
1.23307
1.2337
1.23238
1.235
1.23372
1.23375
1.23372
1.2337
1.23362
1.23356
1.23347
1.23341
1.23332
1.2333
1.23324
1.23327
1.23321
1.23332
1.23322
1.23344
1.23317
1.23362
1.23298
1.23387
1.23372
1.23374
1.23369
1.23367
1.23359
1.23353
1.23344
1.23338
1.23328
1.23323
1.23316
1.23315
1.2331
1.23314
1.23311
1.2332
1.23316
1.23329
1.23321
1.23336
1.23372
1.23375
1.23373
1.23371
1.23365
1.2336
1.23352
1.23347
1.23339
1.23335
1.23329
1.23327
1.23324
1.23326
1.23326
1.2333
1.23332
1.23337
1.23341
1.23346
1.23372
1.23374
1.23369
1.23367
1.23359
1.23353
1.23344
1.23339
1.2333
1.23325
1.23319
1.23317
1.23314
1.23315
1.23315
1.23318
1.2332
1.23325
1.23329
1.23334
1.23372
1.23375
1.23373
1.23371
1.23365
1.2336
1.23352
1.23347
1.23339
1.23335
1.23329
1.23327
1.23325
1.23326
1.23326
1.2333
1.23332
1.23338
1.2334
1.23347
1.23372
1.23374
1.2337
1.23367
1.23359
1.23353
1.23344
1.23337
1.23328
1.23323
1.23316
1.23314
1.23311
1.23313
1.23313
1.23317
1.23319
1.23324
1.23326
1.23331
1.23372
1.23375
1.23372
1.2337
1.23362
1.23356
1.23347
1.23341
1.23333
1.23329
1.23325
1.23325
1.23325
1.23327
1.23329
1.23333
1.23334
1.23336
1.23336
1.23334
1.23372
1.23373
1.23366
1.23361
1.23351
1.23345
1.23335
1.23334
1.23329
1.23331
1.23329
1.23331
1.23329
1.23331
1.23328
1.2333
1.23327
1.23328
1.23326
1.23324
1.23359
1.23363
1.23329
1.23337
1.23311
1.23322
1.23303
1.23315
1.23301
1.23313
1.23302
1.23313
1.23304
1.23314
1.23305
1.23316
1.23301
1.23327
1.23268
1.23419
1.23384
1.234
1.2338
1.23386
1.23367
1.23368
1.23353
1.23352
1.23342
1.23343
1.23336
1.2334
1.23336
1.23344
1.23337
1.23353
1.23333
1.2337
1.23311
1.23411
1.23357
1.23368
1.23337
1.23348
1.23322
1.23328
1.23306
1.2331
1.23292
1.23295
1.23282
1.23288
1.23279
1.23289
1.23281
1.23297
1.23286
1.23309
1.23287
1.2332
1.23384
1.23401
1.23383
1.2339
1.23374
1.23376
1.23364
1.23363
1.23353
1.23351
1.23344
1.23344
1.23339
1.23342
1.23341
1.23347
1.23347
1.23355
1.23357
1.23365
1.23357
1.23368
1.23336
1.23348
1.23323
1.2333
1.2331
1.23315
1.23299
1.23302
1.2329
1.23294
1.23286
1.23292
1.23289
1.23297
1.23296
1.23305
1.23306
1.23312
1.23384
1.23401
1.23383
1.2339
1.23374
1.23376
1.23364
1.23363
1.23353
1.23351
1.23344
1.23343
1.2334
1.23342
1.23341
1.23346
1.23348
1.23354
1.23358
1.23364
1.23357
1.23368
1.23337
1.23347
1.23322
1.23328
1.23306
1.23309
1.23292
1.23295
1.23282
1.23287
1.2328
1.23287
1.23284
1.23292
1.23292
1.233
1.23299
1.23305
1.23384
1.234
1.2338
1.23386
1.23367
1.23368
1.23353
1.23352
1.23342
1.23342
1.23337
1.23339
1.23337
1.23341
1.23341
1.23345
1.23346
1.23348
1.23348
1.23348
1.23359
1.23363
1.23329
1.23337
1.23311
1.23322
1.23303
1.23315
1.23301
1.23313
1.23302
1.23312
1.23304
1.23313
1.23306
1.23313
1.23308
1.23312
1.23308
1.23312
1.2352
1.23477
1.2348
1.23449
1.23461
1.2344
1.23451
1.23434
1.23444
1.23431
1.23439
1.23429
1.23436
1.23428
1.23432
1.23428
1.23428
1.2343
1.23416
1.23456
1.23516
1.23501
1.23506
1.23476
1.23479
1.23456
1.23458
1.23442
1.23443
1.23432
1.23435
1.23429
1.23432
1.2343
1.2343
1.23435
1.23424
1.23449
1.23397
1.23491
1.23544
1.23543
1.23573
1.23549
1.23567
1.23543
1.23554
1.23533
1.2354
1.23523
1.23528
1.23515
1.2352
1.23514
1.23517
1.23519
1.23515
1.23528
1.2351
1.23543
1.23515
1.23512
1.23532
1.23515
1.23526
1.2351
1.23515
1.23501
1.23502
1.23491
1.23491
1.23482
1.23483
1.23479
1.2348
1.23481
1.23482
1.23487
1.23486
1.23494
1.23542
1.23544
1.23578
1.23558
1.23578
1.23558
1.23571
1.23553
1.23562
1.23546
1.23551
1.23538
1.23543
1.23534
1.2354
1.23535
1.23542
1.2354
1.23548
1.23549
1.23515
1.23512
1.23532
1.23515
1.23526
1.2351
1.23515
1.23501
1.23502
1.2349
1.23491
1.23482
1.23483
1.23478
1.23481
1.2348
1.23484
1.23485
1.23488
1.23492
1.23544
1.23543
1.23573
1.23549
1.23567
1.23543
1.23554
1.23533
1.2354
1.23522
1.23528
1.23515
1.23521
1.23512
1.2352
1.23514
1.23522
1.23518
1.23524
1.23524
1.23516
1.23501
1.23506
1.23476
1.23479
1.23456
1.23458
1.23442
1.23443
1.23432
1.23435
1.23428
1.23433
1.23428
1.23433
1.2343
1.23433
1.2343
1.23432
1.23428
1.2352
1.23477
1.2348
1.23449
1.23461
1.2344
1.23451
1.23434
1.23444
1.23431
1.23439
1.23429
1.23436
1.23427
1.23433
1.23426
1.23431
1.23424
1.23428
1.2342
1.22726
1.22139
1.2177
1.2146
1.21219
1.20986
1.20791
1.20595
1.2043
1.20264
1.2012
1.19972
1.1984
1.19706
1.19586
1.19466
1.1936
1.19252
1.19156
1.19061
1.18979
1.18899
1.18831
1.18766
1.18713
1.18662
1.18623
1.18585
1.18558
1.18533
1.18516
1.185
1.18489
1.18478
1.18471
1.18462
1.18456
1.18448
1.18443
1.18436
1.18431
1.18423
1.18418
1.18411
1.18406
1.18398
1.18393
1.18386
1.1838
1.18373
1.18368
1.18361
1.18355
1.18348
1.18342
1.18335
1.18329
1.18322
1.18316
1.18309
1.18303
1.18296
1.1829
1.18283
1.18277
1.1827
1.18264
1.18257
1.18251
1.18244
1.18238
1.18231
1.18225
1.18218
1.18212
1.18205
1.18199
1.18192
1.18186
1.18179
1.18173
1.18166
1.1816
1.18153
1.18147
1.1814
1.18135
1.18128
1.18123
1.18116
1.23103
1.22595
1.22241
1.21941
1.21707
1.2148
1.21287
1.21094
1.20928
1.20763
1.20619
1.20473
1.20341
1.20207
1.20087
1.19966
1.19859
1.19751
1.19655
1.19559
1.19475
1.19393
1.19323
1.19256
1.192
1.19148
1.19106
1.19066
1.19037
1.1901
1.18991
1.18973
1.18961
1.18949
1.18941
1.18932
1.18926
1.18918
1.18913
1.18905
1.189
1.18893
1.18888
1.18881
1.18875
1.18868
1.18863
1.18855
1.1885
1.18843
1.18837
1.1883
1.18825
1.18817
1.18812
1.18805
1.18799
1.18792
1.18786
1.18779
1.18773
1.18766
1.1876
1.18753
1.18747
1.1874
1.18734
1.18727
1.18721
1.18714
1.18708
1.18701
1.18695
1.18688
1.18682
1.18675
1.18668
1.18662
1.18655
1.18649
1.18642
1.18635
1.18629
1.18622
1.18616
1.1861
1.18604
1.18597
1.18592
1.18586
1.23453
1.23141
1.22872
1.22612
1.22406
1.22201
1.22026
1.21842
1.21682
1.21521
1.21383
1.21241
1.21115
1.20984
1.20866
1.20746
1.20641
1.20534
1.20439
1.20343
1.20258
1.20174
1.20102
1.20032
1.19974
1.19918
1.19873
1.1983
1.19797
1.19766
1.19743
1.19722
1.19708
1.19694
1.19686
1.19676
1.19669
1.19661
1.19655
1.19648
1.19642
1.19635
1.1963
1.19622
1.19617
1.1961
1.19605
1.19597
1.19592
1.19585
1.19579
1.19572
1.19566
1.19559
1.19553
1.19546
1.19541
1.19533
1.19528
1.1952
1.19515
1.19508
1.19502
1.19494
1.19488
1.19481
1.19475
1.19468
1.19462
1.19455
1.19449
1.19442
1.19436
1.19429
1.19423
1.19416
1.1941
1.19403
1.19396
1.1939
1.19383
1.19377
1.1937
1.19364
1.19358
1.19351
1.19345
1.19338
1.19333
1.19327
1.23487
1.23342
1.23175
1.22986
1.2283
1.22669
1.22526
1.22368
1.22225
1.22079
1.21953
1.21826
1.21712
1.21591
1.21481
1.21368
1.21269
1.21169
1.2108
1.20989
1.20908
1.20826
1.20755
1.20686
1.20628
1.20572
1.20525
1.2048
1.20445
1.20411
1.20387
1.20363
1.20348
1.20332
1.20322
1.20311
1.20304
1.20296
1.2029
1.20282
1.20277
1.2027
1.20264
1.20257
1.20252
1.20244
1.20239
1.20232
1.20226
1.20219
1.20213
1.20206
1.202
1.20193
1.20188
1.2018
1.20175
1.20167
1.20162
1.20154
1.20148
1.20141
1.20135
1.20128
1.20122
1.20115
1.20109
1.20102
1.20096
1.20089
1.20083
1.20076
1.20069
1.20062
1.20056
1.20049
1.20043
1.20036
1.2003
1.20023
1.20016
1.20009
1.20003
1.19996
1.1999
1.19983
1.19977
1.1997
1.19965
1.19959
1.23568
1.2349
1.23403
1.23276
1.23175
1.23057
1.22953
1.22826
1.22709
1.22584
1.22479
1.2237
1.22273
1.22167
1.22071
1.21971
1.21884
1.21795
1.21717
1.21635
1.21562
1.21487
1.21423
1.21359
1.21306
1.21253
1.21209
1.21166
1.21131
1.21098
1.21073
1.21049
1.21033
1.21017
1.21007
1.20996
1.20989
1.2098
1.20974
1.20966
1.20961
1.20953
1.20948
1.20941
1.20935
1.20928
1.20922
1.20915
1.20909
1.20902
1.20897
1.20889
1.20884
1.20876
1.20871
1.20863
1.20857
1.2085
1.20844
1.20837
1.20831
1.20824
1.20818
1.20811
1.20805
1.20798
1.20791
1.20784
1.20778
1.20771
1.20765
1.20758
1.20751
1.20744
1.20738
1.20731
1.20725
1.20718
1.20711
1.20704
1.20698
1.20691
1.20685
1.20678
1.20672
1.20665
1.20659
1.20653
1.20646
1.2064
1.23493
1.23445
1.23397
1.23319
1.23261
1.23184
1.23115
1.23021
1.22933
1.22837
1.22756
1.22671
1.22596
1.22511
1.22434
1.22353
1.22283
1.2221
1.22147
1.2208
1.2202
1.21958
1.21904
1.21851
1.21806
1.21761
1.21724
1.21686
1.21657
1.21627
1.21605
1.21583
1.21569
1.21554
1.21545
1.21534
1.21527
1.21518
1.21513
1.21505
1.21499
1.21492
1.21486
1.21479
1.21473
1.21466
1.2146
1.21453
1.21447
1.2144
1.21434
1.21427
1.21421
1.21414
1.21408
1.21401
1.21395
1.21388
1.21382
1.21375
1.21368
1.21361
1.21355
1.21348
1.21342
1.21335
1.21328
1.21321
1.21315
1.21308
1.21302
1.21294
1.21288
1.21281
1.21275
1.21268
1.21261
1.21254
1.21248
1.21241
1.21234
1.21227
1.21221
1.21214
1.21208
1.21201
1.21194
1.21188
1.21181
1.21174
1.23529
1.23483
1.2346
1.2341
1.23381
1.23331
1.23288
1.23221
1.23164
1.23095
1.23042
1.22981
1.22929
1.22867
1.22813
1.22753
1.22705
1.22652
1.22607
1.22557
1.22514
1.22467
1.22429
1.22389
1.22357
1.22322
1.22295
1.22266
1.22243
1.2222
1.22203
1.22186
1.22174
1.22161
1.22153
1.22143
1.22137
1.22128
1.22123
1.22115
1.22109
1.22102
1.22096
1.22089
1.22083
1.22076
1.2207
1.22063
1.22057
1.2205
1.22044
1.22036
1.2203
1.22023
1.22017
1.2201
1.22004
1.21996
1.2199
1.21983
1.21977
1.2197
1.21963
1.21956
1.2195
1.21943
1.21936
1.21929
1.21923
1.21916
1.21909
1.21902
1.21896
1.21888
1.21882
1.21875
1.21868
1.21861
1.21855
1.21848
1.21841
1.21834
1.21828
1.21821
1.21814
1.21807
1.21801
1.21794
1.21787
1.2178
1.23424
1.23394
1.23384
1.23354
1.23342
1.23312
1.2329
1.2325
1.2322
1.2318
1.23152
1.23115
1.23087
1.23049
1.2302
1.22984
1.22957
1.22925
1.229
1.22869
1.22844
1.22816
1.22794
1.22768
1.2275
1.22727
1.22711
1.22691
1.22678
1.22661
1.2265
1.22637
1.22629
1.22619
1.22612
1.22603
1.22598
1.22589
1.22584
1.22576
1.22571
1.22563
1.22557
1.2255
1.22544
1.22536
1.22531
1.22523
1.22517
1.2251
1.22504
1.22496
1.2249
1.22483
1.22477
1.22469
1.22463
1.22456
1.2245
1.22442
1.22436
1.22429
1.22422
1.22415
1.22409
1.22401
1.22395
1.22387
1.22381
1.22374
1.22367
1.2236
1.22353
1.22346
1.22339
1.22332
1.22326
1.22318
1.22312
1.22304
1.22298
1.22291
1.22284
1.22277
1.2227
1.22263
1.22257
1.2225
1.22243
1.22235
1.23442
1.2342
1.23419
1.23398
1.23396
1.23376
1.23369
1.23348
1.23338
1.23317
1.23308
1.23289
1.23278
1.2326
1.23249
1.23231
1.23221
1.23204
1.23194
1.23178
1.23168
1.23153
1.23144
1.2313
1.23122
1.23109
1.23101
1.23089
1.23082
1.23071
1.23065
1.23055
1.23049
1.2304
1.23035
1.23026
1.23021
1.23013
1.23008
1.23
1.22994
1.22986
1.22981
1.22973
1.22967
1.2296
1.22954
1.22946
1.2294
1.22933
1.22927
1.22919
1.22913
1.22905
1.22899
1.22892
1.22886
1.22878
1.22872
1.22864
1.22858
1.2285
1.22844
1.22837
1.2283
1.22823
1.22816
1.22809
1.22802
1.22795
1.22788
1.22781
1.22774
1.22767
1.2276
1.22753
1.22746
1.22738
1.22732
1.22724
1.22718
1.2271
1.22704
1.22696
1.2269
1.22682
1.22676
1.22669
1.22662
1.22655
1.22453
1.21809
1.21416
1.21119
1.20869
1.20647
1.20446
1.2026
1.20092
1.19932
1.19786
1.19643
1.1951
1.19378
1.19259
1.19141
1.19034
1.18928
1.18833
1.18739
1.18656
1.18577
1.1851
1.18446
1.18393
1.18343
1.18304
1.18267
1.18241
1.18216
1.182
1.18184
1.18174
1.18162
1.18156
1.18147
1.18141
1.18134
1.18129
1.18121
1.18116
1.18109
1.18104
1.18097
1.18092
1.18084
1.18079
1.18072
1.18066
1.18059
1.18054
1.18047
1.18041
1.18034
1.18028
1.18021
1.18016
1.18009
1.18003
1.17996
1.1799
1.17983
1.17977
1.1797
1.17964
1.17957
1.17951
1.17944
1.17938
1.17931
1.17925
1.17918
1.17911
1.17905
1.17898
1.17891
1.17885
1.17878
1.17872
1.17865
1.17858
1.17851
1.17845
1.17838
1.17831
1.17824
1.17817
1.17811
1.17801
1.17793
1.23063
1.22579
1.22219
1.2193
1.2169
1.21471
1.21275
1.21087
1.20918
1.20756
1.20611
1.20467
1.20335
1.20202
1.20081
1.19961
1.19853
1.19745
1.19648
1.19552
1.19467
1.19385
1.19314
1.19247
1.1919
1.19137
1.19095
1.19055
1.19025
1.18997
1.18978
1.18959
1.18948
1.18935
1.18928
1.18918
1.18912
1.18904
1.18899
1.18892
1.18887
1.18879
1.18874
1.18867
1.18862
1.18855
1.18849
1.18842
1.18837
1.1883
1.18824
1.18817
1.18811
1.18804
1.18799
1.18791
1.18786
1.18779
1.18773
1.18766
1.1876
1.18753
1.18747
1.1874
1.18734
1.18727
1.18721
1.18714
1.18708
1.18701
1.18694
1.18687
1.18681
1.18674
1.18668
1.18661
1.18655
1.18648
1.18641
1.18635
1.18628
1.18621
1.18615
1.18608
1.18601
1.18594
1.18587
1.18581
1.18572
1.18564
1.23243
1.22995
1.22729
1.22492
1.22284
1.22093
1.21916
1.21741
1.2158
1.21424
1.21284
1.21147
1.2102
1.20891
1.20772
1.20654
1.20548
1.20442
1.20346
1.2025
1.20165
1.2008
1.20007
1.19937
1.19878
1.19821
1.19775
1.19731
1.19697
1.19665
1.19642
1.19621
1.19606
1.19592
1.19583
1.19573
1.19567
1.19558
1.19553
1.19545
1.1954
1.19533
1.19528
1.19521
1.19515
1.19508
1.19503
1.19496
1.1949
1.19483
1.19477
1.1947
1.19465
1.19458
1.19452
1.19445
1.19439
1.19432
1.19426
1.19419
1.19413
1.19406
1.194
1.19393
1.19387
1.1938
1.19374
1.19367
1.19361
1.19354
1.19347
1.1934
1.19334
1.19327
1.19321
1.19314
1.19307
1.193
1.19294
1.19287
1.1928
1.19274
1.19267
1.1926
1.19253
1.19246
1.19239
1.19232
1.19225
1.19217
1.23377
1.23277
1.23126
1.2296
1.22808
1.2266
1.22518
1.22368
1.22225
1.22082
1.21956
1.21831
1.21717
1.21598
1.21487
1.21375
1.21274
1.21174
1.21085
1.20993
1.20911
1.20828
1.20756
1.20686
1.20627
1.2057
1.20522
1.20476
1.20439
1.20405
1.20379
1.20355
1.20339
1.20323
1.20313
1.20302
1.20295
1.20286
1.2028
1.20272
1.20267
1.2026
1.20255
1.20247
1.20242
1.20235
1.20229
1.20222
1.20217
1.2021
1.20204
1.20197
1.20191
1.20184
1.20178
1.20171
1.20165
1.20158
1.20152
1.20145
1.20139
1.20132
1.20126
1.20119
1.20113
1.20106
1.201
1.20093
1.20086
1.20079
1.20073
1.20066
1.2006
1.20053
1.20046
1.20039
1.20033
1.20026
1.2002
1.20013
1.20006
1.19999
1.19992
1.19986
1.19979
1.19972
1.19965
1.19958
1.19951
1.19943
1.23321
1.23294
1.23214
1.23116
1.2302
1.22922
1.2282
1.22705
1.22589
1.22471
1.22365
1.22261
1.22164
1.22061
1.21965
1.21866
1.21778
1.2169
1.21611
1.21529
1.21455
1.2138
1.21315
1.2125
1.21195
1.21142
1.21097
1.21053
1.21017
1.20983
1.20957
1.20933
1.20916
1.209
1.20889
1.20878
1.20871
1.20862
1.20856
1.20848
1.20843
1.20835
1.2083
1.20823
1.20818
1.2081
1.20805
1.20798
1.20792
1.20785
1.20779
1.20772
1.20766
1.20759
1.20753
1.20746
1.2074
1.20733
1.20727
1.2072
1.20714
1.20707
1.20701
1.20694
1.20688
1.2068
1.20674
1.20667
1.20661
1.20654
1.20648
1.20641
1.20634
1.20627
1.20621
1.20614
1.20607
1.206
1.20594
1.20587
1.2058
1.20573
1.20566
1.20559
1.20552
1.20545
1.20538
1.20531
1.20525
1.20517
1.23379
1.23365
1.23324
1.23267
1.23214
1.23153
1.23087
1.23002
1.22916
1.22824
1.22743
1.22661
1.22586
1.22503
1.22425
1.22344
1.22273
1.22201
1.22137
1.22069
1.22008
1.21945
1.2189
1.21835
1.2179
1.21744
1.21705
1.21667
1.21636
1.21605
1.21582
1.2156
1.21545
1.2153
1.2152
1.21509
1.21502
1.21493
1.21488
1.2148
1.21474
1.21467
1.21462
1.21454
1.21449
1.21441
1.21436
1.21428
1.21423
1.21416
1.2141
1.21403
1.21397
1.2139
1.21384
1.21377
1.21371
1.21363
1.21357
1.2135
1.21344
1.21337
1.21331
1.21324
1.21318
1.2131
1.21304
1.21297
1.21291
1.21284
1.21277
1.2127
1.21264
1.21257
1.2125
1.21243
1.21237
1.2123
1.21223
1.21216
1.21209
1.21202
1.21195
1.21189
1.21182
1.21175
1.21168
1.21161
1.21154
1.21146
1.23301
1.23295
1.2327
1.23242
1.23215
1.23181
1.23139
1.23082
1.23024
1.22961
1.22907
1.22849
1.22795
1.22735
1.22679
1.2262
1.22569
1.22516
1.22469
1.22419
1.22374
1.22327
1.22287
1.22245
1.22211
1.22176
1.22147
1.22117
1.22093
1.22069
1.22051
1.22033
1.22021
1.22008
1.22
1.2199
1.21983
1.21975
1.21969
1.21962
1.21956
1.21949
1.21943
1.21936
1.21931
1.21923
1.21918
1.2191
1.21904
1.21897
1.21891
1.21884
1.21878
1.21871
1.21865
1.21858
1.21852
1.21844
1.21838
1.21831
1.21825
1.21818
1.21811
1.21804
1.21798
1.21791
1.21784
1.21777
1.21771
1.21764
1.21757
1.2175
1.21744
1.21736
1.2173
1.21723
1.21716
1.21709
1.21702
1.21695
1.21688
1.21681
1.21674
1.21667
1.2166
1.21653
1.21646
1.21639
1.21632
1.21625
1.23358
1.23349
1.23337
1.2332
1.23308
1.23286
1.23262
1.23226
1.23192
1.23153
1.23122
1.23085
1.23053
1.23014
1.22981
1.22943
1.22913
1.22878
1.2285
1.22817
1.22789
1.22758
1.22734
1.22706
1.22685
1.22661
1.22643
1.22622
1.22606
1.22589
1.22577
1.22563
1.22555
1.22544
1.22537
1.22528
1.22522
1.22514
1.22509
1.22501
1.22496
1.22488
1.22482
1.22475
1.22469
1.22462
1.22456
1.22449
1.22443
1.22435
1.22429
1.22422
1.22416
1.22409
1.22403
1.22395
1.22389
1.22382
1.22376
1.22368
1.22362
1.22355
1.22348
1.22341
1.22335
1.22327
1.22321
1.22314
1.22307
1.223
1.22293
1.22286
1.2228
1.22272
1.22266
1.22258
1.22252
1.22245
1.22238
1.22231
1.22224
1.22217
1.2221
1.22203
1.22195
1.22188
1.22181
1.22174
1.22167
1.2216
1.23302
1.23298
1.23291
1.23284
1.23278
1.23267
1.23257
1.2324
1.23228
1.23211
1.23199
1.23182
1.2317
1.23151
1.23139
1.23121
1.23109
1.23093
1.23081
1.23065
1.23053
1.23038
1.23027
1.23013
1.23003
1.2299
1.22981
1.22969
1.22961
1.2295
1.22943
1.22933
1.22927
1.22918
1.22913
1.22905
1.22899
1.22891
1.22886
1.22878
1.22873
1.22865
1.22859
1.22852
1.22846
1.22838
1.22833
1.22825
1.22819
1.22812
1.22806
1.22798
1.22792
1.22785
1.22778
1.22771
1.22765
1.22757
1.22751
1.22743
1.22737
1.2273
1.22723
1.22716
1.22709
1.22702
1.22695
1.22688
1.22681
1.22674
1.22667
1.2266
1.22653
1.22646
1.22639
1.22632
1.22625
1.22618
1.22611
1.22603
1.22596
1.22589
1.22582
1.22575
1.22568
1.2256
1.22553
1.22546
1.22539
1.22531
1.22362
1.21594
1.21164
1.20852
1.20593
1.20364
1.20159
1.1997
1.198
1.1964
1.19492
1.19347
1.19213
1.19082
1.18962
1.18844
1.18737
1.1863
1.18534
1.18441
1.18359
1.1828
1.18213
1.18149
1.18097
1.18048
1.1801
1.17974
1.17949
1.17925
1.17909
1.17894
1.17884
1.17873
1.17867
1.17858
1.17853
1.17845
1.1784
1.17833
1.17828
1.17821
1.17816
1.17809
1.17803
1.17796
1.17791
1.17784
1.17778
1.17771
1.17766
1.17759
1.17753
1.17746
1.1774
1.17733
1.17728
1.17721
1.17715
1.17708
1.17702
1.17695
1.17689
1.17682
1.17676
1.17669
1.17663
1.17656
1.1765
1.17643
1.17637
1.1763
1.17624
1.17617
1.1761
1.17604
1.17597
1.1759
1.17584
1.17577
1.17571
1.17564
1.17557
1.1755
1.17544
1.17537
1.1753
1.17524
1.17514
1.17506
1.23119
1.22617
1.22228
1.21923
1.2167
1.21444
1.2124
1.21048
1.20875
1.20711
1.20562
1.20416
1.20281
1.20147
1.20024
1.19902
1.19793
1.19683
1.19585
1.19487
1.19401
1.19317
1.19245
1.19177
1.1912
1.19066
1.19022
1.18982
1.18952
1.18924
1.18904
1.18886
1.18874
1.18861
1.18854
1.18844
1.18839
1.18831
1.18826
1.18818
1.18813
1.18806
1.18801
1.18793
1.18788
1.18781
1.18776
1.18769
1.18763
1.18756
1.18751
1.18743
1.18738
1.18731
1.18725
1.18718
1.18712
1.18705
1.18699
1.18692
1.18686
1.18679
1.18673
1.18666
1.1866
1.18653
1.18647
1.1864
1.18634
1.18627
1.18621
1.18614
1.18608
1.18601
1.18594
1.18588
1.18581
1.18574
1.18568
1.18561
1.18554
1.18548
1.18541
1.18534
1.18527
1.18521
1.18514
1.18507
1.18499
1.1849
1.23312
1.23103
1.2285
1.2261
1.22398
1.22202
1.2202
1.21841
1.21674
1.21514
1.2137
1.2123
1.211
1.20969
1.20847
1.20726
1.20616
1.20508
1.2041
1.20312
1.20223
1.20136
1.20061
1.19988
1.19927
1.19868
1.1982
1.19774
1.19739
1.19705
1.19681
1.19659
1.19644
1.19629
1.1962
1.19609
1.19603
1.19594
1.19589
1.19581
1.19576
1.19569
1.19564
1.19556
1.19551
1.19544
1.19539
1.19532
1.19526
1.19519
1.19513
1.19506
1.19501
1.19494
1.19488
1.19481
1.19475
1.19468
1.19462
1.19455
1.19449
1.19442
1.19436
1.19429
1.19423
1.19416
1.1941
1.19403
1.19397
1.1939
1.19383
1.19376
1.1937
1.19363
1.19357
1.1935
1.19343
1.19336
1.1933
1.19323
1.19316
1.1931
1.19303
1.19296
1.19289
1.19282
1.19275
1.19269
1.19261
1.19253
1.23357
1.2329
1.23164
1.23014
1.22869
1.22726
1.22586
1.22436
1.2229
1.22145
1.22015
1.21889
1.21772
1.21651
1.21537
1.21422
1.21319
1.21216
1.21124
1.2103
1.20944
1.20859
1.20784
1.20711
1.20649
1.20589
1.20539
1.20491
1.20452
1.20415
1.20387
1.20362
1.20344
1.20327
1.20316
1.20305
1.20297
1.20288
1.20283
1.20275
1.2027
1.20262
1.20257
1.2025
1.20245
1.20237
1.20232
1.20225
1.20219
1.20212
1.20206
1.20199
1.20194
1.20186
1.20181
1.20174
1.20168
1.20161
1.20155
1.20148
1.20142
1.20135
1.20129
1.20122
1.20115
1.20108
1.20102
1.20095
1.20089
1.20082
1.20076
1.20069
1.20062
1.20055
1.20049
1.20042
1.20035
1.20029
1.20022
1.20015
1.20008
1.20002
1.19995
1.19988
1.19981
1.19974
1.19967
1.19961
1.19954
1.19946
1.23344
1.23326
1.23267
1.23185
1.23102
1.23014
1.2292
1.22809
1.22694
1.22574
1.22467
1.22361
1.22264
1.2216
1.22061
1.2196
1.21869
1.21778
1.21697
1.21613
1.21537
1.21459
1.2139
1.21322
1.21265
1.21209
1.21161
1.21115
1.21077
1.2104
1.21012
1.20986
1.20967
1.2095
1.20939
1.20927
1.20919
1.2091
1.20904
1.20896
1.20891
1.20883
1.20878
1.20871
1.20866
1.20858
1.20853
1.20846
1.2084
1.20833
1.20827
1.2082
1.20814
1.20807
1.20801
1.20794
1.20788
1.20781
1.20775
1.20768
1.20762
1.20755
1.20749
1.20742
1.20736
1.20729
1.20722
1.20715
1.20709
1.20702
1.20696
1.20689
1.20682
1.20675
1.20669
1.20662
1.20655
1.20648
1.20642
1.20635
1.20628
1.20621
1.20614
1.20607
1.20601
1.20594
1.20587
1.2058
1.20573
1.20566
1.23349
1.23335
1.23302
1.23258
1.23216
1.23167
1.23109
1.23031
1.22947
1.22857
1.22776
1.22695
1.22619
1.22536
1.22457
1.22374
1.22301
1.22227
1.22161
1.22092
1.22029
1.21964
1.21907
1.2185
1.21802
1.21754
1.21714
1.21673
1.2164
1.21608
1.21583
1.2156
1.21543
1.21527
1.21516
1.21505
1.21498
1.21489
1.21483
1.21475
1.2147
1.21462
1.21457
1.2145
1.21444
1.21437
1.21431
1.21424
1.21419
1.21411
1.21406
1.21398
1.21393
1.21385
1.2138
1.21372
1.21366
1.21359
1.21353
1.21346
1.2134
1.21333
1.21327
1.2132
1.21313
1.21306
1.213
1.21293
1.21287
1.21279
1.21273
1.21266
1.2126
1.21253
1.21246
1.21239
1.21232
1.21225
1.21219
1.21212
1.21205
1.21198
1.21191
1.21184
1.21178
1.21171
1.21164
1.21157
1.2115
1.21143
1.23326
1.23314
1.23293
1.23271
1.23252
1.23225
1.2319
1.23136
1.2308
1.23018
1.22964
1.22907
1.22853
1.22792
1.22735
1.22674
1.22622
1.22567
1.2252
1.22468
1.22421
1.22372
1.2233
1.22288
1.22252
1.22215
1.22185
1.22154
1.22129
1.22103
1.22084
1.22065
1.22052
1.22039
1.2203
1.2202
1.22013
1.22005
1.21999
1.21992
1.21986
1.21979
1.21973
1.21966
1.2196
1.21953
1.21948
1.2194
1.21935
1.21927
1.21921
1.21914
1.21908
1.21901
1.21895
1.21888
1.21882
1.21875
1.21869
1.21861
1.21855
1.21848
1.21842
1.21835
1.21828
1.21821
1.21815
1.21808
1.21801
1.21794
1.21788
1.21781
1.21774
1.21767
1.2176
1.21753
1.21747
1.2174
1.21733
1.21726
1.21719
1.21712
1.21705
1.21698
1.21691
1.21684
1.21677
1.2167
1.21664
1.21657
1.23328
1.23318
1.23306
1.23295
1.23286
1.23268
1.23246
1.23211
1.23178
1.23141
1.2311
1.23073
1.2304
1.23
1.22965
1.22927
1.22896
1.2286
1.22831
1.22796
1.22768
1.22735
1.2271
1.22681
1.22659
1.22634
1.22615
1.22593
1.22577
1.22559
1.22546
1.22532
1.22523
1.22512
1.22506
1.22496
1.22491
1.22483
1.22477
1.22469
1.22464
1.22456
1.22451
1.22443
1.22438
1.2243
1.22425
1.22417
1.22412
1.22404
1.22398
1.22391
1.22385
1.22378
1.22372
1.22364
1.22358
1.22351
1.22345
1.22337
1.22331
1.22324
1.22318
1.2231
1.22304
1.22297
1.2229
1.22283
1.22277
1.22269
1.22263
1.22256
1.22249
1.22242
1.22235
1.22228
1.22221
1.22214
1.22207
1.222
1.22194
1.22186
1.2218
1.22172
1.22165
1.22158
1.22151
1.22144
1.22138
1.22131
1.2333
1.23326
1.2332
1.23313
1.23308
1.23298
1.23288
1.23271
1.23259
1.23241
1.2323
1.23212
1.23199
1.2318
1.23167
1.23149
1.23136
1.23119
1.23107
1.2309
1.23078
1.23062
1.23051
1.23036
1.23026
1.23013
1.23003
1.22991
1.22983
1.22971
1.22964
1.22955
1.22949
1.2294
1.22934
1.22926
1.22921
1.22913
1.22907
1.22899
1.22894
1.22886
1.22881
1.22873
1.22867
1.2286
1.22854
1.22846
1.22841
1.22833
1.22827
1.2282
1.22814
1.22806
1.228
1.22792
1.22786
1.22779
1.22772
1.22765
1.22759
1.22751
1.22745
1.22737
1.22731
1.22724
1.22717
1.2271
1.22703
1.22696
1.22689
1.22682
1.22675
1.22668
1.22661
1.22653
1.22647
1.22639
1.22632
1.22625
1.22618
1.22611
1.22604
1.22597
1.2259
1.22582
1.22575
1.22568
1.22561
1.22554
1.22453
1.21809
1.21416
1.21119
1.20869
1.20647
1.20446
1.2026
1.20092
1.19932
1.19786
1.19643
1.1951
1.19378
1.19259
1.19141
1.19034
1.18928
1.18833
1.18739
1.18656
1.18577
1.1851
1.18446
1.18393
1.18343
1.18304
1.18267
1.18241
1.18216
1.182
1.18184
1.18174
1.18162
1.18156
1.18147
1.18141
1.18134
1.18129
1.18121
1.18116
1.18109
1.18104
1.18097
1.18092
1.18084
1.18079
1.18072
1.18066
1.18059
1.18054
1.18047
1.18041
1.18034
1.18028
1.18021
1.18016
1.18009
1.18003
1.17996
1.1799
1.17983
1.17977
1.1797
1.17964
1.17957
1.17951
1.17944
1.17938
1.17931
1.17925
1.17918
1.17911
1.17905
1.17898
1.17891
1.17885
1.17878
1.17872
1.17865
1.17858
1.17851
1.17845
1.17838
1.17831
1.17824
1.17817
1.17811
1.17801
1.17793
1.23063
1.22579
1.22219
1.2193
1.2169
1.21471
1.21275
1.21087
1.20918
1.20756
1.20611
1.20467
1.20335
1.20202
1.20081
1.19961
1.19853
1.19745
1.19648
1.19552
1.19467
1.19385
1.19314
1.19247
1.1919
1.19137
1.19095
1.19055
1.19025
1.18997
1.18978
1.18959
1.18948
1.18935
1.18928
1.18918
1.18912
1.18904
1.18899
1.18892
1.18887
1.18879
1.18874
1.18867
1.18862
1.18855
1.18849
1.18842
1.18837
1.1883
1.18824
1.18817
1.18811
1.18804
1.18799
1.18791
1.18786
1.18779
1.18773
1.18766
1.1876
1.18753
1.18747
1.1874
1.18734
1.18727
1.18721
1.18714
1.18708
1.18701
1.18694
1.18687
1.18681
1.18674
1.18668
1.18661
1.18655
1.18648
1.18641
1.18635
1.18628
1.18621
1.18615
1.18608
1.18601
1.18594
1.18587
1.18581
1.18572
1.18564
1.23243
1.22995
1.22729
1.22492
1.22284
1.22093
1.21916
1.21741
1.2158
1.21424
1.21284
1.21147
1.2102
1.20891
1.20772
1.20654
1.20548
1.20442
1.20346
1.2025
1.20165
1.2008
1.20007
1.19937
1.19878
1.19821
1.19775
1.19731
1.19697
1.19665
1.19642
1.19621
1.19606
1.19592
1.19583
1.19573
1.19567
1.19558
1.19553
1.19545
1.1954
1.19533
1.19528
1.19521
1.19515
1.19508
1.19503
1.19496
1.1949
1.19483
1.19477
1.1947
1.19465
1.19458
1.19452
1.19445
1.19439
1.19432
1.19426
1.19419
1.19413
1.19406
1.194
1.19393
1.19387
1.1938
1.19374
1.19367
1.19361
1.19354
1.19347
1.1934
1.19334
1.19327
1.19321
1.19314
1.19307
1.193
1.19294
1.19287
1.1928
1.19274
1.19267
1.1926
1.19253
1.19246
1.19239
1.19232
1.19225
1.19217
1.23377
1.23277
1.23126
1.2296
1.22808
1.2266
1.22518
1.22368
1.22225
1.22082
1.21956
1.21831
1.21717
1.21598
1.21487
1.21375
1.21274
1.21174
1.21085
1.20993
1.20911
1.20828
1.20756
1.20686
1.20627
1.2057
1.20522
1.20476
1.20439
1.20405
1.20379
1.20355
1.20339
1.20323
1.20313
1.20302
1.20295
1.20286
1.2028
1.20272
1.20267
1.2026
1.20255
1.20247
1.20242
1.20235
1.20229
1.20222
1.20217
1.2021
1.20204
1.20197
1.20191
1.20184
1.20178
1.20171
1.20165
1.20158
1.20152
1.20145
1.20139
1.20132
1.20126
1.20119
1.20113
1.20106
1.201
1.20093
1.20086
1.20079
1.20073
1.20066
1.2006
1.20053
1.20046
1.20039
1.20033
1.20026
1.2002
1.20013
1.20006
1.19999
1.19992
1.19986
1.19979
1.19972
1.19965
1.19958
1.19951
1.19943
1.23321
1.23294
1.23214
1.23116
1.2302
1.22922
1.2282
1.22705
1.22589
1.22471
1.22365
1.22261
1.22164
1.22061
1.21965
1.21866
1.21778
1.2169
1.21611
1.21529
1.21455
1.2138
1.21315
1.2125
1.21195
1.21142
1.21097