/*--------------------------------*- C++ -*----------------------------------*\
  =========                 |
  \\      /  F ield         | OpenFOAM: The Open Source CFD Toolbox
   \\    /   O peration     | Website:  https://openfoam.org
    \\  /    A nd           | Version:  7
     \\/     M anipulation  |
\*---------------------------------------------------------------------------*/
FoamFile
{
    version     2.0;
    format      ascii;
    class       volScalarField;
    location    "0.2825";
    object      T;
}
// * * * * * * * * * * * * * * * * * * * * * * * * * * * * * * * * * * * * * //

dimensions      [0 0 0 1 0 0 0];

internalField   nonuniform List<scalar> 
1600
(
300.624
301.916
303.119
304.214
305.211
306.12
306.948
307.701
308.384
309.001
309.557
310.054
310.495
310.886
311.228
311.527
311.785
312.006
312.192
312.347
312.474
312.573
312.648
312.699
312.728
312.735
312.721
312.684
312.623
312.535
312.416
312.26
312.057
311.792
311.449
311.004
310.429
309.652
308.499
306.888
300.281
301.143
302.127
303.121
304.072
304.959
305.777
306.525
307.205
307.82
308.374
308.87
309.31
309.7
310.042
310.339
310.597
310.817
311.003
311.158
311.284
311.384
311.46
311.512
311.542
311.551
311.538
311.504
311.447
311.363
311.251
311.103
310.91
310.663
310.345
309.941
309.437
308.816
308.055
307.267
300.142
300.696
301.431
302.259
303.109
303.936
304.717
305.442
306.108
306.713
307.261
307.752
308.189
308.576
308.916
309.212
309.468
309.687
309.873
310.029
310.156
310.257
310.334
310.388
310.421
310.433
310.425
310.395
310.344
310.269
310.167
310.034
309.862
309.644
309.368
309.028
308.621
308.161
307.686
307.31
300.077
300.426
300.959
301.617
302.338
303.072
303.789
304.469
305.104
305.689
306.222
306.704
307.134
307.516
307.852
308.145
308.4
308.618
308.804
308.96
309.088
309.191
309.271
309.328
309.365
309.382
309.379
309.357
309.315
309.251
309.163
309.048
308.902
308.719
308.493
308.221
307.909
307.577
307.268
307.061
300.045
300.276
300.658
301.161
301.744
302.367
302.998
303.616
304.206
304.758
305.267
305.732
306.15
306.523
306.853
307.143
307.395
307.612
307.797
307.954
308.084
308.189
308.272
308.333
308.375
308.398
308.402
308.388
308.356
308.304
308.232
308.138
308.018
307.871
307.693
307.485
307.253
307.017
306.809
306.679
300.031
300.188
300.459
300.834
301.29
301.801
302.34
302.884
303.417
303.925
304.402
304.842
305.243
305.604
305.924
306.207
306.455
306.669
306.854
307.011
307.142
307.25
307.336
307.402
307.449
307.479
307.49
307.486
307.464
307.426
307.37
307.296
307.202
307.087
306.951
306.796
306.628
306.46
306.318
306.231
300.02
300.126
300.316
300.591
300.942
301.353
301.801
302.269
302.737
303.195
303.632
304.041
304.418
304.761
305.069
305.342
305.583
305.794
305.976
306.132
306.265
306.375
306.465
306.535
306.588
306.624
306.643
306.648
306.637
306.611
306.571
306.515
306.444
306.358
306.256
306.142
306.021
305.903
305.804
305.744
300.014
300.085
300.215
300.414
300.68
301.004
301.37
301.761
302.164
302.566
302.957
303.33
303.678
303.999
304.29
304.55
304.782
304.986
305.165
305.319
305.452
305.564
305.657
305.731
305.789
305.831
305.859
305.872
305.871
305.857
305.831
305.792
305.74
305.677
305.603
305.521
305.434
305.35
305.28
305.237
300.009
300.056
300.146
300.289
300.488
300.739
301.031
301.352
301.69
302.034
302.377
302.709
303.025
303.319
303.589
303.834
304.053
304.249
304.421
304.572
304.704
304.816
304.911
304.989
305.052
305.1
305.134
305.155
305.163
305.16
305.146
305.121
305.086
305.042
304.989
304.93
304.869
304.809
304.759
304.728
300.006
300.038
300.1
300.203
300.35
300.541
300.769
301.026
301.303
301.593
301.886
302.177
302.456
302.721
302.967
303.193
303.397
303.582
303.746
303.892
304.02
304.131
304.227
304.308
304.374
304.427
304.466
304.494
304.511
304.517
304.513
304.5
304.479
304.45
304.414
304.373
304.33
304.288
304.252
304.229
300.004
300.026
300.069
300.142
300.25
300.393
300.568
300.771
300.994
301.233
301.479
301.727
301.97
302.203
302.423
302.627
302.815
302.985
303.139
303.278
303.401
303.509
303.604
303.686
303.754
303.811
303.855
303.889
303.912
303.926
303.931
303.928
303.917
303.9
303.877
303.85
303.821
303.792
303.766
303.749
300.003
300.018
300.048
300.1
300.178
300.284
300.417
300.573
300.75
300.943
301.146
301.354
301.56
301.762
301.954
302.135
302.303
302.458
302.6
302.729
302.845
302.95
303.042
303.122
303.192
303.25
303.298
303.336
303.365
303.385
303.397
303.402
303.4
303.392
303.38
303.363
303.345
303.325
303.308
303.296
300.002
300.013
300.034
300.071
300.127
300.204
300.303
300.423
300.561
300.714
300.878
301.048
301.221
301.391
301.555
301.713
301.861
301.999
302.127
302.245
302.353
302.451
302.539
302.617
302.686
302.745
302.795
302.836
302.868
302.893
302.91
302.921
302.926
302.926
302.921
302.913
302.903
302.891
302.88
302.872
300.001
300.009
300.024
300.05
300.09
300.146
300.22
300.31
300.416
300.535
300.665
300.802
300.943
301.084
301.222
301.356
301.484
301.605
301.718
301.824
301.922
302.012
302.094
302.168
302.234
302.292
302.343
302.385
302.42
302.448
302.469
302.485
302.495
302.5
302.502
302.5
302.496
302.49
302.484
302.479
300.001
300.006
300.017
300.035
300.063
300.104
300.158
300.225
300.305
300.397
300.499
300.607
300.719
300.834
300.948
301.059
301.168
301.271
301.37
301.462
301.549
301.63
301.705
301.774
301.836
301.892
301.941
301.984
302.02
302.05
302.073
302.092
302.106
302.115
302.121
302.124
302.125
302.124
302.122
302.12
300.001
300.004
300.012
300.024
300.045
300.074
300.113
300.162
300.222
300.292
300.369
300.453
300.542
300.633
300.725
300.816
300.906
300.993
301.077
301.156
301.232
301.303
301.37
301.432
301.49
301.542
301.589
301.63
301.666
301.696
301.721
301.742
301.758
301.77
301.779
301.785
301.79
301.792
301.793
301.794
300
300.003
300.008
300.017
300.031
300.052
300.08
300.116
300.16
300.212
300.27
300.334
300.403
300.474
300.547
300.621
300.694
300.765
300.835
300.902
300.966
301.027
301.086
301.141
301.192
301.24
301.283
301.322
301.356
301.386
301.411
301.432
301.45
301.464
301.475
301.483
301.49
301.495
301.499
301.501
300
300.002
300.006
300.012
300.022
300.036
300.056
300.082
300.114
300.152
300.196
300.243
300.295
300.35
300.407
300.465
300.523
300.581
300.638
300.693
300.747
300.798
300.848
300.895
300.94
300.982
301.021
301.057
301.089
301.117
301.142
301.163
301.18
301.195
301.207
301.217
301.225
301.232
301.238
301.241
300
300.001
300.004
300.008
300.015
300.025
300.039
300.058
300.081
300.108
300.14
300.175
300.214
300.255
300.299
300.344
300.39
300.435
300.48
300.525
300.568
300.611
300.652
300.692
300.731
300.767
300.801
300.833
300.862
300.888
300.911
300.931
300.948
300.963
300.975
300.986
300.995
301.002
301.009
301.014
300
300.001
300.003
300.006
300.01
300.017
300.027
300.04
300.056
300.076
300.099
300.124
300.153
300.184
300.217
300.251
300.286
300.321
300.356
300.391
300.426
300.46
300.494
300.527
300.559
300.589
300.619
300.646
300.671
300.694
300.715
300.734
300.75
300.764
300.776
300.787
300.796
300.804
300.811
300.816
300
300.001
300.002
300.004
300.007
300.012
300.019
300.028
300.039
300.053
300.069
300.087
300.108
300.131
300.155
300.18
300.206
300.233
300.26
300.287
300.314
300.341
300.368
300.394
300.42
300.445
300.47
300.493
300.514
300.535
300.553
300.569
300.584
300.597
300.608
300.618
300.627
300.635
300.642
300.648
300
300.001
300.001
300.003
300.005
300.008
300.013
300.019
300.027
300.036
300.047
300.06
300.075
300.091
300.109
300.128
300.147
300.167
300.187
300.207
300.228
300.249
300.269
300.29
300.311
300.331
300.35
300.369
300.387
300.404
300.42
300.434
300.447
300.459
300.469
300.478
300.486
300.494
300.5
300.506
300
300
300.001
300.002
300.003
300.005
300.009
300.013
300.018
300.024
300.032
300.041
300.052
300.063
300.076
300.089
300.103
300.117
300.132
300.147
300.162
300.178
300.194
300.209
300.225
300.241
300.257
300.272
300.286
300.3
300.313
300.325
300.336
300.346
300.355
300.363
300.37
300.377
300.384
300.389
300
300
300.001
300.001
300.002
300.004
300.006
300.008
300.012
300.016
300.022
300.028
300.035
300.043
300.052
300.061
300.071
300.081
300.092
300.103
300.114
300.125
300.136
300.148
300.16
300.172
300.184
300.196
300.208
300.219
300.229
300.239
300.248
300.256
300.264
300.271
300.277
300.283
300.289
300.294
300
300
300
300.001
300.001
300.002
300.004
300.006
300.008
300.011
300.015
300.019
300.024
300.029
300.035
300.041
300.048
300.055
300.062
300.07
300.078
300.086
300.094
300.103
300.112
300.121
300.13
300.139
300.147
300.156
300.164
300.172
300.179
300.186
300.192
300.198
300.203
300.208
300.213
300.218
300
300
300
300.001
300.001
300.002
300.003
300.004
300.005
300.007
300.01
300.012
300.016
300.019
300.023
300.027
300.032
300.037
300.042
300.047
300.052
300.058
300.064
300.07
300.076
300.083
300.089
300.096
300.102
300.109
300.115
300.121
300.127
300.132
300.137
300.142
300.146
300.15
300.155
300.158
300
300
300
300
300.001
300.001
300.002
300.002
300.004
300.005
300.006
300.008
300.01
300.012
300.015
300.018
300.021
300.024
300.027
300.031
300.034
300.038
300.042
300.046
300.051
300.055
300.06
300.065
300.069
300.074
300.079
300.083
300.088
300.092
300.096
300.099
300.103
300.106
300.11
300.113
300
300
300
300
300
300.001
300.001
300.002
300.002
300.003
300.004
300.005
300.007
300.008
300.01
300.011
300.013
300.015
300.017
300.02
300.022
300.024
300.027
300.03
300.033
300.036
300.039
300.043
300.046
300.049
300.053
300.056
300.059
300.062
300.065
300.068
300.071
300.074
300.076
300.079
300
300
300
300
300
300.001
300.001
300.001
300.001
300.002
300.003
300.003
300.004
300.005
300.006
300.007
300.008
300.009
300.011
300.012
300.014
300.015
300.017
300.019
300.021
300.023
300.025
300.027
300.03
300.032
300.034
300.037
300.039
300.041
300.044
300.046
300.048
300.05
300.052
300.054
300
300
300
300
300
300
300.001
300.001
300.001
300.001
300.002
300.002
300.003
300.003
300.004
300.004
300.005
300.006
300.007
300.007
300.008
300.009
300.01
300.012
300.013
300.014
300.016
300.017
300.019
300.02
300.022
300.024
300.025
300.027
300.029
300.03
300.032
300.033
300.035
300.037
300
300
300
300
300
300
300
300
300.001
300.001
300.001
300.001
300.002
300.002
300.002
300.003
300.003
300.003
300.004
300.004
300.005
300.006
300.006
300.007
300.008
300.009
300.01
300.011
300.012
300.013
300.014
300.015
300.016
300.017
300.018
300.02
300.021
300.022
300.023
300.024
300
300
300
300
300
300
300
300
300
300.001
300.001
300.001
300.001
300.001
300.001
300.002
300.002
300.002
300.002
300.003
300.003
300.003
300.004
300.004
300.005
300.005
300.006
300.006
300.007
300.008
300.009
300.009
300.01
300.011
300.012
300.013
300.013
300.014
300.015
300.016
300
300
300
300
300
300
300
300
300
300
300
300
300.001
300.001
300.001
300.001
300.001
300.001
300.001
300.002
300.002
300.002
300.002
300.002
300.003
300.003
300.004
300.004
300.004
300.005
300.005
300.006
300.006
300.007
300.007
300.008
300.009
300.009
300.01
300.011
300
300
300
300
300
300
300
300
300
300
300
300
300
300
300
300.001
300.001
300.001
300.001
300.001
300.001
300.001
300.001
300.002
300.002
300.002
300.002
300.002
300.003
300.003
300.003
300.004
300.004
300.004
300.005
300.005
300.006
300.006
300.007
300.007
300
300
300
300
300
300
300
300
300
300
300
300
300
300
300
300
300
300
300.001
300.001
300.001
300.001
300.001
300.001
300.001
300.001
300.001
300.002
300.002
300.002
300.002
300.002
300.003
300.003
300.003
300.003
300.004
300.004
300.004
300.005
300
300
300
300
300
300
300
300
300
300
300
300
300
300
300
300
300
300
300
300
300
300.001
300.001
300.001
300.001
300.001
300.001
300.001
300.001
300.001
300.001
300.002
300.002
300.002
300.002
300.002
300.003
300.003
300.003
300.003
300
300
300
300
300
300
300
300
300
300
300
300
300
300
300
300
300
300
300
300
300
300
300
300.001
300.001
300.001
300.001
300.001
300.001
300.001
300.001
300.001
300.001
300.001
300.002
300.002
300.002
300.002
300.002
300.002
300
300
300
300
300
300
300
300
300
300
300
300
300
300
300
300
300
300
300
300
300
300
300
300
300
300.001
300.001
300.001
300.001
300.001
300.001
300.001
300.001
300.001
300.001
300.001
300.001
300.001
300.002
300.002
300
300
300
300
300
300
300
300
300
300
300
300
300
300
300
300
300
300
300
300
300
300
300
300
300
300
300
300.001
300.001
300.001
300.001
300.001
300.001
300.001
300.001
300.001
300.001
300.001
300.001
300.001
300
300
300
300
300
300
300
300
300
300
300
300
300
300
300
300
300
300
300
300
300
300
300
300
300
300
300
300
300
300
300
300
300
300
300
300
300
300.001
300.001
300.001
)
;

boundaryField
{
    upperWall
    {
        type            fixedValue;
        value           uniform 300;
    }
    lowerWall
    {
        type            fixedGradient;
        gradient        uniform 5000;
    }
    inlet
    {
        type            fixedValue;
        value           uniform 300;
    }
    outlet
    {
        type            inletOutlet;
        inletValue      uniform 300;
        value           nonuniform List<scalar> 
40
(
306.888
307.267
307.31
307.061
306.679
306.231
305.744
305.237
304.728
304.229
303.749
303.296
302.872
302.479
302.12
301.794
301.501
301.241
301.013
300.816
300.648
300.506
300.389
300.294
300.218
300.158
300.113
300.079
300.054
300.036
300.024
300.016
300.01
300.007
300.005
300.003
300.002
300.002
300.001
300.001
)
;
    }
    frontAndBack
    {
        type            empty;
    }
}


// ************************************************************************* //
