/*--------------------------------*- C++ -*----------------------------------*\
  =========                 |
  \\      /  F ield         | OpenFOAM: The Open Source CFD Toolbox
   \\    /   O peration     | Website:  https://openfoam.org
    \\  /    A nd           | Version:  7
     \\/     M anipulation  |
\*---------------------------------------------------------------------------*/
FoamFile
{
    version     2.0;
    format      ascii;
    class       volScalarField;
    location    "1.195";
    object      rho_0;
}
// * * * * * * * * * * * * * * * * * * * * * * * * * * * * * * * * * * * * * //

dimensions      [1 -3 0 0 0 0 0];

internalField   nonuniform List<scalar> 
7920
(
1.23962
1.23881
1.23881
1.2384
1.23851
1.23822
1.23834
1.23815
1.23828
1.23815
1.23828
1.23819
1.23829
1.23822
1.23828
1.23823
1.23823
1.23822
1.23807
1.2384
1.23976
1.23923
1.23906
1.23846
1.23835
1.2379
1.23785
1.23761
1.23767
1.23759
1.23772
1.23773
1.23788
1.23792
1.238
1.23805
1.23797
1.23815
1.23759
1.23869
1.24013
1.23979
1.23996
1.23933
1.23934
1.23871
1.23861
1.23811
1.23813
1.23788
1.23804
1.23799
1.23821
1.2383
1.23851
1.23869
1.2387
1.239
1.23856
1.23924
1.23994
1.23965
1.23982
1.23931
1.23932
1.23877
1.23861
1.23809
1.23797
1.23769
1.23774
1.23767
1.2378
1.23791
1.23812
1.2384
1.23857
1.23892
1.23883
1.2392
1.24008
1.23975
1.24003
1.23949
1.2396
1.23904
1.23896
1.23839
1.23831
1.23796
1.23802
1.23789
1.23803
1.23805
1.23828
1.2385
1.23879
1.23911
1.23928
1.23951
1.24003
1.23965
1.23993
1.23937
1.23949
1.23893
1.23886
1.2383
1.23822
1.23786
1.23793
1.23778
1.23792
1.2379
1.23812
1.23831
1.23863
1.23894
1.2392
1.23942
1.24003
1.23965
1.23993
1.23937
1.23949
1.23893
1.23886
1.2383
1.23822
1.23786
1.23793
1.23778
1.23792
1.2379
1.23813
1.23831
1.23863
1.23894
1.23921
1.23942
1.24008
1.23975
1.24003
1.23948
1.2396
1.23904
1.23896
1.23839
1.23831
1.23796
1.23803
1.23788
1.23803
1.23804
1.23829
1.23849
1.23881
1.23908
1.23931
1.23949
1.23994
1.23965
1.23982
1.23931
1.23932
1.23877
1.23861
1.23808
1.23798
1.23769
1.23774
1.23766
1.23781
1.2379
1.23815
1.23836
1.23862
1.23883
1.23895
1.23905
1.24013
1.23979
1.23996
1.23933
1.23934
1.23871
1.23861
1.23811
1.23813
1.23788
1.23805
1.23798
1.23822
1.23828
1.23855
1.23863
1.23881
1.23881
1.23888
1.23873
1.23976
1.23923
1.23906
1.23846
1.23835
1.2379
1.23785
1.2376
1.23767
1.23759
1.23773
1.23773
1.23788
1.2379
1.23802
1.23801
1.23805
1.23798
1.23797
1.2378
1.23962
1.23881
1.23881
1.2384
1.23851
1.23822
1.23834
1.23815
1.23828
1.23815
1.23828
1.23819
1.23829
1.23822
1.23829
1.23822
1.23825
1.23817
1.23819
1.23808
1.23764
1.23762
1.23706
1.23714
1.23673
1.23686
1.23661
1.23679
1.23665
1.23683
1.23674
1.23691
1.23684
1.23697
1.23689
1.237
1.23685
1.23704
1.23654
1.23789
1.238
1.23806
1.2376
1.2375
1.23705
1.23687
1.23653
1.23649
1.23639
1.23651
1.23655
1.23676
1.23685
1.23708
1.2371
1.23732
1.23711
1.23748
1.23667
1.23802
1.23768
1.23784
1.23727
1.23731
1.23676
1.23664
1.23611
1.23602
1.23573
1.23584
1.23578
1.23603
1.23612
1.23649
1.23662
1.23703
1.23697
1.23742
1.23693
1.23769
1.23788
1.23808
1.23759
1.23765
1.2372
1.23709
1.2366
1.23645
1.23614
1.23616
1.23609
1.23625
1.23634
1.23664
1.23687
1.23729
1.23748
1.23788
1.23783
1.23821
1.23772
1.23796
1.23739
1.23753
1.23703
1.23698
1.23646
1.23635
1.23599
1.23603
1.2359
1.23606
1.23608
1.23636
1.23656
1.237
1.23725
1.23771
1.23782
1.23817
1.23778
1.23807
1.2375
1.23766
1.23716
1.23713
1.2366
1.2365
1.23615
1.23619
1.23606
1.23621
1.23622
1.23648
1.23665
1.23708
1.23736
1.23782
1.23801
1.23836
1.23778
1.23807
1.2375
1.23766
1.23716
1.23713
1.2366
1.2365
1.23615
1.23619
1.23606
1.23621
1.23622
1.23648
1.23665
1.23708
1.23736
1.23782
1.23801
1.23836
1.23772
1.23796
1.23739
1.23753
1.23703
1.23698
1.23646
1.23634
1.23599
1.23603
1.2359
1.23606
1.23608
1.23636
1.23656
1.23699
1.23727
1.23769
1.23784
1.23815
1.23788
1.23808
1.23759
1.23765
1.2372
1.23709
1.2366
1.23644
1.23615
1.23616
1.2361
1.23624
1.23635
1.23662
1.2369
1.23725
1.23753
1.23781
1.23793
1.23809
1.23768
1.23784
1.23727
1.23731
1.23676
1.23664
1.23611
1.23602
1.23573
1.23584
1.23578
1.23602
1.23614
1.23646
1.23666
1.23696
1.23709
1.23723
1.23724
1.23723
1.238
1.23806
1.2376
1.2375
1.23705
1.23687
1.23654
1.23649
1.23639
1.2365
1.23656
1.23675
1.23687
1.23705
1.23714
1.23724
1.23724
1.23722
1.23717
1.23701
1.23764
1.23762
1.23706
1.23714
1.23673
1.23686
1.23661
1.23679
1.23665
1.23683
1.23675
1.2369
1.23685
1.23697
1.23691
1.23697
1.2369
1.23693
1.23685
1.23684
1.23787
1.23774
1.23751
1.23726
1.23693
1.23675
1.23666
1.23673
1.23678
1.23687
1.23689
1.23695
1.23693
1.23699
1.23687
1.23701
1.23663
1.23724
1.23573
1.23896
1.23788
1.23776
1.23756
1.23734
1.237
1.23664
1.2363
1.23612
1.23602
1.2361
1.2362
1.23649
1.23667
1.23704
1.23704
1.23742
1.23698
1.23756
1.23637
1.23767
1.23787
1.23775
1.23755
1.23736
1.23706
1.23672
1.23633
1.23607
1.23588
1.23585
1.23585
1.23601
1.2362
1.23657
1.23684
1.23726
1.23736
1.2377
1.23748
1.2378
1.23787
1.23775
1.23756
1.23738
1.2371
1.23677
1.2364
1.23612
1.23594
1.23588
1.23587
1.23595
1.2361
1.23638
1.23671
1.23711
1.23741
1.23774
1.23782
1.23808
1.23787
1.23775
1.23755
1.23737
1.23709
1.23675
1.23638
1.23612
1.23594
1.23588
1.23587
1.23593
1.23605
1.2363
1.23662
1.23702
1.23734
1.2377
1.23785
1.23809
1.23787
1.23775
1.23756
1.23738
1.23709
1.23676
1.2364
1.23613
1.23596
1.2359
1.23589
1.23596
1.23607
1.23632
1.23663
1.23704
1.23736
1.23772
1.23788
1.23812
1.23787
1.23775
1.23756
1.23738
1.23709
1.23676
1.2364
1.23613
1.23596
1.2359
1.23589
1.23596
1.23607
1.23632
1.23663
1.23704
1.23736
1.23772
1.23788
1.23813
1.23787
1.23775
1.23755
1.23737
1.23709
1.23675
1.23638
1.23612
1.23594
1.23588
1.23587
1.23593
1.23605
1.2363
1.23662
1.23703
1.23734
1.23771
1.23784
1.23811
1.23787
1.23775
1.23756
1.23738
1.2371
1.23676
1.2364
1.23612
1.23595
1.23588
1.23587
1.23594
1.2361
1.23637
1.23672
1.23711
1.23742
1.23773
1.23783
1.23808
1.23787
1.23775
1.23755
1.23736
1.23706
1.23672
1.23634
1.23607
1.23589
1.23584
1.23586
1.236
1.23622
1.23654
1.23689
1.2372
1.23744
1.23759
1.23763
1.23762
1.23788
1.23776
1.23756
1.23734
1.237
1.23664
1.23631
1.23611
1.23603
1.23608
1.23622
1.23646
1.23672
1.23698
1.23715
1.23726
1.23725
1.23714
1.23702
1.2367
1.23787
1.23774
1.23751
1.23726
1.23693
1.23675
1.23666
1.23673
1.23678
1.23687
1.23689
1.23694
1.23695
1.23696
1.23693
1.23691
1.23684
1.23681
1.23673
1.23666
1.23787
1.23774
1.23751
1.23726
1.23693
1.23675
1.23666
1.23673
1.23678
1.23687
1.23689
1.23695
1.23693
1.23699
1.23687
1.23701
1.23663
1.23724
1.23573
1.23896
1.23788
1.23776
1.23756
1.23734
1.237
1.23664
1.2363
1.23612
1.23602
1.2361
1.2362
1.23649
1.23667
1.23704
1.23704
1.23742
1.23698
1.23756
1.23637
1.23767
1.23787
1.23775
1.23755
1.23736
1.23706
1.23672
1.23633
1.23607
1.23588
1.23585
1.23585
1.23601
1.2362
1.23657
1.23684
1.23726
1.23736
1.2377
1.23748
1.2378
1.23787
1.23775
1.23756
1.23738
1.2371
1.23677
1.2364
1.23612
1.23594
1.23588
1.23587
1.23595
1.2361
1.23638
1.23671
1.23711
1.23741
1.23774
1.23782
1.23808
1.23787
1.23775
1.23755
1.23737
1.23709
1.23675
1.23638
1.23612
1.23594
1.23588
1.23587
1.23593
1.23605
1.2363
1.23662
1.23702
1.23734
1.2377
1.23785
1.23809
1.23787
1.23775
1.23756
1.23738
1.23709
1.23676
1.2364
1.23613
1.23596
1.2359
1.23589
1.23596
1.23607
1.23632
1.23663
1.23704
1.23736
1.23772
1.23788
1.23812
1.23787
1.23775
1.23756
1.23738
1.23709
1.23676
1.2364
1.23613
1.23596
1.2359
1.23589
1.23596
1.23607
1.23632
1.23663
1.23704
1.23736
1.23772
1.23788
1.23813
1.23787
1.23775
1.23755
1.23737
1.23709
1.23675
1.23638
1.23612
1.23594
1.23588
1.23587
1.23593
1.23605
1.2363
1.23662
1.23703
1.23734
1.23771
1.23784
1.23811
1.23787
1.23775
1.23756
1.23738
1.2371
1.23676
1.2364
1.23612
1.23595
1.23588
1.23587
1.23594
1.2361
1.23637
1.23672
1.23711
1.23742
1.23773
1.23783
1.23808
1.23787
1.23775
1.23755
1.23736
1.23706
1.23672
1.23634
1.23607
1.23589
1.23584
1.23586
1.236
1.23622
1.23654
1.23689
1.2372
1.23744
1.23759
1.23763
1.23762
1.23788
1.23776
1.23756
1.23734
1.237
1.23664
1.23631
1.23611
1.23603
1.23608
1.23622
1.23646
1.23672
1.23698
1.23715
1.23726
1.23725
1.23714
1.23702
1.2367
1.23787
1.23774
1.23751
1.23726
1.23693
1.23675
1.23666
1.23673
1.23678
1.23687
1.23689
1.23694
1.23695
1.23696
1.23693
1.23691
1.23684
1.23681
1.23673
1.23666
1.23764
1.23762
1.23706
1.23714
1.23673
1.23686
1.23661
1.23679
1.23665
1.23683
1.23674
1.23691
1.23684
1.23697
1.23689
1.237
1.23685
1.23704
1.23654
1.23789
1.238
1.23806
1.2376
1.2375
1.23705
1.23687
1.23653
1.23649
1.23639
1.23651
1.23655
1.23676
1.23685
1.23708
1.2371
1.23732
1.23711
1.23748
1.23667
1.23802
1.23768
1.23784
1.23727
1.23731
1.23676
1.23664
1.23611
1.23602
1.23573
1.23584
1.23578
1.23603
1.23612
1.23649
1.23662
1.23703
1.23697
1.23742
1.23693
1.23769
1.23788
1.23808
1.23759
1.23765
1.2372
1.23709
1.2366
1.23645
1.23614
1.23616
1.23609
1.23625
1.23634
1.23664
1.23687
1.23729
1.23748
1.23788
1.23783
1.23821
1.23772
1.23796
1.23739
1.23753
1.23703
1.23698
1.23646
1.23635
1.23599
1.23603
1.2359
1.23606
1.23608
1.23636
1.23656
1.237
1.23725
1.23771
1.23782
1.23817
1.23778
1.23807
1.2375
1.23766
1.23716
1.23713
1.2366
1.2365
1.23615
1.23619
1.23606
1.23621
1.23622
1.23648
1.23665
1.23708
1.23736
1.23782
1.23801
1.23836
1.23778
1.23807
1.2375
1.23766
1.23716
1.23713
1.2366
1.2365
1.23615
1.23619
1.23606
1.23621
1.23622
1.23648
1.23665
1.23708
1.23736
1.23782
1.23801
1.23836
1.23772
1.23796
1.23739
1.23753
1.23703
1.23698
1.23646
1.23634
1.23599
1.23603
1.2359
1.23606
1.23608
1.23636
1.23656
1.23699
1.23727
1.23769
1.23784
1.23815
1.23788
1.23808
1.23759
1.23765
1.2372
1.23709
1.2366
1.23644
1.23615
1.23616
1.2361
1.23624
1.23635
1.23662
1.2369
1.23725
1.23753
1.23781
1.23793
1.23809
1.23768
1.23784
1.23727
1.23731
1.23676
1.23664
1.23611
1.23602
1.23573
1.23584
1.23578
1.23602
1.23614
1.23646
1.23666
1.23696
1.23709
1.23723
1.23724
1.23723
1.238
1.23806
1.2376
1.2375
1.23705
1.23687
1.23654
1.23649
1.23639
1.2365
1.23656
1.23675
1.23687
1.23705
1.23714
1.23724
1.23724
1.23722
1.23717
1.23701
1.23764
1.23762
1.23706
1.23714
1.23673
1.23686
1.23661
1.23679
1.23665
1.23683
1.23675
1.2369
1.23685
1.23697
1.23691
1.23697
1.2369
1.23693
1.23685
1.23684
1.23962
1.23881
1.23881
1.2384
1.23851
1.23822
1.23834
1.23815
1.23828
1.23815
1.23827
1.23819
1.23829
1.23822
1.23828
1.23823
1.23823
1.23822
1.23807
1.2384
1.23976
1.23923
1.23906
1.23846
1.23835
1.2379
1.23785
1.23761
1.23767
1.23759
1.23772
1.23773
1.23788
1.23792
1.238
1.23805
1.23797
1.23815
1.23759
1.23869
1.24013
1.23979
1.23996
1.23933
1.23934
1.23871
1.23861
1.23811
1.23813
1.23788
1.23804
1.23799
1.23821
1.2383
1.23851
1.23869
1.2387
1.239
1.23856
1.23924
1.23994
1.23965
1.23982
1.23931
1.23932
1.23877
1.23861
1.23809
1.23797
1.23769
1.23774
1.23767
1.2378
1.23791
1.23812
1.2384
1.23857
1.23892
1.23883
1.2392
1.24008
1.23975
1.24003
1.23949
1.2396
1.23904
1.23896
1.23839
1.23831
1.23796
1.23802
1.23789
1.23803
1.23805
1.23828
1.2385
1.23879
1.23911
1.23928
1.23951
1.24003
1.23965
1.23993
1.23937
1.23949
1.23893
1.23886
1.2383
1.23822
1.23786
1.23793
1.23778
1.23792
1.2379
1.23812
1.23831
1.23863
1.23894
1.2392
1.23942
1.24003
1.23965
1.23993
1.23937
1.23949
1.23893
1.23886
1.2383
1.23822
1.23786
1.23793
1.23778
1.23792
1.2379
1.23813
1.23831
1.23863
1.23894
1.23921
1.23942
1.24008
1.23975
1.24003
1.23948
1.2396
1.23904
1.23896
1.23839
1.23831
1.23796
1.23803
1.23788
1.23803
1.23804
1.23829
1.23849
1.23881
1.23908
1.23931
1.23949
1.23994
1.23965
1.23982
1.23931
1.23932
1.23877
1.23861
1.23808
1.23798
1.23769
1.23774
1.23766
1.23781
1.2379
1.23815
1.23836
1.23863
1.23883
1.23895
1.23905
1.24013
1.23979
1.23996
1.23933
1.23934
1.23871
1.23861
1.23811
1.23813
1.23788
1.23805
1.23798
1.23822
1.23828
1.23855
1.23863
1.23881
1.23881
1.23888
1.23873
1.23976
1.23923
1.23906
1.23846
1.23835
1.2379
1.23785
1.2376
1.23767
1.23759
1.23773
1.23773
1.23788
1.2379
1.23802
1.23801
1.23805
1.23798
1.23797
1.2378
1.23962
1.23881
1.23881
1.2384
1.23851
1.23822
1.23834
1.23815
1.23828
1.23815
1.23828
1.23819
1.23829
1.23822
1.23829
1.23822
1.23825
1.23817
1.23819
1.23808
1.22904
1.22214
1.218
1.21464
1.21196
1.20927
1.20696
1.2048
1.20312
1.20159
1.20036
1.19915
1.19816
1.19722
1.19653
1.19593
1.19555
1.19521
1.19501
1.19481
1.1947
1.19456
1.19447
1.19435
1.19427
1.19415
1.19407
1.19395
1.19387
1.19375
1.19367
1.19356
1.19347
1.19336
1.19327
1.19315
1.19307
1.19295
1.19286
1.19275
1.19266
1.19255
1.19246
1.19234
1.19225
1.19214
1.19204
1.19193
1.19184
1.19173
1.19163
1.19152
1.19142
1.19131
1.19121
1.1911
1.19101
1.19089
1.1908
1.19069
1.19059
1.19048
1.19038
1.19027
1.19017
1.19006
1.18996
1.18985
1.18975
1.18964
1.18953
1.18943
1.18932
1.18921
1.18911
1.189
1.1889
1.18879
1.18869
1.18858
1.18848
1.18837
1.18826
1.18817
1.18805
1.18796
1.18785
1.18774
1.18766
1.18756
1.23233
1.22582
1.22171
1.21843
1.21585
1.21324
1.21093
1.20873
1.207
1.20545
1.20421
1.203
1.20199
1.20102
1.20029
1.19964
1.19921
1.19884
1.19863
1.19841
1.19829
1.19814
1.19806
1.19793
1.19785
1.19773
1.19765
1.19753
1.19745
1.19734
1.19725
1.19714
1.19705
1.19694
1.19685
1.19674
1.19665
1.19653
1.19644
1.19633
1.19624
1.19613
1.19604
1.19592
1.19583
1.19572
1.19562
1.19551
1.19542
1.19531
1.19521
1.1951
1.195
1.19489
1.19479
1.19468
1.19459
1.19448
1.19438
1.19427
1.19417
1.19406
1.19396
1.19385
1.19375
1.19364
1.19354
1.19343
1.19332
1.19322
1.19311
1.19301
1.1929
1.19279
1.19269
1.19258
1.19248
1.19237
1.19227
1.19216
1.19205
1.19195
1.19184
1.19174
1.19163
1.19153
1.19143
1.19132
1.19124
1.19114
1.23656
1.23138
1.22762
1.22457
1.2223
1.21994
1.21773
1.21548
1.21367
1.21206
1.21083
1.20963
1.20861
1.20759
1.20677
1.20602
1.2055
1.20505
1.20478
1.20453
1.20438
1.20422
1.20412
1.20399
1.20391
1.20379
1.20371
1.20359
1.20351
1.20339
1.20331
1.20319
1.20311
1.20299
1.2029
1.20279
1.2027
1.20258
1.20249
1.20238
1.20229
1.20218
1.20208
1.20197
1.20188
1.20176
1.20167
1.20156
1.20146
1.20135
1.20125
1.20114
1.20105
1.20093
1.20084
1.20073
1.20063
1.20052
1.20042
1.20031
1.20021
1.2001
1.2
1.19989
1.19978
1.19967
1.19957
1.19946
1.19936
1.19925
1.19915
1.19904
1.19894
1.19883
1.19873
1.19862
1.19851
1.19841
1.1983
1.19819
1.19809
1.19798
1.19788
1.19778
1.19767
1.19756
1.19747
1.19735
1.19728
1.19719
1.23833
1.2348
1.23165
1.22908
1.22732
1.22543
1.22349
1.22131
1.21945
1.21784
1.21665
1.21552
1.21454
1.2135
1.2126
1.21175
1.21112
1.21059
1.21025
1.20995
1.20978
1.20959
1.20949
1.20935
1.20927
1.20915
1.20907
1.20895
1.20887
1.20875
1.20867
1.20855
1.20846
1.20835
1.20826
1.20814
1.20806
1.20794
1.20785
1.20774
1.20765
1.20753
1.20744
1.20733
1.20723
1.20712
1.20702
1.20691
1.20682
1.2067
1.20661
1.20649
1.2064
1.20629
1.20619
1.20608
1.20598
1.20587
1.20577
1.20565
1.20555
1.20544
1.20534
1.20523
1.20513
1.20502
1.20492
1.20481
1.20471
1.2046
1.20449
1.20438
1.20428
1.20417
1.20407
1.20396
1.20385
1.20374
1.20364
1.20353
1.20342
1.20332
1.20321
1.20311
1.203
1.20289
1.2028
1.20268
1.2026
1.20251
1.23955
1.23714
1.23469
1.23261
1.23142
1.23008
1.22852
1.22651
1.2247
1.22312
1.22202
1.22101
1.22011
1.2191
1.21817
1.21725
1.21654
1.21593
1.21553
1.21519
1.21499
1.21479
1.21467
1.21453
1.21444
1.21432
1.21424
1.21412
1.21404
1.21392
1.21383
1.21372
1.21363
1.21351
1.21343
1.21331
1.21322
1.21311
1.21302
1.2129
1.21281
1.21269
1.2126
1.21249
1.21239
1.21228
1.21218
1.21207
1.21197
1.21186
1.21176
1.21165
1.21155
1.21144
1.21134
1.21123
1.21113
1.21102
1.21092
1.21081
1.21071
1.2106
1.21049
1.21038
1.21028
1.21017
1.21007
1.20996
1.20985
1.20974
1.20964
1.20953
1.20943
1.20932
1.20921
1.2091
1.209
1.20889
1.20878
1.20868
1.20857
1.20846
1.20836
1.20825
1.20815
1.20804
1.20794
1.20782
1.20774
1.20765
1.23972
1.23795
1.23603
1.23443
1.23377
1.23296
1.23181
1.23007
1.2284
1.22696
1.226
1.22515
1.22438
1.22344
1.22254
1.22161
1.22088
1.22024
1.21981
1.21945
1.21923
1.21902
1.2189
1.21876
1.21867
1.21855
1.21847
1.21834
1.21826
1.21815
1.21806
1.21794
1.21786
1.21774
1.21766
1.21754
1.21745
1.21733
1.21724
1.21713
1.21704
1.21692
1.21683
1.21671
1.21662
1.21651
1.21641
1.2163
1.2162
1.21609
1.21599
1.21588
1.21578
1.21567
1.21557
1.21545
1.21535
1.21524
1.21514
1.21503
1.21493
1.21482
1.21472
1.2146
1.2145
1.21439
1.21429
1.21418
1.21407
1.21396
1.21386
1.21375
1.21364
1.21353
1.21343
1.21332
1.21321
1.2131
1.213
1.21289
1.21278
1.21267
1.21257
1.21246
1.21235
1.21224
1.21214
1.21203
1.21193
1.21184
1.23972
1.23823
1.23671
1.23555
1.23532
1.23489
1.23407
1.2326
1.23116
1.22993
1.22915
1.22845
1.22782
1.22698
1.22615
1.22527
1.22457
1.22395
1.22353
1.22317
1.22296
1.22275
1.22263
1.22248
1.2224
1.22227
1.22219
1.22207
1.22199
1.22187
1.22179
1.22167
1.22158
1.22147
1.22138
1.22126
1.22117
1.22106
1.22097
1.22085
1.22076
1.22064
1.22055
1.22043
1.22034
1.22022
1.22013
1.22002
1.21992
1.2198
1.21971
1.21959
1.2195
1.21938
1.21928
1.21917
1.21907
1.21896
1.21886
1.21874
1.21864
1.21853
1.21843
1.21832
1.21821
1.2181
1.218
1.21789
1.21778
1.21767
1.21757
1.21746
1.21735
1.21724
1.21714
1.21703
1.21692
1.21681
1.2167
1.2166
1.21649
1.21638
1.21627
1.21616
1.21606
1.21595
1.21585
1.21574
1.21563
1.21554
1.23963
1.23827
1.23711
1.23634
1.23639
1.23617
1.23557
1.23434
1.23319
1.2322
1.23162
1.23107
1.23056
1.22983
1.22911
1.22832
1.2277
1.22714
1.22677
1.22644
1.22625
1.22605
1.22593
1.22579
1.2257
1.22558
1.2255
1.22538
1.22529
1.22517
1.22509
1.22497
1.22488
1.22477
1.22468
1.22456
1.22447
1.22435
1.22426
1.22415
1.22405
1.22394
1.22384
1.22373
1.22363
1.22352
1.22342
1.22331
1.22321
1.2231
1.223
1.22288
1.22278
1.22267
1.22257
1.22246
1.22236
1.22224
1.22214
1.22203
1.22193
1.22182
1.22171
1.2216
1.2215
1.22139
1.22128
1.22117
1.22107
1.22095
1.22085
1.22074
1.22063
1.22052
1.22042
1.22031
1.2202
1.22009
1.21998
1.21987
1.21977
1.21966
1.21955
1.21944
1.21934
1.21923
1.21913
1.21902
1.21891
1.21881
1.23892
1.23778
1.23697
1.23656
1.23675
1.23661
1.23614
1.23517
1.23434
1.23363
1.23325
1.23283
1.23243
1.23182
1.23124
1.2306
1.23011
1.22965
1.22935
1.22908
1.22891
1.22873
1.22863
1.22849
1.22841
1.22828
1.2282
1.22808
1.228
1.22788
1.22779
1.22768
1.22759
1.22747
1.22738
1.22726
1.22717
1.22705
1.22696
1.22685
1.22675
1.22663
1.22654
1.22642
1.22633
1.22621
1.22612
1.226
1.2259
1.22579
1.22569
1.22557
1.22547
1.22536
1.22526
1.22514
1.22504
1.22493
1.22483
1.22471
1.22461
1.2245
1.22439
1.22428
1.22417
1.22406
1.22396
1.22384
1.22374
1.22363
1.22352
1.22341
1.2233
1.22319
1.22308
1.22297
1.22286
1.22275
1.22264
1.22253
1.22242
1.22231
1.22221
1.2221
1.22199
1.22188
1.22177
1.22166
1.22155
1.22145
1.2388
1.23795
1.23752
1.23729
1.23748
1.23731
1.23694
1.23623
1.23571
1.23524
1.23501
1.23469
1.23439
1.23393
1.23351
1.23304
1.23269
1.23235
1.23213
1.23191
1.23178
1.23162
1.23153
1.23139
1.23131
1.23118
1.2311
1.23098
1.23089
1.23077
1.23068
1.23056
1.23047
1.23035
1.23026
1.23014
1.23005
1.22993
1.22984
1.22972
1.22962
1.2295
1.2294
1.22929
1.22919
1.22907
1.22897
1.22885
1.22875
1.22863
1.22853
1.22842
1.22831
1.2282
1.22809
1.22798
1.22787
1.22776
1.22765
1.22754
1.22743
1.22732
1.22721
1.22709
1.22699
1.22687
1.22676
1.22665
1.22654
1.22643
1.22632
1.2262
1.22609
1.22598
1.22587
1.22576
1.22565
1.22553
1.22542
1.22531
1.2252
1.22508
1.22498
1.22486
1.22475
1.22464
1.22453
1.22442
1.22431
1.2242
1.23801
1.23753
1.23735
1.23722
1.23732
1.23714
1.23691
1.23649
1.23622
1.23594
1.23582
1.23559
1.2354
1.23509
1.23484
1.23454
1.23433
1.2341
1.23396
1.23379
1.23368
1.23354
1.23345
1.23332
1.23324
1.23311
1.23303
1.2329
1.23281
1.23269
1.2326
1.23247
1.23238
1.23226
1.23216
1.23204
1.23194
1.23182
1.23172
1.2316
1.2315
1.23138
1.23128
1.23115
1.23105
1.23093
1.23083
1.2307
1.2306
1.23048
1.23037
1.23025
1.23015
1.23003
1.22992
1.2298
1.22969
1.22957
1.22946
1.22934
1.22923
1.22911
1.229
1.22888
1.22877
1.22865
1.22854
1.22842
1.22831
1.22819
1.22808
1.22796
1.22785
1.22773
1.22761
1.2275
1.22738
1.22726
1.22715
1.22703
1.22692
1.2268
1.22668
1.22657
1.22645
1.22633
1.22622
1.2261
1.22599
1.22588
1.23849
1.23821
1.23817
1.23801
1.23803
1.23785
1.23776
1.23753
1.23742
1.23724
1.23717
1.237
1.2369
1.23671
1.23659
1.2364
1.23629
1.23613
1.23603
1.23589
1.2358
1.23567
1.23558
1.23545
1.23536
1.23523
1.23514
1.23501
1.23492
1.23479
1.23469
1.23456
1.23447
1.23434
1.23424
1.23411
1.23401
1.23388
1.23378
1.23366
1.23355
1.23343
1.23332
1.23319
1.23309
1.23296
1.23286
1.23273
1.23262
1.2325
1.23239
1.23226
1.23215
1.23203
1.23192
1.23179
1.23168
1.23156
1.23144
1.23132
1.23121
1.23108
1.23097
1.23084
1.23073
1.23061
1.23049
1.23037
1.23025
1.23013
1.23001
1.22989
1.22977
1.22965
1.22953
1.22941
1.22929
1.22917
1.22905
1.22893
1.22881
1.22869
1.22857
1.22845
1.22833
1.22821
1.22809
1.22797
1.22785
1.22774
1.22548
1.21803
1.21366
1.21037
1.20757
1.20495
1.20262
1.20055
1.19886
1.19738
1.19613
1.19496
1.19397
1.19308
1.19241
1.19185
1.19149
1.19118
1.19099
1.19081
1.1907
1.19057
1.19049
1.19038
1.1903
1.19019
1.19011
1.19
1.18992
1.18981
1.18973
1.18961
1.18953
1.18942
1.18933
1.18922
1.18913
1.18902
1.18893
1.18882
1.18873
1.18862
1.18853
1.18841
1.18832
1.18821
1.18812
1.18801
1.18791
1.1878
1.18771
1.1876
1.1875
1.18739
1.18729
1.18718
1.18708
1.18697
1.18688
1.18677
1.18667
1.18656
1.18646
1.18635
1.18625
1.18614
1.18604
1.18593
1.18583
1.18572
1.18561
1.18551
1.1854
1.18529
1.18519
1.18508
1.18498
1.18487
1.18476
1.18466
1.18455
1.18445
1.18433
1.18424
1.18411
1.18402
1.1839
1.1838
1.18367
1.18356
1.23188
1.2254
1.22113
1.21792
1.21526
1.2127
1.21036
1.2082
1.20644
1.2049
1.20364
1.20245
1.20143
1.20048
1.19974
1.1991
1.19867
1.19831
1.19809
1.19789
1.19777
1.19763
1.19754
1.19742
1.19735
1.19723
1.19716
1.19704
1.19696
1.19685
1.19677
1.19666
1.19657
1.19646
1.19638
1.19626
1.19618
1.19606
1.19597
1.19586
1.19577
1.19566
1.19557
1.19545
1.19536
1.19525
1.19516
1.19505
1.19495
1.19484
1.19475
1.19463
1.19454
1.19443
1.19433
1.19422
1.19412
1.19401
1.19391
1.1938
1.1937
1.19359
1.19349
1.19338
1.19328
1.19317
1.19307
1.19296
1.19286
1.19275
1.19265
1.19254
1.19244
1.19233
1.19222
1.19212
1.19201
1.1919
1.1918
1.19169
1.19158
1.19148
1.19136
1.19127
1.19115
1.19105
1.19094
1.19083
1.19071
1.1906
1.23512
1.2304
1.2266
1.22376
1.22146
1.21922
1.21699
1.2148
1.21294
1.21136
1.21011
1.20894
1.20791
1.2069
1.20606
1.20531
1.20478
1.20434
1.20406
1.20381
1.20367
1.20351
1.20342
1.2033
1.20322
1.20311
1.20303
1.20292
1.20284
1.20272
1.20264
1.20253
1.20245
1.20233
1.20225
1.20213
1.20205
1.20194
1.20185
1.20173
1.20164
1.20153
1.20144
1.20133
1.20124
1.20112
1.20103
1.20092
1.20082
1.20071
1.20062
1.2005
1.20041
1.2003
1.2002
1.20009
1.19999
1.19988
1.19978
1.19967
1.19957
1.19946
1.19936
1.19925
1.19915
1.19904
1.19894
1.19883
1.19872
1.19861
1.19851
1.1984
1.1983
1.19819
1.19809
1.19798
1.19787
1.19776
1.19766
1.19755
1.19744
1.19734
1.19722
1.19712
1.197
1.1969
1.19679
1.19668
1.19656
1.19645
1.2375
1.23444
1.23142
1.22909
1.22738
1.22563
1.2237
1.22157
1.21967
1.21806
1.21685
1.21575
1.21476
1.21372
1.2128
1.21195
1.2113
1.21075
1.2104
1.2101
1.20992
1.20974
1.20964
1.20951
1.20943
1.20931
1.20923
1.20911
1.20904
1.20892
1.20884
1.20873
1.20864
1.20853
1.20844
1.20833
1.20824
1.20813
1.20804
1.20793
1.20784
1.20772
1.20763
1.20752
1.20742
1.20731
1.20722
1.2071
1.20701
1.2069
1.2068
1.20669
1.20659
1.20648
1.20638
1.20627
1.20617
1.20606
1.20596
1.20585
1.20575
1.20564
1.20554
1.20543
1.20532
1.20521
1.20511
1.205
1.2049
1.20479
1.20468
1.20457
1.20447
1.20436
1.20426
1.20415
1.20404
1.20393
1.20383
1.20372
1.20361
1.2035
1.20339
1.20329
1.20317
1.20307
1.20296
1.20285
1.20273
1.20263
1.23805
1.23616
1.23382
1.23211
1.23102
1.22992
1.22842
1.2265
1.22466
1.22311
1.22198
1.22101
1.22012
1.21912
1.21818
1.21725
1.21652
1.2159
1.21548
1.21513
1.21492
1.21472
1.21461
1.21447
1.21439
1.21427
1.21419
1.21408
1.214
1.21388
1.2138
1.21369
1.2136
1.21349
1.2134
1.21329
1.2132
1.21309
1.213
1.21288
1.21279
1.21268
1.21259
1.21247
1.21238
1.21227
1.21217
1.21206
1.21196
1.21185
1.21175
1.21164
1.21154
1.21143
1.21133
1.21122
1.21112
1.21101
1.21091
1.2108
1.2107
1.21058
1.21048
1.21037
1.21027
1.21016
1.21006
1.20995
1.20984
1.20973
1.20963
1.20952
1.20941
1.2093
1.2092
1.20909
1.20898
1.20887
1.20876
1.20866
1.20854
1.20844
1.20833
1.20822
1.20811
1.208
1.20789
1.20778
1.20766
1.20755
1.2385
1.2372
1.23538
1.23418
1.23366
1.2331
1.23205
1.2304
1.22873
1.22729
1.22631
1.22549
1.22474
1.22382
1.22291
1.22197
1.2212
1.22054
1.22008
1.21971
1.21948
1.21927
1.21915
1.219
1.21892
1.21879
1.21872
1.2186
1.21852
1.2184
1.21832
1.21821
1.21812
1.21801
1.21792
1.21781
1.21772
1.2176
1.21751
1.2174
1.21731
1.21719
1.2171
1.21699
1.21689
1.21678
1.21668
1.21657
1.21647
1.21636
1.21626
1.21615
1.21605
1.21594
1.21584
1.21573
1.21563
1.21551
1.21541
1.2153
1.2152
1.21509
1.21499
1.21487
1.21477
1.21466
1.21456
1.21445
1.21434
1.21423
1.21413
1.21402
1.21391
1.2138
1.21369
1.21358
1.21348
1.21337
1.21326
1.21315
1.21304
1.21294
1.21282
1.21272
1.21261
1.2125
1.21239
1.21228
1.21216
1.21206
1.23849
1.23742
1.23596
1.23517
1.23507
1.23491
1.23421
1.23284
1.23141
1.23019
1.2294
1.22875
1.22814
1.22734
1.2265
1.22561
1.22488
1.22423
1.22379
1.22341
1.22319
1.22298
1.22286
1.22271
1.22263
1.2225
1.22242
1.22231
1.22223
1.22211
1.22203
1.22191
1.22183
1.22171
1.22163
1.22151
1.22142
1.22131
1.22122
1.2211
1.22101
1.2209
1.2208
1.22069
1.22059
1.22048
1.22038
1.22027
1.22017
1.22006
1.21996
1.21985
1.21975
1.21964
1.21954
1.21942
1.21932
1.21921
1.21911
1.219
1.2189
1.21878
1.21868
1.21857
1.21847
1.21836
1.21825
1.21814
1.21804
1.21792
1.21782
1.21771
1.2176
1.21749
1.21739
1.21728
1.21717
1.21706
1.21695
1.21684
1.21673
1.21662
1.21651
1.21641
1.2163
1.21619
1.21608
1.21596
1.21585
1.21574
1.2381
1.2371
1.23596
1.23552
1.23568
1.23573
1.23522
1.23412
1.23297
1.23204
1.23147
1.23099
1.2305
1.22981
1.22909
1.22831
1.22766
1.22709
1.2267
1.22636
1.22616
1.22597
1.22585
1.22571
1.22563
1.22551
1.22543
1.22531
1.22523
1.22512
1.22504
1.22492
1.22484
1.22472
1.22463
1.22452
1.22443
1.22431
1.22422
1.22411
1.22402
1.2239
1.22381
1.22369
1.2236
1.22348
1.22339
1.22327
1.22318
1.22306
1.22296
1.22285
1.22275
1.22264
1.22254
1.22243
1.22233
1.22221
1.22211
1.222
1.2219
1.22178
1.22168
1.22157
1.22147
1.22135
1.22125
1.22114
1.22103
1.22092
1.22082
1.2207
1.2206
1.22049
1.22038
1.22027
1.22016
1.22005
1.21994
1.21983
1.21972
1.21961
1.2195
1.21939
1.21928
1.21917
1.21906
1.21895
1.21883
1.21872
1.23795
1.23704
1.23625
1.23606
1.23635
1.23639
1.23597
1.23508
1.23425
1.23359
1.23322
1.23286
1.23247
1.23189
1.2313
1.23065
1.23014
1.22967
1.22936
1.22908
1.22891
1.22873
1.22863
1.2285
1.22842
1.2283
1.22822
1.2281
1.22802
1.2279
1.22782
1.2277
1.22762
1.2275
1.22741
1.22729
1.22721
1.22709
1.227
1.22688
1.22679
1.22667
1.22658
1.22646
1.22637
1.22625
1.22616
1.22604
1.22594
1.22583
1.22573
1.22562
1.22552
1.2254
1.2253
1.22519
1.22509
1.22497
1.22487
1.22476
1.22465
1.22454
1.22444
1.22433
1.22422
1.22411
1.224
1.22389
1.22379
1.22367
1.22357
1.22346
1.22335
1.22324
1.22313
1.22302
1.22291
1.2228
1.22269
1.22258
1.22247
1.22236
1.22225
1.22214
1.22203
1.22192
1.2218
1.22169
1.22157
1.22146
1.23698
1.23637
1.23592
1.23594
1.23619
1.23618
1.23581
1.23518
1.23464
1.23423
1.23402
1.23375
1.23345
1.233
1.23255
1.23207
1.23171
1.23136
1.23113
1.23091
1.23078
1.23063
1.23054
1.23041
1.23033
1.23021
1.23013
1.23001
1.22993
1.22981
1.22973
1.22961
1.22953
1.22941
1.22932
1.2292
1.22911
1.22899
1.2289
1.22878
1.22869
1.22857
1.22848
1.22836
1.22826
1.22815
1.22805
1.22793
1.22783
1.22772
1.22762
1.2275
1.2274
1.22728
1.22718
1.22707
1.22696
1.22685
1.22675
1.22663
1.22653
1.22641
1.22631
1.22619
1.22609
1.22597
1.22586
1.22575
1.22564
1.22553
1.22542
1.22531
1.2252
1.22509
1.22498
1.22486
1.22475
1.22464
1.22453
1.22442
1.22431
1.22419
1.22408
1.22397
1.22385
1.22374
1.22362
1.22351
1.22339
1.22327
1.23727
1.23694
1.23675
1.23678
1.23692
1.23682
1.23656
1.23615
1.23586
1.23561
1.23548
1.23527
1.23506
1.23474
1.23446
1.23413
1.2339
1.23366
1.23351
1.23333
1.23323
1.23309
1.23301
1.23288
1.2328
1.23268
1.2326
1.23247
1.23239
1.23227
1.23218
1.23206
1.23197
1.23185
1.23176
1.23163
1.23154
1.23142
1.23133
1.2312
1.23111
1.23099
1.23089
1.23077
1.23067
1.23055
1.23045
1.23033
1.23023
1.23011
1.23
1.22988
1.22978
1.22966
1.22956
1.22944
1.22933
1.22921
1.22911
1.22899
1.22888
1.22876
1.22865
1.22854
1.22843
1.22831
1.2282
1.22808
1.22797
1.22785
1.22774
1.22762
1.22751
1.2274
1.22728
1.22717
1.22705
1.22694
1.22682
1.22671
1.22659
1.22648
1.22636
1.22625
1.22613
1.22601
1.22589
1.22578
1.22566
1.22554
1.23687
1.23674
1.23667
1.23664
1.23666
1.23655
1.23644
1.23624
1.23612
1.23597
1.2359
1.23575
1.23564
1.23545
1.23532
1.23513
1.23501
1.23485
1.23476
1.23462
1.23453
1.2344
1.23432
1.23419
1.23411
1.23398
1.23389
1.23377
1.23368
1.23355
1.23346
1.23333
1.23324
1.23311
1.23301
1.23289
1.23279
1.23266
1.23256
1.23244
1.23234
1.23221
1.23211
1.23198
1.23188
1.23175
1.23165
1.23152
1.23142
1.23129
1.23118
1.23106
1.23095
1.23083
1.23072
1.23059
1.23048
1.23036
1.23025
1.23012
1.23001
1.22989
1.22978
1.22965
1.22954
1.22942
1.2293
1.22918
1.22906
1.22894
1.22883
1.2287
1.22859
1.22847
1.22835
1.22823
1.22811
1.22799
1.22787
1.22775
1.22763
1.22751
1.22739
1.22727
1.22715
1.22703
1.2269
1.22678
1.22665
1.22653
1.223
1.21349
1.20843
1.20476
1.20168
1.19893
1.19657
1.19452
1.19284
1.19134
1.19007
1.18889
1.18793
1.18709
1.18649
1.18599
1.18567
1.1854
1.18524
1.18508
1.18498
1.18486
1.18479
1.18467
1.1846
1.18449
1.18441
1.1843
1.18422
1.18411
1.18403
1.18392
1.18383
1.18372
1.18364
1.18353
1.18344
1.18333
1.18324
1.18313
1.18304
1.18293
1.18284
1.18272
1.18263
1.18252
1.18243
1.18232
1.18222
1.18211
1.18202
1.18191
1.18181
1.1817
1.1816
1.18149
1.1814
1.18129
1.18119
1.18108
1.18098
1.18087
1.18077
1.18066
1.18056
1.18045
1.18035
1.18025
1.18014
1.18004
1.17993
1.17983
1.17972
1.17962
1.17951
1.1794
1.1793
1.17919
1.17909
1.17898
1.17887
1.17877
1.17866
1.17856
1.17844
1.17835
1.17823
1.17813
1.178
1.17788
1.2327
1.22549
1.22059
1.21701
1.21406
1.21133
1.20887
1.20666
1.20485
1.20327
1.20195
1.20072
1.19968
1.19873
1.198
1.19739
1.19698
1.19664
1.19643
1.19624
1.19612
1.19599
1.19591
1.19579
1.19572
1.19561
1.19553