/*--------------------------------*- C++ -*----------------------------------*\
  =========                 |
  \\      /  F ield         | OpenFOAM: The Open Source CFD Toolbox
   \\    /   O peration     | Website:  https://openfoam.org
    \\  /    A nd           | Version:  7
     \\/     M anipulation  |
\*---------------------------------------------------------------------------*/
FoamFile
{
    version     2.0;
    format      ascii;
    class       volScalarField;
    location    "0.1625";
    object      T;
}
// * * * * * * * * * * * * * * * * * * * * * * * * * * * * * * * * * * * * * //

dimensions      [0 0 0 1 0 0 0];

internalField   nonuniform List<scalar> 
7920
(
282.846
282.969
282.971
283.024
283.016
283.087
283.102
283.157
283.154
283.179
283.167
283.179
283.166
283.174
283.164
283.165
283.165
283.146
283.182
283.052
282.762
282.832
282.851
282.915
282.917
283.047
283.161
283.311
283.384
283.442
283.455
283.469
283.465
283.468
283.468
283.456
283.483
283.415
283.55
283.241
282.699
282.725
282.684
282.74
282.658
282.76
282.893
283.171
283.348
283.516
283.563
283.616
283.611
283.629
283.628
283.622
283.654
283.596
283.7
283.53
282.718
282.745
282.71
282.753
282.647
282.7
282.822
283.129
283.373
283.599
283.69
283.761
283.769
283.787
283.79
283.787
283.809
283.78
283.828
283.766
282.698
282.728
282.679
282.721
282.591
282.629
282.733
283.048
283.305
283.555
283.658
283.742
283.749
283.775
283.77
283.782
283.784
283.785
283.796
283.788
282.704
282.746
282.697
282.74
282.608
282.645
282.747
283.063
283.323
283.578
283.683
283.771
283.777
283.806
283.798
283.814
283.81
283.82
283.82
283.828
282.704
282.746
282.697
282.74
282.608
282.645
282.747
283.063
283.323
283.578
283.683
283.771
283.777
283.806
283.797
283.815
283.808
283.823
283.817
283.832
282.698
282.728
282.679
282.721
282.591
282.629
282.733
283.048
283.305
283.555
283.658
283.742
283.748
283.776
283.768
283.786
283.777
283.795
283.783
283.803
282.718
282.745
282.71
282.753
282.647
282.7
282.822
283.129
283.373
283.599
283.69
283.761
283.768
283.789
283.785
283.797
283.792
283.806
283.791
283.815
282.699
282.725
282.684
282.74
282.658
282.76
282.893
283.171
283.348
283.516
283.563
283.617
283.61
283.632
283.621
283.638
283.624
283.648
283.617
283.659
282.762
282.832
282.851
282.915
282.917
283.047
283.161
283.311
283.384
283.443
283.455
283.469
283.464
283.47
283.464
283.467
283.458
283.467
283.439
283.47
282.846
282.969
282.971
283.024
283.016
283.087
283.102
283.157
283.154
283.179
283.167
283.179
283.166
283.174
283.163
283.168
283.158
283.162
283.146
283.159
283.206
283.204
283.29
283.261
283.362
283.389
283.496
283.503
283.554
283.531
283.551
283.525
283.537
283.513
283.523
283.494
283.52
283.446
283.588
283.206
283.156
283.134
283.201
283.162
283.231
283.336
283.557
283.718
283.847
283.891
283.914
283.906
283.906
283.889
283.894
283.856
283.904
283.786
283.972
283.639
283.201
283.165
283.268
283.191
283.233
283.288
283.56
283.791
284.034
284.129
284.204
284.194
284.208
284.178
284.189
284.145
284.182
284.093
284.191
284.026
283.172
283.127
283.218
283.132
283.14
283.169
283.431
283.69
283.971
284.103
284.197
284.2
284.214
284.191
284.192
284.164
284.171
284.129
284.153
284.094
283.193
283.147
283.253
283.154
283.166
283.184
283.45
283.712
284.01
284.149
284.255
284.257
284.277
284.25
284.253
284.224
284.227
284.195
284.199
284.165
283.185
283.13
283.234
283.131
283.142
283.159
283.425
283.687
283.986
284.127
284.236
284.238
284.259
284.231
284.234
284.206
284.206
284.179
284.175
284.15
283.185
283.13
283.234
283.131
283.142
283.159
283.425
283.687
283.986
284.127
284.236
284.238
284.258
284.231
284.234
284.207
284.204
284.181
284.172
284.152
283.193
283.147
283.253
283.154
283.166
283.184
283.45
283.712
284.01
284.149
284.255
284.258
284.277
284.25
284.252
284.227
284.222
284.202
284.189
284.178
283.172
283.127
283.218
283.132
283.14
283.169
283.431
283.69
283.971
284.103
284.197
284.201
284.214
284.192
284.188
284.171
284.157
284.15
284.124
284.135
283.201
283.165
283.268
283.191
283.233
283.288
283.56
283.791
284.034
284.129
284.204
284.194
284.207
284.181
284.182
284.161
284.152
284.143
284.114
284.14
283.156
283.134
283.201
283.162
283.231
283.336
283.557
283.718
283.847
283.891
283.914
283.906
283.905
283.891
283.886
283.874
283.866
283.86
283.837
283.881
283.206
283.204
283.29
283.261
283.362
283.389
283.496
283.503
283.554
283.531
283.551
283.525
283.537
283.514
283.52
283.5
283.503
283.485
283.485
283.495
283.126
283.143
283.141
283.138
283.233
283.39
283.545
283.639
283.686
283.698
283.701
283.695
283.694
283.68
283.696
283.639
283.741
283.525
283.907
283.188
283.12
283.145
283.157
283.108
283.111
283.258
283.524
283.787
283.972
284.065
284.102
284.107
284.108
284.094
284.108
284.059
284.132
283.992
284.181
283.898
283.12
283.148
283.169
283.109
283.086
283.213
283.491
283.789
284.016
284.138
284.19
284.202
284.203
284.194
284.194
284.175
284.189
284.146
284.188
284.112
283.119
283.147
283.166
283.103
283.076
283.199
283.475
283.775
284.007
284.134
284.189
284.203
284.203
284.197
284.192
284.182
284.179
284.164
284.166
284.144
283.12
283.148
283.168
283.105
283.079
283.203
283.48
283.781
284.014
284.142
284.198
284.212
284.212
284.206
284.2
284.192
284.186
284.176
284.17
284.159
283.12
283.148
283.167
283.102
283.077
283.201
283.478
283.779
284.011
284.139
284.195
284.209
284.209
284.202
284.197
284.189
284.182
284.173
284.165
284.156
283.12
283.148
283.167
283.102
283.077
283.201
283.478
283.779
284.011
284.139
284.195
284.209
284.209
284.202
284.197
284.189
284.182
284.174
284.165
284.157
283.12
283.148
283.168
283.105
283.079
283.203
283.48
283.781
284.014
284.142
284.198
284.212
284.212
284.206
284.2
284.192
284.185
284.178
284.168
284.162
283.119
283.147
283.166
283.103
283.076
283.199
283.475
283.775
284.007
284.134
284.189
284.203
284.203
284.197
284.191
284.184
284.175
284.171
284.156
284.158
283.12
283.148
283.169
283.109
283.086
283.213
283.491
283.789
284.016
284.138
284.19
284.202
284.202
284.196
284.189
284.184
284.172
284.174
284.148
284.169
283.12
283.145
283.157
283.108
283.111
283.258
283.524
283.787
283.972
284.066
284.101
284.108
284.106
284.1
284.093
284.09
284.074
284.087
284.041
284.1
283.126
283.143
283.141
283.138
283.233
283.39
283.545
283.639
283.686
283.698
283.701
283.695
283.692
283.686
283.68
283.676
283.664
283.672
283.63
283.691
283.126
283.143
283.141
283.138
283.233
283.39
283.545
283.639
283.686
283.698
283.701
283.695
283.694
283.68
283.696
283.639
283.741
283.525
283.907
283.188
283.12
283.145
283.157
283.108
283.111
283.258
283.524
283.787
283.972
284.065
284.102
284.107
284.108
284.094
284.108
284.059
284.132
283.992
284.181
283.898
283.12
283.148
283.169
283.109
283.086
283.213
283.491
283.789
284.016
284.138
284.19
284.202
284.203
284.194
284.194
284.175
284.189
284.146
284.188
284.112
283.119
283.147
283.166
283.103
283.076
283.199
283.475
283.775
284.007
284.134
284.189
284.203
284.203
284.197
284.192
284.182
284.179
284.164
284.166
284.144
283.12
283.148
283.168
283.105
283.079
283.203
283.48
283.781
284.014
284.142
284.198
284.212
284.212
284.206
284.2
284.192
284.186
284.176
284.17
284.159
283.12
283.148
283.167
283.102
283.077
283.201
283.478
283.779
284.011
284.139
284.195
284.209
284.209
284.202
284.197
284.189
284.182
284.173
284.165
284.156
283.12
283.148
283.167
283.102
283.077
283.201
283.478
283.779
284.011
284.139
284.195
284.209
284.209
284.202
284.197
284.189
284.182
284.174
284.165
284.157
283.12
283.148
283.168
283.105
283.079
283.203
283.48
283.781
284.014
284.142
284.198
284.212
284.212
284.206
284.2
284.192
284.185
284.178
284.168
284.162
283.119
283.147
283.166
283.103
283.076
283.199
283.475
283.775
284.007
284.134
284.189
284.203
284.203
284.197
284.191
284.184
284.175
284.171
284.156
284.158
283.119
283.148
283.169
283.109
283.086
283.213
283.491
283.789
284.016
284.138
284.19
284.202
284.202
284.196
284.189
284.184
284.172
284.174
284.148
284.169
283.12
283.145
283.157
283.108
283.111
283.258
283.524
283.787
283.972
284.066
284.101
284.108
284.106
284.1
284.093
284.09
284.074
284.087
284.041
284.1
283.126
283.143
283.141
283.138
283.233
283.39
283.545
283.639
283.686
283.698
283.701
283.695
283.692
283.686
283.68
283.676
283.664
283.672
283.63
283.691
283.206
283.204
283.29
283.261
283.362
283.389
283.496
283.503
283.554
283.531
283.551
283.525
283.537
283.513
283.523
283.494
283.52
283.446
283.588
283.206
283.156
283.134
283.201
283.162
283.231
283.336
283.557
283.718
283.847
283.891
283.914
283.906
283.906
283.889
283.894
283.856
283.904
283.786
283.972
283.639
283.201
283.165
283.268
283.191
283.233
283.288
283.56
283.791
284.034
284.129
284.204
284.194
284.208
284.178
284.189
284.145
284.182
284.093
284.191
284.026
283.172
283.127
283.218
283.132
283.14
283.169
283.431
283.69
283.971
284.103
284.197
284.2
284.214
284.191
284.192
284.164
284.171
284.129
284.153
284.094
283.193
283.147
283.253
283.154
283.166
283.184
283.45
283.712
284.01
284.149
284.255
284.257
284.277
284.25
284.253
284.224
284.227
284.195
284.199
284.165
283.185
283.13
283.234
283.131
283.142
283.159
283.425
283.687
283.986
284.127
284.236
284.238
284.259
284.231
284.234
284.206
284.206
284.179
284.175
284.15
283.185
283.13
283.234
283.131
283.142
283.159
283.425
283.687
283.986
284.127
284.236
284.238
284.259
284.231
284.234
284.207
284.204
284.181
284.172
284.152
283.193
283.147
283.253
283.154
283.166
283.184
283.45
283.712
284.01
284.149
284.255
284.258
284.277
284.25
284.252
284.227
284.222
284.202
284.189
284.178
283.172
283.127
283.218
283.132
283.14
283.169
283.431
283.69
283.971
284.103
284.197
284.201
284.214
284.192
284.188
284.171
284.158
284.15
284.124
284.135
283.201
283.165
283.268
283.191
283.233
283.288
283.56
283.791
284.034
284.129
284.204
284.194
284.207
284.182
284.182
284.161
284.152
284.143
284.114
284.14
283.156
283.134
283.201
283.162
283.231
283.336
283.557
283.718
283.847
283.891
283.913
283.906
283.905
283.891
283.886
283.874
283.866
283.86
283.837
283.881
283.206
283.204
283.29
283.261
283.362
283.389
283.496
283.503
283.554
283.531
283.551
283.525
283.537
283.514
283.52
283.5
283.503
283.485
283.485
283.495
282.846
282.969
282.971
283.024
283.016
283.087
283.102
283.157
283.154
283.179
283.167
283.179
283.166
283.174
283.164
283.165
283.165
283.146
283.182
283.052
282.762
282.832
282.851
282.915
282.917
283.047
283.161
283.311
283.384
283.442
283.455
283.469
283.465
283.468
283.468
283.456
283.483
283.415
283.55
283.241
282.699
282.725
282.684
282.74
282.658
282.76
282.893
283.171
283.348
283.516
283.563
283.616
283.611
283.629
283.628
283.622
283.654
283.596
283.7
283.53
282.718
282.745
282.71
282.753
282.647
282.7
282.822
283.129
283.373
283.599
283.69
283.761
283.769
283.787
283.79
283.787
283.809
283.78
283.828
283.766
282.698
282.728
282.679
282.721
282.591
282.629
282.733
283.048
283.305
283.555
283.658
283.742
283.749
283.775
283.77
283.782
283.784
283.785
283.796
283.788
282.704
282.746
282.697
282.74
282.608
282.644
282.747
283.063
283.323
283.578
283.683
283.771
283.777
283.806
283.798
283.814
283.81
283.82
283.82
283.828
282.704
282.746
282.697
282.74
282.608
282.644
282.747
283.063
283.323
283.578
283.683
283.771
283.777
283.806
283.797
283.815
283.808
283.823
283.817
283.832
282.698
282.728
282.679
282.721
282.591
282.629
282.733
283.048
283.305
283.555
283.658
283.742
283.748
283.776
283.768
283.786
283.777
283.795
283.783
283.803
282.718
282.745
282.71
282.753
282.647
282.7
282.822
283.129
283.373
283.599
283.69
283.761
283.768
283.789
283.785
283.797
283.792
283.806
283.791
283.815
282.699
282.725
282.684
282.74
282.658
282.76
282.893
283.171
283.348
283.516
283.563
283.617
283.61
283.632
283.621
283.638
283.624
283.647
283.617
283.659
282.762
282.832
282.851
282.915
282.917
283.047
283.161
283.311
283.384
283.443
283.455
283.469
283.464
283.47
283.464
283.467
283.458
283.467
283.439
283.47
282.846
282.969
282.971
283.024
283.016
283.087
283.102
283.157
283.154
283.179
283.167
283.179
283.166
283.174
283.163
283.168
283.158
283.162
283.146
283.159
285.361
286.347
286.482
286.474
286.429
286.395
286.346
286.306
286.259
286.222
286.183
286.156
286.133
286.121
286.114
286.115
286.119
286.124
286.126
286.124
286.116
286.101
286.081
286.062
286.044
286.031
286.024
286.023
286.027
286.029
286.028
286.022
286.012
285.999
285.984
285.973
285.968
285.967
285.969
285.968
285.964
285.957
285.947
285.936
285.927
285.922
285.923
285.923
285.92
285.913
285.904
285.897
285.891
285.885
285.883
285.881
285.879
285.875
285.865
285.857
285.853
285.851
285.852
285.846
285.837
285.831
285.826
285.824
285.823
285.816
285.811
285.807
285.802
285.8
285.795
285.787
285.784
285.78
285.774
285.77
285.762
285.753
285.752
285.749
285.742
285.738
285.728
285.719
285.723
285.707
284.669
285.587
285.745
285.74
285.697
285.66
285.612
285.571
285.524
285.485
285.447
285.419
285.396
285.383
285.376
285.377
285.38
285.384
285.386
285.383
285.374
285.359
285.339
285.319
285.301
285.287
285.28
285.278
285.282
285.284
285.282
285.276
285.265
285.251
285.237
285.225
285.22
285.219
285.22
285.219
285.214
285.207
285.197
285.186
285.177
285.172
285.172
285.172
285.169
285.162
285.152
285.145
285.139
285.133
285.131
285.128
285.126
285.122
285.112
285.104
285.099
285.097
285.098
285.092
285.083
285.076
285.071
285.069
285.068
285.061
285.056
285.052
285.046
285.044
285.039
285.03
285.027
285.023
285.017
285.013
285.005
284.996
284.995
284.991
284.985
284.98
284.97
284.961
284.966
284.95
284.087
284.74
284.896
284.907
284.865
284.832
284.785
284.745
284.699
284.661
284.623
284.596
284.573
284.56
284.554
284.555
284.558
284.562
284.564
284.562
284.553
284.538
284.519
284.499
284.481
284.468
284.46
284.459
284.462
284.464
284.463
284.457
284.446
284.433
284.418
284.407
284.402
284.401
284.402
284.4
284.396
284.389
284.378
284.368
284.358
284.353
284.354
284.353
284.35
284.343
284.334
284.326
284.32
284.314
284.312
284.309
284.307
284.302
284.293
284.284
284.28
284.278
284.278
284.272
284.263
284.256
284.251
284.249
284.248
284.24
284.235
284.231
284.226
284.223
284.218
284.209
284.206
284.202
284.196
284.191
284.182
284.174
284.173
284.169
284.162
284.157
284.147
284.137
284.142
284.126
283.928
284.282
284.395
284.403
284.366
284.329
284.283
284.241
284.194
284.155
284.117
284.089
284.066
284.052
284.045
284.045
284.048
284.052
284.054
284.051
284.041
284.026
284.006
283.986
283.968
283.954
283.946
283.945
283.948
283.95
283.948
283.942
283.93
283.917
283.902
283.891
283.885
283.884
283.885
283.883
283.879
283.871
283.861
283.85
283.84
283.835
283.835
283.835
283.832
283.825
283.815
283.807
283.801
283.795
283.793
283.79
283.788
283.783
283.773
283.765
283.76
283.758
283.758
283.752
283.743
283.736
283.73
283.728
283.727
283.719
283.714
283.71
283.704
283.701
283.696
283.687
283.684
283.68
283.674
283.669
283.66
283.651
283.65
283.646
283.639
283.635
283.624
283.614
283.62
283.605
283.829
284.011
284.066
284.076
284.04
284.008
283.961
283.922
283.875
283.837
283.799
283.772
283.748
283.735
283.728
283.729
283.732
283.736
283.738
283.736
283.726
283.712
283.692
283.672
283.654
283.64
283.633
283.632
283.635
283.636
283.635
283.629
283.618
283.604
283.59
283.578
283.573
283.572
283.573
283.571
283.567
283.559
283.549
283.538
283.529
283.523
283.524
283.523
283.52
283.513
283.503
283.496
283.489
283.483
283.481
283.478
283.476
283.471
283.461
283.453
283.448
283.446
283.446
283.44
283.43
283.424
283.418
283.416
283.414
283.407
283.401
283.397
283.392
283.389
283.383
283.374
283.371
283.367
283.361
283.356
283.347
283.338
283.337
283.332
283.325
283.321
283.31
283.299
283.306
283.291
283.831
283.918
283.931
283.935
283.899
283.867
283.821
283.778
283.732
283.692
283.654
283.625
283.602
283.588
283.581
283.581
283.583
283.587
283.588
283.585
283.576
283.561
283.541
283.521
283.502
283.488
283.481
283.48
283.482
283.484
283.483
283.476
283.465
283.452
283.437
283.425
283.42
283.418
283.42
283.418
283.413
283.406
283.395
283.385
283.375
283.37
283.37
283.369
283.366
283.359
283.349
283.342
283.335
283.33
283.327
283.324
283.322
283.317
283.307
283.299
283.294
283.292
283.292
283.286
283.277
283.27
283.265
283.263
283.261
283.254
283.248
283.244
283.239
283.236
283.23
283.222
283.219
283.215
283.208
283.204
283.195
283.186
283.185
283.181
283.174
283.17
283.16
283.149
283.156
283.143
283.821
283.853
283.837
283.834
283.797
283.765
283.72
283.677
283.631
283.591
283.554
283.525
283.502
283.488
283.481
283.481
283.484
283.488
283.49
283.487
283.478
283.463
283.443
283.423
283.405
283.391
283.384
283.383
283.386
283.388
283.387
283.381
283.37
283.357
283.342
283.331
283.326
283.325
283.326
283.325
283.32
283.313
283.303
283.293
283.283
283.278
283.279
283.279
283.276
283.269
283.26
283.253
283.246
283.241
283.239
283.236
283.235
283.23
283.22
283.213
283.208
283.206
283.207
283.201
283.192
283.186
283.181
283.179
283.178
283.171
283.166
283.163
283.158
283.155
283.15
283.142
283.139
283.136
283.13
283.126
283.117
283.109
283.109
283.105
283.099
283.095
283.085
283.075
283.082
283.071
283.777
283.765
283.731
283.719
283.68
283.649
283.603
283.563
283.517
283.479
283.442
283.415
283.392
283.38
283.373
283.375
283.378
283.383
283.386
283.384
283.375
283.361
283.342
283.323
283.306
283.293
283.286
283.286
283.29
283.293
283.292
283.287
283.277
283.264
283.25
283.24
283.236
283.235
283.238
283.237
283.233
283.227
283.218
283.208
283.2
283.196
283.197
283.198
283.196
283.19
283.181
283.175
283.17
283.166
283.164
283.163
283.162
283.159
283.15
283.143
283.14
283.139
283.141
283.136
283.128
283.123
283.119
283.118
283.118
283.112
283.108
283.106
283.102
283.101
283.097
283.089
283.088
283.085
283.081
283.078
283.07
283.063
283.063
283.061
283.056
283.053
283.044
283.035
283.042
283.032
283.743
283.68
283.636
283.612
283.573
283.536
283.491
283.449
283.403
283.364
283.327
283.3
283.277
283.265
283.259
283.26
283.264
283.269
283.272
283.27
283.262
283.248
283.23
283.212
283.195
283.183
283.177
283.177
283.182
283.186
283.186
283.182
283.173
283.162
283.149
283.14
283.136
283.138
283.141
283.142
283.14
283.135
283.127
283.119
283.112
283.11
283.113
283.115
283.114
283.11
283.103
283.099
283.095
283.093
283.093
283.093
283.094
283.093
283.086
283.081
283.079
283.08
283.084
283.081
283.075
283.072
283.069
283.071
283.072
283.068
283.067
283.066
283.064
283.064
283.062
283.057
283.058
283.057
283.054
283.053
283.048
283.042
283.045
283.044
283.041
283.04
283.033
283.027
283.036
283.029
283.533
283.457
283.409
283.388
283.346
283.313
283.266
283.226
283.181
283.144
283.108
283.082
283.061
283.05
283.045
283.049
283.055
283.062
283.067
283.068
283.063
283.052
283.036
283.02
283.006
282.997
282.994
282.997
283.005
283.012
283.015
283.014
283.008
283
282.99
282.984
282.984
282.988
282.995
282.999
283
282.998
282.993
282.988
282.984
282.985
282.991
282.996
282.998
282.997
282.993
282.992
282.991
282.991
282.994
282.997
283.001
283.002
282.998
282.995
282.996
283
283.006
283.006
283.003
283.002
283.002
283.006
283.01
283.009
283.009
283.011
283.011
283.014
283.014
283.011
283.014
283.016
283.015
283.016
283.013
283.01
283.015
283.016
283.015
283.016
283.011
283.008
283.016
283.014
283.346
283.274
283.234
283.205
283.165
283.128
283.084
283.045
283.003
282.969
282.937
282.916
282.9
282.895
282.897
282.906
282.919
282.932
282.943
282.95
282.951
282.945
282.935
282.925
282.916
282.912
282.914
282.923
282.936
282.947
282.955
282.958
282.956
282.952
282.946
282.944
282.948
282.955
282.965
282.973
282.976
282.978
282.976
282.973
282.972
282.975
282.984
282.991
282.996
282.997
282.995
282.996
282.997
282.999
283.004
283.009
283.015
283.017
283.015
283.014
283.016
283.022
283.029
283.031
283.029
283.029
283.031
283.036
283.041
283.041
283.043
283.046
283.048
283.052
283.053
283.052
283.055
283.058
283.059
283.061
283.059
283.057
283.063
283.065
283.065
283.067
283.064
283.062
283.07
283.071
283.113
283.083
283.056
283.037
283.009
282.985
282.957
282.934
282.911
282.895
282.883
282.879
282.881
282.891
282.907
282.926
282.947
282.966
282.981
282.99
282.992
282.989
282.981
282.974
282.97
282.97
282.976
282.987
283.001
283.012
283.02
283.022
283.019
283.014
283.009
283.008
283.012
283.02
283.03
283.036
283.038
283.038
283.035
283.032
283.031
283.034
283.041
283.048
283.051
283.051
283.047
283.047
283.048
283.05
283.054
283.057
283.061
283.063
283.059
283.058
283.059
283.064
283.07
283.071
283.067
283.066
283.067
283.071
283.076
283.075
283.076
283.078
283.078
283.082
283.084
283.081
283.084
283.086
283.086
283.088
283.086
283.083
283.087
283.089
283.089
283.091
283.087
283.084
283.09
283.091
285.933
287.074
287.233
287.193
287.149
287.094
287.046
286.992
286.945
286.898
286.86
286.826
286.803
286.786
286.779
286.778
286.781
286.783
286.785
286.781
286.772
286.756
286.735
286.715
286.696
286.683
286.675
286.674
286.678
286.68
286.678
286.672
286.661
286.648
286.633
286.622
286.616
286.616
286.617
286.616
286.612
286.604
286.594
286.583
286.574
286.569
286.57
286.569
286.567
286.56
286.55
286.543
286.536
286.531
286.529
286.526
286.525
286.52
286.51
286.502
286.497
286.495
286.496
286.49
286.481
286.475
286.469
286.467
286.466
286.459
286.454
286.45
286.445
286.442
286.437
286.429
286.426
286.422
286.417
286.412
286.404
286.395
286.395
286.391
286.386
286.381
286.373
286.363
286.374
286.36
284.845
285.748
285.924
285.9
285.855
285.803
285.754
285.703
285.655
285.609
285.57
285.537
285.513
285.497
285.49
285.489
285.492
285.495
285.496
285.493
285.484
285.468
285.448
285.428
285.41
285.396
285.389
285.388
285.391
285.394
285.393
285.387
285.376
285.363
285.348
285.337
285.332
285.331
285.333
285.332
285.327
285.321
285.31
285.3
285.291
285.286
285.286
285.286
285.284
285.277
285.267
285.26
285.254
285.249
285.247
285.244
285.242
285.238
285.228
285.22
285.216
285.214
285.214
285.209
285.2
285.193
285.188
285.186
285.185
285.178
285.173
285.169
285.164
285.161
285.156
285.148
285.145
285.141
285.135
285.131
285.123
285.114
285.114
285.11
285.104
285.1
285.091
285.081
285.091
285.078
284.413
284.942
285.092
285.068
285.026
284.97
284.921
284.867
284.819
284.771
284.732
284.698
284.674
284.656
284.648
284.646
284.648
284.65
284.651
284.647
284.636
284.62
284.599
284.578
284.559
284.545
284.537
284.536
284.538
284.54
284.538
284.532
284.52
284.507
284.492
284.48
284.475
284.474
284.475
284.473
284.468
284.461
284.45
284.44
284.43
284.425
284.425
284.425
284.421
284.414
284.404
284.397
284.39
284.385
284.383
284.38
284.378
284.373
284.363
284.355
284.35
284.348
284.348
284.342
284.333
284.326
284.32
284.319
284.317
284.31
284.305
284.3
284.295
284.292
284.287
284.278
284.276
284.272
284.265
284.261
284.253
284.244
284.243
284.239
284.234
284.229
284.221
284.209
284.219
284.207
284.177
284.422
284.509
284.487
284.444
284.392
284.342
284.29
284.242
284.196
284.157
284.123
284.099
284.082
284.074
284.072
284.074
284.077
284.077
284.074
284.063
284.047
284.027
284.006
283.987
283.973
283.965
283.963
283.966
283.968
283.966
283.959
283.948
283.934
283.919
283.907
283.902
283.9
283.901
283.899
283.895
283.887
283.876
283.865
283.856
283.85
283.85
283.85
283.846
283.839
283.829
283.822
283.815
283.809
283.806
283.803
283.801
283.796
283.786
283.777
283.772
283.77
283.77
283.764
283.754
283.747
283.742
283.739
283.738
283.73
283.725
283.721
283.715
283.712
283.706
283.698
283.694
283.69
283.684
283.679
283.67
283.661
283.661
283.656
283.65
283.645
283.636
283.625
283.634
283.621
284.154
284.218
284.251
284.212
284.17
284.113
284.064
284.01
283.962
283.914
283.875
283.841
283.817
283.799
283.791
283.789
283.791
283.792
283.793
283.788
283.778
283.761
283.74
283.72
283.7
283.686
283.678
283.676
283.678
283.68
283.678
283.671
283.659
283.645
283.63
283.618
283.612
283.611
283.612
283.61
283.605
283.597
283.586
283.575
283.565
283.56
283.559
283.558
283.555
283.548
283.537
283.53
283.523
283.517
283.514
283.511
283.509
283.503
283.493
283.484
283.479
283.477
283.477
283.471
283.461
283.454
283.448
283.446
283.444
283.436
283.431
283.426
283.421
283.417
283.412
283.403
283.4
283.395
283.389
283.384
283.375
283.366
283.365
283.361
283.355
283.35
283.341
283.33
283.338
283.327
284.119
284.094
284.089
284.038
283.995
283.939
283.889
283.838
283.79
283.744
283.705
283.673
283.648
283.632
283.624
283.622
283.625
283.627
283.628
283.625
283.614
283.599
283.578
283.558
283.539
283.525
283.517
283.515
283.518
283.52
283.518
283.512
283.5
283.487
283.472
283.46
283.454
283.453
283.454
283.452
283.447
283.44
283.429
283.418
283.409
283.403
283.403
283.403
283.399
283.392
283.382
283.375
283.368
283.362
283.359
283.356
283.354
283.349
283.339
283.33
283.325
283.323
283.323
283.317
283.307
283.3
283.294
283.292
283.291
283.283
283.278
283.273
283.268
283.265
283.259
283.25
283.247
283.243
283.236
283.231
283.223
283.214
283.213
283.208
283.202
283.197
283.188
283.177
283.184
283.173
284.11
284.041
284.013
283.957
283.913
283.857
283.807
283.755
283.708
283.662
283.623
283.591
283.567
283.551
283.543
283.542
283.544
283.547
283.548
283.544
283.535
283.519
283.499
283.479
283.46
283.446
283.439
283.437
283.44
283.442
283.441
283.435
283.423
283.41
283.395
283.384
283.378
283.377
283.379
283.377
283.373
283.366
283.355
283.344
283.335
283.33
283.33
283.33
283.327
283.32
283.31
283.303
283.296
283.291
283.288
283.286
283.284
283.279
283.269
283.261
283.256
283.254
283.255
283.249
283.24
283.233
283.227
283.225
283.224
283.217
283.212
283.208
283.202
283.2
283.194
283.186
283.183
283.179
283.173
283.169
283.16
283.151
283.151
283.147
283.141
283.136
283.128
283.117
283.125
283.114
284.111
284.012
283.971
283.913
283.87
283.813
283.764
283.71
283.663
283.616
283.578
283.544
283.52
283.503
283.496
283.494
283.497
283.499
283.5
283.496
283.487
283.471
283.451
283.431
283.412
283.398
283.391
283.39
283.393
283.395
283.394
283.388
283.377
283.364
283.35
283.339
283.334
283.333
283.335
283.334
283.33
283.323
283.313
283.303
283.294
283.289
283.29
283.29
283.288
283.281
283.272
283.266
283.26
283.255
283.253
283.251
283.25
283.245
283.236
283.229
283.225
283.224
283.225
283.219
283.211
283.205
283.2
283.199
283.199
283.192
283.188
283.185
283.18
283.178
283.174
283.166
283.164
283.161
283.156
283.153
283.145
283.137
283.138
283.134
283.13
283.126
283.119
283.109
283.118
283.109
284.024
283.906
283.854
283.805
283.761
283.709
283.66
283.609
283.562
283.517
283.478
283.446
283.423
283.407
283.4
283.399
283.402
283.406
283.408
283.405
283.396
283.381
283.362
283.343
283.325
283.313
283.306
283.306
283.31
283.314
283.313
283.309
283.299
283.287
283.273
283.264
283.26
283.26
283.263
283.263
283.26
283.255
283.246
283.237
283.229
283.226
283.228
283.23
283.229
283.224
283.216
283.211
283.206
283.203
283.203
283.202
283.202
283.2
283.192
283.186
283.183
283.184
283.186
283.183
283.176
283.172
283.168
283.169
283.17
283.165
283.162
283.161
283.158
283.158
283.155
283.149
283.149
283.147
283.144
283.142
283.136
283.13
283.132
283.13
283.127
283.125
283.119
283.111
283.121
283.115
283.956
283.805
283.754
283.7
283.658
283.603
283.556
283.503
283.457
283.41
283.373
283.34
283.318
283.302
283.296
283.295
283.3
283.303
283.306
283.304
283.296
283.283
283.265
283.247
283.231
283.219
283.215
283.216
283.222
283.227
283.228
283.225
283.217
283.207
283.196
283.188
283.186
283.189
283.194
283.196
283.195
283.192
283.185
283.179
283.174
283.173
283.177
283.181
283.182
283.18
283.174
283.171
283.169
283.168
283.17
283.172
283.175
283.175
283.169
283.166
283.166
283.168
283.173
283.172
283.168
283.166
283.165
283.168
283.171
283.169
283.169
283.169
283.169
283.171
283.171
283.167
283.169
283.17
283.169
283.169
283.166
283.162
283.166
283.167
283.166
283.167
283.163
283.158
283.169
283.167
283.651
283.523
283.479
283.434
283.393
283.344
283.298
283.25
283.205
283.163
283.128
283.1
283.08
283.069
283.067
283.071
283.079
283.088
283.095
283.098
283.095
283.086
283.072
283.059
283.047
283.04
283.04
283.046
283.056
283.065
283.071
283.073
283.069
283.063
283.056
283.052
283.054
283.06
283.069
283.075
283.078
283.079
283.075
283.072
283.07
283.073
283.08
283.087
283.092
283.092
283.09
283.09
283.09
283.092
283.097
283.102
283.107
283.109
283.106
283.105
283.108
283.113
283.12
283.121
283.119
283.12
283.121
283.126
283.132
283.131
283.133
283.136
283.137
283.142
283.143
283.141
283.145
283.148
283.148
283.151
283.149
283.147
283.153
283.155
283.156
283.158
283.156
283.153
283.164
283.165
283.363
283.292
283.264
283.225
283.193
283.153
283.119
283.083
283.052
283.024
283.004
282.991
282.987
282.989
283.001
283.016
283.035
283.053
283.068
283.078
283.081
283.078
283.07
283.063
283.057
283.057
283.062
283.073
283.088
283.101
283.11
283.113
283.112
283.108
283.103
283.102
283.107
283.115
283.126
283.133
283.137
283.138
283.135
283.133
283.132
283.136
283.144
283.151
283.156
283.156
283.154
283.154
283.155
283.158
283.163
283.167
283.172
283.174
283.171
283.17
283.172
283.177
283.184
283.185
283.183
283.183
283.184
283.189
283.194
283.194
283.195
283.197
283.199
283.203
283.204
283.202
283.206
283.208
283.209
283.211
283.209
283.207
283.212
283.214
283.215
283.217
283.214
283.211
283.22
283.222
286.149
287.819
288.067
288.037
287.99
287.936
287.887
287.834
287.785
287.739
287.7
287.666
287.642
287.625
287.618
287.616
287.619
287.621
287.623
287.618
287.609
287.592
287.572
287.55
287.531
287.516
287.509
287.506
287.509
287.51
287.508
287.501
287.489
287.474
287.459
287.446
287.44
287.438
287.439
287.436
287.431
287.422
287.411
287.398
287.388
287.382
287.381
287.379
287.376
287.367
287.357
287.348
287.341
287.334
287.331
287.327
287.324
287.318
287.307
287.297
287.292
287.289
287.288
287.281
287.271
287.263
287.257
287.254
287.252
287.244
287.238
287.233
287.227
287.223
287.217
287.207
287.204
287.199
287.193
287.187
287.178
287.168
287.168
287.163
287.157
287.151
287.142
287.13
287.14
287.126
284.65
285.601
285.837
285.829
285.783
285.733
285.682
285.632
285.583
285.538
285.498
285.467
285.442
285.427
285.42
285.42
285.423
285.427
285.429
285.427
285.417
285.403
285.383
285.365
285.347
285.334
285.328
285.328