/*--------------------------------*- C++ -*----------------------------------*\
  =========                 |
  \\      /  F ield         | OpenFOAM: The Open Source CFD Toolbox
   \\    /   O peration     | Website:  https://openfoam.org
    \\  /    A nd           | Version:  7
     \\/     M anipulation  |
\*---------------------------------------------------------------------------*/
FoamFile
{
    version     2.0;
    format      ascii;
    class       volScalarField;
    location    "0.455";
    object      k_0;
}
// * * * * * * * * * * * * * * * * * * * * * * * * * * * * * * * * * * * * * //

dimensions      [0 2 -2 0 0 0 0];

internalField   nonuniform List<scalar> 
13200
(
75.6132
79.8504
79.8468
79.9268
79.9142
79.9537
79.9238
79.9386
79.898
79.897
79.8552
79.85
79.8185
79.82
79.8032
79.8089
79.81
79.8043
79.8847
79.9345
17.7263
16.1097
15.0516
14.6625
14.5216
14.4919
14.4452
14.4433
14.4176
14.4152
14.393
14.3912
14.3743
14.3754
14.3642
14.368
14.3633
14.3641
14.4034
14.4237
6.92647
6.88408
6.62568
6.44573
6.36327
6.33628
6.3014
6.29001
6.26426
6.25397
6.2306
6.22134
6.20288
6.19846
6.18745
6.18688
6.18112
6.18223
6.18279
6.20463
4.93371
5.52249
5.58317
5.58853
5.58534
5.5888
5.58098
5.57659
5.56378
5.55599
5.5391
5.52662
5.50845
5.49745
5.48499
5.479
5.47278
5.46979
5.4698
5.48149
4.52229
5.27739
5.41626
5.46877
5.48608
5.50945
5.512
5.51865
5.51482
5.51545
5.50745
5.50052
5.48387
5.4733
5.45806
5.45022
5.44076
5.43613
5.43224
5.43949
4.46864
5.24703
5.40336
5.46737
5.49175
5.52312
5.53126
5.54551
5.54597
5.55277
5.55074
5.54985
5.53789
5.52769
5.51011
5.50103
5.48919
5.48306
5.47793
5.48114
4.45092
5.22926
5.38711
5.45398
5.48105
5.51624
5.5276
5.54611
5.54947
5.56136
5.56307
5.56741
5.56023
5.55288
5.5364
5.52782
5.51588
5.50898
5.50194
5.50451
4.4597
5.23181
5.38919
5.45678
5.48546
5.52267
5.53602
5.55699
5.56239
5.57748
5.58197
5.59037
5.5861
5.58119
5.56634
5.55782
5.54588
5.53805
5.53251
5.5323
4.45753
5.22625
5.38229
5.44929
5.47802
5.51555
5.52942
5.55127
5.55759
5.57418
5.58017
5.59073
5.58816
5.58499
5.57213
5.56423
5.55393
5.54587
5.54109
5.5406
4.46156
5.22774
5.38324
5.45018
5.47904
5.51669
5.53071
5.55283
5.55951
5.57667
5.58327
5.59472
5.59287
5.59046
5.57856
5.57098
5.56119
5.55298
5.54917
5.54768
4.46156
5.22774
5.38323
5.45018
5.47904
5.51669
5.53071
5.55283
5.55951
5.57667
5.58327
5.59472
5.59287
5.59046
5.57857
5.57097
5.56119
5.55295
5.54919
5.54765
4.45753
5.22626
5.38229
5.44929
5.47802
5.51555
5.52942
5.55127
5.55759
5.57418
5.58017
5.59073
5.58817
5.58498
5.57215
5.56422
5.554
5.54595
5.54116
5.54077
4.4597
5.23182
5.38919
5.45678
5.48546
5.52267
5.53602
5.55699
5.56238
5.57748
5.58197
5.59038
5.5861
5.58119
5.56636
5.5578
5.54592
5.538
5.53267
5.5322
4.45092
5.22927
5.38711
5.45399
5.48105
5.51625
5.52759
5.54612
5.54946
5.56136
5.56306
5.56742
5.56022
5.55291
5.53638
5.52792
5.51586
5.50911
5.50196
5.50478
4.46864
5.24703
5.40336
5.46737
5.49174
5.52313
5.53125
5.54553
5.54596
5.55278
5.55071
5.54987
5.53786
5.5278
5.50997
5.50126
5.48889
5.48363
5.47757
5.48167
4.52229
5.27739
5.41626
5.46878
5.48607
5.50946
5.512
5.51866
5.51479
5.51547
5.50741
5.50058
5.48379
5.4735
5.45781
5.4507
5.44007
5.43726
5.43095
5.44093
4.93371
5.52249
5.58317
5.58854
5.58533
5.58881
5.58097
5.57661
5.56375
5.55603
5.53905
5.52673
5.50832
5.49768
5.48467
5.47962
5.4718
5.4715
5.46722
5.48522
6.92647
6.88408
6.62567
6.44573
6.36327
6.33629
6.30139
6.29002
6.26424
6.254
6.23057
6.22142
6.20278
6.1986
6.18726
6.18725
6.18047
6.1837
6.17922
6.2118
17.7263
16.1097
15.0516
14.6625
14.5216
14.4919
14.4452
14.4433
14.4176
14.4152
14.3929
14.3913
14.3742
14.3756
14.364
14.3684
14.3625
14.3656
14.3972
14.4379
75.6132
79.8504
79.8468
79.9268
79.9142
79.9537
79.9237
79.9386
79.898
79.8971
79.8551
79.8503
79.8181
79.8207
79.8022
79.8107
79.8065
79.8118
79.8637
79.9971
5.9683
6.78953
6.66224
6.51136
6.48997
6.43006
6.43197
6.39567
6.3999
6.37388
6.37838
6.36013
6.36534
6.35325
6.35863
6.35059
6.35569
6.34844
6.35198
6.36987
4.06748
5.40722
5.56842
5.54951
5.52682
5.5002
5.48595
5.46781
5.45752
5.44341
5.43544
5.42557
5.4214
5.41565
5.41416
5.41124
5.41088
5.41045
5.40884
5.41102
3.50824
4.84456
5.08122
5.14614
5.17326
5.1886
5.19265
5.19409
5.1914
5.18692
5.18006
5.17333
5.167
5.16193
5.15871
5.1556
5.15575
5.15349
5.15551
5.16901
3.4428
4.77364
4.99634
5.0545
5.08116
5.10363
5.11507
5.12514
5.12898
5.13101
5.12853
5.12287
5.11504
5.10768
5.10242
5.09761
5.097
5.09363
5.09935
5.10112
3.41174
4.73803
4.95682
5.00846
5.02637
5.04415
5.05174
5.06067
5.06436
5.06906
5.06867
5.0657
5.0578
5.05004
5.04314
5.03699
5.03429
5.03
5.03048
5.03766
3.42582
4.75549
4.97277
5.02272
5.03828
5.05368
5.05863
5.06452
5.06598
5.06997
5.07003
5.06792
5.05946
5.04974
5.03921
5.03101
5.02518
5.0193
5.01948
5.02254
3.41568
4.74266
4.95935
5.00913
5.02405
5.0392
5.04326
5.04806
5.04833
5.05161
5.052
5.05093
5.04314
5.03314
5.02128
5.01247
5.0055
4.99948
4.99583
4.99857
3.42492
4.75403
4.9701
5.01978
5.0347
5.04993
5.05383
5.05834
5.05821
5.06129
5.06195
5.06154
5.05433
5.04416
5.03097
5.02137
5.01236
5.00595
5.00189
5.00343
3.42023
4.74774
4.96365
5.01328
5.02811
5.04327
5.04705
5.05145
5.05121
5.0543
5.05514
5.05511
5.04843
5.03846
5.02518
5.01539
5.00665
4.99992
4.99513
4.99615
3.42373
4.75183
4.96752
5.01708
5.03189
5.04699
5.0507
5.05504
5.05476
5.05785
5.05874
5.05882
5.05229
5.04236
5.02892
5.01902
5.00988
5.00313
4.99824
4.99913
3.42373
4.75183
4.96752
5.01708
5.03189
5.04699
5.0507
5.05504
5.05476
5.05785
5.05874
5.05882
5.05229
5.04236
5.02893
5.01901
5.00989
5.00309
4.99827
4.99909
3.42023
4.74774
4.96365
5.01328
5.02811
5.04328
5.04705
5.05145
5.05121
5.0543
5.05514
5.05511
5.04844
5.03845
5.0252
5.01538
5.00671
4.99998
4.9951
4.9962
3.42492
4.75403
4.9701
5.01979
5.0347
5.04994
5.05383
5.05834
5.05821
5.06129
5.06195
5.06154
5.05433
5.04415
5.03098
5.02135
5.01236
5.00582
5.00198
5.00328
3.41567
4.74266
4.95935
5.00914
5.02405
5.03921
5.04326
5.04807
5.04832
5.05161
5.05199
5.05094
5.04313
5.03317
5.02124
5.01254
5.00544
4.99961
4.99569
4.99873
3.42582
4.75549
4.97276
5.02273
5.03827
5.05369
5.05863
5.06453
5.06597
5.06998
5.07001
5.06794
5.05941
5.04983
5.03907
5.03118
5.02487
5.01963
5.01918
5.02271
3.41174
4.73803
4.95682
5.00846
5.02636
5.04416
5.05173
5.06069
5.06433
5.06909
5.06865
5.06575
5.05772
5.05021
5.04288
5.0374
5.03363
5.03086
5.02933
5.03854
3.4428
4.77364
4.99633
5.0545
5.08115
5.10364
5.11506
5.12516
5.12895
5.13104
5.12849
5.12296
5.11491
5.10788
5.1021
5.0981
5.09627
5.0948
5.09662
5.10433
3.50824
4.84456
5.08121
5.14614
5.17325
5.18861
5.19264
5.1941
5.19138
5.18697
5.18001
5.17342
5.16689
5.1621
5.15845
5.15599
5.15508
5.1548
5.15271
5.17391
4.06748
5.40722
5.56842
5.54951
5.52682
5.50021
5.48595
5.46782
5.45751
5.44344
5.43542
5.42562
5.42134
5.41575
5.41404
5.41147
5.4105
5.41122
5.4069
5.41695
5.9683
6.78952
6.66223
6.51136
6.48997
6.43006
6.43197
6.39568
6.3999
6.37389
6.37838
6.36016
6.36532
6.35332
6.35859
6.35076
6.35557
6.34904
6.35113
6.37403
0.87684
1.11893
0.959992
0.765709
0.655544
0.59753
0.558229
0.531132
0.509932
0.494731
0.484798
0.478329
0.474993
0.472751
0.470983
0.47093
0.467741
0.471101
0.463298
0.472028
0.146802
0.373927
0.450651
0.464688
0.463568
0.458984
0.44985
0.440719
0.431615
0.423837
0.417249
0.412552
0.408975
0.407041
0.405134
0.40476
0.403404
0.404294
0.401944
0.40538
0.0276887
0.142912
0.209968
0.242949
0.257849
0.270215
0.277752
0.285747
0.290445
0.294458
0.295514
0.29583
0.295296
0.294795
0.294133
0.293886
0.293882
0.293892
0.294137
0.295538
0.0233598
0.118849
0.175185
0.205506
0.217711
0.225708
0.229061
0.232968
0.235197
0.237823
0.239182
0.240306
0.240743
0.240939
0.241174
0.241164
0.241508
0.241379
0.242151
0.24284
0.0223233
0.113147
0.1649
0.19445
0.205702
0.212973
0.21463
0.216621
0.216823
0.217412
0.217388
0.21754
0.217426
0.217431
0.217423
0.217429
0.217624
0.217604
0.217883
0.218515
0.0232733
0.116879
0.169163
0.198183
0.209729
0.216605
0.218442
0.219921
0.219961
0.220105
0.219895
0.219658
0.219204
0.218892
0.218685
0.218473
0.218496
0.218408
0.218589
0.219203
0.0226169
0.114344
0.166062
0.195111
0.206356
0.213287
0.214955
0.216424
0.216368
0.216474
0.216161
0.21588
0.21523
0.214864
0.214477
0.21423
0.214092
0.214001
0.214004
0.214532
0.0231574
0.116538
0.168803
0.197684
0.209055
0.21583
0.21761
0.219031
0.219042
0.21915
0.218918
0.218634
0.218062
0.217649
0.217282
0.216959
0.216828
0.216643
0.216688
0.217153
0.0228283
0.115211
0.16718
0.196098
0.207336
0.214154
0.215849
0.217294
0.217275
0.217396
0.217146
0.216892
0.216297
0.215907
0.215509
0.215208
0.215039
0.214876
0.214855
0.215307
0.0230114
0.115972
0.16814
0.197006
0.208272
0.215031
0.216752
0.218171
0.218168
0.218284
0.218052
0.217794
0.217226
0.216831
0.216453
0.216138
0.215985
0.215795
0.215801
0.216234
0.0230114
0.115972
0.16814
0.197006
0.208272
0.215031
0.216751
0.218171
0.218168
0.218284
0.218052
0.217794
0.217226
0.216831
0.216453
0.21614
0.215984
0.215798
0.215801
0.216237
0.0228283
0.115211
0.16718
0.196098
0.207335
0.214154
0.215849
0.217294
0.217275
0.217396
0.217146
0.216892
0.216297
0.215906
0.21551
0.215206
0.21504
0.214873
0.214856
0.215302
0.0231573
0.116538
0.168803
0.197684
0.209055
0.21583
0.21761
0.219031
0.219042
0.21915
0.218918
0.218634
0.218063
0.217649
0.217283
0.21696
0.216829
0.216643
0.216687
0.217155
0.0226169
0.114344
0.166062
0.195111
0.206355
0.213288
0.214955
0.216424
0.216368
0.216474
0.216161
0.215881
0.21523
0.214864
0.214477
0.214228
0.214092
0.213997
0.214001
0.214524
0.0232733
0.116879
0.169163
0.198183
0.209728
0.216605
0.218441
0.219921
0.219961
0.220105
0.219895
0.21966
0.219203
0.218893
0.218684
0.218473
0.218492
0.218409
0.218584
0.219198
0.0223233
0.113147
0.1649
0.19445
0.205702
0.212974
0.21463
0.216622
0.216822
0.217412
0.217388
0.21754
0.217424
0.217431
0.21742
0.217426
0.217614
0.217596
0.21787
0.21849
0.0233598
0.118849
0.175185
0.205506
0.21771
0.225708
0.22906
0.232969
0.235196
0.237825
0.239179
0.240309
0.24074
0.240937
0.241169
0.241156
0.24149
0.241351
0.242078
0.242764
0.0276887
0.142912
0.209968
0.24295
0.257848
0.270216
0.277751
0.285749
0.290443
0.29446
0.29551
0.295831
0.29529
0.294797
0.294121
0.293871
0.293853
0.293849
0.294058
0.295383
0.146802
0.373927
0.450651
0.464688
0.463568
0.458985
0.449848
0.440722
0.43161
0.423844
0.417239
0.412565
0.408957
0.407064
0.405106
0.40478
0.403362
0.404356
0.401811
0.405421
0.87684
1.11893
0.959992
0.76571
0.655544
0.597531
0.558229
0.531134
0.509931
0.494737
0.484794
0.478347
0.474987
0.472801
0.470987
0.471033
0.46785
0.471395
0.4636
0.473152
0.87684
1.11893
0.959992
0.765709
0.655544
0.59753
0.55823
0.531133
0.509933
0.494732
0.484798
0.478329
0.474993
0.472751
0.470983
0.470929
0.467741
0.4711
0.463298
0.472028
0.146802
0.373927
0.450651
0.464688
0.463569
0.458984
0.44985
0.440719
0.431615
0.423838
0.41725
0.412552
0.408975
0.407041
0.405134
0.40476
0.403403
0.404294
0.401944
0.40538
0.0276888
0.142912
0.209968
0.24295
0.257849
0.270215
0.277753
0.285747
0.290446
0.294458
0.295515
0.29583
0.295296
0.294795
0.294134
0.293886
0.293883
0.293892
0.294138
0.295538
0.0233598
0.118849
0.175186
0.205506
0.217711
0.225708
0.229062
0.232968
0.235198
0.237823
0.239183
0.240307
0.240744
0.24094
0.241175
0.241164
0.241508
0.24138
0.242151
0.242841
0.0223233
0.113147
0.1649
0.19445
0.205703
0.212974
0.214631
0.216622
0.216823
0.217413
0.217389
0.21754
0.217426
0.217431
0.217423
0.217429
0.217625
0.217604
0.217884
0.218515
0.0232734
0.116879
0.169164
0.198183
0.209729
0.216605
0.218442
0.219921
0.219961
0.220105
0.219896
0.219659
0.219205
0.218892
0.218686
0.218473
0.218496
0.218409
0.218589
0.219204
0.0226169
0.114344
0.166063
0.195112
0.206356
0.213288
0.214956
0.216424
0.216369
0.216474
0.216162
0.215881
0.21523
0.214865
0.214477
0.214231
0.214093
0.214002
0.214004
0.214533
0.0231574
0.116538
0.168804
0.197685
0.209056
0.21583
0.21761
0.219031
0.219043
0.219151
0.218919
0.218634
0.218063
0.21765
0.217283
0.21696
0.216828
0.216643
0.216688
0.217154
0.0228283
0.115212
0.16718
0.196098
0.207336
0.214154
0.21585
0.217294
0.217276
0.217396
0.217146
0.216892
0.216297
0.215907
0.215509
0.215209
0.215039
0.214876
0.214856
0.215307
0.0230115
0.115972
0.16814
0.197007
0.208273
0.215031
0.216752
0.218171
0.218168
0.218285
0.218052
0.217795
0.217226
0.216831
0.216453
0.216139
0.215985
0.215796
0.215802
0.216234
0.0230115
0.115972
0.16814
0.197007
0.208273
0.215031
0.216752
0.218171
0.218168
0.218285
0.218052
0.217795
0.217227
0.216831
0.216453
0.21614
0.215985
0.215798
0.215801
0.216238
0.0228283
0.115212
0.16718
0.196099
0.207336
0.214154
0.21585
0.217294
0.217276
0.217396
0.217146
0.216892
0.216298
0.215906
0.21551
0.215206
0.21504
0.214874
0.214856
0.215303
0.0231574
0.116538
0.168804
0.197685
0.209055
0.21583
0.21761
0.219032
0.219043
0.219151
0.218919
0.218634
0.218063
0.21765
0.217284
0.21696
0.216829
0.216643
0.216687
0.217156
0.0226169
0.114344
0.166063
0.195112
0.206356
0.213288
0.214956
0.216424
0.216369
0.216474
0.216162
0.215881
0.21523
0.214864
0.214478
0.214229
0.214092
0.213997
0.214001
0.214525
0.0232733
0.116879
0.169164
0.198183
0.209729
0.216606
0.218442
0.219922
0.219961
0.220105
0.219895
0.21966
0.219203
0.218894
0.218684
0.218474
0.218493
0.218409
0.218585
0.219198
0.0223233
0.113147
0.1649
0.19445
0.205702
0.212974
0.21463
0.216622
0.216823
0.217413
0.217388
0.217541
0.217425
0.217432
0.21742
0.217427
0.217614
0.217596
0.21787
0.218491
0.0233598
0.118849
0.175186
0.205507
0.21771
0.225709
0.229061
0.23297
0.235196
0.237825
0.23918
0.240309
0.240741
0.240938
0.241169
0.241156
0.24149
0.241351
0.242079
0.242765
0.0276888
0.142912
0.209968
0.24295
0.257848
0.270216
0.277751
0.285749
0.290443
0.294461
0.295511
0.295831
0.29529
0.294797
0.294122
0.293872
0.293854
0.293849
0.294058
0.295383
0.146802
0.373927
0.450651
0.464688
0.463568
0.458985
0.449848
0.440722
0.43161
0.423845
0.417239
0.412566
0.408957
0.407064
0.405107
0.40478
0.403363
0.404357
0.401811
0.405422
0.87684
1.11893
0.959993
0.76571
0.655544
0.59753
0.558228
0.531133
0.50993
0.494737
0.484794
0.478347
0.474987
0.472801
0.470988
0.471033
0.467851
0.471395
0.463601
0.473152
5.9683
6.78953
6.66223
6.51135
6.48997
6.43006
6.43197
6.39567
6.39991
6.37388
6.37839
6.36013
6.36534
6.35326
6.35863
6.35059
6.35569
6.34844
6.35198
6.36987
4.06748
5.40722
5.56842
5.54951
5.52682
5.5002
5.48595
5.46781
5.45752
5.44342
5.43545
5.42557
5.42141
5.41565
5.41416
5.41124
5.41088
5.41045
5.40884
5.41102
3.50824
4.84456
5.08122
5.14614
5.17326
5.18861
5.19265
5.19409
5.1914
5.18693
5.18007
5.17334
5.16701
5.16193
5.15872
5.15561
5.15576
5.15349
5.1555
5.169
3.4428
4.77364
4.99633
5.05449
5.08116
5.10363
5.11507
5.12514
5.12898
5.13101
5.12854
5.12287
5.11504
5.10769
5.10243
5.09761
5.097
5.09363
5.09935
5.10111
3.41174
4.73803
4.95682
5.00846
5.02637
5.04415
5.05174
5.06067
5.06435
5.06906
5.06867
5.0657
5.05781
5.05005
5.04314
5.03699
5.0343
5.03
5.03048
5.03766
3.42582
4.75549
4.97277
5.02272
5.03828
5.05368
5.05863
5.06452
5.06598
5.06997
5.07003
5.06792
5.05946
5.04974
5.03921
5.03101
5.02518
5.0193
5.01948
5.02253
3.41568
4.74266
4.95935
5.00913
5.02405
5.0392
5.04326
5.04806
5.04832
5.0516
5.052
5.05094
5.04314
5.03314
5.02127
5.01247
5.0055
4.99948
4.99583
4.99856
3.42492
4.75403
4.9701
5.01979
5.0347
5.04993
5.05383
5.05834
5.05821
5.06129
5.06195
5.06154
5.05433
5.04416
5.03097
5.02137
5.01236
5.00595
5.00189
5.00343
3.42023
4.74774
4.96365
5.01328
5.02811
5.04327
5.04705
5.05145
5.05121
5.0543
5.05514
5.05511
5.04843
5.03846
5.02518
5.01539
5.00665
4.99992
4.99513
4.99614
3.42374
4.75182
4.96752
5.01708
5.03189
5.04699
5.0507
5.05504
5.05476
5.05785
5.05874
5.05882
5.05229
5.04236
5.02892
5.01902
5.00988
5.00312
4.99824
4.99913
3.42373
4.75183
4.96752
5.01708
5.03189
5.04699
5.0507
5.05504
5.05476
5.05785
5.05874
5.05882
5.05229
5.04235
5.02893
5.01901
5.00988
5.00309
4.99827
4.99908
3.42023
4.74774
4.96365
5.01328
5.02811
5.04328
5.04705
5.05145
5.05121
5.0543
5.05514
5.05511
5.04844
5.03845
5.0252
5.01538
5.00671
4.99997
4.9951
4.9962
3.42492
4.75403
4.9701
5.01979
5.0347
5.04994
5.05383
5.05834
5.05821
5.06129
5.06195
5.06154
5.05433
5.04415
5.03098
5.02134
5.01236
5.00582
5.00197
5.00328
3.41567
4.74266
4.95935
5.00914
5.02405
5.03921
5.04326
5.04806
5.04832
5.05161
5.05199
5.05094
5.04313
5.03317
5.02124
5.01253
5.00544
4.99961
4.99568
4.99873
3.42582
4.75549
4.97276
5.02273
5.03827
5.05369
5.05863
5.06453
5.06597
5.06998
5.07001
5.06794
5.05941
5.04982
5.03907
5.03117
5.02487
5.01963
5.01917
5.02271
3.41174
4.73803
4.95682
5.00846
5.02636
5.04416
5.05172
5.06069
5.06433
5.06909
5.06865
5.06574
5.05771
5.05021
5.04288
5.0374
5.03362
5.03086
5.02933
5.03855
3.4428
4.77364
4.99633
5.0545
5.08115
5.10364
5.11506
5.12516
5.12895
5.13104
5.12849
5.12295
5.1149
5.10788
5.1021
5.09809
5.09627
5.0948
5.09662
5.10434
3.50824
4.84456
5.08121
5.14614
5.17325
5.18861
5.19264
5.1941
5.19138
5.18696
5.18
5.17341
5.16688
5.1621
5.15844
5.15599
5.15507
5.1548
5.15271
5.17391
4.06748
5.40722
5.56842
5.54952
5.52682
5.50021
5.48594
5.46782
5.4575
5.44343
5.43541
5.42561
5.42134
5.41574
5.41404
5.41147
5.4105
5.41122
5.4069
5.41695
5.9683
6.78953
6.66224
6.51136
6.48997
6.43006
6.43197
6.39568
6.3999
6.37389
6.37837
6.36015
6.36531
6.35332
6.35859
6.35076
6.35557
6.34904
6.35113
6.37403
75.6132
79.8504
79.8468
79.9268
79.9142
79.9537
79.9238
79.9386
79.8981
79.897
79.8553
79.85
79.8186
79.82
79.8033
79.8089
79.81
79.8043
79.8847
79.9344
17.7263
16.1097
15.0516
14.6625
14.5216
14.4919
14.4452
14.4433
14.4176
14.4152
14.393
14.3912
14.3743
14.3754
14.3642
14.368
14.3633
14.3641
14.4034
14.4237
6.92647
6.88408
6.62568
6.44573
6.36327
6.33628
6.3014
6.29001
6.26426
6.25397
6.23061
6.22135
6.20289
6.19847
6.18745
6.18688
6.18112
6.18223
6.18279
6.20463
4.93371
5.52249
5.58317
5.58853
5.58534
5.5888
5.58098
5.57659
5.56378
5.55599
5.53911
5.52663
5.50846
5.49746
5.485
5.479
5.47278
5.46979
5.4698
5.48148
4.52229
5.27739
5.41626
5.46877
5.48608
5.50945
5.512
5.51865
5.51482
5.51544
5.50745
5.50053
5.48387
5.47331
5.45807
5.45022
5.44077
5.43613
5.43224
5.43949
4.46864
5.24703
5.40336
5.46737
5.49175
5.52312
5.53126
5.54551
5.54597
5.55277
5.55074
5.54985
5.53789
5.52769
5.51011
5.50103
5.48919
5.48306
5.47793
5.48114
4.45092
5.22926
5.38711
5.45398
5.48105
5.51624
5.5276
5.54611
5.54947
5.56136
5.56307
5.56741
5.56023
5.55288
5.5364
5.52782
5.51588
5.50898
5.50194
5.50451
4.4597
5.23181
5.38919
5.45678
5.48546
5.52267
5.53602
5.55699
5.56238
5.57748
5.58197
5.59037
5.5861
5.58119
5.56634
5.55782
5.54588
5.53805
5.53251
5.53229
4.45753
5.22625
5.38229
5.44929
5.47802
5.51555
5.52942
5.55126
5.55759
5.57418
5.58017
5.59073
5.58816
5.58498
5.57213
5.56423
5.55393
5.54587
5.54109
5.5406
4.46156
5.22774
5.38323
5.45018
5.47904
5.51669
5.53071
5.55283
5.55951
5.57667
5.58327
5.59472
5.59287
5.59046
5.57856
5.57097
5.56118
5.55298
5.54917
5.54768
4.46156
5.22774
5.38323
5.45018
5.47904
5.51669
5.53071
5.55283
5.55951
5.57667
5.58327
5.59472
5.59287
5.59046
5.57857
5.57097
5.56119
5.55295
5.54918
5.54765
4.45753
5.22626
5.38229
5.44929
5.47802
5.51555
5.52942
5.55127
5.55759
5.57418
5.58017
5.59073
5.58817
5.58498
5.57215
5.56422
5.55399
5.54595
5.54116
5.54077
4.4597
5.23182
5.38919
5.45678
5.48546
5.52267
5.53602
5.55699
5.56238
5.57748
5.58197
5.59037
5.5861
5.58119
5.56635
5.5578
5.54592
5.53799
5.53267
5.53219
4.45092
5.22927
5.38711
5.45399
5.48105
5.51625
5.52759
5.54612
5.54946
5.56136
5.56306
5.56742
5.56022
5.55291
5.53638
5.52791
5.51585
5.5091
5.50195
5.50478
4.46864
5.24703
5.40336
5.46737
5.49174
5.52313
5.53125
5.54552
5.54596
5.55278
5.55071
5.54987
5.53785
5.52779
5.50997
5.50126
5.48888
5.48362
5.47757
5.48167
4.52229
5.27739
5.41626
5.46878
5.48607
5.50946
5.512
5.51866
5.51479
5.51547
5.50741
5.50058
5.48378
5.47349
5.4578
5.45069
5.44006
5.43726
5.43095
5.44093
4.93371
5.52249
5.58317
5.58854
5.58533
5.58881
5.58096
5.57661
5.56375
5.55602
5.53905
5.52672
5.50831
5.49767
5.48466
5.47961
5.47179
5.4715
5.46722
5.48523
6.92647
6.88408
6.62567
6.44573
6.36327
6.33629
6.30139
6.29002
6.26424
6.25399
6.23056
6.22141
6.20277
6.19858
6.18725
6.18724
6.18047
6.1837
6.17922
6.21181
17.7263
16.1097
15.0516
14.6625
14.5215
14.4919
14.4452
14.4433
14.4176
14.4152
14.3929
14.3913
14.3742
14.3756
14.364
14.3684
14.3625
14.3656
14.3972
14.4379
75.6132
79.8504
79.8468
79.9268
79.9142
79.9537
79.9237
79.9386
79.898
79.8971
79.855
79.8503
79.8181
79.8206
79.8021
79.8107
79.8065
79.8118
79.8637
79.9971
184.349
187.143
188.533
189.261
189.503
189.623
189.634
189.668
189.661
189.682
189.675
189.691
189.686
189.698
189.693
189.702
189.698
189.705
189.702
189.707
189.704
189.708
189.705
189.709
189.706
189.708
189.705
189.707
189.704
189.705
189.702
189.703
189.7
189.701
189.698
189.698
189.695
189.694
189.691
189.691
189.688
189.687
189.684
189.683
189.679
189.677
189.673
189.671
189.667
189.664
189.66
189.657
189.653
189.649
189.644
189.64
189.635
189.63
189.626
189.622
189.619
189.615
189.613
189.611
189.609
189.608
189.605
189.605
189.601
189.6
189.594
189.594
189.586
189.585
189.576
189.573
189.562
189.557
189.544
189.537
189.523
189.513
189.499
189.489
189.475
189.465
189.451
189.448
189.471
188.325
58.8686
60.2007
60.617
60.8489
60.9053
60.9491
60.9408
60.9587
60.948
60.9611
60.952
60.9623
60.9546
60.9631
60.9564
60.9634
60.9575
60.9634
60.9582
60.9632
60.9585
60.9629
60.9585
60.9624
60.9583
60.9617
60.958
60.9609
60.9575
60.9601
60.9568
60.9591
60.956
60.9581
60.9551
60.9569
60.954
60.9556
60.9528
60.9543
60.9516
60.9529
60.9504
60.9516
60.9492
60.9503
60.9482
60.9494
60.9477
60.949
60.9479
60.9496
60.9491
60.9513
60.9518
60.9548
60.9565
60.9606
60.9641
60.9697
60.9751
60.9825
60.99
60.9993
61.0089
61.0201
61.0313
61.0443
61.0567
61.0711
61.0838
61.0992
61.1113
61.1268
61.1374
61.1519
61.1603
61.1733
61.1793
61.1904
61.1944
61.2036
61.2057
61.2131
61.2135
61.2189
61.2173
61.2233
61.2204
60.8646
26.3135
27.396
27.5489
27.652
27.6531
27.6778
27.6587
27.6728
27.6555
27.6665
27.6513
27.6602
27.6469
27.6542
27.6423
27.6485
27.6377
27.6429
27.6332
27.6376
27.6286
27.6325
27.6241
27.6274
27.6196
27.6224
27.615
27.6175
27.6105
27.6125
27.6059
27.6076
27.6012
27.6026
27.5964
27.5974
27.5914
27.5922
27.5863
27.5869
27.5812
27.5815
27.576
27.5761
27.5707
27.5707
27.5656
27.5655
27.5608
27.5608
27.5565
27.5568
27.5531
27.5537
27.551
27.5522
27.5505
27.5526
27.5524
27.5556
27.5572
27.5619
27.5653
27.5717
27.5771
27.5852
27.5924
27.6022
27.611
27.6222
27.6321
27.6444
27.6547
27.6677
27.6779
27.6908
27.7003
27.7128
27.7212
27.7329
27.7399
27.7505
27.7561
27.7656
27.7696
27.7778
27.7795
27.7873
27.7841
27.6312
18.7227
19.9145
20.0189
20.0961
20.0861
20.1066
20.0821
20.0929
20.0695
20.0772
20.0562
20.0621
20.0431
20.0477
20.0303
20.0339
20.0179
20.0207
20.0058
20.0079
19.9941
19.9956
19.9826
19.9836
19.9712
19.9718
19.9601
19.9603
19.949
19.9488
19.938
19.9375
19.9269
19.9261
19.9158
19.9147
19.9047
19.9032
19.8935
19.8918
19.8823
19.8803
19.871
19.8688
19.8598
19.8574
19.8487
19.8463
19.838
19.8357
19.828
19.8259
19.8188
19.8171
19.8109
19.8097
19.8047
19.8044
19.8008
19.8016
19.7998
19.8019
19.8018
19.8054
19.8072
19.8123
19.8158
19.8224
19.8272
19.8351
19.8411
19.8501
19.8566
19.8663
19.8729
19.8827
19.889
19.8986
19.9043
19.9134
19.9183
19.9268
19.9309
19.9388
19.942
19.949
19.9508
19.9575
19.9576
19.87
17.0725
18.3851
18.4918
18.5704
18.5622
18.5846
18.5583
18.5673
18.54
18.5453
18.5201
18.5238
18.5007
18.5031
18.4819
18.4834
18.4637
18.4645
18.4461
18.4462
18.4289
18.4286
18.4121
18.4114
18.3957
18.3946
18.3796
18.3781
18.3637
18.3619
18.348
18.3459
18.3324
18.3299
18.3168
18.3141
18.3013
18.2983
18.2859
18.2826
18.2705
18.267
18.2552
18.2515
18.2401
18.2363
18.2252
18.2215
18.211
18.2074
18.1976
18.1943
18.1854
18.1825
18.1747
18.1725
18.166
18.1648
18.16
18.1601
18.1571
18.1587
18.1577
18.1609
18.1619
18.1666
18.1694
18.1757
18.1799
18.1876
18.1929
18.2017
18.2076
18.217
18.223
18.2326
18.2382
18.2475
18.2525
18.2613
18.2657
18.2739
18.2776
18.2853
18.2882
18.2952
18.2969
18.3033
18.306
18.2478
16.7833
18.2359
18.3573
18.445
18.4415
18.468
18.4411
18.4497
18.4195
18.4235
18.3952
18.3974
18.3714
18.3725
18.3484
18.3487
18.3263
18.3258
18.3048
18.3038
18.284
18.2826
18.2638
18.2619
18.244
18.2418
18.2246
18.2221
18.2056
18.2028
18.1869
18.1838
18.1683
18.1649
18.1499
18.1462
18.1315
18.1276
18.1134
18.1092
18.0953
18.091
18.0775
18.073
18.0598
18.0552
18.0426
18.0381
18.0262
18.0219
18.0107
18.0068
17.9967
17.9933
17.9845
17.9819
17.9746
17.9731
17.9677
17.9677
17.9644
17.966
17.9649
17.9684
17.9694
17.9746
17.9776
17.9845
17.9891
17.9974
18.0032
18.0127
18.019
18.0292
18.0356
18.046
18.0519
18.062
18.0673
18.0769
18.0815
18.0904
18.0943
18.1026
18.1058
18.1134
18.1154
18.1222
18.1252
18.0884
16.7007
18.2443
18.3845
18.4854
18.4863
18.5173
18.4902
18.4991
18.4666
18.4698
18.4391
18.4405
18.4122
18.4125
18.3863
18.3858
18.3614
18.3602
18.3373
18.3356
18.314
18.3119
18.2914
18.2889
18.2693
18.2665
18.2478
18.2447
18.2266
18.2232
18.2058
18.2021
18.1853
18.1813
18.1648
18.1605
18.1446
18.14
18.1245
18.1197
18.1046
18.0997
18.0849
18.0798
18.0655
18.0604
18.0466
18.0416
18.0285
18.0238
18.0116
18.0073
17.9963
17.9926
17.9829
17.9801
17.9722
17.9707
17.9648
17.9648
17.9613
17.9632
17.9621
17.9659
17.9671
17.9728
17.9762
17.9837
17.9888
17.9979
18.0043
18.0146
18.0216
18.0327
18.0397
18.051
18.0576
18.0685
18.0744
18.0847
18.0898
18.0996
18.1039
18.113
18.1165
18.1249
18.1271
18.1345
18.1374
18.1154
16.7337
18.3579
18.5153
18.624
18.6287
18.6636
18.6365
18.6455
18.6114
18.614
18.5815
18.5823
18.5523
18.552
18.5243
18.5232
18.4973
18.4956
18.4713
18.4692
18.4463
18.4437
18.422
18.4191
18.3983
18.3951
18.3752
18.3717
18.3526
18.3488
18.3304
18.3263
18.3085
18.3041
18.2867
18.282
18.265
18.2601
18.2436
18.2385
18.2224
18.2171
18.2014
18.1959
18.1807
18.1752
18.1605
18.1551
18.1413
18.1362
18.1233
18.1187
18.107
18.103
18.0928
18.0898
18.0815
18.0798
18.0737
18.0737
18.0701
18.0721
18.0711
18.0752
18.0767
18.0829
18.0866
18.0947
18.1003
18.11
18.1169
18.128
18.1356
18.1475
18.1551
18.1671
18.1743
18.186
18.1923
18.2035
18.209
18.2194
18.2242
18.2339
18.2378
18.2468
18.2493
18.2573
18.2599
18.2492
16.7341
18.3991
18.571
18.6887
18.6968
18.7342
18.7067
18.716
18.6808
18.6831
18.6496
18.65
18.619
18.6184
18.5896
18.5883
18.5615
18.5595
18.5344
18.532
18.5083
18.5055
18.4831
18.4799
18.4585
18.455
18.4345
18.4307
18.411
18.407
18.3879
18.3836
18.3651
18.3605
18.3425
18.3376
18.32
18.3149
18.2978
18.2924
18.2758
18.2702
18.254
18.2482
18.2324
18.2266
18.2115
18.2058
18.1914
18.1861
18.1727
18.1679
18.1558
18.1516
18.1411
18.138
18.1293
18.1276
18.1213
18.1214
18.1177
18.1199
18.1189
18.1232
18.1249
18.1313
18.1354
18.1438
18.1498
18.1601
18.1673
18.179
18.187
18.1995
18.2075
18.2201
18.2277
18.2399
18.2467
18.2583
18.2642
18.2751
18.2802
18.2904
18.2946
18.3041
18.3068
18.3152
18.3175
18.3137
16.7521
18.4428
18.6215
18.7409
18.7472
18.7843
18.7561
18.7652
18.7294
18.7315
18.6975
18.6975
18.666
18.6652
18.636
18.6344
18.6071
18.605
18.5795
18.5769
18.5528
18.5499
18.5271
18.5238
18.502
18.4984
18.4775
18.4737
18.4536
18.4495
18.4302
18.4257
18.4069
18.4022
18.3839
18.3788
18.361
18.3557
18.3384
18.3329
18.3159
18.3102
18.2937
18.2878
18.2718
18.2659
18.2504
18.2446
18.23
18.2245
18.2109
18.206
18.1937
18.1894
18.1787
18.1755
18.1667
18.165
18.1586
18.1587
18.155
18.1572
18.1563
18.1608
18.1625
18.1691
18.1733
18.182
18.1881
18.1987
18.2062
18.2181
18.2264
18.2391
18.2474
18.2603
18.2681
18.2806
18.2876
18.2995
18.3056
18.3167
18.322
18.3324
18.3367
18.3465
18.3493
18.358
18.3603
18.3607
16.7526
18.4423
18.6165
18.73
18.732
18.7658
18.7364
18.7449
18.7089
18.7109
18.6769
18.6769
18.6454
18.6445
18.6153
18.6137
18.5865
18.5843
18.5588
18.5563
18.5322
18.5292
18.5064
18.5031
18.4814
18.4777
18.4569
18.453
18.433
18.4288
18.4095
18.4051
18.3863
18.3815
18.3632
18.3582
18.3404
18.3351
18.3177
18.3122
18.2953
18.2896
18.273
18.2672
18.2511
18.2452
18.2297
18.224
18.2093
18.2039
18.1903
18.1853
18.173
18.1687
18.158
18.1548
18.146
18.1443
18.1378
18.138
18.1342
18.1364
18.1355
18.1399
18.1417
18.1483
18.1525
18.1611
18.1672
18.1778
18.1853
18.1972
18.2054
18.2181
18.2264
18.2393
18.247
18.2596
18.2665
18.2784
18.2845
18.2956
18.3009
18.3113
18.3156
18.3253
18.3282
18.3369
18.3391
18.3416
16.7364
18.3975
18.556
18.656
18.6501
18.6782
18.6467
18.6541
18.6183
18.6205
18.5869
18.5872
18.5562
18.5556
18.5268
18.5254
18.4987
18.4967
18.4716
18.4692
18.4455
18.4427
18.4202
18.4171
18.3957
18.3922
18.3717
18.3679
18.3482
18.3442
18.3251
18.3208
18.3023
18.2977
18.2797
18.2747
18.2572
18.252
18.2349
18.2295
18.2129
18.2073
18.1911
18.1853
18.1695
18.1637
18.1485
18.1429
18.1285
18.1231
18.1098
18.1049
18.0928
18.0886
18.078
18.0749
18.0662
18.0645
18.0582
18.0583
18.0545
18.0567
18.0557
18.06
18.0616
18.068
18.072
18.0805
18.0864
18.0966
18.1038
18.1154
18.1234
18.1358
18.1438
18.1564
18.1639
18.1761
18.1828
18.1944
18.2002
18.2111
18.2161
18.2263
18.2304
18.2399
18.2425
18.2511
18.2525
18.2548
16.7362
18.3481
18.4781
18.5559
18.5398
18.561
18.5278
18.5343
18.4994
18.5016
18.469
18.4696
18.4397
18.4393
18.4115
18.4104
18.3845
18.3827
18.3584
18.3563
18.3334
18.3308
18.3091
18.3061
18.2854
18.2821
18.2623
18.2587
18.2397
18.2358
18.2174
18.2133
18.1954
18.191
18.1736
18.1689
18.152
18.147
18.1305
18.1254
18.1093
18.104
18.0883
18.0828
18.0675
18.062
18.0473
18.0419
18.028
18.0229
18.01
18.0053
17.9936
17.9896
17.9794
17.9764
17.968
17.9663
17.9601
17.9601
17.9564
17.9584
17.9573
17.9613
17.9627
17.9688
17.9725
17.9804
17.9859
17.9956
18.0024
18.0134
18.0209
18.0327
18.0402
18.0522
18.0592
18.0708
18.0771
18.0881
18.0935
18.1039
18.1086
18.1182
18.122
18.1309
18.1334
18.1415
18.1427
18.1445
16.7023
18.2172
18.3134
18.3685
18.3419
18.3565
18.3222
18.3281
18.2947
18.2975
18.2667
18.268
18.2397
18.2398
18.2136
18.213
18.1885
18.1873
18.1644
18.1626
18.141
18.1389
18.1183
18.1158
18.0962
18.0934
18.0746
18.0715
18.0534
18.05
18.0326
18.0289
18.012
18.008
17.9915
17.9872
17.9712
17.9667
17.9511
17.9463
17.9312
17.9262
17.9114