/*--------------------------------*- C++ -*----------------------------------*\
  =========                 |
  \\      /  F ield         | OpenFOAM: The Open Source CFD Toolbox
   \\    /   O peration     | Website:  https://openfoam.org
    \\  /    A nd           | Version:  7
     \\/     M anipulation  |
\*---------------------------------------------------------------------------*/
FoamFile
{
    version     2.0;
    format      ascii;
    class       volVectorField;
    location    "5.8";
    object      U;
}
// * * * * * * * * * * * * * * * * * * * * * * * * * * * * * * * * * * * * * //

dimensions      [0 1 -1 0 0 0 0];

internalField   nonuniform List<vector> 
5760
(
(2.25629 0.12304 0)
(1.31029 0.0179289 0)
(1.06879 -0.00281478 0)
(0.939653 -0.000735773 0)
(0.868214 -0.000434126 0)
(0.828669 -0.000490999 0)
(0.808316 -0.000220655 0)
(0.793541 7.96124e-05 0)
(0.778299 0.000153081 0)
(0.763533 0.000100887 0)
(0.750962 5.98377e-05 0)
(0.740611 5.66972e-05 0)
(0.73174 6.42695e-05 0)
(0.723844 6.60902e-05 0)
(0.71675 6.31928e-05 0)
(0.710391 5.98378e-05 0)
(0.704679 5.74832e-05 0)
(0.699517 5.56781e-05 0)
(0.694825 5.38763e-05 0)
(0.690542 5.20338e-05 0)
(0.686622 5.02645e-05 0)
(0.683023 4.86129e-05 0)
(0.67971 4.70635e-05 0)
(0.676653 4.5597e-05 0)
(0.673826 4.42076e-05 0)
(0.671206 4.28918e-05 0)
(0.668775 4.16468e-05 0)
(0.666516 4.04685e-05 0)
(0.664413 3.93525e-05 0)
(0.662453 3.82942e-05 0)
(0.660624 3.72896e-05 0)
(0.658917 3.63358e-05 0)
(0.657321 3.54275e-05 0)
(0.655829 3.45643e-05 0)
(0.654433 3.37398e-05 0)
(0.653126 3.29532e-05 0)
(0.651902 3.22072e-05 0)
(0.650755 3.14835e-05 0)
(0.649681 3.07924e-05 0)
(0.648675 3.01379e-05 0)
(0.647732 2.95055e-05 0)
(0.646849 2.88953e-05 0)
(0.646023 2.83087e-05 0)
(0.64525 2.77438e-05 0)
(0.644527 2.71975e-05 0)
(0.643851 2.66718e-05 0)
(0.643221 2.61536e-05 0)
(0.642633 2.56664e-05 0)
(0.642088 2.51688e-05 0)
(0.64158 2.47534e-05 0)
(0.641109 2.43027e-05 0)
(0.640674 2.38326e-05 0)
(0.640272 2.34056e-05 0)
(0.639904 2.29959e-05 0)
(0.639568 2.25884e-05 0)
(0.639262 2.21896e-05 0)
(0.638985 2.18006e-05 0)
(0.638737 2.14257e-05 0)
(0.638516 2.10554e-05 0)
(0.638322 2.06873e-05 0)
(0.638154 2.03196e-05 0)
(0.63801 1.99811e-05 0)
(0.637891 1.96586e-05 0)
(0.637795 1.9318e-05 0)
(0.637721 1.89639e-05 0)
(0.63767 1.86343e-05 0)
(0.63764 1.83433e-05 0)
(0.637631 1.80361e-05 0)
(0.637642 1.77296e-05 0)
(0.637672 1.74366e-05 0)
(0.637721 1.71496e-05 0)
(0.637788 1.68683e-05 0)
(0.637872 1.65951e-05 0)
(0.637972 1.63294e-05 0)
(0.638089 1.60709e-05 0)
(0.638221 1.58194e-05 0)
(0.638368 1.55748e-05 0)
(0.638529 1.53371e-05 0)
(0.638703 1.51068e-05 0)
(0.638891 1.48835e-05 0)
(0.63909 1.46668e-05 0)
(0.639301 1.44567e-05 0)
(0.639523 1.42536e-05 0)
(0.639756 1.40575e-05 0)
(0.639999 1.38677e-05 0)
(0.640251 1.36837e-05 0)
(0.640512 1.35064e-05 0)
(0.640781 1.33352e-05 0)
(0.641058 1.31698e-05 0)
(0.641343 1.30103e-05 0)
(0.641635 1.28565e-05 0)
(0.641933 1.27081e-05 0)
(0.642237 1.25649e-05 0)
(0.642548 1.24269e-05 0)
(0.642863 1.22937e-05 0)
(0.643184 1.21652e-05 0)
(0.64351 1.20413e-05 0)
(0.64384 1.19218e-05 0)
(0.644174 1.18065e-05 0)
(0.644512 1.16951e-05 0)
(0.644853 1.15876e-05 0)
(0.645198 1.14838e-05 0)
(0.645546 1.13836e-05 0)
(0.645897 1.12868e-05 0)
(0.64625 1.11933e-05 0)
(0.646606 1.1103e-05 0)
(0.646964 1.10157e-05 0)
(0.647324 1.09313e-05 0)
(0.647685 1.08498e-05 0)
(0.648049 1.0771e-05 0)
(0.648414 1.06948e-05 0)
(0.648781 1.06211e-05 0)
(0.649148 1.05497e-05 0)
(0.649517 1.04806e-05 0)
(0.649887 1.04137e-05 0)
(0.650258 1.03488e-05 0)
(0.65063 1.02858e-05 0)
(0.651002 1.02247e-05 0)
(0.651375 1.01652e-05 0)
(0.651749 1.01075e-05 0)
(0.652123 1.00514e-05 0)
(0.652497 9.99673e-06 0)
(0.652872 9.94355e-06 0)
(0.653247 9.89177e-06 0)
(0.653622 9.84136e-06 0)
(0.653997 9.79228e-06 0)
(0.654373 9.74447e-06 0)
(0.654748 9.69796e-06 0)
(0.655124 9.65264e-06 0)
(0.655499 9.60853e-06 0)
(0.655874 9.56559e-06 0)
(0.656249 9.52373e-06 0)
(0.656624 9.48299e-06 0)
(0.656999 9.4433e-06 0)
(0.657373 9.40458e-06 0)
(0.657747 9.36686e-06 0)
(0.658121 9.33007e-06 0)
(0.658494 9.29421e-06 0)
(0.658867 9.25925e-06 0)
(0.65924 9.22519e-06 0)
(0.659612 9.19205e-06 0)
(0.659984 9.15983e-06 0)
(0.660355 9.12856e-06 0)
(0.660726 9.09832e-06 0)
(0.661097 9.06911e-06 0)
(0.661467 9.04107e-06 0)
(0.661836 9.01418e-06 0)
(0.662205 8.98856e-06 0)
(0.662573 8.96429e-06 0)
(0.662941 8.94144e-06 0)
(0.663308 8.92015e-06 0)
(0.663675 8.90043e-06 0)
(0.664041 8.88241e-06 0)
(0.664407 8.86616e-06 0)
(0.664772 8.85176e-06 0)
(0.665136 8.83937e-06 0)
(0.6655 8.82901e-06 0)
(0.665863 8.82084e-06 0)
(0.666225 8.81499e-06 0)
(0.666587 8.81153e-06 0)
(0.666948 8.81073e-06 0)
(0.667309 8.81262e-06 0)
(0.667668 8.81747e-06 0)
(0.668028 8.82537e-06 0)
(0.668386 8.83658e-06 0)
(0.668744 8.85142e-06 0)
(0.669101 8.86998e-06 0)
(0.669457 8.89256e-06 0)
(0.669813 8.91937e-06 0)
(0.670168 8.95055e-06 0)
(0.670522 8.98656e-06 0)
(0.670876 9.02747e-06 0)
(0.671229 9.07352e-06 0)
(0.671581 9.12495e-06 0)
(0.671932 9.18189e-06 0)
(0.672282 9.24468e-06 0)
(0.672632 9.31347e-06 0)
(0.672981 9.38847e-06 0)
(0.673329 9.46979e-06 0)
(0.673677 9.55756e-06 0)
(0.674024 9.65192e-06 0)
(0.674369 9.75308e-06 0)
(0.674714 9.86175e-06 0)
(0.675059 9.97807e-06 0)
(0.675402 1.01021e-05 0)
(0.675745 1.0234e-05 0)
(0.676086 1.03737e-05 0)
(0.676427 1.05219e-05 0)
(0.676767 1.06788e-05 0)
(0.677106 1.08444e-05 0)
(0.677445 1.10188e-05 0)
(0.677782 1.12024e-05 0)
(0.678119 1.13955e-05 0)
(0.678454 1.16001e-05 0)
(0.678789 1.1813e-05 0)
(0.679123 1.20362e-05 0)
(0.679456 1.22694e-05 0)
(0.679788 1.2512e-05 0)
(0.680119 1.2767e-05 0)
(0.680449 1.30288e-05 0)
(0.680778 1.33036e-05 0)
(0.681107 1.35861e-05 0)
(0.681434 1.38812e-05 0)
(0.68176 1.41877e-05 0)
(0.682086 1.4503e-05 0)
(0.68241 1.48306e-05 0)
(0.682734 1.51676e-05 0)
(0.683056 1.55174e-05 0)
(0.683378 1.58766e-05 0)
(0.683698 1.62487e-05 0)
(0.684018 1.66283e-05 0)
(0.684336 1.70266e-05 0)
(0.684654 1.74271e-05 0)
(0.68497 1.78511e-05 0)
(0.685285 1.82695e-05 0)
(0.6856 1.87191e-05 0)
(0.685913 1.91555e-05 0)
(0.686225 1.96381e-05 0)
(0.686537 2.00839e-05 0)
(0.686847 2.0606e-05 0)
(0.687156 2.10503e-05 0)
(0.687464 2.16252e-05 0)
(0.687772 2.20504e-05 0)
(0.688077 2.26981e-05 0)
(0.688383 2.30781e-05 0)
(0.688686 2.38304e-05 0)
(0.68899 2.41315e-05 0)
(0.689292 2.50496e-05 0)
(0.689593 2.51877e-05 0)
(0.689893 2.63207e-05 0)
(0.69019 2.62561e-05 0)
(0.690491 2.76863e-05 0)
(0.690781 2.7349e-05 0)
(0.69109 2.90305e-05 0)
(0.691362 2.85733e-05 0)
(0.691694 3.02549e-05 0)
(0.691926 3.02542e-05 0)
(0.692316 3.07494e-05 0)
(0.692458 3.31211e-05 0)
(0.692999 3.02396e-05 0)
(3.80457 0.346854 0)
(3.11419 0.138891 0)
(2.74464 0.0360992 0)
(2.47104 0.0208813 0)
(2.29122 0.0130736 0)
(2.18103 0.00710185 0)
(2.11788 0.00459794 0)
(2.07469 0.00430278 0)
(2.03598 0.00424904 0)
(1.99984 0.00379844 0)
(1.96833 0.00322571 0)
(1.9418 0.00278924 0)
(1.91905 0.00249605 0)
(1.89898 0.0022693 0)
(1.88105 0.00206817 0)
(1.86499 0.00188841 0)
(1.85056 0.00173294 0)
(1.83754 0.00159944 0)
(1.82572 0.00148295 0)
(1.81496 0.00137978 0)
(1.80512 0.00128778 0)
(1.79611 0.00120546 0)
(1.78782 0.00113148 0)
(1.78019 0.00106465 0)
(1.77315 0.001004 0)
(1.76664 0.000948726 0)
(1.76061 0.000898181 0)
(1.75501 0.000851807 0)
(1.74982 0.000809128 0)
(1.74499 0.000769735 0)
(1.74049 0.000733275 0)
(1.73631 0.000699444 0)
(1.73241 0.000667975 0)
(1.72877 0.000638641 0)
(1.72537 0.000611229 0)
(1.72221 0.00058558 0)
(1.71925 0.00056152 0)
(1.71649 0.000538886 0)
(1.71392 0.000517605 0)
(1.71152 0.000497554 0)
(1.70928 0.000478601 0)
(1.70719 0.000460658 0)
(1.70525 0.000443656 0)
(1.70344 0.000427515 0)
(1.70175 0.00041217 0)
(1.70019 0.000397546 0)
(1.69874 0.000383571 0)
(1.6974 0.000370219 0)
(1.69617 0.000357383 0)
(1.69503 0.000345383 0)
(1.69399 0.000333761 0)
(1.69303 0.000322454 0)
(1.69216 0.000311566 0)
(1.69137 0.000301089 0)
(1.69066 0.000290989 0)
(1.69003 0.000281229 0)
(1.68948 0.000271763 0)
(1.68899 0.000262682 0)
(1.68857 0.000253883 0)
(1.68821 0.000245254 0)
(1.68793 0.000236894 0)
(1.6877 0.000228838 0)
(1.68753 0.00022107 0)
(1.68742 0.000213482 0)
(1.68736 0.00020606 0)
(1.68736 0.000198875 0)
(1.68741 0.000191958 0)
(1.68752 0.000185238 0)
(1.68767 0.000178714 0)
(1.68786 0.000172412 0)
(1.68811 0.000166312 0)
(1.68839 0.000160409 0)
(1.68872 0.000154709 0)
(1.68909 0.000149212 0)
(1.6895 0.000143913 0)
(1.68994 0.000138809 0)
(1.69042 0.000133896 0)
(1.69093 0.000129171 0)
(1.69148 0.000124634 0)
(1.69205 0.000120279 0)
(1.69266 0.000116102 0)
(1.69329 0.000112097 0)
(1.69395 0.000108263 0)
(1.69463 0.000104595 0)
(1.69534 0.000101087 0)
(1.69606 9.77308e-05 0)
(1.69681 9.45259e-05 0)
(1.69758 9.14662e-05 0)
(1.69837 8.85453e-05 0)
(1.69918 8.5759e-05 0)
(1.7 8.3102e-05 0)
(1.70084 8.05686e-05 0)
(1.70169 7.81535e-05 0)
(1.70255 7.58515e-05 0)
(1.70343 7.36578e-05 0)
(1.70432 7.15674e-05 0)
(1.70522 6.95756e-05 0)
(1.70613 6.76777e-05 0)
(1.70705 6.58691e-05 0)
(1.70798 6.41455e-05 0)
(1.70892 6.25028e-05 0)
(1.70987 6.09369e-05 0)
(1.71082 5.94441e-05 0)
(1.71178 5.80206e-05 0)
(1.71274 5.66629e-05 0)
(1.71371 5.53677e-05 0)
(1.71469 5.41318e-05 0)
(1.71567 5.29521e-05 0)
(1.71665 5.18256e-05 0)
(1.71764 5.07497e-05 0)
(1.71863 4.97215e-05 0)
(1.71962 4.87387e-05 0)
(1.72062 4.77987e-05 0)
(1.72162 4.68994e-05 0)
(1.72262 4.60384e-05 0)
(1.72363 4.52137e-05 0)
(1.72463 4.44236e-05 0)
(1.72564 4.36657e-05 0)
(1.72665 4.29387e-05 0)
(1.72766 4.22411e-05 0)
(1.72867 4.1571e-05 0)
(1.72968 4.09271e-05 0)
(1.73069 4.03079e-05 0)
(1.7317 3.97124e-05 0)
(1.73271 3.91393e-05 0)
(1.73373 3.85875e-05 0)
(1.73474 3.80559e-05 0)
(1.73575 3.75436e-05 0)
(1.73676 3.70497e-05 0)
(1.73778 3.65732e-05 0)
(1.73879 3.61133e-05 0)
(1.7398 3.56692e-05 0)
(1.74081 3.52401e-05 0)
(1.74182 3.48253e-05 0)
(1.74283 3.44242e-05 0)
(1.74384 3.40361e-05 0)
(1.74484 3.36603e-05 0)
(1.74585 3.32964e-05 0)
(1.74685 3.29439e-05 0)
(1.74786 3.26023e-05 0)
(1.74886 3.22712e-05 0)
(1.74986 3.19503e-05 0)
(1.75087 3.16393e-05 0)
(1.75187 3.13381e-05 0)
(1.75286 3.10462e-05 0)
(1.75386 3.07637e-05 0)
(1.75486 3.04905e-05 0)
(1.75585 3.02263e-05 0)
(1.75685 2.99712e-05 0)
(1.75784 2.97251e-05 0)
(1.75883 2.9488e-05 0)
(1.75982 2.92599e-05 0)
(1.7608 2.90408e-05 0)
(1.76179 2.88307e-05 0)
(1.76277 2.86296e-05 0)
(1.76376 2.84376e-05 0)
(1.76474 2.82549e-05 0)
(1.76572 2.80815e-05 0)
(1.7667 2.79176e-05 0)
(1.76767 2.77634e-05 0)
(1.76865 2.76191e-05 0)
(1.76962 2.74852e-05 0)
(1.77059 2.73618e-05 0)
(1.77156 2.72493e-05 0)
(1.77253 2.71482e-05 0)
(1.77349 2.70589e-05 0)
(1.77446 2.69818e-05 0)
(1.77542 2.69175e-05 0)
(1.77638 2.68665e-05 0)
(1.77734 2.68292e-05 0)
(1.7783 2.68064e-05 0)
(1.77925 2.67982e-05 0)
(1.78021 2.68051e-05 0)
(1.78116 2.68277e-05 0)
(1.78211 2.68665e-05 0)
(1.78305 2.69222e-05 0)
(1.784 2.69952e-05 0)
(1.78494 2.70857e-05 0)
(1.78588 2.71939e-05 0)
(1.78682 2.73204e-05 0)
(1.78776 2.74656e-05 0)
(1.7887 2.76297e-05 0)
(1.78963 2.78146e-05 0)
(1.79056 2.80209e-05 0)
(1.79149 2.82484e-05 0)
(1.79241 2.84972e-05 0)
(1.79334 2.87682e-05 0)
(1.79426 2.90623e-05 0)
(1.79518 2.93803e-05 0)
(1.7961 2.97222e-05 0)
(1.79701 3.00876e-05 0)
(1.79793 3.04766e-05 0)
(1.79884 3.08908e-05 0)
(1.79974 3.13349e-05 0)
(1.80065 3.1804e-05 0)
(1.80155 3.2301e-05 0)
(1.80245 3.28245e-05 0)
(1.80335 3.33728e-05 0)
(1.80425 3.39526e-05 0)
(1.80514 3.45533e-05 0)
(1.80603 3.51886e-05 0)
(1.80692 3.58485e-05 0)
(1.8078 3.65358e-05 0)
(1.80868 3.72543e-05 0)
(1.80956 3.80013e-05 0)
(1.81044 3.87784e-05 0)
(1.81132 3.95809e-05 0)
(1.81219 4.04174e-05 0)
(1.81306 4.12806e-05 0)
(1.81392 4.21784e-05 0)
(1.81479 4.3097e-05 0)
(1.81565 4.40635e-05 0)
(1.81651 4.50387e-05 0)
(1.81736 4.60704e-05 0)
(1.81821 4.70966e-05 0)
(1.81906 4.82009e-05 0)
(1.81991 4.92734e-05 0)
(1.82075 5.04589e-05 0)
(1.8216 5.15616e-05 0)
(1.82243 5.28503e-05 0)
(1.82327 5.39567e-05 0)
(1.8241 5.53834e-05 0)
(1.82493 5.6443e-05 0)
(1.82576 5.80492e-05 0)
(1.82658 5.90041e-05 0)
(1.8274 6.08825e-05 0)
(1.82822 6.16296e-05 0)
(1.82903 6.39392e-05 0)
(1.82984 6.42588e-05 0)
(1.83065 6.71595e-05 0)
(1.83145 6.68892e-05 0)
(1.83227 7.06492e-05 0)
(1.83305 6.9516e-05 0)
(1.83388 7.41738e-05 0)
(1.83461 7.23477e-05 0)
(1.83551 7.74358e-05 0)
(1.83613 7.60983e-05 0)
(1.83718 7.87823e-05 0)
(1.83756 8.15343e-05 0)
(1.83901 7.68426e-05 0)
(4.41373 0.422873 0)
(4.229 0.212939 0)
(3.97258 0.0753621 0)
(3.67488 0.0501085 0)
(3.4381 0.0343723 0)
(3.27997 0.0202731 0)
(3.18341 0.0131091 0)
(3.11722 0.0110962 0)
(3.06128 0.0104119 0)
(3.0105 0.00935992 0)
(2.96592 0.00809944 0)
(2.92784 0.00705162 0)
(2.89502 0.0062878 0)
(2.86613 0.00569483 0)
(2.84037 0.00518614 0)
(2.81729 0.00473826 0)
(2.79655 0.00434952 0)
(2.77782 0.00401364 0)
(2.76084 0.00372035 0)
(2.74538 0.0034611 0)
(2.73125 0.00323021 0)
(2.71832 0.00302365 0)
(2.70644 0.002838 0)
(2.69551 0.00267032 0)
(2.68543 0.00251819 0)
(2.67612 0.00237958 0)
(2.66752 0.00225285 0)
(2.65954 0.00213659 0)
(2.65215 0.00202959 0)
(2.64528 0.00193084 0)
(2.63891 0.00183945 0)
(2.63298 0.00175464 0)
(2.62747 0.00167576 0)
(2.62234 0.00160222 0)
(2.61757 0.00153351 0)
(2.61313 0.00146921 0)
(2.60899 0.00140887 0)
(2.60515 0.00135217 0)
(2.60157 0.00129884 0)
(2.59824 0.00124855 0)
(2.59515 0.00120103 0)
(2.59228 0.00115606 0)
(2.58962 0.00111345 0)
(2.58715 0.001073 0)
(2.58487 0.00103455 0)
(2.58277 0.000997917 0)
(2.58083 0.000962941 0)
(2.57905 0.000929501 0)
(2.57742 0.000897404 0)
(2.57594 0.000867207 0)
(2.57459 0.000838115 0)
(2.57336 0.000809953 0)
(2.57227 0.000782756 0)
(2.57129 0.000756558 0)
(2.57043 0.000731332 0)
(2.56968 0.000706997 0)
(2.56903 0.000683443 0)
(2.56849 0.000660726 0)
(2.56804 0.000638769 0)
(2.56769 0.000617382 0)
(2.56743 0.000596638 0)
(2.56726 0.000576618 0)
(2.56718 0.000557268 0)
(2.56718 0.000538448 0)
(2.56725 0.000520128 0)
(2.56741 0.000502365 0)
(2.56764 0.00048523 0)
(2.56794 0.000468623 0)
(2.56831 0.000452523 0)
(2.56874 0.000436974 0)
(2.56924 0.000421942 0)
(2.5698 0.000407408 0)
(2.57042 0.000393383 0)
(2.5711 0.000379862 0)
(2.57183 0.000366838 0)
(2.57261 0.0003543 0)
(2.57344 0.000342238 0)
(2.57432 0.000330643 0)
(2.57524 0.000319512 0)
(2.57621 0.000308833 0)
(2.57721 0.000298592 0)
(2.57826 0.000288778 0)
(2.57934 0.000279382 0)
(2.58045 0.000270393 0)
(2.5816 0.000261796 0)
(2.58278 0.000253574 0)
(2.58398 0.000245721 0)
(2.58522 0.000238222 0)
(2.58647 0.000231062 0)
(2.58776 0.000224231 0)
(2.58906 0.000217714 0)
(2.59039 0.000211498 0)
(2.59173 0.00020557 0)
(2.5931 0.000199918 0)
(2.59448 0.000194528 0)
(2.59588 0.00018939 0)
(2.59729 0.00018449 0)
(2.59871 0.000179819 0)
(2.60015 0.000175365 0)
(2.6016 0.000171117 0)
(2.60307 0.000167065 0)
(2.60454 0.000163199 0)
(2.60602 0.00015951 0)
(2.60751 0.00015599 0)
(2.60901 0.000152628 0)
(2.61051 0.000149418 0)
(2.61202 0.000146352 0)
(2.61354 0.000143421 0)
(2.61506 0.00014062 0)
(2.61659 0.00013794 0)
(2.61812 0.000135376 0)
(2.61966 0.000132922 0)
(2.6212 0.000130572 0)
(2.62274 0.00012832 0)
(2.62429 0.000126161 0)
(2.62584 0.00012409 0)
(2.62739 0.000122103 0)
(2.62894 0.000120195 0)
(2.63049 0.000118362 0)
(2.63205 0.0001166 0)
(2.63361 0.000114905 0)
(2.63516 0.000113274 0)
(2.63672 0.000111703 0)
(2.63828 0.00011019 0)
(2.63984 0.000108731 0)
(2.64139 0.000107324 0)
(2.64295 0.000105966 0)
(2.64451 0.000104655 0)
(2.64607 0.000103388 0)
(2.64762 0.000102164 0)
(2.64918 0.00010098 0)
(2.65073 9.98346e-05 0)
(2.65228 9.87258e-05 0)
(2.65384 9.76517e-05 0)
(2.65539 9.66109e-05 0)
(2.65694 9.56017e-05 0)
(2.65848 9.46228e-05 0)
(2.66003 9.36727e-05 0)
(2.66158 9.27502e-05 0)
(2.66312 9.18541e-05 0)
(2.66466 9.09834e-05 0)
(2.6662 9.01372e-05 0)
(2.66774 8.93145e-05 0)
(2.66927 8.85146e-05 0)
(2.67081 8.77369e-05 0)
(2.67234 8.69808e-05 0)
(2.67387 8.62457e-05 0)
(2.6754 8.55311e-05 0)
(2.67692 8.48369e-05 0)
(2.67845 8.41624e-05 0)
(2.67997 8.35075e-05 0)
(2.68149 8.28719e-05 0)
(2.68301 8.22553e-05 0)
(2.68452 8.16576e-05 0)
(2.68603 8.10786e-05 0)
(2.68754 8.05182e-05 0)
(2.68905 7.99762e-05 0)
(2.69056 7.94527e-05 0)
(2.69206 7.89477e-05 0)
(2.69356 7.84612e-05 0)
(2.69506 7.79935e-05 0)
(2.69655 7.75448e-05 0)
(2.69804 7.71154e-05 0)
(2.69953 7.67056e-05 0)
(2.70102 7.63158e-05 0)
(2.70251 7.59465e-05 0)
(2.70399 7.55982e-05 0)
(2.70547 7.52713e-05 0)
(2.70694 7.49667e-05 0)
(2.70842 7.4685e-05 0)
(2.70989 7.44271e-05 0)
(2.71136 7.41929e-05 0)
(2.71282 7.3983e-05 0)
(2.71428 7.37984e-05 0)
(2.71574 7.36399e-05 0)
(2.7172 7.35084e-05 0)
(2.71865 7.34041e-05 0)
(2.72011 7.33274e-05 0)
(2.72155 7.32784e-05 0)
(2.723 7.32579e-05 0)
(2.72444 7.32668e-05 0)
(2.72588 7.33051e-05 0)
(2.72731 7.33749e-05 0)
(2.72874 7.34773e-05 0)
(2.73017 7.36119e-05 0)
(2.7316 7.37793e-05 0)
(2.73302 7.39806e-05 0)
(2.73444 7.4217e-05 0)
(2.73585 7.44894e-05 0)
(2.73726 7.4798e-05 0)
(2.73867 7.51424e-05 0)
(2.74008 7.55213e-05 0)
(2.74148 7.59378e-05 0)
(2.74288 7.63967e-05 0)
(2.74427 7.68958e-05 0)
(2.74566 7.74375e-05 0)
(2.74705 7.80189e-05 0)
(2.74843 7.86382e-05 0)
(2.74981 7.93022e-05 0)
(2.75118 8.0002e-05 0)
(2.75255 8.07488e-05 0)
(2.75392 8.15384e-05 0)
(2.75528 8.23654e-05 0)
(2.75664 8.32383e-05 0)
(2.758 8.41563e-05 0)
(2.75935 8.51193e-05 0)
(2.7607 8.61193e-05 0)
(2.76204 8.71697e-05 0)
(2.76338 8.8262e-05 0)
(2.76471 8.94065e-05 0)
(2.76604 9.05821e-05 0)
(2.76737 9.18257e-05 0)
(2.76869 9.3088e-05 0)
(2.77001 9.44283e-05 0)
(2.77132 9.57666e-05 0)
(2.77263 9.72194e-05 0)
(2.77394 9.86283e-05 0)
(2.77524 0.000100199 0)
(2.77654 0.000101655 0)
(2.77783 0.000103378 0)
(2.77912 0.000104847 0)
(2.7804 0.000106772 0)
(2.78168 0.000108181 0)
(2.78295 0.000110363 0)
(2.78422 0.00011163 0)
(2.78549 0.000114208 0)
(2.78675 0.000115176 0)
(2.78801 0.000118357 0)
(2.78926 0.000118743 0)
(2.79051 0.000122769 0)
(2.79174 0.00012232 0)
(2.793 0.000127525 0)
(2.7942 0.000125918 0)
(2.79549 0.000132319 0)
(2.79661 0.000129865 0)
(2.798 0.000136557 0)
(2.79896 0.000135101 0)
(2.80058 0.000137994 0)
(2.80114 0.000142761 0)
(2.80338 0.000133947 0)
(4.59134 0.395182 0)
(4.81462 0.238565 0)
(4.80028 0.101827 0)
(4.603 0.0789985 0)
(4.38153 0.0596159 0)
(4.21208 0.0376624 0)
(4.09907 0.0247605 0)
(4.01912 0.0200762 0)
(3.95288 0.0182309 0)
(3.89384 0.0163434 0)
(3.84187 0.0142711 0)
(3.79693 0.0124999 0)
(3.75788 0.0111527 0)
(3.72338 0.0100928 0)
(3.69258 0.00919217 0)
(3.66494 0.00840512 0)
(3.64006 0.00772125 0)
(3.61755 0.00712799 0)
(3.59713 0.00660892 0)
(3.57852 0.00614997 0)
(3.56152 0.0057412 0)
(3.54594 0.00537529 0)
(3.53165 0.00504624 0)
(3.5185 0.00474892 0)
(3.50638 0.00447907 0)
(3.4952 0.00423315 0)
(3.48487 0.00400823 0)
(3.47531 0.00380182 0)
(3.46645 0.00361182 0)
(3.45825 0.00343641 0)
(3.45064 0.00327403 0)
(3.44359 0.00312331 0)
(3.43704 0.00298309 0)
(3.43096 0.00285234 0)
(3.42532 0.00273016 0)
(3.42009 0.00261579 0)
(3.41524 0.00250842 0)
(3.41074 0.00240756 0)
(3.40657 0.00231269 0)
(3.4027 0.00222316 0)
(3.39914 0.00213855 0)
(3.39584 0.00205849 0)
(3.3928 0.00198263 0)
(3.39 0.00191061 0)
(3.38744 0.00184216 0)
(3.38509 0.00177693 0)
(3.38294 0.00171468 0)
(3.38099 0.00165515 0)
(3.37923 0.00159802 0)
(3.37765 0.00154418 0)
(3.37623 0.00149234 0)
(3.37497 0.00144221 0)
(3.37386 0.00139389 0)
(3.37291 0.00134734 0)
(3.37209 0.00130248 0)
(3.37141 0.00125921 0)
(3.37086 0.0012174 0)
(3.37044 0.00117706 0)
(3.37013 0.00113803 0)
(3.36995 0.0011001 0)
(3.36987 0.00106339 0)
(3.36991 0.00102791 0)
(3.37004 0.000993591 0)
(3.37028 0.000960319 0)
(3.37061 0.000927986 0)
(3.37104 0.000896637 0)
(3.37156 0.00086637 0)
(3.37216 0.000837075 0)
(3.37285 0.000808709 0)
(3.37361 0.000781329 0)
(3.37446 0.000754878 0)
(3.37537 0.000729328 0)
(3.37636 0.000704687 0)
(3.37741 0.000680945 0)
(3.37852 0.000658089 0)
(3.3797 0.000636098 0)
(3.38094 0.000614954 0)
(3.38223 0.000594638 0)
(3.38357 0.000575142 0)
(3.38496 0.000556446 0)
(3.3864 0.000538523 0)
(3.38788 0.000521352 0)
(3.38941 0.000504916 0)
(3.39097 0.000489194 0)
(3.39258 0.000474158 0)
(3.39422 0.000459782 0)
(3.39589 0.00044605 0)
(3.39759 0.000432936 0)
(3.39932 0.000420415 0)
(3.40108 0.000408466 0)
(3.40287 0.000397066 0)
(3.40468 0.00038619 0)
(3.40651 0.000375815 0)
(3.40836 0.000365919 0)
(3.41023 0.000356481 0)
(3.41212 0.000347479 0)
(3.41403 0.000338893 0)
(3.41595 0.000330703 0)
(3.41789 0.000322889 0)
(3.41984 0.000315434 0)
(3.4218 0.000308319 0)
(3.42378 0.000301528 0)
(3.42576 0.000295043 0)
(3.42775 0.00028885 0)
(3.42976 0.000282934 0)
(3.43177 0.000277279 0)
(3.43378 0.000271874 0)
(3.43581 0.000266704 0)
(3.43784 0.000261757 0)
(3.43987 0.000257022 0)
(3.44191 0.000252488 0)
(3.44396 0.000248144 0)
(3.446 0.00024398 0)
(3.44806 0.000239988 0)
(3.45011 0.000236157 0)
(3.45217 0.000232479 0)
(3.45422 0.000228946 0)
(3.45628 0.000225551 0)
(3.45835 0.000222286 0)
(3.46041 0.000219145 0)
(3.46247 0.000216121 0)
(3.46453 0.000213208 0)
(3.4666 0.000210401 0)
(3.46866 0.000207693 0)
(3.47073 0.00020508 0)
(3.47279 0.000202557 0)
(3.47485 0.00020012 0)
(3.47691 0.000197765 0)
(3.47897 0.000195486 0)
(3.48103 0.000193282 0)
(3.48309 0.000191148 0)
(3.48515 0.000189081 0)
(3.4872 0.000187078 0)
(3.48925 0.000185136 0)
(3.49131 0.000183252 0)
(3.49335 0.000181423 0)
(3.4954 0.000179647 0)
(3.49745 0.000177922 0)
(3.49949 0.000176245 0)
(3.50153 0.000174614 0)
(3.50357 0.000173027 0)
(3.50561 0.000171483 0)
(3.50764 0.00016998 0)
(3.50967 0.000168517 0)
(3.5117 0.000167091 0)
(3.51372 0.000165703 0)
(3.51575 0.00016435 0)
(3.51777 0.000163033 0)
(3.51978 0.000161749 0)
(3.5218 0.000160498 0)
(3.52381 0.000159281 0)
(3.52582 0.000158095 0)
(3.52782 0.000156941 0)
(3.52983 0.000155818 0)
(3.53183 0.000154725 0)
(3.53382 0.000153662 0)
(3.53581 0.00015263 0)
(3.5378 0.000151627 0)
(3.53979 0.000150653 0)
(3.54178 0.000149708 0)
(3.54376 0.000148793 0)
(3.54573 0.000147907 0)
(3.54771 0.00014705 0)
(3.54968 0.000146223 0)
(3.55164 0.000145426 0)
(3.55361 0.000144659 0)
(3.55557 0.000143922 0)
(3.55752 0.000143217 0)
(3.55948 0.000142543 0)
(3.56143 0.000141902 0)
(3.56337 0.000141294 0)
(3.56531 0.00014072 0)
(3.56725 0.00014018 0)
(3.56919 0.000139675 0)
(3.57112 0.000139206 0)
(3.57305 0.000138774 0)
(3.57497 0.00013838 0)
(3.57689 0.000138023 0)
(3.57881 0.000137704 0)
(3.58072 0.000137424 0)
(3.58263 0.000137184 0)
(3.58453 0.000136983 0)
(3.58643 0.000136824 0)
(3.58832 0.000136708 0)
(3.59022 0.000136635 0)
(3.5921 0.000136604 0)
(3.59399 0.000136618 0)
(3.59586 0.000136678 0)
(3.59774 0.000136785 0)
(3.59961 0.000136939 0)
(3.60147 0.00013714 0)
(3.60334 0.000137385 0)
(3.60519 0.000137678 0)
(3.60704 0.000138024 0)
(3.60889 0.000138423 0)
(3.61073 0.000138876 0)
(3.61257 0.000139382 0)
(3.6144 0.000139937 0)
(3.61623 0.000140547 0)
(3.61806 0.000141207 0)
(3.61987 0.000141923 0)
(3.62169 0.000142699 0)
(3.6235 0.00014352 0)
(3.6253 0.000144398 0)
(3.6271 0.000145336 0)
(3.62889 0.00014633 0)
(3.63068 0.000147372 0)
(3.63246 0.000148476 0)
(3.63424 0.000149634 0)
(3.63601 0.000150858 0)
(3.63778 0.000152123 0)
(3.63954 0.000153471 0)
(3.64129 0.000154847 0)
(3.64305 0.000156314 0)
(3.64479 0.000157787 0)
(3.64653 0.000159398 0)
(3.64826 0.000160964 0)
(3.64999 0.000162718 0)
(3.65172 0.000164349 0)
(3.65343 0.00016629 0)
(3.65515 0.000167949 0)
(3.65685 0.000170133 0)
(3.65855 0.000171737 0)
(3.66025 0.000174219 0)
(3.66194 0.00017568 0)
(3.66362 0.000178618 0)
(3.6653 0.000179758 0)
(3.66697 0.00018337 0)
(3.66863 0.000183893 0)
(3.6703 0.000188431 0)
(3.67194 0.00018808 0)
(3.67362 0.000193842 0)
(3.67521 0.000192357 0)
(3.67693 0.000199239 0)
(3.67843 0.000197102 0)
(3.68028 0.000203874 0)
(3.68154 0.000203222 0)
(3.68372 0.000205258 0)
(3.68446 0.000212261 0)
(3.68743 0.00019891 0)
(4.5843 0.329867 0)
(5.00584 0.225822 0)
(5.21609 0.103869 0)
(5.19397 0.0942431 0)
(5.06812 0.0802852 0)
(4.94068 0.0548682 0)
(4.84264 0.0373723 0)
(4.76751 0.0299901 0)
(4.70322 0.0267125 0)
(4.64524 0.0238201 0)
(4.59358 0.0208817 0)
(4.54824 0.018375 0)
(4.50831 0.016431 0)
(4.4727 0.014885 0)
(4.4407 0.0135739 0)
(4.41181 0.01243 0)
(4.38567 0.0114341 0)
(4.36194 0.0105674 0)
(4.34034 0.00980687 0)
(4.3206 0.00913322 0)
(4.30254 0.00853231 0)
(4.28597 0.00799361 0)
(4.27074 0.00750846 0)
(4.25673 0.00706954 0)
(4.24382 0.00667073 0)
(4.2319 0.00630693 0)
(4.2209 0.0059739 0)
(4.21073 0.00566803 0)
(4.20132 0.00538625 0)
(4.19262 0.00512593 0)
(4.18457 0.00488479 0)
(4.17712 0.00466083 0)
(4.17022 0.00445236 0)
(4.16384 0.00425787 0)
(4.15794 0.00407603 0)
(4.15249 0.00390574 0)
(4.14746 0.00374583 0)
(4.14281 0.0035955 0)
(4.13853 0.00345405 0)
(4.1346 0.00332056 0)
(4.13098 0.00319435 0)
(4.12768 0.00307488 0)
(4.12465 0.00296166 0)
(4.1219 0.00285414 0)
(4.1194 0.00275192 0)
(4.11715 0.00265449 0)
(4.11512 0.00256151 0)
(4.11331 0.00247258 0)
(4.11171 0.00238723 0)
(4.11031 0.00230667 0)
(4.1091 0.0022292 0)
(4.10806 0.0021543 0)
(4.1072 0.0020821 0)
(4.1065 0.00201258 0)
(4.10596 0.00194562 0)
(4.10557 0.00188102 0)
(4.10532 0.00181866 0)
(4.10522 0.00175843 0)
(4.10524 0.00170016 0)
(4.1054 0.00164369 0)
(4.10569 0.00158906 0)
(4.10609 0.00153624 0)
(4.1066 0.00148519 0)
(4.10723 0.00143574 0)
(4.10796 0.00138776 0)
(4.10879 0.00134129 0)
(4.10972 0.00129642 0)
(4.11075 0.00125304 0)
(4.11186 0.00121109 0)
(4.11306 0.00117063 0)
(4.11434 0.00113157 0)
(4.1157 0.00109388 0)
(4.11714 0.00105757 0)
(4.11864 0.0010226 0)
(4.12021 0.000988971 0)
(4.12185 0.000956635 0)
(4.12355 0.000925566 0)
(4.1253 0.000895735 0)
(4.12711 0.000867124 0)
(4.12898 0.000839701 0)
(4.13089 0.000813425 0)
(4.13284 0.000788263 0)
(4.13484 0.000764188 0)
(4.13688 0.000741165 0)
(4.13896 0.000719151 0)
(4.14108 0.000698109 0)
(4.14323 0.000678012 0)
(4.14541 0.000658821 0)
(4.14762 0.000640499 0)
(4.14986 0.000623013 0)
(4.15212 0.000606328 0)
(4.15441 0.000590408 0)
(4.15672 0.000575219 0)
(4.15905 0.000560729 0)
(4.1614 0.000546904 0)
(4.16377 0.000533715 0)
(4.16616 0.000521131 0)
(4.16856 0.000509122 0)
(4.17098 0.000497661 0)
(4.1734 0.000486721 0)
(4.17584 0.000476274 0)
(4.17829 0.000466297 0)
(4.18076 0.000456765 0)
(4.18323 0.000447656 0)
(4.1857 0.000438949 0)
(4.18819 0.000430621 0)
(4.19068 0.000422654 0)
(4.19318 0.000415028 0)
(4.19568 0.000407726 0)
(4.19819 0.000400731 0)
(4.20071 0.000394026 0)
(4.20322 0.000387598 0)
(4.20574 0.000381431 0)
(4.20827 0.000375511 0)
(4.21079 0.000369827 0)
(4.21332 0.000364364 0)
(4.21585 0.000359113 0)
(4.21838 0.000354062 0)
(4.22091 0.0003492 0)
(4.22344 0.000344519 0)
(4.22597 0.000340008 0)
(4.2285 0.000335658 0)
(4.23103 0.000331462 0)
(4.23356 0.000327411 0)
(4.23609 0.000323498 0)
(4.23861 0.000319716 0)
(4.24114 0.000316059 0)
(4.24366 0.00031252 0)
(4.24619 0.000309094 0)
(4.24871 0.000305776 0)
(4.25123 0.00030256 0)
(4.25375 0.000299442 0)
(4.25626 0.000296417 0)
(4.25877 0.000293481 0)
(4.26128 0.000290629 0)
(4.26379 0.000287859 0)
(4.2663 0.000285167 0)
(4.2688 0.000282548 0)
(4.2713 0.000280001 0)
(4.2738 0.000277521 0)
(4.27629 0.000275107 0)
(4.27878 0.000272755 0)
(4.28127 0.000270462 0)
(4.28375 0.000268228 0)
(4.28623 0.000266049 0)
(4.28871 0.000263923 0)
(4.29119 0.000261849 0)
(4.29366 0.000259826 0)
(4.29612 0.000257852 0)
(4.29859 0.000255925 0)
(4.30105 0.000254045 0)
(4.30351 0.000252211 0)
(4.30596 0.000250422 0)
(4.30841 0.000248677 0)
(4.31085 0.000246975 0)
(4.3133 0.000245316 0)
(4.31574 0.000243699 0)
(4.31817 0.000242124 0)
(4.3206 0.000240589 0)
(4.32303 0.000239096 0)
(4.32545 0.000237643 0)
(4.32787 0.00023623 0)
(4.33029 0.000234858 0)
(4.3327 0.000233525 0)
(4.3351 0.000232233 0)
(4.33751 0.000230981 0)
(4.33991 0.000229769 0)
(4.3423 0.000228598 0)
(4.34469 0.000227468 0)
(4.34708 0.00022638 0)
(4.34946 0.000225335 0)
(4.35184 0.000224333 0)
(4.35421 0.000223374 0)
(4.35658 0.00022246 0)
(4.35895 0.000221592 0)
(4.36131 0.000220771 0)
(4.36366 0.000219996 0)
(4.36601 0.000219269 0)
(4.36836 0.00021859 0)
(4.3707 0.000217958 0)
(4.37304 0.000217376 0)
(4.37537 0.000216844 0)
(4.3777 0.000216362 0)
(4.38002 0.000215933 0)
(4.38234 0.000215555 0)
(4.38466 0.00021523 0)
(4.38696 0.000214958 0)
(4.38927 0.000214741 0)
(4.39157 0.00021458 0)
(4.39386 0.000214475 0)
(4.39615 0.000214425 0)
(4.39843 0.000214429 0)
(4.40071 0.000214488 0)
(4.40298 0.000214609 0)
(4.40525 0.000214792 0)
(4.40751 0.000215039 0)
(4.40977 0.000215349 0)
(4.41202 0.000215717 0)
(4.41426 0.000216149 0)
(4.4165 0.000216641 0)
(4.41873 0.000217199 0)
(4.42096 0.000217826 0)
(4.42318 0.000218508 0)
(4.4254 0.000219256 0)
(4.42761 0.000220072 0)
(4.42981 0.000220954 0)
(4.43201 0.000221892 0)
(4.4342 0.000222901 0)
(4.43639 0.000223973 0)
(4.43857 0.00022512 0)
(4.44074 0.000226316 0)
(4.44291 0.000227604 0)
(4.44507 0.000228928 0)
(4.44723 0.00023035 0)
(4.44938 0.000231787 0)
(4.45152 0.000233374 0)
(4.45365 0.000234924 0)
(4.45578 0.000236669 0)
(4.45791 0.000238299 0)
(4.46002 0.000240251 0)
(4.46213 0.00024193 0)
(4.46423 0.00024414 0)
(4.46633 0.000245786 0)
(4.46842 0.000248303 0)
(4.4705 0.000249836 0)
(4.47258 0.000252807 0)
(4.47465 0.000254069 0)
(4.47672 0.000257677 0)
(4.47877 0.000258412 0)
(4.48083 0.000262845 0)
(4.48285 0.000262886 0)
(4.48493 0.000268301 0)
(4.48689 0.000267552 0)
(4.48903 0.000273653 0)
(4.49086 0.000272769 0)
(4.49316 0.000278096 0)
(4.49471 0.000279351 0)
(4.49742 0.000279023 0)
(4.49832 0.000289093 0)
(4.50198 0.000270731 0)
(4.55124 0.271045 0)
(4.99865 0.199506 0)
(5.30904 0.0872699 0)
(5.43082 0.089096 0)
(5.43718 0.0865822 0)
(5.40287 0.0646045 0)
(5.3632 0.0466296 0)
(5.32377 0.0383393 0)
(5.28263 0.0343125 0)
(5.24083 0.0306883 0)
(5.20102 0.0270269 0)
(5.16456 0.0238794 0)
(5.1314 0.0214083 0)
(5.10109 0.0194304 0)
(5.0733 0.0177538 0)
(5.04782 0.0162933 0)
(5.02447 0.0150195 0)
(5.00306 0.013907 0)
(4.98339 0.0129278 0)
(4.96531 0.012058 0)
(4.94866 0.0112802 0)
(4.93332 0.010581 0)
(4.91918 0.00994982 0)
(4.90614 0.00937742 0)
(4.89409 0.00885623 0)
(4.88297 0.00837986 0)
(4.8727 0.00794297 0)
(4.86321 0.00754106 0)
(4.85445 0.00717023 0)
(4.84635 0.00682714 0)
(4.83888 0.0065089 0)
(4.83199 0.00621298 0)
(4.82564 0.00593722 0)
(4.81979 0.00567967 0)
(4.81441 0.00543866 0)