/*--------------------------------*- C++ -*----------------------------------*\
  =========                 |
  \\      /  F ield         | OpenFOAM: The Open Source CFD Toolbox
   \\    /   O peration     | Website:  https://openfoam.org
    \\  /    A nd           | Version:  7
     \\/     M anipulation  |
\*---------------------------------------------------------------------------*/
FoamFile
{
    version     2.0;
    format      ascii;
    class       volVectorField;
    location    "1.58";
    object      U_0;
}
// * * * * * * * * * * * * * * * * * * * * * * * * * * * * * * * * * * * * * //

dimensions      [0 1 -1 0 0 0 0];

internalField   nonuniform List<vector> 
5760
(
(2.27409 0.125523 0)
(1.3398 0.0190489 0)
(1.09904 -0.00248651 0)
(0.971586 -0.000380833 0)
(0.902919 -0.000147122 0)
(0.866516 -0.000336518 0)
(0.849649 -0.0001047 0)
(0.838307 0.00015875 0)
(0.826157 0.000216076 0)
(0.814176 0.000149165 0)
(0.804242 9.47513e-05 0)
(0.796465 8.27036e-05 0)
(0.79012 8.42731e-05 0)
(0.784711 8.04495e-05 0)
(0.78008 7.14606e-05 0)
(0.776159 6.19144e-05 0)
(0.772857 5.35102e-05 0)
(0.770075 4.58811e-05 0)
(0.767729 3.86503e-05 0)
(0.765763 3.14878e-05 0)
(0.764134 2.44712e-05 0)
(0.762804 1.79606e-05 0)
(0.761738 1.22913e-05 0)
(0.760901 7.68204e-06 0)
(0.760263 4.23449e-06 0)
(0.759799 1.82635e-06 0)
(0.75949 1.67179e-07 0)
(0.759328 -1.24243e-06 0)
(0.759305 -2.83471e-06 0)
(0.759414 -4.73145e-06 0)
(0.75965 -6.95266e-06 0)
(0.760005 -9.43473e-06 0)
(0.760468 -1.19585e-05 0)
(0.761028 -1.4314e-05 0)
(0.761673 -1.62176e-05 0)
(0.762392 -1.74579e-05 0)
(0.763174 -1.77913e-05 0)
(0.764009 -1.69834e-05 0)
(0.764884 -1.47257e-05 0)
(0.76579 -1.05795e-05 0)
(0.766714 -4.4913e-06 0)
(0.767648 3.68231e-06 0)
(0.768588 1.40802e-05 0)
(0.769526 2.66787e-05 0)
(0.77046 4.13482e-05 0)
(0.771387 5.79307e-05 0)
(0.772309 7.62773e-05 0)
(0.773224 9.62352e-05 0)
(0.774131 0.000117668 0)
(0.775031 0.000140414 0)
(0.775922 0.00016428 0)
(0.776804 0.000189027 0)
(0.777675 0.000214483 0)
(0.778535 0.000240464 0)
(0.779383 0.000266769 0)
(0.78022 0.000293234 0)
(0.781044 0.000319736 0)
(0.781855 0.000346139 0)
(0.782655 0.000372311 0)
(0.783445 0.000398128 0)
(0.784227 0.00042345 0)
(0.785004 0.000448166 0)
(0.785779 0.000472167 0)
(0.786556 0.00049533 0)
(0.78734 0.000517578 0)
(0.788136 0.000538838 0)
(0.788945 0.000559067 0)
(0.789772 0.000578227 0)
(0.790618 0.000596291 0)
(0.791485 0.000613269 0)
(0.792375 0.000629182 0)
(0.793286 0.000644066 0)
(0.794217 0.000657975 0)
(0.795168 0.000670987 0)
(0.796136 0.000683144 0)
(0.797119 0.000694478 0)
(0.798116 0.000705059 0)
(0.799125 0.000714935 0)
(0.800146 0.000724143 0)
(0.801178 0.000732711 0)
(0.802221 0.00074068 0)
(0.803276 0.000748072 0)
(0.804342 0.000754905 0)
(0.805422 0.000761182 0)
(0.806516 0.00076691 0)
(0.807626 0.000772081 0)
(0.808753 0.000776704 0)
(0.809899 0.000780816 0)
(0.811064 0.000784376 0)
(0.81225 0.000787494 0)
(0.813454 0.000790173 0)
(0.814676 0.000792436 0)
(0.815916 0.000794315 0)
(0.81717 0.00079574 0)
(0.818439 0.000796895 0)
(0.819719 0.00079776 0)
(0.821009 0.000798282 0)
(0.822308 0.00079859 0)
(0.823611 0.00079871 0)
(0.824919 0.000798682 0)
(0.826228 0.000798547 0)
(0.827538 0.00079833 0)
(0.828847 0.000798072 0)
(0.830156 0.000797688 0)
(0.831468 0.000797297 0)
(0.83278 0.000796924 0)
(0.834095 0.000796493 0)
(0.835415 0.000796097 0)
(0.83674 0.000795756 0)
(0.838069 0.000795502 0)
(0.839402 0.000795267 0)
(0.840741 0.000795082 0)
(0.842084 0.000794946 0)
(0.843432 0.000794731 0)
(0.844785 0.000794437 0)
(0.846143 0.000794071 0)
(0.847505 0.000793585 0)
(0.848871 0.000793056 0)
(0.850239 0.000792542 0)
(0.851605 0.000792056 0)
(0.852968 0.000791637 0)
(0.854324 0.000791351 0)
(0.855672 0.000791225 0)
(0.857009 0.00079121 0)
(0.858335 0.000791272 0)
(0.859653 0.000791402 0)
(0.860962 0.000791584 0)
(0.862266 0.000791746 0)
(0.863567 0.000791898 0)
(0.864866 0.000792012 0)
(0.866166 0.000792095 0)
(0.867467 0.000792189 0)
(0.868769 0.000792286 0)
(0.870072 0.000792393 0)
(0.871373 0.000792541 0)
(0.872673 0.000792729 0)
(0.873968 0.00079295 0)
(0.875259 0.0007932 0)
(0.876543 0.000793467 0)
(0.87782 0.000793739 0)
(0.87909 0.000794004 0)
(0.880353 0.000794253 0)
(0.881608 0.000794475 0)
(0.882858 0.00079467 0)
(0.884101 0.000794836 0)
(0.885339 0.000794975 0)
(0.886571 0.000795089 0)
(0.887799 0.000795177 0)
(0.889022 0.000795246 0)
(0.890241 0.000795302 0)
(0.891456 0.000795336 0)
(0.892666 0.00079536 0)
(0.893872 0.000795393 0)
(0.895074 0.00079541 0)
(0.896271 0.000795422 0)
(0.897463 0.000795425 0)
(0.898651 0.000795417 0)
(0.899834 0.000795406 0)
(0.901012 0.000795387 0)
(0.902185 0.00079535 0)
(0.903353 0.000795314 0)
(0.904516 0.000795268 0)
(0.905675 0.000795205 0)
(0.906828 0.000795141 0)
(0.907976 0.000795072 0)
(0.909119 0.000794994 0)
(0.910257 0.000794905 0)
(0.91139 0.000794807 0)
(0.912517 0.000794697 0)
(0.913639 0.000794576 0)
(0.914757 0.000794457 0)
(0.915869 0.000794346 0)
(0.916976 0.00079422 0)
(0.918077 0.00079407 0)
(0.919174 0.000793919 0)
(0.920265 0.000793779 0)
(0.92135 0.000793631 0)
(0.922431 0.000793474 0)
(0.923505 0.000793315 0)
(0.924575 0.000793134 0)
(0.925639 0.000792957 0)
(0.926697 0.000792812 0)
(0.92775 0.000792618 0)
(0.928798 0.000792418 0)
(0.929839 0.000792246 0)
(0.930876 0.000792056 0)
(0.931906 0.000791864 0)
(0.932931 0.000791656 0)
(0.933951 0.000791463 0)
(0.934964 0.00079126 0)
(0.935972 0.000791054 0)
(0.936975 0.000790844 0)
(0.937971 0.000790635 0)
(0.938962 0.000790413 0)
(0.939947 0.0007902 0)
(0.940926 0.000789993 0)
(0.941899 0.000789769 0)
(0.942867 0.000789534 0)
(0.943828 0.000789318 0)
(0.944784 0.0007891 0)
(0.945734 0.000788864 0)
(0.946678 0.000788625 0)
(0.947616 0.000788399 0)
(0.948548 0.00078818 0)
(0.949475 0.000787946 0)
(0.950395 0.00078769 0)
(0.951309 0.000787455 0)
(0.952218 0.000787236 0)
(0.95312 0.000786994 0)
(0.954016 0.000786747 0)
(0.954907 0.000786511 0)
(0.955791 0.000786255 0)
(0.95667 0.000786015 0)
(0.957542 0.000785777 0)
(0.958409 0.000785529 0)
(0.959269 0.000785267 0)
(0.960124 0.00078504 0)
(0.960972 0.000784769 0)
(0.961815 0.000784546 0)
(0.962652 0.000784238 0)
(0.963482 0.000784062 0)
(0.964308 0.000783691 0)
(0.965126 0.000783606 0)
(0.965941 0.000783071 0)
(0.966746 0.000783198 0)
(0.967551 0.00078236 0)
(0.968341 0.000782931 0)
(0.96914 0.000781389 0)
(0.96991 0.000783035 0)
(0.970711 0.000779824 0)
(0.971449 0.000784004 0)
(0.972268 0.000776938 0)
(0.972948 0.000786939 0)
(0.973822 0.000771374 0)
(0.974385 0.000793727 0)
(0.975373 0.000762262 0)
(0.97572 0.000805584 0)
(0.976916 0.000745476 0)
(0.976996 0.00081085 0)
(0.978273 0.00074604 0)
(3.81061 0.351653 0)
(3.14088 0.14267 0)
(2.77892 0.0387535 0)
(2.51093 0.0229863 0)
(2.33679 0.0147795 0)
(2.23241 0.00835942 0)
(2.17555 0.00558457 0)
(2.13876 0.0051413 0)
(2.10608 0.00501616 0)
(2.07536 0.004509 0)
(2.04884 0.00387717 0)
(2.02702 0.00338719 0)
(2.00884 0.00304852 0)
(1.99326 0.00278104 0)
(1.97973 0.00254283 0)
(1.968 0.00233015 0)
(1.95782 0.00214549 0)
(1.94896 0.00198564 0)
(1.94121 0.00184498 0)
(1.93443 0.00171832 0)
(1.92851 0.00160356 0)
(1.92335 0.00150058 0)
(1.91885 0.00140939 0)
(1.91493 0.00132947 0)
(1.9115 0.00125971 0)
(1.9085 0.00119834 0)
(1.90589 0.00114313 0)
(1.90364 0.00109182 0)
(1.90174 0.00104308 0)
(1.90017 0.000996443 0)
(1.89892 0.000951818 0)
(1.89796 0.00090954 0)
(1.89727 0.000870146 0)
(1.89683 0.000834059 0)
(1.8966 0.000801698 0)
(1.89656 0.000773341 0)
(1.89668 0.000749348 0)
(1.89694 0.000730225 0)
(1.8973 0.000716716 0)
(1.89774 0.000709664 0)
(1.89823 0.00070875 0)
(1.89874 0.000713893 0)
(1.89926 0.000725176 0)
(1.89977 0.000742303 0)
(1.90027 0.000764653 0)
(1.90075 0.000791706 0)
(1.9012 0.00082311 0)
(1.90163 0.000858598 0)
(1.90204 0.000897947 0)
(1.90242 0.000940812 0)
(1.90277 0.0009868 0)
(1.90309 0.00103541 0)
(1.90339 0.00108624 0)
(1.90367 0.00113895 0)
(1.90393 0.00119305 0)
(1.90416 0.00124821 0)
(1.90437 0.00130414 0)
(1.90456 0.00136043 0)
(1.90474 0.00141668 0)
(1.90489 0.00147242 0)
(1.90504 0.00152719 0)
(1.90519 0.00158061 0)
(1.90533 0.00163229 0)
(1.9055 0.00168189 0)
(1.90568 0.00172914 0)
(1.90589 0.00177391 0)
(1.90615 0.00181615 0)
(1.90645 0.00185579 0)
(1.90681 0.00189282 0)
(1.90722 0.00192739 0)
(1.9077 0.0019597 0)
(1.90825 0.00198989 0)
(1.90886 0.00201815 0)
(1.90953 0.00204474 0)
(1.91026 0.00206976 0)
(1.91105 0.00209328 0)
(1.91189 0.00211541 0)
(1.91279 0.00213622 0)
(1.91373 0.00215576 0)
(1.91471 0.00217402 0)
(1.91574 0.00219101 0)
(1.91681 0.00220671 0)
(1.91792 0.00222108 0)
(1.91907 0.00223406 0)
(1.92027 0.00224559 0)
(1.92151 0.00225564 0)
(1.9228 0.00226423 0)
(1.92415 0.00227146 0)
(1.92555 0.0022774 0)
(1.927 0.00228224 0)
(1.92851 0.00228608 0)
(1.93008 0.0022891 0)
(1.93169 0.00229142 0)
(1.93336 0.00229308 0)
(1.93508 0.0022943 0)
(1.93684 0.00229515 0)
(1.93863 0.00229572 0)
(1.94047 0.00229617 0)
(1.94233 0.00229658 0)
(1.94421 0.00229699 0)
(1.94611 0.0022974 0)
(1.94803 0.00229776 0)
(1.94996 0.002298 0)
(1.9519 0.00229796 0)
(1.95385 0.00229768 0)
(1.95581 0.00229717 0)
(1.95779 0.00229643 0)
(1.95978 0.00229557 0)
(1.96179 0.00229468 0)
(1.96381 0.00229385 0)
(1.96586 0.00229301 0)
(1.96792 0.00229218 0)
(1.97 0.00229132 0)
(1.9721 0.00229031 0)
(1.97422 0.00228917 0)
(1.97637 0.00228798 0)
(1.97853 0.00228681 0)
(1.98072 0.0022859 0)
(1.98291 0.00228545 0)
(1.98512 0.00228556 0)
(1.98733 0.00228631 0)
(1.98953 0.00228771 0)
(1.99173 0.00228967 0)
(1.99392 0.00229198 0)
(1.9961 0.0022944 0)
(1.99826 0.00229675 0)
(2.00042 0.00229892 0)
(2.00257 0.00230073 0)
(2.00472 0.00230217 0)
(2.00687 0.00230329 0)
(2.00902 0.0023042 0)
(2.01119 0.00230504 0)
(2.01335 0.00230592 0)
(2.01553 0.00230692 0)
(2.01771 0.00230813 0)
(2.0199 0.00230959 0)
(2.02209 0.00231126 0)
(2.02428 0.00231312 0)
(2.02647 0.0023151 0)
(2.02866 0.00231715 0)
(2.03085 0.00231921 0)
(2.03304 0.00232121 0)
(2.03522 0.0023231 0)
(2.03741 0.00232487 0)
(2.03959 0.00232653 0)
(2.04177 0.00232808 0)
(2.04395 0.00232953 0)
(2.04614 0.00233087 0)
(2.04832 0.00233213 0)
(2.0505 0.00233333 0)
(2.05269 0.0023345 0)
(2.05487 0.00233563 0)
(2.05706 0.0023367 0)
(2.05925 0.00233776 0)
(2.06144 0.00233881 0)
(2.06363 0.00233983 0)
(2.06582 0.00234082 0)
(2.06801 0.00234181 0)
(2.0702 0.00234276 0)
(2.07239 0.00234365 0)
(2.07459 0.00234454 0)
(2.07678 0.00234541 0)
(2.07898 0.00234621 0)
(2.08117 0.002347 0)
(2.08337 0.00234777 0)
(2.08556 0.0023485 0)
(2.08776 0.00234919 0)
(2.08996 0.00234986 0)
(2.09215 0.00235048 0)
(2.09435 0.00235106 0)
(2.09655 0.00235164 0)
(2.09874 0.00235223 0)
(2.10094 0.00235275 0)
(2.10314 0.00235321 0)
(2.10534 0.00235367 0)
(2.10753 0.00235414 0)
(2.10973 0.00235458 0)
(2.11193 0.00235497 0)
(2.11413 0.00235535 0)
(2.11633 0.00235568 0)
(2.11852 0.002356 0)
(2.12072 0.00235636 0)
(2.12292 0.00235662 0)
(2.12511 0.00235685 0)
(2.12731 0.00235712 0)
(2.12951 0.00235734 0)
(2.1317 0.00235755 0)
(2.1339 0.00235771 0)
(2.13609 0.00235788 0)
(2.13828 0.00235802 0)
(2.14048 0.00235813 0)
(2.14267 0.00235824 0)
(2.14486 0.00235832 0)
(2.14705 0.00235836 0)
(2.14924 0.00235841 0)
(2.15143 0.00235846 0)
(2.15362 0.00235846 0)
(2.15581 0.00235841 0)
(2.158 0.0023584 0)
(2.16018 0.00235837 0)
(2.16237 0.00235828 0)
(2.16455 0.00235818 0)
(2.16674 0.00235809 0)
(2.16892 0.00235799 0)
(2.1711 0.00235785 0)
(2.17328 0.00235766 0)
(2.17546 0.00235749 0)
(2.17763 0.00235735 0)
(2.17981 0.00235714 0)
(2.18198 0.0023569 0)
(2.18416 0.00235667 0)
(2.18633 0.0023564 0)
(2.1885 0.00235613 0)
(2.19066 0.00235586 0)
(2.19283 0.00235556 0)
(2.195 0.00235521 0)
(2.19716 0.00235492 0)
(2.19932 0.00235455 0)
(2.20148 0.00235422 0)
(2.20364 0.00235376 0)
(2.20579 0.00235349 0)
(2.20795 0.00235291 0)
(2.2101 0.00235277 0)
(2.21226 0.00235185 0)
(2.2144 0.00235208 0)
(2.21655 0.00235062 0)
(2.21868 0.00235163 0)
(2.22085 0.00234887 0)
(2.22294 0.00235184 0)
(2.22515 0.00234605 0)
(2.22718 0.00235369 0)
(2.22947 0.00234094 0)
(2.23136 0.00235953 0)
(2.23384 0.00233121 0)
(2.23541 0.00237465 0)
(2.23827 0.00231488 0)
(2.23925 0.00241034 0)
(2.24274 0.00228159 0)
(2.24282 0.00243063 0)
(2.24685 0.00228708 0)
(4.41287 0.427986 0)
(4.24308 0.217555 0)
(3.99572 0.0797824 0)
(3.70598 0.0538526 0)
(3.4765 0.0375786 0)
(3.3252 0.0229478 0)
(3.23575 0.015359 0)
(3.17693 0.0131151 0)
(3.12826 0.0122969 0)
(3.08425 0.0111375 0)
(3.04593 0.0097722 0)
(3.01373 0.00862488 0)
(2.98658 0.00776874 0)
(2.96324 0.00709045 0)
(2.94294 0.00650594 0)
(2.92522 0.0059929 0)
(2.90972 0.00554791 0)
(2.89611 0.00516207 0)
(2.88412 0.00482264 0)
(2.87353 0.00451786 0)
(2.8642 0.00424232 0)
(2.85597 0.00399458 0)
(2.8487 0.00377364 0)
(2.84229 0.00357794 0)
(2.83659 0.00340472 0)
(2.83154 0.00325012 0)
(2.82704 0.00310948 0)
(2.82308 0.00297852 0)
(2.81962 0.00285499 0)
(2.81663 0.002738 0)
(2.8141 0.00262726 0)
(2.81199 0.00252327 0)
(2.81027 0.00242666 0)
(2.8089 0.00233782 0)
(2.80785 0.00225692 0)
(2.80708 0.00218403 0)
(2.80654 0.00211942 0)
(2.80621 0.00206361 0)
(2.80605 0.00201765 0)
(2.80601 0.00198269 0)
(2.80605 0.00195774 0)
(2.80615 0.00194236 0)
(2.80627 0.00193648 0)
(2.80639 0.00193936 0)
(2.8065 0.00194992 0)
(2.8066 0.00196726 0)
(2.80666 0.00199083 0)
(2.80669 0.00202038 0)
(2.8067 0.00205567 0)
(2.80666 0.00209626 0)
(2.80659 0.00214158 0)
(2.80648 0.002191 0)
(2.80634 0.00224406 0)
(2.80616 0.00230032 0)
(2.80595 0.00235928 0)
(2.80571 0.00242047 0)
(2.80544 0.00248359 0)
(2.80514 0.00254813 0)
(2.80482 0.00261345 0)
(2.80447 0.00267887 0)
(2.80412 0.00274364 0)
(2.80375 0.00280711 0)
(2.80339 0.00286867 0)
(2.80305 0.00292776 0)
(2.80273 0.00298401 0)
(2.80245 0.00303713 0)
(2.80222 0.003087 0)
(2.80206 0.00313351 0)
(2.80196 0.00317672 0)
(2.80195 0.00321683 0)
(2.80203 0.00325412 0)
(2.80219 0.00328889 0)
(2.80244 0.00332143 0)
(2.80279 0.00335213 0)
(2.80322 0.00338116 0)
(2.80373 0.0034086 0)
(2.80432 0.00343459 0)
(2.80499 0.00345924 0)
(2.80573 0.00348257 0)
(2.80654 0.00350453 0)
(2.80741 0.00352507 0)
(2.80835 0.00354412 0)
(2.80934 0.00356157 0)
(2.8104 0.00357722 0)
(2.81153 0.00359094 0)
(2.81272 0.00360261 0)
(2.81398 0.00361224 0)
(2.81531 0.00361993 0)
(2.81673 0.00362583 0)
(2.81822 0.00363016 0)
(2.81978 0.00363318 0)
(2.82143 0.00363513 0)
(2.82316 0.00363624 0)
(2.82496 0.00363665 0)
(2.82683 0.00363667 0)
(2.82876 0.0036365 0)
(2.83076 0.00363625 0)
(2.8328 0.00363618 0)
(2.8349 0.00363641 0)
(2.83703 0.00363696 0)
(2.83919 0.00363778 0)
(2.84138 0.0036387 0)
(2.8436 0.00363955 0)
(2.84583 0.00364 0)
(2.84809 0.00364003 0)
(2.85037 0.0036396 0)
(2.85268 0.00363869 0)
(2.855 0.00363747 0)
(2.85735 0.00363605 0)
(2.85973 0.00363458 0)
(2.86214 0.003633 0)
(2.86457 0.00363133 0)
(2.86704 0.00362956 0)
(2.86953 0.00362755 0)
(2.87206 0.00362539 0)
(2.87462 0.00362326 0)
(2.87721 0.00362132 0)
(2.87983 0.00361998 0)
(2.88247 0.00361958 0)
(2.88513 0.00362033 0)
(2.8878 0.00362231 0)
(2.89047 0.00362552 0)
(2.89313 0.00362976 0)
(2.89579 0.00363464 0)
(2.89844 0.00363973 0)
(2.90108 0.00364467 0)
(2.90372 0.00364922 0)
(2.90634 0.00365312 0)
(2.90897 0.00365633 0)
(2.9116 0.00365891 0)
(2.91424 0.00366102 0)
(2.91689 0.00366295 0)
(2.91955 0.00366489 0)
(2.92222 0.00366699 0)
(2.92491 0.00366944 0)
(2.9276 0.00367229 0)
(2.93031 0.00367553 0)
(2.93302 0.00367911 0)
(2.93574 0.00368294 0)
(2.93846 0.00368693 0)
(2.94119 0.00369097 0)
(2.94392 0.00369496 0)
(2.94665 0.00369878 0)
(2.94939 0.00370245 0)
(2.95213 0.00370594 0)
(2.95487 0.00370927 0)
(2.95762 0.00371244 0)
(2.96038 0.00371544 0)
(2.96314 0.0037183 0)
(2.96591 0.00372105 0)
(2.96868 0.00372374 0)
(2.97146 0.00372639 0)
(2.97425 0.00372899 0)
(2.97705 0.00373154 0)
(2.97985 0.00373405 0)
(2.98265 0.00373654 0)
(2.98547 0.00373898 0)
(2.98829 0.0037414 0)
(2.99111 0.00374378 0)
(2.99394 0.00374608 0)
(2.99678 0.00374837 0)
(2.99962 0.00375062 0)
(3.00247 0.00375279 0)
(3.00533 0.00375491 0)
(3.00819 0.00375701 0)
(3.01106 0.00375906 0)
(3.01394 0.00376104 0)
(3.01682 0.00376297 0)
(3.0197 0.00376485 0)
(3.02259 0.00376668 0)
(3.02549 0.00376849 0)
(3.0284 0.00377027 0)
(3.03131 0.00377198 0)
(3.03422 0.00377361 0)
(3.03714 0.00377522 0)
(3.04007 0.00377684 0)
(3.043 0.00377841 0)
(3.04594 0.00377991 0)
(3.04889 0.00378139 0)
(3.05184 0.0037828 0)
(3.05479 0.00378417 0)
(3.05775 0.00378557 0)
(3.06072 0.00378687 0)
(3.06369 0.00378811 0)
(3.06667 0.00378938 0)
(3.06965 0.00379058 0)
(3.07264 0.00379175 0)
(3.07564 0.00379286 0)
(3.07864 0.00379396 0)
(3.08164 0.00379501 0)
(3.08465 0.00379603 0)
(3.08767 0.00379702 0)
(3.09069 0.00379797 0)
(3.09371 0.00379885 0)
(3.09674 0.00379973 0)
(3.09978 0.00380062 0)
(3.10282 0.00380142 0)
(3.10586 0.00380215 0)
(3.10891 0.00380291 0)
(3.11197 0.00380363 0)
(3.11503 0.00380427 0)
(3.11809 0.0038049 0)
(3.12116 0.00380551 0)
(3.12424 0.00380609 0)
(3.12732 0.00380662 0)
(3.1304 0.00380709 0)
(3.13349 0.00380756 0)
(3.13658 0.00380804 0)
(3.13968 0.00380844 0)
(3.14278 0.00380877 0)
(3.14589 0.00380911 0)
(3.149 0.0038094 0)
(3.15211 0.00380966 0)
(3.15523 0.00380992 0)
(3.15836 0.00381013 0)
(3.16149 0.00381027 0)
(3.16462 0.00381044 0)
(3.16775 0.00381056 0)
(3.17089 0.00381065 0)
(3.17404 0.00381062 0)
(3.17718 0.00381075 0)
(3.18034 0.0038106 0)
(3.18349 0.00381085 0)
(3.18665 0.00381027 0)
(3.1898 0.00381091 0)
(3.19299 0.00380973 0)
(3.19613 0.00381125 0)
(3.19934 0.00380856 0)
(3.20245 0.00381227 0)
(3.20573 0.00380621 0)
(3.20876 0.00381526 0)
(3.21216 0.00380136 0)
(3.21501 0.00382325 0)
(3.21869 0.00379137 0)
(3.22112 0.00384421 0)
(3.22536 0.00377352 0)
(3.22697 0.00390059 0)
(3.23212 0.00373636 0)
(3.23242 0.00394989 0)
(3.23841 0.00371929 0)
(4.58988 0.400073 0)
(4.81987 0.243249 0)
(4.8105 0.107039 0)
(4.61981 0.0837696 0)
(4.40553 0.0638953 0)
(4.24284 0.0414793 0)
(4.13648 0.0281499 0)
(4.06351 0.0231985 0)
(4.00448 0.0211909 0)
(3.95248 0.0191736 0)
(3.90721 0.0169746 0)
(3.86868 0.0150745 0)
(3.83585 0.0135971 0)
(3.80749 0.0124115 0)
(3.78276 0.0113994 0)
(3.7611 0.0105181 0)
(3.74209 0.00975435 0)
(3.72533 0.00909121 0)
(3.71052 0.00850722 0)
(3.69741 0.00798255 0)
(3.68581 0.00750756 0)
(3.67557 0.00707893 0)
(3.66652 0.00669424 0)
(3.65852 0.00635062 0)
(3.65143 0.00604367 0)
(3.64514 0.0057673 0)
(3.63956 0.00551421 0)
(3.63464 0.00527801 0)
(3.63032 0.00505545 0)
(3.62659 0.00484527 0)
(3.6234 0.00464709 0)
(3.62073 0.00446158 0)
(3.61853 0.00428935 0)
(3.61677 0.00413049 0)
(3.61539 0.00398468 0)
(3.61436 0.00385145 0)
(3.61363 0.00373079 0)
(3.61317 0.0036231 0)
(3.61294 0.00352968 0)
(3.61287 0.00345193 0)
(3.61294 0.00338813 0)
(3.61311 0.0033374 0)
(3.61333 0.00329944 0)
(3.61357 0.00327302 0)
(3.61383 0.00325654 0)
(3.61408 0.00324872 0)
(3.6143 0.00324881 0)
(3.61451 0.00325656 0)
(3.61468 0.00327168 0)
(3.61481 0.00329367 0)
(3.6149 0.00332177 0)
(3.61495 0.00335516 0)
(3.61496 0.00339329 0)
(3.61493 0.00343571 0)
(3.61486 0.00348186 0)
(3.61475 0.00353131 0)
(3.61461 0.00358379 0)
(3.61443 0.00363874 0)
(3.61423 0.00369544 0)
(3.614 0.00375301 0)
(3.61375 0.00381058 0)
(3.61348 0.00386734 0)
(3.61322 0.00392251 0)
(3.61296 0.00397541 0)
(3.61272 0.00402556 0)
(3.61252 0.00407265 0)
(3.61236 0.00411648 0)
(3.61227 0.0041569 0)
(3.61224 0.00419397 0)
(3.6123 0.004228 0)
(3.61244 0.00425931 0)
(3.61268 0.00428822 0)
(3.61301 0.00431516 0)
(3.61344 0.00434057 0)
(3.61397 0.00436464 0)
(3.6146 0.00438742 0)
(3.61531 0.00440904 0)
(3.61612 0.00442963 0)
(3.61701 0.00444918 0)
(3.61798 0.00446758 0)
(3.61903 0.00448469 0)
(3.62015 0.00450046 0)
(3.62134 0.00451466 0)
(3.62261 0.00452697 0)
(3.62395 0.00453718 0)
(3.62537 0.0045451 0)
(3.62687 0.00455071 0)
(3.62845 0.00455412 0)
(3.63011 0.00455549 0)
(3.63187 0.00455513 0)
(3.63371 0.00455336 0)
(3.63564 0.00455046 0)
(3.63765 0.00454682 0)
(3.63976 0.00454265 0)
(3.64194 0.00453828 0)
(3.64421 0.00453397 0)
(3.64654 0.00452993 0)
(3.64894 0.00452644 0)
(3.6514 0.00452365 0)
(3.65391 0.00452155 0)
(3.65646 0.00451999 0)
(3.65905 0.00451873 0)
(3.66167 0.00451741 0)
(3.66433 0.0045156 0)
(3.66701 0.00451315 0)
(3.66973 0.00450999 0)
(3.67247 0.00450609 0)
(3.67525 0.00450164 0)
(3.67805 0.00449682 0)
(3.68089 0.00449182 0)
(3.68375 0.00448665 0)
(3.68666 0.00448133 0)
(3.68959 0.00447585 0)
(3.69256 0.00447014 0)
(3.69557 0.00446432 0)
(3.69861 0.00445862 0)
(3.70169 0.00445335 0)
(3.7048 0.00444906 0)
(3.70794 0.00444619 0)
(3.7111 0.00444505 0)
(3.71428 0.00444572 0)
(3.71747 0.00444817 0)
(3.72066 0.00445208 0)
(3.72385 0.0044569 0)
(3.72703 0.00446204 0)
(3.73021 0.00446694 0)
(3.73337 0.00447126 0)
(3.73654 0.00447464 0)
(3.73971 0.004477 0)
(3.74288 0.00447847 0)
(3.74605 0.00447929 0)
(3.74924 0.00447982 0)
(3.75244 0.00448036 0)
(3.75566 0.00448116 0)
(3.75888 0.00448247 0)
(3.76212 0.00448438 0)
(3.76537 0.00448688 0)
(3.76863 0.00448991 0)
(3.7719 0.00449337 0)
(3.77518 0.0044971 0)
(3.77847 0.00450096 0)
(3.78176 0.0045048 0)
(3.78506 0.00450848 0)
(3.78837 0.00451196 0)
(3.79168 0.00451526 0)
(3.795 0.00451835 0)
(3.79833 0.00452125 0)
(3.80167 0.00452395 0)
(3.80502 0.00452648 0)
(3.80837 0.00452888 0)
(3.81174 0.00453124 0)
(3.81511 0.00453356 0)
(3.8185 0.00453579 0)
(3.82189 0.00453799 0)
(3.82529 0.00454018 0)
(3.82871 0.00454236 0)
(3.83213 0.00454451 0)
(3.83556 0.00454665 0)
(3.839 0.00454876 0)
(3.84245 0.0045508 0)
(3.84591 0.00455284 0)
(3.84938 0.00455486 0)
(3.85286 0.00455679 0)
(3.85635 0.00455869 0)
(3.85985 0.00456057 0)
(3.86335 0.00456241 0)
(3.86687 0.00456419 0)
(3.87039 0.00456591 0)
(3.87393 0.00456761 0)
(3.87747 0.00456925 0)
(3.88102 0.00457089 0)
(3.88459 0.00457251 0)
(3.88816 0.00457405 0)
(3.89174 0.00457553 0)
(3.89533 0.00457701 0)
(3.89893 0.0045785 0)
(3.90254 0.00457995 0)
(3.90616 0.00458133 0)
(3.90978 0.0045827 0)
(3.91342 0.00458401 0)
(3.91706 0.00458529 0)
(3.92072 0.00458661 0)
(3.92438 0.00458785 0)
(3.92805 0.00458903 0)
(3.93174 0.00459024 0)
(3.93543 0.00459141 0)
(3.93913 0.00459254 0)
(3.94283 0.00459362 0)
(3.94655 0.0045947 0)
(3.95028 0.00459576 0)
(3.95401 0.00459678 0)
(3.95776 0.00459779 0)
(3.96151 0.00459876 0)
(3.96527 0.00459967 0)
(3.96904 0.00460059 0)
(3.97282 0.00460154 0)
(3.97661 0.0046024 0)
(3.9804 0.00460321 0)
(3.98421 0.00460404 0)
(3.98802 0.00460486 0)
(3.99184 0.00460559 0)
(3.99567 0.00460634 0)
(3.99951 0.00460708 0)
(4.00336 0.00460776 0)
(4.00722 0.00460844 0)
(4.01108 0.00460907 0)
(4.01495 0.0046097 0)
(4.01883 0.00461036 0)
(4.02272 0.00461093 0)
(4.02662 0.00461144 0)
(4.03053 0.00461197 0)
(4.03444 0.00461249 0)
(4.03836 0.00461296 0)
(4.04229 0.00461346 0)
(4.04623 0.00461391 0)
(4.05018 0.00461431 0)
(4.05413 0.00461473 0)
(4.05809 0.00461516 0)
(4.06206 0.00461549 0)
(4.06604 0.00461582 0)
(4.07002 0.0046162 0)
(4.07402 0.00461648 0)
(4.07801 0.00461697 0)
(4.08203 0.00461686 0)
(4.08603 0.00461771 0)
(4.09008 0.00461717 0)
(4.09407 0.00461879 0)
(4.09816 0.00461698 0)
(4.10213 0.0046205 0)
(4.10629 0.00461594 0)
(4.11018 0.00462415 0)
(4.11449 0.004613 0)
(4.11818 0.00463295 0)
(4.12281 0.0046059 0)
(4.12604 0.00465687 0)
(4.13131 0.00459184 0)
(4.13361 0.00472915 0)
(4.13998 0.00455827 0)
(4.1407 0.00481123 0)
(4.14819 0.0045226 0)
(4.58452 0.334377 0)
(5.00927 0.230455 0)
(5.22036 0.10941 0)
(5.20067 0.0995504 0)
(5.07941 0.085143 0)
(4.9572 0.0593541 0)
(4.86445 0.0415217 0)
(4.79501 0.0339079 0)
(4.73681 0.0304817 0)
(4.6851 0.0274746 0)
(4.6397 0.0244217 0)
(4.60055 0.0217856 0)
(4.56678 0.019697 0)
(4.53735 0.0180029 0)
(4.51154 0.016558 0)
(4.48883 0.0153031 0)
(4.46882 0.0142159 0)
(4.45112 0.0132712 0)
(4.43543 0.0124385 0)
(4.42153 0.0116899 0)
(4.40923 0.0110108 0)
(4.39838 0.0103958 0)
(4.38883 0.00984118 0)
(4.38043 0.00934302 0)
(4.37306 0.00889521 0)
(4.36657 0.00848944 0)
(4.36089 0.00811604 0)
(4.35594 0.0077668 0)
(4.35166 0.00743748 0)
(4.34801 0.0071266 0)
(4.34496 0.00683403 0)
(4.34246 0.00656082 0)
(4.34048 0.00630752 0)
(4.33897 0.00607382 0)
(4.33789 0.00585867 0)
(4.33719 0.00566092 0)
(4.33685 0.00548004 0)
(4.33682 0.0053161 0)
(4.33705 0.00517052 0)
(4.33752 0.00504493 0)
(4.33816 0.0049368 0)
(4.33894 0.0048448 0)
(4.33981 0.00476845 0)
(4.34076 0.00470597 0)
(4.34173 0.0046553 0)
(4.34273 0.00461481 0)
(4.34372 0.00458354 0)
(4.34471 0.00456131 0)
(4.34566 0.00454784 0)
(4.34659 0.00454244 0)
(4.34747 0.00454414 0)
(4.34832 0.00455186 0)
(4.34912 0.00456497 0)
(4.34987 0.00458291 0)
(4.35059 0.00460506 0)
(4.35127 0.00463105 0)
(4.35192 0.00466061 0)
(4.35254 0.00469329 0)
(4.35312 0.00472832 0)
(4.35368 0.0047648 0)
(4.35421 0.00480183 0)
(4.35473 0.00483853 0)
(4.35523 0.00487413 0)
(4.35574 0.00490797 0)
(4.35625 0.00493963 0)
(4.35678 0.00496883 0)
(4.35735 0.00499534 0)
(4.35795 0.00501904 0)
(4.3586 0.00504003 0)
(4.35932 0.0050587 0)
(4.36011 0.00507532 0)
(4.36098 0.00509027 0)
(4.36193 0.00510405 0)
(4.36297 0.00511705 0)
(4.3641 0.00512942 0)
(4.36533 0.00514114 0)
(4.36664 0.0051523 0)
(4.36804 0.00516299 0)
(4.36953 0.00517313 0)
(4.3711 0.00518254 0)
(4.37275 0.00519106 0)
(4.37448 0.00519858 0)
(4.37628 0.00520484 0)
(4.37815 0.00520941 0)
(4.3801 0.00521205 0)
(4.38213 0.00521252 0)
(4.38423 0.00521075 0)
(4.3864 0.0052069 0)
(4.38866 0.00520112 0)
(4.391 0.00519377 0)
(4.39342 0.00518522 0)
(4.39593 0.00517581 0)
(4.39853 0.00516596 0)
(4.4012 0.00515595 0)
(4.40396 0.00514608 0)
(4.4068 0.00513665 0)
(4.40971 0.0051279 0)
(4.41269 0.0051201 0)
(4.41573 0.00511337 0)
(4.41884 0.00510765 0)
(4.42199 0.00510273 0)
(4.42519 0.00509822 0)
(4.42843 0.00509365 0)
(4.43171 0.00508849 0)
(4.43503 0.00508246 0)
(4.43838 0.00507544 0)
(4.44176 0.00506741 0)
(4.44518 0.00505859 0)
(4.44863 0.00504922 0)
(4.45211 0.00503955 0)
(4.45563 0.00502964 0)
(4.45918 0.00501956 0)
(4.46276 0.00500933 0)
(4.46637 0.00499892 0)
(4.47002 0.0049885 0)
(4.4737 0.00497837 0)
(4.47741 0.00496893 0)
(4.48116 0.00496078 0)
(4.48494 0.00495449 0)
(4.48875 0.00495038 0)
(4.49257 0.00494854 0)
(4.49641 0.00494888 0)
(4.50026 0.00495097 0)
(4.50412 0.00495413 0)
(4.50797 0.00495761 0)
(4.51183 0.00496075 0)
(4.51568 0.00496307 0)
(4.51953 0.00496419 0)
(4.52338 0.00496402 0)
(4.52724 0.00496274 0)
(4.5311 0.00496066 0)
(4.53497 0.00495824 0)
(4.53885 0.00495588 0)
(4.54274 0.0049539 0)
(4.54664 0.0049526 0)
(4.55055 0.00495211 0)
(4.55447 0.00495243 0)
(4.5584 0.00495349 0)
(4.56234 0.00495514 0)
(4.56629 0.00495719 0)
(4.57025 0.00495947 0)
(4.57422 0.00496178 0)
(4.5782 0.00496393 0)
(4.58218 0.00496588 0)
(4.58618 0.00496763 0)
(4.59018 0.00496915 0)
(4.59419 0.00497046 0)
(4.59821 0.00497155 0)
(4.60224 0.00497245 0)
(4.60628 0.00497322 0)
(4.61033 0.00497393 0)
(4.61439 0.00497462 0)
(4.61846 0.00497526 0)
(4.62254 0.00497588 0)
(4.62664 0.0049765 0)
(4.63074 0.00497714 0)
(4.63485 0.00497776 0)
(4.63897 0.00497839 0)
(4.64311 0.00497901 0)
(4.64725 0.00497959 0)
(4.6514 0.00498018 0)
(4.65557 0.00498077 0)
(4.65974 0.00498128 0)
(4.66393 0.00498177 0)
(4.66812 0.00498227 0)
(4.67233 0.00498274 0)
(4.67655 0.00498316 0)
(4.68077 0.00498353 0)
(4.68501 0.0049839 0)
(4.68926 0.00498424 0)
(4.69352 0.00498458 0)
(4.69778 0.00498491 0)
(4.70206 0.00498518 0)
(4.70635 0.0049854 0)
(4.71065 0.00498564 0)
(4.71496 0.00498591 0)
(4.71928 0.00498615 0)
(4.72361 0.00498635 0)
(4.72795 0.00498654 0)
(4.73231 0.00498669 0)
(4.73667 0.00498683 0)
(4.74104 0.00498703 0)
(4.74542 0.00498716 0)
(4.74982 0.00498724 0)
(4.75422 0.00498737 0)
(4.75863 0.00498749 0)
(4.76305 0.00498758 0)
(4.76749 0.00498764 0)
(4.77193 0.0049877 0)
(4.77639 0.00498777 0)
(4.78085 0.00498783 0)
(4.78532 0.00498788 0)
(4.78981 0.00498791 0)
(4.7943 0.00498791 0)
(4.79881 0.00498792 0)
(4.80332 0.00498798 0)
(4.80785 0.00498798 0)
(4.81238 0.00498793 0)
(4.81693 0.00498794 0)
(4.82148 0.00498794 0)
(4.82605 0.00498788 0)
(4.83062 0.00498786 0)
(4.83521 0.00498783 0)
(4.8398 0.00498777 0)
(4.84441 0.00498773 0)
(4.84902 0.00498766 0)
(4.85364 0.00498761 0)
(4.85828 0.00498761 0)
(4.86292 0.00498753 0)
(4.86758 0.0049874 0)
(4.87224 0.00498732 0)
(4.87691 0.00498727 0)
(4.8816 0.00498716 0)
(4.88629 0.00498712 0)
(4.89099 0.00498703 0)
(4.8957 0.00498694 0)
(4.90042 0.00498685 0)
(4.90515 0.00498685 0)
(4.90989 0.00498669 0)
(4.91464 0.00498666 0)
(4.9194 0.00498656 0)
(4.92417 0.00498658 0)
(4.92894 0.00498658 0)
(4.93374 0.00498633 0)
(4.93852 0.00498662 0)
(4.94334 0.0049862 0)
(4.94812 0.00498705 0)
(4.95299 0.00498583 0)
(4.95775 0.00498798 0)
(4.9627 0.00498513 0)
(4.96738 0.00499062 0)
(4.97249 0.00498357 0)
(4.97696 0.00499805 0)
(4.98241 0.00497953 0)
(4.9864 0.00502192 0)
(4.99252 0.00497041 0)
(4.99556 0.00510416 0)
(5.00287 0.00494642 0)
(5.00414 0.00521425 0)
(5.0129 0.00490319 0)
(4.55201 0.275064 0)
(5.00273 0.203988 0)
(5.31419 0.0927531 0)
(5.43621 0.0946667 0)
(5.44367 0.0917678 0)
(5.41148 0.0694422 0)
(5.37464 0.0511866 0)
(5.33877 0.042701 0)
(5.30185 0.0385587 0)
(5.26476 0.0348582 0)
(5.22994 0.0311196 0)
(5.19867 0.0278685 0)
(5.1709 0.0252629 0)
(5.14616 0.0231361 0)
(5.1241 0.0213219 0)
(5.10445 0.0197484 0)
(5.08697 0.0183857 0)
(5.0714 0.0172011 0)
(5.05753 0.0161563 0)
(5.0452 0.0152162 0)
(5.03429 0.0143619 0)
(5.02468 0.0135857 0)
(5.01628 0.0128831 0)
(5.00898 0.0122493 0)
(5.00265 0.0116771 0)
(4.99721 0.0111563 0)
(4.99257 0.0106752 0)
(4.98864 0.010224 0)
(4.98539 0.00979762 0)
(4.98275 0.00939452 0)
(4.9807 0.00901516 0)
(4.97919 0.00866127 0)
(4.97817 0.00833368 0)
(4.97761 0.00803176 0)
(4.97748 0.00775389 0)
(4.97773 0.00749815 0)
(4.97834 0.00726335 0)
(4.97927 0.00704915 0)
(4.98049 0.006857 0)
(4.98197 0.0066886 0)
(4.98366 0.00654058 0)
(4.98553 0.00641125 0)
(4.98753 0.00629992 0)
(4.98963 0.00620432 0)
(4.9918 0.00612189 0)
(4.99402 0.00605068 0)
(4.99625 0.00598962 0)
(4.9985 0.00593857 0)
(5.00073 0.00589728 0)
(5.00294 0.00586493 0)
(5.00511 0.00584024 0)
(5.00724 0.0058219 0)
(5.00934 0.00580905 0)
(5.01139 0.00580096 0)
(5.01341 0.00579688 0)
(5.0154 0.00579639 0)
(5.01735 0.00579927 0)
(5.01929 0.00580512 0)
(5.02119 0.00581318 0)
(5.02308 0.00582255 0)
(5.02494 0.00583241 0)
(5.02679 0.00584192 0)
(5.02863 0.00585047 0)
(5.03046 0.00585755 0)
(5.03228 0.00586294 0)
(5.03411 0.0058665 0)
(5.03595 0.00586813 0)
(5.0378 0.00586785 0)