/*--------------------------------*- C++ -*----------------------------------*\
  =========                 |
  \\      /  F ield         | OpenFOAM: The Open Source CFD Toolbox
   \\    /   O peration     | Website:  https://openfoam.org
    \\  /    A nd           | Version:  7
     \\/     M anipulation  |
\*---------------------------------------------------------------------------*/
FoamFile
{
    version     2.0;
    format      ascii;
    class       volScalarField;
    location    "0.27";
    object      p;
}
// * * * * * * * * * * * * * * * * * * * * * * * * * * * * * * * * * * * * * //

dimensions      [1 -1 -2 0 0 0 0];

internalField   nonuniform List<scalar> 
7920
(
98604.2
98588.1
98595.2
98585.5
98591.7
98584.1
98589.3
98583.2
98587.5
98582.5
98586
98581.8
98584.5
98581
98583
98579.9
98581.4
98578.9
98580
98577.5
98588.2
98575.2
98582.5
98573.1
98579.3
98571.8
98576.9
98570.8
98575.1
98570.2
98573.6
98569.5
98572.2
98568.6
98570.6
98567.6
98569
98566.5
98567.2
98565.1
98596.1
98583.4
98590
98580.4
98586.5
98578.9
98584
98577.9
98582.1
98577.2
98580.6
98576.4
98579.1
98575.6
98577.6
98574.6
98576
98573.5
98574.6
98572.3
98588.8
98577.6
98584.3
98574.8
98581
98573.4
98578.6
98572.5
98576.7
98571.8
98575.2
98571
98573.7
98570.1
98572.2
98569.1
98570.6
98568.1
98568.8
98566.8
98592.7
98581.7
98588.1
98578.6
98584.7
98577.1
98582.2
98576.1
98580.4
98575.4
98578.8
98574.6
98577.3
98573.7
98575.8
98572.7
98574.2
98571.7
98572.7
98570.5
98590.4
98579.9
98586.3
98576.8
98582.9
98575.3
98580.4
98574.3
98578.6
98573.6
98577
98572.8
98575.5
98571.9
98574
98570.9
98572.4
98569.9
98570.7
98568.6
98590.4
98579.9
98586.3
98576.8
98582.9
98575.3
98580.4
98574.3
98578.6
98573.6
98577
98572.8
98575.5
98571.9
98574
98570.9
98572.4
98569.9
98570.7
98568.6
98592.7
98581.7
98588.1
98578.6
98584.7
98577.1
98582.2
98576.1
98580.4
98575.4
98578.8
98574.6
98577.3
98573.7
98575.8
98572.7
98574.2
98571.7
98572.7
98570.5
98588.8
98577.6
98584.3
98574.8
98581
98573.4
98578.6
98572.5
98576.7
98571.8
98575.2
98571
98573.7
98570.1
98572.2
98569.1
98570.6
98568.1
98568.8
98566.8
98596.1
98583.4
98590
98580.4
98586.5
98578.9
98584
98577.9
98582.1
98577.2
98580.6
98576.4
98579.1
98575.6
98577.6
98574.6
98576
98573.5
98574.6
98572.3
98588.2
98575.2
98582.5
98573.1
98579.3
98571.8
98576.9
98570.8
98575.1
98570.2
98573.6
98569.5
98572.2
98568.6
98570.6
98567.6
98569
98566.5
98567.2
98565.1
98604.2
98588.1
98595.2
98585.5
98591.7
98584.1
98589.3
98583.2
98587.5
98582.5
98586
98581.8
98584.5
98581
98583
98579.9
98581.4
98578.9
98580
98577.5
98569.5
98571.7
98565.3
98567.9
98564
98566
98563.3
98564.8
98562.9
98563.9
98562.6
98563.1
98562.2
98562.4
98561.7
98561.5
98561
98560.7
98560.3
98560.6
98580
98583.6
98577.2
98579.6
98575.6
98577.6
98574.8
98576.2
98574.3
98575.3
98573.9
98574.5
98573.5
98573.7
98573
98572.9
98572.4
98572.1
98571.9
98572.2
98571.3
98574.1
98568
98570.5
98566.5
98568.5
98565.8
98567.3
98565.4
98566.4
98565.1
98565.6
98564.6
98564.8
98564.1
98564
98563.5
98563.3
98562.7
98563
98577.3
98581
98575
98577.5
98573.4
98575.4
98572.6
98574
98572.1
98573.1
98571.7
98572.2
98571.3
98571.5
98570.8
98570.7
98570.2
98569.9
98569.6
98569.9
98573
98576.4
98570.5
98573
98568.9
98570.9
98568.1
98569.6
98567.7
98568.6
98567.3
98567.8
98566.9
98567
98566.3
98566.2
98565.7
98565.5
98565
98565.2
98575
98578.6
98572.7
98575.3
98571.2
98573.2
98570.4
98571.8
98569.9
98570.9
98569.5
98570
98569.1
98569.2
98568.5
98568.4
98567.9
98567.7
98567.3
98567.5
98575
98578.6
98572.7
98575.3
98571.2
98573.2
98570.4
98571.8
98569.9
98570.9
98569.5
98570
98569.1
98569.2
98568.5
98568.4
98567.9
98567.7
98567.3
98567.5
98573
98576.4
98570.5
98573
98568.9
98570.9
98568.1
98569.6
98567.7
98568.6
98567.3
98567.8
98566.9
98567
98566.3
98566.2
98565.7
98565.5
98565
98565.2
98577.3
98581
98575
98577.5
98573.4
98575.4
98572.6
98574
98572.1
98573.1
98571.7
98572.2
98571.3
98571.5
98570.8
98570.7
98570.2
98569.9
98569.6
98569.9
98571.3
98574.1
98568
98570.5
98566.5
98568.5
98565.8
98567.3
98565.4
98566.4
98565.1
98565.6
98564.6
98564.8
98564.1
98564
98563.5
98563.3
98562.7
98563
98580
98583.6
98577.2
98579.6
98575.6
98577.6
98574.8
98576.2
98574.3
98575.3
98573.9
98574.5
98573.5
98573.7
98573
98572.9
98572.4
98572.1
98571.9
98572.2
98569.5
98571.7
98565.3
98567.9
98564
98566
98563.3
98564.8
98562.9
98563.9
98562.6
98563.1
98562.2
98562.4
98561.7
98561.5
98561
98560.7
98560.3
98560.6
98559.9
98558.8
98558.3
98557.5
98556.7
98556.3
98555.8
98555.8
98555.3
98555.4
98555
98555
98554.5
98554.5
98553.9
98553.9
98553.2
98553.2
98552.4
98552.6
98559.6
98558.8
98558.2
98557.6
98556.8
98556.4
98555.8
98555.8
98555.4
98555.4
98555
98555
98554.5
98554.5
98553.9
98553.8
98553.2
98553.2
98552.4
98552.7
98559.6
98558.7
98558.2
98557.6
98556.8
98556.4
98555.8
98555.8
98555.4
98555.4
98555
98555
98554.5
98554.5
98553.9
98553.9
98553.2
98553.2
98552.4
98552.6
98559.4
98558.7
98558.2
98557.6
98556.9
98556.5
98555.9
98555.8
98555.4
98555.5
98555
98555
98554.5
98554.5
98553.9
98553.8
98553.2
98553.2
98552.4
98552.6
98559.4
98558.7
98558.2
98557.6
98556.9
98556.5
98555.9
98555.8
98555.4
98555.5
98555
98555
98554.5
98554.5
98553.9
98553.8
98553.2
98553.2
98552.4
98552.5
98559.3
98558.7
98558.2
98557.6
98556.9
98556.5
98555.9
98555.9
98555.4
98555.5
98555
98555
98554.5
98554.5
98553.9
98553.8
98553.2
98553.2
98552.4
98552.5
98559.3
98558.7
98558.2
98557.6
98556.9
98556.5
98555.9
98555.9
98555.4
98555.5
98555
98555
98554.5
98554.5
98553.9
98553.8
98553.2
98553.2
98552.4
98552.5
98559.4
98558.7
98558.2
98557.6
98556.9
98556.5
98555.9
98555.8
98555.4
98555.5
98555
98555
98554.5
98554.5
98553.9
98553.8
98553.2
98553.2
98552.4
98552.5
98559.4
98558.7
98558.2
98557.6
98556.9
98556.5
98555.9
98555.8
98555.4
98555.5
98555
98555
98554.5
98554.5
98553.9
98553.8
98553.2
98553.2
98552.4
98552.5
98559.6
98558.7
98558.2
98557.6
98556.8
98556.4
98555.8
98555.8
98555.4
98555.4
98555
98555
98554.5
98554.5
98553.9
98553.9
98553.2
98553.2
98552.4
98552.6
98559.6
98558.8
98558.2
98557.6
98556.8
98556.4
98555.8
98555.8
98555.4
98555.4
98555
98555
98554.5
98554.5
98553.9
98553.8
98553.2
98553.2
98552.4
98552.7
98559.9
98558.8
98558.3
98557.5
98556.7
98556.3
98555.8
98555.8
98555.3
98555.4
98555
98555
98554.5
98554.5
98553.9
98553.9
98553.2
98553.2
98552.4
98552.6
98559.9
98558.8
98558.3
98557.5
98556.7
98556.3
98555.8
98555.8
98555.3
98555.4
98555
98555
98554.5
98554.5
98553.9
98553.9
98553.2
98553.2
98552.4
98552.6
98559.6
98558.8
98558.2
98557.6
98556.8
98556.4
98555.8
98555.8
98555.4
98555.4
98555
98555
98554.5
98554.5
98553.9
98553.8
98553.2
98553.2
98552.4
98552.7
98559.6
98558.7
98558.2
98557.6
98556.8
98556.4
98555.8
98555.8
98555.4
98555.4
98555
98555
98554.5
98554.5
98553.9
98553.9
98553.2
98553.2
98552.4
98552.6
98559.4
98558.7
98558.2
98557.6
98556.9
98556.5
98555.9
98555.8
98555.4
98555.5
98555
98555
98554.5
98554.5
98553.9
98553.8
98553.2
98553.2
98552.4
98552.6
98559.4
98558.7
98558.2
98557.6
98556.9
98556.5
98555.9
98555.8
98555.4
98555.5
98555
98555
98554.5
98554.5
98553.9
98553.8
98553.2
98553.2
98552.4
98552.5
98559.3
98558.7
98558.2
98557.6
98556.9
98556.5
98555.9
98555.9
98555.4
98555.5
98555
98555
98554.5
98554.5
98553.9
98553.8
98553.2
98553.2
98552.4
98552.5
98559.3
98558.7
98558.2
98557.6
98556.9
98556.5
98555.9
98555.9
98555.4
98555.5
98555
98555
98554.5
98554.5
98553.9
98553.8
98553.2
98553.2
98552.4
98552.5
98559.4
98558.7
98558.2
98557.6
98556.9
98556.5
98555.9
98555.8
98555.4
98555.5
98555
98555
98554.5
98554.5
98553.9
98553.8
98553.2
98553.2
98552.4
98552.5
98559.4
98558.7
98558.2
98557.6
98556.9
98556.5
98555.9
98555.8
98555.4
98555.5
98555
98555
98554.5
98554.5
98553.9
98553.8
98553.2
98553.2
98552.4
98552.5
98559.6
98558.7
98558.2
98557.6
98556.8
98556.4
98555.8
98555.8
98555.4
98555.4
98555
98555
98554.5
98554.5
98553.9
98553.9
98553.2
98553.2
98552.4
98552.6
98559.6
98558.8
98558.2
98557.6
98556.8
98556.4
98555.8
98555.8
98555.4
98555.4
98555
98555
98554.5
98554.5
98553.9
98553.8
98553.2
98553.2
98552.4
98552.7
98559.9
98558.8
98558.3
98557.5
98556.7
98556.3
98555.8
98555.8
98555.3
98555.4
98555
98555
98554.5
98554.5
98553.9
98553.9
98553.2
98553.2
98552.4
98552.6
98569.5
98571.7
98565.3
98567.9
98564
98566
98563.3
98564.8
98562.9
98563.9
98562.6
98563.1
98562.2
98562.4
98561.7
98561.5
98561
98560.7
98560.3
98560.6
98580
98583.6
98577.2
98579.6
98575.6
98577.6
98574.8
98576.2
98574.3
98575.3
98573.9
98574.5
98573.5
98573.7
98573
98572.9
98572.4
98572.1
98571.9
98572.2
98571.3
98574.1
98568
98570.5
98566.5
98568.5
98565.8
98567.3
98565.4
98566.4
98565.1
98565.6
98564.6
98564.8
98564.1
98564
98563.5
98563.3
98562.7
98563
98577.3
98581
98575
98577.5
98573.4
98575.4
98572.6
98574
98572.1
98573.1
98571.7
98572.2
98571.3
98571.5
98570.8
98570.7
98570.2
98569.9
98569.6
98569.9
98573
98576.4
98570.5
98573
98568.9
98570.9
98568.1
98569.6
98567.7
98568.6
98567.3
98567.8
98566.9
98567
98566.3
98566.2
98565.7
98565.5
98565
98565.2
98575
98578.6
98572.7
98575.3
98571.2
98573.2
98570.4
98571.8
98569.9
98570.9
98569.5
98570
98569.1
98569.2
98568.5
98568.4
98567.9
98567.7
98567.3
98567.5
98575
98578.6
98572.7
98575.3
98571.2
98573.2
98570.4
98571.8
98569.9
98570.9
98569.5
98570
98569.1
98569.2
98568.5
98568.4
98567.9
98567.7
98567.3
98567.5
98573
98576.4
98570.5
98573
98568.9
98570.9
98568.1
98569.6
98567.7
98568.6
98567.3
98567.8
98566.9
98567
98566.3
98566.2
98565.7
98565.5
98565
98565.2
98577.3
98581
98575
98577.5
98573.4
98575.4
98572.6
98574
98572.1
98573.1
98571.7
98572.2
98571.3
98571.5
98570.8
98570.7
98570.2
98569.9
98569.6
98569.9
98571.3
98574.1
98568
98570.5
98566.5
98568.5
98565.8
98567.3
98565.4
98566.4
98565.1
98565.6
98564.6
98564.8
98564.1
98564
98563.5
98563.3
98562.7
98563
98580
98583.6
98577.2
98579.6
98575.6
98577.6
98574.8
98576.2
98574.3
98575.3
98573.9
98574.5
98573.5
98573.7
98573
98572.9
98572.4
98572.1
98571.9
98572.2
98569.5
98571.7
98565.3
98567.9
98564
98566
98563.3
98564.8
98562.9
98563.9
98562.6
98563.1
98562.2
98562.4
98561.7
98561.5
98561
98560.7
98560.3
98560.6
98604.2
98588.1
98595.2
98585.5
98591.7
98584.1
98589.3
98583.2
98587.5
98582.5
98586
98581.8
98584.5
98581
98583
98579.9
98581.4
98578.9
98580
98577.5
98588.2
98575.2
98582.5
98573.1
98579.3
98571.8
98576.9
98570.9
98575.1
98570.2
98573.6
98569.5
98572.2
98568.6
98570.6
98567.6
98569
98566.5
98567.2
98565.1
98596.1
98583.4
98590
98580.4
98586.5
98578.9
98584
98577.9
98582.1
98577.2
98580.6
98576.4
98579.1
98575.6
98577.6
98574.6
98576
98573.5
98574.6
98572.3
98588.8
98577.6
98584.3
98574.8
98581
98573.4
98578.6
98572.5
98576.7
98571.8
98575.2
98571
98573.7
98570.1
98572.2
98569.1
98570.6
98568.1
98568.8
98566.8
98592.7
98581.7
98588.1
98578.6
98584.7
98577.1
98582.2
98576.1
98580.4
98575.4
98578.8
98574.6
98577.3
98573.7
98575.8
98572.7
98574.2
98571.7
98572.7
98570.5
98590.4
98579.9
98586.3
98576.8
98582.9
98575.3
98580.4
98574.3
98578.6
98573.6
98577
98572.8
98575.5
98571.9
98574
98570.9
98572.4
98569.9
98570.7
98568.6
98590.4
98579.9
98586.3
98576.8
98582.9
98575.3
98580.4
98574.3
98578.6
98573.6
98577
98572.8
98575.5
98571.9
98574
98570.9
98572.4
98569.9
98570.7
98568.6
98592.7
98581.7
98588.1
98578.6
98584.7
98577.1
98582.2
98576.1
98580.4
98575.4
98578.8
98574.6
98577.3
98573.7
98575.8
98572.7
98574.2
98571.7
98572.7
98570.5
98588.8
98577.6
98584.3
98574.8
98581
98573.4
98578.6
98572.5
98576.7
98571.8
98575.2
98571
98573.7
98570.1
98572.2
98569.1
98570.6
98568.1
98568.8
98566.8
98596.1
98583.4
98590
98580.4
98586.5
98578.9
98584
98577.9
98582.1
98577.2
98580.6
98576.4
98579.1
98575.6
98577.6
98574.6
98576
98573.5
98574.6
98572.3
98588.2
98575.2
98582.5
98573.1
98579.3
98571.8
98576.9
98570.9
98575.1
98570.2
98573.6
98569.5
98572.2
98568.6
98570.6
98567.6
98569
98566.5
98567.2
98565.1
98604.2
98588.1
98595.2
98585.5
98591.7
98584.1
98589.3
98583.2
98587.5
98582.5
98586
98581.8
98584.5
98581
98583
98579.9
98581.4
98578.9
98580
98577.5
98598.2
98585.7
98589.2
98580.6
98584.4
98575.5
98577.1
98569
98571.5
98567.4
98571.8
98567.1
98568.1
98560.1
98559.5
98554.8
98558.2
98556.7
98559.7
98554.5
98553.1
98546.6
98546.4
98544.2
98547.5
98546.5
98548.6
98544.8
98543.6
98538.3
98537.3
98534.8
98538.1
98539.6
98543.8
98542.5
98541.3
98535.4
98532.7
98530.1
98533.2
98536.4
98542.4
98544.5
98546.1
98542.9
98539.4
98534
98533.1
98534.6
98541.7
98549.2
98557.1
98560.6
98561.8
98558.8
98555.5
98553.5
98556.7
98566
98581.2
98601.3
98621.6
98643.2
98660.9
98680.1
98696.6
98722.2
98750.8
98795.4
98846.4
98913.8
98984.5
99064.9
99143.4
99220
99293.9
99358
99426.1
99477.9
99545.9
99591.9
99664.5
99709.2
99783
99822.2
99884.8
99917.9
99958.6
99985.3
98564.5
98551
98554.3
98545.6
98549.5
98540.5
98542.1
98534
98536.5
98532.4
98536.8
98532.1
98533.1
98525.1
98524.5
98519.8
98523.2
98521.7
98524.7
98519.5
98518.1
98511.6
98511.4
98509.1
98512.5
98511.4
98513.5
98509.8
98508.6
98503.3
98502.2
98499.8
98503
98504.5
98508.7
98507.5
98506.2
98500.3
98497.6
98495.1
98498.2
98501.3
98507.3
98509.4
98511.1
98507.8
98504.3
98498.9
98498
98499.5
98506.6
98514.1
98522
98525.5
98526.7
98523.7
98520.4
98518.4
98521.6
98530.8
98546
98566.1
98586.5
98608
98625.7
98645
98661.4
98687
98715.6
98760.2
98811.1
98878.6
98949.2
99029.6
99108.1
99184.6
99258.4
99322.5
99390.6
99442.4
99510.3
99556.4
99628.9
99673.5
99747.3
99786.5
99849.1
99882.2
99923.1
99949.9
98583.3
98570.7
98574.2
98565.6
98569.4
98560.5
98562.1
98554
98556.5
98552.4
98556.8
98552.1
98553.1
98545.1
98544.5
98539.8
98543.2
98541.7
98544.7
98539.5
98538.1
98531.6
98531.5
98529.2
98532.6
98531.5
98533.6
98529.8
98528.7
98523.4
98522.3
98519.9
98523.1
98524.6
98528.8
98527.6
98526.4
98520.5
98517.7
98515.2
98518.3
98521.5
98527.5
98529.6
98531.2
98528
98524.5
98519.1
98518.2
98519.7
98526.8
98534.3
98542.3
98545.8
98546.9
98544
98540.6
98538.7
98541.9
98551.1
98566.4
98586.4
98606.8
98628.4
98646.1
98665.3
98681.8
98707.4
98736
98780.6
98831.6
98899
98969.7
99050.1
99128.6
99205.1
99279
99343.1
99411.2
99463
99531
99577.1
99649.6
99694.2
99768
99807.2
99869.8
99902.9
99943.6
99970.4
98568.5
98555.1
98558.5
98549.7
98553.6
98544.7
98546.3
98538.1
98540.7
98536.6
98541
98536.2
98537.2
98529.3
98528.7
98524
98527.4
98525.9
98528.8
98523.7
98522.3
98515.7
98515.6
98513.3
98516.7
98515.6
98517.7
98513.9
98512.8
98507.5
98506.4
98504
98507.2
98508.7
98512.9
98511.7
98510.5
98504.6
98501.8
98499.3
98502.4
98505.5
98511.5
98513.6
98515.3
98512.1
98508.6
98503.2
98502.3
98503.8
98510.9
98518.4
98526.3
98529.8
98531
98528
98524.7
98522.7
98525.9
98535.1
98550.4
98570.4
98590.8
98612.3
98630.1
98649.3
98665.8
98691.4
98720
98764.5
98815.5
98882.9
98953.6
99034
99112.5
99189
99262.9
99327
99395.1
99446.8
99514.8
99560.8
99633.3
99678
99751.7
99791
99853.5
99886.6
99927.5
99954.3
98578.1
98565.3
98568.8
98560.2
98564.1
98555.1
98556.7
98548.6
98551.1
98547
98551.4
98546.7
98547.7
98539.7
98539.2
98534.5
98537.9
98536.4
98539.3
98534.1
98532.7
98526.2
98526.1
98523.8
98527.2
98526.1
98528.2
98524.5
98523.3
98518
98516.9
98514.5
98517.8
98519.3
98523.5
98522.2
98521
98515.1
98512.4
98509.9
98513
98516.1
98522.1
98524.2
98525.9
98522.7
98519.2
98513.8
98512.9
98514.4
98521.5
98529
98536.9
98540.4
98541.6
98538.6
98535.3
98533.3
98536.5
98545.8
98561
98581.1
98601.4
98623
98640.8
98660
98676.5
98702.1
98730.7
98775.3
98826.2
98893.7
98964.4
99044.7
99123.3
99199.8
99273.7
99337.8
99405.9
99457.6
99525.6
99571.7
99644.2
99688.8
99762.6
99801.8
99864.4
99897.5
99938.3
99965
98573.3
98560.3
98563.6
98554.9
98558.8
98549.9
98551.5
98543.3
98545.9
98541.8
98546.2
98541.4
98542.4
98534.5
98533.9
98529.2
98532.6
98531.1
98534.1
98528.9
98527.5
98521
98520.8
98518.6
98521.9
98520.9
98523
98519.2
98518
98512.7
98511.7
98509.2
98512.5
98514
98518.2
98516.9
98515.7
98509.8
98507.1
98504.6
98507.7
98510.8
98516.8
98518.9
98520.6
98517.4
98513.9
98508.5
98507.6
98509.1
98516.2
98523.7
98531.6
98535.1
98536.3
98533.3
98530
98528
98531.2
98540.5
98555.7
98575.8
98596.1
98617.7
98635.4
98654.7
98671.2
98696.8
98725.3
98769.9
98820.9
98888.3
98959
99039.4
99117.9
99194.4
99268.3
99332.4
99400.5
99452.2
99520.2
99566.3
99638.8
99683.4
99757.2
99796.4
99859
99892
99932.9
99959.7
98573.4
98560.4
98563.8
98555.1
98559
98550
98551.7
98543.5
98546.1
98541.9
98546.4
98541.6
98542.6
98534.7
98534.1
98529.4
98532.8
98531.3
98534.2
98529.1
98527.7
98521.1
98521
98518.7
98522.1
98521.1
98523.1
98519.4
98518.2
98512.9
98511.9
98509.4
98512.7
98514.2
98518.4
98517.1
98515.9
98510
98507.3
98504.7
98507.9
98511
98517
98519.1
98520.8
98517.6
98514
98508.7
98507.7
98509.3
98516.4
98523.9
98531.8
98535.3
98536.5
98533.5
98530.2
98528.2
98531.4
98540.6
98555.9
98576
98596.3
98617.9
98635.6
98654.9
98671.4
98697
98725.5
98770.1
98821.1
98888.5
98959.2
99039.6
99118.1
99194.6
99268.5
99332.6
99400.7
99452.4
99520.4
99566.5
99639
99683.6
99757.4
99796.6
99859.2
99892.2
99933.1
99959.9
98578
98565.2
98568.7
98560
98563.9
98554.9
98556.6
98548.4
98551
98546.8
98551.2
98546.5
98547.5
98539.5
98539
98534.3
98537.7
98536.2
98539.1
98534
98532.6
98526
98525.9
98523.6
98527
98526
98528
98524.3
98523.1
98517.8
98516.8
98514.3
98517.6
98519.1
98523.3
98522
98520.8
98514.9
98512.2
98509.7
98512.8
98515.9
98521.9
98524
98525.7
98522.5
98519
98513.6
98512.7
98514.2
98521.3
98528.8
98536.7
98540.2
98541.4
98538.5
98535.1
98533.2
98536.3
98545.6
98560.8
98580.9
98601.3
98622.8
98640.6
98659.8
98676.3
98701.9
98730.5
98775.1
98826
98893.5
98964.2
99044.6
99123.1
99199.6
99273.5
99337.6
99405.7
99457.5
99525.4
99571.5
99644
99688.6
99762.4
99801.6
99864.2
99897.3
99938.1
99964.9
98568.6
98555.3
98558.6
98549.9
98553.8
98544.8
98546.5
98538.3
98540.9
98536.7
98541.1
98536.4
98537.4
98529.5
98528.9
98524.2
98527.6
98526.1
98529
98523.8
98522.4
98515.9
98515.8
98513.5
98516.9
98515.8
98517.9
98514.1
98513
98507.7
98506.6
98504.2
98507.4
98508.9
98513.1
98511.9
98510.6
98504.7
98502
98499.5
98502.6
98505.7
98511.7
98513.8
98515.5
98512.3
98508.7
98503.4
98502.4
98504
98511.1
98518.6
98526.5
98530
98531.2
98528.2
98524.9
98522.9
98526.1
98535.3
98550.5
98570.6
98591
98612.5
98630.3
98649.5
98666
98691.6
98720.1
98764.7
98815.7
98883.1
98953.8
99034.2
99112.7
99189.2
99263.1
99327.2
99395.3
99447
99515
99561
99633.5
99678.2
99751.9
99791.1
99853.7
99886.8
99927.7
99954.5
98583.2
98570.6
98574.1
98565.4
98569.2
98560.3
98561.9
98553.8
98556.3
98552.2
98556.6
98551.9
98552.9
98544.9
98544.3
98539.6
98543.1
98541.5
98544.5
98539.3
98537.9
98531.4
98531.3
98529
98532.4
98531.3
98533.4
98529.6
98528.5
98523.2
98522.1
98519.7
98522.9
98524.4
98528.6
98527.4
98526.2
98520.3
98517.5
98515
98518.1
98521.3
98527.3
98529.4
98531
98527.8
98524.3
98518.9
98518
98519.5
98526.6
98534.1
98542.1
98545.6
98546.7
98543.8
98540.4
98538.5
98541.7
98550.9
98566.2
98586.3
98606.6
98628.2
98645.9
98665.1
98681.6
98707.2
98735.8
98780.4
98831.4
98898.8
98969.5
99049.9
99128.4
99205
99278.8
99343
99411.1
99462.8
99530.8
99576.9
99649.4
99694
99767.8
99807.1
99869.7
99902.7
99943.4
99970.2
98564.6
98551.2
98554.5
98545.8
98549.7
98540.7
98542.3
98534.2
98536.7
98532.6
98537
98532.3
98533.3
98525.3
98524.7
98520
98523.4
98521.9
98524.9
98519.7
98518.3
98511.7
98511.6
98509.3
98512.7
98511.6
98513.7
98509.9
98508.8
98503.5
98502.4
98500
98503.2
98504.7
98508.9
98507.6
98506.4
98500.5
98497.8
98495.2
98498.4
98501.5
98507.5
98509.6
98511.3
98508
98504.5
98499.1
98498.2
98499.7
98506.8
98514.3
98522.2
98525.7
98526.9
98523.9
98520.6
98518.6
98521.8
98531
98546.2
98566.3
98586.6
98608.2
98625.9
98645.2
98661.6
98687.2
98715.8
98760.3
98811.3
98878.7
98949.4
99029.8
99108.3
99184.8
99258.6
99322.7
99390.8
99442.6
99510.5
99556.6
99629.1
99673.7
99747.5
99786.7
99849.3
99882.4
99923.3
99950.1
98598.2
98585.5
98589
98580.3
98584.2
98575.2
98576.9
98568.7
98571.3
98567.1
98571.5
98566.8
98567.8
98559.8
98559.3
98554.6
98558
98556.5
98559.4
98554.2
98552.8
98546.3
98546.2
98543.9
98547.3
98546.2
98548.3
98544.5
98543.4
98538
98537
98534.5
98537.8
98539.3
98543.5
98542.2
98541
98535.1
98532.4
98529.8
98533
98536.1
98542.1
98544.2
98545.9
98542.6
98539.1
98533.7
98532.8
98534.3
98541.4
98548.9
98556.9
98560.4
98561.5
98558.6
98555.2
98553.2
98556.4
98565.7
98580.9
98601
98621.3
98642.9
98660.6
98679.9
98696.4
98722
98750.5
98795.1
98846.1
98913.6
98984.2
99064.6
99143.2
99219.7
99293.6
99357.7
99425.8
99477.6
99545.6
99591.7
99664.2
99708.9
99782.7
99822
99884.6
99917.6
99958.3
99985.1
98543.9
98536.3
98538.4
98533.5
98536.8
98530.4
98531.7
98525.3
98527.7
98524.7
98529.1
98525.3
98526.3
98518.9
98518.4
98514.2
98517.7
98516.5
98519.5
98514.6
98513.3
98506.9
98506.9
98504.7
98508.2
98507.2
98509.4
98505.7
98504.6
98499.3
98498.3
98495.9
98499.2
98500.8
98505
98503.8
98502.6
98496.7
98494
98491.4
98494.6
98497.7
98503.7
98505.8
98507.5
98504.3
98500.8
98495.4
98494.4
98495.9
98503
98510.6
98518.5
98522.1
98523.2
98520.3
98516.9
98514.9
98518
98527.3
98542.5
98562.7
98583.1
98604.7
98622.5
98641.8
98658.3
98683.9
98712.5
98757.1
98808.1
98875.7
98946.6
99027.1
99105.8
99182.5
99256.5
99320.7
99388.9
99440.6
99508.5
99554.5
99627.1
99671.7
99745.8
99785.1
99848.5
99881.9
99924.8
99951.2
98576.1
98568.8
98571.2
98566.4
98569.6
98563.2
98564.5
98558.1
98560.5
98557.6
98561.9
98558.1
98559.1
98551.8
98551.2
98547
98550.5
98549.3
98552.4
98547.4
98546.1
98539.8
98539.7
98537.5
98541
98540.1
98542.2
98538.5
98537.4
98532.2
98531.1
98528.7
98532
98533.6
98537.8
98536.6
98535.4
98529.5
98526.8
98524.2
98527.4
98530.5
98536.5
98538.7
98540.4
98537.1
98533.6
98528.2
98527.2
98528.7
98535.9
98543.4
98551.3
98554.9
98556.1
98553.1
98549.7
98547.7
98550.8
98560.1
98575.3
98595.5
98615.9
98637.5
98655.3
98674.6
98691.1
98716.8
98745.4
98790
98841
98908.7
98979.5
99060.1
99138.8
99215.6
99289.6
99353.8
99422
99473.7
99541.7
99587.7
99660.3
99704.9
99779
99818.3
99881.8
99915.2
99957.9
99984
98551.9
98543.8
98545.9
98541
98544.2
98537.8
98539.1
98532.7
98535.1
98532.2
98536.6
98532.7
98533.7
98526.4
98525.9
98521.6
98525.1
98523.9
98527
98522.1
98520.7
98514.4
98514.3
98512.2
98515.6
98514.7
98516.8
98513.1
98512
98506.8
98505.7
98503.3
98506.6
98508.2
98512.4
98511.2
98510
98504.1
98501.4
98498.8
98502
98505.1
98511.1
98513.3
98515
98511.7
98508.2
98502.8
98501.8
98503.3
98510.4
98518
98525.9
98529.5
98530.6
98527.7
98524.3
98522.3
98525.4
98534.7
98549.9
98570.1
98590.5
98612.1
98629.9
98649.2
98665.7
98691.3
98719.9
98764.5
98815.5
98883.2
98954
99034.6
99113.3
99190
99264
99328.2
99396.3
99448
99516
99562
99634.6
99679.2
99753.2
99792.5
99856
99889.3
99932.3
99958.6
98569.8
98562.4
98564.7
98559.8
98563.1
98556.7
98558
98551.6
98554
98551.1
98555.4
98551.6
98552.6
98545.3
98544.7
98540.5
98544
98542.8
98545.9
98540.9
98539.6
98533.3
98533.2
98531
98534.5
98533.5
98535.7
98532
98530.9
98525.6
98524.6
98522.2
98525.5
98527.1
98531.3
98530.1
98528.9
98523
98520.3
98517.7
98520.8
98524
98530
98532.1
98533.8
98530.6
98527.1
98521.7
98520.7
98522.2
98529.3
98536.9
98544.8
98548.4
98549.5
98546.6
98543.2
98541.2
98544.3
98553.6
98568.8
98589
98609.4
98631
98648.8
98668.1
98684.6
98710.3
98738.8
98783.5
98834.5
98902.1
98973
99053.6
99132.3
99209
99283.1
99347.3
99415.5
99467.2
99535.2
99581.2
99653.8
99698.4
99772.4
99811.7
99875.2
99908.5
99951.2
99977.4
98558.1
98550.2
98552.3
98547.4
98550.6
98544.2
98545.5
98539.1
98541.5
98538.6
98543
98539.1
98540.1
98532.8
98532.2
98528
98531.5
98530.3
98533.4
98528.4
98527.1
98520.8
98520.7
98518.6
98522
98521.1
98523.2
98519.5
98518.4
98513.2
98512.1
98509.7
98513
98514.6
98518.8
98517.6
98516.4
98510.5
98507.8
98505.2
98508.4
98511.5
98517.5
98519.7
98521.4
98518.1
98514.6
98509.2
98508.3
98509.7
98516.9
98524.4
98532.3
98535.9
98537.1
98534.1
98530.7
98528.7
98531.8
98541.1
98556.3
98576.5
98596.9
98618.5
98636.3
98655.6
98672.1
98697.8
98726.3
98771
98822
98889.6
98960.5
99041
99119.7
99196.5
99270.5
99334.7
99402.8
99454.6
99522.6
99568.5
99641.1
99685.7
99759.8
99799.1
99862.5
99895.9
99938.7
99965
98563.9
98556.3
98558.5
98553.7
98556.9
98550.5
98551.8
98545.4
98547.8
98544.9
98549.2
98545.4
98546.4
98539.1
98538.5
98534.3
98537.8
98536.6
98539.7
98534.7
98533.4
98527.1
98527
98524.8
98528.3
98527.3
98529.5
98525.8
98524.7
98519.4
98518.4
98516
98519.3
98520.9
98525.1
98523.9
98522.7
98516.8
98514.1
98511.5
98514.7
98517.8
98523.8
98525.9
98527.6
98524.4
98520.9
98515.5
98514.5
98516
98523.1
98530.7
98538.6
98542.2
98543.3
98540.4
98537
98535
98538.1
98547.4
98562.6
98582.8
98603.2
98624.8
98642.6
98661.9
98678.4
98704.1
98732.6
98777.3
98828.3
98895.9
98966.8
99047.4
99126.1
99202.8
99276.8
99341
99409.2
99460.9
99528.9
99574.9
99647.5
99692.1
99766.2
99805.4
99868.9
99902.3
99945
99971.2
98563.8
98556.2
98558.4
98553.5
98556.7
98550.3
98551.6
98545.2
98547.6
98544.7
98549.1
98545.2
98546.2
98538.9
98538.4
98534.1
98537.6
98536.4
98539.5
98534.6
98533.2
98526.9
98526.8
98524.7
98528.1
98527.2
98529.3
98525.6
98524.5
98519.3
98518.2
98515.8
98519.1
98520.7
98524.9
98523.7
98522.5
98516.6
98513.9
98511.3
98514.5
98517.6
98523.7
98525.8
98527.5
98524.2
98520.7
98515.3
98514.4
98515.8
98523
98530.5
98538.5
98542
98543.2
98540.2
98536.8
98534.8
98538
98547.2
98562.4
98582.6
98603
98624.6
98642.4
98661.7
98678.2
98703.9
98732.5
98777.1
98828.1
98895.8
98966.6
99047.2
99125.9
99202.6
99276.6
99340.9
99409
99460.7
99528.7
99574.7
99647.3
99691.9
99766
99805.3
99868.7
99902.1
99944.8
99971.1
98558.2
98550.3
98552.4
98547.5
98550.8
98544.4
98545.7
98539.2
98541.6
98538.7
98543.1
98539.3
98540.3
98532.9
98532.4
98528.1
98531.6
98530.5
98533.5
98528.6
98527.3
98520.9
98520.9
98518.7
98522.2
98521.2
98523.4
98519.7
98518.6
98513.3
98512.3
98509.9
98513.2
98514.7
98519
98517.7
98516.6
98510.7
98507.9
98505.4
98508.5
98511.7
98517.7
98519.8
98521.5
98518.3
98514.8
98509.4
98508.4
98509.9
98517
98524.5
98532.5
98536
98537.2
98534.2
98530.9
98528.8
98532
98541.2
98556.5
98576.6
98597
98618.7
98636.5
98655.8
98672.3
98697.9
98726.5
98771.1
98822.2
98889.8
98960.6
99041.2
99119.9
99196.6
99270.6
99334.8
99403
99454.7
99522.7
99568.7
99641.3
99685.9
99759.9
99799.2
99862.7
99896
99938.9
99965.1
98569.7
98562.3
98564.5
98559.7
98562.9
98556.5
98557.8
98551.4
98553.8
98550.8
98555.2
98551.4
98552.4
98545
98544.5
98540.3
98543.8
98542.6
98545.6
98540.7
98539.4
98533
98533
98530.8
98534.3
98533.3
98535.5
98531.8
98530.7
98525.4
98524.4
98522
98525.3
98526.8
98531.1
98529.9
98528.7
98522.8
98520
98517.5
98520.6
98523.8
98529.8
98531.9
98533.6
98530.4
98526.9
98521.5
98520.5
98522
98529.1
98536.6
98544.6
98548.1
98549.3
98546.3
98543
98541
98544.1
98553.3
98568.6
98588.8
98609.1
98630.8
98648.6
98667.9
98684.4
98710
98738.6
98783.3
98834.3
98901.9
98972.8
99053.4
99132.1
99208.8
99282.8
99347
99415.2
99466.9
99534.9
99580.9
99653.5
99698.1
99772.2
99811.5
99874.9
99908.3
99951
99977.2
98551.9
98543.9
98546
98541.1
98544.4
98538
98539.3
98532.8
98535.2
98532.3
98536.7
98532.8
98533.9
98526.5
98526
98521.7
98525.2
98524.1
98527.1
98522.2
98520.9
98514.5
98514.4
98512.3
98515.7
98514.8
98517
98513.3
98512.2
98506.9
98505.9
98503.5
98506.8
98508.3
98512.5
98511.3
98510.1
98504.2
98501.5
98499
98502.1
98505.2
98511.3
98513.4
98515.1
98511.9
98508.3
98502.9
98502
98503.5
98510.6
98518.1
98526.1
98529.6
98530.8
98527.8
98524.4
98522.4
98525.5
98534.8
98550
98570.2
98590.6
98612.2
98630
98649.3
98665.8
98691.4
98720
98764.6
98815.7
98883.3
98954.1
99034.7
99113.4
99190.1
99264.1
99328.3
99396.5
99448.2
99516.2
99562.1
99634.7
99679.3
99753.4
99792.7
99856.1
99889.5
99932.4
99958.7
98576
98568.6
98570.9
98566.1
98569.3
98562.9
98564.2
98557.8
98560.2
98557.3
98561.7
98557.8
98558.8
98551.5
98551
98546.7
98550.2
98549
98552.1
98547.2
98545.8
98539.5
98539.4
98537.3
98540.7
98539.8
98541.9
98538.3
98537.1
98531.9
98530.9
98528.4
98531.7
98533.3
98537.5
98536.3
98535.1
98529.2
98526.5
98523.9
98527.1
98530.2
98536.3
98538.4
98540.1
98536.9
98533.3
98527.9
98527
98528.4
98535.6
98543.1
98551.1
98554.6
98555.8
98552.8
98549.4
98547.4
98550.6
98559.8
98575.1
98595.2
98615.6
98637.3
98655
98674.4
98690.9
98716.5
98745.1
98789.7
98840.8
98908.4
98979.2
99059.8
99138.6
99215.3
99289.3
99353.5
99421.7
99473.4
99541.4
99587.4
99660
99704.6
99778.7
99818
99881.5
99914.9
99957.6
99983.8
98544
98536.4
98538.5
98533.7
98536.9
98530.5
98531.8
98525.4
98527.8
98524.8
98529.2
98525.4
98526.4
98519
98518.5
98514.3
98517.8
98516.6
98519.7
98514.7
98513.4
98507
98507
98504.8
98508.3
98507.4
98509.5
98505.8
98504.7
98499.4
98498.4
98496
98499.3
98500.9
98505.1
98503.9
98502.7
98496.8
98494.1
98491.5
98494.7
98497.8
98503.8
98506
98507.7
98504.4
98500.9
98495.5
98494.5
98496
98503.1
98510.7
98518.6
98522.2
98523.3
98520.4
98517
98515
98518.1
98527.4
98542.6
98562.8
98583.2
98604.8
98622.6
98641.9
98658.4
98684
98712.6
98757.2
98808.2
98875.8
98946.6
99027.2
99105.9
99182.6
99256.6
99320.8
99389
99440.7
99508.7
99554.6
99627.2
99671.8
99745.9
99785.2
99848.6
99882
99924.9
99951.3
98550.6
98545.2
98545.9
98543
98545.4
98540.7
98541.5
98536.4
98538.5
98536.7
98541
98538
98539
98532.3
98531.7
98528
98531.5
98530.7
98533.9
98529.2
98528
98521.8
98521.8
98519.8
98523.4
98522.6
98524.8
98521.2
98520.1
98514.9
98513.9
98511.6
98514.9
98516.5
98520.8
98519.6
98518.4
98512.6
98509.8
98507.3
98510.4
98513.6
98519.6
98521.8
98523.5
98520.3
98516.7
98511.3
98510.3
98511.8
98518.9
98526.5
98534.5
98538
98539.2
98536.2
98532.8
98530.7
98533.9
98543.1
98558.4
98578.5
98599
98620.7
98638.5
98657.9
98674.4
98700
98728.6
98773.3
98824.4
98892.1
98963.1
99043.8
99122.7
99199.6
99273.7
99338
99406.3
99458
99526.1
99572
99644.6
99689.2
99763.3
99802.5
99865.7
99898.9
99940.3
99966.6
98550.8
98545.2
98545.9
98543.1
98545.4
98540.7
98541.5
98536.5
98538.6
98536.7
98541
98538
98539
98532.3
98531.8
98528
98531.5
98530.7
98533.9
98529.2
98528
98521.8
98521.9
98519.8
98523.4
98522.6
98524.8
98521.2
98520.2
98514.9
98513.9
98511.6
98514.9
98516.5
98520.8
98519.6
98518.5
98512.6
98509.8
98507.3
98510.4
98513.6
98519.6
98521.8
98523.5
98520.3
98516.7
98511.3
98510.3
98511.8
98518.9
98526.5
98534.5
98538
98539.2
98536.2
98532.8
98530.8
98533.9
98543.1
98558.4
98578.5
98599
98620.7
98638.5
98657.9
98674.4
98700
98728.6
98773.3
98824.4
98892.1
98963.1