/*--------------------------------*- C++ -*----------------------------------*\
  =========                 |
  \\      /  F ield         | OpenFOAM: The Open Source CFD Toolbox
   \\    /   O peration     | Website:  https://openfoam.org
    \\  /    A nd           | Version:  7
     \\/     M anipulation  |
\*---------------------------------------------------------------------------*/
FoamFile
{
    version     2.0;
    format      ascii;
    class       surfaceScalarField;
    location    "0.9375";
    object      phi;
}
// * * * * * * * * * * * * * * * * * * * * * * * * * * * * * * * * * * * * * //

dimensions      [1 0 -1 0 0 0 0];

internalField   nonuniform List<scalar> 
21708
(
0.00129348
0.00100032
1.38905e-05
0.000898651
0.000391076
6.49965e-06
0.000690922
0.000198504
1.19595e-05
0.000602078
8.45211e-05
7.00352e-06
0.000550579
4.30342e-05
1.10974e-05
0.000520325
2.5644e-05
7.20818e-06
0.000497428
1.50753e-05
1.03962e-05
0.000481486
1.11523e-05
7.34602e-06
0.000467469
6.7339e-06
9.83331e-06
0.000457216
5.38287e-06
7.42567e-06
0.000447506
2.93473e-06
9.34933e-06
0.000440349
2.3067e-06
7.44409e-06
0.000433238
8.11173e-07
8.91647e-06
0.000428004
4.58879e-07
7.41014e-06
0.00042258
-4.42178e-07
8.51713e-06
0.000418306
-3.97962e-07
7.33445e-06
0.000412728
1.1047e-07
8.13725e-06
0.000409376
-1.20357e-06
7.22525e-06
0.000358151
4.60035e-05
7.88175e-06
2.67076e-05
6.77404e-06
0.000327338
0.00224535
0.0010591
3.1746e-06
0.00205911
0.000583736
-3.5924e-06
0.00185825
0.000400226
1.96817e-06
0.00171862
0.000229705
-2.85111e-06
0.00161816
0.000144699
1.32867e-06
0.00154999
9.87538e-05
-2.51922e-06
0.00149635
7.03324e-05
7.03794e-07
0.00145766
5.44303e-05
-2.33658e-06
0.00142359
4.28462e-05
1.65877e-07
0.00139819
3.52042e-05
-2.24059e-06
0.00137434
2.93161e-05
-3.08155e-07
0.0013565
2.46441e-05
-2.21475e-06
0.001339
2.14052e-05
-7.3665e-07
0.00132592
1.82182e-05
-2.2438e-06
0.00131313
1.59726e-05
-1.13423e-06
0.00130219
1.54028e-05
-2.31378e-06
0.00129674
9.67478e-06
-1.52804e-06
0.00128237
1.81859e-05
-2.40782e-06
0.00132488
8.10601e-06
-2.01714e-06
-1.79402e-05
-2.97311e-06
0.00137513
0.00257029
0.000786409
9.88338e-06
0.00266445
0.000488829
3.59076e-06
0.00266086
0.000397963
8.78139e-06
0.00262827
0.000261222
3.85629e-06
0.00258267
0.000184887
7.956e-06
0.00254195
0.000137757
4.06195e-06
0.00250167
0.000105578
7.24899e-06
0.00246878
8.52261e-05
4.18912e-06
0.00243725
6.96697e-05
6.67427e-06
0.00241191
5.81275e-05
4.26009e-06
0.0023875
4.93373e-05
6.18222e-06
0.00236809
4.16093e-05
4.27217e-06
0.00234922
3.64729e-05
5.74373e-06
0.00233464
3.06368e-05
4.23418e-06
0.00231948
2.79944e-05
5.34172e-06
0.00230953
2.35177e-05
4.15479e-06
0.00229393
2.27473e-05
4.96704e-06
0.00228939
2.12543e-05
4.02895e-06
0.00226277
3.25965e-05
4.75099e-06
2.59131e-05
3.65841e-06
0.00221797
0.00257675
0.000512482
4.48977e-06
0.00274023
0.000329726
-1.53463e-06
0.00284912
0.000288411
3.6093e-06
0.00291394
0.000200508
-1.2591e-06
0.00294737
0.000151141
2.88018e-06
0.00296894
0.000119501
-9.77253e-07
0.00297764
9.68313e-05
2.24398e-06
0.00298378
8.19958e-05
-7.97606e-07
0.00298374
6.9991e-05
1.70531e-06
0.00298368
6.0701e-05
-6.99091e-07
0.00298026
5.31701e-05
1.23333e-06
0.00297767
4.64438e-05
-6.71189e-07
0.00297358
4.1386e-05
8.06362e-07
0.00297028
3.64182e-05
-6.9869e-07
0.00296732
3.24886e-05
4.10991e-07
0.00296342
3.02956e-05
-7.69367e-07
0.00296416
2.42209e-05
1.96213e-08
0.00295973
2.89872e-05
-8.89011e-07
0.00297634
1.90149e-05
-4.86552e-07
1.21953e-05
-1.36864e-06
0.00299421
0.00256563
0.000246443
7.81321e-06
0.00273655
0.000159655
1.99881e-06
0.00287431
0.00014661
7.00082e-06
0.00297112
0.000104434
2.12148e-06
0.00303779
8.08116e-05
6.23404e-06
0.0030919
6.53643e-05
2.36132e-06
0.00313121
5.41422e-05
5.56727e-06
0.00316602
4.68002e-05
2.51617e-06
0.00319237
4.0667e-05
5.01021e-06
0.00321647
3.58672e-05
2.60128e-06
0.00323491
3.18462e-05
4.52769e-06
0.00325206
2.8169e-05
2.62044e-06
0.00326547
2.53662e-05
4.09326e-06
0.0032785
2.24164e-05
2.58593e-06
0.00328866
2.04316e-05
3.69394e-06
0.00329995
1.84748e-05
2.50892e-06
0.00330637
1.65819e-05
3.31837e-06
0.00331792
1.7327e-05
2.37328e-06
0.0033197
1.65967e-05
3.02776e-06
1.84232e-05
2.02047e-06
0.00331415
0.00254771
7.0354e-11
6.0852e-06
0.00270985
2.49834e-10
3.57042e-07
0.00285409
-6.03954e-11
5.33894e-06
0.00296091
6.53937e-11
4.62078e-07
0.00303972
-4.77716e-10
4.57416e-06
0.0031067
4.83529e-10
7.04821e-07
0.00315911
-4.91635e-11
3.91689e-06
0.00320718
2.45678e-09
8.68375e-07
0.00324653
2.93174e-09
3.3662e-06
0.00328333
6.92928e-09
9.58955e-07
0.00331393
1.32949e-08
2.88783e-06
0.00334257
1.9515e-08
9.8175e-07
0.00336687
3.89426e-08
2.45603e-06
0.00338982
7.2765e-08
9.49967e-07
0.00340985
7.39626e-08
2.05805e-06
0.00342909
2.83528e-07
8.75721e-07
0.00344594
1.00674e-07
1.67362e-06
0.00346387
8.41571e-07
7.40969e-07
0.00348112
3.91991e-07
1.2556e-06
1.52745e-06
3.45857e-07
0.00350027
0.00254771
-0.000246443
6.0852e-06
0.00270985
-0.000159654
3.57042e-07
0.00285409
-0.00014661
5.33894e-06
0.00296091
-0.000104434
4.62077e-07
0.00303972
-8.08125e-05
4.57416e-06
0.0031067
-6.53635e-05
7.04818e-07
0.00315911
-5.41421e-05
3.91689e-06
0.00320718
-4.6796e-05
8.68364e-07
0.00324653
-4.06606e-05
3.36621e-06
0.00328333
-3.58554e-05
9.58922e-07
0.00331393
-3.1818e-05
2.88787e-06
0.00334258
-2.81359e-05
9.81653e-07
0.00336687
-2.52835e-05
2.45613e-06
0.00338983
-2.22865e-05
9.49684e-07
0.00340985
-2.02712e-05
2.05841e-06
0.00342912
-1.79377e-05
8.74957e-07
0.00344594
-1.6352e-05
1.67514e-06
0.00346388
-1.56518e-05
7.39498e-07
0.00348108
-1.57617e-05
1.26285e-06
-1.51846e-05
3.44751e-07
0.00350005
0.00256563
-0.000512482
7.81321e-06
0.00273655
-0.000329726
1.99881e-06
0.00287431
-0.000288412
7.00082e-06
0.00297112
-0.000200508
2.12148e-06
0.00303779
-0.000151142
6.23404e-06
0.0030919
-0.000119501
2.36132e-06
0.00313121
-9.68313e-05
5.56727e-06
0.00316602
-8.19917e-05
2.51618e-06
0.00319237
-6.99856e-05
5.0102e-06
0.00321647
-6.06893e-05
2.6013e-06
0.00323491
-5.31461e-05
4.52766e-06
0.00325206
-4.64109e-05
2.62052e-06
0.00326548
-4.13164e-05
4.09316e-06
0.00327852
-3.62926e-05
2.5862e-06
0.00328872
-3.23634e-05
3.69356e-06
0.00330004
-2.97907e-05
2.50965e-06
0.00330656
-2.4089e-05
3.31691e-06
0.00331825
-2.74566e-05
2.37448e-06
0.00332035
-1.84805e-05
3.02143e-06
-9.60269e-06
2.02051e-06
0.00331544
0.00257675
-0.000786409
4.48977e-06
0.00274023
-0.000488828
-1.53463e-06
0.00284912
-0.000397963
3.6093e-06
0.00291394
-0.000261222
-1.25911e-06
0.00294737
-0.000184887
2.88018e-06
0.00296894
-0.000137757
-9.77255e-07
0.00297764
-0.000105578
2.24398e-06
0.00298378
-8.52236e-05
-7.97615e-07
0.00298374
-6.96645e-05
1.70533e-06
0.00298369
-5.81207e-05
-6.99118e-07
0.00298026
-4.93149e-05
1.23338e-06
0.00297769
-4.15898e-05
-6.71265e-07
0.00297361
-3.64083e-05
8.06483e-07
0.00297035
-3.0553e-05
-6.98893e-07
0.0029674
-2.78758e-05
4.11347e-07
0.00296362
-2.31356e-05
-7.69894e-07
0.00296437
-2.26214e-05
2.10895e-08
0.00296018
-1.99782e-05
-8.90223e-07
0.00297689
-3.21442e-05
-4.79439e-07
-2.35902e-05
-1.36929e-06
0.002995
0.00257029
-0.0010591
9.88338e-06
0.00266445
-0.000583736
3.59076e-06
0.00266086
-0.000400226
8.78139e-06
0.00262827
-0.000229705
3.85629e-06
0.00258267
-0.000144699
7.956e-06
0.00254195
-9.87538e-05
4.06196e-06
0.00250167
-7.03323e-05
7.24899e-06
0.00246878
-5.44291e-05
4.18912e-06
0.00243726
-4.28433e-05
6.67426e-06
0.00241192
-3.52004e-05
4.2601e-06
0.00238752
-2.93024e-05
6.1822e-06
0.00236812
-2.46332e-05
4.27223e-06
0.00234927
-2.13657e-05
5.74365e-06
0.00233473
-1.81694e-05
4.23438e-06
0.00231962
-1.59064e-05
5.3414e-06
0.00230982
-1.51662e-05
4.15534e-06
0.00229433
-9.66223e-06
4.96599e-06
0.00229023
-1.73667e-05
4.02973e-06
0.00226413
-8.14024e-06
4.74688e-06
1.88774e-05
3.65719e-06
0.00222067
0.00224535
-0.00100032
3.1746e-06
0.00205911
-0.000391076
-3.5924e-06
0.00185825
-0.000198504
1.96817e-06
0.00171862
-8.45212e-05
-2.85111e-06
0.00161816
-4.30344e-05
1.32868e-06
0.00154999
-2.56441e-05
-2.51922e-06
0.00149635
-1.50754e-05
7.038e-07
0.00145767
-1.11523e-05
-2.33658e-06
0.00142359
-6.73299e-06
1.65893e-07
0.0013982
-5.38235e-06
-2.24061e-06
0.00137436
-2.92963e-06
-3.08111e-07
0.00135653
-2.30485e-06
-2.21481e-06
0.00133905
-7.95446e-07
-7.36547e-07
0.00132601
-4.47775e-07
-2.24394e-06
0.00131325
4.73796e-07
-1.13395e-06
0.00130248
4.64173e-07
-2.31414e-06
0.001297
-6.66924e-08
-1.52694e-06
0.00128319
1.45958e-06
-2.40906e-06
0.00132535
-4.56601e-05
-2.01141e-06
-2.61331e-05
-2.97563e-06
0.00137589
0.00129348
1.38905e-05
0.000898651
6.49965e-06
0.000690922
1.19595e-05
0.000602078
7.00352e-06
0.000550579
1.10974e-05
0.000520326
7.20818e-06
0.000497429
1.03962e-05
0.000481487
7.34602e-06
0.000467472
9.8333e-06
0.000457221
7.42569e-06
0.000447516
9.34932e-06
0.000440362
7.44413e-06
0.000433266
8.91641e-06
0.000428043
7.41031e-06
0.000422651
8.51689e-06
0.000418444
7.33496e-06
0.00041291
8.13659e-06
0.000409811
7.22625e-06
0.000358939
7.87982e-06
6.77599e-06
0.000328674
0.00189747
0.000419894
3.40424e-06
0.00138594
0.000515545
5.26058e-06
0.0010461
0.000352063
2.50005e-06
0.000867326
0.000184364
4.07431e-06
0.000779947
9.85378e-05
2.52188e-06
0.000727267
5.86713e-05
3.74363e-06
0.000694688
4.27875e-05
2.67496e-06
0.000666429
3.45855e-05
3.48576e-06
0.000646716
2.92662e-05
2.74568e-06
0.000627798
2.55794e-05
3.24812e-06
0.000614426
2.24597e-05
2.77431e-06
0.000601018
2.03282e-05
3.06884e-06
0.00059117
1.85407e-05
2.80009e-06
0.00058129
1.69405e-05
2.95212e-06
0.000573255
1.63364e-05
2.84037e-06
0.000565791
1.45466e-05
2.88596e-06
0.000563002
1.06565e-05
2.90836e-06
0.000545766
2.42368e-05
2.85355e-06
0.000648292
-9.4991e-05
2.9509e-06
-7.65198e-05
3.08698e-06
0.00073113
0.00240177
0.000319722
8.70105e-06
0.00234615
0.000559826
1.05818e-05
0.00222861
0.000466364
8.07766e-06
0.00209787
0.000305552
9.4189e-06
0.00199213
0.000200111
8.00085e-06
0.00190478
0.000136813
9.03749e-06
0.00183968
0.000102678
8.13336e-06
0.00178399
8.12639e-05
8.79106e-06
0.00174158
6.56706e-05
8.19641e-06
0.00170342
5.49331e-05
8.57568e-06
0.00167374
4.56731e-05
8.21497e-06
0.00164617
3.94124e-05
8.40699e-06
0.00162405
3.39476e-05
8.22676e-06
0.00160352
2.92945e-05
8.29023e-06
0.00158548
2.74408e-05
8.24969e-06
0.00157121
2.08077e-05
8.2167e-06
0.00155206
2.25568e-05
8.30196e-06
0.00155152
1.68023e-05
8.17026e-06
0.00147309
-2.44226e-05
8.4217e-06
7.81182e-06
8.43323e-06
0.00137992
0.00242484
0.000207217
4.45395e-06
0.0025575
0.000427113
6.49326e-06
0.00262537
0.000406571
3.62969e-06
0.00263
0.000302157
5.39931e-06
0.00261364
0.000223293
3.64116e-06
0.00258387
0.000167923
5.03564e-06
0.00255719
0.000134896
3.90122e-06
0.00252816
0.000111737
4.81294e-06
0.00250411
9.42387e-05
4.05074e-06
0.00247922
8.12226e-05
4.60944e-06
0.00245875
6.99155e-05
4.12339e-06
0.00243805
6.1713e-05
4.44534e-06
0.0024212
5.4283e-05
4.17315e-06
0.00240389
4.85581e-05
4.333e-06
0.00239081
4.38343e-05
4.22643e-06
0.00237453
3.93184e-05
4.26708e-06
0.00236872
3.15283e-05
4.29173e-06
0.00234994
3.79968e-05
4.24614e-06
0.00236222
-3.35355e-05
4.28526e-06
-1.0017e-05
4.42135e-06
0.00238206
0.00237713
0.000134052
7.57278e-06
0.00252281
0.000273265
9.49226e-06
0.00266078
0.000268059
7.08965e-06
0.00274579
0.00021018
8.4959e-06
0.00280394
0.000163508
7.02424e-06
0.00283607
0.000129047
8.0776e-06
0.00286033
0.000107933
7.14176e-06
0.00287318
9.23676e-05
7.82241e-06
0.00288381
8.00442e-05
7.2121e-06
0.00288806
7.04006e-05
7.61041e-06
0.0028919
6.16652e-05
7.23749e-06
0.00289208
5.49864e-05
7.44236e-06
0.00289273
4.88684e-05
7.25223e-06
0.00289142
4.36892e-05
7.32618e-06
0.00289031
4.00731e-05
7.27895e-06
0.00288908
3.4674e-05
7.25647e-06
0.00288376
3.18433e-05
7.33091e-06
0.00288579
3.03562e-05
7.23008e-06
0.00284884
-1.84756e-06
7.4623e-06
2.64222e-05
7.46971e-06
0.00280647
0.00237919
6.40731e-05
5.54742e-06
0.00251529
0.000134502
7.52795e-06
0.00265338
0.000134934
4.97818e-06
0.00275389
0.000108047
6.52859e-06
0.00283473
8.64931e-05
4.91382e-06
0.00289228
7.00506e-05
6.0982e-06
0.00294285
6.00564e-05
5.06913e-06
0.0029815
5.25133e-05
5.85143e-06
0.00301681
4.65557e-05
5.17425e-06
0.00304417
4.17682e-05
5.64687e-06
0.00306935
3.73531e-05
5.22309e-06
0.00308905
3.39137e-05
5.48231e-06
0.00310774
3.05781e-05
5.25437e-06
0.00312239
2.79899e-05
5.3695e-06
0.00313732
2.54319e-05
5.29495e-06
0.00314766
2.3581e-05
5.30589e-06
0.00316026
1.93802e-05
5.35009e-06
0.00316809
2.19706e-05
5.29485e-06
0.00316971
-3.24756e-06
5.37719e-06
9.30583e-06
5.47788e-06
0.00318625
0.00237061
-2.01009e-11
6.54257e-06
0.00249984
1.41309e-10
8.48968e-06
0.00263699
-1.19881e-10
6.06691e-06
0.00274075
2.36438e-10
7.52927e-06
0.00282832
6.70884e-11
5.99611e-06
0.00289427
1.1692e-09
7.09458e-06
0.00295432
1.18167e-09
6.12091e-06
0.00300299
3.3147e-09
6.84157e-06
0.00304871
4.30414e-09
6.20719e-06
0.00308657
9.23375e-09
6.63559e-06
0.00312212
1.35879e-08
6.2438e-06
0.00315199
2.83844e-08
6.46982e-06
0.00318023
3.81101e-08
6.26516e-06
0.00320442
8.72331e-08
6.35534e-06
0.00322736
1.04385e-07
6.298e-06
0.00324729
2.52717e-07
6.29026e-06
0.00326381
3.01703e-07
6.35128e-06
0.00328182
7.05308e-07
6.27861e-06
0.00327503
8.31304e-07
6.44499e-06
1.87701e-06
6.48712e-06
0.00327915
0.00237061
-6.40732e-05
6.54257e-06
0.00249984
-0.000134501
8.48968e-06
0.00263699
-0.000134935
6.06691e-06
0.00274075
-0.000108047
7.52927e-06
0.00282832
-8.6493e-05
5.9961e-06
0.00289427
-7.00481e-05
7.09458e-06
0.00295432
-6.00543e-05
6.12091e-06
0.00300299
-5.25063e-05
6.84158e-06
0.00304871
-4.65479e-05
6.20718e-06
0.00308657
-4.17484e-05
6.63561e-06
0.00312213
-3.73289e-05
6.24378e-06
0.00315199
-3.3853e-05
6.46987e-06
0.00318024
-3.05118e-05
6.2651e-06
0.00320442
-2.78056e-05
6.35549e-06
0.00322739
-2.52555e-05
6.2978e-06
0.0032473
-2.30635e-05
6.29064e-06
0.00326393
-1.88835e-05
6.35039e-06
0.00328204
-2.066e-05
6.27924e-06
0.0032754
4.78219e-06
6.44037e-06
-5.95097e-06
6.48778e-06
0.00327991
0.00237919
-0.000134052
5.54742e-06
0.00251529
-0.000273265
7.52795e-06
0.00265338
-0.000268059
4.97818e-06
0.00275389
-0.00021018
6.52859e-06
0.00283473
-0.000163508
4.91382e-06
0.00289228
-0.000129045
6.0982e-06
0.00294285
-0.00010793
5.06913e-06
0.0029815
-9.23616e-05
5.85142e-06
0.00301681
-8.00359e-05
5.17426e-06
0.00304417
-7.03841e-05
5.64685e-06
0.00306935
-6.16399e-05
5.22311e-06
0.00308907
-5.4936e-05
5.48227e-06
0.00310775
-4.87994e-05
5.25442e-06
0.00312243
-4.35336e-05
5.36936e-06
0.00313735
-3.98888e-05
5.29514e-06
0.00314776
-3.42234e-05
5.30552e-06
0.00316033
-3.13162e-05
5.35086e-06
0.00316823
-2.91162e-05
5.29425e-06
0.00316991
3.31198e-06
5.3811e-06
-2.2985e-05
5.47732e-06
0.00318636
0.00237713
-0.000207217
7.57278e-06
0.00252281
-0.000427113
9.49226e-06
0.00266078
-0.000406571
7.08965e-06
0.00274579
-0.000302157
8.4959e-06
0.00280394
-0.000223292
7.02424e-06
0.00283607
-0.000167921
8.07761e-06
0.00286033
-0.000134894
7.14175e-06
0.00287319
-0.000111732
7.82241e-06
0.00288382
-9.42317e-05
7.21209e-06
0.00288807
-8.12087e-05
7.61042e-06
0.00289191
-6.98949e-05
7.23747e-06
0.0028921
-6.16701e-05
7.4424e-06
0.00289276
-5.42302e-05
7.25216e-06
0.00289147
-4.84245e-05
7.32629e-06
0.00289042
-4.37031e-05
7.27872e-06
0.00288926
-3.8936e-05
7.25676e-06
0.00288412
-3.11815e-05
7.32996e-06
0.0028864
-3.70131e-05
7.23063e-06
0.00284998
3.4492e-05
7.45803e-06
1.24625e-05
7.4695e-06
0.00280859
0.00242484
-0.000319722
4.45395e-06
0.0025575
-0.000559826
6.49326e-06
0.00262537
-0.000466364
3.62969e-06
0.00263
-0.000305552
5.39931e-06
0.00261364
-0.000200111
3.64116e-06
0.00258387
-0.000136812
5.03564e-06
0.00255719
-0.000102677
3.90123e-06
0.00252816
-8.12612e-05
4.81293e-06
0.00250411
-6.56649e-05
4.05075e-06
0.00247924
-5.49258e-05
4.60943e-06
0.00245877
-4.5656e-05
4.12341e-06
0.00243809
-3.93901e-05
4.4453e-06
0.00242124
-3.39021e-05
4.1732e-06
0.002404
-2.92232e-05
4.33289e-06
0.00239093
-2.7323e-05
4.22657e-06
0.00237482
-2.05965e-05
4.26683e-06
0.00236904
-2.22396e-05
4.29219e-06
0.00235061
-1.618e-05
4.24571e-06
0.00236309
2.5194e-05
4.28782e-06
-5.81951e-06
4.42088e-06
0.00238335
0.00240177
-0.000419894
8.70105e-06
0.00234615
-0.000515545
1.05818e-05
0.00222861
-0.000352063
8.07766e-06
0.00209787
-0.000184364
9.4189e-06
0.00199213
-9.85378e-05
8.00085e-06
0.00190478
-5.8671e-05
9.03749e-06
0.00183969
-4.2787e-05
8.13335e-06
0.00178399
-3.45845e-05
8.79106e-06
0.00174159
-2.92642e-05
8.19641e-06
0.00170343
-2.55764e-05
8.57569e-06
0.00167376
-2.24531e-05
8.21496e-06
0.00164621
-2.03188e-05
8.407e-06
0.00162412
-1.85236e-05
8.22673e-06
0.00160362
-1.69101e-05
8.29029e-06
0.00158566
-1.62967e-05
8.24954e-06
0.00157151
-1.44529e-05
8.21695e-06
0.00155261
-1.05952e-05
8.30117e-06
0.00155236
-2.39064e-05
8.17113e-06
0.001475
9.47349e-05
8.41823e-06
7.65348e-05
8.43439e-06
0.00138373
0.00189747
3.40424e-06
0.00138594
5.26058e-06
0.0010461
2.50005e-06
0.000867326
4.07431e-06
0.000779947
2.52188e-06
0.000727267
3.74363e-06
0.000694689
2.67496e-06
0.000666432
3.48576e-06
0.000646722
2.74568e-06
0.000627807
3.24812e-06
0.000614441
2.77432e-06
0.000601043
3.06882e-06
0.000591212
2.80012e-06
0.000581363
2.95204e-06
0.000573366
2.84047e-06
0.000565998
2.88573e-06
0.000563268
2.9086e-06
0.000546364
2.85311e-06
0.000648646
2.95132e-06
3.08593e-06
0.00073144
0.00213935
0.00017073
-5.29715e-12
0.00189997
0.000247473
-5.41072e-12
0.00164387
0.0002614
-5.57706e-12
0.00141892
0.000231673
-5.7835e-12
0.00123776
0.000186136
-5.8051e-12
0.00110428
0.000139548
-5.97462e-12
0.00100926
9.9955e-05
-5.98453e-12
0.000945585
6.94164e-05
-6.12366e-12
0.000902266
4.83667e-05
-6.05952e-12
0.000873742
3.41227e-05
-6.14942e-12
0.00085352
2.53872e-05
-5.94484e-12
0.000839299
1.97147e-05
-5.91235e-12
0.000828376
1.6177e-05
-5.60495e-12
0.000819805
1.39943e-05
-5.69804e-12
0.000813435
1.16907e-05
-5.58493e-12
0.000806573
1.2216e-05
-5.91233e-12
0.00080536
6.57898e-06
-5.78021e-12
0.000795378
1.52512e-05
-6.05765e-12
0.000806334
-5.62434e-06
-5.65426e-12
8.44144e-07
-5.86985e-12
0.000810997
0.00236304
0.000123038
-5.3708e-12
0.00241205
0.000211922
-5.56658e-12
0.00242334
0.000261101
-5.56936e-12
0.002404
0.000263137
-5.47373e-12
0.00236287
0.00023773
-5.15453e-12
0.00231376
0.000199969
-5.26754e-12
0.00226184
0.000162129
-5.55602e-12
0.00221274
0.000129236
-5.93364e-12
0.00216682
0.000104279
-5.83411e-12
0.00212578
8.5497e-05
-5.8534e-12
0.00208872
7.24857e-05
-5.77433e-12
0.00205611
6.26824e-05
-5.99617e-12
0.00202703
5.5587e-05
-5.80376e-12
0.00200165
4.99476e-05
-5.72171e-12
0.00197934
4.47092e-05
-5.2567e-12
0.00195971
4.26441e-05
-5.38245e-12
0.00194354
3.37122e-05
-5.21987e-12
0.00192717
4.2438e-05
-5.75607e-12
0.0019166
1.59606e-05
-5.45128e-12
3.98136e-05
-5.82441e-12
0.00188855
0.0023511
8.30435e-05
-5.38199e-12
0.00242369
0.000148702
-5.58512e-12
0.00249859
0.000192762
-5.59378e-12
0.00256709
0.00020276
-5.49822e-12
0.002619
0.00019191
-5.20945e-12
0.00265638
0.000169912
-5.3862e-12
0.00267946
0.000145123
-5.72973e-12
0.00269301
0.000122512
-6.1072e-12
0.00269877
0.00010437
-5.79184e-12
0.00269999
9.04894e-05
-5.419e-12
0.00269793
8.02203e-05
-5.14023e-12
0.00269412
7.25738e-05
-5.73203e-12
0.00268948
6.6198e-05
-6.37925e-12
0.00268394
6.17752e-05
-6.92969e-12
0.00267908
5.59159e-05
-6.25975e-12
0.00267309
5.52301e-05
-5.72488e-12
0.00266938
4.4271e-05
-4.98138e-12
0.00266361
5.52501e-05
-5.38917e-12
0.00266088
2.58763e-05
-5.83119e-12
5.55075e-05
-6.0275e-12
0.00265259
0.00234127
5.59906e-05
-5.3865e-12
0.00240408
9.82631e-05
-5.58815e-12
0.00247979
0.000127077
-5.60255e-12
0.00255924
0.000134528
-5.5593e-12
0.00263147
0.000129142
-5.34961e-12
0.00269532
0.000116404
-5.57007e-12
0.0027481
0.000101686
-5.88523e-12
0.00279246
8.80376e-05
-6.20028e-12
0.0028288
7.70881e-05
-5.74788e-12
0.00285974
6.87555e-05
-5.14209e-12
0.00288608
6.25939e-05
-4.67752e-12
0.00290945
5.816e-05
-5.20176e-12
0.00293037
5.42119e-05
-6.00135e-12
0.00294943
5.18883e-05
-6.92126e-12
0.00296686
4.77232e-05
-6.49488e-12
0.00298315
4.83185e-05
-5.82264e-12
0.00299752
3.95278e-05
-4.98664e-12
0.00301296
4.96472e-05
-4.88044e-12
0.00302264
2.65259e-05
-5.80494e-12
5.51463e-05
-7.05103e-12
0.00303359
0.00234185
2.63331e-05
-5.37146e-12
0.00240289
4.76342e-05
-5.54665e-12
0.00247528
6.26004e-05
-5.5607e-12
0.00255261
6.64416e-05
-5.58606e-12
0.00262519
6.39063e-05
-5.47681e-12
0.00269213
5.78235e-05
-5.70949e-12
0.00275036
5.07293e-05
-5.89303e-12
0.00280208
4.42516e-05
-6.0643e-12
0.00284717
3.90268e-05
-5.63419e-12
0.00288798
3.51784e-05
-5.18957e-12
0.00292498
3.22777e-05
-4.86348e-12
0.00295974
3.03706e-05
-5.33874e-12
0.00299239
2.84611e-05
-5.91177e-12
0.00302379
2.76928e-05
-6.63911e-12
0.0030533
2.5445e-05
-6.22243e-12
0.00308257
2.64102e-05
-5.64828e-12
0.00310824
2.13961e-05
-4.97168e-12
0.00313795
2.76866e-05
-4.92e-12
0.00315771
1.49231e-05
-5.66956e-12
3.1085e-05
-7.21228e-12
0.00319035
0.00233952
-5.2139e-11
-5.38517e-12
0.00239852
2.51307e-10
-5.5422e-12
0.00247013
-1.8653e-10
-5.53391e-12
0.00254681
5.37631e-10
-5.57275e-12
0.00261914
-8.17673e-11
-5.51658e-12
0.00268633
1.63155e-09
-5.74317e-12
0.00274537
8.26547e-10
-5.83318e-12
0.00279854
4.18795e-09
-5.92989e-12
0.00284562
3.45837e-09
-5.60496e-12
0.00288902
1.12682e-08
-5.44893e-12
0.00292898
1.05083e-08
-5.33472e-12
0.00296727
3.394e-08
-5.74755e-12
0.00300361
2.57678e-08
-5.98158e-12
0.00303939
1.03093e-07
-6.29218e-12
0.00307301
5.91392e-08
-5.78051e-12
0.00310746
2.89517e-07
-5.56034e-12
0.00313721
1.6785e-07
-5.16281e-12
0.00317286
7.14426e-07
-5.46451e-12
0.00319635
6.18518e-07
-5.96671e-12
1.49002e-06
-6.78589e-12
0.00323551
0.00233952
-2.63332e-05
-5.37928e-12
0.00239852
-4.76337e-05
-5.51026e-12
0.00247013
-6.26008e-05
-5.4924e-12
0.00254681
-6.64405e-05
-5.53938e-12
0.00261914
-6.39066e-05
-5.51843e-12
0.00268633
-5.78202e-05
-5.72011e-12
0.00274537
-5.07278e-05
-5.7274e-12
0.00279854
-4.4243e-05
-5.75441e-12
0.00284562
-3.90202e-05
-5.54473e-12
0.00288902
-3.51555e-05
-5.70576e-12
0.00292898
-3.22576e-05
-5.82441e-12
0.00296727
-3.03022e-05
-6.18542e-12
0.00300361
-2.84118e-05
-6.09238e-12
0.0030394
-2.74865e-05
-5.96047e-12
0.00307302
-2.53318e-05
-5.37896e-12
0.00310747
-2.58342e-05
-5.57752e-12
0.00313723
-2.10742e-05
-5.46427e-12
0.00317291
-2.62785e-05
-6.0987e-12
0.00319644
-1.37367e-05
-6.25658e-12
-2.82042e-05
-5.86755e-12
0.0032357
0.00234185
-5.59907e-05
-5.39065e-12
0.00240289
-9.82626e-05
-5.50435e-12
0.00247528
-0.000127078
-5.46779e-12
0.00255261
-0.000134527
-5.52817e-12
0.00262519
-0.000129142
-5.55489e-12
0.00269213
-0.000116401
-5.73984e-12
0.00275036
-0.000101685
-5.65056e-12
0.00280208
-8.80296e-05
-5.61502e-12
0.00284717
-7.70814e-05
-5.53884e-12
0.00288799
-6.87343e-05
-6.00914e-12
0.00292498
-6.25734e-05
-6.33059e-12
0.00295974
-5.80964e-05
-6.60305e-12
0.0029924
-5.41626e-05
-6.12564e-12
0.00302381
-5.16942e-05
-5.54495e-12
0.00305332
-4.7614e-05
-4.95483e-12
0.00308261
-4.77693e-05
-5.57081e-12
0.00310831
-3.92304e-05
-5.76356e-12
0.00313807
-4.82841e-05
-6.80035e-12
0.00315792
-2.54317e-05
-6.44288e-12
-5.23294e-05
-5.19121e-12
0.00319062
0.00234127
-8.30435e-05
-5.37454e-12
0.00240408
-0.000148702
-5.45915e-12
0.00247979
-0.000192762
-5.42919e-12
0.00255924
-0.000202759
-5.57168e-12
0.00263147
-0.000191911
-5.68953e-12
0.00269532
-0.000169909
-5.85789e-12
0.0027481
-0.000145121
-5.61337e-12
0.00279246
-0.000122505
-5.45971e-12
0.0028288
-0.000104364
-5.48894e-12
0.00285974
-9.04702e-05
-6.18824e-12
0.00288608
-8.02019e-05
-6.62163e-12
0.00290946
-7.25165e-05
-6.73424e-12
0.00293039
-6.61558e-05
-5.87202e-12
0.00294947
-6.15995e-05
-5.03621e-12
0.00296692
-5.58286e-05
-4.65762e-12
0.00298326
-5.47323e-05
-5.53658e-12
0.0029977
-4.40436e-05
-6.01059e-12
0.00301328
-5.40252e-05
-7.09019e-12
0.00302319
-2.50134e-05
-5.99636e-12
-5.31126e-05
-4.91092e-12
0.00303456
0.0023511
-0.000123038
-5.37276e-12
0.00242369
-0.000211922
-5.45171e-12
0.00249859
-0.000261101
-5.43845e-12
0.00256709
-0.000263136
-5.65551e-12
0.002619
-0.00023773
-5.85492e-12
0.00265638
-0.000199966
-6.01927e-12
0.00267946
-0.000162128
-5.68332e-12
0.00269301
-0.000129231
-5.47885e-12
0.00269877
-0.000104273
-5.49105e-12
0.0027
-8.5484e-05
-6.08194e-12
0.00269794
-7.24688e-05
-6.30802e-12
0.00269415
-6.26428e-05
-6.17923e-12
0.00268951
-5.55504e-05
-5.25395e-12
0.00268402
-4.98204e-05
-4.80989e-12
0.00267919
-4.46425e-05
-4.97287e-12
0.00267331
-4.22695e-05
-5.90967e-12
0.00266969
-3.35646e-05
-6.41597e-12
0.00266419
-4.14923e-05
-6.66415e-12
0.00266176
-1.53871e-05
-5.49019e-12
-3.80025e-05
-5.58704e-12
0.00265403
0.00236304
-0.00017073
-5.3687e-12
0.00241205
-0.000247473
-5.45294e-12
0.00242334
-0.0002614
-5.46142e-12
0.00240401
-0.000231673
-5.72212e-12
0.00236287
-0.000186136
-5.96074e-12
0.00231377
-0.000139547
-6.10199e-12
0.00226184
-9.9954e-05
-5.7103e-12
0.00221275
-6.94144e-05
-5.51855e-12
0.00216683
-4.83627e-05
-5.48096e-12
0.0021258
-3.41179e-05
-5.79924e-12
0.00208874
-2.5376e-05
-5.73457e-12
0.00205615
-1.9699e-05
-5.7687e-12
0.00202709
-1.61537e-05
-5.60726e-12
0.00200178
-1.39382e-05
-5.99954e-12
0.00197949
-1.16534e-05
-6.15124e-12
0.00196006
-1.20353e-05
-6.46581e-12
0.00194398
-6.52107e-06
-6.23232e-12
0.00192807
-1.47735e-05
-6.00292e-12
0.00191788
5.84527e-06
-5.63825e-12
-2.09005e-07
-5.61644e-12
0.00189096
0.00213935
-5.42974e-12
0.00189997
-5.57907e-12
0.00164387
-5.4634e-12
0.00141892
-5.49956e-12
0.00123777
-5.39385e-12
0.00110428
-5.372e-12
0.00100926
-5.21897e-12
0.00094559
-5.36158e-12
0.000902275
-5.38495e-12
0.000873756
-5.61788e-12
0.000853546
-5.61886e-12
0.00083934
-5.87701e-12
0.00082844
-5.84583e-12
0.000819926
-6.05354e-12
0.000813591
-5.79946e-12
0.000806915
-5.86847e-12
0.000805749
-5.49627e-12
0.000796255
-5.61954e-12
0.000807449
-5.29146e-12
-5.52907e-12
0.000812651
0.00213935
0.00017073
-3.40424e-06
0.00189997
0.000247473
-5.26058e-06
0.00164387
0.0002614
-2.50005e-06
0.00141892
0.000231673
-4.07432e-06
0.00123776
0.000186136
-2.52188e-06
0.00110428
0.000139548
-3.74363e-06
0.00100926
9.99551e-05
-2.67496e-06
0.000945585
6.94165e-05
-3.48576e-06
0.000902266
4.83668e-05
-2.74568e-06
0.000873742
3.41229e-05
-3.24812e-06
0.00085352
2.53873e-05
-2.77431e-06
0.000839299
1.97148e-05
-3.06884e-06
0.000828376
1.61771e-05
-2.80009e-06
0.000819805
1.39944e-05
-2.95212e-06
0.000813435
1.16907e-05
-2.84037e-06
0.000806573
1.2216e-05
-2.88596e-06
0.000805359
6.57896e-06
-2.90837e-06
0.000795377
1.52513e-05
-2.85355e-06
0.000806334
-5.62429e-06
-2.9509e-06
8.44224e-07
-3.08698e-06
0.000810996
0.00236304
0.000123038
-8.70105e-06
0.00241205
0.000211922
-1.05818e-05
0.00242334
0.000261101
-8.07766e-06
0.002404
0.000263137
-9.4189e-06
0.00236287
0.00023773
-8.00085e-06
0.00231376
0.000199969
-9.03749e-06
0.00226184
0.000162129
-8.13336e-06
0.00221274
0.000129236
-8.79106e-06
0.00216682
0.000104279
-8.19641e-06
0.00212578
8.54971e-05
-8.57568e-06
0.00208872
7.24858e-05
-8.21497e-06
0.00205611
6.26824e-05
-8.40699e-06
0.00202703
5.5587e-05
-8.22676e-06
0.00200165
4.99476e-05
-8.29023e-06
0.00197934
4.4709e-05
-8.24969e-06
0.00195971
4.2644e-05
-8.2167e-06
0.00194354
3.37121e-05
-8.30196e-06
0.00192717
4.24378e-05
-8.17026e-06
0.0019166
1.59605e-05
-8.4217e-06
3.98134e-05
-8.43323e-06
0.00188855
0.0023511
8.30435e-05
-4.45395e-06
0.00242369
0.000148702
-6.49326e-06
0.00249859
0.000192762
-3.62969e-06
0.00256709
0.00020276
-5.39932e-06
0.002619
0.00019191
-3.64116e-06
0.00265637
0.000169912
-5.03565e-06
0.00267946
0.000145123
-3.90123e-06
0.00269301
0.000122512
-4.81294e-06
0.00269877
0.00010437
-4.05074e-06
0.00269999
9.04894e-05
-4.60944e-06
0.00269793
8.02203e-05
-4.12339e-06
0.00269412
7.25736e-05
-4.44534e-06
0.00268948
6.61978e-05
-4.17315e-06
0.00268394
6.17749e-05
-4.333e-06
0.00267908
5.59157e-05
-4.22643e-06
0.00267309
5.523e-05
-4.26709e-06
0.00266938
4.42709e-05
-4.29173e-06
0.00266361
5.525e-05
-4.24614e-06
0.00266088
2.58762e-05
-4.28526e-06
5.55072e-05
-4.42135e-06
0.00265259
0.00234127
5.59906e-05
-7.57279e-06
0.00240408
9.82631e-05
-9.49226e-06
0.00247979
0.000127077
-7.08966e-06
0.00255924
0.000134528
-8.49591e-06
0.00263147
0.000129142
-7.02424e-06
0.00269532
0.000116404
-8.07761e-06
0.0027481
0.000101686
-7.14176e-06
0.00279246
8.80375e-05
-7.82241e-06
0.0028288
7.70881e-05
-7.2121e-06
0.00285974
6.87555e-05
-7.61041e-06
0.00288608
6.25938e-05
-7.23749e-06
0.00290945
5.81597e-05
-7.44236e-06
0.00293037
5.42115e-05
-7.25223e-06
0.00294943
5.18878e-05
-7.32618e-06
0.00296686
4.77229e-05
-7.27895e-06
0.00298315
4.83184e-05
-7.25647e-06
0.00299752
3.95277e-05
-7.33091e-06
0.00301296
4.96472e-05
-7.23009e-06
0.00302264
2.65258e-05
-7.4623e-06
5.5146e-05
-7.46971e-06
0.00303359
0.00234185
2.63331e-05
-5.54742e-06
0.00240289
4.76343e-05
-7.52795e-06
0.00247528
6.26004e-05
-4.97818e-06
0.00255261
6.64417e-05
-6.52859e-06
0.00262519
6.39064e-05
-4.91382e-06
0.00269213
5.78235e-05
-6.0982e-06
0.00275036
5.07292e-05
-5.06913e-06
0.00280208
4.42515e-05
-5.85143e-06
0.00284717
3.90268e-05
-5.17425e-06
0.00288798
3.51784e-05
-5.64687e-06
0.00292498
3.22776e-05
-5.22309e-06
0.00295974
3.03702e-05
-5.48231e-06
0.00299239
2.84606e-05
-5.25438e-06
0.00302379
2.76922e-05
-5.3695e-06
0.0030533
2.54445e-05
-5.29496e-06
0.00308257
2.641e-05
-5.3059e-06
0.00310824
2.1396e-05
-5.35009e-06
0.00313795
2.76866e-05
-5.29485e-06
0.00315771
1.4923e-05
-5.37719e-06
3.10848e-05
-5.47789e-06
0.00319035
0.00233952
-5.17027e-11
-6.54257e-06
0.00239852
2.76785e-10
-8.48968e-06
0.00247013
-1.14546e-10
-6.06691e-06
0.00254681
6.41037e-10
-7.52927e-06
0.00261914
-1.97935e-11
-5.99611e-06
0.00268633
1.59608e-09
-7.09458e-06
0.00274537
7.29562e-10
-6.12091e-06
0.00279854
4.11814e-09
-6.84157e-06
0.00284562
3.47507e-09
-6.20719e-06
0.00288902
1.13069e-08
-6.63559e-06
0.00292898
1.04084e-08
-6.2438e-06
0.00296727
3.35829e-08
-6.46982e-06
0.00300361
2.51794e-08
-6.26516e-06
0.00303939
1.02445e-07
-6.35534e-06
0.00307301
5.86622e-08
-6.29801e-06
0.00310746
2.89281e-07
-6.29026e-06
0.00313721
1.67759e-07
-6.35129e-06
0.00317286
7.14445e-07
-6.27861e-06
0.00319635
6.18338e-07
-6.445e-06
1.48978e-06
-6.48712e-06
0.00323551
0.00233952
-2.63332e-05
-6.54257e-06
0.00239852
-4.76337e-05
-8.48968e-06