/*--------------------------------*- C++ -*----------------------------------*\
  =========                 |
  \\      /  F ield         | OpenFOAM: The Open Source CFD Toolbox
   \\    /   O peration     | Website:  https://openfoam.org
    \\  /    A nd           | Version:  7
     \\/     M anipulation  |
\*---------------------------------------------------------------------------*/
FoamFile
{
    version     2.0;
    format      ascii;
    class       surfaceScalarField;
    location    "0.9475";
    object      phi;
}
// * * * * * * * * * * * * * * * * * * * * * * * * * * * * * * * * * * * * * //

dimensions      [1 0 -1 0 0 0 0];

internalField   nonuniform List<scalar> 
21708
(
0.00129211
0.000997798
1.38382e-05
0.000898138
0.000390336
6.46258e-06
0.00069045
0.000198413
1.1906e-05
0.00060131
8.43707e-05
6.95847e-06
0.000549501
4.26145e-05
1.10446e-05
0.000519015
2.50734e-05
7.16628e-06
0.000496002
1.45172e-05
1.03501e-05
0.000479996
1.07384e-05
7.30693e-06
0.000465901
6.49431e-06
9.78866e-06
0.000455528
5.2439e-06
7.38511e-06
0.000445669
2.8242e-06
9.30508e-06
0.000438355
2.1872e-06
7.40341e-06
0.000431099
6.78933e-07
8.8737e-06
0.000425719
3.30104e-07
7.37003e-06
0.000420167
-5.84975e-07
8.47594e-06
0.000415725
-5.11864e-07
7.29508e-06
0.000410027
-6.72151e-08
8.09796e-06
0.000406494
-1.34503e-06
7.18657e-06
0.000355105
4.58134e-05
7.84399e-06
2.61797e-05
6.73728e-06
0.000324452
0.00224161
0.00105639
3.14275e-06
0.00205609
0.000582258
-3.60521e-06
0.00185601
0.000399361
1.94531e-06
0.0017167
0.000229051
-2.86492e-06
0.00161606
0.00014408
1.30474e-06
0.00154733
9.8215e-05
-2.5369e-06
0.00149311
6.98823e-05
6.79686e-07
0.00145396
5.41231e-05
-2.35404e-06
0.00141966
4.26449e-05
1.45065e-07
0.00139415
3.50822e-05
-2.25587e-06
0.00137019
2.92378e-05
-3.26041e-07
0.00135218
2.45926e-05
-2.22877e-06
0.00133448
2.13469e-05
-7.52537e-07
0.00132115
1.81869e-05
-2.25648e-06
0.00130816
1.58585e-05
-1.14795e-06
0.00129693
1.539e-05
-2.3246e-06
0.0012913
9.4728e-06
-1.5399e-06
0.00127665
1.80948e-05
-2.41688e-06
0.00131876
8.0897e-06
-2.02746e-06
-1.88396e-05
-2.97997e-06
0.00136911
0.0025658
0.00078427
9.83791e-06
0.00265984
0.000487399
3.55867e-06
0.00265644
0.000396922
8.73559e-06
0.00262405
0.00026045
3.82015e-06
0.00257849
0.000184259
7.91219e-06
0.00253763
0.000137273
4.02797e-06
0.00249712
0.000105191
7.21037e-06
0.00246402
8.49713e-05
4.15761e-06
0.00243236
6.9513e-05
6.63812e-06
0.00240695
5.80502e-05
4.2286e-06
0.00238252
4.92967e-05
6.14743e-06
0.00236308
4.15916e-05
4.24091e-06
0.00234418
3.64378e-05
5.71042e-06
0.00232955
3.06352e-05
4.20348e-06
0.00231434
2.78965e-05
5.30998e-06
0.00230428
2.35647e-05
4.12496e-06
0.00228862
2.25255e-05
4.93727e-06
0.00228385
2.12933e-05
3.99973e-06
0.00225715
3.2548e-05
4.72265e-06
2.5072e-05
3.62927e-06
0.00221216
0.00257202
0.000511138
4.45564e-06
0.0027349
0.000328781
-1.5534e-06
0.00284357
0.000287576
3.58052e-06
0.00290844
0.000199791
-1.27748e-06
0.00294202
0.000150537
2.85317e-06
0.00296363
0.00011906
-9.97031e-07
0.00297224
9.65334e-05
2.21767e-06
0.00297823
8.18359e-05
-8.17812e-07
0.0029781
6.98989e-05
1.68118e-06
0.00297802
6.06442e-05
-7.17672e-07
0.00297462
5.31149e-05
1.2124e-06
0.00297204
4.63927e-05
-6.88091e-07
0.00296792
4.13094e-05
7.87425e-07
0.00296456
3.63658e-05
-7.14858e-07
0.00296154
3.23545e-05
3.93417e-07
0.00295759
3.02915e-05
-7.84233e-07
0.00295825
2.39913e-05
3.96596e-09
0.00295368
2.90489e-05
-9.02082e-07
0.00297017
1.89447e-05
-5.00397e-07
1.16762e-05
-1.38001e-06
0.00298755
0.00256103
0.000245769
7.77217e-06
0.00273136
0.000159177
1.97063e-06
0.0028687
0.000146195
6.96071e-06
0.00296527
0.000104083
2.09163e-06
0.00303186
8.05048e-05
6.19666e-06
0.00308592
6.51197e-05
2.33305e-06
0.00312518
5.3956e-05
5.53358e-06
0.00315994
4.66827e-05
2.48885e-06
0.00318628
4.05962e-05
4.97825e-06
0.00321041
3.58283e-05
2.57425e-06
0.00322888
3.18144e-05
4.49801e-06
0.003246
2.81406e-05
2.59465e-06
0.00325928
2.53148e-05
4.06552e-06
0.00327213
2.23767e-05
2.56043e-06
0.00328206
2.03364e-05
3.66705e-06
0.00329319
1.84659e-05
2.4838e-06
0.00329939
1.64263e-05
3.29344e-06
0.00331081
1.73938e-05
2.34945e-06
0.00331243
1.65259e-05
3.0049e-06
1.82252e-05
1.99684e-06
0.00330636
0.0025431
5.97134e-12
6.04782e-06
0.00270464
3.65289e-10
3.33152e-07
0.00284845
-2.95873e-11
5.30426e-06
0.00295506
7.09192e-10
4.37911e-07
0.00303378
-2.56307e-10
4.5421e-06
0.00310066
1.3575e-09
6.81084e-07
0.00315294
-6.07854e-11
3.88713e-06
0.00320089
3.26987e-09
8.44731e-07
0.00324019
2.4026e-09
3.33812e-06
0.003277
8.07908e-09
9.36135e-07
0.00330765
1.14268e-08
2.8626e-06
0.00333626
2.31601e-08
9.60697e-07
0.00336041
3.3169e-08
2.43292e-06
0.00338309
8.27987e-08
9.29343e-07
0.00340279
6.30172e-08
2.03554e-06
0.00342178
3.0619e-07
8.55632e-07
0.0034383
8.80277e-08
1.65274e-06
0.00345608
9.04723e-07
7.22751e-07
0.00347307
4.00409e-07
1.23682e-06
1.68926e-06
3.28648e-07
0.00349162
0.0025431
-0.000245768
6.04782e-06
0.00270464
-0.000159176
3.33151e-07
0.00284845
-0.000146195
5.30426e-06
0.00295506
-0.000104082
4.37907e-07
0.00303378
-8.05051e-05
4.54211e-06
0.00310066
-6.51174e-05
6.81074e-07
0.00315294
-5.39557e-05
3.88714e-06
0.00320089
-4.66771e-05
8.44704e-07
0.00324019
-4.05906e-05
3.33815e-06
0.003277
-3.58147e-05
9.36066e-07
0.00330765
-3.17895e-05
2.86269e-06
0.00333627
-2.81009e-05
9.60521e-07
0.00336041
-2.52431e-05
2.43313e-06
0.00338311
-2.22275e-05
9.28884e-07
0.0034028
-2.01978e-05
2.03615e-06
0.00342181
-1.78845e-05
8.54497e-07
0.00343831
-1.62249e-05
1.65477e-06
0.0034561
-1.55926e-05
7.20608e-07
0.00347305
-1.56926e-05
1.24515e-06
-1.46838e-05
3.26355e-07
0.00349144
0.00256103
-0.000511138
7.77217e-06
0.00273136
-0.00032878
1.97063e-06
0.0028687
-0.000287576
6.96071e-06
0.00296527
-0.000199789
2.09164e-06
0.00303186
-0.000150537
6.19665e-06
0.00308592
-0.000119058
2.33306e-06
0.00312518
-9.65335e-05
5.53357e-06
0.00315994
-8.183e-05
2.48887e-06
0.00318628
-6.98948e-05
4.97822e-06
0.00321041
-6.06299e-05
2.57431e-06
0.00322888
-5.30951e-05
4.49794e-06
0.003246
-4.63516e-05
2.59481e-06
0.0032593
-4.12522e-05
4.06531e-06
0.00327215
-3.6219e-05
2.56087e-06
0.00328212
-3.22524e-05
3.66641e-06
0.00329328
-2.97426e-05
2.48492e-06
0.00329958
-2.38843e-05
3.2914e-06
0.00331115
-2.74065e-05
2.35139e-06
0.00331308
-1.84062e-05
2.99744e-06
-8.82851e-06
1.99769e-06
0.0033077
0.00257202
-0.00078427
4.45564e-06
0.0027349
-0.000487399
-1.5534e-06
0.00284357
-0.000396922
3.58052e-06
0.00290844
-0.000260449
-1.27749e-06
0.00294202
-0.000184259
2.85317e-06
0.00296363
-0.000137271
-9.97042e-07
0.00297224
-0.000105191
2.21769e-06
0.00297823
-8.49676e-05
-8.17838e-07
0.0029781
-6.95085e-05
1.68122e-06
0.00297802
-5.80414e-05
-7.17733e-07
0.00297463
-4.92777e-05
1.2125e-06
0.00297206
-4.15649e-05
-6.8824e-07
0.00296794
-3.63845e-05
7.87653e-07
0.00296463
-3.0531e-05
-7.15223e-07
0.00296161
-2.78013e-05
3.94e-07
0.0029578
-2.31402e-05
-7.85087e-07
0.00295847
-2.24294e-05
5.86944e-09
0.00295416
-1.99164e-05
-9.03865e-07
0.00297076
-3.21191e-05
-4.92259e-07
-2.25788e-05
-1.38217e-06
0.00298849
0.0025658
-0.00105639
9.83791e-06
0.00265984
-0.000582258
3.55867e-06
0.00265644
-0.000399361
8.73559e-06
0.00262405
-0.000229051
3.82015e-06
0.00257849
-0.00014408
7.91218e-06
0.00253763
-9.82142e-05
4.02798e-06
0.00249712
-6.98823e-05
7.21036e-06
0.00246402
-5.4121e-05
4.15762e-06
0.00243236
-4.26425e-05
6.6381e-06
0.00240696
-3.50768e-05
4.22864e-06
0.00238253
-2.92267e-05
6.14737e-06
0.00236311
-2.45758e-05
4.24103e-06
0.00234423
-2.13161e-05
5.71025e-06
0.00232963
-1.81217e-05
4.20382e-06
0.00231447
-1.58113e-05
5.30943e-06
0.00230457
-1.51178e-05
4.12587e-06
0.00228902
-9.4865e-06
4.93564e-06
0.00228472
-1.71991e-05
4.00134e-06
0.00225854
-8.17127e-06
4.71736e-06
1.98378e-05
3.62847e-06
0.00221505
0.00224161
-0.000997798
3.14275e-06
0.00205609
-0.000390336
-3.60521e-06
0.00185601
-0.000198413
1.94531e-06
0.0017167
-8.43708e-05
-2.86493e-06
0.00161606
-4.26149e-05
1.30475e-06
0.00154733
-2.50739e-05
-2.53691e-06
0.00149311
-1.45176e-05
6.797e-07
0.00145397
-1.07385e-05
-2.35406e-06
0.00141967
-6.49329e-06
1.45103e-07
0.00139416
-5.24326e-06
-2.25592e-06
0.00137021
-2.81918e-06
-3.25953e-07
0.00135221
-2.18442e-06
-2.2289e-06
0.00133453
-6.64441e-07
-7.52334e-07
0.00132125
-3.15829e-07
-2.25677e-06
0.00130828
6.13526e-07
-1.14745e-06
0.00129725
5.86356e-07
-2.32526e-06
0.00129156
1.06462e-07
-1.53837e-06
0.00127752
1.63261e-06
-2.41873e-06
0.00131927
-4.55373e-05
-2.02051e-06
-2.55681e-05
-2.9844e-06
0.00137
0.00129211
1.38382e-05
0.000898138
6.46258e-06
0.00069045
1.1906e-05
0.00060131
6.95848e-06
0.000549501
1.10446e-05
0.000519015
7.16628e-06
0.000496003
1.03501e-05
0.000479997
7.30694e-06
0.000465904
9.78865e-06
0.000455532
7.38515e-06
0.000445679
9.30503e-06
0.000438368
7.40351e-06
0.000431126
8.87356e-06
0.000425761
7.37032e-06
0.000420238
8.47551e-06
0.000415871
7.2959e-06
0.000410212
8.09683e-06
0.000406965
7.18824e-06
0.00035586
7.84144e-06
6.73844e-06
0.000325802
0.00189445
0.000418919
3.37909e-06
0.00138403
0.000514477
5.22925e-06
0.001045
0.000351208
2.47812e-06
0.000866534
0.000183679
4.0428e-06
0.000778958
9.80175e-05
2.49674e-06
0.000725738
5.83963e-05
3.71369e-06
0.000692539
4.27005e-05
2.6514e-06
0.000663847
3.45653e-05
3.45555e-06
0.000643928
2.9208e-05
2.71764e-06
0.000624924
2.5468e-05
3.21634e-06
0.000611452
2.23156e-05
2.74808e-06
0.000597869
2.02129e-05
3.0425e-06
0.0005878
1.84527e-05
2.77598e-06
0.000577666
1.68969e-05
2.92599e-06
0.000569429
1.62433e-05
2.81451e-06
0.000561681
1.45292e-05
2.85878e-06
0.000558757
1.04735e-05
2.88133e-06
0.000541321
2.40947e-05
2.82619e-06
0.000643371
-9.48749e-05
2.9242e-06
-7.735e-05
3.05778e-06
0.000726661
0.00239768
0.000318865
8.66093e-06
0.00234243
0.00055835
1.05359e-05
0.00222546
0.000464965
8.0355e-06
0.00209498
0.000304596
9.37174e-06
0.00198907
0.000199587
7.9563e-06
0.00190134
0.000136604
8.99155e-06
0.00183587
0.000102601
8.09071e-06
0.00177997
8.11865e-05
8.74798e-06
0.00173748
6.55658e-05
8.15515e-06
0.00169928
5.4837e-05
8.53373e-06
0.00166952
4.56118e-05
8.17362e-06
0.00164184
3.94145e-05
8.36469e-06
0.00161958
3.39729e-05
8.18451e-06
0.00159887
2.93651e-05
8.24724e-06
0.00158068
2.74132e-05
8.20697e-06
0.00156618
2.09236e-05
8.17344e-06
0.00154693
2.23418e-05
8.2592e-06
0.00154606
1.68637e-05
8.12667e-06
0.0014676
-2.4403e-05
8.37939e-06
6.56795e-06
8.38792e-06
0.00137472
0.0024205
0.000206711
4.42338e-06
0.0025527
0.000425989
6.45833e-06
0.0026205
0.000405209
3.6022e-06
0.00262538
0.000301011
5.36763e-06
0.00260929
0.000222549
3.61256e-06
0.00257959
0.000167601
5.003e-06
0.00255276
0.000134831
3.86895e-06
0.00252351
0.000111737
4.77897e-06
0.00249931
9.41938e-05
4.01881e-06
0.00247438
8.11204e-05
4.57832e-06
0.00245393
6.979e-05
4.0944e-06
0.00243328
6.16279e-05
4.41636e-06
0.00241645
5.42177e-05
4.14439e-06
0.00239916
4.85648e-05
4.30351e-06
0.00238607
4.37506e-05
4.1968e-06
0.00236974
3.94067e-05
4.23747e-06
0.00236385
3.12782e-05
4.26188e-06
0.00234487
3.81189e-05
4.21675e-06
0.0023571
-3.35855e-05
4.2554e-06
-1.109e-05
4.39144e-06
0.00237664
0.00237301
0.000133696
7.5352e-06
0.0025182
0.000272525
9.44886e-06
0.0026557
0.000267161
7.0508e-06
0.00274047
0.000209402
8.45371e-06
0.00279857
0.000162966
6.98625e-06
0.00283074
0.000128762
8.03789e-06
0.00285505
0.000107806
7.1037e-06
0.00286795
9.22898e-05
7.7821e-06
0.00287861
7.99563e-05
7.17296e-06
0.00288288
7.02948e-05
7.57102e-06
0.00288668
6.1553e-05
7.19987e-06
0.00288679
5.48993e-05
7.40473e-06
0.00288733
4.87796e-05
7.21498e-06
0.00288593
4.36529e-05
7.28798e-06
0.00288475
3.99572e-05
7.24074e-06
0.00288347
3.47141e-05
7.21788e-06
0.00287803
3.16024e-05
7.29287e-06
0.00287994
3.04655e-05
7.19161e-06
0.00284292
-1.99171e-06
7.42444e-06
2.56259e-05
7.42886e-06
0.00280014
0.00237501
6.39151e-05
5.51452e-06
0.00251059
0.000134152
7.48994e-06
0.00264821
0.000134477
4.9461e-06
0.00274849
0.000107622
6.49329e-06
0.00282926
8.61758e-05
4.8827e-06
0.00288679
6.98732e-05
6.06435e-06
0.00293731
5.99753e-05
5.03636e-06
0.0029759
5.24701e-05
5.81599e-06
0.00301118
4.65066e-05
5.14015e-06
0.00303853
4.17042e-05
5.6128e-06
0.00306367
3.7276e-05
5.19106e-06
0.00308325
3.38492e-05
5.45029e-06
0.00310174
3.05018e-05
5.22254e-06
0.00311616
2.79511e-05
5.33667e-06
0.00313087
2.53311e-05
5.26188e-06
0.00314106
2.35909e-05
5.27302e-06
0.00315342
1.92135e-05
5.31757e-06
0.0031611
2.20356e-05
5.26298e-06
0.0031624
-3.29962e-06
5.34543e-06
8.88303e-06
5.44489e-06
0.00317834
0.00236647
-1.33657e-10
6.50741e-06
0.00249524
3.34737e-10
8.44904e-06
0.00263191
-2.00836e-10
6.03147e-06
0.00273539
5.02531e-10
7.49057e-06
0.00282279
-3.87728e-10
5.9617e-06
0.00288866
1.35016e-09
7.05799e-06
0.00294862
4.69871e-10
6.08573e-06
0.00299725
3.66535e-09
6.80386e-06
0.00304294
2.99808e-09
6.17076e-06
0.0030808
1.01197e-08
6.59906e-06
0.00311629
1.04106e-08
6.20922e-06
0.00314601
3.2706e-08
6.43504e-06
0.00317399
2.87102e-08
6.23042e-06
0.00319786
1.03168e-07
6.3192e-06
0.00322048
7.90208e-08
6.26169e-06
0.00324016
2.91947e-07
6.2538e-06
0.00325636
2.68947e-07
6.31589e-06
0.00327421
7.40351e-07
6.24319e-06
0.00326705
9.15949e-07
6.41085e-06
1.82719e-06
6.45002e-06
0.00327054
0.00236647
-6.39154e-05
6.50741e-06
0.00249524
-0.000134151
8.44904e-06
0.00263191
-0.000134478
6.03147e-06
0.00273539
-0.000107621
7.49057e-06
0.00282279
-8.61767e-05
5.96169e-06
0.00288866
-6.98702e-05
7.05799e-06
0.00294862
-5.99749e-05
6.08572e-06
0.00299725
-5.24621e-05
6.80388e-06
0.00304294
-4.65018e-05
6.17074e-06
0.0030808
-4.16819e-05
6.5991e-06
0.0031163
-3.7259e-05
6.20917e-06
0.003146
-3.37788e-05
6.43513e-06
0.003174
-3.04556e-05
6.2303e-06
0.00319786
-2.7734e-05
6.31943e-06
0.00322051
-2.52059e-05
6.26134e-06
0.00324018
-2.29965e-05
6.25438e-06
0.00325649
-1.87839e-05
6.3147e-06
0.00327445
-2.06645e-05
6.24414e-06
0.00326741
5.02326e-06
6.40555e-06
-5.63203e-06
6.45133e-06
0.0032713
0.00237501
-0.000133697
5.51452e-06
0.00251059
-0.000272524
7.48994e-06
0.00264821
-0.000267161
4.9461e-06
0.00274849
-0.000209401
6.49328e-06
0.00282926
-0.000162967
4.8827e-06
0.00288679
-0.000128759
6.06435e-06
0.00293731
-0.000107805
5.03636e-06
0.0029759
-9.2283e-05
5.81598e-06
0.00301118
-7.99508e-05
5.14017e-06
0.00303854
-7.0276e-05
5.61277e-06
0.00306367
-6.15343e-05
5.1911e-06
0.00308327
-5.48394e-05
5.45021e-06
0.00310175
-4.87298e-05
5.22265e-06
0.0031162
-4.34653e-05
5.33644e-06
0.0031309
-3.98235e-05
5.26221e-06
0.00314116
-3.4187e-05
5.27244e-06
0.00315348
-3.114e-05
5.31866e-06
0.00316124
-2.91662e-05
5.26194e-06
0.0031626
3.64264e-06
5.35004e-06
-2.23108e-05
5.44367e-06
0.00317848
0.00237301
-0.000206711
7.5352e-06
0.0025182
-0.000425989
9.44886e-06
0.0026557
-0.000405209
7.0508e-06
0.00274047
-0.000301011
8.45371e-06
0.00279857
-0.00022255
6.98625e-06
0.00283074
-0.000167599
8.03789e-06
0.00285505
-0.00013483
7.10369e-06
0.00286795
-0.00011173
7.78211e-06
0.00287861
-9.41897e-05
7.17294e-06
0.00288288
-8.11035e-05
7.57105e-06
0.00288669
-6.9777e-05
7.19983e-06
0.0028868
-6.15742e-05
7.40481e-06
0.00288736
-5.41854e-05
7.21485e-06
0.00288599
-4.83979e-05
7.28817e-06
0.00288486
-4.36707e-05
7.24037e-06
0.00288365
-3.89499e-05
7.21832e-06
0.00287839
-3.09966e-05
7.29165e-06
0.00288057
-3.70933e-05
7.19237e-06
0.00284404
3.47579e-05
7.4195e-06
1.33888e-05
7.42938e-06
0.00280227
0.0024205
-0.000318865
4.42338e-06
0.0025527
-0.00055835
6.45833e-06
0.0026205
-0.000464965
3.6022e-06
0.00262538
-0.000304595
5.36763e-06
0.00260929
-0.000199587
3.61256e-06
0.00257959
-0.000136602
5.003e-06
0.00255276
-0.0001026
3.86896e-06
0.00252351
-8.11828e-05
4.77897e-06
0.00249931
-6.55618e-05
4.01883e-06
0.00247439
-5.48278e-05
4.5783e-06
0.00245395
-4.55999e-05
4.09444e-06
0.00243331
-3.9384e-05
4.41629e-06
0.00241649
-3.39429e-05
4.14448e-06
0.00239926
-2.92663e-05
4.30333e-06
0.00238618
-2.73386e-05
4.19706e-06
0.00237003
-2.06461e-05
4.23699e-06
0.00236416
-2.20839e-05
4.26267e-06
0.00234555
-1.62045e-05
4.21575e-06
0.00235796
2.53841e-05
4.25863e-06
-4.72471e-06
4.39043e-06
0.00237796
0.00239768
-0.000418919
8.66093e-06
0.00234243
-0.000514477
1.05359e-05
0.00222546
-0.000351208
8.03549e-06
0.00209498
-0.000183678
9.37174e-06
0.00198907
-9.80173e-05
7.95629e-06
0.00190134
-5.83954e-05
8.99156e-06
0.00183588
-4.27002e-05
8.09071e-06
0.00177998
-3.45636e-05
8.74799e-06
0.00173749
-2.92066e-05
8.15513e-06
0.00169929
-2.54636e-05
8.53375e-06
0.00166954
-2.23116e-05
8.17357e-06
0.00164188
-2.01988e-05
8.36475e-06
0.00161964
-1.84442e-05
8.1844e-06
0.00159898
-1.68509e-05
8.24741e-06
0.00158085
-1.62274e-05
8.20663e-06
0.00156649
-1.43974e-05
8.17389e-06
0.00154748
-1.04482e-05
8.25812e-06
0.00154693
-2.37599e-05
8.12772e-06
0.00146955
9.47904e-05
8.37528e-06
7.72438e-05
8.38978e-06
0.0013786
0.00189445
3.37909e-06
0.00138403
5.22925e-06
0.001045
2.47812e-06
0.000866534
4.0428e-06
0.000778958
2.49675e-06
0.000725739
3.71368e-06
0.00069254
2.6514e-06
0.00066385
3.45554e-06
0.000643933
2.71765e-06
0.000624933
3.21633e-06
0.000611465
2.7481e-06
0.000597897
3.04246e-06
0.000587836
2.77603e-06
0.000577748
2.92587e-06
0.000569526
2.81466e-06
0.000561912
2.8584e-06
0.00055901
2.88169e-06
0.000541911
2.8254e-06
0.000643884
2.92478e-06
3.05656e-06
0.00072705
0.00213601
0.00017006
-9.80964e-12
0.00189734
0.000246698
-9.84022e-12
0.00164205
0.000260632
-9.73398e-12
0.00141769
0.000231021
-9.76626e-12
0.0012367
0.000185648
-9.77817e-12
0.00110287
0.000139201
-1.03803e-11
0.00100727
9.97727e-05
-1.06336e-11
0.000943109
6.94964e-05
-1.09656e-11
0.000899545
4.86564e-05
-1.06273e-11
0.000870853
3.44495e-05
-1.03472e-11
0.00085039
2.5602e-05
-9.72864e-12
0.000835826
1.98169e-05
-9.90893e-12
0.000824543
1.62303e-05
-1.00836e-11
0.000815638
1.40703e-05
-1.08346e-11
0.000809011
1.17591e-05
-1.10264e-11
0.000801824
1.23757e-05
-1.14772e-11
0.000800477
6.54811e-06
-1.12419e-11
0.000790088
1.54767e-05
-1.13316e-11
0.000800794
-5.58787e-06
-1.08652e-11
2.12206e-07
-1.08367e-11
0.000805876
0.00235886
0.000122535
-9.7786e-12
0.00240765
0.000211199
-9.86893e-12
0.00241904
0.000260196
-1.02355e-11
0.00240004
0.000262196
-1.07501e-11
0.00235926
0.000236898
-1.03102e-11
0.00231034
0.000199326
-9.69147e-12
0.0022584
0.000161744
-9.46162e-12
0.00220922
0.000129178
-1.05596e-11
0.00216326
0.000104436
-1.12039e-11
0.00212225
8.56904e-05
-1.11962e-11
0.00208528
7.25787e-05
-1.02141e-11
0.00205274
6.26935e-05
-9.89737e-12
0.00202372
5.55692e-05
-9.73822e-12
0.00199835
4.99719e-05
-1.02564e-11
0.00197602
4.47078e-05
-1.0248e-11
0.0019563
4.2784e-05
-1.06341e-11
0.0019401
3.35607e-05
-1.05608e-11
0.00192352
4.27386e-05
-1.10737e-11
0.00191299
1.58053e-05
-1.09539e-11
3.93051e-05
-1.11856e-11
0.00188467
0.00234692
8.27019e-05
-9.78223e-12
0.00241913
0.000148203
-9.92507e-12
0.00249378
0.000192083
-1.02379e-11
0.00256221
0.00020199
-1.06455e-11
0.00261414
0.000191155
-1.0306e-11
0.00265153
0.000169261
-9.93997e-12
0.00267463
0.000144666
-9.71362e-12
0.00268825
0.00012234
-1.0389e-11
0.00269408
0.000104399
-1.05488e-11
0.00269535
9.05598e-05
-1.03057e-11
0.00269328
8.02016e-05
-9.38715e-12
0.00268941
7.2464e-05
-9.49571e-12
0.00268473
6.60515e-05
-1.01198e-11
0.0026792
6.16539e-05
-1.14083e-11
0.00267434
5.57934e-05
-1.14216e-11
0.00266835
5.52219e-05
-1.11485e-11
0.00266454
4.40467e-05
-1.01761e-11
0.00265865
5.547e-05
-1.01399e-11
0.00265594
2.55483e-05
-1.05834e-11
5.51646e-05
-1.12892e-11
0.00264734
0.00233714
5.5761e-05
-9.80175e-12
0.00239961
9.79339e-05
-9.95909e-12
0.00247505
0.000126634
-1.01842e-11
0.00255433
0.000134023
-1.04738e-11
0.0026264
0.000128633
-1.0183e-11
0.00269007
0.000115948
-1.01243e-11
0.00274268
0.000101342
-1.01878e-11
0.00278702
8.78706e-05
-1.09206e-11
0.00282343
7.70489e-05
-1.08427e-11
0.00285443
6.8746e-05
-1.0178e-11
0.00288069
6.25286e-05
-8.87899e-12
0.00290385
5.80335e-05
-8.7896e-12
0.0029245
5.4053e-05
-9.46465e-12
0.00294332
5.17433e-05
-1.11822e-11
0.00296056
4.75705e-05
-1.17291e-11
0.00297671
4.82377e-05
-1.15598e-11
0.00299083
3.93127e-05
-1.06362e-11
0.00300611
4.97421e-05
-9.96696e-12
0.0030155
2.6211e-05
-1.02232e-11
5.48917e-05
-1.20616e-11
0.00302615
0.00233771
2.62242e-05
-9.81831e-12
0.00239841
4.74758e-05
-9.9626e-12
0.00247056
6.23827e-05
-1.00352e-11
0.00254774
6.61929e-05
-1.02211e-11
0.00262016
6.3653e-05
-1.00703e-11
0.00268688
5.75943e-05
-1.02964e-11
0.00274489
5.0553e-05
-1.04336e-11
0.00279652
4.41635e-05
-1.08928e-11
0.00284162
3.90004e-05
-1.05857e-11
0.00288245
3.5167e-05
-1.00433e-11
0.00291931
3.22349e-05
-9.10861e-12
0.00295379
3.02985e-05
-9.2257e-12
0.00298607
2.83648e-05
-9.7345e-12
0.00301711
2.7608e-05
-1.10924e-11
0.00304631
2.53475e-05
-1.14627e-11
0.00307532
2.6352e-05
-1.1293e-11
0.00310064
2.12697e-05
-1.05355e-11
0.0031301
2.7718e-05
-1.00845e-11
0.00314936
1.47556e-05
-1.01507e-11
3.09374e-05
-1.22174e-11
0.00318163
0.00233539
-1.70358e-10
-9.8388e-12
0.00239407
4.8334e-10
-9.98469e-12
0.00246543
-4.35794e-10
-1.00043e-11
0.00254197
9.55501e-10
-1.01387e-11
0.00261414
-7.10317e-10
-1.0004e-11
0.00268109
2.2148e-09
-1.02676e-11
0.00273991
-1.2491e-10
-1.03549e-11
0.00279298
5.17852e-09
-1.07171e-11
0.00284007
1.69597e-09
-1.0432e-11
0.00288346
1.30341e-08
-1.02263e-11
0.00292327
6.65227e-09
-9.74101e-12
0.00296125
3.8339e-08
-1.00417e-11
0.00299718
1.77416e-08
-1.02947e-11
0.00303256
1.11753e-07
-1.10429e-11
0.00306583
4.67486e-08
-1.08858e-11
0.00309996
2.96656e-07
-1.07968e-11
0.00312932
1.63537e-07
-1.02811e-11
0.00316468
7.04157e-07
-1.03551e-11
0.0031876
6.49725e-07
-1.06239e-11
1.46469e-06
-1.19612e-11
0.00322633
0.00233539
-2.62246e-05
-9.84977e-12
0.00239407
-4.74748e-05
-9.98296e-12
0.00246543
-6.23836e-05
-9.94185e-12
0.00254197
-6.61909e-05
-1.00333e-11
0.00261414
-6.36545e-05
-9.91758e-12
0.00268109
-5.75898e-05
-1.01547e-11
0.00273991
-5.05535e-05
-1.0119e-11
0.00279298
-4.41529e-05
-1.03079e-11
0.00284007
-3.89975e-05
-1.00823e-11
0.00288346
-3.51405e-05
-1.03384e-11
0.00292327
-3.22227e-05
-1.04283e-11
0.00296125
-3.02211e-05
-1.09765e-11
0.00299719
-2.83317e-05
-1.10039e-11
0.00303256
-2.73842e-05
-1.11149e-11
0.00306583
-2.52594e-05
-1.04219e-11
0.00309997
-2.5762e-05
-1.04889e-11
0.00312934
-2.09565e-05
-1.02719e-11
0.00316473
-2.63329e-05
-1.08424e-11
0.00318769
-1.35075e-05
-1.14022e-11
-2.8108e-05
-1.14012e-11
0.00322652
0.00233771
-5.57614e-05
-9.86852e-12
0.00239841
-9.79329e-05
-9.99951e-12
0.00247056
-0.000126635
-9.90699e-12
0.00254774
-0.000134021
-9.95485e-12
0.00262016
-0.000128635
-9.85299e-12
0.00268688
-0.000115943
-1.01045e-11
0.00274489
-0.000101342
-1.00144e-11
0.00279652
-8.78605e-05
-1.01128e-11
0.00284162
-7.70458e-05
-9.95119e-12
0.00288245
-6.87209e-05
-1.05795e-11
0.00291931
-6.25163e-05
-1.11099e-11
0.00295379
-5.79603e-05
-1.18145e-11
0.00298607
-5.40207e-05
-1.15384e-11
0.00301713
-5.15306e-05
-1.0961e-11
0.00304633
-4.74877e-05
-9.77086e-12
0.00307536
-4.76729e-05
-1.00153e-11
0.00310071
-3.90237e-05
-1.00792e-11
0.00313022
-4.84048e-05
-1.12959e-11
0.00314957
-2.50471e-05
-1.18965e-11
-5.21421e-05
-1.09018e-11
0.00318192
0.00233714
-8.27022e-05
-9.89003e-12
0.00239961
-0.000148202
-9.99203e-12
0.00247505
-0.000192084
-9.74869e-12
0.00255433
-0.000201989
-9.71755e-12
0.0026264
-0.000191157
-9.76041e-12
0.00269007
-0.000169256
-1.02637e-11
0.00274268
-0.000144666
-1.01962e-11
0.00278702
-0.000122331
-1.00365e-11
0.00282343
-0.000104397
-9.75238e-12
0.00285443
-9.05361e-05
-1.06269e-11
0.00288069
-8.01922e-05
-1.15307e-11
0.00290386
-7.23957e-05
-1.23317e-11
0.00292452
-6.60275e-05
-1.17057e-11
0.00294336
-6.14575e-05
-1.05859e-11
0.00296062
-5.57344e-05
-9.30946e-12
0.00297682
-5.47067e-05
-9.75179e-12
0.002991
-4.38275e-05
-1.0168e-11
0.00300643
-5.42766e-05
-1.18175e-11
0.00301604
-2.46097e-05
-1.18084e-11
-5.28509e-05
-1.06567e-11
0.00302713
0.00234692
-0.000122535
-9.90893e-12
0.00241913
-0.000211199
-9.99916e-12
0.00249378
-0.000260197
-9.6423e-12
0.00256221
-0.000262195
-9.52819e-12
0.00261414
-0.000236898
-9.68038e-12
0.00265153
-0.000199323
-1.04914e-11
0.00267463
-0.000161744
-1.06387e-11
0.00268825
-0.000129171
-1.04838e-11
0.00269409
-0.000104434
-1.00369e-11
0.00269536
-8.56729e-05
-1.06443e-11
0.00269329
-7.25705e-05
-1.12403e-11
0.00268944
-6.26419e-05
-1.17182e-11
0.00268477
-5.55516e-05
-1.08451e-11
0.00267928
-4.98213e-05
-9.97134e-12
0.00267444
-4.4672e-05
-9.44427e-12
0.00266857
-4.23864e-05
-1.02808e-11
0.00266484
-3.34232e-05
-1.10357e-11
0.00265923
-4.18219e-05
-1.20444e-11
0.0026568
-1.51469e-05
-1.12156e-11
-3.75929e-05
-1.10514e-11
0.0026488
0.00235886
-0.00017006
-9.9142e-12
0.00240765
-0.000246698
-1.0002e-11
0.00241904
-0.000260632
-9.55133e-12
0.00240004
-0.000231021
-9.43015e-12
0.00235926
-0.000185648
-9.86623e-12
0.00231034
-0.000139199
-1.09245e-11
0.0022584
-9.97722e-05
-1.08242e-11
0.00220922
-6.94934e-05
-1.00829e-11
0.00216326
-4.86537e-05
-9.27754e-12
0.00212227
-3.44422e-05
-9.8997e-12
0.00208529
-2.55954e-05
-1.05834e-11
0.00205279
-1.97941e-05
-1.1246e-11
0.00202378
-1.6219e-05
-1.09325e-11
0.00199848
-1.39979e-05
-1.09512e-11
0.00197618
-1.17441e-05
-1.07489e-11
0.00195665
-1.21751e-05
-1.11004e-11
0.00194054
-6.50033e-06
-1.09486e-11
0.0019244
-1.5016e-05
-1.10487e-11
0.00191426
5.86728e-06
-1.05933e-11
3.53754e-07
-1.08873e-11
0.00188708
0.00213601
-9.88544e-12
0.00189734
-9.98558e-12
0.00164205
-9.92549e-12
0.00141769
-1.04024e-11
0.0012367
-1.06038e-11
0.00110288
-1.03145e-11
0.00100727
-9.3577e-12
0.000943115
-9.42289e-12
0.000899553
-1.00333e-11
0.000870868
-1.10863e-11
0.000850412
-1.11731e-11
0.00083587
-1.11233e-11
0.000824599
-1.05051e-11
0.000815767
-1.04385e-11
0.000809153
-1.00687e-11
0.000802171
-1.03078e-11
0.000800865
-1.01531e-11
0.000790937
-1.06204e-11
0.000801943
-1.05394e-11
-1.12232e-11
0.00080756
0.00213601
0.00017006
-3.3791e-06
0.00189734
0.000246698
-5.22926e-06
0.00164205
0.000260632
-2.47813e-06
0.00141769
0.000231021
-4.04281e-06
0.0012367
0.000185648
-2.49676e-06
0.00110287
0.000139201
-3.7137e-06
0.00100727
9.97727e-05
-2.65141e-06
0.000943109
6.94964e-05
-3.45556e-06
0.000899545
4.86564e-05
-2.71765e-06
0.000870853
3.44496e-05
-3.21636e-06
0.00085039
2.56022e-05
-2.74809e-06
0.000835826
1.9817e-05
-3.04251e-06
0.000824542
1.62303e-05
-2.77599e-06
0.000815638
1.40702e-05
-2.92601e-06
0.000809011
1.1759e-05
-2.81452e-06
0.000801824
1.23757e-05
-2.85879e-06
0.000800477
6.54807e-06
-2.88134e-06
0.000790088
1.54767e-05
-2.8262e-06
0.000800794
-5.58786e-06
-2.92422e-06
2.12218e-07
-3.05779e-06
0.000805876
0.00235886
0.000122535
-8.66094e-06
0.00240765
0.000211199
-1.0536e-05
0.00241904
0.000260196
-8.03551e-06
0.00240004
0.000262196
-9.37175e-06
0.00235926
0.000236898
-7.95631e-06
0.00231034
0.000199326
-8.99157e-06
0.0022584
0.000161744
-8.09073e-06
0.00220922
0.000129178
-8.74799e-06
0.00216326
0.000104436
-8.15516e-06
0.00212225
8.56908e-05
-8.53374e-06
0.00208528
7.25791e-05
-8.17363e-06
0.00205274
6.26936e-05
-8.3647e-06
0.00202372
5.5569e-05
-8.18452e-06
0.00199835
4.99717e-05
-8.24726e-06
0.00197602
4.47076e-05
-8.20698e-06
0.0019563
4.27839e-05
-8.17345e-06
0.0019401
3.35608e-05
-8.25921e-06
0.00192352
4.27386e-05
-8.12668e-06
0.00191299
1.58054e-05
-8.3794e-06
3.93051e-05
-8.38793e-06
0.00188466
0.00234692
8.27019e-05
-4.42339e-06
0.00241913
0.000148203
-6.45834e-06
0.00249378
0.000192083
-3.60221e-06
0.00256221
0.000201991
-5.36764e-06
0.00261414
0.000191156
-3.61257e-06
0.00265153
0.000169261
-5.00301e-06
0.00267463
0.000144666
-3.86897e-06
0.00268825
0.00012234
-4.77899e-06
0.00269408
0.000104399
-4.01882e-06
0.00269535
9.05602e-05
-4.57834e-06
0.00269328
8.0202e-05
-4.09441e-06
0.00268941
7.24641e-05
-4.41637e-06
0.00268473
6.60513e-05
-4.1444e-06
0.0026792
6.16535e-05
-4.30352e-06
0.00267434
5.57932e-05
-4.19681e-06
0.00266835
5.52218e-05
-4.23748e-06
0.00266454
4.40469e-05
-4.26189e-06
0.00265865
5.54702e-05
-4.21676e-06
0.00265594
2.55485e-05
-4.25541e-06
5.51645e-05
-4.39145e-06
0.00264734
0.00233714
5.5761e-05
-7.53521e-06
0.00239961
9.79338e-05
-9.44888e-06
0.00247505
0.000126634
-7.05082e-06
0.00255433
0.000134023
-8.45372e-06
0.0026264
0.000128633
-6.98627e-06
0.00269007
0.000115948
-8.0379e-06
0.00274268
0.000101342
-7.10371e-06
0.00278702
8.78707e-05
-7.78212e-06
0.00282343
7.70492e-05
-7.17298e-06
0.00285443
6.87465e-05
-7.57103e-06
0.00288069
6.25289e-05
-7.19989e-06
0.00290385
5.80335e-05
-7.40475e-06
0.0029245
5.40526e-05
-7.21499e-06
0.00294332
5.17427e-05
-7.288e-06
0.00296056
4.75701e-05
-7.24076e-06
0.00297671
4.82375e-05
-7.21789e-06
0.00299083
3.93129e-05
-7.29289e-06
0.00300611
4.97424e-05
-7.19162e-06
0.0030155
2.62113e-05
-7.42445e-06
5.48917e-05
-7.42887e-06
0.00302615
0.00233771
2.62242e-05
-5.51454e-06
0.00239841
4.74758e-05
-7.48996e-06
0.00247056
6.23827e-05
-4.94611e-06
0.00254774
6.6193e-05
-6.4933e-06
0.00262016
6.36533e-05
-4.88271e-06
0.00268688
5.75946e-05
-6.06436e-06
0.00274489
5.05531e-05
-5.03637e-06
0.00279652
4.41636e-05
-5.816e-06
0.00284162
3.90007e-05
-5.14017e-06
0.00288245
3.51676e-05
-5.61282e-06
0.00291931
3.22353e-05
-5.19107e-06
0.00295379
3.02985e-05
-5.4503e-06
0.00298607
2.83643e-05
-5.22255e-06
0.00301711
2.76073e-05
-5.33668e-06
0.00304631
2.53469e-05
-5.26189e-06
0.00307532
2.63518e-05
-5.27304e-06
0.00310064
2.12697e-05
-5.31759e-06
0.0031301
2.77183e-05
-5.26299e-06
0.00314936
1.47558e-05
-5.34545e-06
3.09374e-05
-5.44491e-06
0.00318163
0.00233539
-1.74156e-10
-6.50743e-06
0.00239407
4.46634e-10
-8.44905e-06
0.00246543
-4.07709e-10
-6.03149e-06
0.00254197
1.12611e-09
-7.49058e-06
0.00261414
-4.34406e-10
-5.96171e-06
0.00268109
2.45964e-09
-7.058e-06
0.00273991
1.72249e-11
-6.08574e-06
0.00279298
5.334e-09
-6.80388e-06
0.00284007
2.05429e-09
-6.17077e-06
0.00288346
1.35673e-08
-6.59907e-06
0.00292327
7.06407e-09
-6.20923e-06
0.00296125
3.83198e-08
-6.43505e-06
0.00299718
1.7232e-08
-6.23043e-06
0.00303256
1.10964e-07
-6.31921e-06
0.00306583
4.6066e-08
-6.26171e-06
0.00309996
2.96327e-07
-6.25381e-06
0.00312932
1.6354e-07
-6.3159e-06
0.00316468
7.04424e-07
-6.2432e-06
0.0031876
6.49902e-07
-6.41087e-06
1.46462e-06
-6.45004e-06
0.00322633
0.00233539
-2.62246e-05
-6.50743e-06
0.00239407
-4.74749e-05
-8.44905e-06
0.00246543
-6.23835e-05