/*--------------------------------*- C++ -*----------------------------------*\
  =========                 |
  \\      /  F ield         | OpenFOAM: The Open Source CFD Toolbox
   \\    /   O peration     | Website:  https://openfoam.org
    \\  /    A nd           | Version:  7
     \\/     M anipulation  |
\*---------------------------------------------------------------------------*/
FoamFile
{
    version     2.0;
    format      ascii;
    class       volScalarField;
    location    "0.8175";
    object      k_0;
}
// * * * * * * * * * * * * * * * * * * * * * * * * * * * * * * * * * * * * * //

dimensions      [0 2 -2 0 0 0 0];

internalField   nonuniform List<scalar> 
4950
(
32.6492
37.0663
37.2395
37.3203
37.2948
37.3266
37.2892
37.298
37.2573
37.2579
37.2199
37.2179
37.1858
37.1858
37.1634
37.1656
37.1594
37.1485
37.1997
37.3895
9.03189
10.2533
10.1175
9.74743
9.47503
9.34119
9.24594
9.20242
9.15501
9.13267
9.09987
9.08423
9.05938
9.04854
9.03134
9.02324
9.02445
9.0056
9.18457
9.23133
5.70779
7.007
7.31252
7.39208
7.407
7.4312
7.4367
7.45059
7.45144
7.45766
7.45536
7.4571
7.45179
7.45024
7.44266
7.44116
7.43556
7.43479
7.43844
7.46591
5.45757
6.7236
7.07622
7.22055
7.28884
7.35117
7.38588
7.42598
7.44593
7.47365
7.48573
7.5054
7.51163
7.52344
7.5253
7.53121
7.53259
7.53592
7.54059
7.56485
5.42123
6.69566
7.04976
7.19994
7.27116
7.33822
7.37602
7.42123
7.4449
7.47817
7.49461
7.5201
7.5308
7.54817
7.5536
7.56432
7.56847
7.57598
7.58136
7.60827
5.45757
6.7236
7.07622
7.22055
7.28883
7.35117
7.38587
7.42598
7.44592
7.47366
7.48571
7.50543
7.5116
7.52349
7.52527
7.53131
7.53252
7.53607
7.54054
7.5651
5.70779
7.007
7.31252
7.39209
7.407
7.4312
7.4367
7.4506
7.45143
7.45767
7.45534
7.45713
7.45172
7.45032
7.4425
7.4414
7.4352
7.43544
7.43789
7.46696
9.03189
10.2533
10.1175
9.74743
9.47503
9.34119
9.24593
9.20243
9.15498
9.1327
9.0998
9.08429
9.05922
9.04868
9.03093
9.02347
9.02342
9.00728
9.17927
9.2348
32.6492
37.0663
37.2395
37.3203
37.2948
37.3266
37.2892
37.298
37.2573
37.2579
37.2198
37.218
37.1856
37.1862
37.1627
37.1671
37.1567
37.154
37.1885
37.4152
5.04539
7.29703
7.61774
7.5651
7.52513
7.45615
7.44013
7.39828
7.39073
7.36195
7.3574
7.33599
7.33333
7.31684
7.31621
7.302
7.30508
7.28704
7.28728
7.34529
3.75196
6.02295
6.53235
6.64318
6.67312
6.68766
6.6958
6.70201
6.70429
6.70558
6.7048
6.70372
6.7015
6.70054
6.69896
6.69946
6.69858
6.69944
6.70556
6.72322
3.56807
5.76893
6.28106
6.40864
6.43871
6.45648
6.46256
6.47215
6.47545
6.48181
6.48355
6.48668
6.48646
6.48679
6.48615
6.48619
6.48726
6.48797
6.48876
6.5175
3.57583
5.77441
6.28127
6.40749
6.4372
6.45246
6.45566
6.46058
6.4606
6.46219
6.46154
6.46152
6.45898
6.45621
6.45153
6.44787
6.44524
6.44268
6.44341
6.46304
3.55923
5.75056
6.2597
6.38846
6.41813
6.43406
6.43657
6.44127
6.44049
6.44173
6.44033
6.44001
6.43668
6.43357
6.42742
6.42305
6.41829
6.41472
6.41248
6.42936
3.57583
5.77441
6.28127
6.40749
6.4372
6.45247
6.45566
6.46058
6.4606
6.46219
6.46152
6.46153
6.45895
6.45627
6.45144
6.44798
6.44505
6.44278
6.44326
6.46303
3.56807
5.76893
6.28106
6.40865
6.4387
6.45649
6.46256
6.47216
6.47544
6.48183
6.48352
6.48671
6.48641
6.48688
6.48602
6.48645
6.48675
6.48872
6.48806
6.51789
3.75196
6.02295
6.53235
6.64318
6.67312
6.68767
6.69579
6.70202
6.70427
6.7056
6.70476
6.70377
6.70142
6.70064
6.69879
6.69977
6.69793
6.70052
6.70369
6.72612
5.04539
7.29703
7.61774
7.5651
7.52513
7.45615
7.44013
7.39828
7.39072
7.36196
7.35739
7.33602
7.33332
7.31692
7.31617
7.30222
7.30487
7.28798
7.28587
7.34929
0.288821
0.963099
1.21346
1.25337
1.23255
1.18706
1.14273
1.10631
1.07788
1.05422
1.03689
1.02091
1.00999
0.998348
0.991097
0.982336
0.976643
0.971533
0.961918
0.975637
0.0633376
0.361418
0.580578
0.685955
0.730715
0.753312
0.764477
0.774146
0.780859
0.787788
0.792695
0.797657
0.800983
0.804478
0.806815
0.809165
0.811307
0.812171
0.813944
0.819042
0.0541331
0.305698
0.487012
0.58513
0.624261
0.646596
0.653116
0.660024
0.661754
0.665581
0.667062
0.670292
0.67191
0.67506
0.677107
0.680086
0.682365
0.685391
0.686934
0.692799
0.0556925
0.313649
0.496323
0.591751
0.630373
0.650658
0.656851
0.661501
0.66209
0.663225
0.663127
0.663282
0.663107
0.663083
0.663073
0.663148
0.663653
0.663914
0.664747
0.668614
0.0539317
0.304653
0.482796
0.579185
0.616986
0.638511
0.643997
0.649281
0.649528
0.650504
0.650008
0.650097
0.649471
0.649285
0.648615
0.648468
0.648084
0.648085
0.647704
0.650628
0.0556925
0.313649
0.496323
0.591751
0.630373
0.650658
0.65685
0.661501
0.662089
0.663225
0.663127
0.663282
0.663106
0.663084
0.66307
0.663147
0.663645
0.663906
0.664731
0.668585
0.054133
0.305698
0.487011
0.58513
0.62426
0.646597
0.653115
0.660025
0.661754
0.665582
0.667061
0.670298
0.671896
0.675072
0.677083
0.680102
0.682312
0.685388
0.686897
0.692712
0.0633376
0.361418
0.580578
0.685956
0.730713
0.753314
0.764474
0.77415
0.780852
0.787796
0.79268
0.797674
0.800954
0.804505
0.806761
0.809209
0.811204
0.812211
0.813845
0.818944
0.288821
0.963099
1.21346
1.25337
1.23255
1.18707
1.14273
1.10632
1.07787
1.05423
1.03688
1.02093
1.00999
0.998402
0.991093
0.982464
0.976649
0.971828
0.961949
0.976398
5.04539
7.29703
7.61774
7.5651
7.52513
7.45615
7.44013
7.39828
7.39073
7.36195
7.3574
7.33599
7.33334
7.31685
7.31621
7.302
7.30508
7.28704
7.28728
7.34529
3.75196
6.02295
6.53235
6.64318
6.67312
6.68766
6.6958
6.70201
6.70429
6.70558
6.7048
6.70372
6.7015
6.70054
6.69896
6.69946
6.69858
6.69944
6.70556
6.72322
3.56807
5.76893
6.28106
6.40864
6.43871
6.45648
6.46256
6.47215
6.47545
6.48181
6.48355
6.48668
6.48646
6.48679
6.48615
6.48619
6.48726
6.48797
6.48876
6.5175
3.57583
5.77441
6.28127
6.40749
6.4372
6.45246
6.45566
6.46058
6.4606
6.46219
6.46154
6.46152
6.45898
6.45621
6.45153
6.44787
6.44524
6.44268
6.44341
6.46304
3.55923
5.75056
6.2597
6.38846
6.41813
6.43406
6.43657
6.44127
6.44049
6.44173
6.44033
6.44001
6.43668
6.43357
6.42742
6.42305
6.41829
6.41472
6.41248
6.42936
3.57583
5.77441
6.28127
6.40749
6.4372
6.45247
6.45566
6.46058
6.4606
6.46219
6.46152
6.46153
6.45895
6.45627
6.45144
6.44798
6.44505
6.44278
6.44326
6.46303
3.56807
5.76893
6.28106
6.40865
6.4387
6.45649
6.46256
6.47216
6.47544
6.48183
6.48352
6.48671
6.48641
6.48688
6.48602
6.48645
6.48675
6.48872
6.48806
6.51789
3.75196
6.02295
6.53235
6.64318
6.67312
6.68767
6.69579
6.70202
6.70427
6.7056
6.70476
6.70377
6.70142
6.70064
6.69879
6.69977
6.69793
6.70052
6.70369
6.72612
5.04539
7.29703
7.61774
7.5651
7.52513
7.45615
7.44013
7.39828
7.39072
7.36196
7.35739
7.33602
7.33332
7.31692
7.31617
7.30222
7.30487
7.28798
7.28587
7.34929
32.6492
37.0663
37.2395
37.3203
37.2948
37.3266
37.2892
37.298
37.2573
37.2579
37.2199
37.2179
37.1858
37.1858
37.1634
37.1656
37.1594
37.1485
37.1997
37.3895
9.03189
10.2533
10.1175
9.74743
9.47503
9.34119
9.24594
9.20242
9.15501
9.13267
9.09987
9.08423
9.05938
9.04854
9.03134
9.02324
9.02445
9.0056
9.18457
9.23133
5.70779
7.007
7.31252
7.39208
7.407
7.4312
7.4367
7.45059
7.45144
7.45766
7.45536
7.4571
7.4518
7.45024
7.44266
7.44116
7.43556
7.43479
7.43844
7.46591
5.45757
6.7236
7.07622
7.22055
7.28884
7.35117
7.38588
7.42598
7.44593
7.47365
7.48573
7.5054
7.51163
7.52344
7.5253
7.53121
7.53259
7.53592
7.54059
7.56485
5.42123
6.69566
7.04976
7.19994
7.27116
7.33822
7.37603
7.42123
7.4449
7.47817
7.49461
7.5201
7.5308
7.54817
7.5536
7.56432
7.56847
7.57598
7.58136
7.60827
5.45757
6.7236
7.07622
7.22055
7.28883
7.35117
7.38587
7.42598
7.44592
7.47366
7.48571
7.50543
7.5116
7.52349
7.52527
7.53131
7.53252
7.53607
7.54054
7.5651
5.70779
7.007
7.31252
7.39209
7.407
7.4312
7.4367
7.4506
7.45143
7.45767
7.45534
7.45713
7.45172
7.45032
7.4425
7.4414
7.4352
7.43544
7.43789
7.46696
9.03189
10.2533
10.1175
9.74743
9.47503
9.34119
9.24593
9.20243
9.15498
9.1327
9.0998
9.08429
9.05922
9.04868
9.03093
9.02347
9.02342
9.00728
9.17927
9.2348
32.6492
37.0663
37.2395
37.3203
37.2948
37.3266
37.2892
37.298
37.2573
37.2579
37.2198
37.218
37.1856
37.1862
37.1627
37.1671
37.1567
37.154
37.1885
37.4152
96.4499
98.0942
98.6009
98.9982
99.3127
99.6885
99.9874
100.269
100.441
100.584
100.647
100.705
100.717
100.739
100.734
100.744
100.735
100.741
100.732
100.737
100.729
100.734
100.726
100.73
100.724
100.727
100.722
100.725
100.72
100.724
100.719
100.723
100.719
100.723
100.72
100.724
100.722
100.726
100.724
100.728
100.726
100.73
100.729
100.733
100.733
100.737
100.736
100.74
100.739
100.742
100.742
100.745
100.744
100.747
100.747
100.75
100.749
100.751
100.75
100.753
100.752
100.754
100.753
100.755
100.754
100.756
100.754
100.756
100.755
100.756
100.754
100.755
100.753
100.754
100.752
100.753
100.751
100.751
100.748
100.748
100.746
100.745
100.743
100.741
100.739
100.734
100.736
100.728
100.697
100.671
32.7796
34.8395
35.0382
35.1857
35.2618
35.3987
35.4783
35.5863
35.627
35.6851
35.69
35.7154
35.7041
35.7155
35.699
35.7053
35.6884
35.6928
35.6769
35.6804
35.6657
35.6687
35.6551
35.6577
35.6451
35.6475
35.6359
35.6381
35.6275
35.6297
35.62
35.6222
35.6134
35.6158
35.6079
35.6105
35.6035
35.6062
35.6001
35.6031
35.5977
35.6009
35.5963
35.5996
35.5957
35.5992
35.5958
35.5994
35.5965
35.6002
35.5978
35.6015
35.5995
35.6032
35.6015
35.6052
35.6038
35.6075
35.6064
35.6101
35.6091
35.6128
35.6121
35.6157
35.6152
35.6188
35.6183
35.6218
35.6214
35.6248
35.6245
35.6278
35.6274
35.6306
35.6302
35.6333
35.6328
35.6357
35.6352
35.638
35.6374
35.6399
35.6393
35.6413
35.641
35.642
35.6423
35.6433
35.6307
35.6292
23.0476
25.5532
25.756
25.8579
25.8669
25.9442
25.9747
26.0565
26.074
26.1241
26.1176
26.1399
26.1199
26.129
26.104
26.1078
26.0824
26.0842
26.06
26.061
26.0383
26.0388
26.0175
26.0176
25.9977
25.9977
25.979
25.9789
25.9615
25.9614
25.9452
25.9452
25.9303
25.9305
25.9167
25.9172
25.9046
25.9053
25.8938
25.8949
25.8844
25.8857
25.8763
25.8779
25.8694
25.8711
25.8634
25.8654
25.8585
25.8606
25.8543
25.8566
25.851
25.8534
25.8484
25.8509
25.8464
25.849
25.8451
25.8478
25.8443
25.8472
25.8442
25.8472
25.8446
25.8476
25.8454
25.8485
25.8466
25.8498
25.8481
25.8514
25.85
25.8532
25.852
25.8554
25.8543
25.8577
25.8568
25.8602
25.8594
25.8628
25.8622
25.8653
25.8651
25.8678
25.868
25.8704
25.8703
25.8537
21.9502
24.9366
25.2238
25.3197
25.2964
25.3429
25.3494
25.4191
25.4326
25.4843
25.4766
25.5006
25.4778
25.4869
25.4578
25.4603
25.4303
25.4305
25.4016
25.401
25.3737
25.3727
25.347
25.3458
25.3217
25.3203
25.2977
25.2964
25.2753
25.274
25.2544
25.2533
25.2351
25.2344
25.2176
25.2172
25.2018
25.2017
25.1877
25.188
25.1752
25.1759
25.1643
25.1653
25.1548
25.1561
25.1465
25.1481
25.1394
25.1412
25.1334
25.1354
25.1283
25.1305
25.1241
25.1264
25.1208
25.1233
25.1183
25.1209
25.1165
25.1193
25.1155
25.1185
25.1152
25.1184
25.1155
25.1188
25.1164
25.1198
25.1177
25.1212
25.1195
25.1231
25.1217
25.1254
25.1243
25.1281
25.1272
25.1312
25.1305
25.1344
25.134
25.1379
25.1378
25.1416
25.1417
25.1455
25.1463
25.1299
21.9225
24.9556
25.2489
25.3328
25.2877
25.3131
25.3003
25.3577
25.3646
25.4132
25.4037
25.4277
25.4037
25.4127
25.3823
25.3845
25.3531
25.3528
25.3224
25.3213
25.2926
25.2912
25.2641
25.2625
25.237
25.2353
25.2115
25.2097
25.1875
25.1859
25.1651
25.1638
25.1446
25.1436
25.1258
25.1252
25.1089
25.1087
25.0938
25.094
25.0805
25.081
25.0688
25.0697
25.0586
25.0598
25.0497
25.0512
25.0421
25.0439
25.0356
25.0376
25.0301
25.0323
25.0256
25.0279
25.022
25.0245
25.0192
25.022
25.0173
25.0203
25.0162
25.0194
25.0159
25.0192
25.0162
25.0196
25.0171
25.0207
25.0185
25.0222
25.0205
25.0243
25.0228
25.0268
25.0257
25.0297
25.0289
25.033
25.0324
25.0367
25.0363
25.0405
25.0404
25.0447
25.0447
25.0489
25.0531
25.034
21.9477
24.9042
25.1568
25.2134
25.1561
25.1688
25.1464
25.1923
25.1915
25.2316
25.2192
25.24
25.2157
25.2239
25.1946
25.1969
25.167
25.1671
25.1383
25.1377
25.1105
25.1094
25.0838
25.0826
25.0586
25.0572
25.0347
25.0333
25.0122
25.011
24.9914
24.9903
24.9722
24.9714
24.9547
24.9542
24.9388
24.9388
24.9247
24.925
24.9123
24.9129
24.9013
24.9023
24.8918
24.8931
24.8835
24.885
24.8764
24.8781
24.8703
24.8722
24.8651
24.8672
24.8609
24.8632
24.8575
24.8599
24.8549
24.8575
24.8531
24.8559
24.852
24.855
24.8516
24.8547
24.8518
24.8551
24.8526
24.856
24.8539
24.8574
24.8556
24.8592
24.8577
24.8614
24.8602
24.8641
24.8631
24.867
24.8663
24.8703
24.8698
24.8738
24.8735
24.8775
24.8773
24.8813
24.8823
24.8667
23.0119
25.4208
25.5447
25.5685
25.51
25.5208
25.4974
25.5336
25.5259
25.5562
25.5409
25.5574
25.5347
25.5423
25.5168
25.5202
25.4949
25.4966
25.4725
25.4734
25.4508
25.4512
25.4301
25.4302
25.4103
25.4103
25.3917
25.3915
25.3742
25.3741
25.358
25.358
25.3431
25.3433
25.3295
25.33
25.3174
25.3181
25.3066
25.3076
25.2972
25.2984
25.289
25.2905
25.2819
25.2836
25.2759
25.2778
25.2708
25.2729
25.2666
25.2688
25.2631
25.2654
25.2604
25.2628
25.2583
25.2608
25.2568
25.2595
25.256
25.2587
25.2557
25.2586
25.256
25.259
25.2567
25.2598
25.2578
25.2609
25.2592
25.2624
25.261
25.2642
25.263
25.2663
25.2652
25.2686
25.2677
25.271
25.2703
25.2736
25.273
25.2763
25.2757
25.279
25.2784
25.2817
25.282
25.2666
32.5687
34.3772
34.4164
34.4278
34.3799
34.3946
34.3783
34.4097
34.4032
34.428
34.4163
34.4311
34.4151
34.4237
34.4063
34.4119
34.395
34.3992
34.3834
34.3869
34.3723
34.3753
34.3619
34.3645
34.3521
34.3545
34.343
34.3453
34.3348
34.3371
34.3276
34.3299
34.3212
34.3237
34.316
34.3186
34.3117
34.3146
34.3086
34.3116
34.3064
34.3097
34.3052
34.3086
34.3048
34.3084
34.3051
34.3089
34.3061
34.3099
34.3076
34.3115
34.3096
34.3134
34.3119
34.3158
34.3145
34.3184
34.3174
34.3213
34.3206
34.3245
34.3239
34.3278
34.3274
34.3312
34.331
34.3348
34.3346
34.3383
34.3382
34.3417
34.3417
34.3451
34.345
34.3484
34.3483
34.3515
34.3513
34.3544
34.3542
34.3571
34.3567
34.3594
34.3589
34.3614
34.3604
34.3638
34.3508
34.3509
95.4566
96.2983
96.335
96.3444
96.2935
96.3132
96.3147
96.3649
96.3815
96.4215
96.4264
96.4493
96.4448
96.4573
96.4488
96.4566
96.4474
96.4533
96.4448
96.4499
96.4423
96.447
96.4403
96.4446
96.4388
96.443
96.4379
96.4421
96.4378
96.4421
96.4386
96.443
96.4402
96.4448
96.4427
96.4475
96.4461
96.4511
96.4502
96.4554
96.4551
96.4603
96.4604
96.4657
96.4661
96.4714
96.4719
96.4771
96.4778
96.4828
96.4835
96.4884
96.4891
96.4937
96.4945
96.4989
96.4996
96.5039
96.5046
96.5087
96.5094
96.5133
96.514
96.5177
96.5183
96.5219
96.5224
96.5258
96.5262
96.5294
96.5296
96.5325
96.5326
96.5352
96.5351
96.5376
96.5373
96.5396
96.5391
96.5411
96.5404
96.5421
96.5412
96.5424
96.5412
96.542
96.54
96.5414
96.5099
96.4878
23.0685
23.8976
24.0327
24.1213
24.2048
24.2933
24.3646
24.4283
24.4639
24.4953
24.5043
24.5177
24.5148
24.5208
24.5141
24.5179
24.5103
24.5135
24.506
24.5091
24.5019
24.5049
24.4982
24.501
24.4948
24.4977
24.492
24.4949
24.4898
24.4928
24.4883
24.4914
24.4875
24.4907
24.4875
24.4909
24.4883
24.4919
24.4898
24.4937
24.4921
24.4961
24.495
24.4991
24.4984
24.5025
24.5022
24.5063
24.5062
24.5104
24.5105
24.5146
24.5148
24.5188
24.5192
24.5232
24.5236
24.5275
24.528
24.5318
24.5324
24.5361
24.5367
24.5404
24.541
24.5445
24.5452
24.5486
24.5491
24.5524
24.5529
24.556
24.5565
24.5595
24.5598
24.5627
24.563
24.5657
24.5659
24.5686
24.5687
24.5713
24.5713
24.5737
24.574
24.576
24.5769
24.5794
24.5753
24.579
21.0193
22.6313
22.8062
22.8912
22.961
23.0421
23.1102
23.1742
23.2135
23.2461
23.2589
23.2714
23.2714
23.275
23.2705
23.2712
23.2654
23.2652
23.2591
23.2586
23.2525
23.2518
23.2459
23.245
23.2391
23.2381
23.2324
23.2312
23.2257
23.2244
23.219
23.2176
23.2124
23.2109
23.2059
23.2044
23.1996
23.1981
23.1935
23.192
23.1876
23.1862
23.182
23.1807
23.1767
23.1755
23.1718
23.1706
23.1671
23.166
23.1628
23.1617
23.1587
23.1578
23.1549
23.1541
23.1514
23.1506
23.1482
23.1475
23.1452
23.1445
23.1424
23.1419
23.14
23.1395
23.1377
23.1373
23.1357
23.1354
23.1339
23.1337
23.1323
23.1322
23.1309
23.1309
23.1297
23.1298
23.1287
23.1288
23.1279
23.1281
23.1273
23.1274
23.127
23.1268
23.127
23.1263
23.1274
23.1259
19.0627
21.2944
21.5537
21.6317
21.6791
21.7386
21.7993
21.8619
21.9085
21.9457
21.9665
21.9816
21.9869
21.9912
21.9902
21.9905
21.9876
21.9866
21.9832
21.982
21.9784
21.9771
21.9736
21.9722
21.9687
21.9672
21.9637
21.9622
21.9587
21.9571
21.9536
21.952
21.9486
21.9469
21.9435
21.9418
21.9385
21.9368
21.9336
21.9319
21.9288
21.9271
21.9241
21.9225
21.9196
21.918
21.9152
21.9136
21.911
21.9094
21.9069
21.9054
21.903
21.9015
21.8992
21.8979
21.8956
21.8943
21.8922
21.891
21.889
21.8878
21.8859
21.8848
21.883
21.8819
21.8803
21.8793
21.8778
21.8769
21.8754
21.8746
21.8733
21.8725
21.8713
21.8706
21.8695
21.8689
21.8678
21.8674
21.8664
21.8659
21.8651
21.8646
21.8641
21.8633
21.8631
21.8625
21.8625
21.849
18.5126
20.9271
21.2182
21.2811
21.302
21.3362
21.3828
21.4406
21.4899
21.5313
21.5575
21.5765
21.5854
21.5918
21.5928
21.594
21.5925
21.5921
21.5899
21.5891
21.5867
21.5859
21.5835
21.5825
21.5801
21.5791
21.5767
21.5756
21.5732
21.5721
21.5696
21.5685
21.5661
21.5649
21.5625
21.5613
21.559
21.5578
21.5555
21.5543
21.552
21.5508
21.5487
21.5475
21.5455
21.5443
21.5423
21.5412
21.5393
21.5382
21.5364
21.5353
21.5336
21.5326
21.5309
21.5299
21.5283
21.5273
21.5258
21.5249
21.5234
21.5226
21.5212
21.5203
21.519
21.5182
21.517
21.5162
21.5151
21.5144
21.5133
21.5126
21.5116
21.511
21.51
21.5095
21.5085
21.508
21.5071
21.5067
21.5059
21.5054
21.5048
21.5042
21.5037
21.503
21.5025
21.5022
21.5007
21.4905
18.1663
20.7056
21.0054
21.0514
21.0518
21.063
21.0936
21.1416
21.1859
21.2252
21.2511
21.2702
21.2797
21.2865
21.2879
21.2894
21.2881
21.2878
21.2858
21.2852
21.2829
21.2822
21.2799
21.2791
21.2769
21.276
21.2738
21.2728
21.2706
21.2696
21.2674
21.2663
21.2641
21.2631
21.2609
21.2598
21.2576
21.2566
21.2544
21.2534
21.2513
21.2502
21.2482
21.2472
21.2453
21.2443
21.2425
21.2415
21.2397
21.2388
21.2371
21.2362
21.2345
21.2336
21.2321
21.2312
21.2297
21.2289
21.2275
21.2267
21.2253
21.2245
21.2232
21.2225
21.2213
21.2206
21.2194
21.2188
21.2177
21.217
21.216
21.2154
21.2144
21.2139
21.213
21.2125
21.2116
21.2111
21.2103
21.2099
21.2091
21.2087
21.2079
21.2074
21.2069
21.2063
21.2056
21.2052
21.2052
21.1905
18.5086
20.894
21.1524
21.1808
21.1702
21.172
21.1905
21.2285
21.2637
21.296
21.3169
21.3329
21.3403
21.346
21.3467
21.3478
21.3462
21.3458
21.3436
21.3428
21.3404
21.3396
21.3372
21.3363
21.3339
21.3329
21.3305
21.3294
21.327
21.3259
21.3235
21.3224
21.32
21.3188
21.3165
21.3153
21.313
21.3118
21.3095
21.3083
21.3061
21.3049
21.3028
21.3017
21.2996
21.2985
21.2965
21.2954
21.2935
21.2925
21.2906
21.2896
21.2879
21.2869
21.2852
21.2842
21.2826
21.2817
21.2802
21.2792
21.2778
21.2769
21.2755
21.2747
21.2734
21.2726
21.2714
21.2706
21.2695
21.2688
21.2677
21.267
21.266
21.2654
21.2644
21.2638
21.2629
21.2624
21.2615
21.2611
21.2602
21.2598
21.2591
21.2586
21.258
21.2575
21.2567
21.2566
21.2553
21.2452
19.0351
21.1856
21.3748
21.3861
21.3725
21.3728
21.3847
21.4112
21.4336
21.4551
21.4671
21.4773
21.4802
21.4833
21.4819
21.4819
21.479
21.478
21.4746
21.4734
21.4699
21.4687
21.4652
21.4638
21.4603
21.4589
21.4555
21.454
21.4506
21.449
21.4457
21.4441
21.4407
21.4391
21.4358
21.4342
21.431
21.4293
21.4262
21.4245
21.4215
21.4199
21.4169
21.4154
21.4125
21.411
21.4083
21.4067
21.4041
21.4027
21.4002
21.3987
21.3964
21.395
21.3927
21.3914
21.3892
21.388
21.3859
21.3847
21.3827
21.3816
21.3797
21.3786
21.3769
21.3759
21.3743
21.3733
21.3718
21.371
21.3695
21.3688
21.3674
21.3667
21.3655
21.3649
21.3638
21.3632
21.3622
21.3617
21.3608
21.3604
21.3595
21.3592
21.3584
21.3582
21.3572
21.3574
21.3575
21.3444
20.9036
22.3586
22.4298
22.4261
22.4123
22.4147
22.4199
22.4361
22.4443
22.4569
22.4588
22.4647
22.4619
22.4639
22.4588
22.4592
22.4534
22.4531
22.4471
22.4466
22.4407
22.4401
22.4342
22.4334
22.4277
22.4268
22.4212
22.4201
22.4147
22.4135
22.4082
22.407
22.4019
22.4005
22.3956
22.3943
22.3896
22.3882
22.3837
22.3824
22.3781
22.3768
22.3728
22.3716
22.3677
22.3666
22.363
22.362
22.3586
22.3576
22.3545
22.3536
22.3507
22.3499
22.3472
22.3464
22.3439
22.3432
22.3409
22.3403
22.3382
22.3377
22.3357
22.3353
22.3335
22.3332
22.3315
22.3313
22.3298
22.3297
22.3283
22.3283
22.327
22.327
22.3259
22.326
22.3251
22.3253
22.3244
22.3247
22.3239
22.3243
22.3236
22.3241
22.3235
22.3242
22.3236
22.3243
22.3248
22.3237
22.8003
23.4263
23.4463
23.4396
23.4317
23.433
23.4325
23.4412
23.4405
23.4482
23.444
23.4493
23.4428
23.4468
23.4394
23.4427
23.4352
23.4383
23.431
23.434
23.4271
23.4301
23.4235
23.4265
23.4205
23.4234
23.4179
23.4209
23.4159
23.419
23.4147
23.4179
23.4142
23.4175
23.4144
23.418
23.4155
23.4192
23.4173
23.4212
23.4199
23.424
23.423
23.4273
23.4268
23.4311
23.4309
23.4352
23.4353
23.4397
23.44
23.4443
23.4447
23.449
23.4496
23.4538
23.4545
23.4586
23.4595
23.4635
23.4644
23.4684
23.4694
23.4733
23.4743
23.4781
23.4791
23.4828
23.4838
23.4874
23.4883
23.4917
23.4926
23.4959
23.4967
23.4999
23.5006
23.5038
23.5044
23.5075
23.508
23.5111
23.5115
23.5146
23.5149
23.5182
23.5182
23.523
23.5181
23.5229
4.61867
4.98539
5.02145
5.0346
5.05442
5.07216
5.08669
5.10049
5.10546
5.11395
5.1125
5.11799
5.11335
5.11767
5.11145
5.11528
5.10831
5.11182
5.10451
5.10773
5.10033
5.10325
5.09592
5.09859
5.09145
5.0939
5.08705
5.08934
5.08285
5.08504
5.07897
5.08111
5.0755
5.07764
5.07251
5.07468
5.07005
5.07229
5.06816
5.07048
5.06682
5.06922
5.06601
5.06849
5.06569
5.06824
5.06582
5.06841
5.06633
5.06897
5.06719
5.06985
5.06835
5.07103
5.06978
5.07248
5.07147
5.07418
5.07338
5.07611
5.07551
5.07826
5.07783
5.08059
5.0803
5.08308
5.08291
5.08568
5.08561
5.08838
5.08837
5.09114
5.09118
5.09395
5.09403
5.09682
5.09691
5.09973
5.09983
5.10266
5.10275
5.1056
5.10566
5.10848
5.10854
5.11118
5.11127
5.11394
5.11248
5.11501
4.2811
5.19975
5.30761
5.33267
5.35052
5.36933
5.38416
5.3979
5.40464
5.41115
5.41165
5.41361
5.41132
5.41144
5.40801
5.40747
5.40355
5.40281
5.39874
5.39787
5.39375
5.39279
5.38866
5.3876
5.38352
5.38238
5.37834
5.37714
5.37318
5.37192
5.36804
5.36674
5.36297
5.36164
5.35798
5.35663
5.35308
5.35174
5.34832
5.34698
5.34369
5.34237
5.33921
5.33793
5.33491
5.33366
5.33079
5.32959
5.32685
5.3257
5.32312
5.32202
5.31958
5.31855
5.31626
5.31528
5.31314
5.31223
5.31023
5.3094
5.30754
5.30679
5.30508
5.30441
5.30284
5.30225
5.30082
5.30033
5.29904
5.29863
5.29749
5.29718
5.29617
5.29596
5.29509
5.29498
5.29424
5.29424
5.29364
5.29374
5.29328
5.2935
5.29316
5.29347
5.29329
5.29359
5.29368
5.29373
5.2942
5.29527
3.48845
4.68287
4.87562
4.91615
4.93241
4.94885
4.96372
4.97848
4.98864
4.99682
5.00096
5.00416
5.00492
5.00575
5.00524
5.00511
5.00423
5.00383
5.0028
5.00233
5.00127
5.00076
4.99968
4.99915
4.99807
4.99752
4.99644
4.99587
4.9948
4.99422
4.99316
4.99257
4.99154
4.99094
4.98993
4.98933
4.98834
4.98775
4.98679
4.9862
4.98527
4.9847
4.9838
4.98324
4.98238
4.98184
4.98101
4.98049
4.9797
4.97919
4.97844
4.97796
4.97725
4.97679
4.97612
4.97569
4.97506
4.97465
4.97406
4.97368
4.97313
4.97278
4.97227
4.97196
4.97149
4.97121
4.97079
4.97054
4.97016
4.96995
4.96962
4.96944
4.96915
4.96902
4.96877
4.96867
4.96848
4.96842
4.96827
4.96825
4.96815
4.96816
4.96812
4.96814
4.96819
4.96818
4.96831
4.96843
4.96864
4.96661
3.20639
4.4544
4.68106
4.72042
4.73195
4.74025
4.75308
4.76509
4.77676
4.7845
4.79054
4.79357
4.79575
4.79635
4.79679
4.79654
4.79639
4.79596
4.79566
4.79524
4.79492
4.79455
4.79422
4.7939
4.79357
4.79329
4.79296
4.7927
4.79237
4.79214
4.79182
4.7916
4.79129
4.79108
4.79078
4.79058
4.79028
4.79009
4.78981
4.78963
4.78936
4.78919
4.78893
4.78876
4.78852
4.78836
4.78813
4.78798
4.78776
4.78762
4.78741
4.78728
4.78708
4.78696
4.78677
4.78666
4.78648
4.78637
4.78621
4.7861
4.78595
4.78586
4.78572
4.78564
4.78551
4.78544
4.78533
4.78526
4.78517
4.78511
4.78503
4.78499
4.78492
4.78489
4.78484
4.78481
4.78478
4.78477
4.78475
4.78475
4.78474
4.78473
4.78474
4.78471
4.78473
4.78467
4.7846
4.78456
4.78407
4.78235
3.0643
4.3288
4.56068
4.59795
4.6028
4.60677
4.61499
4.62585
4.63571
4.64388
4.64939
4.65322
4.65523
4.65655
4.65691
4.65715
4.65699
4.6569
4.6566
4.65646
4.65611
4.65597
4.65563
4.65548
4.65514
4.65499
4.65464
4.65449
4.65415
4.654
4.65366
4.6535
4.65316
4.653
4.65267
4.65251
4.65218
4.65202
4.6517
4.65154
4.65122
4.65106
4.65076
4.65061
4.65031
4.65016
4.64987
4.64973
4.64945
4.64931
4.64905
4.64891
4.64866
4.64852
4.64828
4.64815
4.64791
4.64779
4.64757
4.64744
4.64723
4.64712
4.64691
4.6468
4.64661
4.64651
4.64633
4.64624
4.64607
4.64598
4.64583
4.64575
4.6456
4.64553
4.64539
4.64533
4.6452
4.64515
4.64503
4.64498
4.64488
4.64483
4.64474
4.64467
4.64461
4.64453
4.64441
4.64437
4.6443
4.64205
3.20572
4.4489
4.6691
4.70086
4.70509
4.70617
4.7124
4.72019
4.72876
4.73454
4.73942
4.74183
4.74369
4.74415
4.74452
4.74424
4.74408
4.74365
4.74334
4.74292
4.74259
4.74223
4.74189
4.74158
4.74123
4.74096
4.74061
4.74036
4.74003
4.7398
4.73947
4.73925
4.73893
4.73873
4.73842
4.73822
4.73792
4.73774
4.73745
4.73727
4.73699
4.73682
4.73656
4.7364
4.73614
4.73599
4.73575
4.73561
4.73538
4.73525
4.73503
4.7349
4.7347
4.73458
4.73439
4.73427
4.73409
4.73399
4.73382
4.73372
4.73356
4.73347
4.73333
4.73325
4.73312
4.73304
4.73293
4.73287
4.73277
4.73271
4.73263
4.73259
4.73252
4.73249
4.73244
4.73241
4.73238
4.73236
4.73234
4.73234
4.73232
4.73233
4.73232
4.73231
4.73229
4.73229
4.73216
4.73216
4.7317
4.7299
3.48473
4.6648
4.8431
4.86851
4.87056
4.87351
4.87779
4.88474
4.88976
4.89469
4.89703
4.89927
4.89958
4.90019
4.89963
4.89948
4.8986
4.89822
4.89722
4.89677
4.89573
4.89525
4.8942
4.89369
4.89264
4.89211
4.89105
4.89051
4.88947
4.88891
4.88788
4.88731
4.8863
4.88573
4.88474
4.88417
4.88321
4.88264
4.8817
4.88114
4.88024
4.87969
4.87881
4.87828
4.87744
4.87692
4.87612
4.87562
4.87485
4.87437
4.87364
4.87318
4.87249
4.87205
4.8714
4.87099
4.87037
4.86999
4.86941
4.86905
4.86851
4.86818
4.86769
4.86739
4.86694
4.86667
4.86626
4.86603
4.86566
4.86546
4.86514
4.86498
4.8647
4.86457
4.86434
4.86425
4.86406
4.86401
4.86386
4.86386
4.86375
4.86379
4.86373
4.86379
4.86378
4.86389
4.86387
4.86413
4.86431
4.86227
4.26462
5.15304
5.23741
5.24128
5.23972
5.24071
5.24216
5.24605
5.24671
5.24914
5.24781
5.24861
5.24588
5.24577
5.24228
5.24175
5.23788
5.23718
5.23317
5.23235
5.2283
5.22738
5.22332
5.22231
5.21829
5.21719
5.21323
5.21207
5.20818
5.20696
5.20316
5.2019
5.19819
5.19691
5.19331
5.19201
5.18853
5.18723
5.18387
5.18258
5.17935
5.17807
5.17498
5.17373
5.17077
5.16957
5.16675
5.16558
5.1629
5.16179
5.15925
5.1582
5.1558
5.1548
5.15255
5.15161
5.1495
5.14863
5.14666
5.14586
5.14404
5.14331
5.14163
5.14098
5.13944
5.13888
5.13747
5.137
5.13573
5.13535
5.13422
5.13393
5.13294
5.13275
5.13189
5.1318
5.13108
5.13109
5.1305
5.13062
5.13017
5.1304
5.13006
5.13042
5.13018
5.13065
5.1305
5.13085
5.13119
5.13227
4.57151
4.89785
4.91076
4.9045
4.90551
4.90649
4.90801
4.91219
4.91135
4.91582
4.9125
4.91674
4.91162
4.91558
4.90933
4.91302
4.90612
4.90954
4.90232
4.90546
4.89814
4.90099
4.89374
4.89633
4.88926
4.89164
4.88485
4.88707
4.88063
4.88274
4.87671
4.87876
4.87318
4.87522
4.87011
4.87219
4.86756
4.86969
4.86554
4.86775
4.86407
4.86635
4.86311
4.86547
4.86262
4.86505
4.86257
4.86504
4.86291
4.86541
4.86358
4.86611
4.86455
4.86711
4.8658
4.86838
4.8673
4.8699
4.86904
4.87165
4.87099
4.87363
4.87314
4.8758
4.87546
4.87813
4.87792
4.88059
4.88047
4.88315
4.88311
4.88579
4.8858
4.8885
4.88856
4.89128
4.89136
4.89411
4.8942
4.89699
4.89707
4.89988
4.89994
4.90275
4.90275
4.90552
4.90536
4.90844
4.90662
4.90993
23.0685
23.8976
24.0327
24.1214
24.2048
24.2933
24.3646
24.4283
24.4639
24.4953
24.5043
24.5177
24.5148
24.5208
24.5141
24.5179
24.5103
24.5135
24.506
24.5091
24.5019
24.5049
24.4982
24.501
24.4948
24.4977
24.492
24.4949
24.4898
24.4928
24.4883
24.4914
24.4875
24.4907
24.4875
24.4909
24.4883
24.4919
24.4898
24.4937
24.4921
24.4961
24.495
24.4991
24.4984
24.5025
24.5022
24.5064
24.5062
24.5104
24.5105
24.5146
24.5148
24.5188
24.5192
24.5232
24.5236
24.5275
24.528
24.5318
24.5324
24.5361
24.5367
24.5404
24.541
24.5445
24.5452
24.5486
24.5492
24.5524
24.5529
24.556
24.5565
24.5595
24.5598
24.5627
24.563
24.5657
24.5659
24.5686
24.5687
24.5713
24.5713
24.5737
24.574
24.576
24.5769
24.5794
24.5754
24.579
21.0193
22.6313
22.8062
22.8912
22.961
23.0421
23.1102
23.1742
23.2135
23.2461
23.2589
23.2714
23.2714
23.275
23.2705
23.2712
23.2654
23.2652
23.2591
23.2586
23.2525
23.2518
23.2459
23.245
23.2391
23.2381
23.2324
23.2312
23.2257
23.2244
23.219
23.2176
23.2124
23.2109
23.2059
23.2044
23.1996
23.1981
23.1935
23.192
23.1876
23.1862
23.182
23.1807
23.1767
23.1755
23.1718
23.1706
23.1671
23.166
23.1628
23.1617
23.1587
23.1578
23.1549
23.1541
23.1514
23.1506
23.1482
23.1475
23.1452
23.1445
23.1424
23.1419
23.14
23.1395
23.1377
23.1373
23.1357
23.1354
23.1339
23.1337
23.1323
23.1322
23.1309
23.1309
23.1297
23.1298
23.1287
23.1288
23.1279
23.1281
23.1273
23.1274
23.127
23.1268
23.127
23.1263
23.1274
23.1259
19.0627
21.2944
21.5537
21.6317
21.6791
21.7386
21.7993
21.8619
21.9085
21.9457
21.9665
21.9816
21.9869
21.9912
21.9902
21.9904
21.9876
21.9866
21.9832
21.982
21.9784
21.9771
21.9736
21.9722
21.9687
21.9672
21.9637
21.9622
21.9587
21.9571
21.9536
21.952
21.9486
21.9469
21.9435
21.9418
21.9385
21.9368
21.9336
21.9319
21.9288
21.9271
21.9241
21.9225
21.9196
21.918
21.9152
21.9136
21.911
21.9094
21.9069
21.9054
21.903
21.9015
21.8992
21.8978
21.8956
21.8943
21.8922
21.891
21.889
21.8878
21.8859
21.8848
21.883
21.8819
21.8803
21.8793
21.8778
21.8769
21.8754
21.8746
21.8733
21.8725
21.8713
21.8706
21.8695
21.8689
21.8678
21.8674
21.8664
21.8659
21.8651
21.8646
21.8641
21.8633
21.8631
21.8625
21.8625
21.849
18.5126
20.9271
21.2182
21.2811
21.302
21.3362
21.3828
21.4406
21.4899
21.5313
21.5575
21.5765
21.5854
21.5918
21.5928
21.594
21.5925
21.5921
21.5899
21.5891
21.5867
21.5859
21.5835
21.5825
21.5801
21.5791
21.5767
21.5756
21.5732
21.5721
21.5696
21.5685
21.5661
21.5649
21.5625
21.5613
21.559
21.5578
21.5555
21.5543
21.552
21.5508
21.5487
21.5475
21.5454
21.5443
21.5423
21.5412
21.5393
21.5382
21.5364
21.5353
21.5336
21.5326
21.5309
21.5299
21.5283
21.5273
21.5258
21.5249
21.5234
21.5226
21.5212
21.5203
21.519
21.5182
21.517
21.5162
21.5151
21.5144
21.5133
21.5126
21.5116
21.511
21.51
21.5095
21.5085
21.508
21.5071
21.5067
21.5059
21.5054
21.5048
21.5042
21.5037
21.503
21.5025
21.5022
21.5007
21.4905
18.1663
20.7056
21.0054