/*--------------------------------*- C++ -*----------------------------------*\
  =========                 |
  \\      /  F ield         | OpenFOAM: The Open Source CFD Toolbox
   \\    /   O peration     | Website:  https://openfoam.org
    \\  /    A nd           | Version:  7
     \\/     M anipulation  |
\*---------------------------------------------------------------------------*/
FoamFile
{
    version     2.0;
    format      ascii;
    class       volScalarField;
    location    "2.92";
    object      rho_0;
}
// * * * * * * * * * * * * * * * * * * * * * * * * * * * * * * * * * * * * * //

dimensions      [1 -3 0 0 0 0 0];

internalField   nonuniform List<scalar> 
5760
(
1.22103
1.20398
1.19151
1.18171
1.17307
1.16537
1.15856
1.15239
1.14664
1.14124
1.13614
1.13133
1.12676
1.12241
1.11826
1.11427
1.11045
1.10677
1.10322
1.09979
1.09648
1.09327
1.09015
1.08713
1.08419
1.08134
1.07856
1.07585
1.07321
1.07064
1.06812
1.06567
1.06327
1.06093
1.05863
1.05639
1.05419
1.05203
1.04992
1.04785
1.04581
1.04382
1.04186
1.03994
1.03805
1.03619
1.03437
1.03258
1.03081
1.02908
1.02737
1.02569
1.02404
1.02241
1.02081
1.01923
1.01768
1.01614
1.01463
1.01315
1.01168
1.01023
1.00881
1.0074
1.00602
1.00465
1.00331
1.00198
1.00067
0.999383
0.998113
0.996863
0.995631
0.994418
0.993224
0.992049
0.990893
0.989757
0.98864
0.987542
0.986464
0.985406
0.984368
0.983351
0.982353
0.981376
0.98042
0.979484
0.978569
0.977674
0.9768
0.975947
0.975114
0.974302
0.97351
0.972738
0.971987
0.971255
0.970544
0.969852
0.969179
0.968526
0.967892
0.967277
0.96668
0.966102
0.965542
0.964999
0.964474
0.963966
0.963474
0.962999
0.96254
0.962097
0.961669
0.961256
0.960857
0.960473
0.960102
0.959745
0.9594
0.959069
0.95875
0.958444
0.958149
0.957866
0.957593
0.957332
0.957081
0.956841
0.95661
0.95639
0.956178
0.955975
0.955781
0.955596
0.955418
0.955249
0.955087
0.954932
0.954784
0.954644
0.95451
0.954382
0.954261
0.954146
0.954036
0.953933
0.953835
0.953742
0.953655
0.953572
0.953495
0.953422
0.953354
0.953289
0.95323
0.953174
0.953121
0.953073
0.953028
0.952987
0.952949
0.952914
0.952883
0.952854
0.952829
0.952806
0.952787
0.95277
0.952756
0.952744
0.952735
0.952728
0.952723
0.952721
0.95272
0.952722
0.952725
0.952731
0.952738
0.952747
0.952757
0.952769
0.952783
0.952798
0.952814
0.952832
0.952851
0.952872
0.952893
0.952916
0.952941
0.952966
0.952992
0.95302
0.953048
0.953077
0.953107
0.953138
0.95317
0.953202
0.953236
0.953269
0.953303
0.953338
0.953374
0.953409
0.953446
0.953483
0.95352
0.953558
0.953596
0.953635
0.953674
0.953713
0.953753
0.953793
0.953834
0.953874
0.953915
0.953956
0.953997
0.954038
0.954079
0.954121
0.954161
0.954204
0.954243
0.954288
0.954323
0.954372
0.954403
0.954458
0.954479
0.954548
0.954551
0.954642
0.954613
0.954747
1.2269
1.21693
1.20804
1.20019
1.19305
1.18655
1.18061
1.17507
1.16982
1.16484
1.16011
1.15561
1.15132
1.1472
1.14324
1.13944
1.13577
1.13223
1.1288
1.12548
1.12226
1.11914
1.1161
1.11314
1.11027
1.10746
1.10472
1.10205
1.09944
1.0969
1.09441
1.09197
1.08959
1.08725
1.08497
1.08273
1.08053
1.07838
1.07626
1.07419
1.07215
1.07014
1.06818
1.06624
1.06434
1.06247
1.06063
1.05882
1.05704
1.05528
1.05356
1.05186
1.05018
1.04853
1.04691
1.0453
1.04372
1.04217
1.04063
1.03911
1.03762
1.03614
1.03469
1.03325
1.03184
1.03044
1.02906
1.02771
1.02636
1.02504
1.02374
1.02245
1.02119
1.01994
1.01871
1.01749
1.0163
1.01513
1.01397
1.01283
1.01171
1.01061
1.00953
1.00847
1.00743
1.00641
1.00541
1.00443
1.00347
1.00253
1.00161
1.00071
0.999832
0.998974
0.998136
0.997318
0.996521
0.995744
0.994986
0.994248
0.99353
0.992831
0.992152
0.991491
0.99085
0.990226
0.989622
0.989035
0.988466
0.987915
0.987381
0.986864
0.986364
0.98588
0.985411
0.984958
0.984521
0.984098
0.983689
0.983294
0.982913
0.982546
0.982191
0.981849
0.98152
0.981202
0.980897
0.980602
0.980319
0.980047
0.979785
0.979534
0.979292
0.97906
0.978838
0.978624
0.978419
0.978223
0.978034
0.977854
0.977681
0.977515
0.977356
0.977205
0.97706
0.976921
0.976789
0.976663
0.976543
0.976429
0.976321
0.976217
0.976119
0.976027
0.975939
0.975856
0.975777
0.975703
0.975633
0.975567
0.975505
0.975447
0.975393
0.975342
0.975294
0.97525
0.975209
0.975171
0.975136
0.975104
0.975075
0.975049
0.975025
0.975004
0.974986
0.97497
0.974957
0.974946
0.974937
0.97493
0.974925
0.974921
0.97492
0.97492
0.974922
0.974926
0.974931
0.974938
0.974946
0.974955
0.974966
0.974979
0.974992
0.975007
0.975023
0.975041
0.975059
0.975079
0.975099
0.975121
0.975143
0.975166
0.975191
0.975215
0.975241
0.975267
0.975293
0.975321
0.975348
0.975377
0.975406
0.975435
0.975465
0.975495
0.975526
0.975557
0.975589
0.975621
0.975653
0.975686
0.975719
0.975752
0.975786
0.97582
0.975853
0.975888
0.97592
0.975956
0.975987
0.976025
0.976054
0.976095
0.976119
0.976167
0.976181
0.976241
0.976239
0.97632
0.976288
0.976411
1.22896
1.22431
1.21895
1.2133
1.20776
1.2026
1.1978
1.19319
1.1887
1.18434
1.18015
1.17612
1.17222
1.16846
1.16481
1.16128
1.15786
1.15454
1.15132
1.14819
1.14514
1.14216
1.13926
1.13643
1.13367
1.13097
1.12832
1.12573
1.1232
1.12072
1.11829
1.11591
1.11358
1.11129
1.10905
1.10684
1.10468
1.10256
1.10047
1.09842
1.0964
1.09442
1.09246
1.09054
1.08865
1.08678
1.08495
1.08314
1.08136
1.0796
1.07788
1.07617
1.07449
1.07284
1.07121
1.0696
1.06801
1.06644
1.06489
1.06336
1.06186
1.06037
1.0589
1.05744
1.05601
1.05459
1.0532
1.05182
1.05045
1.04911
1.04778
1.04647
1.04518
1.0439
1.04264
1.0414
1.04018
1.03897
1.03778
1.03661
1.03545
1.03431
1.03319
1.03209
1.03101
1.02995
1.0289
1.02788
1.02687
1.02588
1.02492
1.02397
1.02304
1.02213
1.02124
1.02037
1.01952
1.01869
1.01788
1.01709
1.01632
1.01556
1.01483
1.01412
1.01342
1.01274
1.01208
1.01144
1.01081
1.01021
1.00962
1.00905
1.00849
1.00796
1.00744
1.00693
1.00644
1.00597
1.00551
1.00506
1.00463
1.00422
1.00381
1.00342
1.00305
1.00268
1.00233
1.00199
1.00166
1.00135
1.00104
1.00075
1.00046
1.00019
0.999929
0.999676
0.999433
0.999199
0.998974
0.998757
0.998548
0.998348
0.998155
0.99797
0.997792
0.997621
0.997457
0.997299
0.997148
0.997004
0.996865
0.996733
0.996607
0.996486
0.996371
0.996261
0.996157
0.996057
0.995963
0.995873
0.995787
0.995706
0.995629
0.995556
0.995486
0.99542
0.995358
0.995299
0.995244
0.995192
0.995143
0.995097
0.995054
0.995015
0.994978
0.994945
0.994914
0.994886
0.99486
0.994837
0.994817
0.994798
0.994782
0.994768
0.994755
0.994745
0.994736
0.994729
0.994723
0.994719
0.994717
0.994716
0.994716
0.994719
0.994722
0.994727
0.994734
0.994742
0.994751
0.994762
0.994773
0.994786
0.9948
0.994815
0.99483
0.994847
0.994864
0.994882
0.9949
0.994919
0.994939
0.994959
0.99498
0.995001
0.995023
0.995046
0.995069
0.995092
0.995116
0.995141
0.995166
0.995192
0.995218
0.995245
0.995271
0.995299
0.995324
0.995353
0.995378
0.995409
0.995431
0.995465
0.995483
0.995523
0.995532
0.995584
0.995576
0.995649
0.995613
0.995725
1.22924
1.22777
1.22534
1.22202
1.21823
1.2145
1.21095
1.20745
1.20394
1.20044
1.19698
1.1936
1.19028
1.18703
1.18384
1.18073
1.17768
1.1747
1.17179
1.16894
1.16615
1.16343
1.16076
1.15814
1.15557
1.15305
1.15057
1.14814
1.14574
1.14339
1.14108
1.13881
1.13658
1.13439
1.13223
1.13012
1.12803
1.12598
1.12396
1.12198
1.12002
1.11809
1.11619
1.11431
1.11246
1.11064
1.10884
1.10706
1.10531
1.10358
1.10188
1.1002
1.09854
1.0969
1.09528
1.09369
1.09211
1.09056
1.08902
1.0875
1.086
1.08452
1.08305
1.0816
1.08016
1.07875
1.07734
1.07596
1.07459
1.07323
1.07189
1.07057
1.06927
1.06798
1.0667
1.06544
1.0642
1.06297
1.06176
1.06056
1.05938
1.05821
1.05706
1.05593
1.05481
1.05371
1.05263
1.05156
1.05051
1.04948
1.04846
1.04747
1.04649
1.04553
1.04459
1.04367
1.04276
1.04188
1.04101
1.04016
1.03933
1.03852
1.03773
1.03695
1.03619
1.03545
1.03473
1.03402
1.03333
1.03266
1.03201
1.03138
1.03076
1.03016
1.02957
1.029
1.02845
1.02791
1.02739
1.02689
1.0264
1.02592
1.02546
1.02501
1.02457
1.02415
1.02374
1.02334
1.02296
1.02259
1.02223
1.02188
1.02154
1.02121
1.0209
1.02059
1.0203
1.02002
1.01974
1.01948
1.01923
1.01898
1.01874
1.01851
1.01829
1.01808
1.01787
1.01767
1.01748
1.0173
1.01712
1.01695
1.01678
1.01662
1.01647
1.01633
1.01619
1.01605
1.01593
1.0158
1.01569
1.01558
1.01547
1.01537
1.01527
1.01517
1.01508
1.015
1.01492
1.01484
1.01476
1.01469
1.01462
1.01456
1.0145
1.01444
1.01439
1.01433
1.01429
1.01424
1.0142
1.01416
1.01413
1.01409
1.01406
1.01403
1.01401
1.01398
1.01396
1.01394
1.01392
1.0139
1.01389
1.01387
1.01386
1.01385
1.01384
1.01383
1.01383
1.01382
1.01382
1.01382
1.01382
1.01383
1.01383
1.01384
1.01384
1.01385
1.01386
1.01386
1.01387
1.01388
1.01389
1.0139
1.01392
1.01393
1.01394
1.01395
1.01397
1.01398
1.014
1.01402
1.01403
1.01405
1.01407
1.01409
1.01411
1.01413
1.01415
1.01417
1.01419
1.01422
1.01423
1.01426
1.01426
1.01431
1.01429
1.01436
1.01432
1.01442
1.22891
1.22873
1.2281
1.22677
1.22473
1.22243
1.22008
1.2177
1.21523
1.21269
1.21011
1.20751
1.20491
1.2023
1.1997
1.19712
1.19457
1.19204
1.18955
1.18709
1.18467
1.18229
1.17994
1.17762
1.17534
1.17309
1.17086
1.16866
1.16649
1.16434
1.16222
1.16013
1.15807
1.15603
1.15402
1.15204
1.15009
1.14817
1.14627
1.1444
1.14256
1.14073
1.13893
1.13715
1.13539
1.13365
1.13192
1.13022
1.12854
1.12687
1.12522
1.1236
1.12199
1.1204
1.11884
1.11729
1.11575
1.11424
1.11274
1.11126
1.1098
1.10835
1.10691
1.10549
1.10408
1.10268
1.1013
1.09993
1.09858
1.09724
1.09591
1.09459
1.09329
1.09201
1.09074
1.08948
1.08823
1.087
1.08579
1.08458
1.08339
1.08222
1.08105
1.0799
1.07876
1.07764
1.07653
1.07544
1.07436
1.07329
1.07224
1.07121
1.07019
1.06918
1.0682
1.06723
1.06628
1.06534
1.06443
1.06353
1.06264
1.06178
1.06093
1.06009
1.05927
1.05847
1.05769
1.05692
1.05616
1.05543
1.05471
1.054
1.05332
1.05265
1.05199
1.05136
1.05074
1.05013
1.04954
1.04897
1.04841
1.04787
1.04734
1.04683
1.04633
1.04584
1.04536
1.0449
1.04445
1.04401
1.04359
1.04318
1.04277
1.04239
1.04201
1.04164
1.04129
1.04095
1.04062
1.0403
1.03999
1.03969
1.0394
1.03911
1.03884
1.03858
1.03832
1.03807
1.03783
1.0376
1.03737
1.03715
1.03694
1.03674
1.03654
1.03635
1.03617
1.03599
1.03582
1.03566
1.0355
1.03535
1.03521
1.03507
1.03494
1.03481
1.03468
1.03457
1.03445
1.03434
1.03423
1.03413
1.03403
1.03393
1.03384
1.03375
1.03367
1.03359
1.03351
1.03344
1.03338
1.03331
1.03325
1.0332
1.03314
1.03309
1.03304
1.033
1.03295
1.03291
1.03287
1.03283
1.0328
1.03276
1.03273
1.0327
1.03267
1.03265
1.03262
1.0326
1.03258
1.03257
1.03255
1.03254
1.03253
1.03252
1.03251
1.03251
1.0325
1.0325
1.03249
1.03249
1.03249
1.03249
1.03249
1.03249
1.03249
1.03249
1.03249
1.0325
1.0325
1.03251
1.03252
1.03253
1.03253
1.03255
1.03256
1.03257
1.03258
1.0326
1.03261
1.03263
1.03263
1.03266
1.03265
1.03269
1.03267
1.03272
1.03268
1.03277
1.22869
1.22872
1.22865
1.2284
1.22774
1.22674
1.22554
1.22418
1.22269
1.22108
1.21938
1.21761
1.21577
1.21389
1.21196
1.21
1.20801
1.20602
1.20403
1.20204
1.20007
1.1981
1.19616
1.19422
1.19231
1.1904
1.18851
1.18662
1.18475
1.18288
1.18103
1.17918
1.17735
1.17554
1.17374
1.17196
1.1702
1.16846
1.16674
1.16504
1.16336
1.16169
1.16004
1.15841
1.15679
1.15518
1.15359
1.152
1.15043
1.14888
1.14733
1.1458
1.14429
1.14279
1.1413
1.13984
1.13838
1.13695
1.13552
1.13411
1.13272
1.13134
1.12996
1.1286
1.12725
1.12591
1.12458
1.12326
1.12195
1.12065
1.11936
1.11808
1.11682
1.11556
1.11432
1.11308
1.11186
1.11065
1.10946
1.10827
1.1071
1.10593
1.10478
1.10364
1.10251
1.10139
1.10027
1.09917
1.09808
1.097
1.09594
1.09488
1.09384
1.09281
1.0918
1.0908
1.08981
1.08884
1.08789
1.08695
1.08603
1.08512
1.08423
1.08335
1.08248
1.08163
1.08079
1.07997
1.07916
1.07837
1.07759
1.07682
1.07607
1.07534
1.07462
1.07391
1.07323
1.07255
1.0719
1.07126
1.07064
1.07003
1.06943
1.06885
1.06829
1.06773
1.06719
1.06666
1.06614
1.06564
1.06515
1.06467
1.0642
1.06374
1.06329
1.06286
1.06244
1.06203
1.06164
1.06126
1.06088
1.06052
1.06018
1.05984
1.05951
1.05919
1.05887
1.05857
1.05828
1.05799
1.05771
1.05744
1.05717
1.05691
1.05666
1.05642
1.05619
1.05596
1.05574
1.05553
1.05533
1.05514
1.05495
1.05477
1.05459
1.05443
1.05426
1.0541
1.05395
1.0538
1.05366
1.05352
1.05338
1.05325
1.05312
1.053
1.05288
1.05276
1.05266
1.05255
1.05245
1.05236
1.05227
1.05218
1.0521
1.05202
1.05195
1.05188
1.05181
1.05175
1.05168
1.05162
1.05156
1.05151
1.05145
1.0514
1.05135
1.0513
1.05125
1.05121
1.05117
1.05113
1.0511
1.05107
1.05104
1.05101
1.05099
1.05097
1.05095
1.05093
1.05091
1.0509
1.05088
1.05087
1.05085
1.05084
1.05083
1.05081
1.0508
1.05079
1.05079
1.05078
1.05077
1.05077
1.05077
1.05077
1.05077
1.05077
1.05077
1.05078
1.05078
1.0508
1.05079
1.05081
1.0508
1.05083
1.05081
1.05085
1.05081
1.05088
1.22863
1.22863
1.22859
1.22855
1.22846
1.22823
1.22787
1.22738
1.22674
1.22597
1.22508
1.22408
1.22299
1.22181
1.22055
1.21923
1.21785
1.21642
1.21497
1.21349
1.212
1.2105
1.209
1.2075
1.206
1.20449
1.20299
1.20148
1.19996
1.19844
1.19691
1.19538
1.19384
1.19231
1.19078
1.18925
1.18773
1.18623
1.18473
1.18325
1.18178
1.18033
1.17888
1.17745
1.17602
1.1746
1.17318
1.17177
1.17037
1.16897
1.16757
1.16618
1.1648
1.16343
1.16207
1.16072
1.15938
1.15806
1.15675
1.15545
1.15416
1.15288
1.15161
1.15035
1.1491
1.14785
1.14661
1.14537
1.14414
1.14291
1.1417
1.14048
1.13928
1.13808
1.13689
1.13571
1.13454
1.13338
1.13223
1.13109
1.12996
1.12884
1.12773
1.12663
1.12553
1.12444
1.12336
1.12228
1.12121
1.12015
1.11909
1.11804
1.117
1.11597
1.11495
1.11395
1.11295
1.11197
1.111
1.11005
1.1091
1.10818
1.10726
1.10636
1.10547
1.10459
1.10372
1.10286
1.10202
1.10118
1.10036
1.09955
1.09875
1.09796
1.09719
1.09643
1.09568
1.09495
1.09424
1.09354
1.09286
1.09219
1.09154
1.0909
1.09028
1.08966
1.08907
1.08848
1.0879
1.08733
1.08678
1.08623
1.0857
1.08517
1.08466
1.08416
1.08367
1.0832
1.08274
1.08229
1.08186
1.08143
1.08102
1.08062
1.08024
1.07986
1.07949
1.07913
1.07878
1.07844
1.0781
1.07778
1.07745
1.07714
1.07683
1.07654
1.07625
1.07596
1.07569
1.07543
1.07517
1.07493
1.07469
1.07446
1.07424
1.07403
1.07383
1.07363
1.07343
1.07325
1.07306
1.07288
1.07271
1.07253
1.07237
1.0722
1.07204
1.07189
1.07174
1.0716
1.07146
1.07133
1.0712
1.07108
1.07097
1.07086
1.07076
1.07066
1.07057
1.07048
1.07039
1.0703
1.07022
1.07013
1.07005
1.06997
1.0699
1.06982
1.06975
1.06968
1.06962
1.06955
1.0695
1.06944
1.06939
1.06934
1.0693
1.06926
1.06923
1.06919
1.06916
1.06913
1.0691
1.06907
1.06904
1.06902
1.06899
1.06896
1.06894
1.06891
1.06889
1.06886
1.06884
1.06882
1.06881
1.06879
1.06878
1.06877
1.06877
1.06876
1.06876
1.06876
1.06875
1.06876
1.06875
1.06877
1.06874
1.06877
1.06873
1.06878
1.22863
1.2286
1.22855
1.2285
1.22847
1.22843
1.22837
1.22829
1.22816
1.22797
1.2277
1.22735
1.22691
1.22637
1.22573
1.22501
1.22421
1.22334
1.22241
1.22144
1.22044
1.2194
1.21836
1.2173
1.21623
1.21515
1.21405
1.21295
1.21182
1.21068
1.20952
1.20834
1.20714
1.20593
1.20471
1.20347
1.20224
1.201
1.19977
1.19855
1.19733
1.19612
1.19492
1.19372
1.19253
1.19134
1.19015
1.18896
1.18776
1.18656
1.18536
1.18415
1.18295
1.18175
1.18055
1.17935
1.17816
1.17699
1.17582
1.17466
1.17351
1.17237
1.17124
1.17011
1.16899
1.16788
1.16676
1.16565
1.16454
1.16342
1.16231
1.1612
1.16009
1.15898
1.15788
1.15678
1.15569
1.15461
1.15353
1.15247
1.15141
1.15036
1.14932
1.14829
1.14726
1.14624
1.14522
1.1442
1.14319
1.14217
1.14116
1.14015
1.13915
1.13815
1.13715
1.13617
1.13519
1.13422
1.13327
1.13232
1.13139
1.13047
1.12956
1.12866
1.12777
1.1269
1.12603
1.12517
1.12431
1.12347
1.12263
1.1218
1.12097
1.12016
1.11935
1.11856
1.11777
1.117
1.11625
1.11551
1.11478
1.11407
1.11338
1.11269
1.11203
1.11137
1.11073
1.1101
1.10948
1.10886
1.10826
1.10766
1.10708
1.1065
1.10593
1.10537
1.10482
1.10428
1.10376
1.10325
1.10275
1.10227
1.1018
1.10135
1.10091
1.10048
1.10006
1.09965
1.09925
1.09885
1.09847
1.09809
1.09771
1.09735
1.09699
1.09663
1.09628
1.09595
1.09562
1.0953
1.09499
1.09469
1.0944
1.09412
1.09385
1.0936
1.09335
1.0931
1.09287
1.09264
1.09242
1.0922
1.09198
1.09177
1.09156
1.09136
1.09116
1.09096
1.09077
1.09058
1.0904
1.09023
1.09006
1.08991
1.08976
1.08961
1.08948
1.08935
1.08922
1.0891
1.08899
1.08888
1.08877
1.08866
1.08855
1.08845
1.08834
1.08824
1.08814
1.08804
1.08795
1.08786
1.08777
1.08769
1.08761
1.08754
1.08747
1.08741
1.08735
1.0873
1.08725
1.08721
1.08716
1.08712
1.08708
1.08704
1.08699
1.08695
1.08691
1.08687
1.08683
1.08679
1.08675
1.08671
1.08668
1.08665
1.08662
1.0866
1.08658
1.08656
1.08654
1.08654
1.08652
1.08652
1.08651
1.08652
1.08649
1.08651
1.08647
1.0865
1.22864
1.2286
1.22855
1.2285
1.22845
1.22842
1.22839
1.22838
1.22837
1.22838
1.22837
1.22834
1.22828
1.22817
1.228
1.22777
1.22746
1.22708
1.22664
1.22614
1.22559
1.225
1.22438
1.22374
1.22308
1.22241
1.22172
1.22101
1.22028
1.21952
1.21874
1.21793
1.21709
1.21622
1.21532
1.2144
1.21347
1.21253
1.21158
1.21063
1.20968
1.20874
1.2078
1.20687
1.20594
1.205
1.20407
1.20313
1.20218
1.20122
1.20024
1.19926
1.19827
1.19727
1.19626
1.19525
1.19424
1.19324
1.19224
1.19125
1.19027
1.18929
1.18833
1.18737
1.18641
1.18546
1.18451
1.18355
1.18259
1.18163
1.18066
1.17968
1.1787
1.17772
1.17673
1.17574
1.17476
1.17378
1.17281
1.17185
1.17089
1.16994
1.169
1.16807
1.16714
1.16622
1.1653
1.16438
1.16346
1.16253
1.16161
1.16068
1.15974
1.15881
1.15787
1.15694
1.15601
1.15509
1.15418
1.15328
1.15238
1.1515
1.15063
1.14977
1.14892
1.14808
1.14725
1.14642
1.14559
1.14477
1.14396
1.14314
1.14233
1.14152
1.14071
1.13991
1.13912
1.13833
1.13756
1.1368
1.13606
1.13532
1.13461
1.13391
1.13322
1.13255
1.13189
1.13124
1.1306
1.12996
1.12933
1.12871
1.12809
1.12748
1.12687
1.12627
1.12568
1.12509
1.12452
1.12396
1.12341
1.12288
1.12237
1.12186
1.12138
1.1209
1.12044
1.11999
1.11955
1.11912
1.1187
1.11828
1.11786
1.11745
1.11704
1.11664
1.11625
1.11586
1.11547
1.1151
1.11474
1.11438
1.11404
1.11372
1.1134
1.1131
1.1128
1.11252
1.11225
1.11198
1.11173
1.11147
1.11122
1.11097
1.11073
1.11048
1.11024
1.11
1.10977
1.10954
1.10932
1.1091
1.10889
1.10869
1.1085
1.10832
1.10815
1.10798
1.10783
1.10768
1.10754
1.1074
1.10727
1.10713
1.107
1.10687
1.10674
1.10661
1.10648
1.10636
1.10623
1.10611
1.10599
1.10588
1.10577
1.10567
1.10557
1.10549
1.10541
1.10533
1.10527
1.1052
1.10514
1.10509
1.10503
1.10497
1.10492
1.10486
1.10481
1.10475
1.10469
1.10463
1.10457
1.10452
1.10446
1.10441
1.10437
1.10432
1.10429
1.10426
1.10423
1.10421
1.10418
1.10417
1.10416
1.10415
1.10413
1.10414
1.1041
1.10412
1.22864
1.2286
1.22855
1.2285
1.22845
1.22841
1.22839
1.22838
1.22838
1.2284
1.22843
1.22847
1.2285
1.22852
1.22852
1.2285
1.22844
1.22835
1.22822
1.22806
1.22787
1.22764
1.22739
1.22712
1.22683
1.22653
1.2262
1.22586
1.2255
1.22511
1.22468
1.22423
1.22373
1.2232
1.22264
1.22204
1.22141
1.22076
1.2201
1.21943
1.21875
1.21808
1.21741
1.21674
1.21607
1.21541
1.21474
1.21406
1.21337
1.21267
1.21195
1.21122
1.21046
1.20969
1.20891
1.20811
1.2073
1.20649
1.20568
1.20488
1.20408
1.20329
1.2025
1.20173
1.20096
1.2002
1.19943
1.19866
1.19789
1.19711
1.19631
1.19551
1.19469
1.19386
1.19303
1.19218
1.19134
1.19049
1.18965
1.18881
1.18798
1.18716
1.18634
1.18554
1.18474
1.18395
1.18316
1.18237
1.18158
1.18079
1.17998
1.17917
1.17835
1.17752
1.17669
1.17585
1.17501
1.17417
1.17333
1.1725
1.17168
1.17087
1.17007
1.16929
1.16851
1.16774
1.16698
1.16623
1.16548
1.16472
1.16397
1.16322
1.16246
1.16169
1.16093
1.16016
1.1594
1.15864
1.15788
1.15714
1.15641
1.15569
1.15498
1.15429
1.15362
1.15296
1.15231
1.15167
1.15104
1.15042
1.1498
1.14918
1.14857
1.14795
1.14734
1.14673
1.14612
1.14551
1.14492
1.14433
1.14375
1.14319
1.14264
1.14211
1.14159
1.14109
1.14061
1.14014
1.13968
1.13922
1.13878
1.13834
1.1379
1.13747
1.13703
1.1366
1.13617
1.13574
1.13532
1.13491
1.1345
1.1341
1.13372
1.13334
1.13299
1.13264
1.13231
1.132
1.13169
1.1314
1.13111
1.13083
1.13055
1.13028
1.13
1.12973
1.12946
1.12919
1.12891
1.12865
1.12838
1.12812
1.12787
1.12763
1.1274
1.12718
1.12697
1.12677
1.12659
1.12641
1.12624
1.12608
1.12592
1.12577
1.12562
1.12546
1.12531
1.12516
1.12501
1.12485
1.1247
1.12454
1.12439
1.12425
1.12411
1.12398
1.12385
1.12373
1.12363
1.12353
1.12344
1.12336
1.12328
1.12321
1.12314
1.12307
1.12301
1.12294
1.12287
1.1228
1.12272
1.12265
1.12257
1.12249
1.12242
1.12235
1.12228
1.12222
1.12216
1.12211
1.12206
1.12203
1.12199
1.12197
1.12195
1.12194
1.12191
1.12191
1.12188
1.12189
1.22863
1.2286
1.22855
1.2285
1.22845
1.22841
1.22839
1.22838
1.22838
1.2284
1.22843
1.22847
1.22851
1.22854
1.22856
1.22857
1.22856
1.22853
1.22849
1.22844
1.22837
1.22831
1.22824
1.22817
1.2281
1.22804
1.22798
1.22791
1.22783
1.22774
1.22762
1.22747
1.22729
1.22707
1.22681
1.22652
1.22619
1.22583
1.22544
1.22504
1.22463
1.22422
1.2238
1.22339
1.22298
1.22257
1.22216
1.22175
1.22133
1.22089
1.22043
1.21995
1.21945
1.21892
1.21837
1.2178
1.21721
1.21662
1.21601
1.21541
1.2148
1.21421
1.21362
1.21305
1.21248
1.21192
1.21136
1.2108
1.21024
1.20966
1.20908
1.20848
1.20786
1.20722
1.20656
1.2059
1.20522
1.20453
1.20385
1.20316
1.20248
1.20181
1.20115
1.20051
1.19987
1.19924
1.19861
1.19799
1.19737
1.19674
1.1961
1.19545
1.19478
1.1941
1.19341
1.19271
1.19199
1.19128
1.19056
1.18984
1.18913
1.18843
1.18774
1.18707
1.1864
1.18575
1.1851
1.18446
1.18383
1.18319
1.18255
1.1819
1.18125
1.18058
1.17991
1.17923
1.17854
1.17785
1.17716
1.17647
1.1758
1.17513
1.17448
1.17384
1.17321
1.17261
1.17201
1.17143
1.17085
1.17028
1.16972
1.16915
1.16858
1.16801
1.16743
1.16685
1.16626
1.16568
1.16509
1.16451
1.16394
1.16338
1.16283
1.1623
1.16178
1.16128
1.1608
1.16033
1.15988
1.15944
1.159
1.15856
1.15813
1.1577
1.15727
1.15683
1.1564
1.15596
1.15552
1.15508
1.15465
1.15423
1.15382
1.15342
1.15303
1.15266
1.15231
1.15197
1.15164
1.15133
1.15103
1.15074
1.15045
1.15016
1.14987
1.14958
1.14929
1.149
1.14871
1.14841
1.14812
1.14783
1.14754
1.14727
1.147
1.14674
1.1465
1.14628
1.14606
1.14586
1.14567
1.14549
1.14531
1.14514
1.14498
1.14481
1.14464
1.14447
1.1443
1.14412
1.14394
1.14377
1.14359
1.14341
1.14324
1.14308
1.14293
1.14278
1.14265
1.14252
1.14241
1.14231
1.14222
1.14213
1.14205
1.14197
1.14189
1.14182
1.14174
1.14165
1.14157
1.14148
1.14139
1.14129
1.1412
1.1411
1.14101
1.14093
1.14085
1.14078
1.14072
1.14066
1.14062
1.14058
1.14055
1.14053
1.14051
1.1405
1.14046
1.14047
1.22863
1.2286
1.22855
1.22849
1.22845
1.22841
1.22839
1.22838
1.22838
1.2284
1.22843
1.22847
1.22851
1.22854
1.22856
1.22857
1.22856
1.22854
1.2285
1.22846
1.22841
1.22836
1.22832
1.22829
1.22828
1.22828
1.22829
1.22832
1.22835
1.22838
1.2284
1.22842
1.22841
1.22838
1.22833
1.22825
1.22814
1.22801
1.22786
1.22769
1.22752
1.22734
1.22717
1.22699
1.22683
1.22666
1.2265
1.22634
1.22617
1.22599
1.22578
1.22556
1.22531
1.22503
1.22472
1.22438
1.22403
1.22365
1.22326
1.22287
1.22247
1.22208
1.2217
1.22133
1.22098
1.22063
1.22029
1.21995
1.21961
1.21926
1.2189
1.21852
1.21811
1.21769
1.21724
1.21678
1.2163
1.2158
1.2153
1.2148
1.2143
1.21382
1.21334
1.21287
1.21242
1.21198
1.21155
1.21112
1.2107
1.21026
1.20982
1.20936
1.20889
1.2084
1.20789
1.20736
1.20682
1.20627
1.20571
1.20515
1.2046
1.20405
1.20352
1.20299
1.20249
1.20199
1.2015
1.20103
1.20055
1.20007
1.19959
1.1991
1.1986
1.19808
1.19755
1.197
1.19645
1.19588
1.19531
1.19474
1.19417
1.19361
1.19307
1.19253
1.19201
1.19151
1.19102
1.19054
1.19007
1.1896
1.18914
1.18867
1.1882
1.18772
1.18722
1.18672
1.18621
1.1857
1.18518
1.18466
1.18414
1.18363
1.18313
1.18265
1.18217
1.18172
1.18128
1.18086
1.18045
1.18005
1.17966
1.17927
1.17889
1.1785
1.1781
1.1777
1.17729
1.17688
1.17646
1.17604
1.17562
1.1752
1.1748
1.1744
1.17402
1.17365
1.1733
1.17297
1.17265
1.17235
1.17205
1.17177
1.17149
1.17121
1.17093
1.17064
1.17036
1.17006
1.16977
1.16947
1.16916
1.16886
1.16856
1.16827
1.16799
1.16771
1.16746
1.16721
1.16698
1.16677
1.16657
1.16638
1.16619
1.16602
1.16584
1.16567
1.1655
1.16532
1.16514
1.16495
1.16476
1.16457
1.16437
1.16418
1.16399
1.1638
1.16362
1.16346
1.1633
1.16316
1.16303
1.16292
1.16281
1.16271
1.16262
1.16254
1.16245
1.16237
1.16228
1.16219
1.1621
1.162
1.16189
1.16178
1.16168
1.16157
1.16146
1.16136
1.16126
1.16118
1.1611
1.16103
1.16097
1.16092
1.16089
1.16086
1.16083
1.16081
1.16079
1.16078
1.22863
1.2286
1.22855
1.22849
1.22845
1.22841
1.22839
1.22838
1.22838
1.2284
1.22843
1.22847
1.22851
1.22854
1.22856
1.22857
1.22856
1.22854
1.2285
1.22846
1.22841
1.22836
1.22832
1.2283
1.22828
1.22829
1.22831
1.22834
1.22838
1.22843
1.22847
1.22851
1.22854
1.22855
1.22854
1.22852
1.22847
1.22842
1.22835
1.22828
1.2282
1.22814
1.22808
1.22804
1.22801
1.22799
1.22798
1.22797
1.22796
1.22795
1.22792
1.22787
1.22779
1.22769
1.22756
1.22741
1.22724
1.22705
1.22684
1.22664
1.22643
1.22623
1.22604
1.22586
1.22569
1.22553
1.22538
1.22523
1.22508
1.22492
1.22474
1.22455
1.22433
1.22409
1.22383
1.22355
1.22326
1.22295
1.22263
1.22231
1.222
1.22169
1.2214
1.22112
1.22085
1.22059
1.22034
1.22009
1.21984
1.21959
1.21932
1.21904
1.21875
1.21843
1.21809
1.21774
1.21737
1.217
1.21661
1.21623
1.21585
1.21547
1.21511
1.21475
1.21441
1.21409
1.21377
1.21345
1.21314
1.21283
1.21251
1.21217
1.21183
1.21147
1.21109
1.2107
1.21029
1.20987
1.20945
1.20903
1.2086
1.20819
1.20778
1.20739
1.20701
1.20664
1.20628
1.20593
1.20559
1.20525
1.20491
1.20456
1.20421
1.20384
1.20347
1.20308
1.20267
1.20226
1.20185
1.20143
1.20101
1.2006
1.20019
1.1998
1.19942
1.19906
1.19871
1.19837
1.19804
1.19772
1.1974
1.19709
1.19677
1.19645
1.19611
1.19578
1.19543
1.19507
1.19471
1.19434
1.19398
1.19361
1.19326
1.19291
1.19257
1.19225
1.19194
1.19165
1.19137
1.1911
1.19084
1.19059
1.19034
1.19009
1.18984
1.18958
1.18932
1.18905
1.18877
1.18849
1.18821
1.18793
1.18764
1.18737
1.1871
1.18684
1.1866
1.18637
1.18615
1.18595
1.18576
1.18558
1.18541
1.18524
1.18507
1.1849
1.18473
1.18456
1.18438
1.1842
1.18401
1.18381
1.18362
1.18343
1.18324
1.18305
1.18288
1.18271
1.18256
1.18242
1.18229
1.18217
1.18207
1.18197
1.18188
1.18179
1.1817
1.18162
1.18153
1.18143
1.18133
1.18123
1.18112
1.18101
1.1809
1.18079
1.18068
1.18058
1.18048
1.18039
1.18031
1.18024
1.18018
1.18013
1.18009
1.18006
1.18004
1.18001
1.17999
1.17997
1.22863
1.2286
1.22855
1.2285
1.22845
1.22841
1.22839
1.22838
1.22838
1.2284
1.22843
1.22847
1.22851
1.22854
1.22856
1.22857
1.22856
1.22854
1.2285
1.22846
1.22841
1.22836
1.22832
1.2283
1.22828
1.22829
1.22831
1.22834
1.22838
1.22843
1.22848
1.22851
1.22854
1.22855
1.22854
1.22851
1.22847
1.22842
1.22836
1.22831
1.22826
1.22822
1.22819
1.22818
1.22819
1.22821
1.22824
1.22828
1.22831
1.22834
1.22835
1.22835
1.22833
1.22829
1.22823
1.22815
1.22806
1.22796
1.22786
1.22776
1.22766
1.22757
1.22749
1.22743
1.22737
1.22732
1.22727
1.22723
1.22717
1.22711
1.22703
1.22694
1.22682
1.22669
1.22654
1.22638
1.2262
1.22601
1.22583
1.22564
1.22546
1.22529
1.22512
1.22497
1.22483
1.22469
1.22456
1.22442
1.22429
1.22414
1.22399
1.22381
1.22363
1.22342
1.2232
1.22297
1.22273
1.22248
1.22222
1.22197
1.22172
1.22148
1.22125
1.22102
1.22081
1.22061
1.2204
1.22021
1.22001
1.2198
1.21959
1.21936
1.21912
1.21887
1.2186
1.21832
1.21803
1.21773
1.21743
1.21713
1.21683
1.21654
1.21625
1.21598
1.21571
1.21546
1.21521
1.21496
1.21472
1.21448
1.21423
1.21397
1.21371
1.21343
1.21315
1.21285
1.21254
1.21222
1.2119
1.21158
1.21126
1.21094
1.21064
1.21034
1.21005
1.20978
1.20951
1.20925
1.209
1.20875
1.2085
1.20825
1.208
1.20773
1.20746
1.20718
1.20689
1.2066
1.2063
1.206
1.2057
1.2054
1.20511
1.20482
1.20455
1.20429
1.20404
1.2038
1.20357
1.20335
1.20313
1.20291
1.2027
1.20248
1.20226
1.20203
1.2018
1.20156
1.20132
1.20107
1.20082
1.20057
1.20033
1.20009
1.19986
1.19964
1.19943
1.19924
1.19905
1.19887
1.19871
1.19855
1.19839
1.19824
1.19808
1.19793
1.19777
1.1976
1.19744
1.19726
1.19709
1.19691
1.19674
1.19656
1.19639
1.19623
1.19608
1.19593
1.19579
1.19567
1.19556
1.19545
1.19536
1.19526
1.19518
1.19509
1.19501
1.19492
1.19484
1.19474
1.19465
1.19455
1.19445
1.19434
1.19424
1.19414
1.19404
1.19395
1.19386
1.19378
1.19372
1.19365
1.19361
1.19356
1.19353
1.19349
1.19348
1.19344
1.19343
1.1934
1.22864
1.2286
1.22855
1.2285
1.22845
1.22841
1.22839
1.22838
1.22838
1.2284
1.22843
1.22847
1.22851
1.22854
1.22856
1.22857
1.22856
1.22854
1.2285
1.22846
1.22841
1.22836
1.22832
1.22829
1.22828
1.22829
1.22832
1.22835
1.22839
1.22844
1.22848
1.22851
1.22852
1.22852
1.2285
1.22847
1.22842
1.22838
1.22833
1.22828
1.22825
1.22823
1.22822
1.22823
1.22825
1.22828
1.22831
1.22835
1.22838
1.22841
1.22842
1.22842
1.2284
1.22837
1.22833
1.22828
1.22822
1.22816
1.22811
1.22806
1.22802
1.22798
1.22796
1.22794
1.22793
1.22793
1.22792
1.22791
1.22789
1.22787
1.22782
1.22777
1.2277
1.22762
1.22753
1.22743
1.22732
1.22721
1.2271
1.227
1.2269
1.22681
1.22672
1.22665
1.22657
1.2265
1.22643
1.22636
1.22628
1.22619
1.22609
1.22597
1.22585
1.22571
1.22556
1.2254
1.22524
1.22508
1.22491
1.22475
1.22459
1.22444
1.22429
1.22415
1.22402
1.22389
1.22376
1.22363
1.22349
1.22335
1.2232
1.22304
1.22286
1.22268
1.22248
1.22228
1.22207
1.22186
1.22164
1.22143
1.22122
1.22102
1.22082
1.22063
1.22045
1.22027
1.22009
1.21992
1.21974
1.21956
1.21937
1.21918
1.21897
1.21876
1.21853
1.2183
1.21806
1.21782
1.21758
1.21733
1.21709
1.21686
1.21663
1.21641
1.21619
1.21599
1.21578
1.21559
1.21539
1.21519
1.21499
1.21479
1.21458
1.21436
1.21414
1.21391
1.21367
1.21343
1.21318
1.21294
1.2127
1.21246
1.21223
1.21201
1.21179
1.21158
1.21138
1.21119
1.211
1.21082
1.21064
1.21045
1.21027
1.21008
1.20989
1.20969
1.20949
1.20928
1.20907
1.20886
1.20865
1.20844
1.20824
1.20804
1.20785
1.20767
1.2075
1.20734
1.20718
1.20703
1.20689
1.20675
1.20661
1.20647
1.20633
1.20619
1.20605
1.2059
1.20575
1.20559
1.20544
1.20529
1.20513
1.20499
1.20484
1.20471
1.20458
1.20446
1.20435
1.20424
1.20415
1.20406
1.20397
1.20389
1.20381
1.20373
1.20365
1.20357
1.20349
1.2034
1.20331
1.20322
1.20313
1.20304
1.20295
1.20287
1.20279
1.20271
1.20264
1.20258
1.20253
1.20248
1.20244
1.20241
1.20238
1.20235
1.20233
1.2023
1.20228
1.20224
1.22864
1.2286
1.22855
1.2285
1.22845
1.22841
1.22839
1.22838
1.22838
1.2284
1.22843
1.22847
1.22851
1.22854
1.22856
1.22857
1.22855
1.22853
1.22849
1.22844
1.22839
1.22834
1.22831
1.22829
1.22829
1.22831
1.22834
1.22837
1.22841
1.22845
1.22847
1.22849
1.22849
1.22847
1.22845
1.22841
1.22837
1.22833
1.2283
1.22827
1.22825
1.22825
1.22825
1.22827
1.22829
1.22832
1.22835
1.22838
1.22839
1.2284
1.2284
1.22839
1.22837
1.22835
1.22831
1.22828
1.22824
1.22821
1.22818
1.22816
1.22815
1.22814