/*--------------------------------*- C++ -*----------------------------------*\
  =========                 |
  \\      /  F ield         | OpenFOAM: The Open Source CFD Toolbox
   \\    /   O peration     | Website:  https://openfoam.org
    \\  /    A nd           | Version:  7
     \\/     M anipulation  |
\*---------------------------------------------------------------------------*/
FoamFile
{
    version     2.0;
    format      ascii;
    class       volScalarField;
    location    "4.25";
    object      k;
}
// * * * * * * * * * * * * * * * * * * * * * * * * * * * * * * * * * * * * * //

dimensions      [0 2 -2 0 0 0 0];

internalField   nonuniform List<scalar> 
3000
(
806.144
818.354
817.412
818.724
818.735
818.938
819.393
819.274
820.447
820.657
222.919
211.185
209.83
210.313
210.176
210.257
210.417
210.361
210.73
211.411
123.265
119.295
117.883
118.39
118.207
118.331
118.407
118.386
118.555
119.104
111.808
109.954
108.972
109.569
109.412
109.557
109.608
109.58
109.722
110.058
108.524
107.855
107.327
108.032
107.896
108.065
108.109
108.087
108.195
108.509
109.01
108.348
107.75
108.476
108.353
108.535
108.579
108.564
108.659
108.963
109.01
108.348
107.75
108.476
108.353
108.536
108.577
108.568
108.653
108.971
108.524
107.855
107.326
108.032
107.894
108.068
108.103
108.097
108.178
108.533
111.808
109.954
108.971
109.57
109.41
109.562
109.599
109.594
109.695
110.097
123.265
119.295
117.883
118.391
118.205
118.336
118.397
118.403
118.521
119.16
222.919
211.186
209.829
210.316
210.172
210.266
210.401
210.392
210.668
211.52
806.143
818.357
817.408
818.733
818.719
818.97
819.332
819.394
820.203
821.132
118.433
121.446
122.426
122.08
122.132
122.056
122
121.856
121.763
121.929
104.618
110.904
110.633
110.751
110.71
110.713
110.76
110.683
110.818
110.918
95.6648
103.66
103.706
104.065
104.04
104.065
104.15
104.098
104.262
104.54
97.1725
105.058
104.815
105.113
105.128
105.163
105.253
105.198
105.379
105.546
95.3475
103.33
103.473
103.908
103.937
103.971
104.06
104.017
104.158
104.38
96.1782
104.09
104.083
104.421
104.434
104.472
104.558
104.507
104.634
104.85
96.1781
104.09
104.083
104.421
104.433
104.473
104.556
104.51
104.627
104.86
95.3473
103.331
103.472
103.909
103.936
103.973
104.055
104.026
104.139
104.408
97.1723
105.058
104.814
105.114
105.126
105.167
105.246
105.212
105.348
105.593
95.6646
103.66
103.706
104.066
104.038
104.069
104.142
104.114
104.231
104.595
104.618
110.905
110.632
110.752
110.707
110.717
110.752
110.7
110.783
110.982
118.433
121.446
122.426
122.081
122.129
122.061
121.991
121.874
121.727
121.999
12.8022
14.0844
14.2195
14.0839
14.099
14.0853
14.0792
14.0714
14.0769
14.2183
12.4471
15.1518
15.1976
15.2032
15.184
15.1756
15.1804
15.1776
15.2259
15.354
10.994
13.6641
13.833
13.9078
13.9064
13.9118
13.9246
13.9223
13.9442
14.0817
11.2261
14.3407
14.3601
14.4241
14.427
14.4215
14.4377
14.447
14.531
14.6642
10.767
13.6553
13.6415
13.6896
13.6987
13.7024
13.7143
13.7132
13.7525
13.8794
10.8263
13.9409
13.9279
13.9586
13.9521
13.9373
13.9495
13.9587
14.0396
14.1744
10.8263
13.9409
13.9279
13.9587
13.952
13.9374
13.9493
13.9591
14.0391
14.176
10.7669
13.6553
13.6415
13.6897
13.6985
13.7026
13.7137
13.7142
13.7507
13.8805
11.2261
14.3408
14.36
14.4243
14.4267
14.4219
14.4367
14.4486
14.5272
14.6687
10.994
13.6642
13.8329
13.908
13.9062
13.9122
13.9236
13.9243
13.941
14.0869
12.447
15.1518
15.1975
15.2034
15.1837
15.1762
15.1792
15.18
15.2215
15.3615
12.8022
14.0845
14.2194
14.0841
14.0987
14.0859
14.0781
14.074
14.0733
14.2276
118.433
121.446
122.426
122.08
122.132
122.056
122
121.856
121.763
121.929
104.618
110.904
110.633
110.751
110.71
110.713
110.76
110.683
110.818
110.918
95.6648
103.66
103.706
104.065
104.04
104.065
104.15
104.098
104.262
104.54
97.1725
105.058
104.815
105.113
105.128
105.163
105.253
105.198
105.379
105.546
95.3475
103.33
103.473
103.908
103.937
103.971
104.06
104.017
104.158
104.38
96.1782
104.09
104.083
104.421
104.434
104.472
104.558
104.507
104.634
104.85
96.1781
104.09
104.083
104.421
104.433
104.473
104.556
104.51
104.627
104.86
95.3473
103.331
103.472
103.909
103.936
103.973
104.055
104.026
104.139
104.408
97.1723
105.058
104.814
105.114
105.126
105.167
105.246
105.212
105.348
105.593
95.6646
103.66
103.706
104.066
104.038
104.069
104.142
104.114
104.231
104.595
104.618
110.905
110.632
110.752
110.707
110.717
110.752
110.7
110.783
110.982
118.433
121.446
122.426
122.081
122.129
122.061
121.991
121.874
121.727
121.999
806.144
818.354
817.412
818.724
818.735
818.938
819.393
819.274
820.447
820.657
222.919
211.185
209.83
210.313
210.176
210.257
210.417
210.361
210.73
211.411
123.265
119.295
117.883
118.39
118.207
118.331
118.407
118.386
118.555
119.104
111.808
109.954
108.972
109.569
109.412
109.557
109.608
109.58
109.722
110.058
108.524
107.855
107.327
108.032
107.896
108.065
108.109
108.087
108.195
108.509
109.01
108.348
107.75
108.476
108.353
108.535
108.579
108.564
108.659
108.963
109.01
108.348
107.75
108.476
108.353
108.536
108.577
108.568
108.653
108.971
108.524
107.855
107.326
108.032
107.894
108.068
108.103
108.097
108.178
108.533
111.808
109.954
108.971
109.57
109.41
109.562
109.599
109.594
109.695
110.097
123.265
119.295
117.883
118.391
118.205
118.336
118.397
118.403
118.521
119.16
222.919
211.186
209.829
210.316
210.172
210.266
210.401
210.392
210.668
211.52
806.143
818.357
817.408
818.733
818.719
818.97
819.332
819.394
820.203
821.132
1734.35
1746.21
1753.97
1761.04
1767.82
1774.64
1781.4
1788.2
1794.99
1801.8
1808.62
1815.45
1822.29
1829.14
1836
1842.88
1849.77
1856.68
1863.58
1870.49
1877.41
1884.37
1891.37
1898.36
1905.31
1912.2
1919.13
1926.17
1933.37
1940.66
1947.83
1954.76
1961.29
1967.8
1974.11
1981.7
1988.59
1999.41
2005.11
2021.63
782.7
791.534
794.942
798.332
801.346
804.516
807.576
810.698
813.79
816.906
820.017
823.14
826.265
829.395
832.529
835.671
838.822
841.978
845.133
848.288
851.452
854.635
857.834
861.029
864.202
867.355
870.522
873.746
877.041
880.37
883.646
886.805
889.785
892.761
895.656
899.144
902.314
907.275
909.832
917.284
486.724
495.914
497.854
500.177
501.979
504.044
505.944
507.936
509.881
511.856
513.82
515.796
517.771
519.751
521.733
523.72
525.712
527.708
529.703
531.699
533.701
535.714
537.738
539.759
541.766
543.762
545.766
547.807
549.892
551.999
554.07
556.069
557.954
559.84
561.674
563.888
565.894
569.04
570.639
575.265
411.507
421.884
423.325
425.445
426.909
428.729
430.336
432.062
433.727
435.429
437.115
438.815
440.513
442.216
443.92
445.628
447.342
449.059
450.775
452.492
454.213
455.946
457.686
459.426
461.153
462.87
464.595
466.35
468.143
469.956
471.74
473.464
475.089
476.715
478.289
480.193
481.904
484.614
485.976
489.919
389.257
400.419
401.634
403.729
405.07
406.831
408.346
409.999
411.58
413.204
414.809
416.43
418.047
419.67
421.293
422.922
424.555
426.191
427.826
429.463
431.103
432.754
434.413
436.071
437.718
439.355
440.998
442.67
444.378
446.107
447.809
449.456
451.008
452.56
454.056
455.868
457.484
460.069
461.362
465.09
385.554
397.088
398.195
400.299
401.607
403.367
404.865
406.511
408.08
409.694
411.289
412.899
414.506
416.118
417.731
419.349
420.972
422.597
424.223
425.848
427.478
429.118
430.767
432.415
434.052
435.678
437.311
438.971
440.668
442.385
444.078
445.716
447.26
448.803
450.287
452.086
453.684
456.253
457.542
461.239
385.331
396.718
397.793
399.89
401.196
402.954
404.452
406.096
407.664
409.278
410.871
412.481
414.086
415.698
417.31
418.927
420.548
422.173
423.797
425.422
427.051
428.69
430.337
431.984
433.62
435.246
436.877
438.537
440.232
441.949
443.64
445.278
446.82
448.363
449.846
451.644
453.24
455.808
457.097
460.791
388.55
399.279
400.403
402.478
403.813
405.57
407.082
408.732
410.31
411.931
413.533
415.15
416.764
418.384
420.005
421.63
423.26
424.892
426.525
428.158
429.796
431.443
433.099
434.754
436.398
438.032
439.672
441.34
443.045
444.77
446.47
448.113
449.662
451.211
452.704
454.513
456.126
458.706
459.999
463.721
410.168
419.839
421.136
423.223
424.678
426.491
428.092
429.813
431.472
433.168
434.849
436.544
438.236
439.933
441.632
443.335
445.043
446.754
448.465
450.176
451.893
453.619
455.354
457.088
458.81
460.522
462.24
463.99
465.777
467.585
469.363
471.081
472.701
474.321
475.891
477.789
479.495
482.197
483.557
487.489
484.359
492.525
494.259
496.535
498.322
500.377
502.268
504.251
506.187
508.153
510.109
512.076
514.042
516.013
517.986
519.964
521.947
523.934
525.921
527.907
529.9
531.905
533.919
535.932
537.93
539.916
541.912
543.943
546.02
548.117
550.179
552.168
554.045
555.922
557.748
559.953
561.95
565.084
566.679
571.287
777.934
785.029
788.093
791.402
794.392
797.541
800.585
803.69
806.766
809.865
812.959
816.065
819.174
822.287
825.405
828.53
831.664
834.803
837.941
841.079
844.227
847.393
850.575
853.753
856.909
860.045
863.196
866.402
869.68
872.992
876.25
879.391
882.356
885.315
888.195
891.666
894.821
899.758
902.306
909.724
1722.92
1730.95
1737.95
1744.84
1751.57
1758.34
1765.06
1771.82
1778.57
1785.34
1792.12
1798.91
1805.72
1812.53
1819.35
1826.19
1833.04
1839.91
1846.78
1853.64
1860.52
1867.45
1874.41
1881.36
1888.26
1895.12
1902.01
1909.01
1916.18
1923.42
1930.55
1937.44
1943.93
1950.4
1956.68
1964.23
1971.08
1981.85
1987.52
2003.97
358.368
361.468
362.716
364.179
365.545
366.969
368.372
369.791
371.207
372.629
374.051
375.478
376.906
378.336
379.769
381.204
382.644
384.086
385.528
386.97
388.416
389.871
391.332
392.792
394.242
395.683
397.131
398.605
400.111
401.633
403.129
404.57
405.931
407.292
408.618
410.216
411.68
413.956
415.241
418.722
399.273
404.426
406.114
407.81
409.379
410.997
412.588
414.196
415.8
417.41
419.021
420.636
422.254
423.874
425.496
427.122
428.753
430.387
432.02
433.654
435.292
436.941
438.598
440.252
441.894
443.527
445.169
446.841
448.549
450.273
451.968
453.6
455.142
456.684
458.19
460.007
461.668
464.254
465.639
469.612
372.473
379.082
380.761
382.344
383.828
385.341
386.837
388.344
389.848
391.358
392.869
394.384
395.901
397.42
398.942
400.467
401.997
403.529
405.061
406.593
408.13
409.676
411.23
412.782
414.323
415.854
417.394
418.961
420.563
422.181
423.771
425.304
426.751
428.198
429.608
431.312
432.861
435.289
436.582
440.207
367.212
374.815
376.568
378.129
379.623
381.125
382.619
384.118
385.618
387.121
388.626
390.135
391.646
393.16
394.676
396.195
397.719
399.246
400.772
402.299
403.83
405.37
406.919
408.465
410.001
411.528
413.061
414.622
416.217
417.829
419.416
420.948
422.392
423.835
425.235
426.929
428.457
430.878
432.129
435.743
359.234
367.531
369.275
370.787
372.261
373.728
375.197
376.666
378.139
379.613
381.091
382.572
384.055
385.54
387.028
388.519
390.015
391.513
393.012
394.51
396.012
397.524
399.043
400.562
402.07
403.568
405.073
406.603
408.168
409.751
411.31
412.816
414.236
415.653
417.023
418.681
420.168
422.546
423.765
427.291
358.908
367.456
369.194
370.698
372.177
373.644
375.116
376.586
378.06
379.536
381.015
382.496
383.981
385.468
386.957
388.449
389.946
391.445
392.945
394.444
395.948
397.461
398.981
400.501
402.011
403.51
405.016
406.547
408.112
409.697
411.258
412.767
414.189
415.608
416.976
418.634
420.116
422.496
423.707
427.24
358.694
367.107
368.815
370.312
371.79
373.256
374.726
376.195
377.669
379.143
380.621
382.102
383.586
385.071
386.559
388.051
389.547
391.045
392.544
394.042
395.545
397.057
398.576
400.095
401.604
403.103
404.607
406.137
407.702
409.285
410.846
412.353
413.774
415.192
416.56
418.216
419.697
422.076
423.286
426.818
358.586
366.493
368.153
369.647
371.116
372.579
374.045
375.511
376.981
378.453
379.928
381.405
382.886
384.368
385.853
387.342
388.834
390.33
391.825
393.32
394.82
396.328
397.845
399.36
400.865
402.361
403.863
405.39
406.952
408.532
410.088
411.591
413.008
414.423
415.79
417.445
418.93
421.304
422.522
426.042
366.047
373.035
374.658
376.19
377.677
379.172
380.661
382.155
383.65
385.148
386.649
388.153
389.66
391.168
392.679
394.194
395.713
397.235
398.756
400.278
401.804
403.339
404.882
406.424
407.955
409.477
411.005
412.561
414.151
415.758
417.34
418.866
420.306
421.744
423.14
424.828
426.352
428.766
430.015
433.619
370.763
376.607
378.129
379.677
381.151
382.655
384.145
385.645
387.143
388.645
390.15
391.658
393.169
394.681
396.196
397.715
399.238
400.764
402.289
403.814
405.345
406.884
408.431
409.976
411.51
413.035
414.568
416.129
417.724
419.334
420.917
422.443
423.884
425.324
426.729
428.425
429.968
432.387
433.676
437.287
396.896
401.159
402.667
404.322
405.878
407.486
409.069
410.668
412.263
413.864
415.466
417.073
418.682
420.293
421.907
423.525
425.147
426.772
428.396
430.021
431.651
433.291
434.938
436.584
438.217
439.842
441.474
443.137
444.837
446.552
448.237
449.861
451.394
452.927
454.426
456.234
457.886
460.46
461.84
465.794
355.898
358.195
359.285
360.712
362.065
363.479
364.874
366.285
367.693
369.106
370.52
371.938
373.358
374.78
376.204
377.631
379.062
380.496
381.929
383.362
384.8
386.246
387.699
389.151
390.592
392.024
393.463
394.929
396.426
397.939
399.426
400.859
402.212
403.564
404.882
406.472
407.927
410.192
411.471
414.934
77.6101
79.1155
79.2974
79.7206
79.982
80.3256
80.6225
80.9442
81.2532
81.5696
81.8829
82.1989
82.5143
82.8307
83.1473
83.4649
83.7832
84.1021
84.4208
84.7397
85.0598
85.3818
85.7052
86.0278
86.348
86.6668
86.9879
87.3153
87.6493
87.9855
88.3145
88.6311
88.9306
89.2325
89.5303
89.8905
90.2229
90.7363
91.0202
91.8164
111.443
114.534
114.942
115.479
115.893
116.369
116.814
117.276
117.731
118.191
118.65
119.111
119.572
120.034
120.496
120.96
121.425
121.891
122.357
122.823
123.29
123.761
124.234
124.705
125.173
125.639
126.108
126.586
127.075
127.566
128.047
128.509
128.946
129.387
129.823
130.35
130.838
131.586
132.002
133.145
109.297
113.395
113.885
114.39
114.818
115.28
115.725
116.179
116.63
117.084
117.537
117.992
118.448
118.904
119.361
119.819
120.279
120.739
121.199
121.659
122.121
122.586
123.053
123.518
123.98
124.44
124.904
125.376
125.859
126.344
126.819
127.275
127.707
128.142
128.572
129.093
129.572
130.31
130.713
131.802
108.009
112.841
113.393
113.853
114.294
114.742
115.192
115.643
116.096
116.549
117.003
117.458
117.914
118.371
118.829
119.287
119.747
120.208
120.668
121.129
121.591
122.056
122.523
122.989
123.452
123.913
124.376
124.849
125.332
125.818
126.294
126.752
127.185
127.62
128.049
128.569
129.046
129.787
130.197
131.28
104.85
110.146
110.72
111.155
111.593
112.031
112.472
112.912
113.354
113.797
114.24
114.684
115.13
115.575
116.022
116.469
116.918
117.368
117.817
118.267
118.718
119.172
119.628
120.083
120.535
120.984
121.437
121.898
122.369
122.843
123.308
123.756
124.179
124.604
125.021
125.528
125.992
126.717
127.119
128.171
104.517
110.066
110.656
111.076
111.517
111.945
112.389
112.827
113.271
113.713
114.157
114.602
115.047
115.493
115.94
116.388
116.838
117.288
117.738
118.188
118.639
119.094
119.55
120.006
120.458
120.908
121.361
121.822
122.294
122.769
123.235
123.684
124.107
124.533
124.95
125.456
125.917
126.642
127.043
128.095
104.453
109.963
110.543
110.961
111.401
111.829
112.273
112.711
113.154
113.596
114.04
114.484
114.929
115.375
115.822
116.27
116.719
117.168
117.618
118.068
118.519
118.973
119.429
119.885
120.337
120.787
121.239
121.7
122.171
122.646
123.112
123.56
123.984
124.409
124.825
125.331
125.793
126.517
126.917
127.969
104.657
109.837
110.384
110.814
111.25
111.687
112.127
112.567
113.008
113.449
113.892
114.335
114.78
115.225
115.67
116.117
116.565
117.014
117.462
117.911
118.361
118.814
119.269
119.724
120.174
120.623
121.075
121.535
122.005
122.478
122.943
123.39
123.812
124.236
124.652
125.158
125.621
126.344
126.746
127.796
107.662
112.312
112.823
113.275
113.713
114.159
114.608
115.057
115.508
115.96
116.413
116.867
117.321
117.776
118.232
118.689
119.148
119.607
120.066
120.525
120.986
121.45
121.915
122.38
122.841
123.3
123.762
124.234
124.715
125.199
125.674
126.13
126.562
126.996
127.423
127.942
128.418
129.156
129.566
130.645
108.8
112.669
113.11
113.604
114.029
114.489
114.931
115.384
115.832
116.284
116.736
117.189
117.643
118.097
118.552
119.008
119.466
119.924
120.382
120.84
121.3
121.763
122.228
122.691
123.151
123.609
124.071
124.541
125.022
125.505
125.978
126.432
126.862
127.295
127.723
128.242
128.719
129.454
129.857
130.941
110.785
113.623
113.979
114.503
114.914
115.386
115.829
116.289
116.741
117.199
117.655
118.114
118.572
119.032
119.492
119.953
120.416
120.879
121.343
121.806
122.271
122.739
123.209
123.678
124.144
124.607
125.074
125.55
126.036
126.525
127.002
127.462
127.897
128.335
128.769
129.294
129.779
130.524
130.938
132.076
77.0594
78.3873
78.5337
78.9481
79.2071
79.5483
79.8434
80.1632
80.4703
80.7848
81.0963
81.4103
81.7238
82.0383
82.353
82.6687
82.9851
83.302
83.6189
83.9358
84.254
84.5741
84.8955
85.2162
85.5345
85.8514
86.1705
86.496
86.828
87.1623
87.4892
87.8038
88.1014
88.4015
88.6975
89.0558
89.3864
89.8971
90.1797
90.9713
358.368
361.468
362.716
364.179
365.545
366.969
368.372
369.791
371.207
372.629
374.051
375.478
376.906
378.336
379.769
381.204
382.644
384.086
385.528
386.97
388.416
389.871
391.332
392.792
394.242
395.683
397.131
398.605
400.111
401.633
403.129
404.57
405.931
407.292
408.618
410.216
411.68
413.956
415.241
418.722
399.273
404.426
406.114
407.81
409.379
410.997
412.588
414.196
415.8
417.41
419.021
420.636
422.254
423.874
425.496
427.122
428.753
430.387
432.02
433.654
435.292
436.941
438.598
440.252
441.894
443.527
445.169
446.841
448.549
450.273
451.968
453.6
455.142
456.684
458.19
460.007
461.668
464.254
465.639
469.612
372.473
379.082
380.761
382.344
383.828
385.341
386.837
388.344
389.848
391.358
392.869
394.384
395.901
397.42
398.942
400.467
401.997
403.529
405.061
406.593
408.13
409.676
411.23
412.782
414.323
415.854
417.394
418.961
420.563
422.181
423.771
425.304
426.751
428.198
429.608
431.312
432.861
435.289
436.582
440.207
367.212
374.815
376.568
378.129
379.623
381.125
382.619
384.118
385.618
387.121
388.626
390.135
391.646
393.16
394.676
396.195
397.719
399.246
400.772
402.299
403.83
405.37
406.919
408.465
410.001
411.528
413.061
414.622
416.217
417.829
419.416
420.948
422.392
423.835
425.235
426.929
428.457
430.878
432.129
435.743
359.234
367.531
369.275
370.787
372.261
373.728
375.197
376.666
378.139
379.613
381.091
382.572
384.055
385.54
387.028
388.519
390.015
391.513
393.012
394.51
396.012
397.524
399.043
400.562
402.07
403.568
405.073
406.603
408.168
409.751
411.31
412.816
414.236
415.653
417.023
418.681
420.168
422.546
423.765
427.291
358.908
367.456
369.194
370.698
372.177
373.644
375.116
376.586
378.06
379.536
381.015
382.496
383.981
385.468
386.957
388.449
389.946
391.445
392.945
394.444
395.948
397.461
398.981
400.501
402.011
403.51
405.016
406.547
408.112
409.697
411.258
412.767
414.189
415.608
416.976
418.634
420.116
422.496
423.707
427.24
358.694
367.107
368.815
370.312
371.79
373.256
374.726
376.195
377.669
379.143
380.621
382.102
383.586
385.071
386.559
388.051
389.547
391.045
392.544
394.042
395.545
397.057
398.576
400.095
401.604
403.103
404.607
406.137
407.702
409.285
410.846
412.353
413.774
415.192
416.56
418.216
419.697
422.076
423.286
426.818
358.586
366.493
368.153
369.647
371.116
372.579
374.045
375.511
376.981
378.453
379.928
381.405
382.886
384.368
385.853
387.342
388.834
390.33
391.825
393.32
394.82
396.328
397.845
399.36
400.865
402.361
403.863
405.39
406.952
408.532
410.088
411.591
413.008
414.423
415.79
417.445
418.93
421.304
422.522
426.042
366.047
373.035
374.658
376.19
377.677
379.172
380.661
382.155
383.65
385.148
386.649
388.153
389.66
391.168
392.679
394.194
395.713
397.235
398.756
400.278
401.804
403.339
404.882
406.424
407.955
409.477
411.005
412.561
414.151
415.758
417.34
418.866
420.306
421.744
423.14
424.828
426.352
428.766
430.015
433.619
370.763
376.607
378.129
379.677
381.151
382.655
384.145
385.645
387.143
388.645
390.15
391.658
393.169
394.681
396.196
397.715
399.238
400.764
402.289
403.814
405.345
406.884
408.431
409.976
411.51
413.035
414.568
416.129
417.724
419.334
420.917
422.443
423.884
425.324
426.729
428.425
429.968
432.387
433.676
437.287
396.896
401.159
402.667
404.322
405.878
407.486
409.069
410.668
412.263
413.864
415.466
417.073
418.682
420.293
421.907
423.525
425.147
426.772
428.396
430.021
431.651
433.291
434.938
436.584
438.217
439.842
441.474
443.137
444.837
446.552
448.237
449.861
451.394
452.927
454.426
456.234
457.886
460.46
461.84
465.794
355.898
358.195
359.285
360.712
362.065
363.479
364.874
366.285
367.693
369.106
370.52
371.938
373.358
374.78
376.204
377.631
379.062
380.496
381.929
383.362
384.8
386.246
387.699
389.151
390.592
392.024
393.463
394.929
396.426
397.939
399.426
400.859
402.212
403.564
404.882
406.472
407.927
410.192
411.471
414.934
1734.35
1746.21
1753.97
1761.04
1767.82
1774.64
1781.4
1788.2
1794.99
1801.8
1808.62
1815.45
1822.29
1829.14
1836
1842.88
1849.77
1856.68
1863.58
1870.49
1877.41
1884.37
1891.37
1898.36
1905.31
1912.2
1919.13
1926.17
1933.37
1940.66
1947.83
1954.76
1961.29
1967.8
1974.11
1981.7
1988.59
1999.41
2005.11
2021.63
782.7
791.534
794.942
798.332
801.346
804.516
807.576
810.698
813.79
816.906
820.017
823.14
826.265
829.395
832.529
835.671
838.822
841.978
845.133
848.288
851.452
854.635
857.834
861.029
864.202
867.355
870.522
873.746
877.041
880.37
883.646
886.805
889.785
892.761
895.656
899.144
902.314
907.275
909.832
917.284
486.724
495.914
497.854
500.177
501.979
504.044
505.944
507.936
509.881
511.856
513.82
515.796
517.771
519.751
521.733
523.72
525.712
527.708
529.703
531.699
533.701
535.714
537.738
539.759
541.766
543.762
545.766
547.807
549.892
551.999
554.07
556.069
557.954
559.84
561.674
563.888
565.894
569.04
570.639
575.265
411.507
421.884
423.325
425.445
426.909
428.729
430.336
432.062
433.727
435.429
437.115
438.815
440.513
442.216
443.92
445.628
447.342
449.059
450.775
452.492
454.213
455.946
457.686
459.426
461.153
462.87
464.595
466.35
468.143
469.956
471.74
473.464
475.089
476.715
478.289
480.193
481.904
484.614
485.976
489.919
389.257
400.419
401.634
403.729
405.07
406.831
408.346
409.999
411.58
413.204
414.809
416.43
418.047
419.67
421.293
422.922
424.555
426.191
427.826
429.463
431.103
432.754
434.413
436.071
437.718
439.355
440.998
442.67
444.378
446.107
447.809
449.456
451.008
452.56
454.056
455.868
457.484
460.069
461.362
465.09
385.554
397.088
398.195
400.299
401.607
403.367
404.865
406.511
408.08
409.694
411.289
412.899
414.506
416.118
417.731
419.349
420.972
422.597
424.223
425.848
427.478
429.118
430.767
432.415
434.052
435.678
437.311
438.971
440.668
442.385
444.078
445.716
447.26
448.803
450.287
452.086
453.684
456.253
457.542
461.239
385.331
396.718
397.793
399.89
401.196
402.954
404.452
406.096
407.664
409.278
410.871
412.481
414.086
415.698
417.31
418.927
420.548
422.173
423.797
425.422
427.051
428.69
430.337
431.984
433.62
435.246
436.877
438.537
440.232
441.949
443.64
445.278
446.82
448.363
449.846
451.644
453.24
455.808
457.097
460.791
388.55
399.279
400.403
402.478
403.813
405.57
407.082
408.732
410.31
411.931
413.533
415.15
416.764
418.384
420.005
421.63
423.26
424.892
426.525
428.158
429.796
431.443
433.099
434.754
436.398
438.032
439.672
441.34
443.045
444.77
446.47
448.113
449.662
451.211
452.704
454.513
456.126
458.706
459.999
463.721
410.168
419.839
421.136
423.223
424.678
426.491
428.092
429.813
431.472
433.168
434.849
436.544
438.236
439.933
441.632
443.335
445.043
446.754
448.465
450.176
451.893
453.619
455.354
457.088
458.81
460.522
462.24
463.99
465.777
467.585
469.363
471.081
472.701
474.321
475.891
477.789
479.495
482.197
483.557
487.489
484.359
492.525
494.259
496.535
498.322
500.377
502.268
504.251
506.187
508.153
510.109
512.076
514.042
516.013
517.986
519.964
521.947
523.934
525.921
527.907
529.9
531.905
533.919
535.932
537.93
539.916
541.912
543.943
546.02
548.117
550.179
552.168
554.045
555.922
557.748
559.953
561.95
565.084
566.679
571.287
777.934
785.029
788.093
791.402
794.392
797.541
800.585
803.69
806.766
809.865
812.959
816.065
819.174
822.287
825.405
828.53
831.664
834.803
837.941
841.079
844.227
847.393
850.575
853.753
856.909
860.045
863.196
866.402
869.68
872.992
876.25
879.391
882.356
885.315
888.195
891.666
894.821
899.758
902.306
909.724
1722.92
1730.95
1737.95
1744.84
1751.57
1758.34
1765.06
1771.82
1778.57
1785.34
1792.12
1798.91
1805.72
1812.53
1819.35
1826.19
1833.04
1839.91
1846.78
1853.64
1860.52
1867.45
1874.41
1881.36
1888.26
1895.12
1902.01
1909.01
1916.18
1923.42
1930.55
1937.44
1943.93
1950.4
1956.68
1964.23
1971.08
1981.85
1987.52
2003.97
)
;

boundaryField
{
    upperWall
    {
        type            fixedValue;
        value           uniform 0;
    }
    lowerWall
    {
        type            fixedValue;
        value           uniform 0;
    }
    heatedWall
    {
        type            fixedValue;
        value           uniform 0;
    }
    inlet
    {
        type            fixedValue;
        value           uniform 2e-05;
    }
    outlet
    {
        type            inletOutlet;
        inletValue      uniform 0;
        value           nonuniform List<scalar> 
60
(
2021.63
917.284
575.265
489.919
465.09
461.239
460.791
463.721
487.489
571.287
909.724
2003.97
418.722
469.612
440.207
435.743
427.291
427.24
426.818
426.042
433.619
437.287
465.794
414.934
91.8164
133.145
131.802
131.28
128.171
128.095
127.969
127.796
130.645
130.941
132.076
90.9713
418.722
469.612
440.207
435.743
427.291
427.24
426.818
426.042
433.619
437.287
465.794
414.934
2021.63
917.284
575.265
489.919
465.09
461.239
460.791
463.721
487.489
571.287
909.724
2003.97
)
;
    }
    frontAndBack
    {
        type            empty;
    }
}


// ************************************************************************* //
