/*--------------------------------*- C++ -*----------------------------------*\
  =========                 |
  \\      /  F ield         | OpenFOAM: The Open Source CFD Toolbox
   \\    /   O peration     | Website:  https://openfoam.org
    \\  /    A nd           | Version:  7
     \\/     M anipulation  |
\*---------------------------------------------------------------------------*/
FoamFile
{
    version     2.0;
    format      ascii;
    class       volSymmTensorField;
    location    "0.2";
    object      UPrime2Mean;
}
// * * * * * * * * * * * * * * * * * * * * * * * * * * * * * * * * * * * * * //

dimensions      [0 2 -2 0 0 0 0];

internalField   nonuniform List<symmTensor> 
400
(
(8.06228 0.462737 0 5.59181 0 0)
(8.61383 0.752439 0 11.1891 0 0)
(10.8848 -0.307621 0 11.0327 0 0)
(13.4297 -0.454372 0 10.7582 0 0)
(15.6388 -0.246327 0 8.77325 0 0)
(16.6939 0.201311 0 7.45602 0 0)
(17.3455 0.382317 0 6.88317 0 0)
(17.0636 0.398555 0 5.98428 0 0)
(16.9387 0.361443 0 4.86097 0 0)
(16.293 0.172393 0 4.70002 0 0)
(15.7643 0.0575277 0 4.75883 0 0)
(14.7974 -0.0462457 0 4.58595 0 0)
(13.1769 0.0814805 0 4.84334 0 0)
(11.8167 -0.0990213 0 4.65969 0 0)
(10.9683 -0.0236739 0 4.11919 0 0)
(9.56917 0.207241 0 3.57584 0 0)
(8.41615 0.208559 0 3.1604 0 0)
(7.53682 0.328045 0 2.69082 0 0)
(7.69379 0.158782 0 2.49308 0 0)
(6.76516 0.2949 0 2.25361 0 0)
(11.6448 0.210719 0 7.50678 0 0)
(9.51117 0.189373 0 8.30177 0 0)
(11.7864 0.413709 0 8.85771 0 0)
(15.4289 0.230229 0 8.77635 0 0)
(19.103 -0.115985 0 8.49114 0 0)
(22.2821 -0.45711 0 6.97494 0 0)
(25.3508 -0.480964 0 6.226 0 0)
(28.3111 -0.29459 0 5.85501 0 0)
(29.7398 0.471768 0 4.95536 0 0)
(29.6251 1.47426 0 4.59558 0 0)
(27.9673 2.1205 0 4.74828 0 0)
(25.1948 1.87457 0 4.51426 0 0)
(23.1516 1.98787 0 4.64657 0 0)
(20.0321 1.61798 0 4.2968 0 0)
(18.3893 1.37781 0 4.00058 0 0)
(16.603 1.08084 0 3.90513 0 0)
(16.5248 0.38794 0 3.50526 0 0)
(16.7591 -0.295967 0 2.99137 0 0)
(18.5637 -1.06475 0 2.92579 0 0)
(18.8222 0.486599 0 2.98191 0 0)
(11.5671 -0.685147 0 10.0124 0 0)
(10.686 -0.342151 0 10.5984 0 0)
(13.0858 -1.09806 0 11.7822 0 0)
(17.5027 -1.5269 0 12.9267 0 0)
(21.6756 -2.53741 0 12.6388 0 0)
(25.0387 -3.60443 0 11.284 0 0)
(27.706 -3.27933 0 9.48954 0 0)
(30.1994 -1.85274 0 7.90525 0 0)
(30.827 0.0023874 0 7.3296 0 0)
(30.6615 1.81166 0 6.92577 0 0)
(29.9269 3.06059 0 7.02034 0 0)
(27.2783 3.62492 0 7.49525 0 0)
(23.5831 3.70875 0 7.13985 0 0)
(21.4219 3.3954 0 7.54675 0 0)
(19.2669 2.80441 0 7.38992 0 0)
(17.9216 1.42001 0 6.88696 0 0)
(18.4077 -0.233042 0 6.86508 0 0)
(19.3221 -1.55794 0 6.07276 0 0)
(20.8461 -1.70995 0 5.37117 0 0)
(21.4787 0.129026 0 4.25363 0 0)
(9.79162 -0.605052 0 13.4809 0 0)
(9.38911 -0.987336 0 13.2147 0 0)
(13.3881 -1.69998 0 15.3275 0 0)
(17.5976 -3.62243 0 16.9137 0 0)
(21.6845 -5.09564 0 16.6835 0 0)
(24.9375 -6.05944 0 14.7197 0 0)
(27.3698 -5.0196 0 12.5493 0 0)
(28.7456 -2.80686 0 10.7735 0 0)
(29.0433 -0.331353 0 10.1128 0 0)
(28.6627 1.77308 0 9.2479 0 0)
(27.3758 3.64082 0 9.86005 0 0)
(24.3628 4.22516 0 10.2994 0 0)
(21.4878 4.45169 0 10.4365 0 0)
(18.9882 3.75553 0 10.9635 0 0)
(17.5903 2.82009 0 11.2314 0 0)
(16.5035 0.688018 0 11.167 0 0)
(16.7483 -1.3706 0 11.1457 0 0)
(17.8788 -2.29627 0 9.64819 0 0)
(18.8296 -1.87115 0 7.73301 0 0)
(19.4334 0.0161084 0 4.80558 0 0)
(8.53917 -0.244582 0 14.9373 0 0)
(8.13845 -1.06843 0 16.3035 0 0)
(12.9318 -2.72518 0 19.9407 0 0)
(17.1478 -5.97519 0 19.8593 0 0)
(21.2215 -7.7317 0 20.3286 0 0)
(23.9742 -8.35875 0 17.9845 0 0)
(24.9877 -6.67712 0 14.6168 0 0)
(26.0966 -3.6126 0 12.5208 0 0)
(25.654 -0.708796 0 11.6872 0 0)
(24.9698 1.62849 0 11.4212 0 0)
(23.6078 3.12023 0 12.1175 0 0)
(22.0136 4.74504 0 13.9504 0 0)
(19.2023 4.96906 0 14.4175 0 0)
(16.6463 4.38811 0 15.2968 0 0)
(15.1593 2.799 0 16.0628 0 0)
(14.238 0.601946 0 16.5029 0 0)
(14.1569 -1.60803 0 15.5052 0 0)
(14.6691 -2.25203 0 13.2174 0 0)
(15.2449 -1.67713 0 9.97984 0 0)
(15.5502 -0.0715405 0 5.75592 0 0)
(7.13258 -0.226086 0 14.8775 0 0)
(7.29415 -0.798021 0 19.2115 0 0)
(11.7692 -4.0947 0 23.2411 0 0)
(17.0223 -7.28792 0 23.8652 0 0)
(19.7646 -9.17345 0 23.4846 0 0)
(22.5174 -8.85126 0 19.8229 0 0)
(23.2515 -6.50323 0 15.61 0 0)
(23.9119 -3.49793 0 13.3826 0 0)
(23.3973 -0.946551 0 12.472 0 0)
(22.2881 1.29099 0 13.2458 0 0)
(20.7851 3.1703 0 14.7739 0 0)
(18.541 4.30054 0 16.8028 0 0)
(16.7713 5.2703 0 18.7182 0 0)
(14.851 4.71452 0 20.6015 0 0)
(13.4619 2.9174 0 21.9993 0 0)
(12.3856 0.88785 0 22.126 0 0)
(11.7134 -0.976755 0 19.842 0 0)
(11.5321 -1.67491 0 16.4906 0 0)
(11.7947 -1.47363 0 11.9985 0 0)
(11.7341 -0.103623 0 6.88125 0 0)
(6.27747 0.130288 0 15.1595 0 0)
(7.17736 -0.865568 0 23.0647 0 0)
(11.0393 -5.06319 0 27.3165 0 0)
(15.5921 -7.28857 0 27.9784 0 0)
(18.2309 -9.16241 0 25.8282 0 0)
(19.8145 -8.47558 0 20.6675 0 0)
(20.4453 -6.10897 0 16.0345 0 0)
(21.0221 -3.1024 0 14.9352 0 0)
(21.0649 -0.0815198 0 14.6947 0 0)
(19.3271 1.3484 0 15.4216 0 0)
(18.0358 2.72698 0 17.348 0 0)
(16.4711 3.77602 0 19.6551 0 0)
(14.9342 4.31062 0 22.4339 0 0)
(13.6453 3.95029 0 25.2074 0 0)
(12.3015 2.87219 0 27.269 0 0)
(10.9163 1.44127 0 27.3407 0 0)
(9.74301 -0.279824 0 23.8033 0 0)
(9.02776 -0.975953 0 19.0323 0 0)
(9.07146 -0.877229 0 13.7284 0 0)
(8.59704 -0.0216221 0 8.10387 0 0)
(5.48145 0.355902 0 14.8754 0 0)
(6.52555 -1.09673 0 26.5398 0 0)
(9.8642 -4.04542 0 30.8743 0 0)
(12.9193 -6.2223 0 30.2095 0 0)
(15.8735 -7.16992 0 26.9841 0 0)
(17.1662 -6.46721 0 20.9846 0 0)
(18.2946 -4.6739 0 16.8174 0 0)
(19.0346 -2.47519 0 15.387 0 0)
(19.0609 0.056273 0 16.1682 0 0)
(18.2063 0.989308 0 17.2443 0 0)
(17.024 2.1 0 19.7243 0 0)
(15.2061 2.9369 0 22.6636 0 0)
(13.6036 3.0594 0 25.7482 0 0)
(12.0712 3.01038 0 29.0662 0 0)
(10.7589 2.34228 0 31.253 0 0)
(9.40955 1.50325 0 31.1788 0 0)
(8.24599 0.57164 0 27.4568 0 0)
(7.37585 -0.153212 0 21.7595 0 0)
(7.20435 -0.0471425 0 15.8898 0 0)
(6.62495 0.199499 0 9.16427 0 0)
(5.14766 0.410559 0 14.231 0 0)
(5.90124 -0.798192 0 29.7166 0 0)
(8.9283 -2.41887 0 33.7028 0 0)
(11.7241 -4.087 0 31.6039 0 0)
(14.1352 -4.50821 0 27.7322 0 0)
(16.1188 -3.91307 0 21.5804 0 0)
(18.1319 -2.92385 0 17.784 0 0)
(18.3643 -1.53576 0 15.5855 0 0)
(18.7887 0.136403 0 16.4979 0 0)
(17.5083 0.953787 0 18.3442 0 0)
(16.6017 1.62526 0 20.9461 0 0)
(15.2014 2.23157 0 24.2309 0 0)
(13.1182 2.0982 0 28.0398 0 0)
(11.2896 2.13239 0 31.6084 0 0)
(9.87508 1.60945 0 34.0466 0 0)
(8.66436 1.53926 0 33.8979 0 0)
(7.5611 1.23646 0 29.8422 0 0)
(6.67593 0.759783 0 24.004 0 0)
(6.35409 0.599655 0 17.7499 0 0)
(5.70922 0.4028 0 10.2132 0 0)
(4.64251 -0.246354 0 13.7728 0 0)
(5.54099 -0.323856 0 30.4854 0 0)
(8.45204 -0.401717 0 34.5827 0 0)
(11.0986 -0.981832 0 32.5827 0 0)
(13.6337 -1.65462 0 27.8787 0 0)
(16.0061 -1.6095 0 22.1105 0 0)
(17.7442 -1.2322 0 17.6272 0 0)
(18.7291 -0.919046 0 15.451 0 0)
(19.4106 0.457625 0 16.705 0 0)
(17.7918 1.341 0 19.1603 0 0)
(16.2423 1.30789 0 21.8058 0 0)
(14.6195 1.34518 0 25.1942 0 0)
(12.5677 1.13309 0 29.2795 0 0)
(11.096 0.99 0 33.3971 0 0)
(9.66851 0.802485 0 35.2765 0 0)
(8.34347 1.31983 0 34.556 0 0)
(7.39093 1.78874 0 30.7768 0 0)
(6.63462 1.70536 0 24.8287 0 0)
(6.39144 1.24733 0 18.3674 0 0)
(5.91318 0.545969 0 10.9874 0 0)
(4.29851 -0.198571 0 14.0815 0 0)
(5.07749 0.0240942 0 30.4942 0 0)
(7.98335 1.58129 0 34.3998 0 0)
(10.9629 1.51086 0 32.6224 0 0)
(13.755 1.26051 0 28.162 0 0)
(15.5443 1.10767 0 22.3791 0 0)
(17.1128 0.830181 0 17.6992 0 0)
(18.1399 0.695421 0 15.9348 0 0)
(18.3379 0.65862 0 16.2605 0 0)
(17.4666 1.10444 0 19.034 0 0)
(16.6868 1.07902 0 22.0293 0 0)
(14.8378 0.374334 0 25.6632 0 0)
(13.0222 0.0289291 0 29.5906 0 0)
(11.2109 -0.0383516 0 33.3235 0 0)
(9.48427 0.380146 0 34.9787 0 0)
(8.0095 1.1917 0 33.9355 0 0)
(7.14457 1.8094 0 30.6662 0 0)
(6.65343 1.95621 0 25.0628 0 0)
(6.66585 1.76524 0 18.9246 0 0)
(6.13714 0.586572 0 11.4856 0 0)
(4.4988 0.019235 0 13.389 0 0)
(5.23248 1.20894 0 28.9288 0 0)
(7.94536 3.20528 0 33.1423 0 0)
(11.0544 3.77565 0 31.7941 0 0)
(14.374 3.762 0 28.1265 0 0)
(16.5993 3.4807 0 22.295 0 0)
(18.0147 2.90504 0 17.6321 0 0)
(18.2617 1.79776 0 15.3739 0 0)
(18.0763 1.14719 0 15.6618 0 0)
(17.3715 0.368786 0 18.0534 0 0)
(16.564 -0.0880526 0 21.6147 0 0)
(14.9183 -0.512605 0 24.9694 0 0)
(13.2168 -1.13517 0 28.6178 0 0)
(11.5456 -0.844162 0 31.6382 0 0)
(9.81166 -0.123162 0 32.8194 0 0)
(8.35624 0.931681 0 31.8833 0 0)
(7.56867 1.75231 0 29.0237 0 0)
(7.31575 2.14987 0 23.8493 0 0)
(7.52655 2.10168 0 18.2505 0 0)
(7.04876 0.63121 0 11.0302 0 0)
(4.47416 -0.029832 0 12.8508 0 0)
(5.41993 1.95975 0 25.7258 0 0)
(8.36178 4.83613 0 31.2207 0 0)
(12.2981 5.80039 0 30.1243 0 0)
(15.2949 6.74299 0 27.1751 0 0)
(16.934 6.37956 0 22.1028 0 0)
(18.4426 4.84262 0 17.6106 0 0)
(18.7625 3.17799 0 15.2433 0 0)
(17.6591 1.70265 0 14.7049 0 0)
(17.1168 -0.251688 0 16.5575 0 0)
(16.4797 -1.24654 0 20.1503 0 0)
(14.8906 -2.11438 0 23.2001 0 0)
(13.6373 -2.44775 0 26.5131 0 0)
(11.9589 -1.92847 0 28.6325 0 0)
(10.4547 -0.826197 0 29.6752 0 0)
(9.02665 0.421719 0 28.6277 0 0)
(8.24669 1.49511 0 26.4864 0 0)
(8.18682 1.84354 0 21.8863 0 0)
(8.47642 2.05344 0 16.9435 0 0)
(8.22275 0.568428 0 10.1191 0 0)
(5.0599 -0.195941 0 12.6884 0 0)
(6.07649 2.20662 0 21.7862 0 0)
(10.097 6.06245 0 28.3267 0 0)
(13.9347 7.7317 0 27.8523 0 0)
(16.8076 8.6997 0 25.0071 0 0)
(19.2309 8.54854 0 20.8558 0 0)
(20.2742 7.26359 0 16.9356 0 0)
(20.6631 4.75411 0 14.2653 0 0)
(19.9176 2.39945 0 13.6154 0 0)
(19.0676 -0.647837 0 14.903 0 0)
(17.5902 -2.4064 0 17.9912 0 0)
(15.8245 -3.37223 0 20.8952 0 0)
(14.2985 -3.47583 0 23.1907 0 0)
(12.6332 -2.94411 0 24.746 0 0)
(11.058 -1.68477 0 25.1395 0 0)
(10.0385 -0.11552 0 24.4908 0 0)
(9.61735 1.12189 0 22.9699 0 0)
(9.48538 1.77081 0 19.145 0 0)
(9.94458 2.18677 0 15.0549 0 0)
(9.87974 0.387057 0 8.81525 0 0)
(6.0047 -0.0894803 0 12.854 0 0)
(6.83259 1.55435 0 17.6915 0 0)
(11.0972 6.25094 0 23.6129 0 0)
(15.3308 9.09566 0 24.7525 0 0)
(18.866 10.2431 0 22.8592 0 0)
(21.2996 9.93611 0 19.3641 0 0)
(23.0834 8.22659 0 15.9048 0 0)
(23.823 5.26359 0 13.74 0 0)
(23.1281 2.301 0 12.6971 0 0)
(21.5256 -0.996776 0 13.3581 0 0)
(20.0706 -3.1366 0 15.3826 0 0)
(18.254 -4.53234 0 17.313 0 0)
(16.4649 -4.65171 0 18.8346 0 0)
(14.4625 -3.7992 0 19.8717 0 0)
(13.0274 -2.60366 0 19.9367 0 0)
(12.0802 -0.864847 0 19.5613 0 0)
(11.7505 0.63207 0 18.6847 0 0)
(11.9712 1.62412 0 15.6687 0 0)
(12.2534 2.06832 0 12.4242 0 0)
(12.2762 0.364632 0 7.14338 0 0)
(6.566 0.350304 0 13.1483 0 0)
(7.19428 1.5975 0 14.509 0 0)
(11.3585 4.43107 0 18.2474 0 0)
(16.6123 8.36573 0 20.1579 0 0)
(21.0418 10.4592 0 19.7816 0 0)
(24.247 10.3224 0 17.1766 0 0)
(26.0336 8.35586 0 14.3309 0 0)
(26.2709 5.27882 0 12.2096 0 0)
(26.0723 2.20588 0 10.9536 0 0)
(25.3394 -1.07614 0 11.341 0 0)
(23.4372 -3.61203 0 12.7029 0 0)
(21.2616 -5.02278 0 13.6211 0 0)
(19.2346 -5.19941 0 14.3305 0 0)
(17.0773 -4.53058 0 14.867 0 0)
(15.3558 -3.07335 0 14.8822 0 0)
(14.3928 -1.48649 0 14.6285 0 0)
(14.1095 0.448736 0 14.0972 0 0)
(14.5016 1.55085 0 11.8508 0 0)
(14.8095 2.03625 0 9.57325 0 0)
(14.9289 0.223638 0 5.26585 0 0)
(7.80736 0.521145 0 11.3755 0 0)
(7.81575 0.796367 0 12.4402 0 0)
(11.4437 2.42433 0 14.5387 0 0)
(15.9335 5.9683 0 15.8197 0 0)
(20.7242 8.28518 0 16.1937 0 0)
(24.9222 8.91592 0 13.8419 0 0)
(27.2885 7.54324 0 11.8057 0 0)
(28.9517 4.77872 0 9.46196 0 0)
(29.1927 1.73812 0 8.3975 0 0)
(28.6144 -1.18168 0 8.60346 0 0)
(26.9975 -3.48405 0 9.68718 0 0)
(25.0205 -4.69881 0 9.63393 0 0)
(22.2542 -4.88787 0 9.92393 0 0)
(19.6913 -4.30668 0 10.3596 0 0)
(17.5772 -2.90914 0 9.92563 0 0)
(16.3559 -1.79556 0 9.75622 0 0)
(16.0013 -0.0644183 0 9.66865 0 0)
(16.5118 1.26434 0 8.03666 0 0)
(17.3848 1.77004 0 6.83664 0 0)
(17.8666 0.179111 0 3.9961 0 0)
(7.67947 0.480472 0 9.35579 0 0)
(8.13913 0.930062 0 9.18453 0 0)
(11.3747 1.34084 0 10.723 0 0)
(15.9042 3.02933 0 10.8638 0 0)
(19.2733 4.88632 0 11.1326 0 0)
(24.0167 5.39092 0 10.296 0 0)
(27.3911 5.36991 0 8.97787 0 0)
(30.228 3.4863 0 7.15313 0 0)
(31.7155 0.670673 0 6.22863 0 0)
(31.9232 -1.54532 0 6.30984 0 0)
(30.4151 -2.98891 0 6.28789 0 0)
(27.5578 -3.43064 0 6.17655 0 0)
(24.5867 -3.52237 0 6.53091 0 0)
(21.8282 -3.25287 0 6.65647 0 0)
(19.4532 -2.46064 0 6.26681 0 0)
(17.8276 -1.51668 0 5.7045 0 0)
(17.0091 -0.332954 0 5.37843 0 0)
(17.5138 0.463531 0 4.63194 0 0)
(18.7227 0.953521 0 4.25576 0 0)
(19.4228 -0.0895863 0 2.81791 0 0)
(7.79658 -0.18574 0 6.53494 0 0)
(7.7567 0.21712 0 7.3495 0 0)
(9.86355 0.505838 0 6.99435 0 0)
(12.5816 1.11949 0 7.0636 0 0)
(15.8502 1.83993 0 6.71293 0 0)
(19.8755 2.00268 0 6.38579 0 0)
(24.2846 1.71326 0 5.56963 0 0)
(27.7835 1.12741 0 4.59169 0 0)
(29.035 -0.0716378 0 4.06818 0 0)
(28.4211 -0.898798 0 3.83257 0 0)
(26.7812 -1.38057 0 3.63971 0 0)
(24.9731 -1.89949 0 3.54351 0 0)
(22.1681 -1.85912 0 3.40018 0 0)
(19.4943 -1.76647 0 3.44514 0 0)
(17.1496 -1.38706 0 3.03785 0 0)
(15.4498 -0.964172 0 2.75955 0 0)
(14.7455 -0.561249 0 2.38066 0 0)
(14.5588 -0.270618 0 2.01953 0 0)
(15.5058 0.117435 0 2.14904 0 0)
(15.2429 -0.29087 0 1.97308 0 0)
(4.81942 -0.0817148 0 3.8876 0 0)
(7.07717 -0.50581 0 8.9649 0 0)
(9.62473 -0.085241 0 8.54906 0 0)
(11.8442 0.186155 0 7.81622 0 0)
(13.0769 0.151991 0 6.53124 0 0)
(13.7079 -0.0461546 0 5.69129 0 0)
(14.8913 0.0441402 0 4.30079 0 0)
(15.6321 -0.145133 0 3.84714 0 0)
(15.7518 -0.310339 0 3.59149 0 0)
(15.0731 -0.115206 0 3.48137 0 0)
(14.578 -0.0439472 0 2.97789 0 0)
(13.5474 -0.19464 0 2.64671 0 0)
(12.1845 -0.167166 0 2.66203 0 0)
(10.3049 -0.129862 0 2.67024 0 0)
(8.93635 -0.0837354 0 2.18796 0 0)
(7.84413 -0.190613 0 1.96132 0 0)
(6.93755 -0.252418 0 1.73809 0 0)
(5.8429 -0.296991 0 1.50211 0 0)
(5.80474 -0.403554 0 1.44155 0 0)
(4.71148 -0.257318 0 1.39146 0 0)
)
;

boundaryField
{
    upperWall
    {
        type            calculated;
        value           uniform (0 0 0 0 0 0);
    }
    lowerWall
    {
        type            calculated;
        value           uniform (0 0 0 0 0 0);
    }
    inlet
    {
        type            calculated;
        value           nonuniform List<symmTensor> 
20
(
(8.5623e-09 5.93543e-10 5.06247e-11 8.59292e-09 3.41115e-10 9.18571e-09)
(1.00075e-08 -2.3835e-10 9.06401e-10 1.03034e-08 -8.65691e-10 8.73546e-09)
(1.00095e-08 -3.13982e-10 3.62499e-10 9.53656e-09 1.27582e-09 8.28064e-09)
(9.95486e-09 -5.16605e-10 4.74889e-10 9.443e-09 7.1256e-10 7.64633e-09)
(9.94377e-09 -3.42951e-11 2.53516e-10 8.69906e-09 -1.11352e-09 1.05632e-08)
(1.05291e-08 -2.21526e-10 -3.2301e-10 1.2076e-08 -4.17432e-11 9.75378e-09)
(9.60608e-09 4.0013e-10 -3.48579e-10 7.89789e-09 -6.72892e-10 1.01841e-08)
(8.34148e-09 9.50053e-10 -1.37705e-11 1.03225e-08 5.71449e-10 9.25681e-09)
(9.77603e-09 -3.13757e-10 -3.95385e-10 1.03019e-08 -1.00943e-09 8.91913e-09)
(1.06106e-08 6.18183e-10 6.35038e-10 1.11398e-08 -1.58206e-09 1.10858e-08)
(1.02322e-08 6.60165e-10 3.26299e-10 9.52533e-09 -1.37658e-11 1.00025e-08)
(9.41754e-09 -5.95513e-10 1.31188e-10 1.11231e-08 2.56912e-10 9.26806e-09)
(1.05316e-08 9.66442e-11 -8.5005e-10 1.01369e-08 4.63547e-10 9.36161e-09)
(1.0125e-08 -1.05036e-09 2.74038e-10 9.50578e-09 7.47325e-10 8.9315e-09)
(1.07352e-08 1.82631e-10 4.86519e-10 9.53838e-09 -2.80004e-10 9.73429e-09)
(8.94235e-09 -6.32199e-10 5.57121e-10 1.08006e-08 -8.10364e-10 9.74186e-09)
(8.7689e-09 -7.88674e-11 -1.1632e-09 9.68824e-09 -5.52351e-11 8.81887e-09)
(8.5953e-09 -1.10075e-09 1.07142e-09 1.14568e-08 -1.626e-09 9.62425e-09)
(8.80544e-09 -4.55404e-11 -6.47172e-10 9.67544e-09 1.01178e-11 1.06072e-08)
(9.96783e-09 8.77084e-10 5.11331e-10 9.24198e-09 -8.80491e-10 1.12179e-08)
)
;
    }
    outlet
    {
        type            calculated;
        value           nonuniform List<symmTensor> 
20
(
(6.76516 0.459541 0 1.83602 0 0)
(18.8222 1.22829 0 2.4327 0 0)
(21.4787 1.08348 0 3.3274 0 0)
(19.4334 0.933807 0 3.80291 0 0)
(15.5502 0.661848 0 4.65594 0 0)
(11.7341 0.442953 0 5.55152 0 0)
(8.59704 0.348305 0 6.76929 0 0)
(6.62495 0.332053 0 7.77298 0 0)
(5.70922 0.415437 0 8.88027 0 0)
(5.91318 0.380628 0 9.25543 0 0)
(6.13714 0.316542 0 9.65185 0 0)
(7.04876 0.208925 0 9.50505 0 0)
(8.22275 0.057761 0 8.54976 0 0)
(9.87974 -0.103834 0 7.11445 0 0)
(12.2762 -0.246222 0 5.48804 0 0)
(14.9289 -0.44903 0 3.87132 0 0)
(17.8666 -0.501448 0 2.67053 0 0)
(19.4228 -0.68634 0 2.0603 0 0)
(15.2429 -0.625262 0 1.48218 0 0)
(4.71148 -0.243068 0 1.06999 0 0)
)
;
    }
    frontAndBack
    {
        type            empty;
    }
}


// ************************************************************************* //
