/*--------------------------------*- C++ -*----------------------------------*\
  =========                 |
  \\      /  F ield         | OpenFOAM: The Open Source CFD Toolbox
   \\    /   O peration     | Website:  https://openfoam.org
    \\  /    A nd           | Version:  7
     \\/     M anipulation  |
\*---------------------------------------------------------------------------*/
FoamFile
{
    version     2.0;
    format      ascii;
    class       volScalarField;
    location    "1.205";
    object      rho_0;
}
// * * * * * * * * * * * * * * * * * * * * * * * * * * * * * * * * * * * * * //

dimensions      [1 -3 0 0 0 0 0];

internalField   nonuniform List<scalar> 
7920
(
1.23915
1.23838
1.2384
1.23799
1.23811
1.23781
1.23793
1.23773
1.23785
1.23772
1.23784
1.23775
1.23785
1.23779
1.23786
1.23781
1.23781
1.23781
1.23767
1.23801
1.23931
1.23884
1.2387
1.23812
1.23802
1.23758
1.23751
1.23724
1.23727
1.23717
1.23729
1.23729
1.23743
1.23747
1.23756
1.23763
1.23756
1.23776
1.23721
1.23833
1.23968
1.23941
1.2396
1.23899
1.23902
1.23842
1.23832
1.23779
1.23777
1.23748
1.2376
1.23751
1.23771
1.23778
1.23798
1.23817
1.2382
1.23853
1.23812
1.23884
1.23949
1.23926
1.23946
1.23896
1.239
1.23848
1.23834
1.2378
1.23765
1.23731
1.23731
1.2372
1.2373
1.23737
1.23755
1.2378
1.23797
1.23834
1.2383
1.2387
1.23963
1.23937
1.23967
1.23914
1.23927
1.23875
1.23869
1.23813
1.238
1.2376
1.23761
1.23743
1.23754
1.23752
1.23771
1.23788
1.23815
1.23847
1.23869
1.23895
1.23958
1.23927
1.23957
1.23902
1.23917
1.23864
1.2386
1.23804
1.23792
1.23751
1.23752
1.23733
1.23744
1.23739
1.23756
1.2377
1.23798
1.23828
1.23858
1.23882
1.23958
1.23927
1.23957
1.23902
1.23917
1.23864
1.2386
1.23804
1.23792
1.23751
1.23752
1.23733
1.23744
1.23739
1.23756
1.2377
1.23799
1.23828
1.23859
1.23882
1.23963
1.23937
1.23967
1.23914
1.23927
1.23875
1.23869
1.23813
1.238
1.2376
1.23761
1.23743
1.23754
1.23751
1.23772
1.23787
1.23817
1.23845
1.23871
1.23892
1.23949
1.23926
1.23946
1.23896
1.239
1.23848
1.23834
1.2378
1.23765
1.23731
1.23731
1.23719
1.23731
1.23736
1.23757
1.23776
1.23803
1.23825
1.23842
1.23855
1.23968
1.23941
1.2396
1.23899
1.23902
1.23842
1.23833
1.23779
1.23777
1.23748
1.2376
1.2375
1.23772
1.23776
1.23802
1.2381
1.23831
1.23833
1.23844
1.23832
1.23931
1.23884
1.2387
1.23812
1.23802
1.23758
1.23751
1.23724
1.23728
1.23717
1.2373
1.23728
1.23743
1.23746
1.23758
1.23758
1.23765
1.23759
1.2376
1.23744
1.23915
1.23838
1.2384
1.23799
1.23811
1.23781
1.23793
1.23772
1.23785
1.23772
1.23784
1.23775
1.23786
1.23779
1.23786
1.23779
1.23784
1.23776
1.23779
1.23768
1.23718
1.23721
1.23667
1.23676
1.23636
1.23648
1.23622
1.23638
1.23623
1.2364
1.23632
1.23648
1.23642
1.23655
1.23648
1.2366
1.23646
1.23665
1.23615
1.23753
1.23754
1.23767
1.23724
1.23716
1.23673
1.23656
1.2362
1.23613
1.23599
1.23607
1.23609
1.23628
1.23637
1.2366
1.23663
1.23687
1.23669
1.23709
1.2363
1.23767
1.23722
1.23745
1.2369
1.23696
1.23644
1.23635
1.23582
1.2357
1.23536
1.23542
1.23531
1.23553
1.23559
1.23593
1.23605
1.23648
1.23645
1.23694
1.23648
1.23728
1.23743
1.23769
1.23723
1.2373
1.23688
1.2368
1.23633
1.23615
1.2358
1.23576
1.23564
1.23576
1.23581
1.23607
1.23627
1.23667
1.23687
1.23731
1.23731
1.23772
1.23727
1.23757
1.23703
1.23718
1.23671
1.2367
1.23619
1.23606
1.23565
1.23564
1.23546
1.23559
1.23557
1.23581
1.23595
1.23635
1.2366
1.23708
1.23724
1.23762
1.23732
1.23768
1.23713
1.23731
1.23684
1.23685
1.23634
1.23622
1.23581
1.2358
1.23562
1.23574
1.23571
1.23593
1.23605
1.23643
1.2367
1.23717
1.23741
1.23778
1.23732
1.23768
1.23713
1.23731
1.23684
1.23685
1.23634
1.23622
1.23581
1.2358
1.23562
1.23574
1.23571
1.23593
1.23605
1.23643
1.2367
1.23717
1.23741
1.23778
1.23727
1.23757
1.23703
1.23718
1.23671
1.2367
1.23619
1.23606
1.23565
1.23564
1.23547
1.23558
1.23557
1.2358
1.23596
1.23634
1.23662
1.23706
1.23726
1.2376
1.23743
1.23769
1.23723
1.2373
1.23688
1.2368
1.23633
1.23615
1.2358
1.23576
1.23565
1.23576
1.23582
1.23605
1.23629
1.23664
1.23692
1.23724
1.2374
1.2376
1.23722
1.23745
1.2369
1.23696
1.23645
1.23635
1.23582
1.2357
1.23536
1.23542
1.23532
1.23552
1.2356
1.23591
1.2361
1.23641
1.23656
1.23675
1.23679
1.23682
1.23754
1.23767
1.23724
1.23716
1.23673
1.23656
1.23621
1.23612
1.23599
1.23607
1.2361
1.23627
1.23638
1.23657
1.23668
1.2368
1.23682
1.23683
1.23681
1.23666
1.23718
1.23721
1.23667
1.23676
1.23636
1.23648
1.23622
1.23638
1.23623
1.2364
1.23632
1.23648
1.23642
1.23655
1.2365
1.23657
1.23651
1.23654
1.23648
1.23647
1.23742
1.23734
1.23714
1.23691
1.2366
1.23639
1.23627
1.23631
1.23635
1.23644
1.23646
1.23653
1.23651
1.23659
1.23648
1.23662
1.23625
1.23687
1.23535
1.2386
1.23742
1.23737
1.2372
1.237
1.2367
1.23635
1.23599
1.23576
1.23562
1.23564
1.2357
1.23595
1.23612
1.2365
1.23652
1.23694
1.23654
1.23717
1.236
1.23733
1.23742
1.23736
1.23718
1.23702
1.23676
1.23645
1.23606
1.23575
1.23551
1.23542
1.23538
1.23549
1.23563
1.23596
1.23622
1.23666
1.23678
1.23719
1.237
1.23739
1.23742
1.23737
1.23719
1.23703
1.23679
1.2365
1.23613
1.23582
1.23558
1.23547
1.23542
1.23545
1.23555
1.23577
1.23606
1.23646
1.23677
1.23715
1.23728
1.23757
1.23741
1.23737
1.23718
1.23703
1.23678
1.23649
1.23612
1.23581
1.23557
1.23546
1.23541
1.23544
1.23551
1.2357
1.23597
1.23635
1.23669
1.23708
1.23728
1.23754
1.23741
1.23737
1.23719
1.23703
1.23679
1.2365
1.23613
1.23582
1.23559
1.23549
1.23544
1.23547
1.23554
1.23573
1.23598
1.23636
1.2367
1.23709
1.23731
1.23756
1.23741
1.23737
1.23719
1.23703
1.23679
1.2365
1.23613
1.23582
1.23559
1.23549
1.23544
1.23547
1.23554
1.23573
1.23598
1.23636
1.23669
1.23709
1.23731
1.23757
1.23741
1.23737
1.23718
1.23703
1.23678
1.23649
1.23612
1.23581
1.23557
1.23546
1.23541
1.23544
1.23551
1.2357
1.23597
1.23636
1.23668
1.23709
1.23727
1.23756
1.23742
1.23737
1.23719
1.23703
1.23679
1.2365
1.23613
1.23581
1.23558
1.23546
1.23542
1.23545
1.23555
1.23577
1.23607
1.23645
1.23678
1.23714
1.23728
1.23757
1.23742
1.23736
1.23719
1.23702
1.23676
1.23644
1.23606
1.23575
1.23551
1.23541
1.23539
1.23548
1.23565
1.23593
1.23626
1.2366
1.23687
1.23707
1.23715
1.2372
1.23742
1.23737
1.2372
1.237
1.2367
1.23635
1.236
1.23576
1.23562
1.23563
1.23572
1.23592
1.23616
1.23643
1.23663
1.23677
1.23681
1.23674
1.23666
1.23636
1.23742
1.23734
1.23714
1.23691
1.2366
1.23639
1.23627
1.23631
1.23636
1.23643
1.23646
1.23652
1.23653
1.23656
1.23653
1.23652
1.23646
1.23643
1.23636
1.23628
1.23742
1.23734
1.23714
1.23691
1.2366
1.23639
1.23627
1.23631
1.23635
1.23644
1.23646
1.23653
1.23651
1.23659
1.23648
1.23662
1.23625
1.23687
1.23535
1.2386
1.23742
1.23737
1.2372
1.237
1.2367
1.23635
1.23599
1.23576
1.23562
1.23564
1.2357
1.23595
1.23612
1.2365
1.23652
1.23694
1.23654
1.23717
1.236
1.23733
1.23742
1.23736
1.23718
1.23702
1.23676
1.23645
1.23606
1.23575
1.23551
1.23542
1.23538
1.23549
1.23563
1.23596
1.23622
1.23666
1.23678
1.23719
1.237
1.23739
1.23742
1.23737
1.23719
1.23703
1.23679
1.2365
1.23613
1.23582
1.23558
1.23547
1.23542
1.23545
1.23555
1.23577
1.23606
1.23646
1.23677
1.23715
1.23728
1.23757
1.23741
1.23737
1.23718
1.23703
1.23678
1.23649
1.23612
1.23581
1.23557
1.23546
1.23541
1.23544
1.23551
1.2357
1.23597
1.23635
1.23669
1.23708
1.23728
1.23754
1.23741
1.23737
1.23719
1.23703
1.23679
1.2365
1.23613
1.23582
1.23559
1.23549
1.23544
1.23547
1.23554
1.23573
1.23598
1.23636
1.2367
1.23709
1.23731
1.23756
1.23741
1.23737
1.23719
1.23703
1.23679
1.2365
1.23613
1.23582
1.23559
1.23549
1.23544
1.23547
1.23554
1.23573
1.23598
1.23636
1.23669
1.23709
1.23731
1.23757
1.23741
1.23737
1.23718
1.23703
1.23678
1.23649
1.23612
1.23581
1.23557
1.23546
1.23541
1.23544
1.23551
1.2357
1.23597
1.23636
1.23668
1.23709
1.23727
1.23756
1.23742
1.23737
1.23719
1.23703
1.23679
1.2365
1.23613
1.23581
1.23558
1.23546
1.23542
1.23545
1.23555
1.23577
1.23607
1.23645
1.23678
1.23714
1.23728
1.23757
1.23742
1.23736
1.23719
1.23702
1.23676
1.23644
1.23606
1.23575
1.23551
1.23541
1.23539
1.23548
1.23565
1.23593
1.23626
1.2366
1.23687
1.23707
1.23715
1.2372
1.23742
1.23737
1.2372
1.237
1.2367
1.23635
1.236
1.23576
1.23562
1.23563
1.23572
1.23592
1.23616
1.23643
1.23663
1.23677
1.23681
1.23674
1.23666
1.23636
1.23742
1.23734
1.23714
1.23691
1.2366
1.23639
1.23627
1.23631
1.23636
1.23643
1.23646
1.23652
1.23653
1.23656
1.23653
1.23652
1.23646
1.23643
1.23636
1.23628
1.23718
1.23721
1.23667
1.23676
1.23636
1.23648
1.23622
1.23638
1.23623
1.2364
1.23632
1.23648
1.23642
1.23655
1.23648
1.2366
1.23646
1.23665
1.23615
1.23753
1.23754
1.23767
1.23724
1.23716
1.23673
1.23656
1.2362
1.23613
1.23599
1.23607
1.23609
1.23628
1.23637
1.2366
1.23663
1.23687
1.23669
1.23709
1.2363
1.23767
1.23722
1.23745
1.2369
1.23696
1.23644
1.23635
1.23582
1.2357
1.23536
1.23542
1.23531
1.23553
1.23559
1.23593
1.23605
1.23648
1.23645
1.23694
1.23648
1.23728
1.23743
1.23769
1.23723
1.2373
1.23688
1.2368
1.23633
1.23615
1.2358
1.23576
1.23564
1.23576
1.23581
1.23607
1.23627
1.23667
1.23687
1.23731
1.23731
1.23772
1.23727
1.23757
1.23703
1.23718
1.23671
1.2367
1.23619
1.23606
1.23565
1.23564
1.23546
1.23559
1.23557
1.23581
1.23595
1.23635
1.2366
1.23708
1.23724
1.23762
1.23732
1.23768
1.23713
1.23731
1.23684
1.23685
1.23634
1.23622
1.23581
1.2358
1.23562
1.23574
1.23571
1.23593
1.23605
1.23643
1.2367
1.23717
1.23741
1.23778
1.23732
1.23768
1.23713
1.23731
1.23684
1.23685
1.23634
1.23622
1.23581
1.2358
1.23562
1.23574
1.23571
1.23593
1.23605
1.23643
1.2367
1.23717
1.23741
1.23778
1.23727
1.23757
1.23703
1.23718
1.23671
1.2367
1.23619
1.23606
1.23565
1.23564
1.23547
1.23558
1.23557
1.2358
1.23596
1.23634
1.23662
1.23706
1.23726
1.2376
1.23743
1.23769
1.23723
1.2373
1.23688
1.2368
1.23633
1.23615
1.2358
1.23576
1.23565
1.23576
1.23582
1.23605
1.23629
1.23664
1.23692
1.23724
1.2374
1.2376
1.23722
1.23745
1.2369
1.23696
1.23645
1.23635
1.23582
1.2357
1.23536
1.23542
1.23532
1.23552
1.2356
1.23591
1.2361
1.23641
1.23657
1.23675
1.23679
1.23682
1.23754
1.23767
1.23724
1.23716
1.23673
1.23656
1.23621
1.23612
1.23599
1.23607
1.2361
1.23627
1.23638
1.23657
1.23668
1.2368
1.23682
1.23683
1.23681
1.23666
1.23718
1.23721
1.23667
1.23676
1.23636
1.23648
1.23622
1.23638
1.23623
1.2364
1.23632
1.23648
1.23642
1.23655
1.2365
1.23657
1.23651
1.23654
1.23648
1.23647
1.23915
1.23838
1.2384
1.23799
1.23811
1.23781
1.23793
1.23773
1.23785
1.23772
1.23784
1.23775
1.23785
1.23779
1.23786
1.23781
1.23781
1.23781
1.23767
1.23801
1.23931
1.23884
1.2387
1.23812
1.23802
1.23758
1.23751
1.23724
1.23727
1.23717
1.23729
1.23729
1.23743
1.23747
1.23756
1.23763
1.23756
1.23776
1.23721
1.23833
1.23968
1.23941
1.2396
1.23899
1.23902
1.23842
1.23832
1.23779
1.23777
1.23748
1.2376
1.23751
1.23771
1.23778
1.23798
1.23817
1.2382
1.23853
1.23812
1.23884
1.23949
1.23926
1.23946
1.23896
1.239
1.23848
1.23834
1.2378
1.23765
1.23731
1.23731
1.2372
1.2373
1.23737
1.23755
1.2378
1.23797
1.23834
1.2383
1.2387
1.23963
1.23937
1.23967
1.23914
1.23927
1.23875
1.23869
1.23813
1.238
1.2376
1.23761
1.23743
1.23754
1.23752
1.23771
1.23788
1.23815
1.23847
1.23869
1.23895
1.23958
1.23927
1.23957
1.23902
1.23917
1.23864
1.2386
1.23804
1.23792
1.23751
1.23752
1.23733
1.23744
1.23739
1.23756
1.2377
1.23798
1.23828
1.23858
1.23882
1.23958
1.23927
1.23957
1.23902
1.23917
1.23864
1.2386
1.23804
1.23792
1.23751
1.23752
1.23733
1.23744
1.23739
1.23756
1.2377
1.23799
1.23828
1.23859
1.23882
1.23963
1.23937
1.23967
1.23914
1.23927
1.23875
1.23869
1.23813
1.238
1.2376
1.23761
1.23743
1.23754
1.23751
1.23772
1.23787
1.23817
1.23845
1.23871
1.23892
1.23949
1.23926
1.23946
1.23896
1.239
1.23848
1.23834
1.2378
1.23765
1.23731
1.23731
1.23719
1.23731
1.23736
1.23757
1.23776
1.23803
1.23825
1.23842
1.23855
1.23968
1.23941
1.2396
1.23899
1.23902
1.23842
1.23833
1.23779
1.23777
1.23748
1.2376
1.2375
1.23772
1.23776
1.23802
1.2381
1.23831
1.23833
1.23844
1.23832
1.23931
1.23884
1.2387
1.23812
1.23802
1.23758
1.23751
1.23724
1.23728
1.23717
1.2373
1.23728
1.23743
1.23746
1.23758
1.23758
1.23765
1.23759
1.2376
1.23744
1.23915
1.23838
1.2384
1.23799
1.23811
1.23781
1.23793
1.23772
1.23785
1.23772
1.23784
1.23775
1.23786
1.23779
1.23786
1.23779
1.23784
1.23776
1.23779
1.23768
1.22871
1.22176
1.21758
1.21422
1.21158
1.20892
1.20663
1.20446
1.20276
1.20123
1.2
1.1988
1.19781
1.19687
1.19617
1.19556
1.19516
1.19482
1.19462
1.19442
1.19431
1.19417
1.19409
1.19397
1.1939
1.19379
1.19371
1.1936
1.19352
1.19341
1.19333
1.19322
1.19314
1.19303
1.19294
1.19283
1.19275
1.19263
1.19255
1.19244
1.19235
1.19224
1.19215
1.19204
1.19195
1.19184
1.19174
1.19163
1.19154
1.19143
1.19134
1.19123
1.19114
1.19103
1.19093
1.19082
1.19073
1.19062
1.19052
1.19041
1.19032
1.19021
1.19011
1.19
1.18991
1.1898
1.1897
1.18959
1.18949
1.18939
1.18929
1.18918
1.18908
1.18897
1.18887
1.18877
1.18867
1.18856
1.18846
1.18836
1.18825
1.18815
1.18805
1.18795
1.18784
1.18775
1.18765
1.18754
1.18746
1.18736
1.23201
1.22546
1.2213
1.21801
1.21545
1.21288
1.2106
1.2084
1.20665
1.20508
1.20385
1.20264
1.20164
1.20067
1.19993
1.19927
1.19883
1.19846
1.19824
1.19802
1.1979
1.19776
1.19768
1.19755
1.19748
1.19737
1.19729
1.19718
1.19711
1.19699
1.19691
1.1968
1.19672
1.19661
1.19653
1.19641
1.19633
1.19622
1.19613
1.19602
1.19593
1.19582
1.19573
1.19562
1.19553
1.19542
1.19533
1.19522
1.19512
1.19501
1.19492
1.19481
1.19472
1.19461
1.19451
1.1944
1.19431
1.1942
1.1941
1.194
1.1939
1.19379
1.19369
1.19359
1.19349
1.19338
1.19328
1.19317
1.19308
1.19297
1.19287
1.19276
1.19266
1.19256
1.19246
1.19235
1.19225
1.19214
1.19204
1.19194
1.19183
1.19173
1.19163
1.19153
1.19142
1.19132
1.19122
1.19111
1.19104
1.19094
1.23622
1.23106
1.22724
1.22414
1.22188
1.21956
1.2174
1.21517
1.21333
1.21171
1.21046
1.20927
1.20827
1.20725
1.20643
1.20567
1.20514
1.20468
1.2044
1.20414
1.204
1.20384
1.20375
1.20362
1.20355
1.20343
1.20336
1.20324
1.20317
1.20305
1.20297
1.20286
1.20278
1.20266
1.20258
1.20247
1.20238
1.20227
1.20218
1.20207
1.20198
1.20187
1.20178
1.20167
1.20158
1.20147
1.20138
1.20127
1.20117
1.20106
1.20097
1.20086
1.20077
1.20066
1.20056
1.20045
1.20036
1.20025
1.20015
1.20004
1.19994
1.19984
1.19974
1.19963
1.19953
1.19942
1.19932
1.19922
1.19912
1.19901
1.19891
1.1988
1.1987
1.1986
1.1985
1.19839
1.19829
1.19818
1.19808
1.19798
1.19787
1.19777
1.19766
1.19757
1.19746
1.19736
1.19727
1.19715
1.19708
1.19699
1.23796
1.23451
1.23132
1.22866
1.22686
1.22502
1.22316
1.22101
1.21914
1.21749
1.21628
1.21516
1.21419
1.21317
1.21228
1.21142
1.21078
1.21024
1.20989
1.20958
1.20941
1.20923
1.20912
1.20899
1.20891
1.2088
1.20872
1.20861
1.20853
1.20842
1.20834
1.20823
1.20814
1.20803
1.20795
1.20783
1.20775
1.20764
1.20755
1.20744
1.20735
1.20724
1.20715
1.20703
1.20694
1.20683
1.20674
1.20663
1.20654
1.20643
1.20633
1.20622
1.20613
1.20602
1.20592
1.20581
1.20571
1.20561
1.20551
1.2054
1.2053
1.20519
1.20509
1.20499
1.20489
1.20478
1.20468
1.20457
1.20447
1.20436
1.20426
1.20415
1.20405
1.20395
1.20385
1.20374
1.20364
1.20353
1.20343
1.20332
1.20322
1.20312
1.20301
1.20291
1.2028
1.2027
1.20261
1.20249
1.20241
1.20233
1.23914
1.23688
1.2344
1.2322
1.23094
1.22963
1.22817
1.22622
1.22441
1.22279
1.22165
1.22064
1.21977
1.21877
1.21786
1.21694
1.21623
1.2156
1.21519
1.21484
1.21464
1.21444
1.21432
1.21418
1.2141
1.21398
1.21391
1.21379
1.21372
1.2136
1.21352
1.21341
1.21333
1.21321
1.21313
1.21301
1.21293
1.21281
1.21273
1.21261
1.21253
1.21241
1.21232
1.21221
1.21212
1.21201
1.21191
1.2118
1.21171
1.2116
1.2115
1.21139
1.2113
1.21119
1.21109
1.21098
1.21088
1.21077
1.21068
1.21057
1.21047
1.21036
1.21026
1.21015
1.21005
1.20994
1.20984
1.20973
1.20963
1.20953
1.20942
1.20932
1.20922
1.20911
1.20901
1.2089
1.2088
1.20869
1.20859
1.20848
1.20838
1.20827
1.20817
1.20807
1.20796
1.20786
1.20776
1.20765
1.20757
1.20748
1.23929
1.2377
1.23577
1.23404
1.23328
1.2325
1.23145
1.22979
1.22813
1.22665
1.22564
1.22478
1.22403
1.22312
1.22225
1.22133
1.22058
1.21993
1.21949
1.21912
1.2189
1.21869
1.21857
1.21843
1.21835
1.21823
1.21815
1.21804
1.21796
1.21785
1.21777
1.21765
1.21757
1.21746
1.21737
1.21726
1.21717
1.21706
1.21697
1.21686
1.21677
1.21666
1.21657
1.21645
1.21636
1.21625
1.21616
1.21605
1.21595
1.21584
1.21575
1.21563
1.21554
1.21543
1.21533
1.21522
1.21512
1.21501
1.21492
1.21481
1.21471
1.2146
1.2145
1.21439
1.21429
1.21418
1.21408
1.21397
1.21387
1.21376
1.21366
1.21355
1.21345
1.21334
1.21324
1.21313
1.21303
1.21292
1.21282
1.21271
1.21261
1.2125
1.2124
1.21229
1.21219
1.21208
1.21198
1.21187
1.21178
1.21169
1.23928
1.23798
1.23646
1.23516
1.23482
1.23443
1.23371
1.23232
1.2309
1.22962
1.22879
1.22809
1.22748
1.22668
1.22587
1.225
1.22429
1.22366
1.22323
1.22286
1.22265
1.22244
1.22232
1.22218
1.2221
1.22198
1.2219
1.22178
1.22171
1.22159
1.22151
1.2214
1.22132
1.2212
1.22112
1.22101
1.22092
1.22081
1.22072
1.2206
1.22051
1.2204
1.22031
1.2202
1.22011
1.21999
1.2199
1.21979
1.21969
1.21958
1.21949
1.21937
1.21928
1.21917
1.21907
1.21896
1.21886
1.21875
1.21865
1.21854
1.21844
1.21833
1.21823
1.21812
1.21802
1.21791
1.21781
1.2177
1.2176
1.21749
1.21739
1.21728
1.21718
1.21707
1.21697
1.21686
1.21676
1.21665
1.21655
1.21644
1.21634
1.21623
1.21612
1.21602
1.21592
1.21581
1.21571
1.2156
1.2155
1.2154
1.23921
1.23802
1.23684
1.23594
1.23591
1.23573
1.23523
1.23407
1.23293
1.23189
1.23128
1.23072
1.23024
1.22954
1.22884
1.22807
1.22745
1.22688
1.2265
1.22616
1.22596
1.22577
1.22565
1.22551
1.22543
1.22531
1.22524
1.22512
1.22504
1.22493
1.22485
1.22473
1.22465
1.22453
1.22445
1.22433
1.22425
1.22413
1.22404
1.22393
1.22384
1.22372
1.22363
1.22352
1.22343
1.22331
1.22322
1.22311
1.22301
1.2229
1.2228
1.22269
1.22259
1.22248
1.22239
1.22227
1.22218
1.22206
1.22197
1.22185
1.22176
1.22164
1.22154
1.22143
1.22133
1.22122
1.22112
1.22101
1.22091
1.2208
1.2207
1.22059
1.22049
1.22038
1.22027
1.22017
1.22006
1.21995
1.21985
1.21974
1.21964
1.21953
1.21943
1.21932
1.21922
1.21911
1.21901
1.2189
1.2188
1.21871
1.23854
1.23752
1.23668
1.23616
1.2363
1.23621
1.23582
1.23491
1.23407
1.23332
1.23292
1.23251
1.23213
1.23156
1.23099
1.23036
1.22987
1.22941
1.2291
1.22882
1.22866
1.22848
1.22838
1.22825
1.22817
1.22805
1.22798
1.22786
1.22778
1.22767
1.22758
1.22747
1.22739
1.22727
1.22718
1.22707
1.22698
1.22686
1.22678
1.22666
1.22657
1.22645
1.22636
1.22625
1.22615
1.22604
1.22594
1.22583
1.22573
1.22562
1.22552
1.22541
1.22531
1.2252
1.2251
1.22499
1.22489
1.22478
1.22468
1.22457
1.22446
1.22435
1.22425
1.22414
1.22404
1.22393
1.22382
1.22371
1.22361
1.2235
1.2234
1.22329
1.22318
1.22307
1.22297
1.22286
1.22275
1.22264
1.22254
1.22243
1.22232
1.22221
1.22211
1.222
1.22189
1.22179
1.22168
1.22158
1.22147
1.22137
1.23846
1.23766
1.2372
1.23689
1.23708
1.23694
1.23664
1.23596
1.23543
1.23494
1.2347
1.2344
1.23412
1.23368
1.23328
1.23281
1.23247
1.23212
1.23191
1.23169
1.23156
1.2314
1.23131
1.23119
1.23111
1.23099
1.23091
1.23079
1.23071
1.23059
1.23051
1.23039
1.2303
1.23018
1.2301
1.22998
1.22989
1.22977
1.22968
1.22956
1.22947
1.22935
1.22926
1.22914
1.22904
1.22893
1.22883
1.22871
1.22861
1.2285
1.2284
1.22828
1.22818
1.22807
1.22797
1.22785
1.22775
1.22764
1.22753
1.22742
1.22731
1.2272
1.2271
1.22698
1.22688
1.22676
1.22666
1.22655
1.22644
1.22633
1.22622
1.22611
1.226
1.22589
1.22578
1.22567
1.22556
1.22545
1.22534
1.22523
1.22512
1.22501
1.2249
1.22479
1.22469
1.22457
1.22447
1.22436
1.22425
1.22415
1.23765
1.23719
1.237
1.23683
1.23694
1.23679
1.2366
1.23619
1.23592
1.23564
1.23551
1.2353
1.23513
1.23484
1.2346
1.23431
1.23411
1.23388
1.23374
1.23357
1.23347
1.23334
1.23326
1.23313
1.23305
1.23293
1.23285
1.23273
1.23264
1.23252
1.23244
1.23231
1.23223
1.2321
1.23201
1.23189
1.2318
1.23168
1.23158
1.23146
1.23136
1.23124
1.23114
1.23102
1.23092
1.2308
1.2307
1.23058
1.23048
1.23036
1.23026
1.23014
1.23003
1.22992
1.22981
1.22969
1.22959
1.22947
1.22936
1.22924
1.22914
1.22902
1.22891
1.22879
1.22868
1.22857
1.22846
1.22834
1.22823
1.22811
1.228
1.22789
1.22777
1.22766
1.22755
1.22743
1.22732
1.2272
1.22709
1.22697
1.22686
1.22675
1.22663
1.22652
1.22641
1.22629
1.22618
1.22607
1.22596
1.22584
1.23807
1.2378
1.23776
1.23759
1.23762
1.23747
1.2374
1.23717
1.23708
1.2369
1.23684
1.23668
1.2366
1.23642
1.23631
1.23614
1.23604
1.23588
1.23579
1.23566
1.23558
1.23545
1.23537
1.23524
1.23516
1.23504
1.23496
1.23483
1.23474
1.23462
1.23453
1.2344
1.23431
1.23418
1.23409
1.23396
1.23387
1.23374
1.23364
1.23352
1.23342
1.23329
1.23319
1.23306
1.23296
1.23284
1.23273
1.23261
1.2325
1.23238
1.23227
1.23215
1.23204
1.23192
1.23181
1.23169
1.23158
1.23146
1.23135
1.23123
1.23112
1.23099
1.23088
1.23076
1.23065
1.23053
1.23041
1.23029
1.23018
1.23006
1.22995
1.22983
1.22971
1.22959
1.22948
1.22936
1.22924
1.22912
1.22901
1.22889
1.22877
1.22865
1.22854
1.22842
1.2283
1.22818
1.22807
1.22795
1.22784
1.22772
1.22516
1.21764
1.21323
1.20995
1.20719
1.20461
1.20228
1.2002
1.1985
1.19701
1.19577
1.1946
1.19362
1.19272
1.19204
1.19147
1.1911
1.19078
1.19059
1.19041
1.19031
1.19018
1.19011
1.19
1.18993
1.18982
1.18975
1.18964
1.18957
1.18946
1.18938
1.18927
1.18919
1.18908
1.189
1.18889
1.18881
1.1887
1.18861
1.1885
1.18842
1.18831
1.18822
1.18811
1.18802
1.18791
1.18782
1.18771
1.18762
1.18751
1.18741
1.1873
1.18721
1.1871
1.18701
1.1869
1.1868
1.1867
1.1866
1.18649
1.18639
1.18629
1.18619
1.18608
1.18598
1.18588
1.18578
1.18567
1.18557
1.18547
1.18537
1.18526
1.18516
1.18505
1.18495
1.18485
1.18474
1.18464
1.18453
1.18443
1.18432
1.18423
1.18411
1.18402
1.1839
1.18381
1.18369
1.18359
1.18347
1.18336
1.23156
1.22504
1.22072
1.21749
1.21486
1.21235
1.21003
1.20787
1.20608
1.20454
1.20327
1.20209
1.20108
1.20012
1.19938
1.19873
1.19829
1.19792
1.1977
1.19749
1.19738
1.19724
1.19716
1.19704
1.19698
1.19687
1.1968
1.19669
1.19661
1.1965
1.19643
1.19632
1.19624
1.19613
1.19604
1.19593
1.19585
1.19574
1.19565
1.19554
1.19546
1.19534
1.19526
1.19515
1.19506
1.19495
1.19485
1.19474
1.19465
1.19454
1.19445
1.19434
1.19425
1.19414
1.19404
1.19393
1.19384
1.19373
1.19363
1.19353
1.19343
1.19332
1.19322
1.19312
1.19302
1.19291
1.19281
1.1927
1.1926
1.1925
1.1924
1.19229
1.19219
1.19208
1.19198
1.19188
1.19177
1.19167
1.19156
1.19146
1.19135
1.19126
1.19114
1.19105
1.19093
1.19084
1.19072
1.19062
1.1905
1.19039
1.23479
1.23009
1.22623
1.22332
1.22103
1.21884
1.21666
1.21448
1.21261
1.211
1.20974
1.20857
1.20755
1.20655
1.20571
1.20496
1.20442
1.20396
1.20368
1.20343
1.20328
1.20313
1.20304
1.20292
1.20285
1.20274
1.20267
1.20256
1.20249
1.20238
1.2023
1.20219
1.20211
1.202
1.20192
1.20181
1.20173
1.20162
1.20153
1.20142
1.20133
1.20122
1.20113
1.20102
1.20093
1.20082
1.20073
1.20062
1.20053
1.20042
1.20033
1.20022
1.20012
1.20001
1.19992
1.19981
1.19971
1.1996
1.19951
1.1994
1.1993
1.19919
1.1991
1.19899
1.19889
1.19878
1.19868
1.19857
1.19847
1.19837
1.19827
1.19816
1.19806
1.19795
1.19785
1.19774
1.19764
1.19754
1.19743
1.19733
1.19722
1.19712
1.19701
1.19691
1.19679
1.19669
1.19658
1.19648
1.19636
1.19626
1.23714
1.23417
1.23109
1.22866
1.22691
1.22521
1.22336
1.22127
1.21937
1.21772
1.21648
1.21538
1.21441
1.21339
1.21248
1.21162
1.21096
1.2104
1.21004
1.20973
1.20955
1.20937
1.20927
1.20914
1.20907
1.20895
1.20888
1.20877
1.2087
1.20859
1.20851
1.2084
1.20832
1.20821
1.20813
1.20802
1.20793
1.20782
1.20773
1.20762
1.20753
1.20742
1.20733
1.20722
1.20713
1.20702
1.20693
1.20682
1.20673
1.20662
1.20652
1.20641
1.20632
1.20621
1.20611
1.206
1.20591
1.2058
1.2057
1.20559
1.20549
1.20538
1.20528
1.20518
1.20508
1.20497
1.20487
1.20476
1.20466
1.20455
1.20445
1.20434
1.20424
1.20414
1.20403
1.20393
1.20382
1.20372
1.20361
1.20351
1.2034
1.2033
1.20319
1.20309
1.20298
1.20287
1.20276
1.20265
1.20254
1.20244
1.23766
1.23591
1.23354
1.2317
1.23053
1.22946
1.22806
1.22622
1.22438
1.22278
1.22162
1.22063
1.21976
1.2188
1.21787
1.21695
1.21621
1.21557
1.21514
1.21478
1.21457
1.21437
1.21426
1.21412
1.21404
1.21393
1.21386
1.21375
1.21367
1.21356
1.21348
1.21337
1.21329
1.21318
1.2131
1.21299
1.2129
1.21279
1.21271
1.21259
1.21251
1.21239
1.2123
1.21219
1.2121
1.21199
1.2119
1.21179
1.21169
1.21158
1.21149
1.21138
1.21128
1.21117
1.21108
1.21097
1.21087
1.21076
1.21066
1.21055
1.21045
1.21035
1.21025
1.21014
1.21004
1.20993
1.20983
1.20972
1.20962
1.20951
1.20941
1.2093
1.2092
1.20909
1.20899
1.20888
1.20878
1.20867
1.20856
1.20846
1.20835
1.20825
1.20814
1.20804
1.20792
1.20782
1.20771
1.2076
1.20748
1.20738
1.23808
1.23697
1.23513
1.23378
1.23315
1.23262
1.23168
1.23012
1.22846
1.22698
1.22595
1.22512
1.22438
1.2235
1.22262
1.22169
1.22091
1.22024
1.21977
1.21938
1.21915
1.21893
1.21881
1.21867
1.21859
1.21847
1.2184
1.21829
1.21821
1.2181
1.21802
1.21791
1.21783
1.21772
1.21764
1.21752
1.21744
1.21733
1.21724
1.21713
1.21704
1.21693
1.21684
1.21672
1.21663
1.21652
1.21643
1.21632
1.21622
1.21611
1.21602
1.2159
1.21581
1.2157
1.2156
1.21549
1.21539
1.21528
1.21519
1.21508
1.21498
1.21487
1.21477
1.21466
1.21456
1.21445
1.21435
1.21424
1.21414
1.21403
1.21393
1.21382
1.21372
1.21361
1.2135
1.2134
1.21329
1.21319
1.21308
1.21297
1.21287
1.21276
1.21265
1.21255
1.21244
1.21233
1.21223
1.21212
1.21201
1.21191
1.23807
1.23719
1.23571
1.23477
1.23456
1.23443
1.23384
1.23257
1.23115
1.22988
1.22905
1.22838
1.22779
1.22703
1.22622
1.22534
1.2246
1.22395
1.22349
1.22311
1.22288
1.22266
1.22254
1.2224
1.22232
1.2222
1.22213
1.22202
1.22194
1.22183
1.22175
1.22164
1.22156
1.22145
1.22136
1.22125
1.22117
1.22105
1.22097
1.22085
1.22076
1.22065
1.22056
1.22045
1.22036
1.22024
1.22015
1.22004
1.21994
1.21983
1.21974
1.21963
1.21953
1.21942
1.21932
1.21921
1.21911
1.219
1.2189
1.21879
1.2187
1.21859
1.21849
1.21838
1.21827
1.21817
1.21806
1.21796
1.21785
1.21774
1.21764
1.21753
1.21743
1.21732
1.21722
1.21711
1.21701
1.2169
1.21679
1.21669
1.21658
1.21647
1.21637
1.21626
1.21615
1.21604
1.21594
1.21583
1.21571
1.21561
1.2377
1.23687
1.23569
1.23511
1.23519
1.23527
1.23486
1.23385
1.23271
1.23173
1.23112
1.23063
1.23017
1.22952
1.22882
1.22805
1.2274
1.22682
1.22642
1.22608
1.22587
1.22568
1.22557
1.22543
1.22535
1.22524
1.22516
1.22505
1.22498
1.22487
1.22479
1.22468
1.22459
1.22448
1.2244
1.22429
1.2242
1.22409
1.224
1.22389
1.2238
1.22368
1.22359
1.22348
1.22339
1.22327
1.22318
1.22307
1.22297
1.22286
1.22277
1.22265
1.22256
1.22245
1.22235
1.22224
1.22214
1.22203
1.22193
1.22182
1.22172
1.22161
1.22151
1.2214
1.2213
1.22119
1.22109
1.22098
1.22087
1.22077
1.22066
1.22055
1.22045
1.22034
1.22024
1.22013
1.22002
1.21992
1.21981
1.2197
1.21959
1.21949
1.21938
1.21927
1.21916
1.21905
1.21894
1.21884
1.21872
1.21861
1.23759
1.23678
1.23595
1.23565
1.23588
1.23597
1.23564
1.23482
1.23398
1.23328
1.23288
1.23252
1.23216
1.23162
1.23105
1.23041
1.2299
1.22942
1.2291
1.22882
1.22865
1.22848
1.22838
1.22825
1.22817
1.22806
1.22798
1.22787
1.22779
1.22768
1.2276
1.22749
1.22741
1.22729
1.22721
1.22709
1.22701
1.22689
1.22681
1.22669
1.2266
1.22649
1.2264
1.22628
1.22619
1.22607
1.22598
1.22587
1.22577
1.22566
1.22556
1.22545
1.22535
1.22524
1.22514
1.22503
1.22493
1.22482
1.22472
1.22461
1.22451
1.2244
1.22429
1.22418
1.22408
1.22397
1.22387
1.22376
1.22366
1.22355
1.22344
1.22333
1.22323
1.22312
1.22301
1.2229
1.2228
1.22269
1.22258
1.22247
1.22237
1.22226
1.22215
1.22204
1.22193
1.22182
1.22171
1.2216
1.22149
1.22138
1.23665
1.23609
1.23559
1.23553
1.23577
1.2358
1.23551
1.23491
1.23436
1.23393
1.2337
1.23344
1.23317
1.23274
1.23232
1.23185
1.23148
1.23113
1.2309
1.23068
1.23055
1.23041
1.23032
1.2302
1.23012
1.23001
1.22993
1.22982
1.22974
1.22963
1.22955
1.22943
1.22935
1.22924
1.22915
1.22903
1.22895
1.22883
1.22874
1.22863
1.22853
1.22842
1.22832
1.22821
1.22812
1.228
1.2279
1.22779
1.22769
1.22758
1.22748
1.22737
1.22727
1.22715
1.22705
1.22694
1.22684
1.22672
1.22662
1.22651
1.22641
1.22629
1.22619
1.22608
1.22597
1.22586
1.22576
1.22565
1.22554
1.22543
1.22532
1.22521
1.2251
1.22499
1.22489
1.22478
1.22467
1.22456
1.22445
1.22434
1.22423
1.22412
1.22401
1.2239
1.22378
1.22367
1.22356
1.22345
1.22333
1.22322
1.23693
1.23662
1.2364
1.23639
1.23654
1.23648
1.23626
1.23586
1.23557
1.23531
1.23518
1.23499
1.2348
1.2345
1.23423
1.23391
1.23368
1.23344
1.23329
1.23312
1.23302
1.23289
1.23281
1.23269
1.23262
1.2325
1.23242
1.2323
1.23222
1.23211
1.23202
1.2319
1.23182
1.2317
1.23161
1.23149
1.2314
1.23128
1.23119
1.23107
1.23097
1.23086
1.23076
1.23064
1.23054
1.23042
1.23033
1.23021
1.23011
1.22999
1.22989
1.22977
1.22967
1.22955
1.22945
1.22933
1.22923
1.22911
1.229
1.22889
1.22878
1.22867
1.22856
1.22844
1.22834
1.22822
1.22811
1.228
1.22789
1.22777
1.22767
1.22755
1.22744
1.22733
1.22722
1.2271
1.22699
1.22688
1.22676
1.22665
1.22654
1.22642
1.22631
1.2262
1.22608
1.22597
1.22585
1.22574
1.22562
1.2255
1.23647
1.23635
1.23627
1.23624
1.23627
1.23619
1.23609
1.2359
1.23579
1.23565
1.23558
1.23545
1.23535
1.23518
1.23506
1.23488
1.23477
1.23462
1.23453
1.23439
1.23432
1.23419
1.23412
1.23399
1.23392
1.2338
1.23371
1.23359
1.23351
1.23339
1.2333
1.23317
1.23308
1.23296
1.23287
1.23274
1.23265
1.23252
1.23243
1.2323
1.2322
1.23208
1.23198
1.23186
1.23175
1.23163
1.23153
1.23141
1.2313
1.23118
1.23107
1.23095
1.23084
1.23072
1.23061
1.23049
1.23038
1.23026
1.23015
1.23003
1.22992
1.2298
1.22969
1.22957
1.22946
1.22934
1.22923
1.22911
1.229
1.22888
1.22876
1.22864
1.22853
1.22841
1.2283
1.22818
1.22806
1.22794
1.22783
1.22771
1.22759
1.22747
1.22735
1.22724
1.22712
1.227
1.22688
1.22676
1.22664
1.22652
1.22267
1.21309
1.20801
1.20436
1.20133
1.1986
1.19623
1.19417
1.19248
1.19098
1.18972
1.18855
1.18758
1.18673
1.18611
1.18561
1.18528
1.185
1.18484
1.18468
1.18459
1.18448
1.18441
1.1843
1.18423
1.18413
1.18406
1.18395
1.18388
1.18377
1.18369
1.18359
1.18351
1.1834
1.18332
1.18321
1.18312
1.18301
1.18293
1.18282
1.18273
1.18262
1.18253
1.18243
1.18233
1.18223
1.18214
1.18203
1.18193
1.18183
1.18173
1.18163
1.18153
1.18142
1.18133
1.18122
1.18113
1.18102
1.18092
1.18082
1.18072
1.18061
1.18051
1.18041
1.18031
1.1802
1.1801
1.18
1.1799
1.17979
1.17969
1.17959
1.17949
1.17938
1.17928
1.17918
1.17907
1.17897
1.17887
1.17877
1.17866
1.17856
1.17845
1.17836
1.17823
1.17815
1.17803
1.17793
1.17781
1.17769
1.23238
1.22512
1.22017
1.21659
1.21367
1.21098
1.20854
1.20632
1.20449
1.2029
1.20159
1.20036
1.19932
1.19837
1.19763
1.19701
1.19659
1.19623
1.19603
1.19583
1.19572
1.19559
1.19552
1.1954
1.19534
1.19523
1.19516
1.19505