/*--------------------------------*- C++ -*----------------------------------*\
  =========                 |
  \\      /  F ield         | OpenFOAM: The Open Source CFD Toolbox
   \\    /   O peration     | Website:  https://openfoam.org
    \\  /    A nd           | Version:  7
     \\/     M anipulation  |
\*---------------------------------------------------------------------------*/
FoamFile
{
    version     2.0;
    format      ascii;
    class       surfaceScalarField;
    location    "0.3875";
    object      phi_0;
}
// * * * * * * * * * * * * * * * * * * * * * * * * * * * * * * * * * * * * * //

dimensions      [1 0 -1 0 0 0 0];

internalField   nonuniform List<scalar> 
21708
(
0.00129901
0.00100896
1.31723e-05
0.000896558
0.000390099
5.71685e-06
0.000685758
0.000194127
1.12373e-05
0.000596282
7.88026e-05
6.24149e-06
0.000544663
3.73677e-05
1.03685e-05
0.000514676
1.97491e-05
6.44438e-06
0.000492071
8.97271e-06
9.66226e-06
0.000476431
4.81724e-06
6.58522e-06
0.000462603
2.61971e-07
9.10122e-06
0.000452746
-1.41894e-06
6.67133e-06
0.000444018
-4.55197e-06
8.625e-06
0.000438655
-5.97917e-06
6.70209e-06
0.000434356
-8.49112e-06
8.20736e-06
0.000432552
-9.39346e-06
6.68786e-06
0.000431269
-1.09624e-05
7.8293e-06
0.000431003
-1.0681e-05
6.63453e-06
0.000429606
-1.02787e-05
7.47288e-06
0.000429974
-1.10007e-05
6.54661e-06
0.000381174
3.75887e-05
7.23468e-06
2.09558e-05
6.13337e-06
0.000350128
0.00225817
0.00106924
2.34365e-06
0.00205974
0.000586052
-4.49749e-06
0.00184806
0.000398644
1.11708e-06
0.00170052
0.000225098
-3.73691e-06
0.00159448
0.00013862
4.88567e-07
0.00152215
9.15316e-05
-3.38173e-06
0.00146467
6.27838e-05
-1.19925e-07
0.00142192
4.69191e-05
-3.18105e-06
0.00138358
3.529e-05
-6.44263e-07
0.0013544
2.66795e-05
-3.07023e-06
0.00132835
1.82978e-05
-1.10486e-06
0.00131044
1.05645e-05
-3.02873e-06
0.0012953
3.74385e-06
-1.51773e-06
0.00128596
-1.42175e-06
-3.0391e-06
0.00127807
-5.55805e-06
-1.89548e-06
0.00127156
-5.44222e-06
-3.08869e-06
0.00127083
-1.15718e-05
-2.27128e-06
0.0012602
-1.44262e-06
-3.16691e-06
0.00130581
-9.37725e-06
-2.75431e-06
-3.69279e-05
-3.7056e-06
0.00136334
0.00258701
0.000794147
9.12419e-06
0.00267139
0.000491647
2.76985e-06
0.00265706
0.000398377
8.01428e-06
0.00261452
0.000259079
3.04956e-06
0.00255987
0.00018121
7.18694e-06
0.00251081
0.000132767
3.26163e-06
0.00246291
9.99733e-05
6.47975e-06
0.00242302
7.96843e-05
3.39282e-06
0.00238477
6.43245e-05
5.90715e-06
0.00235297
5.18147e-05
3.47201e-06
0.00232281
3.96677e-05
5.42523e-06
0.00229904
2.71808e-05
3.49751e-06
0.0022779
1.60093e-05
5.0009e-06
0.00226262
6.38181e-06
3.47653e-06
0.0022485
-1.48258e-07
4.61696e-06
0.00223942
-3.97972e-06
3.41729e-06
0.00222516
-5.93309e-06
4.26434e-06
0.00222102
-5.07497e-06
3.31165e-06
0.00219326
9.84993e-06
4.06134e-06
-7.84689e-08
2.97073e-06
0.002149
0.00259392
0.000517444
3.67354e-06
0.00274883
0.000331809
-2.41828e-06
0.00284835
0.000289346
2.77334e-06
0.00290409
0.000199868
-2.13226e-06
0.00292876
0.0001495
2.05234e-06
0.00294159
0.00011691
-1.82743e-06
0.00294185
9.35551e-05
1.43147e-06
0.00294053
7.84445e-05
-1.63256e-06
0.00293412
6.64318e-05
9.02621e-07
0.00292815
5.65655e-05
-1.5206e-06
0.00291825
4.65609e-05
4.46241e-07
0.00290827
3.58258e-05
-1.47303e-06
0.00289609
2.4966e-05
3.86395e-08
0.00288484
1.56391e-05
-1.47981e-06
0.00287441
6.99094e-06
-3.35572e-07
0.00286371
4.48384e-06
-1.527e-06
0.00285855
-4.0924e-06
-7.04316e-07
0.00284669
4.05683e-06
-1.62594e-06
0.00285858
-5.461e-06
-1.19354e-06
-1.39389e-05
-2.07346e-06
0.0028697
0.00258258
0.000248815
7.03265e-06
0.00274523
0.000160612
1.15676e-06
0.00287451
0.000147094
6.20808e-06
0.00296332
0.000104182
1.29027e-06
0.00302227
8.01576e-05
5.44476e-06
0.00306842
6.43111e-05
1.54473e-06
0.00309952
5.27257e-05
4.78353e-06
0.00312658
4.51409e-05
1.7049e-06
0.00314621
3.89192e-05
4.22828e-06
0.00316445
3.38186e-05
1.79965e-06
0.00317652
2.85265e-05
3.76144e-06
0.00318551
2.26973e-05
1.83958e-06
0.00318789
1.65117e-05
3.34593e-06
0.00318776
1.08273e-05
1.82255e-06
0.00318277
5.6858e-06
2.96239e-06
0.00317891
3.14276e-06
1.76316e-06
0.00316895
-4.09209e-07
2.60737e-06
0.00316531
1.9561e-06
1.64782e-06
0.00315145
1.56201e-06
2.32612e-06
3.12878e-06
1.32432e-06
0.00312806
0.00256445
-7.47079e-10
5.28611e-06
0.00271819
-7.23101e-10
-5.04709e-07
0.00285401
-3.57152e-10
4.52455e-06
0.00295303
6.77905e-10
-3.90288e-07
0.00302452
-3.50614e-11
3.76537e-06
0.00308407
1.31794e-09
-1.28628e-07
0.00312867
1.24669e-10
3.11792e-06
0.00316911
3.4752e-09
4.36652e-08
0.00320168
2.99027e-09
2.57142e-06
0.00323263
8.3732e-09
1.45127e-07
0.00325694
1.08964e-08
2.10993e-06
0.00327734
2.05228e-08
1.90314e-07
0.00328961
2.84113e-08
1.69869e-06
0.00329722
7.20629e-08
1.77642e-07
0.00329835
4.39414e-08
1.31782e-06
0.00329782
2.63738e-07
1.23031e-07
0.00329294
3.78069e-08
9.54848e-07
0.00329018
8.05046e-07
1.12992e-08
0.00328653
2.67301e-07
5.56681e-07
1.45385e-06
-3.53279e-07
0.00328353
0.00256445
-0.000248817
5.28611e-06
0.00271819
-0.000160613
-5.04708e-07
0.00285401
-0.000147094
4.52455e-06
0.00295303
-0.000104181
-3.9029e-07
0.00302452
-8.01575e-05
3.76538e-06
0.00308407
-6.43088e-05
-1.28634e-07
0.00312867
-5.2725e-05
3.11793e-06
0.00316911
-4.51347e-05
4.36419e-08
0.00320168
-3.89123e-05
2.57145e-06
0.00323263
-3.38041e-05
1.45063e-07
0.00325694
-2.85031e-05
2.11e-06
0.00327735
-2.26632e-05
1.90131e-07
0.00328961
-1.64496e-05
1.69887e-06
0.00329725
-1.07028e-05
1.77109e-07
0.00329835
-5.57705e-06
1.31831e-06
0.00329783
-2.62339e-06
1.21728e-07
0.00329289
5.32536e-07
9.57139e-07
0.00329014
-3.43101e-07
8.94816e-09
0.00328638
-9.29096e-07
5.65092e-07
-4.8994e-09
-3.53661e-07
0.00328317
0.00258258
-0.000517445
7.03265e-06
0.00274523
-0.000331811
1.15676e-06
0.00287451
-0.000289347
6.20808e-06
0.00296332
-0.000199867
1.29027e-06
0.00302227
-0.0001495
5.44476e-06
0.00306842
-0.000116908
1.54474e-06
0.00309952
-9.35545e-05
4.78353e-06
0.00312658
-7.84381e-05
1.70492e-06
0.00314621
-6.6426e-05
4.22825e-06
0.00316445
-5.65505e-05
1.7997e-06
0.00317652
-4.65417e-05
3.76136e-06
0.00318551
-3.57901e-05
1.83975e-06
0.00318791
-2.4916e-05
3.34575e-06
0.00318777
-1.55123e-05
1.82305e-06
0.00318282
-6.91921e-06
2.96188e-06
0.003179
-4.00826e-06
1.7644e-06
0.00316914
4.1175e-06
2.60512e-06
0.00316564
-2.58034e-06
1.65e-06
0.00315209
5.78697e-06
2.31852e-06
1.63975e-05
1.32398e-06
0.00312937
0.00259392
-0.000794148
3.67355e-06
0.00274883
-0.000491648
-2.41827e-06
0.00284835
-0.000398377
2.77334e-06
0.00290409
-0.000259078
-2.13226e-06
0.00292876
-0.000181209
2.05235e-06
0.00294159
-0.000132765
-1.82743e-06
0.00294185
-9.99718e-05
1.43148e-06
0.00294053
-7.96795e-05
-1.63258e-06
0.00293412
-6.4318e-05
9.02643e-07
0.00292816
-5.18049e-05
-1.52066e-06
0.00291825
-3.96494e-05
4.4631e-07
0.00290829
-2.71584e-05
-1.4732e-06
0.00289611
-1.59623e-05
3.8823e-08
0.0028849
-6.29271e-06
-1.48025e-06
0.00287446
2.27397e-07
-3.35088e-07
0.00286385
4.36308e-06
-1.52795e-06
0.00285865
5.99788e-06
-7.02206e-07
0.00284706
6.29098e-06
-1.62758e-06
0.00285891
-9.5058e-06
-1.18532e-06
2.3551e-06
-2.07536e-06
0.00287022
0.00258701
-0.00106924
9.12419e-06
0.00267139
-0.000586054
2.76986e-06
0.00265707
-0.000398644
8.01429e-06
0.00261452
-0.000225098
3.04957e-06
0.00255987
-0.00013862
7.18694e-06
0.00251081
-9.15302e-05
3.26164e-06
0.00246292
-6.2782e-05
6.47975e-06
0.00242303
-4.69156e-05
3.39283e-06
0.00238477
-3.52853e-05
5.90713e-06
0.00235297
-2.66733e-05
3.47205e-06
0.00232282
-1.82863e-05
5.42518e-06
0.00229906
-1.05505e-05
3.49763e-06
0.00227794
-3.71581e-06
5.00074e-06
0.00226269
1.47831e-06
3.47689e-06
0.00224862
5.59405e-06
4.61647e-06
0.00223968
5.67819e-06
3.41828e-06
0.00222552
1.15384e-05
4.26257e-06
0.00222178
2.25985e-06
3.31311e-06
0.00219451
9.21428e-06
4.05645e-06
3.77594e-05
2.9696e-06
0.00215172
0.00225817
-0.00100896
2.34365e-06
0.00205974
-0.0003901
-4.49749e-06
0.00184806
-0.000194127
1.11708e-06
0.00170052
-7.88016e-05
-3.73691e-06
0.00159448
-3.73662e-05
4.88573e-07
0.00152215
-1.97473e-05
-3.38174e-06
0.00146467
-8.97051e-06
-1.19919e-07
0.00142193
-4.81546e-06
-3.18107e-06
0.00138358
-2.59058e-07
-6.44242e-07
0.00135441
1.42022e-06
-3.07028e-06
0.00132836
4.55798e-06
-1.1048e-06
0.00131046
5.98114e-06
-3.02886e-06
0.00129534
8.50537e-06
-1.51755e-06
0.00128604
9.40638e-06
-3.03942e-06
0.00127816
1.09867e-05
-1.89504e-06
0.00127182
1.07534e-05
-3.08947e-06
0.00127102
1.0307e-05
-2.26973e-06
0.00126096
1.12661e-05
-3.16877e-06
0.00130608
-3.72901e-05
-2.74733e-06
-2.0385e-05
-3.70968e-06
0.00136391
0.00129901
1.31723e-05
0.000896558
5.71685e-06
0.000685758
1.12373e-05
0.000596283
6.24149e-06
0.000544663
1.03685e-05
0.000514677
6.44438e-06
0.000492072
9.66226e-06
0.000476432
6.58522e-06
0.000462606
9.1012e-06
0.000452749
6.67136e-06
0.000444026
8.62496e-06
0.000438665
6.70217e-06
0.000434378
8.20723e-06
0.000432588
6.68813e-06
0.000431328
7.82887e-06
0.000431132
6.63533e-06
0.000429767
7.47177e-06
0.000430397
6.54807e-06
0.00038189
7.23265e-06
6.13417e-06
0.000351472
0.00190729
0.000423681
2.61845e-06
0.00138259
0.000519269
4.29073e-06
0.00103441
0.000351917
1.7313e-06
0.000851976
0.000180972
3.0738e-06
0.000763337
9.33217e-05
1.77257e-06
0.000710355
5.29451e-05
2.75217e-06
0.00067806
3.61486e-05
1.88968e-06
0.000650442
2.74512e-05
2.52858e-06
0.000631775
2.13543e-05
1.93275e-06
0.000614289
1.72202e-05
2.29978e-06
0.000603113
1.3186e-05
1.92813e-06
0.000592657
1.03621e-05
2.12678e-06
0.000586868
7.45213e-06
1.93394e-06
0.000581312
5.68561e-06
2.02861e-06
0.000578591
4.15018e-06
1.96954e-06
0.000575609
3.31548e-06
1.98713e-06
0.00057764
-7.88543e-07
2.03787e-06
0.000565717
1.24226e-05
1.97596e-06
0.000673705
-0.000106798
2.09566e-06
-8.7158e-05
2.18299e-06
0.000760851
0.00241586
0.000323108
7.77733e-06
0.00234815
0.000565708
9.64861e-06
0.00221849
0.00046923
7.14977e-06
0.00207765
0.000304277
8.48517e-06
0.00196366
0.000196082
7.07931e-06
0.00186942
0.000131518
8.11278e-06
0.00179828
9.61632e-05
7.2119e-06
0.00173708
7.39915e-05
7.86064e-06
0.00168996
5.68806e-05
7.25414e-06
0.00164839
4.41693e-05
7.62342e-06
0.00161762
3.14411e-05
7.25205e-06
0.00159138
2.18213e-05
7.44614e-06
0.00157339
1.22762e-05
7.26552e-06
0.00155809
6.18167e-06
7.34621e-06
0.00154682
1.75041e-06
7.31402e-06
0.00153794
-2.66486e-06
7.30292e-06
0.00152556
-2.51167e-06
7.39869e-06
0.00152917
-5.98579e-06
7.28267e-06
0.00145217
-4.43089e-05
7.55123e-06
-1.54949e-05
7.56077e-06
0.0013651
0.0024402
0.000209073
3.48585e-06
0.00256388
0.000432035
5.53824e-06
0.00262128
0.000410656
2.67103e-06
0.00261518
0.000303467
4.43725e-06
0.00258855
0.000222216
2.67259e-06
0.00254942
0.000165054
4.09817e-06
0.00251459
0.000130249
2.92341e-06
0.00247851
0.000105929
3.88097e-06
0.00244811
8.69786e-05
3.06855e-06
0.00241713
7.19307e-05
3.6567e-06
0.0023912
5.64091e-05
3.13009e-06
0.00236625
4.31957e-05
3.48124e-06
0.00234718
2.93356e-05
3.18519e-06
0.00232929
2.02046e-05
3.37838e-06
0.0023173
1.09746e-05
3.26524e-06
0.00230219
8.19839e-06
3.34238e-06
0.00229842
-2.3543e-06
3.36777e-06
0.00227874
9.01837e-06
3.35482e-06
0.00229507
-6.45933e-05
3.39998e-06
-4.25411e-05
3.54258e-06
0.00231702
0.00239151
0.000135268
6.64154e-06
0.00252889
0.0002764
8.55242e-06
0.00265879
0.000270852
6.15105e-06
0.00273565
0.000211439
7.55125e-06
0.00278538
0.000163406
6.09367e-06
0.00280864
0.000127808
7.14788e-06
0.00282403
0.000105321
6.21772e-06
0.00282873
8.86695e-05
6.89132e-06
0.00283208
7.51022e-05
6.27172e-06
0.0028293
6.39131e-05
6.66283e-06
0.00282542
5.18581e-05
6.28105e-06
0.00281679
4.09203e-05
6.48751e-06
0.00280775
2.8809e-05
6.29315e-06
0.00279676
1.97881e-05
6.37952e-06
0.00278619
1.11771e-05
6.33745e-06
0.00277637
6.21835e-06
6.33648e-06
0.00276236
2.37637e-07
6.42299e-06
0.00275633
2.44249e-06
6.33977e-06
0.00270916
-3.00631e-05
6.58179e-06
-1.33697e-06
6.59461e-06
0.00265434
0.00239369
6.45943e-05
4.58564e-06
0.00252138
0.000136006
6.57918e-06
0.00265155
0.000136373
4.0037e-06
0.00274444
0.000108835
5.57395e-06
0.00281763
8.67114e-05
3.9569e-06
0.00286703
6.97372e-05
5.16232e-06
0.0029091
5.89654e-05
4.12824e-06
0.00293957
5.0709e-05
4.91654e-06
0.00296742
4.39881e-05
4.22413e-06
0.00298752
3.84134e-05
4.70148e-06
0.00300426
3.23339e-05
4.26533e-06
0.00301327
2.66442e-05
4.53411e-06
0.00301824
1.98899e-05
4.29672e-06
0.00301731
1.48455e-05
4.42746e-06
0.00301461
9.05424e-06
4.35334e-06
0.00300756
7.02574e-06
4.38906e-06
0.00300131
6.55118e-07
4.44055e-06
0.00299082
5.69157e-06
4.4099e-06
0.00297546
-2.17654e-05
4.50523e-06
-8.58009e-06
4.60236e-06
0.00297425
0.00238489
-4.18841e-10
5.60203e-06
0.00250554
4.19071e-11
7.54534e-06
0.00263483
5.22488e-11
5.11795e-06
0.00273128
3.55479e-10
6.58019e-06
0.00281172
-7.17961e-10
5.05837e-06
0.00287009
5.7445e-10
6.16122e-06
0.002922
1.23721e-10
5.18982e-06
0.00296248
3.35225e-09
5.90545e-06
0.00300044
2.63046e-09
5.26233e-06
0.00303083
7.19459e-09
5.68981e-06
0.0030578
6.93433e-09
5.29241e-06
0.00307665
2.28459e-08
5.52399e-06
0.00309003
1.88179e-08
5.31396e-06
0.00309637
8.46343e-08
5.41572e-06
0.003098
5.40173e-08
5.36121e-06
0.00309602
2.60547e-07
5.375e-06
0.00308813
2.09433e-07
5.44666e-06
0.00308341
6.54923e-07
5.39226e-06
0.00305096
8.1534e-07
5.56548e-06
1.56233e-06
5.61046e-06
0.00302958
0.00238489
-6.45951e-05
5.60203e-06
0.00250554
-0.000136006
7.54534e-06
0.00263483
-0.000136373
5.11795e-06
0.00273128
-0.000108834
6.58019e-06
0.00281172
-8.67128e-05
5.05837e-06
0.00287009
-6.97357e-05
6.16122e-06
0.002922
-5.89657e-05
5.18982e-06
0.00296248
-5.07018e-05
5.90547e-06
0.00300044
-4.39842e-05
5.26232e-06
0.00303083
-3.83969e-05
5.68984e-06
0.0030578
-3.23232e-05
5.29237e-06
0.00307664
-2.65928e-05
5.52407e-06
0.00309003
-1.98617e-05
5.31386e-06
0.00309636
-1.46634e-05
5.41594e-06
0.00309802
-8.97788e-06
5.36094e-06
0.00309606
-6.51992e-06
5.37556e-06
0.00308826
-3.25915e-07
5.44533e-06
0.00308368
-4.52405e-06
5.39307e-06
0.00305149
2.31548e-05
5.56024e-06
1.13223e-05
5.60955e-06
0.00303049
0.00239369
-0.000135268
4.58564e-06
0.00252138
-0.0002764
6.57918e-06
0.00265155
-0.000270851
4.0037e-06
0.00274444
-0.000211438
5.57395e-06
0.00281763
-0.000163407
3.95691e-06
0.00286703
-0.000127807
5.16232e-06
0.0029091
-0.000105321
4.12824e-06
0.00293957
-8.86636e-05
4.91653e-06
0.00296742
-7.50979e-05
4.22414e-06
0.00298753
-6.39e-05
4.70145e-06
0.00300426
-5.18457e-05
4.26536e-06
0.00301328
-4.08783e-05
4.53403e-06
0.00301825
-2.87754e-05
4.2968e-06
0.00301734
-1.96353e-05
4.42723e-06
0.00301463
-1.10844e-05
4.35356e-06
0.00300762
-5.7488e-06
4.38847e-06
0.00300133
1.3213e-07
4.44176e-06
0.00299086
-1.29365e-06
4.40899e-06
0.00297539
3.15501e-05
4.50974e-06
4.22425e-06
4.60249e-06
0.00297403
0.00239151
-0.000209074
6.64154e-06
0.00252889
-0.000432035
8.55242e-06
0.00265879
-0.000410655
6.15105e-06
0.00273565
-0.000303467
7.55125e-06
0.00278538
-0.000222217
6.09367e-06
0.00280864
-0.000165054
7.14788e-06
0.00282403
-0.000130249
6.21772e-06
0.00282873
-0.000105925
6.89133e-06
0.00283208
-8.69759e-05
6.2717e-06
0.00282931
-7.19184e-05
6.66286e-06
0.00282543
-5.64002e-05
6.28101e-06
0.0028168
-4.3156e-05
6.48758e-06
0.00280777
-2.93136e-05
6.29303e-06
0.0027968
-2.00645e-05
6.37969e-06
0.00278627
-1.09273e-05
6.33715e-06
0.00277653
-7.802e-06
6.33687e-06
0.00276267
2.56923e-06
6.42163e-06
0.00275689
-8.11412e-06
6.34034e-06
0.00271018
6.56253e-05
6.57666e-06
4.45023e-05
6.5949e-06
0.00265629
0.0024402
-0.000323108
3.48585e-06
0.00256388
-0.000565708
5.53824e-06
0.00262128
-0.00046923
2.67103e-06
0.00261518
-0.000304277
4.43724e-06
0.00258855
-0.000196082
2.6726e-06
0.00254943
-0.000131519
4.09817e-06
0.00251459
-9.61632e-05
2.92341e-06
0.00247851
-7.39893e-05
3.88096e-06
0.00244811
-5.68772e-05
3.06856e-06
0.00241714
-4.41629e-05
3.65668e-06
0.0023912
-3.14315e-05
3.13012e-06
0.00236628
-2.17992e-05
3.48117e-06
0.00234721
-1.22528e-05
3.18526e-06
0.00232937
-6.09976e-06
3.37818e-06
0.00231737
-1.69617e-06
3.26545e-06
0.00230242
2.91594e-06
3.34185e-06
0.00229863
2.73513e-06
3.36864e-06
0.00227929
6.56614e-06
3.35394e-06
0.00229563
4.52949e-05
3.40292e-06
1.71498e-05
3.54247e-06
0.0023179
0.00241586
-0.000423681
7.77733e-06
0.00234815
-0.000519269
9.64861e-06
0.00221849
-0.000351917
7.14977e-06
0.00207765
-0.000180972
8.48517e-06
0.00196366
-9.33224e-05
7.07931e-06
0.00186943
-5.29455e-05
8.11278e-06
0.00179828
-3.61488e-05
7.2119e-06
0.00173708
-2.74504e-05
7.86065e-06
0.00168997
-2.1353e-05
7.25412e-06
0.0016484
-1.72171e-05
7.62345e-06
0.00161763
-1.31824e-05
7.252e-06
0.0015914
-1.03516e-05
7.44621e-06
0.00157343
-7.44535e-06
7.2654e-06
0.00155817
-5.6452e-06
7.34633e-06
0.00154695
-4.14143e-06
7.31372e-06
0.0015382
-3.19938e-06
7.30322e-06
0.00152603
8.08544e-07
7.39768e-06
0.00152993
-1.21275e-05
7.28342e-06
0.00145402
0.000106677
7.54707e-06
8.69976e-05
7.5623e-06
0.00136881
0.00190729
2.61845e-06
0.00138259
4.29073e-06
0.00103441
1.7313e-06
0.000851976
3.0738e-06
0.000763338
1.77257e-06
0.000710356
2.75217e-06
0.000678061
1.88968e-06
0.000650444
2.52857e-06
0.000631777
1.93276e-06
0.000614295
2.29976e-06
0.000603122
1.92814e-06
0.000592677
2.12674e-06
0.000586894
1.93395e-06
0.000581379
2.02852e-06
0.000578666
1.96958e-06
0.000575801
1.98683e-06
0.000577851
2.03805e-06
0.000566229
1.97524e-06
0.00067407
2.09616e-06
2.18155e-06
0.000761132
0.00215012
0.000172731
-6.55522e-11
0.00189692
0.00025054
-6.5148e-11
0.00162729
0.000265195
-6.50947e-11
0.00139123
0.000233837
-6.58365e-11
0.00120197
0.000186901
-6.41673e-11
0.00106338
0.000137923
-6.33082e-11
0.000967911
9.37727e-05
-6.211e-11
0.000909396
5.69279e-05
-6.23383e-11
0.000875285
3.15299e-05
-6.17348e-11
0.000857072
1.58055e-05
-6.20428e-11
0.000846445
7.81311e-06
-6.16556e-11
0.000839943
3.93325e-06
-6.19123e-11
0.000835618
1.65832e-06
-6.12385e-11
0.000831578
1.58935e-06
-6.07788e-11
0.00083024
-1.04692e-06
-5.99644e-11
0.000825592
2.42478e-06
-5.9651e-11
0.000828682
-5.13516e-06
-5.95384e-11
0.000820029
6.6454e-06
-5.94792e-11
0.00083125
-1.29538e-05
-5.96001e-11
-1.60118e-05
-5.92118e-11
0.000845509
0.0023764
0.000124367
-6.53063e-11
0.00241446
0.000214947
-6.51539e-11
0.00241419
0.000266275
-6.39346e-11
0.00238314
0.000267863
-6.42496e-11
0.00233104
0.000241037
-6.43604e-11
0.00227268
0.000199879
-6.42636e-11
0.00221417
0.000155663
-6.2523e-11
0.00216157
0.000114123
-6.26793e-11
0.00211572
8.14774e-05
-6.23896e-11
0.00207865
5.70784e-05
-6.24219e-11
0.00205007
3.99088e-05
-6.14047e-11
0.00202942
2.8054e-05
-6.15948e-11
0.00201535
1.88363e-05
-6.15923e-11
0.00200502
1.49381e-05
-6.19144e-11
0.00199921
7.57598e-06
-6.12373e-11
0.00199267
1.16619e-05
-6.04165e-11
0.00199227
-1.91414e-06
-5.94699e-11
0.00198481
1.69187e-05
-5.88957e-11
0.00198956
-1.44009e-05
-5.88094e-11
1.22118e-05
-5.84976e-11
0.00196478
0.00236423
8.38926e-05
-6.51898e-11
0.00242673
0.000150716
-6.52647e-11
0.00249265
0.000196684
-6.46521e-11
0.00255263
0.000206943
-6.45076e-11
0.00259575
0.000195452
-6.32733e-11
0.00262388
0.000170802
-6.27178e-11
0.00263762
0.000140353
-6.22497e-11
0.00264209
0.000109979
-6.44223e-11
0.00263948
8.43713e-05
-6.52071e-11
0.00263311
6.4518e-05
-6.47462e-11
0.00262429
4.90094e-05
-6.19548e-11
0.00261481
3.7804e-05
-6.05371e-11
0.00260618
2.71953e-05
-6.02255e-11
0.00259859
2.22658e-05
-6.12899e-11
0.00259373
1.17587e-05
-6.13409e-11
0.00258913
1.52645e-05
-6.04347e-11
0.00258819
-2.32861e-06
-5.88057e-11
0.00258451
1.90493e-05
-5.758e-11
0.00258681
-1.81894e-05
-5.73076e-11
1.84117e-05
-5.76651e-11
0.00257947
0.00235422
5.65785e-05
-6.51825e-11
0.00240665
9.95552e-05
-6.52109e-11
0.00247359
0.00012957
-6.48101e-11
0.00254553
0.000137255
-6.45526e-11
0.00261037
0.000131606
-6.28079e-11
0.00266595
0.000117212
-6.18839e-11
0.0027091
9.8688e-05
-6.16542e-11
0.00274257
7.966e-05
-6.43798e-11
0.00276709
6.33852e-05
-6.58055e-11
0.00278526
5.06981e-05
-6.54319e-11
0.00279739
4.0669e-05
-6.22293e-11
0.00280541
3.33675e-05
-6.02825e-11
0.00280993
2.57998e-05
-5.99157e-11
0.00281316
2.20857e-05
-6.13897e-11
0.0028142
1.35125e-05
-6.18289e-11
0.00281624
1.55859e-05
-6.0837e-11
0.00281443
1.36969e-06
-5.84953e-11
0.00281745
1.74074e-05
-5.68019e-11
0.00281191
-1.12511e-05
-5.60598e-11
2.20643e-05
-5.69847e-11
0.00280977
0.00235483
2.65989e-05
-6.52595e-11
0.00240542
4.82617e-05
-6.53937e-11
0.00246887
6.37988e-05
-6.50693e-11
0.00253866
6.77583e-05
-6.49384e-11
0.00260399
6.51316e-05
-6.30776e-11
0.00266289
5.82926e-05
-6.24104e-11
0.00271163
4.93017e-05
-6.22356e-11
0.00275236
4.00794e-05
-6.43682e-11
0.00278512
3.21121e-05
-6.49125e-11
0.00281221
2.6062e-05
-6.44084e-11
0.00283345
2.12879e-05
-6.17792e-11
0.00285055
1.79933e-05
-6.04277e-11
0.00286329
1.42401e-05
-6.01216e-11
0.00287402
1.25407e-05
-6.13017e-11
0.00288073
7.74407e-06
-6.15121e-11
0.00288796
8.93267e-06
-6.06233e-11
0.00288857
7.94706e-07
-5.86836e-11
0.00289586
9.59696e-06
-5.71016e-11
0.00288995
-6.09377e-06
-5.64987e-11
1.15097e-05
-5.73411e-11
0.00289986
0.00235246
-4.40952e-10
-6.52878e-11
0.00240098
5.61135e-11
-6.5423e-11
0.00246359
-3.9644e-10
-6.49818e-11
0.00253265
5.14671e-10
-6.49523e-11
0.00259774
-1.27707e-09
-6.35095e-11
0.00265701
1.18982e-09
-6.32052e-11
0.00270673
-1.17709e-09
-6.26853e-11
0.00274894
4.02656e-09
-6.37959e-11
0.00278359
-8.8674e-11
-6.34194e-11
0.0028131
8.66598e-09
-6.28464e-11
0.00283729
1.0421e-09
-6.11331e-11
0.00285798
2.47421e-08
-6.0743e-11
0.00287442
3.97818e-09
-6.07083e-11
0.00288907
8.18522e-08
-6.14214e-11
0.00289878
1.20309e-08
-6.11406e-11
0.00290909
2.43417e-07
-6.03389e-11
0.0029109
7.58948e-08
-5.90143e-11
0.00292039
6.00517e-07
-5.82603e-11
0.0029141
4.91391e-07
-5.80844e-11
1.14702e-06
-5.84458e-11
0.00292476
0.00235246
-2.65997e-05
-6.53958e-11
0.00240098
-4.82616e-05
-6.55212e-11
0.00246359
-6.37995e-05
-6.50877e-11
0.00253265
-6.77572e-05
-6.50796e-11
0.00259774
-6.51341e-05
-6.39825e-11
0.00265701
-5.82902e-05
-6.42096e-11
0.00270673
-4.93043e-05
-6.3683e-11
0.00274894
-4.00711e-05
-6.38509e-11
0.00278359
-3.21129e-05
-6.24348e-11
0.0028131
-2.6044e-05
-6.16234e-11
0.00283729
-2.12871e-05
-6.04114e-11
0.00285798
-1.79425e-05
-6.07343e-11
0.00287443
-1.42349e-05
-6.0794e-11
0.00288907
-1.23754e-05
-6.09774e-11
0.00289879
-7.72648e-06
-6.01744e-11
0.0029091
-8.44721e-06
-5.95231e-11
0.00291092
-6.60831e-07
-5.92409e-11
0.00292044
-8.41673e-06
-5.93229e-11
0.0029142
7.02038e-06
-5.98646e-11
-9.31212e-06
-5.99216e-11
0.00292496
0.00235483
-5.65793e-05
-6.54277e-11
0.00240542
-9.95551e-05
-6.5543e-11
0.00246887
-0.000129571
-6.49962e-11
0.00253866
-0.000137253
-6.51405e-11
0.00260399
-0.000131609
-6.44941e-11
0.00266289
-0.000117209
-6.50341e-11
0.00271163
-9.86905e-05
-6.4039e-11
0.00275236
-7.96524e-05
-6.31272e-11
0.00278512
-6.3386e-05
-6.07241e-11
0.00281221
-5.06813e-05
-6.00594e-11
0.00283346
-4.06676e-05
-5.98738e-11
0.00285055
-3.33198e-05
-6.11696e-11
0.00286329
-2.57937e-05
-6.13944e-11
0.00287403
-2.19295e-05
-6.10046e-11
0.00288074
-1.34963e-05
-5.97018e-11
0.00288799
-1.51183e-05
-5.9239e-11
0.00288862
-1.25084e-06
-5.96731e-11
0.00289593
-1.62479e-05
-6.06243e-11
0.00289009
1.21174e-05
-6.15371e-11
-1.98897e-05
-6.09654e-11
0.00290001
0.00235422
-8.38933e-05
-6.55411e-11
0.00240665
-0.000150716
-6.5703e-11
0.00247359
-0.000196685
-6.52183e-11
0.00254553
-0.000206942
-6.5563e-11
0.00261037
-0.000195455
-6.49127e-11
0.00266595
-0.0001708
-6.56404e-11
0.0027091
-0.000140355
-6.44735e-11
0.00274257
-0.000109972
-6.2738e-11
0.00276709
-8.43728e-05
-5.9534e-11
0.00278526
-6.45018e-05
-5.8986e-11
0.00279739
-4.90094e-05
-5.97035e-11
0.00280542
-3.77589e-05
-6.16749e-11
0.00280994
-2.7193e-05
-6.17347e-11
0.00281319
-2.21215e-05
-6.07675e-11
0.00281423
-1.17558e-05
-5.91809e-11
0.00281631
-1.48309e-05
-5.90472e-11
0.00281454
2.39997e-06
-6.01378e-11
0.00281766
-1.79814e-05
-6.12981e-11
0.00281228
1.88922e-05
-6.22467e-11
-1.65776e-05
-6.12639e-11
0.00281048
0.00236423
-0.000124368
-6.55751e-11
0.00242673
-0.000214947
-6.56852e-11
0.00249264
-0.000266275
-6.5402e-11
0.00255263
-0.000267863
-6.56652e-11
0.00259575
-0.000241038
-6.45953e-11
0.00262388
-0.000199878
-6.49293e-11
0.00263762
-0.000155665
-6.37101e-11
0.00264209
-0.000114118
-6.22061e-11
0.00263948
-8.1478e-05
-5.96066e-11
0.00263312
-5.70665e-05
-5.96048e-11
0.0026243
-3.99076e-05
-6.04138e-11
0.00261483
-2.80202e-05
-6.19608e-11
0.0026062
-1.88326e-05
-6.1575e-11
0.00259864
-1.48285e-05
-6.05692e-11
0.00259378
-7.57421e-06
-5.93037e-11
0.00258927
-1.13208e-05
-5.93722e-11
0.00258836
1.96152e-06
-6.01596e-11
0.0025849
-1.60706e-05
-6.096e-11
0.00258732
1.49706e-05
-6.13396e-11
-1.08269e-05
-6.05235e-11
0.00258044
0.0023764
-0.000172731
-6.55121e-11
0.00241446
-0.00025054
-6.59317e-11
0.00241419
-0.000265195
-6.61586e-11
0.00238314
-0.000233838
-6.56424e-11
0.00233104
-0.000186901
-6.33202e-11
0.00227268
-0.000137922
-6.35779e-11
0.00221417
-9.37726e-05
-6.36717e-11
0.00216157
-5.69266e-05
-6.38707e-11
0.00211572
-3.15288e-05
-6.22218e-11
0.00207866
-1.58014e-05
-6.19761e-11
0.00205008
-7.81015e-06
-6.14359e-11
0.00202944
-3.91836e-06
-6.13982e-11
0.00201538
-1.65342e-06
-6.02379e-11
0.0020051
-1.53552e-06
-5.95647e-11
0.00199928
1.04877e-06
-5.90715e-11
0.00199291
-2.24402e-06
-5.94856e-11
0.00199254
5.14687e-06
-5.99428e-11
0.0019855
-6.19853e-06
-6.01634e-11
0.00199047
1.3263e-05
-6.01858e-11
1.63385e-05
-5.97474e-11
0.00196679
0.00215012
-6.53286e-11
0.00189692
-6.61462e-11
0.00162729
-6.50268e-11
0.00139123
-6.36853e-11
0.00120197
-6.35002e-11
0.00106338
-6.50167e-11
0.000967912
-6.4379e-11
0.000909399
-6.4016e-11
0.000875288
-6.25719e-11
0.00085708
-6.22784e-11
0.000846454
-6.12099e-11
0.000839968
-6.09873e-11
0.000835648
-6.03946e-11
0.000831659
-6.06088e-11
0.000830327
-6.0542e-11
0.000825856
-6.06344e-11
0.000828957
-6.02723e-11
0.000820765
-5.98489e-11
0.000832243
-5.94696e-11
-5.91725e-11
0.000846946
0.00215012
0.000172731
-2.61854e-06
0.00189692
0.00025054
-4.29084e-06
0.00162729
0.000265195
-1.73141e-06
0.00139123
0.000233838
-3.07392e-06
0.00120197
0.000186901
-1.77266e-06
0.00106338
0.000137923
-2.75229e-06
0.000967911
9.37725e-05
-1.88977e-06
0.000909396
5.69276e-05
-2.52869e-06
0.000875285
3.15295e-05
-1.93284e-06
0.000857072
1.58051e-05
-2.29988e-06
0.000846445
7.81279e-06
-1.92822e-06
0.000839943
3.93303e-06
-2.12688e-06
0.000835618
1.65819e-06
-1.93404e-06
0.000831578
1.5893e-06
-2.02871e-06
0.00083024
-1.0469e-06
-1.96964e-06
0.000825592
2.42484e-06
-1.98723e-06
0.000828682
-5.13511e-06
-2.03797e-06
0.000820029
6.64543e-06
-1.97606e-06
0.00083125
-1.29538e-05
-2.09576e-06
-1.60119e-05
-2.18309e-06
0.000845509
0.0023764
0.000124367
-7.77745e-06
0.00241446
0.000214947
-9.64874e-06
0.00241419
0.000266274
-7.14989e-06
0.00238314
0.000267863
-8.4853e-06
0.00233104
0.000241037
-7.07943e-06
0.00227268
0.000199879
-8.1129e-06
0.00221417
0.000155663
-7.21202e-06
0.00216157
0.000114122
-7.86076e-06
0.00211572
8.14767e-05
-7.25426e-06
0.00207866
5.70777e-05
-7.62354e-06
0.00205007
3.99083e-05
-7.25217e-06
0.00202942
2.80537e-05
-7.44626e-06
0.00201535
1.88362e-05
-7.26564e-06
0.00200502
1.49381e-05
-7.34633e-06
0.0019992
7.5761e-06
-7.31413e-06
0.00199267
1.16621e-05
-7.30304e-06
0.00199227
-1.91389e-06
-7.39881e-06
0.00198481
1.69189e-05
-7.28278e-06
0.00198956
-1.44007e-05
-7.55135e-06
1.22119e-05
-7.56089e-06
0.00196478
0.00236423
8.38926e-05
-3.48596e-06
0.00242673
0.000150716
-5.53836e-06
0.00249265
0.000196684
-2.67113e-06
0.00255263
0.000206943
-4.43736e-06
0.00259575
0.000195452
-2.6727e-06
0.00262388
0.000170802
-4.09828e-06
0.00263762
0.000140353
-2.92352e-06
0.00264209
0.000109978
-3.88108e-06
0.00263948
8.43705e-05
-3.06866e-06
0.00263311
6.45174e-05
-3.65681e-06
0.00262429
4.90092e-05
-3.1302e-06
0.00261481
3.7804e-05
-3.48135e-06
0.00260618
2.71954e-05
-3.1853e-06
0.00259859
2.2266e-05
-3.37849e-06
0.00259373
1.17588e-05
-3.26534e-06
0.00258913
1.52647e-05
-3.34248e-06
0.00258819
-2.32825e-06
-3.36787e-06
0.00258451
1.90497e-05
-3.35493e-06
0.00258681
-1.81891e-05
-3.40009e-06
1.84118e-05
-3.54268e-06
0.00257946
0.00235422
5.65786e-05
-6.64166e-06
0.00240665
9.95551e-05
-8.55254e-06
0.00247359
0.00012957
-6.15116e-06
0.00254553
0.000137254
-7.55138e-06
0.00261037
0.000131606
-6.09379e-06
0.00266595
0.000117211
-7.148e-06
0.0027091
9.86875e-05
-6.21784e-06
0.00274257
7.9659e-05
-6.89144e-06
0.00276709
6.33842e-05
-6.27184e-06
0.00278526
5.06976e-05
-6.66295e-06
0.00279739
4.06691e-05
-6.28117e-06
0.00280542
3.33681e-05
-6.48762e-06
0.00280993
2.58005e-05
-6.29326e-06
0.00281316
2.20862e-05
-6.37964e-06
0.0028142
1.35129e-05
-6.33756e-06
0.00281624
1.55864e-05
-6.33659e-06
0.00281443
1.3703e-06
-6.42311e-06
0.00281745
1.7408e-05
-6.33988e-06
0.00281191
-1.12507e-05
-6.58191e-06
2.20644e-05
-6.59472e-06
0.00280977
0.00235483
2.65989e-05
-4.58576e-06
0.00240542
4.82616e-05
-6.5793e-06
0.00246887
6.37984e-05
-4.00381e-06
0.00253866
6.77579e-05
-5.57407e-06
0.00260399
6.51314e-05
-3.95702e-06
0.00266289
5.82925e-05
-5.16244e-06
0.00271163
4.9301e-05
-4.12835e-06
0.00275236
4.00782e-05
-4.91666e-06
0.00278512
3.21109e-05
-4.22424e-06
0.00281221
2.60615e-05
-4.70159e-06
0.00283345
2.12883e-05
-4.26544e-06
0.00285055
1.79942e-05
-4.53422e-06
0.00286329
1.4241e-05
-4.29683e-06
0.00287402
1.25414e-05
-4.42757e-06
0.00288073
7.74468e-06
-4.35345e-06
0.00288796
8.93336e-06
-4.38917e-06
0.00288857
7.95567e-07
-4.44066e-06
0.00289586
9.59773e-06
-4.41001e-06
0.00288995
-6.09311e-06
-4.50534e-06
1.15097e-05
-4.60247e-06
0.00289986
0.00235246
-4.19688e-10
-5.60215e-06
0.00240098
-1.07357e-10
-7.54546e-06
0.00246359
-7.84931e-10
-5.11807e-06
0.00253265
1.37141e-10
-6.58031e-06
0.00259774
-1.38787e-09
-5.05849e-06
0.00265701
1.01332e-09
-6.16133e-06
0.00270673
-1.91314e-09
-5.18994e-06
0.00274894
2.7169e-09
-5.90557e-06
0.00278359
-1.32795e-09
-5.26245e-06
0.0028131
8.16294e-09
-5.68993e-06
0.00283729
1.49121e-09
-5.29253e-06
0.00285798
2.57699e-08
-5.5241e-06
0.00287442
5.04598e-09
-5.31407e-06
0.00288907
8.26698e-08
-5.41583e-06
0.00289878
1.27119e-08
-5.36132e-06
0.00290909
2.44188e-07
-5.37511e-06
0.0029109
7.68575e-08
-5.44677e-06
0.00292039
6.01367e-07
-5.39237e-06
0.0029141
4.92104e-07
-5.5656e-06
1.14697e-06
-5.61057e-06