/*--------------------------------*- C++ -*----------------------------------*\
  =========                 |
  \\      /  F ield         | OpenFOAM: The Open Source CFD Toolbox
   \\    /   O peration     | Website:  https://openfoam.org
    \\  /    A nd           | Version:  7
     \\/     M anipulation  |
\*---------------------------------------------------------------------------*/
FoamFile
{
    version     2.0;
    format      ascii;
    class       volVectorField;
    location    "0.86";
    object      UMean;
}
// * * * * * * * * * * * * * * * * * * * * * * * * * * * * * * * * * * * * * //

dimensions      [0 1 -1 0 0 0 0];

internalField   nonuniform List<vector> 
7920
(
(2.95329 0.0975233 -32.3862)
(2.17613 -0.455945 -32.4405)
(1.49627 -0.60473 -32.4423)
(1.41348 -0.658479 -32.4518)
(1.19488 -0.674483 -32.4483)
(1.2355 -0.679228 -32.4539)
(1.10456 -0.683172 -32.4504)
(1.15962 -0.683339 -32.4544)
(1.06153 -0.685495 -32.4516)
(1.11362 -0.685072 -32.4546)
(1.03554 -0.686471 -32.4525)
(1.08189 -0.685817 -32.4549)
(1.01826 -0.686752 -32.4534)
(1.05881 -0.686156 -32.4552)
(1.00598 -0.686577 -32.4544)
(1.04164 -0.686677 -32.4556)
(0.995004 -0.683224 -32.4558)
(1.02402 -0.689377 -32.4553)
(0.983581 -0.634821 -32.4587)
(0.832834 -0.641094 -32.4478)
(4.40979 0.945292 -32.4329)
(4.35334 0.843968 -32.4791)
(3.73662 0.790073 -32.4833)
(3.62983 0.725483 -32.4966)
(3.26695 0.700073 -32.4959)
(3.29278 0.688204 -32.5029)
(3.0588 0.682711 -32.5008)
(3.12283 0.679962 -32.5049)
(2.94962 0.678249 -32.503)
(3.0184 0.676983 -32.5057)
(2.88201 0.676048 -32.5044)
(2.9469 0.675135 -32.5063)
(2.83647 0.67455 -32.5058)
(2.89548 0.673989 -32.5071)
(2.80376 0.673298 -32.5077)
(2.85943 0.674143 -32.5078)
(2.77381 0.670638 -32.511)
(2.85085 0.677067 -32.5065)
(2.7199 0.668017 -32.519)
(3.01748 0.666171 -32.4822)
(4.74346 0.18274 -32.4375)
(5.23745 -0.239703 -32.4739)
(5.08581 -0.385651 -32.4672)
(5.2042 -0.502283 -32.4798)
(4.96773 -0.563983 -32.4756)
(5.03299 -0.598135 -32.4849)
(4.83229 -0.619854 -32.481)
(4.89189 -0.631856 -32.4875)
(4.73038 -0.640755 -32.484)
(4.787 -0.646208 -32.4885)
(4.65655 -0.650644 -32.4857)
(4.70896 -0.653692 -32.489)
(4.60246 -0.656238 -32.4875)
(4.65001 -0.657967 -32.4898)
(4.56269 -0.660007 -32.4902)
(4.60312 -0.659372 -32.4909)
(4.53616 -0.663928 -32.4948)
(4.55308 -0.654852 -32.4914)
(4.52485 -0.660964 -32.5024)
(4.4591 -0.661559 -32.4728)
(4.74406 0.634677 -32.4472)
(5.25809 0.725792 -32.4811)
(5.33163 0.768181 -32.4726)
(5.62026 0.737203 -32.4819)
(5.54128 0.719368 -32.4774)
(5.70469 0.705201 -32.485)
(5.59818 0.695418 -32.4817)
(5.70819 0.68801 -32.4872)
(5.60575 0.682588 -32.4844)
(5.68769 0.677743 -32.4879)
(5.59627 0.67436 -32.4858)
(5.66097 0.670951 -32.4881)
(5.58104 0.668875 -32.487)
(5.63475 0.666358 -32.4884)
(5.5638 0.665325 -32.4887)
(5.61321 0.663213 -32.4891)
(5.54407 0.664225 -32.4916)
(5.60565 0.661459 -32.4906)
(5.52342 0.672919 -32.4963)
(5.66011 0.69344 -32.4722)
(4.73595 -0.0897721 -32.4464)
(5.22417 -0.386333 -32.4795)
(5.35167 -0.479221 -32.4682)
(5.68964 -0.545174 -32.4772)
(5.66969 -0.580288 -32.4705)
(5.88193 -0.599797 -32.478)
(5.82745 -0.613088 -32.4732)
(5.97651 -0.620605 -32.479)
(5.91691 -0.626874 -32.475)
(6.0284 -0.630919 -32.479)
(5.97102 -0.634679 -32.4758)
(6.05698 -0.637322 -32.4787)
(6.00392 -0.64015 -32.4764)
(6.07126 -0.641487 -32.4786)
(6.02405 -0.644951 -32.4773)
(6.07507 -0.642441 -32.479)
(6.04019 -0.652176 -32.4791)
(6.06454 -0.637184 -32.4806)
(6.06413 -0.664913 -32.4825)
(6.03573 -0.671475 -32.4623)
(4.72323 0.345852 -32.4501)
(5.16933 0.545326 -32.4835)
(5.30763 0.621083 -32.4721)
(5.66059 0.640305 -32.481)
(5.66232 0.649868 -32.4738)
(5.89515 0.652702 -32.4812)
(5.86272 0.654363 -32.476)
(6.03115 0.654279 -32.4817)
(5.99222 0.654419 -32.4774)
(6.12061 0.653748 -32.4814)
(6.08145 0.653592 -32.4779)
(6.18141 0.652869 -32.4808)
(6.14363 0.652926 -32.4782)
(6.22222 0.651945 -32.4804)
(6.18687 0.653091 -32.4787)
(6.24819 0.650041 -32.4806)
(6.21902 0.656471 -32.48)
(6.2624 0.645914 -32.4819)
(6.25422 0.67031 -32.4828)
(6.28212 0.68969 -32.4625)
(4.72323 -0.345852 -32.4501)
(5.16933 -0.545326 -32.4835)
(5.30763 -0.621083 -32.4721)
(5.66059 -0.640305 -32.481)
(5.66232 -0.649868 -32.4738)
(5.89514 -0.652701 -32.4812)
(5.86272 -0.654362 -32.476)
(6.03115 -0.654277 -32.4817)
(5.99222 -0.654417 -32.4774)
(6.12061 -0.653743 -32.4814)
(6.08146 -0.653583 -32.4778)
(6.18141 -0.652854 -32.4808)
(6.14365 -0.652902 -32.4782)
(6.2222 -0.651888 -32.4805)
(6.18694 -0.653042 -32.4787)
(6.24812 -0.649812 -32.4806)
(6.21919 -0.656397 -32.4799)
(6.26221 -0.645187 -32.482)
(6.25439 -0.66994 -32.4828)
(6.28166 -0.688211 -32.4625)
(4.73595 0.089772 -32.4464)
(5.22417 0.386333 -32.4795)
(5.35167 0.479221 -32.4682)
(5.68964 0.545174 -32.4772)
(5.66969 0.580288 -32.4704)
(5.88193 0.599798 -32.478)
(5.82745 0.613089 -32.4732)
(5.97651 0.620606 -32.479)
(5.91691 0.626877 -32.475)
(6.02841 0.630922 -32.479)
(5.97102 0.634689 -32.4757)
(6.057 0.637333 -32.4788)
(6.0039 0.640179 -32.4763)
(6.07134 0.64153 -32.4787)
(6.02402 0.645013 -32.4771)
(6.07526 0.642635 -32.4792)
(6.04021 0.652276 -32.4788)
(6.06505 0.637886 -32.481)
(6.06459 0.665294 -32.4821)
(6.03726 0.673096 -32.4628)
(4.74406 -0.634677 -32.4472)
(5.25809 -0.725792 -32.4811)
(5.33163 -0.768181 -32.4726)
(5.62026 -0.737203 -32.4819)
(5.54128 -0.719368 -32.4774)
(5.70469 -0.7052 -32.485)
(5.59818 -0.695418 -32.4817)
(5.7082 -0.688008 -32.4872)
(5.60575 -0.682587 -32.4843)
(5.6877 -0.677738 -32.488)
(5.59628 -0.674355 -32.4857)
(5.66099 -0.670936 -32.4883)
(5.58106 -0.66886 -32.4868)
(5.63481 -0.666301 -32.4887)
(5.56388 -0.665301 -32.4881)
(5.61333 -0.662986 -32.4899)
(5.54442 -0.664225 -32.4905)
(5.60587 -0.660786 -32.4923)
(5.52434 -0.672793 -32.4941)
(5.66065 -0.69242 -32.4751)
(4.74346 -0.18274 -32.4375)
(5.23745 0.239703 -32.4739)
(5.08581 0.385651 -32.4672)
(5.2042 0.502283 -32.4798)
(4.96773 0.563983 -32.4756)
(5.03299 0.598135 -32.4849)
(4.83229 0.619855 -32.481)
(4.8919 0.631857 -32.4875)
(4.73038 0.640758 -32.4839)
(4.78701 0.646208 -32.4885)
(4.65654 0.650654 -32.4856)
(4.70902 0.653691 -32.4892)
(4.60245 0.656266 -32.4872)
(4.65017 0.657975 -32.4903)
(4.56269 0.660069 -32.4893)
(4.60354 0.659447 -32.4923)
(4.53635 0.664036 -32.4924)
(4.55418 0.655271 -32.4952)
(4.52587 0.661281 -32.4961)
(4.46266 0.662828 -32.4827)
(4.40979 -0.945292 -32.4329)
(4.35334 -0.843968 -32.4791)
(3.73662 -0.790073 -32.4833)
(3.62983 -0.725483 -32.4966)
(3.26695 -0.700073 -32.4959)
(3.29278 -0.688204 -32.5029)
(3.0588 -0.682712 -32.5008)
(3.12283 -0.679961 -32.5049)
(2.94962 -0.678249 -32.5029)
(3.01841 -0.67698 -32.5057)
(2.88202 -0.676048 -32.5043)
(2.94694 -0.675126 -32.5064)
(2.83649 -0.674549 -32.5056)
(2.89559 -0.673954 -32.5074)
(2.80387 -0.673308 -32.5072)
(2.85968 -0.674008 -32.5089)
(2.77431 -0.670729 -32.509)
(2.85122 -0.676691 -32.5105)
(2.72168 -0.668308 -32.5106)
(3.01782 -0.666323 -32.5005)
(2.95329 -0.0975233 -32.3862)
(2.17613 0.455945 -32.4405)
(1.49627 0.60473 -32.4423)
(1.41348 0.658479 -32.4518)
(1.19488 0.674483 -32.4483)
(1.23551 0.679228 -32.4539)
(1.10456 0.683172 -32.4504)
(1.15962 0.683339 -32.4544)
(1.06153 0.685497 -32.4516)
(1.11362 0.68507 -32.4546)
(1.03554 0.686475 -32.4525)
(1.08191 0.685809 -32.4549)
(1.01827 0.686764 -32.4533)
(1.05888 0.686132 -32.4553)
(1.00603 0.686614 -32.4543)
(1.0418 0.686602 -32.4559)
(0.995241 0.683359 -32.4552)
(1.02437 0.689249 -32.4565)
(0.984624 0.635424 -32.456)
(0.834622 0.641902 -32.4554)
(4.33259 0.550583 0.00710474)
(3.14979 0.825861 0.0046793)
(2.4365 0.846933 0.00592144)
(1.93142 0.832019 0.00447064)
(1.81497 0.835023 0.00557469)
(1.6483 0.846049 0.00442183)
(1.64941 0.85509 0.0053351)
(1.55525 0.862324 0.00436801)
(1.56624 0.865956 0.00511175)
(1.50242 0.869079 0.00429841)
(1.51237 0.870377 0.00490524)
(1.46773 0.871998 0.00422426)
(1.47489 0.87242 0.00471903)
(1.44246 0.873576 0.00415013)
(1.44736 0.87316 0.00455142)
(1.42202 0.875622 0.00407618)
(1.42508 0.867646 0.00440075)
(1.42224 0.89077 0.00400041)
(1.35689 0.773663 0.00429102)
(1.81333 0.795704 0.00386917)
(4.74219 -0.10684 0.00454892)
(4.61163 -0.286985 0.00255481)
(4.53247 -0.486573 0.00382572)
(4.19686 -0.646087 0.00240811)
(4.07671 -0.736524 0.00352094)
(3.84699 -0.786979 0.00237376)
(3.79329 -0.811289 0.00329137)
(3.64879 -0.82608 0.00232671)
(3.6253 -0.834516 0.00307339)
(3.5293 -0.840867 0.00226145)
(3.51715 -0.84493 0.00287026)
(3.45061 -0.84835 0.00218996)
(3.44263 -0.850426 0.00268599)
(3.39438 -0.852804 0.00211742)
(3.3889 -0.853219 0.00251926)
(3.34929 -0.856449 0.00204469)
(3.35294 -0.854492 0.0023654)
(3.2983 -0.857897 0.00197196)
(3.35901 -0.866539 0.00219856)
(3.02965 -0.856134 0.00183116)
(4.62598 0.424648 0.00583305)
(4.81235 0.843703 0.00391127)
(5.09673 0.932219 0.00506591)
(5.04371 0.921198 0.00360916)
(5.09457 0.902688 0.00469664)
(4.97839 0.890068 0.00353737)
(4.9837 0.881162 0.0044492)
(4.88776 0.87597 0.00348136)
(4.88558 0.870284 0.00422607)
(4.8128 0.867369 0.0034125)
(4.80758 0.863542 0.00401985)
(4.75289 0.861987 0.00333838)
(4.74572 0.859532 0.00383327)
(4.70512 0.858629 0.00326381)
(4.69467 0.857114 0.00366519)
(4.66931 0.856361 0.00318933)
(4.64446 0.853332 0.00351446)
(4.65884 0.858924 0.0031133)
(4.58027 0.813974 0.00340426)
(4.71788 0.865234 0.00301304)
(4.56686 -0.201991 0.00466551)
(4.69417 -0.398888 0.0029624)
(5.08541 -0.522275 0.00412156)
(5.17465 -0.625802 0.00269385)
(5.35874 -0.691965 0.00378366)
(5.35423 -0.737003 0.00262921)
(5.44176 -0.762159 0.00354428)
(5.415 -0.780078 0.00257959)
(5.46151 -0.79146 0.0033271)
(5.4323 -0.800801 0.00251615)
(5.4572 -0.807511 0.00312543)
(5.43055 -0.813206 0.00244575)
(5.44313 -0.817709 0.00294174)
(5.41978 -0.821187 0.00237358)
(5.4257 -0.825005 0.0027752)
(5.40311 -0.825587 0.00230095)
(5.41027 -0.83432 0.00262096)
(5.36938 -0.82282 0.00222638)
(5.4115 -0.862338 0.00245125)
(5.20459 -0.862899 0.00211232)
(4.57917 0.334869 0.00531193)
(4.69152 0.671257 0.00364686)
(5.06428 0.779909 0.00475907)
(5.17229 0.818381 0.00331755)
(5.3908 0.833323 0.00439453)
(5.42667 0.841769 0.00323343)
(5.55438 0.84453 0.00414502)
(5.56752 0.846437 0.00317813)
(5.64948 0.84538 0.00392443)
(5.65391 0.845333 0.00311236)
(5.70716 0.843675 0.00372079)
(5.70693 0.843313 0.00304033)
(5.74109 0.842008 0.00353566)
(5.73836 0.8414 0.0029669)
(5.75894 0.841181 0.00336814)
(5.75614 0.838953 0.00289311)
(5.76389 0.841904 0.00321613)
(5.76416 0.836237 0.00281694)
(5.76566 0.836375 0.00308936)
(5.73637 0.885328 0.00272737)
(4.57318 -0.26585 0.00494428)
(4.66458 -0.530899 0.00334304)
(5.0333 -0.643638 0.00445432)
(5.14355 -0.712606 0.00301994)
(5.37295 -0.751664 0.00409553)
(5.42219 -0.778021 0.00293478)
(5.5649 -0.79181 0.00384659)
(5.59331 -0.801842 0.00288013)
(5.69037 -0.807117 0.00362697)
(5.70967 -0.812001 0.00281547)
(5.77696 -0.814822 0.00342438)
(5.78992 -0.817777 0.00274438)
(5.83657 -0.819848 0.00324002)
(5.84415 -0.821378 0.00267166)
(5.87677 -0.824143 0.00307292)
(5.87817 -0.822359 0.00259855)
(5.90427 -0.831342 0.00291934)
(5.88664 -0.818549 0.00252287)
(5.93336 -0.849008 0.00276826)
(5.80698 -0.875182 0.0024266)
(4.57318 0.26585 0.00494428)
(4.66458 0.530899 0.00334304)
(5.0333 0.643638 0.00445432)
(5.14355 0.712606 0.00301994)
(5.37295 0.751664 0.00409553)
(5.42219 0.778022 0.00293478)
(5.5649 0.79181 0.00384659)
(5.59331 0.801844 0.00288013)
(5.69037 0.807119 0.00362697)
(5.70968 0.812007 0.00281546)
(5.77696 0.81483 0.00342439)
(5.78993 0.817795 0.00274437)
(5.83654 0.819872 0.00324003)
(5.84419 0.821439 0.00267162)
(5.87671 0.824212 0.00307298)
(5.87832 0.822562 0.00259841)
(5.90416 0.831553 0.00291958)
(5.88711 0.819169 0.00252255)
(5.93354 0.849701 0.00276939)
(5.80799 0.876883 0.00242646)
(4.57917 -0.334869 0.00531193)
(4.69152 -0.671257 0.00364686)
(5.06428 -0.779909 0.00475907)
(5.17229 -0.81838 0.00331755)
(5.3908 -0.833323 0.00439453)
(5.42667 -0.841768 0.00323343)
(5.55438 -0.84453 0.00414501)
(5.56752 -0.846435 0.00317814)
(5.64948 -0.845379 0.00392442)
(5.65391 -0.845326 0.00311237)
(5.70716 -0.843669 0.00372078)
(5.70693 -0.843291 0.00304035)
(5.74112 -0.841992 0.00353563)
(5.73836 -0.841327 0.00296695)
(5.75904 -0.841138 0.00336804)
(5.75611 -0.83873 0.00289326)
(5.76419 -0.841773 0.00321581)
(5.76399 -0.835682 0.00281722)
(5.76617 -0.835835 0.00308821)
(5.73622 -0.883903 0.00272716)
(4.56686 0.201991 0.00466551)
(4.69417 0.398888 0.0029624)
(5.08541 0.522276 0.00412156)
(5.17466 0.625802 0.00269385)
(5.35874 0.691966 0.00378366)
(5.35423 0.737004 0.00262921)
(5.44176 0.762159 0.00354428)
(5.415 0.780079 0.00257959)
(5.46151 0.791463 0.00332709)
(5.43231 0.800804 0.00251615)
(5.45719 0.80752 0.00312542)
(5.43059 0.813215 0.00244574)
(5.44311 0.817737 0.00294173)
(5.41989 0.82122 0.00237356)
(5.42569 0.825084 0.0027752)
(5.40342 0.82571 0.0023009)
(5.41034 0.83456 0.00262105)
(5.37032 0.823319 0.00222623)
(5.41215 0.863074 0.00245216)
(5.20724 0.864549 0.00211219)
(4.62598 -0.424648 0.00583305)
(4.81235 -0.843703 0.00391127)
(5.09673 -0.932219 0.00506591)
(5.04371 -0.921198 0.00360916)
(5.09457 -0.902688 0.00469664)
(4.97839 -0.890068 0.00353737)
(4.9837 -0.881161 0.0044492)
(4.88777 -0.875968 0.00348136)
(4.88558 -0.870284 0.00422606)
(4.81282 -0.867363 0.00341251)
(4.80759 -0.863539 0.00401983)
(4.75293 -0.861967 0.00333841)
(4.74574 -0.859526 0.00383321)
(4.70522 -0.858562 0.0032639)
(4.69478 -0.857106 0.003665)
(4.66955 -0.856158 0.00318958)
(4.64484 -0.853329 0.00351392)
(4.65939 -0.858488 0.00311384)
(4.58129 -0.813906 0.00340276)
(4.71947 -0.864593 0.00301334)
(4.74219 0.10684 0.00454892)
(4.61163 0.286985 0.00255481)
(4.53247 0.486573 0.00382572)
(4.19687 0.646087 0.00240811)
(4.07671 0.736524 0.00352094)
(3.847 0.786979 0.00237376)
(3.79329 0.81129 0.00329137)
(3.6488 0.82608 0.00232671)
(3.6253 0.834518 0.00307339)
(3.52931 0.840865 0.00226145)
(3.51715 0.844938 0.00287025)
(3.45066 0.848344 0.00218996)
(3.44264 0.850449 0.00268598)
(3.39454 0.852787 0.00211743)
(3.38894 0.853288 0.00251921)
(3.34977 0.856417 0.00204474)
(3.35311 0.85471 0.00236528)
(3.29988 0.857999 0.0019721)
(3.35934 0.867215 0.00219864)
(3.03605 0.8575 0.00183178)
(4.33259 -0.550583 0.00710474)
(3.14979 -0.825861 0.0046793)
(2.4365 -0.846933 0.00592144)
(1.93142 -0.832019 0.00447064)
(1.81497 -0.835023 0.0055747)
(1.6483 -0.846049 0.00442183)
(1.64941 -0.85509 0.0053351)
(1.55525 -0.862323 0.00436801)
(1.56624 -0.865957 0.00511175)
(1.50242 -0.869076 0.00429841)
(1.51238 -0.87038 0.00490523)
(1.46775 -0.871985 0.00422428)
(1.47492 -0.87243 0.004719)
(1.44253 -0.873534 0.00415019)
(1.44747 -0.8732 0.0045513)
(1.42221 -0.875497 0.00407637)
(1.42546 -0.867818 0.00440036)
(1.42267 -0.890537 0.00400097)
(1.35819 -0.774526 0.00428946)
(1.81392 -0.796817 0.00387199)
(4.37734 0.0909228 0.00146169)
(4.01041 0.135714 0.00199586)
(3.52494 0.145496 0.00106483)
(3.12888 0.137828 0.00159152)
(2.78549 0.12662 0.00107544)
(2.56269 0.119424 0.00146992)
(2.39487 0.115991 0.00112711)
(2.30274 0.116936 0.00137198)
(2.23522 0.120003 0.0011413)
(2.20194 0.124613 0.00128337)
(2.17536 0.129231 0.00114093)
(2.16226 0.133809 0.001215)
(2.15012 0.137511 0.00114026)
(2.14444 0.141114 0.00116765)
(2.13586 0.142998 0.00114474)
(2.1387 0.146909 0.00113743)
(2.11984 0.144683 0.00115854)
(2.15253 0.153788 0.00111907)
(2.0793 0.139121 0.00116237)
(2.2107 0.149532 0.00117689)
(4.53387 0.0822366 0.00323643)
(4.67155 0.106641 0.00394365)
(4.69832 0.101688 0.00300712)
(4.701 0.0717859 0.00351029)
(4.62927 0.0329851 0.00297145)
(4.56631 -0.00717648 0.00335356)
(4.48002 -0.0413423 0.00300305)
(4.41671 -0.0692074 0.00324505)
(4.34869 -0.0895301 0.00301214)
(4.30079 -0.104917 0.00315387)
(4.25284 -0.115751 0.00301061)
(4.21952 -0.123968 0.00308486)
(4.18681 -0.13011 0.00300989)
(4.16549 -0.134467 0.00303736)
(4.14256 -0.138947 0.00301492)
(4.13315 -0.139815 0.0030068)
(4.11175 -0.14613 0.00303143)
(4.1214 -0.139705 0.00298677)
(4.08204 -0.153338 0.00307285)
(4.12657 -0.136058 0.00308182)
(4.51071 0.0431698 0.0018166)
(4.65224 0.10118 0.00241159)
(4.75862 0.145519 0.00150736)
(4.89689 0.166893 0.00201463)
(4.9746 0.172172 0.00148249)
(5.04998 0.170276 0.00187106)
(5.07867 0.165776 0.00152844)
(5.10723 0.162462 0.00177495)
(5.1097 0.160469 0.00154684)
(5.11727 0.160025 0.00169005)
(5.11101 0.160095 0.00154909)
(5.11174 0.160773 0.00162342)
(5.10375 0.160819 0.0015494)
(5.10407 0.161932 0.00157678)
(5.0957 0.160266 0.00155411)
(5.09959 0.163969 0.00154757)
(5.08935 0.156203 0.00156585)
(5.10018 0.17057 0.00153613)
(5.08712 0.145957 0.00155595)
(5.10121 0.182491 0.0015876)
(4.50669 0.041138 0.00282486)
(4.62016 0.044667 0.00352592)
(4.72063 0.0372746 0.0026446)
(4.8696 0.017461 0.00315599)
(4.97498 -0.00596665 0.00261013)
(5.08921 -0.030884 0.00298794)
(5.16099 -0.0534495 0.00263539)
(5.23334 -0.072954 0.00287748)
(5.27731 -0.0884207 0.00264544)
(5.32348 -0.100702 0.00278741)
(5.35256 -0.110288 0.00264464)
(5.38473 -0.117591 0.0027186)
(5.40631 -0.124032 0.00264361)
(5.43024 -0.128005 0.00267078)
(5.44833 -0.133722 0.00264786)
(5.46518 -0.133896 0.00264082)
(5.48546 -0.142255 0.00266236)
(5.48879 -0.134936 0.00262885)
(5.5269 -0.149616 0.00270623)
(5.493 -0.132832 0.00271484)
(4.5077 0.0158334 0.00213151)
(4.62102 0.0517265 0.00278766)
(4.7152 0.0833741 0.00191613)
(4.8592 0.105124 0.00241933)
(4.96317 0.118248 0.00187205)
(5.08094 0.126959 0.00225028)
(5.15982 0.132896 0.0019006)
(5.24222 0.138135 0.00214476)
(5.29781 0.142616 0.00191528)
(5.35673 0.146826 0.00205827)
(5.3992 0.150277 0.00191701)
(5.4448 0.153343 0.00199129)
(5.48031 0.15539 0.00191715)
(5.51695 0.15763 0.00194445)
(5.54922 0.157819 0.00192175)
(5.57626 0.160961 0.00191567)
(5.61245 0.156992 0.00193339)
(5.61965 0.16633 0.0019084)
(5.68227 0.152318 0.001938)
(5.64153 0.178236 0.00196554)
(4.50647 0.010869 0.00246125)
(4.61366 -0.00503484 0.00314593)
(4.70671 -0.0239621 0.00228189)
(4.8494 -0.0445875 0.00279053)
(4.95298 -0.0626849 0.00224177)
(5.07106 -0.0792154 0.00261842)
(5.15124 -0.093241 0.0022664)
(5.23577 -0.10534 0.00250961)
(5.29437 -0.115158 0.00227909)
(5.35673 -0.123209 0.00242182)
(5.40343 -0.129661 0.00228008)
(5.45309 -0.134683 0.00235426)
(5.49384 -0.138972 0.00227986)
(5.53435 -0.141858 0.00230706)
(5.57316 -0.145062 0.00228435)
(5.60251 -0.14625 0.002278)
(5.64786 -0.149101 0.00229738)
(5.65319 -0.149138 0.00227054)
(5.73014 -0.15043 0.00232561)
(5.68124 -0.154017 0.00233973)
(4.50647 -0.0108691 0.00246125)
(4.61366 0.00503503 0.00314593)
(4.70671 0.0239619 0.00228189)
(4.8494 0.0445879 0.00279053)
(4.95298 0.0626846 0.00224177)
(5.07106 0.0792165 0.00261842)
(5.15124 0.0932409 0.00226639)
(5.23577 0.105343 0.00250961)
(5.29437 0.115159 0.00227909)
(5.35673 0.123216 0.00242183)
(5.40343 0.129666 0.00228007)
(5.45309 0.134704 0.00235428)
(5.49383 0.138983 0.00227985)
(5.53436 0.141928 0.0023071)
(5.57316 0.145085 0.0022843)
(5.60254 0.146469 0.00227813)
(5.64787 0.149185 0.00229709)
(5.65326 0.14972 0.0022708)
(5.73023 0.150917 0.00232417)
(5.68145 0.155298 0.00233989)
(4.5077 -0.0158335 0.00213151)
(4.62102 -0.0517263 0.00278766)
(4.7152 -0.0833742 0.00191613)
(4.8592 -0.105123 0.00241933)
(4.96317 -0.118249 0.00187205)
(5.08094 -0.126958 0.00225028)
(5.15982 -0.132896 0.0019006)
(5.24222 -0.138132 0.00214476)
(5.29781 -0.142615 0.00191528)
(5.35673 -0.146819 0.00205826)
(5.39921 -0.150273 0.00191702)
(5.4448 -0.153321 0.00199127)
(5.48033 -0.155381 0.00191716)
(5.51694 -0.15756 0.0019444)
(5.54927 -0.1578 0.00192179)
(5.57626 -0.160744 0.00191555)
(5.61258 -0.156921 0.00193362)
(5.61969 -0.165768 0.00190814)
(5.68254 -0.151877 0.0019392)
(5.6418 -0.177041 0.00196527)
(4.50669 -0.0411381 0.00282486)
(4.62016 -0.0446669 0.00352592)
(4.72063 -0.0372747 0.0026446)
(4.8696 -0.0174606 0.00315599)
(4.97497 0.00596647 0.00261013)
(5.08922 0.0308849 0.00298794)
(5.16098 0.0534494 0.00263539)
(5.23335 0.0729563 0.00287748)
(5.27731 0.0884218 0.00264543)
(5.32349 0.100708 0.00278741)
(5.35255 0.110293 0.00264463)
(5.38475 0.117609 0.00271862)
(5.40631 0.124044 0.00264358)
(5.43028 0.128066 0.00267083)
(5.44837 0.133744 0.00264778)
(5.46527 0.134095 0.00264094)
(5.48563 0.142324 0.00266203)
(5.48905 0.135486 0.00262908)
(5.52746 0.150027 0.0027048)
(5.49387 0.134075 0.00271485)
(4.51071 -0.0431699 0.0018166)
(4.65224 -0.10118 0.00241159)
(4.75862 -0.145519 0.00150736)
(4.89689 -0.166893 0.00201463)
(4.9746 -0.172172 0.00148249)
(5.04998 -0.170275 0.00187106)
(5.07867 -0.165777 0.00152844)
(5.10724 -0.16246 0.00177495)
(5.10969 -0.160469 0.00154683)
(5.11728 -0.160019 0.00169005)
(5.111 -0.160093 0.00154908)
(5.11178 -0.160754 0.00162342)
(5.10374 -0.160815 0.00154939)
(5.10416 -0.161872 0.00157677)
(5.09574 -0.160263 0.00155409)
(5.0998 -0.163786 0.00154754)
(5.08959 -0.156186 0.00156588)
(5.10067 -0.170104 0.00153607)
(5.08794 -0.145708 0.00155648)
(5.1026 -0.181601 0.00158759)
(4.53387 -0.0822366 0.00323643)
(4.67155 -0.106641 0.00394365)
(4.69832 -0.101688 0.00300712)
(4.701 -0.0717858 0.00351029)
(4.62927 -0.032985 0.00297145)
(4.56631 0.0071767 0.00335357)
(4.48002 0.0413429 0.00300305)
(4.41671 0.069208 0.00324506)
(4.34869 0.089532 0.00301213)
(4.30081 0.104919 0.0031539)
(4.25283 0.115756 0.00301057)
(4.21959 0.123974 0.00308492)
(4.18678 0.130122 0.00300979)
(4.16568 0.134493 0.00303752)
(4.14253 0.138967 0.00301464)
(4.13364 0.13992 0.00300722)
(4.11183 0.14617 0.00303065)
(4.12264 0.140028 0.0029878)
(4.08257 0.153573 0.00307046)
(4.12997 0.136837 0.00308398)
(4.37734 -0.0909228 0.00146169)
(4.01041 -0.135714 0.00199586)
(3.52494 -0.145496 0.00106483)
(3.12888 -0.137828 0.00159152)
(2.78549 -0.12662 0.00107544)
(2.56269 -0.119424 0.00146992)
(2.39487 -0.115991 0.00112711)
(2.30275 -0.116936 0.00137198)
(2.23523 -0.120002 0.0011413)
(2.20195 -0.124612 0.00128337)
(2.17537 -0.129231 0.00114092)
(2.1623 -0.133805 0.001215)
(2.15015 -0.137511 0.00114025)
(2.14456 -0.1411 0.00116765)
(2.13597 -0.143006 0.0011447)
(2.13897 -0.146861 0.00113748)
(2.12024 -0.144718 0.00115834)
(2.15335 -0.153664 0.00111936)
(2.08018 -0.139193 0.00116161)
(2.21446 -0.149517 0.00117815)
(4.37734 0.0909228 -0.00146176)
(4.01041 0.135714 -0.00199594)
(3.52494 0.145496 -0.00106491)
(3.12888 0.137828 -0.0015916)
(2.78549 0.12662 -0.00107552)
(2.56269 0.119424 -0.00147)
(2.39487 0.115991 -0.00112719)
(2.30274 0.116936 -0.00137206)
(2.23522 0.120003 -0.00114138)
(2.20194 0.124613 -0.00128345)
(2.17536 0.129231 -0.00114101)
(2.16226 0.133809 -0.00121508)
(2.15012 0.137511 -0.00114034)
(2.14444 0.141114 -0.00116773)
(2.13586 0.142998 -0.00114482)
(2.1387 0.146909 -0.00113751)
(2.11984 0.144683 -0.00115862)
(2.15253 0.153788 -0.00111915)
(2.0793 0.139121 -0.00116245)
(2.2107 0.149532 -0.00117697)
(4.53387 0.0822366 -0.0032365)
(4.67155 0.106641 -0.00394373)
(4.69832 0.101688 -0.0030072)
(4.701 0.0717858 -0.00351037)
(4.62927 0.0329851 -0.00297153)
(4.56631 -0.00717653 -0.00335364)
(4.48002 -0.0413424 -0.00300313)
(4.4167 -0.0692075 -0.00324513)
(4.34869 -0.0895301 -0.00301222)
(4.30079 -0.104918 -0.00315395)
(4.25284 -0.115751 -0.00301069)
(4.21952 -0.123968 -0.00308494)
(4.1868 -0.13011 -0.00300997)
(4.16549 -0.134467 -0.00303744)
(4.14256 -0.138947 -0.00301499)
(4.13315 -0.139816 -0.00300688)
(4.11175 -0.14613 -0.00303151)
(4.1214 -0.139705 -0.00298685)
(4.08204 -0.153339 -0.00307293)
(4.12657 -0.136058 -0.0030819)
(4.51071 0.0431698 -0.00181667)
(4.65224 0.10118 -0.00241167)
(4.75862 0.145519 -0.00150744)
(4.89689 0.166894 -0.00201471)
(4.9746 0.172172 -0.00148257)
(5.04998 0.170276 -0.00187114)
(5.07867 0.165776 -0.00152852)
(5.10723 0.162462 -0.00177503)
(5.1097 0.160469 -0.00154692)
(5.11727 0.160025 -0.00169013)
(5.11101 0.160095 -0.00154917)
(5.11174 0.160773 -0.0016235)
(5.10375 0.160819 -0.00154948)
(5.10407 0.161932 -0.00157685)
(5.09569 0.160266 -0.00155419)
(5.09959 0.163969 -0.00154765)
(5.08935 0.156204 -0.00156593)
(5.10018 0.17057 -0.00153621)
(5.08712 0.145957 -0.00155603)
(5.10121 0.182491 -0.00158768)
(4.50669 0.041138 -0.00282493)
(4.62016 0.044667 -0.00352599)
(4.72063 0.0372745 -0.00264468)
(4.8696 0.0174609 -0.00315607)
(4.97498 -0.0059667 -0.00261021)
(5.08921 -0.030884 -0.00298802)
(5.16098 -0.0534495 -0.00263547)
(5.23334 -0.0729541 -0.00287755)
(5.27731 -0.0884208 -0.00264552)
(5.32348 -0.100702 -0.00278748)
(5.35256 -0.110288 -0.00264472)
(5.38473 -0.117591 -0.00271868)
(5.40631 -0.124032 -0.00264369)
(5.43024 -0.128005 -0.00267086)
(5.44833 -0.133722 -0.00264794)
(5.46518 -0.133896 -0.0026409)
(5.48546 -0.142255 -0.00266244)
(5.48879 -0.134937 -0.00262893)
(5.5269 -0.149617 -0.00270631)
(5.493 -0.132832 -0.00271492)
(4.5077 0.0158334 -0.00213158)
(4.62102 0.0517265 -0.00278774)
(4.7152 0.0833741 -0.00191621)
(4.8592 0.105124 -0.00241941)
(4.96317 0.118248 -0.00187213)
(5.08094 0.126959 -0.00225036)
(5.15982 0.132896 -0.00190068)
(5.24222 0.138135 -0.00214484)
(5.29781 0.142616 -0.00191536)
(5.35673 0.146826 -0.00205834)
(5.3992 0.150277 -0.00191709)
(5.4448 0.153343 -0.00199137)
(5.48031 0.15539 -0.00191723)
(5.51694 0.15763 -0.00194453)
(5.54922 0.157819 -0.00192183)
(5.57626 0.160961 -0.00191575)
(5.61245 0.156992 -0.00193348)
(5.61965 0.16633 -0.00190848)
(5.68227 0.152318 -0.00193809)
(5.64153 0.178236 -0.00196562)
(4.50647 0.010869 -0.00246133)
(4.61366 -0.00503486 -0.00314601)
(4.70671 -0.0239621 -0.00228197)
(4.8494 -0.0445875 -0.00279061)
(4.95298 -0.0626849 -0.00224185)
(5.07106 -0.0792155 -0.0026185)
(5.15124 -0.093241 -0.00226647)
(5.23577 -0.10534 -0.00250968)
(5.29437 -0.115158 -0.00227917)
(5.35673 -0.123209 -0.0024219)
(5.40343 -0.129661 -0.00228016)
(5.45309 -0.134683 -0.00235434)
(5.49384 -0.138972 -0.00227994)
(5.53435 -0.141858 -0.00230714)
(5.57316 -0.145062 -0.00228443)
(5.60251 -0.14625 -0.00227808)
(5.64786 -0.149101 -0.00229746)
(5.65319 -0.149138 -0.00227062)
(5.73014 -0.15043 -0.00232569)
(5.68124 -0.154017 -0.00233982)
(4.50647 -0.0108691 -0.00246133)
(4.61366 0.00503504 -0.00314601)
(4.70671 0.023962 -0.00228197)
(4.8494 0.044588 -0.00279061)
(4.95298 0.0626847 -0.00224185)
(5.07106 0.0792166 -0.0026185)
(5.15124 0.0932409 -0.00226647)
(5.23577 0.105343 -0.00250969)
(5.29437 0.115159 -0.00227917)
(5.35673 0.123216 -0.00242191)
(5.40343 0.129666 -0.00228015)
(5.45309 0.134704 -0.00235436)
(5.49383 0.138983 -0.00227993)
(5.53436 0.141928 -0.00230718)
(5.57316 0.145086 -0.00228438)
(5.60254 0.14647 -0.00227821)
(5.64787 0.149185 -0.00229717)
(5.65326 0.14972 -0.00227088)
(5.73023 0.150917 -0.00232425)
(5.68145 0.155298 -0.00233997)
(4.5077 -0.0158335 -0.00213158)
(4.62102 -0.0517263 -0.00278774)
(4.7152 -0.0833743 -0.00191621)
(4.8592 -0.105123 -0.00241941)
(4.96317 -0.118249 -0.00187213)
(5.08094 -0.126958 -0.00225036)
(5.15982 -0.132896 -0.00190068)
(5.24222 -0.138132 -0.00214484)
(5.29781 -0.142615 -0.00191536)
(5.35673 -0.146819 -0.00205834)
(5.39921 -0.150273 -0.00191709)
(5.4448 -0.153321 -0.00199135)
(5.48033 -0.155381 -0.00191724)
(5.51694 -0.15756 -0.00194448)
(5.54927 -0.1578 -0.00192187)
(5.57626 -0.160744 -0.00191562)
(5.61258 -0.156921 -0.0019337)
(5.61969 -0.165768 -0.00190822)
(5.68254 -0.151877 -0.00193928)
(5.6418 -0.177041 -0.00196535)
(4.50669 -0.0411381 -0.00282493)
(4.62016 -0.0446669 -0.00352599)
(4.72063 -0.0372747 -0.00264468)
(4.8696 -0.0174605 -0.00315607)
(4.97497 0.00596651 -0.00261021)
(5.08922 0.030885 -0.00298802)
(5.16098 0.0534495 -0.00263547)
(5.23335 0.0729564 -0.00287756)
(5.27731 0.0884219 -0.00264551)
(5.32349 0.100708 -0.00278749)
(5.35255 0.110293 -0.00264471)
(5.38475 0.117609 -0.0027187)
(5.40631 0.124044 -0.00264366)
(5.43028 0.128066 -0.00267091)
(5.44837 0.133744 -0.00264786)
(5.46527 0.134095 -0.00264102)
(5.48563 0.142324 -0.00266212)
(5.48905 0.135486 -0.00262916)
(5.52746 0.150027 -0.00270488)
(5.49387 0.134075 -0.00271493)
(4.51071 -0.0431699 -0.00181667)
(4.65224 -0.10118 -0.00241167)
(4.75862 -0.145519 -0.00150744)
(4.89689 -0.166893 -0.00201471)
(4.9746 -0.172173 -0.00148257)
(5.04998 -0.170275 -0.00187114)
(5.07867 -0.165777 -0.00152852)
(5.10724 -0.16246 -0.00177503)
(5.10969 -0.160469 -0.00154691)
(5.11728 -0.160019 -0.00169013)
(5.111 -0.160093 -0.00154916)
(5.11178 -0.160754 -0.0016235)
(5.10374 -0.160815 -0.00154947)
(5.10416 -0.161872 -0.00157685)
(5.09574 -0.160263 -0.00155417)
(5.0998 -0.163786 -0.00154762)
(5.08959 -0.156186 -0.00156596)
(5.10067 -0.170104 -0.00153615)
(5.08794 -0.145708 -0.00155656)
(5.1026 -0.181601 -0.00158767)
(4.53387 -0.0822366 -0.0032365)
(4.67155 -0.106641 -0.00394373)
(4.69832 -0.101688 -0.0030072)
(4.701 -0.0717858 -0.00351037)
(4.62927 -0.0329849 -0.00297152)
(4.56631 0.00717675 -0.00335365)
(4.48002 0.041343 -0.00300313)
(4.41671 0.069208 -0.00324514)
(4.34869 0.0895321 -0.00301221)
(4.30081 0.104919 -0.00315397)
(4.25283 0.115756 -0.00301065)
(4.21959 0.123974 -0.003085)
(4.18678 0.130123 -0.00300987)
(4.16568 0.134493 -0.0030376)
(4.14253 0.138967 -0.00301472)
(4.13364 0.13992 -0.0030073)
(4.11183 0.14617 -0.00303073)
(4.12264 0.140028 -0.00298788)
(4.08257 0.153573 -0.00307054)
(4.12997 0.136837 -0.00308406)
(4.37734 -0.0909228 -0.00146176)
(4.01041 -0.135714 -0.00199594)
(3.52494 -0.145496 -0.00106491)
(3.12888 -0.137828 -0.0015916)
(2.78549 -0.12662 -0.00107552)
(2.56269 -0.119424 -0.00147)
(2.39487 -0.115991 -0.00112719)
(2.30275 -0.116936 -0.00137206)
(2.23523 -0.120002 -0.00114138)
(2.20195 -0.124612 -0.00128345)
(2.17537 -0.129231 -0.001141)
(2.1623 -0.133805 -0.00121508)
(2.15015 -0.137511 -0.00114033)
(2.14456 -0.1411 -0.00116773)
(2.13597 -0.143006 -0.00114478)
(2.13897 -0.146861 -0.00113756)
(2.12024 -0.144718 -0.00115842)
(2.15335 -0.153664 -0.00111944)
(2.08018 -0.139193 -0.00116169)
(2.21446 -0.149517 -0.00117823)
(4.33259 0.550583 -0.0071048)
(3.14979 0.825861 -0.00467936)
(2.4365 0.846933 -0.0059215)
(1.93142 0.832019 -0.0044707)
(1.81497 0.835023 -0.00557475)
(1.6483 0.846049 -0.00442189)
(1.64941 0.85509 -0.00533516)
(1.55525 0.862324 -0.00436806)
(1.56624 0.865956 -0.00511181)
(1.50242 0.869079 -0.00429847)
(1.51237 0.870377 -0.0049053)
(1.46772 0.871998 -0.00422432)
(1.47489 0.87242 -0.00471909)
(1.44246 0.873576 -0.00415019)
(1.44736 0.87316 -0.00455148)
(1.42202 0.875622 -0.00407624)