/*--------------------------------*- C++ -*----------------------------------*\
  =========                 |
  \\      /  F ield         | OpenFOAM: The Open Source CFD Toolbox
   \\    /   O peration     | Website:  https://openfoam.org
    \\  /    A nd           | Version:  7
     \\/     M anipulation  |
\*---------------------------------------------------------------------------*/
FoamFile
{
    version     2.0;
    format      ascii;
    class       volVectorField;
    location    "4.28";
    object      U_0;
}
// * * * * * * * * * * * * * * * * * * * * * * * * * * * * * * * * * * * * * //

dimensions      [0 1 -1 0 0 0 0];

internalField   nonuniform List<vector> 
5760
(
(2.2563 0.123041 0)
(1.31032 0.0179316 0)
(1.06885 -0.00281281 0)
(0.939717 -0.000734304 0)
(0.868289 -0.000432486 0)
(0.828755 -0.000488993 0)
(0.808413 -0.000218405 0)
(0.793648 8.19164e-05 0)
(0.778417 0.000155352 0)
(0.763663 0.000103088 0)
(0.751104 6.19654e-05 0)
(0.740765 5.87552e-05 0)
(0.731905 6.62639e-05 0)
(0.724021 6.8036e-05 0)
(0.716939 6.51013e-05 0)
(0.710592 6.17167e-05 0)
(0.704891 5.93455e-05 0)
(0.699742 5.7534e-05 0)
(0.695062 5.57356e-05 0)
(0.690791 5.3903e-05 0)
(0.686883 5.21439e-05 0)
(0.683295 5.04963e-05 0)
(0.679993 4.89399e-05 0)
(0.676947 4.74525e-05 0)
(0.674131 4.6028e-05 0)
(0.671523 4.46668e-05 0)
(0.669103 4.33714e-05 0)
(0.666854 4.21433e-05 0)
(0.664762 4.09818e-05 0)
(0.662813 3.98851e-05 0)
(0.660996 3.885e-05 0)
(0.6593 3.78727e-05 0)
(0.657716 3.69459e-05 0)
(0.656235 3.60698e-05 0)
(0.65485 3.52366e-05 0)
(0.653554 3.44386e-05 0)
(0.65234 3.36847e-05 0)
(0.651204 3.2951e-05 0)
(0.65014 3.22379e-05 0)
(0.649144 3.15572e-05 0)
(0.648211 3.08965e-05 0)
(0.647338 3.02527e-05 0)
(0.646521 2.96292e-05 0)
(0.645757 2.90264e-05 0)
(0.645043 2.84422e-05 0)
(0.644377 2.788e-05 0)
(0.643756 2.73284e-05 0)
(0.643178 2.68091e-05 0)
(0.642641 2.62817e-05 0)
(0.642142 2.5839e-05 0)
(0.641681 2.53739e-05 0)
(0.641254 2.48816e-05 0)
(0.640862 2.44345e-05 0)
(0.640503 2.40126e-05 0)
(0.640175 2.35889e-05 0)
(0.639877 2.3165e-05 0)
(0.639608 2.27572e-05 0)
(0.639368 2.23599e-05 0)
(0.639155 2.19526e-05 0)
(0.638968 2.15464e-05 0)
(0.638807 2.11624e-05 0)
(0.63867 2.07964e-05 0)
(0.638557 2.0429e-05 0)
(0.638468 2.00338e-05 0)
(0.638401 1.96515e-05 0)
(0.638357 1.93152e-05 0)
(0.638333 1.89824e-05 0)
(0.63833 1.86357e-05 0)
(0.638348 1.83056e-05 0)
(0.638384 1.79863e-05 0)
(0.638439 1.76759e-05 0)
(0.638512 1.73742e-05 0)
(0.638603 1.70818e-05 0)
(0.638709 1.6797e-05 0)
(0.638832 1.65194e-05 0)
(0.638969 1.6245e-05 0)
(0.639121 1.59756e-05 0)
(0.639287 1.57121e-05 0)
(0.639466 1.54521e-05 0)
(0.639658 1.51956e-05 0)
(0.639862 1.49436e-05 0)
(0.640078 1.46969e-05 0)
(0.640304 1.44567e-05 0)
(0.640541 1.42223e-05 0)
(0.640788 1.39936e-05 0)
(0.641044 1.37726e-05 0)
(0.641309 1.35617e-05 0)
(0.641583 1.33603e-05 0)
(0.641864 1.31676e-05 0)
(0.642153 1.29837e-05 0)
(0.642448 1.28086e-05 0)
(0.642751 1.2641e-05 0)
(0.643059 1.24801e-05 0)
(0.643373 1.23256e-05 0)
(0.643692 1.21768e-05 0)
(0.644016 1.20324e-05 0)
(0.644345 1.18913e-05 0)
(0.644678 1.17534e-05 0)
(0.645015 1.16188e-05 0)
(0.645355 1.14882e-05 0)
(0.645699 1.13621e-05 0)
(0.646046 1.12416e-05 0)
(0.646396 1.11281e-05 0)
(0.646749 1.10231e-05 0)
(0.647104 1.09281e-05 0)
(0.647462 1.08446e-05 0)
(0.647822 1.07741e-05 0)
(0.648184 1.0718e-05 0)
(0.648547 1.06772e-05 0)
(0.648912 1.06525e-05 0)
(0.649278 1.06445e-05 0)
(0.649645 1.06531e-05 0)
(0.650013 1.06784e-05 0)
(0.650382 1.07202e-05 0)
(0.650752 1.07784e-05 0)
(0.651122 1.08528e-05 0)
(0.651492 1.09435e-05 0)
(0.651862 1.1051e-05 0)
(0.652233 1.11757e-05 0)
(0.652603 1.13186e-05 0)
(0.652974 1.14811e-05 0)
(0.653344 1.16646e-05 0)
(0.653714 1.18708e-05 0)
(0.654084 1.21016e-05 0)
(0.654453 1.23588e-05 0)
(0.654821 1.26442e-05 0)
(0.655189 1.29593e-05 0)
(0.655556 1.33052e-05 0)
(0.655923 1.3683e-05 0)
(0.656288 1.4093e-05 0)
(0.656653 1.45355e-05 0)
(0.657016 1.501e-05 0)
(0.657378 1.5516e-05 0)
(0.657739 1.60529e-05 0)
(0.658098 1.66195e-05 0)
(0.658457 1.72152e-05 0)
(0.658813 1.78393e-05 0)
(0.659168 1.84911e-05 0)
(0.659522 1.91696e-05 0)
(0.659874 1.98751e-05 0)
(0.660224 2.06079e-05 0)
(0.660573 2.13686e-05 0)
(0.66092 2.21575e-05 0)
(0.661266 2.29754e-05 0)
(0.661609 2.3823e-05 0)
(0.661952 2.47011e-05 0)
(0.662292 2.56098e-05 0)
(0.66263 2.65497e-05 0)
(0.662967 2.75206e-05 0)
(0.663302 2.85224e-05 0)
(0.663635 2.95549e-05 0)
(0.663966 3.06171e-05 0)
(0.664295 3.17074e-05 0)
(0.664623 3.28238e-05 0)
(0.664948 3.39642e-05 0)
(0.665271 3.51277e-05 0)
(0.665593 3.63129e-05 0)
(0.665912 3.75179e-05 0)
(0.66623 3.87409e-05 0)
(0.666545 3.99819e-05 0)
(0.666859 4.12394e-05 0)
(0.66717 4.25133e-05 0)
(0.66748 4.38066e-05 0)
(0.667788 4.51138e-05 0)
(0.668094 4.64326e-05 0)
(0.668398 4.77724e-05 0)
(0.668701 4.91268e-05 0)
(0.669002 5.04976e-05 0)
(0.6693 5.1888e-05 0)
(0.669597 5.32909e-05 0)
(0.669893 5.47102e-05 0)
(0.670186 5.61413e-05 0)
(0.670478 5.75878e-05 0)
(0.670768 5.90453e-05 0)
(0.671057 6.0512e-05 0)
(0.671343 6.19853e-05 0)
(0.671628 6.34668e-05 0)
(0.671911 6.49508e-05 0)
(0.672193 6.6438e-05 0)
(0.672473 6.79272e-05 0)
(0.672751 6.94173e-05 0)
(0.673028 7.0906e-05 0)
(0.673303 7.23944e-05 0)
(0.673576 7.38831e-05 0)
(0.673849 7.53718e-05 0)
(0.674119 7.68585e-05 0)
(0.674389 7.83453e-05 0)
(0.674657 7.98338e-05 0)
(0.674924 8.13236e-05 0)
(0.675189 8.2812e-05 0)
(0.675453 8.43006e-05 0)
(0.675716 8.5791e-05 0)
(0.675978 8.72815e-05 0)
(0.676238 8.87681e-05 0)
(0.676497 9.02509e-05 0)
(0.676755 9.17319e-05 0)
(0.677011 9.32087e-05 0)
(0.677267 9.4676e-05 0)
(0.677521 9.61345e-05 0)
(0.677774 9.75859e-05 0)
(0.678026 9.90262e-05 0)
(0.678277 0.000100453 0)
(0.678526 0.000101872 0)
(0.678775 0.000103283 0)
(0.679023 0.000104682 0)
(0.67927 0.000106067 0)
(0.679516 0.000107437 0)
(0.67976 0.000108797 0)
(0.680005 0.000110159 0)
(0.680248 0.000111512 0)
(0.68049 0.000112845 0)
(0.680732 0.000114182 0)
(0.680973 0.000115503 0)
(0.681213 0.000116821 0)
(0.681452 0.00011813 0)
(0.68169 0.000119432 0)
(0.681928 0.00012071 0)
(0.682164 0.000121994 0)
(0.6824 0.000123249 0)
(0.682636 0.00012452 0)
(0.68287 0.000125731 0)
(0.683104 0.000126981 0)
(0.683337 0.000128151 0)
(0.68357 0.000129391 0)
(0.683802 0.000130509 0)
(0.684033 0.000131735 0)
(0.684263 0.0001328 0)
(0.684494 0.000134027 0)
(0.684722 0.000135055 0)
(0.684954 0.000136225 0)
(0.685178 0.000137296 0)
(0.685414 0.000138336 0)
(0.685629 0.000139609 0)
(0.685875 0.000140175 0)
(0.68607 0.000142206 0)
(0.686342 0.000141611 0)
(0.686494 0.000145487 0)
(0.686821 0.000141937 0)
(0.68688 0.000151133 0)
(0.687386 0.000138271 0)
(3.80458 0.346856 0)
(3.11425 0.138893 0)
(2.74474 0.0361021 0)
(2.47117 0.0208837 0)
(2.29138 0.0130762 0)
(2.18121 0.00710503 0)
(2.11809 0.00460171 0)
(2.07492 0.00430666 0)
(2.03625 0.00425276 0)
(2.00013 0.00380194 0)
(1.96866 0.00322903 0)
(1.94215 0.00279241 0)
(1.91943 0.00249909 0)
(1.8994 0.0022722 0)
(1.8815 0.00207092 0)
(1.86547 0.001891 0)
(1.85107 0.00173542 0)
(1.83808 0.00160188 0)
(1.8263 0.00148541 0)
(1.81557 0.00138232 0)
(1.80576 0.00129041 0)
(1.79678 0.00120816 0)
(1.78852 0.00113419 0)
(1.78092 0.00106731 0)
(1.77391 0.00100656 0)
(1.76743 0.000951148 0)
(1.76142 0.000900447 0)
(1.75586 0.00085392 0)
(1.7507 0.000811102 0)
(1.7459 0.00077159 0)
(1.74144 0.000735036 0)
(1.73728 0.000701133 0)
(1.73341 0.000669618 0)
(1.72981 0.000640265 0)
(1.72644 0.000612855 0)
(1.72331 0.000587218 0)
(1.72038 0.000563182 0)
(1.71765 0.000540562 0)
(1.71511 0.000519261 0)
(1.71274 0.000499177 0)
(1.71053 0.000480177 0)
(1.70847 0.000462166 0)
(1.70655 0.000445078 0)
(1.70477 0.000428839 0)
(1.70312 0.00041339 0)
(1.70158 0.000398661 0)
(1.70016 0.000384585 0)
(1.69885 0.000371131 0)
(1.69765 0.000358215 0)
(1.69654 0.000346138 0)
(1.69552 0.000334467 0)
(1.6946 0.000323126 0)
(1.69375 0.000312221 0)
(1.693 0.000301746 0)
(1.69232 0.000291631 0)
(1.69171 0.000281858 0)
(1.69118 0.00027239 0)
(1.69072 0.000263269 0)
(1.69033 0.000254413 0)
(1.69 0.000245751 0)
(1.68974 0.000237367 0)
(1.68953 0.00022924 0)
(1.68939 0.000221379 0)
(1.68931 0.000213666 0)
(1.68928 0.000206141 0)
(1.6893 0.000198892 0)
(1.68938 0.000191883 0)
(1.68951 0.00018507 0)
(1.68968 0.000178476 0)
(1.68991 0.000172111 0)
(1.69018 0.000165971 0)
(1.69049 0.000160048 0)
(1.69084 0.00015434 0)
(1.69123 0.000148838 0)
(1.69166 0.000143534 0)
(1.69213 0.000138415 0)
(1.69263 0.00013348 0)
(1.69317 0.000128727 0)
(1.69373 0.000124144 0)
(1.69433 0.000119728 0)
(1.69496 0.000115477 0)
(1.69561 0.00011139 0)
(1.69629 0.000107464 0)
(1.697 0.000103695 0)
(1.69773 0.000100083 0)
(1.69848 9.66341e-05 0)
(1.69925 9.33492e-05 0)
(1.70004 9.02217e-05 0)
(1.70085 8.72457e-05 0)
(1.70168 8.44186e-05 0)
(1.70253 8.17344e-05 0)
(1.70338 7.91838e-05 0)
(1.70426 7.67593e-05 0)
(1.70514 7.4455e-05 0)
(1.70604 7.22633e-05 0)
(1.70695 7.01737e-05 0)
(1.70787 6.8177e-05 0)
(1.7088 6.62672e-05 0)
(1.70974 6.44407e-05 0)
(1.71069 6.26941e-05 0)
(1.71165 6.10252e-05 0)
(1.71261 5.94336e-05 0)
(1.71358 5.79203e-05 0)
(1.71456 5.64871e-05 0)
(1.71554 5.51359e-05 0)
(1.71653 5.38691e-05 0)
(1.71752 5.26891e-05 0)
(1.71851 5.15978e-05 0)
(1.71951 5.05963e-05 0)
(1.72052 4.96844e-05 0)
(1.72152 4.88612e-05 0)
(1.72253 4.81243e-05 0)
(1.72354 4.7471e-05 0)
(1.72455 4.68975e-05 0)
(1.72556 4.64001e-05 0)
(1.72657 4.59756e-05 0)
(1.72758 4.56207e-05 0)
(1.7286 4.53341e-05 0)
(1.72961 4.51142e-05 0)
(1.73062 4.49612e-05 0)
(1.73163 4.48771e-05 0)
(1.73264 4.48645e-05 0)
(1.73365 4.49269e-05 0)
(1.73466 4.50689e-05 0)
(1.73567 4.52956e-05 0)
(1.73667 4.56118e-05 0)
(1.73767 4.60219e-05 0)
(1.73867 4.65296e-05 0)
(1.73967 4.71373e-05 0)
(1.74067 4.78463e-05 0)
(1.74166 4.86565e-05 0)
(1.74265 4.95667e-05 0)
(1.74363 5.05745e-05 0)
(1.74461 5.16763e-05 0)
(1.74559 5.28682e-05 0)
(1.74656 5.41469e-05 0)
(1.74753 5.55088e-05 0)
(1.7485 5.69493e-05 0)
(1.74946 5.84652e-05 0)
(1.75042 6.00557e-05 0)
(1.75137 6.17214e-05 0)
(1.75232 6.34626e-05 0)
(1.75326 6.52803e-05 0)
(1.7542 6.7177e-05 0)
(1.75513 6.91558e-05 0)
(1.75606 7.12192e-05 0)
(1.75699 7.33691e-05 0)
(1.7579 7.56067e-05 0)
(1.75882 7.79329e-05 0)
(1.75973 8.03478e-05 0)
(1.76063 8.28513e-05 0)
(1.76153 8.54411e-05 0)
(1.76242 8.81124e-05 0)
(1.76331 9.0859e-05 0)
(1.76419 9.36749e-05 0)
(1.76507 9.65563e-05 0)
(1.76594 9.94985e-05 0)
(1.76681 0.000102494 0)
(1.76767 0.000105538 0)
(1.76852 0.000108628 0)
(1.76937 0.00011176 0)
(1.77022 0.000114933 0)
(1.77106 0.000118153 0)
(1.77189 0.000121411 0)
(1.77272 0.000124702 0)
(1.77355 0.000128045 0)
(1.77437 0.000131431 0)
(1.77518 0.000134861 0)
(1.77599 0.000138344 0)
(1.7768 0.000141866 0)
(1.7776 0.000145435 0)
(1.77839 0.000149041 0)
(1.77918 0.000152691 0)
(1.77997 0.000156377 0)
(1.78075 0.000160092 0)
(1.78152 0.000163827 0)
(1.78229 0.000167585 0)
(1.78306 0.000171353 0)
(1.78382 0.000175129 0)
(1.78458 0.000178911 0)
(1.78533 0.000182693 0)
(1.78608 0.00018647 0)
(1.78683 0.000190245 0)
(1.78757 0.000194019 0)
(1.78831 0.000197791 0)
(1.78904 0.000201556 0)
(1.78977 0.000205323 0)
(1.79049 0.000209096 0)
(1.79122 0.000212872 0)
(1.79194 0.000216649 0)
(1.79265 0.000220431 0)
(1.79336 0.000224222 0)
(1.79407 0.000228016 0)
(1.79477 0.000231806 0)
(1.79547 0.000235592 0)
(1.79617 0.000239376 0)
(1.79687 0.000243152 0)
(1.79756 0.000246907 0)
(1.79824 0.00025064 0)
(1.79893 0.000254355 0)
(1.79961 0.00025804 0)
(1.80029 0.000261692 0)
(1.80096 0.000265321 0)
(1.80164 0.000268927 0)
(1.80231 0.000272496 0)
(1.80297 0.000276032 0)
(1.80364 0.00027953 0)
(1.8043 0.000283001 0)
(1.80496 0.000286469 0)
(1.80562 0.000289923 0)
(1.80628 0.000293329 0)
(1.80693 0.000296741 0)
(1.80758 0.000300123 0)
(1.80823 0.000303497 0)
(1.80888 0.000306851 0)
(1.80952 0.000310195 0)
(1.81016 0.000313478 0)
(1.8108 0.000316781 0)
(1.81144 0.000320009 0)
(1.81208 0.000323282 0)
(1.81271 0.000326393 0)
(1.81334 0.000329617 0)
(1.81397 0.000332618 0)
(1.8146 0.000335821 0)
(1.81523 0.000338664 0)
(1.81586 0.00034186 0)
(1.81648 0.000344523 0)
(1.8171 0.000347776 0)
(1.81772 0.000350252 0)
(1.81835 0.000353512 0)
(1.81895 0.000355876 0)
(1.81959 0.000359106 0)
(1.82017 0.000361595 0)
(1.82084 0.000364215 0)
(1.82137 0.000367952 0)
(1.8221 0.000368624 0)
(1.82252 0.000376454 0)
(1.8234 0.000370445 0)
(1.82357 0.000388135 0)
(1.82486 0.000360707 0)
(4.41374 0.422874 0)
(4.22906 0.212942 0)
(3.97269 0.0753652 0)
(3.67504 0.0501111 0)
(3.43829 0.0343748 0)
(3.28021 0.0202764 0)
(3.18369 0.013113 0)
(3.11753 0.0111003 0)
(3.06163 0.0104157 0)
(3.01089 0.00936351 0)
(2.96635 0.00810285 0)
(2.92831 0.0070549 0)
(2.89554 0.00629095 0)
(2.86669 0.0056978 0)
(2.84097 0.00518883 0)
(2.81793 0.00474064 0)
(2.79723 0.00435167 0)
(2.77855 0.0040157 0)
(2.76161 0.00372247 0)
(2.74619 0.00346339 0)
(2.73211 0.00323274 0)
(2.71921 0.00302637 0)
(2.70737 0.00284083 0)
(2.69648 0.00267314 0)
(2.68645 0.00252088 0)
(2.67718 0.00238209 0)
(2.66861 0.00225513 0)
(2.66068 0.00213864 0)
(2.65333 0.00203144 0)
(2.64651 0.0019325 0)
(2.64018 0.00184096 0)
(2.63429 0.00175605 0)
(2.62883 0.00167711 0)
(2.62374 0.00160357 0)
(2.61901 0.00153491 0)
(2.61461 0.0014707 0)
(2.61052 0.00141047 0)
(2.60671 0.00135385 0)
(2.60317 0.00130058 0)
(2.59989 0.00125031 0)
(2.59683 0.00120278 0)
(2.594 0.00115775 0)
(2.59138 0.00111505 0)
(2.58896 0.00107447 0)
(2.58672 0.00103588 0)
(2.58465 0.000999091 0)
(2.58276 0.000963964 0)
(2.58102 0.000930364 0)
(2.57943 0.000898161 0)
(2.57799 0.000867859 0)
(2.57668 0.000838699 0)
(2.5755 0.000810522 0)
(2.57444 0.000783362 0)
(2.5735 0.000757227 0)
(2.57268 0.000732042 0)
(2.57196 0.000707763 0)
(2.57136 0.000684279 0)
(2.57085 0.000661564 0)
(2.57044 0.000639594 0)
(2.57013 0.000618223 0)
(2.56991 0.0005975 0)
(2.56977 0.000577399 0)
(2.56973 0.000557926 0)
(2.56976 0.000538936 0)
(2.56988 0.000520457 0)
(2.57007 0.000502597 0)
(2.57034 0.00048533 0)
(2.57067 0.000468591 0)
(2.57108 0.0004524 0)
(2.57155 0.000436782 0)
(2.57209 0.000421728 0)
(2.57269 0.00040722 0)
(2.57335 0.000393246 0)
(2.57406 0.000379789 0)
(2.57482 0.000366827 0)
(2.57564 0.000354335 0)
(2.5765 0.000342307 0)
(2.57742 0.000330732 0)
(2.57837 0.000319585 0)
(2.57937 0.000308857 0)
(2.58041 0.000298542 0)
(2.58149 0.000288632 0)
(2.5826 0.000279117 0)
(2.58375 0.000269987 0)
(2.58493 0.000261243 0)
(2.58614 0.000252895 0)
(2.58738 0.000244939 0)
(2.58865 0.00023736 0)
(2.58994 0.000230145 0)
(2.59126 0.000223288 0)
(2.59259 0.000216774 0)
(2.59395 0.000210581 0)
(2.59533 0.000204695 0)
(2.59673 0.000199099 0)
(2.59814 0.000193776 0)
(2.59957 0.000188702 0)
(2.60101 0.000183856 0)
(2.60246 0.000179223 0)
(2.60393 0.000174792 0)
(2.60541 0.000170553 0)
(2.6069 0.000166498 0)
(2.6084 0.000162621 0)
(2.60991 0.000158923 0)
(2.61143 0.000155404 0)
(2.61296 0.000152063 0)
(2.61449 0.000148905 0)
(2.61603 0.00014593 0)
(2.61757 0.000143142 0)
(2.61912 0.000140539 0)
(2.62067 0.000138121 0)
(2.62223 0.000135884 0)
(2.62378 0.000133822 0)
(2.62534 0.000131927 0)
(2.6269 0.000130191 0)
(2.62847 0.000128605 0)
(2.63003 0.000127159 0)
(2.63159 0.000125845 0)
(2.63316 0.000124657 0)
(2.63472 0.000123589 0)
(2.63628 0.000122637 0)
(2.63784 0.000121804 0)
(2.6394 0.00012109 0)
(2.64096 0.0001205 0)
(2.64251 0.000120041 0)
(2.64406 0.00011972 0)
(2.64561 0.000119545 0)
(2.64716 0.000119525 0)
(2.6487 0.000119664 0)
(2.65024 0.000119969 0)
(2.65178 0.000120441 0)
(2.65331 0.00012108 0)
(2.65483 0.000121886 0)
(2.65635 0.000122852 0)
(2.65786 0.000123974 0)
(2.65937 0.000125242 0)
(2.66087 0.00012665 0)
(2.66237 0.000128191 0)
(2.66385 0.000129855 0)
(2.66534 0.000131634 0)
(2.66681 0.000133526 0)
(2.66828 0.000135531 0)
(2.66974 0.000137648 0)
(2.6712 0.000139878 0)
(2.67265 0.000142226 0)
(2.67409 0.000144696 0)
(2.67553 0.000147295 0)
(2.67695 0.000150026 0)
(2.67837 0.000152892 0)
(2.67979 0.000155898 0)
(2.68119 0.000159045 0)
(2.68259 0.000162333 0)
(2.68398 0.00016576 0)
(2.68536 0.000169319 0)
(2.68673 0.000172999 0)
(2.68809 0.000176793 0)
(2.68945 0.000180691 0)
(2.6908 0.000184686 0)
(2.69213 0.000188765 0)
(2.69347 0.000192917 0)
(2.69479 0.000197137 0)
(2.69611 0.000201421 0)
(2.69741 0.000205764 0)
(2.69871 0.000210171 0)
(2.70001 0.000214635 0)
(2.70129 0.000219147 0)
(2.70257 0.000223734 0)
(2.70384 0.000228389 0)
(2.7051 0.000233114 0)
(2.70636 0.000237921 0)
(2.7076 0.000242795 0)
(2.70884 0.000247743 0)
(2.71008 0.000252759 0)
(2.7113 0.000257847 0)
(2.71252 0.000262999 0)
(2.71373 0.000268207 0)
(2.71493 0.000273453 0)
(2.71613 0.000278736 0)
(2.71732 0.000284045 0)
(2.7185 0.00028937 0)
(2.71968 0.000294704 0)
(2.72084 0.00030004 0)
(2.72201 0.000305371 0)
(2.72316 0.000310697 0)
(2.72431 0.000316021 0)
(2.72546 0.000321338 0)
(2.7266 0.000326649 0)
(2.72773 0.000331963 0)
(2.72886 0.000337287 0)
(2.72998 0.000342619 0)
(2.73109 0.000347958 0)
(2.7322 0.000353314 0)
(2.73331 0.00035869 0)
(2.73441 0.000364077 0)
(2.7355 0.000369469 0)
(2.73659 0.000374868 0)
(2.73767 0.000380273 0)
(2.73875 0.000385673 0)
(2.73982 0.000391049 0)
(2.74089 0.000396401 0)
(2.74195 0.000401729 0)
(2.74301 0.00040702 0)
(2.74407 0.000412261 0)
(2.74512 0.000417468 0)
(2.74616 0.00042264 0)
(2.7472 0.000427753 0)
(2.74824 0.000432817 0)
(2.74928 0.000437836 0)
(2.75031 0.000442811 0)
(2.75133 0.00044777 0)
(2.75235 0.000452718 0)
(2.75337 0.000457609 0)
(2.75439 0.0004625 0)
(2.7554 0.000467365 0)
(2.75641 0.000472221 0)
(2.75742 0.000477047 0)
(2.75842 0.000481876 0)
(2.75942 0.000486622 0)
(2.76041 0.000491411 0)
(2.7614 0.000496082 0)
(2.76239 0.000500834 0)
(2.76338 0.000505344 0)
(2.76436 0.000510034 0)
(2.76534 0.000514379 0)
(2.76631 0.000519049 0)
(2.76729 0.000523139 0)
(2.76826 0.000527829 0)
(2.76923 0.000531617 0)
(2.7702 0.000536422 0)
(2.77116 0.000539865 0)
(2.77213 0.000544814 0)
(2.77308 0.000547919 0)
(2.77406 0.000552997 0)
(2.77497 0.000556084 0)
(2.776 0.000560617 0)
(2.77684 0.000565183 0)
(2.77797 0.000567285 0)
(2.77863 0.000577956 0)
(2.77999 0.000570366 0)
(2.78027 0.000596281 0)
(2.78219 0.000558083 0)
(4.59134 0.395183 0)
(4.81468 0.238567 0)
(4.8004 0.10183 0)
(4.60316 0.0790005 0)
(4.38174 0.0596178 0)
(4.21234 0.0376651 0)
(4.09937 0.024764 0)
(4.01946 0.0200797 0)
(3.95327 0.0182341 0)
(3.89427 0.0163463 0)
(3.84234 0.0142739 0)
(3.79745 0.0125027 0)
(3.75844 0.0111555 0)
(3.72399 0.0100954 0)
(3.69323 0.00919442 0)
(3.66565 0.00840691 0)
(3.64081 0.00772265 0)
(3.61835 0.0071292 0)
(3.59797 0.0066102 0)
(3.57941 0.00615154 0)
(3.56246 0.00574316 0)
(3.54693 0.00537762 0)
(3.53268 0.00504881 0)
(3.51957 0.00475156 0)
(3.5075 0.00448161 0)
(3.49636 0.00423549 0)
(3.48607 0.00401031 0)
(3.47656 0.00380363 0)
(3.46775 0.00361337 0)
(3.4596 0.00343772 0)
(3.45204 0.00327513 0)
(3.44503 0.00312426 0)
(3.43853 0.00298397 0)
(3.4325 0.00285324 0)
(3.42691 0.00273115 0)
(3.42172 0.00261695 0)
(3.41691 0.00250981 0)
(3.41245 0.00240913 0)
(3.40833 0.00231442 0)
(3.40451 0.00222502 0)
(3.40098 0.00214048 0)
(3.39773 0.00206042 0)
(3.39473 0.0019845 0)
(3.39198 0.00191236 0)
(3.38946 0.00184374 0)
(3.38715 0.00177832 0)
(3.38506 0.00171587 0)
(3.38315 0.00165612 0)
(3.38144 0.00159885 0)
(3.3799 0.00154486 0)
(3.37852 0.00149294 0)
(3.37731 0.0014428 0)
(3.37625 0.00139458 0)
(3.37533 0.00134817 0)
(3.37456 0.00130343 0)
(3.37392 0.00126031 0)
(3.37342 0.00121867 0)
(3.37303 0.00117843 0)
(3.37277 0.00113948 0)
(3.37263 0.00110167 0)
(3.37259 0.00106504 0)
(3.37267 0.00102949 0)
(3.37284 0.000995075 0)
(3.37312 0.000961614 0)
(3.3735 0.000929062 0)
(3.37397 0.000897571 0)
(3.37453 0.000867128 0)
(3.37517 0.000837661 0)
(3.3759 0.000809176 0)
(3.37671 0.000781712 0)
(3.3776 0.00075526 0)
(3.37855 0.000729788 0)
(3.37958 0.000705274 0)
(3.38067 0.000681685 0)
(3.38183 0.000658987 0)
(3.38304 0.000637136 0)
(3.38431 0.000616119 0)
(3.38564 0.000595909 0)
(3.38702 0.000576467 0)
(3.38845 0.000557771 0)
(3.38993 0.000539805 0)
(3.39145 0.000522552 0)
(3.39301 0.00050599 0)
(3.39462 0.000490099 0)
(3.39626 0.000474881 0)
(3.39794 0.000460347 0)
(3.39965 0.000446489 0)
(3.40139 0.000433281 0)
(3.40316 0.000420702 0)
(3.40496 0.000408742 0)
(3.40678 0.000397375 0)
(3.40863 0.00038657 0)
(3.4105 0.000376299 0)
(3.41238 0.000366537 0)
(3.41429 0.000357255 0)
(3.41622 0.000348411 0)
(3.41816 0.00033997 0)
(3.42011 0.000331905 0)
(3.42208 0.000324194 0)
(3.42407 0.000316815 0)
(3.42606 0.000309752 0)
(3.42807 0.000302993 0)
(3.43008 0.000296532 0)
(3.43211 0.000290366 0)
(3.43415 0.000284494 0)
(3.43619 0.000278916 0)
(3.43824 0.000273635 0)
(3.44029 0.000268653 0)
(3.44235 0.00026397 0)
(3.44441 0.000259584 0)
(3.44648 0.000255488 0)
(3.44855 0.000251675 0)
(3.45062 0.000248132 0)
(3.45269 0.000244844 0)
(3.45477 0.000241797 0)
(3.45684 0.000238975 0)
(3.45891 0.000236361 0)
(3.46098 0.000233942 0)
(3.46305 0.000231707 0)
(3.46512 0.000229645 0)
(3.46719 0.000227754 0)
(3.46926 0.000226032 0)
(3.47132 0.000224483 0)
(3.47338 0.000223112 0)
(3.47544 0.00022193 0)
(3.47749 0.000220947 0)
(3.47954 0.000220174 0)
(3.48159 0.00021962 0)
(3.48362 0.000219294 0)
(3.48566 0.0002192 0)
(3.48769 0.000219339 0)
(3.48971 0.000219711 0)
(3.49172 0.00022031 0)
(3.49373 0.000221127 0)
(3.49573 0.000222149 0)
(3.49772 0.000223367 0)
(3.4997 0.000224767 0)
(3.50168 0.000226333 0)
(3.50364 0.000228053 0)
(3.5056 0.000229919 0)
(3.50755 0.000231929 0)
(3.5095 0.000234079 0)
(3.51143 0.000236368 0)
(3.51336 0.000238801 0)
(3.51527 0.000241385 0)
(3.51718 0.000244127 0)
(3.51908 0.000247035 0)
(3.52097 0.000250115 0)
(3.52285 0.000253374 0)
(3.52472 0.000256818 0)
(3.52658 0.000260449 0)
(3.52843 0.000264266 0)
(3.53027 0.00026826 0)
(3.53209 0.000272422 0)
(3.53391 0.000276739 0)
(3.53572 0.000281201 0)
(3.53752 0.000285794 0)
(3.53931 0.000290501 0)
(3.54108 0.000295304 0)
(3.54285 0.000300195 0)
(3.5446 0.000305167 0)
(3.54635 0.00031021 0)
(3.54809 0.000315327 0)
(3.54982 0.00032051 0)
(3.55153 0.000325751 0)
(3.55324 0.000331077 0)
(3.55494 0.000336489 0)
(3.55663 0.000341988 0)
(3.55831 0.000347588 0)
(3.55998 0.000353281 0)
(3.56164 0.000359069 0)
(3.56329 0.000364954 0)
(3.56493 0.000370942 0)
(3.56657 0.000377023 0)
(3.56819 0.000383189 0)
(3.5698 0.000389416 0)
(3.5714 0.000395701 0)
(3.573 0.000402031 0)
(3.57458 0.00040839 0)
(3.57616 0.000414766 0)
(3.57773 0.00042115 0)
(3.57929 0.000427529 0)
(3.58084 0.000433902 0)
(3.58239 0.000440269 0)
(3.58392 0.000446626 0)
(3.58545 0.000452971 0)
(3.58697 0.000459319 0)
(3.58849 0.000465678 0)
(3.58999 0.000472046 0)
(3.59149 0.000478427 0)
(3.59299 0.000484836 0)
(3.59447 0.000491278 0)
(3.59595 0.000497743 0)
(3.59742 0.000504226 0)
(3.59888 0.000510734 0)
(3.60034 0.000517263 0)
(3.60179 0.000523798 0)
(3.60323 0.000530318 0)
(3.60467 0.000536818 0)
(3.6061 0.0005433 0)
(3.60753 0.000549742 0)
(3.60894 0.000556128 0)
(3.61036 0.000562474 0)
(3.61176 0.000568775 0)
(3.61316 0.000574999 0)
(3.61456 0.00058116 0)
(3.61595 0.000587269 0)
(3.61734 0.00059332 0)
(3.61872 0.00059934 0)
(3.6201 0.000605351 0)
(3.62147 0.000611297 0)
(3.62284 0.000617239 0)
(3.6242 0.000623162 0)
(3.62556 0.000629081 0)
(3.62691 0.000634966 0)
(3.62826 0.00064087 0)
(3.62961 0.000646684 0)
(3.63094 0.000652567 0)
(3.63228 0.000658308 0)
(3.63361 0.000664161 0)
(3.63494 0.000669716 0)
(3.63626 0.000675512 0)
(3.63758 0.000680874 0)
(3.63889 0.000686656 0)
(3.6402 0.000691679 0)
(3.64151 0.000697517 0)
(3.64282 0.000702126 0)
(3.64413 0.000708142 0)
(3.64542 0.000712246 0)
(3.64673 0.000718547 0)
(3.648 0.000722089 0)
(3.64933 0.000728695 0)
(3.65055 0.000732001 0)
(3.65193 0.000738316 0)
(3.65306 0.000743043 0)
(3.65457 0.000746867 0)
(3.65549 0.000759094 0)
(3.65729 0.000751738 0)
(3.65771 0.000782272 0)
(3.66021 0.000740932 0)
(4.58431 0.329868 0)
(5.00589 0.225823 0)
(5.2162 0.10387 0)
(5.19412 0.0942437 0)
(5.06832 0.080286 0)
(4.94093 0.05487 0)
(4.84294 0.037375 0)
(4.76786 0.0299929 0)
(4.70361 0.0267148 0)
(4.64567 0.023822 0)
(4.59405 0.0208836 0)
(4.54876 0.018377 0)
(4.50887 0.0164331 0)
(4.47332 0.0148871 0)
(4.44135 0.0135756 0)
(4.41251 0.0124311 0)
(4.38642 0.0114347 0)
(4.36274 0.0105676 0)
(4.34118 0.00980712 0)
(4.3215 0.00913381 0)
(4.30348 0.00853342 0)
(4.28695 0.00799524 0)
(4.27177 0.00751046 0)
(4.2578 0.00707169 0)
(4.24493 0.00667283 0)
(4.23306 0.00630884 0)
(4.2221 0.00597553 0)
(4.21197 0.00566937 0)
(4.20261 0.0053873 0)
(4.19396 0.0051267 0)
(4.18595 0.00488529 0)
(4.17855 0.00466113 0)
(4.1717 0.00445253 0)
(4.16537 0.00425804 0)
(4.15952 0.0040763 0)
(4.15411 0.00390623 0)
(4.14912 0.00374664 0)
(4.14452 0.00359656 0)
(4.14028 0.00345536 0)
(4.13639 0.00332211 0)
(4.13282 0.00319607 0)
(4.12955 0.00307667 0)
(4.12657 0.00296343 0)
(4.12386 0.00285581 0)
(4.1214 0.00275342 0)
(4.11919 0.00265578 0)
(4.11721 0.00256254 0)
(4.11545 0.00247334 0)
(4.1139 0.00238779 0)
(4.11254 0.002307 0)
(4.11137 0.00222942 0)
(4.11038 0.00215452 0)
(4.10956 0.00208242 0)
(4.1089 0.00201307 0)
(4.10841 0.00194629 0)
(4.10806 0.00188193 0)
(4.10785 0.0018198 0)
(4.10779 0.00175978 0)
(4.10786 0.00170171 0)
(4.10806 0.00164548 0)
(4.10838 0.00159101 0)
(4.10882 0.00153816 0)
(4.10938 0.00148705 0)
(4.11004 0.0014374 0)
(4.11082 0.00138916 0)
(4.11169 0.00134249 0)
(4.11266 0.00129739 0)
(4.11373 0.00125378 0)
(4.11489 0.00121165 0)
(4.11613 0.00117106 0)
(4.11746 0.00113199 0)
(4.11886 0.0010944 0)
(4.12033 0.00105826 0)
(4.12188 0.00102352 0)
(4.12349 0.000990124 0)
(4.12516 0.000958017 0)
(4.1269 0.000927171 0)
(4.12869 0.000897543 0)
(4.13054 0.00086907 0)
(4.13244 0.000841715 0)
(4.13438 0.000815449 0)
(4.13638 0.000790237 0)
(4.13841 0.000766044 0)
(4.14049 0.000742833 0)
(4.14261 0.000720603 0)
(4.14477 0.000699368 0)
(4.14696 0.00067911 0)
(4.14918 0.000659792 0)
(4.15143 0.000641385 0)
(4.15371 0.000623876 0)
(4.15601 0.000607229 0)
(4.15833 0.000591401 0)
(4.16068 0.000576355 0)
(4.16305 0.000562059 0)
(4.16544 0.000548469 0)
(4.16784 0.000535527 0)
(4.17026 0.000523184 0)
(4.17269 0.000511397 0)
(4.17514 0.000500132 0)
(4.1776 0.000489354 0)
(4.18008 0.000479035 0)
(4.18256 0.000469154 0)
(4.18505 0.000459698 0)
(4.18756 0.000450655 0)
(4.19007 0.000442022 0)
(4.19259 0.000433795 0)
(4.19511 0.000425977 0)
(4.19764 0.00041857 0)
(4.20017 0.000411573 0)
(4.20271 0.000404985 0)
(4.20525 0.0003988 0)
(4.2078 0.000393007 0)
(4.21034 0.000387593 0)
(4.21288 0.000382538 0)
(4.21543 0.000377822 0)
(4.21797 0.000373423 0)
(4.22051 0.000369318 0)
(4.22305 0.000365486 0)
(4.22559 0.000361906 0)
(4.22813 0.000358561 0)
(4.23066 0.000355442 0)
(4.23319 0.000352542 0)
(4.23572 0.000349859 0)
(4.23825 0.000347398 0)
(4.24077 0.000345168 0)
(4.24328 0.000343179 0)
(4.2458 0.000341445 0)
(4.2483 0.000339979 0)
(4.2508 0.000338791 0)
(4.2533 0.00033789 0)
(4.25578 0.00033728 0)
(4.25826 0.000336961 0)
(4.26073 0.00033693 0)
(4.2632 0.000337175 0)
(4.26565 0.000337683 0)
(4.26809 0.000338441 0)
(4.27053 0.00033943 0)
(4.27296 0.000340628 0)
(4.27537 0.000342015 0)
(4.27778 0.000343581 0)
(4.28018 0.000345316 0)
(4.28257 0.000347212 0)
(4.28495 0.000349265 0)
(4.28731 0.000351477 0)
(4.28967 0.000353854 0)
(4.29202 0.000356405 0)
(4.29436 0.000359139 0)
(4.29669 0.000362065 0)
(4.29901 0.000365195 0)
(4.30131 0.000368538 0)
(4.30361 0.000372101 0)
(4.30589 0.000375883 0)
(4.30816 0.00037988 0)
(4.31042 0.000384082 0)
(4.31267 0.000388477 0)
(4.3149 0.000393053 0)
(4.31713 0.000397793 0)
(4.31934 0.000402675 0)
(4.32153 0.000407676 0)
(4.32372 0.000412784 0)
(4.3259 0.000417987 0)
(4.32806 0.00042327 0)
(4.33021 0.000428631 0)
(4.33236 0.000434063 0)
(4.33449 0.000439551 0)
(4.33661 0.000445124 0)
(4.33871 0.000450791 0)
(4.34081 0.000456548 0)
(4.3429 0.000462418 0)
(4.34498 0.000468392 0)
(4.34704 0.000474477 0)
(4.34909 0.000480677 0)
(4.35114 0.000487003 0)
(4.35317 0.00049345 0)
(4.35519 0.000500007 0)
(4.3572 0.000506652 0)
(4.35919 0.000513377 0)
(4.36118 0.00052017 0)
(4.36316 0.000527011 0)
(4.36512 0.000533882 0)
(4.36708 0.00054077 0)
(4.36903 0.00054766 0)
(4.37096 0.000554545 0)
(4.37289 0.000561421 0)
(4.37481 0.000568282 0)
(4.37672 0.000575128 0)
(4.37862 0.000581973 0)
(4.38051 0.000588822 0)
(4.38239 0.00059568 0)
(4.38427 0.000602553 0)
(4.38613 0.00060946 0)
(4.38799 0.000616407 0)
(4.38984 0.000623389 0)
(4.39168 0.000630405 0)
(4.39351 0.000637463 0)
(4.39533 0.000644561 0)
(4.39715 0.000651681 0)
(4.39896 0.000658804 0)
(4.40076 0.000665923 0)
(4.40255 0.000673034 0)
(4.40433 0.000680116 0)
(4.40611 0.000687144 0)
(4.40787 0.000694134 0)
(4.40964 0.000701077 0)
(4.41139 0.000707932 0)
(4.41314 0.000714716 0)
(4.41489 0.000721443 0)
(4.41662 0.000728098 0)
(4.41835 0.000734711 0)
(4.42008 0.000741313 0)
(4.4218 0.000747842 0)
(4.42351 0.000754363 0)
(4.42522 0.000760872 0)
(4.42692 0.000767381 0)
(4.42862 0.000773858 0)
(4.43031 0.000780369 0)
(4.432 0.000786794 0)
(4.43368 0.000793315 0)
(4.43535 0.000799688 0)
(4.43702 0.000806199 0)
(4.43868 0.000812387 0)
(4.44034 0.000818866 0)
(4.44199 0.000824859 0)
(4.44364 0.000831342 0)
(4.44529 0.00083694 0)
(4.44693 0.000843521 0)
(4.44856 0.000848629 0)
(4.4502 0.000855429 0)
(4.45182 0.000859926 0)
(4.45346 0.000867089 0)
(4.45505 0.000870882 0)
(4.45672 0.000878467 0)
(4.45826 0.000881835 0)
(4.45998 0.000889369 0)
(4.46141 0.000894112 0)
(4.46329 0.000899144 0)
(4.46445 0.000912282 0)
(4.46669 0.000906306 0)
(4.46727 0.000938508 0)
(4.47032 0.000900286 0)
(4.55124 0.271046 0)
(4.9987 0.199507 0)
(5.30914 0.0872697 0)
(5.43097 0.0890955 0)
(5.43737 0.0865816 0)
(5.4031 0.0646051 0)
(5.36348 0.0466314 0)
(5.3241 0.0383412 0)
(5.283 0.0343138 0)
(5.24125 0.0306892 0)
(5.20148 0.0270278 0)
(5.16506 0.0238806 0)
(5.13194 0.0214098 0)
(5.10168 0.019432 0)
(5.07393 0.017755 0)
(5.04849 0.0162938 0)
(5.02519 0.0150192 0)
(5.00382 0.0139063 0)
(4.9842 0.012927 0)
(4.96616 0.0120576 0)
(4.94956 0.0112804 0)
(4.93426 0.0105818 0)
(4.92017 0.00995108 0)
(4.90716 0.00937889 0)
(4.89516 0.00885767 0)
(4.88408 0.00838112 0)
(4.87384 0.00794396 0)
(4.8644 0.00754174 0)
(4.85567 0.00717061 0)
(4.84762 0.0068272 0)
(4.8402 0.00650866 0)
(4.83335 0.00621247 0)
(4.82704 0.00593652 0)
(4.82124 0.00567891 0)
(4.81591 0.00543797 0)
(4.81101 0.00521224 0)