/*--------------------------------*- C++ -*----------------------------------*\
  =========                 |
  \\      /  F ield         | OpenFOAM: The Open Source CFD Toolbox
   \\    /   O peration     | Website:  https://openfoam.org
    \\  /    A nd           | Version:  7
     \\/     M anipulation  |
\*---------------------------------------------------------------------------*/
FoamFile
{
    version     2.0;
    format      ascii;
    class       surfaceScalarField;
    location    "2.7";
    object      phi;
}
// * * * * * * * * * * * * * * * * * * * * * * * * * * * * * * * * * * * * * //

dimensions      [1 0 -1 0 0 0 0];

internalField   nonuniform List<scalar> 
13265
(
0.00259893
0.00108852
1.35369e-05
0.00199364
0.000598457
6.95824e-06
0.00159908
0.000382925
1.17443e-05
0.00139584
0.000196125
7.22802e-06
0.00127536
0.000109491
1.11026e-05
0.00120167
6.63279e-05
7.47646e-06
0.00114826
4.29682e-05
1.05549e-05
0.00110958
3.12283e-05
7.56512e-06
0.00107687
2.27946e-05
1.0028e-05
0.00105154
1.78745e-05
7.57541e-06
0.00102855
1.35496e-05
9.55469e-06
0.00101039
1.07256e-05
7.54533e-06
0.000993344
8.03441e-06
9.13284e-06
0.000979528
6.44726e-06
7.48584e-06
0.00096629
4.60196e-06
8.75224e-06
0.000954474
4.52763e-06
7.40334e-06
0.000938594
7.57717e-06
8.41595e-06
0.000934244
-2.83245e-06
7.29356e-06
0.00083153
9.45114e-05
8.31202e-06
6.35619e-05
6.86498e-06
0.000761212
0.00386684
0.000918821
3.31363e-06
0.00382276
0.000645338
-2.68303e-06
0.00367992
0.000523981
1.89423e-06
0.00353202
0.000346757
-2.62323e-06
0.00339778
0.000242601
1.23486e-06
0.00328781
0.00017881
-2.41056e-06
0.00319379
0.000136418
6.63841e-07
0.00311792
0.000109529
-2.33392e-06
0.00305172
8.897e-05
1.2862e-07
0.002998
7.40219e-05
-2.32736e-06
0.00295001
6.19964e-05
-3.49608e-07
0.00291054
5.26715e-05
-2.3582e-06
0.00287511
4.43482e-05
-7.79094e-07
0.00284459
3.95011e-05
-2.41499e-06
0.00281993
3.05583e-05
-1.18136e-06
0.00279419
3.28721e-05
-2.49028e-06
0.00278717
1.63259e-05
-1.61007e-06
0.0027622
2.48722e-05
-2.62309e-06
0.00284606
1.30212e-05
-2.25904e-06
-3.39258e-05
-3.60838e-06
0.00294726
0.0040866
0.000521383
1.1656e-05
0.00433197
0.000393753
6.32721e-06
0.00448251
0.000362825
1.073e-05
0.00456016
0.000262977
6.23446e-06
0.00459171
0.000201086
1.00744e-05
0.00460523
0.000158929
6.45183e-06
0.0046037
0.000128503
9.54339e-06
0.00459908
0.000107682
6.56299e-06
0.0045882
9.09045e-05
9.03474e-06
0.00457813
7.75956e-05
6.58732e-06
0.00456455
6.71068e-05
8.57155e-06
0.00455345
5.73046e-05
6.56398e-06
0.00453899
5.07539e-05
8.1581e-06
0.00452923
4.28643e-05
6.50751e-06
0.0045125
3.96164e-05
7.79431e-06
0.00450592
3.31398e-05
6.42612e-06
0.00447921
3.5639e-05
7.52253e-06
0.00446973
2.81473e-05
6.33027e-06
0.00441477
6.04305e-05
7.6702e-06
6.08303e-05
6.2065e-06
0.00431393
0.0040424
0.000176508
2.88629e-06
0.00430367
0.000135023
-2.42906e-06
0.00453729
0.00012742
1.8969e-06
0.00470817
9.48298e-05
-2.62377e-06
0.00483378
7.43902e-05
1.19326e-06
0.00493429
6.09737e-05
-2.45941e-06
0.00501104
5.12257e-05
6.2222e-07
0.00507642
4.47652e-05
-2.37301e-06
0.00512815
3.91753e-05
9.47993e-08
0.00517323
3.49558e-05
-2.35888e-06
0.00520992
3.0892e-05
-3.80213e-07
0.00524166
2.80477e-05
-2.38621e-06
0.00526904
2.42829e-05
-8.09996e-07
0.00529115
2.33082e-05
-2.44176e-06
0.00531432
1.77697e-05
-1.2204e-06
0.00532959
2.05187e-05
-2.52579e-06
0.00535825
8.79393e-06
-1.69345e-06
0.00537425
1.50052e-05
-2.72435e-06
0.00544199
-4.58744e-06
-2.59652e-06
-2.14531e-05
-3.67964e-06
0.00552809
0.00404241
-0.000176508
1.13953e-05
0.00430614
-0.000135023
6.42979e-06
0.00455039
-0.00012742
1.07061e-05
0.00473393
-9.48288e-05
6.22693e-06
0.00487277
-7.43899e-05
1.00413e-05
0.0049884
-6.09711e-05
6.41512e-06
0.00508143
-5.12236e-05
9.50841e-06
0.00516451
-4.4759e-05
6.52998e-06
0.00523394
-3.91661e-05
9.00482e-06
0.00529737
-3.49399e-05
6.5593e-06
0.00535066
-3.08604e-05
8.54509e-06
0.00540026
-2.79965e-05
6.53888e-06
0.00544071
-2.42022e-05
8.13462e-06
0.00548076
-2.31223e-05
6.48454e-06
0.00550848
-1.76123e-05
7.7772e-06
0.00554259
-1.98862e-05
6.40544e-06
0.00555247
-8.48866e-06
7.5319e-06
0.0055746
-1.3313e-05
6.31235e-06
0.00555651
5.8745e-06
7.76543e-06
2.52126e-05
6.27842e-06
0.0055037
0.0040424
-0.000521383
2.88629e-06
0.00430367
-0.000393753
-2.42906e-06
0.00453729
-0.000362825
1.8969e-06
0.00470817
-0.000262976
-2.62377e-06
0.00483378
-0.000201086
1.19326e-06
0.00493429
-0.000158927
-2.45941e-06
0.00501104
-0.000128501
6.22221e-07
0.00507642
-0.000107677
-2.37301e-06
0.00512815
-9.08959e-05
9.48027e-08
0.00517324
-7.75821e-05
-2.35888e-06
0.00520993
-6.70784e-05
-3.80214e-07
0.00524168
-5.7261e-05
-2.38623e-06
0.00526907
-5.06824e-05
-8.10028e-07
0.0052912
-4.27044e-05
-2.44182e-06
0.0053144
-3.94832e-05
-1.22048e-06
0.00532975
-3.25886e-05
-2.52595e-06
0.00535846
-3.53875e-05
-1.69354e-06
0.00537462
-2.66201e-05
-2.72477e-06
0.00544258
-5.9356e-05
-2.59556e-06
-5.75117e-05
-3.6803e-06
0.00552912
0.0040866
-0.000918821
1.1656e-05
0.00433197
-0.000645338
6.32721e-06
0.00448251
-0.000523981
1.073e-05
0.00456016
-0.000346756
6.23446e-06
0.00459171
-0.0002426
1.00744e-05
0.00460523
-0.000178809
6.45183e-06
0.0046037
-0.000136416
9.54339e-06
0.00459908
-0.000109526
6.56299e-06
0.0045882
-8.89634e-05
9.03475e-06
0.00457814
-7.40133e-05
6.58732e-06
0.00456457
-6.19758e-05
8.57155e-06
0.00455348
-5.26425e-05
6.56398e-06
0.00453905
-4.4299e-05
8.1581e-06
0.00452934
-3.93902e-05
6.50754e-06
0.00451265
-3.04745e-05
7.79427e-06
0.00450623
-3.24804e-05
6.42624e-06
0.00447964
-1.61952e-05
7.52244e-06
0.00447063
-2.38167e-05
6.33042e-06
0.00441618
-1.2449e-05
7.66957e-06
3.59079e-05
6.20597e-06
0.00431667
0.00386684
-0.00108852
3.31363e-06
0.00382276
-0.000598457
-2.68303e-06
0.00367992
-0.000382925
1.89423e-06
0.00353202
-0.000196125
-2.62324e-06
0.00339778
-0.00010949
1.23486e-06
0.00328781
-6.63274e-05
-2.41056e-06
0.00319379
-4.29674e-05
6.63843e-07
0.00311793
-3.12273e-05
-2.33392e-06
0.00305173
-2.27917e-05
1.28626e-07
0.00299802
-1.78719e-05
-2.32736e-06
0.00295004
-1.35407e-05
-3.496e-07
0.00291058
-1.07167e-05
-2.35822e-06
0.00287519
-8.01153e-06
-7.79111e-07
0.00284474
-6.41285e-06
-2.41507e-06
0.00282012
-4.55887e-06
-1.18139e-06
0.00279465
-4.40252e-06
-2.49055e-06
0.00278765
-7.47834e-06
-1.60989e-06
0.00276339
3.18432e-06
-2.62397e-06
0.00284734
-9.40353e-05
-2.25689e-06
-6.26114e-05
-3.61096e-06
0.00294958
0.00259893
1.35369e-05
0.00199364
6.95824e-06
0.00159908
1.17443e-05
0.00139584
7.22802e-06
0.00127536
1.11026e-05
0.00120167
7.47646e-06
0.00114826
1.05549e-05
0.00110958
7.56512e-06
0.00107688
1.0028e-05
0.00105154
7.57541e-06
0.00102857
9.55469e-06
0.00101042
7.54536e-06
0.000993394
9.1328e-06
0.000979612
7.4859e-06
0.000966416
8.75208e-06
0.000954724
7.40353e-06
0.000938942
8.41558e-06
0.000934942
7.29402e-06
0.000832705
8.31117e-06
6.86548e-06
0.000763337
0.00338161
0.000328504
3.28118e-06
0.00281882
0.000564779
5.08562e-06
0.00232807
0.000500255
2.35853e-06
0.00197523
0.000356338
3.84182e-06
0.00174535
0.000238998
2.08394e-06
0.00159636
0.000153305
3.27811e-06
0.0015014
0.000103502
2.11689e-06
0.00143272
7.3316e-05
3.03959e-06
0.00138485
5.58044e-05
2.20951e-06
0.00134458
4.50882e-05
2.86871e-06
0.0013144
3.75791e-05
2.27174e-06
0.00128675
3.26e-05
2.71236e-06
0.00126524
2.84462e-05
2.30679e-06
0.00124487
2.53935e-05
2.58083e-06
0.00122948
2.19165e-05
2.33607e-06
0.00121283
2.16913e-05
2.48195e-06
0.0012148
4.18194e-06
2.36994e-06
0.00118991
2.98698e-05
2.42225e-06
0.00133849
-0.000142454
2.28601e-06
-0.000126652
2.56799e-06
0.00146955
0.00382341
0.00020053
8.06038e-06
0.0038961
0.000479933
9.59644e-06
0.0038977
0.000493088
7.5641e-06
0.00383295
0.000410025
8.54911e-06
0.00375102
0.000314998
7.26729e-06
0.0036621
0.000231853
8.06311e-06
0.00358351
0.000175559
7.29243e-06
0.00351009
0.000136648
7.85405e-06
0.00344843
0.000110328
7.36425e-06
0.00339162
9.19723e-05
7.7011e-06
0.00334381
7.77484e-05
7.39408e-06
0.00329986
6.67427e-05
7.56152e-06
0.00326172
5.85234e-05
7.39488e-06
0.00322812
4.9253e-05
7.44215e-06
0.00319467
4.6911e-05
7.39462e-06
0.00317178
3.48626e-05
7.3474e-06
0.00313053
3.65114e-05
7.42892e-06
0.00312336
2.72354e-05
7.29357e-06
0.00299113
-1.99709e-05
7.59712e-06
3.32186e-05
7.64986e-06
0.00282011
0.0038177
9.098e-05
3.35933e-06
0.00402161
0.000277306
5.15718e-06
0.00420558
0.000317389
2.57291e-06
0.00433366
0.000284201
4.07666e-06
0.00442011
0.000236496
2.23646e-06
0.00446711
0.000187924
3.47514e-06
0.00449645
0.000153621
2.23391e-06
0.00450888
0.00012767
3.20599e-06
0.00451669
0.000109315
2.33315e-06
0.00451679
9.55201e-05
3.03485e-06
0.00451674
8.40442e-05
2.41552e-06
0.00451185
7.54171e-05
2.88813e-06
0.00450935
6.68193e-05
2.46843e-06
0.00450131
6.11473e-05
2.76574e-06
0.00450082
5.28127e-05
2.5063e-06
0.00448888
5.0673e-05
2.67376e-06
0.00449866
3.18669e-05
2.51052e-06
0.00448809
4.1653e-05
2.61497e-06
0.00451807
-4.44101e-05
2.25393e-06
-2.82124e-05
2.63446e-06
0.0045832
0.00374443
4.16821e-05
7.9201e-06
0.00391883
9.11118e-05
9.48391e-06
0.00413462
9.60555e-05
7.55569e-06
0.0043199
8.78277e-05
8.57748e-06
0.00447687
7.35335e-05
7.28195e-06
0.00459475
5.96255e-05
8.06288e-06
0.00469262
4.91936e-05
7.27208e-06
0.00476867
4.1512e-05
7.82619e-06
0.00483493
3.59004e-05
7.33159e-06
0.00488888
3.16337e-05
7.66881e-06
0.00493707
2.82049e-05
7.36314e-06
0.00497772
2.49474e-05
7.53195e-06
0.00501339
2.30802e-05
7.36828e-06
0.00504543
1.93604e-05
7.41536e-06
0.00506945
2.031e-05
7.3745e-06
0.0050961
1.42921e-05
7.32688e-06
0.00509847
2.05021e-05
7.4312e-06
0.00511555
1.46724e-05
7.31054e-06
0.00504258
1.83683e-05
7.72492e-06
4.68316e-05
7.69916e-06
0.00495629
0.00379126
-4.16822e-05
3.34029e-06
0.00397488
-9.11114e-05
5.15118e-06
0.00417518
-9.60556e-05
2.62647e-06
0.00435304
-8.78266e-05
4.13324e-06
0.00450796
-7.35333e-05
2.28553e-06
0.0046302
-5.96225e-05
3.5185e-06
0.00473593
-4.91919e-05
2.26356e-06
0.00482233
-4.15048e-05
3.23144e-06
0.00490087
-3.58927e-05
2.35455e-06
0.00496771
-3.16143e-05
3.05509e-06
0.00503029
-2.81791e-05
2.43696e-06
0.00508386
-2.48878e-05
2.90875e-06
0.00513569
-2.30092e-05
2.49143e-06
0.00517803
-1.91743e-05
2.78727e-06
0.00522384
-2.01314e-05
2.52784e-06
0.0052557
-1.37374e-05
2.69611e-06
0.00530135
-2.00069e-05
2.51574e-06
0.00533302
-1.31887e-05
2.64051e-06
0.00537377
-1.66949e-05
2.20764e-06
-4.31979e-05
2.63987e-06
0.00546758
0.00374443
-9.09801e-05
7.9201e-06
0.00391883
-0.000277306
9.48391e-06
0.00413462
-0.000317389
7.55569e-06
0.0043199
-0.0002842
8.57748e-06
0.00447687
-0.000236495
7.28195e-06
0.00459475
-0.000187921
8.06288e-06
0.00469262
-0.000153619
7.27208e-06
0.00476867
-0.000127663
7.82619e-06
0.00483494
-0.000109308
7.33159e-06
0.00488889
-9.55024e-05
7.66882e-06
0.00493708
-8.40207e-05
7.36314e-06
0.00497773
-7.53625e-05
7.53196e-06
0.00501341
-6.67563e-05
7.36828e-06
0.00504546
-6.09758e-05
7.41539e-06
0.00506951
-5.26593e-05
7.37451e-06
0.00509621
-5.01648e-05
7.32696e-06
0.00509865
-3.14521e-05
7.43114e-06
0.0051159
-4.0337e-05
7.31072e-06
0.00504319
4.58246e-05
7.72433e-06
3.1364e-05
7.69919e-06
0.00495739
0.0038177
-0.00020053
3.35933e-06
0.00402161
-0.000479933
5.15718e-06
0.00420558
-0.000493088
2.57291e-06
0.00433367
-0.000410024
4.07666e-06
0.00442011
-0.000314997
2.23646e-06
0.00446711
-0.000231852
3.47514e-06
0.00449645
-0.000175557
2.23391e-06
0.00450888
-0.000136643
3.20599e-06
0.00451669
-0.000110322
2.33315e-06
0.0045168
-9.19607e-05
3.03485e-06
0.00451676
-7.77283e-05
2.41553e-06
0.00451188
-6.67062e-05
2.88812e-06
0.00450939
-5.84714e-05
2.46844e-06
0.00450141
-4.91365e-05
2.76571e-06
0.00450094
-4.67889e-05
2.5063e-06
0.00448916
-3.451e-05
2.67369e-06
0.00449904
-3.61877e-05
2.51048e-06
0.00448884
-2.62973e-05
2.61483e-06
0.00451917
2.10368e-05
2.25412e-06
-3.07576e-05
2.634e-06
0.00458499
0.00382341
-0.000328504
8.06038e-06
0.0038961
-0.000564779
9.59644e-06
0.0038977
-0.000500255
7.5641e-06
0.00383295
-0.000356337
8.54911e-06
0.00375102
-0.000238997
7.26729e-06
0.0036621
-0.000153304
8.06311e-06
0.00358351
-0.000103501
7.29243e-06
0.00351009
-7.33142e-05
7.85405e-06
0.00344843
-5.58009e-05
7.36425e-06
0.00339163
-4.50831e-05
7.7011e-06
0.00334383
-3.75689e-05
7.39408e-06
0.0032999
-3.25835e-05
7.56154e-06
0.00326179
-2.84216e-05
7.39488e-06
0.00322825
-2.53379e-05
7.4422e-06
0.00319487
-2.18671e-05
7.39458e-06
0.00317215
-2.15139e-05
7.34757e-06
0.00313113
-4.08676e-06
7.42867e-06
0.00312443
-2.93988e-05
7.29404e-06
0.00299302
0.000142708
7.59571e-06
0.00012711
7.65082e-06
0.002824
0.00338161
3.28118e-06
0.00281882
5.08562e-06
0.00232807
2.35853e-06
0.00197523
3.84182e-06
0.00174536
2.08394e-06
0.00159636
3.27811e-06
0.0015014
2.1169e-06
0.00143273
3.03959e-06
0.00138486
2.20952e-06
0.00134459
2.8687e-06
0.00131442
2.27176e-06
0.00128679
2.71235e-06
0.00126531
2.30683e-06
0.00124499
2.5808e-06
0.00122965
2.33613e-06
0.00121317
2.4819e-06
0.00121524
2.37001e-06
0.00119082
2.42206e-06
0.00133966
2.28615e-06
2.56743e-06
0.00147117
0.00356746
0.00013868
-3.28118e-06
0.00331635
0.00026139
-5.08562e-06
0.00301003
0.000311154
-2.35853e-06
0.00271015
0.000307664
-3.84182e-06
0.00243812
0.000276309
-2.08394e-06
0.00221192
0.000232858
-3.27812e-06
0.00202924
0.000187011
-2.1169e-06
0.00188998
0.00014545
-3.0396e-06
0.00178357
0.000110937
-2.20952e-06
0.00170563
8.37928e-05
-2.86871e-06
0.00164673
6.35542e-05
-2.27175e-06
0.00160348
4.87944e-05
-2.71237e-06
0.00157037
3.78363e-05
-2.3068e-06
0.00154454
3.10978e-05
-2.58084e-06
0.00152607
2.32561e-05
-2.33608e-06
0.00150694
2.41986e-05
-2.48195e-06
0.00150167
1.0119e-05
-2.36994e-06
0.0014822
2.44208e-05
-2.42225e-06
0.00150063
-1.37566e-05
-2.28601e-06
-1.90897e-05
-2.56799e-06
0.00152496
0.00376507
8.92884e-05
-8.06038e-06
0.00385708
0.000188693
-9.59644e-06
0.00392767
0.000255804
-7.5641e-06
0.00396802
0.000284518
-8.54912e-06
0.0039748
0.000284167
-7.26729e-06
0.00396081
0.000263068
-8.06311e-06
0.00393013
0.000232369
-7.29243e-06
0.00389282
0.000198568
-7.85405e-06
0.00385049
0.000168084
-7.36426e-06
0.00380863
0.000141155
-7.7011e-06
0.00376679
0.000120292
-7.39408e-06
0.00372802
0.0001028
-7.56153e-06
0.00369082
8.99389e-05
-7.39489e-06
0.00365762
7.93047e-05
-7.44216e-06
0.00362597
6.98128e-05
-7.39462e-06
0.00359872
6.62685e-05
-7.3474e-06
0.00357263
5.11885e-05
-7.42893e-06
0.003549
6.27533e-05
-7.29357e-06
0.0035266
2.39553e-05
-7.59713e-06
5.23295e-05
-7.64986e-06
0.00347059
0.00375135
4.42152e-05
-3.35933e-06
0.00384881
0.000101665
-5.15718e-06
0.00396476
0.000145113
-2.57291e-06
0.00408979
0.000167744
-4.07666e-06
0.00420507
0.000173467
-2.23647e-06
0.00430837
0.000166815
-3.47514e-06
0.0043928
0.000152492
-2.23391e-06
0.00446216
0.000135717
-3.206e-06
0.00451598
0.000119019
-2.33315e-06
0.00455889
0.000104407
-3.03486e-06
0.00459219
9.19213e-05
-2.41552e-06
0.00461871
8.21538e-05
-2.88813e-06
0.00464028
7.34154e-05
-2.46844e-06
0.00465734
6.78982e-05
-2.76574e-06
0.00467255
5.97399e-05
-2.5063e-06
0.00468442
5.98721e-05
-2.67377e-06
0.00469559
4.51653e-05
-2.51052e-06
0.00470641
5.72984e-05
-2.61497e-06
0.0047124
2.25953e-05
-2.25393e-06
4.35421e-05
-2.63446e-06
0.00472659
0.00374003
1.95786e-05
-7.9201e-06
0.00382226
3.85206e-05
-9.48391e-06
0.00393095
5.16519e-05
-7.55569e-06
0.00405776
5.81915e-05
-8.57748e-06
0.00418552
6.03727e-05
-7.28195e-06
0.00431014
5.84103e-05
-8.06288e-06
0.00442267
5.45987e-05
-7.27208e-06
0.0045248
4.9329e-05
-7.82619e-06
0.00461403
4.45483e-05
-7.3316e-06
0.00469408
3.97787e-05
-7.66882e-06
0.00476459
3.62378e-05
-7.36314e-06
0.004829
3.29064e-05
-7.53195e-06
0.00488667
3.05914e-05
-7.36828e-06
0.00494099
2.85172e-05
-7.41536e-06
0.00498913
2.6473e-05
-7.3745e-06
0.00503749
2.62822e-05
-7.32688e-06
0.00507552
2.21304e-05
-7.4312e-06
0.00512028
2.72957e-05
-7.31054e-06
0.00514204
1.64249e-05
-7.72492e-06
3.33476e-05
-7.69916e-06
0.00516777
0.00374539
-1.95788e-05
-3.3403e-06
0.00383285
-3.85201e-05
-5.15118e-06
0.00394152
-5.16523e-05
-2.62647e-06
0.00406628
-5.819e-05
-4.13325e-06
0.00419169
-6.03729e-05
-2.28553e-06
0.00431564
-5.84067e-05
-3.5185e-06
0.00442946
-5.4597e-05
-2.26356e-06
0.00453466
-4.93201e-05
-3.23144e-06
0.00462855
-4.454e-05
-2.35455e-06
0.00471428
-3.97546e-05
-3.05509e-06
0.0047917
-3.6212e-05
-2.43696e-06
0.00486335
-3.28313e-05
-2.90875e-06
0.00492956
-3.05308e-05
-2.49143e-06
0.00499205
-2.82846e-05
-2.78727e-06
0.00505004
-2.6343e-05
-2.52785e-06
0.00510748
-2.56397e-05
-2.69612e-06
0.00515653
-2.17571e-05
-2.51574e-06
0.00521504
-2.57954e-05
-2.64051e-06
0.00525102
-1.50064e-05
-2.20764e-06
-3.03618e-05
-2.63987e-06
0.00532015
0.00374003
-4.42153e-05
-7.9201e-06
0.00382226
-0.000101664
-9.48391e-06
0.00393095
-0.000145113
-7.55569e-06
0.00405776
-0.000167743
-8.57748e-06
0.00418552
-0.000173467
-7.28195e-06
0.00431014
-0.000166811
-8.06288e-06
0.00442267
-0.00015249
-7.27208e-06
0.0045248
-0.000135708
-7.8262e-06
0.00461403
-0.000119011
-7.3316e-06
0.00469409
-0.000104384
-7.66882e-06
0.00476459
-9.18972e-05
-7.36314e-06
0.00482901
-8.20827e-05
-7.53196e-06
0.00488668
-7.336e-05
-7.36829e-06
0.00494102
-6.76788e-05
-7.41539e-06
0.00498917
-5.96248e-05
-7.37451e-06
0.00503757
-5.9267e-05
-7.32696e-06
0.00507565
-4.48389e-05
-7.43115e-06
0.0051205
-5.5895e-05
-7.31073e-06
0.00514241
-2.13303e-05
-7.72434e-06
-4.08194e-05
-7.69919e-06
0.00516841
0.00375135
-8.92884e-05
-3.35933e-06
0.00384881
-0.000188693
-5.15718e-06
0.00396476
-0.000255804
-2.57291e-06
0.00408979
-0.000284517
-4.07666e-06
0.00420507
-0.000284167
-2.23647e-06
0.00430837
-0.000263065
-3.47514e-06
0.0043928
-0.000232367
-2.23391e-06
0.00446216
-0.000198561
-3.206e-06
0.00451598
-0.000168077
-2.33315e-06
0.0045589
-0.000141137
-3.03486e-06
0.0045922
-0.000120271
-2.41553e-06
0.00461874
-0.000102743
-2.88812e-06
0.00464032
-8.98946e-05
-2.46845e-06
0.00465742
-7.91274e-05
-2.76571e-06
0.00467266
-6.97301e-05
-2.50631e-06
0.00468464
-6.57773e-05
-2.67369e-06
0.00469591
-5.09618e-05
-2.51049e-06
0.00470701
-6.16287e-05
-2.61483e-06
0.00471333
-2.30161e-05
-2.25413e-06
-5.02379e-05
-2.63401e-06
0.00472815
0.00376507
-0.00013868
-8.06038e-06
0.00385708
-0.00026139
-9.59644e-06
0.00392767
-0.000311154
-7.5641e-06
0.00396802
-0.000307664
-8.54912e-06
0.0039748
-0.000276309
-7.26729e-06
0.00396081
-0.000232857
-8.06311e-06
0.00393013
-0.000187009
-7.29243e-06
0.00389282
-0.000145447
-7.85405e-06
0.0038505
-0.000110932
-7.36426e-06
0.00380865
-8.37852e-05
-7.70111e-06
0.00376681
-6.35393e-05
-7.39409e-06
0.00372807
-4.87684e-05
-7.56154e-06
0.00369089
-3.7807e-05
-7.39489e-06
0.00365778
-3.10095e-05
-7.4422e-06
0.00362617
-2.32089e-05
-7.39459e-06
0.00359915
-2.39429e-05
-7.34758e-06
0.00357317
-1.00049e-05
-7.42868e-06
0.00355009
-2.38439e-05
-7.29404e-06
0.00352813
1.42531e-05
-7.59571e-06
1.9885e-05
-7.65082e-06
0.00347341
0.00356746
-3.28118e-06
0.00331635
-5.08562e-06
0.00301003
-2.35853e-06
0.00271015
-3.84182e-06
0.00243812
-2.08394e-06
0.00221192
-3.27812e-06
0.00202925
-2.1169e-06
0.00188999
-3.0396e-06
0.00178358
-2.20952e-06
0.00170565
-2.86871e-06
0.00164677
-2.27176e-06
0.00160354
-2.71235e-06
0.00157046
-2.30683e-06
0.00154472
-2.5808e-06
0.00152629
-2.33614e-06
0.00150742
-2.4819e-06
0.00150226
-2.37002e-06
0.00148337
-2.42206e-06
0.00150229
-2.28616e-06
-2.56743e-06
0.00152741
0.00338161
0.000328504
-1.35369e-05
0.00281882
0.000564779
-6.95824e-06
0.00232807
0.000500255
-1.17443e-05
0.00197523
0.000356338
-7.22802e-06
0.00174535
0.000238998
-1.11026e-05
0.00159636
0.000153305
-7.47646e-06
0.0015014
0.000103502
-1.05549e-05
0.00143272
7.3316e-05
-7.56512e-06
0.00138485
5.58044e-05
-1.0028e-05
0.00134458
4.50882e-05
-7.57541e-06
0.0013144
3.75791e-05
-9.55469e-06
0.00128675
3.26e-05
-7.54533e-06
0.00126524
2.84462e-05
-9.13284e-06
0.00124487
2.53935e-05
-7.48584e-06
0.00122948
2.19165e-05
-8.75224e-06
0.00121283
2.16913e-05
-7.40334e-06
0.0012148
4.18193e-06
-8.41595e-06
0.00118991
2.98698e-05
-7.29356e-06
0.00133849
-0.000142454
-8.31202e-06
-0.000126652
-6.86498e-06
0.00146955
0.00382341
0.00020053
-3.31363e-06
0.0038961
0.000479933
2.68303e-06
0.0038977
0.000493088
-1.89423e-06
0.00383295
0.000410025
2.62323e-06
0.00375102
0.000314998
-1.23486e-06
0.0036621
0.000231853
2.41056e-06
0.00358351
0.000175559
-6.63843e-07
0.00351009
0.000136648
2.33392e-06
0.00344843
0.000110328
-1.28621e-07
0.00339162
9.19723e-05
2.32735e-06
0.00334381
7.77484e-05
3.49606e-07
0.00329986
6.67427e-05
2.35819e-06
0.00326172
5.85234e-05
7.79092e-07
0.00322812
4.9253e-05
2.41499e-06
0.00319467
4.6911e-05
1.18136e-06
0.00317178
3.48626e-05
2.49028e-06
0.00313053
3.65114e-05
1.61007e-06
0.00312336
2.72354e-05
2.62308e-06
0.00299113
-1.99709e-05
2.25904e-06
3.32185e-05
3.60838e-06
0.00282011
0.0038177
9.098e-05
-1.1656e-05
0.00402161
0.000277306
-6.32721e-06
0.00420558
0.000317389
-1.073e-05
0.00433366
0.000284201
-6.23446e-06
0.00442011
0.000236496
-1.00744e-05
0.00446711
0.000187924
-6.45183e-06
0.00449645
0.000153621
-9.54339e-06
0.00450888
0.00012767
-6.56299e-06
0.00451669
0.000109315
-9.03475e-06
0.00451679
9.55201e-05
-6.58732e-06
0.00451674
8.40442e-05
-8.57155e-06
0.00451185
7.54171e-05
-6.56398e-06
0.00450935
6.68193e-05
-8.1581e-06
0.00450131
6.11473e-05
-6.50751e-06
0.00450082
5.28127e-05
-7.79431e-06
0.00448888
5.0673e-05
-6.42612e-06
0.00449866
3.18669e-05
-7.52253e-06
0.00448809
4.1653e-05
-6.33027e-06
0.00451807
-4.44101e-05
-7.6702e-06
-2.82124e-05
-6.2065e-06
0.0045832
0.00374443
4.16821e-05
-2.88629e-06
0.00391883
9.11118e-05
2.42906e-06
0.00413462
9.60555e-05
-1.8969e-06
0.0043199
8.78277e-05
2.62377e-06
0.00447687
7.35335e-05
-1.19326e-06
0.00459475
5.96255e-05
2.45941e-06
0.00469262
4.91936e-05
-6.22222e-07
0.00476867
4.1512e-05
2.37301e-06
0.00483493
3.59003e-05
-9.4801e-08
0.00488888
3.16337e-05
2.35888e-06
0.00493707
2.82049e-05
3.80211e-07
0.00497772
2.49474e-05
2.38621e-06
0.00501339
2.30802e-05
8.09995e-07
0.00504543
1.93604e-05
2.44176e-06
0.00506945
2.031e-05
1.2204e-06
0.0050961
1.42921e-05
2.52578e-06
0.00509847
2.05021e-05
1.69345e-06
0.00511555
1.46724e-05
2.72435e-06
0.00504258
1.83683e-05
2.59652e-06
4.68316e-05
3.67964e-06
0.00495629
0.00379126
-4.16822e-05
-1.13953e-05
0.00397488
-9.11114e-05
-6.42979e-06
0.00417518
-9.60556e-05
-1.07061e-05
0.00435304
-8.78266e-05
-6.22693e-06
0.00450796
-7.35333e-05
-1.00413e-05
0.0046302
-5.96226e-05
-6.41512e-06
0.00473593
-4.91919e-05
-9.50842e-06
0.00482233
-4.15048e-05
-6.52998e-06
0.00490087
-3.58927e-05
-9.00482e-06
0.00496771
-3.16143e-05
-6.5593e-06
0.00503029
-2.81792e-05
-8.54509e-06
0.00508386
-2.48878e-05
-6.53888e-06
0.00513569
-2.30093e-05
-8.13462e-06
0.00517803
-1.91743e-05
-6.48455e-06
0.00522384
-2.01314e-05
-7.7772e-06
0.0052557
-1.37374e-05
-6.40544e-06
0.00530135
-2.00069e-05
-7.5319e-06
0.00533302
-1.31887e-05
-6.31235e-06
0.00537377
-1.66949e-05
-7.76543e-06
-4.31979e-05
-6.27842e-06
0.00546758
0.00374443
-9.09801e-05
-2.88629e-06
0.00391883
-0.000277306
2.42906e-06
0.00413462
-0.000317389
-1.8969e-06
0.0043199
-0.0002842
2.62377e-06
0.00447687
-0.000236495
-1.19326e-06
0.00459475
-0.000187921
2.45941e-06
0.00469262
-0.000153619
-6.22223e-07
0.00476867
-0.000127663
2.37301e-06
0.00483494
-0.000109308
-9.48043e-08
0.00488889
-9.55024e-05
2.35888e-06
0.00493708
-8.40207e-05
3.80212e-07
0.00497773
-7.53625e-05
2.38623e-06
0.00501341
-6.67564e-05
8.10026e-07
0.00504546
-6.09758e-05
2.44182e-06
0.00506951
-5.26593e-05
1.22048e-06
0.00509621
-5.01648e-05
2.52595e-06
0.00509865
-3.14521e-05
1.69354e-06
0.0051159
-4.0337e-05
2.72477e-06
0.00504319
4.58246e-05
2.59556e-06
3.1364e-05
3.6803e-06
0.00495739
0.0038177
-0.00020053
-1.1656e-05
0.00402161
-0.000479933
-6.32721e-06
0.00420558
-0.000493088
-1.073e-05
0.00433367
-0.000410024
-6.23446e-06
0.00442011
-0.000314997
-1.00744e-05
0.00446711
-0.000231852
-6.45183e-06
0.00449645
-0.000175557
-9.54339e-06
0.00450888
-0.000136643
-6.56299e-06
0.00451669
-0.000110322
-9.03475e-06
0.0045168
-9.19607e-05
-6.58732e-06
0.00451676
-7.77283e-05
-8.57155e-06
0.00451188
-6.67063e-05
-6.56398e-06
0.00450939
-5.84714e-05
-8.1581e-06
0.00450141
-4.91365e-05
-6.50754e-06
0.00450094
-4.67889e-05
-7.79427e-06
0.00448916
-3.451e-05
-6.42624e-06
0.00449904
-3.61877e-05
-7.52244e-06
0.00448884
-2.62973e-05
-6.33043e-06
0.00451917
2.10368e-05
-7.66957e-06
-3.07576e-05
-6.20597e-06
0.00458499
0.00382341
-0.000328504
-3.31363e-06
0.0038961
-0.000564779
2.68303e-06
0.0038977
-0.000500255
-1.89423e-06
0.00383295
-0.000356337
2.62323e-06
0.00375102
-0.000238997
-1.23486e-06
0.0036621
-0.000153304
2.41056e-06
0.00358351
-0.000103501
-6.63844e-07
0.00351009
-7.33142e-05
2.33392e-06
0.00344843
-5.58009e-05
-1.28628e-07
0.00339163
-4.50831e-05
2.32736e-06
0.00334383
-3.75689e-05
3.49598e-07
0.0032999
-3.25835e-05
2.35822e-06
0.00326179
-2.84216e-05
7.79109e-07
0.00322825
-2.53379e-05
2.41507e-06
0.00319487
-2.18671e-05
1.18139e-06
0.00317215
-2.15139e-05
2.49054e-06
0.00313113
-4.08677e-06
1.60989e-06
0.00312443
-2.93988e-05
2.62397e-06
0.00299302
0.000142708
2.25689e-06
0.00012711
3.61095e-06
0.002824
0.00338161
-1.35369e-05
0.00281882
-6.95824e-06
0.00232807
-1.17443e-05
0.00197523
-7.22802e-06
0.00174536
-1.11026e-05
0.00159636
-7.47647e-06
0.0015014
-1.05549e-05
0.00143272
-7.56512e-06
0.00138486
-1.0028e-05
0.00134459
-7.57542e-06
0.00131442
-9.55469e-06
0.00128679
-7.54536e-06
0.00126531
-9.13281e-06
0.00124499
-7.4859e-06
0.00122965
-8.75208e-06
0.00121317
-7.40353e-06
0.00121524
-8.41558e-06
0.00119082
-7.29403e-06
0.00133966
-8.31118e-06
-6.86548e-06
0.00147117
0.00259893
0.00108852
0.00199364
0.000598457
0.00159908
0.000382925
0.00139584
0.000196125
0.00127536
0.000109491
0.00120167
6.63279e-05
0.00114826
4.29682e-05
0.00110958
3.12283e-05
0.00107687
2.27946e-05
0.00105154
1.78745e-05
0.00102855
1.35497e-05
0.00101039
1.07256e-05
0.000993344
8.03442e-06
0.000979528
6.44727e-06
0.00096629
4.60196e-06
0.000954474
4.52763e-06
0.000938594
7.57717e-06
0.000934244
-2.83245e-06
0.00083153
9.45114e-05
6.35619e-05
0.000761212
0.00386684
0.000918821
0.00382276
0.000645339
0.00367992
0.000523981
0.00353202
0.000346757
0.00339778
0.000242601
0.00328781
0.00017881
0.00319379
0.000136418
0.00311792
0.00010953
0.00305172
8.897e-05
0.002998
7.40219e-05
0.00295001
6.19965e-05
0.00291054
5.26715e-05
0.00287511
4.43483e-05
0.00284459
3.95011e-05
0.00281993
3.05583e-05
0.00279419
3.28721e-05
0.00278717
1.63259e-05
0.0027622
2.48722e-05
0.00284606
1.30212e-05
-3.39258e-05
0.00294726
0.0040866
0.000521383
0.00433197
0.000393753
0.00448251
0.000362825
0.00456016
0.000262977
0.00459171
0.000201087
0.00460523
0.000158929
0.0046037
0.000128503
0.00459908
0.000107682
0.0045882
9.09045e-05
0.00457813
7.75956e-05
0.00456455
6.71069e-05
0.00455345
5.73047e-05
0.00453899
5.07539e-05
0.00452923
4.28643e-05
0.0045125
3.96165e-05
0.00450592
3.31398e-05
0.00447921
3.5639e-05
0.00446973
2.81473e-05
0.00441477
6.04305e-05
6.08303e-05
0.00431393
0.0040424
0.000176508
0.00430367
0.000135023
0.00453729
0.00012742
0.00470817
9.48299e-05
0.00483378
7.43903e-05
0.00493429
6.09737e-05
0.00501104
5.12257e-05
0.00507642
4.47652e-05
0.00512815
3.91754e-05
0.00517323
3.49558e-05
0.00520992
3.0892e-05
0.00524166
2.80477e-05
0.00526904
2.4283e-05
0.00529115
2.33082e-05
0.00531432
1.77697e-05
0.00532959
2.05188e-05
0.00535825
8.79393e-06
0.00537425
1.50052e-05
0.00544199
-4.58744e-06
-2.14531e-05
0.00552809
0.00404241
-0.000176508
0.00430614
-0.000135023
0.00455039
-0.00012742
0.00473393
-9.48288e-05
0.00487277
-7.43899e-05
0.0049884
-6.0971e-05
0.00508143
-5.12235e-05
0.00516451
-4.47589e-05
0.00523394
-3.9166e-05
0.00529737
-3.49399e-05
0.00535066
-3.08604e-05
0.00540026
-2.79965e-05
0.00544071
-2.42022e-05
0.00548076
-2.31223e-05
0.00550848
-1.76123e-05
0.00554259
-1.98862e-05
0.00555247
-8.48866e-06
0.0055746
-1.3313e-05
0.00555651
5.8745e-06
2.52126e-05
0.0055037
0.0040424
-0.000521383
0.00430367
-0.000393753
0.00453729
-0.000362825
0.00470817
-0.000262976
0.00483378
-0.000201086
0.00493429
-0.000158927
0.00501104
-0.000128501
0.00507642
-0.000107677
0.00512815
-9.08959e-05
0.00517324
-7.7582e-05
0.00520993
-6.70784e-05
0.00524168
-5.7261e-05
0.00526907
-5.06824e-05
0.0052912
-4.27044e-05
0.0053144
-3.94832e-05
0.00532975
-3.25886e-05
0.00535846
-3.53875e-05
0.00537462
-2.66201e-05
0.00544258
-5.9356e-05
-5.75117e-05
0.00552912
0.0040866
-0.000918821
0.00433197
-0.000645338
0.00448251
-0.000523981
0.00456016
-0.000346756
0.00459171
-0.0002426
0.00460523
-0.000178809
0.0046037
-0.000136416
0.00459908
-0.000109526
0.0045882
-8.89634e-05
0.00457814
-7.40132e-05
0.00456457
-6.19757e-05
0.00455348
-5.26425e-05
0.00453905
-4.4299e-05
0.00452934
-3.93902e-05
0.00451265
-3.04745e-05
0.00450623
-3.24804e-05
0.00447964
-1.61952e-05
0.00447063
-2.38167e-05
0.00441618
-1.2449e-05
3.59079e-05
0.00431667
0.00386684
-0.00108852
0.00382276
-0.000598457
0.00367992
-0.000382925
0.00353202
-0.000196125
0.00339778
-0.00010949
0.00328781
-6.63274e-05
0.00319379
-4.29673e-05
0.00311793
-3.12272e-05
0.00305173
-2.27917e-05
0.00299802
-1.78719e-05
0.00295004
-1.35406e-05
0.00291058
-1.07167e-05
0.00287519
-8.01152e-06
0.00284474
-6.41284e-06
0.00282012
-4.55887e-06
0.00279465
-4.40252e-06
0.00278765
-7.47833e-06
0.00276339
3.18433e-06
0.00284734
-9.40353e-05
-6.26114e-05
0.00294958
0.00259893
0.00199364
0.00159908
0.00139584
0.00127536
0.00120167
0.00114826
0.00110958
0.00107688
0.00105154
0.00102857
0.00101042
0.000993394
0.000979612
0.000966416
0.000954724
0.000938942
0.000934942
0.000832705
0.000763337
0.000887176
-0.000194449
6.8815e-05
0.000911207
-8.44711e-05
6.07719e-05
0.000902192
-5.49938e-05
6.43596e-05
0.000896495
-5.18303e-05
5.78973e-05
0.00089058
-5.3454e-05
5.97389e-05
0.00088655
-5.08915e-05
5.52762e-05
0.000882492
-5.19292e-05
5.63268e-05
0.00087949
-4.98851e-05
5.32227e-05
0.000876534
-5.05112e-05
5.38092e-05
0.000874185
-4.89275e-05
5.16246e-05
0.00087197
-4.93679e-05
5.19321e-05
0.000870095
-4.81629e-05
5.03796e-05
0.000868412
-4.85027e-05
5.05201e-05
0.0008669
-4.75671e-05
4.94085e-05
0.000865615
-4.78342e-05
4.94505e-05
0.000864394
-4.7096e-05
4.86502e-05
0.000863415
-4.73238e-05
4.86365e-05
0.000862428
-4.67398e-05
4.80583e-05
0.000861684
-4.6943e-05