/*--------------------------------*- C++ -*----------------------------------*\
  =========                 |
  \\      /  F ield         | OpenFOAM: The Open Source CFD Toolbox
   \\    /   O peration     | Website:  https://openfoam.org
    \\  /    A nd           | Version:  7
     \\/     M anipulation  |
\*---------------------------------------------------------------------------*/
FoamFile
{
    version     2.0;
    format      ascii;
    class       volScalarField;
    location    "0.21";
    object      nut;
}
// * * * * * * * * * * * * * * * * * * * * * * * * * * * * * * * * * * * * * //

dimensions      [0 2 -1 0 0 0 0];

internalField   nonuniform List<scalar> 
13200
(
0.00816928
0.00838477
0.0083778
0.00837844
0.00837503
0.00837655
0.00837509
0.00837761
0.00837713
0.00837935
0.00837869
0.00838005
0.00837924
0.0083801
0.00837948
0.00837989
0.00837986
0.00837899
0.0083824
0.00838418
0.00395517
0.00376799
0.00363992
0.00359105
0.00357097
0.00356592
0.00356003
0.00356257
0.00356168
0.00356438
0.00356334
0.00356532
0.00356418
0.00356583
0.00356478
0.00356648
0.00356531
0.0035674
0.00357315
0.00357366
0.00247094
0.0024623
0.00241417
0.00237864
0.00236029
0.00235467
0.00235067
0.00235258
0.00235298
0.00235596
0.0023562
0.00235831
0.00235826
0.00235998
0.00235983
0.00236171
0.00236107
0.00236387
0.00236279
0.00236837
0.00208393
0.00220386
0.00221357
0.00221236
0.0022086
0.00220752
0.00220516
0.00220612
0.00220663
0.00220933
0.00221025
0.00221255
0.00221295
0.00221448
0.00221465
0.00221596
0.00221608
0.00221746
0.00221779
0.00222103
0.00199461
0.00215383
0.00217986
0.00218866
0.0021896
0.00219173
0.00219081
0.0021919
0.00219217
0.00219496
0.00219613
0.00219898
0.00219958
0.00220139
0.00220162
0.00220286
0.00220312
0.00220403
0.00220457
0.00220678
0.00198263
0.00214744
0.00217712
0.00218866
0.00219135
0.00219494
0.00219428
0.00219536
0.00219557
0.00219847
0.00219984
0.00220305
0.0022038
0.00220583
0.00220612
0.00220747
0.00220776
0.00220871
0.00220974
0.00221127
0.00197868
0.00214365
0.00217372
0.00218603
0.00218947
0.00219373
0.00219351
0.00219496
0.00219527
0.00219824
0.0021997
0.00220308
0.00220395
0.00220608
0.00220642
0.00220764
0.00220818
0.00220868
0.00220995
0.00221138
0.00198064
0.0021441
0.00217401
0.00218649
0.00219038
0.00219504
0.00219497
0.00219643
0.00219687
0.00220004
0.00220161
0.00220509
0.00220597
0.00220812
0.0022085
0.00220975
0.0022104
0.00221082
0.00221255
0.00221345
0.00198016
0.00214294
0.00217257
0.00218493
0.00218884
0.00219359
0.00219366
0.00219538
0.00219594
0.00219923
0.00220085
0.00220442
0.00220536
0.00220753
0.00220793
0.00220909
0.00220986
0.00221012
0.00221184
0.00221282
0.00198106
0.00214323
0.00217273
0.00218506
0.00218899
0.00219378
0.00219388
0.00219564
0.00219626
0.00219965
0.00220132
0.00220491
0.00220584
0.00220801
0.00220841
0.00220958
0.00221039
0.00221063
0.00221248
0.00221333
0.00198106
0.00214323
0.00217273
0.00218506
0.00218899
0.00219378
0.00219388
0.00219564
0.00219626
0.00219965
0.00220132
0.00220491
0.00220584
0.00220801
0.00220841
0.00220958
0.00221039
0.00221064
0.00221248
0.00221333
0.00198016
0.00214294
0.00217257
0.00218493
0.00218884
0.00219359
0.00219366
0.00219538
0.00219594
0.00219923
0.00220085
0.00220442
0.00220536
0.00220754
0.00220793
0.00220909
0.00220986
0.00221012
0.00221185
0.00221283
0.00198064
0.0021441
0.00217401
0.00218649
0.00219038
0.00219504
0.00219497
0.00219643
0.00219687
0.00220004
0.0022016
0.00220509
0.00220597
0.00220813
0.00220849
0.00220976
0.00221037
0.00221083
0.00221255
0.00221346
0.00197868
0.00214365
0.00217372
0.00218603
0.00218947
0.00219373
0.00219351
0.00219496
0.00219527
0.00219824
0.00219969
0.00220309
0.00220395
0.00220609
0.0022064
0.00220768
0.00220813
0.00220872
0.00220993
0.00221142
0.00198263
0.00214744
0.00217712
0.00218866
0.00219135
0.00219494
0.00219428
0.00219536
0.00219557
0.00219847
0.00219983
0.00220305
0.00220379
0.00220586
0.00220609
0.00220753
0.00220771
0.00220882
0.0022096
0.00221134
0.00199461
0.00215383
0.00217986
0.00218866
0.0021896
0.00219173
0.00219081
0.0021919
0.00219217
0.00219496
0.00219613
0.00219899
0.00219956
0.00220143
0.00220157
0.00220298
0.002203
0.00220426
0.00220437
0.00220692
0.00208393
0.00220386
0.00221357
0.00221236
0.0022086
0.00220752
0.00220516
0.00220612
0.00220663
0.00220933
0.00221025
0.00221256
0.00221293
0.00221453
0.00221458
0.00221612
0.00221587
0.00221785
0.00221728
0.00222142
0.00247094
0.0024623
0.00241417
0.00237864
0.00236029
0.00235467
0.00235066
0.00235258
0.00235298
0.00235596
0.00235619
0.00235832
0.00235824
0.00236001
0.00235976
0.00236183
0.00236082
0.00236432
0.00236194
0.00236942
0.00395517
0.00376799
0.00363991
0.00359105
0.00357097
0.00356592
0.00356003
0.00356257
0.00356167
0.00356437
0.00356334
0.00356532
0.00356417
0.00356585
0.00356473
0.00356658
0.00356509
0.00356778
0.00357211
0.00357541
0.00816928
0.00838477
0.0083778
0.00837843
0.00837503
0.00837655
0.00837509
0.00837761
0.00837712
0.00837934
0.00837868
0.00838005
0.00837923
0.00838014
0.00837939
0.00838008
0.00837949
0.00837975
0.00838077
0.00838757
0.00229689
0.00244878
0.00242475
0.00239718
0.00239415
0.00238586
0.00238913
0.00238572
0.00238922
0.00238689
0.00238953
0.00238775
0.00238972
0.00238842
0.0023899
0.00238906
0.00239005
0.00238969
0.00238903
0.00239674
0.0018943
0.00218066
0.00221105
0.00220621
0.00220154
0.00219765
0.00219742
0.00219723
0.00219854
0.00219905
0.00220035
0.00220074
0.00220179
0.00220219
0.00220307
0.00220375
0.00220408
0.00220569
0.00220463
0.00220552
0.00175784
0.00206134
0.00210805
0.00211876
0.00212151
0.00212264
0.00212278
0.00212359
0.00212437
0.00212549
0.00212619
0.00212684
0.00212723
0.00212753
0.00212786
0.00212796
0.00212845
0.00212809
0.00212875
0.00213026
0.00174096
0.00204573
0.00208979
0.00209935
0.00210168
0.00210326
0.00210319
0.00210382
0.00210456
0.00210627
0.00210729
0.00210839
0.00210882
0.00210918
0.00210942
0.00210937
0.00210983
0.00210936
0.00211084
0.00211079
0.00173301
0.00203802
0.00208167
0.00209012
0.00209113
0.00209214
0.00209186
0.0020925
0.00209343
0.00209552
0.0020969
0.00209846
0.00209911
0.00209968
0.00209993
0.00209994
0.00210026
0.00209983
0.00210024
0.00210122
0.00173654
0.00204175
0.00208507
0.00209333
0.00209401
0.00209462
0.00209393
0.00209412
0.00209465
0.00209662
0.00209813
0.00209994
0.00210074
0.00210148
0.00210169
0.00210191
0.00210204
0.00210211
0.00210246
0.00210372
0.001734
0.00203892
0.00208225
0.00209049
0.00209113
0.00209168
0.00209096
0.00209116
0.00209173
0.00209381
0.00209545
0.00209739
0.00209825
0.00209908
0.00209929
0.00209949
0.00209961
0.00209957
0.00209959
0.00210081
0.00173635
0.00204132
0.00208447
0.00209267
0.00209332
0.00209383
0.00209303
0.00209314
0.00209359
0.00209557
0.00209716
0.0020991
0.00209996
0.00210083
0.00210102
0.00210135
0.00210136
0.00210154
0.00210166
0.00210298
0.00173518
0.00203995
0.00208311
0.00209126
0.00209187
0.00209237
0.0020916
0.00209176
0.00209227
0.00209432
0.00209597
0.00209795
0.00209882
0.0020997
0.00209989
0.00210016
0.0021002
0.00210029
0.00210031
0.00210157
0.00173607
0.00204082
0.00208391
0.00209202
0.00209261
0.00209308
0.00209229
0.00209243
0.00209293
0.00209495
0.00209658
0.00209853
0.0020994
0.00210028
0.00210046
0.00210077
0.00210079
0.00210094
0.002101
0.00210229
0.00173607
0.00204082
0.00208391
0.00209202
0.00209261
0.00209308
0.00209229
0.00209243
0.00209293
0.00209495
0.00209658
0.00209853
0.0020994
0.00210028
0.00210046
0.00210077
0.00210079
0.00210094
0.002101
0.00210229
0.00173518
0.00203995
0.00208311
0.00209126
0.00209187
0.00209237
0.0020916
0.00209176
0.00209227
0.00209432
0.00209597
0.00209795
0.00209882
0.0020997
0.00209988
0.00210017
0.0021002
0.0021003
0.00210031
0.00210157
0.00173635
0.00204132
0.00208447
0.00209267
0.00209332
0.00209383
0.00209303
0.00209314
0.00209359
0.00209557
0.00209716
0.0020991
0.00209996
0.00210084
0.00210101
0.00210136
0.00210134
0.00210155
0.00210165
0.00210298
0.001734
0.00203892
0.00208225
0.00209049
0.00209113
0.00209168
0.00209096
0.00209116
0.00209173
0.00209381
0.00209545
0.0020974
0.00209824
0.0020991
0.00209926
0.00209953
0.00209956
0.00209962
0.00209956
0.00210083
0.00173654
0.00204175
0.00208507
0.00209333
0.00209401
0.00209462
0.00209393
0.00209412
0.00209465
0.00209662
0.00209813
0.00209995
0.00210072
0.00210151
0.00210165
0.00210198
0.00210196
0.0021022
0.00210239
0.00210376
0.00173301
0.00203802
0.00208167
0.00209012
0.00209113
0.00209214
0.00209186
0.0020925
0.00209343
0.00209552
0.0020969
0.00209848
0.00209908
0.00209974
0.00209984
0.00210004
0.00210012
0.00210005
0.00210006
0.00210136
0.00174096
0.00204573
0.00208979
0.00209935
0.00210168
0.00210326
0.00210319
0.00210382
0.00210456
0.00210627
0.00210729
0.00210841
0.00210879
0.00210925
0.00210932
0.00210951
0.00210959
0.00210969
0.00211021
0.00211127
0.00175784
0.00206134
0.00210805
0.00211876
0.00212151
0.00212264
0.00212278
0.00212358
0.00212437
0.00212549
0.00212619
0.00212685
0.00212721
0.00212757
0.00212777
0.00212812
0.0021282
0.00212853
0.0021281
0.002131
0.0018943
0.00218066
0.00221105
0.00220621
0.00220154
0.00219765
0.00219742
0.00219723
0.00219854
0.00219905
0.00220034
0.00220074
0.00220178
0.00220221
0.00220303
0.00220384
0.00220395
0.00220595
0.002204
0.00220661
0.00229689
0.00244878
0.00242475
0.00239718
0.00239415
0.00238586
0.00238913
0.00238572
0.00238922
0.00238689
0.00238952
0.00238775
0.00238972
0.00238843
0.00238989
0.0023891
0.00238998
0.00238988
0.00238872
0.00239762
0.000880755
0.00100333
0.000937536
0.000866106
0.000836658
0.000833947
0.000836608
0.000843833
0.000849343
0.000856173
0.000861893
0.000868477
0.000874434
0.000881023
0.000886697
0.000894543
0.000897275
0.000910976
0.000901683
0.00092658
0.000360332
0.000575908
0.000622594
0.000623027
0.000615453
0.000606779
0.000603128
0.000603394
0.000604452
0.000606515
0.000608335
0.000610598
0.000612531
0.000614995
0.000616586
0.000620089
0.000620523
0.000625981
0.000624509
0.000631872
0.000162208
0.000361305
0.000421728
0.000439745
0.000441032
0.000440997
0.000439595
0.000439634
0.00043939
0.000439816
0.000439896
0.00044029
0.000440444
0.000440801
0.000440974
0.000441348
0.000441642
0.000441976
0.000443047
0.00044421
0.000149768
0.000331317
0.000390161
0.000413067
0.000418453
0.000421365
0.000421452
0.000421989
0.00042202
0.000422395
0.000422435
0.000422609
0.000422625
0.000422675
0.000422757
0.000422718
0.000422837
0.000422727
0.00042305
0.000423707
0.000147361
0.000323412
0.000380218
0.00040412
0.000409546
0.000412677
0.000412655
0.000413217
0.000413205
0.00041365
0.000413674
0.0004139
0.000413884
0.000413973
0.000413997
0.000414014
0.000414114
0.0004141
0.000414154
0.000414676
0.000152056
0.000327953
0.000385067
0.000408757
0.000414757
0.000417934
0.000418086
0.000418629
0.000418654
0.000419044
0.000419117
0.000419313
0.000419322
0.000419365
0.000419406
0.000419361
0.000419406
0.000419324
0.000419424
0.00041988
0.000149115
0.0003248
0.000381553
0.000405219
0.000410748
0.000413765
0.000413753
0.000414242
0.000414234
0.000414648
0.0004147
0.000414923
0.000414917
0.000414995
0.000415008
0.000415024
0.000415076
0.000415093
0.000415077
0.000415569
0.000151547
0.000327539
0.000384558
0.000408061
0.000413842
0.000416912
0.000417014
0.000417518
0.00041754
0.000417934
0.000418006
0.00041821
0.000418217
0.000418268
0.000418301
0.000418272
0.000418307
0.000418252
0.000418318
0.000418773
0.000150079
0.000325879
0.000382712
0.000406225
0.000411805
0.000414824
0.000414855
0.000415342
0.000415355
0.000415764
0.000415825
0.00041604
0.00041604
0.000416106
0.000416136
0.000416142
0.000416174
0.000416148
0.000416163
0.000416626
0.000150898
0.000326835
0.000383767
0.000407214
0.000412855
0.000415876
0.000415938
0.000416428
0.00041645
0.000416853
0.000416919
0.000417127
0.000417131
0.000417189
0.00041722
0.000417203
0.000417237
0.000417197
0.000417241
0.000417699
0.000150898
0.000326835
0.000383767
0.000407214
0.000412855
0.000415876
0.000415938
0.000416428
0.00041645
0.000416853
0.000416919
0.000417128
0.000417131
0.000417189
0.00041722
0.000417206
0.000417239
0.000417202
0.000417243
0.000417702
0.000150079
0.000325879
0.000382712
0.000406225
0.000411805
0.000414824
0.000414855
0.000415342
0.000415355
0.000415764
0.000415825
0.00041604
0.00041604
0.000416106
0.000416137
0.00041614
0.000416173
0.000416144
0.000416163
0.000416623
0.000151547
0.000327539
0.000384558
0.000408061
0.000413842
0.000416912
0.000417014
0.000417518
0.00041754
0.000417934
0.000418006
0.00041821
0.000418217
0.000418269
0.000418301
0.000418274
0.000418308
0.000418257
0.00041832
0.000418775
0.000149115
0.0003248
0.000381553
0.000405219
0.000410748
0.000413765
0.000413753
0.000414242
0.000414234
0.000414648
0.0004147
0.000414923
0.000414917
0.000414996
0.000415008
0.000415025
0.000415074
0.000415092
0.000415077
0.000415564
0.000152056
0.000327953
0.000385067
0.000408757
0.000414757
0.000417934
0.000418086
0.000418629
0.000418654
0.000419045
0.000419116
0.000419313
0.000419321
0.000419367
0.000419405
0.000419367
0.000419405
0.000419334
0.000419426
0.000419882
0.000147361
0.000323412
0.000380218
0.00040412
0.000409546
0.000412677
0.000412655
0.000413217
0.000413205
0.00041365
0.000413673
0.0004139
0.000413883
0.000413976
0.000413991
0.000414016
0.00041411
0.000414121
0.000414167
0.000414673
0.000149768
0.000331317
0.000390161
0.000413067
0.000418453
0.000421365
0.000421452
0.000421989
0.00042202
0.000422395
0.000422435
0.00042261
0.000422623
0.000422677
0.000422752
0.000422729
0.000422833
0.000422749
0.000423032
0.000423688
0.000162208
0.000361305
0.000421728
0.000439745
0.000441032
0.000440997
0.000439595
0.000439634
0.00043939
0.000439816
0.000439896
0.00044029
0.000440443
0.000440802
0.000440968
0.000441348
0.000441626
0.000441959
0.000443017
0.000444113
0.000360332
0.000575909
0.000622594
0.000623027
0.000615453
0.000606779
0.000603128
0.000603394
0.000604452
0.000606516
0.000608334
0.0006106
0.000612525
0.000615004
0.000616574
0.000620103
0.000620487
0.000625972
0.00062439
0.000631734
0.000880755
0.00100333
0.000937536
0.000866106
0.000836658
0.000833947
0.000836608
0.000843833
0.000849344
0.000856174
0.000861893
0.000868479
0.000874432
0.000881039
0.000886679
0.000894613
0.000897259
0.000911162
0.000901662
0.000927211
0.000880755
0.00100333
0.000937536
0.000866105
0.000836657
0.000833946
0.000836607
0.000843832
0.000849343
0.000856173
0.000861892
0.000868476
0.000874434
0.000881022
0.000886697
0.000894543
0.000897275
0.000910976
0.000901683
0.00092658
0.000360332
0.000575908
0.000622594
0.000623027
0.000615453
0.00060678
0.000603128
0.000603394
0.000604452
0.000606516
0.000608335
0.000610598
0.000612531
0.000614995
0.000616587
0.000620089
0.000620524
0.000625982
0.000624509
0.000631873
0.000162208
0.000361305
0.000421728
0.000439745
0.000441032
0.000440997
0.000439595
0.000439634
0.00043939
0.000439816
0.000439897
0.00044029
0.000440444
0.000440801
0.000440974
0.000441348
0.000441642
0.000441976
0.000443047
0.00044421
0.000149768
0.000331317
0.000390161
0.000413067
0.000418454
0.000421365
0.000421452
0.000421989
0.000422021
0.000422395
0.000422435
0.000422609
0.000422625
0.000422675
0.000422756
0.000422718
0.000422836
0.000422727
0.00042305
0.000423707
0.000147361
0.000323412
0.000380218
0.000404121
0.000409546
0.000412677
0.000412655
0.000413217
0.000413205
0.00041365
0.000413674
0.0004139
0.000413884
0.000413973
0.000413997
0.000414014
0.000414114
0.0004141
0.000414154
0.000414676
0.000152056
0.000327953
0.000385067
0.000408757
0.000414757
0.000417934
0.000418086
0.000418629
0.000418655
0.000419045
0.000419117
0.000419313
0.000419322
0.000419365
0.000419406
0.000419361
0.000419406
0.000419324
0.000419424
0.00041988
0.000149114
0.0003248
0.000381554
0.000405219
0.000410748
0.000413765
0.000413753
0.000414242
0.000414234
0.000414648
0.0004147
0.000414923
0.000414917
0.000414995
0.000415009
0.000415024
0.000415076
0.000415093
0.000415078
0.000415569
0.000151547
0.000327539
0.000384558
0.000408061
0.000413842
0.000416912
0.000417014
0.000417518
0.00041754
0.000417934
0.000418006
0.00041821
0.000418217
0.000418269
0.000418301
0.000418272
0.000418307
0.000418252
0.000418319
0.000418773
0.000150079
0.000325879
0.000382712
0.000406225
0.000411805
0.000414824
0.000414856
0.000415342
0.000415356
0.000415764
0.000415825
0.00041604
0.00041604
0.000416106
0.000416137
0.000416142
0.000416175
0.000416148
0.000416164
0.000416626
0.000150898
0.000326835
0.000383767
0.000407214
0.000412855
0.000415876
0.000415939
0.000416429
0.00041645
0.000416853
0.000416919
0.000417128
0.000417131
0.000417189
0.00041722
0.000417205
0.000417239
0.000417199
0.000417242
0.0004177
0.000150898
0.000326835
0.000383767
0.000407214
0.000412855
0.000415876
0.000415939
0.000416429
0.00041645
0.000416853
0.000416919
0.000417128
0.000417131
0.00041719
0.00041722
0.000417207
0.00041724
0.000417203
0.000417243
0.000417703
0.000150079
0.000325879
0.000382712
0.000406225
0.000411805
0.000414824
0.000414856
0.000415342
0.000415356
0.000415764
0.000415825
0.00041604
0.00041604
0.000416106
0.000416137
0.000416141
0.000416173
0.000416145
0.000416163
0.000416624
0.000151547
0.000327539
0.000384558
0.000408061
0.000413842
0.000416912
0.000417014
0.000417518
0.00041754
0.000417934
0.000418006
0.00041821
0.000418217
0.000418269
0.000418301
0.000418275
0.000418308
0.000418257
0.00041832
0.000418775
0.000149114
0.0003248
0.000381554
0.000405219
0.000410748
0.000413765
0.000413753
0.000414242
0.000414234
0.000414648
0.0004147
0.000414923
0.000414917
0.000414996
0.000415008
0.000415025
0.000415075
0.000415092
0.000415077
0.000415564
0.000152056
0.000327953
0.000385067
0.000408757
0.000414757
0.000417934
0.000418086
0.000418629
0.000418655
0.000419045
0.000419117
0.000419313
0.000419321
0.000419367
0.000419405
0.000419367
0.000419405
0.000419334
0.000419426
0.000419882
0.000147361
0.000323412
0.000380218
0.000404121
0.000409546
0.000412677
0.000412655
0.000413217
0.000413205
0.00041365
0.000413674
0.0004139
0.000413883
0.000413976
0.000413992
0.000414015
0.000414109
0.00041412
0.000414166
0.000414673
0.000149768
0.000331317
0.000390161
0.000413067
0.000418454
0.000421365
0.000421452
0.000421989
0.000422021
0.000422395
0.000422435
0.00042261
0.000422623
0.000422678
0.000422751
0.000422725
0.000422826
0.000422743
0.000423028
0.000423686
0.000162208
0.000361305
0.000421728
0.000439745
0.000441032
0.000440997
0.000439595
0.000439634
0.00043939
0.000439816
0.000439896
0.00044029
0.000440443
0.000440802
0.000440968
0.000441347
0.000441625
0.000441958
0.000443017
0.000444113
0.000360332
0.000575908
0.000622594
0.000623027
0.000615453
0.000606779
0.000603128
0.000603394
0.000604452
0.000606516
0.000608334
0.0006106
0.000612525
0.000615004
0.000616574
0.000620102
0.000620487
0.000625971
0.00062439
0.000631734
0.000880755
0.00100333
0.000937536
0.000866106
0.000836658
0.000833947
0.000836608
0.000843833
0.000849344
0.000856174
0.000861893
0.000868479
0.000874432
0.000881039
0.000886679
0.000894613
0.000897259
0.000911162
0.000901662
0.000927211
0.00229689
0.00244878
0.00242475
0.00239718
0.00239415
0.00238586
0.00238913
0.00238572
0.00238922
0.00238689
0.00238952
0.00238775
0.00238972
0.00238842
0.0023899
0.00238906
0.00239005
0.00238969
0.00238903
0.00239674
0.0018943
0.00218066
0.00221105
0.00220621
0.00220154
0.00219765
0.00219742
0.00219723
0.00219854
0.00219905
0.00220034
0.00220073
0.00220179
0.00220219
0.00220307
0.00220375
0.00220408
0.00220569
0.00220463
0.00220552
0.00175784
0.00206134
0.00210805
0.00211876
0.00212151
0.00212264
0.00212278
0.00212359
0.00212437
0.00212549
0.00212619
0.00212684
0.00212723
0.00212753
0.00212786
0.00212796
0.00212845
0.0021281
0.00212875
0.00213026
0.00174096
0.00204573
0.00208979
0.00209935
0.00210168
0.00210326
0.00210319
0.00210382
0.00210456
0.00210627
0.00210729
0.00210839
0.00210882
0.00210918
0.00210942
0.00210937
0.00210983
0.00210936
0.00211084
0.00211079
0.00173301
0.00203802
0.00208167
0.00209012
0.00209113
0.00209214
0.00209186
0.0020925
0.00209343
0.00209552
0.0020969
0.00209847
0.00209911
0.00209968
0.00209993
0.00209994
0.00210026
0.00209983
0.00210024
0.00210122
0.00173654
0.00204175
0.00208507
0.00209333
0.00209401
0.00209462
0.00209393
0.00209412
0.00209465
0.00209662
0.00209813
0.00209994
0.00210074
0.00210148
0.00210169
0.00210191
0.00210204
0.00210211
0.00210246
0.00210372
0.001734
0.00203892
0.00208225
0.00209049
0.00209113
0.00209168
0.00209096
0.00209116
0.00209173
0.00209381
0.00209545
0.00209739
0.00209825
0.00209908
0.00209929
0.00209949
0.00209961
0.00209957
0.00209959
0.00210081
0.00173635
0.00204132
0.00208447
0.00209267
0.00209332
0.00209383
0.00209303
0.00209314
0.00209359
0.00209557
0.00209716
0.0020991
0.00209996
0.00210083
0.00210102
0.00210135
0.00210136
0.00210154
0.00210166
0.00210298
0.00173518
0.00203995
0.00208311
0.00209126
0.00209187
0.00209237
0.0020916
0.00209176
0.00209227
0.00209432
0.00209597
0.00209795
0.00209882
0.0020997
0.00209989
0.00210016
0.0021002
0.00210029
0.00210031
0.00210157
0.00173607
0.00204082
0.00208391
0.00209202
0.00209261
0.00209308
0.00209229
0.00209243
0.00209293
0.00209495
0.00209658
0.00209853
0.0020994
0.00210028
0.00210046
0.00210077
0.00210079
0.00210094
0.002101
0.00210229
0.00173607
0.00204082
0.00208391
0.00209202
0.00209261
0.00209308
0.00209229
0.00209243
0.00209293
0.00209496
0.00209658
0.00209853
0.0020994
0.00210028
0.00210046
0.00210077
0.00210079
0.00210094
0.002101
0.00210229
0.00173518
0.00203995
0.00208311
0.00209126
0.00209187
0.00209237
0.0020916
0.00209176
0.00209227
0.00209432
0.00209597
0.00209795
0.00209882
0.0020997
0.00209988
0.00210017
0.0021002
0.0021003
0.00210031
0.00210157
0.00173635
0.00204132
0.00208447
0.00209267
0.00209332
0.00209383
0.00209303
0.00209314
0.00209359
0.00209557
0.00209716
0.0020991
0.00209996
0.00210084
0.00210101
0.00210136
0.00210134
0.00210155
0.00210165
0.00210298
0.001734
0.00203892
0.00208225
0.00209049
0.00209113
0.00209168
0.00209096
0.00209116
0.00209173
0.00209381
0.00209545
0.0020974
0.00209824
0.0020991
0.00209926
0.00209953
0.00209956
0.00209962
0.00209956
0.00210083
0.00173654
0.00204175
0.00208507
0.00209333
0.00209401
0.00209462
0.00209393
0.00209412
0.00209465
0.00209662
0.00209813
0.00209995
0.00210072
0.00210151
0.00210165
0.00210198
0.00210196
0.0021022
0.00210239
0.00210376
0.00173301
0.00203802
0.00208167
0.00209012
0.00209113
0.00209214
0.00209186
0.0020925
0.00209343
0.00209552
0.0020969
0.00209848
0.00209908
0.00209974
0.00209984
0.00210004
0.00210012
0.00210005
0.00210006
0.00210136
0.00174096
0.00204573
0.00208979
0.00209935
0.00210168
0.00210326
0.00210319
0.00210382
0.00210456
0.00210627
0.00210729
0.00210841
0.00210879
0.00210925
0.00210932
0.00210951
0.00210959
0.00210969
0.00211021
0.00211127
0.00175784
0.00206134
0.00210805
0.00211876
0.00212151
0.00212264
0.00212278
0.00212359
0.00212437
0.00212549
0.00212619
0.00212685
0.00212721
0.00212757
0.00212777
0.00212811
0.0021282
0.00212853
0.0021281
0.002131
0.0018943
0.00218066
0.00221105
0.00220621
0.00220154
0.00219765
0.00219742
0.00219723
0.00219854
0.00219905
0.00220034
0.00220074
0.00220178
0.00220221
0.00220303
0.00220384
0.00220395
0.00220595
0.00220401
0.00220661
0.00229689
0.00244878
0.00242475
0.00239718
0.00239415
0.00238586
0.00238913
0.00238572
0.00238922
0.00238689
0.00238953
0.00238775
0.00238972
0.00238843
0.00238989
0.0023891
0.00238998
0.00238988
0.00238872
0.00239762
0.00816928
0.00838477
0.0083778
0.00837843
0.00837503
0.00837655
0.00837509
0.00837761
0.00837712
0.00837934
0.00837869
0.00838005
0.00837924
0.0083801
0.00837948
0.00837989
0.00837986
0.00837899
0.0083824
0.00838418
0.00395517
0.00376799
0.00363991
0.00359105
0.00357097
0.00356592
0.00356003
0.00356257
0.00356167
0.00356437
0.00356334
0.00356532
0.00356418
0.00356583
0.00356478
0.00356648
0.00356531
0.0035674
0.00357315
0.00357366
0.00247094
0.0024623
0.00241417
0.00237864
0.00236029
0.00235467
0.00235067
0.00235258
0.00235298
0.00235596
0.0023562
0.00235831
0.00235826
0.00235998
0.00235983
0.00236171
0.00236107
0.00236387
0.00236279
0.00236837
0.00208393
0.00220386
0.00221357
0.00221236
0.0022086
0.00220752
0.00220516
0.00220612
0.00220663
0.00220933
0.00221025
0.00221255
0.00221295
0.00221448
0.00221465
0.00221596
0.00221608
0.00221746
0.00221779
0.00222103
0.00199461
0.00215383
0.00217986
0.00218866
0.0021896
0.00219173
0.00219081
0.0021919
0.00219217
0.00219496
0.00219613
0.00219898
0.00219958
0.00220139
0.00220162
0.00220286
0.00220312
0.00220403
0.00220457
0.00220678
0.00198263
0.00214744
0.00217712
0.00218866
0.00219135
0.00219494
0.00219428
0.00219536
0.00219557
0.00219847
0.00219984
0.00220305
0.0022038
0.00220583
0.00220612
0.00220747
0.00220776
0.00220871
0.00220975
0.00221127
0.00197868
0.00214365
0.00217372
0.00218603
0.00218947
0.00219373
0.00219351
0.00219496
0.00219527
0.00219824
0.0021997
0.00220308
0.00220395
0.00220608
0.00220642
0.00220764
0.00220818
0.00220868
0.00220995
0.00221138
0.00198064
0.0021441
0.00217401
0.00218649
0.00219038
0.00219504
0.00219497
0.00219643
0.00219687
0.00220004
0.00220161
0.00220509
0.00220597
0.00220812
0.0022085
0.00220975
0.0022104
0.00221082
0.00221255
0.00221345
0.00198016
0.00214294
0.00217257
0.00218493
0.00218884
0.00219359
0.00219366
0.00219538
0.00219594
0.00219923
0.00220085
0.00220442
0.00220536
0.00220753
0.00220793
0.00220909
0.00220986
0.00221012
0.00221184
0.00221282
0.00198106
0.00214323
0.00217273
0.00218506
0.00218899
0.00219378
0.00219388
0.00219564
0.00219626
0.00219965
0.00220132
0.00220491
0.00220584
0.00220801
0.00220841
0.00220958
0.00221039
0.00221063
0.00221248
0.00221333
0.00198106
0.00214323
0.00217273
0.00218506
0.00218899
0.00219378
0.00219388
0.00219564
0.00219626
0.00219965
0.00220132
0.00220491
0.00220584
0.00220801
0.00220841
0.00220958
0.00221039
0.00221063
0.00221248
0.00221333
0.00198016
0.00214294
0.00217257
0.00218493
0.00218884
0.00219359
0.00219366
0.00219538
0.00219594
0.00219923
0.00220085
0.00220442
0.00220536
0.00220754
0.00220793
0.00220909
0.00220986
0.00221012
0.00221185
0.00221283
0.00198064
0.0021441
0.00217401
0.00218649
0.00219038
0.00219504
0.00219497
0.00219643
0.00219687
0.00220004
0.0022016
0.00220509
0.00220597
0.00220813
0.00220849
0.00220976
0.00221037
0.00221083
0.00221255
0.00221346
0.00197868
0.00214365
0.00217372
0.00218603
0.00218947
0.00219373
0.00219351
0.00219496
0.00219527
0.00219824
0.00219969
0.00220309
0.00220395
0.00220609
0.0022064
0.00220768
0.00220813
0.00220872
0.00220992
0.00221142
0.00198263
0.00214744
0.00217712
0.00218866
0.00219135
0.00219494
0.00219428
0.00219536
0.00219557
0.00219847
0.00219983
0.00220305
0.00220379
0.00220586
0.00220609
0.00220753
0.00220771
0.00220882
0.0022096
0.00221134
0.00199461
0.00215383
0.00217986
0.00218866
0.0021896
0.00219173
0.00219081
0.0021919
0.00219217
0.00219496
0.00219613
0.00219899
0.00219956
0.00220143
0.00220157
0.00220298
0.002203
0.00220426
0.00220437
0.00220692
0.00208393
0.00220386
0.00221357
0.00221236
0.0022086
0.00220752
0.00220516
0.00220612
0.00220663
0.00220933
0.00221025
0.00221256
0.00221293
0.00221453
0.00221458
0.00221612
0.00221587
0.00221785
0.00221728
0.00222142
0.00247094
0.0024623
0.00241417
0.00237864
0.00236029
0.00235467
0.00235067
0.00235258
0.00235298
0.00235596
0.00235619
0.00235832
0.00235824
0.00236001
0.00235976
0.00236183
0.00236082
0.00236432
0.00236193
0.00236942
0.00395517
0.00376799
0.00363992
0.00359105
0.00357097
0.00356592
0.00356003
0.00356257
0.00356168
0.00356438
0.00356334
0.00356532
0.00356417
0.00356586
0.00356473
0.00356658
0.00356509
0.00356778
0.00357211
0.00357542
0.00816928
0.00838477
0.0083778
0.00837844
0.00837503
0.00837655
0.00837509
0.00837761
0.00837713
0.00837935
0.00837869
0.00838006
0.00837923
0.00838014
0.00837939
0.00838008
0.00837949
0.00837976
0.00838077
0.00838757
0.0231641
0.0232935
0.0233179
0.0233239
0.0233232
0.0233253
0.0233248
0.0233262
0.0233256
0.0233263
0.0233257
0.0233263
0.0233262
0.0233271
0.0233276
0.0233289
0.0233297
0.0233308
0.0233314
0.0233321
0.0233324
0.0233328
0.023333
0.0233336
0.0233341
0.0233351
0.0233362
0.0233379
0.02334
0.0233428
0.0233459
0.0233497
0.0233536
0.023358
0.0233625
0.0233673
0.0233719
0.0233767
0.0233809
0.0233851
0.0233886
0.023392
0.0233948
0.0233974
0.0233993
0.023401
0.0234022
0.0234033
0.023404
0.0234046
0.0234049
0.0234052
0.0234052
0.0234053
0.0234052
0.0234052
0.023405
0.0234049
0.0234047
0.0234046
0.0234043
0.0234042
0.0234039
0.0234037
0.0234035
0.0234033
0.023403
0.0234029
0.0234026
0.0234025
0.0234022
0.0234021
0.0234019
0.0234017
0.0234015
0.0234013
0.0234011
0.0234009
0.0234007
0.0234006
0.0234003
0.0234002
0.0234
0.0233998
0.0233996
0.0233995
0.0233991
0.0233989
0.0233983
0.0233958
0.0131023
0.0132274
0.0132362
0.0132405
0.0132392
0.0132423
0.0132417
0.0132445
0.0132442
0.0132468
0.013247
0.0132497
0.0132505
0.0132534
0.0132547
0.0132578
0.0132594
0.0132626
0.0132645
0.0132679
0.0132702
0.0132742
0.0132772
0.0132818
0.0132857
0.0132911
0.0132958
0.0133022
0.0133077
0.0133145
0.0133202
0.0133271
0.0133328
0.0133395
0.0133449
0.0133511
0.0133558
0.0133612
0.0133651
0.0133696
0.0133726
0.013376
0.0133781
0.0133806
0.0133819
0.0133836
0.0133843
0.0133855
0.0133858
0.0133867
0.0133867
0.0133873
0.0133872
0.0133877
0.0133876
0.013388
0.0133878
0.0133882
0.0133879
0.0133883
0.0133881
0.0133883
0.0133881
0.0133883
0.013388
0.0133882
0.013388
0.0133882
0.0133879
0.0133881
0.0133878
0.013388
0.0133877
0.0133878
0.0133876
0.0133877
0.0133874
0.0133876
0.0133873
0.0133874
0.0133871
0.0133872
0.013387
0.0133871
0.0133868
0.0133869
0.0133866
0.0133866
0.0133855
0.0133841
0.0087943
0.00897924
0.00898045
0.00898896
0.00898945
0.00899894
0.00900081
0.00900994
0.00901252
0.00902153
0.00902493
0.00903417
0.00903846
0.00904805
0.00905315
0.009063
0.00906866
0.00907863
0.00908474
0.0090949
0.00910151
0.00911197
0.00911914
0.00912998
0.00913772
0.00914894
0.0091572
0.0091687
0.00917728
0.00918876
0.00919724
0.00920829
0.00921627
0.00922652
0.00923369
0.00924285
0.00924892
0.0092567
0.00926146
0.00926782
0.00927136
0.00927641
0.00927888
0.00928279
0.00928435
0.00928737
0.00928831
0.00929073
0.0092913
0.0092933