/*--------------------------------*- C++ -*----------------------------------*\
  =========                 |
  \\      /  F ield         | OpenFOAM: The Open Source CFD Toolbox
   \\    /   O peration     | Website:  https://openfoam.org
    \\  /    A nd           | Version:  7
     \\/     M anipulation  |
\*---------------------------------------------------------------------------*/
FoamFile
{
    version     2.0;
    format      ascii;
    class       volSymmTensorField;
    location    "0.0975";
    object      UPrime2Mean;
}
// * * * * * * * * * * * * * * * * * * * * * * * * * * * * * * * * * * * * * //

dimensions      [0 2 -2 0 0 0 0];

internalField   nonuniform List<symmTensor> 
1440
(
(0.135182 0.000814177 0 1.61946e-05 0 0)
(0.0628805 0.00249975 0 0.000375432 0 0)
(0.123275 0.00151682 0 0.00140574 0 0)
(0.206277 0.000285818 0 0.00309544 0 0)
(0.280115 -0.00112126 0 0.00526555 0 0)
(0.356331 -0.00483823 0 0.00759565 0 0)
(0.448284 -0.0120335 0 0.00972367 0 0)
(0.561552 -0.0219941 0 0.0113028 0 0)
(0.695729 -0.0329958 0 0.0121735 0 0)
(0.850988 -0.0435325 0 0.0123044 0 0)
(1.02726 -0.0526755 0 0.0118185 0 0)
(1.22742 -0.0606003 0 0.0109869 0 0)
(1.45188 -0.0671596 0 0.00990908 0 0)
(1.69868 -0.0723265 0 0.008698 0 0)
(1.96553 -0.0761068 0 0.00745655 0 0)
(2.25042 -0.078372 0 0.00623923 0 0)
(2.55116 -0.0789535 0 0.00508935 0 0)
(2.86482 -0.0777004 0 0.00404517 0 0)
(3.18769 -0.074561 0 0.00312871 0 0)
(3.51562 -0.0697055 0 0.00234971 0 0)
(3.84476 -0.0634722 0 0.00170872 0 0)
(4.17147 -0.0562473 0 0.00119916 0 0)
(4.49267 -0.0484091 0 0.000808871 0 0)
(4.80582 -0.0403022 0 0.000522341 0 0)
(5.10897 -0.032207 0 0.000322874 0 0)
(5.40083 -0.024318 0 0.000194368 0 0)
(5.68056 -0.0167692 0 0.000122456 0 0)
(5.94774 -0.00965647 0 9.46345e-05 0 0)
(6.20221 -0.00305581 0 0.000100235 0 0)
(6.44411 0.00297029 0 0.000130294 0 0)
(6.67378 0.00837048 0 0.000177379 0 0)
(6.89176 0.0131106 0 0.000235398 0 0)
(7.09878 0.0171681 0 0.000299417 0 0)
(7.29566 0.0205314 0 0.000365496 0 0)
(7.48332 0.0232078 0 0.000430566 0 0)
(7.66274 0.0252222 0 0.000492263 0 0)
(7.83492 0.0266155 0 0.000548782 0 0)
(8.00084 0.027442 0 0.000598794 0 0)
(8.16147 0.0277717 0 0.0006414 0 0)
(8.31773 0.027684 0 0.000676052 0 0)
(8.47044 0.0272623 0 0.000702538 0 0)
(8.62033 0.0265884 0 0.000720962 0 0)
(8.76804 0.0257426 0 0.000731765 0 0)
(8.91408 0.0247957 0 0.000735667 0 0)
(9.05887 0.0238125 0 0.000733607 0 0)
(9.20271 0.0228393 0 0.000726637 0 0)
(9.34584 0.0219087 0 0.000715859 0 0)
(9.48842 0.0210348 0 0.00070239 0 0)
(9.63055 0.0202195 0 0.000687225 0 0)
(9.77227 0.0194578 0 0.000671222 0 0)
(9.91364 0.018741 0 0.000655074 0 0)
(10.0547 0.0180559 0 0.000639273 0 0)
(10.1954 0.0173908 0 0.000624178 0 0)
(10.3359 0.0167281 0 0.000610017 0 0)
(10.4763 0.0160576 0 0.000596884 0 0)
(10.6164 0.015372 0 0.000584786 0 0)
(10.7566 0.0146665 0 0.000573659 0 0)
(10.8969 0.0139331 0 0.000563366 0 0)
(11.0373 0.013168 0 0.000553763 0 0)
(11.1779 0.0123782 0 0.000544708 0 0)
(11.3188 0.0115764 0 0.000536099 0 0)
(11.4602 0.0107742 0 0.000527792 0 0)
(11.602 0.0099741 0 0.000519698 0 0)
(11.7443 0.00918214 0 0.000511757 0 0)
(11.8872 0.00841093 0 0.000503915 0 0)
(12.0307 0.00767013 0 0.000496196 0 0)
(12.1747 0.00696452 0 0.000488556 0 0)
(12.3194 0.00629715 0 0.000480975 0 0)
(12.4647 0.00566434 0 0.000473494 0 0)
(12.6106 0.00506312 0 0.000466135 0 0)
(12.757 0.00450197 0 0.000458941 0 0)
(12.9041 0.00397958 0 0.000451918 0 0)
(13.0517 0.00349 0 0.000445061 0 0)
(13.1999 0.00302786 0 0.000438395 0 0)
(13.3487 0.00259118 0 0.000431957 0 0)
(13.4979 0.00218199 0 0.000425766 0 0)
(13.6477 0.00179284 0 0.000419799 0 0)
(13.7979 0.0014181 0 0.000414052 0 0)
(13.9486 0.00105623 0 0.000408531 0 0)
(14.0997 0.000711579 0 0.000403256 0 0)
(14.2512 0.000379296 0 0.000398201 0 0)
(14.403 5.1268e-05 0 0.000393335 0 0)
(14.5553 -0.000275208 0 0.000388651 0 0)
(14.7078 -0.000600044 0 0.000384155 0 0)
(14.8606 -0.000911785 0 0.000379852 0 0)
(15.0138 -0.00121332 0 0.00037569 0 0)
(15.1672 -0.00151204 0 0.000371644 0 0)
(15.3209 -0.00181091 0 0.000367725 0 0)
(15.4748 -0.00210612 0 0.000363945 0 0)
(15.6289 -0.0023888 0 0.000360284 0 0)
(15.7833 -0.00266099 0 0.000356709 0 0)
(15.9379 -0.00292823 0 0.000353211 0 0)
(16.0927 -0.00319241 0 0.000349787 0 0)
(16.2476 -0.00344844 0 0.00034647 0 0)
(16.4028 -0.00369329 0 0.00034325 0 0)
(16.5582 -0.00392994 0 0.00034008 0 0)
(16.7137 -0.00416281 0 0.000336981 0 0)
(16.8695 -0.00439375 0 0.00033393 0 0)
(17.0255 -0.00461421 0 0.000331019 0 0)
(17.1817 -0.00482437 0 0.000328138 0 0)
(17.3382 -0.0050305 0 0.000325386 0 0)
(17.4951 -0.00523853 0 0.000322595 0 0)
(17.6523 -0.00544348 0 0.000320028 0 0)
(17.8099 -0.00564389 0 0.000317347 0 0)
(17.9679 -0.00582759 0 0.000315066 0 0)
(18.1262 -0.00602748 0 0.00031236 0 0)
(18.285 -0.00619376 0 0.000310395 0 0)
(18.4441 -0.00640246 0 0.000307503 0 0)
(18.6034 -0.00651399 0 0.000306117 0 0)
(18.7626 -0.00673111 0 0.000302859 0 0)
(18.9221 -0.00677712 0 0.000302554 0 0)
(19.0808 -0.00702713 0 0.000298397 0 0)
(19.2393 -0.00693442 0 0.000300182 0 0)
(19.3964 -0.00718393 0 0.000294357 0 0)
(19.5518 -0.00688304 0 0.000300558 0 0)
(19.7068 -0.00692593 0 0.000291606 0 0)
(19.853 -0.00636485 0 0.000306256 0 0)
(20.0082 -0.00514825 0 0.00029605 0 0)
(20.1258 -0.00428211 0 0.000321737 0 0)
(20.304 0.00292441 0 0.000403459 0 0)
(0.136213 0.00113725 0 2.96553e-05 0 0)
(0.0685448 0.00282659 0 0.000352941 0 0)
(0.13165 0.00338987 0 0.00117061 0 0)
(0.226143 0.00625621 0 0.00256939 0 0)
(0.328421 0.0124724 0 0.00455974 0 0)
(0.43889 0.0205609 0 0.00711159 0 0)
(0.554687 0.0288801 0 0.0101391 0 0)
(0.673264 0.0366346 0 0.0134323 0 0)
(0.794381 0.0436607 0 0.0166969 0 0)
(0.917371 0.049852 0 0.019671 0 0)
(1.04077 0.054926 0 0.0222097 0 0)
(1.16343 0.0583445 0 0.0242913 0 0)
(1.28502 0.0595625 0 0.0259118 0 0)
(1.4057 0.0582975 0 0.0270471 0 0)
(1.5256 0.0545138 0 0.0276666 0 0)
(1.64516 0.0483374 0 0.0277558 0 0)
(1.76537 0.040124 0 0.0273336 0 0)
(1.88753 0.0304934 0 0.0264548 0 0)
(2.01281 0.0201652 0 0.0252033 0 0)
(2.14222 0.00974824 0 0.0236739 0 0)
(2.27665 -0.000305504 0 0.021963 0 0)
(2.41684 -0.00966486 0 0.0201609 0 0)
(2.56328 -0.0180998 0 0.0183407 0 0)
(2.71618 -0.0254923 0 0.0165594 0 0)
(2.87559 -0.0318119 0 0.0148555 0 0)
(3.04147 -0.0370739 0 0.0132532 0 0)
(3.21365 -0.0413147 0 0.0117666 0 0)
(3.39187 -0.0445866 0 0.0104025 0 0)
(3.57582 -0.0469543 0 0.00916258 0 0)
(3.76514 -0.0484947 0 0.00804506 0 0)
(3.95944 -0.049294 0 0.00704562 0 0)
(4.15832 -0.0494438 0 0.00615786 0 0)
(4.36137 -0.0490401 0 0.00537421 0 0)
(4.56816 -0.0481821 0 0.00468652 0 0)
(4.77831 -0.0469693 0 0.00408607 0 0)
(4.99144 -0.0454991 0 0.0035641 0 0)
(5.20721 -0.0438634 0 0.00311204 0 0)
(5.4253 -0.0421464 0 0.00272183 0 0)
(5.64543 -0.0404208 0 0.00238594 0 0)
(5.86739 -0.0387459 0 0.00209746 0 0)
(6.09097 -0.0371667 0 0.00185012 0 0)
(6.31602 -0.0357129 0 0.00163826 0 0)
(6.54245 -0.0343986 0 0.00145682 0 0)
(6.77019 -0.0332236 0 0.00130131 0 0)
(6.99919 -0.0321759 0 0.00116771 0 0)
(7.22942 -0.0312354 0 0.00105259 0 0)
(7.46087 -0.030377 0 0.000953015 0 0)
(7.69353 -0.0295728 0 0.000866531 0 0)
(7.92739 -0.0287962 0 0.000791105 0 0)
(8.16243 -0.0280234 0 0.000725063 0 0)
(8.39866 -0.0272368 0 0.000667056 0 0)
(8.63604 -0.0264272 0 0.000616043 0 0)
(8.87454 -0.0255919 0 0.000571174 0 0)
(9.11413 -0.0247346 0 0.000531753 0 0)
(9.35475 -0.023862 0 0.000497159 0 0)
(9.59637 -0.0229837 0 0.000466863 0 0)
(9.83891 -0.0221101 0 0.000440421 0 0)
(10.0823 -0.0212526 0 0.000417484 0 0)
(10.3265 -0.020421 0 0.000397709 0 0)
(10.5714 -0.0196207 0 0.000380715 0 0)
(10.8169 -0.0188543 0 0.000366141 0 0)
(11.063 -0.0181237 0 0.000353688 0 0)
(11.3095 -0.0174307 0 0.000343133 0 0)
(11.5565 -0.0167761 0 0.000334237 0 0)
(11.8037 -0.016159 0 0.000326749 0 0)
(12.0513 -0.0155768 0 0.000320432 0 0)
(12.2992 -0.0150286 0 0.000315111 0 0)
(12.5473 -0.0145137 0 0.000310654 0 0)
(12.7955 -0.0140298 0 0.000306928 0 0)
(13.044 -0.0135732 0 0.000303811 0 0)
(13.2927 -0.0131374 0 0.000301176 0 0)
(13.5415 -0.0127172 0 0.000298932 0 0)
(13.7904 -0.0123084 0 0.000297044 0 0)
(14.0396 -0.0119052 0 0.000295468 0 0)
(14.2888 -0.0115012 0 0.000294157 0 0)
(14.5381 -0.01109 0 0.000293075 0 0)
(14.7875 -0.0106685 0 0.00029222 0 0)
(15.037 -0.0102345 0 0.0002916 0 0)
(15.2864 -0.00978475 0 0.000291188 0 0)
(15.5358 -0.00931632 0 0.000290957 0 0)
(15.785 -0.00882935 0 0.000290909 0 0)
(16.0341 -0.00832643 0 0.000291081 0 0)
(16.283 -0.0078093 0 0.000291488 0 0)
(16.5316 -0.00727934 0 0.000292117 0 0)
(16.7798 -0.00673656 0 0.000292925 0 0)
(17.0277 -0.00618497 0 0.000293912 0 0)
(17.2752 -0.00563011 0 0.00029513 0 0)
(17.5221 -0.00507553 0 0.000296582 0 0)
(17.7686 -0.00452297 0 0.000298231 0 0)
(18.0145 -0.00397384 0 0.000300022 0 0)
(18.2598 -0.0034323 0 0.000301967 0 0)
(18.5044 -0.00290367 0 0.000304078 0 0)
(18.7485 -0.0023911 0 0.000306358 0 0)
(18.9918 -0.00189524 0 0.000308726 0 0)
(19.2345 -0.00141653 0 0.000311161 0 0)
(19.4764 -0.000959734 0 0.000313629 0 0)
(19.7177 -0.000526322 0 0.000316168 0 0)
(19.9583 -0.000120136 0 0.000318685 0 0)
(20.1983 0.000264389 0 0.000321212 0 0)
(20.4376 0.00062085 0 0.000323583 0 0)
(20.6763 0.000956464 0 0.000325935 0 0)
(20.9145 0.00125783 0 0.00032803 0 0)
(21.1521 0.00154248 0 0.000330163 0 0)
(21.3894 0.00178802 0 0.000331859 0 0)
(21.6261 0.00203124 0 0.000333654 0 0)
(21.8626 0.00222144 0 0.000334741 0 0)
(22.0983 0.0024304 0 0.000336213 0 0)
(22.3343 0.00256257 0 0.000336606 0 0)
(22.5686 0.00275859 0 0.000337871 0 0)
(22.8041 0.00285142 0 0.000337347 0 0)
(23.036 0.00307147 0 0.00033868 0 0)
(23.2714 0.00316861 0 0.000337168 0 0)
(23.4985 0.00345939 0 0.000339391 0 0)
(23.7356 0.00373332 0 0.000336935 0 0)
(23.9522 0.00414199 0 0.000341642 0 0)
(24.1961 0.00514654 0 0.000338851 0 0)
(24.3899 0.00558437 0 0.000349721 0 0)
(24.6547 0.00923365 0 0.000352437 0 0)
(24.7953 0.00899597 0 0.000377032 0 0)
(25.1386 0.0211786 0 0.00046712 0 0)
(0.136152 0.000768502 0 1.58645e-05 0 0)
(0.0677069 0.00200198 0 0.000181069 0 0)
(0.130166 0.002361 0 0.000599167 0 0)
(0.222516 0.0041868 0 0.00131841 0 0)
(0.320738 0.00832269 0 0.00234862 0 0)
(0.427216 0.013898 0 0.00368414 0 0)
(0.541553 0.0199965 0 0.00529182 0 0)
(0.662961 0.0263298 0 0.0070849 0 0)
(0.792626 0.0329887 0 0.00893224 0 0)
(0.931411 0.0400106 0 0.0106999 0 0)
(1.07897 0.0471535 0 0.0122872 0 0)
(1.23435 0.05391 0 0.0136417 0 0)
(1.39672 0.0597164 0 0.0147291 0 0)
(1.56501 0.0641556 0 0.0155109 0 0)
(1.7376 0.0669872 0 0.0159598 0 0)
(1.91283 0.068106 0 0.0160698 0 0)
(2.08955 0.0676031 0 0.0158586 0 0)
(2.26697 0.0657951 0 0.0153687 0 0)
(2.4442 0.0630881 0 0.014661 0 0)
(2.62051 0.0598159 0 0.0138008 0 0)
(2.79563 0.0562249 0 0.0128475 0 0)
(2.96964 0.0525252 0 0.0118525 0 0)
(3.1427 0.0488959 0 0.0108571 0 0)
(3.31493 0.0454599 0 0.00989189 0 0)
(3.48651 0.0422874 0 0.00897658 0 0)
(3.65765 0.0394231 0 0.00812319 0 0)
(3.82858 0.0369024 0 0.00733784 0 0)
(3.99952 0.0347479 0 0.00662252 0 0)
(4.17065 0.0329655 0 0.00597654 0 0)
(4.34216 0.0315445 0 0.00539746 0 0)
(4.51422 0.0304598 0 0.00488176 0 0)
(4.68698 0.0296748 0 0.00442522 0 0)
(4.86055 0.0291424 0 0.00402314 0 0)
(5.03502 0.0288096 0 0.00367052 0 0)
(5.21046 0.028621 0 0.00336233 0 0)
(5.3869 0.0285236 0 0.00309361 0 0)
(5.56435 0.0284707 0 0.00285973 0 0)
(5.74283 0.0284233 0 0.00265636 0 0)
(5.92231 0.0283522 0 0.00247963 0 0)
(6.10278 0.0282381 0 0.002326 0 0)
(6.28422 0.0280711 0 0.00219231 0 0)
(6.46659 0.0278502 0 0.00207573 0 0)
(6.6499 0.0275822 0 0.00197379 0 0)
(6.83412 0.0272787 0 0.00188428 0 0)
(7.01925 0.0269555 0 0.00180532 0 0)
(7.2053 0.0266304 0 0.0017353 0 0)
(7.39229 0.0263196 0 0.00167281 0 0)
(7.58024 0.0260381 0 0.00161666 0 0)
(7.76917 0.025797 0 0.00156584 0 0)
(7.9591 0.0256029 0 0.00151951 0 0)
(8.15007 0.0254566 0 0.00147704 0 0)
(8.34209 0.0253535 0 0.00143786 0 0)
(8.53518 0.0252838 0 0.00140153 0 0)
(8.72935 0.0252349 0 0.00136758 0 0)
(8.9246 0.0251945 0 0.00133565 0 0)
(9.12095 0.0251513 0 0.00130543 0 0)
(9.3184 0.0250956 0 0.00127664 0 0)
(9.51693 0.0250209 0 0.00124896 0 0)
(9.71656 0.0249245 0 0.00122216 0 0)
(9.91727 0.0248074 0 0.00119606 0 0)
(10.1191 0.0246722 0 0.00117054 0 0)
(10.3219 0.0245221 0 0.0011455 0 0)
(10.5259 0.0243593 0 0.00112081 0 0)
(10.7309 0.0241862 0 0.00109637 0 0)
(10.9369 0.0240045 0 0.0010721 0 0)
(11.144 0.0238146 0 0.00104798 0 0)
(11.3522 0.0236156 0 0.00102393 0 0)
(11.5613 0.0234055 0 0.000999839 0 0)
(11.7715 0.0231833 0 0.000975618 0 0)
(11.9826 0.0229491 0 0.000951194 0 0)
(12.1947 0.0227037 0 0.000926585 0 0)
(12.4078 0.0224492 0 0.00090178 0 0)
(12.6218 0.0221879 0 0.000876767 0 0)
(12.8368 0.021924 0 0.000851552 0 0)
(13.0526 0.0216624 0 0.000826184 0 0)
(13.2695 0.0214087 0 0.000800758 0 0)
(13.4872 0.0211685 0 0.000775339 0 0)
(13.7058 0.0209469 0 0.000749992 0 0)
(13.9252 0.0207486 0 0.000724808 0 0)
(14.1456 0.0205784 0 0.000699897 0 0)
(14.3668 0.0204404 0 0.00067535 0 0)
(14.5888 0.0203371 0 0.000651209 0 0)
(14.8116 0.0202699 0 0.000627552 0 0)
(15.0352 0.0202399 0 0.000604436 0 0)
(15.2595 0.0202476 0 0.000581985 0 0)
(15.4846 0.0202934 0 0.000560233 0 0)
(15.7103 0.020376 0 0.000539208 0 0)
(15.9366 0.0204934 0 0.000518917 0 0)
(16.1636 0.0206426 0 0.000499391 0 0)
(16.3911 0.0208223 0 0.000480677 0 0)
(16.6192 0.0210306 0 0.000462807 0 0)
(16.8477 0.0212648 0 0.000445759 0 0)
(17.0767 0.0215209 0 0.000429537 0 0)
(17.3061 0.021795 0 0.000414114 0 0)
(17.5358 0.0220855 0 0.00039952 0 0)
(17.7659 0.0223897 0 0.0003857 0 0)
(17.9962 0.0227036 0 0.000372654 0 0)
(18.2269 0.0230235 0 0.000360293 0 0)
(18.4578 0.0233466 0 0.000348683 0 0)
(18.689 0.0236707 0 0.0003377 0 0)
(18.9205 0.0239932 0 0.000327353 0 0)
(19.1522 0.0243109 0 0.000317467 0 0)
(19.3842 0.0246226 0 0.000308178 0 0)
(19.6166 0.0249244 0 0.000299261 0 0)
(19.8492 0.0252161 0 0.000290902 0 0)
(20.0823 0.025496 0 0.000282653 0 0)
(20.3151 0.0257625 0 0.000274972 0 0)
(20.549 0.0260202 0 0.000267215 0 0)
(20.7817 0.0262559 0 0.000260113 0 0)
(21.0164 0.0265038 0 0.000252639 0 0)
(21.2479 0.0267102 0 0.000245864 0 0)
(21.4838 0.027004 0 0.000238608 0 0)
(21.7116 0.0271849 0 0.000232186 0 0)
(21.9506 0.0276841 0 0.000225428 0 0)
(22.1694 0.0278394 0 0.00021932 0 0)
(22.4168 0.0289985 0 0.00021403 0 0)
(22.6159 0.0290841 0 0.0002083 0 0)
(22.8857 0.0322326 0 0.000210455 0 0)
(23.0391 0.032061 0 0.00020581 0 0)
(23.4008 0.04034 0 0.000242927 0 0)
(0.13615 0.000473248 0 7.95747e-06 0 0)
(0.0676455 0.0013568 0 8.23298e-05 0 0)
(0.130045 0.00166978 0 0.000267215 0 0)
(0.221994 0.00290849 0 0.000588841 0 0)
(0.319248 0.00565749 0 0.00105189 0 0)
(0.424139 0.00931177 0 0.00164548 0 0)
(0.536232 0.0132262 0 0.00234607 0 0)
(0.65466 0.0171954 0 0.00311491 0 0)
(0.78056 0.0212897 0 0.00389962 0 0)
(0.914842 0.0255448 0 0.00464616 0 0)
(1.05731 0.0298309 0 0.00531304 0 0)
(1.2074 0.0338916 0 0.00587742 0 0)
(1.3649 0.037474 0 0.00632915 0 0)
(1.52943 0.0404242 0 0.00666203 0 0)
(1.69983 0.0426721 0 0.00687464 0 0)
(1.87478 0.0441798 0 0.00697114 0 0)
(2.05345 0.0449628 0 0.00696176 0 0)
(2.2352 0.0451251 0 0.00686137 0 0)
(2.41906 0.0448233 0 0.00668837 0 0)
(2.60409 0.044196 0 0.00646085 0 0)
(2.78976 0.04335 0 0.00619515 0 0)
(2.97594 0.0423812 0 0.00590481 0 0)
(3.16252 0.0413763 0 0.0056011 0 0)
(3.34936 0.0403962 0 0.00529273 0 0)
(3.53636 0.0394762 0 0.00498656 0 0)
(3.72357 0.0386375 0 0.00468754 0 0)
(3.91103 0.0378979 0 0.00439936 0 0)
(4.09882 0.0372693 0 0.00412443 0 0)
(4.28704 0.0367563 0 0.00386432 0 0)
(4.47578 0.0363558 0 0.00361987 0 0)
(4.66518 0.0360595 0 0.00339157 0 0)
(4.85535 0.0358542 0 0.00317947 0 0)
(5.04641 0.0357233 0 0.0029834 0 0)
(5.23846 0.0356469 0 0.00280282 0 0)
(5.43158 0.0356058 0 0.00263712 0 0)
(5.62583 0.0355811 0 0.00248552 0 0)
(5.82125 0.0355562 0 0.00234723 0 0)
(6.01788 0.0355168 0 0.00222131 0 0)
(6.21572 0.0354524 0 0.00210685 0 0)
(6.41477 0.0353557 0 0.00200288 0 0)
(6.61499 0.0352244 0 0.0019085 0 0)
(6.81638 0.0350593 0 0.00182279 0 0)
(7.01891 0.0348655 0 0.00174492 0 0)
(7.22255 0.0346505 0 0.00167408 0 0)
(7.42727 0.0344246 0 0.00160957 0 0)
(7.63306 0.034198 0 0.00155068 0 0)
(7.83991 0.0339813 0 0.00149683 0 0)
(8.04781 0.0337828 0 0.00144745 0 0)
(8.25674 0.0336086 0 0.00140208 0 0)
(8.4667 0.0334608 0 0.00136026 0 0)
(8.67769 0.0333388 0 0.0013216 0 0)
(8.88969 0.0332389 0 0.00128571 0 0)
(9.10268 0.0331563 0 0.00125228 0 0)
(9.31664 0.0330848 0 0.00122104 0 0)
(9.53154 0.0330189 0 0.00119179 0 0)
(9.74735 0.0329526 0 0.00116431 0 0)
(9.96401 0.0328813 0 0.00113842 0 0)
(10.1815 0.0328012 0 0.00111391 0 0)
(10.3997 0.0327105 0 0.00109066 0 0)
(10.6187 0.0326078 0 0.00106853 0 0)
(10.8383 0.0324928 0 0.00104744 0 0)
(11.0585 0.0323642 0 0.00102728 0 0)
(11.2793 0.0322212 0 0.00100794 0 0)
(11.5006 0.0320623 0 0.000989308 0 0)
(11.7223 0.0318866 0 0.000971333 0 0)
(11.9445 0.0316922 0 0.000953903 0 0)
(12.1671 0.0314777 0 0.000936938 0 0)
(12.39 0.0312416 0 0.000920312 0 0)
(12.6131 0.0309841 0 0.000903959 0 0)
(12.8366 0.0307055 0 0.000887795 0 0)
(13.0602 0.0304074 0 0.000871785 0 0)
(13.284 0.0300918 0 0.00085586 0 0)
(13.508 0.0297617 0 0.000839991 0 0)
(13.7321 0.0294208 0 0.000824139 0 0)
(13.9563 0.0290738 0 0.000808332 0 0)
(14.1806 0.0287242 0 0.000792543 0 0)
(14.4049 0.0283766 0 0.000776798 0 0)
(14.6293 0.0280347 0 0.000761082 0 0)
(14.8537 0.027703 0 0.000745458 0 0)
(15.0782 0.0273842 0 0.000729933 0 0)
(15.3027 0.0270811 0 0.000714555 0 0)
(15.5272 0.0267946 0 0.000699314 0 0)
(15.7517 0.0265265 0 0.000684257 0 0)
(15.9763 0.0262775 0 0.000669397 0 0)
(16.2008 0.0260481 0 0.000654793 0 0)
(16.4254 0.0258371 0 0.000640427 0 0)
(16.65 0.0256433 0 0.000626318 0 0)
(16.8746 0.0254651 0 0.000612452 0 0)
(17.0992 0.0253035 0 0.000598911 0 0)
(17.3238 0.0251564 0 0.000585686 0 0)
(17.5483 0.0250213 0 0.000572797 0 0)
(17.7728 0.0248952 0 0.000560192 0 0)
(17.9973 0.0247779 0 0.000547926 0 0)
(18.2217 0.0246683 0 0.000536 0 0)
(18.446 0.0245647 0 0.000524473 0 0)
(18.6702 0.024463 0 0.00051326 0 0)
(18.8943 0.0243633 0 0.000502434 0 0)
(19.1183 0.0242625 0 0.000491913 0 0)
(19.3423 0.0241613 0 0.000481828 0 0)
(19.5661 0.024055 0 0.000472027 0 0)
(19.7899 0.0239458 0 0.000462711 0 0)
(20.0136 0.0238269 0 0.000453598 0 0)
(20.2372 0.0237027 0 0.000445019 0 0)
(20.4609 0.0235633 0 0.000436482 0 0)
(20.6845 0.0234204 0 0.000428657 0 0)
(20.9083 0.0232554 0 0.000420582 0 0)
(21.1316 0.0230892 0 0.000413479 0 0)
(21.3554 0.022889 0 0.000405519 0 0)
(21.578 0.0226994 0 0.000399177 0 0)
(21.802 0.0224639 0 0.000390999 0 0)
(22.0229 0.0222603 0 0.000385728 0 0)
(22.2472 0.0219978 0 0.00037657 0 0)
(22.4643 0.0218053 0 0.000372901 0 0)
(22.6905 0.0215701 0 0.000361455 0 0)
(22.8993 0.0214637 0 0.000360682 0 0)
(23.1318 0.0214364 0 0.000344859 0 0)
(23.3239 0.0215781 0 0.000349113 0 0)
(23.5738 0.0222627 0 0.000326633 0 0)
(23.7278 0.022776 0 0.000337687 0 0)
(24.0632 0.0248514 0 0.000310909 0 0)
(0.136149 0.000209505 0 3.11048e-06 0 0)
(0.0676101 0.000765662 0 2.62038e-05 0 0)
(0.129976 0.00100624 0 8.32892e-05 0 0)
(0.221716 0.00170911 0 0.000185186 0 0)
(0.3185 0.00325159 0 0.000334399 0 0)
(0.42271 0.00530158 0 0.000526929 0 0)
(0.533946 0.00749289 0 0.00075496 0 0)
(0.651282 0.0097071 0 0.00100712 0 0)
(0.775747 0.011975 0 0.00126843 0 0)
(0.908209 0.0143165 0 0.00152264 0 0)
(1.04849 0.0166876 0 0.00175611 0 0)
(1.19605 0.0189805 0 0.00196066 0 0)
(1.35071 0.0210545 0 0.00213311 0 0)
(1.51214 0.0227936 0 0.0022725 0 0)
(1.67928 0.0241265 0 0.00237792 0 0)
(1.8509 0.0250071 0 0.00244825 0 0)
(2.02638 0.0254208 0 0.00248299 0 0)
(2.20527 0.0254144 0 0.00248295 0 0)
(2.38675 0.025088 0 0.00245088 0 0)
(2.56984 0.0245453 0 0.00239107 0 0)
(2.75399 0.0238659 0 0.00230861 0 0)
(2.93902 0.0231117 0 0.00220859 0 0)
(3.12479 0.0223358 0 0.00209572 0 0)
(3.31109 0.0215771 0 0.00197424 0 0)
(3.49778 0.0208585 0 0.00184796 0 0)
(3.68489 0.0201931 0 0.00172016 0 0)
(3.87246 0.0195923 0 0.0015936 0 0)
(4.06056 0.0190673 0 0.00147055 0 0)
(4.24927 0.0186268 0 0.0013528 0 0)
(4.4387 0.0182746 0 0.00124165 0 0)
(4.62896 0.0180083 0 0.00113791 0 0)
(4.82018 0.0178207 0 0.00104204 0 0)
(5.01246 0.0177005 0 0.000954166 0 0)
(5.20591 0.0176338 0 0.000874194 0 0)
(5.40062 0.0176056 0 0.000801868 0 0)
(5.59664 0.0176007 0 0.000736821 0 0)
(5.79405 0.0176045 0 0.00067861 0 0)
(5.99287 0.0176046 0 0.000626738 0 0)
(6.19311 0.0175906 0 0.000580689 0 0)
(6.39478 0.0175556 0 0.000539945 0 0)
(6.59787 0.0174961 0 0.000503998 0 0)
(6.80236 0.0174118 0 0.000472362 0 0)
(7.00823 0.0173055 0 0.000444574 0 0)
(7.21547 0.0171827 0 0.000420187 0 0)
(7.42405 0.0170506 0 0.000398783 0 0)
(7.63395 0.0169173 0 0.000379981 0 0)
(7.84517 0.0167906 0 0.000363435 0 0)
(8.0577 0.0166778 0 0.000348841 0 0)
(8.27154 0.0165844 0 0.000335934 0 0)
(8.48667 0.0165142 0 0.000324491 0 0)
(8.70309 0.01647 0 0.00031433 0 0)
(8.92079 0.0164525 0 0.0003053 0 0)
(9.13976 0.0164606 0 0.000297273 0 0)
(9.35998 0.0164921 0 0.000290145 0 0)
(9.58141 0.0165431 0 0.000283824 0 0)
(9.80402 0.0166094 0 0.000278229 0 0)
(10.0278 0.0166863 0 0.000273282 0 0)
(10.2526 0.0167696 0 0.000268916 0 0)
(10.4785 0.0168553 0 0.000265069 0 0)
(10.7053 0.0169402 0 0.00026169 0 0)
(10.9331 0.017022 0 0.00025873 0 0)
(11.1617 0.017099 0 0.000256143 0 0)
(11.3912 0.0171694 0 0.000253878 0 0)
(11.6214 0.0172318 0 0.000251886 0 0)
(11.8524 0.0172851 0 0.000250122 0 0)
(12.0841 0.0173282 0 0.000248543 0 0)
(12.3163 0.0173605 0 0.000247107 0 0)
(12.5492 0.0173817 0 0.00024577 0 0)
(12.7826 0.0173913 0 0.000244493 0 0)
(13.0165 0.0173894 0 0.000243236 0 0)
(13.2509 0.0173766 0 0.000241967 0 0)
(13.4857 0.0173542 0 0.000240659 0 0)
(13.7209 0.0173236 0 0.00023929 0 0)
(13.9564 0.0172867 0 0.000237841 0 0)
(14.1923 0.0172455 0 0.000236298 0 0)
(14.4285 0.0172023 0 0.000234652 0 0)
(14.6649 0.0171593 0 0.000232899 0 0)
(14.9017 0.017119 0 0.000231037 0 0)
(15.1387 0.0170834 0 0.000229071 0 0)
(15.3759 0.0170541 0 0.000227006 0 0)
(15.6134 0.0170327 0 0.000224854 0 0)
(15.8511 0.0170205 0 0.000222624 0 0)
(16.0891 0.0170183 0 0.000220327 0 0)
(16.3272 0.0170264 0 0.000217974 0 0)
(16.5656 0.0170452 0 0.000215575 0 0)
(16.8042 0.0170749 0 0.000213144 0 0)
(17.0429 0.0171155 0 0.000210692 0 0)
(17.2819 0.0171666 0 0.000208228 0 0)
(17.521 0.0172277 0 0.000205765 0 0)
(17.7603 0.017298 0 0.00020331 0 0)
(17.9998 0.0173768 0 0.000200876 0 0)
(18.2393 0.0174635 0 0.000198469 0 0)
(18.479 0.0175573 0 0.000196104 0 0)
(18.7189 0.0176569 0 0.000193785 0 0)
(18.9588 0.0177615 0 0.000191526 0 0)
(19.1987 0.0178699 0 0.000189327 0 0)
(19.4388 0.0179817 0 0.000187209 0 0)
(19.6789 0.0180947 0 0.000185155 0 0)
(19.9191 0.0182088 0 0.000183198 0 0)
(20.1594 0.0183215 0 0.000181306 0 0)
(20.3997 0.0184341 0 0.000179542 0 0)
(20.6402 0.0185416 0 0.000177821 0 0)
(20.8807 0.0186472 0 0.000176253 0 0)
(21.1215 0.0187426 0 0.000174674 0 0)
(21.3621 0.018836 0 0.000173312 0 0)
(21.6032 0.0189125 0 0.000171839 0 0)
(21.8439 0.018988 0 0.000170694 0 0)
(22.0852 0.0190353 0 0.000169235 0 0)
(22.3254 0.0190869 0 0.000168351 0 0)
(22.5672 0.0190936 0 0.000166791 0 0)
(22.8056 0.0191172 0 0.000166316 0 0)
(23.0482 0.0190737 0 0.00016445 0 0)
(23.2826 0.019075 0 0.000164684 0 0)
(23.5278 0.0189925 0 0.000162191 0 0)
(23.7534 0.0190111 0 0.000163702 0 0)
(24.0063 0.0189679 0 0.000160076 0 0)
(24.2136 0.0191072 0 0.000163607 0 0)
(24.4871 0.019296 0 0.00015828 0 0)
(24.6519 0.0196319 0 0.000163849 0 0)
(25.0195 0.0203026 0 0.000157046 0 0)
(0.136149 -4.42498e-05 0 1.07633e-06 0 0)
(0.0675938 0.000190937 0 2.86407e-06 0 0)
(0.129938 0.000348483 0 5.86701e-06 0 0)
(0.221573 0.000536801 0 1.21741e-05 0 0)
(0.318128 0.000930656 0 2.23717e-05 0 0)
(0.422014 0.00146441 0 3.6287e-05 0 0)
(0.532848 0.00203955 0 5.3469e-05 0 0)
(0.649666 0.00261382 0 7.32881e-05 0 0)
(0.773472 0.003181 0 9.47664e-05 0 0)
(0.905162 0.0037461 0 0.000116646 0 0)
(1.04456 0.00431039 0 0.000137675 0 0)
(1.19108 0.00484929 0 0.000157134 0 0)
(1.34452 0.00531068 0 0.000174882 0 0)
(1.50464 0.0056481 0 0.000190973 0 0)
(1.67046 0.00584156 0 0.000205193 0 0)
(1.84082 0.00588813 0 0.000217121 0 0)
(2.01515 0.00579709 0 0.000226277 0 0)
(2.19308 0.00560134 0 0.00023228 0 0)
(2.3738 0.00535303 0 0.000234906 0 0)
(2.5563 0.00510133 0 0.000234268 0 0)
(2.73999 0.00487509 0 0.000230685 0 0)
(2.92466 0.00468953 0 0.000224632 0 0)
(3.11015 0.0045542 0 0.000216599 0 0)
(3.29624 0.00447345 0 0.000207081 0 0)
(3.48277 0.00444528 0 0.000196474 0 0)
(3.66973 0.00446498 0 0.000185145 0 0)
(3.85718 0.00452783 0 0.000173399 0 0)
(4.04518 0.00463105 0 0.000161532 0 0)
(4.23378 0.00477086 0 0.000149814 0 0)
(4.4231 0.00494222 0 0.000138478 0 0)
(4.61322 0.00513608 0 0.000127715 0 0)
(4.80427 0.00534179 0 0.000117662 0 0)
(4.99634 0.00554666 0 0.00010842 0 0)
(5.18954 0.00573821 0 0.000100055 0 0)
(5.38395 0.0059045 0 9.25991e-05 0 0)
(5.57966 0.00603499 0 8.60655e-05 0 0)
(5.77673 0.00612116 0 8.04389e-05 0 0)
(5.97518 0.00615744 0 7.56878e-05 0 0)
(6.17506 0.00614093 0 7.17614e-05 0 0)
(6.37636 0.00607195 0 6.85989e-05 0 0)
(6.57908 0.00595353 0 6.6126e-05 0 0)
(6.78322 0.00579127 0 6.42656e-05 0 0)
(6.98875 0.00559271 0 6.29334e-05 0 0)
(7.19566 0.00536724 0 6.20407e-05 0 0)
(7.40393 0.00512479 0 6.1497e-05 0 0)
(7.61353 0.00487579 0 6.12157e-05 0 0)
(7.82446 0.00462993 0 6.11164e-05 0 0)
(8.0367 0.00439631 0 6.11285e-05 0 0)
(8.25025 0.00418246 0 6.11953e-05 0 0)
(8.46508 0.00399453 0 6.1273e-05 0 0)
(8.6812 0.00383729 0 6.13285e-05 0 0)
(8.89858 0.00371352 0 6.13422e-05 0 0)
(9.11721 0.00362419 0 6.13034e-05 0 0)
(9.33706 0.00356878 0 6.12086e-05 0 0)
(9.5581 0.00354508 0 6.10627e-05 0 0)
(9.7803 0.00355042 0 6.08727e-05 0 0)
(10.0036 0.00358161 0 6.06478e-05 0 0)
(10.228 0.00363539 0 6.03982e-05 0 0)
(10.4534 0.00370803 0 6.01365e-05 0 0)
(10.6797 0.00379644 0 5.98732e-05 0 0)
(10.907 0.00389781 0 5.96174e-05 0 0)
(11.1352 0.0040097 0 5.9377e-05 0 0)
(11.3641 0.00412968 0 5.91576e-05 0 0)
(11.5939 0.00425528 0 5.89618e-05 0 0)
(11.8244 0.00438398 0 5.87928e-05 0 0)
(12.0555 0.00451339 0 5.86512e-05 0 0)
(12.2874 0.00464124 0 5.85387e-05 0 0)
(12.5198 0.00476542 0 5.84544e-05 0 0)
(12.7528 0.00488383 0 5.83967e-05 0 0)
(12.9863 0.00499488 0 5.83644e-05 0 0)
(13.2203 0.00509742 0 5.83563e-05 0 0)
(13.4548 0.00519093 0 5.83696e-05 0 0)
(13.6897 0.00527511 0 5.84022e-05 0 0)
(13.9251 0.00535004 0 5.84513e-05 0 0)
(14.1608 0.00541602 0 5.85149e-05 0 0)
(14.3969 0.00547393 0 5.85904e-05 0 0)
(14.6334 0.00552475 0 5.86759e-05 0 0)
(14.8702 0.00556962 0 5.87692e-05 0 0)
(15.1074 0.00560951 0 5.88685e-05 0 0)
(15.3449 0.00564563 0 5.89724e-05 0 0)
(15.5827 0.00567899 0 5.90801e-05 0 0)
(15.8208 0.00571048 0 5.9191e-05 0 0)
(16.0592 0.00574074 0 5.93042e-05 0 0)
(16.2979 0.00577059 0 5.94181e-05 0 0)
(16.537 0.00580077 0 5.95316e-05 0 0)
(16.7763 0.0058321 0 5.96443e-05 0 0)
(17.0159 0.00586511 0 5.97546e-05 0 0)
(17.2558 0.00590029 0 5.98611e-05 0 0)
(17.496 0.00593795 0 5.9962e-05 0 0)
(17.7364 0.00597866 0 6.00575e-05 0 0)
(17.977 0.00602276 0 6.01479e-05 0 0)
(18.2179 0.00607041 0 6.02339e-05 0 0)
(18.459 0.00612145 0 6.03163e-05 0 0)
(18.7003 0.00617599 0 6.03974e-05 0 0)
(18.9418 0.00623424 0 6.04801e-05 0 0)
(19.1835 0.00629614 0 6.0568e-05 0 0)
(19.4253 0.00636143 0 6.06646e-05 0 0)
(19.6673 0.00642966 0 6.07728e-05 0 0)
(19.9094 0.00650061 0 6.08994e-05 0 0)
(20.1517 0.00657363 0 6.1048e-05 0 0)
(20.3942 0.00664828 0 6.1228e-05 0 0)
(20.6369 0.00672308 0 6.14404e-05 0 0)
(20.8797 0.00679722 0 6.16979e-05 0 0)
(21.1229 0.00686832 0 6.20008e-05 0 0)
(21.366 0.00693576 0 6.23703e-05 0 0)
(21.6097 0.00699566 0 6.28025e-05 0 0)
(21.853 0.00704741 0 6.33296e-05 0 0)
(22.0972 0.00708372 0 6.3948e-05 0 0)
(22.3401 0.00710562 0 6.47094e-05 0 0)
(22.5849 0.0070992 0 6.56298e-05 0 0)
(22.8263 0.00707137 0 6.67749e-05 0 0)
(23.0721 0.00699369 0 6.82453e-05 0 0)
(23.3095 0.00689409 0 7.00464e-05 0 0)
(23.5583 0.00670848 0 7.25854e-05 0 0)
(23.7868 0.00653029 0 7.54312e-05 0 0)
(24.044 0.00620276 0 8.00625e-05 0 0)
(24.2539 0.0060081 0 8.4105e-05 0 0)
(24.5328 0.00550764 0 9.27606e-05 0 0)
(24.6992 0.0054967 0 9.65881e-05 0 0)
(25.074 0.00466175 0 0.000113442 0 0)
(0.136151 -0.000298861 0 1.85885e-06 0 0)
(0.0675949 -0.000383922 0 1.05217e-05 0 0)
(0.129933 -0.00031412 0 2.6895e-05 0 0)
(0.221562 -0.000633011 0 5.20274e-05 0 0)
(0.318111 -0.00136617 0 8.55179e-05 0 0)
(0.42199 -0.00231839 0 0.00012608 0 0)
(0.532818 -0.00333179 0 0.000171886 0 0)
(0.649634 -0.00437062 0 0.00022064 0 0)
(0.77344 -0.0054669 0 0.000269751 0 0)
(0.90513 -0.00664151 0 0.000316713 0 0)
(1.04453 -0.0078745 0 0.000359382 0 0)
(1.19106 -0.00910357 0 0.000396206 0 0)
(1.34451 -0.0102469 0 0.000426082 0 0)
(1.50466 -0.0112451 0 0.000448307 0 0)
(1.67052 -0.0120737 0 0.00046246 0 0)
(1.84092 -0.0127199 0 0.000468385 0 0)
(2.01528 -0.013171 0 0.000466165 0 0)
(2.19325 -0.0134269 0 0.000456472 0 0)
(2.37401 -0.0135017 0 0.0004402 0 0)
(2.55655 -0.0134122 0 0.000418699 0 0)
(2.74028 -0.0131725 0 0.000393312 0 0)
(2.92497 -0.0128013 0 0.000365472 0 0)
(3.11048 -0.0123275 0 0.000336445 0 0)
(3.29656 -0.0117835 0 0.000307428 0 0)
(3.48307 -0.0112015 0 0.000279341 0 0)
(3.67 -0.0106085 0 0.000252932 0 0)
(3.8574 -0.0100286 0 0.000228652 0 0)
(4.04533 -0.00948407 0 0.000206787 0 0)
(4.23386 -0.00899311 0 0.000187465 0 0)
(4.42309 -0.0085705 0 0.000170737 0 0)
(4.61311 -0.00822473 0 0.000156554 0 0)
(4.80404 -0.00796036 0 0.000144789 0 0)
(4.99598 -0.00777734 0 0.000135238 0 0)
(5.18905 -0.00767312 0 0.000127678 0 0)
(5.38334 -0.00764315 0 0.000121865 0 0)
(5.57891 -0.00768143 0 0.000117579 0 0)
(5.77583 -0.00778127 0 0.000114606 0 0)
(5.97415 -0.00793556 0 0.000112759 0 0)
(6.1739 -0.00813647 0 0.000111867 0 0)
(6.37508 -0.00837614 0 0.000111787 0 0)
(6.5777 -0.00864672 0 0.000112385 0 0)
(6.78174 -0.00894068 0 0.000113556 0 0)
(6.9872 -0.00925091 0 0.000115195 0 0)
(7.19405 -0.00957125 0 0.000117209 0 0)
(7.40228 -0.00989596 0 0.000119504 0 0)
(7.61188 -0.0102202 0 0.000122006 0 0)
(7.82281 -0.0105395 0 0.000124638 0 0)
(8.03508 -0.0108499 0 0.000127341 0 0)
(8.24867 -0.0111474 0 0.000130046 0 0)