/*--------------------------------*- C++ -*----------------------------------*\
  =========                 |
  \\      /  F ield         | OpenFOAM: The Open Source CFD Toolbox
   \\    /   O peration     | Website:  https://openfoam.org
    \\  /    A nd           | Version:  7
     \\/     M anipulation  |
\*---------------------------------------------------------------------------*/
FoamFile
{
    version     2.0;
    format      ascii;
    class       volScalarField;
    location    "0.145";
    object      pPrime2Mean;
}
// * * * * * * * * * * * * * * * * * * * * * * * * * * * * * * * * * * * * * //

dimensions      [2 -2 -4 0 0 0 0];

internalField   nonuniform List<scalar> 
1440
(
431620
428836
426890
425486
424185
422810
421352
419867
418396
416929
415436
413898
412317
410697
409039
407343
405609
403840
402037
400202
398333
396431
394494
392522
390516
388475
386401
384294
382154
379984
377784
375555
373297
371012
368699
366360
363995
361604
359188
356747
354282
351792
349279
346743
344183
341601
338997
336370
333722
331052
328361
325649
322917
320165
317394
314603
311794
308967
306122
303261
300383
297489
294580
291657
288720
285770
282807
279832
276845
273847
270838
267819
264790
261751
258703
255645
252580
249506
246424
243334
240238
237134
234024
230908
227786
224659
221527
218390
215250
212105
208957
205806
202653
199497
196338
193178
190016
186852
183686
180518
177348
174176
171002
167825
164647
161468
158288
155109
151932
148761
145597
142444
139305
136184
133086
130014
126974
123968
121002
118081
431651
428884
426941
425543
424257
422895
421435
419939
418458
416986
415487
413942
412355
410730
409070
407373
405639
403869
402067
400231
398363
396460
394522
392550
390543
388502
386427
384319
382180
380010
377810
375581
373324
371039
368727
366388
364023
361633
359217
356776
354311
351822
349309
346773
344214
341632
339028
336401
333753
331083
328393
325681
322949
320197
317426
314636
311827
309000
306155
303294
300416
297523
294614
291691
288754
285804
282842
279867
276880
273882
270873
267854
264825
261786
258738
255681
252615
249541
246459
243370
240273
237170
234060
230944
227822
224695
221563
218426
215286
212141
208993
205842
202688
199532
196374
193214
190052
186888
183722
180554
177384
174212
171037
167861
164682
161503
158322
155143
151967
148795
145631
142477
139338
136217
133118
130046
127004
123998
121028
118109
431674
428916
426979
425586
424308
422952
421488
419978
418478
416990
415478
413922
412326
410698
409037
407342
405610
403842
402040
400204
398335
396431
394493
392521
390515
388475
386403
384298
382162
379994
377797
375570
373315
371032
368721
366383
364019
361630
359215
356775
354310
351821
349309
346773
344214
341632
339027
336401
333752
331083
328392
325680
322948
320196
317425
314634
311825
308998
306153
303292
300414
297521
294612
291689
288752
285802
282839
279864
276877
273879
270870
267851
264821
261782
258734
255677
252611
249537
246455
243365
240269
237165
234055
230939
227817
224690
221558
218421
215281
212136
208988
205837
202683
199527
196369
193209
190047
186882
183717
180549
177379
174206
171032
167855
164677
161497
158317
155138
151961
148789
145625
142471
139332
136211
133112
130039
126998
123991
121023
118105
431689
428935
427003
425613
424338
422982
421515
419997
418488
416992
415475
413917
412318
410688
409027
407333
405601
403833
402031
400195
398326
396422
394484
392512
390506
388467
386395
384290
382154
379988
377791
375564
373309
371026
368716
366379
364015
361625
359210
356771
354306
351817
349304
346768
344209
341627
339022
336396
333747
331078
328387
325675
322943
320191
317420
314630
311821
308994
306149
303288
300410
297517
294608
291685
288749
285798
282836
279861
276874
273876
270867
267848
264819
261780
258731
255674
252609
249535
246453
243363
240267
237163
234053
230937
227815
224688
221556
218420
215279
212134
208987
205836
202682
199526
196368
193208
190045
186881
183716
180548
177378
174206
171031
167855
164676
161496
158316
155137
151960
148788
145624
142470
139331
136209
133110
130038
126996
123990
121021
118101
431697
428945
427017
425630
424356
423002
421535
420014
418502
417002
415483
413921
412320
410688
409026
407330
405598
403830
402027
400190
398320
396415
394476
392503
390497
388457
386386
384282
382147
379981
377785
375560
373306
371024
368714
366378
364015
361626
359212
356772
354308
351820
349307
346771
344212
341630
339026
336400
333751
331082
328391
325680
322948
320196
317425
314635
311826
308999
306155
303294
300416
297523
294615
291692
288755
285805
282842
279867
276880
273882
270873
267854
264825
261786
258738
255681
252615
249541
246459
243369
240273
237169
234059
230943
227821
224694
221562
218425
215285
212140
208992
205841
202688
199532
196373
193213
190051
186887
183721
180553
177383
174211
171036
167860
164681
161501
158321
155142
151965
148793
145628
142474
139335
136213
133114
130041
126999
123993
121024
118105
431697
428947
427021
425635
424363
423011
421545
420024
418511
417010
415489
413927
412324
410691
409028
407331
405599
403830
402026
400189
398318
396412
394473
392500
390494
388455
386384
384280
382145
379980
377785
375560
373306
371025
368715
366379
364017
361628
359213
356774
354310
351821
349309
346773
344213
341631
339027
336400
333752
331082
328391
325680
322948
320196
317425
314635
311826
308999
306155
303294
300416
297523
294614
291692
288755
285805
282842
279867
276880
273882
270873
267854
264825
261786
258737
255680
252614
249540
246458
243369
240272
237168
234058
230942
227821
224694
221562
218425
215284
212140
208992
205841
202687
199531
196373
193213
190051
186886
183721
180553
177383
174210
171036
167859
164681
161501
158321
155141
151964
148792
145628
142474
139334
136212
133113
130040
126998
123991
121023
118103
431688
428940
427014
425631
424360
423010
421546
420027
418516
417016
415497
413935
412333
410699
409035
407339
405605
403835
402031
400193
398321
396415
394475
392501
390495
388455
386384
384280
382145
379980
377784
375560
373306
371025
368716
366380
364018
361629
359215
356775
354311
351822
349310
346774
344214
341632
339028
336401
333753
331083
328392
325681
322949
320197
317426
314636
311827
309000
306156
303295
300418
297524
294616
291693
288757
285807
282844
279869
276882
273884
270875
267856
264827
261788
258739
255682
252616
249542
246460
243371
240274
237170
234060
230944
227823
224695
221563
218427
215286
212142
208994
205843
202689
199533
196375
193215
190053
186889
183723
180555
177385
174212
171038
167861
164683
161503
158322
155143
151966
148794
145629
142475
139335
136213
133114
130041
126999
123992
121024
118104
431672
428923
426999
425616
424348
423000
421539
420024
418517
417021
415505
413945
412345
410712
409048
407351
405616
403846
402041
400202
398330
396423
394482
392508
390500
388460
386387
384283
382148
379982
377787
375562
373309
371028
368719
366383
364020
361632
359218
356778
354314
351825
349313
346776
344217
341635
339030
336403
333755
331085
328394
325682
322950
320199
317428
314638
311829
309002
306158
303297
300419
297526
294618
291695
288759
285809
282846
279871
276884
273886
270877
267858
264829
261789
258741
255684
252618
249544
246462
243372
240275
237172
234062
230946
227824
224697
221565
218429
215288
212143
208995
205845
202691
199535
196377
193216
190054
186890
183724
180556
177386
174214
171039
167863
164684
161504
158324
155144
151967
148795
145630
142476
139336
136214
133115
130042
127000
123993
121025
118105
431647
428898
426973
425591
424324
422979
421522
420014
418515
417026
415515
413959
412361
410730
409067
407369
405633
403860
402054
400214
398341
396434
394494
392520
390512
388471
386398
384293
382157
379990
377794
375569
373315
371033
368724
366388
364025
361636
359222
356782
354317
351828
349316
346779
344219
341637
339032
336405
333756
331086
328395
325683
322951
320200
317428
314638
311830
309003
306159
303298
300421
297527
294619
291697
288760
285810
282847
279872
276886
273888
270879
267859
264830
261791
258742
255685
252619
249545
246463
243373
240277
237173
234063
230947
227825
224698
221566
218430
215289
212145
208997
205846
202692
199536
196378
193218
190056
186891
183726
180558
177388
174215
171041
167864
164685
161505
158325
155145
151968
148796
145631
142477
139337
136215
133115
130042
127000
123994
121025
118106
431615
428866
426939
425555
424287
422944
421494
419996
418509
417031
415527
413977
412383
410754
409090
407391
405653
403880
402073
400232
398358
396450
394508
392533
390524
388482
386408
384302
382165
379998
377801
375575
373321
371038
368729
366392
364029
361640
359225
356786
354321
351832
349319
346782
344222
341639
339034
336407
333758
331088
328397
325685
322953
320202
317430
314640
311832
309005
306161
303300
300423
297530
294621
291699
288762
285812
282849
279874
276888
273890
270881
267861
264832
261793
258744
255687
252621
249547
246465
243375
240278
237175
234065
230949
227827
224700
221568
218431
215291
212146
208998
205847
202694
199538
196380
193219
190057
186893
183727
180559
177389
174217
171042
167865
164687
161507
158326
155147
151969
148797
145632
142478
139338
136216
133116
130043
127001
123995
121027
118108
431578
428827
426897
425511
424240
422896
421453
419971
418501
417038
415546
414006
412420
410794
409129
407426
405685
403909
402100
400260
398386
396479
394537
392560
390550
388505
386428
384319
382180
380010
377811
375584
373328
371045
368735
366398
364034
361644
359229
356789
354324
351834
349321
346784
344224
341641
339036
336408
333759
331089
328398
325686
322954
320202
317431
314641
311832
309006
306162
303301
300423
297530
294622
291700
288763
285813
282850
279875
276889
273891
270882
267862
264833
261794
258745
255688
252622
249548
246466
243376
240279
237176
234066
230950
227828
224701
221569
218433
215292
212147
209000
205849
202695
199539
196381
193220
190058
186894
183728
180560
177390
174218
171043
167867
164688
161508
158327
155148
151971
148798
145633
142479
139339
136217
133117
130044
127002
123996
121028
118109
431522
428763
426827
425438
424163
422817
421384
419922
418473
417023
415538
414003
412422
410798
409134
407430
405688
403912
402103
400261
398387
396480
394539
392563
390553
388509
386432
384323
382184
380014
377815
375587
373331
371048
368737
366400
364036
361646
359231
356790
354325
351835
349322
346785
344224
341641
339036
336408
333759
331089
328398
325686
322954
320202
317431
314641
311832
309005
306161
303300
300423
297530
294622
291699
288763
285813
282850
279875
276888
273890
270881
267862
264833
261794
258745
255688
252622
249548
246466
243376
240279
237176
234066
230950
227828
224701
221569
218433
215292
212147
209000
205849
202695
199539
196381
193221
190059
186894
183729
180561
177391
174218
171044
167867
164688
161508
158328
155148
151971
148798
145633
142479
139339
136217
133117
130045
127003
123996
121029
118112
)
;

boundaryField
{
    upperWall
    {
        type            calculated;
        value           nonuniform List<scalar> 
120
(
431522
428763
426827
425438
424163
422817
421384
419922
418473
417023
415538
414003
412422
410798
409134
407430
405688
403912
402103
400261
398387
396480
394539
392563
390553
388509
386432
384323
382184
380014
377815
375587
373331
371048
368737
366400
364036
361646
359231
356790
354325
351835
349322
346785
344224
341641
339036
336408
333759
331089
328398
325686
322954
320202
317431
314641
311832
309005
306161
303300
300423
297530
294622
291699
288763
285813
282850
279875
276888
273890
270881
267862
264833
261794
258745
255688
252622
249548
246466
243376
240279
237176
234066
230950
227828
224701
221569
218433
215292
212147
209000
205849
202695
199539
196381
193221
190059
186894
183729
180561
177391
174218
171044
167867
164688
161508
158328
155148
151971
148798
145633
142479
139339
136217
133117
130045
127003
123996
121029
118112
)
;
    }
    lowerWall
    {
        type            calculated;
        value           nonuniform List<scalar> 
120
(
431620
428836
426890
425486
424185
422810
421352
419867
418396
416929
415436
413898
412317
410697
409039
407343
405609
403840
402037
400202
398333
396431
394494
392522
390516
388475
386401
384294
382154
379984
377784
375555
373297
371012
368699
366360
363995
361604
359188
356747
354282
351792
349279
346743
344183
341601
338997
336370
333722
331052
328361
325649
322917
320165
317394
314603
311794
308967
306122
303261
300383
297489
294580
291657
288720
285770
282807
279832
276845
273847
270838
267819
264790
261751
258703
255645
252580
249506
246424
243334
240238
237134
234024
230908
227786
224659
221527
218390
215250
212105
208957
205806
202653
199497
196338
193178
190016
186852
183686
180518
177348
174176
171002
167825
164647
161468
158288
155109
151932
148761
145597
142444
139305
136184
133086
130014
126974
123968
121002
118081
)
;
    }
    inlet
    {
        type            calculated;
        value           nonuniform List<scalar> 
12
(
431620
431651
431674
431689
431697
431697
431688
431672
431647
431615
431578
431522
)
;
    }
    outlet
    {
        type            calculated;
        value           nonuniform List<scalar> 
12
(
116589
116618
116615
116611
116615
116613
116614
116615
116616
116618
116619
116623
)
;
    }
    frontAndBack
    {
        type            empty;
    }
}


// ************************************************************************* //
