/*--------------------------------*- C++ -*----------------------------------*\
  =========                 |
  \\      /  F ield         | OpenFOAM: The Open Source CFD Toolbox
   \\    /   O peration     | Website:  https://openfoam.org
    \\  /    A nd           | Version:  7
     \\/     M anipulation  |
\*---------------------------------------------------------------------------*/
FoamFile
{
    version     2.0;
    format      ascii;
    class       volVectorField;
    location    "0.115";
    object      UMean;
}
// * * * * * * * * * * * * * * * * * * * * * * * * * * * * * * * * * * * * * //

dimensions      [0 1 -1 0 0 0 0];

internalField   nonuniform List<vector> 
1440
(
(29.5931 0.0835316 0)
(29.4168 0.317985 0)
(29.0046 0.535465 0)
(28.3749 0.711028 0)
(27.5846 0.839934 0)
(26.6843 0.920473 0)
(25.7178 0.956531 0)
(24.713 0.954184 0)
(23.7007 0.923282 0)
(22.6956 0.871172 0)
(21.722 0.804886 0)
(20.7867 0.733038 0)
(19.8979 0.657994 0)
(19.0631 0.583056 0)
(18.285 0.511221 0)
(17.564 0.443871 0)
(16.8996 0.381742 0)
(16.2905 0.325176 0)
(15.7346 0.27423 0)
(15.2293 0.228764 0)
(14.7716 0.188494 0)
(14.3582 0.153058 0)
(13.9859 0.122062 0)
(13.6514 0.0951049 0)
(13.3513 0.0717928 0)
(13.0826 0.0517469 0)
(12.8422 0.0346132 0)
(12.6274 0.0200667 0)
(12.4355 0.00781095 0)
(12.2641 -0.00242381 0)
(12.111 -0.010882 0)
(11.9741 -0.0177843 0)
(11.8516 -0.0233294 0)
(11.7419 -0.0276965 0)
(11.6433 -0.0310456 0)
(11.5547 -0.0335198 0)
(11.4748 -0.035246 0)
(11.4025 -0.0363372 0)
(11.3369 -0.0368931 0)
(11.2773 -0.0370019 0)
(11.2227 -0.0367411 0)
(11.1727 -0.0361786 0)
(11.1266 -0.0353729 0)
(11.0839 -0.0343743 0)
(11.0443 -0.0332253 0)
(11.0073 -0.0319617 0)
(10.9726 -0.0306134 0)
(10.94 -0.0292048 0)
(10.9091 -0.0277554 0)
(10.8797 -0.0262804 0)
(10.8518 -0.0247922 0)
(10.825 -0.0233021 0)
(10.7993 -0.02182 0)
(10.7745 -0.0203547 0)
(10.7505 -0.0189129 0)
(10.7273 -0.0175002 0)
(10.7047 -0.0161203 0)
(10.6828 -0.0147767 0)
(10.6613 -0.013472 0)
(10.6403 -0.012208 0)
(10.6198 -0.0109856 0)
(10.5996 -0.00980553 0)
(10.5798 -0.00866842 0)
(10.5603 -0.0075745 0)
(10.5412 -0.00652342 0)
(10.5223 -0.00551481 0)
(10.5038 -0.00454791 0)
(10.4855 -0.00362212 0)
(10.4674 -0.00273678 0)
(10.4496 -0.00189139 0)
(10.432 -0.00108482 0)
(10.4147 -0.000315901 0)
(10.3975 0.000416296 0)
(10.3806 0.00111248 0)
(10.3639 0.00177383 0)
(10.3474 0.00240151 0)
(10.3312 0.00299655 0)
(10.3151 0.00355987 0)
(10.2992 0.00409267 0)
(10.2836 0.00459606 0)
(10.2681 0.00507127 0)
(10.2528 0.00551887 0)
(10.2378 0.00594006 0)
(10.2229 0.00633572 0)
(10.2082 0.00670762 0)
(10.1938 0.00705653 0)
(10.1795 0.00738351 0)
(10.1654 0.00768917 0)
(10.1515 0.00797498 0)
(10.1378 0.00824191 0)
(10.1243 0.00849136 0)
(10.1109 0.00872371 0)
(10.0978 0.00894008 0)
(10.0848 0.00914108 0)
(10.0721 0.00932805 0)
(10.0595 0.00950149 0)
(10.0472 0.00966179 0)
(10.035 0.00981 0)
(10.023 0.00994579 0)
(10.0112 0.0100718 0)
(9.99953 0.0101849 0)
(9.98808 0.0102908 0)
(9.97682 0.0103813 0)
(9.96574 0.0104701 0)
(9.95485 0.0105379 0)
(9.94411 0.0106142 0)
(9.93359 0.0106557 0)
(9.92318 0.0107272 0)
(9.91305 0.0107334 0)
(9.90294 0.0108159 0)
(9.89326 0.0107631 0)
(9.88339 0.0108873 0)
(9.87427 0.0107211 0)
(9.86452 0.0109504 0)
(9.85624 0.0105453 0)
(9.84636 0.0110089 0)
(9.83953 0.01012 0)
(9.82881 0.0111306 0)
(9.82498 0.00957373 0)
(9.80995 0.0121827 0)
(29.6241 0.119047 0)
(29.728 0.329685 0)
(29.9004 0.511856 0)
(30.1114 0.672591 0)
(30.3382 0.8137 0)
(30.5607 0.931987 0)
(30.7634 1.02515 0)
(30.9325 1.09343 0)
(31.0612 1.13927 0)
(31.1456 1.16556 0)
(31.1875 1.17493 0)
(31.1895 1.17014 0)
(31.1558 1.15354 0)
(31.0914 1.12718 0)
(31.0008 1.09299 0)
(30.8881 1.05273 0)
(30.7577 1.00801 0)
(30.6134 0.960251 0)
(30.4586 0.910682 0)
(30.2961 0.860337 0)
(30.1285 0.810092 0)
(29.9577 0.760688 0)
(29.7853 0.712673 0)
(29.6128 0.666494 0)
(29.4412 0.622478 0)
(29.2714 0.580839 0)
(29.1039 0.541701 0)
(28.9393 0.505114 0)
(28.7779 0.471072 0)
(28.6199 0.439523 0)
(28.4656 0.410382 0)
(28.315 0.383541 0)
(28.1682 0.358877 0)
(28.0252 0.336253 0)
(27.8859 0.315532 0)
(27.7503 0.296575 0)
(27.6183 0.279246 0)
(27.49 0.263415 0)
(27.3651 0.248957 0)
(27.2435 0.235756 0)
(27.1254 0.223701 0)
(27.0104 0.21269 0)
(26.8985 0.202626 0)
(26.7897 0.193422 0)
(26.6838 0.184996 0)
(26.5808 0.177273 0)
(26.4806 0.170184 0)
(26.383 0.163665 0)
(26.2881 0.157658 0)
(26.1957 0.152112 0)
(26.1059 0.146981 0)
(26.0184 0.142223 0)
(25.9332 0.137801 0)
(25.8503 0.133681 0)
(25.7697 0.129835 0)
(25.6911 0.126235 0)
(25.6147 0.122858 0)
(25.5402 0.119682 0)
(25.4677 0.116689 0)
(25.3972 0.113861 0)
(25.3285 0.111184 0)
(25.2616 0.108644 0)
(25.1964 0.106229 0)
(25.133 0.103929 0)
(25.0712 0.101735 0)
(25.0111 0.0996373 0)
(24.9525 0.0976303 0)
(24.8954 0.0957073 0)
(24.8399 0.0938629 0)
(24.7857 0.092092 0)
(24.733 0.0903905 0)
(24.6816 0.0887544 0)
(24.6316 0.0871798 0)
(24.5828 0.0856633 0)
(24.5353 0.0842019 0)
(24.489 0.0827924 0)
(24.4439 0.0814323 0)
(24.3999 0.0801187 0)
(24.357 0.0788493 0)
(24.3151 0.0776219 0)
(24.2743 0.0764346 0)
(24.2346 0.0752851 0)
(24.1958 0.0741715 0)
(24.1579 0.0730923 0)
(24.121 0.0720464 0)
(24.0849 0.0710321 0)
(24.0497 0.0700482 0)
(24.0154 0.0690932 0)
(23.9819 0.0681664 0)
(23.9491 0.0672668 0)
(23.9172 0.0663936 0)
(23.886 0.0655454 0)
(23.8555 0.0647215 0)
(23.8257 0.0639211 0)
(23.7966 0.0631436 0)
(23.7681 0.0623879 0)
(23.7403 0.0616528 0)
(23.7132 0.060938 0)
(23.6866 0.0602415 0)
(23.6607 0.0595647 0)
(23.6353 0.0589032 0)
(23.6105 0.0582609 0)
(23.5862 0.0576295 0)
(23.5625 0.057019 0)
(23.5392 0.0564126 0)
(23.5165 0.0558326 0)
(23.4943 0.0552437 0)
(23.4725 0.054694 0)
(23.4514 0.0541111 0)
(23.4304 0.0535958 0)
(23.4103 0.0529987 0)
(23.3901 0.0525242 0)
(23.3711 0.0518741 0)
(23.3514 0.051446 0)
(23.334 0.0506742 0)
(23.3141 0.0502724 0)
(23.2994 0.0492737 0)
(23.278 0.0487756 0)
(23.269 0.0475582 0)
(23.242 0.0467978 0)
(29.6202 0.0765351 0)
(29.675 0.222516 0)
(29.7765 0.355408 0)
(29.9176 0.473917 0)
(30.094 0.578293 0)
(30.3019 0.667718 0)
(30.5367 0.740942 0)
(30.7915 0.797525 0)
(31.0586 0.838116 0)
(31.3306 0.864025 0)
(31.6012 0.87662 0)
(31.8654 0.877507 0)
(32.1197 0.868223 0)
(32.3611 0.850191 0)
(32.5878 0.825031 0)
(32.7984 0.794476 0)
(32.9924 0.760158 0)
(33.1699 0.723491 0)
(33.3312 0.685654 0)
(33.477 0.64761 0)
(33.608 0.61013 0)
(33.7251 0.573819 0)
(33.8293 0.539132 0)
(33.9216 0.506391 0)
(34.0029 0.475802 0)
(34.0742 0.447468 0)
(34.1364 0.421415 0)
(34.1903 0.397603 0)
(34.2368 0.375949 0)
(34.2766 0.356341 0)
(34.3103 0.338648 0)
(34.3387 0.322729 0)
(34.3622 0.308439 0)
(34.3815 0.295632 0)
(34.3968 0.284168 0)
(34.4086 0.273911 0)
(34.4173 0.264735 0)
(34.4232 0.256522 0)
(34.4266 0.249165 0)
(34.4277 0.242562 0)
(34.4268 0.236626 0)
(34.424 0.231273 0)
(34.4195 0.226431 0)
(34.4135 0.222034 0)
(34.406 0.218022 0)
(34.3973 0.214344 0)
(34.3874 0.210952 0)
(34.3765 0.207804 0)
(34.3645 0.204864 0)
(34.3516 0.202099 0)
(34.3378 0.199479 0)
(34.3233 0.196978 0)
(34.308 0.194578 0)
(34.292 0.192261 0)
(34.2754 0.190014 0)
(34.2582 0.187825 0)
(34.2405 0.185686 0)
(34.2222 0.183589 0)
(34.2035 0.181527 0)
(34.1844 0.179495 0)
(34.1648 0.177488 0)
(34.1449 0.175505 0)
(34.1246 0.173541 0)
(34.104 0.171594 0)
(34.0831 0.169664 0)
(34.062 0.16775 0)
(34.0406 0.16585 0)
(34.019 0.163966 0)
(33.9972 0.162097 0)
(33.9752 0.160245 0)
(33.9531 0.15841 0)
(33.9309 0.156592 0)
(33.9085 0.154793 0)
(33.8861 0.153013 0)
(33.8636 0.151253 0)
(33.841 0.149512 0)
(33.8184 0.147792 0)
(33.7957 0.146093 0)
(33.7731 0.144415 0)
(33.7504 0.142758 0)
(33.7278 0.141123 0)
(33.7051 0.139509 0)
(33.6826 0.137917 0)
(33.66 0.136346 0)
(33.6375 0.134798 0)
(33.6151 0.133271 0)
(33.5928 0.131766 0)
(33.5706 0.130283 0)
(33.5484 0.128822 0)
(33.5264 0.127383 0)
(33.5044 0.125966 0)
(33.4826 0.12457 0)
(33.4609 0.123198 0)
(33.4394 0.121845 0)
(33.418 0.120516 0)
(33.3967 0.119205 0)
(33.3756 0.117918 0)
(33.3547 0.116648 0)
(33.3339 0.115401 0)
(33.3133 0.11417 0)
(33.2928 0.112963 0)
(33.2726 0.111768 0)
(33.2525 0.110598 0)
(33.2326 0.109435 0)
(33.2129 0.108303 0)
(33.1933 0.107164 0)
(33.174 0.106072 0)
(33.1549 0.104947 0)
(33.136 0.103899 0)
(33.1172 0.102766 0)
(33.0988 0.101779 0)
(33.0803 0.100591 0)
(33.0625 0.0996975 0)
(33.0441 0.0983537 0)
(33.0274 0.0976267 0)
(33.0084 0.0959091 0)
(32.9939 0.0954908 0)
(32.9727 0.0929181 0)
(32.9633 0.0930148 0)
(32.936 0.0883925 0)
(29.6199 0.051475 0)
(29.6685 0.151809 0)
(29.7585 0.2454 0)
(29.8841 0.329328 0)
(30.0413 0.40252 0)
(30.2261 0.464564 0)
(30.4344 0.515037 0)
(30.6615 0.553753 0)
(30.9021 0.581123 0)
(31.1512 0.59815 0)
(31.4046 0.606145 0)
(31.6588 0.60651 0)
(31.9109 0.600596 0)
(32.1588 0.589623 0)
(32.4004 0.574791 0)
(32.6343 0.557229 0)
(32.8593 0.537926 0)
(33.0747 0.517657 0)
(33.2798 0.497026 0)
(33.4744 0.476475 0)
(33.6585 0.456337 0)
(33.8321 0.436841 0)
(33.9957 0.418139 0)
(34.1496 0.400316 0)
(34.2942 0.383432 0)
(34.4301 0.367514 0)
(34.558 0.352576 0)
(34.6782 0.338605 0)
(34.7916 0.325579 0)
(34.8985 0.313461 0)
(34.9997 0.30221 0)
(35.0955 0.291777 0)
(35.1865 0.282116 0)
(35.2732 0.273175 0)
(35.3558 0.264905 0)
(35.4349 0.257256 0)
(35.5107 0.250182 0)
(35.5835 0.243637 0)
(35.6537 0.237578 0)
(35.7213 0.231964 0)
(35.7868 0.226758 0)
(35.8501 0.221922 0)
(35.9116 0.217424 0)
(35.9713 0.213231 0)
(36.0294 0.209317 0)
(36.0859 0.205655 0)
(36.1411 0.20222 0)
(36.1949 0.19899 0)
(36.2474 0.195947 0)
(36.2987 0.19307 0)
(36.3488 0.190343 0)
(36.3978 0.187751 0)
(36.4458 0.185281 0)
(36.4928 0.182922 0)
(36.5388 0.180666 0)
(36.5838 0.178503 0)
(36.6279 0.176428 0)
(36.6711 0.174432 0)
(36.7134 0.172511 0)
(36.7549 0.170659 0)
(36.7955 0.168871 0)
(36.8353 0.167142 0)
(36.8743 0.165469 0)
(36.9126 0.163849 0)
(36.95 0.16228 0)
(36.9868 0.160758 0)
(37.0227 0.159282 0)
(37.058 0.157848 0)
(37.0925 0.156455 0)
(37.1264 0.155101 0)
(37.1595 0.153783 0)
(37.192 0.1525 0)
(37.2238 0.151249 0)
(37.255 0.150029 0)
(37.2855 0.148839 0)
(37.3154 0.147676 0)
(37.3447 0.146539 0)
(37.3734 0.145427 0)
(37.4016 0.144338 0)
(37.4291 0.143271 0)
(37.456 0.142226 0)
(37.4824 0.1412 0)
(37.5083 0.140193 0)
(37.5336 0.139203 0)
(37.5584 0.138231 0)
(37.5827 0.137274 0)
(37.6064 0.136334 0)
(37.6297 0.135408 0)
(37.6525 0.134497 0)
(37.6748 0.133598 0)
(37.6966 0.132714 0)
(37.7179 0.131841 0)
(37.7389 0.130981 0)
(37.7593 0.130131 0)
(37.7794 0.129294 0)
(37.799 0.128465 0)
(37.8181 0.127649 0)
(37.8369 0.126838 0)
(37.8553 0.12604 0)
(37.8733 0.125244 0)
(37.8909 0.124463 0)
(37.9081 0.123677 0)
(37.925 0.122912 0)
(37.9415 0.122132 0)
(37.9576 0.121384 0)
(37.9735 0.1206 0)
(37.9889 0.119876 0)
(38.0041 0.119071 0)
(38.0188 0.118384 0)
(38.0334 0.117526 0)
(38.0474 0.116906 0)
(38.0616 0.115932 0)
(38.0746 0.115439 0)
(38.0888 0.114223 0)
(38.1004 0.113967 0)
(38.1151 0.11227 0)
(38.1244 0.112431 0)
(38.141 0.109811 0)
(38.1458 0.110557 0)
(38.167 0.106063 0)
(29.6198 0.0301248 0)
(29.6652 0.0891401 0)
(29.7491 0.144773 0)
(29.8666 0.194969 0)
(30.0148 0.238693 0)
(30.1902 0.275717 0)
(30.3888 0.306 0)
(30.6059 0.329544 0)
(30.8366 0.346582 0)
(31.0761 0.357689 0)
(31.3205 0.363657 0)
(31.5663 0.365323 0)
(31.8108 0.363465 0)
(32.0516 0.358772 0)
(32.2869 0.35184 0)
(32.5152 0.34318 0)
(32.7354 0.333221 0)
(32.9466 0.322313 0)
(33.1484 0.310748 0)
(33.3404 0.298772 0)
(33.5227 0.286605 0)
(33.6954 0.274425 0)
(33.8586 0.262374 0)
(34.0128 0.250563 0)
(34.1585 0.23909 0)
(34.2961 0.228035 0)
(34.4263 0.217467 0)
(34.5495 0.207442 0)
(34.6664 0.198004 0)
(34.7774 0.189178 0)
(34.883 0.180975 0)
(34.9838 0.173388 0)
(35.0803 0.166396 0)
(35.1727 0.159973 0)
(35.2616 0.154087 0)
(35.3472 0.148703 0)
(35.43 0.143785 0)
(35.5101 0.139299 0)
(35.5879 0.135209 0)
(35.6635 0.131484 0)
(35.7372 0.128091 0)
(35.8092 0.125003 0)
(35.8795 0.122192 0)
(35.9484 0.119634 0)
(36.016 0.117306 0)
(36.0824 0.115188 0)
(36.1477 0.113258 0)
(36.2119 0.1115 0)
(36.2751 0.109897 0)
(36.3374 0.108434 0)
(36.3988 0.107098 0)
(36.4595 0.105878 0)
(36.5194 0.104762 0)
(36.5785 0.103741 0)
(36.6369 0.102803 0)
(36.6947 0.10194 0)
(36.7518 0.101143 0)
(36.8083 0.100405 0)
(36.8642 0.0997193 0)
(36.9196 0.0990788 0)
(36.9743 0.0984782 0)
(37.0285 0.0979123 0)
(37.0822 0.0973769 0)
(37.1353 0.0968685 0)
(37.1879 0.096384 0)
(37.24 0.095921 0)
(37.2916 0.0954768 0)
(37.3427 0.0950492 0)
(37.3934 0.0946359 0)
(37.4436 0.0942352 0)
(37.4933 0.0938454 0)
(37.5425 0.0934649 0)
(37.5914 0.0930924 0)
(37.6397 0.0927269 0)
(37.6877 0.0923672 0)
(37.7352 0.0920126 0)
(37.7823 0.0916621 0)
(37.829 0.0913151 0)
(37.8753 0.090971 0)
(37.9212 0.0906294 0)
(37.9667 0.0902897 0)
(38.0118 0.0899518 0)
(38.0565 0.0896154 0)
(38.1008 0.0892803 0)
(38.1448 0.0889465 0)
(38.1884 0.0886138 0)
(38.2316 0.0882822 0)
(38.2745 0.0879517 0)
(38.317 0.0876225 0)
(38.3592 0.0872943 0)
(38.401 0.0869674 0)
(38.4425 0.0866415 0)
(38.4837 0.086317 0)
(38.5245 0.0859933 0)
(38.565 0.0856711 0)
(38.6051 0.085349 0)
(38.645 0.0850288 0)
(38.6845 0.0847076 0)
(38.7237 0.0843889 0)
(38.7626 0.0840673 0)
(38.8012 0.0837499 0)
(38.8395 0.0834257 0)
(38.8775 0.0831097 0)
(38.9152 0.0827799 0)
(38.9526 0.082467 0)
(38.9898 0.0821259 0)
(39.0265 0.0818201 0)
(39.0632 0.081457 0)
(39.0992 0.0811671 0)
(39.1357 0.0807614 0)
(39.1707 0.0805056 0)
(39.2071 0.0800169 0)
(39.2408 0.0798299 0)
(39.2779 0.0791808 0)
(39.309 0.0791252 0)
(39.3485 0.0781708 0)
(39.3745 0.0783417 0)
(39.42 0.076805 0)
(39.4348 0.0772567 0)
(39.4943 0.0745536 0)
(29.6197 0.0101039 0)
(29.6637 0.029904 0)
(29.7447 0.0486051 0)
(29.8582 0.0655 0)
(30.0018 0.0802016 0)
(30.1727 0.092674 0)
(30.3667 0.102999 0)
(30.5794 0.111242 0)
(30.8058 0.117491 0)
(31.0416 0.121917 0)
(31.2826 0.124759 0)
(31.5256 0.126277 0)
(31.7676 0.126702 0)
(32.0062 0.126234 0)
(32.2397 0.12502 0)
(32.4664 0.123196 0)
(32.6851 0.120871 0)
(32.8951 0.118155 0)
(33.0957 0.115137 0)
(33.2868 0.11191 0)
(33.4683 0.108551 0)
(33.6403 0.105137 0)
(33.803 0.101737 0)
(33.9568 0.0984116 0)
(34.1021 0.095198 0)
(34.2395 0.092127 0)
(34.3694 0.0892158 0)
(34.4925 0.0864834 0)
(34.6092 0.0839421 0)
(34.7201 0.0816022 0)
(34.8257 0.0794632 0)
(34.9264 0.0775187 0)
(35.0227 0.0757557 0)
(35.115 0.0741605 0)
(35.2037 0.0727171 0)
(35.2892 0.0714113 0)
(35.3717 0.0702276 0)
(35.4516 0.0691534 0)
(35.5292 0.068176 0)
(35.6046 0.0672854 0)
(35.6781 0.0664718 0)
(35.7498 0.0657283 0)
(35.8199 0.0650481 0)
(35.8887 0.0644265 0)
(35.9561 0.0638586 0)
(36.0223 0.0633404 0)
(36.0873 0.0628678 0)
(36.1514 0.0624372 0)
(36.2145 0.062045 0)
(36.2767 0.0616884 0)
(36.3381 0.0613643 0)
(36.3988 0.0610698 0)
(36.4586 0.0608011 0)
(36.5178 0.060555 0)
(36.5763 0.0603275 0)
(36.6342 0.0601157 0)
(36.6914 0.0599166 0)
(36.7481 0.0597277 0)
(36.8042 0.0595466 0)
(36.8598 0.0593716 0)
(36.9148 0.0592007 0)
(36.9693 0.0590328 0)
(37.0233 0.0588663 0)
(37.0769 0.0587003 0)
(37.1299 0.0585334 0)
(37.1826 0.0583652 0)
(37.2347 0.0581948 0)
(37.2864 0.0580221 0)
(37.3377 0.0578466 0)
(37.3886 0.0576686 0)
(37.4391 0.0574878 0)
(37.4891 0.0573045 0)
(37.5388 0.0571186 0)
(37.588 0.0569305 0)
(37.6369 0.0567402 0)
(37.6855 0.056548 0)
(37.7336 0.056354 0)
(37.7814 0.0561584 0)
(37.8289 0.0559614 0)
(37.876 0.0557633 0)
(37.9228 0.0555643 0)
(37.9692 0.0553647 0)
(38.0153 0.0551646 0)
(38.0611 0.0549645 0)
(38.1066 0.0547643 0)
(38.1517 0.0545646 0)
(38.1966 0.0543653 0)
(38.2411 0.0541669 0)
(38.2854 0.0539694 0)
(38.3293 0.0537731 0)
(38.373 0.0535781 0)
(38.4164 0.0533844 0)
(38.4596 0.0531921 0)
(38.5024 0.0530012 0)
(38.545 0.0528117 0)
(38.5873 0.0526233 0)
(38.6294 0.0524363 0)
(38.6712 0.0522498 0)
(38.7127 0.0520647 0)
(38.7541 0.0518792 0)
(38.7951 0.0516952 0)
(38.836 0.0515091 0)
(38.8765 0.0513256 0)
(38.9169 0.0511371 0)
(38.957 0.0509536 0)
(38.997 0.05076 0)
(39.0365 0.0505768 0)
(39.0762 0.0503734 0)
(39.1151 0.0501922 0)
(39.1546 0.0499707 0)
(39.1926 0.0497957 0)
(39.2323 0.0495404 0)
(39.269 0.0493821 0)
(39.3097 0.0490632 0)
(39.3436 0.0489442 0)
(39.3872 0.048505 0)
(39.4155 0.0484706 0)
(39.4659 0.0477886 0)
(39.4819 0.0478837 0)
(39.5477 0.0466189 0)
(29.6197 -0.00952946 0)
(29.6637 -0.028226 0)
(29.7446 -0.0459459 0)
(29.858 -0.0620688 0)
(30.0016 -0.0761859 0)
(30.1725 -0.0880926 0)
(30.3667 -0.0976616 0)
(30.5795 -0.104831 0)
(30.8061 -0.109659 0)
(31.042 -0.112339 0)
(31.2832 -0.113127 0)
(31.5263 -0.112292 0)
(31.7684 -0.110075 0)
(32.0071 -0.106708 0)
(32.2406 -0.102395 0)
(32.4673 -0.0973419 0)
(32.6861 -0.0917226 0)
(32.896 -0.0856999 0)
(33.0967 -0.0794099 0)
(33.2877 -0.0729878 0)
(33.4691 -0.0665509 0)
(33.641 -0.0602095 0)
(33.8036 -0.0540513 0)
(33.9573 -0.0481572 0)
(34.1025 -0.0425953 0)
(34.2397 -0.037424 0)
(34.3694 -0.0326805 0)
(34.4923 -0.0283918 0)
(34.6088 -0.0245704 0)
(34.7195 -0.021222 0)
(34.8249 -0.0183382 0)
(34.9254 -0.0159 0)
(35.0215 -0.0138757 0)
(35.1137 -0.0122271 0)
(35.2022 -0.0109106 0)
(35.2875 -0.00988308 0)
(35.37 -0.00910138 0)
(35.4498 -0.00852635 0)
(35.5272 -0.00812076 0)
(35.6025 -0.00785207 0)
(35.6759 -0.00769026 0)
(35.7476 -0.00760946 0)
(35.8177 -0.00758628 0)
(35.8863 -0.00760185 0)
(35.9537 -0.00763992 0)
(36.0199 -0.007688 0)
(36.0849 -0.00773553 0)
(36.149 -0.00777473 0)
(36.212 -0.00779921 0)
(36.2742 -0.007805 0)
(36.3356 -0.00778898 0)
(36.3962 -0.00775017 0)
(36.456 -0.0076879 0)
(36.5152 -0.0076029 0)
(36.5736 -0.00749587 0)
(36.6315 -0.00736832 0)
(36.6887 -0.00722156 0)
(36.7453 -0.00705751 0)
(36.8014 -0.00687764 0)
(36.8569 -0.0066837 0)
(36.9118 -0.00647689 0)
(36.9663 -0.0062587 0)
(37.0203 -0.00603007 0)
(37.0738 -0.00579238 0)
(37.1268 -0.0055466 0)
(37.1793 -0.00529421 0)
(37.2314 -0.0050362 0)
(37.2831 -0.00477391 0)
(37.3343 -0.00450803 0)
(37.3851 -0.00423963 0)
(37.4355 -0.00396932 0)
(37.4855 -0.00369797 0)
(37.5351 -0.00342609 0)
(37.5843 -0.00315442 0)
(37.6331 -0.00288336 0)
(37.6816 -0.00261357 0)
(37.7297 -0.00234529 0)
(37.7774 -0.00207905 0)
(37.8248 -0.00181505 0)
(37.8718 -0.00155369 0)
(37.9185 -0.00129509 0)
(37.9649 -0.00103972 0)
(38.0109 -0.000787754 0)
(38.0566 -0.000539512 0)
(38.102 -0.000295073 0)
(38.1471 -5.47101e-05 0)
(38.1919 0.000181574 0)
(38.2364 0.000413543 0)
(38.2805 0.000641205 0)
(38.3244 0.000864403 0)
(38.3681 0.00108315 0)
(38.4114 0.00129733 0)
(38.4544 0.00150688 0)
(38.4972 0.00171165 0)
(38.5397 0.00191152 0)
(38.582 0.00210639 0)
(38.624 0.00229607 0)
(38.6657 0.00248061 0)
(38.7072 0.00265951 0)
(38.7485 0.00283312 0)
(38.7895 0.00300041 0)
(38.8302 0.00316248 0)
(38.8707 0.00331715 0)
(38.9111 0.00346709 0)
(38.9511 0.00360772 0)
(38.991 0.00374539 0)
(39.0305 0.00387025 0)
(39.0701 0.00399645 0)
(39.1089 0.00410284 0)
(39.1484 0.0042201 0)
(39.1864 0.00430331 0)
(39.226 0.00441786 0)
(39.2626 0.0044696 0)
(39.3033 0.00459605 0)
(39.3372 0.00460332 0)
(39.3807 0.00477605 0)
(39.409 0.00472439 0)
(39.4594 0.0050294 0)
(39.4753 0.00492574 0)
(39.541 0.00557057 0)
(29.6198 -0.0295266 0)
(29.6651 -0.0873726 0)
(29.7488 -0.141966 0)
(29.8659 -0.191389 0)
(30.0139 -0.234564 0)
(30.1895 -0.271046 0)
(30.3884 -0.300591 0)
(30.606 -0.323103 0)
(30.8372 -0.338804 0)
(31.0772 -0.348276 0)
(31.322 -0.352306 0)
(31.5683 -0.351714 0)
(31.8131 -0.34727 0)
(32.0543 -0.339662 0)
(32.2898 -0.32952 0)
(32.5182 -0.317419 0)
(32.7384 -0.303877 0)
(32.9496 -0.289339 0)
(33.1512 -0.274186 0)
(33.343 -0.258743 0)
(33.525 -0.243293 0)
(33.6973 -0.228073 0)
(33.8601 -0.213283 0)
(34.0138 -0.199077 0)
(34.159 -0.185567 0)
(34.2961 -0.172835 0)
(34.4257 -0.160938 0)
(34.5483 -0.149911 0)
(34.6645 -0.139773 0)
(34.7749 -0.130527 0)
(34.88 -0.122155 0)
(34.9802 -0.114622 0)
(35.0761 -0.107878 0)
(35.1681 -0.101865 0)
(35.2565 -0.0965197 0)
(35.3417 -0.0917774 0)
(35.4241 -0.0875759 0)
(35.5039 -0.0838559 0)
(35.5814 -0.0805617 0)
(35.6567 -0.0776408 0)
(35.7302 -0.0750438 0)
(35.802 -0.0727241 0)
(35.8722 -0.0706397 0)
(35.941 -0.0687544 0)
(36.0085 -0.0670372 0)
(36.0748 -0.0654617 0)
(36.1399 -0.0640052 0)
(36.2041 -0.0626487 0)
(36.2672 -0.061376 0)
(36.3295 -0.060174 0)
(36.3909 -0.0590321 0)
(36.4515 -0.0579421 0)
(36.5114 -0.0568973 0)
(36.5705 -0.0558924 0)
(36.6289 -0.0549234 0)
(36.6866 -0.0539869 0)
(36.7437 -0.0530802 0)
(36.8002 -0.0522012 0)
(36.8561 -0.0513481 0)
(36.9114 -0.0505192 0)
(36.9662 -0.0497129 0)
(37.0204 -0.0489279 0)
(37.074 -0.0481626 0)
(37.1272 -0.0474156 0)
(37.1798 -0.0466856 0)
(37.232 -0.045972 0)
(37.2836 -0.0452746 0)
(37.3348 -0.0445932 0)
(37.3855 -0.0439278 0)
(37.4358 -0.0432783 0)
(37.4856 -0.0426442 0)
(37.535 -0.0420255 0)
(37.5839 -0.0414216 0)
(37.6324 -0.0408323 0)
(37.6805 -0.040257 0)
(37.7282 -0.0396954 0)
(37.7755 -0.0391469 0)
(37.8224 -0.0386112 0)
(37.8689 -0.0380878 0)
(37.915 -0.0375766 0)
(37.9607 -0.0370771 0)
(38.006 -0.036589 0)
(38.051 -0.0361118 0)
(38.0956 -0.0356455 0)
(38.1399 -0.0351895 0)
(38.1838 -0.0347436 0)
(38.2274 -0.0343075 0)
(38.2706 -0.033881 0)
(38.3135 -0.0334639 0)
(38.356 -0.033056 0)
(38.3982 -0.0326572 0)
(38.4401 -0.0322673 0)
(38.4817 -0.0318862 0)
(38.5229 -0.0315136 0)
(38.5638 -0.0311498 0)
(38.6045 -0.0307942 0)
(38.6448 -0.0304475 0)
(38.6848 -0.0301088 0)
(38.7245 -0.0297796 0)
(38.7639 -0.0294573 0)
(38.803 -0.0291461 0)
(38.8419 -0.0288399 0)
(38.8804 -0.0285478 0)
(38.9187 -0.0282562 0)
(38.9567 -0.0279856 0)
(38.9945 -0.027706 0)
(39.0318 -0.0274612 0)
(39.0691 -0.0271867 0)
(39.1058 -0.0269763 0)
(39.1428 -0.0266924 0)
(39.1785 -0.026533 0)
(39.2156 -0.0262092 0)
(39.2499 -0.0261318 0)
(39.2878 -0.0257062 0)
(39.3195 -0.0257656 0)
(39.3598 -0.0251148 0)
(39.3863 -0.0253914 0)
(39.4329 -0.0242586 0)
(39.4479 -0.0247757 0)
(39.5086 -0.02254 0)
(29.6199 -0.0508415 0)
(29.6683 -0.149982 0)
(29.7578 -0.242683 0)
(29.8829 -0.326081 0)
(30.0397 -0.398855 0)
(30.2248 -0.460302 0)
(30.4338 -0.509874 0)
(30.6617 -0.547404 0)
(30.9031 -0.573357 0)
(31.153 -0.588749 0)
(31.4072 -0.594885 0)
(31.6622 -0.593147 0)
(31.9151 -0.584858 0)
(32.1636 -0.571222 0)
(32.4057 -0.553396 0)
(32.6398 -0.532456 0)
(32.8649 -0.509392 0)
(33.0799 -0.485046 0)
(33.2845 -0.46013 0)
(33.4784 -0.43521 0)
(33.6616 -0.410745 0)
(33.8343 -0.387082 0)
(33.9967 -0.36448 0)
(34.1494 -0.34311 0)
(34.2928 -0.323076 0)
(34.4275 -0.304425 0)
(34.5542 -0.287178 0)
(34.6734 -0.271318 0)
(34.7858 -0.256813 0)
(34.8919 -0.243604 0)
(34.9923 -0.231618 0)
(35.0875 -0.220771 0)
(35.178 -0.210977 0)
(35.2643 -0.202145 0)
(35.3468 -0.194191 0)
(35.4258 -0.18703 0)
(35.5017 -0.180581 0)
(35.5747 -0.174771 0)
(35.6451 -0.169535 0)
(35.7132 -0.16481 0)
(35.7791 -0.160536 0)
(35.843 -0.156653 0)
(35.9051 -0.153106 0)
(35.9655 -0.149846 0)
(36.0243 -0.146833 0)
(36.0817 -0.14403 0)
(36.1376 -0.141407 0)
(36.1923 -0.138937 0)
(36.2457 -0.1366 0)
(36.2979 -0.134374 0)
(36.349 -0.132246 0)
(36.399 -0.130201 0)
(36.4479 -0.128231 0)
(36.4959 -0.126326 0)
(36.5428 -0.124481 0)
(36.5889 -0.12269 0)
(36.634 -0.12095 0)
(36.6782 -0.119257 0)
(36.7215 -0.117609 0)
(36.764 -0.116002 0)
(36.8057 -0.114435 0)
(36.8465 -0.112906 0)
(36.8866 -0.111414 0)
(36.9259 -0.109956 0)
(36.9645 -0.10853 0)
(37.0023 -0.107134 0)
(37.0393 -0.105769 0)
(37.0757 -0.104433 0)
(37.1113 -0.103127 0)
(37.1463 -0.101849 0)
(37.1805 -0.100601 0)
(37.2141 -0.0993786 0)
(37.2471 -0.0981846 0)
(37.2794 -0.097016 0)
(37.3111 -0.0958736 0)
(37.3421 -0.0947546 0)
(37.3726 -0.0936601 0)
(37.4024 -0.0925872 0)
(37.4316 -0.091537 0)
(37.4603 -0.0905067 0)
(37.4884 -0.0894975 0)
(37.516 -0.0885066 0)
(37.5429 -0.0875352 0)
(37.5694 -0.0865804 0)
(37.5953 -0.0856438 0)
(37.6207 -0.0847222 0)
(37.6456 -0.0838176 0)
(37.6699 -0.0829268 0)
(37.6938 -0.0820519 0)
(37.7172 -0.0811898 0)
(37.7401 -0.0803429 0)
(37.7625 -0.0795077 0)
(37.7845 -0.0786872 0)
(37.806 -0.0778775 0)
(37.8271 -0.0770822 0)
(37.8477 -0.0762968 0)
(37.8679 -0.075526 0)
(37.8876 -0.0747641 0)
(37.907 -0.0740175 0)
(37.9259 -0.0732779 0)
(37.9445 -0.0725556 0)
(37.9626 -0.071837 0)
(37.9803 -0.0711401 0)
(37.9977 -0.0704397 0)
(38.0147 -0.0697709 0)
(38.0313 -0.0690834 0)
(38.0475 -0.0684491 0)
(38.0635 -0.0677632 0)
(38.0789 -0.0671771 0)
(38.0942 -0.0664688 0)
(38.1088 -0.065958 0)
(38.1237 -0.0651766 0)
(38.1373 -0.0647947 0)
(38.152 -0.0638363 0)
(38.1642 -0.0636828 0)
(38.1794 -0.0623413 0)
(38.1891 -0.0625812 0)
(38.2063 -0.060461 0)
(38.2113 -0.0612492 0)
(38.2331 -0.0574558 0)
(29.6202 -0.0756334 0)
(29.6745 -0.220568 0)
(29.7751 -0.35364 0)
(29.9155 -0.472972 0)
(30.0918 -0.577876 0)
(30.3003 -0.667096 0)
(30.5358 -0.739468 0)
(30.7913 -0.794776 0)
(31.0586 -0.833835 0)
(31.3303 -0.857987 0)
(31.6002 -0.868719 0)
(31.8633 -0.867709 0)
(32.1161 -0.856528 0)
(32.3557 -0.836709 0)
(32.5803 -0.809856 0)
(32.7885 -0.777588 0)
(32.98 -0.741432 0)
(33.1546 -0.70275 0)
(33.3129 -0.662724 0)
(33.4554 -0.622357 0)
(33.5831 -0.582486 0)
(33.697 -0.543779 0)
(33.7981 -0.506749 0)
(33.8874 -0.471768 0)
(33.966 -0.439092 0)
(34.0349 -0.408869 0)
(34.095 -0.381158 0)
(34.1471 -0.355943 0)
(34.1922 -0.333149 0)
(34.2309 -0.312659 0)
(34.2639 -0.294325 0)
(34.2918 -0.277982 0)
(34.315 -0.263457 0)
(34.3342 -0.250573 0)
(34.3497 -0.239157 0)
(34.3618 -0.229043 0)
(34.3709 -0.220073 0)
(34.3772 -0.2121 0)
(34.3811 -0.205001 0)
(34.3827 -0.198666 0)
(34.3822 -0.192993 0)
(34.3799 -0.187883 0)
(34.3758 -0.183251 0)
(34.3701 -0.17902 0)
(34.3629 -0.175124 0)
(34.3543 -0.171507 0)
(34.3445 -0.168123 0)
(34.3335 -0.164931 0)
(34.3213 -0.161897 0)
(34.3081 -0.158996 0)
(34.294 -0.156204 0)
(34.2789 -0.153503 0)
(34.263 -0.150879 0)
(34.2464 -0.14832 0)
(34.2289 -0.145817 0)
(34.2108 -0.143364 0)
(34.1921 -0.140955 0)
(34.1727 -0.138587 0)
(34.1528 -0.136255 0)
(34.1324 -0.133959 0)
(34.1115 -0.131697 0)
(34.0901 -0.129468 0)
(34.0684 -0.127272 0)
(34.0462 -0.125107 0)
(34.0237 -0.122971 0)
(34.0009 -0.120864 0)
(33.9778 -0.118785 0)
(33.9544 -0.116734 0)
(33.9308 -0.11471 0)
(33.9069 -0.112715 0)
(33.8828 -0.110748 0)
(33.8586 -0.108809 0)
(33.8342 -0.106899 0)
(33.8097 -0.105019 0)
(33.785 -0.103167 0)
(33.7603 -0.101345 0)
(33.7354 -0.099553 0)
(33.7105 -0.09779 0)
(33.6856 -0.0960567 0)
(33.6606 -0.0943522 0)
(33.6355 -0.0926771 0)
(33.6105 -0.0910308 0)
(33.5855 -0.0894137 0)
(33.5605 -0.0878251 0)
(33.5355 -0.0862658 0)
(33.5106 -0.0847347 0)
(33.4856 -0.0832326 0)
(33.4608 -0.0817582 0)
(33.436 -0.0803123 0)
(33.4114 -0.0788934 0)
(33.3867 -0.0775028 0)
(33.3622 -0.0761384 0)
(33.3378 -0.0748021 0)
(33.3135 -0.0734913 0)
(33.2893 -0.0722084 0)
(33.2652 -0.0709502 0)
(33.2413 -0.06972 0)
(33.2175 -0.0685133 0)
(33.1938 -0.067335 0)
(33.1703 -0.0661786 0)
(33.1469 -0.0650517 0)
(33.1236 -0.0639438 0)
(33.1006 -0.0628682 0)
(33.0776 -0.0618064 0)
(33.0549 -0.0607828 0)
(33.0323 -0.0597627 0)
(33.0098 -0.0587937 0)
(32.9876 -0.0578071 0)
(32.9655 -0.0568993 0)
(32.9435 -0.0559287 0)
(32.9219 -0.0550965 0)
(32.9001 -0.0541046 0)
(32.8791 -0.053378 0)
(32.8572 -0.0522837 0)
(32.8374 -0.051724 0)
(32.8145 -0.0503555 0)
(32.7972 -0.050084 0)
(32.7714 -0.0480793 0)
(32.7601 -0.0482849 0)
(32.7262 -0.0448246 0)
(29.6236 -0.11339 0)
(29.7234 -0.318382 0)
(29.8902 -0.500441 0)
(30.0957 -0.663296 0)
(30.3163 -0.806068 0)
(30.5312 -0.924809 0)
(30.7236 -1.01729 0)
(30.8801 -1.08399 0)
(30.994 -1.12732 0)
(31.062 -1.15005 0)
(31.0864 -1.15495 0)
(31.07 -1.14487 0)
(31.0177 -1.12228 0)
(30.9348 -1.08949 0)
(30.826 -1.04876 0)
(30.6962 -1.00218 0)
(30.5495 -0.951596 0)
(30.3901 -0.898534 0)
(30.2213 -0.844283 0)
(30.0461 -0.789916 0)
(29.8669 -0.736298 0)
(29.6857 -0.684147 0)
(29.5043 -0.634012 0)
(29.3237 -0.586284 0)
(29.1451 -0.541262 0)
(28.9692 -0.499123 0)
(28.7966 -0.459954 0)
(28.6275 -0.42376 0)
(28.4623 -0.390485 0)
(28.3011 -0.360026 0)
(28.1439 -0.332245 0)
(27.9907 -0.306989 0)
(27.8414 -0.284078 0)
(27.6961 -0.263338 0)
(27.5545 -0.24459 0)
(27.4166 -0.227658 0)
(27.2822 -0.212369 0)
(27.1513 -0.198559 0)
(27.0236 -0.186066 0)
(26.8992 -0.174738 0)
(26.7778 -0.164446 0)
(26.6593 -0.155078 0)
(26.5438 -0.146539 0)
(26.431 -0.138741 0)
(26.321 -0.131603 0)
(26.2136 -0.125055 0)
(26.1088 -0.119031 0)
(26.0065 -0.113477 0)
(25.9066 -0.10834 0)
(25.8091 -0.103577 0)
(25.714 -0.0991525 0)
(25.6211 -0.0950299 0)
(25.5305 -0.09118 0)
(25.4421 -0.0875769 0)
(25.3557 -0.0841974 0)
(25.2715 -0.0810212 0)
(25.1894 -0.0780305 0)
(25.1092 -0.0752091 0)
(25.031 -0.072543 0)
(24.9547 -0.0700198 0)
(24.8803 -0.0676282 0)
(24.8077 -0.0653586 0)
(24.7369 -0.0632027 0)
(24.6678 -0.0611544 0)
(24.6005 -0.0592091 0)
(24.5348 -0.0573615 0)
(24.4707 -0.0556056 0)
(24.4082 -0.0539352 0)
(24.3472 -0.0523447 0)
(24.2878 -0.0508285 0)
(24.2298 -0.0493821 0)
(24.1732 -0.0480009 0)
(24.1179 -0.046681 0)
(24.064 -0.0454188 0)
(24.0115 -0.0442111 0)
(23.9601 -0.0430548 0)
(23.91 -0.0419474 0)
(23.8611 -0.0408861 0)
(23.8133 -0.0398685 0)
(23.7667 -0.0388923 0)
(23.7211 -0.0379555 0)
(23.6766 -0.0370556 0)
(23.6331 -0.036191 0)
(23.5906 -0.0353597 0)
(23.5491 -0.0345603 0)
(23.5085 -0.0337912 0)
(23.4688 -0.0330512 0)
(23.4299 -0.0323388 0)
(23.392 -0.0316531 0)
(23.3548 -0.0309926 0)
(23.3185 -0.0303565 0)
(23.2829 -0.0297435 0)
(23.248 -0.0291529 0)
(23.214 -0.0285834 0)
(23.1806 -0.0280346 0)
(23.1479 -0.0275052 0)
(23.1158 -0.0269948 0)
(23.0844 -0.0265024 0)
(23.0536 -0.0260275 0)
(23.0235 -0.0255695 0)
(22.9939 -0.0251277 0)
(22.9649 -0.0247017 0)
(22.9364 -0.0242907 0)
(22.9085 -0.0238949 0)
(22.8811 -0.0235123 0)
(22.8542 -0.0231451 0)
(22.8278 -0.022788 0)
(22.8018 -0.0224483 0)
(22.7764 -0.0221119 0)
(22.7512 -0.0217992 0)
(22.7268 -0.0214737 0)
(22.7023 -0.0211876 0)
(22.6791 -0.0208518 0)
(22.6549 -0.0205899 0)
(22.6333 -0.0201996 0)
(22.6086 -0.0199473 0)
(22.59 -0.0194247 0)
(22.5627 -0.0191248 0)
(22.5508 -0.0184373 0)
(22.5154 -0.018042 0)
(29.5724 -0.0784732 0)
(29.3365 -0.30739 0)
(28.8616 -0.523385 0)
(28.1746 -0.698588 0)
(27.3305 -0.826271 0)
(26.3798 -0.904587 0)
(25.3638 -0.937241 0)
(24.3135 -0.931021 0)
(23.2573 -0.895404 0)
(22.2136 -0.837625 0)
(21.2042 -0.765825 0)
(20.2361 -0.687384 0)
(19.3188 -0.60503 0)
(18.4586 -0.522752 0)
(17.6579 -0.443722 0)
(16.9173 -0.369858 0)
(16.2365 -0.30231 0)
(15.614 -0.241642 0)
(15.0475 -0.187989 0)
(14.5343 -0.141195 0)
(14.0711 -0.100906 0)