/*--------------------------------*- C++ -*----------------------------------*\
  =========                 |
  \\      /  F ield         | OpenFOAM: The Open Source CFD Toolbox
   \\    /   O peration     | Website:  https://openfoam.org
    \\  /    A nd           | Version:  7
     \\/     M anipulation  |
\*---------------------------------------------------------------------------*/
FoamFile
{
    version     2.0;
    format      ascii;
    class       volVectorField;
    location    "1.0875";
    object      U_0;
}
// * * * * * * * * * * * * * * * * * * * * * * * * * * * * * * * * * * * * * //

dimensions      [0 1 -1 0 0 0 0];

internalField   nonuniform List<vector> 
4950
(
(3.51021 0.42042 -27.0311)
(2.79717 0.150153 -27.0718)
(2.04091 0.0442593 -27.0752)
(1.82911 -0.0242752 -27.0824)
(1.54872 -0.0453481 -27.0797)
(1.52878 -0.052161 -27.0828)
(1.37046 -0.0531217 -27.0793)
(1.39202 -0.0519321 -27.0813)
(1.27638 -0.0505272 -27.0785)
(1.30597 -0.0491534 -27.0803)
(1.21397 -0.0473797 -27.0786)
(1.24391 -0.04716 -27.0807)
(1.1685 -0.0438661 -27.08)
(1.19673 -0.0467114 -27.0821)
(1.13311 -0.037844 -27.0821)
(1.15909 -0.0479715 -27.0837)
(1.10235 -0.0163464 -27.0845)
(1.11531 -0.0455972 -27.0844)
(1.08938 0.0953847 -27.0877)
(0.857577 0.122665 -27.0779)
(4.60019 0.549465 -27.0562)
(4.78887 0.379425 -27.0902)
(4.49237 0.290756 -27.094)
(4.43033 0.191081 -27.1019)
(4.13124 0.134274 -27.1009)
(4.09292 0.102459 -27.1027)
(3.86127 0.082675 -27.099)
(3.854 0.0711928 -27.0978)
(3.67351 0.062499 -27.0936)
(3.68332 0.0569722 -27.0921)
(3.53898 0.0516326 -27.0895)
(3.55739 0.0491852 -27.0898)
(3.43853 0.0438805 -27.09)
(3.46237 0.0453469 -27.0918)
(3.35952 0.0347567 -27.0943)
(3.39397 0.0448324 -27.096)
(3.29209 0.015839 -27.1014)
(3.36848 0.0359129 -27.099)
(3.2279 -0.0196888 -27.1116)
(3.56571 -0.077445 -27.0828)
(4.71977 0.28912 -27.0577)
(5.20121 0.212174 -27.0863)
(5.31433 0.191155 -27.0831)
(5.55541 0.130963 -27.0891)
(5.50108 0.0938245 -27.0843)
(5.62046 0.0681608 -27.0859)
(5.5308 0.0497328 -27.0799)
(5.60575 0.0370121 -27.0793)
(5.51563 0.0271597 -27.0722)
(5.56882 0.019216 -27.0693)
(5.48659 0.0136374 -27.0623)
(5.52593 0.00761892 -27.06)
(5.45494 0.00526411 -27.0562)
(5.48186 -0.000660581 -27.0567)
(5.42666 0.00158727 -27.0569)
(5.43294 -0.00646146 -27.0591)
(5.40614 0.00698432 -27.0631)
(5.3601 -0.00545355 -27.0653)
(5.3788 0.0396271 -27.0741)
(5.21684 0.0528907 -27.0582)
(4.69786 0.169436 -27.0666)
(5.11836 0.131737 -27.0952)
(5.33154 0.124756 -27.0939)
(5.67509 0.0951496 -27.0975)
(5.74513 0.0765787 -27.0938)
(5.96902 0.0643718 -27.0932)
(5.98645 0.0554792 -27.0886)
(6.14476 0.0495806 -27.0865)
(6.14165 0.0444518 -27.081)
(6.26027 0.0405757 -27.0765)
(6.24688 0.0368101 -27.0694)
(6.33976 0.0341623 -27.0643)
(6.31944 0.030627 -27.0589)
(6.39748 0.0296563 -27.0568)
(6.36878 0.0243854 -27.0552)
(6.44593 0.0268181 -27.0558)
(6.40145 0.0153126 -27.0572)
(6.50869 0.0210122 -27.0596)
(6.43529 0.00386384 -27.0647)
(6.6687 -0.0117882 -27.0485)
(4.69913 -1.81888e-08 -27.0617)
(5.11467 1.21422e-07 -27.0891)
(5.33798 3.70321e-08 -27.0846)
(5.69689 4.05565e-07 -27.0887)
(5.7822 1.3219e-07 -27.0826)
(6.02283 8.89315e-07 -27.0829)
(6.06015 4.67841e-07 -27.0762)
(6.23801 1.97791e-06 -27.0753)
(6.25823 1.96161e-06 -27.0683)
(6.39628 5.02673e-06 -27.0649)
(6.40776 6.51223e-06 -27.0564)
(6.51579 1.56313e-05 -27.052)
(6.52344 1.65894e-05 -27.045)
(6.60501 5.51276e-05 -27.0433)
(6.61621 3.22642e-05 -27.0402)
(6.66413 0.000187477 -27.0412)
(6.69464 6.85549e-05 -27.0411)
(6.68034 0.000537487 -27.044)
(6.74376 0.000232274 -27.0474)
(6.62791 0.000861845 -27.0324)
(4.69786 -0.169436 -27.0666)
(5.11836 -0.131737 -27.0952)
(5.33154 -0.124756 -27.0939)
(5.6751 -0.095149 -27.0975)
(5.74513 -0.0765782 -27.0938)
(5.96902 -0.0643705 -27.0932)
(5.98645 -0.0554778 -27.0886)
(6.14476 -0.0495781 -27.0865)
(6.14165 -0.0444466 -27.081)
(6.26028 -0.04057 -27.0766)
(6.24688 -0.0367941 -27.0693)
(6.33979 -0.0341457 -27.0643)
(6.31945 -0.0305858 -27.0588)
(6.39755 -0.0295968 -27.0569)
(6.36883 -0.0242922 -27.0551)
(6.44607 -0.0266141 -27.0559)
(6.40167 -0.0150971 -27.057)
(6.509 -0.0204385 -27.0599)
(6.43588 -0.00312859 -27.0644)
(6.66951 0.0132043 -27.0488)
(4.71977 -0.28912 -27.0577)
(5.20121 -0.212174 -27.0863)
(5.31433 -0.191155 -27.0831)
(5.55541 -0.130962 -27.0891)
(5.50107 -0.0938241 -27.0843)
(5.62046 -0.0681595 -27.0859)
(5.5308 -0.0497319 -27.0799)
(5.60576 -0.0370092 -27.0793)
(5.51563 -0.0271566 -27.0722)
(5.56884 -0.0192087 -27.0694)
(5.48659 -0.0136285 -27.0622)
(5.52599 -0.00759655 -27.0601)
(5.45494 -0.00524422 -27.056)
(5.48201 0.000737155 -27.057)
(5.42672 -0.00156019 -27.0564)
(5.4333 0.00671379 -27.0598)
(5.40644 -0.00695689 -27.0619)
(5.36096 0.00614681 -27.0671)
(5.37995 -0.0393643 -27.0715)
(5.2193 -0.0514188 -27.0618)
(4.60019 -0.549465 -27.0562)
(4.78887 -0.379425 -27.0902)
(4.49237 -0.290756 -27.094)
(4.43033 -0.191081 -27.1019)
(4.13124 -0.134274 -27.1008)
(4.09293 -0.102459 -27.1027)
(3.86127 -0.0826738 -27.099)
(3.85401 -0.0711922 -27.0978)
(3.67352 -0.0624955 -27.0936)
(3.68334 -0.056971 -27.0922)
(3.53899 -0.0516229 -27.0894)
(3.55745 -0.0491807 -27.09)
(3.43857 -0.0438569 -27.0897)
(3.46253 -0.0453242 -27.0922)
(3.35969 -0.0347025 -27.0937)
(3.39432 -0.0447382 -27.097)
(3.29271 -0.0157129 -27.0996)
(3.36925 -0.0356381 -27.1024)
(3.22957 0.0200791 -27.1051)
(3.56785 0.0776628 -27.0953)
(3.51021 -0.42042 -27.0311)
(2.79717 -0.150153 -27.0718)
(2.04091 -0.0442592 -27.0752)
(1.82911 0.0242754 -27.0824)
(1.54872 0.0453482 -27.0797)
(1.52878 0.0521614 -27.0828)
(1.37046 0.0531216 -27.0793)
(1.39202 0.0519328 -27.0813)
(1.27638 0.0505266 -27.0785)
(1.30598 0.0491548 -27.0803)
(1.21398 0.0473772 -27.0786)
(1.24394 0.0471626 -27.0808)
(1.16853 0.0438577 -27.0799)
(1.19682 0.0467197 -27.0822)
(1.13321 0.037828 -27.0819)
(1.1593 0.0479877 -27.084)
(1.10273 0.016308 -27.0839)
(1.11579 0.0456388 -27.0855)
(1.09053 -0.0953318 -27.0854)
(0.859458 -0.122111 -27.0849)
(4.49643 0.192946 0.005088)
(3.72588 0.281824 0.00345857)
(3.11881 0.2436 0.00425415)
(2.52837 0.166628 0.0032037)
(2.25246 0.116234 0.0039671)
(1.96635 0.0826039 0.00313433)
(1.88348 0.0666439 0.00381241)
(1.73222 0.0577133 0.00310217)
(1.71004 0.0537561 0.00368054)
(1.61184 0.0516831 0.00306375)
(1.60569 0.0501057 0.00355258)
(1.53397 0.0503242 0.00301697)
(1.53213 0.0476494 0.00343078)
(1.47697 0.0509846 0.00296724)
(1.47644 0.0416334 0.00331903)
(1.43472 0.0548115 0.00291817)
(1.43025 0.014651 0.00322177)
(1.43404 0.0604004 0.00286926)
(1.36691 -0.130357 0.00316884)
(1.79305 -0.173856 0.00276404)
(4.63318 0.110018 0.00320277)
(4.6624 0.234957 0.00188572)
(4.80121 0.214981 0.00264005)
(4.66268 0.161901 0.00160304)
(4.63415 0.106307 0.00236072)
(4.45834 0.0626018 0.00152556)
(4.40869 0.0336686 0.00219992)
(4.26152 0.0153835 0.00148762)
(4.22123 0.00353268 0.00206335)
(4.10525 -0.00410571 0.00144583)
(4.07446 -0.00938113 0.00193263)
(3.98249 -0.0141649 0.00139763)
(3.95946 -0.0153641 0.0018086)
(3.88332 -0.0214965 0.00134804)
(3.87014 -0.0154569 0.00169289)
(3.79565 -0.0288917 0.00130024)
(3.80731 -0.00553639 0.00157978)
(3.6887 -0.0278152 0.00124745)
(3.78353 0.0089276 0.0014411)
(3.35516 0.0647882 0.00106587)
(4.56438 0.0616697 0.00450917)
(4.71962 0.187534 0.00328396)
(5.05349 0.219366 0.00400582)
(5.16471 0.197079 0.00295713)
(5.35634 0.166796 0.00370318)
(5.37026 0.13542 0.00286216)
(5.46153 0.113736 0.00353714)
(5.43601 0.0971299 0.00282517)
(5.48297 0.0855009 0.00340405)
(5.44898 0.0767744 0.00278757)
(5.47489 0.0693701 0.00327752)
(5.44281 0.0643486 0.00274238)
(5.45535 0.0581298 0.00315762)
(5.4308 0.0561098 0.00269363)
(5.42882 0.0477371 0.00304925)
(5.42373 0.0507009 0.00264564)
(5.39322 0.0286275 0.00296334)
(5.44226 0.0419326 0.00260221)
(5.36009 -0.036257 0.00295273)
(5.51254 -0.048263 0.00256977)
(4.52178 0.0291633 0.00303564)
(4.58168 0.0725191 0.00192709)
(4.93804 0.0769467 0.00263832)
(5.10426 0.0693122 0.00161097)
(5.38029 0.0564462 0.00235271)
(5.48182 0.0439315 0.00151154)
(5.65816 0.0346602 0.00218209)
(5.71444 0.0278732 0.00146857)
(5.83438 0.0229809 0.00204434)
(5.86947 0.0192772 0.00142772)
(5.95706 0.0163167 0.00191502)
(5.98033 0.0135274 0.0013813)
(6.04803 0.0118908 0.00179174)
(6.06094 0.00878196 0.00133223)
(6.11883 0.00944687 0.00167461)
(6.11336 0.00454702 0.00128319)
(6.17708 0.0093739 0.00155478)
(6.11319 0.00441458 0.00122256)
(6.21164 0.00655766 0.00137918)
(5.92878 0.0302091 0.0010598)
(4.55409 -3.21858e-08 0.00442007)
(4.66548 7.87363e-08 0.00331364)
(4.99386 -2.09936e-08 0.00401348)
(5.15063 2.22898e-07 0.00297033)
(5.41833 4.32492e-08 0.00370768)
(5.52337 5.16512e-07 0.00286229)
(5.70699 4.96633e-07 0.0035348)
(5.77529 1.21933e-06 0.00282146)
(5.90862 2.25168e-06 0.00340038)
(5.96047 2.90279e-06 0.00278409)
(6.0629 7.28813e-06 0.00327468)
(6.1066 8.02555e-06 0.00273996)
(6.18543 1.97798e-05 0.00315562)
(6.22669 2.42541e-05 0.00269169)
(6.28135 5.06099e-05 0.00304804)
(6.33218 6.54005e-05 0.00264395)
(6.35209 0.000143344 0.00296634)
(6.43792 0.000173386 0.00260191)
(6.42135 0.000477306 0.00297042)
(6.53402 0.000680354 0.0025933)
(4.52178 -0.0291633 0.00303564)
(4.58168 -0.0725189 0.00192709)
(4.93804 -0.0769468 0.00263832)
(5.10426 -0.0693115 0.00161097)
(5.38029 -0.0564464 0.00235271)
(5.48182 -0.0439298 0.00151154)
(5.65816 -0.0346601 0.00218209)
(5.71444 -0.027869 0.00146857)
(5.83437 -0.022979 0.00204434)
(5.86948 -0.0192662 0.00142772)
(5.95706 -0.0163091 0.00191501)
(5.98035 -0.0134956 0.0013813)
(6.04803 -0.0118704 0.00179173)
(6.06099 -0.00868254 0.00133223)
(6.11885 -0.00940179 0.00167459)
(6.11348 -0.00424782 0.00128318)
(6.17719 -0.00924894 0.00155473)
(6.11351 -0.00361627 0.00122249)
(6.21216 -0.00612623 0.00137926)
(5.9297 -0.0284759 0.00105964)
(4.56438 -0.0616697 0.00450917)
(4.71962 -0.187534 0.00328396)
(5.05349 -0.219366 0.00400582)
(5.16471 -0.197078 0.00295713)
(5.35633 -0.166796 0.00370317)
(5.37027 -0.135419 0.00286216)
(5.46152 -0.113735 0.00353714)
(5.43602 -0.097128 0.00282518)
(5.48296 -0.0854966 0.00340404)
(5.449 -0.0767695 0.00278758)
(5.47489 -0.0693564 0.0032775)
(5.44286 -0.0643338 0.0027424)
(5.45536 -0.0580931 0.00315759)
(5.43092 -0.0560601 0.00269367)
(5.4289 -0.0476444 0.00304918)
(5.42402 -0.0505478 0.00264573)
(5.39353 -0.0283641 0.00296319)
(5.44293 -0.0415486 0.00260238)
(5.3611 0.0371154 0.00295234)
(5.51432 0.04917 0.00256977)
(4.63318 -0.110018 0.00320277)
(4.6624 -0.234957 0.00188572)
(4.80121 -0.214981 0.00264005)
(4.66269 -0.161901 0.00160304)
(4.63414 -0.106307 0.00236072)
(4.45834 -0.062601 0.00152556)
(4.40869 -0.0336682 0.00219992)
(4.26153 -0.0153814 0.00148762)
(4.22123 -0.00353119 0.00206335)
(4.10528 0.00411113 0.00144583)
(4.07446 0.00938533 0.00193262)
(3.98256 0.0141809 0.00139764)
(3.95947 0.0153724 0.00180857)
(3.88352 0.0215472 0.00134807)
(3.87021 0.0154672 0.00169282)
(3.79615 0.0290415 0.0013003)
(3.80757 0.00555369 0.00157962)
(3.69013 0.0282106 0.00124753)
(3.78428 -0.00870563 0.0014409)
(3.35969 -0.0636823 0.00106594)
(4.49643 -0.192946 0.00508801)
(3.72588 -0.281824 0.00345858)
(3.11881 -0.2436 0.00425416)
(2.52837 -0.166628 0.00320371)
(2.25246 -0.116234 0.00396711)
(1.96635 -0.082604 0.00313434)
(1.88348 -0.0666433 0.00381242)
(1.73222 -0.0577137 0.00310218)
(1.71005 -0.0537543 0.00368055)
(1.61186 -0.051684 0.00306377)
(1.60571 -0.0501004 0.00355259)
(1.53401 -0.050326 0.00301699)
(1.53218 -0.0476353 0.00343077)
(1.47707 -0.0509851 0.0029673)
(1.47661 -0.0415986 0.00331897)
(1.43497 -0.0548001 0.00291833)
(1.43078 -0.0145774 0.0032215)
(1.43467 -0.0603858 0.00286972)
(1.36819 0.130387 0.00316772)
(1.79539 0.173212 0.00276612)
(4.45461 0.0663849 -1.05306e-08)
(4.21777 0.122517 -1.0431e-08)
(3.83692 0.134253 -1.0318e-08)
(3.46518 0.119652 -1.01989e-08)
(3.09965 0.0948296 -1.02452e-08)
(2.7965 0.0703423 -1.0184e-08)
(2.54255 0.047295 -1.01909e-08)
(2.3462 0.02999 -1.0045e-08)
(2.19701 0.0157728 -1.00764e-08)
(2.08087 0.00675159 -1.00961e-08)
(1.99971 -0.000690641 -1.02965e-08)
(1.93044 -0.0040712 -1.03859e-08)
(1.88653 -0.00815352 -1.06081e-08)
(1.84291 -0.00774409 -1.07193e-08)
(1.81597 -0.0117932 -1.09714e-08)
(1.79126 -0.0073011 -1.10322e-08)
(1.76201 -0.0159935 -1.11787e-08)
(1.77135 -0.00696352 -1.10631e-08)
(1.70902 -0.0279583 -1.10994e-08)
(1.80784 -0.0561047 -1.08491e-08)
(4.513 0.0585119 -1.01255e-08)
(4.64052 0.113176 -1.00102e-08)
(4.73059 0.146405 -1.01014e-08)
(4.80568 0.157769 -1.03122e-08)
(4.82125 0.154159 -1.0664e-08)
(4.81472 0.139236 -1.0805e-08)
(4.77911 0.120957 -1.08138e-08)
(4.73265 0.100896 -1.05781e-08)
(4.6803 0.0842482 -1.05001e-08)
(4.62252 0.068941 -1.04451e-08)
(4.57078 0.0582398 -1.06212e-08)
(4.51396 0.0482738 -1.06866e-08)
(4.46915 0.0424112 -1.0847e-08)
(4.41703 0.0359073 -1.08415e-08)
(4.38145 0.0327675 -1.09969e-08)
(4.33385 0.0292023 -1.10826e-08)
(4.30858 0.0251652 -1.12709e-08)
(4.26411 0.0286486 -1.13738e-08)
(4.24494 0.0156407 -1.14289e-08)
(4.20274 0.0352041 -1.12453e-08)
(4.50266 0.0221066 -1.01246e-08)
(4.61749 0.0570067 -9.99901e-09)
(4.73386 0.0844432 -1.00157e-08)
(4.89372 0.0989817 -1.01223e-08)
(5.03153 0.10214 -1.03527e-08)
(5.16767 0.0977836 -1.03882e-08)
(5.27532 0.0882797 -1.04162e-08)
(5.36594 0.0778932 -1.0352e-08)
(5.43606 0.0672355 -1.04977e-08)
(5.48969 0.0584021 -1.06064e-08)
(5.5327 0.0503914 -1.08369e-08)
(5.564 0.0445854 -1.08283e-08)
(5.59003 0.038766 -1.07832e-08)
(5.6102 0.0357171 -1.05188e-08)
(5.62472 0.030108 -1.04085e-08)
(5.64121 0.0306181 -1.03744e-08)
(5.64711 0.0209138 -1.05103e-08)
(5.663 0.0274524 -1.06331e-08)
(5.66652 0.00595315 -1.07441e-08)
(5.67303 0.00855695 -1.06214e-08)
(4.50105 0.0176983 -1.01072e-08)
(4.5915 0.0347163 -1.00331e-08)
(4.69498 0.0465781 -1.0075e-08)
(4.84996 0.0524815 -1.01375e-08)
(4.99703 0.0544276 -1.02541e-08)
(5.15444 0.0526167 -1.02015e-08)
(5.29292 0.0491438 -1.01995e-08)
(5.42122 0.0443884 -1.01419e-08)
(5.53345 0.0400925 -1.03016e-08)
(5.63103 0.0358097 -1.04231e-08)
(5.72023 0.032624 -1.06435e-08)
(5.79555 0.0296115 -1.06412e-08)
(5.86929 0.0275012 -1.06366e-08)
(5.92916 0.0256042 -1.04548e-08)
(5.99418 0.0237419 -1.03962e-08)
(6.03977 0.0234835 -1.03339e-08)
(6.10505 0.0197651 -1.04185e-08)
(6.12626 0.02409 -1.03928e-08)
(6.20731 0.0143141 -1.0484e-08)
(6.17362 0.0285992 -1.01745e-08)
(4.50171 -5.14752e-08 -1.01156e-08)
(4.60393 1.43354e-07 -1.00554e-08)
(4.70851 -1.04787e-07 -1.01079e-08)
(4.86246 3.7087e-07 -1.01467e-08)
(5.00563 -8.78221e-08 -1.02227e-08)
(5.16136 8.75556e-07 -1.01538e-08)
(5.29997 3.72791e-07 -1.01972e-08)
(5.43137 2.0097e-06 -1.01896e-08)
(5.54804 2.21554e-06 -1.03456e-08)
(5.65259 4.95751e-06 -1.03614e-08)
(5.74867 7.07245e-06 -1.04217e-08)
(5.83397 1.47054e-05 -1.03033e-08)
(5.91539 1.66039e-05 -1.03025e-08)
(5.98838 4.71987e-05 -1.02337e-08)
(6.06013 3.49736e-05 -1.03501e-08)
(6.12294 0.000135607 -1.03461e-08)
(6.19287 9.52861e-05 -1.04175e-08)
(6.23619 0.000322006 -1.03352e-08)
(6.32824 0.000347457 -1.02896e-08)
(6.31821 0.000642433 -1.01723e-08)
(4.50105 -0.0176984 -1.01082e-08)
(4.5915 -0.034716 -1.00688e-08)
(4.69498 -0.0465783 -1.01245e-08)
(4.84996 -0.0524807 -1.01416e-08)
(4.99703 -0.0544279 -1.01702e-08)
(5.15445 -0.0526148 -1.00948e-08)
(5.29292 -0.0491435 -1.01802e-08)
(5.42122 -0.0443838 -1.02188e-08)
(5.53344 -0.0400894 -1.03456e-08)
(5.63104 -0.0357982 -1.02368e-08)
(5.72023 -0.0326137 -1.01286e-08)
(5.79557 -0.029578 -9.91286e-09)
(5.8693 -0.0274773 -9.94241e-09)
(5.92918 -0.025501 -1.00123e-08)
(5.99422 -0.0236927 -1.02984e-08)
(6.03983 -0.0231953 -1.03324e-08)
(6.10519 -0.0196199 -1.03877e-08)
(6.12639 -0.0234165 -1.02376e-08)
(6.20773 -0.0137226 -1.01117e-08)
(6.17405 -0.027283 -1.02198e-08)
(4.50266 -0.0221067 -1.01149e-08)
(4.61749 -0.0570065 -1.01206e-08)
(4.73386 -0.0844433 -1.01964e-08)
(4.89373 -0.0989811 -1.01478e-08)
(5.03153 -0.10214 -1.00689e-08)
(5.16767 -0.097782 -9.92231e-09)
(5.27532 -0.088279 -1.00063e-08)
(5.36594 -0.0778895 -1.00359e-08)
(5.43605 -0.0672317 -1.01336e-08)
(5.48971 -0.058393 -9.9852e-09)
(5.53269 -0.0503792 -9.86546e-09)
(5.56404 -0.0445591 -9.71004e-09)
(5.59003 -0.0387377 -9.84579e-09)
(5.61031 -0.0356335 -1.00406e-08)
(5.62478 -0.0300518 -1.03255e-08)
(5.64143 -0.0303788 -1.02848e-08)
(5.64739 -0.0207647 -1.02438e-08)
(5.66351 -0.0268946 -9.95514e-09)
(5.66744 -0.00539153 -9.92431e-09)
(5.67432 -0.00751224 -9.88083e-09)
(4.513 -0.0585119 -1.01189e-08)
(4.64052 -0.113176 -1.01205e-08)
(4.73059 -0.146405 -1.0086e-08)
(4.80568 -0.157769 -9.89583e-09)
(4.82124 -0.154158 -9.68692e-09)
(4.81473 -0.139235 -9.48176e-09)
(4.77911 -0.120956 -9.61053e-09)
(4.73266 -0.100893 -9.79164e-09)
(4.6803 -0.0842454 -1.00544e-08)
(4.62256 -0.068934 -1.0034e-08)
(4.57077 -0.0582326 -9.99755e-09)
(4.51406 -0.0482524 -9.83046e-09)
(4.46914 -0.042398 -9.82705e-09)
(4.41728 -0.0358393 -9.74925e-09)
(4.38149 -0.0327482 -9.72008e-09)
(4.3344 -0.029013 -9.52567e-09)
(4.30886 -0.0251079 -9.40637e-09)
(4.26538 -0.028227 -9.24708e-09)
(4.24592 -0.0153315 -9.30223e-09)
(4.2059 -0.0344671 -9.2579e-09)
(4.45461 -0.0663848 -1.00051e-08)
(4.21777 -0.122517 -9.94501e-09)
(3.83692 -0.134253 -1.00538e-08)
(3.46518 -0.119652 -1.01467e-08)
(3.09965 -0.0948293 -1.02532e-08)
(2.7965 -0.0703423 -1.031e-08)
(2.54255 -0.0472941 -1.0517e-08)
(2.34621 -0.0299902 -1.0629e-08)
(2.19701 -0.0157701 -1.07494e-08)
(2.08089 -0.00675207 -1.061e-08)
(1.99973 0.000697183 -1.05288e-08)
(1.93051 0.0040717 -1.03253e-08)
(1.88659 0.00816647 -1.02542e-08)
(1.84308 0.00775317 -1.00462e-08)
(1.81618 0.0118144 -9.94957e-09)
(1.79166 0.00733799 -9.7916e-09)
(1.7626 0.0160369 -9.79776e-09)
(1.77246 0.00704153 -9.82426e-09)
(1.71009 0.0281133 -9.97938e-09)
(1.81193 0.0560192 -1.01744e-08)
(4.49643 0.192946 -0.00508803)
(3.72588 0.281824 -0.0034586)
(3.11881 0.2436 -0.00425418)
(2.52837 0.166628 -0.00320373)
(2.25246 0.116234 -0.00396712)
(1.96635 0.0826038 -0.00313435)
(1.88348 0.0666439 -0.00381244)
(1.73222 0.0577133 -0.00310219)
(1.71004 0.0537561 -0.00368057)
(1.61184 0.0516831 -0.00306378)
(1.60569 0.0501057 -0.00355261)
(1.53397 0.0503242 -0.003017)
(1.53213 0.0476493 -0.00343081)
(1.47697 0.0509845 -0.00296727)
(1.47644 0.0416333 -0.00331906)
(1.43472 0.0548115 -0.0029182)
(1.43025 0.0146509 -0.0032218)
(1.43404 0.0604003 -0.00286928)
(1.36691 -0.130357 -0.00316887)
(1.79305 -0.173856 -0.00276406)
(4.63318 0.110018 -0.00320278)
(4.6624 0.234957 -0.00188574)
(4.80121 0.214981 -0.00264007)
(4.66268 0.161901 -0.00160305)
(4.63414 0.106307 -0.00236074)
(4.45834 0.0626018 -0.00152558)
(4.40869 0.0336686 -0.00219994)
(4.26152 0.0153835 -0.00148764)
(4.22122 0.00353266 -0.00206337)
(4.10525 -0.00410572 -0.00144585)
(4.07446 -0.00938113 -0.00193265)
(3.98249 -0.0141649 -0.00139765)
(3.95946 -0.015364 -0.00180862)
(3.88332 -0.0214964 -0.00134805)
(3.87014 -0.0154567 -0.00169291)
(3.79565 -0.0288916 -0.00130026)
(3.80731 -0.00553625 -0.0015798)
(3.6887 -0.0278151 -0.00124747)
(3.78353 0.00892773 -0.00144112)
(3.35516 0.0647882 -0.00106589)
(4.56438 0.0616697 -0.00450919)
(4.71962 0.187534 -0.00328397)
(5.05349 0.219366 -0.00400584)
(5.16471 0.197079 -0.00295714)
(5.35634 0.166796 -0.00370319)
(5.37026 0.13542 -0.00286217)
(5.46153 0.113736 -0.00353716)
(5.43601 0.09713 -0.00282519)
(5.48297 0.085501 -0.00340407)
(5.44898 0.0767745 -0.00278759)
(5.47489 0.0693702 -0.00327753)
(5.44281 0.0643487 -0.0027424)
(5.45535 0.0581299 -0.00315764)
(5.4308 0.0561099 -0.00269364)
(5.42882 0.0477371 -0.00304926)
(5.42373 0.0507009 -0.00264566)
(5.39322 0.0286275 -0.00296336)
(5.44226 0.0419326 -0.00260223)
(5.36009 -0.036257 -0.00295275)
(5.51253 -0.048263 -0.00256979)
(4.52178 0.0291633 -0.00303566)
(4.58168 0.0725191 -0.00192711)
(4.93804 0.0769467 -0.00263833)
(5.10426 0.0693122 -0.00161099)
(5.38029 0.0564462 -0.00235272)
(5.48182 0.0439315 -0.00151156)
(5.65816 0.0346602 -0.00218211)
(5.71444 0.0278732 -0.00146859)
(5.83438 0.022981 -0.00204436)
(5.86947 0.0192773 -0.00142774)
(5.95706 0.0163168 -0.00191504)
(5.98033 0.0135275 -0.00138132)
(6.04803 0.0118909 -0.00179176)
(6.06094 0.00878214 -0.00133225)
(6.11883 0.00944701 -0.00167463)
(6.11336 0.00454715 -0.00128321)
(6.17708 0.00937401 -0.0015548)
(6.11319 0.00441468 -0.00122257)
(6.21164 0.00655774 -0.0013792)
(5.92878 0.0302092 -0.00105982)
(4.55409 -2.69265e-08 -0.00442009)
(4.66548 8.55291e-08 -0.00331366)
(4.99386 -9.96288e-09 -0.0040135)
(5.15063 2.47012e-07 -0.00297034)
(5.41833 9.34282e-08 -0.0037077)
(5.52337 5.89772e-07 -0.00286231)
(5.70699 5.77133e-07 -0.00353481)
(5.77529 1.29944e-06 -0.00282148)
(5.90862 2.33727e-06 -0.0034004)
(5.96047 3.00924e-06 -0.00278411)
(6.0629 7.42224e-06 -0.00327469)
(6.1066 8.17716e-06 -0.00273998)
(6.18543 1.99239e-05 -0.00315563)
(6.22669 2.43617e-05 -0.00269171)
(6.28135 5.06659e-05 -0.00304805)
(6.33218 6.54136e-05 -0.00264397)
(6.35209 0.000143335 -0.00296636)
(6.43792 0.000173366 -0.00260193)
(6.42135 0.000477307 -0.00297044)
(6.53402 0.000680343 -0.00259331)
(4.52178 -0.0291633 -0.00303566)
(4.58168 -0.0725189 -0.00192711)
(4.93804 -0.0769468 -0.00263833)
(5.10426 -0.0693115 -0.00161099)
(5.38029 -0.0564463 -0.00235272)
(5.48182 -0.0439298 -0.00151156)
(5.65816 -0.03466 -0.00218211)
(5.71444 -0.0278689 -0.00146859)
(5.83437 -0.0229789 -0.00204435)
(5.86948 -0.0192662 -0.00142774)
(5.95706 -0.016309 -0.00191503)
(5.98035 -0.0134954 -0.00138132)
(6.04803 -0.0118703 -0.00179175)
(6.06099 -0.00868237 -0.00133225)
(6.11885 -0.00940164 -0.00167461)
(6.11348 -0.00424769 -0.00128319)
(6.17719 -0.00924884 -0.00155475)
(6.11351 -0.00361616 -0.00122251)
(6.21216 -0.00612615 -0.00137928)
(5.9297 -0.0284758 -0.00105966)
(4.56438 -0.0616697 -0.00450919)
(4.71962 -0.187534 -0.00328398)
(5.05349 -0.219366 -0.00400584)
(5.16471 -0.197078 -0.00295714)
(5.35633 -0.166796 -0.00370319)
(5.37027 -0.135419 -0.00286218)
(5.46152 -0.113734 -0.00353716)
(5.43602 -0.0971279 -0.0028252)
(5.48296 -0.0854965 -0.00340406)
(5.449 -0.0767694 -0.0027876)
(5.47489 -0.0693563 -0.00327752)
(5.44286 -0.0643337 -0.00274242)
(5.45536 -0.058093 -0.00315761)
(5.43092 -0.05606 -0.00269368)
(5.4289 -0.0476444 -0.0030492)
(5.42402 -0.0505478 -0.00264575)
(5.39353 -0.0283641 -0.0029632)
(5.44293 -0.0415486 -0.00260239)
(5.3611 0.0371154 -0.00295235)
(5.51432 0.04917 -0.00256978)
(4.63318 -0.110018 -0.00320278)
(4.6624 -0.234957 -0.00188574)
(4.80121 -0.214981 -0.00264007)
(4.66269 -0.161901 -0.00160305)
(4.63414 -0.106307 -0.00236074)
(4.45834 -0.062601 -0.00152558)
(4.40869 -0.0336682 -0.00219994)
(4.26153 -0.0153815 -0.00148764)
(4.22123 -0.00353121 -0.00206337)
(4.10528 0.00411112 -0.00144585)
(4.07446 0.00938534 -0.00193264)
(3.98256 0.0141809 -0.00139766)
(3.95947 0.0153724 -0.00180859)
(3.88352 0.0215473 -0.00134808)
(3.87021 0.0154673 -0.00169284)
(3.79616 0.0290417 -0.00130032)
(3.80757 0.00555384 -0.00157964)
(3.69013 0.0282107 -0.00124755)
(3.78428 -0.0087055 -0.00144091)
(3.35969 -0.0636822 -0.00106595)
(4.49643 -0.192946 -0.00508802)
(3.72588 -0.281824 -0.00345858)
(3.11881 -0.2436 -0.00425417)
(2.52837 -0.166628 -0.00320372)
(2.25246 -0.116234 -0.00396711)
(1.96635 -0.082604 -0.00313435)
(1.88348 -0.0666433 -0.00381243)
(1.73222 -0.0577137 -0.00310219)
(1.71005 -0.0537543 -0.00368056)
(1.61186 -0.051684 -0.00306378)
(1.60571 -0.0501004 -0.00355259)
(1.53401 -0.050326 -0.003017)
(1.53218 -0.0476353 -0.00343077)
(1.47707 -0.0509851 -0.0029673)
(1.47661 -0.0415987 -0.00331898)
(1.43497 -0.0548002 -0.00291833)
(1.43078 -0.0145774 -0.00322151)
(1.43467 -0.0603859 -0.00286972)
(1.36819 0.130387 -0.00316772)
(1.79539 0.173212 -0.00276613)
(3.51021 0.42042 27.0311)
(2.79717 0.150153 27.0718)
(2.04091 0.0442592 27.0752)
(1.82911 -0.0242753 27.0824)
(1.54872 -0.0453483 27.0797)
(1.52878 -0.0521612 27.0828)
(1.37046 -0.0531219 27.0793)
(1.39202 -0.0519323 27.0813)
(1.27638 -0.0505274 27.0785)
(1.30597 -0.0491535 27.0803)
(1.21397 -0.0473798 27.0786)
(1.24391 -0.0471601 27.0807)
(1.1685 -0.0438662 27.08)
(1.19673 -0.0467115 27.0821)
(1.13311 -0.037844 27.0821)
(1.15909 -0.0479715 27.0837)
(1.10235 -0.0163464 27.0845)
(1.11531 -0.0455972 27.0844)
(1.08938 0.0953847 27.0877)
(0.857577 0.122665 27.0779)
(4.60019 0.549465 27.0562)
(4.78887 0.379425 27.0902)
(4.49237 0.290756 27.094)
(4.43033 0.191081 27.1019)
(4.13124 0.134274 27.1009)
(4.09292 0.102459 27.1027)
(3.86127 0.0826748 27.099)
(3.85401 0.0711926 27.0978)
(3.67351 0.0624988 27.0936)
(3.68332 0.056972 27.0921)
(3.53898 0.0516324 27.0895)
(3.55739 0.0491851 27.0898)
(3.43853 0.0438804 27.09)
(3.46237 0.0453467 27.0918)
(3.35952 0.0347566 27.0943)
(3.39397 0.0448322 27.096)
(3.29209 0.0158389 27.1014)
(3.36848 0.0359128 27.099)
(3.2279 -0.019689 27.1116)
(3.56571 -0.0774451 27.0828)
(4.71977 0.28912 27.0577)
(5.20121 0.212174 27.0863)
(5.31433 0.191155 27.0831)
(5.55541 0.130963 27.0891)
(5.50108 0.0938243 27.0843)
(5.62046 0.0681605 27.0859)
(5.5308 0.0497325 27.0799)
(5.60575 0.0370119 27.0793)
(5.51563 0.0271594 27.0723)
(5.56882 0.0192158 27.0693)
(5.48659 0.0136372 27.0623)
(5.52593 0.00761879 27.06)
(5.45494 0.00526401 27.0562)
(5.48186 -0.000660634 27.0567)
(5.42666 0.00158725 27.0569)
(5.43294 -0.00646146 27.0591)
(5.40614 0.00698435 27.0631)
(5.3601 -0.0054535 27.0653)
(5.3788 0.0396271 27.0741)
(5.21684 0.0528908 27.0582)
(4.69786 0.169436 27.0666)
(5.11836 0.131737 27.0952)
(5.33154 0.124756 27.0939)
(5.67509 0.0951494 27.0975)
(5.74513 0.0765785 27.0938)
(5.96902 0.0643715 27.0932)
(5.98645 0.0554789 27.0886)
(6.14476 0.0495804 27.0865)
(6.14165 0.0444515 27.081)
(6.26027 0.0405755 27.0765)
(6.24688 0.0368099 27.0694)
(6.33976 0.0341622 27.0643)
(6.31944 0.0306269 27.0589)
(6.39748 0.0296562 27.0568)
(6.36878 0.0243853 27.0552)
(6.44593 0.026818 27.0558)
(6.40145 0.0153124 27.0572)
(6.50869 0.0210121 27.0596)
(6.43529 0.00386372 27.0647)
(6.6687 -0.0117882 27.0485)
(4.69913 -1.77202e-08 27.0617)
(5.11467 8.36847e-08 27.0891)
(5.33798 -8.63046e-08 27.0846)
(5.69689 1.99814e-07 27.0887)
(5.7822 -1.25536e-07 27.0826)
(6.02283 6.08327e-07 27.0829)
(6.06015 1.86547e-07 27.0762)
(6.23801 1.71319e-06 27.0753)
(6.25823 1.71686e-06 27.0683)
(6.39628 4.8093e-06 27.0649)
(6.40776 6.32526e-06 27.0564)
(6.51579 1.54897e-05 27.052)
(6.52344 1.6488e-05 27.045)
(6.60501 5.50771e-05 27.0432)
(6.6162 3.22208e-05 27.0402)
(6.66413 0.000187456 27.0412)
(6.69464 6.8515e-05 27.0411)
(6.68034 0.000537492 27.044)
(6.74376 0.000232296 27.0474)
(6.62791 0.000861945 27.0324)
(4.69786 -0.169436 27.0666)
(5.11836 -0.131737 27.0952)
(5.33154 -0.124756 27.0939)
(5.6751 -0.0951492 27.0975)
(5.74513 -0.0765785 27.0938)
(5.96902 -0.0643708 27.0932)
(5.98645 -0.055478 27.0886)
(6.14476 -0.0495783 27.0865)
(6.14165 -0.0444468 27.081)
(6.26028 -0.0405702 27.0766)
(6.24688 -0.0367943 27.0693)
(6.33979 -0.0341458 27.0643)
(6.31945 -0.0305859 27.0588)
(6.39754 -0.029597 27.0569)
(6.36883 -0.0242923 27.0551)
(6.44607 -0.0266143 27.0559)
(6.40167 -0.0150972 27.057)
(6.509 -0.0204386 27.0599)
(6.43588 -0.0031287 27.0644)
(6.66951 0.0132043 27.0488)
(4.71977 -0.28912 27.0577)
(5.20121 -0.212174 27.0863)
(5.31433 -0.191155 27.0831)
(5.55541 -0.130962 27.0891)
(5.50107 -0.0938244 27.0843)
(5.62046 -0.0681597 27.0859)
(5.5308 -0.0497321 27.0799)
(5.60576 -0.0370095 27.0793)
(5.51563 -0.0271569 27.0722)
(5.56884 -0.0192089 27.0694)
(5.48659 -0.0136286 27.0622)
(5.52598 -0.00759668 27.0601)
(5.45494 -0.00524431 27.056)
(5.48201 0.000737108 27.057)
(5.42672 -0.00156021 27.0564)
(5.4333 0.0067138 27.0598)
(5.40644 -0.00695688 27.0619)
(5.36096 0.00614688 27.0671)
(5.37995 -0.0393642 27.0715)
(5.2193 -0.0514187 27.0618)
(4.60019 -0.549465 27.0562)
(4.78887 -0.379425 27.0902)
(4.49237 -0.290756 27.094)
(4.43033 -0.191081 27.1019)
(4.13124 -0.134274 27.1008)
(4.09293 -0.102459 27.1027)
(3.86127 -0.082674 27.099)
(3.85401 -0.0711924 27.0978)
(3.67351 -0.0624957 27.0936)
(3.68334 -0.0569711 27.0922)
(3.53899 -0.051623 27.0894)
(3.55745 -0.0491809 27.09)
(3.43857 -0.043857 27.0897)
(3.46253 -0.0453244 27.0922)
(3.35969 -0.0347026 27.0937)
(3.39432 -0.0447384 27.097)
(3.29271 -0.015713 27.0996)
(3.36925 -0.0356382 27.1024)
(3.22957 0.020079 27.1051)
(3.56785 0.0776627 27.0953)
(3.51021 -0.42042 27.0311)
(2.79717 -0.150153 27.0718)
(2.04091 -0.0442593 27.0752)
(1.82911 0.0242753 27.0824)
(1.54872 0.0453481 27.0797)
(1.52878 0.0521613 27.0828)
(1.37046 0.0531215 27.0793)
(1.39202 0.0519327 27.0813)
(1.27638 0.0505264 27.0785)
(1.30598 0.0491546 27.0803)
(1.21398 0.0473771 27.0786)
(1.24394 0.0471625 27.0808)
(1.16853 0.0438577 27.0799)
(1.19682 0.0467196 27.0822)
(1.13321 0.0378279 27.0819)
(1.1593 0.0479877 27.084)
(1.10273 0.016308 27.0839)
(1.11579 0.0456388 27.0855)
(1.09053 -0.0953318 27.0854)
(0.859458 -0.122111 27.0849)
(1.00627 -0.158807 -27.1365)
(1.11206 -0.145726 -27.2526)
(1.07 -0.115046 -27.3296)
(1.08647 -0.11186 -27.3977)
(1.05466 -0.111806 -27.455)
(1.06743 -0.112073 -27.5059)
(1.04231 -0.112748 -27.5465)
(1.0523 -0.113063 -27.5827)
(1.03159 -0.113637 -27.6143)
(1.03948 -0.113949 -27.6452)
(1.02191 -0.114428 -27.6728)
(1.02824 -0.11466 -27.6976)
(1.01298 -0.114975 -27.717)
(1.01809 -0.115073 -27.732)
(1.00454 -0.115233 -27.7422)
(1.00868 -0.115237 -27.7491)
(0.996462 -0.115307 -27.7533)
(0.99984 -0.11527 -27.7558)
(0.988691 -0.115302 -27.7571)
(0.99147 -0.115255 -27.7579)
(0.981202 -0.115274 -27.7582)
(0.983492 -0.11523 -27.7584)
(0.97396 -0.115244 -27.7585)
(0.97584 -0.115206 -27.7585)
(0.966932 -0.115218 -27.7585)
(0.968457 -0.115184 -27.7584)
(0.960086 -0.115195 -27.7584)
(0.961295 -0.115166 -27.7584)
(0.953386 -0.115176 -27.7583)
(0.954304 -0.11515 -27.7583)
(0.94679 -0.115159 -27.7583)
(0.947431 -0.115135 -27.7582)
(0.940251 -0.115144 -27.7582)
(0.94062 -0.115122 -27.7581)
(0.93372 -0.11513 -27.7581)
(0.933823 -0.11511 -27.758)
(0.927161 -0.115116 -27.758)
(0.927007 -0.115098 -27.7579)
(0.920555 -0.115103 -27.7579)
(0.920165 -0.115086 -27.7578)
(0.91391 -0.11509 -27.7578)
(0.913311 -0.115074 -27.7577)
(0.907249 -0.115078 -27.7577)
(0.90647 -0.115062 -27.7576)
(0.900599 -0.115065 -27.7575)
(0.899664 -0.11505 -27.7575)
(0.893975 -0.115053 -27.7574)
(0.892897 -0.115038 -27.7574)
(0.887373 -0.11504 -27.7573)
(0.886155 -0.115026 -27.7573)
(0.88077 -0.115028 -27.7573)