/*--------------------------------*- C++ -*----------------------------------*\
  =========                 |
  \\      /  F ield         | OpenFOAM: The Open Source CFD Toolbox
   \\    /   O peration     | Website:  https://openfoam.org
    \\  /    A nd           | Version:  7
     \\/     M anipulation  |
\*---------------------------------------------------------------------------*/
FoamFile
{
    version     2.0;
    format      ascii;
    class       volVectorField;
    location    "1.1625";
    object      UMean;
}
// * * * * * * * * * * * * * * * * * * * * * * * * * * * * * * * * * * * * * //

dimensions      [0 1 -1 0 0 0 0];

internalField   nonuniform List<vector> 
7920
(
(2.94659 0.0979604 -32.3675)
(2.15673 -0.457816 -32.4071)
(1.46871 -0.607787 -32.3975)
(1.37917 -0.661977 -32.4094)
(1.15658 -0.678088 -32.4005)
(1.19331 -0.682808 -32.4096)
(1.05989 -0.686721 -32.4033)
(1.11235 -0.686893 -32.4113)
(1.01249 -0.689078 -32.4071)
(1.06265 -0.688719 -32.4135)
(0.983185 -0.690159 -32.4105)
(1.028 -0.689552 -32.4152)
(0.963271 -0.690504 -32.4136)
(1.00249 -0.689925 -32.4167)
(0.948869 -0.690337 -32.4172)
(0.98316 -0.690425 -32.4174)
(0.936371 -0.686885 -32.4222)
(0.963274 -0.69308 -32.415)
(0.924538 -0.637661 -32.4328)
(0.768316 -0.645464 -32.3996)
(4.40994 0.950726 -32.4288)
(4.34721 0.851318 -32.4671)
(3.72129 0.797273 -32.4618)
(3.60383 0.732006 -32.4716)
(3.23167 0.705946 -32.4663)
(3.2494 0.693657 -32.4725)
(3.00826 0.687871 -32.4688)
(3.06657 0.684946 -32.474)
(2.88774 0.683132 -32.4721)
(2.95224 0.681762 -32.4763)
(2.81122 0.680788 -32.4755)
(2.87267 0.679816 -32.4784)
(2.75836 0.679214 -32.4785)
(2.81445 0.678563 -32.4801)
(2.71963 0.677887 -32.4822)
(2.7724 0.678541 -32.4808)
(2.68506 0.675122 -32.4875)
(2.75791 0.681139 -32.4781)
(2.62981 0.671967 -32.4985)
(2.92169 0.668384 -32.4523)
(4.74552 0.184983 -32.4364)
(5.24241 -0.237112 -32.4708)
(5.09264 -0.382787 -32.4602)
(5.20911 -0.499736 -32.4698)
(4.97067 -0.562151 -32.4626)
(5.03189 -0.596911 -32.4697)
(4.82788 -0.619319 -32.4639)
(4.88311 -0.631812 -32.4696)
(4.71803 -0.641163 -32.4656)
(4.77052 -0.646957 -32.4704)
(4.63663 -0.65168 -32.4681)
(4.68531 -0.654996 -32.4719)
(4.57566 -0.65771 -32.4713)
(4.61976 -0.659702 -32.4738)
(4.52979 -0.66179 -32.4753)
(4.56673 -0.661536 -32.4754)
(4.49814 -0.665848 -32.4807)
(4.51069 -0.657934 -32.4754)
(4.48324 -0.662838 -32.4886)
(4.41006 -0.668679 -32.4563)
(4.74612 0.638269 -32.4465)
(5.26422 0.731771 -32.4796)
(5.34482 0.775297 -32.4697)
(5.63768 0.744577 -32.4776)
(5.56413 0.726653 -32.4715)
(5.72974 0.71243 -32.4775)
(5.62677 0.702503 -32.4728)
(5.73751 0.694976 -32.4772)
(5.63736 0.689406 -32.4737)
(5.71923 0.684402 -32.477)
(5.62933 0.680892 -32.475)
(5.69355 0.677309 -32.4775)
(5.61461 0.675138 -32.477)
(5.66769 0.672401 -32.4787)
(5.59729 0.671418 -32.4799)
(5.64618 0.668869 -32.4805)
(5.577 0.670364 -32.4837)
(5.63864 0.666491 -32.4824)
(5.55486 0.678727 -32.4883)
(5.69292 0.696613 -32.4635)
(4.73811 -0.0895466 -32.4457)
(5.22987 -0.386586 -32.4781)
(5.36524 -0.479216 -32.4659)
(5.70897 -0.54501 -32.4742)
(5.69708 -0.580199 -32.4665)
(5.91445 -0.599805 -32.4731)
(5.86729 -0.613332 -32.4673)
(6.02059 -0.620988 -32.4722)
(5.96751 -0.627435 -32.4677)
(6.08258 -0.631593 -32.4715)
(6.03098 -0.635491 -32.4683)
(6.12 -0.638253 -32.4714)
(6.07203 -0.641174 -32.4694)
(6.14211 -0.64266 -32.472)
(6.09925 -0.646185 -32.4713)
(6.15295 -0.643924 -32.4736)
(6.1212 -0.653603 -32.4741)
(6.14925 -0.639495 -32.4761)
(6.1484 -0.666243 -32.4777)
(6.12715 -0.676716 -32.4576)
(4.72542 0.347446 -32.4494)
(5.17448 0.548311 -32.4822)
(5.32044 0.624604 -32.4699)
(5.6793 0.643962 -32.4783)
(5.68967 0.653593 -32.4702)
(5.92845 0.656519 -32.4769)
(5.90457 0.658289 -32.4709)
(6.07859 0.658276 -32.4759)
(6.04788 0.658478 -32.4712)
(6.18156 0.657818 -32.4751)
(6.15019 0.657693 -32.4716)
(6.25516 0.656949 -32.4748)
(6.2246 0.65702 -32.4724)
(6.30801 0.65599 -32.4751)
(6.27906 0.6572 -32.4738)
(6.34538 0.654032 -32.4764)
(6.321 0.660691 -32.4762)
(6.37071 0.650044 -32.4789)
(6.36309 0.674181 -32.4795)
(6.40056 0.694311 -32.4593)
(4.72542 -0.347446 -32.4494)
(5.17448 -0.548311 -32.4822)
(5.32044 -0.624604 -32.4699)
(5.6793 -0.643962 -32.4783)
(5.68967 -0.653593 -32.4702)
(5.92845 -0.656518 -32.4769)
(5.90457 -0.658288 -32.4709)
(6.07859 -0.658273 -32.476)
(6.04788 -0.658476 -32.4712)
(6.18155 -0.657811 -32.4751)
(6.1502 -0.657683 -32.4716)
(6.25515 -0.65693 -32.4748)
(6.22463 -0.656994 -32.4724)
(6.30799 -0.655916 -32.4752)
(6.27915 -0.657152 -32.4738)
(6.3453 -0.653755 -32.4765)
(6.32121 -0.660632 -32.4761)
(6.37052 -0.649207 -32.4789)
(6.3633 -0.673818 -32.4794)
(6.40018 -0.692714 -32.4593)
(4.73811 0.0895466 -32.4457)
(5.22987 0.386586 -32.4781)
(5.36524 0.479216 -32.4659)
(5.70897 0.54501 -32.4743)
(5.69708 0.580199 -32.4665)
(5.91445 0.599806 -32.4731)
(5.86728 0.613332 -32.4672)
(6.0206 0.62099 -32.4723)
(5.96751 0.627439 -32.4677)
(6.08259 0.631597 -32.4716)
(6.03096 0.635503 -32.4682)
(6.12004 0.638267 -32.4715)
(6.072 0.641206 -32.4693)
(6.14221 0.642716 -32.4722)
(6.0992 0.646245 -32.4711)
(6.15319 0.644166 -32.4739)
(6.12121 0.653682 -32.4738)
(6.14982 0.640313 -32.4766)
(6.14893 0.666594 -32.4773)
(6.12874 0.678454 -32.4581)
(4.74612 -0.638269 -32.4465)
(5.26422 -0.731771 -32.4796)
(5.34482 -0.775297 -32.4697)
(5.63768 -0.744576 -32.4776)
(5.56413 -0.726654 -32.4715)
(5.72974 -0.712428 -32.4775)
(5.62677 -0.702503 -32.4728)
(5.73752 -0.694973 -32.4772)
(5.63736 -0.689406 -32.4736)
(5.71924 -0.684394 -32.4771)
(5.62934 -0.680887 -32.4748)
(5.69358 -0.677287 -32.4777)
(5.61462 -0.675123 -32.4766)
(5.66777 -0.672327 -32.4792)
(5.59739 -0.671399 -32.4792)
(5.64635 -0.668599 -32.4815)
(5.57739 -0.670379 -32.4823)
(5.63893 -0.665735 -32.4844)
(5.55592 -0.6786 -32.4857)
(5.69366 -0.695504 -32.4668)
(4.74552 -0.184983 -32.4364)
(5.24241 0.237112 -32.4708)
(5.09264 0.382787 -32.4601)
(5.20911 0.499736 -32.4698)
(4.97067 0.562151 -32.4626)
(5.0319 0.596912 -32.4697)
(4.82788 0.61932 -32.4639)
(4.88312 0.631812 -32.4696)
(4.71802 0.641167 -32.4655)
(4.77055 0.646957 -32.4705)
(4.63661 0.651692 -32.4679)
(4.68539 0.654995 -32.4723)
(4.57563 0.657741 -32.4707)
(4.61998 0.659715 -32.4746)
(4.52976 0.66185 -32.474)
(4.56727 0.661641 -32.4775)
(4.49832 0.665929 -32.4775)
(4.51197 0.658434 -32.4805)
(4.48441 0.66309 -32.4808)
(4.41388 0.669918 -32.4677)
(4.40994 -0.950726 -32.4288)
(4.34721 -0.851318 -32.4671)
(3.72129 -0.797273 -32.4618)
(3.60383 -0.732006 -32.4716)
(3.23167 -0.705946 -32.4663)
(3.2494 -0.693656 -32.4726)
(3.00826 -0.687872 -32.4688)
(3.06657 -0.684944 -32.474)
(2.88774 -0.683133 -32.4721)
(2.95225 -0.681757 -32.4764)
(2.81122 -0.680789 -32.4753)
(2.87272 -0.679801 -32.4787)
(2.75839 -0.679216 -32.478)
(2.81458 -0.678517 -32.4809)
(2.71975 -0.677902 -32.4807)
(2.7727 -0.678381 -32.4832)
(2.68561 -0.67522 -32.4832)
(2.75837 -0.680726 -32.4855)
(2.63173 -0.67227 -32.4851)
(2.9221 -0.668597 -32.4763)
(2.94659 -0.0979604 -32.3675)
(2.15673 0.457816 -32.4071)
(1.4687 0.607787 -32.3975)
(1.37917 0.661976 -32.4094)
(1.15658 0.678089 -32.4005)
(1.19331 0.682808 -32.4096)
(1.05989 0.686722 -32.4032)
(1.11236 0.686891 -32.4113)
(1.01249 0.68908 -32.407)
(1.06266 0.688715 -32.4136)
(0.983186 0.690165 -32.4103)
(1.02803 0.68954 -32.4154)
(0.963273 0.690519 -32.4131)
(1.00258 0.689892 -32.4174)
(0.948895 0.690378 -32.4159)
(0.983377 0.690336 -32.4195)
(0.936581 0.687019 -32.4185)
(0.963737 0.692951 -32.4216)
(0.92552 0.638245 -32.4206)
(0.770242 0.646277 -32.4223)
(4.33105 0.554383 0.00706301)
(3.13218 0.831404 0.00462703)
(2.40603 0.852588 0.00587585)
(1.88457 0.837173 0.00441862)
(1.76249 0.839979 0.00553272)
(1.58597 0.851203 0.00437645)
(1.58512 0.860421 0.00530051)
(1.48364 0.867914 0.00433065)
(1.49362 0.87171 0.00508422)
(1.42386 0.875025 0.00426766)
(1.4333 0.876444 0.00488326)
(1.38378 0.878209 0.004199)
(1.39075 0.878729 0.00470208)
(1.35419 0.879997 0.00413006)
(1.35917 0.879653 0.00453953)
(1.32996 0.882118 0.00406108)
(1.33401 0.874275 0.00439429)
(1.32598 0.897022 0.0039897)
(1.26593 0.77817 0.0042912)
(1.71829 0.801597 0.00386279)
(4.7464 -0.105201 0.00450189)
(4.61196 -0.284457 0.0024995)
(4.53148 -0.483927 0.00377812)
(4.184 -0.64499 0.00235479)
(4.0582 -0.736867 0.00347735)
(3.81589 -0.788586 0.00232695)
(3.75694 -0.813687 0.00325477)
(3.60136 -0.829113 0.00228752)
(3.57362 -0.838017 0.0030436)
(3.4681 -0.844785 0.00222882)
(3.45253 -0.849187 0.00284612)
(3.37777 -0.852913 0.00216287)
(3.36702 -0.855219 0.00266684)
(3.3115 -0.857849 0.00209547)
(3.30394 -0.858358 0.00250493)
(3.25744 -0.861885 0.00202782)
(3.26036 -0.859708 0.00235592)
(3.19758 -0.863952 0.00196011)
(3.26234 -0.871369 0.00219389)
(2.91441 -0.865894 0.00182381)
(4.62884 0.427178 0.00578954)
(4.81572 0.850529 0.00385981)
(5.10821 0.941476 0.00502141)
(5.05371 0.93098 0.00355859)
(5.10759 0.912501 0.00465563)
(4.98658 0.899768 0.00349289)
(4.99221 0.890734 0.0044149)
(4.89043 0.885436 0.00344427)
(4.88749 0.879575 0.00419841)
(4.80876 0.876531 0.00338193)
(4.80232 0.872531 0.00399788)
(4.7419 0.870862 0.00331346)
(4.73334 0.868282 0.00381643)
(4.68736 0.867261 0.00324413)
(4.67556 0.86575 0.0036533)
(4.6451 0.864681 0.00317474)
(4.61922 0.862122 0.00350767)
(4.62866 0.866287 0.00310341)
(4.54967 0.822905 0.00340282)
(4.6823 0.871184 0.00300645)
(4.5691 -0.201914 0.00461935)
(4.69559 -0.398692 0.00290896)
(5.09688 -0.521251 0.00407551)
(5.18895 -0.62499 0.00264184)
(5.38162 -0.691464 0.00374122)
(5.37859 -0.737025 0.0025831)
(5.47243 -0.762519 0.00350835)
(5.44607 -0.780827 0.00254077)
(5.49734 -0.792518 0.0032977)
(5.46781 -0.802198 0.00248379)
(5.49632 -0.809202 0.00310162)
(5.46891 -0.815209 0.00241903)
(5.48426 -0.81994 0.00292304)
(5.4599 -0.823737 0.00235217)
(5.46799 -0.827638 0.00276141)
(5.44429 -0.828722 0.00228473)
(5.45301 -0.837178 0.00261195)
(5.4114 -0.827066 0.00221527)
(5.45307 -0.865658 0.00244703)
(5.24926 -0.871644 0.00210533)
(4.58159 0.336428 0.00526744)
(4.69255 0.675466 0.00359509)
(5.07492 0.785638 0.00471439)
(5.18624 0.824885 0.00326684)
(5.41478 0.840285 0.00435339)
(5.45436 0.849068 0.00318865)
(5.5911 0.852061 0.00411053)
(5.60787 0.854171 0.00314076)
(5.69796 0.853219 0.00389659)
(5.7058 0.853268 0.00308155)
(5.76628 0.851635 0.00369866)
(5.76918 0.851307 0.00301525)
(5.80971 0.849996 0.00351872)
(5.80994 0.849367 0.00294721)
(5.83595 0.849177 0.00335624)
(5.83635 0.846776 0.00287864)
(5.84797 0.850088 0.00320939)
(5.85293 0.843724 0.00280743)
(5.8543 0.844912 0.00308815)
(5.83195 0.893132 0.00272244)
(4.57559 -0.266607 0.00489904)
(4.66535 -0.532958 0.00329081)
(5.04341 -0.646037 0.00440934)
(5.15673 -0.715435 0.00296894)
(5.39628 -0.754768 0.00405404)
(5.44964 -0.781446 0.00288955)
(5.60211 -0.795417 0.00381158)
(5.63517 -0.805657 0.00284217)
(5.74161 -0.811062 0.00359853)
(5.76582 -0.816102 0.00278403)
(5.84196 -0.81903 0.0034016)
(5.85983 -0.822114 0.00271867)
(5.9147 -0.824266 0.00322239)
(5.92719 -0.825912 0.00265133)
(5.96722 -0.828722 0.00306026)
(5.97379 -0.827086 0.00258345)
(6.00572 -0.836124 0.00291162)
(5.99468 -0.823802 0.00251284)
(6.04276 -0.854396 0.00276575)
(5.92672 -0.882871 0.00242158)
(4.57559 0.266607 0.00489904)
(4.66535 0.532959 0.00329081)
(5.04341 0.646036 0.00440934)
(5.15673 0.715435 0.00296894)
(5.39628 0.754768 0.00405404)
(5.44964 0.781447 0.00288955)
(5.60211 0.795417 0.00381158)
(5.63518 0.805659 0.00284217)
(5.74161 0.811065 0.00359854)
(5.76582 0.81611 0.00278402)
(5.84195 0.819038 0.00340161)
(5.85986 0.82214 0.00271864)
(5.91467 0.824288 0.00322243)
(5.92726 0.825999 0.00265125)
(5.96714 0.828782 0.00306036)
(5.97397 0.827349 0.00258324)
(6.00559 0.836342 0.00291195)
(5.99523 0.824491 0.00251236)
(6.04299 0.855215 0.00276705)
(5.92776 0.884593 0.00242118)
(4.58159 -0.336429 0.00526744)
(4.69255 -0.675466 0.00359509)
(5.07492 -0.785638 0.00471439)
(5.18624 -0.824885 0.00326684)
(5.41478 -0.840285 0.00435339)
(5.45436 -0.849066 0.00318866)
(5.5911 -0.852061 0.00411053)
(5.60787 -0.854167 0.00314076)
(5.69796 -0.853218 0.00389658)
(5.7058 -0.853258 0.00308156)
(5.76629 -0.85163 0.00369864)
(5.76918 -0.851276 0.00301529)
(5.80974 -0.849983 0.00351867)
(5.80994 -0.849267 0.0029473)
(5.83608 -0.849146 0.0033561)
(5.83631 -0.846496 0.00287888)
(5.84831 -0.849957 0.00320897)
(5.85274 -0.843124 0.00280785)
(5.85488 -0.844268 0.00308685)
(5.83183 -0.891688 0.00272238)
(4.5691 0.201914 0.00461935)
(4.69559 0.398692 0.00290896)
(5.09688 0.521251 0.00407551)
(5.18895 0.62499 0.00264184)
(5.38161 0.691464 0.00374122)
(5.3786 0.737025 0.0025831)
(5.47243 0.76252 0.00350835)
(5.44608 0.780828 0.00254077)
(5.49733 0.792521 0.0032977)
(5.46784 0.802202 0.00248379)
(5.49631 0.809213 0.00310162)
(5.46896 0.815223 0.00241901)
(5.48423 0.819968 0.00292305)
(5.46005 0.823791 0.00235214)
(5.46797 0.827711 0.00276143)
(5.44468 0.8289 0.00228463)
(5.4531 0.837426 0.00261212)
(5.41249 0.82764 0.00221497)
(5.45388 0.866536 0.00244816)
(5.25212 0.873266 0.00210485)
(4.62884 -0.427178 0.00578954)
(4.81572 -0.850529 0.00385982)
(5.10821 -0.941476 0.00502141)
(5.05371 -0.930979 0.00355859)
(5.10759 -0.912501 0.00465563)
(4.98658 -0.899766 0.00349289)
(4.99221 -0.890735 0.00441489)
(4.89044 -0.885432 0.00344428)
(4.88749 -0.879575 0.00419839)
(4.80878 -0.876522 0.00338195)
(4.80232 -0.872531 0.00399784)
(4.74195 -0.870833 0.00331351)
(4.73336 -0.868285 0.00381633)
(4.68748 -0.867169 0.00324428)
(4.67569 -0.865763 0.00365303)
(4.64538 -0.86443 0.00317512)
(4.61969 -0.862139 0.00350698)
(4.62928 -0.865853 0.00310414)
(4.5509 -0.822744 0.00340114)
(4.68403 -0.870679 0.0030068)
(4.7464 0.105201 0.00450189)
(4.61196 0.284457 0.0024995)
(4.53148 0.483927 0.00377812)
(4.184 0.644989 0.00235479)
(4.0582 0.736867 0.00347735)
(3.8159 0.788585 0.00232695)
(3.75694 0.813688 0.00325477)
(3.60137 0.829112 0.00228752)
(3.57362 0.83802 0.0030436)
(3.46813 0.844782 0.00222882)
(3.45252 0.849197 0.00284611)
(3.37785 0.852906 0.00216287)
(3.36701 0.855246 0.00266681)
(3.31172 0.857836 0.00209549)
(3.30397 0.858429 0.00250485)
(3.25803 0.86187 0.0020279)
(3.26054 0.859933 0.00235574)
(3.19944 0.864094 0.00196027)
(3.26273 0.872172 0.00219405)
(2.92142 0.867233 0.00182415)
(4.33105 -0.554383 0.00706301)
(3.13218 -0.831404 0.00462703)
(2.40603 -0.852588 0.00587585)
(1.88457 -0.837173 0.00441862)
(1.76249 -0.83998 0.00553272)
(1.58597 -0.851202 0.00437645)
(1.58513 -0.860422 0.00530051)
(1.48364 -0.867912 0.00433066)
(1.49363 -0.871712 0.00508421)
(1.42387 -0.875019 0.00426769)
(1.43331 -0.87645 0.00488321)
(1.38381 -0.878191 0.00419907)
(1.39079 -0.878747 0.00470195)
(1.35427 -0.879941 0.00413026)
(1.35932 -0.879709 0.00453917)
(1.33015 -0.881973 0.00406166)
(1.33447 -0.874473 0.00439323)
(1.32647 -0.89682 0.00399129)
(1.26708 -0.779153 0.00428778)
(1.71944 -0.802807 0.0038675)
(4.37804 0.0923674 0.0014431)
(4.00013 0.13905 0.00197957)
(3.50239 0.149957 0.00104317)
(3.08555 0.142733 0.00157372)
(2.72436 0.13147 0.00105605)
(2.48035 0.123942 0.00145611)
(2.29763 0.120098 0.0011134)
(2.18955 0.120686 0.00136285)
(2.11271 0.123548 0.00113204)
(2.06874 0.128115 0.00127708)
(2.03704 0.132834 0.00113434)
(2.01655 0.137637 0.00121036)
(2.00166 0.14158 0.00113572)
(1.99013 0.145534 0.00116438)
(1.98025 0.147645 0.00114209)
(1.97732 0.151944 0.00113535)
(1.95929 0.149863 0.00115777)
(1.98392 0.159308 0.00111789)
(1.91796 0.144629 0.00116421)
(2.03448 0.154181 0.00117831)
(4.53571 0.0835248 0.00322144)
(4.67315 0.109789 0.00393216)
(4.70415 0.106503 0.00298954)
(4.70344 0.0776265 0.00349628)
(4.63058 0.0390817 0.00295508)
(4.55937 -0.00159011 0.00334234)
(4.46775 -0.0367152 0.00299133)
(4.3937 -0.0658183 0.0032377)
(4.31861 -0.0873538 0.00300449)
(4.25939 -0.103922 0.00314932)
(4.20403 -0.115722 0.00300584)
(4.15958 -0.124851 0.00308215)
(4.11979 -0.131632 0.00300728)
(4.08768 -0.136745 0.00303599)
(4.05864 -0.14149 0.00301415)
(4.0383 -0.143293 0.00300654)
(4.01295 -0.149191 0.0030325)
(4.01008 -0.144805 0.00298728)
(3.97161 -0.15654 0.00307624)
(3.99995 -0.145209 0.00308367)
(4.5122 0.0437519 0.00179842)
(4.65308 0.103447 0.00239632)
(4.76604 0.149833 0.0014862)
(4.9069 0.173072 0.00199705)
(4.99243 0.179701 0.00146269)
(5.07024 0.178583 0.00185652)
(5.10482 0.174437 0.00151359)
(5.1337 0.171217 0.00176457)
(5.13936 0.169255 0.00153625)
(5.14519 0.168828 0.00168258)
(5.13996 0.168991 0.00154143)
(5.13755 0.169755 0.00161789)
(5.12908 0.169984 0.00154396)
(5.1254 0.171141 0.00157274)
(5.11547 0.16977 0.00155052)
(5.11497 0.173226 0.00154479)
(5.10217 0.166097 0.0015639)
(5.10897 0.179388 0.00153417)
(5.09128 0.15591 0.00155537)
(5.10415 0.189253 0.0015878)
(4.5082 0.0418492 0.00280876)
(4.62046 0.0462021 0.00351351)
(4.72697 0.0396223 0.00262651)
(4.87859 0.0204339 0.00314182)
(4.99281 -0.00264045 0.00259352)
(5.11176 -0.027578 0.00297643)
(5.19271 -0.0504478 0.00262329)
(5.26959 -0.0704763 0.00286975)
(5.32151 -0.0865185 0.00263736)
(5.37126 -0.0994137 0.0027824)
(5.40687 -0.10952 0.00263936)
(5.44185 -0.117353 0.00271541)
(5.46876 -0.12415 0.00264049)
(5.49507 -0.128623 0.00266904)
(5.5173 -0.134458 0.00264664)
(5.53662 -0.13533 0.00264034)
(5.55916 -0.143351 0.00266306)
(5.56635 -0.137537 0.00262937)
(5.60251 -0.151065 0.00270942)
(5.57675 -0.138149 0.00271681)
(4.50923 0.0159973 0.00211391)
(4.6214 0.0526905 0.00277371)
(4.72146 0.0853727 0.00189662)
(4.86784 0.108142 0.00240357)
(4.98043 0.122103 0.00185376)
(5.10296 0.131448 0.002237)
(5.19136 0.137861 0.00188675)
(5.27901 0.143489 0.00213529)
(5.34363 0.148332 0.0019055)
(5.40757 0.152905 0.00205159)
(5.45832 0.156727 0.0019101)
(5.50877 0.160168 0.0019865)
(5.55196 0.162572 0.00191244)
(5.59358 0.165146 0.00194117)
(5.63285 0.16565 0.00191891)
(5.66539 0.169013 0.00191367)
(5.70722 0.165334 0.00193226)
(5.72128 0.174702 0.00190729)
(5.78627 0.160688 0.00193822)
(5.75495 0.186385 0.0019672)
(4.508 0.0111242 0.00244432)
(4.61394 -0.00477389 0.00313276)
(4.71279 -0.0238123 0.00226315)
(4.85776 -0.0446415 0.00277566)
(4.96984 -0.0629827 0.00222434)
(5.09256 -0.0798316 0.00260599)
(5.1822 -0.0942304 0.00225333)
(5.272 -0.106759 0.00250092)
(5.33975 -0.117017 0.00227009)
(5.40734 -0.125518 0.00241593)
(5.46272 -0.132386 0.00227396)
(5.51768 -0.137813 0.00235026)
(5.56679 -0.142436 0.00227596)
(5.61294 -0.145677 0.00230455)
(5.6598 -0.149092 0.00228236)
(5.69541 -0.150657 0.00227674)
(5.7479 -0.153504 0.00229726)
(5.76079 -0.154199 0.00227032)
(5.84227 -0.154997 0.00232784)
(5.80279 -0.160164 0.0023421)
(4.508 -0.0111243 0.00244432)
(4.61394 0.0047742 0.00313276)
(4.71279 0.023812 0.00226315)
(4.85776 0.0446422 0.00277566)
(4.96984 0.0629822 0.00222434)
(5.09256 0.0798333 0.00260599)
(5.1822 0.0942301 0.00225333)
(5.272 0.106762 0.00250093)
(5.33975 0.117018 0.00227008)
(5.40735 0.125528 0.00241594)
(5.46271 0.13239 0.00227395)
(5.51768 0.137843 0.00235029)
(5.56679 0.142445 0.00227592)
(5.61296 0.145769 0.00230463)
(5.65979 0.149116 0.00228225)
(5.69544 0.150919 0.00227694)
(5.74791 0.153611 0.00229686)
(5.76086 0.154838 0.00227067)
(5.84237 0.155565 0.00232609)
(5.80301 0.161502 0.00234242)
(4.50923 -0.0159974 0.00211391)
(4.6214 -0.0526902 0.00277371)
(4.72146 -0.085373 0.00189662)
(4.86784 -0.108141 0.00240357)
(4.98043 -0.122103 0.00185376)
(5.10296 -0.131446 0.002237)
(5.19136 -0.137862 0.00188675)
(5.27901 -0.143485 0.00213528)
(5.34363 -0.148331 0.0019055)
(5.40757 -0.152895 0.00205158)
(5.45833 -0.156724 0.00191011)
(5.50877 -0.160137 0.00198648)
(5.55198 -0.162564 0.00191246)
(5.59358 -0.165053 0.0019411)
(5.63292 -0.16563 0.001919)
(5.66538 -0.168754 0.00191347)
(5.70738 -0.165241 0.00193261)
(5.72133 -0.174085 0.00190692)
(5.78659 -0.160167 0.00193971)
(5.75524 -0.185142 0.00196681)
(4.5082 -0.0418493 0.00280876)
(4.62046 -0.0462018 0.00351351)
(4.72697 -0.0396225 0.00262651)
(4.87859 -0.0204333 0.00314182)
(4.99281 0.00264009 0.00259352)
(5.11177 0.0275795 0.00297643)
(5.19271 0.0504476 0.00262329)
(5.2696 0.0704796 0.00286976)
(5.32151 0.0865196 0.00263735)
(5.37127 0.0994223 0.00278241)
(5.40687 0.109525 0.00263934)
(5.44187 0.117379 0.00271544)
(5.46876 0.124161 0.00264044)
(5.49513 0.128705 0.00266912)
(5.51735 0.13448 0.00264651)
(5.53673 0.135569 0.00264052)
(5.55936 0.143439 0.00266263)
(5.56664 0.138138 0.00262966)
(5.60319 0.151553 0.00270772)
(5.57769 0.139434 0.00271697)
(4.5122 -0.043752 0.00179842)
(4.65308 -0.103447 0.00239633)
(4.76604 -0.149834 0.0014862)
(4.9069 -0.173071 0.00199705)
(4.99243 -0.179701 0.00146269)
(5.07025 -0.178582 0.00185653)
(5.10482 -0.174437 0.00151359)
(5.13371 -0.171213 0.00176457)
(5.13935 -0.169256 0.00153625)
(5.14522 -0.168819 0.00168258)
(5.13994 -0.168991 0.00154143)
(5.13761 -0.169728 0.00161789)
(5.12907 -0.169982 0.00154396)
(5.12553 -0.171061 0.00157273)
(5.11553 -0.169768 0.00155053)
(5.11523 -0.173007 0.0015447)
(5.10248 -0.166063 0.00156403)
(5.10955 -0.178886 0.00153397)
(5.0923 -0.155592 0.00155616)
(5.10571 -0.188369 0.0015877)
(4.53571 -0.0835249 0.00322144)
(4.67315 -0.109789 0.00393216)
(4.70415 -0.106503 0.00298953)
(4.70344 -0.0776264 0.00349628)
(4.63058 -0.0390816 0.00295507)
(4.55937 0.00159054 0.00334235)
(4.46775 0.0367159 0.00299132)
(4.39371 0.0658194 0.00323772)
(4.3186 0.087356 0.00300446)
(4.25943 0.103925 0.00314936)
(4.204 0.115728 0.00300577)
(4.15969 0.124861 0.00308225)
(4.11974 0.131643 0.00300711)
(4.08795 0.136783 0.00303624)
(4.05861 0.14151 0.00301375)
(4.03892 0.143417 0.00300712)
(4.01307 0.149245 0.00303149)
(4.01153 0.145138 0.00298856)
(3.97235 0.156833 0.00307344)
(4.00365 0.145947 0.00308621)
(4.37804 -0.0923674 0.0014431)
(4.00013 -0.13905 0.00197957)
(3.50239 -0.149957 0.00104317)
(3.08555 -0.142733 0.00157372)
(2.72436 -0.13147 0.00105605)
(2.48035 -0.123942 0.00145611)
(2.29763 -0.120098 0.0011134)
(2.18956 -0.120685 0.00136286)
(2.1127 -0.123548 0.00113204)
(2.06877 -0.128113 0.00127709)
(2.03704 -0.132835 0.00113432)
(2.01662 -0.13763 0.00121039)
(2.00167 -0.141584 0.00113568)
(1.99032 -0.145513 0.00116444)
(1.98032 -0.147661 0.00114197)
(1.97777 -0.15188 0.00113551)
(1.9596 -0.149909 0.00115741)
(1.98517 -0.159171 0.00111839)
(1.91861 -0.144709 0.00116309)
(2.03875 -0.154226 0.0011801)
(4.37804 0.0923674 -0.00144316)
(4.00013 0.13905 -0.00197963)
(3.50239 0.149957 -0.00104323)
(3.08555 0.142734 -0.00157378)
(2.72436 0.13147 -0.00105612)
(2.48035 0.123942 -0.00145617)
(2.29763 0.120098 -0.00111346)
(2.18955 0.120686 -0.00136292)
(2.1127 0.123548 -0.0011321)
(2.06874 0.128115 -0.00127715)
(2.03704 0.132834 -0.0011344)
(2.01655 0.137637 -0.00121043)
(2.00166 0.14158 -0.00113578)
(1.99013 0.145534 -0.00116444)
(1.98025 0.147645 -0.00114215)
(1.97732 0.151944 -0.00113541)
(1.95929 0.149863 -0.00115784)
(1.98392 0.159309 -0.00111795)
(1.91796 0.144629 -0.00116428)
(2.03448 0.154181 -0.00117837)
(4.53571 0.0835249 -0.0032215)
(4.67315 0.109789 -0.00393222)
(4.70415 0.106503 -0.0029896)
(4.70344 0.0776265 -0.00349634)
(4.63058 0.0390817 -0.00295514)
(4.55937 -0.00159016 -0.0033424)
(4.46775 -0.0367153 -0.00299139)
(4.3937 -0.0658184 -0.00323777)
(4.31861 -0.0873539 -0.00300455)
(4.25939 -0.103922 -0.00314938)
(4.20403 -0.115722 -0.0030059)
(4.15958 -0.124851 -0.00308221)
(4.11979 -0.131632 -0.00300734)
(4.08768 -0.136745 -0.00303605)
(4.05864 -0.14149 -0.00301422)
(4.0383 -0.143293 -0.00300661)
(4.01295 -0.149191 -0.00303256)
(4.01008 -0.144805 -0.00298734)
(3.97161 -0.15654 -0.0030763)
(3.99995 -0.145209 -0.00308373)
(4.5122 0.0437519 -0.00179848)
(4.65308 0.103447 -0.00239639)
(4.76604 0.149833 -0.00148626)
(4.9069 0.173072 -0.00199711)
(4.99243 0.179701 -0.00146275)
(5.07024 0.178583 -0.00185659)
(5.10482 0.174437 -0.00151366)
(5.1337 0.171217 -0.00176463)
(5.13936 0.169255 -0.00153632)
(5.14519 0.168828 -0.00168264)
(5.13996 0.168991 -0.00154149)
(5.13755 0.169755 -0.00161795)
(5.12908 0.169984 -0.00154402)
(5.1254 0.171141 -0.00157281)
(5.11547 0.16977 -0.00155058)
(5.11497 0.173226 -0.00154485)
(5.10217 0.166097 -0.00156396)
(5.10897 0.179388 -0.00153424)
(5.09128 0.15591 -0.00155543)
(5.10415 0.189253 -0.00158786)
(4.5082 0.0418492 -0.00280882)
(4.62046 0.0462021 -0.00351357)
(4.72697 0.0396223 -0.00262657)
(4.87859 0.0204339 -0.00314188)
(4.99281 -0.0026405 -0.00259358)
(5.11176 -0.0275781 -0.00297649)
(5.19271 -0.0504478 -0.00262335)
(5.26959 -0.0704763 -0.00286982)
(5.32151 -0.0865186 -0.00263742)
(5.37126 -0.0994137 -0.00278246)
(5.40687 -0.10952 -0.00263942)
(5.44185 -0.117353 -0.00271547)
(5.46876 -0.12415 -0.00264055)
(5.49507 -0.128623 -0.0026691)
(5.5173 -0.134458 -0.0026467)
(5.53662 -0.13533 -0.0026404)
(5.55915 -0.143351 -0.00266312)
(5.56635 -0.137537 -0.00262943)
(5.60251 -0.151065 -0.00270948)
(5.57675 -0.138149 -0.00271687)
(4.50923 0.0159973 -0.00211397)
(4.6214 0.0526905 -0.00277377)
(4.72146 0.0853727 -0.00189668)
(4.86784 0.108142 -0.00240363)
(4.98043 0.122103 -0.00185382)
(5.10296 0.131448 -0.00223706)
(5.19136 0.137861 -0.00188681)
(5.27901 0.143489 -0.00213535)
(5.34363 0.148332 -0.00190556)
(5.40757 0.152905 -0.00205165)
(5.45832 0.156727 -0.00191016)
(5.50877 0.160168 -0.00198656)
(5.55196 0.162572 -0.0019125)
(5.59358 0.165146 -0.00194124)
(5.63285 0.16565 -0.00191897)
(5.66539 0.169013 -0.00191373)
(5.70722 0.165334 -0.00193232)
(5.72128 0.174702 -0.00190736)
(5.78627 0.160688 -0.00193828)
(5.75495 0.186385 -0.00196726)
(4.508 0.0111242 -0.00244438)
(4.61394 -0.00477391 -0.00313282)
(4.71279 -0.0238123 -0.00226321)
(4.85776 -0.0446415 -0.00277572)
(4.96984 -0.0629827 -0.0022244)
(5.09256 -0.0798317 -0.00260605)
(5.1822 -0.0942305 -0.00225339)
(5.272 -0.106759 -0.00250098)
(5.33975 -0.117017 -0.00227015)
(5.40734 -0.125518 -0.00241599)
(5.46272 -0.132386 -0.00227402)
(5.51768 -0.137813 -0.00235033)
(5.56679 -0.142436 -0.00227602)
(5.61294 -0.145677 -0.00230461)
(5.6598 -0.149092 -0.00228242)
(5.69541 -0.150657 -0.0022768)
(5.7479 -0.153504 -0.00229732)
(5.76079 -0.154199 -0.00227039)
(5.84226 -0.154997 -0.0023279)
(5.80279 -0.160165 -0.00234216)
(4.508 -0.0111243 -0.00244438)
(4.61394 0.00477421 -0.00313282)
(4.71279 0.023812 -0.00226321)
(4.85776 0.0446423 -0.00277572)
(4.96984 0.0629822 -0.0022244)
(5.09256 0.0798333 -0.00260605)
(5.1822 0.0942302 -0.00225339)
(5.272 0.106763 -0.00250099)
(5.33975 0.117018 -0.00227014)
(5.40735 0.125528 -0.002416)
(5.46271 0.13239 -0.00227401)
(5.51768 0.137843 -0.00235036)
(5.56679 0.142446 -0.00227599)
(5.61296 0.145769 -0.00230469)
(5.65979 0.149116 -0.00228232)
(5.69544 0.150919 -0.002277)
(5.74791 0.153611 -0.00229693)
(5.76086 0.154838 -0.00227073)
(5.84237 0.155565 -0.00232616)
(5.80301 0.161502 -0.00234248)
(4.50923 -0.0159974 -0.00211397)
(4.6214 -0.0526902 -0.00277377)
(4.72146 -0.085373 -0.00189668)
(4.86784 -0.108141 -0.00240363)
(4.98043 -0.122103 -0.00185382)
(5.10296 -0.131446 -0.00223706)
(5.19136 -0.137862 -0.00188681)
(5.27901 -0.143485 -0.00213534)
(5.34363 -0.148331 -0.00190556)
(5.40757 -0.152895 -0.00205164)
(5.45833 -0.156724 -0.00191017)
(5.50877 -0.160138 -0.00198654)
(5.55198 -0.162564 -0.00191253)
(5.59358 -0.165053 -0.00194116)
(5.63292 -0.16563 -0.00191906)
(5.66538 -0.168754 -0.00191353)
(5.70738 -0.165241 -0.00193267)
(5.72133 -0.174085 -0.00190698)
(5.78659 -0.160167 -0.00193977)
(5.75524 -0.185142 -0.00196687)
(4.5082 -0.0418493 -0.00280882)
(4.62046 -0.0462018 -0.00351357)
(4.72697 -0.0396225 -0.00262657)
(4.87859 -0.0204333 -0.00314188)
(4.99281 0.00264011 -0.00259358)
(5.11177 0.0275795 -0.00297649)
(5.19271 0.0504477 -0.00262335)
(5.2696 0.0704797 -0.00286982)
(5.32151 0.0865197 -0.00263741)
(5.37127 0.0994223 -0.00278247)
(5.40687 0.109525 -0.0026394)
(5.44187 0.117379 -0.0027155)
(5.46876 0.124161 -0.0026405)
(5.49513 0.128705 -0.00266918)
(5.51735 0.13448 -0.00264657)
(5.53673 0.135569 -0.00264058)
(5.55936 0.143439 -0.00266269)
(5.56664 0.138138 -0.00262972)
(5.60318 0.151553 -0.00270778)
(5.57769 0.139434 -0.00271703)
(4.5122 -0.043752 -0.00179848)
(4.65308 -0.103447 -0.00239639)
(4.76604 -0.149834 -0.00148626)
(4.9069 -0.173071 -0.00199712)
(4.99243 -0.179701 -0.00146275)
(5.07025 -0.178582 -0.00185659)
(5.10482 -0.174437 -0.00151365)
(5.13371 -0.171213 -0.00176463)
(5.13935 -0.169256 -0.00153631)
(5.14522 -0.168819 -0.00168264)
(5.13994 -0.168991 -0.00154149)
(5.13761 -0.169728 -0.00161795)
(5.12907 -0.169982 -0.00154402)
(5.12553 -0.171061 -0.00157279)
(5.11553 -0.169768 -0.00155059)
(5.11523 -0.173007 -0.00154476)
(5.10247 -0.166063 -0.00156409)
(5.10955 -0.178886 -0.00153403)
(5.0923 -0.155592 -0.00155623)
(5.10571 -0.188369 -0.00158776)
(4.53571 -0.0835249 -0.0032215)
(4.67315 -0.109789 -0.00393222)
(4.70415 -0.106503 -0.0029896)
(4.70344 -0.0776263 -0.00349634)
(4.63058 -0.0390816 -0.00295513)
(4.55937 0.00159058 -0.00334241)
(4.46775 0.0367159 -0.00299138)
(4.39371 0.0658194 -0.00323778)
(4.3186 0.0873561 -0.00300452)
(4.25943 0.103925 -0.00314942)
(4.204 0.115728 -0.00300584)
(4.15969 0.124861 -0.00308232)
(4.11974 0.131643 -0.00300717)
(4.08795 0.136783 -0.00303631)
(4.0586 0.14151 -0.00301381)
(4.03892 0.143417 -0.00300719)
(4.01307 0.149245 -0.00303155)
(4.01153 0.145138 -0.00298862)
(3.97235 0.156833 -0.00307351)
(4.00365 0.145947 -0.00308627)
(4.37804 -0.0923674 -0.00144316)
(4.00013 -0.13905 -0.00197963)
(3.50239 -0.149957 -0.00104323)
(3.08555 -0.142733 -0.00157378)
(2.72436 -0.13147 -0.00105612)
(2.48035 -0.123942 -0.00145617)
(2.29763 -0.120098 -0.00111346)
(2.18955 -0.120685 -0.00136292)
(2.1127 -0.123548 -0.0011321)
(2.06877 -0.128113 -0.00127716)
(2.03704 -0.132835 -0.00113439)
(2.01662 -0.13763 -0.00121045)
(2.00167 -0.141584 -0.00113574)
(1.99032 -0.145513 -0.0011645)
(1.98032 -0.147661 -0.00114203)
(1.97777 -0.15188 -0.00113557)
(1.9596 -0.14991 -0.00115747)
(1.98517 -0.159171 -0.00111845)
(1.91861 -0.144709 -0.00116315)
(2.03875 -0.154226 -0.00118016)
(4.33105 0.554383 -0.00706305)
(3.13218 0.831404 -0.00462708)
(2.40603 0.852588 -0.0058759)
(1.88457 0.837173 -0.00441866)
(1.76249 0.839979 -0.00553276)
(1.58597 0.851203 -0.00437649)
(1.58512 0.860421 -0.00530056)
(1.48364 0.867914 -0.00433069)
(1.49362 0.87171 -0.00508427)
(1.42386 0.875025 -0.00426771)
(1.4333 0.876444 -0.0048833)
(1.38378 0.878209 -0.00419904)
(1.39075 0.878729 -0.00470212)