/*--------------------------------*- C++ -*----------------------------------*\
  =========                 |
  \\      /  F ield         | OpenFOAM: The Open Source CFD Toolbox
   \\    /   O peration     | Website:  https://openfoam.org
    \\  /    A nd           | Version:  7
     \\/     M anipulation  |
\*---------------------------------------------------------------------------*/
FoamFile
{
    version     2.0;
    format      ascii;
    class       volScalarField;
    location    "2.45";
    object      T;
}
// * * * * * * * * * * * * * * * * * * * * * * * * * * * * * * * * * * * * * //

dimensions      [0 0 0 1 0 0 0];

internalField   nonuniform List<scalar> 
3000
(
280.357
280.956
280.821
280.976
281.002
281.028
281.091
281.071
281.219
281.04
280.639
281.116
281.098
281.228
281.269
281.29
281.349
281.319
281.458
281.268
280.511
281.125
281.1
281.284
281.343
281.376
281.453
281.424
281.597
281.408
280.781
281.119
281.305
281.467
281.561
281.589
281.653
281.608
281.732
281.555
280.721
281.096
281.329
281.538
281.658
281.693
281.754
281.709
281.804
281.653
280.799
281.083
281.378
281.557
281.68
281.719
281.778
281.74
281.814
281.691
280.798
281.083
281.378
281.557
281.679
281.721
281.776
281.745
281.804
281.708
280.721
281.096
281.328
281.539
281.656
281.697
281.746
281.724
281.777
281.702
280.78
281.119
281.305
281.469
281.558
281.595
281.642
281.629
281.692
281.632
280.511
281.125
281.1
281.286
281.34
281.382
281.441
281.447
281.551
281.501
280.639
281.116
281.097
281.23
281.266
281.295
281.338
281.341
281.414
281.36
280.357
280.956
280.82
280.977
280.999
281.034
281.081
281.091
281.177
281.122
283.64
283.035
283.287
283.17
283.196
283.156
283.141
283.055
283.03
282.783
283.115
282.613
282.698
282.618
282.622
282.586
282.581
282.499
282.504
282.246
283.29
282.534
282.66
282.53
282.523
282.471
282.455
282.36
282.351
282.088
283.039
282.44
282.374
282.264
282.233
282.184
282.186
282.102
282.144
281.907
283.152
282.442
282.321
282.166
282.12
282.069
282.076
281.998
282.053
281.855
283.096
282.437
282.24
282.113
282.066
282.014
282.02
281.949
281.997
281.835
283.096
282.437
282.24
282.113
282.065
282.016
282.017
281.955
281.988
281.851
283.152
282.443
282.32
282.167
282.118
282.074
282.068
282.013
282.026
281.902
283.039
282.44
282.373
282.266
282.23
282.191
282.175
282.124
282.103
281.982
283.289
282.535
282.659
282.532
282.52
282.478
282.442
282.385
282.303
282.184
283.114
282.614
282.697
282.62
282.618
282.593
282.568
282.523
282.455
282.348
283.64
283.035
283.286
283.172
283.193
283.163
283.129
283.079
282.982
282.886
283.362
283.056
283.089
282.99
282.973
282.927
282.917
282.827
282.854
282.53
283.256
282.939
282.877
282.773
282.733
282.679
282.671
282.576
282.627
282.298
283.272
282.919
282.806
282.668
282.598
282.52
282.507
282.399
282.463
282.148
283.221
282.89
282.706
282.54
282.443
282.346
282.331
282.218
282.291
282.028
283.231
282.903
282.681
282.484
282.365
282.251
282.229
282.117
282.182
281.973
283.219
282.905
282.656
282.451
282.325
282.207
282.176
282.073
282.119
281.954
283.218
282.906
282.656
282.452
282.324
282.209
282.172
282.079
282.109
281.97
283.231
282.903
282.68
282.486
282.362
282.258
282.218
282.136
282.151
282.022
283.22
282.89
282.704
282.542
282.439
282.354
282.315
282.246
282.242
282.11
283.272
282.92
282.804
282.67
282.593
282.53
282.49
282.432
282.4
282.264
283.256
282.94
282.876
282.775
282.729
282.687
282.655
282.608
282.561
282.433
283.361
283.057
283.088
282.992
282.969
282.935
282.903
282.857
282.791
282.673
283.64
283.035
283.287
283.17
283.196
283.156
283.141
283.055
283.03
282.783
283.115
282.613
282.698
282.618
282.622
282.586
282.581
282.499
282.504
282.246
283.29
282.534
282.66
282.53
282.523
282.471
282.455
282.36
282.351
282.088
283.039
282.44
282.374
282.264
282.233
282.184
282.186
282.102
282.144
281.907
283.152
282.442
282.321
282.166
282.12
282.069
282.076
281.998
282.053
281.855
283.096
282.437
282.24
282.113
282.066
282.014
282.02
281.949
281.997
281.835
283.096
282.437
282.24
282.113
282.065
282.016
282.017
281.955
281.988
281.851
283.152
282.443
282.32
282.167
282.118
282.074
282.068
282.013
282.026
281.902
283.039
282.44
282.373
282.266
282.23
282.191
282.175
282.124
282.103
281.982
283.289
282.535
282.659
282.532
282.52
282.478
282.442
282.385
282.303
282.184
283.114
282.614
282.697
282.62
282.618
282.593
282.568
282.523
282.455
282.348
283.64
283.035
283.286
283.172
283.193
283.163
283.129
283.079
282.982
282.886
280.357
280.956
280.821
280.976
281.002
281.028
281.091
281.071
281.219
281.04
280.639
281.116
281.098
281.228
281.269
281.29
281.349
281.319
281.458
281.268
280.511
281.125
281.1
281.284
281.343
281.376
281.453
281.424
281.597
281.408
280.781
281.119
281.305
281.467
281.561
281.589
281.653
281.608
281.732
281.555
280.721
281.096
281.329
281.538
281.658
281.693
281.754
281.709
281.804
281.653
280.799
281.083
281.378
281.557
281.68
281.719
281.778
281.74
281.814
281.691
280.798
281.083
281.378
281.557
281.679
281.721
281.776
281.745
281.804
281.708
280.721
281.096
281.328
281.539
281.656
281.697
281.746
281.724
281.777
281.702
280.78
281.119
281.305
281.469
281.558
281.595
281.642
281.629
281.692
281.632
280.511
281.125
281.1
281.286
281.34
281.382
281.441
281.447
281.551
281.501
280.639
281.116
281.097
281.23
281.266
281.295
281.338
281.341
281.414
281.36
280.357
280.956
280.82
280.977
280.999
281.034
281.081
281.091
281.177
281.122
282.315
283.164
283.809
284.396
284.969
285.538
286.109
286.683
287.251
287.81
288.368
288.945
289.541
290.132
290.682
291.184
291.674
292.22
292.875
293.65
294.5
295.349
296.116
296.745
297.214
297.532
297.727
297.831
297.876
297.886
297.877
297.857
297.833
297.806
297.781
297.751
297.729
297.696
297.675
297.648
282.42
283.26
283.9
284.487
285.06
285.63
286.201
286.776
287.346
287.905
288.464
289.041
289.638
290.23
290.782
291.285
291.776
292.321
292.975
293.749
294.599
295.45
296.22
296.854
297.327
297.648
297.845
297.951
297.997
298.007
297.998
297.978
297.955
297.927
297.902
297.872
297.85
297.816
297.797
297.77
282.304
283.134
283.778
284.366
284.94
285.51
286.081
286.656
287.227
287.787
288.346
288.922
289.519
290.112
290.666
291.171
291.661
292.203
292.853
293.623
294.472
295.325
296.101
296.74
297.22
297.547
297.749
297.858
297.906
297.917
297.908
297.888
297.865
297.838
297.813
297.782
297.76
297.726
297.706
297.678
282.276
283.06
283.687
284.273
284.846
285.415
285.987
286.562
287.133
287.693
288.252
288.828
289.425
290.019
290.576
291.082
291.572
292.11
292.754
293.519
294.367
295.222
296.003
296.65
297.138
297.472
297.679
297.792
297.842
297.855
297.847
297.827
297.804
297.776
297.751
297.721
297.698
297.664
297.646
297.619
282.192
282.928
283.543
284.126
284.698
285.268
285.839
286.414
286.986
287.546
288.105
288.68
289.276
289.871
290.43
290.938
291.427
291.962
292.601
293.362
294.208
295.065
295.85
296.504
296.998
297.338
297.549
297.665
297.717
297.731
297.723
297.704
297.68
297.653
297.628
297.597
297.574
297.541
297.523
297.496
282.106
282.779
283.382
283.962
284.535
285.104
285.675
286.25
286.821
287.382
287.94
288.515
289.111
289.707
290.266
290.775
291.263
291.796
292.433
293.192
294.037
294.894
295.682
296.338
296.836
297.179
297.393
297.51
297.564
297.578
297.57
297.551
297.528
297.5
297.475
297.444
297.421
297.388
297.371
297.344
282.024
282.644
283.236
283.815
284.387
284.955
285.527
286.102
286.673
287.233
287.792
288.366
288.962
289.558
290.117
290.625
291.114
291.647
292.283
293.042
293.887
294.744
295.532
296.188
296.686
297.029
297.242
297.36
297.413
297.427
297.42
297.4
297.377
297.349
297.323
297.293
297.27
297.236
297.22
297.192
281.938
282.521
283.105
283.682
284.253
284.822
285.393
285.968
286.539
287.099
287.658
288.233
288.829
289.424
289.982
290.489
290.978
291.513
292.152
292.913
293.759
294.615
295.4
296.053
296.547
296.887
297.097
297.213
297.265
297.278
297.27
297.251
297.227
297.199
297.174
297.143
297.12
297.086
297.069
297.042
281.829
282.378
282.958
283.534
284.106
284.674
285.246
285.821
286.391
286.951
287.509
288.085
288.681
289.275
289.831
290.337
290.826
291.364
292.008
292.772
293.62
294.474
295.255
295.901
296.389
296.722
296.928
297.041
297.091
297.103
297.094
297.074
297.05
297.022
296.996
296.966
296.943
296.909
296.891
296.863
281.641
282.18
282.767
283.344
283.916
284.484
285.055
285.63
286.199
286.759
287.317
287.893
288.49
289.082
289.635
290.139
290.629
291.17
291.819
292.589
293.438
294.29
295.065
295.703
296.182
296.509
296.709
296.818
296.865
296.876
296.866
296.846
296.822
296.794
296.768
296.737
296.714
296.68
296.659
296.631
281.543
282.065
282.644
283.219
283.79
284.358
284.929
285.503
286.072
286.63
287.188
287.765
288.361
288.952
289.503
290.005
290.496
291.04
291.693
292.466
293.316
294.166
294.935
295.567
296.039
296.36
296.556
296.661
296.706
296.715
296.705
296.685
296.66
296.632
296.607
296.576
296.552
296.518
296.499
296.471
281.271
281.796
282.379
282.954
283.524
284.091
284.661
285.234
285.802
286.36
286.917
287.493
288.089
288.678
289.227
289.728
290.218
290.763
291.417
292.191
293.041
293.888
294.654
295.282
295.75
296.067
296.26
296.364
296.408
296.417
296.407
296.386
296.361
296.333
296.308
296.277
296.253
296.219
296.199
296.171
284.193
284.995
285.592
286.175
286.749
287.322
287.899
288.478
289.053
289.617
290.182
290.765
291.367
291.964
292.52
293.027
293.523
294.075
294.738
295.521
296.381
297.239
298.014
298.649
299.122
299.443
299.639
299.744
299.79
299.799
299.79
299.769
299.746
299.718
299.693
299.663
299.641
299.609
299.598
299.575
283.437
284.237
284.839
285.421
285.994
286.565
287.14
287.717
288.29
288.852
289.415
289.995
290.595
291.191
291.746
292.252
292.745
293.293
293.95
294.727
295.583
296.439
297.214
297.851
298.328
298.651
298.85
298.957
299.003
299.014
299.004
298.984
298.961
298.933
298.908
298.878
298.856
298.823
298.811
298.787
283.087
283.86
284.454
285.033
285.605
286.175
286.748
287.325
287.897
288.459
289.02
289.599
290.198
290.793
291.35
291.856
292.349
292.891
293.542
294.314
295.166
296.022
296.802
297.445
297.928
298.258
298.461
298.571
298.62
298.631
298.623
298.603
298.579
298.552
298.527
298.497
298.474
298.441
298.43
298.406
282.666
283.414
284.015
284.595
285.167
285.737
286.309
286.885
287.457
288.018
288.578
289.155
289.753
290.348
290.906
291.414
291.904
292.442
293.086
293.852
294.701
295.558
296.341
296.991
297.482
297.818
298.026
298.14
298.191
298.204
298.196
298.176
298.153
298.125
298.1
298.07
298.048
298.014
298
297.975
282.416
283.112
283.711
284.291
284.863
285.432
286.004
286.58
287.152
287.713
288.272
288.847
289.444
290.04
290.599
291.108
291.598
292.132
292.771
293.532
294.378
295.236
296.023
296.679
297.175
297.517
297.73
297.847
297.9
297.914
297.906
297.887
297.863
297.836
297.811
297.78
297.758
297.724
297.709
297.683
282.248
282.896
283.488
284.066
284.638
285.207
285.778
286.354
286.925
287.487
288.045
288.62
289.216
289.812
290.372
290.882
291.371
291.903
292.539
293.297
294.142
295
295.789
296.448
296.948
297.293
297.508
297.627
297.681
297.695
297.688
297.669
297.645
297.618
297.592
297.562
297.539
297.505
297.49
297.463
282.165
282.76
283.341
283.917
284.489
285.057
285.629
286.204
286.776
287.337
287.895
288.47
289.066
289.662
290.222
290.731
291.22
291.752
292.388
293.146
293.991
294.849
295.638
296.297
296.797
297.142
297.357
297.475
297.529
297.543
297.536
297.516
297.493
297.465
297.44
297.409
297.386
297.353
297.337
297.31
282.16
282.703
283.271
283.845
284.416
284.984
285.556
286.131
286.703
287.264
287.823
288.398
288.994
289.59
290.149
290.658
291.147
291.681
292.319
293.08
293.926
294.783
295.57
296.226
296.722
297.063
297.276
297.392
297.445
297.458
297.451
297.431
297.407
297.38
297.354
297.323
297.3
297.267
297.251
297.225
282.219
282.73
283.284
283.855
284.426
284.994
285.566
286.142
286.713
287.274
287.833
288.409
289.007
289.602
290.159
290.667
291.157
291.694
292.338
293.103
293.951
294.808
295.591
296.24
296.73
297.066
297.273
297.387
297.437
297.449
297.441
297.421
297.397
297.369
297.343
297.313
297.29
297.256
297.242
297.216
282.424
282.903
283.439
284.007
284.577
285.145
285.718
286.294
286.866
287.427
287.988
288.565
289.164
289.759
290.314
290.82
291.312
291.854
292.504
293.275
294.127
294.983
295.761
296.403
296.886
297.215
297.417
297.526
297.574
297.585
297.576
297.555
297.531
297.503
297.477
297.447
297.424
297.39
297.378
297.354
282.539
283.013
283.554
284.123
284.694
285.263
285.837
286.413
286.985
287.547
288.108
288.688
289.287
289.882
290.436
290.941
291.434
291.98
292.637
293.414
294.269
295.123
295.897
296.534
297.009
297.332
297.529
297.635
297.681
297.69
297.68
297.659
297.635
297.607
297.581
297.55
297.527
297.493
297.481
297.456
283.043
283.506
284.04
284.609
285.181
285.752
286.328
286.907
287.48
288.044
288.607
289.189
289.791
290.387
290.941
291.447
291.942
292.493
293.155
293.938
294.797
295.653
296.427
297.06
297.533
297.852
298.047
298.151
298.195
298.204
298.193
298.172
298.148
298.119
298.093
298.062
298.039
298.006
297.994
297.97
284.055
284.88
285.482
286.064
286.638
287.21
287.785
288.364
288.938
289.501
290.064
290.647
291.249
291.844
292.398
292.904
293.399
293.951
294.614
295.398
296.257
297.112
297.885
298.517
298.988
299.307
299.501
299.605
299.65
299.659
299.65
299.629
299.606
299.579
299.554
299.524
299.502
299.469
299.458
299.434
283.465
284.285
284.888
285.47
286.042
286.613
287.188
287.766
288.338
288.901
289.463
290.043
290.644
291.239
291.794
292.3
292.794
293.341
293.998
294.776
295.631
296.487
297.263
297.901
298.377
298.701
298.9
299.007
299.054
299.064
299.055
299.035
299.011
298.984
298.959
298.929
298.906
298.873
298.861
298.837
283.043
283.84
284.443
285.023
285.596
286.166
286.739
287.316
287.889
288.451
289.011
289.59
290.189
290.785
291.342
291.849
292.341
292.883
293.532
294.303
295.155
296.012
296.793
297.438
297.923
298.254
298.458
298.569
298.618
298.63
298.621
298.602
298.578
298.551
298.526
298.495
298.473
298.44
298.427
298.402
282.682
283.439
284.043
284.624
285.196
285.765
286.338
286.914
287.486
288.048
288.608
289.184
289.782
290.378
290.937
291.446
291.936
292.473
293.115
293.879
294.728
295.585
296.371
297.024
297.517
297.856
298.066
298.181
298.233
298.247
298.239
298.219
298.196
298.168
298.143
298.113
298.09
298.057
298.043
298.017
282.428
283.131
283.731
284.311
284.883
285.452
286.024
286.6
287.172
287.734
288.293
288.868
289.465
290.062
290.622
291.132
291.621
292.154
292.79
293.549
294.395
295.253
296.043
296.702
297.203
297.547
297.763
297.881
297.935
297.95
297.942
297.923
297.9
297.872
297.847
297.817
297.794
297.76
297.745
297.718
282.267
282.911
283.503
284.082
284.654
285.222
285.794
286.37
286.942
287.503
288.062
288.636
289.232
289.829
290.39
290.901
291.389
291.92
292.553
293.309
294.153
295.012
295.805
296.467
296.971
297.319
297.537
297.657
297.712
297.727
297.721
297.701
297.678
297.651
297.625
297.595
297.572
297.538
297.522
297.495
282.19
282.778
283.359
283.934
284.506
285.074
285.646
286.222
286.793
287.355
287.913
288.488
289.084
289.68
290.242
290.752
291.241
291.771
292.404
293.16
294.004
294.863
295.655
296.318
296.821
297.169
297.387
297.507
297.562
297.577
297.57
297.551
297.528
297.5
297.475
297.444
297.421
297.387
297.371
297.344
282.19
282.729
283.296
283.869
284.44
285.009
285.581
286.156
286.728
287.289
287.848
288.423
289.019
289.616
290.176
290.685
291.174
291.707
292.343
293.102
293.947
294.805
295.595
296.254
296.753
297.098
297.313
297.431
297.485
297.499
297.491
297.472
297.448
297.42
297.395
297.364
297.341
297.307
297.292
297.265
282.261
282.765
283.318
283.888
284.459
285.027
285.6
286.175
286.747
287.308
287.868
288.444
289.041
289.637
290.195
290.703
291.193
291.73
292.371
293.135
293.983
294.841
295.626
296.278
296.77
297.109
297.318
297.433
297.484
297.497
297.489
297.469
297.445
297.417
297.391
297.361
297.338
297.304
297.289
297.263
282.404
282.883
283.425
283.993
284.564
285.132
285.705
286.282
286.853
287.415
287.975
288.553
289.151
289.746
290.303
290.809
291.3
291.842
292.491
293.261
294.112
294.969
295.748
296.393
296.877
297.207
297.41
297.521
297.569
297.58
297.571
297.551
297.527
297.498
297.473
297.442
297.419
297.385
297.372
297.346
282.559
283.028
283.566
284.134
284.705
285.274
285.848
286.425
286.997
287.558
288.12
288.699
289.299
289.893
290.448
290.953
291.445
291.992
292.648
293.425
294.28
295.135
295.91
296.546
297.022
297.345
297.542
297.648
297.694
297.703
297.693
297.672
297.648
297.62
297.594
297.563
297.54
297.506
297.493
297.468
282.772
283.235
283.771
284.339
284.91
285.48
286.055
286.632
287.205
287.767
288.33
288.911
289.512
290.106
290.659
291.164
291.658
292.209
292.871
293.653
294.511
295.366
296.137
296.768
297.237
297.554
297.747
297.85
297.894
297.902
297.892
297.87
297.846
297.817
297.791
297.761
297.738
297.704
297.691
297.667
284.193
284.995
285.592
286.175
286.749
287.322
287.899
288.478
289.053
289.617
290.182
290.765
291.367
291.964
292.52
293.027
293.523
294.075
294.738
295.521
296.381
297.239
298.014
298.649
299.122
299.443
299.639
299.744
299.79
299.799
299.79
299.769
299.746
299.718
299.693
299.663
299.641
299.609
299.598
299.575
283.437
284.237
284.839
285.421
285.994
286.565
287.14
287.717
288.29
288.852
289.415
289.995
290.595
291.191
291.746
292.252
292.745
293.293
293.95
294.727
295.583
296.439
297.214
297.851
298.328
298.651
298.85
298.957
299.003
299.014
299.004
298.984
298.961
298.933
298.908
298.878
298.856
298.823
298.811
298.787
283.087
283.86
284.454
285.033
285.605
286.175
286.748
287.325
287.897
288.459
289.02
289.599
290.198
290.793
291.35
291.856
292.349
292.891
293.542
294.314
295.166
296.022
296.802
297.445
297.928
298.258
298.461
298.571
298.62
298.631
298.623
298.603
298.579
298.552
298.527
298.497
298.474
298.441
298.43
298.406
282.666
283.414
284.015
284.595
285.167
285.737
286.309
286.885
287.457
288.018
288.578
289.155
289.753
290.348
290.906
291.414
291.904
292.442
293.086
293.852
294.701
295.558
296.341
296.991
297.482
297.818
298.026
298.14
298.191
298.204
298.196
298.176
298.153
298.125
298.1
298.07
298.048
298.014
298
297.975
282.416
283.112
283.711
284.291
284.863
285.432
286.004
286.58
287.152
287.713
288.272
288.847
289.444
290.04
290.599
291.108
291.598
292.132
292.771
293.532
294.378
295.236
296.023
296.679
297.175
297.517
297.73
297.847
297.9
297.914
297.906
297.887
297.863
297.836
297.811
297.78
297.758
297.724
297.709
297.683
282.248
282.896
283.488
284.066
284.638
285.207
285.778
286.354
286.925
287.487
288.045
288.62
289.216
289.812
290.372
290.882
291.371
291.903
292.539
293.297
294.142
295
295.789
296.448
296.948
297.293
297.508
297.627
297.681
297.695
297.688
297.669
297.645
297.618
297.592
297.562
297.539
297.505
297.49
297.463
282.165
282.76
283.341
283.917
284.489
285.057
285.629
286.204
286.776
287.337
287.895
288.47
289.066
289.662
290.222
290.731
291.22
291.752
292.388
293.146
293.991
294.849
295.638
296.297
296.797
297.142
297.357
297.475
297.529
297.543
297.536
297.516
297.493
297.465
297.44
297.409
297.386
297.353
297.337
297.31
282.16
282.703
283.271
283.845
284.416
284.984
285.556
286.131
286.703
287.264
287.823
288.398
288.994
289.59
290.149
290.658
291.147
291.681
292.319
293.08
293.926
294.783
295.57
296.226
296.722
297.063
297.276
297.392
297.445
297.458
297.451
297.431
297.407
297.38
297.354
297.323
297.3
297.267
297.251
297.225
282.219
282.73
283.284
283.855
284.426
284.994
285.566
286.142
286.713
287.274
287.833
288.409
289.007
289.602
290.159
290.667
291.157
291.694
292.338
293.103
293.951
294.808
295.591
296.24
296.73
297.066
297.273
297.387
297.437
297.449
297.441
297.421
297.397
297.369
297.343
297.313
297.29
297.256
297.242
297.216
282.424
282.903
283.439
284.007
284.577
285.145
285.718
286.294
286.866
287.427
287.988
288.565
289.164
289.759
290.314
290.82
291.312
291.854
292.504
293.275
294.127
294.983
295.761
296.403
296.886
297.215
297.417
297.526
297.574
297.585
297.576
297.555
297.531
297.503
297.477
297.447
297.424
297.39
297.378
297.354
282.539
283.013
283.554
284.123
284.694
285.263
285.837
286.413
286.985
287.547
288.108
288.688
289.287
289.882
290.436
290.941
291.434
291.98
292.637
293.414
294.269
295.123
295.897
296.534
297.009
297.332
297.529
297.635
297.681
297.69
297.68
297.659
297.635
297.607
297.581
297.55
297.527
297.493
297.481
297.456
283.043
283.506
284.04
284.609
285.181
285.752
286.328
286.907
287.48
288.044
288.607
289.189
289.791
290.387
290.941
291.447
291.942
292.493
293.155
293.938
294.797
295.653
296.427
297.06
297.533
297.852
298.047
298.151
298.195
298.204
298.193
298.172
298.148
298.119
298.093
298.062
298.039
298.006
297.994
297.97
282.315
283.164
283.809
284.396
284.969
285.538
286.109
286.683
287.251
287.81
288.368
288.945
289.541
290.132
290.682
291.184
291.674
292.22
292.875
293.65
294.5
295.349
296.116
296.745
297.214
297.532
297.727
297.831
297.876
297.886
297.877
297.857
297.833
297.806
297.781
297.751
297.729
297.696
297.675
297.648
282.42
283.26
283.9
284.487
285.06
285.63
286.201
286.776
287.346
287.905
288.464
289.041
289.638
290.23
290.782
291.285
291.776
292.321
292.975
293.749
294.599
295.45
296.22
296.854
297.327
297.648
297.845
297.951
297.997
298.007
297.998
297.978
297.955
297.927
297.902
297.872
297.85
297.816
297.797
297.77
282.304
283.134
283.778
284.366
284.94
285.51
286.081
286.656
287.227
287.787
288.346
288.922
289.519
290.112
290.666
291.171
291.661
292.203
292.853
293.623
294.472
295.325
296.101
296.74
297.22
297.547
297.749
297.858
297.906
297.917
297.908
297.888
297.865
297.838
297.813
297.782
297.76
297.726
297.706
297.678
282.276
283.06
283.687
284.273
284.846
285.415
285.987
286.562
287.133
287.693
288.252
288.828
289.425
290.019
290.576
291.082
291.572
292.11
292.754
293.519
294.367
295.222
296.003
296.65
297.138
297.472
297.679
297.792
297.842
297.855
297.847
297.827
297.804
297.776
297.751
297.721
297.698
297.664
297.646
297.619
282.192
282.928
283.543
284.126
284.698
285.268
285.839
286.414
286.986
287.546
288.105
288.68
289.276
289.871
290.43
290.938
291.427
291.962
292.601
293.362
294.208
295.065
295.85
296.504
296.998
297.338
297.549
297.665
297.717
297.731
297.723
297.704
297.68
297.653
297.628
297.597
297.574
297.541
297.523
297.496
282.106
282.779
283.382
283.962
284.535
285.104
285.675
286.25
286.821
287.382
287.94
288.515
289.111
289.707
290.266
290.775
291.263
291.796
292.433
293.192
294.037
294.894
295.682
296.338
296.836
297.179
297.393
297.51
297.564
297.578
297.57
297.551
297.528
297.5
297.475
297.444
297.421
297.388
297.371
297.344
282.024
282.644
283.236
283.815
284.387
284.955
285.527
286.102
286.673
287.233
287.792
288.366
288.962
289.558
290.117
290.625
291.114
291.647
292.283
293.042
293.887
294.744
295.532
296.188
296.686
297.029
297.242
297.36
297.413
297.427
297.42
297.4
297.377
297.349
297.323
297.293
297.27
297.236
297.22
297.192
281.938
282.521
283.105
283.682
284.253
284.822
285.393
285.968
286.539
287.099
287.658
288.233
288.829
289.424
289.982
290.489
290.978
291.513
292.152
292.913
293.759
294.615
295.4
296.053
296.547
296.887
297.097
297.213
297.265
297.278
297.27
297.251
297.227
297.199
297.174
297.143
297.12
297.086
297.069
297.042
281.829
282.378
282.958
283.534
284.106
284.674
285.246
285.821
286.391
286.951
287.509
288.085
288.681
289.275
289.831
290.337
290.826
291.364
292.008
292.772
293.62
294.474
295.255
295.901
296.389
296.722
296.928
297.041
297.091
297.103
297.094
297.074
297.05
297.022
296.996
296.966
296.943
296.909
296.891
296.863
281.641
282.18
282.767
283.344
283.916
284.484
285.055
285.63
286.199
286.759
287.317
287.893
288.49
289.082
289.635
290.139
290.629
291.17
291.819
292.589
293.438
294.29
295.065
295.703
296.182
296.509
296.709
296.818
296.865
296.876
296.866
296.846
296.822
296.794
296.768
296.737
296.714
296.68
296.659
296.631
281.543
282.065
282.644
283.219
283.79
284.358
284.929
285.503
286.072
286.63
287.188
287.765
288.361
288.952
289.503
290.005
290.496
291.04
291.693
292.466
293.316
294.166
294.935
295.567
296.039
296.36
296.556
296.661
296.706
296.715
296.705
296.685
296.66
296.632
296.607
296.576
296.552
296.518
296.499
296.471
281.271
281.796
282.379
282.954
283.524
284.091
284.661
285.234
285.802
286.36
286.917
287.493
288.089
288.678
289.227
289.728
290.218
290.763
291.417
292.191
293.041
293.888
294.654
295.282
295.75
296.067
296.26
296.364
296.408
296.417
296.407
296.386
296.361
296.333
296.308
296.277
296.253
296.219
296.199
296.171
)
;

boundaryField
{
    upperWall
    {
        type            zeroGradient;
    }
    lowerWall
    {
        type            zeroGradient;
    }
    heatedWall
    {
        type            externalWallHeatFluxTemperature;
        mode            power;
        kappaMethod     fluidThermo;
        kappa           none;
        alphaAni        Anialpha;
        Q               5040;
        qr              none;
        refValue        nonuniform List<scalar> 
200
(
282.378
284.333
284.355
284.333
282.378
283.227
285.135
285.178
285.135
283.227
283.872
285.732
285.78
285.732
283.872
284.459
286.315
286.363
286.315
284.459
285.032
286.889
286.936
286.889
285.032
285.601
287.462
287.509
287.462
285.601
286.172
288.039
288.084
288.039
286.172
286.746
288.619
288.663
288.619
286.746
287.314
289.193
289.237
289.193
287.314
287.873
289.758
289.8
289.758
287.873
288.431
290.322
290.364
290.322
288.431
289.008
290.905
290.947
290.905
289.008
289.605
291.508
291.549
291.508
289.605
290.195
292.105
292.145
292.105
290.195
290.745
292.661
292.699
292.661
290.745
291.247
293.168
293.205
293.168
291.247
291.738
293.664
293.7
293.664
291.738
292.283
294.216
294.252
294.216
292.283
292.939
294.879
294.916
294.879
292.939
293.713
295.663
295.699
295.663
293.713
294.564
296.523
296.558
296.523
294.564
295.412
297.38
297.414
297.38
295.412
296.179
298.155
298.187
298.155
296.179
296.809
298.791
298.819
298.791
296.809
297.278
299.264
299.291
299.264
297.278
297.596
299.585
299.609
299.585
297.596
297.791
299.781
299.804
299.781
297.791
297.895
299.886
299.908
299.886
297.895
297.941
299.932
299.953
299.932
297.941
297.95
299.942
299.963
299.942
297.95
297.941
299.932
299.953
299.932
297.941
297.921
299.912
299.933
299.912
297.921
297.897
299.888
299.91
299.888
297.897
297.87
299.861
299.883
299.861
297.87
297.846
299.836
299.858
299.836
297.846
297.816
299.806
299.828
299.806
297.816
297.793
299.784
299.807
299.784
297.793
297.76
299.752
299.774
299.752
297.76
297.74
299.741
299.763
299.741
297.74
297.713
299.718
299.739
299.718
297.713
)
;
        refGradient     nonuniform List<scalar> 
200
(
7.54793
16.7868
35.9731
16.7868
7.54793
7.55133
16.774
35.7606
16.774
7.55133
7.55557
16.7869
35.8089
16.7869
7.55557
7.561
16.7982
35.8092
16.7982
7.561
7.56573
16.8094
35.8412
16.8094
7.56573
7.57084
16.8205
35.8574
16.8205
7.57084
7.57575
16.8316
35.8831
16.8316
7.57575
7.5808
16.8427
35.9041
16.8427
7.5808
7.58579
16.8538
35.9277
16.8538
7.58579
7.59082
16.8649
35.95
16.8649
7.59082
7.59584
16.876
35.9731
16.876
7.59584
7.60091
16.8872
35.996
16.8872
7.60091
7.60601
16.8985
36.0193
16.8985
7.60601
7.61112
16.9098
36.0425
16.9098
7.61112
7.61619
16.921
36.0656
16.921
7.61619
7.62122
16.9322
36.0884
16.9322
7.62122
7.62627
16.9433
36.1113
16.9433
7.62627
7.6314
16.9547
36.1345
16.9547
7.6314
7.63667
16.9663
36.1586
16.9663
7.63667
7.64208
16.9783
36.1833
16.9783
7.64208
7.64759
16.9905
36.2085
16.9905
7.64759
7.65309
17.0027
36.2338
17.0027
7.65309
7.6585
17.0148
36.2586
17.0148
7.6585
7.66377
17.0265
36.2826
17.0265
7.66377
7.66888
17.0378
36.3058
17.0378
7.66888
7.67385
17.0488
36.3281
17.0488
7.67385
7.67869
17.0595
36.3499
17.0595
7.67869
7.68346
17.07
36.3712
17.07
7.68346
7.68818
17.0804
36.3924
17.0804
7.68818
7.69288
17.0907
36.4133
17.0907
7.69288
7.69758
17.1011
36.4342
17.1011
7.69758
7.70228
17.1114
36.4551
17.1114
7.70228
7.70699
17.1218
36.4762
17.1218
7.70699
7.71171
17.1322
36.497
17.1322
7.71171
7.71646
17.1426
36.5183
17.1426
7.71646
7.7212
17.153
36.539
17.153
7.7212
7.72598
17.1636
36.5606
17.1636
7.72598
7.73075
17.1739
36.5797
17.1739
7.73075
7.73561
17.1841
36.6021
17.1841
7.73561
7.7407
17.1945
36.6154
17.1945
7.7407
)
;
        valueFraction   uniform 0;
        value           nonuniform List<scalar> 
200
(
282.378
284.333
284.355
284.333
282.378
283.227
285.135
285.178
285.135
283.227
283.872
285.732
285.78
285.732
283.872
284.459
286.315
286.363
286.315
284.459
285.032
286.889
286.936
286.889
285.032
285.601
287.462
287.509
287.462
285.601
286.172
288.039
288.084
288.039
286.172
286.746
288.619
288.663
288.619
286.746
287.314
289.193
289.237
289.193
287.314
287.873
289.758
289.8
289.758
287.873
288.431
290.322
290.364
290.322
288.431
289.008
290.905
290.947
290.905
289.008
289.605
291.508
291.549
291.508
289.605
290.195
292.105
292.145
292.105
290.195
290.745
292.661
292.699
292.661
290.745
291.247
293.168
293.205
293.168
291.247
291.738
293.664
293.7
293.664
291.738
292.283
294.216
294.252
294.216
292.283
292.939
294.879
294.916
294.879
292.939
293.713
295.663
295.699
295.663
293.713
294.564
296.523
296.558
296.523
294.564
295.412
297.38
297.414
297.38
295.412
296.179
298.155
298.187
298.155
296.179
296.809
298.791
298.819
298.791
296.809
297.278
299.264
299.291
299.264
297.278
297.596
299.585
299.609
299.585
297.596
297.791
299.781
299.804
299.781
297.791
297.895
299.886
299.908
299.886
297.895
297.941
299.932
299.953
299.932
297.941
297.95
299.942
299.963
299.942
297.95
297.941
299.932
299.953
299.932
297.941
297.921
299.912
299.933
299.912
297.921
297.897
299.888
299.91
299.888
297.897
297.87
299.861
299.883
299.861
297.87
297.846
299.836
299.858
299.836
297.846
297.816
299.806
299.828
299.806
297.816
297.793
299.784
299.807
299.784
297.793
297.76
299.752
299.774
299.752
297.76
297.74
299.741
299.763
299.741
297.74
297.713
299.718
299.739
299.718
297.713
)
;
    }
    inlet
    {
        type            fixedValue;
        value           uniform 283.15;
    }
    outlet
    {
        type            inletOutlet;
        inletValue      uniform 283.15;
        value           nonuniform List<scalar> 
60
(
297.648
297.77
297.678
297.619
297.496
297.344
297.192