/*--------------------------------*- C++ -*----------------------------------*\
  =========                 |
  \\      /  F ield         | OpenFOAM: The Open Source CFD Toolbox
   \\    /   O peration     | Website:  https://openfoam.org
    \\  /    A nd           | Version:  7
     \\/     M anipulation  |
\*---------------------------------------------------------------------------*/
FoamFile
{
    version     2.0;
    format      ascii;
    class       volScalarField;
    location    "5";
    object      k;
}
// * * * * * * * * * * * * * * * * * * * * * * * * * * * * * * * * * * * * * //

dimensions      [0 2 -2 0 0 0 0];

internalField   nonuniform List<scalar> 
15000
(
0.000519077
0.00276989
0.00798079
0.0159027
0.0210628
0.0305042
0.048379
0.0598808
0.0711836
0.0881968
0.10638
0.122737
0.139373
0.157492
0.175723
0.193089
0.21005
0.227044
0.243722
0.259587
0.274583
0.288914
0.302646
0.315645
0.327776
0.339033
0.349505
0.359252
0.368274
0.376543
0.384081
0.390939
0.39718
0.402826
0.407904
0.412427
0.416454
0.420009
0.423146
0.425863
0.428219
0.430208
0.431906
0.433279
0.434423
0.435267
0.435947
0.43634
0.436644
0.436648
0.436572
0.436381
0.436023
0.435546
0.43496
0.434277
0.433505
0.432653
0.431729
0.430739
0.42969
0.428588
0.427438
0.426246
0.425016
0.423752
0.422458
0.421137
0.419791
0.418423
0.417035
0.415631
0.414213
0.412782
0.41134
0.40989
0.408431
0.406965
0.405494
0.404018
0.402539
0.401057
0.399573
0.398088
0.396602
0.395117
0.393632
0.392149
0.390668
0.389188
0.387712
0.386238
0.384767
0.3833
0.381837
0.380377
0.378922
0.377471
0.376025
0.374584
0.373148
0.371717
0.370292
0.368873
0.367458
0.36605
0.364647
0.36325
0.361859
0.360473
0.359094
0.357722
0.356355
0.354995
0.353641
0.352294
0.350953
0.349619
0.348292
0.346972
0.345658
0.344352
0.343052
0.34176
0.340475
0.339196
0.337925
0.336661
0.335404
0.334154
0.33291
0.331674
0.330445
0.329223
0.328008
0.3268
0.325599
0.324406
0.32322
0.322041
0.32087
0.319705
0.318548
0.317398
0.316256
0.315121
0.313993
0.312872
0.311759
0.310653
0.309554
0.308463
0.307379
0.306302
0.305233
0.304171
0.303116
0.302069
0.301029
0.299996
0.29897
0.297951
0.29694
0.295935
0.294938
0.293948
0.292965
0.291989
0.291021
0.290059
0.289104
0.288157
0.287216
0.286283
0.285356
0.284436
0.283522
0.282616
0.281716
0.280823
0.279937
0.279058
0.278185
0.27732
0.27646
0.275608
0.274762
0.273923
0.27309
0.272263
0.271443
0.27063
0.269823
0.269022
0.268227
0.267439
0.266657
0.265881
0.265111
0.264348
0.26359
0.262838
0.262092
0.261352
0.260618
0.25989
0.259167
0.25845
0.257739
0.257033
0.256333
0.255638
0.254948
0.254263
0.253584
0.252909
0.25224
0.251575
0.250916
0.250261
0.24961
0.248964
0.248323
0.247686
0.247053
0.246424
0.245798
0.245177
0.244559
0.243943
0.243332
0.242722
0.242117
0.24151
0.24091
0.240303
0.239708
0.239098
0.238506
0.237885
0.237297
0.236652
0.236064
0.235381
0.234776
0.234054
0.233361
0.232686
0.231626
0.232909
2.00647e-05
2.07924e-05
2.41339e-05
3.30797e-05
4.743e-05
7.99428e-05
0.000168662
0.000248514
0.000331973
0.000498323
0.000837632
0.00115271
0.00137584
0.0017631
0.00244834
0.00309612
0.00364427
0.00433127
0.0052581
0.00626764
0.00723936
0.00823818
0.0093694
0.0106181
0.0119064
0.0132003
0.0145307
0.015919
0.0173543
0.0188067
0.0202657
0.0217292
0.0232022
0.0246777
0.0261515
0.0276117
0.0290562
0.030479
0.0318835
0.0332629
0.0346163
0.0359346
0.037221
0.0384719
0.0396918
0.0408742
0.0420203
0.0431257
0.0441935
0.0452231
0.0462151
0.0471699
0.0480864
0.0489647
0.0498055
0.05061
0.0513801
0.0521171
0.0528219
0.0534949
0.0541363
0.0547465
0.0553265
0.0558772
0.0564003
0.0568976
0.0573706
0.0578203
0.058247
0.0586511
0.0590331
0.0593941
0.0597353
0.0600584
0.0603645
0.0606546
0.0609295
0.0611897
0.0614355
0.0616673
0.0618856
0.0620909
0.062284
0.0624656
0.0626367
0.0627982
0.0629507
0.0630949
0.0632313
0.0633605
0.0634827
0.0635983
0.0637075
0.0638106
0.0639082
0.0640007
0.0640887
0.0641725
0.0642524
0.0643286
0.0644011
0.0644699
0.0645354
0.0645978
0.0646577
0.0647155
0.0647717
0.0648264
0.0648799
0.0649322
0.0649835
0.0650336
0.0650828
0.0651313
0.0651791
0.0652265
0.0652737
0.0653208
0.0653677
0.0654147
0.0654616
0.0655086
0.0655558
0.0656035
0.0656518
0.0657009
0.0657507
0.0658015
0.0658532
0.0659057
0.0659591
0.0660133
0.0660683
0.0661243
0.0661812
0.0662391
0.0662981
0.0663583
0.0664198
0.0664825
0.0665466
0.0666121
0.0666789
0.066747
0.0668163
0.0668868
0.0669584
0.0670312
0.0671051
0.0671802
0.0672565
0.0673341
0.0674129
0.0674931
0.0675747
0.0676577
0.0677421
0.0678279
0.0679151
0.0680039
0.068094
0.0681855
0.0682784
0.0683726
0.0684681
0.068565
0.0686631
0.0687627
0.0688635
0.0689657
0.069069
0.0691735
0.0692788
0.0693852
0.0694924
0.0696008
0.06971
0.0698206
0.0699322
0.0700452
0.0701591
0.0702744
0.0703901
0.0705071
0.0706243
0.0707429
0.0708617
0.0709821
0.0711027
0.0712252
0.0713477
0.0714721
0.0715964
0.0717224
0.071848
0.0719752
0.0721017
0.0722301
0.0723575
0.0724872
0.0726157
0.0727466
0.0728759
0.0730081
0.0731383
0.0732717
0.0734028
0.0735376
0.0736696
0.073806
0.0739389
0.0740768
0.0742105
0.0743501
0.0744846
0.0746258
0.0747609
0.0749037
0.0750391
0.0751835
0.0753191
0.0754654
0.0756012
0.0757495
0.0758855
0.0760364
0.0761727
0.0763268
0.0764637
0.0766216
0.0767592
0.0769217
0.0770599
0.0772279
0.0773671
0.0775414
0.0776815
0.0778632
0.0780039
0.0781939
0.0783351
0.0785341
0.0786747
0.0788823
0.0790219
0.0792351
0.0793741
0.0795815
0.079728
0.0798949
2.00885e-05
2.00941e-05
2.00878e-05
2.00811e-05
2.00829e-05
2.00966e-05
2.01515e-05
2.0244e-05
2.03637e-05
2.06054e-05
2.12568e-05
2.21322e-05
2.28035e-05
2.38468e-05
2.63548e-05
3.00837e-05
3.29809e-05
3.58353e-05
4.1565e-05
5.14269e-05
6.07334e-05
6.70132e-05
7.72591e-05
9.62294e-05
0.000114419
0.000128597
0.000147495
0.000174966
0.000204407
0.000231046
0.000260319
0.000297243
0.000338613
0.000379039
0.000420495
0.000467813
0.000520848
0.000575086
0.000629725
0.000688076
0.00075185
0.000818241
0.000885084
0.0009539
0.00102721
0.00110415
0.00118216
0.00126066
0.00134168
0.00142615
0.0015128
0.0016
0.00168821
0.00177846
0.00187058
0.00196316
0.00205596
0.00214997
0.00224617
0.00234375
0.00244146
0.00253873
0.00263626
0.00273436
0.00283283
0.00293113
0.00302962
0.00312859
0.003228
0.00332691
0.00342488
0.00352188
0.00361852
0.00371482
0.00381082
0.00390626
0.00400158
0.00409675
0.00419177
0.0042859
0.00437906
0.00447101
0.00456212
0.00465203
0.00474084
0.00482822
0.00491467
0.00500018
0.00508512
0.00516907
0.00525223
0.00533421
0.00541529
0.005495
0.00557355
0.00565062
0.00572679
0.00580194
0.00587656
0.00595015
0.00602291
0.00609426
0.00616456
0.00623331
0.00630101
0.0063672
0.00643257
0.00649672
0.00656029
0.00662273
0.00668454
0.00674508
0.0068049
0.00686332
0.00692098
0.00697721
0.00703278
0.00708709
0.00714093
0.00719354
0.00724562
0.00729621
0.00734613
0.00739449
0.00744226
0.00748862
0.00753462
0.00757943
0.00762414
0.00766778
0.00771144
0.00775394
0.00779637
0.00783748
0.00787849
0.00791807
0.00795754
0.00799554
0.00803352
0.00807008
0.00810677
0.00814207
0.00817761
0.00821175
0.0082462
0.00827923
0.00831266
0.00834464
0.0083771
0.00840808
0.00843961
0.00846956
0.00850006
0.00852885
0.00855824
0.00858592
0.00861436
0.00864109
0.00866877
0.0086947
0.00872173
0.00874694
0.00877331
0.00879776
0.0088235
0.00884726
0.00887245
0.00889562
0.00892036
0.00894301
0.00896732
0.00898938
0.00901319
0.00903457
0.00905786
0.00907864
0.00910159
0.009122
0.00914484
0.00916497
0.00918765
0.00920739
0.00922972
0.00924884
0.00927067
0.0092891
0.0093105
0.00932849
0.00934983
0.00936767
0.00938918
0.00940701
0.00942868
0.00944634
0.00946796
0.00948522
0.00950665
0.00952339
0.00954464
0.00956097
0.00958224
0.00959838
0.00961986
0.00963587
0.00965752
0.00967331
0.00969506
0.00971055
0.00973241
0.00974765
0.00976978
0.00978496
0.00980753
0.0098227
0.0098458
0.009861
0.0098846
0.0098998
0.00992387
0.00993899
0.00996354
0.00997852
0.0100036
0.0100185
0.0100443
0.0100592
0.0100858
0.0101009
0.0101285
0.0101438
0.0101727
0.0101884
0.0102187
0.0102351
0.0102671
0.0102842
0.0103181
0.0103364
0.0103728
0.0103924
0.0104317
0.010453
0.0104959
0.0105195
0.010567
0.0105936
0.0106474
0.0106783
0.0107407
0.0107777
2.01561e-05
2.01681e-05
2.01609e-05
2.0151e-05
2.01406e-05
2.01312e-05
2.01238e-05
2.01137e-05
2.01011e-05
2.00923e-05
2.00879e-05
2.00805e-05
2.0069e-05
2.00623e-05
2.00622e-05
2.00638e-05
2.0066e-05
2.00693e-05
2.00767e-05
2.00974e-05
2.01328e-05
2.01556e-05
2.01927e-05
2.02637e-05
2.03754e-05
2.04405e-05
2.05688e-05
2.06803e-05
2.09327e-05
2.10893e-05
2.13996e-05
2.16009e-05
2.20309e-05
2.23075e-05
2.28775e-05
2.32287e-05
2.39574e-05
2.43992e-05
2.53066e-05
2.58468e-05
2.69624e-05
2.76207e-05
2.89623e-05
2.97388e-05
3.12667e-05
3.22945e-05
3.40561e-05
3.52169e-05
3.71376e-05
3.85893e-05
4.08387e-05
4.24603e-05
4.48266e-05
4.67169e-05
4.9469e-05
5.16065e-05
5.4427e-05
5.67081e-05
5.9953e-05
6.26921e-05
6.61689e-05
6.89644e-05
7.26365e-05
7.58195e-05
7.98276e-05
8.31358e-05
8.72705e-05
9.09453e-05
9.55724e-05
9.95473e-05
0.000104207
0.000108227
0.000113159
0.000117557
0.000122711
0.000127197
0.000132576
0.000137497
0.000143337
0.000148497
0.000154395
0.000159688
0.000165903
0.000171482
0.000177787
0.000183334
0.000189742
0.00019559
0.000202331
0.000208336
0.000215155
0.000221319
0.000228452
0.000234855
0.000242015
0.000248328
0.000255547
0.000262124
0.000269671
0.000276438
0.000284072
0.000290922
0.000298736
0.000305721
0.000313526
0.000320413
0.000328227
0.00033527
0.000343291
0.000350451
0.000358519
0.000365732
0.000373962
0.000381317
0.000389582
0.000396833
0.000405016
0.000412327
0.000420684
0.000428113
0.000436499
0.000443827
0.000452138
0.000459416
0.000467665
0.0004748
0.00048292
0.000490004
0.00049822
0.000505452
0.000513816
0.000521094
0.000529489
0.000536817
0.000545298
0.000552603
0.00056097
0.000568111
0.000576389
0.000583496
0.000591754
0.000598765
0.000606941
0.000613876
0.000622056
0.000628996
0.000637156
0.000643996
0.000652106
0.000658938
0.000667105
0.000673925
0.000682009
0.00068863
0.000696514
0.000703003
0.000710815
0.00071718
0.000724882
0.000731121
0.000738756
0.000744925
0.000752483
0.0007585
0.000765934
0.000771843
0.000779256
0.000785153
0.000792552
0.00079837
0.000805665
0.000811362
0.000818583
0.000824135
0.000831205
0.000836591
0.000843611
0.000849019
0.000856164
0.000861606
0.000868749
0.000874085
0.000881067
0.000886175
0.000892938
0.000897739
0.000904236
0.00090885
0.000915326
0.000919961
0.000926551
0.00093126
0.000937883
0.000942521
0.000949079
0.000953575
0.000959989
0.000964224
0.000970432
0.000974471
0.000980605
0.000984619
0.00099078
0.000994749
0.00100085
0.00100473
0.00101076
0.00101451
0.00102042
0.00102399
0.0010298
0.00103331
0.00103912
0.00104259
0.00104841
0.00105183
0.00105763
0.00106095
0.00106671
0.00106995
0.00107564
0.00107873
0.00108434
0.00108729
0.00109284
0.00109574
0.00110125
0.00110411
0.00110965
0.00111247
0.00111802
0.00112084
0.0011264
0.00112921
0.00113484
0.00113772
0.00114351
0.00114653
0.0011526
0.00115572
0.00116197
0.00116521
0.00117171
0.0011751
0.00118191
0.00118551
0.00119284
0.00119685
0.00120502
0.00120953
2.02156e-05
2.02328e-05
2.02248e-05
2.02136e-05
2.02038e-05
2.01936e-05
2.01839e-05
2.01731e-05
2.01624e-05
2.01516e-05
2.01424e-05
2.01328e-05
2.01245e-05
2.0115e-05
2.01065e-05
2.00986e-05
2.00915e-05
2.00832e-05
2.00765e-05
2.00696e-05
2.00627e-05
2.0055e-05
2.00494e-05
2.00441e-05
2.0039e-05
2.0033e-05
2.0029e-05
2.00256e-05
2.00222e-05
2.00172e-05
2.00136e-05
2.00119e-05
2.00114e-05
2.00103e-05
2.00085e-05
2.00082e-05
2.00085e-05
2.00096e-05
2.00127e-05
2.00152e-05
2.00206e-05
2.00241e-05
2.00316e-05
2.00365e-05
2.0047e-05
2.00538e-05
2.00683e-05
2.00773e-05
2.00962e-05
2.01077e-05
2.0132e-05
2.01462e-05
2.01754e-05
2.01922e-05
2.02272e-05
2.02473e-05
2.02887e-05
2.03122e-05
2.03608e-05
2.03887e-05
2.04459e-05
2.04776e-05
2.05423e-05
2.05782e-05
2.06517e-05
2.06923e-05
2.07752e-05
2.08213e-05
2.09158e-05
2.09679e-05
2.10736e-05
2.11304e-05
2.12454e-05
2.13074e-05
2.1433e-05
2.1501e-05
2.16393e-05
2.17149e-05
2.18694e-05
2.19532e-05
2.21231e-05
2.22137e-05
2.23971e-05
2.24942e-05
2.26902e-05
2.27932e-05
2.30011e-05
2.31111e-05
2.33339e-05
2.3452e-05
2.36911e-05
2.38174e-05
2.4073e-05
2.42073e-05
2.44782e-05
2.46193e-05
2.49033e-05
2.50519e-05
2.53523e-05
2.55103e-05
2.58296e-05
2.59968e-05
2.63342e-05
2.65094e-05
2.68615e-05
2.70427e-05
2.74066e-05
2.75947e-05
2.79737e-05
2.81709e-05
2.85689e-05
2.87759e-05
2.91935e-05
2.94095e-05
2.9844e-05
3.00671e-05
3.05149e-05
3.07446e-05
3.12064e-05
3.14438e-05
3.19198e-05
3.21674e-05
3.26543e-05
3.2906e-05
3.34056e-05
3.36579e-05
3.41623e-05
3.44197e-05
3.49379e-05
3.52047e-05
3.57412e-05
3.60186e-05
3.65722e-05
3.68797e-05
3.74292e-05
3.77693e-05
3.83126e-05
3.8657e-05
3.9221e-05
3.95457e-05
4.01441e-05
4.04538e-05
4.10713e-05
4.13839e-05
4.20125e-05
4.23333e-05
4.29751e-05
4.33101e-05
4.39489e-05
4.43096e-05
4.49473e-05
4.53321e-05
4.59682e-05
4.63601e-05
4.69991e-05
4.73796e-05
4.80394e-05
4.83994e-05
4.90777e-05
4.94242e-05
5.01086e-05
5.04666e-05
5.11554e-05
5.1531e-05
5.22002e-05
5.25994e-05
5.32545e-05
5.36735e-05
5.43451e-05
5.47583e-05
5.54472e-05
5.5846e-05
5.65519e-05
5.69499e-05
5.76422e-05
5.80514e-05
5.87373e-05
5.91599e-05
5.98659e-05
6.0314e-05
6.10329e-05
6.14857e-05
6.22112e-05
6.2642e-05
6.33677e-05
6.37727e-05
6.44647e-05
6.48791e-05
6.5551e-05
6.59889e-05
6.66771e-05
6.71379e-05
6.78501e-05
6.83142e-05
6.90493e-05
6.94899e-05
7.02337e-05
7.06439e-05
7.13771e-05
7.17737e-05
7.25013e-05
7.29017e-05
7.3645e-05
7.40605e-05
7.47961e-05
7.52317e-05
7.59568e-05
7.64024e-05
7.70965e-05
7.75601e-05
7.82267e-05
7.8694e-05
7.93805e-05
7.98312e-05
8.05591e-05
8.09811e-05
8.17309e-05
8.21421e-05
8.2886e-05
8.33154e-05
8.40388e-05
8.44575e-05
8.51718e-05
8.55899e-05
8.63009e-05
8.66993e-05
8.74343e-05
8.78329e-05
8.85555e-05
8.89628e-05
8.96942e-05
9.01095e-05
9.08178e-05
9.1244e-05
9.19775e-05
9.23825e-05
9.31442e-05
9.35945e-05
9.43754e-05
9.48335e-05
9.56164e-05
9.61598e-05
9.69154e-05
9.74509e-05
9.82024e-05
9.88033e-05
9.95672e-05
0.000100179
0.00010102
0.000101687
2.02503e-05
2.02702e-05
2.02609e-05
2.025e-05
2.02396e-05
2.02293e-05
2.02191e-05
2.0208e-05
2.01965e-05
2.01853e-05
2.01754e-05
2.01659e-05
2.01566e-05
2.0147e-05
2.0138e-05
2.01293e-05
2.01213e-05
2.01134e-05
2.01056e-05
2.00975e-05
2.00898e-05
2.00823e-05
2.00755e-05
2.00686e-05
2.00623e-05
2.00565e-05
2.00517e-05
2.00466e-05
2.00409e-05
2.00348e-05
2.00302e-05
2.00267e-05
2.00236e-05
2.00191e-05
2.00144e-05
2.00098e-05
2.00067e-05
2.00039e-05
2.00016e-05
1.99989e-05
1.99966e-05
1.99938e-05
1.99911e-05
1.99877e-05
1.99849e-05
1.99822e-05
1.99806e-05
1.99791e-05
1.99779e-05
1.9976e-05
1.99743e-05
1.99724e-05
1.99712e-05
1.99701e-05
1.99693e-05
1.99679e-05
1.99667e-05
1.99654e-05
1.99644e-05
1.99632e-05
1.9962e-05
1.99605e-05
1.99589e-05
1.99574e-05
1.99563e-05
1.99556e-05
1.99554e-05
1.99553e-05
1.99551e-05
1.99547e-05
1.99536e-05
1.99524e-05
1.99516e-05
1.99513e-05
1.99512e-05
1.99511e-05
1.9951e-05
1.99504e-05
1.99501e-05
1.99501e-05
1.99501e-05
1.99503e-05
1.9951e-05
1.99515e-05
1.99522e-05
1.99526e-05
1.99533e-05
1.99537e-05
1.99546e-05
1.99552e-05
1.99565e-05
1.99574e-05
1.99593e-05
1.99603e-05
1.99626e-05
1.99638e-05
1.99662e-05
1.99674e-05
1.99699e-05
1.99713e-05
1.99742e-05
1.99759e-05
1.99796e-05
1.99817e-05
1.99861e-05
1.99884e-05
1.99931e-05
1.99955e-05
2.00003e-05
2.00029e-05
2.00081e-05
2.00109e-05
2.00169e-05
2.00201e-05
2.00266e-05
2.00301e-05
2.00371e-05
2.00408e-05
2.00482e-05
2.0052e-05
2.00596e-05
2.00634e-05
2.00712e-05
2.00753e-05
2.00835e-05
2.00878e-05
2.00966e-05
2.01013e-05
2.01108e-05
2.01158e-05
2.0126e-05
2.01313e-05
2.0142e-05
2.01476e-05
2.01589e-05
2.01648e-05
2.01768e-05
2.0183e-05
2.01956e-05
2.02021e-05
2.02153e-05
2.02221e-05
2.02358e-05
2.02429e-05
2.02571e-05
2.02643e-05
2.0279e-05
2.02866e-05
2.03019e-05
2.03099e-05
2.03261e-05
2.03345e-05
2.03514e-05
2.036e-05
2.03775e-05
2.03863e-05
2.04041e-05
2.04131e-05
2.04311e-05
2.04403e-05
2.04588e-05
2.04683e-05
2.04875e-05
2.04974e-05
2.05172e-05
2.05274e-05
2.0548e-05
2.05585e-05
2.05798e-05
2.05906e-05
2.06125e-05
2.06236e-05
2.06461e-05
2.06575e-05
2.06803e-05
2.06919e-05
2.07153e-05
2.07273e-05
2.07515e-05
2.07641e-05
2.07896e-05
2.08029e-05
2.08297e-05
2.08434e-05
2.08701e-05
2.08835e-05
2.091e-05
2.09233e-05
2.09499e-05
2.09633e-05
2.09903e-05
2.10042e-05
2.10322e-05
2.10467e-05
2.10761e-05
2.10914e-05
2.11217e-05
2.11368e-05
2.11669e-05
2.1182e-05
2.1212e-05
2.12271e-05
2.12574e-05
2.12728e-05
2.1304e-05
2.132e-05
2.13522e-05
2.13685e-05
2.1401e-05
2.14178e-05
2.14496e-05
2.14673e-05
2.14993e-05
2.15164e-05
2.15503e-05
2.15673e-05
2.16015e-05
2.16193e-05
2.16541e-05
2.16715e-05
2.17065e-05
2.17242e-05
2.17592e-05
2.17767e-05
2.18118e-05
2.18295e-05
2.1865e-05
2.18831e-05
2.19194e-05
2.19379e-05
2.19752e-05
2.19942e-05
2.20321e-05
2.20513e-05
2.20899e-05
2.21096e-05
2.21494e-05
2.21699e-05
2.22113e-05
2.22331e-05
2.22751e-05
2.2301e-05
2.23405e-05
2.23715e-05
2.24095e-05
2.24425e-05
2.2482e-05
2.25159e-05
2.25584e-05
2.2594e-05
2.02512e-05
2.02701e-05
2.02602e-05
2.02495e-05
2.02391e-05
2.02286e-05
2.02185e-05
2.02073e-05
2.01957e-05
2.01845e-05
2.01746e-05
2.01652e-05
2.01559e-05
2.01462e-05
2.0137e-05
2.01284e-05
2.01206e-05
2.01126e-05
2.01045e-05
2.00963e-05
2.00888e-05
2.00815e-05
2.00746e-05
2.00675e-05
2.00612e-05
2.00554e-05
2.00508e-05
2.00459e-05
2.00404e-05
2.00342e-05
2.00294e-05
2.00259e-05
2.0023e-05
2.00188e-05
2.00139e-05
2.00091e-05
2.00058e-05
2.00032e-05
2.0001e-05
1.99984e-05
1.99957e-05
1.99925e-05
1.99895e-05
1.99863e-05
1.99836e-05
1.99811e-05
1.99792e-05
1.99775e-05
1.99762e-05
1.99745e-05
1.99731e-05
1.99717e-05
1.99709e-05
1.99698e-05
1.99686e-05
1.99669e-05
1.99656e-05
1.99644e-05
1.99637e-05
1.99627e-05
1.99616e-05
1.996e-05
1.99586e-05
1.9957e-05
1.99559e-05
1.99551e-05
1.99548e-05
1.99546e-05
1.99543e-05
1.99535e-05
1.99521e-05
1.99506e-05
1.99497e-05
1.99493e-05
1.99493e-05
1.99494e-05
1.99497e-05
1.99499e-05
1.995e-05
1.99502e-05
1.99504e-05
1.99507e-05
1.99515e-05
1.99522e-05
1.99531e-05
1.99535e-05
1.99543e-05
1.99548e-05
1.99556e-05
1.99562e-05
1.99573e-05
1.99581e-05
1.99596e-05
1.99606e-05
1.99625e-05
1.99636e-05
1.9966e-05
1.99673e-05
1.99703e-05
1.99719e-05
1.99755e-05
1.99775e-05
1.99817e-05
1.99839e-05
1.99886e-05
1.9991e-05
1.99959e-05
1.99984e-05
2.00036e-05
2.00063e-05
2.00118e-05
2.00147e-05
2.00207e-05
2.00239e-05
2.00304e-05
2.00339e-05
2.00409e-05
2.00446e-05
2.00519e-05
2.00556e-05
2.0063e-05
2.00668e-05
2.00746e-05
2.00788e-05
2.00873e-05
2.0092e-05
2.01016e-05
2.01068e-05
2.01173e-05
2.01228e-05
2.01339e-05
2.01395e-05
2.01508e-05
2.01566e-05
2.01681e-05
2.01741e-05
2.01863e-05
2.01926e-05
2.02054e-05
2.0212e-05
2.02255e-05
2.02324e-05
2.02463e-05
2.02535e-05
2.02679e-05
2.02752e-05
2.029e-05
2.02975e-05
2.03127e-05
2.03206e-05
2.03364e-05
2.03445e-05
2.03609e-05
2.03694e-05
2.03865e-05
2.03953e-05
2.04132e-05
2.04226e-05
2.04415e-05
2.04513e-05
2.04712e-05
2.04815e-05
2.05021e-05
2.05126e-05
2.05337e-05
2.05444e-05
2.05658e-05
2.05767e-05
2.05986e-05
2.06098e-05
2.06321e-05
2.06434e-05
2.06661e-05
2.06778e-05
2.07011e-05
2.07131e-05
2.0737e-05
2.07492e-05
2.07736e-05
2.07859e-05
2.08104e-05
2.08229e-05
2.08479e-05
2.08607e-05
2.08867e-05
2.09004e-05
2.0928e-05
2.09428e-05
2.09719e-05
2.09868e-05
2.10156e-05
2.103e-05
2.10583e-05
2.10724e-05
2.11005e-05
2.11148e-05
2.11433e-05
2.11579e-05
2.11873e-05
2.12024e-05
2.12328e-05
2.12485e-05
2.12794e-05
2.12956e-05
2.13262e-05
2.13422e-05
2.13733e-05
2.13889e-05
2.14202e-05
2.14362e-05
2.14685e-05
2.14849e-05
2.15178e-05
2.15345e-05
2.15677e-05
2.15843e-05
2.16175e-05
2.16343e-05
2.16681e-05
2.16853e-05
2.17196e-05
2.17371e-05
2.17723e-05
2.17903e-05
2.18259e-05
2.18453e-05
2.18806e-05
2.19004e-05
2.19363e-05
2.19555e-05
2.19941e-05
2.20135e-05
2.20521e-05
2.20723e-05
2.21114e-05
2.21309e-05
2.21699e-05
2.21897e-05
2.2229e-05
2.2249e-05
2.2289e-05
2.23095e-05
2.23507e-05
2.23721e-05
2.24153e-05
2.24381e-05
2.24844e-05
2.25089e-05
2.25584e-05
2.25843e-05
2.02176e-05
2.0232e-05
2.02224e-05
2.02118e-05
2.02023e-05
2.01916e-05
2.01818e-05
2.0171e-05
2.01605e-05
2.01492e-05
2.01401e-05
2.0131e-05
2.01223e-05
2.01126e-05
2.01042e-05
2.00961e-05
2.00889e-05
2.00807e-05
2.00738e-05
2.0067e-05
2.00602e-05
2.00523e-05
2.00463e-05
2.0041e-05
2.0036e-05
2.00299e-05
2.00261e-05
2.00231e-05
2.002e-05
2.00152e-05
2.00115e-05
2.00098e-05
2.00094e-05
2.00085e-05
2.00065e-05
2.00061e-05
2.00066e-05
2.00079e-05
2.00113e-05
2.00141e-05
2.00201e-05
2.00238e-05
2.00317e-05
2.00369e-05
2.0048e-05
2.00553e-05
2.00708e-05
2.00803e-05
2.01002e-05
2.01123e-05
2.01376e-05
2.01525e-05
2.01828e-05
2.02005e-05
2.02372e-05
2.02585e-05
2.03021e-05
2.03268e-05
2.03773e-05
2.04059e-05
2.04639e-05
2.04963e-05
2.05623e-05
2.05997e-05
2.06761e-05
2.07185e-05
2.08042e-05
2.08512e-05
2.09468e-05
2.09997e-05
2.11068e-05
2.11658e-05
2.12859e-05
2.13521e-05
2.14861e-05
2.15581e-05
2.17029e-05
2.17803e-05
2.19363e-05
2.20198e-05
2.21879e-05
2.22782e-05
2.24609e-05
2.25596e-05
2.2759e-05
2.28656e-05
2.30807e-05
2.31951e-05
2.34255e-05
2.35469e-05
2.37905e-05
2.39186e-05
2.41763e-05
2.43128e-05
2.4588e-05
2.47336e-05
2.50269e-05
2.5181e-05
2.5491e-05
2.56521e-05
2.59743e-05
2.61415e-05
2.64771e-05
2.66529e-05
2.70072e-05
2.71931e-05
2.75679e-05
2.77633e-05
2.81561e-05
2.83588e-05
2.87636e-05
2.89713e-05
2.93868e-05
2.9601e-05
3.0031e-05
3.02533e-05
3.06996e-05
3.09302e-05
3.1393e-05
3.16314e-05
3.21098e-05
3.23562e-05
3.28513e-05
3.31079e-05
3.36198e-05
3.38984e-05
3.44153e-05
3.47202e-05
3.52454e-05
3.55506e-05
3.60922e-05
3.63879e-05
3.69419e-05
3.72292e-05
3.78014e-05
3.80922e-05
3.86751e-05
3.89742e-05
3.95737e-05
3.98835e-05
4.04863e-05
4.08253e-05
4.14106e-05
4.17794e-05
4.23581e-05
4.27346e-05
4.33356e-05
4.36997e-05
4.4312e-05
4.46721e-05
4.53017e-05
4.56527e-05
4.63021e-05
4.66434e-05
4.73077e-05
4.76693e-05
4.83349e-05
4.87359e-05
4.93823e-05
4.98128e-05
5.04559e-05
5.08894e-05
5.15653e-05
5.19672e-05
5.26729e-05
5.30554e-05
5.37745e-05
5.41639e-05
5.48774e-05
5.52744e-05
5.59696e-05
5.63841e-05
5.70806e-05
5.75168e-05
5.82149e-05
5.86538e-05
5.936e-05
5.97772e-05
6.04866e-05
6.08901e-05
6.15678e-05
6.19849e-05
6.26557e-05
6.30886e-05
6.37886e-05
6.42371e-05
6.49654e-05
6.54095e-05
6.61586e-05
6.65861e-05
6.73368e-05
6.77308e-05
6.84585e-05
6.88526e-05
6.95509e-05
6.99686e-05
7.06705e-05
7.11158e-05
7.18196e-05
7.22854e-05
7.29831e-05
7.34521e-05
7.41389e-05
7.45889e-05
7.52662e-05
7.57027e-05
7.64004e-05
7.68211e-05
7.75569e-05
7.79606e-05
7.87045e-05
7.91075e-05
7.98338e-05
8.02508e-05
8.09447e-05
8.13783e-05
8.20401e-05
8.24823e-05
8.3158e-05
8.35946e-05
8.42902e-05
8.47157e-05
8.54277e-05
8.58613e-05
8.65643e-05
8.70265e-05
8.77166e-05
8.81621e-05
8.88578e-05
8.92926e-05
9.00206e-05
9.04388e-05
9.11802e-05
9.16184e-05
9.2338e-05
9.27841e-05
9.35003e-05
9.39543e-05
9.46334e-05
9.50837e-05
9.58e-05
9.62416e-05
9.69975e-05
9.74568e-05
9.82499e-05
9.87377e-05
9.95516e-05
0.000100096
0.000100925
0.000101503
2.01591e-05
2.0167e-05
2.01574e-05
2.01484e-05
2.01378e-05
2.0128e-05
2.01207e-05
2.01108e-05
2.00979e-05
2.00887e-05
2.00846e-05
2.0078e-05
2.00667e-05
2.006e-05
2.00604e-05
2.00634e-05
2.00667e-05
2.00709e-05
2.008e-05
2.01038e-05
2.01435e-05
2.01694e-05
2.02097e-05
2.02872e-05
2.0408e-05
2.04795e-05
2.0615e-05
2.07338e-05
2.09966e-05
2.11641e-05
2.14874e-05
2.17031e-05
2.21544e-05
2.24467e-05
2.30419e-05
2.34121e-05
2.41717e-05
2.46344e-05
2.55706e-05
2.61303e-05
2.72733e-05
2.79623e-05
2.93443e-05
3.01717e-05
3.17065e-05
3.27909e-05
3.45711e-05
3.57668e-05
3.77129e-05
3.92433e-05
4.15172e-05
4.31801e-05
4.55244e-05
4.74659e-05
5.02608e-05
5.25182e-05
5.5411e-05
5.78022e-05
6.10474e-05
6.38036e-05
6.7224e-05
7.00578e-05
7.37529e-05
7.70799e-05
8.1183e-05
8.46286e-05
8.87745e-05
9.24531e-05
9.70195e-05
0.000101008
0.000105702
0.000109865
0.000114977
0.00011962
0.000124995
0.000129651
0.000135078
0.000140003
0.00014575
0.000150815
0.000156581
0.000161809
0.000167968
0.0001736
0.000179974
0.000185668
0.00019222
0.00019825
0.000205097
0.000211189
0.000217986
0.000224155
0.000231228
0.000237716
0.000244987
0.000251536
0.000258933
0.0002657
0.000273271
0.000280021
0.00028749
0.000294242
0.000301947
0.000308987
0.000316859
0.000323947
0.000331913
0.000339151
0.000347272
0.000354506
0.000362528
0.00036967
0.000377746
0.000385042
0.000393225
0.000400522
0.000408699
0.000416037
0.000424315
0.000431685
0.000439914
0.000447246
0.00045557
0.000463109
0.000471644
0.000479252
0.000487752
0.000495298
0.000503794
0.000511292
0.000519679
0.000526969
0.0005352
0.000542425
0.000550676
0.000557887
0.000566105
0.000573244
0.00058147
0.000588652
0.000596911
0.000604001
0.000612162
0.000619171
0.000627331
0.000634346
0.000642443
0.000649307
0.00065725
0.000663972
0.000671828
0.000678459
0.000686242
0.000692801
0.000700607
0.000707196
0.000715046
0.000721607
0.000729388
0.000735835
0.00074358
0.00074998
0.00075769
0.000763979
0.000771546
0.000777681
0.000785161
0.000791185
0.00079855
0.000804415
0.000811665
0.000817465
0.00082473
0.000830507
0.000837698
0.000843321
0.000850381
0.000855786
0.000862643
0.000867786
0.000874411
0.000879385
0.000886016
0.000891033
0.000897794
0.000902875
0.000909658
0.000914669
0.000921382
0.000926218
0.000932699
0.000937234
0.000943458
0.000947773
0.000953906
0.000958205
0.000964383
0.000968692
0.000974877
0.000979098
0.000985223
0.000989353
0.000995335
0.000999254
0.00100508
0.00100886
0.00101469
0.00101848
0.0010243
0.00102799
0.00103372
0.00103727
0.00104292
0.00104633
0.00105189
0.00105512
0.00106061
0.00106375
0.0010692
0.00107232
0.00107778
0.00108086
0.0010863
0.00108935
0.00109482
0.00109783
0.00110326
0.00110618
0.00111158
0.00111445
0.00111988
0.00112276
0.00112821
0.00113108
0.00113655
0.00113942
0.0011449
0.00114768
0.00115315
0.00115595
0.00116156
0.00116449
0.0011704
0.00117351
0.0011798
0.00118315
0.00118994
0.00119364
0.00120113
0.00120522
2.00907e-05
2.00924e-05
2.00844e-05
2.00802e-05
2.00844e-05
2.01051e-05
2.018e-05
2.02935e-05
2.04345e-05
2.07185e-05
2.14445e-05
2.24275e-05
2.31763e-05
2.43204e-05
2.69722e-05
3.09279e-05
3.40772e-05
3.70931e-05
4.29247e-05
5.30878e-05
6.28733e-05
6.95702e-05
7.99081e-05
9.92659e-05
0.000118177
0.00013285
0.000151808
0.000179405
0.000209352
0.000236587
0.000266238
0.000303512
0.000345476
0.000386683
0.000428856
0.000476802
0.000530471
0.000585248
0.00064022
0.000698856
0.000763203
0.000830495
0.000898191
0.000967445
0.00104084
0.00111786
0.00119622
0.00127534
0.00135702
0.00144195
0.00152865
0.00161559
0.00170355
0.00179401
0.00188706
0.00198108
0.00207523
0.0021699
0.00226585
0.00236258
0.00245948
0.00255659
0.00265481
0.0027542
0.00285396
0.00295304
0.00305151
0.00314988
0.0032486
0.00334723
0.00344564
0.00354386
0.00364232
0.00374064
0.0038383
0.00393461
0.00402979
0.00412396
0.00421742
0.00430989
0.00440158
0.00449252
0.00458316
0.00467324
0.00476273
0.00485117
0.00493879
0.0050253
0.00511083
0.0051949
0.00527776
0.0053593
0.00544011
0.00552
0.00559921
0.00567724
0.00575427
0.00582986
0.00590426
0.00597706
0.00604874
0.00611914
0.00618889
0.00625768
0.00632588
0.0063929
0.00645906
0.00652384
0.00658766
0.00665001
0.00671139
0.00677134
0.00683055
0.00688854
0.00694595
0.00700213
0.00705767
0.00711187
0.00716544
0.00721771
0.00726949
0.00732011
0.00737044
0.00741972
0.00746874
0.00751657
0.00756395
0.00760991
0.00765534
0.00769929
0.00774277
0.00778482
0.00782657
0.00786701
0.00790733
0.00794644
0.00798553
0.0080234
0.00806127
0.00809785
0.00813448
0.00816976
0.00820516
0.0082392
0.00827345
0.00830631
0.00833944
0.00837112
0.00840313
0.00843363
0.00846457
0.00849407
0.00852416
0.00855286
0.0085823
0.00861031
0.00863912
0.00866641
0.00869453
0.008721
0.00874835
0.00877396
0.00880053
0.00882531
0.00885117
0.00887518
0.0089004
0.00892366
0.00894827
0.00897085
0.00899495
0.00901697
0.00904066
0.00906217
0.00908544
0.0091064
0.00912918
0.00914944
0.00917162
0.00919117
0.00921286
0.00923195
0.00925351
0.0092724
0.00929404
0.00931283
0.0093345
0.009353
0.00937446
0.00939239
0.00941339
0.00943064
0.00945126
0.00946801
0.0094885
0.00950508
0.00952571
0.00954227
0.00956309
0.00957947
0.00960035
0.00961646
0.00963727
0.00965304
0.00967388
0.00968942
0.0097105
0.00972596
0.00974729
0.00976261
0.0097841
0.00979917
0.00982077
0.00983553
0.00985729
0.00987175
0.00989382
0.00990814
0.00993064
0.00994495
0.00996805
0.0099824
0.0100062
0.0100206
0.0100451
0.0100597
0.0100849
0.0100996
0.0101257
0.0101407
0.0101678
0.010183
0.0102114
0.0102269
0.0102566
0.0102727
0.0103039
0.0103207
0.0103537
0.0103715
0.0104071
0.0104266
0.0104656
0.0104872
0.0105307
0.0105552
0.0106046
0.0106331
0.0106906
0.0107249
2.0086e-05
2.12693e-05
2.58431e-05
3.70457e-05
5.31202e-05
8.81849e-05
0.000181895
0.00026706
0.000353155
0.000521068
0.000864784
0.00118993
0.00142
0.00180362
0.0024934
0.00315486
0.0037105
0.00439592
0.00532341
0.00634153
0.00732352
0.00832798
0.00946223
0.0107156
0.0120095
0.0133066
0.014637
0.0160248
0.0174617
0.018918
0.0203814
0.0218487
0.023325
0.0248042
0.0262821
0.0277461
0.029193
0.0306163
0.0320203
0.0333997
0.0347545
0.0360751
0.0373632
0.0386143
0.0398329
0.0410137
0.0421587
0.0432637
0.0443315
0.0453605
0.0463509
0.0473035
0.0482186
0.0490971
0.0499399
0.0507474
0.0515197
0.0522569
0.0529596
0.0536291
0.0542675
0.0548766
0.0554576
0.0560111
0.056537
0.0570358
0.0575084
0.0579562
0.0583806
0.0587831
0.059165
0.0595271
0.0598702
0.0601945
0.0605007
0.0607891
0.0610606
0.0613164
0.0615576
0.0617856
0.0620013
0.0622056
0.0623991
0.0625822
0.0627553
0.0629186
0.0630725
0.0632172
0.0633533
0.0634814
0.0636021
0.0637162
0.0638242
0.0639266
0.0640237
0.0641158
0.064203
0.0642854
0.0643635
0.0644378
0.0645089
0.0645772
0.064643
0.0647066
0.064768
0.0648271
0.064884
0.0649386
0.0649914
0.0650426
0.0650925
0.0651414
0.0651895
0.065237
0.065284
0.0653306
0.0653769
0.0654231
0.0654694
0.065516
0.065563
0.0656105
0.0656586
0.065707
0.0657558
0.0658049
0.0658543
0.0659043
0.0659549
0.0660064
0.0660588
0.0661123
0.0661669
0.0662227