/*--------------------------------*- C++ -*----------------------------------*\
  =========                 |
  \\      /  F ield         | OpenFOAM: The Open Source CFD Toolbox
   \\    /   O peration     | Website:  https://openfoam.org
    \\  /    A nd           | Version:  7
     \\/     M anipulation  |
\*---------------------------------------------------------------------------*/
FoamFile
{
    version     2.0;
    format      ascii;
    class       volVectorField;
    location    "2.06";
    object      U;
}
// * * * * * * * * * * * * * * * * * * * * * * * * * * * * * * * * * * * * * //

dimensions      [0 1 -1 0 0 0 0];

internalField   nonuniform List<vector> 
5760
(
(2.25643 0.123048 0)
(1.31109 0.0179092 0)
(1.07012 -0.00283964 0)
(0.941531 -0.000744968 0)
(0.870788 -0.000428561 0)
(0.831959 -0.000483324 0)
(0.812348 -0.000219722 0)
(0.798363 7.28705e-05 0)
(0.783953 0.000140887 0)
(0.770023 8.50209e-05 0)
(0.758273 4.23398e-05 0)
(0.748728 3.90457e-05 0)
(0.740655 4.7246e-05 0)
(0.733562 4.98133e-05 0)
(0.727286 4.74333e-05 0)
(0.72176 4.44577e-05 0)
(0.716894 4.22137e-05 0)
(0.712588 4.01391e-05 0)
(0.708757 3.77238e-05 0)
(0.70534 3.4957e-05 0)
(0.702291 3.19812e-05 0)
(0.699568 2.89253e-05 0)
(0.697137 2.59199e-05 0)
(0.694964 2.31149e-05 0)
(0.693021 2.06474e-05 0)
(0.691282 1.8597e-05 0)
(0.689726 1.69614e-05 0)
(0.688335 1.5659e-05 0)
(0.687097 1.45596e-05 0)
(0.686001 1.35344e-05 0)
(0.685039 1.24771e-05 0)
(0.684202 1.13246e-05 0)
(0.683481 1.0055e-05 0)
(0.68287 8.65306e-06 0)
(0.682359 7.13091e-06 0)
(0.681941 5.52873e-06 0)
(0.681609 3.87203e-06 0)
(0.681356 2.19504e-06 0)
(0.681175 5.59092e-07 0)
(0.681059 -9.68042e-07 0)
(0.681004 -2.32258e-06 0)
(0.681003 -3.46024e-06 0)
(0.681052 -4.34589e-06 0)
(0.681146 -4.96443e-06 0)
(0.681283 -5.33153e-06 0)
(0.681461 -5.43463e-06 0)
(0.681679 -5.30592e-06 0)
(0.681935 -4.96728e-06 0)
(0.682226 -4.30154e-06 0)
(0.682551 -3.43741e-06 0)
(0.68291 -2.32554e-06 0)
(0.683299 -9.21301e-07 0)
(0.683716 7.65769e-07 0)
(0.68416 2.77134e-06 0)
(0.684626 5.13394e-06 0)
(0.685113 7.82399e-06 0)
(0.685618 1.08449e-05 0)
(0.686138 1.42733e-05 0)
(0.68667 1.80301e-05 0)
(0.687214 2.21218e-05 0)
(0.687768 2.65345e-05 0)
(0.688331 3.12258e-05 0)
(0.688903 3.61606e-05 0)
(0.689484 4.12894e-05 0)
(0.690074 4.65632e-05 0)
(0.690674 5.19325e-05 0)
(0.691284 5.73691e-05 0)
(0.691905 6.28343e-05 0)
(0.692538 6.82804e-05 0)
(0.693183 7.3679e-05 0)
(0.69384 7.90163e-05 0)
(0.694508 8.42708e-05 0)
(0.695188 8.94342e-05 0)
(0.695878 9.45035e-05 0)
(0.696578 9.94791e-05 0)
(0.697287 0.000104366 0)
(0.698002 0.000109137 0)
(0.698724 0.000113828 0)
(0.699451 0.000118434 0)
(0.700183 0.00012293 0)
(0.70092 0.000127332 0)
(0.701659 0.000131632 0)
(0.702403 0.000135826 0)
(0.703151 0.000139911 0)
(0.703903 0.000143834 0)
(0.70466 0.000147625 0)
(0.705422 0.000151297 0)
(0.706189 0.000154785 0)
(0.706963 0.000158098 0)
(0.707744 0.000161244 0)
(0.708531 0.000164232 0)
(0.709324 0.000167008 0)
(0.710123 0.00016964 0)
(0.710927 0.000172138 0)
(0.711736 0.000174452 0)
(0.712549 0.000176636 0)
(0.713363 0.000178692 0)
(0.71418 0.000180629 0)
(0.714998 0.000182469 0)
(0.715815 0.000184222 0)
(0.716632 0.000185895 0)
(0.717447 0.000187467 0)
(0.718262 0.000188972 0)
(0.719076 0.00019044 0)
(0.719888 0.000191813 0)
(0.7207 0.000193114 0)
(0.721512 0.000194343 0)
(0.722325 0.000195471 0)
(0.723138 0.000196514 0)
(0.723953 0.000197464 0)
(0.72477 0.000198333 0)
(0.725587 0.000199081 0)
(0.726407 0.000199736 0)
(0.727227 0.000200323 0)
(0.728048 0.000200814 0)
(0.728869 0.000201235 0)
(0.729689 0.000201581 0)
(0.730507 0.000201873 0)
(0.731322 0.00020212 0)
(0.732135 0.000202336 0)
(0.732944 0.000202525 0)
(0.733748 0.000202689 0)
(0.734549 0.000202844 0)
(0.735345 0.000202988 0)
(0.736138 0.000203122 0)
(0.736926 0.000203241 0)
(0.737711 0.000203349 0)
(0.738493 0.00020342 0)
(0.739273 0.00020347 0)
(0.740051 0.000203505 0)
(0.740828 0.000203492 0)
(0.741602 0.000203441 0)
(0.742376 0.000203348 0)
(0.743147 0.000203211 0)
(0.743918 0.000203029 0)
(0.744686 0.000202804 0)
(0.745451 0.000202539 0)
(0.746214 0.000202244 0)
(0.746973 0.000201927 0)
(0.747727 0.000201598 0)
(0.748477 0.000201267 0)
(0.749222 0.00020093 0)
(0.749961 0.000200601 0)
(0.750695 0.00020029 0)
(0.751423 0.000199984 0)
(0.752146 0.00019969 0)
(0.752864 0.000199412 0)
(0.753578 0.00019915 0)
(0.754287 0.000198905 0)
(0.754993 0.000198676 0)
(0.755694 0.000198461 0)
(0.756392 0.000198244 0)
(0.757087 0.000198013 0)
(0.757779 0.000197767 0)
(0.758468 0.000197488 0)
(0.759154 0.000197169 0)
(0.759838 0.000196815 0)
(0.760518 0.000196431 0)
(0.761195 0.000196025 0)
(0.761867 0.000195608 0)
(0.762535 0.000195196 0)
(0.763197 0.000194796 0)
(0.763853 0.000194418 0)
(0.764503 0.000194063 0)
(0.765145 0.000193735 0)
(0.765781 0.000193426 0)
(0.766411 0.000193131 0)
(0.767035 0.000192849 0)
(0.767653 0.000192569 0)
(0.768266 0.000192292 0)
(0.768876 0.000192022 0)
(0.769481 0.000191752 0)
(0.770083 0.000191489 0)
(0.770681 0.000191241 0)
(0.771275 0.000191006 0)
(0.771865 0.000190788 0)
(0.77245 0.000190588 0)
(0.773031 0.000190402 0)
(0.773606 0.000190222 0)
(0.774175 0.000190052 0)
(0.77474 0.000189898 0)
(0.775298 0.000189754 0)
(0.775851 0.000189606 0)
(0.776397 0.00018945 0)
(0.776938 0.000189295 0)
(0.777474 0.00018914 0)
(0.778004 0.000188976 0)
(0.778529 0.000188814 0)
(0.779048 0.000188651 0)
(0.779563 0.000188464 0)
(0.780072 0.000188296 0)
(0.780577 0.000188133 0)
(0.781076 0.000187949 0)
(0.781571 0.000187773 0)
(0.78206 0.0001876 0)
(0.782544 0.000187434 0)
(0.783024 0.000187257 0)
(0.783498 0.000187082 0)
(0.783968 0.000186912 0)
(0.784432 0.000186747 0)
(0.784891 0.000186576 0)
(0.785345 0.000186405 0)
(0.785794 0.000186236 0)
(0.786238 0.000186071 0)
(0.786677 0.000185905 0)
(0.78711 0.000185737 0)
(0.787539 0.000185572 0)
(0.787962 0.000185407 0)
(0.788381 0.000185244 0)
(0.788794 0.000185089 0)
(0.789202 0.000184928 0)
(0.789605 0.000184762 0)
(0.790003 0.00018461 0)
(0.790396 0.000184456 0)
(0.790784 0.000184301 0)
(0.791167 0.000184152 0)
(0.791544 0.000184009 0)
(0.791917 0.000183847 0)
(0.792284 0.000183717 0)
(0.792647 0.000183563 0)
(0.793004 0.000183443 0)
(0.793357 0.000183262 0)
(0.793703 0.000183188 0)
(0.794046 0.000182972 0)
(0.794382 0.000182966 0)
(0.794716 0.000182644 0)
(0.79504 0.00018279 0)
(0.795366 0.000182271 0)
(0.795677 0.000182735 0)
(0.795997 0.000181726 0)
(0.796291 0.00018293 0)
(0.796612 0.000180838 0)
(0.79688 0.000183669 0)
(0.797214 0.000179221 0)
(0.797437 0.000185404 0)
(0.797803 0.0001766 0)
(0.797953 0.00018857 0)
(0.798385 0.000171321 0)
(0.798423 0.000192163 0)
(0.79895 0.00016801 0)
(3.80474 0.346865 0)
(3.11529 0.138855 0)
(2.74641 0.0360437 0)
(2.47343 0.020827 0)
(2.29442 0.0130392 0)
(2.18508 0.00707419 0)
(2.12287 0.00455324 0)
(2.08075 0.00423663 0)
(2.04318 0.00417049 0)
(2.00815 0.00371565 0)
(1.97771 0.0031432 0)
(1.95217 0.00270855 0)
(1.93039 0.00241683 0)
(1.91129 0.00219018 0)
(1.89436 0.00198844 0)
(1.87932 0.00180844 0)
(1.86594 0.00165317 0)
(1.85398 0.00151983 0)
(1.84324 0.00140298 0)
(1.83355 0.00129851 0)
(1.82481 0.00120419 0)
(1.81689 0.00111888 0)
(1.80972 0.00104191 0)
(1.80321 0.000972779 0)
(1.79728 0.000910961 0)
(1.79188 0.000855703 0)
(1.78693 0.000806045 0)
(1.7824 0.000760938 0)
(1.77826 0.00071943 0)
(1.77448 0.000680799 0)
(1.77104 0.000644576 0)
(1.76792 0.000610507 0)
(1.76508 0.000578419 0)
(1.76253 0.000548148 0)
(1.76023 0.00051958 0)
(1.75816 0.000492629 0)
(1.75632 0.000467196 0)
(1.75468 0.000443255 0)
(1.75322 0.000420878 0)
(1.75194 0.000400152 0)
(1.75081 0.000381108 0)
(1.74982 0.000363688 0)
(1.74897 0.000347815 0)
(1.74823 0.000333327 0)
(1.7476 0.000320057 0)
(1.74708 0.000307943 0)
(1.74666 0.000296858 0)
(1.74633 0.000286849 0)
(1.7461 0.000278159 0)
(1.74595 0.0002703 0)
(1.74588 0.000263445 0)
(1.74589 0.000257781 0)
(1.74597 0.000253286 0)
(1.74612 0.000250058 0)
(1.74632 0.000248145 0)
(1.74658 0.000247437 0)
(1.74689 0.00024799 0)
(1.74724 0.000249956 0)
(1.74763 0.000253033 0)
(1.74805 0.000257188 0)
(1.7485 0.000262363 0)
(1.74898 0.000268421 0)
(1.74948 0.000275224 0)
(1.75001 0.000282593 0)
(1.75056 0.0002904 0)
(1.75114 0.000298546 0)
(1.75175 0.000306968 0)
(1.75239 0.00031556 0)
(1.75305 0.000324208 0)
(1.75374 0.000332894 0)
(1.75446 0.0003416 0)
(1.75522 0.000350304 0)
(1.756 0.000359027 0)
(1.75681 0.000367784 0)
(1.75765 0.000376565 0)
(1.75851 0.000385372 0)
(1.7594 0.000394188 0)
(1.76031 0.00040302 0)
(1.76125 0.000411832 0)
(1.7622 0.000420584 0)
(1.76316 0.000429269 0)
(1.76415 0.000437839 0)
(1.76515 0.000446244 0)
(1.76616 0.000454423 0)
(1.76719 0.0004623 0)
(1.76824 0.000469893 0)
(1.76931 0.000477188 0)
(1.77039 0.000484105 0)
(1.77149 0.000490648 0)
(1.77261 0.000496862 0)
(1.77375 0.000502756 0)
(1.77491 0.000508318 0)
(1.77608 0.000513623 0)
(1.77728 0.000518705 0)
(1.77849 0.00052357 0)
(1.77972 0.00052827 0)
(1.78096 0.000532821 0)
(1.78221 0.000537236 0)
(1.78347 0.000541532 0)
(1.78474 0.000545739 0)
(1.78602 0.000549832 0)
(1.7873 0.000553765 0)
(1.78859 0.000557551 0)
(1.78988 0.000561204 0)
(1.79118 0.000564657 0)
(1.79248 0.000567888 0)
(1.79379 0.000570897 0)
(1.7951 0.00057366 0)
(1.79642 0.000576179 0)
(1.79774 0.000578464 0)
(1.79908 0.000580542 0)
(1.80042 0.000582398 0)
(1.80177 0.000584091 0)
(1.80312 0.000585667 0)
(1.80449 0.000587117 0)
(1.80585 0.000588489 0)
(1.80723 0.000589795 0)
(1.8086 0.000591058 0)
(1.80998 0.0005923 0)
(1.81136 0.000593532 0)
(1.81273 0.000594752 0)
(1.81411 0.000595948 0)
(1.81548 0.000597118 0)
(1.81685 0.000598246 0)
(1.81822 0.000599313 0)
(1.81958 0.000600293 0)
(1.82094 0.000601185 0)
(1.82229 0.000601949 0)
(1.82365 0.000602601 0)
(1.825 0.000603162 0)
(1.82636 0.000603604 0)
(1.82771 0.000603942 0)
(1.82907 0.000604185 0)
(1.83042 0.000604345 0)
(1.83178 0.000604439 0)
(1.83314 0.000604479 0)
(1.8345 0.000604487 0)
(1.83585 0.00060449 0)
(1.83721 0.000604509 0)
(1.83856 0.000604553 0)
(1.8399 0.000604634 0)
(1.84125 0.00060473 0)
(1.84258 0.000604845 0)
(1.84391 0.000604983 0)
(1.84524 0.00060511 0)
(1.84656 0.000605226 0)
(1.84787 0.000605336 0)
(1.84917 0.000605444 0)
(1.85047 0.000605554 0)
(1.85177 0.000605664 0)
(1.85306 0.000605765 0)
(1.85434 0.000605829 0)
(1.85563 0.000605833 0)
(1.85691 0.00060578 0)
(1.85818 0.00060565 0)
(1.85946 0.000605437 0)
(1.86073 0.000605173 0)
(1.862 0.000604898 0)
(1.86327 0.000604644 0)
(1.86453 0.000604449 0)
(1.86579 0.000604342 0)
(1.86705 0.000604331 0)
(1.86829 0.000604401 0)
(1.86953 0.000604536 0)
(1.87076 0.000604719 0)
(1.87198 0.0006049 0)
(1.87319 0.000605051 0)
(1.87439 0.000605159 0)
(1.87559 0.000605199 0)
(1.87678 0.000605184 0)
(1.87796 0.000605149 0)
(1.87914 0.000605096 0)
(1.88031 0.000605053 0)
(1.88148 0.00060506 0)
(1.88264 0.000605125 0)
(1.8838 0.000605266 0)
(1.88495 0.000605481 0)
(1.8861 0.000605762 0)
(1.88724 0.000606085 0)
(1.88837 0.000606445 0)
(1.8895 0.000606846 0)
(1.89062 0.000607267 0)
(1.89173 0.000607667 0)
(1.89284 0.000608035 0)
(1.89393 0.000608391 0)
(1.89503 0.000608727 0)
(1.89611 0.000609019 0)
(1.89719 0.000609299 0)
(1.89826 0.000609566 0)
(1.89933 0.000609771 0)
(1.90039 0.000610001 0)
(1.90144 0.000610237 0)
(1.90249 0.000610425 0)
(1.90353 0.000610623 0)
(1.90456 0.000610823 0)
(1.90559 0.000611035 0)
(1.90661 0.00061122 0)
(1.90763 0.000611405 0)
(1.90864 0.000611595 0)
(1.90964 0.000611791 0)
(1.91064 0.000611972 0)
(1.91163 0.000612149 0)
(1.91262 0.000612321 0)
(1.9136 0.000612498 0)
(1.91457 0.000612667 0)
(1.91553 0.000612822 0)
(1.91649 0.000612981 0)
(1.91744 0.000613142 0)
(1.91839 0.000613298 0)
(1.91933 0.00061346 0)
(1.92026 0.000613609 0)
(1.92119 0.00061374 0)
(1.92211 0.000613899 0)
(1.92303 0.000614055 0)
(1.92393 0.000614196 0)
(1.92483 0.000614344 0)
(1.92573 0.000614502 0)
(1.92662 0.00061462 0)
(1.9275 0.000614794 0)
(1.92837 0.000614924 0)
(1.92924 0.000615108 0)
(1.9301 0.000615177 0)
(1.93096 0.00061545 0)
(1.93181 0.00061545 0)
(1.93264 0.000615838 0)
(1.93348 0.000615629 0)
(1.9343 0.000616301 0)
(1.93514 0.000615727 0)
(1.93594 0.000616997 0)
(1.93677 0.000615494 0)
(1.93753 0.00061818 0)
(1.93838 0.000614622 0)
(1.93909 0.000620543 0)
(1.93998 0.000612357 0)
(1.94058 0.000625439 0)
(1.94159 0.000607985 0)
(1.94199 0.000635807 0)
(1.94319 0.000597667 0)
(1.94327 0.000644755 0)
(1.94477 0.000590073 0)
(4.41391 0.422882 0)
(4.23006 0.212902 0)
(3.97423 0.0753016 0)
(3.67709 0.0500338 0)
(3.44097 0.0343131 0)
(3.28353 0.0202216 0)
(3.18775 0.0130367 0)
(3.12247 0.010996 0)
(3.06754 0.0102971 0)
(3.01775 0.00924473 0)
(2.97409 0.00798986 0)
(2.93684 0.00694749 0)
(2.90482 0.00618572 0)
(2.87672 0.00559073 0)
(2.85176 0.00507897 0)
(2.82953 0.0046296 0)
(2.80965 0.00424141 0)
(2.79181 0.00390742 0)
(2.77572 0.00361598 0)
(2.76115 0.00335717 0)
(2.74793 0.00312477 0)
(2.73591 0.00291527 0)
(2.72497 0.00272651 0)
(2.71499 0.00255687 0)
(2.70586 0.0024047 0)
(2.69748 0.002268 0)
(2.68978 0.00214444 0)
(2.68268 0.00203167 0)
(2.67615 0.00192767 0)
(2.67015 0.001831 0)
(2.66462 0.00174073 0)
(2.65956 0.00165638 0)
(2.65492 0.00157753 0)
(2.65068 0.00150374 0)
(2.6468 0.00143466 0)
(2.64327 0.00136989 0)
(2.64006 0.00130904 0)
(2.63715 0.00125194 0)
(2.6345 0.00119859 0)
(2.63211 0.00114904 0)
(2.62995 0.00110322 0)
(2.628 0.00106089 0)
(2.62624 0.00102182 0)
(2.62466 0.000985587 0)
(2.62325 0.000951842 0)
(2.62199 0.000920402 0)
(2.62087 0.000891019 0)
(2.6199 0.000863862 0)
(2.61906 0.000839251 0)
(2.61835 0.000816252 0)
(2.61775 0.000795136 0)
(2.61727 0.000776182 0)
(2.61689 0.000759341 0)
(2.61661 0.000744745 0)
(2.61641 0.000732388 0)
(2.6163 0.000722062 0)
(2.61626 0.000713904 0)
(2.61629 0.000708141 0)
(2.61637 0.000704225 0)
(2.61651 0.000702107 0)
(2.61669 0.000701703 0)
(2.61691 0.000702817 0)
(2.61718 0.00070522 0)
(2.61748 0.000708637 0)
(2.61782 0.000712891 0)
(2.61819 0.000717864 0)
(2.61861 0.000723467 0)
(2.61906 0.00072953 0)
(2.61955 0.000735889 0)
(2.62008 0.00074252 0)
(2.62065 0.00074941 0)
(2.62127 0.000756543 0)
(2.62193 0.000763958 0)
(2.62262 0.000771687 0)
(2.62336 0.000779716 0)
(2.62413 0.000788045 0)
(2.62494 0.000796645 0)
(2.62579 0.000805511 0)
(2.62666 0.000814604 0)
(2.62756 0.000823855 0)
(2.62849 0.000833236 0)
(2.62945 0.000842668 0)
(2.63043 0.000852056 0)
(2.63143 0.000861299 0)
(2.63246 0.000870279 0)
(2.63351 0.000878998 0)
(2.63458 0.00088743 0)
(2.63568 0.000895455 0)
(2.63681 0.00090308 0)
(2.63796 0.000910352 0)
(2.63914 0.000917301 0)
(2.64035 0.000923913 0)
(2.64158 0.000930289 0)
(2.64284 0.0009365 0)
(2.64413 0.00094254 0)
(2.64544 0.000948485 0)
(2.64677 0.000954356 0)
(2.64813 0.000960178 0)
(2.6495 0.00096597 0)
(2.65089 0.000971729 0)
(2.65229 0.000977428 0)
(2.6537 0.000982986 0)
(2.65512 0.0009884 0)
(2.65655 0.00099368 0)
(2.658 0.000998716 0)
(2.65945 0.00100348 0)
(2.66091 0.00100793 0)
(2.66238 0.00101205 0)
(2.66386 0.00101585 0)
(2.66535 0.00101934 0)
(2.66685 0.00102258 0)
(2.66837 0.00102553 0)
(2.6699 0.00102829 0)
(2.67144 0.00103095 0)
(2.67299 0.00103349 0)
(2.67456 0.00103598 0)
(2.67613 0.00103843 0)
(2.67772 0.00104088 0)
(2.67931 0.00104336 0)
(2.6809 0.00104587 0)
(2.6825 0.00104839 0)
(2.68409 0.00105091 0)
(2.68569 0.00105339 0)
(2.68729 0.00105583 0)
(2.68889 0.00105817 0)
(2.69048 0.00106036 0)
(2.69208 0.00106242 0)
(2.69367 0.00106428 0)
(2.69526 0.00106595 0)
(2.69686 0.00106749 0)
(2.69846 0.00106886 0)
(2.70005 0.00107007 0)
(2.70166 0.00107115 0)
(2.70326 0.00107213 0)
(2.70487 0.00107302 0)
(2.70648 0.00107386 0)
(2.7081 0.00107467 0)
(2.70972 0.0010755 0)
(2.71134 0.00107638 0)
(2.71295 0.00107731 0)
(2.71457 0.0010783 0)
(2.71619 0.00107932 0)
(2.7178 0.00108035 0)
(2.71941 0.00108141 0)
(2.72101 0.00108243 0)
(2.72261 0.00108341 0)
(2.7242 0.00108435 0)
(2.72579 0.00108527 0)
(2.72737 0.00108618 0)
(2.72895 0.00108707 0)
(2.73052 0.00108793 0)
(2.73209 0.00108872 0)
(2.73366 0.00108943 0)
(2.73523 0.00109004 0)
(2.73679 0.00109054 0)
(2.73836 0.00109092 0)
(2.73992 0.00109125 0)
(2.74149 0.00109157 0)
(2.74305 0.00109196 0)
(2.74461 0.00109247 0)
(2.74617 0.00109314 0)
(2.74773 0.00109397 0)
(2.74928 0.00109492 0)
(2.75082 0.00109597 0)
(2.75236 0.00109707 0)
(2.75389 0.00109815 0)
(2.75541 0.00109913 0)
(2.75692 0.0011 0)
(2.75843 0.00110074 0)
(2.75993 0.00110137 0)
(2.76142 0.00110191 0)
(2.76291 0.00110242 0)
(2.7644 0.00110293 0)
(2.76588 0.00110351 0)
(2.76736 0.00110418 0)
(2.76883 0.00110496 0)
(2.7703 0.00110587 0)
(2.77176 0.00110688 0)
(2.77322 0.00110797 0)
(2.77468 0.00110912 0)
(2.77613 0.00111032 0)
(2.77757 0.00111154 0)
(2.77901 0.00111274 0)
(2.78044 0.00111387 0)
(2.78186 0.00111498 0)
(2.78328 0.00111604 0)
(2.7847 0.00111703 0)
(2.78611 0.00111798 0)
(2.78751 0.0011189 0)
(2.78891 0.00111974 0)
(2.79031 0.00112059 0)
(2.7917 0.00112143 0)
(2.79308 0.0011222 0)
(2.79446 0.00112298 0)
(2.79583 0.00112375 0)
(2.7972 0.00112453 0)
(2.79857 0.00112527 0)
(2.79993 0.00112599 0)
(2.80129 0.00112672 0)
(2.80264 0.00112744 0)
(2.80398 0.00112814 0)
(2.80532 0.00112882 0)
(2.80666 0.00112948 0)
(2.80799 0.00113014 0)
(2.80931 0.00113078 0)
(2.81063 0.0011314 0)
(2.81195 0.00113201 0)
(2.81326 0.00113262 0)
(2.81456 0.0011332 0)
(2.81586 0.00113378 0)
(2.81716 0.00113434 0)
(2.81844 0.00113488 0)
(2.81973 0.00113543 0)
(2.82101 0.00113597 0)
(2.82228 0.00113649 0)
(2.82355 0.001137 0)
(2.82481 0.00113752 0)
(2.82607 0.00113798 0)
(2.82732 0.0011385 0)
(2.82857 0.00113896 0)
(2.82981 0.00113948 0)
(2.83105 0.00113985 0)
(2.83228 0.00114046 0)
(2.8335 0.00114074 0)
(2.83472 0.00114146 0)
(2.83594 0.00114147 0)
(2.83714 0.00114253 0)
(2.83836 0.00114211 0)
(2.83953 0.00114386 0)
(2.84076 0.00114231 0)
(2.84189 0.00114578 0)
(2.84315 0.00114174 0)
(2.84421 0.00114927 0)
(2.84554 0.00113941 0)
(2.84646 0.0011565 0)
(2.84795 0.00113425 0)
(2.8486 0.00117326 0)
(2.85039 0.00112176 0)
(2.85057 0.0011899 0)
(2.85277 0.00110311 0)
(4.59153 0.395188 0)
(4.8156 0.238532 0)
(4.80172 0.101778 0)
(4.60491 0.0789185 0)
(4.38395 0.0595423 0)
(4.215 0.0375962 0)
(4.10251 0.024669 0)
(4.0232 0.0199515 0)
(3.95771 0.0180925 0)
(3.8994 0.0162114 0)
(3.8481 0.0141524 0)
(3.80377 0.0123914 0)
(3.76526 0.0110461 0)
(3.73131 0.0099794 0)
(3.70109 0.0090701 0)
(3.67406 0.00827753 0)
(3.6498 0.00759248 0)
(3.62794 0.00700176 0)
(3.60815 0.00648662 0)
(3.59017 0.00603021 0)
(3.57381 0.00562116 0)
(3.55889 0.00525261 0)
(3.54527 0.00492029 0)
(3.53281 0.00462103 0)
(3.52138 0.00435175 0)
(3.51088 0.00410889 0)
(3.50121 0.00388847 0)
(3.49229 0.00368655 0)
(3.48406 0.00349991 0)
(3.47646 0.00332628 0)
(3.46946 0.00316429 0)
(3.46301 0.00301326 0)
(3.45708 0.0028725 0)
(3.45163 0.0027412 0)
(3.44663 0.00261869 0)
(3.44204 0.00250412 0)
(3.43784 0.00239665 0)
(3.43401 0.00229578 0)
(3.43052 0.00220137 0)
(3.42734 0.00211333 0)
(3.42444 0.00203143 0)
(3.42182 0.00195522 0)
(3.41943 0.00188422 0)
(3.41727 0.00181774 0)
(3.41532 0.00175524 0)
(3.41357 0.00169641 0)
(3.412 0.00164088 0)
(3.41061 0.00158901 0)
(3.40938 0.00154125 0)
(3.40831 0.00149619 0)
(3.40738 0.00145414 0)
(3.40658 0.00141548 0)
(3.40592 0.00138012 0)
(3.40538 0.00134818 0)
(3.40495 0.00131954 0)
(3.40462 0.00129384 0)
(3.40439 0.00127127 0)
(3.40424 0.00125212 0)
(3.40417 0.00123555 0)
(3.40417 0.00122145 0)
(3.40423 0.00120973 0)
(3.40434 0.00120013 0)
(3.40451 0.00119234 0)
(3.40473 0.00118601 0)
(3.40499 0.00118096 0)
(3.4053 0.00117708 0)
(3.40565 0.00117429 0)
(3.40605 0.00117236 0)
(3.40649 0.00117113 0)
(3.40697 0.00117056 0)
(3.4075 0.00117064 0)
(3.40808 0.00117138 0)
(3.4087 0.00117283 0)
(3.40937 0.00117502 0)
(3.41008 0.00117792 0)
(3.41084 0.00118151 0)
(3.41164 0.00118575 0)
(3.41247 0.00119058 0)
(3.41335 0.00119596 0)
(3.41425 0.0012018 0)
(3.4152 0.00120805 0)
(3.41617 0.00121458 0)
(3.41717 0.00122127 0)
(3.4182 0.00122799 0)
(3.41925 0.00123461 0)
(3.42033 0.00124111 0)
(3.42144 0.00124745 0)
(3.42258 0.0012535 0)
(3.42374 0.00125928 0)
(3.42494 0.00126484 0)
(3.42616 0.00127023 0)
(3.42741 0.00127544 0)
(3.4287 0.00128058 0)
(3.43001 0.00128573 0)
(3.43135 0.0012909 0)
(3.43272 0.00129614 0)
(3.43412 0.00130146 0)
(3.43555 0.0013069 0)
(3.43699 0.00131244 0)
(3.43846 0.00131805 0)
(3.43994 0.0013237 0)
(3.44144 0.00132923 0)
(3.44296 0.00133465 0)
(3.44449 0.00133995 0)
(3.44603 0.001345 0)
(3.44759 0.00134974 0)
(3.44915 0.00135414 0)
(3.45073 0.0013582 0)
(3.45232 0.00136191 0)
(3.45393 0.00136533 0)
(3.45554 0.00136852 0)
(3.45718 0.00137146 0)
(3.45882 0.00137428 0)
(3.46048 0.00137709 0)
(3.46216 0.00137988 0)
(3.46385 0.00138268 0)
(3.46555 0.00138554 0)
(3.46727 0.00138847 0)
(3.46899 0.00139149 0)
(3.47072 0.00139458 0)
(3.47246 0.00139769 0)
(3.47421 0.0014008 0)
(3.47596 0.00140386 0)
(3.47771 0.00140683 0)
(3.47946 0.00140964 0)
(3.48121 0.00141224 0)
(3.48297 0.00141464 0)
(3.48473 0.00141678 0)
(3.48648 0.0014187 0)
(3.48824 0.00142045 0)
(3.49 0.00142203 0)
(3.49177 0.00142345 0)
(3.49354 0.00142476 0)
(3.49531 0.001426 0)
(3.49708 0.00142719 0)
(3.49887 0.00142836 0)
(3.50065 0.00142956 0)
(3.50245 0.00143082 0)
(3.50424 0.00143217 0)
(3.50604 0.00143359 0)
(3.50784 0.00143509 0)
(3.50964 0.0014366 0)
(3.51144 0.00143809 0)
(3.51324 0.00143956 0)
(3.51504 0.00144092 0)
(3.51683 0.00144217 0)
(3.51862 0.00144333 0)
(3.52041 0.00144442 0)
(3.52219 0.00144546 0)
(3.52398 0.00144647 0)
(3.52575 0.00144745 0)
(3.52753 0.00144835 0)
(3.5293 0.00144916 0)
(3.53107 0.0014499 0)
(3.53284 0.00145053 0)
(3.53461 0.00145106 0)
(3.53638 0.00145157 0)
(3.53815 0.00145213 0)
(3.53993 0.00145283 0)
(3.5417 0.00145373 0)
(3.54348 0.00145486 0)
(3.54525 0.0014562 0)
(3.54702 0.0014577 0)
(3.54879 0.00145929 0)
(3.55055 0.00146091 0)
(3.5523 0.00146243 0)
(3.55405 0.00146377 0)
(3.55579 0.00146491 0)
(3.55753 0.00146583 0)
(3.55926 0.00146655 0)
(3.56099 0.00146714 0)
(3.56272 0.00146768 0)
(3.56444 0.00146823 0)
(3.56616 0.00146887 0)
(3.56787 0.00146965 0)
(3.56959 0.00147062 0)
(3.57129 0.00147176 0)
(3.573 0.00147308 0)
(3.5747 0.00147454 0)
(3.5764 0.00147608 0)
(3.57809 0.0014777 0)
(3.57978 0.00147936 0)
(3.58147 0.00148098 0)
(3.58315 0.00148253 0)
(3.58483 0.00148404 0)
(3.5865 0.00148548 0)
(3.58817 0.00148683 0)
(3.58984 0.00148812 0)
(3.5915 0.00148936 0)
(3.59316 0.00149051 0)
(3.59482 0.00149165 0)
(3.59647 0.00149279 0)
(3.59812 0.00149385 0)
(3.59977 0.00149491 0)
(3.60141 0.00149597 0)
(3.60305 0.00149703 0)
(3.60469 0.00149804 0)
(3.60632 0.00149903 0)
(3.60795 0.00150003 0)
(3.60958 0.00150103 0)
(3.6112 0.00150199 0)
(3.61282 0.00150293 0)
(3.61444 0.00150386 0)
(3.61605 0.00150477 0)
(3.61766 0.00150566 0)
(3.61927 0.00150651 0)
(3.62087 0.00150736 0)
(3.62247 0.00150822 0)
(3.62407 0.00150903 0)
(3.62566 0.00150983 0)
(3.62725 0.00151062 0)
(3.62883 0.00151137 0)
(3.63042 0.00151214 0)
(3.63199 0.00151291 0)
(3.63357 0.00151364 0)
(3.63514 0.00151435 0)
(3.63671 0.00151507 0)
(3.63827 0.00151575 0)
(3.63983 0.00151646 0)
(3.64139 0.00151714 0)
(3.64294 0.00151784 0)
(3.64449 0.00151842 0)
(3.64603 0.00151922 0)
(3.64758 0.00151972 0)
(3.64911 0.00152061 0)
(3.65065 0.00152086 0)
(3.65217 0.00152206 0)
(3.65372 0.00152194 0)
(3.65521 0.00152376 0)
(3.65677 0.00152261 0)
(3.65822 0.00152605 0)
(3.65982 0.00152258 0)
(3.66119 0.00153009 0)
(3.66289 0.00152086 0)
(3.6641 0.00153867 0)
(3.66599 0.00151613 0)
(3.66689 0.00156035 0)
(3.66914 0.00150365 0)
(3.66947 0.00158459 0)
(3.67223 0.00147467 0)
(4.58453 0.329867 0)
(5.00682 0.2258 0)
(5.21746 0.103845 0)
(5.19569 0.09418 0)
(5.07025 0.0802205 0)
(4.9432 0.0548062 0)
(4.84552 0.0372775 0)
(4.77081 0.0298563 0)
(4.70702 0.0265659 0)
(4.64953 0.023688 0)
(4.59833 0.0207726 0)
(4.5534 0.0182821 0)
(4.51384 0.0163402 0)
(4.47862 0.0147821 0)
(4.44702 0.0134544 0)
(4.41858 0.0122982 0)
(4.39292 0.0112969 0)
(4.36967 0.0104314 0)
(4.34853 0.0096757 0)
(4.32924 0.00900622 0)
(4.31163 0.00840624 0)
(4.29551 0.00786532 0)
(4.28076 0.00737687 0)
(4.26723 0.00693604 0)
(4.25482 0.00653822 0)
(4.24341 0.00617822 0)
(4.23289 0.00585029 0)
(4.2232 0.00554891 0)
(4.21425 0.00526957 0)
(4.206 0.00500923 0)
(4.19839 0.00476616 0)
(4.19139 0.00453954 0)
(4.18494 0.00432855 0)
(4.17901 0.0041321 0)
(4.17356 0.00394913 0)
(4.16857 0.0037783 0)
(4.164 0.00361823 0)
(4.15983 0.00346802 0)
(4.15603 0.00332725 0)
(4.15259 0.00319565 0)
(4.14947 0.00307272 0)
(4.14665 0.00295773 0)
(4.1441 0.00284994 0)
(4.14182 0.00274834 0)
(4.13977 0.00265223 0)
(4.13795 0.00256117 0)
(4.13635 0.00247469 0)
(4.13493 0.00239339 0)
(4.13371 0.00231796 0)
(4.13265 0.0022465 0)
(4.13175 0.00217941 0)
(4.13101 0.00211711 0)
(4.13041 0.00205947 0)
(4.12995 0.0020066 0)
(4.1296 0.00195821 0)
(4.12938 0.00191371 0)
(4.12926 0.00187331 0)
(4.12925 0.00183733 0)
(4.12932 0.00180457 0)
(4.12948 0.00177485 0)
(4.12971 0.00174804 0)
(4.13001 0.00172382 0)
(4.13038 0.00170179 0)
(4.1308 0.00168155 0)
(4.13127 0.00166295 0)
(4.1318 0.00164596 0)
(4.13237 0.00163051 0)
(4.13298 0.00161639 0)
(4.13364 0.00160345 0)
(4.13435 0.00159166 0)
(4.13509 0.00158105 0)
(4.13588 0.00157166 0)
(4.13671 0.00156354 0)
(4.13759 0.0015567 0)
(4.1385 0.00155111 0)
(4.13946 0.0015467 0)
(4.14046 0.00154337 0)
(4.14149 0.001541 0)
(4.14257 0.00153952 0)
(4.14368 0.00153884 0)
(4.14482 0.00153882 0)
(4.146 0.00153932 0)
(4.1472 0.0015402 0)
(4.14844 0.00154129 0)
(4.1497 0.00154249 0)
(4.15098 0.00154377 0)
(4.15229 0.00154509 0)
(4.15363 0.00154634 0)
(4.15499 0.00154761 0)
(4.15637 0.00154891 0)
(4.15778 0.00155034 0)
(4.15922 0.00155192 0)
(4.16068 0.00155374 0)
(4.16217 0.0015559 0)
(4.16369 0.0015584 0)
(4.16523 0.00156124 0)
(4.1668 0.00156442 0)
(4.1684 0.00156794 0)
(4.17001 0.00157175 0)
(4.17166 0.00157575 0)
(4.17332 0.00157987 0)
(4.175 0.00158392 0)
(4.1767 0.00158787 0)
(4.17841 0.0015917 0)
(4.18014 0.00159527 0)
(4.18188 0.00159852 0)
(4.18364 0.00160141 0)
(4.1854 0.00160397 0)
(4.18718 0.00160625 0)
(4.18897 0.00160832 0)
(4.19078 0.00161026 0)
(4.19259 0.0016121 0)
(4.19442 0.001614 0)
(4.19626 0.00161608 0)
(4.19811 0.00161832 0)
(4.19998 0.00162074 0)
(4.20186 0.00162338 0)
(4.20375 0.00162621 0)
(4.20565 0.00162922 0)
(4.20756 0.00163235 0)
(4.20948 0.0016355 0)
(4.21141 0.00163862 0)
(4.21335 0.00164162 0)
(4.21529 0.00164445 0)
(4.21724 0.00164702 0)
(4.21919 0.00164927 0)
(4.22115 0.00165122 0)
(4.22311 0.00165285 0)
(4.22506 0.00165421 0)
(4.22702 0.0016554 0)
(4.22899 0.00165644 0)
(4.23095 0.00165739 0)
(4.23292 0.0016583 0)
(4.23488 0.00165925 0)
(4.23686 0.00166026 0)
(4.23883 0.00166136 0)
(4.24081 0.00166259 0)
(4.2428 0.00166398 0)
(4.24479 0.00166553 0)
(4.24678 0.00166719 0)
(4.24878 0.00166891 0)
(4.25078 0.00167062 0)
(4.25278 0.00167225 0)
(4.25478 0.00167373 0)
(4.25679 0.001675 0)
(4.2588 0.00167603 0)
(4.2608 0.00167686 0)
(4.26281 0.00167752 0)
(4.26481 0.00167806 0)
(4.26681 0.00167852 0)
(4.26881 0.00167892 0)
(4.2708 0.00167926 0)
(4.27279 0.00167954 0)
(4.27478 0.0016798 0)
(4.27677 0.00168002 0)
(4.27876 0.00168023 0)
(4.28075 0.00168052 0)
(4.28274 0.00168098 0)
(4.28472 0.00168168 0)
(4.28671 0.0016827 0)
(4.2887 0.00168403 0)
(4.29069 0.00168562 0)
(4.29268 0.00168737 0)
(4.29467 0.00168918 0)
(4.29666 0.00169094 0)
(4.29864 0.00169249 0)
(4.30062 0.00169374 0)
(4.3026 0.00169464 0)
(4.30457 0.0016952 0)
(4.30655 0.00169546 0)
(4.30851 0.00169554 0)
(4.31048 0.00169554 0)
(4.31244 0.00169555 0)
(4.3144 0.00169571 0)
(4.31635 0.00169608 0)
(4.3183 0.00169671 0)
(4.32025 0.0016976 0)
(4.3222 0.00169874 0)
(4.32414 0.00170009 0)
(4.32608 0.00170158 0)
(4.32802 0.00170319 0)
(4.32995 0.00170484 0)
(4.33188 0.00170647 0)
(4.33381 0.00170803 0)
(4.33574 0.00170953 0)
(4.33766 0.00171096 0)
(4.33958 0.00171228 0)
(4.34149 0.00171351 0)
(4.34341 0.00171469 0)
(4.34532 0.00171578 0)
(4.34723 0.00171685 0)
(4.34914 0.00171791 0)
(4.35104 0.0017189 0)
(4.35295 0.00171988 0)
(4.35485 0.00172088 0)
(4.35675 0.00172187 0)
(4.35864 0.00172282 0)
(4.36054 0.00172375 0)
(4.36243 0.0017247 0)
(4.36432 0.00172564 0)
(4.3662 0.00172655 0)
(4.36809 0.00172744 0)
(4.36997 0.00172831 0)
(4.37185 0.00172917 0)
(4.37373 0.00173001 0)
(4.3756 0.00173081 0)
(4.37748 0.00173161 0)
(4.37935 0.00173242 0)
(4.38122 0.00173319 0)
(4.38308 0.00173393 0)
(4.38494 0.00173467 0)
(4.38681 0.00173537 0)
(4.38866 0.00173609 0)
(4.39052 0.00173682 0)
(4.39237 0.00173751 0)
(4.39423 0.00173818 0)
(4.39607 0.00173885 0)
(4.39792 0.0017395 0)
(4.39976 0.00174016 0)
(4.40161 0.00174082 0)
(4.40344 0.00174147 0)
(4.40528 0.00174206 0)
(4.40711 0.00174281 0)
(4.40895 0.00174334 0)
(4.41077 0.00174414 0)
(4.4126 0.00174448 0)
(4.41441 0.00174554 0)
(4.41625 0.00174564 0)
(4.41804 0.00174715 0)
(4.41989 0.0017465 0)
(4.42164 0.00174929 0)
(4.42354 0.00174687 0)
(4.42521 0.00175321 0)
(4.42721 0.00174583 0)
(4.4287 0.00176223 0)
(4.43092 0.00174203 0)
(4.43209 0.00178695 0)
(4.43472 0.00173158 0)
(4.43524 0.00181738 0)
(4.43848 0.00169541 0)
(4.55146 0.271038 0)
(4.99965 0.19949 0)
(5.31047 0.0872676 0)
(5.43257 0.0890616 0)
(5.43931 0.0865462 0)
(5.40536 0.0645681 0)
(5.36599 0.0465534 0)
(5.32686 0.0382148 0)
(5.28605 0.0341725 0)
(5.2446 0.030568 0)
(5.20511 0.0269383 0)
(5.16894 0.023814 0)
(5.13606 0.0213469 0)
(5.10605 0.0193531 0)
(5.07861 0.0176528 0)
(5.05351 0.0161723 0)
(5.03058 0.0148873 0)
(5.00959 0.0137733 0)
(4.99033 0.0127985 0)
(4.97263 0.0119337 0)
(4.95635 0.0111576 0)
(4.94137 0.0104567 0)
(4.9276 0.00982246 0)
(4.91493 0.00924855 0)
(4.90329 0.00872918 0)
(4.89257 0.00825771 0)
(4.8827 0.00782688 0)
(4.87362 0.00742964 0)
(4.86525 0.00706031 0)
(4.85754 0.00671514 0)
(4.85046 0.00639215 0)
(4.84396 0.00609053 0)
(4.83799 0.00580948 0)
(4.83253 0.00554787 0)
(4.82753 0.00530434 0)
(4.82297 0.00507713 0)
(4.81882 0.00486442 0)
(4.81507 0.00466494 0)
(4.81168 0.00447796 0)
(4.80864 0.00430292 0)
(4.80592 0.00413903 0)
(4.80352 0.00398527 0)
(4.8014 0.0038406 0)
(4.79955 0.00370361 0)
(4.79795 0.00357344 0)
(4.79658 0.00344953 0)
(4.79544 0.00333131 0)
(4.7945 0.0032196 0)
(4.79375 0.00311543 0)
(4.79317 0.00301652 0)
(4.79276 0.00292334 0)
(4.7925 0.00283641 0)
(4.79238 0.00275561 0)
(4.7924 0.00268106 0)
(4.79254 0.00261227 0)
(4.7928 0.00254842 0)
(4.79318 0.00248969 0)