/*--------------------------------*- C++ -*----------------------------------*\
  =========                 |
  \\      /  F ield         | OpenFOAM: The Open Source CFD Toolbox
   \\    /   O peration     | Website:  https://openfoam.org
    \\  /    A nd           | Version:  7
     \\/     M anipulation  |
\*---------------------------------------------------------------------------*/
FoamFile
{
    version     2.0;
    format      ascii;
    class       volScalarField;
    location    "0.5";
    object      alphat;
}
// * * * * * * * * * * * * * * * * * * * * * * * * * * * * * * * * * * * * * //

dimensions      [1 -1 -1 0 0 0 0];

internalField   nonuniform List<scalar> 
1320
(
0.00440701
0.00540754
0.00520791
0.00476938
0.00442505
0.00418356
0.00401467
0.00389251
0.00379797
0.00371975
0.00365192
0.00359238
0.00353896
0.00349156
0.0034471
0.00340892
0.00336847
0.00334018
0.00329603
0.00331943
0.0014693
0.00316219
0.00365002
0.00380175
0.00382075
0.0037993
0.00374962
0.00369448
0.00364428
0.00359977
0.00355977
0.0035242
0.00349089
0.00346234
0.0034326
0.0034119
0.00338148
0.0033718
0.00332883
0.00333971
0.000305218
0.00104438
0.00166297
0.00199576
0.00218764
0.00234043
0.00244876
0.0025263
0.00258408
0.00262986
0.00266447
0.0026939
0.00271353
0.00273368
0.00274227
0.00275763
0.00275938
0.00277226
0.00276614
0.0027762
5.13647e-05
0.000255172
0.000487836
0.000727902
0.000898488
0.00103978
0.00115409
0.00125468
0.00134007
0.00142169
0.001491
0.00156056
0.00161812
0.00167817
0.00172629
0.00177697
0.0018186
0.00185913
0.00189938
0.0019249
1.82023e-05
5.23132e-05
0.000102949
0.000164343
0.000238012
0.000304252
0.000366134
0.000427128
0.000481587
0.00053759
0.000590937
0.000642782
0.000692794
0.000738205
0.000786531
0.000827901
0.000877512
0.000912967
0.000963095
0.000991993
1.70688e-05
2.16294e-05
3.04339e-05
3.66812e-05
4.80161e-05
5.75532e-05
7.39752e-05
8.54709e-05
0.000105575
0.00011874
0.000141605
0.000158505
0.000184875
0.000200655
0.000224743
0.000241342
0.000271237
0.000292374
0.000320632
0.000337693
1.70688e-05
2.16293e-05
3.04861e-05
3.6639e-05
4.85337e-05
5.77056e-05
7.43485e-05
8.54649e-05
0.000105812
0.000118753
0.000143038
0.000157478
0.000184439
0.000199222
0.000226627
0.000241752
0.00027047
0.000287447
0.000316671
0.000331709
1.82024e-05
5.23149e-05
0.000103028
0.000162402
0.000242708
0.000299749
0.00036994
0.000422443
0.000485546
0.00053323
0.000594921
0.000638612
0.000696482
0.000734271
0.000789071
0.000824137
0.000877863
0.000908341
0.000958424
0.000983688
5.13645e-05
0.000255173
0.000488154
0.000727668
0.000898723
0.00103945
0.00115453
0.0012541
0.00134084
0.00142066
0.00149221
0.00155884
0.00161984
0.00167552
0.00172815
0.00177315
0.00181936
0.00185354
0.00189535
0.00191647
0.000305217
0.00104439
0.00166296
0.00199577
0.00218762
0.00234045
0.00244871
0.00252634
0.00258401
0.00262987
0.00266438
0.00269375
0.00271349
0.00273303
0.0027423
0.00275592
0.002759
0.00276778
0.00276438
0.00276791
0.0014693
0.00316219
0.00365002
0.00380175
0.00382076
0.00379929
0.0037496
0.00369454
0.0036442
0.00359994
0.00355954
0.0035246
0.00349039
0.00346315
0.00343194
0.0034129
0.00338222
0.0033699
0.00333516
0.0033357
0.00440701
0.00540755
0.00520791
0.00476938
0.00442505
0.00418357
0.00401466
0.00389256
0.00379796
0.00371994
0.00365187
0.00359293
0.00353885
0.00349307
0.00344722
0.00341252
0.00337042
0.00334717
0.00330681
0.00332211
0.00742821
0.00763959
0.00755644
0.00743289
0.00734568
0.00728678
0.00724165
0.00720714
0.00718184
0.00716352
0.00714969
0.00713842
0.0071284
0.00711889
0.00710955
0.00710027
0.00709103
0.00708187
0.00707285
0.00706402
0.00705546
0.00704721
0.00703936
0.00703194
0.00702501
0.00701858
0.00701267
0.00700728
0.00700239
0.00699795
0.0069939
0.00699018
0.0069867
0.00698337
0.00698009
0.00697676
0.00697328
0.00696958
0.00696558
0.00696121
0.00695644
0.00695124
0.00694562
0.00693959
0.0069332
0.00692651
0.0069196
0.00691256
0.00690552
0.00689858
0.00689187
0.00688551
0.00687965
0.0068744
0.00686987
0.00686617
0.00686339
0.00686162
0.00686093
0.00686136
0.00686296
0.00686575
0.00686975
0.00687494
0.00688134
0.0068889
0.00689761
0.00690742
0.0069183
0.0069302
0.00694307
0.00695687
0.00697152
0.00698701
0.00700321
0.00702021
0.00703775
0.0070561
0.00707472
0.00709435
0.00711372
0.00713475
0.00715431
0.00717724
0.00719595
0.00722198
0.00723793
0.00726946
0.00728021
0.00732086
0.0080796
0.00858041
0.00861709
0.00855743
0.00849324
0.00844319
0.00840437
0.00837537
0.00835594
0.00834463
0.00833924
0.00833766
0.00833832
0.00834024
0.00834286
0.00834591
0.00834925
0.00835283
0.00835663
0.00836064
0.00836486
0.00836928
0.00837391
0.00837874
0.00838379
0.00838904
0.00839449
0.00840015
0.00840602
0.00841209
0.00841838
0.00842488
0.0084316
0.00843855
0.00844573
0.00845314
0.0084608
0.00846872
0.0084769
0.00848535
0.0084941
0.00850314
0.0085125
0.00852219
0.00853221
0.00854258
0.00855331
0.00856441
0.00857589
0.00858776
0.00860002
0.00861268
0.00862575
0.00863922
0.00865309
0.00866737
0.00868204
0.00869712
0.00871258
0.00872843
0.00874466
0.00876126
0.00877821
0.00879551
0.00881315
0.00883112
0.0088494
0.00886798
0.00888686
0.00890602
0.00892544
0.00894514
0.00896506
0.00898527
0.00900565
0.00902633
0.00904711
0.0090683
0.00908937
0.00911115
0.00913231
0.00915495
0.00917573
0.00919988
0.00921928
0.00924632
0.00926244
0.00929469
0.00930635
0.00934584
0.00689094
0.00776332
0.00799742
0.00805799
0.00805992
0.00804565
0.00802977
0.00801794
0.00801273
0.00801444
0.00802192
0.00803353
0.00804781
0.00806369
0.00808045
0.00809767
0.00811512
0.00813268
0.00815028
0.00816791
0.00818555
0.00820319
0.00822085
0.00823852
0.00825621
0.00827391
0.00829164
0.00830941
0.00832721
0.00834506
0.00836295
0.0083809
0.00839892
0.00841699
0.00843514
0.00845335
0.00847163
0.00848997
0.00850838
0.00852686
0.00854538
0.00856397
0.0085826
0.00860128
0.00861999
0.00863874
0.00865751
0.00867631
0.00869513
0.00871396
0.00873281
0.00875168
0.00877056
0.00878945
0.00880836
0.00882727
0.0088462
0.00886515
0.00888411
0.00890309
0.00892209
0.00894112
0.00896017
0.00897926
0.00899837
0.00901751
0.00903669
0.0090559
0.00907515
0.00909444
0.00911376
0.00913313
0.00915253
0.009172
0.00919146
0.00921104
0.00923056
0.0092503
0.0092698
0.00928981
0.00930913
0.00932968
0.00934841
0.00937013
0.00938739
0.0094115
0.00942568
0.00945391
0.00946499
0.0094985
0.00492374
0.00623086
0.00676988
0.00701219
0.00711547
0.0071537
0.00716578
0.00717087
0.00717749
0.00718873
0.00720493
0.00722524
0.0072485
0.00727367
0.00729995
0.00732678
0.00735383
0.0073809
0.00740788
0.00743473
0.00746142
0.00748795
0.00751432
0.00754052
0.00756656
0.00759244
0.00761816
0.00764372
0.00766913
0.0076944
0.00771952
0.00774449
0.00776933
0.00779402
0.00781857
0.00784299
0.00786725
0.00789137
0.00791533
0.00793914
0.00796278
0.00798626
0.00800956
0.00803268
0.00805563
0.00807838
0.00810094
0.00812331
0.00814548
0.00816745
0.00818923
0.0082108
0.00823218
0.00825338
0.00827439
0.00829521
0.00831587
0.00833635
0.00835667
0.00837684
0.00839686
0.00841673
0.00843647
0.00845608
0.00847556
0.00849492
0.00851417
0.00853331
0.00855233
0.00857126
0.00859008
0.00860882
0.00862745
0.00864602
0.00866445
0.00868288
0.00870111
0.00871944
0.00873742
0.00875575
0.00877333
0.00879194
0.00880875
0.00882819
0.00884345
0.00886477
0.00887726
0.00890148
0.00891192
0.00894021
0.00251394
0.00404804
0.0049985
0.00550037
0.0057492
0.00586348
0.00591369
0.00593821
0.0059553
0.0059726
0.00599264
0.00601575
0.00604143
0.00606895
0.00609763
0.00612696
0.00615658
0.00618626
0.00621587
0.00624536
0.00627469
0.00630385
0.00633282
0.00636161
0.00639022
0.00641863
0.00644685
0.00647488
0.00650271
0.00653034
0.00655778
0.00658502
0.00661206
0.0066389
0.00666554
0.00669196
0.00671818
0.00674417
0.00676995
0.00679549
0.0068208
0.00684587
0.00687069
0.00689526
0.00691957
0.00694362
0.00696741
0.00699092
0.00701416
0.00703713
0.00705984
0.00708226
0.00710442
0.00712631
0.00714794
0.00716931
0.00719043
0.00721129
0.00723192
0.00725231
0.00727246
0.00729239
0.0073121
0.00733159
0.00735087
0.00736995
0.00738882
0.0074075
0.00742597
0.00744426
0.00746235
0.00748028
0.00749799
0.00751556
0.0075329
0.00755015
0.0075671
0.00758407
0.00760057
0.00761738
0.00763327
0.00765018
0.00766511
0.00768265
0.00769591
0.00771493
0.00772573
0.00774651
0.00775609
0.00778017
0.000883519
0.00170239
0.00277059
0.00361757
0.00411593
0.00438635
0.00452778
0.00460391
0.00464984
0.00468287
0.00471077
0.00473688
0.00476253
0.00478826
0.00481421
0.00484039
0.00486675
0.00489322
0.00491973
0.00494626
0.00497277
0.00499926
0.00502571
0.00505211
0.00507846
0.00510475
0.00513097
0.00515711
0.00518316
0.00520913
0.00523501
0.00526078
0.00528645
0.005312
0.00533743
0.00536273
0.00538789
0.0054129
0.00543776
0.00546245
0.00548697
0.0055113
0.00553545
0.00555939
0.00558312
0.00560664
0.00562994
0.005653
0.00567583
0.00569843
0.00572078
0.0057429
0.00576476
0.00578638
0.00580775
0.00582888
0.00584977
0.00587041
0.00589081
0.00591097
0.0059309
0.00595059
0.00597006
0.00598929
0.00600829
0.00602707
0.00604562
0.00606394
0.00608204
0.00609993
0.00611758
0.00613502
0.00615222
0.00616924
0.00618597
0.0062026
0.00621881
0.0062351
0.00625072
0.00626682
0.00628163
0.00629785
0.00631142
0.00632831
0.00634002
0.00635816
0.00636776
0.0063866
0.00639571
0.00641753
0.000859477
0.00165261
0.00272064
0.00361545
0.00414852
0.00444237
0.00459968
0.00468596
0.00473796
0.00477442
0.00480413
0.00483104
0.0048569
0.0048825
0.00490818
0.00493403
0.00496003
0.00498614
0.0050123
0.00503846
0.00506462
0.00509074
0.00511683
0.00514287
0.00516885
0.00519478
0.00522063
0.00524641
0.00527211
0.00529773
0.00532326
0.00534868
0.00537401
0.00539922
0.00542431
0.00544928
0.00547411
0.0054988
0.00552334
0.00554772
0.00557193
0.00559596
0.00561981
0.00564346
0.00566692
0.00569016
0.00571319
0.005736
0.00575859
0.00578096
0.00580309
0.00582499
0.00584666
0.0058681
0.00588931
0.00591029
0.00593104
0.00595156
0.00597186
0.00599194
0.0060118
0.00603143
0.00605086
0.00607006
0.00608906
0.00610785
0.00612642
0.00614479
0.00616294
0.00618089
0.00619862
0.00621617
0.00623348
0.00625063
0.00626748
0.00628426
0.00630064
0.0063171
0.0063329
0.0063492
0.00636421
0.00638065
0.00639443
0.00641159
0.00642348
0.00644197
0.00645169
0.00647101
0.00648022
0.00650251
0.00247998
0.00400109
0.00501781
0.00558806
0.00588709
0.00604017
0.00611929
0.0061636
0.00619353
0.00621879
0.0062434
0.00626876
0.00629523
0.00632273
0.00635103
0.00637984
0.00640888
0.00643798
0.00646702
0.00649594
0.00652472
0.00655332
0.00658176
0.00661003
0.00663812
0.00666603
0.00669376
0.00672131
0.00674868
0.00677587
0.00680287
0.00682969
0.00685632
0.00688276
0.006909
0.00693505
0.0069609
0.00698654
0.00701196
0.00703717
0.00706216
0.00708691
0.00711143
0.00713572
0.00715976
0.00718355
0.00720709
0.00723038
0.00725343
0.00727622
0.00729876
0.00732105
0.0073431
0.00736491
0.00738648
0.00740782
0.00742894
0.00744983
0.00747051
0.00749099
0.00751125
0.00753132
0.0075512
0.00757089
0.0075904
0.00760973
0.00762888
0.00764786
0.00766666
0.00768531
0.00770378
0.00772211
0.00774025
0.00775826
0.00777607
0.0077938
0.00781125
0.00782874
0.00784577
0.00786314
0.00787959
0.0078971
0.0079126
0.00793081
0.0079446
0.00796441
0.00797564
0.0079974
0.00800736
0.00803253
0.00490326
0.00627738
0.00690796
0.00722905
0.00739385
0.0074798
0.00752705
0.0075567
0.00757985
0.00760162
0.00762391
0.00764725
0.00767172
0.00769715
0.00772328
0.00774982
0.00777655
0.00780328
0.00782994
0.00785648
0.00788287
0.00790911
0.0079352
0.00796113
0.00798692
0.00801256
0.00803806
0.00806342
0.00808864
0.00811372
0.00813867
0.0081635
0.00818819
0.00821276
0.00823719
0.00826149
0.00828566
0.00830968
0.00833356
0.00835729
0.00838087
0.00840429
0.00842755
0.00845064
0.00847355
0.00849629
0.00851885
0.00854123
0.00856344
0.00858546
0.0086073
0.00862898
0.00865049
0.00867183
0.00869301
0.00871403
0.00873491
0.00875565
0.00877626
0.00879673
0.00881709
0.00883734
0.00885747
0.00887751
0.00889744
0.00891729
0.00893704
0.00895672
0.00897631
0.00899582
0.00901526
0.00903463
0.00905391
0.00907316
0.00909229
0.00911143
0.00913039
0.00914946
0.00916821
0.00918732
0.00920569
0.00922511
0.00924271
0.00926302
0.00927904
0.00930135
0.00931448
0.00933989
0.00935086
0.00938061
0.00693704
0.00793526
0.00827856
0.0084226
0.00849194
0.00853087
0.0085548
0.00857153
0.00858597
0.00860028
0.00861504
0.00863039
0.00864638
0.00866299
0.00868008
0.00869749
0.00871509
0.00873278
0.00875051
0.00876827
0.00878603
0.00880381
0.0088216
0.00883941
0.00885723
0.00887508
0.00889297
0.0089109
0.00892887
0.00894689
0.00896496
0.0089831
0.00900131
0.00901958
0.00903791
0.00905633
0.0090748
0.00909335
0.00911196
0.00913064
0.00914937
0.00916816
0.00918699
0.00920587
0.00922479
0.00924375
0.00926274
0.00928177
0.00930082
0.0093199
0.009339
0.00935814
0.00937731
0.0093965
0.00941573
0.00943499
0.00945429
0.00947363
0.00949302
0.00951246
0.00953195
0.00955149
0.00957108
0.00959074
0.00961045
0.00963023
0.00965007
0.00966997
0.00968993
0.00970997
0.00973006
0.00975023
0.00977044
0.00979074
0.00981107
0.00983153
0.00985194
0.00987258
0.00989301
0.00991396
0.00993424
0.00995576
0.00997546
0.00999818
0.0100164
0.0100416
0.0100567
0.0100861
0.0100979
0.0101331
0.0082377
0.0089104
0.00905475
0.00907477
0.00907764
0.00908144
0.00908439
0.00908592
0.00908762
0.0090897
0.00909194
0.00909428
0.00909683
0.00909969
0.00910285
0.00910629
0.00910997
0.00911387
0.00911797
0.00912228
0.00912679
0.00913151
0.00913644
0.00914157
0.00914692
0.00915248
0.00915825
0.00916423
0.00917043
0.00917685
0.00918348
0.00919034
0.00919742
0.00920473
0.00921227
0.00922005
0.00922807
0.00923635
0.00924489
0.0092537
0.0092628
0.00927219
0.00928189
0.0092919
0.00930225
0.00931295
0.00932401
0.00933544
0.00934725
0.00935945
0.00937206
0.00938508
0.00939851
0.00941237
0.00942664
0.00944134
0.00945647
0.00947202
0.00948798
0.00950436
0.00952114
0.00953832
0.00955589
0.00957384
0.00959216
0.00961083
0.00962985
0.0096492
0.00966888
0.00968886
0.00970914
0.00972971
0.00975054
0.00977167
0.009793
0.00981465
0.00983642
0.0098586
0.0098807
0.0099035
0.00992571
0.0099494
0.00997124
0.00999648
0.0100169
0.0100451
0.0100623
0.0100958
0.0101083
0.0101496
0.0076777
0.00804155
0.00803736
0.00797647
0.00794286
0.0079282
0.00791757
0.00790856
0.00790079
0.00789329
0.00788543
0.00787709
0.00786838
0.00785944
0.00785038
0.00784127
0.00783217
0.00782314
0.00781426
0.00780557
0.00779716
0.00778908
0.00778139
0.00777414
0.00776738
0.00776113
0.00775542
0.00775022
0.00774553
0.0077413
0.00773747
0.00773398
0.00773073
0.00772764
0.00772461
0.00772154
0.00771835
0.00771493
0.00771123
0.00770717
0.00770273
0.00769788
0.00769261
0.00768695
0.00768094
0.00767465
0.00766815
0.00766154
0.00765493
0.00764844
0.0076422
0.00763632
0.00763095
0.00762619
0.00762217
0.007619
0.00761676
0.00761554
0.00761542
0.00761643
0.00761863
0.00762203
0.00762666
0.00763251
0.00763957
0.00764782
0.00765723
0.00766777
0.00767939
0.00769205
0.00770569
0.00772029
0.00773574
0.00775206
0.00776911
0.00778696
0.00780537
0.0078246
0.00784411
0.00786464
0.00788491
0.00790686
0.00792733
0.0079512
0.00797082
0.00799785
0.00801464
0.00804731
0.00805868
0.00810105
)
;

boundaryField
{
    upperWall
    {
        type            zeroGradient;
    }
    lowerWall
    {
        type            zeroGradient;
    }
    heatedWall
    {
        type            zeroGradient;
    }
    inlet
    {
        type            zeroGradient;
    }
    outlet
    {
        type            zeroGradient;
    }
    frontAndBack
    {
        type            empty;
    }
}


// ************************************************************************* //
