/*--------------------------------*- C++ -*----------------------------------*\
  =========                 |
  \\      /  F ield         | OpenFOAM: The Open Source CFD Toolbox
   \\    /   O peration     | Website:  https://openfoam.org
    \\  /    A nd           | Version:  7
     \\/     M anipulation  |
\*---------------------------------------------------------------------------*/
FoamFile
{
    version     2.0;
    format      ascii;
    class       volScalarField;
    location    "0.29";
    object      p_0;
}
// * * * * * * * * * * * * * * * * * * * * * * * * * * * * * * * * * * * * * //

dimensions      [1 -1 -2 0 0 0 0];

internalField   nonuniform List<scalar> 
1600
(
110465
110228
109846
109437
109160
108962
108857
108828
108819
108828
108878
108965
109052
109115
109240
109335
109359
109358
109320
109325
109411
109523
109490
109427
109348
109256
109143
109033
108946
108881
108831
108789
108751
108709
108663
108610
108550
108497
108465
108449
110289
110020
109675
109275
109011
108868
108778
108715
108652
108621
108648
108718
108804
108863
108979
109067
109167
109265
109324
109301
109266
109318
109363
109351
109295
109215
109092
108965
108863
108794
108734
108678
108632
108595
108564
108534
108491
108437
108406
108407
110042
109767
109425
109117
108904
108748
108631
108503
108381
108352
108387
108468
108570
108642
108695
108779
108880
108981
109044
109068
109054
109077
109164
109196
109171
109143
109022
108881
108758
108669
108594
108532
108488
108459
108436
108403
108367
108330
108301
108290
109802
109570
109221
108957
108768
108596
108452
108294
108140
108116
108181
108276
108374
108454
108455
108509
108575
108633
108638
108708
108769
108826
108943
109003
109000
108986
108914
108799
108659
108558
108478
108420
108383
108348
108305
108255
108215
108185
108169
108152
109617
109401
109057
108850
108681
108517
108367
108169
108020
107956
108020
108126
108219
108290
108299
108308
108337
108391
108426
108482
108530
108584
108661
108737
108789
108778
108752
108689
108577
108466
108385
108335
108296
108247
108184
108122
108082
108070
108062
108043
109427
109254
108959
108761
108604
108475
108339
108133
107942
107865
107915
108008
108096
108159
108172
108176
108199
108248
108277
108283
108318
108356
108386
108443
108512
108537
108547
108514
108465
108376
108300
108240
108179
108133
108069
107999
107962
107962
107970
107969
109228
109026
108820
108652
108504
108380
108237
108066
107914
107833
107838
107901
107975
108036
108064
108080
108103
108135
108156
108162
108180
108187
108188
108209
108249
108291
108302
108302
108299
108250
108183
108111
108053
108008
107960
107910
107873
107867
107884
107907
108960
108773
108624
108509
108377
108254
108125
107988
107851
107761
107756
107806
107870
107927
107967
107994
108017
108038
108057
108067
108068
108054
108038
108035
108047
108064
108074
108092
108084
108058
108025
107979
107936
107902
107876
107856
107831
107820
107828
107849
108675
108546
108432
108344
108227
108102
107967
107842
107743
107693
107699
107739
107790
107838
107878
107908
107932
107952
107970
107978
107972
107952
107929
107912
107905
107907
107910
107916
107915
107900
107881
107858
107831
107821
107813
107812
107805
107794
107796
107804
108385
108283
108199
108105
107988
107875
107778
107709
107665
107649
107660
107689
107726
107763
107797
107825
107849
107870
107887
107895
107891
107875
107852
107830
107812
107803
107798
107796
107792
107779
107764
107753
107745
107748
107758
107764
107770
107764
107762
107764
108151
108050
107973
107894
107819
107745
107690
107656
107635
107627
107632
107648
107670
107694
107719
107743
107767
107789
107809
107820
107822
107813
107795
107773
107752
107736
107723
107713
107703
107688
107674
107665
107662
107666
107695
107719
107733
107732
107727
107727
108011
107924
107846
107799
107759
107710
107670
107641
107621
107609
107605
107607
107616
107628
107644
107663
107686
107711
107735
107753
107762
107761
107750
107732
107711
107691
107673
107657
107641
107624
107608
107598
107593
107597
107626
107670
107694
107698
107694
107692
107895
107817
107760
107737
107710
107677
107646
107621
107600
107584
107573
107567
107566
107569
107576
107590
107612
107639
107669
107695
107712
107718
107713
107700
107681
107660
107639
107619
107598
107578
107560
107548
107541
107544
107568
107615
107651
107663
107663
107663
107795
107733
107699
107685
107669
107648
107624
107601
107581
107563
107549
107538
107532
107527
107527
107535
107553
107582
107617
107649
107673
107685
107684
107674
107658
107637
107614
107591
107568
107545
107525
107510
107500
107501
107521
107562
107605
107628
107634
107637
107737
107704
107688
107670
107651
107631
107610
107590
107570
107554
107540
107532
107525
107515
107506
107508
107521
107548
107586
107622
107649
107663
107664
107655
107639
107618
107595
107570
107545
107520
107497
107480
107468
107467
107484
107520
107564
107595
107608
107613
107716
107701
107691
107672
107649
107628
107608
107590
107574
107563
107558
107558
107554
107539
107521
107520
107528
107550
107584
107618
107641
107652
107651
107641
107624
107603
107579
107553
107526
107500
107476
107457
107443
107439
107454
107488
107533
107568
107585
107591
107728
107718
107711
107688
107662
107639
107620
107605
107596
107595
107605
107619
107623
107608
107584
107577
107583
107596
107618
107637
107648
107650
107644
107630
107612
107590
107566
107539
107512
107485
107460
107439
107423
107418
107431
107464
107508
107546
107565
107572
107797
107782
107758
107721
107687
107661
107642
107632
107632
107644
107670
107699
107712
107702
107682
107665
107660
107659
107660
107660
107658
107651
107639
107622
107602
107579
107554
107528
107500
107473
107447
107425
107408
107402
107414
107446
107489
107527
107548
107556
107916
107881
107825
107767
107722
107691
107673
107667
107675
107698
107736
107775
107799
107797
107784
107757
107729
107711
107693
107678
107664
107649
107632
107613
107592
107569
107544
107518
107490
107463
107437
107415
107398
107390
107401
107431
107473
107511
107531
107538
108046
107986
107896
107817
107762
107726
107706
107702
107715
107744
107787
107830
107857
107859
107842
107810
107773
107740
107710
107684
107662
107643
107625
107604
107583
107560
107536
107509
107483
107456
107431
107409
107392
107384
107392
107419
107457
107491
107510
107514
108157
108080
107965
107868
107803
107762
107739
107734
107748
107777
107817
107854
107873
107870
107845
107808
107769
107732
107703
107678
107655
107635
107616
107595
107574
107552
107528
107503
107478
107453
107430
107409
107392
107383
107388
107410
107442
107469
107482
107483
108252
108162
108029
107918
107846
107797
107769
107761
107771
107794
107825
107847
107854
107843
107814
107775
107734
107702
107681
107661
107641
107623
107605
107586
107566
107544
107522
107499
107476
107454
107433
107413
107397
107387
107388
107403
107427
107445
107449
107448
108343
108238
108091
107970
107890
107831
107795
107779
107782
107796
107812
107820
107814
107795
107764
107725
107689
107667
107653
107639
107624
107609
107594
107577
107560
107541
107521
107501
107480
107460
107441
107424
107408
107396
107393
107400
107414
107422
107420
107415
108437
108317
108159
108026
107936
107863
107814
107787
107778
107779
107782
107778
107764
107738
107705
107671
107645
107633
107626
107617
107605
107594
107583
107571
107558
107543
107527
107509
107491
107473
107456
107439
107424
107410
107402
107402
107407
107406
107399
107395
108533
108400
108235
108090
107986
107893
107826
107785
107762
107749
107739
107726
107706
107679
107648
107622
107607
107602
107599
107593
107587
107582
107577
107571
107564
107553
107539
107524
107508
107492
107476
107460
107444
107429
107416
107409
107406
107399
107390
107386
108623
108478
108315
108163
108035
107918
107831
107774
107739
107712
107690
107669
107647
107622
107598
107581
107574
107573
107571
107570
107569
107571
107575
107578
107576
107570
107559
107545
107529
107514
107499
107484
107468
107451
107434
107421
107411
107401
107391
107388
108702
108532
108369
108230
108077
107935
107829
107759
107714
107678
107645
107617
107593
107572
107556
107546
107542
107542
107543
107545
107551
107562
107578
107592
107597
107593
107583
107570
107554
107538
107523
107509
107493
107476
107457
107439
107424
107410
107399
107396
108757
108595
108401
108256
108097
107948
107829
107745
107694
107653
107611
107574
107548
107530
107519
107512
107508
107507
107508
107512
107522
107542
107572
107607
107628
107627
107613
107596
107579
107563
107548
107534
107519
107502
107482
107461
107443
107427
107413
107410
108784
108641
108442
108273
108125
107987
107858
107745
107682
107642
107588
107538
107504
107490
107483
107476
107468
107463
107459
107457
107460
107477
107517
107585
107651
107674
107654
107628
107604
107586
107572
107559
107545
107528
107509
107489
107468
107451
107436
107432
108867
108659
108450
108308
108191
108082
107956
107804
107705
107649
107570
107492
107446
107438
107441
107438
107423
107410
107393
107372
107352
107347
107385
107477
107602
107691
107689
107653
107627
107608
107595
107583
107569
107554
107536
107517
107497
107481
107466
107461
109008
108742
108487
108341
108254
108183
108092
107945
107808
107674
107543
107431
107369
107373
107388
107390
107376
107348
107311
107265
107216
107179
107204
107327
107487
107619
107688
107674
107645
107629
107616
107604
107591
107577
107561
107543
107526
107511
107498
107493
109273
108907
108623
108441
108310
108245
108171
108063
107930
107753
107535
107394
107322
107345
107355
107344
107324
107271
107199
107130
107081
107060
107078
107185
107359
107495
107616
107673
107672
107653
107637
107623
107610
107596
107581
107566
107550
107538
107528
107523
109472
109142
108834
108586
108405
108321
108236
108125
107990
107789
107566
107405
107329
107346
107343
107310
107264
107173
107080
107023
106981
106954
106981
107106
107277
107393
107503
107625
107674
107669
107653
107637
107624
107610
107596
107582
107569
107560
107553
107550
109753
109469
109123
108800
108537
108405
108277
108112
107952
107794
107628
107476
107325
107258
107263
107243
107183
107108
107024
106958
106903
106870
106920
107071
107218
107339
107452
107592
107666
107674
107661
107646
107631
107616
107601
107589
107580
107575
107572
107571
110001
109870
109538
109225
108922
108630
108384
108202
108031
107916
107771
107592
107393
107230
107214
107164
107139
107100
107007
106906
106821
106796
106847
106979
107151
107309
107449
107580
107647
107662
107654
107643
107628
107611
107596
107587
107582
107582
107585
107588
110152
110054
109756
109421
109117
108801
108543
108365
108245
108109
108033
107861
107669
107437
107326
107240
107250
107181
107046
106859
106705
106685
106768
106904
107104
107276
107415
107538
107604
107622
107620
107618
107608
107591
107579
107574
107576
107583
107592
107599
110241
110069
109788
109469
109213
109000
108823
108710
108570
108335
108170
107991
107828
107655
107474
107391
107376
107277
107109
106932
106798
106725
106774
106929
107097
107237
107358
107462
107520
107534
107535
107542
107549
107548
107548
107551
107559
107572
107586
107596
110348
110130
109865
109601
109399
109235
109116
108990
108754
108508
108291
108109
107928
107786
107630
107510
107408
107277
107129
107006
106918
106857
106875
106960
107062
107166
107260
107335
107380
107400
107409
107423
107450
107479
107498
107509
107518
107528
107537
107544
110425
110258
110024
109807
109645
109491
109281
109054
108808
108560
108331
108147
107981
107839
107697
107562
107428
107270
107117
106998
106922
106876
106874
106914
106975
107047
107117
107171
107210
107248
107275
107294
107326
107369
107402
107424
107437
107442
107440
107437
110426
110278
110084
109916
109775
109606
109360
109066
108785
108556
108371
108194
108016
107859
107707
107563
107416
107261
107118
106998
106915
106862
106842
106853
106887
106936
106987
107036
107088
107141
107171
107191
107222
107261
107294
107326
107349
107359
107360
107350
)
;

boundaryField
{
    upperWall
    {
        type            zeroGradient;
    }
    lowerWall
    {
        type            zeroGradient;
    }
    inlet
    {
        type            zeroGradient;
    }
    outlet
    {
        type            waveTransmissive;
        gamma           1.3;
        fieldInf        100000;
        lInf            0.3;
        value           nonuniform List<scalar> 
40
(
108447
108405
108289
108151
108042
107968
107906
107848
107803
107764
107727
107692
107662
107636
107613
107591
107572
107555
107538
107514
107483
107447
107415
107395
107386
107388
107396
107410
107432
107461
107493
107523
107550
107571
107588
107599
107596
107544
107438
107351
)
;
    }
    frontAndBack
    {
        type            empty;
    }
}


// ************************************************************************* //
