/*--------------------------------*- C++ -*----------------------------------*\
  =========                 |
  \\      /  F ield         | OpenFOAM: The Open Source CFD Toolbox
   \\    /   O peration     | Website:  https://openfoam.org
    \\  /    A nd           | Version:  7
     \\/     M anipulation  |
\*---------------------------------------------------------------------------*/
FoamFile
{
    version     2.0;
    format      ascii;
    class       volSymmTensorField;
    location    "2.59";
    object      UPrime2Mean;
}
// * * * * * * * * * * * * * * * * * * * * * * * * * * * * * * * * * * * * * //

dimensions      [0 2 -2 0 0 0 0];

internalField   nonuniform List<symmTensor> 
7920
(
(0.00913597 -0.000743577 -0.000949759 0.000102277 0.00011347 0.000259577)
(0.0393563 0.00531191 -0.00293807 0.000924173 -0.000371934 0.00109612)
(0.0601207 0.00960561 -0.00450909 0.00200381 -0.000629754 0.00249515)
(0.0803616 0.01251 -0.00552838 0.00251836 -0.000645578 0.0035316)
(0.0843406 0.0126911 -0.00665445 0.00269701 -0.000714821 0.00395255)
(0.0951626 0.0134518 -0.00725513 0.00275288 -0.000679909 0.00360598)
(0.0949673 0.0129723 -0.00790399 0.00279156 -0.000739117 0.00307173)
(0.102483 0.0133294 -0.00799828 0.00279711 -0.000713618 0.0024522)
(0.101437 0.0128112 -0.00822571 0.00281516 -0.000756533 0.0020775)
(0.107277 0.0130094 -0.00811922 0.00281647 -0.000726247 0.00180817)
(0.106165 0.012515 -0.00823521 0.00282676 -0.000749317 0.00170892)
(0.110884 0.0125885 -0.00813767 0.00282571 -0.000718931 0.00161908)
(0.109937 0.0121292 -0.00818728 0.00283044 -0.000729838 0.00159581)
(0.113809 0.0121097 -0.00814955 0.00282909 -0.000706065 0.00158345)
(0.113121 0.0116887 -0.0080911 0.00282901 -0.00070085 0.00158364)
(0.116363 0.0116041 -0.00823225 0.00283345 -0.000693453 0.0016575)
(0.115843 0.0111372 -0.00794276 0.00280341 -0.000648764 0.00161838)
(0.119096 0.0111049 -0.00852584 0.00286223 -0.000697745 0.00180164)
(0.117039 0.00940658 -0.00756266 0.00242532 -0.000480509 0.00164121)
(0.129129 0.0130286 -0.00891017 0.00306542 -0.000827027 0.00186144)
(0.00276226 0.000353893 0.000116158 0.00464176 0.000714242 0.000201786)
(0.00560005 -0.00283402 -0.000483158 0.00521778 0.00105999 0.000769352)
(0.0167424 -0.00521365 -0.00151227 0.00450764 0.0011875 0.0017865)
(0.0329784 -0.00726318 -0.0029712 0.00364845 0.00105056 0.00279497)
(0.049572 -0.00732699 -0.00456343 0.00325147 0.000978516 0.00357962)
(0.0656315 -0.00791442 -0.00607654 0.00306708 0.000853132 0.00372489)
(0.0798963 -0.00757889 -0.00742229 0.00299122 0.000811087 0.00352748)
(0.092659 -0.00782186 -0.00832119 0.00294333 0.000739262 0.00305781)
(0.104358 -0.00744626 -0.00896812 0.0029274 0.000732844 0.00262571)
(0.114638 -0.00750618 -0.00927274 0.00290323 0.000693314 0.0022552)
(0.124494 -0.00713148 -0.00953886 0.00289881 0.000697264 0.00200419)
(0.133069 -0.00706783 -0.00962991 0.00288145 0.000671344 0.00180933)
(0.141578 -0.00671788 -0.00972108 0.00288128 0.000673941 0.0016672)
(0.148986 -0.00655608 -0.00977542 0.00286735 0.000660573 0.00157596)
(0.156432 -0.0062536 -0.00964593 0.00286696 0.000649271 0.00148495)
(0.163354 -0.00593926 -0.00983319 0.00286537 0.000653788 0.00151379)
(0.169005 -0.00573063 -0.00936741 0.00283762 0.000605127 0.0014291)
(0.17789 -0.00486934 -0.0100414 0.00287394 0.000635918 0.00160024)
(0.174054 -0.00480215 -0.00873733 0.0027818 0.000505685 0.00145388)
(0.187398 -0.00027413 -0.00994328 0.00253219 0.000438015 0.00170946)
(0.00373137 0.000597749 0.000413665 0.000673 0.000215464 0.000195299)
(0.00659388 -0.00012542 0.000941035 0.000938366 4.46186e-05 0.000666514)
(0.0124439 -0.00153886 0.00170509 0.0014968 4.21276e-06 0.00138041)
(0.0131098 -0.0022767 0.00164673 0.00202284 -3.18277e-05 0.00212826)
(0.0165342 -0.00358312 0.00171706 0.0022586 -0.000151185 0.00296627)
(0.0186411 -0.00366575 0.00114053 0.00238657 -0.000234527 0.00358776)
(0.023127 -0.00441577 0.000660944 0.00245816 -0.000393853 0.00403776)
(0.027778 -0.00417941 -0.000286503 0.0025049 -0.000472924 0.00412747)
(0.0335791 -0.00462842 -0.00100095 0.00254611 -0.000575902 0.00402303)
(0.0398772 -0.00435331 -0.00184631 0.00257837 -0.000604394 0.00370625)
(0.04635 -0.00469511 -0.00234318 0.00260647 -0.000649118 0.00335092)
(0.053378 -0.00449125 -0.00287073 0.002632 -0.000644801 0.00294883)
(0.0599634 -0.00479931 -0.003113 0.00265137 -0.000657707 0.00256934)
(0.0672393 -0.00469389 -0.00338344 0.00266966 -0.000640843 0.00222467)
(0.0736491 -0.00503174 -0.0033753 0.00268806 -0.000638208 0.00189757)
(0.0812318 -0.00489003 -0.00338871 0.00268395 -0.000630185 0.00169047)
(0.0871001 -0.0055215 -0.00311487 0.00273781 -0.000589388 0.00146017)
(0.0957061 -0.00464089 -0.00300999 0.00267364 -0.000691357 0.0014492)
(0.09961 -0.00598311 -0.00251704 0.00270446 -0.000471416 0.00130782)
(0.112278 -0.0022402 -0.0022085 0.00379376 -0.00122271 0.00145387)
(0.00382167 0.00165653 0.000409585 0.00207197 0.000442701 0.000184551)
(0.00765863 0.00389103 0.00104061 0.00363198 0.000839035 0.000635044)
(0.0196224 0.00767143 0.00241167 0.00432921 0.00113632 0.00127346)
(0.0265016 0.00833392 0.003189 0.00407237 0.0011267 0.00188774)
(0.037624 0.00982945 0.00438734 0.00382013 0.00113514 0.00265898)
(0.0423638 0.0095659 0.0048248 0.00361351 0.00103729 0.0033507)
(0.0508323 0.0104174 0.0054642 0.0034621 0.000992967 0.00406454)
(0.0543694 0.0100287 0.00520886 0.00333611 0.000893535 0.00451067)
(0.0614646 0.0106983 0.00512836 0.0032505 0.00085941 0.00478494)
(0.0650728 0.0103909 0.00443698 0.00316428 0.000788076 0.00474943)
(0.07158 0.010976 0.00413742 0.00311323 0.000771371 0.00456305)
(0.0756849 0.0107865 0.00352132 0.00305147 0.000730948 0.00421607)
(0.0818213 0.0113083 0.0032694 0.00302303 0.000724971 0.00379669)
(0.0865258 0.0112277 0.00285814 0.00297361 0.000708613 0.00333399)
(0.0922383 0.0116838 0.00271336 0.00296745 0.000698822 0.00284873)
(0.097723 0.0117024 0.00269994 0.00291339 0.00069384 0.00239982)
(0.102728 0.0120703 0.00279454 0.00294423 0.000690984 0.00199389)
(0.109582 0.0121938 0.00333489 0.00285681 0.000649527 0.00169522)
(0.113192 0.012324 0.00348615 0.00290355 0.000661074 0.00145865)
(0.123807 0.0131839 0.00490739 0.00306281 0.000519665 0.00139726)
(0.00378728 -0.000108516 0.000406361 7.77243e-05 -1.94279e-05 0.000184365)
(0.00717418 -0.00107464 0.000974724 0.000817164 -0.000244457 0.000647182)
(0.0202533 -0.00290299 0.00245256 0.00143164 -0.00032425 0.00127112)
(0.0298362 -0.0036964 0.00339689 0.00193101 -0.000308487 0.00186164)
(0.0460446 -0.00548602 0.00499979 0.00220185 -0.000370456 0.00257672)
(0.0558029 -0.00608737 0.00583 0.00233666 -0.000392259 0.00327107)
(0.0713843 -0.00761011 0.00705316 0.00241658 -0.000495764 0.00401562)
(0.0800851 -0.00798877 0.00721978 0.00245965 -0.000533631 0.00459521)
(0.0945716 -0.00916851 0.00764054 0.00249873 -0.000613077 0.00501996)
(0.102663 -0.0094287 0.00719745 0.00252346 -0.000629031 0.00517274)
(0.116159 -0.0103847 0.00721475 0.00254974 -0.00067432 0.00514394)
(0.123992 -0.0106214 0.00668982 0.00256768 -0.000670237 0.0049197)
(0.13657 -0.0114302 0.00663919 0.00259093 -0.000695217 0.00459775)
(0.144336 -0.0116712 0.00618311 0.00259934 -0.000673154 0.00414637)
(0.156034 -0.0124325 0.00615865 0.00263343 -0.000692934 0.00367848)
(0.163713 -0.0126241 0.00594763 0.00260234 -0.000657881 0.00311445)
(0.174431 -0.0134634 0.00624236 0.00270382 -0.000669556 0.00264537)
(0.182396 -0.0139099 0.00654675 0.00256463 -0.000701314 0.00215937)
(0.189805 -0.0139555 0.00712399 0.00275643 -0.000591869 0.0018161)
(0.202298 -0.0186519 0.0086589 0.0033816 -0.00109352 0.00163543)
(0.00373082 0.000817673 0.00039096 0.000516312 0.000215202 0.000180179)
(0.00656136 0.00211358 0.000882601 0.0016569 0.000510273 0.00064136)
(0.0189617 0.00512824 0.00230253 0.00235897 0.000716017 0.00126841)
(0.0286627 0.00621572 0.00325066 0.0026013 0.000707663 0.00185328)
(0.0457814 0.00831965 0.00491691 0.00272529 0.00076039 0.00255747)
(0.0571755 0.00889651 0.00585112 0.00276179 0.000723201 0.00324291)
(0.0753451 0.01052 0.00723267 0.00278792 0.00076281 0.0039851)
(0.0867829 0.0108458 0.00755276 0.00278578 0.000727963 0.00458696)
(0.105166 0.0121292 0.00816155 0.00279273 0.000754949 0.00505046)
(0.116663 0.0123368 0.00784966 0.00278244 0.000720093 0.00526427)
(0.134853 0.0133878 0.00802604 0.00278502 0.000736619 0.00530225)
(0.146389 0.0135666 0.00758165 0.00277403 0.000706495 0.00514463)
(0.164027 0.0144574 0.00765891 0.00277845 0.00072043 0.00489049)
(0.175641 0.0146178 0.00721665 0.00276416 0.000694159 0.00447881)
(0.192319 0.0154478 0.00727522 0.00278114 0.000708863 0.00405417)
(0.204155 0.015495 0.00698798 0.00274314 0.000678903 0.00347583)
(0.218907 0.0164685 0.00736931 0.00281067 0.000698124 0.00299849)
(0.232174 0.0164908 0.00757154 0.00270804 0.000681762 0.00245758)
(0.24058 0.0168403 0.00832845 0.00282216 0.000652178 0.00204557)
(0.260133 0.0192307 0.00995759 0.00324953 0.00082955 0.00184353)
(0.00373083 -0.000817681 0.000390964 0.000516309 -0.000215204 0.00018018)
(0.00656136 -0.00211357 0.000882592 0.00165689 -0.00051027 0.000641361)
(0.0189617 -0.00512825 0.00230256 0.00235897 -0.000716029 0.00126841)
(0.0286627 -0.00621571 0.0032506 0.00260129 -0.000707654 0.00185329)
(0.0457815 -0.00831967 0.00491702 0.00272529 -0.000760411 0.00255746)
(0.0571755 -0.00889643 0.00585093 0.00276179 -0.000723181 0.00324291)
(0.0753452 -0.0105201 0.007233 0.00278793 -0.000762854 0.00398511)
(0.0867828 -0.0108457 0.00755224 0.00278576 -0.000727913 0.00458689)
(0.105167 -0.0121292 0.00816238 0.00279272 -0.000755035 0.00505059)
(0.116662 -0.0123362 0.00784845 0.00278238 -0.000719972 0.00526399)
(0.134855 -0.013387 0.00802783 0.00278491 -0.000736759 0.00530263)
(0.146388 -0.013565 0.00757924 0.00277379 -0.000706202 0.00514408)
(0.164033 -0.0144547 0.00766225 0.00277812 -0.000720566 0.00489108)
(0.17564 -0.0146111 0.0072126 0.00276329 -0.000693467 0.00447818)
(0.192333 -0.0154423 0.0072802 0.00278057 -0.000708925 0.00405479)
(0.204152 -0.0154705 0.00698272 0.00273983 -0.00067689 0.00347532)
(0.218935 -0.0164619 0.00737394 0.00281035 -0.000698185 0.00299893)
(0.232171 -0.0164191 0.00756893 0.00269834 -0.000676838 0.00245763)
(0.240634 -0.0168158 0.00832485 0.00282072 -0.000650631 0.00204479)
(0.260154 -0.0191191 0.00996965 0.00323179 -0.000823 0.00184617)
(0.00378728 0.000108509 0.000406369 7.77234e-05 1.94264e-05 0.000184368)
(0.00717419 0.00107465 0.000974696 0.000817161 0.000244453 0.000647183)
(0.0202533 0.00290299 0.00245266 0.00143164 0.000324249 0.00127112)
(0.0298362 0.00369641 0.00339671 0.001931 0.000308482 0.00186166)
(0.0460445 0.00548601 0.00500013 0.00220184 0.00037046 0.00257669)
(0.0558032 0.00608742 0.00582941 0.00233664 0.000392242 0.00327106)
(0.0713839 0.00761008 0.00705417 0.00241657 0.000495781 0.00401562)
(0.0800858 0.00798882 0.00721822 0.00245964 0.000533587 0.00459497)
(0.0945705 0.0091686 0.00764304 0.00249871 0.000613143 0.00502036)
(0.102665 0.00942904 0.00719376 0.00252344 0.000628895 0.00517181)
(0.116156 0.0103854 0.00722027 0.00254979 0.000674557 0.00514528)
(0.123998 0.0106224 0.00668206 0.00256774 0.00066992 0.00491768)
(0.136564 0.0114326 0.00665028 0.00259112 0.000695884 0.00460027)
(0.144353 0.011676 0.00616842 0.00259976 0.000672601 0.00414348)
(0.156026 0.0124369 0.00617858 0.0026338 0.000694342 0.00368189)
(0.163751 0.0126437 0.00592344 0.0026045 0.000657705 0.00311092)
(0.174439 0.013468 0.00627158 0.00270397 0.00067196 0.00264954)
(0.182479 0.0139707 0.00651898 0.00257302 0.00070288 0.00215582)
(0.189881 0.013972 0.00714996 0.00275735 0.000596088 0.00181848)
(0.202473 0.0187566 0.00865855 0.00340397 0.00109708 0.00163784)
(0.00382169 -0.00165654 0.000409597 0.00207196 -0.000442719 0.000184554)
(0.00765864 -0.00389102 0.00104056 0.00363197 -0.000838993 0.000635042)
(0.0196224 -0.00767144 0.0024118 0.00432921 -0.00113639 0.00127346)
(0.0265016 -0.00833391 0.00318872 0.00407235 -0.00112658 0.00188775)
(0.037624 -0.00982947 0.00438778 0.00382013 -0.0011353 0.00265891)
(0.0423639 -0.00956586 0.00482402 0.00361348 -0.00103704 0.00335063)
(0.0508321 -0.0104174 0.00546541 0.00346211 -0.000993318 0.00406446)
(0.0543697 -0.0100287 0.00520703 0.00333606 -0.000893027 0.00451026)
(0.0614646 -0.0106984 0.00513129 0.00325049 -0.000860121 0.00478556)
(0.0650739 -0.0103907 0.00443282 0.00316414 -0.000787051 0.00474779)
(0.07158 -0.0109759 0.00414403 0.00311313 -0.000772729 0.00456573)
(0.0756881 -0.0107861 0.00351193 0.00305114 -0.000728889 0.00421179)
(0.0818227 -0.0113078 0.00328452 0.00302272 -0.00072753 0.00380291)
(0.086534 -0.0112254 0.00283652 0.00297249 -0.000704331 0.00332594)
(0.0922457 -0.0116838 0.00274731 0.00296711 -0.000703865 0.00285962)
(0.0977406 -0.0116943 0.0026527 0.00290997 -0.000684771 0.00238636)
(0.102753 -0.0120744 0.00286293 0.0029445 -0.000701053 0.0020114)
(0.109613 -0.012172 0.00324852 0.00284806 -0.000632259 0.00167441)
(0.113259 -0.0123319 0.0035945 0.00290381 -0.000677341 0.00148159)
(0.12387 -0.0131509 0.00479534 0.00305302 -0.000495616 0.00137698)
(0.00373139 -0.000597756 0.000413675 0.000672994 -0.000215474 0.000195302)
(0.0065939 0.000125425 0.000940996 0.000938359 -4.4599e-05 0.000666508)
(0.0124439 0.00153886 0.00170515 0.00149679 -4.23539e-06 0.00138042)
(0.0131098 0.00227668 0.00164663 0.00202283 3.1869e-05 0.00212824)
(0.0165341 0.0035831 0.00171707 0.00225859 0.00015117 0.00296614)
(0.018641 0.00366573 0.00114058 0.00238655 0.00023456 0.00358763)
(0.0231269 0.0044157 0.000660651 0.00245814 0.000393877 0.00403759)
(0.0277776 0.00417933 -0.000285445 0.00250489 0.000472868 0.00412707)
(0.0335792 0.00462827 -0.00100277 0.0025461 0.000576088 0.00402371)
(0.0398759 0.00435333 -0.0018423 0.00257829 0.000603988 0.00370454)
(0.0463505 0.00469477 -0.00234958 0.00260653 0.000649887 0.00335447)
(0.0533732 0.00449128 -0.00285968 0.00263197 0.000643401 0.00294308)
(0.0599642 0.00479857 -0.00312899 0.00265158 0.00066012 0.0025793)
(0.0672253 0.00469406 -0.00335966 0.00266969 0.000636857 0.00221021)
(0.0736445 0.00503048 -0.00340555 0.00268861 0.000644886 0.00191955)
(0.0811977 0.00488754 -0.00334783 0.00268491 0.000619815 0.00165958)
(0.087069 0.00551994 -0.00315924 0.00273833 0.000606721 0.00150275)
(0.095634 0.00463857 -0.00294504 0.00267905 0.000663097 0.00139079)
(0.0995019 0.00598415 -0.00257766 0.00270576 0.000512848 0.00137822)
(0.112088 0.00228324 -0.00207802 0.00380784 0.00112142 0.00136702)
(0.00276228 -0.000353908 0.00011616 0.00464174 -0.000714253 0.000201788)
(0.00560007 0.00283402 -0.000483131 0.00521777 -0.00105995 0.00076935)
(0.0167424 0.00521362 -0.00151237 0.00450764 -0.00118755 0.0017865)
(0.0329784 0.00726314 -0.00297087 0.00364844 -0.00105046 0.00279493)
(0.0495719 0.00732695 -0.00456405 0.00325147 -0.00097863 0.00357951)
(0.0656312 0.00791434 -0.00607507 0.00306707 -0.000852943 0.0037248)
(0.079896 0.00757884 -0.00742459 0.00299123 -0.000811359 0.00352744)
(0.0926581 0.00782158 -0.00831666 0.00294333 -0.000738842 0.0030577)
(0.104357 0.00744617 -0.00897557 0.00292742 -0.000733472 0.00262641)
(0.114635 0.00750549 -0.00925996 0.00290314 -0.000692313 0.00225423)
(0.124492 0.00713116 -0.00956028 0.00289882 -0.000698726 0.00200715)
(0.133059 0.00706609 -0.00959518 0.00288128 -0.000668933 0.00180469)
(0.141573 0.00671693 -0.00977751 0.00288128 -0.000677501 0.00167636)
(0.148955 0.00655131 -0.00968643 0.00286669 -0.000654462 0.00156106)
(0.156412 0.006252 -0.0097839 0.00286718 -0.000658645 0.00150986)
(0.163287 0.00592734 -0.00962179 0.0028634 -0.00063724 0.001474)
(0.168909 0.00573071 -0.00968016 0.00283897 -0.000631901 0.00148886)
(0.177795 0.00484537 -0.0095701 0.00286913 -0.000588651 0.00150979)
(0.173746 0.00480507 -0.00942801 0.00278701 -0.000586654 0.00157167)
(0.187406 0.000299158 -0.00886846 0.00253481 -0.000326149 0.00153865)
(0.009136 0.000743557 -0.000949738 0.000102275 -0.000113466 0.000259581)
(0.0393564 -0.00531191 -0.00293796 0.000924173 0.000371932 0.00109615)
(0.0601207 -0.00960563 -0.00450918 0.00200382 0.000629771 0.00249523)
(0.0803617 -0.01251 -0.0055279 0.00251836 0.000645524 0.0035317)
(0.0843407 -0.0126911 -0.00665486 0.00269702 0.000714868 0.00395267)
(0.0951626 -0.0134516 -0.00725406 0.00275284 0.000679809 0.00360614)
(0.0949673 -0.0129724 -0.00790591 0.00279155 0.000739311 0.00307201)
(0.102483 -0.0133293 -0.00799561 0.00279707 0.000713382 0.00245235)
(0.101437 -0.0128113 -0.0082311 0.00281514 0.00075701 0.00207837)
(0.107276 -0.0130089 -0.00811162 0.00281633 0.000725576 0.00180756)
(0.106165 -0.0125152 -0.00824916 0.00282677 0.000750468 0.00171152)
(0.110879 -0.0125874 -0.00811632 0.00282553 0.000717137 0.00161538)
(0.109937 -0.0121295 -0.00822358 0.00283053 0.000732743 0.00160343)
(0.113797 -0.0121068 -0.0080915 0.00282857 0.00070123 0.00157087)
(0.113118 -0.0116897 -0.00818575 0.00282944 0.000708566 0.00160568)
(0.116336 -0.0115984 -0.0080791 0.00283234 0.000680089 0.0016204)
(0.115817 -0.0111402 -0.00818591 0.00280486 0.000670786 0.00167839)
(0.119053 -0.0110969 -0.00813282 0.00286034 0.000657504 0.00170579)
(0.116932 -0.00942743 -0.00815081 0.00243157 0.000543531 0.00176846)
(0.129008 -0.0130479 -0.00809759 0.00307469 0.000696256 0.00171543)
(0.00302916 -0.000290533 1.57215e-05 0.00173756 1.34217e-05 4.1893e-07)
(0.0264314 -0.00894997 2.69436e-06 0.00407359 1.37461e-05 3.33583e-07)
(0.0573338 -0.0130018 1.17827e-05 0.00467883 2.01551e-05 3.79415e-07)
(0.110316 -0.0178263 3.12708e-05 0.00455903 1.48845e-05 3.26776e-07)
(0.118595 -0.0171834 2.31026e-05 0.00465886 2.12823e-05 3.6427e-07)
(0.152441 -0.0202254 4.09407e-05 0.00484248 1.66338e-05 3.13773e-07)
(0.147522 -0.0191516 2.54749e-05 0.00500616 2.26816e-05 3.47211e-07)
(0.173343 -0.0213694 4.20412e-05 0.00513055 1.81252e-05 2.99964e-07)
(0.166462 -0.0200905 2.54365e-05 0.00520434 2.35142e-05 3.30029e-07)
(0.187774 -0.021655 4.15899e-05 0.00525948 1.90506e-05 2.87621e-07)
(0.180879 -0.0203855 2.50328e-05 0.00529259 2.37956e-05 3.13692e-07)
(0.198595 -0.0215004 4.0744e-05 0.00532229 1.95593e-05 2.75571e-07)
(0.19231 -0.0203287 2.45521e-05 0.00533986 2.37572e-05 2.96878e-07)
(0.207197 -0.0211223 4.0015e-05 0.00536074 1.97578e-05 2.62524e-07)
(0.201708 -0.0200616 2.44632e-05 0.00536466 2.3416e-05 2.79444e-07)
(0.214678 -0.0206113 4.02067e-05 0.00539816 1.9679e-05 2.49007e-07)
(0.209004 -0.0195525 2.49747e-05 0.00531025 2.25887e-05 2.62192e-07)
(0.222592 -0.0199444 4.32574e-05 0.00559492 1.97261e-05 2.3564e-07)
(0.210433 -0.0156395 2.31946e-05 0.00418244 2.02589e-05 2.46597e-07)
(0.209312 -0.0149592 5.53609e-05 0.0045682 1.64463e-05 2.1651e-07)
(0.00433369 0.000202743 1.88513e-05 0.000312412 -5.06229e-06 3.29953e-07)
(0.00343315 -2.01559e-05 1.18349e-05 0.000955307 -1.16911e-05 2.80443e-07)
(0.00719325 -0.00154456 3.54357e-05 0.00194921 -1.81298e-05 3.15506e-07)
(0.0138794 -8.19725e-05 4.07329e-05 0.00292532 -1.58646e-05 2.75224e-07)
(0.0214023 -0.00063618 5.50126e-05 0.00370717 -1.993e-05 3.01439e-07)
(0.0387296 0.00236207 6.30465e-05 0.00424078 -1.51875e-05 2.59929e-07)
(0.0475898 0.00167772 6.96705e-05 0.00453009 -2.0129e-05 2.84434e-07)
(0.0683312 0.00415118 7.76164e-05 0.00472312 -1.5466e-05 2.46049e-07)
(0.0762172 0.00328089 7.97193e-05 0.00484137 -2.02012e-05 2.69562e-07)
(0.0967218 0.00520231 8.7014e-05 0.00493831 -1.56766e-05 2.34519e-07)
(0.103183 0.0043121 8.5918e-05 0.00500535 -1.99911e-05 2.54989e-07)
(0.122175 0.0057679 9.24441e-05 0.00506607 -1.5732e-05 2.22772e-07)
(0.12748 0.00488988 8.90413e-05 0.00510526 -1.96428e-05 2.39489e-07)
(0.144804 0.00597943 9.51546e-05 0.00515265 -1.56569e-05 2.1019e-07)
(0.149289 0.00509025 9.02827e-05 0.00516284 -1.91546e-05 2.23514e-07)
(0.165593 0.00604211 9.65854e-05 0.00522898 -1.5346e-05 1.97541e-07)
(0.168418 0.00474957 9.07714e-05 0.00519515 -1.86051e-05 2.07877e-07)
(0.186511 0.0067471 9.79776e-05 0.00532248 -1.43924e-05 1.85719e-07)
(0.180933 0.00344283 9.12958e-05 0.00533487 -1.80737e-05 1.92941e-07)
(0.223582 0.0135579 0.000101444 0.00663366 -1.15867e-05 1.71726e-07)
(0.00346763 0.000981549 1.90039e-05 0.000944535 9.49787e-06 3.70714e-07)
(0.00433545 0.00194042 1.09542e-05 0.00490035 1.06708e-05 3.08306e-07)
(0.0149056 0.00783159 3.46726e-05 0.00689724 1.61848e-05 3.46805e-07)
(0.0136278 0.00589223 2.42639e-05 0.00683434 9.07955e-06 2.97705e-07)
(0.0212189 0.00839072 4.55504e-05 0.00653612 1.63984e-05 3.30044e-07)
(0.0189187 0.00567184 3.94032e-05 0.0062635 1.12136e-05 2.82739e-07)
(0.0251246 0.00739398 5.86002e-05 0.00607777 1.81328e-05 3.12387e-07)
(0.0255494 0.00523377 5.47532e-05 0.0059475 1.35577e-05 2.69624e-07)
(0.0320836 0.00675897 7.13698e-05 0.00582118 1.96708e-05 2.97716e-07)
(0.0351773 0.00514201 6.87069e-05 0.00574231 1.53929e-05 2.59153e-07)
(0.0419698 0.00651261 8.26015e-05 0.00565762 2.06796e-05 2.83734e-07)
(0.0468182 0.0053192 8.05397e-05 0.00561222 1.66164e-05 2.48466e-07)
(0.0535186 0.00651972 9.17346e-05 0.00556003 2.11543e-05 2.68641e-07)
(0.0594328 0.0056541 9.01512e-05 0.00552921 1.7257e-05 2.36471e-07)
(0.0658171 0.00665287 9.88929e-05 0.00550561 2.11251e-05 2.52455e-07)
(0.0726772 0.00617077 9.819e-05 0.00546321 1.74452e-05 2.23682e-07)
(0.0782323 0.00668237 0.000104433 0.00545508 2.05085e-05 2.36107e-07)
(0.0869026 0.00728853 0.000105815 0.00543917 1.75776e-05 2.11219e-07)
(0.0905436 0.00611903 0.000109011 0.00483007 1.85797e-05 2.21543e-07)
(0.101958 0.00942189 0.000112998 0.00558244 1.78634e-05 1.98887e-07)
(0.00311821 -0.000244199 1.66495e-05 0.000182025 -5.60161e-06 3.32091e-07)
(0.00363846 -0.00014798 1.07751e-05 0.000960372 -1.07143e-05 2.86925e-07)
(0.0149465 -0.00217744 3.049e-05 0.0019288 -1.74983e-05 3.2056e-07)
(0.0179718 -0.00232204 1.71072e-05 0.00282598 -1.58426e-05 2.78475e-07)
(0.0336571 -0.00542108 3.53569e-05 0.0034663 -2.05771e-05 3.06135e-07)
(0.0348219 -0.00540858 2.28422e-05 0.00392401 -1.67496e-05 2.63789e-07)
(0.0485325 -0.00821784 4.24738e-05 0.00418494 -2.1622e-05 2.8878e-07)
(0.0485018 -0.00784459 3.1565e-05 0.00437173 -1.74286e-05 2.49592e-07)
(0.0603385 -0.010108 5.12158e-05 0.00448837 -2.18668e-05 2.7349e-07)
(0.060308 -0.00960936 4.1854e-05 0.00459035 -1.75244e-05 2.38038e-07)
(0.0708506 -0.0114372 6.083e-05 0.00466491 -2.14259e-05 2.59405e-07)
(0.0713986 -0.0109598 5.29362e-05 0.00473407 -1.7174e-05 2.26969e-07)
(0.081014 -0.0124602 7.07164e-05 0.00479232 -2.06736e-05 2.44725e-07)
(0.0823053 -0.0120873 6.41144e-05 0.00483861 -1.66358e-05 2.15024e-07)
(0.0911959 -0.0133605 8.03927e-05 0.00489689 -1.98909e-05 2.29117e-07)
(0.0931103 -0.0131119 7.49591e-05 0.00490408 -1.59202e-05 2.02515e-07)
(0.101584 -0.0142831 8.98397e-05 0.00503332 -1.92649e-05 2.13414e-07)
(0.103661 -0.0141696 8.48354e-05 0.00492592 -1.45637e-05 1.90536e-07)
(0.112436 -0.0152694 9.99203e-05 0.00527331 -1.85649e-05 1.98189e-07)
(0.113134 -0.0169589 9.09001e-05 0.00632337 -1.30487e-05 1.78635e-07)
(0.00317434 0.000607236 1.76052e-05 0.000518765 7.73472e-06 3.52978e-07)
(0.00357293 0.000638179 1.18516e-05 0.00277494 1.05482e-05 3.02431e-07)
(0.0142267 0.00568693 3.33439e-05 0.00423212 1.61933e-05 3.37804e-07)
(0.0177995 0.0059207 1.94308e-05 0.00487474 1.07681e-05 2.90976e-07)
(0.0355839 0.0102946 3.79823e-05 0.00517825 1.70389e-05 3.21811e-07)
(0.0397038 0.00992013 2.3155e-05 0.00534485 1.20444e-05 2.76233e-07)
(0.0583994 0.0132701 4.29492e-05 0.00541977 1.83031e-05 3.04078e-07)
(0.0624511 0.0127346 2.87378e-05 0.00546055 1.36992e-05 2.62302e-07)
(0.0806227 0.0153491 4.91772e-05 0.00545284 1.93918e-05 2.88463e-07)
(0.0847509 0.014808 3.62163e-05 0.00545139 1.50488e-05 2.50804e-07)
(0.101947 0.0168915 5.68975e-05 0.00542556 2.00607e-05 2.74142e-07)
(0.106295 0.0164424 4.56439e-05 0.00541601 1.59621e-05 2.3998e-07)
(0.122383 0.0181457 6.61518e-05 0.00539399 2.03411e-05 2.59525e-07)
(0.127145 0.0178073 5.66723e-05 0.00537822 1.64508e-05 2.28389e-07)
(0.141922 0.0192317 7.66088e-05 0.00537636 2.02486e-05 2.43971e-07)
(0.147476 0.0189512 6.86375e-05 0.00532692 1.65114e-05 2.16047e-07)
(0.160049 0.0202331 8.80599e-05 0.00538079 1.97492e-05 2.28134e-07)
(0.16775 0.0199912 8.05525e-05 0.00528062 1.6229e-05 2.03956e-07)
(0.175072 0.0203403 0.000101555 0.00509036 1.86474e-05 2.13558e-07)
(0.184429 0.0218343 9.13095e-05 0.00611997 1.70363e-05 1.92315e-07)
(0.00314947 -0.00042256 1.69733e-05 0.000292328 -6.52552e-06 3.40982e-07)
(0.00350058 -0.000317546 1.15787e-05 0.0015761 -1.04202e-05 2.94999e-07)
(0.013506 -0.00378073 3.2368e-05 0.0025958 -1.6546e-05 3.28756e-07)
(0.016889 -0.00392139 1.91596e-05 0.00339937 -1.31378e-05 2.84087e-07)
(0.0345604 -0.00763202 3.67647e-05 0.00391388 -1.86803e-05 3.13531e-07)
(0.039421 -0.00753849 2.17678e-05 0.00428353 -1.44392e-05 2.69698e-07)
(0.059427 -0.0107218 4.05865e-05 0.00448871 -2.00033e-05 2.9621e-07)
(0.0652208 -0.0104783 2.55756e-05 0.00463533 -1.57341e-05 2.55717e-07)
(0.0859697 -0.0131044 4.52674e-05 0.00471621 -2.0769e-05 2.80605e-07)
(0.0926085 -0.0128457 3.10986e-05 0.00478861 -1.65216e-05 2.43973e-07)
(0.113307 -0.0150293 5.13993e-05 0.00483364 -2.09179e-05 2.66228e-07)
(0.120656 -0.014836 3.87894e-05 0.00487939 -1.67903e-05 2.32951e-07)
(0.140888 -0.0166796 5.94337e-05 0.00491437 -2.06443e-05 2.51615e-07)
(0.148901 -0.0165774 4.86871e-05 0.00493973 -1.66888e-05 2.21261e-07)
(0.168276 -0.0181662 6.93591e-05 0.004986 -2.0137e-05 2.36146e-07)
(0.176986 -0.0181495 6.02628e-05 0.00496282 -1.6244e-05 2.08953e-07)
(0.194452 -0.0196017 8.10214e-05 0.00508578 -1.95143e-05 2.20509e-07)
(0.20486 -0.0199488 7.21702e-05 0.00495813 -1.52851e-05 1.97086e-07)
(0.21629 -0.0207039 9.52189e-05 0.00511379 -1.86574e-05 2.05631e-07)
(0.229589 -0.0242719 8.31657e-05 0.00613886 -1.52703e-05 1.85519e-07)
(0.00314947 0.000422556 1.69733e-05 0.000292327 6.52552e-06 3.40982e-07)
(0.00350058 0.000317553 1.15789e-05 0.0015761 1.04202e-05 2.94999e-07)
(0.013506 0.00378073 3.23681e-05 0.0025958 1.6546e-05 3.28756e-07)
(0.0168891 0.00392139 1.91598e-05 0.00339938 1.31378e-05 2.84087e-07)
(0.0345604 0.00763201 3.67649e-05 0.00391388 1.86803e-05 3.1353e-07)
(0.0394211 0.00753856 2.17681e-05 0.00428354 1.44391e-05 2.69697e-07)
(0.0594268 0.0107218 4.05871e-05 0.00448872 2.00033e-05 2.96209e-07)
(0.0652212 0.0104784 2.55753e-05 0.00463538 1.57338e-05 2.55717e-07)
(0.085969 0.0131046 4.52679e-05 0.00471626 2.07689e-05 2.80604e-07)
(0.0926097 0.0128465 3.10983e-05 0.00478873 1.6521e-05 2.43973e-07)
(0.113305 0.01503 5.14e-05 0.00483379 2.09176e-05 2.66227e-07)
(0.120659 0.0148385 3.87848e-05 0.00487983 1.67891e-05 2.32953e-07)
(0.140884 0.0166817 5.94353e-05 0.00491473 2.06436e-05 2.51615e-07)
(0.14891 0.0165862 4.86805e-05 0.0049412 1.66854e-05 2.21261e-07)
(0.168267 0.0181722 6.9364e-05 0.0049869 2.01357e-05 2.36143e-07)
(0.177011 0.018174 6.02416e-05 0.00496734 1.62374e-05 2.08943e-07)
(0.194436 0.0196231 8.10306e-05 0.00508889 1.95118e-05 2.20518e-07)
(0.204945 0.0200076 7.21305e-05 0.00496999 1.52783e-05 1.9706e-07)
(0.216332 0.0207707 9.52611e-05 0.00512446 1.86594e-05 2.05679e-07)
(0.22969 0.0244025 8.31011e-05 0.00617175 1.52742e-05 1.85475e-07)
(0.00317434 -0.000607239 1.76053e-05 0.000518767 -7.73472e-06 3.52978e-07)
(0.00357293 -0.000638175 1.18514e-05 0.00277494 -1.05482e-05 3.0243e-07)
(0.0142267 -0.00568693 3.33443e-05 0.00423213 -1.61932e-05 3.37804e-07)
(0.0177995 -0.00592069 1.9431e-05 0.00487473 -1.07681e-05 2.90975e-07)
(0.0355839 -0.0102946 3.79826e-05 0.00517826 -1.70388e-05 3.21811e-07)
(0.0397039 -0.00992006 2.31553e-05 0.00534482 -1.20446e-05 2.76233e-07)
(0.0583994 -0.0132702 4.29504e-05 0.00541976 -1.83031e-05 3.04079e-07)
(0.0624512 -0.0127344 2.87402e-05 0.00546045 -1.36995e-05 2.62302e-07)
(0.0806229 -0.015349 4.91784e-05 0.00545279 -1.93918e-05 2.88464e-07)
(0.0847514 -0.0148073 3.62177e-05 0.00545115 -1.50495e-05 2.50804e-07)
(0.101948 -0.0168911 5.68987e-05 0.00542541 -2.00608e-05 2.74144e-07)
(0.106297 -0.0164402 4.56496e-05 0.00541529 -1.59634e-05 2.39978e-07)
(0.122387 -0.0181446 6.61501e-05 0.00539365 -2.03417e-05 2.59524e-07)
(0.127148 -0.0177999 5.66775e-05 0.00537606 -1.6454e-05 2.28391e-07)
(0.141937 -0.019229 7.66025e-05 0.00537562 -2.02497e-05 2.43971e-07)
(0.147481 -0.0189319 6.8656e-05 0.00532127 -1.65173e-05 2.16059e-07)
(0.160098 -0.0202238 8.80445e-05 0.00537839 -1.97517e-05 2.2812e-07)
(0.167745 -0.0199519 8.05748e-05 0.00526969 -1.6234e-05 2.03984e-07)
(0.175171 -0.0203103 0.000101512 0.00508215 -1.86451e-05 2.13506e-07)
(0.184485 -0.0217374 9.1314e-05 0.00609477 -1.70322e-05 1.92351e-07)
(0.00311821 0.000244197 1.66497e-05 0.000182025 5.60161e-06 3.32091e-07)
(0.00363846 0.000147986 1.07753e-05 0.00096037 1.07143e-05 2.86925e-07)
(0.0149464 0.00217744 3.04905e-05 0.0019288 1.74983e-05 3.2056e-07)
(0.0179719 0.00232204 1.71077e-05 0.00282599 1.58426e-05 2.78475e-07)
(0.033657 0.00542108 3.53576e-05 0.0034663 2.05771e-05 3.06135e-07)
(0.0348222 0.00540863 2.28429e-05 0.00392401 1.67495e-05 2.63788e-07)
(0.0485321 0.00821786 4.24757e-05 0.00418495 2.1622e-05 2.8878e-07)
(0.0485025 0.00784466 3.15664e-05 0.00437175 1.74284e-05 2.49592e-07)
(0.0603377 0.0101082 5.12176e-05 0.00448841 2.18667e-05 2.7349e-07)
(0.0603102 0.00960975 4.18543e-05 0.00459037 1.7524e-05 2.38038e-07)
(0.0708488 0.0114376 6.08316e-05 0.00466504 2.14255e-05 2.59404e-07)
(0.0714043 0.0109609 5.29337e-05 0.00473422 1.7173e-05 2.26971e-07)
(0.0810114 0.0124614 7.07172e-05 0.00479268 2.0673e-05 2.44723e-07)
(0.0823199 0.0120913 6.41108e-05 0.00483928 1.66328e-05 2.15026e-07)
(0.0911936 0.0133636 8.03905e-05 0.00489788 1.98902e-05 2.2911e-07)
(0.0931464 0.0131229 7.49461e-05 0.00490676 1.59142e-05 2.02509e-07)
(0.101591 0.0142933 8.98315e-05 0.00503673 1.9264e-05 2.1341e-07)
(0.103754 0.0142014 8.48084e-05 0.00493588 1.45593e-05 1.90518e-07)
(0.112498 0.0153046 9.99351e-05 0.00528473 1.85683e-05 1.98216e-07)
(0.113346 0.0170378 9.08517e-05 0.00635692 1.30573e-05 1.78614e-07)
(0.00346763 -0.000981551 1.90042e-05 0.000944537 -9.49786e-06 3.70714e-07)
(0.00433546 -0.00194041 1.09541e-05 0.00490036 -1.06709e-05 3.08306e-07)
(0.0149056 -0.00783159 3.46734e-05 0.00689725 -1.61848e-05 3.46805e-07)
(0.0136278 -0.00589224 2.42645e-05 0.00683433 -9.0796e-06 2.97705e-07)
(0.0212189 -0.00839071 4.55513e-05 0.00653614 -1.63983e-05 3.30044e-07)