/*--------------------------------*- C++ -*----------------------------------*\
  =========                 |
  \\      /  F ield         | OpenFOAM: The Open Source CFD Toolbox
   \\    /   O peration     | Website:  https://openfoam.org
    \\  /    A nd           | Version:  7
     \\/     M anipulation  |
\*---------------------------------------------------------------------------*/
FoamFile
{
    version     2.0;
    format      ascii;
    class       volScalarField;
    location    "1.65";
    object      nut;
}
// * * * * * * * * * * * * * * * * * * * * * * * * * * * * * * * * * * * * * //

dimensions      [0 2 -1 0 0 0 0];

internalField   nonuniform List<scalar> 
600
(
0.00619924
0.00623274
0.00544711
0.00516075
0.00498995
0.00486954
0.00476937
0.00472403
0.0046457
0.00466323
0.00390494
0.00529471
0.00536621
0.00528998
0.00518587
0.00511081
0.00503311
0.00500267
0.00493726
0.00494072
0.00159184
0.00321711
0.00394239
0.00417628
0.00426782
0.00431363
0.00431623
0.00432883
0.00431794
0.00432944
0.000487978
0.00130945
0.00213359
0.00258718
0.00288187
0.00310377
0.00323431
0.00334759
0.00341474
0.00346365
0.00012127
0.000390217
0.000728506
0.0011214
0.00142481
0.00171529
0.00193635
0.00212473
0.00229528
0.00238862
3.51932e-05
8.82697e-05
0.000164328
0.000276029
0.000437564
0.000582292
0.000804674
0.000937226
0.00115709
0.00126592
3.51584e-05
8.82582e-05
0.000165903
0.000275836
0.000440975
0.000581949
0.000806818
0.000935242
0.00115629
0.00125961
0.000121066
0.000390141
0.000738918
0.0011121
0.00143251
0.00170664
0.00194251
0.0021166
0.00229568
0.00238136
0.000487354
0.00130953
0.0021333
0.00258597
0.00288284
0.00310126
0.00323626
0.00334364
0.00341438
0.0034588
0.00159034
0.00321766
0.00394149
0.00417699
0.0042665
0.00431457
0.00431574
0.00432847
0.00431665
0.00432883
0.00390449
0.00529515
0.00536577
0.00529126
0.005184
0.00511363
0.00503065
0.005005
0.00493751
0.0049471
0.00619915
0.00623315
0.0054467
0.00516196
0.00498874
0.00487179
0.00476769
0.00472839
0.00464631
0.0046725
0.0113953
0.0122753
0.0122553
0.0123656
0.0123985
0.0124285
0.0124563
0.0124813
0.0125045
0.0125261
0.0125463
0.012565
0.0125824
0.0125983
0.0126129
0.0126263
0.0126387
0.0126504
0.0126617
0.0126726
0.0126834
0.0126941
0.0127048
0.0127154
0.012726
0.0127367
0.0127472
0.0127578
0.0127684
0.012779
0.0127894
0.0128001
0.0128103
0.0128213
0.012831
0.0128428
0.0128512
0.012865
0.0128705
0.0128888
0.0133578
0.0145698
0.0146368
0.014737
0.0147805
0.0148151
0.0148478
0.0148775
0.0149051
0.0149307
0.0149546
0.0149769
0.0149975
0.0150166
0.0150341
0.0150503
0.0150653
0.0150795
0.0150931
0.0151063
0.0151192
0.015132
0.0151448
0.0151575
0.0151702
0.015183
0.0151956
0.0152084
0.015221
0.0152338
0.0152463
0.0152592
0.0152714
0.0152847
0.0152963
0.0153106
0.0153206
0.0153375
0.0153442
0.0153661
0.0124218
0.0138329
0.0139816
0.0140591
0.014101
0.0141327
0.0141629
0.0141907
0.0142166
0.0142407
0.0142632
0.0142842
0.0143037
0.0143219
0.0143387
0.0143544
0.014369
0.0143828
0.014396
0.0144088
0.0144212
0.0144336
0.0144458
0.014458
0.0144701
0.0144823
0.0144945
0.0145066
0.0145188
0.014531
0.014543
0.0145554
0.0145672
0.01458
0.0145911
0.014605
0.0146144
0.0146308
0.0146374
0.0146582
0.0105909
0.012224
0.0124664
0.0125329
0.0125699
0.0125968
0.0126225
0.0126465
0.0126689
0.0126897
0.0127092
0.0127274
0.0127444
0.0127604
0.0127754
0.0127896
0.0128028
0.0128154
0.0128274
0.0128389
0.0128501
0.0128612
0.0128722
0.0128831
0.012894
0.0129049
0.0129157
0.0129267
0.0129375
0.0129485
0.0129593
0.0129704
0.012981
0.0129925
0.0130025
0.013015
0.0130234
0.0130383
0.0130443
0.0130627
0.00822449
0.0102053
0.0106001
0.0106892
0.0107262
0.0107493
0.0107702
0.0107899
0.0108083
0.0108254
0.0108415
0.0108565
0.0108707
0.0108841
0.0108968
0.0109089
0.0109204
0.0109313
0.0109418
0.0109518
0.0109615
0.010971
0.0109805
0.0109898
0.0109992
0.0110086
0.0110179
0.0110274
0.0110367
0.0110462
0.0110554
0.011065
0.011074
0.011084
0.0110925
0.0111035
0.0111105
0.0111235
0.0111289
0.0111445
0.00580402
0.00842395
0.00906016
0.00920999
0.00925765
0.00928098
0.00929962
0.00931687
0.00933308
0.00934832
0.00936258
0.00937593
0.0093885
0.00940045
0.0094118
0.00942255
0.00943272
0.00944235
0.00945154
0.00946037
0.00946894
0.00947732
0.00948557
0.00949376
0.0095019
0.00951004
0.00951814
0.00952628
0.00953435
0.00954259
0.00955066
0.00955912
0.00956703
0.00957586
0.00958315
0.00959287
0.00959874
0.00961012
0.009615
0.00962826
0.00581649
0.00843178
0.0090779
0.00922862
0.00927869
0.00930414
0.00932469
0.00934371
0.00936154
0.00937825
0.00939387
0.00940844
0.00942207
0.00943489
0.00944689
0.00945809
0.00946855
0.00947836
0.00948764
0.00949651
0.0095051
0.00951349
0.00952174
0.00952994
0.00953809
0.00954624
0.00955434
0.00956247
0.00957055
0.00957879
0.00958686
0.00959531
0.00960323
0.00961206
0.00961935
0.00962906
0.00963495
0.00964634
0.00965121
0.00966449
0.00824614
0.0102218
0.0106308
0.0107181
0.0107572
0.0107823
0.0108051
0.0108267
0.0108468
0.0108657
0.0108832
0.0108996
0.010915
0.0109293
0.0109427
0.0109553
0.0109671
0.0109781
0.0109886
0.0109987
0.0110084
0.011018
0.0110274
0.0110368
0.0110462
0.0110556
0.0110649
0.0110744
0.0110837
0.0110932
0.0111024
0.011112
0.011121
0.011131
0.0111395
0.0111504
0.0111575
0.0111705
0.0111759
0.0111916
0.0106106
0.0122437
0.0124829
0.0125412
0.0125748
0.0125991
0.0126228
0.0126454
0.0126665
0.0126863
0.0127049
0.0127223
0.0127386
0.0127539
0.0127684
0.0127821
0.0127951
0.0128074
0.0128193
0.0128308
0.012842
0.0128531
0.012864
0.012875
0.0128859
0.0128968
0.0129077
0.0129186
0.0129294
0.0129404
0.0129512
0.0129623
0.0129729
0.0129844
0.0129944
0.0130069
0.0130153
0.0130302
0.0130362
0.0130546
0.0124346
0.0138419
0.0139696
0.0140327
0.014065
0.0140889
0.0141128
0.0141353
0.0141564
0.0141762
0.0141948
0.0142123
0.0142287
0.0142443
0.0142592
0.0142734
0.0142871
0.0143004
0.0143133
0.0143259
0.0143383
0.0143506
0.0143628
0.014375
0.0143871
0.0143993
0.0144114
0.0144236
0.0144357
0.014448
0.01446
0.0144724
0.0144842
0.014497
0.0145081
0.0145219
0.0145314
0.0145478
0.0145543
0.0145751
0.0133539
0.0145542
0.014589
0.0146707
0.0147001
0.014723
0.0147458
0.0147668
0.0147866
0.0148053
0.0148227
0.0148392
0.0148547
0.0148696
0.0148839
0.0148978
0.0149113
0.0149246
0.0149377
0.0149507
0.0149635
0.0149763
0.014989
0.0150017
0.0150144
0.0150271
0.0150398
0.0150525
0.0150652
0.0150779
0.0150904
0.0151033
0.0151156
0.0151288
0.0151404
0.0151547
0.0151647
0.0151816
0.0151883
0.0152101
0.0113599
0.0122238
0.0121729
0.0122659
0.0122837
0.0123011
0.0123178
0.0123329
0.0123472
0.0123606
0.0123732
0.0123852
0.0123965
0.0124075
0.0124182
0.0124288
0.0124393
0.0124499
0.0124605
0.0124711
0.0124817
0.0124923
0.0125029
0.0125135
0.0125241
0.0125347
0.0125452
0.0125558
0.0125663
0.0125769
0.0125874
0.0125981
0.0126083
0.0126193
0.0126289
0.0126407
0.012649
0.0126628
0.0126683
0.0126866
)
;

boundaryField
{
    upperWall
    {
        type            zeroGradient;
    }
    lowerWall
    {
        type            zeroGradient;
    }
    heatedWall
    {
        type            zeroGradient;
    }
    inlet
    {
        type            zeroGradient;
    }
    outlet
    {
        type            zeroGradient;
    }
    frontAndBack
    {
        type            empty;
    }
}


// ************************************************************************* //
