/*--------------------------------*- C++ -*----------------------------------*\
  =========                 |
  \\      /  F ield         | OpenFOAM: The Open Source CFD Toolbox
   \\    /   O peration     | Website:  https://openfoam.org
    \\  /    A nd           | Version:  7
     \\/     M anipulation  |
\*---------------------------------------------------------------------------*/
FoamFile
{
    version     2.0;
    format      ascii;
    class       volScalarField;
    location    "0.085";
    object      pPrime2Mean;
}
// * * * * * * * * * * * * * * * * * * * * * * * * * * * * * * * * * * * * * //

dimensions      [2 -2 -4 0 0 0 0];

internalField   nonuniform List<scalar> 
1600
(
1.11213e+08
1.10827e+08
1.10282e+08
1.09715e+08
1.09217e+08
1.08822e+08
1.08485e+08
1.08206e+08
1.0796e+08
1.07753e+08
1.07592e+08
1.07449e+08
1.07335e+08
1.07255e+08
1.07195e+08
1.07134e+08
1.07073e+08
1.07016e+08
1.06979e+08
1.0694e+08
1.06899e+08
1.06862e+08
1.06869e+08
1.06914e+08
1.06989e+08
1.07049e+08
1.07089e+08
1.07113e+08
1.07134e+08
1.07138e+08
1.07124e+08
1.07108e+08
1.0711e+08
1.0713e+08
1.07116e+08
1.07072e+08
1.07036e+08
1.06995e+08
1.06957e+08
1.06933e+08
1.10792e+08
1.10336e+08
1.0979e+08
1.09243e+08
1.08796e+08
1.08459e+08
1.08194e+08
1.07957e+08
1.07749e+08
1.07583e+08
1.07453e+08
1.07331e+08
1.07233e+08
1.0716e+08
1.071e+08
1.07044e+08
1.06982e+08
1.06923e+08
1.06887e+08
1.0686e+08
1.0681e+08
1.06775e+08
1.06792e+08
1.06841e+08
1.06914e+08
1.06972e+08
1.06992e+08
1.07024e+08
1.07069e+08
1.07096e+08
1.07084e+08
1.07061e+08
1.07036e+08
1.07046e+08
1.0704e+08
1.07005e+08
1.06967e+08
1.06919e+08
1.06884e+08
1.06863e+08
1.10278e+08
1.09807e+08
1.09282e+08
1.08778e+08
1.08367e+08
1.08068e+08
1.07862e+08
1.07666e+08
1.07509e+08
1.07403e+08
1.07303e+08
1.07194e+08
1.07106e+08
1.07024e+08
1.0696e+08
1.06902e+08
1.06835e+08
1.06766e+08
1.06718e+08
1.06692e+08
1.06649e+08
1.06635e+08
1.06681e+08
1.06755e+08
1.06826e+08
1.06877e+08
1.06902e+08
1.06938e+08
1.06991e+08
1.07004e+08
1.06989e+08
1.06963e+08
1.06944e+08
1.0694e+08
1.06935e+08
1.06911e+08
1.06869e+08
1.06827e+08
1.06804e+08
1.06794e+08
1.09773e+08
1.09331e+08
1.08835e+08
1.08361e+08
1.07987e+08
1.07732e+08
1.07586e+08
1.07448e+08
1.07322e+08
1.07237e+08
1.07149e+08
1.07059e+08
1.06982e+08
1.06898e+08
1.06828e+08
1.06739e+08
1.06636e+08
1.06562e+08
1.06519e+08
1.06488e+08
1.06455e+08
1.06477e+08
1.06542e+08
1.0662e+08
1.06681e+08
1.06743e+08
1.06786e+08
1.06831e+08
1.06882e+08
1.06883e+08
1.06869e+08
1.06848e+08
1.06841e+08
1.06844e+08
1.06838e+08
1.06814e+08
1.06784e+08
1.06762e+08
1.06761e+08
1.06765e+08
1.09259e+08
1.08873e+08
1.08444e+08
1.08027e+08
1.07729e+08
1.07536e+08
1.07404e+08
1.07284e+08
1.07169e+08
1.07087e+08
1.0702e+08
1.06951e+08
1.06865e+08
1.06773e+08
1.06695e+08
1.0659e+08
1.06465e+08
1.06378e+08
1.06331e+08
1.06297e+08
1.06279e+08
1.06323e+08
1.06395e+08
1.06463e+08
1.06521e+08
1.06587e+08
1.06626e+08
1.0668e+08
1.06739e+08
1.0676e+08
1.06765e+08
1.06758e+08
1.0676e+08
1.06772e+08
1.06778e+08
1.06759e+08
1.06744e+08
1.06736e+08
1.06749e+08
1.06755e+08
1.08808e+08
1.08496e+08
1.08126e+08
1.07773e+08
1.07537e+08
1.0738e+08
1.07251e+08
1.07142e+08
1.0705e+08
1.06982e+08
1.06928e+08
1.06866e+08
1.06757e+08
1.06647e+08
1.06549e+08
1.06438e+08
1.06312e+08
1.06228e+08
1.06166e+08
1.06129e+08
1.06128e+08
1.06167e+08
1.06236e+08
1.06298e+08
1.06354e+08
1.06413e+08
1.06451e+08
1.06507e+08
1.06576e+08
1.06622e+08
1.06659e+08
1.06685e+08
1.06707e+08
1.06732e+08
1.06744e+08
1.0674e+08
1.06742e+08
1.06747e+08
1.06761e+08
1.06755e+08
1.0847e+08
1.08209e+08
1.07884e+08
1.07589e+08
1.07384e+08
1.07245e+08
1.07131e+08
1.07045e+08
1.06973e+08
1.06914e+08
1.06863e+08
1.06789e+08
1.06652e+08
1.06512e+08
1.06396e+08
1.06285e+08
1.06168e+08
1.0608e+08
1.06014e+08
1.05973e+08
1.05981e+08
1.06009e+08
1.06058e+08
1.06107e+08
1.06171e+08
1.06241e+08
1.06302e+08
1.06365e+08
1.06443e+08
1.06517e+08
1.06579e+08
1.06625e+08
1.06654e+08
1.06689e+08
1.06715e+08
1.06734e+08
1.06751e+08
1.06762e+08
1.06772e+08
1.06758e+08
1.08237e+08
1.08e+08
1.07713e+08
1.07467e+08
1.07276e+08
1.07144e+08
1.07054e+08
1.06984e+08
1.06917e+08
1.06854e+08
1.06796e+08
1.06706e+08
1.06549e+08
1.06389e+08
1.06258e+08
1.06135e+08
1.06018e+08
1.05923e+08
1.05854e+08
1.05821e+08
1.05827e+08
1.05851e+08
1.05874e+08
1.05915e+08
1.05988e+08
1.06081e+08
1.06173e+08
1.06253e+08
1.06341e+08
1.06431e+08
1.06504e+08
1.06563e+08
1.06594e+08
1.0663e+08
1.06672e+08
1.06715e+08
1.06748e+08
1.06767e+08
1.06771e+08
1.06746e+08
1.08075e+08
1.07839e+08
1.07576e+08
1.07367e+08
1.07192e+08
1.0707e+08
1.0699e+08
1.0693e+08
1.06866e+08
1.06782e+08
1.06713e+08
1.06613e+08
1.06458e+08
1.06292e+08
1.06138e+08
1.05993e+08
1.05865e+08
1.05768e+08
1.05693e+08
1.05666e+08
1.05672e+08
1.05687e+08
1.05702e+08
1.05744e+08
1.05824e+08
1.05936e+08
1.06056e+08
1.06156e+08
1.06252e+08
1.06347e+08
1.06426e+08
1.06482e+08
1.06528e+08
1.06576e+08
1.06633e+08
1.0669e+08
1.0674e+08
1.06771e+08
1.06771e+08
1.06739e+08
1.07941e+08
1.07719e+08
1.07481e+08
1.07283e+08
1.07119e+08
1.07013e+08
1.06936e+08
1.06864e+08
1.06785e+08
1.06699e+08
1.06618e+08
1.06514e+08
1.06369e+08
1.06199e+08
1.06021e+08
1.0586e+08
1.05729e+08
1.05624e+08
1.05546e+08
1.05521e+08
1.05522e+08
1.0553e+08
1.05548e+08
1.05589e+08
1.05677e+08
1.05801e+08
1.05935e+08
1.06052e+08
1.06156e+08
1.06253e+08
1.06344e+08
1.06418e+08
1.06479e+08
1.06543e+08
1.06619e+08
1.06688e+08
1.06743e+08
1.06781e+08
1.0678e+08
1.06746e+08
1.07824e+08
1.07619e+08
1.07403e+08
1.07216e+08
1.07065e+08
1.06961e+08
1.06874e+08
1.06794e+08
1.06708e+08
1.06619e+08
1.0652e+08
1.06405e+08
1.0626e+08
1.06093e+08
1.0591e+08
1.05741e+08
1.05596e+08
1.05488e+08
1.05412e+08
1.05387e+08
1.05373e+08
1.05369e+08
1.05387e+08
1.05441e+08
1.05535e+08
1.05661e+08
1.05804e+08
1.05946e+08
1.06068e+08
1.0618e+08
1.06285e+08
1.0638e+08
1.06451e+08
1.06523e+08
1.0661e+08
1.06688e+08
1.06742e+08
1.06773e+08
1.0677e+08
1.06734e+08
1.07691e+08
1.07524e+08
1.07331e+08
1.0716e+08
1.07015e+08
1.069e+08
1.06809e+08
1.06725e+08
1.06636e+08
1.06532e+08
1.06416e+08
1.06287e+08
1.06141e+08
1.05973e+08
1.05789e+08
1.05611e+08
1.05463e+08
1.05357e+08
1.05281e+08
1.05239e+08
1.05221e+08
1.05219e+08
1.05246e+08
1.05314e+08
1.05412e+08
1.05543e+08
1.05696e+08
1.05851e+08
1.05989e+08
1.06114e+08
1.06223e+08
1.06338e+08
1.06427e+08
1.06504e+08
1.06587e+08
1.06658e+08
1.06705e+08
1.06726e+08
1.06718e+08
1.0669e+08
1.07569e+08
1.07435e+08
1.07257e+08
1.07098e+08
1.06956e+08
1.0684e+08
1.06748e+08
1.06658e+08
1.06548e+08
1.0642e+08
1.06292e+08
1.06159e+08
1.06008e+08
1.05827e+08
1.05646e+08
1.05478e+08
1.05343e+08
1.05233e+08
1.05149e+08
1.0509e+08
1.05071e+08
1.0508e+08
1.05119e+08
1.05197e+08
1.05305e+08
1.05443e+08
1.0561e+08
1.05776e+08
1.05921e+08
1.06058e+08
1.06175e+08
1.06294e+08
1.06397e+08
1.0648e+08
1.06554e+08
1.06613e+08
1.06648e+08
1.0666e+08
1.06644e+08
1.06616e+08
1.07493e+08
1.07357e+08
1.07187e+08
1.07035e+08
1.06903e+08
1.06789e+08
1.06678e+08
1.06569e+08
1.06437e+08
1.06295e+08
1.06152e+08
1.06002e+08
1.05846e+08
1.05676e+08
1.05508e+08
1.05348e+08
1.05212e+08
1.05098e+08
1.05011e+08
1.04947e+08
1.0492e+08
1.04941e+08
1.04998e+08
1.05095e+08
1.05222e+08
1.05373e+08
1.05544e+08
1.05714e+08
1.05868e+08
1.06012e+08
1.06138e+08
1.06254e+08
1.06361e+08
1.06455e+08
1.06522e+08
1.06573e+08
1.06595e+08
1.06595e+08
1.0657e+08
1.0654e+08
1.07434e+08
1.07296e+08
1.07121e+08
1.06957e+08
1.06829e+08
1.06714e+08
1.06601e+08
1.06479e+08
1.06327e+08
1.06167e+08
1.06012e+08
1.05852e+08
1.05692e+08
1.05533e+08
1.0537e+08
1.05211e+08
1.05071e+08
1.04954e+08
1.04872e+08
1.0482e+08
1.048e+08
1.04835e+08
1.04913e+08
1.05027e+08
1.05166e+08
1.05319e+08
1.05487e+08
1.05658e+08
1.05817e+08
1.05963e+08
1.06095e+08
1.06214e+08
1.06319e+08
1.06416e+08
1.06484e+08
1.0653e+08
1.06541e+08
1.06523e+08
1.06497e+08
1.06472e+08
1.07358e+08
1.07218e+08
1.07052e+08
1.06887e+08
1.06763e+08
1.06651e+08
1.06532e+08
1.06393e+08
1.06224e+08
1.06054e+08
1.05892e+08
1.05731e+08
1.05563e+08
1.05394e+08
1.05227e+08
1.05065e+08
1.04925e+08
1.04819e+08
1.0475e+08
1.04709e+08
1.04706e+08
1.04752e+08
1.04842e+08
1.04972e+08
1.05115e+08
1.05271e+08
1.05438e+08
1.05602e+08
1.05761e+08
1.05905e+08
1.06032e+08
1.06159e+08
1.06274e+08
1.06363e+08
1.06423e+08
1.06465e+08
1.06481e+08
1.06456e+08
1.06421e+08
1.06396e+08
1.07266e+08
1.07134e+08
1.06974e+08
1.06822e+08
1.06708e+08
1.06603e+08
1.06481e+08
1.0634e+08
1.06171e+08
1.05989e+08
1.05801e+08
1.05625e+08
1.05453e+08
1.05277e+08
1.05109e+08
1.04952e+08
1.04815e+08
1.04709e+08
1.04642e+08
1.04622e+08
1.04646e+08
1.04699e+08
1.0479e+08
1.04926e+08
1.0508e+08
1.05238e+08
1.05405e+08
1.05568e+08
1.05718e+08
1.05851e+08
1.05976e+08
1.06105e+08
1.06228e+08
1.06316e+08
1.0637e+08
1.064e+08
1.06417e+08
1.06397e+08
1.06354e+08
1.06324e+08
1.07184e+08
1.07063e+08
1.06906e+08
1.06764e+08
1.06664e+08
1.06572e+08
1.06454e+08
1.06318e+08
1.06154e+08
1.05963e+08
1.05751e+08
1.05553e+08
1.0538e+08
1.05208e+08
1.05044e+08
1.04893e+08
1.04757e+08
1.04647e+08
1.04584e+08
1.04583e+08
1.0462e+08
1.04679e+08
1.04774e+08
1.04914e+08
1.05071e+08
1.05227e+08
1.05386e+08
1.05541e+08
1.05689e+08
1.05826e+08
1.0595e+08
1.06067e+08
1.0618e+08
1.06268e+08
1.06328e+08
1.06355e+08
1.06363e+08
1.06347e+08
1.06301e+08
1.06267e+08
1.07135e+08
1.07009e+08
1.06852e+08
1.06715e+08
1.06615e+08
1.06524e+08
1.06419e+08
1.06296e+08
1.06142e+08
1.05947e+08
1.05737e+08
1.05533e+08
1.05355e+08
1.05188e+08
1.05033e+08
1.04892e+08
1.04756e+08
1.04649e+08
1.04594e+08
1.04598e+08
1.0464e+08
1.04707e+08
1.04805e+08
1.04938e+08
1.05085e+08
1.05235e+08
1.05388e+08
1.05535e+08
1.05681e+08
1.05823e+08
1.05945e+08
1.06058e+08
1.06153e+08
1.06231e+08
1.06288e+08
1.06318e+08
1.06325e+08
1.06311e+08
1.06266e+08
1.06229e+08
1.07096e+08
1.06967e+08
1.06814e+08
1.06673e+08
1.06565e+08
1.06473e+08
1.06375e+08
1.06269e+08
1.0613e+08
1.05953e+08
1.05765e+08
1.05561e+08
1.05371e+08
1.05208e+08
1.05064e+08
1.04927e+08
1.04795e+08
1.04697e+08
1.0465e+08
1.04654e+08
1.04696e+08
1.0477e+08
1.04866e+08
1.04989e+08
1.05129e+08
1.0527e+08
1.05412e+08
1.05551e+08
1.05691e+08
1.05831e+08
1.05958e+08
1.06074e+08
1.06155e+08
1.06216e+08
1.06264e+08
1.06289e+08
1.06299e+08
1.06292e+08
1.06258e+08
1.06221e+08
1.07051e+08
1.06941e+08
1.06809e+08
1.06663e+08
1.06553e+08
1.06467e+08
1.06375e+08
1.06263e+08
1.06133e+08
1.05979e+08
1.05806e+08
1.05611e+08
1.05425e+08
1.05268e+08
1.05131e+08
1.05001e+08
1.04881e+08
1.04792e+08
1.04742e+08
1.04738e+08
1.04766e+08
1.04837e+08
1.04939e+08
1.05055e+08
1.05182e+08
1.05313e+08
1.05442e+08
1.05572e+08
1.05709e+08
1.05849e+08
1.05981e+08
1.06092e+08
1.06167e+08
1.0622e+08
1.06256e+08
1.06287e+08
1.06302e+08
1.06298e+08
1.06275e+08
1.06239e+08
1.07032e+08
1.0694e+08
1.06823e+08
1.06688e+08
1.06595e+08
1.06505e+08
1.06425e+08
1.06313e+08
1.06183e+08
1.06028e+08
1.05863e+08
1.05685e+08
1.05508e+08
1.05352e+08
1.05223e+08
1.05105e+08
1.05002e+08
1.04921e+08
1.04869e+08
1.04845e+08
1.04863e+08
1.04922e+08
1.05018e+08
1.05126e+08
1.05242e+08
1.05358e+08
1.05477e+08
1.05604e+08
1.05736e+08
1.05869e+08
1.05996e+08
1.061e+08
1.06186e+08
1.06241e+08
1.06268e+08
1.06296e+08
1.06313e+08
1.06312e+08
1.06291e+08
1.06262e+08
1.07069e+08
1.06977e+08
1.0688e+08
1.06765e+08
1.06668e+08
1.06569e+08
1.06478e+08
1.0636e+08
1.06232e+08
1.06095e+08
1.05944e+08
1.05778e+08
1.05611e+08
1.0546e+08
1.05336e+08
1.05228e+08
1.05142e+08
1.05069e+08
1.05013e+08
1.04976e+08
1.0498e+08
1.0502e+08
1.051e+08
1.052e+08
1.05302e+08
1.05404e+08
1.05514e+08
1.05637e+08
1.0576e+08
1.05883e+08
1.06003e+08
1.06102e+08
1.06195e+08
1.06259e+08
1.06289e+08
1.06308e+08
1.06315e+08
1.06305e+08
1.06273e+08
1.06244e+08
1.07132e+08
1.07052e+08
1.06966e+08
1.06871e+08
1.06767e+08
1.0665e+08
1.06528e+08
1.06404e+08
1.06286e+08
1.06177e+08
1.06049e+08
1.05894e+08
1.05737e+08
1.05592e+08
1.05466e+08
1.05363e+08
1.0529e+08
1.05228e+08
1.05167e+08
1.05125e+08
1.05116e+08
1.0514e+08
1.05198e+08
1.05276e+08
1.05366e+08
1.05467e+08
1.05568e+08
1.05681e+08
1.05799e+08
1.05918e+08
1.06028e+08
1.06125e+08
1.06212e+08
1.0628e+08
1.0631e+08
1.06319e+08
1.06311e+08
1.06282e+08
1.06235e+08
1.06197e+08
1.0721e+08
1.07133e+08
1.07047e+08
1.06967e+08
1.06872e+08
1.06747e+08
1.06608e+08
1.06483e+08
1.06374e+08
1.06275e+08
1.06167e+08
1.06033e+08
1.05879e+08
1.05734e+08
1.05607e+08
1.05515e+08
1.05454e+08
1.05403e+08
1.05343e+08
1.05292e+08
1.05267e+08
1.05276e+08
1.05322e+08
1.05385e+08
1.05457e+08
1.05545e+08
1.05644e+08
1.05748e+08
1.05853e+08
1.05965e+08
1.06075e+08
1.06171e+08
1.0625e+08
1.06311e+08
1.06333e+08
1.06326e+08
1.06298e+08
1.06247e+08
1.06189e+08
1.06152e+08
1.07309e+08
1.07223e+08
1.07112e+08
1.07037e+08
1.06958e+08
1.06855e+08
1.06721e+08
1.06594e+08
1.06483e+08
1.06378e+08
1.0628e+08
1.06156e+08
1.06013e+08
1.05874e+08
1.05759e+08
1.05682e+08
1.05629e+08
1.05581e+08
1.05526e+08
1.05474e+08
1.0544e+08
1.0543e+08
1.05455e+08
1.055e+08
1.05555e+08
1.05634e+08
1.05733e+08
1.0583e+08
1.0593e+08
1.06031e+08
1.06135e+08
1.06223e+08
1.06295e+08
1.06339e+08
1.06348e+08
1.0632e+08
1.06268e+08
1.06204e+08
1.06144e+08
1.06107e+08
1.07436e+08
1.07333e+08
1.07211e+08
1.07107e+08
1.0703e+08
1.06943e+08
1.06821e+08
1.06703e+08
1.06582e+08
1.06468e+08
1.06369e+08
1.06257e+08
1.06133e+08
1.06021e+08
1.05926e+08
1.05861e+08
1.0581e+08
1.05762e+08
1.05711e+08
1.05658e+08
1.05615e+08
1.05593e+08
1.05592e+08
1.05618e+08
1.05665e+08
1.05734e+08
1.0582e+08
1.05912e+08
1.06014e+08
1.0611e+08
1.06197e+08
1.06267e+08
1.06326e+08
1.06351e+08
1.06343e+08
1.06307e+08
1.06243e+08
1.06163e+08
1.06093e+08
1.06038e+08
1.07585e+08
1.07458e+08
1.07332e+08
1.07193e+08
1.07092e+08
1.07008e+08
1.06889e+08
1.06773e+08
1.06655e+08
1.06549e+08
1.06455e+08
1.06353e+08
1.06248e+08
1.0616e+08
1.06083e+08
1.06027e+08
1.05988e+08
1.05939e+08
1.05889e+08
1.0583e+08
1.05779e+08
1.05747e+08
1.05728e+08
1.05744e+08
1.05781e+08
1.05838e+08
1.0591e+08
1.05995e+08
1.06088e+08
1.06168e+08
1.06235e+08
1.06302e+08
1.06352e+08
1.0636e+08
1.06339e+08
1.06296e+08
1.06218e+08
1.06125e+08
1.06043e+08
1.05979e+08
1.07785e+08
1.07624e+08
1.07466e+08
1.07302e+08
1.07167e+08
1.07068e+08
1.06949e+08
1.0683e+08
1.06723e+08
1.06626e+08
1.06542e+08
1.0645e+08
1.06357e+08
1.06276e+08
1.06213e+08
1.06174e+08
1.06142e+08
1.06102e+08
1.06057e+08
1.05999e+08
1.05943e+08
1.05892e+08
1.05857e+08
1.05864e+08
1.05894e+08
1.05935e+08
1.05999e+08
1.06077e+08
1.06147e+08
1.06203e+08
1.06255e+08
1.06316e+08
1.06354e+08
1.06356e+08
1.06345e+08
1.06298e+08
1.06202e+08
1.06102e+08
1.0602e+08
1.05969e+08
1.07999e+08
1.07812e+08
1.07605e+08
1.07411e+08
1.07255e+08
1.07136e+08
1.07013e+08
1.06895e+08
1.0679e+08
1.06698e+08
1.06614e+08
1.06541e+08
1.06456e+08
1.06386e+08
1.0634e+08
1.06309e+08
1.06273e+08
1.06239e+08
1.06198e+08
1.06143e+08
1.06087e+08
1.0603e+08
1.05982e+08
1.05971e+08
1.05988e+08
1.06021e+08
1.06077e+08
1.06143e+08
1.06195e+08
1.06228e+08
1.06268e+08
1.06319e+08
1.06345e+08
1.06353e+08
1.0635e+08
1.06301e+08
1.06204e+08
1.06109e+08
1.06044e+08
1.06002e+08
1.08211e+08
1.08007e+08
1.07769e+08
1.07546e+08
1.0737e+08
1.07233e+08
1.07096e+08
1.06977e+08
1.06875e+08
1.06778e+08
1.06692e+08
1.06624e+08
1.0655e+08
1.06485e+08
1.06449e+08
1.06411e+08
1.0637e+08
1.06338e+08
1.06298e+08
1.06248e+08
1.06192e+08
1.06144e+08
1.06104e+08
1.06086e+08
1.06086e+08
1.06101e+08
1.06137e+08
1.06191e+08
1.06235e+08
1.06261e+08
1.06298e+08
1.06339e+08
1.06356e+08
1.06359e+08
1.06343e+08
1.06283e+08
1.06202e+08
1.06135e+08
1.06089e+08
1.06048e+08
1.08461e+08
1.08245e+08
1.07983e+08
1.07726e+08
1.0752e+08
1.07349e+08
1.072e+08
1.07084e+08
1.06986e+08
1.06878e+08
1.06778e+08
1.06715e+08
1.06647e+08
1.06578e+08
1.06538e+08
1.06492e+08
1.06444e+08
1.06413e+08
1.06386e+08
1.06345e+08
1.0629e+08
1.06243e+08
1.06216e+08
1.06203e+08
1.062e+08
1.06192e+08
1.06208e+08
1.06251e+08
1.06293e+08
1.06321e+08
1.06345e+08
1.06367e+08
1.06371e+08
1.0636e+08
1.06327e+08
1.06269e+08
1.06213e+08
1.0617e+08
1.06127e+08
1.06082e+08
1.08806e+08
1.08565e+08
1.08257e+08
1.07954e+08
1.07714e+08
1.0751e+08
1.07347e+08
1.07203e+08
1.07085e+08
1.06962e+08
1.06862e+08
1.06791e+08
1.06717e+08
1.06654e+08
1.06618e+08
1.06567e+08
1.06519e+08
1.06491e+08
1.06469e+08
1.06445e+08
1.06407e+08
1.06364e+08
1.06336e+08
1.06321e+08
1.06318e+08
1.06298e+08
1.06294e+08
1.06326e+08
1.06367e+08
1.06392e+08
1.06401e+08
1.06404e+08
1.06392e+08
1.06368e+08
1.06338e+08
1.06296e+08
1.06255e+08
1.06217e+08
1.06166e+08
1.06124e+08
1.09283e+08
1.08963e+08
1.08581e+08
1.08242e+08
1.07965e+08
1.07718e+08
1.07525e+08
1.07362e+08
1.07208e+08
1.0706e+08
1.06949e+08
1.06866e+08
1.06783e+08
1.06719e+08
1.06683e+08
1.06644e+08
1.06606e+08
1.06572e+08
1.06545e+08
1.06529e+08
1.06514e+08
1.06491e+08
1.06455e+08
1.06427e+08
1.06414e+08
1.06402e+08
1.06389e+08
1.0641e+08
1.06451e+08
1.06464e+08
1.06463e+08
1.06455e+08
1.06433e+08
1.064e+08
1.06372e+08
1.06345e+08
1.06316e+08
1.06278e+08
1.06224e+08
1.0619e+08
1.09874e+08
1.09476e+08
1.09003e+08
1.08585e+08
1.08249e+08
1.07973e+08
1.07742e+08
1.07548e+08
1.07351e+08
1.07175e+08
1.07042e+08
1.06946e+08
1.06866e+08
1.06797e+08
1.06746e+08
1.06711e+08
1.06678e+08
1.06635e+08
1.06612e+08
1.06607e+08
1.06603e+08
1.06601e+08
1.06556e+08
1.06518e+08
1.0649e+08
1.06472e+08
1.06469e+08
1.06495e+08
1.06533e+08
1.0654e+08
1.0653e+08
1.06514e+08
1.06487e+08
1.06458e+08
1.0643e+08
1.06405e+08
1.06384e+08
1.06348e+08
1.06299e+08
1.06262e+08
1.10548e+08
1.10064e+08
1.09504e+08
1.09006e+08
1.08591e+08
1.08273e+08
1.07993e+08
1.07739e+08
1.0749e+08
1.07293e+08
1.07149e+08
1.07048e+08
1.06966e+08
1.06888e+08
1.06825e+08
1.06782e+08
1.06747e+08
1.0671e+08
1.06695e+08
1.06695e+08
1.06696e+08
1.0669e+08
1.06651e+08
1.06611e+08
1.06568e+08
1.06529e+08
1.06531e+08
1.06576e+08
1.06618e+08
1.06623e+08
1.06589e+08
1.06554e+08
1.0653e+08
1.06517e+08
1.06509e+08
1.0649e+08
1.06462e+08
1.06419e+08
1.0638e+08
1.06349e+08
1.11285e+08
1.10729e+08
1.10083e+08
1.09483e+08
1.08979e+08
1.08581e+08
1.08243e+08
1.07945e+08
1.0767e+08
1.07462e+08
1.07294e+08
1.07165e+08
1.07072e+08
1.06999e+08
1.0693e+08
1.06883e+08
1.06857e+08
1.06827e+08
1.06816e+08
1.06804e+08
1.06788e+08
1.06764e+08
1.06745e+08
1.06706e+08
1.06657e+08
1.06608e+08
1.06605e+08
1.0665e+08
1.06687e+08
1.0669e+08
1.06643e+08
1.06599e+08
1.06587e+08
1.06593e+08
1.06596e+08
1.06582e+08
1.0655e+08
1.06509e+08
1.06475e+08
1.06457e+08
1.11972e+08
1.11389e+08
1.10708e+08
1.10035e+08
1.09452e+08
1.08986e+08
1.08594e+08
1.08251e+08
1.07942e+08
1.07691e+08
1.07496e+08
1.07342e+08
1.07232e+08
1.07141e+08
1.07059e+08
1.06994e+08
1.06962e+08
1.06937e+08
1.06923e+08
1.06899e+08
1.06874e+08
1.06855e+08
1.06849e+08
1.06822e+08
1.0677e+08
1.06717e+08
1.06704e+08
1.06735e+08
1.06761e+08
1.06761e+08
1.06722e+08
1.06699e+08
1.06693e+08
1.06692e+08
1.06689e+08
1.06676e+08
1.06649e+08
1.06613e+08
1.06577e+08
1.0656e+08
1.12575e+08
1.11995e+08
1.11314e+08
1.10621e+08
1.09994e+08
1.09469e+08
1.09012e+08
1.08611e+08
1.08271e+08
1.07988e+08
1.07745e+08
1.07544e+08
1.07402e+08
1.07294e+08
1.07191e+08
1.07109e+08
1.07066e+08
1.07037e+08
1.07014e+08
1.06993e+08
1.06967e+08
1.06945e+08
1.06934e+08
1.06926e+08
1.06884e+08
1.06842e+08
1.06815e+08
1.0682e+08
1.06838e+08
1.06841e+08
1.0683e+08
1.06832e+08
1.06824e+08
1.06813e+08
1.0679e+08
1.06768e+08
1.06739e+08
1.06698e+08
1.06664e+08
1.06637e+08
1.1304e+08
1.12534e+08
1.11863e+08
1.11141e+08
1.10489e+08
1.09924e+08
1.09414e+08
1.08954e+08
1.08559e+08
1.08234e+08
1.07957e+08
1.07713e+08
1.07536e+08
1.07408e+08
1.07304e+08
1.07229e+08
1.07182e+08
1.07123e+08
1.07077e+08
1.07058e+08
1.07034e+08
1.07009e+08
1.06998e+08
1.06996e+08
1.06963e+08
1.06919e+08
1.06879e+08
1.06863e+08
1.06879e+08
1.06903e+08
1.06915e+08
1.06922e+08
1.06908e+08
1.06886e+08
1.06861e+08
1.06844e+08
1.06809e+08
1.06759e+08
1.06724e+08
1.06692e+08
)
;

boundaryField
{
    upperWall
    {
        type            calculated;
        value           nonuniform List<scalar> 
40
(
1.1304e+08
1.12534e+08
1.11863e+08
1.11141e+08
1.10489e+08
1.09924e+08
1.09414e+08
1.08954e+08
1.08559e+08
1.08234e+08
1.07957e+08
1.07713e+08
1.07536e+08
1.07408e+08
1.07304e+08
1.07229e+08
1.07182e+08
1.07123e+08
1.07077e+08
1.07058e+08
1.07034e+08
1.07009e+08
1.06998e+08
1.06996e+08
1.06963e+08
1.06919e+08
1.06879e+08
1.06863e+08
1.06879e+08
1.06903e+08
1.06915e+08
1.06922e+08
1.06908e+08
1.06886e+08
1.06861e+08
1.06844e+08
1.06809e+08
1.06759e+08
1.06724e+08
1.06692e+08
)
;
    }
    lowerWall
    {
        type            calculated;
        value           nonuniform List<scalar> 
40
(
1.11213e+08
1.10827e+08
1.10282e+08
1.09715e+08
1.09217e+08
1.08822e+08
1.08485e+08
1.08206e+08
1.0796e+08
1.07753e+08
1.07592e+08
1.07449e+08
1.07335e+08
1.07255e+08
1.07195e+08
1.07134e+08
1.07073e+08
1.07016e+08
1.06979e+08
1.0694e+08
1.06899e+08
1.06862e+08
1.06869e+08
1.06914e+08
1.06989e+08
1.07049e+08
1.07089e+08
1.07113e+08
1.07134e+08
1.07138e+08
1.07124e+08
1.07108e+08
1.0711e+08
1.0713e+08
1.07116e+08
1.07072e+08
1.07036e+08
1.06995e+08
1.06957e+08
1.06933e+08
)
;
    }
    inlet
    {
        type            calculated;
        value           nonuniform List<scalar> 
40
(
1.11213e+08
1.10792e+08
1.10278e+08
1.09773e+08
1.09259e+08
1.08808e+08
1.0847e+08
1.08237e+08
1.08075e+08
1.07941e+08
1.07824e+08
1.07691e+08
1.07569e+08
1.07493e+08
1.07434e+08
1.07358e+08
1.07266e+08
1.07184e+08
1.07135e+08
1.07096e+08
1.07051e+08
1.07032e+08
1.07069e+08
1.07132e+08
1.0721e+08
1.07309e+08
1.07436e+08
1.07585e+08
1.07785e+08
1.07999e+08
1.08211e+08
1.08461e+08
1.08806e+08
1.09283e+08
1.09874e+08
1.10548e+08
1.11285e+08
1.11972e+08
1.12575e+08
1.1304e+08
)
;
    }
    outlet
    {
        type            calculated;
        value           nonuniform List<scalar> 
40
(
1.0692e+08
1.06851e+08
1.06781e+08
1.06754e+08
1.06744e+08
1.06744e+08
1.06746e+08
1.06735e+08
1.06728e+08
1.06735e+08
1.06723e+08
1.06679e+08
1.06604e+08
1.06529e+08
1.0646e+08
1.06385e+08
1.06312e+08
1.06256e+08
1.06217e+08
1.06209e+08
1.06227e+08
1.0625e+08
1.06232e+08
1.06185e+08
1.0614e+08
1.06095e+08
1.06027e+08
1.05968e+08
1.05957e+08
1.05991e+08
1.06037e+08
1.0607e+08
1.06113e+08
1.06178e+08
1.06251e+08
1.06337e+08
1.06445e+08
1.06548e+08
1.06624e+08
1.06678e+08
)
;
    }
    frontAndBack
    {
        type            empty;
    }
}


// ************************************************************************* //
