/*--------------------------------*- C++ -*----------------------------------*\
  =========                 |
  \\      /  F ield         | OpenFOAM: The Open Source CFD Toolbox
   \\    /   O peration     | Website:  https://openfoam.org
    \\  /    A nd           | Version:  7
     \\/     M anipulation  |
\*---------------------------------------------------------------------------*/
FoamFile
{
    version     2.0;
    format      ascii;
    class       volScalarField;
    location    "0.0675";
    object      pPrime2Mean;
}
// * * * * * * * * * * * * * * * * * * * * * * * * * * * * * * * * * * * * * //

dimensions      [2 -2 -4 0 0 0 0];

internalField   nonuniform List<scalar> 
1440
(
7.73115e+06
7.68592e+06
7.64616e+06
7.61416e+06
7.58723e+06
7.56145e+06
7.53485e+06
7.50741e+06
7.47975e+06
7.4523e+06
7.42507e+06
7.39791e+06
7.37066e+06
7.34321e+06
7.31546e+06
7.2873e+06
7.25862e+06
7.22932e+06
7.19927e+06
7.16843e+06
7.13672e+06
7.10414e+06
7.07067e+06
7.03633e+06
7.00112e+06
6.96508e+06
6.92823e+06
6.89061e+06
6.85225e+06
6.8132e+06
6.7735e+06
6.73318e+06
6.69227e+06
6.65082e+06
6.60885e+06
6.56639e+06
6.52346e+06
6.48009e+06
6.43628e+06
6.39206e+06
6.34745e+06
6.30244e+06
6.25705e+06
6.21128e+06
6.16515e+06
6.11865e+06
6.07181e+06
6.02461e+06
5.97707e+06
5.92919e+06
5.88099e+06
5.83246e+06
5.78362e+06
5.73448e+06
5.68503e+06
5.63529e+06
5.58527e+06
5.53498e+06
5.48441e+06
5.43358e+06
5.3825e+06
5.33116e+06
5.27959e+06
5.22778e+06
5.17575e+06
5.12349e+06
5.07102e+06
5.01835e+06
4.96547e+06
4.9124e+06
4.85914e+06
4.8057e+06
4.75208e+06
4.69829e+06
4.64433e+06
4.5902e+06
4.53592e+06
4.48149e+06
4.42691e+06
4.37219e+06
4.31733e+06
4.26233e+06
4.20721e+06
4.15196e+06
4.0966e+06
4.04113e+06
3.98555e+06
3.92986e+06
3.87409e+06
3.81822e+06
3.76227e+06
3.70624e+06
3.65014e+06
3.59397e+06
3.53774e+06
3.48145e+06
3.42509e+06
3.36867e+06
3.31218e+06
3.25563e+06
3.19899e+06
3.14226e+06
3.08543e+06
3.0285e+06
2.97146e+06
2.91431e+06
2.85706e+06
2.79972e+06
2.74232e+06
2.6849e+06
2.62752e+06
2.57022e+06
2.5131e+06
2.45623e+06
2.39971e+06
2.34362e+06
2.28811e+06
2.23325e+06
2.17914e+06
2.12616e+06
7.73083e+06
7.68616e+06
7.64693e+06
7.6153e+06
7.58861e+06
7.56304e+06
7.53664e+06
7.50933e+06
7.48168e+06
7.45414e+06
7.4268e+06
7.39953e+06
7.37218e+06
7.34463e+06
7.31674e+06
7.28842e+06
7.25957e+06
7.23008e+06
7.19987e+06
7.16888e+06
7.13706e+06
7.10439e+06
7.07086e+06
7.03646e+06
7.00122e+06
6.96515e+06
6.92829e+06
6.89065e+06
6.8523e+06
6.81325e+06
6.77355e+06
6.73323e+06
6.69234e+06
6.6509e+06
6.60894e+06
6.56649e+06
6.52358e+06
6.48022e+06
6.43643e+06
6.39223e+06
6.34763e+06
6.30263e+06
6.25725e+06
6.2115e+06
6.16538e+06
6.11889e+06
6.07205e+06
6.02486e+06
5.97733e+06
5.92946e+06
5.88126e+06
5.83274e+06
5.78391e+06
5.73477e+06
5.68533e+06
5.6356e+06
5.58558e+06
5.53529e+06
5.48473e+06
5.43391e+06
5.38283e+06
5.33151e+06
5.27994e+06
5.22814e+06
5.17611e+06
5.12386e+06
5.07139e+06
5.01872e+06
4.96585e+06
4.91278e+06
4.85952e+06
4.80609e+06
4.75247e+06
4.69868e+06
4.64472e+06
4.5906e+06
4.53632e+06
4.48189e+06
4.42731e+06
4.37259e+06
4.31773e+06
4.26274e+06
4.20762e+06
4.15238e+06
4.09702e+06
4.04154e+06
3.98597e+06
3.93029e+06
3.87451e+06
3.81864e+06
3.7627e+06
3.70667e+06
3.65057e+06
3.5944e+06
3.53817e+06
3.48188e+06
3.42552e+06
3.3691e+06
3.31262e+06
3.25606e+06
3.19942e+06
3.14269e+06
3.08587e+06
3.02894e+06
2.97189e+06
2.91474e+06
2.85749e+06
2.80015e+06
2.74275e+06
2.68533e+06
2.62794e+06
2.57064e+06
2.51351e+06
2.45664e+06
2.4001e+06
2.34402e+06
2.28846e+06
2.23359e+06
2.17935e+06
2.12625e+06
7.73092e+06
7.68646e+06
7.64751e+06
7.61611e+06
7.58959e+06
7.56417e+06
7.53794e+06
7.51074e+06
7.48311e+06
7.45548e+06
7.42797e+06
7.40047e+06
7.37283e+06
7.34492e+06
7.31664e+06
7.28789e+06
7.25859e+06
7.2287e+06
7.19816e+06
7.16693e+06
7.13494e+06
7.10218e+06
7.06863e+06
7.03427e+06
6.99912e+06
6.96317e+06
6.92645e+06
6.88898e+06
6.85078e+06
6.8119e+06
6.77237e+06
6.73221e+06
6.69146e+06
6.65015e+06
6.60831e+06
6.56596e+06
6.52313e+06
6.47985e+06
6.43612e+06
6.39196e+06
6.34739e+06
6.30243e+06
6.25707e+06
6.21132e+06
6.16521e+06
6.11873e+06
6.07189e+06
6.0247e+06
5.97717e+06
5.9293e+06
5.8811e+06
5.83259e+06
5.78376e+06
5.73462e+06
5.68518e+06
5.63545e+06
5.58544e+06
5.53515e+06
5.48459e+06
5.43376e+06
5.38269e+06
5.33136e+06
5.27979e+06
5.22798e+06
5.17595e+06
5.1237e+06
5.07123e+06
5.01856e+06
4.96569e+06
4.91262e+06
4.85936e+06
4.80592e+06
4.7523e+06
4.69851e+06
4.64455e+06
4.59043e+06
4.53615e+06
4.48172e+06
4.42714e+06
4.37241e+06
4.31755e+06
4.26256e+06
4.20744e+06
4.15219e+06
4.09683e+06
4.04136e+06
3.98578e+06
3.9301e+06
3.87432e+06
3.81846e+06
3.76251e+06
3.70648e+06
3.65039e+06
3.59422e+06
3.53799e+06
3.48169e+06
3.42534e+06
3.36892e+06
3.31244e+06
3.25588e+06
3.19924e+06
3.14251e+06
3.08569e+06
3.02876e+06
2.97172e+06
2.91457e+06
2.85731e+06
2.79997e+06
2.74257e+06
2.68515e+06
2.62776e+06
2.57047e+06
2.51333e+06
2.45646e+06
2.39992e+06
2.34382e+06
2.28826e+06
2.23336e+06
2.17911e+06
2.126e+06
7.73105e+06
7.68668e+06
7.64788e+06
7.61663e+06
7.59023e+06
7.56492e+06
7.53877e+06
7.51162e+06
7.48397e+06
7.45625e+06
7.42859e+06
7.40089e+06
7.37303e+06
7.34488e+06
7.31636e+06
7.28738e+06
7.25788e+06
7.22783e+06
7.19718e+06
7.16587e+06
7.13386e+06
7.1011e+06
7.06757e+06
7.03327e+06
6.99818e+06
6.9623e+06
6.92566e+06
6.88827e+06
6.85016e+06
6.81135e+06
6.77189e+06
6.7318e+06
6.69111e+06
6.64985e+06
6.60806e+06
6.56575e+06
6.52296e+06
6.4797e+06
6.43599e+06
6.39185e+06
6.34729e+06
6.30233e+06
6.25697e+06
6.21123e+06
6.16512e+06
6.11864e+06
6.0718e+06
6.02461e+06
5.97708e+06
5.92921e+06
5.88102e+06
5.83251e+06
5.78368e+06
5.73454e+06
5.68511e+06
5.63539e+06
5.58538e+06
5.53509e+06
5.48453e+06
5.43371e+06
5.38264e+06
5.33131e+06
5.27975e+06
5.22795e+06
5.17592e+06
5.12367e+06
5.07121e+06
5.01854e+06
4.96566e+06
4.9126e+06
4.85934e+06
4.8059e+06
4.75229e+06
4.6985e+06
4.64454e+06
4.59042e+06
4.53614e+06
4.48171e+06
4.42713e+06
4.37241e+06
4.31755e+06
4.26255e+06
4.20743e+06
4.15219e+06
4.09683e+06
4.04136e+06
3.98578e+06
3.9301e+06
3.87433e+06
3.81847e+06
3.76252e+06
3.70649e+06
3.6504e+06
3.59423e+06
3.538e+06
3.48171e+06
3.42536e+06
3.36894e+06
3.31246e+06
3.2559e+06
3.19926e+06
3.14254e+06
3.08571e+06
3.02878e+06
2.97174e+06
2.91459e+06
2.85734e+06
2.79999e+06
2.74259e+06
2.68517e+06
2.62778e+06
2.57048e+06
2.51335e+06
2.45647e+06
2.39992e+06
2.34382e+06
2.28825e+06
2.23333e+06
2.17907e+06
2.12592e+06
7.73115e+06
7.68682e+06
7.64811e+06
7.61695e+06
7.59065e+06
7.56541e+06
7.53932e+06
7.51219e+06
7.48453e+06
7.45677e+06
7.42903e+06
7.40124e+06
7.37326e+06
7.34501e+06
7.31637e+06
7.28728e+06
7.25767e+06
7.22751e+06
7.19676e+06
7.16537e+06
7.13328e+06
7.10047e+06
7.0669e+06
7.03257e+06
6.99747e+06
6.9616e+06
6.92498e+06
6.88761e+06
6.84954e+06
6.81077e+06
6.77135e+06
6.7313e+06
6.69066e+06
6.64945e+06
6.6077e+06
6.56544e+06
6.52268e+06
6.47945e+06
6.43577e+06
6.39166e+06
6.34712e+06
6.30218e+06
6.25684e+06
6.21111e+06
6.16501e+06
6.11854e+06
6.07171e+06
6.02452e+06
5.977e+06
5.92914e+06
5.88095e+06
5.83244e+06
5.78362e+06
5.73449e+06
5.68506e+06
5.63534e+06
5.58534e+06
5.53505e+06
5.4845e+06
5.43369e+06
5.38261e+06
5.33129e+06
5.27973e+06
5.22793e+06
5.17591e+06
5.12366e+06
5.0712e+06
5.01853e+06
4.96566e+06
4.91259e+06
4.85934e+06
4.8059e+06
4.75228e+06
4.69849e+06
4.64454e+06
4.59042e+06
4.53614e+06
4.48171e+06
4.42713e+06
4.3724e+06
4.31754e+06
4.26255e+06
4.20743e+06
4.15219e+06
4.09683e+06
4.04136e+06
3.98578e+06
3.9301e+06
3.87433e+06
3.81847e+06
3.76252e+06
3.70649e+06
3.6504e+06
3.59423e+06
3.538e+06
3.48171e+06
3.42536e+06
3.36894e+06
3.31246e+06
3.2559e+06
3.19927e+06
3.14254e+06
3.08572e+06
3.02878e+06
2.97174e+06
2.91459e+06
2.85734e+06
2.79999e+06
2.74259e+06
2.68517e+06
2.62777e+06
2.57047e+06
2.51333e+06
2.45645e+06
2.3999e+06
2.34379e+06
2.28821e+06
2.23328e+06
2.17901e+06
2.12583e+06
7.73118e+06
7.68687e+06
7.6482e+06
7.6171e+06
7.59085e+06
7.56565e+06
7.53958e+06
7.51248e+06
7.48482e+06
7.45705e+06
7.42928e+06
7.40145e+06
7.37343e+06
7.34513e+06
7.31643e+06
7.28727e+06
7.25759e+06
7.22735e+06
7.19652e+06
7.16507e+06
7.13293e+06
7.10009e+06
7.0665e+06
7.03217e+06
6.99707e+06
6.96122e+06
6.92462e+06
6.88729e+06
6.84925e+06
6.81052e+06
6.77114e+06
6.73113e+06
6.69052e+06
6.64934e+06
6.60762e+06
6.56538e+06
6.52264e+06
6.47943e+06
6.43576e+06
6.39166e+06
6.34713e+06
6.30219e+06
6.25685e+06
6.21112e+06
6.16501e+06
6.11854e+06
6.0717e+06
6.02452e+06
5.97699e+06
5.92913e+06
5.88094e+06
5.83243e+06
5.7836e+06
5.73447e+06
5.68504e+06
5.63532e+06
5.58532e+06
5.53504e+06
5.48449e+06
5.43367e+06
5.3826e+06
5.33128e+06
5.27972e+06
5.22792e+06
5.1759e+06
5.12365e+06
5.07119e+06
5.01852e+06
4.96565e+06
4.91259e+06
4.85933e+06
4.8059e+06
4.75228e+06
4.69849e+06
4.64453e+06
4.59041e+06
4.53613e+06
4.4817e+06
4.42712e+06
4.37239e+06
4.31753e+06
4.26254e+06
4.20742e+06
4.15218e+06
4.09682e+06
4.04135e+06
3.98577e+06
3.93009e+06
3.87432e+06
3.81845e+06
3.76251e+06
3.70648e+06
3.65039e+06
3.59422e+06
3.53799e+06
3.4817e+06
3.42535e+06
3.36893e+06
3.31245e+06
3.25589e+06
3.19926e+06
3.14253e+06
3.08571e+06
3.02877e+06
2.97173e+06
2.91458e+06
2.85732e+06
2.79998e+06
2.74258e+06
2.68515e+06
2.62776e+06
2.57045e+06
2.51331e+06
2.45642e+06
2.39987e+06
2.34376e+06
2.28818e+06
2.23324e+06
2.17896e+06
2.12577e+06
7.73112e+06
7.68682e+06
7.64816e+06
7.61707e+06
7.59083e+06
7.56565e+06
7.53959e+06
7.5125e+06
7.48486e+06
7.45709e+06
7.42934e+06
7.40151e+06
7.3735e+06
7.34519e+06
7.3165e+06
7.28734e+06
7.25765e+06
7.22741e+06
7.19658e+06
7.16511e+06
7.13298e+06
7.10012e+06
7.06654e+06
7.0322e+06
6.99711e+06
6.96125e+06
6.92465e+06
6.88732e+06
6.84928e+06
6.81055e+06
6.77117e+06
6.73116e+06
6.69056e+06
6.64938e+06
6.60766e+06
6.56542e+06
6.52268e+06
6.47947e+06
6.4358e+06
6.39169e+06
6.34716e+06
6.30222e+06
6.25687e+06
6.21114e+06
6.16503e+06
6.11856e+06
6.07172e+06
6.02453e+06
5.977e+06
5.92914e+06
5.88094e+06
5.83243e+06
5.78361e+06
5.73448e+06
5.68505e+06
5.63533e+06
5.58533e+06
5.53505e+06
5.4845e+06
5.43369e+06
5.38262e+06
5.3313e+06
5.27974e+06
5.22794e+06
5.17592e+06
5.12368e+06
5.07122e+06
5.01855e+06
4.96568e+06
4.91262e+06
4.85936e+06
4.80592e+06
4.75231e+06
4.69852e+06
4.64456e+06
4.59044e+06
4.53616e+06
4.48172e+06
4.42714e+06
4.37242e+06
4.31756e+06
4.26257e+06
4.20744e+06
4.1522e+06
4.09684e+06
4.04137e+06
3.98579e+06
3.93011e+06
3.87434e+06
3.81848e+06
3.76253e+06
3.70651e+06
3.65041e+06
3.59424e+06
3.53802e+06
3.48172e+06
3.42537e+06
3.36896e+06
3.31247e+06
3.25592e+06
3.19928e+06
3.14255e+06
3.08573e+06
3.02879e+06
2.97175e+06
2.9146e+06
2.85734e+06
2.8e+06
2.74259e+06
2.68516e+06
2.62777e+06
2.57046e+06
2.51332e+06
2.45643e+06
2.39987e+06
2.34376e+06
2.28818e+06
2.23324e+06
2.17897e+06
2.12577e+06
7.73098e+06
7.68667e+06
7.64799e+06
7.61686e+06
7.5906e+06
7.5654e+06
7.53934e+06
7.51226e+06
7.48464e+06
7.45691e+06
7.42919e+06
7.40142e+06
7.37346e+06
7.34522e+06
7.31659e+06
7.28749e+06
7.25787e+06
7.2277e+06
7.19693e+06
7.16552e+06
7.13341e+06
7.10058e+06
7.067e+06
7.03266e+06
6.99755e+06
6.96168e+06
6.92505e+06
6.88769e+06
6.84961e+06
6.81085e+06
6.77144e+06
6.7314e+06
6.69076e+06
6.64956e+06
6.60781e+06
6.56555e+06
6.5228e+06
6.47957e+06
6.43589e+06
6.39178e+06
6.34724e+06
6.30229e+06
6.25694e+06
6.2112e+06
6.16509e+06
6.11861e+06
6.07177e+06
6.02458e+06
5.97705e+06
5.92918e+06
5.88099e+06
5.83248e+06
5.78365e+06
5.73452e+06
5.68509e+06
5.63537e+06
5.58537e+06
5.53509e+06
5.48454e+06
5.43373e+06
5.38266e+06
5.33134e+06
5.27978e+06
5.22799e+06
5.17596e+06
5.12372e+06
5.07126e+06
5.01859e+06
4.96573e+06
4.91266e+06
4.85941e+06
4.80597e+06
4.75235e+06
4.69856e+06
4.6446e+06
4.59048e+06
4.5362e+06
4.48177e+06
4.42719e+06
4.37246e+06
4.3176e+06
4.26261e+06
4.20748e+06
4.15224e+06
4.09688e+06
4.04141e+06
3.98583e+06
3.93015e+06
3.87437e+06
3.81851e+06
3.76256e+06
3.70654e+06
3.65044e+06
3.59428e+06
3.53805e+06
3.48176e+06
3.4254e+06
3.36899e+06
3.3125e+06
3.25594e+06
3.19931e+06
3.14258e+06
3.08575e+06
3.02882e+06
2.97177e+06
2.91462e+06
2.85736e+06
2.80001e+06
2.74261e+06
2.68518e+06
2.62778e+06
2.57047e+06
2.51333e+06
2.45644e+06
2.39988e+06
2.34377e+06
2.28819e+06
2.23326e+06
2.179e+06
2.12581e+06
7.73076e+06
7.68643e+06
7.64768e+06
7.61648e+06
7.59014e+06
7.56489e+06
7.53881e+06
7.51173e+06
7.48414e+06
7.45648e+06
7.42886e+06
7.4012e+06
7.37336e+06
7.34523e+06
7.31672e+06
7.28774e+06
7.25823e+06
7.22816e+06
7.19748e+06
7.16614e+06
7.1341e+06
7.10131e+06
7.06775e+06
7.03342e+06
6.9983e+06
6.96241e+06
6.92576e+06
6.88837e+06
6.85026e+06
6.81146e+06
6.772e+06
6.73192e+06
6.69125e+06
6.65e+06
6.60822e+06
6.56592e+06
6.52313e+06
6.47988e+06
6.43617e+06
6.39203e+06
6.34746e+06
6.30249e+06
6.25713e+06
6.21138e+06
6.16525e+06
6.11876e+06
6.07191e+06
6.02471e+06
5.97717e+06
5.92929e+06
5.88109e+06
5.83257e+06
5.78374e+06
5.7346e+06
5.68517e+06
5.63545e+06
5.58544e+06
5.53516e+06
5.48461e+06
5.43379e+06
5.38273e+06
5.33141e+06
5.27985e+06
5.22805e+06
5.17603e+06
5.12379e+06
5.07133e+06
5.01866e+06
4.96579e+06
4.91273e+06
4.85948e+06
4.80604e+06
4.75242e+06
4.69863e+06
4.64467e+06
4.59055e+06
4.53626e+06
4.48183e+06
4.42725e+06
4.37252e+06
4.31766e+06
4.26267e+06
4.20754e+06
4.1523e+06
4.09694e+06
4.04146e+06
3.98588e+06
3.9302e+06
3.87443e+06
3.81856e+06
3.76261e+06
3.70659e+06
3.65049e+06
3.59432e+06
3.53809e+06
3.4818e+06
3.42545e+06
3.36903e+06
3.31254e+06
3.25598e+06
3.19935e+06
3.14262e+06
3.08579e+06
3.02885e+06
2.97181e+06
2.91465e+06
2.85739e+06
2.80004e+06
2.74263e+06
2.6852e+06
2.6278e+06
2.57049e+06
2.51335e+06
2.45646e+06
2.39991e+06
2.3438e+06
2.28823e+06
2.23331e+06
2.17906e+06
2.12591e+06
7.73052e+06
7.68612e+06
7.64725e+06
7.61591e+06
7.58947e+06
7.56413e+06
7.53799e+06
7.51087e+06
7.48332e+06
7.45575e+06
7.4283e+06
7.40084e+06
7.37324e+06
7.34536e+06
7.3171e+06
7.28837e+06
7.25908e+06
7.22918e+06
7.19863e+06
7.16736e+06
7.13535e+06
7.10255e+06
7.06896e+06
7.03458e+06
6.99939e+06
6.96343e+06
6.92669e+06
6.88922e+06
6.85102e+06
6.81214e+06
6.77261e+06
6.73246e+06
6.69172e+06
6.65042e+06
6.60859e+06
6.56625e+06
6.52343e+06
6.48014e+06
6.43641e+06
6.39224e+06
6.34766e+06
6.30268e+06
6.2573e+06
6.21154e+06
6.16541e+06
6.11891e+06
6.07205e+06
6.02484e+06
5.97729e+06
5.92941e+06
5.8812e+06
5.83268e+06
5.78384e+06
5.7347e+06
5.68527e+06
5.63554e+06
5.58553e+06
5.53525e+06
5.4847e+06
5.43388e+06
5.38281e+06
5.33149e+06
5.27993e+06
5.22814e+06
5.17612e+06
5.12387e+06
5.07141e+06
5.01875e+06
4.96588e+06
4.91281e+06
4.85956e+06
4.80612e+06
4.7525e+06
4.69871e+06
4.64475e+06
4.59063e+06
4.53634e+06
4.48191e+06
4.42732e+06
4.3726e+06
4.31773e+06
4.26274e+06
4.20761e+06
4.15237e+06
4.097e+06
4.04153e+06
3.98595e+06
3.93026e+06
3.87449e+06
3.81862e+06
3.76267e+06
3.70664e+06
3.65055e+06
3.59438e+06
3.53815e+06
3.48185e+06
3.4255e+06
3.36908e+06
3.31259e+06
3.25603e+06
3.19939e+06
3.14266e+06
3.08583e+06
3.02889e+06
2.97185e+06
2.91469e+06
2.85743e+06
2.80008e+06
2.74267e+06
2.68524e+06
2.62783e+06
2.57052e+06
2.51338e+06
2.45649e+06
2.39994e+06
2.34384e+06
2.28827e+06
2.23338e+06
2.17914e+06
2.12603e+06
7.73033e+06
7.68575e+06
7.64662e+06
7.61509e+06
7.58851e+06
7.56304e+06
7.53677e+06
7.50955e+06
7.48198e+06
7.4545e+06
7.4272e+06
7.39996e+06
7.37261e+06
7.34505e+06
7.31715e+06
7.28881e+06
7.25992e+06
7.23041e+06
7.20017e+06
7.16914e+06
7.13728e+06
7.10457e+06
7.071e+06
7.03658e+06
7.00132e+06
6.96524e+06
6.92837e+06
6.89075e+06
6.8524e+06
6.81337e+06
6.77369e+06
6.7334e+06
6.69253e+06
6.65111e+06
6.60917e+06
6.56674e+06
6.52384e+06
6.48048e+06
6.4367e+06
6.39249e+06
6.34787e+06
6.30286e+06
6.25747e+06
6.21169e+06
6.16554e+06
6.11904e+06
6.07217e+06
6.02496e+06
5.97741e+06
5.92952e+06
5.88131e+06
5.83278e+06
5.78394e+06
5.7348e+06
5.68536e+06
5.63563e+06
5.58562e+06
5.53533e+06
5.48478e+06
5.43396e+06
5.38289e+06
5.33158e+06
5.28002e+06
5.22822e+06
5.1762e+06
5.12396e+06
5.0715e+06
5.01883e+06
4.96596e+06
4.9129e+06
4.85964e+06
4.80621e+06
4.75259e+06
4.69879e+06
4.64483e+06
4.59071e+06
4.53643e+06
4.48199e+06
4.42741e+06
4.37268e+06
4.31781e+06
4.26282e+06
4.20769e+06
4.15244e+06
4.09708e+06
4.0416e+06
3.98602e+06
3.93034e+06
3.87456e+06
3.81869e+06
3.76274e+06
3.70671e+06
3.65061e+06
3.59444e+06
3.53821e+06
3.48191e+06
3.42556e+06
3.36914e+06
3.31265e+06
3.25609e+06
3.19945e+06
3.14271e+06
3.08588e+06
3.02895e+06
2.9719e+06
2.91474e+06
2.85748e+06
2.80012e+06
2.74271e+06
2.68528e+06
2.62787e+06
2.57056e+06
2.51342e+06
2.45653e+06
2.39998e+06
2.34389e+06
2.28834e+06
2.23347e+06
2.17928e+06
2.12623e+06
7.73052e+06
7.68543e+06
7.64577e+06
7.61389e+06
7.58713e+06
7.56153e+06
7.5351e+06
7.50782e+06
7.48029e+06
7.45295e+06
7.42583e+06
7.39876e+06
7.3716e+06
7.34421e+06
7.31648e+06
7.28832e+06
7.25962e+06
7.23027e+06
7.20017e+06
7.16925e+06
7.13747e+06
7.10482e+06
7.0713e+06
7.0369e+06
7.00165e+06
6.96557e+06
6.9287e+06
6.89106e+06
6.85271e+06
6.81366e+06
6.77397e+06
6.73366e+06
6.69278e+06
6.65134e+06
6.60939e+06
6.56694e+06
6.52402e+06
6.48064e+06
6.43684e+06
6.39262e+06
6.34799e+06
6.30296e+06
6.25755e+06
6.21177e+06
6.16561e+06
6.1191e+06
6.07223e+06
6.02501e+06
5.97745e+06
5.92956e+06
5.88135e+06
5.83281e+06
5.78397e+06
5.73482e+06
5.68538e+06
5.63565e+06
5.58563e+06
5.53534e+06
5.48479e+06
5.43397e+06
5.3829e+06
5.33158e+06
5.28001e+06
5.22822e+06
5.17619e+06
5.12395e+06
5.07149e+06
5.01882e+06
4.96595e+06
4.91288e+06
4.85963e+06
4.80619e+06
4.75257e+06
4.69877e+06
4.64481e+06
4.59069e+06
4.5364e+06
4.48197e+06
4.42738e+06
4.37265e+06
4.31779e+06
4.26279e+06
4.20767e+06
4.15242e+06
4.09705e+06
4.04158e+06
3.98599e+06
3.93031e+06
3.87453e+06
3.81866e+06
3.76271e+06
3.70669e+06
3.65059e+06
3.59442e+06
3.53818e+06
3.48189e+06
3.42553e+06
3.36911e+06
3.31263e+06
3.25607e+06
3.19942e+06
3.14269e+06
3.08586e+06
3.02893e+06
2.97188e+06
2.91472e+06
2.85746e+06
2.80011e+06
2.7427e+06
2.68526e+06
2.62786e+06
2.57055e+06
2.51341e+06
2.45652e+06
2.39998e+06
2.34389e+06
2.28835e+06
2.23349e+06
2.17936e+06
2.12643e+06
)
;

boundaryField
{
    upperWall
    {
        type            calculated;
        value           nonuniform List<scalar> 
120
(
7.73052e+06
7.68543e+06
7.64577e+06
7.61389e+06
7.58713e+06
7.56153e+06
7.5351e+06
7.50782e+06
7.48029e+06
7.45295e+06
7.42583e+06
7.39876e+06
7.3716e+06
7.34421e+06
7.31648e+06
7.28832e+06
7.25962e+06
7.23027e+06
7.20017e+06
7.16925e+06
7.13747e+06
7.10482e+06
7.0713e+06
7.0369e+06
7.00165e+06
6.96557e+06
6.9287e+06
6.89106e+06
6.85271e+06
6.81366e+06
6.77397e+06
6.73366e+06
6.69278e+06
6.65134e+06
6.60939e+06
6.56694e+06
6.52402e+06
6.48064e+06
6.43684e+06
6.39262e+06
6.34799e+06
6.30296e+06
6.25755e+06
6.21177e+06
6.16561e+06
6.1191e+06
6.07223e+06
6.02501e+06
5.97745e+06
5.92956e+06
5.88135e+06
5.83281e+06
5.78397e+06
5.73482e+06
5.68538e+06
5.63565e+06
5.58563e+06
5.53534e+06
5.48479e+06
5.43397e+06
5.3829e+06
5.33158e+06
5.28001e+06
5.22822e+06
5.17619e+06
5.12395e+06
5.07149e+06
5.01882e+06
4.96595e+06
4.91288e+06
4.85963e+06
4.80619e+06
4.75257e+06
4.69877e+06
4.64481e+06
4.59069e+06
4.5364e+06
4.48197e+06
4.42738e+06
4.37265e+06
4.31779e+06
4.26279e+06
4.20767e+06
4.15242e+06
4.09705e+06
4.04158e+06
3.98599e+06
3.93031e+06
3.87453e+06
3.81866e+06
3.76271e+06
3.70669e+06
3.65059e+06
3.59442e+06
3.53818e+06
3.48189e+06
3.42553e+06
3.36911e+06
3.31263e+06
3.25607e+06
3.19942e+06
3.14269e+06
3.08586e+06
3.02893e+06
2.97188e+06
2.91472e+06
2.85746e+06
2.80011e+06
2.7427e+06
2.68526e+06
2.62786e+06
2.57055e+06
2.51341e+06
2.45652e+06
2.39998e+06
2.34389e+06
2.28835e+06
2.23349e+06
2.17936e+06
2.12643e+06
)
;
    }
    lowerWall
    {
        type            calculated;
        value           nonuniform List<scalar> 
120
(
7.73115e+06
7.68592e+06
7.64616e+06
7.61416e+06
7.58723e+06
7.56145e+06
7.53485e+06
7.50741e+06
7.47975e+06
7.4523e+06
7.42507e+06
7.39791e+06
7.37066e+06
7.34321e+06
7.31546e+06
7.2873e+06
7.25862e+06
7.22932e+06
7.19927e+06
7.16843e+06
7.13672e+06
7.10414e+06
7.07067e+06
7.03633e+06
7.00112e+06
6.96508e+06
6.92823e+06
6.89061e+06
6.85225e+06
6.8132e+06
6.7735e+06
6.73318e+06
6.69227e+06
6.65082e+06
6.60885e+06
6.56639e+06
6.52346e+06
6.48009e+06
6.43628e+06
6.39206e+06
6.34745e+06
6.30244e+06
6.25705e+06
6.21128e+06
6.16515e+06
6.11865e+06
6.07181e+06
6.02461e+06
5.97707e+06
5.92919e+06
5.88099e+06
5.83246e+06
5.78362e+06
5.73448e+06
5.68503e+06
5.63529e+06
5.58527e+06
5.53498e+06
5.48441e+06
5.43358e+06
5.3825e+06
5.33116e+06
5.27959e+06
5.22778e+06
5.17575e+06
5.12349e+06
5.07102e+06
5.01835e+06
4.96547e+06
4.9124e+06
4.85914e+06
4.8057e+06
4.75208e+06
4.69829e+06
4.64433e+06
4.5902e+06
4.53592e+06
4.48149e+06
4.42691e+06
4.37219e+06
4.31733e+06
4.26233e+06
4.20721e+06
4.15196e+06
4.0966e+06
4.04113e+06
3.98555e+06
3.92986e+06
3.87409e+06
3.81822e+06
3.76227e+06
3.70624e+06
3.65014e+06
3.59397e+06
3.53774e+06
3.48145e+06
3.42509e+06
3.36867e+06
3.31218e+06
3.25563e+06
3.19899e+06
3.14226e+06
3.08543e+06
3.0285e+06
2.97146e+06
2.91431e+06
2.85706e+06
2.79972e+06
2.74232e+06
2.6849e+06
2.62752e+06
2.57022e+06
2.5131e+06
2.45623e+06
2.39971e+06
2.34362e+06
2.28811e+06
2.23325e+06
2.17914e+06
2.12616e+06
)
;
    }
    inlet
    {
        type            calculated;
        value           nonuniform List<scalar> 
12
(
7.73115e+06
7.73083e+06
7.73092e+06
7.73105e+06
7.73115e+06
7.73118e+06
7.73112e+06
7.73098e+06
7.73076e+06
7.73052e+06
7.73033e+06
7.73052e+06
)
;
    }
    outlet
    {
        type            calculated;
        value           nonuniform List<scalar> 
12
(
2.09909e+06
2.09899e+06
2.09876e+06
2.09868e+06
2.09859e+06
2.09853e+06
2.09854e+06
2.09858e+06
2.09867e+06
2.0988e+06
2.09901e+06
2.09941e+06
)
;
    }
    frontAndBack
    {
        type            empty;
    }
}


// ************************************************************************* //
