/*--------------------------------*- C++ -*----------------------------------*\
  =========                 |
  \\      /  F ield         | OpenFOAM: The Open Source CFD Toolbox
   \\    /   O peration     | Website:  https://openfoam.org
    \\  /    A nd           | Version:  7
     \\/     M anipulation  |
\*---------------------------------------------------------------------------*/
FoamFile
{
    version     2.0;
    format      ascii;
    class       volScalarField;
    location    "0.8675";
    object      k_0;
}
// * * * * * * * * * * * * * * * * * * * * * * * * * * * * * * * * * * * * * //

dimensions      [0 2 -2 0 0 0 0];

internalField   nonuniform List<scalar> 
7920
(
51.9861
56.4226
56.472
56.6118
56.603
56.6611
56.5904
56.5795
56.5029
56.5053
56.4673
56.4814
56.453
56.4543
56.4315
56.4219
56.4299
56.3841
56.5142
56.5668
13.8335
14.0066
13.4357
12.9002
12.6531
12.5649
12.4805
12.4523
12.4002
12.3871
12.3549
12.3498
12.3297
12.3259
12.3131
12.3082
12.3038
12.2932
12.4684
12.4945
8.08341
9.22439
9.34676
9.33642
9.305
9.30392
9.29075
9.29257
9.28042
9.27799
9.26354
9.25986
9.24688
9.24257
9.23047
9.22487
9.21525
9.20861
9.21232
9.2361
7.48189
8.75669
9.01315
9.10958
9.13884
9.17997
9.19386
9.22438
9.23332
9.25272
9.25464
9.26337
9.26167
9.2652
9.26079
9.25972
9.25218
9.24856
9.24424
9.26384
7.41697
8.70317
8.97277
9.08565
9.12765
9.18159
9.20558
9.24939
9.26899
9.30308
9.315
9.33789
9.34445
9.35964
9.36247
9.36979
9.36795
9.3689
9.36637
9.38589
7.42384
8.69971
8.96774
9.08233
9.12799
9.1865
9.21534
9.26472
9.28993
9.3306
9.34829
9.37815
9.38984
9.41228
9.41999
9.4341
9.43597
9.44066
9.44164
9.46057
7.42384
8.69971
8.96774
9.08233
9.12799
9.1865
9.21534
9.26473
9.28992
9.33061
9.34828
9.37817
9.38982
9.41231
9.41997
9.43415
9.43596
9.44073
9.4417
9.46065
7.41697
8.70317
8.97276
9.08566
9.12764
9.1816
9.20556
9.24941
9.26896
9.30312
9.31497
9.33795
9.3444
9.35972
9.36239
9.36992
9.36781
9.36915
9.3664
9.38624
7.48189
8.75669
9.01315
9.10959
9.13883
9.17998
9.19385
9.2244
9.2333
9.25276
9.25458
9.26346
9.26151
9.26541
9.26041
9.26011
9.25155
9.24976
9.24352
9.26483
8.0834
9.22439
9.34675
9.33642
9.30499
9.30393
9.29073
9.29259
9.28037
9.27804
9.26343
9.25999
9.24662
9.24291
9.22981
9.22592
9.21341
9.21178
9.20955
9.23948
13.8335
14.0066
13.4357
12.9002
12.6531
12.5649
12.4805
12.4524
12.4001
12.3872
12.3547
12.3501
12.3293
12.3265
12.312
12.3101
12.3005
12.2987
12.4566
12.5066
51.9861
56.4226
56.4719
56.6119
56.6029
56.6612
56.5903
56.5797
56.5026
56.5059
56.4666
56.4827
56.451
56.4576
56.4261
56.4307
56.4149
56.4101
56.4651
56.6508
7.66836
9.66431
9.75715
9.6462
9.62296
9.55802
9.55008
9.50285
9.49918
9.47028
9.47354
9.4548
9.45763
9.44176
9.44452
9.43023
9.43783
9.41791
9.43144
9.46757
6.01634
8.24351
8.58692
8.64132
8.65688
8.66491
8.66451
8.6603
8.65226
8.64608
8.64106
8.63697
8.63363
8.6286
8.62588
8.61995
8.61927
8.61373
8.62192
8.62504
5.69992
7.90215
8.25603
8.33149
8.3492
8.37394
8.38607
8.40383
8.40943
8.41758
8.41839
8.42121
8.42082
8.42075
8.41931
8.41619
8.41561
8.4114
8.41253
8.44069
5.69155
7.89375
8.2449
8.31574
8.3237
8.33893
8.34483
8.36008
8.3671
8.37756
8.3801
8.3843
8.38461
8.38496
8.38351
8.37917
8.37642
8.36892
8.36835
8.38301
5.67965
7.87832
8.22961
8.30231
8.30872
8.32205
8.32513
8.33783
8.34356
8.35431
8.35639
8.36078
8.36067
8.36154
8.35981
8.35592
8.3501
8.34255
8.33601
8.35101
5.68595
7.88642
8.23688
8.30925
8.31541
8.32845
8.33111
8.34339
8.34889
8.35977
8.36182
8.36635
8.36623
8.36746
8.36601
8.36257
8.35611
8.348
8.33835
8.35154
5.68595
7.88642
8.23688
8.30925
8.3154
8.32845
8.33111
8.3434
8.34888
8.35978
8.36182
8.36636
8.36621
8.36748
8.36599
8.36261
8.35607
8.34803
8.33838
8.35151
5.67965
7.87832
8.22961
8.30232
8.30872
8.32206
8.32513
8.33784
8.34354
8.35433
8.35637
8.36081
8.3606
8.36161
8.35968
8.35616
8.34983
8.34285
8.33575
8.35105
5.69154
7.89375
8.2449
8.31574
8.32369
8.33894
8.34482
8.3601
8.36706
8.37762
8.38004
8.3844
8.38444
8.38511
8.38318
8.37983
8.37568
8.36982
8.36728
8.38361
5.69992
7.90215
8.25603
8.3315
8.34918
8.37396
8.38604
8.40387
8.40937
8.41766
8.41831
8.42133
8.42055
8.42106
8.41863
8.41745
8.41405
8.41356
8.4097
8.44321
6.01634
8.24352
8.58692
8.64133
8.65687
8.66492
8.66449
8.66034
8.6522
8.64618
8.64091
8.63721
8.63325
8.6292
8.62492
8.62153
8.61699
8.61716
8.61605
8.63306
7.66836
9.66431
9.75715
9.6462
9.62295
9.55803
9.55006
9.50288
9.49914
9.47036
9.47343
9.45501
9.45733
9.4423
9.44372
9.43167
9.43563
9.42222
9.42468
9.47957
0.477182
1.037
1.13629
1.10828
1.03558
0.968958
0.916988
0.879801
0.852738
0.832164
0.817609
0.804342
0.795178
0.785288
0.779075
0.771723
0.767114
0.76277
0.755971
0.76376
0.0856405
0.381885
0.526222
0.588837
0.611302
0.625347
0.632212
0.639528
0.642888
0.646541
0.647516
0.64876
0.6486
0.648488
0.647882
0.647423
0.646509
0.645969
0.644962
0.6478
0.0639853
0.299463
0.416084
0.474794
0.493638
0.507658
0.51107
0.517771
0.520046
0.524888
0.527163
0.531363
0.533798
0.537143
0.539607
0.542225
0.544721
0.547031
0.548701
0.553161
0.0678461
0.303119
0.417355
0.47351
0.491888
0.503637
0.505684
0.509065
0.509345
0.510454
0.510674
0.511473
0.511866
0.512561
0.513256
0.51374
0.514862
0.515342
0.516499
0.519709
0.0659857
0.299124
0.41221
0.46835
0.486243
0.497951
0.499723
0.50284
0.502781
0.503389
0.5031
0.503244
0.502975
0.502866
0.50252
0.50211
0.502002
0.501683
0.501737
0.503652
0.0670258
0.301362
0.414863
0.470787
0.488829
0.500413
0.502345
0.505397
0.505394
0.505968
0.505705
0.505792
0.505511
0.505285
0.504816
0.504201
0.503904
0.503225
0.503099
0.504745
0.0670257
0.301362
0.414863
0.470787
0.488828
0.500413
0.502345
0.505397
0.505394
0.505968
0.505705
0.505792
0.50551
0.505287
0.504815
0.504204
0.503904
0.503226
0.503095
0.504743
0.0659854
0.299124
0.412209
0.46835
0.486243
0.497951
0.499723
0.50284
0.50278
0.503389
0.5031
0.503244
0.502973
0.502867
0.502518
0.502114
0.502
0.501679
0.501733
0.50364
0.0678457
0.30312
0.417355
0.473511
0.491887
0.503638
0.505683
0.509066
0.509344
0.510456
0.510673
0.511475
0.511858
0.512573
0.513239
0.513738
0.514843
0.515334
0.516475
0.519666
0.0639849
0.299464
0.416083
0.474795
0.493637
0.50766
0.511069
0.517773
0.520045
0.524893
0.527151
0.531375
0.533774
0.537165
0.539558
0.54227
0.544641
0.54704
0.548648
0.553064
0.0856402
0.381885
0.526221
0.588838
0.6113
0.625349
0.632208
0.639534
0.642879
0.646554
0.647498
0.648772
0.648576
0.6485
0.647829
0.647453
0.646391
0.646029
0.644815
0.647798
0.477181
1.037
1.13629
1.10828
1.03558
0.968961
0.916985
0.879809
0.85273
0.832185
0.817591
0.804392
0.795139
0.785406
0.778995
0.772
0.766948
0.763433
0.755733
0.7649
0.477182
1.037
1.13629
1.10828
1.03558
0.968958
0.916988
0.879801
0.852738
0.832165
0.817609
0.804342
0.795178
0.785288
0.779075
0.771723
0.767114
0.762769
0.75597
0.76376
0.0856405
0.381885
0.526222
0.588837
0.611302
0.625347
0.632212
0.639528
0.642888
0.646541
0.647516
0.64876
0.6486
0.648488
0.647883
0.647424
0.646509
0.645969
0.644962
0.6478
0.0639853
0.299463
0.416084
0.474794
0.493638
0.507658
0.51107
0.517771
0.520046
0.524888
0.527163
0.531363
0.533798
0.537143
0.539607
0.542225
0.544721
0.547031
0.548701
0.553161
0.067846
0.303119
0.417355
0.473511
0.491888
0.503637
0.505684
0.509065
0.509345
0.510455
0.510674
0.511473
0.511866
0.512561
0.513257
0.51374
0.514862
0.515342
0.516499
0.519709
0.0659857
0.299124
0.41221
0.46835
0.486243
0.497951
0.499723
0.50284
0.502781
0.503389
0.5031
0.503244
0.502976
0.502866
0.50252
0.50211
0.502002
0.501683
0.501737
0.503652
0.0670258
0.301362
0.414863
0.470787
0.488829
0.500413
0.502345
0.505397
0.505394
0.505968
0.505705
0.505792
0.505511
0.505286
0.504817
0.504201
0.503904
0.503225
0.503099
0.504746
0.0670257
0.301362
0.414863
0.470787
0.488829
0.500413
0.502345
0.505397
0.505394
0.505968
0.505705
0.505792
0.50551
0.505287
0.504815
0.504204
0.503904
0.503226
0.503095
0.504743
0.0659854
0.299124
0.412209
0.468351
0.486243
0.497951
0.499723
0.50284
0.50278
0.50339
0.5031
0.503244
0.502973
0.502867
0.502518
0.502114
0.502
0.501679
0.501733
0.50364
0.0678457
0.30312
0.417355
0.473511
0.491887
0.503638
0.505683
0.509066
0.509345
0.510456
0.510673
0.511475
0.511858
0.512573
0.513239
0.513738
0.514843
0.515334
0.516475
0.519666
0.0639848
0.299464
0.416083
0.474795
0.493637
0.50766
0.511069
0.517773
0.520045
0.524893
0.527151
0.531375
0.533774
0.537165
0.539558
0.54227
0.544641
0.54704
0.548648
0.553064
0.0856402
0.381885
0.526221
0.588838
0.6113
0.625349
0.632208
0.639534
0.642879
0.646554
0.647498
0.648771
0.648575
0.6485
0.647829
0.647453
0.646391
0.646029
0.644815
0.647798
0.477181
1.037
1.13629
1.10828
1.03558
0.968961
0.916985
0.879809
0.85273
0.832184
0.81759
0.804392
0.795138
0.785406
0.778995
0.772
0.766948
0.763434
0.755733
0.7649
7.66836
9.66431
9.75715
9.6462
9.62296
9.55801
9.55008
9.50285
9.49919
9.47028
9.47355
9.4548
9.45763
9.44176
9.44452
9.43023
9.43783
9.41791
9.43144
9.46757
6.01634
8.24351
8.58692
8.64132
8.65688
8.66491
8.66451
8.6603
8.65226
8.64608
8.64106
8.63697
8.63364
8.6286
8.62588
8.61996
8.61927
8.61373
8.62192
8.62504
5.69992
7.90215
8.25603
8.33149
8.3492
8.37394
8.38607
8.40383
8.40943
8.41758
8.41839
8.42121
8.42082
8.42076
8.41932
8.4162
8.41561
8.4114
8.41253
8.44069
5.69155
7.89375
8.2449
8.31574
8.3237
8.33892
8.34483
8.36008
8.3671
8.37756
8.3801
8.3843
8.38461
8.38496
8.38351
8.37917
8.37642
8.36892
8.36835
8.38302
5.67965
7.87832
8.22961
8.30231
8.30872
8.32205
8.32513
8.33783
8.34356
8.35431
8.35639
8.36078
8.36067
8.36154
8.35981
8.35592
8.3501
8.34256
8.33601
8.35101
5.68595
7.88642
8.23688
8.30925
8.3154
8.32845
8.33111
8.34339
8.34889
8.35978
8.36182
8.36635
8.36623
8.36746
8.36601
8.36257
8.35611
8.348
8.33835
8.35154
5.68595
7.88642
8.23688
8.30925
8.3154
8.32845
8.33111
8.3434
8.34888
8.35978
8.36182
8.36636
8.36621
8.36748
8.36599
8.36261
8.35607
8.34802
8.33838
8.35151
5.67965
7.87832
8.22961
8.30232
8.30872
8.32206
8.32513
8.33784
8.34354
8.35434
8.35637
8.36081
8.3606
8.36161
8.35968
8.35616
8.34983
8.34285
8.33575
8.35104
5.69154
7.89375
8.2449
8.31574
8.32369
8.33894
8.34482
8.3601
8.36706
8.37762
8.38004
8.3844
8.38444
8.38511
8.38318
8.37982
8.37567
8.36981
8.36727
8.38361
5.69992
7.90215
8.25603
8.3315
8.34918
8.37396
8.38604
8.40387
8.40937
8.41766
8.41831
8.42133
8.42054
8.42105
8.41862
8.41745
8.41404
8.41356
8.4097
8.44321
6.01634
8.24352
8.58692
8.64133
8.65687
8.66493
8.66449
8.66034
8.6522
8.64618
8.64091
8.63721
8.63325
8.6292
8.62492
8.62153
8.61698
8.61715
8.61605
8.63306
7.66836
9.66431
9.75715
9.6462
9.62296
9.55803
9.55006
9.50288
9.49914
9.47036
9.47342
9.45501
9.45733
9.44229
9.44372
9.43167
9.43563
9.42222
9.42468
9.47957
51.9861
56.4225
56.472
56.6118
56.603
56.6611
56.5904
56.5795
56.5029
56.5054
56.4674
56.4814
56.453
56.4543
56.4315
56.4219
56.4299
56.3841
56.5142
56.5668
13.8335
14.0066
13.4357
12.9002
12.6531
12.5649
12.4805
12.4523
12.4002
12.3871
12.3549
12.3498
12.3297
12.3259
12.3131
12.3082
12.3038
12.2932
12.4684
12.4945
8.08341
9.22439
9.34676
9.33642
9.305
9.30392
9.29075
9.29256
9.28042
9.27799
9.26354
9.25986
9.24688
9.24257
9.23048
9.22487
9.21525
9.20861
9.21232
9.2361
7.48189
8.75669
9.01315
9.10958
9.13884
9.17997
9.19386
9.22438
9.23332
9.25272
9.25464
9.26337
9.26167
9.2652
9.26079
9.25972
9.25219
9.24856
9.24425
9.26384
7.41697
8.70317
8.97277
9.08565
9.12765
9.18159
9.20558
9.24939
9.26899
9.30308
9.315
9.33789
9.34444
9.35963
9.36247
9.36979
9.36795
9.3689
9.36637
9.38589
7.42384
8.69971
8.96774
9.08233
9.12799
9.1865
9.21534
9.26472
9.28993
9.3306
9.34829
9.37815
9.38984
9.41228
9.41999
9.4341
9.43596
9.44066
9.44164
9.46057
7.42384
8.69971
8.96774
9.08233
9.12799
9.1865
9.21534
9.26473
9.28993
9.33061
9.34828
9.37817
9.38982
9.41231
9.41997
9.43415
9.43595
9.44073
9.44169
9.46065
7.41697
8.70317
8.97276
9.08566
9.12764
9.1816
9.20556
9.24941
9.26896
9.30312
9.31497
9.33795
9.3444
9.35972
9.36239
9.36992
9.36781
9.36914
9.3664
9.38623
7.48189
8.75669
9.01315
9.10959
9.13883
9.17998
9.19385
9.22441
9.2333
9.25277
9.25458
9.26346
9.26151
9.26541
9.2604
9.26011
9.25154
9.24976
9.24351
9.26482
8.0834
9.22439
9.34675
9.33642
9.30499
9.30393
9.29074
9.29259
9.28037
9.27804
9.26343
9.25999
9.24661
9.2429
9.2298
9.22592
9.21341
9.21177
9.20955
9.23948
13.8335
14.0066
13.4357
12.9002
12.6531
12.5649
12.4805
12.4524
12.4001
12.3872
12.3547
12.3501
12.3293
12.3265
12.312
12.3101
12.3005
12.2987
12.4566
12.5066
51.9861
56.4226
56.4719
56.6119
56.603
56.6612
56.5903
56.5797
56.5026
56.5058
56.4665
56.4826
56.451
56.4576
56.4261
56.4306
56.4149
56.4101
56.4651
56.6509
144.269
146.652
147.709
148.494
149.092
149.703
150.211
150.671
150.985
151.229
151.366
151.472
151.519
151.564
151.577
151.599
151.601
151.615
151.615
151.626
151.625
151.634
151.632
151.64
151.637
151.644
151.641
151.646
151.643
151.647
151.644
151.647
151.644
151.646
151.642
151.645
151.641
151.642
151.638
151.639
151.635
151.636
151.632
151.633
151.629
151.629
151.625
151.625
151.621
151.621
151.617
151.616
151.612
151.612
151.608
151.607
151.603
151.602
151.598
151.597
151.593
151.592
151.588
151.586
151.582
151.581
151.577
151.575
151.571
151.569
151.565
151.563
151.559
151.557
151.553
151.551
151.546
151.544
151.539
151.537
151.532
151.529
151.526
151.518
151.522
151.503
151.519
151.489
151.472
151.438
47.3687
49.283
49.6325
49.9149
50.0955
50.3196
50.4792
50.6557
50.7563
50.8603
50.9034
50.9589
50.9729
51.0056
51.0091
51.0324
51.0331
51.0527
51.0529
51.0706
51.0709
51.0872
51.0877
51.1027
51.1033
51.1173
51.118
51.1311
51.1318
51.144
51.1448
51.1563
51.1571
51.168
51.1688
51.1791
51.1799
51.1896
51.1905
51.1998
51.2006
51.2095
51.2103
51.2187
51.2196
51.2276
51.2284
51.236
51.2369
51.2441
51.2449
51.2518
51.2525
51.2591
51.2598
51.266
51.2667
51.2726
51.2731
51.2787
51.2792
51.2845
51.2849
51.2899
51.2902
51.2949
51.2951
51.2996
51.2996
51.3038
51.3037
51.3077
51.3074
51.3112
51.3107
51.3142
51.3136
51.3168
51.316
51.3189
51.3181
51.3204
51.3198
51.3206
51.3219
51.319
51.3238
51.3182
51.3054
51.2942
30.5648
32.7113
32.954
33.153
33.2387
33.3875
33.4726
33.6084
33.6734
33.7679
33.7976
33.8551
33.8641
33.9013
33.9028
33.9315
33.9309
33.9561
33.9555
33.9788
33.9788
34.0007
34.0014
34.0221
34.0232
34.0428
34.0443
34.0631
34.0649
34.0828
34.0849
34.1021
34.1044
34.1208
34.1233
34.1392
34.1418
34.1571
34.1599
34.1746
34.1775
34.1917
34.1947
34.2084
34.2115
34.2247
34.2278
34.2405
34.2436
34.2558
34.2589
34.2707
34.2738
34.2851
34.2881
34.299
34.3019
34.3124
34.3153
34.3253
34.328
34.3377
34.3403
34.3495
34.3519
34.3608
34.3631
34.3716
34.3736
34.3818
34.3836
34.3914
34.393
34.4004
34.4018
34.4088
34.41
34.4166
34.4175
34.4236
34.4244
34.4299
34.4307
34.4351
34.4368
34.439
34.4421
34.4431
34.4408
34.4205
28.3322
30.8705
31.1335
31.3249
31.3773
31.4956
31.5533
31.6829
31.7452
31.8507
31.8837
31.9508
31.9612
32.0042
32.0053
32.0377
32.0359
32.0639
32.062
32.0878
32.0867
32.111
32.1107
32.1338
32.1341
32.1561
32.157
32.178
32.1794
32.1996
32.2013
32.2207
32.2228
32.2415
32.244
32.262
32.2647
32.2821
32.285
32.3019
32.305
32.3214
32.3247
32.3405
32.3439
32.3592
32.3627
32.3775
32.3811
32.3955
32.3991
32.4129
32.4166
32.43
32.4336
32.4466
32.4501
32.4627
32.4661
32.4782
32.4816
32.4933
32.4966
32.5078
32.511
32.5218
32.5248
32.5353
32.5381
32.5481
32.5508
32.5604
32.5628
32.5721
32.5742
32.5831
32.585
32.5934
32.5951
32.603
32.6045
32.6118
32.6134
32.6196
32.6217
32.6266
32.629
32.6334
32.6351
32.6119
28.1683
30.942
31.2288
31.4239
31.4548
31.5485
31.5837
31.7029
31.7634
31.8773
31.9138
31.989
32.0014
32.049
32.0502
32.0852
32.0827
32.1124
32.1096
32.1368
32.1348
32.1604
32.1592
32.1835
32.1831
32.2063
32.2065
32.2287
32.2295
32.2508
32.2521
32.2725
32.2742
32.2939
32.296
32.315
32.3174
32.3358
32.3385
32.3563
32.3593
32.3765
32.3797
32.3964
32.3997
32.4159
32.4194
32.4351
32.4387
32.4539
32.4576
32.4724
32.4761
32.4904
32.4941
32.5079
32.5116
32.5251
32.5287
32.5417
32.5453
32.5579
32.5614
32.5736
32.577
32.5888
32.592
32.6034
32.6065
32.6175
32.6205
32.631
32.6338
32.644
32.6466
32.6563
32.6587
32.668
32.6701
32.679
32.6809
32.6892
32.6912
32.6984
32.7007
32.7071
32.709
32.715
32.7186
32.6918
28.2543
31.1702
31.4686
31.6591
31.6719
31.7432
31.7585
31.8627
31.9185
32.0326
32.0701
32.1482
32.1616
32.2111
32.2124
32.2483
32.2455
32.2757
32.2723
32.2999
32.2973
32.3233
32.3216
32.3463
32.3454
32.3689
32.3688
32.3913
32.3918
32.4133
32.4144
32.4351
32.4366
32.4566
32.4585
32.4777
32.48
32.4986
32.5012
32.5193
32.5221
32.5396
32.5427
32.5597
32.5629
32.5794
32.5828
32.5988
32.6023
32.6179
32.6215
32.6365
32.6402
32.6548
32.6585
32.6727
32.6764
32.6902
32.6938
32.7072
32.7108
32.7237
32.7273
32.7398
32.7433
32.7554
32.7588
32.7705
32.7738
32.7851
32.7882
32.7992
32.8021
32.8127
32.8154
32.8256
32.8281
32.8379
32.8402
32.8495
32.8517
32.8603
32.8625
32.8704
32.8726
32.88
32.8817
32.8883
32.8931
32.8652
28.2559
31.1598
31.4387
31.6072
31.6013
31.6552
31.6561
31.7474
31.7961
31.9039
31.9389
32.0149
32.0275
32.0764
32.0775
32.1132
32.1103
32.1403
32.1369
32.1643
32.1617
32.1875
32.1858
32.2104
32.2095
32.2329
32.2327
32.2551
32.2556
32.2771
32.2781
32.2987
32.3002
32.32
32.3219
32.3411
32.3433
32.3619
32.3644
32.3824
32.3852
32.4027
32.4057
32.4227
32.4259
32.4423
32.4457
32.4617
32.4651
32.4806
32.4842
32.4992
32.5029
32.5174
32.5211
32.5352
32.5389
32.5526
32.5563
32.5696
32.5732
32.5861
32.5896
32.6021
32.6056
32.6176
32.621
32.6327
32.6359
32.6472
32.6503
32.6613
32.6642
32.6747
32.6774
32.6876
32.6901
32.6999
32.7022
32.7114
32.7136
32.7223
32.7244
32.7324
32.7343
32.742
32.7433
32.7501
32.7552
32.7279
28.1708
30.8988
31.1216
31.2496
31.225
31.2665
31.2612
31.3442
31.385
31.4822
31.5118
31.5812
31.5917
31.6376
31.6383
31.6727
31.67
31.6992
31.6962
31.7231
31.7209
31.7462
31.7448
31.7688
31.7683
31.7912
31.7913
31.8132
31.8139
31.8349
31.8361
31.8563
31.858
31.8774
31.8794
31.8982
31.9005
31.9187
31.9213
31.9389
31.9418
31.9588
31.9619
31.9784
31.9817
31.9977
32.0011
32.0167
32.0202
32.0353
32.0388
32.0534
32.0571
32.0712
32.0749
32.0886
32.0923
32.1055
32.1091
32.122
32.1256
32.138
32.1415
32.1535
32.1569
32.1685
32.1718
32.183
32.1861
32.197
32.1999
32.2104
32.2131
32.2232
32.2258
32.2355
32.2378
32.2471
32.2491
32.258
32.2598
32.2681
32.2699
32.2775
32.279
32.2864
32.2871
32.2938
32.2975
32.2722
28.3131
30.739
30.884
30.9646
30.9276
30.9632
30.9606
31.0374
31.0718
31.1554
31.1787
31.2383
31.2462
31.287
31.2873
31.3188
31.3167
31.344
31.3419
31.3671
31.3657
31.3896
31.389
31.4116
31.4117
31.4333
31.434
31.4546
31.4558
31.4756
31.4772
31.4963
31.4982
31.5166
31.5188
31.5366
31.5391
31.5562
31.559
31.5756
31.5786
31.5947
31.5978
31.6134
31.6167
31.6318
31.6352
31.6497
31.6532
31.6673
31.6708
31.6845
31.688
31.7012
31.7047
31.7175
31.721
31.7333
31.7367
31.7486
31.752
31.7635
31.7667
31.7778
31.7808
31.7915
31.7945
31.8048
31.8075
31.8174
31.82
31.8295
31.8319
31.841
31.8432
31.8519
31.8538
31.8621
31.8638
31.8716
31.873
31.8804
31.8816
31.8884
31.8893
31.8958
31.8959
31.9021
31.9035
31.8823
30.4522
32.3675
32.4245
32.467
32.4285
32.4678
32.4761
32.5508
32.582
32.6532
32.6718
32.7216
32.7278
32.7628
32.7634
32.7911
32.7901
32.8145
32.8137
32.8363
32.836
32.8573
32.8577
32.8779
32.8787
32.8979
32.8992
32.9175
32.9191
32.9366
32.9385
32.9553
32.9574
32.9736
32.9759
32.9914
32.9939
33.0089
33.0116
33.026
33.0288
33.0427
33.0456
33.059
33.0619
33.0749
33.0779
33.0904
33.0934
33.1054
33.1084
33.12
33.1229
33.1341
33.137
33.1477
33.1506
33.1609
33.1636
33.1736
33.1762
33.1857
33.1882
33.1973
33.1997
33.2084
33.2106
33.219
33.221
33.229
33.2308
33.2385
33.2401
33.2473
33.2487
33.2556
33.2568
33.2633
33.2642
33.2703
33.2709
33.2765
33.277
33.2821
33.2822
33.2869
33.2862
33.2912
33.2877
33.2695
46.931
48.3505
48.3634
48.3794
48.3462
48.3962
48.4309
48.5201
48.568
48.6404
48.6672
48.7135
48.7236
48.7536
48.7561
48.7783
48.7785
48.7973
48.7973
48.8143
48.8144
48.8301
48.8304
48.845
48.8454
48.859
48.8595
48.8722
48.8728
48.8847
48.8853
48.8966
48.8973
48.9079
48.9086
48.9187
48.9194
48.929
48.9298
48.9388
48.9396
48.9483
48.9491
48.9574
48.9582
48.966
48.9668
48.9743
48.9751
48.9822
48.9829
48.9897
48.9904
48.9968
48.9975
49.0036
49.0042
49.01
49.0106
49.0161
49.0165
49.0217
49.0221
49.027
49.0273
49.0319
49.0321
49.0365
49.0365
49.0406
49.0405
49.0444
49.0441
49.0478
49.0473
49.0507
49.0501
49.0533
49.0525
49.0553
49.0544
49.0568
49.0558
49.0577
49.0565
49.0581
49.0559
49.0585
49.0408
49.0319
142.502
143.345
143.379
143.357
143.303
143.397
143.528
143.73
143.886
144.038
144.127
144.207
144.243
144.281
144.291
144.311
144.312
144.325
144.324
144.334
144.332
144.341
144.339
144.346
144.343
144.349
144.346
144.351
144.347
144.351
144.348
144.351
144.347
144.349
144.345
144.347
144.343
144.345
144.341
144.342
144.338
144.338
144.334
144.335
144.33
144.331
144.326
144.326
144.322
144.322
144.318
144.317
144.313
144.313
144.309
144.308
144.304
144.303
144.299
144.297
144.293
144.292
144.288
144.287
144.282
144.281
144.277
144.275
144.271
144.269
144.265
144.263
144.258
144.256
144.252
144.25
144.245
144.243
144.238
144.236
144.231
144.228
144.223
144.219
144.215
144.211
144.204
144.202
144.168
144.14
30.2521
31.1078
31.3405
31.5006
31.6378
31.7724
31.8868
31.9887
32.0573
32.1149
32.1457
32.1763
32.1888
32.208
32.2134
32.2282
32.2312
32.2443
32.2465
32.2586
32.2605
32.2718
32.2733
32.2839
32.2852
32.2951
32.2961
32.3054
32.3063
32.3149
32.3157
32.3238
32.3244
32.332
32.3326
32.3398
32.3403
32.347
32.3475
32.3539
32.3544
32.3604
32.3608
32.3666
32.367
32.3724
32.3728
32.3779
32.3783
32.3832
32.3835
32.3881
32.3884
32.3928
32.3931
32.3972
32.3975
32.4014
32.4016
32.4053
32.4054
32.409
32.4091
32.4124
32.4124
32.4156
32.4155
32.4186
32.4184
32.4213
32.4211
32.4238
32.4236
32.4262
32.4258
32.4283
32.4278
32.4302
32.4297
32.4319
32.4314
32.4334
32.4332
32.4345
32.4357
32.435
32.4391
32.4368
32.4362
32.435
28.0521
29.4715
29.7042
29.8563
29.9755
30.0962
30.1991
30.2939
30.3587
30.4117
30.4401
30.4653
30.475
30.4879
30.4904
30.4986
30.4991
30.5058
30.5058
30.512
30.512
30.5179
30.518
30.5236
30.5237
30.5291
30.5293
30.5345
30.5347
30.5397
30.54
30.5448
30.5451
30.5497
30.5501
30.5546
30.555
30.5593
30.5598
30.5639
30.5644
30.5683
30.5689
30.5727
30.5732
30.5769
30.5775
30.5809
30.5815
30.5849
30.5855
30.5887
30.5892
30.5923
30.5928
30.5957
30.5962
30.599
30.5995
30.6022
30.6026
30.6051
30.6055
30.6079
30.6082
30.6105
30.6107
30.6129
30.6131
30.6151
30.6152
30.6171
30.6172
30.619
30.6189
30.6206
30.6205
30.6221
30.6219
30.6234
30.6231
30.6244
30.6244
30.625
30.626
30.6247
30.6279
30.625
30.6272
30.6275
25.8248
27.7408
28.0046
28.1447
28.2424
28.3376
28.4271
28.5145
28.5826
28.6366
28.6698
28.6941
28.7057
28.7153
28.7178
28.7215
28.7211
28.7231
28.7219
28.7235
28.7222
28.7237
28.7225
28.7238
28.7227
28.724
28.7229
28.7242
28.7232
28.7244
28.7234
28.7246
28.7238
28.7249
28.7241
28.7252
28.7245
28.7255
28.7249
28.7259
28.7254
28.7264
28.7259
28.7268
28.7264
28.7273
28.7269
28.7278
28.7274
28.7283
28.728
28.7288
28.7285
28.7293
28.729
28.7298
28.7296
28.7303
28.7301
28.7308
28.7305
28.7312
28.731
28.7316
28.7314
28.732
28.7317
28.7323
28.732
28.7326
28.7323
28.7328
28.7325
28.733
28.7327
28.7331
28.7328
28.7332
28.7328
28.7332
28.7328
28.7329
28.7329
28.7323
28.7331
28.7312
28.7332
28.7306
28.7308
28.7093
25.0755
27.2391
27.5193
27.6492
27.7239
27.7929
27.8658
27.9483
28.0211
28.0825
28.124
28.1536
28.1699
28.1811
28.1856
28.1892
28.1894
28.1905
28.1895
28.1899
28.1887
28.189
28.1877
28.1879
28.1867
28.1868
28.1856
28.1857
28.1846
28.1846
28.1835
28.1835
28.1824
28.1824
28.1814
28.1814
28.1803
28.1803
28.1793
28.1793
28.1784
28.1783
28.1774
28.1774
28.1765
28.1765
28.1757
28.1757
28.1749
28.1748
28.1741
28.174
28.1733
28.1733
28.1726
28.1725
28.1718
28.1718
28.1711
28.1711
28.1704
28.1704
28.1697
28.1697
28.1691
28.169
28.1684
28.1683
28.1677
28.1676
28.167
28.1669
28.1663
28.1663
28.1656
28.1655
28.1649
28.1648
28.1642
28.1641
28.1635
28.1631
28.1629
28.1619
28.1624
28.1605
28.1615
28.1599
28.1593
28.142
24.6185
26.9396
27.2218
27.3386
27.3892
27.4308
27.4824
27.5548
27.6271
27.6931
27.7403
27.775
27.7953
27.8092
27.8156
27.82
27.821
27.8222
27.8217
27.8221
27.8212
27.8214
27.8205
27.8206
27.8197
27.8198
27.8188
27.8189
27.818
27.818
27.8171
27.8171
27.8162
27.8162
27.8152
27.8152
27.8143
27.8143
27.8134
27.8134
27.8126
27.8125
27.8117
27.8116
27.8108
27.8108
27.81
27.8099
27.8092
27.8091
27.8084
27.8083
27.8076
27.8075
27.8068
27.8067
27.8061
27.8059
27.8053
27.8052
27.8045
27.8044
27.8037
27.8036
27.803
27.8028
27.8022
27.8021
27.8014
27.8013
27.8006
27.8005
27.7998
27.7997
27.799
27.7988
27.7982
27.798
27.7973
27.7971
27.7965
27.796
27.7958
27.7947
27.7949
27.7935
27.7935
27.7926
27.7915
27.7673
24.5223
26.8817
27.1494
27.2472
27.2751
27.2924
27.3237
27.3833
27.4508
27.516
27.5648
27.6015
27.6236
27.6389
27.6463
27.6517
27.6531
27.6548
27.6545
27.6553
27.6546
27.6552
27.6544
27.6548
27.6541
27.6545
27.6537
27.654
27.6532
27.6535
27.6527
27.653
27.6522
27.6524
27.6517
27.6518
27.6511
27.6512
27.6505
27.6506
27.6499
27.65
27.6494
27.6494
27.6488
27.6488
27.6482
27.6482
27.6476
27.6476
27.647
27.647
27.6464
27.6464
27.6458
27.6458
27.6452
27.6452
27.6446
27.6446
27.644
27.6439
27.6433
27.6433
27.6427
27.6426
27.642
27.6419
27.6413
27.6412
27.6406
27.6405
27.6398
27.6397
27.6391
27.6389
27.6383
27.6381
27.6375
27.6372
27.6367
27.6362
27.6359
27.635
27.635
27.634
27.6335
27.6331
27.6319
27.6096
24.5224
26.8695
27.1181
27.1951
27.2048
27.2064
27.2229
27.2714
27.3321
27.3925
27.4384
27.4735
27.4948
27.5097
27.5169
27.5222
27.5235
27.5253
27.525
27.5257
27.525
27.5255
27.5248
27.5252
27.5244
27.5248
27.524
27.5243
27.5235
27.5238
27.523
27.5233
27.5225
27.5227
27.522
27.5221
27.5214
27.5215
27.5208
27.5209
27.5202
27.5203
27.5196
27.5197
27.5191
27.5191
27.5185
27.5185
27.5179
27.5179
27.5173
27.5173
27.5167
27.5167
27.5161
27.5161
27.5155
27.5155
27.5149
27.5149
27.5143
27.5142
27.5136
27.5136
27.513
27.5129
27.5123
27.5122
27.5116
27.5115
27.5109
27.5107
27.5101
27.51
27.5094
27.5092
27.5086
27.5084
27.5078
27.5075
27.507
27.5065
27.5062
27.5054
27.5052
27.5045
27.5036
27.5035
27.5023
27.4802
24.6179
26.8939
27.1159
27.1712
27.1684
27.163
27.1749
27.2169
27.2698
27.3225
27.3622
27.3926
27.4108
27.4237
27.4296
27.434
27.4349
27.436
27.4354
27.4358
27.4348
27.4351
27.4341
27.4342
27.4332
27.4334
27.4324
27.4325
27.4315
27.4315
27.4306
27.4306
27.4297
27.4297
27.4287
27.4287
27.4278
27.4278
27.4269
27.4269
27.426
27.426
27.4252
27.4251
27.4243
27.4243
27.4235
27.4234
27.4227
27.4226
27.4219
27.4218
27.4211
27.421
27.4203
27.4202
27.4196
27.4195
27.4188
27.4187
27.418
27.4179
27.4173
27.4171
27.4165
27.4164
27.4157
27.4156
27.4149
27.4148
27.4142
27.414
27.4134
27.4132
27.4126
27.4124
27.4117
27.4116
27.4109
27.4107
27.4101
27.4097
27.4093
27.4086
27.4082
27.4077
27.4066
27.4064
27.4055
27.3818
25.0545
27.1121
27.281
27.3099
27.2992
27.2948
27.3085
27.3477
27.3923
27.4356
27.4669
27.4909
27.5044
27.5143
27.5182
27.5214
27.5215
27.5224
27.5214
27.5217
27.5204
27.5206
27.5194
27.5195
27.5182
27.5183
27.5171
27.5172
27.516
27.516
27.5148
27.5148
27.5137
27.5137
27.5126
27.5126
27.5116
27.5115
27.5105
27.5105
27.5096
27.5095
27.5086
27.5086
27.5077
27.5077
27.5068
27.5068
27.506
27.5059
27.5052
27.5051
27.5044
27.5044
27.5036
27.5036
27.5029
27.5029
27.5022
27.5021
27.5015
27.5014
27.5008
27.5007
27.5001
27.5001
27.4994
27.4994
27.4988
27.4987
27.4981
27.498
27.4974
27.4973
27.4967
27.4966
27.496
27.4959
27.4953
27.4951
27.4946
27.4943
27.4938
27.4934
27.4929
27.4926
27.4915
27.4916
27.4905
27.4738
25.7408
27.4619
27.5652
27.5719
27.5595
27.563
27.5827
27.6211
27.6577
27.6926
27.7154
27.734
27.743
27.7511
27.753
27.7564
27.7558
27.7575
27.7563
27.7577
27.7563
27.7576
27.7564
27.7576
27.7564
27.7576
27.7565
27.7576
27.7566
27.7577
27.7567
27.7578
27.7569
27.758
27.7572
27.7582
27.7575
27.7584
27.7578
27.7588
27.7581
27.7591
27.7586
27.7595
27.759
27.7599
27.7594
27.7603
27.7599
27.7608
27.7604
27.7612
27.7609
27.7617
27.7614
27.7621
27.7618
27.7626
27.7623
27.763
27.7627
27.7634
27.7631
27.7637
27.7635
27.7641
27.7638
27.7644
27.7641
27.7646
27.7643
27.7648
27.7645
27.765
27.7646
27.7651
27.7647
27.7651
27.7647
27.7651
27.7646
27.7649
27.7645
27.7647
27.7642
27.7644
27.7634
27.764
27.7633
27.7429
27.8197
28.9493
28.98
28.9735
28.9636
28.9805
29.0081
29.0512
29.084
29.1183
29.1368
29.1568
29.164
29.1755
29.1774
29.185
29.1853
29.1916
29.1915
29.1974
29.1972
29.2028
29.2027
29.2081
29.2081
29.2133
29.2134
29.2184
29.2185
29.2233
29.2235
29.2281
29.2284
29.2328
29.2332
29.2374
29.2378
29.2419
29.2424
29.2463
29.2468
29.2506
29.2511
29.2548
29.2553
29.2588
29.2594
29.2628
29.2633
29.2666
29.2671
29.2702
29.2707
29.2737
29.2742
29.277
29.2775
29.2802
29.2806
29.2832
29.2836
29.2861
29.2864
29.2888
29.289
29.2913
29.2915
29.2936
29.2937
29.2957
29.2958
29.2977
29.2977
29.2994
29.2994
29.301
29.3009
29.3025
29.3022
29.3037
29.3034
29.3048
29.3044
29.3056
29.3052
29.3066
29.3056
29.3076
29.3067
29.3083
29.8454
30.3628
30.3766
30.3663
30.3654
30.3912
30.4272
30.4763
30.5127
30.5517
30.5728
30.5983
30.6083
30.626
30.6307
30.6448
30.6476
30.6601
30.6622
30.6738
30.6755
30.6865
30.6878
30.6981
30.6992
30.7088
30.7097
30.7187
30.7195
30.7279
30.7286
30.7365
30.7371
30.7445
30.745
30.752
30.7524
30.759
30.7595
30.7657
30.7661
30.772
30.7724
30.778
30.7784
30.7837
30.784
30.7891
30.7894
30.7941
30.7944
30.799
30.7992
30.8035
30.8037
30.8078
30.808
30.8119
30.812
30.8157
30.8157
30.8192
30.8192
30.8225
30.8225
30.8256
30.8255
30.8285
30.8283
30.8311
30.8309
30.8335
30.8332
30.8357
30.8354
30.8378
30.8373
30.8396
30.839
30.8412
30.8406
30.8427
30.8421
30.8442
30.8437
30.8459
30.8451
30.8489
30.8436
30.8439
3.67159
3.89688
3.92731
3.9442
3.97026
3.99565
4.01998
4.04472
4.06196
4.08335
4.09509
4.11448
4.12312
4.14144
4.14828
4.16587
4.17158
4.18855
4.19348
4.20982
4.21417
4.22986
4.23379
4.24883
4.25246
4.26688
4.27029
4.28411
4.28737
4.30062
4.30377
4.31649
4.31957
4.3318
4.33483
4.34659
4.3496
4.36091
4.36391
4.3748
4.37778
4.38828
4.39124
4.40136
4.40429
4.41404
4.41693
4.42632
4.42916
4.4382
4.44098
4.44968
4.45239