/*--------------------------------*- C++ -*----------------------------------*\
  =========                 |
  \\      /  F ield         | OpenFOAM: The Open Source CFD Toolbox
   \\    /   O peration     | Website:  https://openfoam.org
    \\  /    A nd           | Version:  7
     \\/     M anipulation  |
\*---------------------------------------------------------------------------*/
FoamFile
{
    version     2.0;
    format      ascii;
    class       surfaceScalarField;
    location    "0.94";
    object      phi;
}
// * * * * * * * * * * * * * * * * * * * * * * * * * * * * * * * * * * * * * //

dimensions      [1 0 -1 0 0 0 0];

internalField   nonuniform List<scalar> 
3120
(
2.11353e-08
3.4833e-08
7.50121e-09
1.36519e-08
1.74767e-09
5.76964e-09
-7.46879e-10
2.5066e-09
-1.82258e-09
1.08492e-09
-2.24914e-09
4.33906e-10
-2.38087e-09
1.37796e-10
-2.37943e-09
3.6714e-12
-2.31957e-09
-5.54658e-11
-2.23391e-09
-8.18633e-11
-2.1362e-09
-9.44317e-11
-2.03478e-09
-9.86068e-11
-1.93546e-09
-9.691e-11
-1.83945e-09
-9.39545e-11
-1.74762e-09
-9.00638e-11
-1.66035e-09
-8.57584e-11
-1.57742e-09
-8.16202e-11
-1.49855e-09
-7.77246e-11
-1.42315e-09
-7.43774e-11
-1.35073e-09
-7.14996e-11
-1.28069e-09
-6.92076e-11
-1.21252e-09
-6.74098e-11
-1.1457e-09
-6.61362e-11
-1.07984e-09
-6.52573e-11
-1.01451e-09
-6.47956e-11
-9.49522e-10
-6.45348e-11
-8.84484e-10
-6.46641e-11
-8.19139e-10
-6.50556e-11
-7.5319e-10
-6.57602e-11
-6.86253e-10
-6.68957e-11
-6.17774e-10
-6.87078e-11
-5.46953e-10
-7.15822e-11
-4.72419e-10
-7.62337e-11
-3.91564e-10
-8.37778e-11
-2.98512e-10
-9.63363e-11
-1.79256e-10
-1.18565e-10
-1.68744e-12
-1.61127e-10
2.98922e-10
-2.47864e-10
7.71871e-10
-4.26197e-10
-1.19822e-09
4.09945e-08
4.76991e-08
2.63709e-08
2.82978e-08
1.60021e-08
1.61564e-08
9.32594e-09
9.19549e-09
5.19196e-09
5.2284e-09
2.62278e-09
3.01044e-09
9.98977e-10
1.76751e-09
-4.22612e-11
1.04986e-09
-7.11987e-10
6.18511e-10
-1.13808e-09
3.47909e-10
-1.40099e-09
1.71668e-10
-1.55151e-09
5.46461e-11
-1.62272e-09
-2.33675e-11
-1.63791e-09
-7.68003e-11
-1.61418e-09
-1.12129e-10
-1.56318e-09
-1.35356e-10
-1.4922e-09
-1.51404e-10
-1.40675e-09
-1.6214e-10
-1.31056e-09
-1.69661e-10
-1.20593e-09
-1.75321e-10
-1.09441e-09
-1.80011e-10
-9.77006e-10
-1.84161e-10
-8.54549e-10
-1.88015e-10
-7.27585e-10
-1.91713e-10
-5.96727e-10
-1.95217e-10
-4.62175e-10
-1.98727e-10
-3.24685e-10
-2.01876e-10
-1.84658e-10
-2.04892e-10
-4.24927e-11
-2.07836e-10
1.01449e-10
-2.10891e-10
2.46841e-10
-2.1441e-10
3.93481e-10
-2.19033e-10
5.41304e-10
-2.25765e-10
6.90743e-10
-2.36181e-10
8.43218e-10
-2.52558e-10
1.00144e-09
-2.78207e-10
1.16872e-09
-3.19049e-10
1.34529e-09
-3.88373e-10
1.50757e-09
-5.13011e-10
-8.10905e-10
4.72064e-08
5.76048e-08
3.7349e-08
3.81679e-08
2.79167e-08
2.55994e-08
2.01849e-08
1.69356e-08
1.43229e-08
1.10967e-08
1.0019e-08
7.319e-09
6.89869e-09
4.89157e-09
4.64833e-09
3.30336e-09
3.03092e-09
2.23869e-09
1.8729e-09
1.50841e-09
1.04917e-09
9.97579e-10
4.70406e-10
6.3528e-10
7.2536e-11
3.76069e-10
-1.92511e-10
1.89529e-10
-3.58489e-10
5.48789e-11
-4.51046e-10
-4.19747e-11
-4.85603e-10
-1.16185e-10
-4.76316e-10
-1.70884e-10
-4.32494e-10
-2.13023e-10
-3.60788e-10
-2.46625e-10
-2.66187e-10
-2.74251e-10
-1.52377e-10
-2.97643e-10
-2.21965e-11
-3.17901e-10
1.21994e-10
-3.35647e-10
2.78228e-10
-3.51236e-10
4.44601e-10
-3.64936e-10
6.19649e-10
-3.76815e-10
8.01853e-10
-3.87051e-10
9.89822e-10
-3.95835e-10
1.18225e-09
-4.03453e-10
1.37787e-09
-4.10367e-10
1.57541e-09
-4.17303e-10
1.77349e-09
-4.2532e-10
1.97055e-09
-4.35877e-10
2.165e-09
-4.50745e-10
2.35535e-09
-4.71763e-10
2.5397e-09
-5.01166e-10
2.71162e-09
-5.438e-10
2.84646e-09
-6.07362e-10
-7.0039e-10
5.16669e-08
6.02037e-08
4.50374e-08
4.48051e-08
3.74478e-08
3.31952e-08
3.00421e-08
2.43459e-08
2.35415e-08
1.76003e-08
1.81846e-08
1.26777e-08
1.39299e-08
9.14762e-09
1.06255e-08
6.60898e-09
8.09494e-09
4.77056e-09
6.17459e-09
3.43006e-09
4.72723e-09
2.44615e-09
3.64361e-09
1.71996e-09
2.83884e-09
1.1817e-09
2.24788e-09
7.81135e-10
1.82159e-09
4.81614e-10
1.52403e-09
2.55873e-10
1.32441e-09
8.36006e-11
1.20335e-09
-4.97342e-11
1.14656e-09
-1.56176e-10
1.14176e-09
-2.4179e-10
1.18019e-09
-3.12641e-10
1.25465e-09
-3.72059e-10
1.35968e-09
-4.22889e-10
1.4908e-09
-4.66724e-10
1.64419e-09
-5.04601e-10
1.81649e-09
-5.37238e-10
2.00475e-09
-5.65121e-10
2.20629e-09
-5.88679e-10
2.41863e-09
-6.08319e-10
2.63945e-09
-6.24505e-10
2.86654e-09
-6.37827e-10
3.09763e-09
-6.49059e-10
3.33029e-09
-6.59204e-10
3.5617e-09
-6.69452e-10
3.78855e-09
-6.8097e-10
4.00722e-09
-6.9448e-10
4.21358e-09
-7.09988e-10
4.40066e-09
-7.27492e-10
4.55415e-09
-7.47197e-10
-7.66359e-10
4.72567e-08
5.12458e-08
4.77941e-08
4.4273e-08
4.36696e-08
3.73236e-08
3.78142e-08
3.0203e-08
3.17232e-08
2.36916e-08
2.61209e-08
1.82794e-08
2.12917e-08
1.39764e-08
1.72858e-08
1.06148e-08
1.40436e-08
8.01304e-09
1.14618e-08
6.01236e-09
9.42834e-09
4.48025e-09
7.83939e-09
3.30948e-09
6.60617e-09
2.41533e-09
5.65591e-09
1.73162e-09
4.93055e-09
1.20703e-09
4.38444e-09
8.0189e-10
3.98198e-09
4.85877e-10
3.69582e-09
2.36191e-10
3.50285e-09
3.65511e-11
3.38857e-09
-1.27734e-10
3.33994e-09
-2.64206e-10
3.34654e-09
-3.78821e-10
3.39983e-09
-4.76302e-10
3.49289e-09
-5.59895e-10
3.61992e-09
-6.31737e-10
3.77584e-09
-6.93286e-10
3.9562e-09
-7.45631e-10
4.15697e-09
-7.89648e-10
4.37451e-09
-8.26108e-10
4.60544e-09
-8.55758e-10
4.84656e-09
-8.7938e-10
5.09471e-09
-8.97841e-10
5.34658e-09
-9.12089e-10
5.5985e-09
-9.23075e-10
5.84633e-09
-9.31524e-10
6.0856e-09
-9.3753e-10
6.31168e-09
-9.40219e-10
6.51946e-09
-9.38045e-10
6.70291e-09
-9.30089e-10
-9.1786e-10
4.816e-08
4.61568e-08
5.00815e-08
4.23534e-08
4.79755e-08
3.94299e-08
4.37049e-08
3.44725e-08
3.85406e-08
2.8854e-08
3.32995e-08
2.35186e-08
2.84262e-08
1.88481e-08
2.41245e-08
1.49157e-08
2.04557e-08
1.16817e-08
1.73989e-08
9.06929e-09
1.48922e-08
6.98722e-09
1.28593e-08
5.34262e-09
1.12246e-08
4.05023e-09
9.91968e-09
3.03645e-09
8.88633e-09
2.24017e-09
8.0759e-09
1.61195e-09
7.44864e-09
1.11269e-09
6.97238e-09
7.11969e-10
6.62205e-09
3.86404e-10
6.37515e-09
1.18729e-10
6.21582e-09
-1.05253e-10
6.13185e-09
-2.9517e-10
6.11167e-09
-4.56379e-10
6.1458e-09
-5.94252e-10
6.22634e-09
-7.1248e-10
6.34648e-09
-8.13635e-10
6.5002e-09
-8.99593e-10
6.68214e-09
-9.71868e-10
6.88744e-09
-1.03174e-09
7.11164e-09
-1.08037e-09
7.35059e-09
-1.11882e-09
7.60026e-09
-1.14815e-09
7.85662e-09
-1.16934e-09
8.11545e-09
-1.18323e-09
8.37219e-09
-1.1903e-09
8.62216e-09
-1.19044e-09
8.86085e-09
-1.18271e-09
9.08432e-09
-1.16566e-09
9.28978e-09
-1.13921e-09
-1.1102e-09
5.46205e-08
4.45445e-08
5.4085e-08
4.28878e-08
5.20994e-08
4.14132e-08
4.8633e-08
3.7936e-08
4.42726e-08
3.32114e-08
3.95975e-08
2.8191e-08
3.50056e-08
2.34381e-08
3.07421e-08
1.9178e-08
2.69352e-08
1.54881e-08
2.36282e-08
1.23762e-08
2.08108e-08
9.80469e-09
1.84443e-08
7.70912e-09
1.64783e-08
6.01617e-09
1.48601e-08
4.65439e-09
1.35399e-08
3.55992e-09
1.24728e-08
2.67846e-09
1.16195e-08
1.96524e-09
1.09466e-08
1.38415e-09
1.04259e-08
9.06431e-10
1.00343e-08
5.09666e-10
9.75167e-09
1.76867e-10
9.56117e-09
-1.05131e-10
9.45164e-09
-3.47235e-10
9.4109e-09
-5.5383e-10
9.42907e-09
-7.30942e-10
9.49765e-09
-8.82495e-10
9.60917e-09
-1.01142e-09
9.75697e-09
-1.12002e-09
9.93504e-09
-1.21021e-09
1.01379e-08
-1.2837e-09
1.03605e-08
-1.34196e-09
1.0598e-08
-1.38636e-09
1.08459e-08
-1.41803e-09
1.10994e-08
-1.43786e-09
1.13539e-08
-1.44634e-09
1.16048e-08
-1.44341e-09
1.18477e-08
-1.42844e-09
1.20793e-08
-1.40059e-09
1.22973e-08
-1.36099e-09
-1.32076e-09
5.89636e-08
5.22463e-08
5.70039e-08
4.48445e-08
5.51587e-08
4.32549e-08
5.2355e-08
4.07361e-08
4.87977e-08
3.67653e-08
4.48292e-08
3.21567e-08
4.07573e-08
2.75079e-08
3.68107e-08
2.31233e-08
3.31364e-08
1.91618e-08
2.98139e-08
1.56985e-08
2.68745e-08
1.2744e-08
2.4318e-08
1.02655e-08
2.21252e-08
8.20856e-09
2.02671e-08
6.512e-09
1.87097e-08
5.11662e-09
1.7418e-08
3.96927e-09
1.63582e-08
3.0241e-09
1.5499e-08
2.24243e-09
1.48123e-08
1.59219e-09
1.42739e-08
1.04727e-09
1.3863e-08
5.87009e-10
1.35616e-08
1.95686e-10
1.33537e-08
-1.39774e-10
1.32281e-08
-4.28696e-10
1.31732e-08
-6.76403e-10
1.3179e-08
-8.88608e-10
1.32366e-08
-1.06946e-09
1.33385e-08
-1.22224e-09
1.34774e-08
-1.34962e-09
1.36471e-08
-1.45392e-09
1.38417e-08
-1.53718e-09
1.40558e-08
-1.60116e-09
1.42843e-08
-1.64734e-09
1.45223e-08
-1.67684e-09
1.47651e-08
-1.69034e-09
1.50082e-08
-1.68802e-09
1.52475e-08
-1.66968e-09
1.54797e-08
-1.63516e-09
1.57025e-08
-1.58651e-09
-1.53797e-09
6.06993e-08
5.17362e-08
5.92999e-08
4.62408e-08
5.73402e-08
4.52107e-08
5.49635e-08
4.31087e-08
5.21317e-08
3.95935e-08
4.89348e-08
3.53507e-08
4.55441e-08
3.08964e-08
4.2126e-08
2.65401e-08
3.8809e-08
2.24781e-08
3.56836e-08
1.88235e-08
3.28088e-08
1.56185e-08
3.02176e-08
1.28563e-08
2.79227e-08
1.05028e-08
2.59216e-08
8.51236e-09
2.42005e-08
6.83673e-09
2.27389e-08
5.42984e-09
2.15121e-08
4.24972e-09
2.04945e-08
3.25891e-09
1.96609e-08
2.42466e-09
1.89881e-08
1.71899e-09
1.84555e-08
1.11874e-09
1.80452e-08
6.05307e-10
1.77399e-08
1.6488e-10
1.75264e-08
-2.15781e-10
1.73939e-08
-5.44276e-10
1.73308e-08
-8.25943e-10
1.73276e-08
-1.06668e-09
1.73757e-08
-1.27075e-09
1.74673e-08
-1.44167e-09
1.75952e-08
-1.58245e-09
1.77531e-08
-1.69575e-09
1.79351e-08
-1.78389e-09
1.81357e-08
-1.84881e-09
1.835e-08
-1.89204e-09
1.85732e-08
-1.91463e-09
1.88011e-08
-1.91715e-09
1.90298e-08
-1.89987e-09
1.92561e-08
-1.86319e-09
1.94774e-08
-1.80967e-09
-1.75536e-09
6.37704e-08
5.05653e-08
6.11541e-08
4.88527e-08
5.8818e-08
4.75424e-08
5.67255e-08
4.5197e-08
5.45146e-08
4.18008e-08
5.20648e-08
3.77977e-08
4.94112e-08
3.3548e-08
4.66345e-08
2.93156e-08
4.38202e-08
2.52917e-08
4.10499e-08
2.15934e-08
3.83954e-08
1.82724e-08
3.5914e-08
1.53371e-08
3.36445e-08
1.27713e-08
3.16089e-08
1.05469e-08
2.98139e-08
8.63058e-09
2.82544e-08
6.98797e-09
2.69177e-08
5.58516e-09
2.57857e-08
4.3895e-09
2.48388e-08
3.37031e-09
2.40569e-08
2.49977e-09
2.34209e-08
1.75366e-09
2.29136e-08
1.11172e-09
2.25202e-08
5.57551e-10
2.22239e-08
7.99014e-11
2.20157e-08
-3.36584e-10
2.18837e-08
-6.94322e-10
2.18177e-08
-1.00113e-09
2.18088e-08
-1.26227e-09
2.18487e-08
-1.48206e-09
2.19299e-08
-1.66426e-09
2.20456e-08
-1.81217e-09
2.21897e-08
-1.92872e-09
2.23564e-08
-2.01645e-09
2.25409e-08
-2.07745e-09
2.27385e-08
-2.11327e-09
2.29452e-08
-2.12503e-09
2.31575e-08
-2.11348e-09
2.33724e-08
-2.0795e-09
2.3587e-08
-2.02571e-09
-1.96868e-09
6.35764e-08
5.45496e-08
6.01038e-08
5.23199e-08
5.83643e-08
4.92769e-08
5.71455e-08
4.64116e-08
5.58438e-08
4.3099e-08
5.42732e-08
3.93656e-08
5.24276e-08
3.53918e-08
5.03542e-08
3.13878e-08
4.8119e-08
2.7526e-08
4.57997e-08
2.39119e-08
4.34766e-08
2.05947e-08
4.12221e-08
1.75905e-08
3.90939e-08
1.48984e-08
3.71317e-08
1.25077e-08
3.5359e-08
1.04019e-08
3.37847e-08
8.56077e-09
3.24074e-08
6.96103e-09
3.12181e-08
5.57731e-09
3.02038e-08
4.38325e-09
2.93492e-08
3.35306e-09
2.86387e-08
2.46299e-09
2.80572e-08
1.69225e-09
2.75904e-08
1.0235e-09
2.72269e-08
4.42745e-10
2.69513e-08
-6.15608e-11
2.67562e-08
-4.99663e-10
2.66309e-08
-8.76368e-10
2.65666e-08
-1.19844e-09
2.6555e-08
-1.47092e-09
2.65884e-08
-1.69825e-09
2.66599e-08
-1.8844e-09
2.67634e-08
-2.03294e-09
2.68931e-08
-2.14704e-09
2.7044e-08
-2.22942e-09
2.7212e-08
-2.28232e-09
2.73933e-08
-2.30745e-09
2.75848e-08
-2.30617e-09
2.77838e-08
-2.27977e-09
2.79874e-08
-2.23066e-09
-2.17461e-09
5.75834e-08
5.51988e-08
5.75122e-08
5.23854e-08
5.73449e-08
4.94393e-08
5.71998e-08
4.65525e-08
5.67665e-08
4.3529e-08
5.59746e-08
4.0155e-08
5.48433e-08
3.65212e-08
5.34121e-08
3.28177e-08
5.17372e-08
2.91998e-08
4.98918e-08
2.57562e-08
4.79571e-08
2.25282e-08
4.60102e-08
1.9536e-08
4.41163e-08
1.67908e-08
4.23241e-08
1.42982e-08
4.06667e-08
1.20577e-08
3.91628e-08
1.00631e-08
3.782e-08
8.30222e-09
3.66379e-08
6.75785e-09
3.56105e-08
5.40913e-09
3.47285e-08
4.23368e-09
3.39808e-08
3.20948e-09
3.33556e-08
2.31639e-09
3.28413e-08
1.53689e-09
3.24269e-08
8.56329e-10
3.21018e-08
2.62959e-10
3.18555e-08
-2.53825e-10
3.16803e-08
-7.01668e-10
3.15674e-08
-1.08598e-09
3.15088e-08
-1.41293e-09
3.14975e-08
-1.68748e-09
3.15266e-08
-1.91417e-09
3.159e-08
-2.09718e-09
3.16824e-08
-2.24032e-09
3.1799e-08
-2.34699e-09
3.19357e-08
-2.42014e-09
3.20893e-08
-2.46219e-09
3.22571e-08
-2.47517e-09
3.24369e-08
-2.46085e-09
3.26262e-08
-2.42137e-09
-2.37057e-09
6.39016e-08
6.07675e-08
5.92653e-08
5.70161e-08
5.80904e-08
5.0609e-08
5.79016e-08
4.6737e-08
5.7776e-08
4.36511e-08
5.74439e-08
4.04844e-08
5.68223e-08
3.71407e-08
5.59012e-08
3.3737e-08
5.47132e-08
3.03863e-08
5.33185e-08
2.71493e-08
5.179e-08
2.40551e-08
5.01989e-08
2.11252e-08
4.86074e-08
1.83807e-08
4.70638e-08
1.58401e-08
4.56031e-08
1.35166e-08
4.42485e-08
1.1416e-08
4.30135e-08
9.53563e-09
4.19041e-08
7.8656e-09
4.09212e-08
6.39057e-09
4.00613e-08
5.09207e-09
3.93187e-08
3.95077e-09
3.86858e-08
2.94817e-09
3.81542e-08
2.06754e-09
3.77152e-08
1.29444e-09
3.73608e-08
6.16707e-10
3.70813e-08
2.51212e-11
3.68705e-08
-4.91363e-10
3.67206e-08
-9.36506e-10
3.66244e-08
-1.3173e-09
3.65755e-08
-1.63914e-09
3.65677e-08
-1.90699e-09
3.65952e-08
-2.12554e-09
3.66532e-08
-2.29919e-09
3.67372e-08
-2.432e-09
3.68436e-08
-2.52762e-09
3.69695e-08
-2.58924e-09
3.71127e-08
-2.61962e-09
3.72716e-08
-2.62112e-09
3.74446e-08
-2.59573e-09
-2.55468e-09
5.94541e-08
6.59134e-08
5.8557e-08
5.79064e-08
5.84213e-08
5.07391e-08
5.8498e-08
4.66554e-08
5.86089e-08
4.35363e-08
5.85932e-08
4.0497e-08
5.83486e-08
3.73827e-08
5.78354e-08
3.42479e-08
5.70675e-08
3.11521e-08
5.60922e-08
2.81225e-08
5.497e-08
2.51752e-08
5.37611e-08
2.23322e-08
5.25171e-08
1.96226e-08
5.12797e-08
1.70757e-08
5.00798e-08
1.47148e-08
4.894e-08
1.2554e-08
4.78765e-08
1.05976e-08
4.68996e-08
8.84085e-09
4.60156e-08
7.27298e-09
4.5227e-08
5.87925e-09
4.45329e-08
4.64344e-09
4.39305e-08
3.5494e-09
4.3415e-08
2.58203e-09
4.29807e-08
1.72785e-09
4.26215e-08
9.75184e-10
4.23316e-08
3.14394e-10
4.21034e-08
-2.63673e-10
4.19321e-08
-7.6575e-10
4.18116e-08
-1.19728e-09
4.17361e-08
-1.56426e-09
4.17005e-08
-1.87197e-09
4.16996e-08
-2.12547e-09
4.17292e-08
-2.32966e-09
4.17854e-08
-2.48916e-09
4.18649e-08
-2.6083e-09
4.19655e-08
-2.69102e-09
4.20854e-08
-2.7408e-09
4.22237e-08
-2.76076e-09
4.23796e-08
-2.75297e-09
-2.72591e-09
5.36142e-08
6.10039e-08
5.70994e-08
5.4413e-08
5.82903e-08
4.95416e-08
5.88047e-08
4.61357e-08
5.91607e-08
4.31758e-08
5.93905e-08
4.02635e-08
5.94333e-08
3.73369e-08
5.92508e-08
3.44277e-08
5.88486e-08
3.15517e-08
5.82623e-08
2.87064e-08
5.75381e-08
2.5897e-08
5.67212e-08
2.31469e-08
5.58497e-08
2.04921e-08
5.49537e-08
1.79697e-08
5.40572e-08
1.56095e-08
5.31792e-08
1.34303e-08
5.23356e-08
1.14395e-08
5.15394e-08
9.63547e-09
5.08007e-08
8.01005e-09
5.01268e-08
6.55167e-09
4.95217e-08
5.24719e-09
4.89866e-08
4.08322e-09
4.85207e-08
3.0469e-09
4.81213e-08
2.12632e-09
4.77849e-08
1.31082e-09
4.75074e-08
5.91172e-10
4.72837e-08
-4.0482e-11
4.71099e-08
-5.92514e-10
4.69814e-08
-1.06928e-09
4.68936e-08
-1.47704e-09
4.68422e-08
-1.8213e-09
4.68234e-08
-2.10739e-09
4.68334e-08
-2.34055e-09
4.68691e-08
-2.52587e-09
4.6928e-08
-2.66825e-09
4.7008e-08
-2.77228e-09
4.71081e-08
-2.8422e-09
4.72279e-08
-2.88188e-09
4.73674e-08
-2.89384e-09
-2.88422e-09
5.9239e-08
5.66362e-08
5.93269e-08
5.43166e-08
5.9042e-08
4.98195e-08
5.91556e-08
4.60163e-08
5.95029e-08
4.28237e-08
5.9873e-08
3.98893e-08
6.01318e-08
3.70745e-08
6.02231e-08
3.43332e-08
6.01442e-08
3.16277e-08
5.99188e-08
2.89291e-08
5.95777e-08
2.62356e-08
5.91489e-08
2.35734e-08
5.86552e-08
2.09838e-08
5.81142e-08
1.85088e-08
5.75412e-08
1.61807e-08
5.69506e-08
1.40192e-08
5.63569e-08
1.20316e-08
5.57742e-08
1.02166e-08
5.52152e-08
8.5675e-09
5.46905e-08
7.07484e-09
5.4208e-08
5.72827e-09
5.37727e-08
4.51729e-09
5.33869e-08
3.43157e-09
5.30509e-08
2.46125e-09
5.27638e-08
1.59713e-09
5.25235e-08
8.30783e-10
5.23263e-08
1.561e-10
5.21704e-08
-4.37217e-10
5.20521e-08
-9.51594e-10
5.19683e-08
-1.39382e-09
5.19158e-08
-1.76949e-09
5.18917e-08
-2.08407e-09
5.18933e-08
-2.34303e-09
5.19183e-08
-2.55181e-09
5.19647e-08
-2.71574e-09
5.20311e-08
-2.83995e-09
5.2117e-08
-2.92932e-09
5.22222e-08
-2.9885e-09
5.23476e-08
-3.02071e-09
-3.0306e-09
6.62893e-08
6.40921e-08
6.13429e-08
5.92552e-08
5.95303e-08
5.16252e-08
5.928e-08
4.62606e-08
5.9632e-08
4.24667e-08
6.01218e-08
3.93951e-08
6.05571e-08
3.66354e-08
6.08787e-08
3.40081e-08
6.10842e-08
3.14191e-08
6.11882e-08
2.88224e-08
6.12053e-08
2.62159e-08
6.1146e-08
2.36305e-08
6.10166e-08
2.11112e-08
6.08228e-08
1.87007e-08
6.05719e-08
1.643e-08
6.02738e-08
1.43156e-08
5.99414e-08
1.23624e-08
5.95888e-08
1.05677e-08
5.92301e-08
8.92461e-09
5.88782e-08
7.42527e-09
5.85434e-08
6.06164e-09
5.82334e-08
4.82594e-09
5.79533e-08
3.71049e-09
5.77058e-08
2.70769e-09
5.74919e-08
1.81013e-09
5.73112e-08
1.01076e-09
5.71634e-08
3.0319e-10
5.70452e-08
-3.19716e-10
5.69559e-08
-8.62865e-10
5.68932e-08
-1.33181e-09
5.68552e-08
-1.73223e-09
5.68401e-08
-2.0697e-09
5.6846e-08
-2.34986e-09
5.68716e-08
-2.57835e-09
5.69155e-08
-2.76078e-09
5.69771e-08
-2.90268e-09
5.70559e-08
-3.00942e-09
5.71523e-08
-3.08632e-09
5.72675e-08
-3.13741e-09
-3.16708e-09
5.27831e-08
5.73457e-08
5.61327e-08
5.5898e-08
5.74669e-08
5.02841e-08
5.84791e-08
4.52424e-08
5.9383e-08
4.15576e-08
6.01595e-08
3.86141e-08
6.08057e-08
3.59852e-08
6.13456e-08
3.34647e-08
6.18075e-08
3.09541e-08
6.2208e-08
2.8419e-08
6.25497e-08
2.58717e-08
6.28266e-08
2.33513e-08
6.30311e-08
2.09047e-08
6.31585e-08
1.85715e-08
6.321e-08
1.63768e-08
6.31923e-08
1.43317e-08
6.31164e-08
1.24367e-08
6.29962e-08
1.06863e-08
6.28461e-08
9.07318e-09
6.26796e-08
7.59022e-09
6.25085e-08
6.2313e-09
6.23421e-08
4.99103e-09
6.21871e-08
3.86422e-09
6.20482e-08
2.84557e-09
6.19278e-08
1.92954e-09
6.18272e-08
1.11047e-09
6.17468e-08
3.82829e-10
6.16856e-08
-2.5928e-10
6.16432e-08
-8.21134e-10
6.16186e-08
-1.30794e-09
6.1611e-08
-1.72535e-09
6.16195e-08
-2.07898e-09
6.16432e-08
-2.37454e-09
6.16817e-08
-2.61779e-09
6.17342e-08
-2.81447e-09
6.18007e-08
-2.97032e-09
6.18809e-08
-3.09099e-09
6.19755e-08
-3.18231e-09
6.20857e-08
-3.24909e-09
-3.29655e-09
4.95605e-08
4.99758e-08
5.41539e-08
5.12968e-08
5.68409e-08
4.759e-08
5.84096e-08
4.36676e-08
5.94973e-08
4.04647e-08
6.03608e-08
3.77461e-08
6.11056e-08
3.52364e-08
6.17946e-08
3.27722e-08
6.24616e-08
3.0284e-08
6.3112e-08
2.77659e-08
6.37314e-08
2.52498e-08
6.4298e-08
2.27826e-08
6.4792e-08
2.04088e-08
6.52016e-08
1.81601e-08
6.55234e-08
1.60532e-08
6.57621e-08
1.40914e-08
6.59271e-08
1.227e-08
6.60312e-08
1.05806e-08
6.6088e-08
9.01476e-09
6.61108e-08
7.56591e-09
6.61113e-08
6.22931e-09
6.60995e-08
5.00153e-09
6.60829e-08
3.87955e-09
6.60671e-08
2.86017e-09
6.60559e-08
1.93969e-09
6.60515e-08
1.11394e-09
6.60551e-08
3.78407e-10
6.6067e-08
-2.72032e-10
6.60874e-08
-8.42349e-10
6.61164e-08
-1.33772e-09
6.6154e-08
-1.76373e-09
6.62002e-08
-2.12604e-09
6.62551e-08
-2.43039e-09
6.63188e-08
-2.68255e-09
6.63915e-08
-2.88825e-09
6.64732e-08
-3.05323e-09
6.65641e-08
-3.18321e-09
6.66646e-08
-3.28427e-09
6.67758e-08
-3.36176e-09
-3.42257e-09
5.11365e-08
5.46794e-08
5.48351e-08
4.75893e-08
5.76757e-08
4.47422e-08
5.919e-08
4.21472e-08
6.01172e-08
3.95324e-08
6.08543e-08
3.70045e-08
6.15709e-08
3.45158e-08
6.23321e-08
3.20075e-08
6.31477e-08
2.94653e-08
6.39956e-08
2.69153e-08
6.48393e-08
2.44037e-08
6.5642e-08
2.19778e-08
6.63753e-08
1.96735e-08
6.70227e-08
1.7511e-08
6.75783e-08
1.54959e-08
6.80447e-08
1.36234e-08
6.84297e-08
1.18833e-08
6.87443e-08
1.02644e-08
6.90004e-08
8.75706e-09
6.92099e-08
7.35485e-09
6.93838e-08
6.05394e-09
6.95316e-08
4.85234e-09
6.9661e-08
3.74878e-09
6.97782e-08
2.74185e-09
6.98872e-08
1.82956e-09
6.9991e-08
1.00913e-09
7.00913e-08
2.77141e-10
7.01894e-08
-3.71029e-10
7.02859e-08
-9.39789e-10
7.03817e-08
-1.43443e-09
7.04776e-08
-1.86049e-09
7.05743e-08
-2.22369e-09
7.06727e-08
-2.52978e-09
7.07735e-08
-2.78443e-09
7.08773e-08
-2.99321e-09
7.09845e-08
-3.16166e-09
7.10953e-08
-3.29531e-09
7.12098e-08
-3.40018e-09
7.13284e-08
-3.48184e-09
-3.54896e-09
5.62337e-08
4.96046e-08
5.85764e-08
4.5238e-08
5.97634e-08
4.35484e-08
6.04079e-08
4.1497e-08
6.09082e-08
3.90272e-08
6.1456e-08
3.64525e-08
6.21324e-08
3.38356e-08
6.29535e-08
3.11831e-08
6.38923e-08
2.85236e-08
6.4899e-08
2.59059e-08
6.59202e-08
2.33802e-08
6.69104e-08
2.09855e-08
6.78374e-08
1.87446e-08
6.86825e-08
1.6664e-08
6.94383e-08
1.47382e-08
7.01055e-08
1.29544e-08
7.06897e-08
1.12974e-08
7.11993e-08
9.75306e-09
7.1644e-08
8.31064e-09
7.2034e-08
6.96333e-09
7.23787e-08
5.70775e-09
7.26867e-08
4.54286e-09
7.29654e-08
3.46871e-09
7.32207e-08
2.48537e-09
7.34567e-08
1.5923e-09
7.36768e-08
7.87964e-10
7.3883e-08
6.98973e-11
7.40769e-08
-5.65966e-10
7.42599e-08
-1.12371e-09
7.44331e-08
-1.60868e-09
7.45981e-08
-2.02645e-09
7.47562e-08
-2.38279e-09
7.49087e-08
-2.68342e-09
7.5057e-08
-2.93384e-09
7.52019e-08
-3.13931e-09
7.53439e-08
-3.30496e-09
7.54831e-08
-3.43584e-09
7.56191e-08
-3.53755e-09
7.57512e-08
-3.6155e-09
-3.67931e-09
5.94285e-08
5.16327e-08
5.96874e-08
4.49715e-08
6.01213e-08
4.31083e-08
6.06603e-08
4.09528e-08
6.12274e-08
3.84556e-08
6.18712e-08
3.58048e-08
6.26583e-08
3.30451e-08
6.36047e-08
3.02335e-08
6.46789e-08
2.74466e-08
6.58273e-08
2.47549e-08
6.69955e-08
2.22097e-08
6.8139e-08
1.98399e-08
6.92267e-08
1.76549e-08
7.02401e-08
1.56486e-08
7.11709e-08
1.38056e-08
7.20173e-08
1.21061e-08
7.27826e-08
1.05303e-08
7.34726e-08
9.06137e-09
7.40945e-08
7.68698e-09
7.46566e-08
6.39969e-09
7.51666e-08
5.19613e-09
7.56322e-08
4.07582e-09
7.60598e-08
3.03976e-09
7.64546e-08
2.08919e-09
7.68209e-08
1.22476e-09
7.71617e-08
4.46033e-10
7.74793e-08
-2.48885e-10
7.77755e-08
-8.6323e-10
7.80519e-08
-1.40125e-09
7.83103e-08
-1.86819e-09
7.85525e-08
-2.26974e-09
7.87803e-08
-2.61173e-09
7.89955e-08
-2.89979e-09
7.91997e-08
-3.13917e-09
7.93938e-08
-3.33468e-09
7.95783e-08
-3.49079e-09
7.97529e-08
-3.61183e-09
7.99165e-08
-3.70258e-09
8.00674e-08
-3.76793e-09
-3.8164e-09
6.0353e-08
5.01353e-08
5.96302e-08
4.56888e-08
5.98644e-08
4.28693e-08
6.05277e-08
4.02852e-08
6.13094e-08
3.767e-08
6.21773e-08
3.49334e-08
6.31653e-08
3.20538e-08
6.42837e-08
2.91123e-08
6.55069e-08
2.62208e-08
6.67913e-08
2.3468e-08
6.80919e-08
2.09068e-08
6.93711e-08
1.85585e-08
7.06016e-08
1.64223e-08
7.17661e-08
1.44822e-08
7.28549e-08
1.27149e-08
7.38648e-08
1.10944e-08
7.47963e-08
9.59693e-09
7.56532e-08
8.20271e-09
7.64408e-08
6.89769e-09
7.71653e-08
5.6735e-09
7.78334e-08
4.52652e-09
7.84511e-08
3.45657e-09
7.90241e-08
2.46535e-09
7.95568e-08
1.55504e-09
8.0053e-08
7.2723e-10
8.05155e-08
-1.77276e-11
8.09466e-08
-6.81182e-10
8.13481e-08
-1.26593e-09
8.17219e-08
-1.77628e-09
8.207e-08
-2.21752e-09
8.23946e-08
-2.59546e-09
8.26976e-08
-2.91595e-09
8.2981e-08
-3.18452e-09
8.32466e-08
-3.40605e-09
8.34954e-08
-3.58475e-09
8.37275e-08
-3.72426e-09
8.39421e-08
-3.82791e-09
8.41373e-08
-3.89919e-09
8.43101e-08
-3.94235e-09
-3.96135e-09
6.8114e-08
5.44028e-08
6.37312e-08
5.00684e-08
6.16874e-08
4.49097e-08
6.12817e-08
4.06875e-08
6.17444e-08
3.72041e-08
6.26412e-08
3.40336e-08
6.37716e-08
3.09205e-08
6.50469e-08
2.78342e-08
6.64153e-08
2.48498e-08
6.78339e-08
2.20471e-08
6.92643e-08
1.94741e-08
7.06748e-08
1.71458e-08
7.20416e-08
1.50534e-08
7.33481e-08
1.31737e-08
7.45842e-08
1.14768e-08
7.57452e-08
9.93152e-09
7.68302e-08
8.51e-09
7.78414e-08
7.18966e-09
7.87828e-08
5.95459e-09
7.96592e-08
4.79537e-09
8.0476e-08
3.7081e-09
8.12382e-08
2.6928e-09
8.19504e-08
1.75173e-09
8.26161e-08
8.878e-10
8.32386e-08
1.03342e-10
8.38204e-08
-6.00854e-10
8.43634e-08
-1.22555e-09
8.48697e-08
-1.77352e-09
8.53412e-08
-2.24906e-09
8.578e-08
-2.65758e-09
8.61882e-08
-3.00499e-09
8.65681e-08
-3.29717e-09
8.69217e-08
-3.53944e-09
8.72505e-08
-3.73626e-09
8.75555e-08
-3.89114e-09
8.78365e-08
-4.00668e-09
8.80921e-08
-4.08499e-09
8.83192e-08
-4.12784e-09
8.85141e-08
-4.13889e-09
-4.11282e-09
6.58016e-08
5.65254e-08
6.34408e-08
5.24279e-08
6.19113e-08
4.64371e-08
6.16214e-08
4.0975e-08
6.2199e-08
3.66239e-08
6.32464e-08
3.29836e-08
6.45376e-08
2.96267e-08
6.59674e-08
2.64018e-08
6.74801e-08
2.33346e-08
6.90353e-08
2.04895e-08
7.05988e-08
1.79082e-08
7.21423e-08
1.56001e-08
7.36435e-08
1.355e-08
7.50866e-08
1.17285e-08
7.64617e-08
1.00997e-08
7.77634e-08
8.62781e-09
7.89904e-08
7.2811e-09
8.01439e-08
6.03427e-09
8.12271e-08
4.86961e-09
8.22439e-08
3.77682e-09
8.31986e-08
2.75173e-09
8.40952e-08
1.79457e-09
8.49373e-08
9.08085e-10
8.57278e-08
9.57868e-11
8.64693e-08
-6.39649e-10
8.71638e-08
-1.29678e-09
8.78132e-08
-1.87635e-09
8.84193e-08
-2.38105e-09
8.89841e-08
-2.81527e-09
8.95096e-08
-3.18451e-09
8.9998e-08
-3.4948e-09
9.04514e-08
-3.75196e-09
9.08717e-08
-3.96112e-09
9.12602e-08
-4.12624e-09
9.16176e-08
-4.25003e-09
9.19434e-08
-4.33396e-09
9.22356e-08
-4.37876e-09
9.24902e-08
-4.38401e-09
9.27029e-08
-4.35324e-09
-4.26589e-09
6.02187e-08
5.99012e-08
6.01755e-08
5.24709e-08
6.0795e-08
4.58164e-08
6.16233e-08
4.0145e-08
6.27247e-08
3.55203e-08
6.40507e-08
3.16553e-08
6.55339e-08
2.8141e-08
6.71257e-08
2.48076e-08
6.87881e-08
2.16699e-08
7.04866e-08
1.87887e-08
7.21893e-08
1.62032e-08
7.3869e-08
1.39181e-08
7.55047e-08
1.19122e-08
7.70812e-08
1.01498e-08
7.85891e-08
8.58971e-09
8.00233e-08
7.19154e-09
8.13824e-08
5.92003e-09
8.26673e-08
4.74745e-09
8.38805e-08
3.65453e-09
8.50254e-08
2.63018e-09
8.61053e-08
1.67007e-09
8.71236e-08
7.74634e-10
8.80829e-08
-5.28745e-11
8.89858e-08
-8.0872e-10
8.98342e-08
-1.48954e-09
9.06297e-08
-2.09387e-09
9.13742e-08
-2.6223e-09
9.20692e-08
-3.07757e-09
9.27166e-08
-3.46416e-09
9.33183e-08
-3.78769e-09
9.38762e-08
-4.05425e-09
9.43923e-08
-4.2696e-09
9.48683e-08
-4.43862e-09
9.53053e-08
-4.56479e-09
9.57038e-08
-4.65002e-09
9.60628e-08
-4.69457e-09
9.63802e-08
-4.69775e-09
9.66511e-08
-4.65653e-09
9.68712e-08
-4.57508e-09
-4.41117e-09
5.84733e-08
6.14588e-08
5.9374e-08
5.15705e-08
6.09322e-08
4.42574e-08
6.23377e-08
3.87382e-08
6.37242e-08
3.4132e-08
6.5226e-08
3.01514e-08
6.68616e-08
2.65032e-08
6.86048e-08
2.30622e-08
7.04189e-08
1.98534e-08
7.22668e-08
1.69384e-08
7.41151e-08
1.43526e-08
7.5936e-08
1.20949e-08
7.77087e-08
1.01373e-08
7.94189e-08
8.43751e-09
8.10575e-08
6.94899e-09
8.26197e-08
5.6272e-09
8.4104e-08
4.43371e-09
8.5511e-08
3.33851e-09
8.68427e-08
2.32087e-09
8.81021e-08
1.369e-09
8.92919e-08
4.78407e-10
9.04153e-08
-3.50429e-10
9.14744e-08
-1.11373e-09
9.24714e-08
-1.8073e-09
9.34078e-08
-2.4276e-09
9.42853e-08
-2.97295e-09
9.51053e-08
-3.44391e-09
9.58694e-08
-3.84328e-09
9.65793e-08
-4.17563e-09
9.72367e-08
-4.44668e-09
9.78434e-08
-4.66256e-09
9.84012e-08
-4.82898e-09
9.89116e-08
-4.95058e-09
9.93755e-08
-5.03039e-09
9.97935e-08
-5.06959e-09
1.00164e-07
-5.06724e-09
1.00486e-07
-5.02134e-09
1.00754e-07
-4.9259e-09
1.00964e-07
-4.78673e-09
-4.53403e-09
5.811e-08
5.68303e-08
6.12329e-08
4.84479e-08
6.28316e-08
4.26582e-08
6.40503e-08
3.75184e-08
6.53402e-08
3.28405e-08
6.68488e-08
2.86409e-08
6.85729e-08
2.4777e-08
7.04518e-08
2.1181e-08
7.24215e-08
1.78815e-08
7.4429e-08
1.49285e-08
7.64338e-08
1.23455e-08
7.84058e-08
1.01206e-08
8.03238e-08
8.21702e-09
8.21734e-08
6.58566e-09
8.39455e-08
5.17467e-09
8.5635e-08
3.9356e-09
8.72397e-08
2.82695e-09
8.87596e-08
1.81654e-09
9.01968e-08
8.81693e-10
9.15536e-08
1.0271e-11
9.28335e-08
-8.03301e-10
9.40388e-08
-1.55759e-09
9.51723e-08
-2.24894e-09
9.62359e-08
-2.87261e-09
9.72314e-08
-3.42479e-09
9.81603e-08
-3.90362e-09
9.90244e-08
-4.30961e-09
9.9825e-08
-4.64559e-09
1.00564e-07
-4.91623e-09
1.01243e-07
-5.12736e-09
1.01864e-07
-5.28513e-09
1.02428e-07
-5.39522e-09
1.02938e-07
-5.46211e-09
1.03395e-07
-5.48844e-09
1.03798e-07
-5.47477e-09
1.04148e-07
-5.41912e-09
1.04443e-07
-5.31828e-09
1.04679e-07
-5.16325e-09
1.04853e-07
-4.96236e-09
-4.61451e-09
6.33495e-08
5.73305e-08
6.4555e-08
4.7243e-08
6.53077e-08
4.19053e-08
6.6118e-08
3.6707e-08
6.72447e-08
3.17122e-08
6.87591e-08
2.71245e-08
7.05981e-08
2.29359e-08
7.26488e-08
1.91281e-08
7.48096e-08
1.57182e-08
7.70076e-08
1.27281e-08
7.9194e-08
1.01567e-08
8.13366e-08
7.97555e-09
8.34143e-08
6.13699e-09
8.54127e-08
4.58499e-09
8.73222e-08
3.26287e-09
8.91369e-08
2.1187e-09
9.08541e-08
1.1076e-09
9.24727e-08
1.95863e-10
9.39953e-08
-6.43016e-10
9.54246e-08
-1.42094e-09
9.67636e-08
-2.14424e-09
9.80161e-08
-2.81195e-09
9.91851e-08
-3.41984e-09
1.00273e-07
-3.96278e-09
1.01283e-07
-4.43655e-09
1.02217e-07
-4.83906e-09
1.03077e-07
-5.17074e-09
1.03864e-07
-5.43446e-09
1.04581e-07
-5.63497e-09
1.0523e-07
-5.77818e-09
1.05813e-07
-5.87032e-09
1.06333e-07
-5.91707e-09
1.06792e-07
-5.92278e-09
1.07192e-07
-5.88983e-09
1.07534e-07
-5.81828e-09
1.07818e-07
-5.70531e-09
1.08045e-07
-5.54673e-09
1.0821e-07
-5.33086e-09
1.08315e-07
-5.06875e-09
-4.62843e-09
6.47877e-08
5.7884e-08
6.48093e-08
4.72223e-08
6.58853e-08
4.08289e-08
6.71934e-08
3.53977e-08
6.87429e-08
3.0161e-08
7.0625e-08
2.52404e-08
7.28018e-08
2.07569e-08
7.51653e-08
1.67622e-08
7.76097e-08
1.32713e-08
8.00595e-08
1.02759e-08
8.24675e-08
7.74621e-09
8.48053e-08
5.63524e-09
8.70552e-08
3.88474e-09
8.92045e-08
2.43321e-09
9.12451e-08
1.21996e-09
9.31701e-08
1.91476e-10
9.49768e-08
-7.01377e-10
9.6665e-08
-1.4945e-09
9.82354e-08
-2.21554e-09
9.96925e-08
-2.88003e-09
1.01041e-07
-3.4944e-09
1.02285e-07
-4.0581e-09
1.0343e-07
-4.56659e-09
1.04479e-07
-5.01422e-09
1.05437e-07
-5.39632e-09
1.06307e-07
-5.71049e-09
1.07091e-07
-5.95704e-09
1.07794e-07
-6.13881e-09
1.08418e-07
-6.26065e-09
1.08966e-07
-6.32855e-09
1.09443e-07
-6.34879e-09
1.09851e-07
-6.32703e-09
1.10194e-07
-6.26756e-09
1.10475e-07
-6.17253e-09
1.10696e-07
-6.04166e-09
1.10861e-07
-5.87152e-09
1.10969e-07
-5.6572e-09
1.11022e-07
-5.38512e-09
1.11019e-07
-5.06827e-09
-4.55026e-09
6.45856e-08
5.79698e-08
6.46995e-08
4.71087e-08
6.60392e-08
3.94883e-08
6.78934e-08
3.35419e-08
7.00907e-08
2.79618e-08
7.25919e-08
2.27369e-08
7.53104e-08
1.80359e-08
7.81311e-08
1.3939e-08
8.09547e-08
1.04452e-08
8.37149e-08
7.51309e-09
8.63749e-08
5.08366e-09
8.89156e-08
3.092e-09
9.13277e-08
1.47013e-09
9.3603e-08
1.5543e-10
9.57379e-08
-9.17343e-10
9.77274e-08
-1.80043e-09
9.95681e-08
-2.5443e-09
1.01261e-07
-3.18938e-09
1.02808e-07
-3.76529e-09
1.04216e-07
-4.29016e-09
1.05492e-07
-4.77169e-09
1.06641e-07
-5.20975e-09