/*--------------------------------*- C++ -*----------------------------------*\
  =========                 |
  \\      /  F ield         | OpenFOAM: The Open Source CFD Toolbox
   \\    /   O peration     | Website:  https://openfoam.org
    \\  /    A nd           | Version:  7
     \\/     M anipulation  |
\*---------------------------------------------------------------------------*/
FoamFile
{
    version     2.0;
    format      ascii;
    class       surfaceScalarField;
    location    "0.1225";
    object      phi;
}
// * * * * * * * * * * * * * * * * * * * * * * * * * * * * * * * * * * * * * //

dimensions      [1 0 -1 0 0 0 0];

internalField   nonuniform List<scalar> 
13265
(
0.002655
0.00111932
1.49529e-05
0.0020403
0.000605868
8.21321e-06
0.00167555
0.000350799
1.31074e-05
0.001539
0.000126855
8.49197e-06
0.00149544
2.97148e-05
1.24543e-05
0.00149118
-5.79706e-06
8.72522e-06
0.00149113
-1.30331e-05
1.18726e-05
0.00149296
-1.17593e-05
8.78835e-06
0.00149174
-1.1227e-05
1.13092e-05
0.00149186
-1.00627e-05
8.77034e-06
0.00149016
-1.02865e-05
1.0788e-05
0.00148994
-9.70958e-06
8.69572e-06
0.0014883
-9.92554e-06
1.03024e-05
0.00148766
-9.21562e-06
8.57428e-06
0.00148627
-9.74264e-06
9.84589e-06
0.0014832
-6.64575e-06
8.41597e-06
0.00147936
-6.85369e-06
9.42536e-06
0.00147398
-4.14049e-06
8.22434e-06
0.00139354
6.99645e-05
9.25288e-06
0.000106246
7.77884e-06
0.00127828
0.00395232
0.000951213
4.47523e-06
0.00389704
0.000662307
-1.68021e-06
0.0037733
0.000471009
2.98419e-06
0.00369434
0.00020599
-1.66427e-06
0.00365651
6.28629e-05
2.2618e-06
0.00364597
3.63625e-06
-1.51128e-06
0.00363894
-9.78884e-06
1.63325e-06
0.00363653
-9.56222e-06
-1.46553e-06
0.00363043
-7.54952e-06
1.05689e-06
0.00362671
-6.14564e-06
-1.48775e-06
0.00362066
-6.03317e-06
5.30771e-07
0.00361639
-5.19923e-06
-1.56146e-06
0.00361132
-6.21187e-06
3.84771e-08
0.00360597
-3.54522e-06
-1.67783e-06
0.00360463
-9.31642e-06
-4.39301e-07
0.00359366
4.75768e-06
-1.82667e-06
0.00360964
-2.31776e-05
-9.47945e-07
0.00357922
2.69153e-05
-2.04182e-06
0.0036693
-1.96348e-05
-1.69538e-06
5.85841e-05
-2.96044e-06
0.00371854
0.00418472
0.00054244
1.30208e-05
0.00442943
0.000409649
7.55557e-06
0.00456367
0.000324552
1.20506e-05
0.00460965
0.000151329
7.45749e-06
0.00460596
5.22865e-05
1.13891e-05
0.00459235
6.00986e-06
7.67313e-06
0.004575
-6.32592e-06
1.08217e-05
0.00456355
-8.01207e-06
7.74204e-06
0.00455189
-7.64449e-06
1.02649e-05
0.00454434
-7.50031e-06
7.72687e-06
0.0045346
-7.13956e-06
9.74642e-06
0.00452821
-7.5653e-06
7.65222e-06
0.00451827
-6.64983e-06
9.26393e-06
0.00451345
-7.38103e-06
7.52913e-06
0.00450053
-6.34671e-06
8.82078e-06
0.00449932
-2.55808e-06
7.36588e-06
0.00447484
-8.24107e-06
8.46377e-06
0.00447122
2.21957e-05
7.18159e-06
0.00442409
1.79195e-05
8.55836e-06
0.000127749
7.04956e-06
0.00434679
0.00414366
0.000183295
4.03002e-06
0.00441417
0.000140201
-1.42515e-06
0.00462167
0.000113972
2.98026e-06
0.00471816
5.51539e-05
-1.67033e-06
0.00474383
2.12859e-05
2.20795e-06
0.0047412
6.29235e-06
-1.58196e-06
0.00472857
1.3987e-06
1.56584e-06
0.0047196
1.62884e-07
-1.53325e-06
0.00470933
1.18949e-07
9.92973e-07
0.00470185
3.77421e-07
-1.55057e-06
0.00469304
1.97116e-07
4.67976e-07
0.00468525
8.16546e-07
-1.62336e-06
0.00467783
-2.24026e-07
-2.6254e-08
0.00466938
1.75527e-06
-1.74016e-06
0.00466502
-2.52608e-06
-5.12663e-07
0.00465841
4.89395e-06
-1.898e-06
0.00466181
-1.15899e-05
-1.06473e-06
0.0046755
9.64637e-06
-2.17348e-06
0.00472055
-2.60127e-05
-2.07707e-06
-2.33973e-06
-3.06271e-06
0.00485275
0.00414275
-0.000183294
1.27533e-05
0.00441517
-0.000140199
7.66441e-06
0.00463101
-0.000113971
1.20327e-05
0.00473259
-5.51537e-05
7.45817e-06
0.0047607
-2.12859e-05
1.13622e-05
0.00476174
-6.29186e-06
7.64503e-06
0.00475039
-1.3974e-06
1.07896e-05
0.00474069
-1.60249e-07
7.71343e-06
0.00472919
-1.14823e-07
1.02373e-05
0.00472112
-3.72092e-07
7.70054e-06
0.00471079
-1.89478e-07
9.72044e-06
0.00470379
-8.00161e-07
7.6263e-06
0.00469308
2.42011e-07
9.23906e-06
0.004688
-1.68056e-06
7.50326e-06
0.0046731
2.55102e-06
8.80059e-06
0.00467414
-4.51954e-06
7.34051e-06
0.00464151
1.15788e-05
8.46845e-06
0.00465124
-8.24275e-06
7.1614e-06
0.00458925
2.64084e-05
8.63311e-06
6.26997e-06
7.09249e-06
0.00457262
0.00414366
-0.000542438
4.03002e-06
0.00441417
-0.000409648
-1.42515e-06
0.00462167
-0.000324551
2.98026e-06
0.00471816
-0.000151329
-1.67034e-06
0.00474383
-5.22867e-05
2.20793e-06
0.0047412
-6.00961e-06
-1.58196e-06
0.00472857
6.32707e-06
1.56584e-06
0.0047196
8.01443e-06
-1.53323e-06
0.00470933
7.64818e-06
9.92975e-07
0.00470185
7.50496e-06
-1.55056e-06
0.00469304
7.14679e-06
4.67976e-07
0.00468525
7.57926e-06
-1.62336e-06
0.00467783
6.66812e-06
-2.62558e-08
0.0046694
7.44335e-06
-1.74017e-06
0.00466503
6.37787e-06
-5.12675e-07
0.00465848
2.87144e-06
-1.8982e-06
0.00466185
8.24435e-06
-1.06481e-06
0.00467565
-2.08761e-05
-2.17406e-06
0.00472074
-1.7591e-05
-2.07623e-06
-0.000123985
-3.06426e-06
0.00485313
0.00418472
-0.000951212
1.30208e-05
0.00442943
-0.000662306
7.55557e-06
0.00456367
-0.000471009
1.20506e-05
0.00460965
-0.00020599
7.45749e-06
0.00460596
-6.28634e-05
1.13891e-05
0.00459235
-3.63633e-06
7.67316e-06
0.004575
9.7896e-06
1.08217e-05
0.00456355
9.56399e-06
7.74203e-06
0.00455189
7.55217e-06
1.02649e-05
0.00454434
6.14902e-06
7.72686e-06
0.0045346
6.03874e-06
9.74641e-06
0.00452822
5.2096e-06
7.65221e-06
0.00451828
6.22607e-06
9.26391e-06
0.00451347
3.59166e-06
7.52915e-06
0.00450055
9.34425e-06
8.82072e-06
0.00449943
-4.51146e-06
7.36625e-06
0.0044749
2.31795e-05
8.46361e-06
0.00447164
-2.58882e-05
7.1821e-06
0.0044246
1.98033e-05
8.5578e-06
-5.56736e-05
7.04996e-06
0.0043482
0.00395232
-0.00111932
4.47523e-06
0.00389704
-0.000605868
-1.68022e-06
0.0037733
-0.000350799
2.98418e-06
0.00369434
-0.000126855
-1.66427e-06
0.00365651
-2.97152e-05
2.26181e-06
0.00364597
5.79689e-06
-1.51126e-06
0.00363894
1.30334e-05
1.63329e-06
0.00363653
1.176e-05
-1.46548e-06
0.00363044
1.12282e-05
1.0569e-06
0.00362671
1.00643e-05
-1.48774e-06
0.00362066
1.02895e-05
5.30775e-07
0.0036164
9.71384e-06
-1.56146e-06
0.00361133
9.93485e-06
3.84894e-08
0.00360601
9.2309e-06
-1.67785e-06
0.00360466
9.77267e-06
-4.39216e-07
0.0035939
6.71877e-06
-1.82692e-06
0.00360973
6.93517e-06
-9.47539e-07
0.00358005
4.5118e-06
-2.04306e-06
0.00366998
-6.97475e-05
-1.69278e-06
-0.000104641
-2.96458e-06
0.00372063
0.002655
1.49529e-05
0.0020403
8.21321e-06
0.00167555
1.31074e-05
0.001539
8.49198e-06
0.00149544
1.24543e-05
0.00149118
8.72525e-06
0.00149113
1.18727e-05
0.00149296
8.78837e-06
0.00149174
1.13093e-05
0.00149187
8.77035e-06
0.00149016
1.0788e-05
0.00148995
8.69573e-06
0.00148832
1.03024e-05
0.00148769
8.57429e-06
0.00148633
9.84591e-06
0.00148333
8.41612e-06
0.00147956
9.42525e-06
0.00147458
8.22486e-06
0.00139433
9.25213e-06
7.77986e-06
0.00128068
0.00346536
0.000332372
5.19093e-06
0.00291275
0.000553168
6.97137e-06
0.00249006
0.000430637
4.11335e-06
0.00225756
0.000233591
5.70945e-06
0.00216644
9.78404e-05
3.79641e-06
0.00213779
3.04494e-05
5.12427e-06
0.0021352
9.1348e-06
3.76374e-06
0.0021334
4.44879e-06
4.70374e-06
0.00213496
4.65187e-06
3.70092e-06
0.00213316
4.82639e-06
4.32459e-06
0.00213379
5.10498e-06
3.59683e-06
0.00213204
4.98192e-06
3.98077e-06
0.00213248
4.90746e-06
3.46555e-06
0.00213076
5.10772e-06
3.66718e-06
0.00213278
3.00334e-06
3.31596e-06
0.00212659
9.68517e-06
3.37828e-06
0.00214965
-1.8233e-05
3.14284e-06
0.00211052
4.27163e-05
3.11329e-06
0.00226109
-0.000145465
2.77131e-06
-5.04809e-05
2.89097e-06
0.00231494
0.00391302
0.000202104
9.95696e-06
0.00397656
0.000475866
1.15935e-05
0.00398075
0.000419187
9.45814e-06
0.00394796
0.000252229
1.05266e-05
0.00392678
0.000109074
9.17685e-06
0.00391281
2.99232e-05
1.00022e-05
0.0039112
9.40676e-07
9.1049e-06
0.0039083
-5.36323e-06
9.62428e-06
0.0039088
-5.07278e-06
8.99636e-06
0.00390588
-4.15572e-06
9.27659e-06
0.00390492
-3.41634e-06
8.85292e-06
0.00390192
-3.68793e-06
8.95801e-06
0.00389948
-2.50785e-06
8.69017e-06
0.00389761
-4.5713e-06
8.66424e-06
0.00389183
-1.35545e-06
8.52095e-06
0.00389297
-2.92346e-06
8.38985e-06
0.00387587
-1.15582e-05
8.36552e-06
0.00387581
3.12907e-05
8.15659e-06
0.00379144
-7.21527e-05
8.32232e-06
0.000122827
8.24433e-06
0.00360571
0.00390753
9.01492e-05
5.32732e-06
0.00410647
0.000277003
7.02829e-06
0.00425967
0.000272868
4.4818e-06
0.00433216
0.000179174
5.92359e-06
0.00435433
9.07468e-05
4.10134e-06
0.00434661
3.64674e-05
5.28556e-06
0.00433752
1.41394e-05
4.012e-06
0.00432679
6.51763e-06
4.85605e-06
0.00432232
4.56582e-06
3.93983e-06
0.00431644
4.04425e-06
4.48623e-06
0.00431426
3.78986e-06
3.82977e-06
0.00430929
3.89156e-06
4.15157e-06
0.00430824
3.18888e-06
3.6931e-06
0.00430213
4.26931e-06
3.84761e-06
0.0043047
4.32004e-07
3.53396e-06
0.00429598
8.62676e-06
3.57145e-06
0.00430877
-2.00958e-05
3.32282e-06
0.00431239
3.05666e-05
3.32271e-06
0.00434318
-9.80166e-05
2.77939e-06
2.27788e-05
3.08157e-06
0.00444631
0.0038308
4.17681e-05
9.81449e-06
0.00400214
9.23758e-05
1.14731e-05
0.0041845
8.33441e-05
9.45265e-06
0.00429571
5.3646e-05
1.05514e-05
0.004353
2.29917e-05
9.18195e-06
0.00436972
4.60727e-06
9.9936e-06
0.00437675
-3.12061e-06
9.08402e-06
0.00437525
-4.80283e-06
9.60359e-06
0.00437538
-4.64319e-06
8.97549e-06
0.00437199
-4.19455e-06
9.257e-06
0.0043703
-3.69827e-06
8.83374e-06
0.00436675
-3.91546e-06
8.93885e-06
0.00436326
-2.86797e-06
8.67203e-06
0.0043607
-4.40631e-06
8.64535e-06
0.00435234
-1.06507e-06
8.50643e-06
0.00435402
-4.19708e-06
8.37553e-06
0.00432198
1.68942e-06
8.37164e-06
0.0043321
9.24486e-06
8.17354e-06
0.00421953
3.22369e-06
8.46099e-06
6.6511e-05
8.28038e-06
0.00416366
0.00387886
-4.17664e-05
5.30536e-06
0.00406382
-9.23743e-05
7.01737e-06
0.00423731
-8.33432e-05
4.5405e-06
0.00434394
-5.36449e-05
5.97007e-06
0.00439361
-2.29896e-05
4.14787e-06
0.0044015
-4.60447e-06
5.31019e-06
0.00439925
3.12358e-06
4.03749e-06
0.00439075
4.80647e-06
4.87331e-06
0.00438663
4.64747e-06
3.96019e-06
0.00438059
4.19963e-06
4.50309e-06
0.00437825
3.70402e-06
3.84956e-06
0.00437305
3.93104e-06
4.16883e-06
0.004372
2.88009e-06
3.71205e-06
0.0043659
4.47529e-06
3.86533e-06
0.00436814
1.0852e-06
3.54945e-06
0.00436234
4.49142e-06
3.58986e-06
0.00436993
-1.59124e-06
3.32065e-06
0.00439023
-8.05827e-06
3.34127e-06
0.00440089
-2.35071e-06
2.73097e-06
-6.28507e-05
3.07263e-06
0.0045335
0.0038308
-9.01478e-05
9.81449e-06
0.00400214
-0.000277002
1.14731e-05
0.0041845
-0.000272868
9.45266e-06
0.00429571
-0.000179173
1.05514e-05
0.004353
-9.0745e-05
9.18195e-06
0.00436972
-3.64649e-05
9.9936e-06
0.00437675
-1.41367e-05
9.08404e-06
0.00437525
-6.51431e-06
9.60359e-06
0.00437538
-4.56197e-06
8.97549e-06
0.00437199
-4.03972e-06
9.257e-06
0.0043703
-3.7845e-06
8.83374e-06
0.00436675
-3.87744e-06
8.93885e-06
0.00436327
-3.17791e-06
8.67202e-06
0.00436071
-4.20393e-06
8.64537e-06
0.00435234
-4.16841e-07
8.5064e-06
0.00435405
-8.34597e-06
8.37577e-06
0.00432202
2.01659e-05
8.37146e-06
0.00433224
-2.94485e-05
8.17399e-06
0.00421975
9.87807e-05
8.46041e-06
-1.93062e-05
8.28104e-06
0.00416409
0.00390753
-0.000202103
5.32732e-06
0.00410647
-0.000475865
7.0283e-06
0.00425967
-0.000419187
4.48181e-06
0.00433216
-0.000252228
5.92359e-06
0.00435433
-0.000109073
4.10133e-06
0.00434661
-2.99216e-05
5.28554e-06
0.00433752
-9.38733e-07
4.01196e-06
0.00432679
5.36568e-06
4.85604e-06
0.00432232
5.07571e-06
3.93982e-06
0.00431644
4.15903e-06
4.48622e-06
0.00431426
3.42116e-06
3.82976e-06
0.00430929
3.69766e-06
4.15156e-06
0.00430824
2.51938e-06
3.69308e-06
0.00430216
4.61454e-06
3.8476e-06
0.00430471
1.37901e-06
3.53384e-06
0.00429609
3.12957e-06
3.57122e-06
0.00430883
1.16284e-05
3.32254e-06
0.00431273
-3.03825e-05
3.32261e-06
0.00434359
7.27807e-05
2.77942e-06
-0.000119612
3.08035e-06
0.00444703
0.00391302
-0.000332371
9.95695e-06
0.00397656
-0.000553168
1.15935e-05
0.00398075
-0.000430636
9.45814e-06
0.00394796
-0.000233591
1.05266e-05
0.00392678
-9.78402e-05
9.17685e-06
0.00391281
-3.04489e-05
1.00022e-05
0.0039112
-9.13405e-06
9.1049e-06
0.0039083
-4.44766e-06
9.62428e-06
0.0039088
-4.65049e-06
8.99636e-06
0.00390588
-4.82474e-06
9.27658e-06
0.00390493
-5.10228e-06
8.85291e-06
0.00390193
-4.97659e-06
8.958e-06
0.00389949
-4.90164e-06
8.69015e-06
0.00389764
-5.08046e-06
8.66423e-06
0.00389186
-2.99947e-06
8.5209e-06
0.00389311
-9.54511e-06
8.38988e-06
0.00387602
1.82043e-05
8.3653e-06
0.00387638
-4.2098e-05
8.15673e-06
0.00379239
0.000145578
8.32123e-06
5.19033e-05
8.24504e-06
0.00360857
0.00346536
5.19093e-06
0.00291275
6.97136e-06
0.00249006
4.11335e-06
0.00225756
5.70946e-06
0.00216644
3.79642e-06
0.00213779
5.12427e-06
0.0021352
3.76373e-06
0.0021334
4.70374e-06
0.00213496
3.70092e-06
0.00213316
4.32459e-06
0.0021338
3.59682e-06
0.00213205
3.98074e-06
0.00213249
3.46557e-06
0.0021308
3.66703e-06
0.00213281
3.3162e-06
0.00212679
3.37755e-06
0.00214978
3.14357e-06
0.00211131
3.11225e-06
0.00226194
2.7722e-06
2.88985e-06
0.00231729
0.00365113
0.000146756
-5.19107e-06
0.00344957
0.000215019
-6.9715e-06
0.0032656
0.000191314
-4.11349e-06
0.00315617
0.000118883
-5.7096e-06
0.0031075
5.36943e-05
-3.79655e-06
0.00309799
1.73758e-05
-5.12441e-06
0.00310188
1.71458e-06
-3.76388e-06
0.00311197
-2.27544e-06
-4.70387e-06
0.0031216
-3.70918e-06
-3.70105e-06
0.00313218
-3.39454e-06
-4.32473e-06
0.00314167
-3.79712e-06
-3.59696e-06
0.0031515
-3.40731e-06
-3.9809e-06
0.0031609
-4.01523e-06
-3.46568e-06
0.00316948
-2.84023e-06
-3.66731e-06
0.00318074
-6.16368e-06
-3.31609e-06
0.00318244
3.39923e-06
-3.37841e-06
0.00320762
-2.03528e-05
-3.14297e-06
0.00317568
3.65075e-05
-3.11342e-06
0.00323673
-5.69414e-05
-2.77144e-06
0.000101294
-2.8911e-06
0.00313958
0.00385949
9.46257e-05
-9.9571e-06
0.00393828
0.000159062
-1.15937e-05
0.00398746
0.000160404
-9.45829e-06
0.00401302
0.000112233
-1.05268e-05
0.00402236
5.94019e-05
-9.177e-06
0.00403154
2.49957e-05
-1.00023e-05
0.00404054
8.58236e-06
-9.10504e-06
0.00405296
3.02856e-06
-9.62443e-06
0.00406457
1.57653e-06
-8.99651e-06
0.00407727
1.50026e-06
-9.27674e-06
0.00408872
1.50925e-06
-8.85307e-06
0.00410073
1.52451e-06
-8.95816e-06
0.00411157
1.51286e-06
-8.69032e-06
0.00412311
1.91851e-06
-8.66439e-06
0.00413316
-1.80646e-07
-8.5211e-06
0.00414395
8.31208e-06
-8.39e-06
0.00415392
-1.45233e-05
-8.36567e-06
0.00416024
4.5364e-05
-8.15674e-06
0.00416807
-4.89597e-05
-8.32247e-06
0.000138032
-8.24448e-06
0.00414674
0.00384664
4.60886e-05
-5.32745e-06
0.00393424
8.5176e-05
-7.02844e-06
0.00401077
9.22031e-05
-4.48194e-06
0.00406521
6.74535e-05
-5.92373e-06
0.00409267
3.67342e-05
-4.10146e-06
0.00410966
1.52722e-05
-5.28568e-06
0.00412039
3.52264e-06
-4.01212e-06
0.00413247
-7.9931e-07
-4.85618e-06
0.00414355
-2.59038e-06
-3.93996e-06
0.00415591
-2.69787e-06
-4.48637e-06
0.00416738
-3.09393e-06
-3.82991e-06
0.00417918
-2.78799e-06
-4.15171e-06
0.00419059
-3.36542e-06
-3.69324e-06
0.00420159
-2.25071e-06
-3.84775e-06
0.00421277
-5.15945e-06
-3.5341e-06
0.00422496
2.38075e-06
-3.57159e-06
0.00423177
-1.55328e-05
-3.32295e-06
0.00425828
2.46204e-05
-3.32285e-06
0.00425232
-3.82277e-05
-2.77953e-06
7.5706e-05
-3.08171e-06
0.00431997
0.00383283
2.03254e-05
-9.81463e-06
0.00390773
3.28881e-05
-1.14733e-05
0.00398409
3.40981e-05
-9.45281e-06
0.00404525
2.52022e-05
-1.05515e-05
0.00408212
1.48117e-05
-9.18209e-06
0.00410666
7.40848e-06
-9.99375e-06
0.00412213
3.84956e-06
-9.08417e-06
0.00413663
2.42752e-06
-9.60374e-06
0.00414878
2.21361e-06
-8.97564e-06
0.00416166
2.10211e-06
-9.25715e-06
0.00417314
2.27168e-06
-8.83389e-06
0.00418525
2.13982e-06
-8.93901e-06
0.00419597
2.38065e-06
-8.67218e-06
0.0042079
2.21538e-06
-8.64551e-06
0.00421665
2.20797e-06
-8.50659e-06
0.00423103
3.85271e-06
-8.37569e-06
0.00423176
-4.05664e-07
-8.37179e-06
0.00425808
1.37666e-05
-8.1737e-06
0.00424065
-4.71218e-06
-8.46115e-06
4.13588e-05
-8.28054e-06
0.00429072
0.0038387
-2.03238e-05
-5.30549e-06
0.00391817
-3.28864e-05
-7.01751e-06
0.0039948
-3.40967e-05
-4.54064e-06
0.00405495
-2.52008e-05
-5.97021e-06
0.00408945
-1.48098e-05
-4.148e-06
0.00411159
-7.40652e-06
-5.31032e-06
0.00412501
-3.84791e-06
-4.03762e-06
0.00413816
-2.42468e-06
-4.87345e-06
0.00414955
-2.21102e-06
-3.96033e-06
0.00416196
-2.09691e-06
-4.50323e-06
0.00417343
-2.27184e-06
-3.8497e-06
0.00418522
-2.12099e-06
-4.16897e-06
0.00419658
-2.38981e-06
-3.71218e-06
0.00420781
-2.13543e-06
-3.86547e-06
0.00421851
-2.25345e-06
-3.54959e-06
0.00423222
-3.54094e-06
-3.59e-06
0.00423725
3.59794e-07
-3.32079e-06
0.00426959
-1.27321e-05
-3.3414e-06
0.00426422
5.3123e-06
-2.7311e-06
-3.83594e-05
-3.07276e-06
0.0043493
0.00383283
-4.60873e-05
-9.81464e-06
0.00390773
-8.51746e-05
-1.14733e-05
0.00398409
-9.2202e-05
-9.45281e-06
0.00404525
-6.74523e-05
-1.05515e-05
0.00408212
-3.67326e-05
-9.1821e-06
0.00410666
-1.52704e-05
-9.99375e-06
0.00412213
-3.52109e-06
-9.08419e-06
0.00413663
8.01851e-07
-9.60375e-06
0.00414878
2.59268e-06
-8.97564e-06
0.00416166
2.70244e-06
-9.25715e-06
0.00417314
3.09383e-06
-8.83389e-06
0.00418525
2.80486e-06
-8.93901e-06
0.00419597
3.35681e-06
-8.67217e-06
0.00420791
2.32417e-06
-8.64553e-06
0.00421666
5.1135e-06
-8.50655e-06
0.00423105
-2.08693e-06
-8.37593e-06
0.00423181
1.54647e-05
-8.37161e-06
0.00425817
-2.3626e-05
-8.17414e-06
0.00424086
3.86981e-05
-8.46056e-06
-7.27735e-05
-8.2812e-06
0.00429101
0.00384664
-9.46247e-05
-5.32745e-06
0.00393424
-0.000159061
-7.02844e-06
0.00401077
-0.000160403
-4.48194e-06
0.00406521
-0.000112232
-5.92373e-06
0.00409267
-5.94008e-05
-4.10147e-06
0.00410966
-2.49944e-05
-5.28568e-06
0.00412039
-8.58112e-06
-4.01211e-06
0.00413247
-3.02659e-06
-4.85619e-06
0.00414355
-1.57475e-06
-3.93996e-06
0.00415591
-1.49698e-06
-4.48636e-06
0.00416738
-1.50902e-06
-3.8299e-06
0.00417918
-1.51187e-06
-4.1517e-06
0.0041906
-1.51966e-06
-3.69321e-06
0.00420161
-1.85983e-06
-3.84773e-06
0.00421278
1.38058e-07
-3.53398e-06
0.00422502
-8.06254e-06
-3.57135e-06
0.00423184
1.44264e-05
-3.32267e-06
0.00425849
-4.44737e-05
-3.32274e-06
0.00425269
4.92135e-05
-2.77955e-06
-0.000135268
-3.08048e-06
0.00432058
0.00385949
-0.000146756
-9.9571e-06
0.00393828
-0.000215018
-1.15937e-05
0.00398746
-0.000191314
-9.45829e-06
0.00401302
-0.000118882
-1.05268e-05
0.00402236
-5.36937e-05
-9.17701e-06
0.00403154
-1.73751e-05
-1.00024e-05
0.00404054
-1.71381e-06
-9.10506e-06
0.00405296
2.27656e-06
-9.62444e-06
0.00406457
3.71011e-06
-8.99652e-06
0.00407728
3.39631e-06
-9.27675e-06
0.00408872
3.7971e-06
-8.85307e-06
0.00410073
3.41498e-06
-8.95816e-06
0.00411158
4.00915e-06
-8.69031e-06
0.00412314
2.87895e-06
-8.66439e-06
0.00413316
6.12726e-06
-8.52106e-06
0.00414407
-3.22157e-06
-8.39004e-06
0.00415396
2.0238e-05
-8.36546e-06
0.00416066
-3.58413e-05
-8.15689e-06
0.00416851
5.69815e-05
-8.32139e-06
-9.91582e-05
-8.2452e-06
0.004148
0.00365113
-5.19107e-06
0.00344957
-6.9715e-06
0.0032656
-4.11349e-06
0.00315617
-5.70959e-06
0.0031075
-3.79655e-06
0.00309799
-5.12441e-06
0.00310188
-3.76386e-06
0.00311197
-4.70388e-06
0.0031216
-3.70106e-06
0.00313218
-4.32473e-06
0.00314167
-3.59697e-06
0.00315151
-3.98088e-06
0.00316089
-3.46571e-06
0.00316953
-3.66716e-06
0.00318071
-3.31634e-06
0.00318267
-3.37769e-06
0.00320762
-3.14371e-06
0.00317647
-3.11239e-06
0.00323744
-2.77233e-06
-2.88999e-06
0.00314257
0.00346536
0.000332372
-1.4953e-05
0.00291275
0.000553168
-8.21331e-06
0.00249006
0.000430637
-1.31075e-05
0.00225756
0.000233591
-8.49207e-06
0.00216644
9.78408e-05
-1.24544e-05
0.00213779
3.04496e-05
-8.72534e-06
0.0021352
9.13486e-06
-1.18727e-05
0.0021334
4.44869e-06
-8.78846e-06
0.00213496
4.65171e-06
-1.13094e-05
0.00213316
4.82621e-06
-8.77045e-06
0.00213379
5.10482e-06
-1.07881e-05
0.00213204
4.98175e-06
-8.69583e-06
0.00213248
4.9073e-06
-1.03025e-05
0.00213075
5.10755e-06
-8.57439e-06
0.00213278
3.00318e-06
-9.84601e-06
0.00212659
9.68502e-06
-8.41608e-06
0.00214965
-1.82332e-05
-9.42547e-06
0.00211051
4.27161e-05
-8.22445e-06
0.00226109
-0.000145465
-9.25299e-06
-5.0481e-05
-7.77895e-06
0.00231494
0.00391302
0.000202104
-4.47532e-06
0.00397656
0.000475866
1.68012e-06
0.00398075
0.000419188
-2.98427e-06
0.00394796
0.000252229
1.66418e-06
0.00392678
0.000109074
-2.26191e-06
0.00391281
2.9923e-05
1.51117e-06
0.0039112
9.40164e-07
-1.63336e-06
0.0039083
-5.36383e-06
1.46543e-06
0.0039088
-5.07332e-06
-1.05699e-06
0.00390588
-4.1562e-06
1.48766e-06
0.00390492
-3.41675e-06
-5.30864e-07
0.00390192
-3.68832e-06
1.56137e-06
0.00389948
-2.5082e-06
-3.85705e-08
0.00389761
-4.57167e-06
1.67774e-06
0.00389183
-1.35579e-06
4.39208e-07
0.00389297
-2.92385e-06
1.82657e-06
0.00387587
-1.15584e-05
9.47852e-07
0.00387581
3.12903e-05
2.04173e-06
0.00379144
-7.2153e-05
1.69528e-06
0.000122826
2.96035e-06
0.00360571
0.00390753
9.01492e-05
-1.30209e-05
0.00410647
0.000277003
-7.55566e-06
0.00425967
0.000272869
-1.20507e-05
0.00433216
0.000179175
-7.45758e-06
0.00435433
9.07467e-05
-1.13892e-05
0.00434661
3.64667e-05
-7.67324e-06
0.00433752
1.41385e-05
-1.08218e-05
0.00432679
6.51679e-06
-7.74214e-06
0.00432232
4.56519e-06
-1.0265e-05
0.00431644
4.04378e-06
-7.72696e-06
0.00431426
3.78951e-06
-9.74652e-06
0.00430929
3.89124e-06
-7.65231e-06
0.00430824
3.18861e-06
-9.26402e-06
0.00430213
4.26902e-06
-7.52922e-06
0.0043047
4.31755e-07
-8.82088e-06
0.00429598
8.62647e-06
-7.36597e-06
0.00430877
-2.0096e-05
-8.46386e-06
0.00431238
3.05663e-05
-7.18168e-06
0.00434318
-9.80168e-05
-8.55845e-06
2.27786e-05
-7.04965e-06
0.00444631
0.0038308
4.1768e-05
-4.03011e-06
0.00400214
9.23759e-05
1.42506e-06
0.0041845
8.33445e-05
-2.98035e-06
0.00429571
5.36463e-05
1.67024e-06
0.004353
2.29915e-05
-2.20804e-06
0.00436972
4.60648e-06
1.58186e-06
0.00437675
-3.12157e-06
-1.56593e-06
0.00437525
-4.80371e-06
1.53315e-06
0.00437538
-4.64382e-06
-9.93065e-07
0.00437199
-4.195e-06
1.55047e-06
0.0043703
-3.69859e-06
-4.68069e-07
0.00436675
-3.91573e-06
1.62327e-06
0.00436326
-2.8682e-06
2.61616e-08
0.0043607
-4.40654e-06
1.74007e-06
0.00435233
-1.06527e-06
5.12571e-07
0.00435402
-4.19732e-06
1.89791e-06
0.00432197
1.68925e-06
1.06464e-06
0.0043321
9.24462e-06
2.17339e-06
0.00421953
3.22353e-06
2.07698e-06
6.65108e-05
3.06262e-06
0.00416366
0.00387886
-4.17665e-05
-1.27534e-05
0.00406382
-9.23742e-05
-7.6645e-06
0.00423731
-8.33428e-05
-1.20328e-05
0.00434394
-5.36447e-05
-7.45826e-06
0.00439361
-2.29899e-05
-1.13623e-05
0.0044015
-4.60524e-06
-7.64512e-06
0.00439925
3.12266e-06
-1.07896e-05
0.00439075
4.80565e-06
-7.71352e-06
0.00438663
4.64689e-06
-1.02374e-05
0.00438059
4.19921e-06
-7.70063e-06
0.00437825
3.70373e-06
-9.72054e-06
0.00437305
3.93079e-06
-7.62639e-06
0.004372
2.87988e-06
-9.23916e-06
0.0043659
4.47509e-06
-7.50335e-06
0.00436814
1.08502e-06
-8.80069e-06
0.00436234
4.49122e-06
-7.34061e-06
0.00436993
-1.59142e-06
-8.46855e-06
0.00439022
-8.05847e-06
-7.1615e-06
0.00440089
-2.35087e-06
-8.63321e-06
-6.28508e-05
-7.09258e-06
0.0045335
0.0038308
-9.01478e-05
-4.03011e-06
0.00400214
-0.000277002
1.42506e-06
0.0041845
-0.000272867
-2.98035e-06
0.00429571
-0.000179173
1.67024e-06
0.004353
-9.07452e-05
-2.20802e-06
0.00436972
-3.64656e-05
1.58187e-06
0.00437675
-1.41375e-05
-1.56592e-06
0.00437525
-6.51504e-06
1.53314e-06
0.00437538
-4.56251e-06
-9.93067e-07
0.00437199
-4.04012e-06
1.55047e-06
0.0043703
-3.78481e-06
-4.68071e-07
0.00436675
-3.87771e-06
1.62327e-06
0.00436327
-3.17815e-06
2.61605e-08
0.00436071
-4.20416e-06
1.74007e-06
0.00435234
-4.17072e-07
5.1258e-07
0.00435405
-8.3462e-06
1.8981e-06
0.00432202
2.01656e-05
1.06471e-06
0.00433223
-2.94487e-05
2.17397e-06
0.00421975
9.87805e-05
2.07614e-06
-1.93064e-05
3.06417e-06
0.00416409
0.00390753
-0.000202103
-1.30209e-05
0.00410647
-0.000475865
-7.55566e-06
0.00425967
-0.000419187
-1.20507e-05
0.00433216
-0.000252228
-7.45758e-06
0.00435433
-0.000109073
-1.13892e-05
0.00434661
-2.99219e-05
-7.67324e-06
0.00433752
-9.39081e-07
-1.08218e-05
0.00432679
5.36526e-06
-7.74211e-06
0.00432232
5.07533e-06
-1.0265e-05
0.00431644
4.15866e-06
-7.72696e-06
0.00431426
3.42084e-06
-9.74651e-06
0.00430929
3.69735e-06
-7.65231e-06
0.00430824
2.51909e-06
-9.26401e-06
0.00430216
4.61424e-06
-7.52925e-06
0.00430471
1.3787e-06
-8.82082e-06
0.00429609
3.12932e-06
-7.36635e-06
0.00430883
1.16282e-05
-8.46371e-06
0.00431273
-3.03827e-05
-7.1822e-06
0.00434358
7.27804e-05
-8.5579e-06
-0.000119612
-7.05006e-06
0.00444703
0.00391302
-0.000332371
-4.47532e-06
0.00397656
-0.000553168
1.68012e-06
0.00398075
-0.000430636
-2.98427e-06
0.00394796
-0.000233591
1.66418e-06
0.00392678
-9.78399e-05
-2.26189e-06
0.00391281
-3.04486e-05
1.51119e-06
0.0039112
-9.13388e-06
-1.63337e-06
0.0039083
-4.44765e-06
1.4654e-06
0.0039088
-4.65055e-06
-1.05699e-06
0.00390588
-4.82484e-06
1.48765e-06
0.00390493
-5.10238e-06
-5.30868e-07
0.00390193
-4.9767e-06
1.56136e-06
0.00389949
-4.90174e-06
-3.85831e-08
0.00389764
-5.08057e-06
1.67776e-06
0.00389186
-2.99958e-06
4.39122e-07
0.0038931
-9.54521e-06
1.82683e-06
0.00387602
1.82042e-05
9.47446e-07
0.00387637
-4.20981e-05
2.04296e-06
0.00379239
0.000145577
1.69268e-06
5.19033e-05
2.96448e-06
0.00360857
0.00346536
-1.49529e-05
0.00291275
-8.2133e-06
0.00249006
-1.31075e-05
0.00225756
-8.49206e-06
0.00216644
-1.24544e-05
0.00213779
-8.72532e-06
0.0021352
-1.18727e-05
0.0021334
-8.78844e-06
0.00213496
-1.13093e-05
0.00213316
-8.77043e-06
0.0021338
-1.07881e-05
0.00213205
-8.6958e-06
0.00213249
-1.03025e-05
0.0021308
-8.57437e-06
0.00213281
-9.84599e-06
0.00212679
-8.41619e-06
0.00214978
-9.42533e-06
0.00211131
-8.22494e-06
0.00226193
-9.25221e-06
-7.77993e-06
0.00231729
0.002655
0.00111932
0.0020403
0.000605868
0.00167555
0.000350799
0.001539
0.000126856
0.00149544
2.97158e-05
0.00149118
-5.79623e-06
0.00149113
-1.30326e-05
0.00149296
-1.17591e-05
0.00149174
-1.1227e-05
0.00149186
-1.00627e-05
0.00149016
-1.02865e-05
0.00148994
-9.7096e-06
0.0014883
-9.92557e-06
0.00148766
-9.21564e-06
0.00148627
-9.74267e-06
0.0014832
-6.64577e-06
0.00147936
-6.85375e-06
0.00147398
-4.14048e-06
0.00139354
6.99644e-05
0.000106246
0.00127828
0.00395232
0.000951213
0.00389704
0.000662307
0.0037733
0.00047101
0.00369434
0.000205991
0.00365651
6.28643e-05
0.00364597
3.63752e-06
0.00363894
-9.78807e-06
0.00363653
-9.56202e-06
0.00363043
-7.54964e-06
0.00362671
-6.14591e-06
0.00362066
-6.03346e-06
0.00361639
-5.19954e-06
0.00361132
-6.21217e-06
0.00360597
-3.54553e-06
0.00360463
-9.31672e-06
0.00359366
4.75734e-06
0.00360964
-2.3178e-05
0.00357921
2.6915e-05
0.00366929
-1.96352e-05
5.85838e-05
0.00371854
0.00418472
0.00054244
0.00442943
0.000409649
0.00456367
0.000324552
0.00460965
0.00015133
0.00460596
5.22881e-05
0.00459235
6.01127e-06
0.004575
-6.32508e-06
0.00456355
-8.01185e-06
0.00455189
-7.64465e-06
0.00454433
-7.50066e-06
0.0045346
-7.13996e-06
0.00452821
-7.56573e-06
0.00451827
-6.65024e-06
0.00451344
-7.38145e-06
0.00450053
-6.3471e-06
0.00449931
-2.55853e-06
0.00447484
-8.24148e-06
0.00447121
2.21953e-05
0.00442409
1.79191e-05
0.000127749
0.00434679
0.00414366
0.000183296
0.00441416
0.000140201
0.00462167
0.000113972
0.00471816
5.5155e-05
0.00474383
2.12875e-05
0.0047412
6.29381e-06
0.00472857
1.39964e-06
0.00471959
1.63189e-07
0.00470933
1.18843e-07
0.00470185
3.77091e-07
0.00469303
1.96721e-07
0.00468525
8.16116e-07
0.00467782
-2.24437e-07
0.00466938
1.75483e-06
0.00466502
-2.52649e-06
0.00465841
4.8935e-06
0.00466181
-1.15903e-05
0.00467549
9.6459e-06
0.00472055
-2.60131e-05
-2.3402e-06
0.00485275
0.00414275
-0.000183294
0.00441517
-0.000140199
0.00463101
-0.000113971
0.00473259
-5.51526e-05
0.0047607
-2.12842e-05
0.00476174
-6.29037e-06
0.00475039
-1.39641e-06
0.00474069
-1.59896e-07
0.00472918
-1.14885e-07
0.00472112
-3.72379e-07
0.00471079
-1.89833e-07
0.00470379
-8.0055e-07
0.00469308
2.41637e-07
0.00468799
-1.68095e-06
0.00467309
2.55064e-06
0.00467414
-4.51993e-06
0.00464151
1.15784e-05
0.00465124
-8.24319e-06
0.00458925
2.64081e-05
6.26957e-06
0.00457261
0.00414366
-0.000542438
0.00441417
-0.000409648
0.00462167
-0.000324551
0.00471816
-0.000151328
0.00474383
-5.2285e-05
0.0047412
-6.00806e-06
0.00472857
6.32806e-06
0.00471959
8.0148e-06
0.00470933
7.64815e-06
0.00470185
7.50472e-06
0.00469303
7.1465e-06
0.00468525
7.57894e-06
0.00467783
6.66782e-06
0.0046694
7.44302e-06
0.00466503
6.37755e-06
0.00465848
2.87112e-06
0.00466185
8.24403e-06
0.00467565
-2.08765e-05
0.00472074
-1.75912e-05
-0.000123985
0.00485312
0.00418472
-0.000951212
0.00442943
-0.000662306
0.00456367
-0.000471008
0.00460965
-0.000205989
0.00460596
-6.28618e-05
0.00459235
-3.63487e-06
0.004575
9.79058e-06
0.00456355
9.5644e-06
0.00455189
7.55223e-06
0.00454434
6.14893e-06
0.0045346
6.03862e-06
0.00452822
5.20946e-06
0.00451828
6.22594e-06
0.00451347
3.59151e-06
0.00450054
9.34409e-06
0.00449943
-4.51159e-06
0.0044749
2.31793e-05
0.00447164
-2.58884e-05
0.0044246
1.98032e-05
-5.56738e-05
0.0043482
0.00395232
-0.00111932
0.00389704
-0.000605868
0.0037733
-0.000350799
0.00369434
-0.000126855
0.00365651
-2.97141e-05
0.00364597
5.7979e-06
0.00363894
1.30341e-05
0.00363653
1.17604e-05
0.00363043
1.12284e-05
0.00362671
1.00644e-05
0.00362066
1.02896e-05
0.0036164
9.71395e-06
0.00361133
9.93497e-06
0.00360601
9.23101e-06
0.00360466
9.77277e-06
0.0035939
6.71889e-06
0.00360973
6.93529e-06
0.00358005
4.5119e-06
0.00366998
-6.97474e-05
-0.000104641
0.00372063
0.002655
0.0020403
0.00167555
0.001539
0.00149544
0.00149118
0.00149113
0.00149296
0.00149174
0.00149187
0.00149016
0.00148995
0.00148832
0.00148769
0.00148632
0.00148333
0.00147956
0.00147458
0.00139433
0.00128068
0.00110219
0.000103146
7.16155e-05
0.00107149
-2.9795e-05
6.36688e-05
0.00105987
-5.06789e-05
6.65466e-05
0.00105821
-5.39455e-05
6.00156e-05
0.00105594
-5.43968e-05
6.13058e-05
0.00105392
-5.09914e-05
5.67993e-05
0.0010507
-5.16324e-05
5.74013e-05
0.00104868
-4.92216e-05
5.42808e-05
0.00104848
-4.97192e-05
5.45085e-05
0.00104846
-4.80425e-05
5.22935e-05
0.00104688
-4.84758e-05
5.23007e-05
0.001046
-4.7036e-05
5.07377e-05
0.00104901
-4.74466e-05
5.0636e-05
0.00105277
-4.66028e-05
4.94858e-05
0.00105318
-4.70922e-05
4.93063e-05
0.00105135
-4.61313e-05
4.85004e-05
0.00105332
-4.63665e-05
4.83359e-05
0.00105758
-4.58253e-05
4.77372e-05
0.00105826
-4.63533e-05
4.75298e-05
0.00105467