/*--------------------------------*- C++ -*----------------------------------*\
  =========                 |
  \\      /  F ield         | OpenFOAM: The Open Source CFD Toolbox
   \\    /   O peration     | Website:  https://openfoam.org
    \\  /    A nd           | Version:  7
     \\/     M anipulation  |
\*---------------------------------------------------------------------------*/
FoamFile
{
    version     2.0;
    format      ascii;
    class       volScalarField;
    location    "0.05";
    object      pPrime2Mean;
}
// * * * * * * * * * * * * * * * * * * * * * * * * * * * * * * * * * * * * * //

dimensions      [2 -2 -4 0 0 0 0];

internalField   nonuniform List<scalar> 
27000
(
4.96532e+06
4.97215e+06
4.98162e+06
4.97493e+06
4.97785e+06
4.96976e+06
4.96628e+06
4.95645e+06
4.94806e+06
4.9357e+06
4.92323e+06
4.90777e+06
4.89165e+06
4.87345e+06
4.85432e+06
4.83377e+06
4.81241e+06
4.79002e+06
4.76689e+06
4.74296e+06
4.71829e+06
4.69281e+06
4.66671e+06
4.63985e+06
4.61222e+06
4.58385e+06
4.55475e+06
4.52503e+06
4.49466e+06
4.46362e+06
4.43196e+06
4.39964e+06
4.36663e+06
4.33295e+06
4.29866e+06
4.26377e+06
4.22831e+06
4.19231e+06
4.15577e+06
4.11878e+06
4.96613e+06
4.97487e+06
4.98461e+06
4.97813e+06
4.98102e+06
4.97202e+06
4.9681e+06
4.95718e+06
4.94819e+06
4.93487e+06
4.9216e+06
4.90554e+06
4.88882e+06
4.87e+06
4.8505e+06
4.82956e+06
4.80775e+06
4.78481e+06
4.76101e+06
4.7363e+06
4.71084e+06
4.68462e+06
4.65774e+06
4.6302e+06
4.60212e+06
4.57341e+06
4.54408e+06
4.5142e+06
4.48372e+06
4.45258e+06
4.42078e+06
4.38827e+06
4.35511e+06
4.32126e+06
4.28676e+06
4.25169e+06
4.21606e+06
4.17989e+06
4.14325e+06
4.10615e+06
4.96356e+06
4.97111e+06
4.98003e+06
4.9729e+06
4.97515e+06
4.96613e+06
4.9621e+06
4.95159e+06
4.94296e+06
4.93039e+06
4.91809e+06
4.9029e+06
4.88718e+06
4.86927e+06
4.85023e+06
4.82962e+06
4.80801e+06
4.78515e+06
4.76161e+06
4.73722e+06
4.71214e+06
4.68644e+06
4.66013e+06
4.63314e+06
4.6055e+06
4.57716e+06
4.54816e+06
4.51848e+06
4.48811e+06
4.45717e+06
4.42562e+06
4.39342e+06
4.36058e+06
4.32706e+06
4.29294e+06
4.25817e+06
4.22277e+06
4.1868e+06
4.15024e+06
4.11313e+06
4.96657e+06
4.97504e+06
4.98409e+06
4.9772e+06
4.97961e+06
4.97043e+06
4.9664e+06
4.95561e+06
4.94682e+06
4.93394e+06
4.92134e+06
4.90579e+06
4.88971e+06
4.87149e+06
4.85226e+06
4.83141e+06
4.80957e+06
4.78658e+06
4.76273e+06
4.73792e+06
4.71248e+06
4.68633e+06
4.65949e+06
4.63212e+06
4.60415e+06
4.57553e+06
4.54634e+06
4.51653e+06
4.48613e+06
4.45509e+06
4.42335e+06
4.39099e+06
4.35795e+06
4.32422e+06
4.28984e+06
4.25484e+06
4.21927e+06
4.18315e+06
4.14646e+06
4.10928e+06
4.96514e+06
4.97315e+06
4.98209e+06
4.97503e+06
4.97731e+06
4.96812e+06
4.96404e+06
4.9533e+06
4.94467e+06
4.93195e+06
4.9195e+06
4.90431e+06
4.8885e+06
4.87046e+06
4.85149e+06
4.83083e+06
4.80911e+06
4.78617e+06
4.76238e+06
4.7377e+06
4.71238e+06
4.68638e+06
4.65975e+06
4.63253e+06
4.60471e+06
4.5763e+06
4.54725e+06
4.51752e+06
4.48721e+06
4.45625e+06
4.42462e+06
4.39235e+06
4.35941e+06
4.32584e+06
4.29161e+06
4.25673e+06
4.22128e+06
4.18524e+06
4.14863e+06
4.11148e+06
4.96514e+06
4.97315e+06
4.98209e+06
4.97502e+06
4.9773e+06
4.9681e+06
4.96402e+06
4.95332e+06
4.94466e+06
4.9319e+06
4.91953e+06
4.90432e+06
4.88846e+06
4.87047e+06
4.85145e+06
4.8308e+06
4.80912e+06
4.78612e+06
4.76237e+06
4.73772e+06
4.71235e+06
4.68635e+06
4.65976e+06
4.63254e+06
4.60471e+06
4.5763e+06
4.54725e+06
4.51752e+06
4.4872e+06
4.45625e+06
4.42461e+06
4.39234e+06
4.35941e+06
4.32584e+06
4.29161e+06
4.25673e+06
4.22128e+06
4.18524e+06
4.14863e+06
4.11148e+06
4.96658e+06
4.97504e+06
4.98409e+06
4.9772e+06
4.97962e+06
4.97042e+06
4.96639e+06
4.95561e+06
4.94686e+06
4.93394e+06
4.92135e+06
4.90586e+06
4.88972e+06
4.87146e+06
4.85222e+06
4.83142e+06
4.80962e+06
4.78655e+06
4.76273e+06
4.73797e+06
4.71247e+06
4.6863e+06
4.65954e+06
4.63213e+06
4.60412e+06
4.57555e+06
4.54637e+06
4.51653e+06
4.48613e+06
4.45509e+06
4.42337e+06
4.39099e+06
4.35793e+06
4.32422e+06
4.28986e+06
4.25484e+06
4.21928e+06
4.18315e+06
4.14648e+06
4.10929e+06
4.96356e+06
4.9711e+06
4.98003e+06
4.97289e+06
4.97514e+06
4.96612e+06
4.96209e+06
4.95157e+06
4.94294e+06
4.93038e+06
4.91808e+06
4.90293e+06
4.88716e+06
4.86919e+06
4.85026e+06
4.82963e+06
4.80795e+06
4.78518e+06
4.76163e+06
4.7372e+06
4.71215e+06
4.68642e+06
4.66011e+06
4.63314e+06
4.60548e+06
4.57718e+06
4.54818e+06
4.51847e+06
4.48812e+06
4.45715e+06
4.4256e+06
4.39342e+06
4.36055e+06
4.32707e+06
4.29294e+06
4.25816e+06
4.22278e+06
4.18678e+06
4.15023e+06
4.11314e+06
4.96613e+06
4.97487e+06
4.98461e+06
4.97813e+06
4.98103e+06
4.97205e+06
4.96812e+06
4.9572e+06
4.94823e+06
4.93489e+06
4.92163e+06
4.90556e+06
4.88884e+06
4.87006e+06
4.85053e+06
4.82953e+06
4.80776e+06
4.78484e+06
4.76105e+06
4.73632e+06
4.71082e+06
4.68462e+06
4.65779e+06
4.63023e+06
4.60212e+06
4.57343e+06
4.54411e+06
4.51421e+06
4.48373e+06
4.45259e+06
4.42077e+06
4.38829e+06
4.35512e+06
4.32126e+06
4.28677e+06
4.2517e+06
4.21606e+06
4.17989e+06
4.14325e+06
4.10615e+06
4.96531e+06
4.97214e+06
4.98161e+06
4.97492e+06
4.97784e+06
4.96971e+06
4.96624e+06
4.95641e+06
4.94802e+06
4.93568e+06
4.92321e+06
4.90773e+06
4.89164e+06
4.87345e+06
4.85428e+06
4.83374e+06
4.81241e+06
4.79001e+06
4.76689e+06
4.74291e+06
4.71829e+06
4.69286e+06
4.66667e+06
4.63983e+06
4.61222e+06
4.5838e+06
4.55477e+06
4.52504e+06
4.49463e+06
4.46363e+06
4.43197e+06
4.39963e+06
4.36662e+06
4.33295e+06
4.29866e+06
4.26375e+06
4.22831e+06
4.1923e+06
4.15577e+06
4.11877e+06
4.96629e+06
4.95403e+06
4.96592e+06
4.94984e+06
4.95397e+06
4.94169e+06
4.93896e+06
4.92754e+06
4.91942e+06
4.90604e+06
4.89312e+06
4.8767e+06
4.85963e+06
4.84044e+06
4.82058e+06
4.79938e+06
4.77747e+06
4.75452e+06
4.73092e+06
4.70637e+06
4.68111e+06
4.65516e+06
4.62856e+06
4.60129e+06
4.57339e+06
4.54485e+06
4.51563e+06
4.48571e+06
4.45514e+06
4.4239e+06
4.39196e+06
4.35936e+06
4.32613e+06
4.29224e+06
4.25776e+06
4.22274e+06
4.18715e+06
4.15107e+06
4.11453e+06
4.07748e+06
4.96482e+06
4.95071e+06
4.96211e+06
4.94479e+06
4.9481e+06
4.93456e+06
4.93116e+06
4.91942e+06
4.91155e+06
4.89899e+06
4.88736e+06
4.87235e+06
4.8567e+06
4.8387e+06
4.81974e+06
4.79916e+06
4.77769e+06
4.75514e+06
4.73188e+06
4.70776e+06
4.68295e+06
4.65746e+06
4.6313e+06
4.60448e+06
4.57703e+06
4.54893e+06
4.52015e+06
4.49067e+06
4.46051e+06
4.42966e+06
4.3981e+06
4.36585e+06
4.33295e+06
4.29936e+06
4.26515e+06
4.23036e+06
4.19501e+06
4.15912e+06
4.12271e+06
4.08582e+06
4.96714e+06
4.95403e+06
4.96572e+06
4.94888e+06
4.9522e+06
4.93903e+06
4.93571e+06
4.92406e+06
4.91612e+06
4.9034e+06
4.8915e+06
4.87627e+06
4.86032e+06
4.84198e+06
4.82263e+06
4.80163e+06
4.77969e+06
4.75663e+06
4.73285e+06
4.70818e+06
4.68284e+06
4.65683e+06
4.6302e+06
4.60294e+06
4.57506e+06
4.54659e+06
4.51753e+06
4.48785e+06
4.4575e+06
4.42649e+06
4.3948e+06
4.36238e+06
4.32925e+06
4.29547e+06
4.26104e+06
4.22598e+06
4.19035e+06
4.1542e+06
4.11754e+06
4.08041e+06
4.96466e+06
4.95043e+06
4.96206e+06
4.94485e+06
4.94855e+06
4.93526e+06
4.93205e+06
4.92013e+06
4.91197e+06
4.89892e+06
4.88679e+06
4.87142e+06
4.85556e+06
4.83751e+06
4.81857e+06
4.798e+06
4.77648e+06
4.75378e+06
4.73026e+06
4.70581e+06
4.68068e+06
4.65486e+06
4.62841e+06
4.60133e+06
4.57371e+06
4.54551e+06
4.51671e+06
4.48728e+06
4.45723e+06
4.42651e+06
4.39508e+06
4.36295e+06
4.33014e+06
4.2966e+06
4.26239e+06
4.22755e+06
4.19213e+06
4.15616e+06
4.11966e+06
4.08266e+06
4.96595e+06
4.95217e+06
4.96388e+06
4.94678e+06
4.95016e+06
4.93673e+06
4.93325e+06
4.92124e+06
4.91303e+06
4.90004e+06
4.88802e+06
4.87278e+06
4.857e+06
4.83894e+06
4.81992e+06
4.79921e+06
4.77753e+06
4.75466e+06
4.73103e+06
4.70645e+06
4.68121e+06
4.65531e+06
4.62875e+06
4.60157e+06
4.57385e+06
4.54554e+06
4.51664e+06
4.48711e+06
4.45696e+06
4.42616e+06
4.39465e+06
4.36243e+06
4.32954e+06
4.29592e+06
4.26162e+06
4.2267e+06
4.19119e+06
4.15512e+06
4.11852e+06
4.08143e+06
4.96595e+06
4.95217e+06
4.96388e+06
4.94678e+06
4.95016e+06
4.93674e+06
4.93326e+06
4.92126e+06
4.91304e+06
4.90005e+06
4.88803e+06
4.87279e+06
4.85701e+06
4.83895e+06
4.81993e+06
4.79922e+06
4.77753e+06
4.75467e+06
4.73103e+06
4.70646e+06
4.68121e+06
4.65531e+06
4.62875e+06
4.60158e+06
4.57386e+06
4.54555e+06
4.51665e+06
4.48711e+06
4.45696e+06
4.42616e+06
4.39465e+06
4.36244e+06
4.32954e+06
4.29592e+06
4.26162e+06
4.2267e+06
4.19119e+06
4.15512e+06
4.11852e+06
4.08143e+06
4.96466e+06
4.95042e+06
4.96206e+06
4.94485e+06
4.94855e+06
4.93525e+06
4.93203e+06
4.92012e+06
4.91195e+06
4.89891e+06
4.88679e+06
4.87141e+06
4.85555e+06
4.8375e+06
4.81856e+06
4.798e+06
4.77648e+06
4.75377e+06
4.73027e+06
4.70582e+06
4.68067e+06
4.65487e+06
4.6284e+06
4.60133e+06
4.57371e+06
4.54551e+06
4.51671e+06
4.48728e+06
4.45722e+06
4.42651e+06
4.39508e+06
4.36295e+06
4.33014e+06
4.2966e+06
4.26238e+06
4.22755e+06
4.19213e+06
4.15616e+06
4.11965e+06
4.08265e+06
4.96714e+06
4.95403e+06
4.96572e+06
4.94888e+06
4.95221e+06
4.93905e+06
4.93573e+06
4.92407e+06
4.91614e+06
4.90341e+06
4.89152e+06
4.87627e+06
4.86033e+06
4.84199e+06
4.82265e+06
4.80164e+06
4.7797e+06
4.75664e+06
4.73286e+06
4.70819e+06
4.68284e+06
4.65682e+06
4.6302e+06
4.60294e+06
4.57506e+06
4.5466e+06
4.51754e+06
4.48785e+06
4.45752e+06
4.42649e+06
4.39478e+06
4.36237e+06
4.32927e+06
4.29548e+06
4.26103e+06
4.22598e+06
4.19036e+06
4.1542e+06
4.11754e+06
4.08042e+06
4.96482e+06
4.95071e+06
4.96211e+06
4.94479e+06
4.9481e+06
4.93454e+06
4.93114e+06
4.9194e+06
4.91153e+06
4.89898e+06
4.88735e+06
4.87233e+06
4.85669e+06
4.8387e+06
4.81972e+06
4.79915e+06
4.77769e+06
4.75513e+06
4.73188e+06
4.70774e+06
4.68294e+06
4.65744e+06
4.63129e+06
4.60449e+06
4.57703e+06
4.5489e+06
4.52013e+06
4.49068e+06
4.46052e+06
4.42965e+06
4.3981e+06
4.36587e+06
4.33293e+06
4.29935e+06
4.26515e+06
4.23035e+06
4.19502e+06
4.15912e+06
4.12271e+06
4.08582e+06
4.96629e+06
4.95403e+06
4.96592e+06
4.94984e+06
4.95398e+06
4.94173e+06
4.93899e+06
4.92754e+06
4.91945e+06
4.90607e+06
4.89309e+06
4.87674e+06
4.85967e+06
4.84043e+06
4.82063e+06
4.79939e+06
4.77746e+06
4.75454e+06
4.73091e+06
4.70637e+06
4.68112e+06
4.65518e+06
4.62858e+06
4.60129e+06
4.57342e+06
4.54486e+06
4.51562e+06
4.48571e+06
4.45515e+06
4.42391e+06
4.39197e+06
4.35936e+06
4.32611e+06
4.29225e+06
4.25776e+06
4.22273e+06
4.18717e+06
4.15108e+06
4.11452e+06
4.07748e+06
4.97739e+06
4.95931e+06
4.96624e+06
4.94807e+06
4.94961e+06
4.93549e+06
4.93156e+06
4.91872e+06
4.90999e+06
4.89597e+06
4.88301e+06
4.86668e+06
4.85006e+06
4.83115e+06
4.81145e+06
4.79014e+06
4.76801e+06
4.74475e+06
4.72081e+06
4.69609e+06
4.67079e+06
4.64487e+06
4.61839e+06
4.59131e+06
4.56361e+06
4.53525e+06
4.50622e+06
4.47649e+06
4.44604e+06
4.41488e+06
4.38301e+06
4.35044e+06
4.31721e+06
4.28335e+06
4.2489e+06
4.21389e+06
4.17837e+06
4.14236e+06
4.10588e+06
4.06892e+06
4.97807e+06
4.96011e+06
4.9673e+06
4.94907e+06
4.95073e+06
4.93656e+06
4.93271e+06
4.91996e+06
4.91137e+06
4.89756e+06
4.88484e+06
4.86878e+06
4.8524e+06
4.83369e+06
4.81413e+06
4.79288e+06
4.77074e+06
4.74742e+06
4.72335e+06
4.69847e+06
4.673e+06
4.64693e+06
4.62032e+06
4.59315e+06
4.5654e+06
4.53704e+06
4.50804e+06
4.47837e+06
4.44801e+06
4.41695e+06
4.38517e+06
4.35269e+06
4.31951e+06
4.28568e+06
4.25122e+06
4.21618e+06
4.1806e+06
4.1445e+06
4.10793e+06
4.07087e+06
4.97779e+06
4.95964e+06
4.96653e+06
4.94817e+06
4.94961e+06
4.93538e+06
4.93143e+06
4.91866e+06
4.91007e+06
4.89629e+06
4.88364e+06
4.86766e+06
4.85136e+06
4.83271e+06
4.8132e+06
4.79197e+06
4.76982e+06
4.74646e+06
4.72234e+06
4.69738e+06
4.67182e+06
4.64565e+06
4.61894e+06
4.59167e+06
4.56386e+06
4.53546e+06
4.50646e+06
4.47683e+06
4.44654e+06
4.41556e+06
4.38388e+06
4.35148e+06
4.31837e+06
4.28458e+06
4.25014e+06
4.2151e+06
4.17949e+06
4.14335e+06
4.10673e+06
4.06962e+06
4.97807e+06
4.9601e+06
4.96727e+06
4.949e+06
4.95063e+06
4.93648e+06
4.93266e+06
4.91998e+06
4.91149e+06
4.89782e+06
4.88527e+06
4.86938e+06
4.85318e+06
4.8346e+06
4.81514e+06
4.79393e+06
4.77178e+06
4.7484e+06
4.72423e+06
4.69923e+06
4.67363e+06
4.64742e+06
4.62068e+06
4.59339e+06
4.56558e+06
4.53719e+06
4.50821e+06
4.47861e+06
4.44835e+06
4.41741e+06
4.38576e+06
4.3534e+06
4.32034e+06
4.28658e+06
4.25216e+06
4.21712e+06
4.18151e+06
4.14535e+06
4.1087e+06
4.07155e+06
4.97799e+06
4.95996e+06
4.96696e+06
4.9486e+06
4.95014e+06
4.93594e+06
4.93205e+06
4.91935e+06
4.91083e+06
4.89715e+06
4.8846e+06
4.86872e+06
4.85252e+06
4.83396e+06
4.81449e+06
4.79328e+06
4.77112e+06
4.74774e+06
4.72357e+06
4.69856e+06
4.67294e+06
4.64671e+06
4.61995e+06
4.59265e+06
4.56482e+06
4.53642e+06
4.50745e+06
4.47785e+06
4.4476e+06
4.41667e+06
4.38504e+06
4.35269e+06
4.31963e+06
4.28587e+06
4.25145e+06
4.21641e+06
4.18078e+06
4.14462e+06
4.10796e+06
4.0708e+06
4.97799e+06
4.95996e+06
4.96697e+06
4.9486e+06
4.95014e+06
4.93594e+06
4.93205e+06
4.91935e+06
4.91083e+06
4.89715e+06
4.8846e+06
4.86872e+06
4.85252e+06
4.83396e+06
4.81449e+06
4.79328e+06
4.77112e+06
4.74774e+06
4.72357e+06
4.69856e+06
4.67294e+06
4.64671e+06
4.61995e+06
4.59265e+06
4.56482e+06
4.53642e+06
4.50745e+06
4.47785e+06
4.4476e+06
4.41667e+06
4.38504e+06
4.35269e+06
4.31963e+06
4.28587e+06
4.25145e+06
4.21641e+06
4.18078e+06
4.14462e+06
4.10796e+06
4.0708e+06
4.97807e+06
4.9601e+06
4.96727e+06
4.949e+06
4.95063e+06
4.93648e+06
4.93266e+06
4.91998e+06
4.91149e+06
4.89782e+06
4.88527e+06
4.86938e+06
4.85317e+06
4.8346e+06
4.81514e+06
4.79393e+06
4.77178e+06
4.74839e+06
4.72423e+06
4.69923e+06
4.67363e+06
4.64742e+06
4.62068e+06
4.59339e+06
4.56558e+06
4.53719e+06
4.50822e+06
4.47861e+06
4.44835e+06
4.41741e+06
4.38576e+06
4.3534e+06
4.32034e+06
4.28658e+06
4.25216e+06
4.21712e+06
4.18151e+06
4.14535e+06
4.1087e+06
4.07155e+06
4.97779e+06
4.95965e+06
4.96653e+06
4.94817e+06
4.94961e+06
4.93538e+06
4.93143e+06
4.91866e+06
4.91007e+06
4.8963e+06
4.88364e+06
4.86766e+06
4.85136e+06
4.83271e+06
4.8132e+06
4.79197e+06
4.76982e+06
4.74646e+06
4.72234e+06
4.69738e+06
4.67182e+06
4.64565e+06
4.61894e+06
4.59167e+06
4.56386e+06
4.53546e+06
4.50646e+06
4.47683e+06
4.44654e+06
4.41556e+06
4.38388e+06
4.35148e+06
4.31837e+06
4.28458e+06
4.25014e+06
4.2151e+06
4.17949e+06
4.14335e+06
4.10673e+06
4.06962e+06
4.97807e+06
4.96011e+06
4.9673e+06
4.94907e+06
4.95072e+06
4.93656e+06
4.93271e+06
4.91996e+06
4.91137e+06
4.89756e+06
4.88484e+06
4.86878e+06
4.8524e+06
4.83369e+06
4.81413e+06
4.79289e+06
4.77074e+06
4.74741e+06
4.72335e+06
4.69847e+06
4.673e+06
4.64692e+06
4.62032e+06
4.59314e+06
4.5654e+06
4.53704e+06
4.50804e+06
4.47837e+06
4.44801e+06
4.41695e+06
4.38517e+06
4.35269e+06
4.31951e+06
4.28568e+06
4.25122e+06
4.21618e+06
4.1806e+06
4.1445e+06
4.10793e+06
4.07087e+06
4.97739e+06
4.95931e+06
4.96624e+06
4.94808e+06
4.94961e+06
4.93549e+06
4.93156e+06
4.91872e+06
4.90999e+06
4.89597e+06
4.88301e+06
4.86668e+06
4.85006e+06
4.83115e+06
4.81145e+06
4.79014e+06
4.768e+06
4.74475e+06
4.72081e+06
4.69609e+06
4.67079e+06
4.64487e+06
4.61839e+06
4.5913e+06
4.56361e+06
4.53525e+06
4.50622e+06
4.47649e+06
4.44604e+06
4.41488e+06
4.38301e+06
4.35044e+06
4.31721e+06
4.28335e+06
4.2489e+06
4.21389e+06
4.17837e+06
4.14236e+06
4.10588e+06
4.06892e+06
4.99932e+06
4.97575e+06
4.97961e+06
4.95903e+06
4.9575e+06
4.94197e+06
4.93617e+06
4.92248e+06
4.91277e+06
4.89825e+06
4.88483e+06
4.86822e+06
4.85133e+06
4.83215e+06
4.81215e+06
4.79048e+06
4.76794e+06
4.74425e+06
4.71988e+06
4.69474e+06
4.66907e+06
4.64284e+06
4.61612e+06
4.58886e+06
4.56106e+06
4.53266e+06
4.50362e+06
4.47388e+06
4.44343e+06
4.41224e+06
4.3803e+06
4.34763e+06
4.31426e+06
4.28022e+06
4.24557e+06
4.21038e+06
4.17467e+06
4.1385e+06
4.10188e+06
4.06481e+06
4.99948e+06
4.97593e+06
4.97969e+06
4.95907e+06
4.95742e+06
4.94186e+06
4.93601e+06
4.92231e+06
4.9126e+06
4.89813e+06
4.88476e+06
4.86823e+06
4.85143e+06
4.83232e+06
4.81238e+06
4.79075e+06
4.76822e+06
4.74451e+06
4.72008e+06
4.69487e+06
4.66911e+06
4.64277e+06
4.61595e+06
4.58861e+06
4.56075e+06
4.53231e+06
4.50326e+06
4.47355e+06
4.44316e+06
4.41204e+06
4.38019e+06
4.34761e+06
4.31432e+06
4.28035e+06
4.24574e+06
4.21055e+06
4.17482e+06
4.13861e+06
4.10192e+06
4.06478e+06
4.99935e+06
4.97571e+06
4.9795e+06
4.95886e+06
4.95723e+06
4.94164e+06
4.93581e+06
4.92211e+06
4.91244e+06
4.898e+06
4.88469e+06
4.86822e+06
4.85146e+06
4.8324e+06
4.81248e+06
4.79086e+06
4.76832e+06
4.74459e+06
4.72013e+06
4.69487e+06
4.66906e+06
4.64268e+06
4.61582e+06
4.58844e+06
4.56055e+06
4.53211e+06
4.50307e+06
4.47339e+06
4.44304e+06
4.41198e+06
4.38019e+06
4.34767e+06
4.31443e+06
4.28049e+06
4.24591e+06
4.21072e+06
4.17498e+06
4.13874e+06
4.10202e+06
4.06484e+06
4.99949e+06
4.97594e+06
4.97964e+06
4.95896e+06
4.95729e+06
4.94166e+06
4.9358e+06
4.92209e+06
4.91242e+06
4.89799e+06
4.8847e+06
4.86825e+06
4.85152e+06
4.83248e+06
4.81258e+06
4.79096e+06
4.76842e+06
4.74467e+06
4.72018e+06
4.6949e+06
4.66906e+06
4.64265e+06
4.61576e+06
4.58836e+06
4.56045e+06
4.53199e+06
4.50295e+06
4.47329e+06
4.44295e+06
4.41191e+06
4.38015e+06
4.34766e+06
4.31444e+06
4.28052e+06
4.24594e+06
4.21075e+06
4.175e+06
4.13874e+06
4.102e+06
4.06479e+06
4.99943e+06
4.97581e+06
4.97955e+06
4.95888e+06
4.95721e+06
4.94159e+06
4.93574e+06
4.92203e+06
4.91236e+06
4.89794e+06
4.88467e+06
4.86823e+06
4.85151e+06
4.83247e+06
4.81258e+06
4.79095e+06
4.76841e+06
4.74466e+06
4.72017e+06
4.69487e+06
4.66903e+06
4.64261e+06
4.61571e+06
4.5883e+06
4.5604e+06
4.53194e+06
4.50291e+06
4.47325e+06
4.44292e+06
4.4119e+06
4.38015e+06
4.34766e+06
4.31445e+06
4.28054e+06
4.24596e+06
4.21077e+06
4.17502e+06
4.13876e+06
4.10201e+06
4.06479e+06
4.99943e+06
4.97581e+06
4.97955e+06
4.95888e+06
4.95721e+06
4.94159e+06
4.93574e+06
4.92203e+06
4.91236e+06
4.89794e+06
4.88467e+06
4.86823e+06
4.85151e+06
4.83247e+06
4.81258e+06
4.79095e+06
4.76841e+06
4.74466e+06
4.72016e+06
4.69487e+06
4.66903e+06
4.64261e+06
4.61571e+06
4.5883e+06
4.5604e+06
4.53194e+06
4.50291e+06
4.47325e+06
4.44292e+06
4.4119e+06
4.38015e+06
4.34766e+06
4.31445e+06
4.28054e+06
4.24596e+06
4.21077e+06
4.17502e+06
4.13876e+06
4.10201e+06
4.06479e+06
4.99949e+06
4.97594e+06
4.97964e+06
4.95896e+06
4.95729e+06
4.94166e+06
4.9358e+06
4.92209e+06
4.91242e+06
4.89799e+06
4.8847e+06
4.86825e+06
4.85152e+06
4.83248e+06
4.81258e+06
4.79096e+06
4.76842e+06
4.74467e+06
4.72018e+06
4.6949e+06
4.66906e+06
4.64265e+06
4.61576e+06
4.58836e+06
4.56045e+06
4.53199e+06
4.50295e+06
4.47329e+06
4.44295e+06
4.41191e+06
4.38015e+06
4.34766e+06
4.31444e+06
4.28052e+06
4.24594e+06
4.21075e+06
4.175e+06
4.13874e+06
4.102e+06
4.06479e+06
4.99935e+06
4.97571e+06
4.9795e+06
4.95886e+06
4.95723e+06
4.94164e+06
4.93581e+06
4.92211e+06
4.91244e+06
4.898e+06
4.88469e+06
4.86822e+06
4.85146e+06
4.8324e+06
4.81248e+06
4.79086e+06
4.76832e+06
4.74459e+06
4.72013e+06
4.69487e+06
4.66906e+06
4.64268e+06
4.61582e+06
4.58844e+06
4.56055e+06
4.53211e+06
4.50307e+06
4.47339e+06
4.44304e+06
4.41198e+06
4.38019e+06
4.34767e+06
4.31443e+06
4.28049e+06
4.24591e+06
4.21072e+06
4.17498e+06
4.13874e+06
4.10202e+06
4.06484e+06
4.99948e+06
4.97593e+06
4.97969e+06
4.95907e+06
4.95742e+06
4.94186e+06
4.936e+06
4.92231e+06
4.9126e+06
4.89813e+06
4.88476e+06
4.86823e+06
4.85143e+06
4.83232e+06
4.81238e+06
4.79075e+06
4.76822e+06
4.74451e+06
4.72008e+06
4.69487e+06
4.66911e+06
4.64277e+06
4.61595e+06
4.58861e+06
4.56075e+06
4.53231e+06
4.50326e+06
4.47355e+06
4.44316e+06
4.41204e+06
4.38019e+06
4.34761e+06
4.31432e+06
4.28035e+06
4.24574e+06
4.21055e+06
4.17482e+06
4.13861e+06
4.10192e+06
4.06478e+06
4.99932e+06
4.97575e+06
4.97961e+06
4.95903e+06
4.9575e+06
4.94197e+06
4.93617e+06
4.92248e+06
4.91277e+06
4.89825e+06
4.88483e+06
4.86822e+06
4.85133e+06
4.83215e+06
4.81215e+06
4.79048e+06
4.76794e+06
4.74426e+06
4.71988e+06
4.69474e+06
4.66907e+06
4.64284e+06
4.61612e+06
4.58886e+06
4.56106e+06
4.53266e+06
4.50362e+06
4.47389e+06
4.44343e+06
4.41224e+06
4.3803e+06
4.34763e+06
4.31425e+06
4.28022e+06
4.24557e+06
4.21038e+06
4.17467e+06
4.1385e+06
4.10188e+06
4.06481e+06
5.02012e+06
4.99238e+06
4.9945e+06
4.97119e+06
4.96734e+06
4.95004e+06
4.94249e+06
4.92764e+06
4.91677e+06
4.90148e+06
4.8873e+06
4.87014e+06
4.8527e+06
4.83306e+06
4.81259e+06
4.79048e+06
4.76752e+06
4.74343e+06
4.71868e+06
4.69321e+06
4.66726e+06
4.64078e+06
4.61385e+06
4.58644e+06
4.55851e+06
4.53001e+06
4.5009e+06
4.47112e+06
4.44062e+06
4.40938e+06
4.37739e+06
4.34465e+06
4.31119e+06
4.27705e+06
4.2423e+06
4.20699e+06
4.17117e+06
4.1349e+06
4.0982e+06
4.06106e+06
5.02015e+06
4.99239e+06
4.9945e+06
4.97116e+06
4.96728e+06
4.94996e+06
4.94239e+06
4.92753e+06
4.91666e+06
4.9014e+06
4.88725e+06
4.87013e+06
4.85275e+06
4.83314e+06
4.81272e+06
4.79064e+06
4.76769e+06
4.74359e+06
4.71882e+06
4.6933e+06
4.66728e+06
4.64074e+06
4.61375e+06
4.58627e+06
4.5583e+06
4.52977e+06
4.50065e+06
4.47088e+06
4.44043e+06
4.40925e+06
4.37733e+06
4.34466e+06
4.31128e+06
4.2772e+06
4.24249e+06
4.20719e+06
4.17137e+06
4.13507e+06
4.09831e+06
4.06111e+06
5.02013e+06
4.99238e+06
4.99449e+06
4.97113e+06
4.96724e+06
4.94991e+06
4.94234e+06
4.92748e+06
4.91662e+06
4.90137e+06
4.88726e+06
4.87017e+06
4.85281e+06
4.83323e+06
4.81282e+06
4.79075e+06
4.76779e+06
4.74369e+06
4.71889e+06
4.69335e+06
4.6673e+06
4.64072e+06
4.6137e+06
4.58619e+06
4.5582e+06
4.52966e+06
4.50054e+06
4.47079e+06
4.44036e+06
4.40922e+06
4.37734e+06
4.34472e+06
4.31137e+06
4.27732e+06
4.24262e+06
4.20733e+06
4.17149e+06
4.13517e+06
4.09838e+06
4.06115e+06
5.02015e+06
4.99239e+06
4.99448e+06
4.97111e+06
4.9672e+06
4.94986e+06
4.94228e+06
4.92742e+06
4.91657e+06
4.90133e+06
4.88723e+06
4.87016e+06
4.85281e+06
4.83325e+06
4.81285e+06
4.79078e+06
4.76782e+06
4.74371e+06
4.71889e+06
4.69334e+06
4.66727e+06
4.64067e+06
4.61363e+06
4.58611e+06
4.55811e+06
4.52957e+06
4.50045e+06
4.47071e+06
4.4403e+06
4.40917e+06
4.37731e+06
4.34471e+06
4.31138e+06
4.27734e+06
4.24265e+06
4.20735e+06
4.17151e+06
4.13517e+06
4.09837e+06
4.06112e+06
5.02014e+06
4.99238e+06
4.99448e+06
4.97111e+06
4.9672e+06
4.94985e+06
4.94227e+06
4.92742e+06
4.91657e+06
4.90133e+06
4.88724e+06
4.87017e+06
4.85283e+06
4.83327e+06
4.81287e+06
4.7908e+06
4.76784e+06
4.74372e+06
4.71891e+06
4.69334e+06
4.66727e+06
4.64066e+06
4.61362e+06
4.58609e+06
4.55809e+06
4.52955e+06
4.50044e+06
4.4707e+06
4.44029e+06
4.40918e+06
4.37733e+06
4.34473e+06
4.3114e+06
4.27737e+06
4.24268e+06
4.20738e+06
4.17154e+06
4.13519e+06
4.09839e+06
4.06113e+06
5.02014e+06
4.99238e+06
4.99448e+06
4.97111e+06
4.9672e+06
4.94985e+06
4.94227e+06
4.92742e+06
4.91657e+06
4.90133e+06
4.88724e+06
4.87017e+06
4.85283e+06
4.83327e+06
4.81287e+06
4.7908e+06
4.76784e+06
4.74372e+06
4.71891e+06
4.69334e+06
4.66727e+06
4.64066e+06
4.61362e+06
4.58609e+06
4.55809e+06
4.52955e+06
4.50044e+06
4.4707e+06
4.44029e+06
4.40918e+06
4.37733e+06
4.34473e+06
4.3114e+06
4.27737e+06
4.24268e+06
4.20738e+06
4.17154e+06
4.13519e+06
4.09839e+06
4.06113e+06
5.02015e+06
4.99239e+06
4.99448e+06
4.97111e+06
4.9672e+06
4.94986e+06
4.94228e+06
4.92742e+06
4.91657e+06
4.90133e+06
4.88723e+06
4.87016e+06
4.85281e+06
4.83325e+06
4.81285e+06
4.79078e+06
4.76782e+06
4.7437e+06
4.71889e+06
4.69334e+06
4.66727e+06
4.64067e+06
4.61363e+06
4.58611e+06
4.55811e+06
4.52957e+06
4.50045e+06
4.47071e+06
4.4403e+06
4.40917e+06
4.37731e+06
4.34471e+06
4.31138e+06
4.27734e+06
4.24265e+06
4.20735e+06
4.17151e+06
4.13517e+06
4.09837e+06
4.06112e+06
5.02013e+06
4.99238e+06
4.99449e+06
4.97113e+06
4.96724e+06
4.94991e+06
4.94234e+06
4.92748e+06
4.91662e+06
4.90137e+06
4.88726e+06
4.87017e+06
4.85281e+06
4.83323e+06
4.81282e+06
4.79075e+06
4.76779e+06
4.74369e+06
4.71889e+06
4.69335e+06
4.6673e+06
4.64072e+06
4.6137e+06
4.58619e+06
4.5582e+06
4.52966e+06
4.50054e+06
4.47079e+06
4.44036e+06
4.40922e+06
4.37734e+06
4.34472e+06
4.31137e+06
4.27732e+06
4.24262e+06
4.20733e+06
4.17149e+06
4.13517e+06
4.09838e+06
4.06115e+06
5.02015e+06
4.99239e+06
4.9945e+06
4.97116e+06
4.96728e+06
4.94996e+06
4.94239e+06
4.92753e+06
4.91666e+06
4.9014e+06
4.88725e+06
4.87013e+06
4.85275e+06
4.83314e+06
4.81272e+06
4.79064e+06
4.76769e+06
4.74359e+06
4.71882e+06
4.6933e+06
4.66728e+06
4.64074e+06
4.61375e+06
4.58627e+06
4.5583e+06
4.52977e+06
4.50065e+06
4.47088e+06
4.44043e+06
4.40925e+06
4.37733e+06
4.34466e+06
4.31128e+06
4.2772e+06
4.24249e+06
4.20719e+06
4.17137e+06
4.13507e+06
4.09831e+06
4.06111e+06
5.02012e+06
4.99238e+06
4.9945e+06
4.97119e+06
4.96734e+06
4.95004e+06
4.94249e+06
4.92764e+06
4.91677e+06
4.90148e+06
4.8873e+06
4.87014e+06
4.85271e+06
4.83306e+06
4.81259e+06
4.79048e+06
4.76751e+06
4.74343e+06
4.71868e+06
4.69321e+06
4.66726e+06
4.64078e+06
4.61385e+06
4.58644e+06
4.55851e+06
4.53001e+06
4.5009e+06
4.47112e+06
4.44062e+06
4.40938e+06
4.37739e+06
4.34465e+06
4.31119e+06
4.27705e+06
4.2423e+06
4.20699e+06
4.17117e+06
4.1349e+06
4.0982e+06
4.06106e+06
5.03931e+06
5.00879e+06
5.00984e+06
4.98425e+06
4.97867e+06
4.95962e+06
4.95055e+06
4.93441e+06
4.92239e+06
4.90617e+06
4.89115e+06
4.87329e+06
4.85521e+06
4.835e+06
4.814e+06
4.79142e+06
4.76801e+06
4.74352e+06
4.71841e+06
4.69262e+06
4.66638e+06
4.63966e+06
4.61252e+06
4.58493e+06
4.55685e+06
4.52823e+06
4.49902e+06
4.46914e+06
4.43857e+06
4.40725e+06
4.37518e+06
4.34235e+06
4.30881e+06
4.27459e+06
4.23975e+06
4.20436e+06
4.16847e+06
4.13214e+06
4.09538e+06
4.05821e+06
5.03933e+06
5.00882e+06
5.00988e+06
4.98426e+06
4.97866e+06
4.95959e+06
4.95051e+06
4.93437e+06
4.92235e+06
4.90614e+06
4.89114e+06
4.87331e+06
4.85526e+06
4.83509e+06
4.81413e+06
4.79157e+06
4.76817e+06
4.74368e+06
4.71854e+06
4.69272e+06
4.66643e+06
4.63965e+06
4.61246e+06
4.58482e+06
4.5567e+06
4.52805e+06
4.49883e+06
4.46896e+06
4.43842e+06
4.40715e+06
4.37515e+06
4.34239e+06
4.30892e+06
4.27475e+06
4.23995e+06
4.20457e+06
4.16868e+06
4.13232e+06
4.09551e+06
4.05828e+06
5.03933e+06
5.00882e+06
5.00987e+06
4.98424e+06
4.97864e+06
4.95956e+06
4.95048e+06
4.93434e+06
4.92232e+06
4.90612e+06
4.89114e+06
4.87333e+06
4.8553e+06
4.83514e+06
4.81419e+06
4.79163e+06
4.76824e+06
4.74374e+06
4.71859e+06
4.69275e+06
4.66643e+06
4.63963e+06
4.61242e+06
4.58475e+06
4.55662e+06
4.52796e+06
4.49874e+06
4.46888e+06
4.43836e+06
4.40712e+06
4.37515e+06
4.34243e+06
4.30898e+06
4.27484e+06
4.24005e+06
4.20467e+06
4.16877e+06
4.13239e+06
4.09556e+06
4.0583e+06
5.03934e+06
5.00883e+06
5.00988e+06
4.98424e+06
4.97863e+06
4.95955e+06
4.95046e+06
4.93432e+06
4.92231e+06
4.90612e+06
4.89114e+06
4.87334e+06
4.85532e+06
4.83517e+06
4.81422e+06
4.79167e+06
4.76827e+06
4.74377e+06
4.71861e+06
4.69275e+06
4.66643e+06
4.63961e+06
4.61239e+06
4.58471e+06
4.55657e+06
4.52791e+06
4.49869e+06
4.46885e+06
4.43833e+06
4.40711e+06
4.37515e+06
4.34244e+06
4.30901e+06
4.27487e+06
4.24009e+06
4.20471e+06
4.1688e+06
4.13241e+06
4.09557e+06
4.0583e+06
5.03934e+06
5.00883e+06
5.00988e+06
4.98424e+06
4.97862e+06
4.95954e+06
4.95045e+06
4.93431e+06
4.9223e+06
4.90611e+06
4.89114e+06
4.87334e+06
4.85532e+06
4.83518e+06
4.81423e+06
4.79168e+06
4.76828e+06
4.74377e+06
4.71861e+06
4.69275e+06
4.66642e+06
4.6396e+06
4.61237e+06
4.58469e+06
4.55655e+06
4.52789e+06
4.49867e+06
4.46883e+06
4.43832e+06
4.40711e+06
4.37515e+06
4.34245e+06
4.30902e+06
4.27489e+06
4.24011e+06
4.20473e+06
4.16882e+06
4.13242e+06
4.09558e+06
4.0583e+06
5.03934e+06
5.00883e+06
5.00988e+06
4.98424e+06
4.97862e+06
4.95954e+06
4.95045e+06
4.93431e+06
4.9223e+06
4.90611e+06
4.89114e+06
4.87334e+06
4.85532e+06
4.83518e+06
4.81423e+06
4.79168e+06
4.76828e+06
4.74377e+06
4.71861e+06
4.69275e+06
4.66642e+06
4.6396e+06
4.61237e+06
4.58469e+06
4.55655e+06
4.52789e+06
4.49867e+06
4.46883e+06
4.43832e+06
4.40711e+06
4.37515e+06
4.34245e+06
4.30902e+06
4.27489e+06
4.24011e+06
4.20473e+06
4.16882e+06
4.13242e+06
4.09558e+06
4.0583e+06
5.03934e+06
5.00883e+06
5.00988e+06
4.98424e+06
4.97863e+06
4.95955e+06
4.95046e+06
4.93432e+06
4.92231e+06
4.90612e+06
4.89114e+06
4.87334e+06
4.85532e+06
4.83517e+06
4.81422e+06
4.79167e+06
4.76827e+06
4.74377e+06
4.71861e+06
4.69275e+06
4.66643e+06
4.63961e+06
4.61239e+06
4.58471e+06
4.55657e+06
4.52791e+06
4.49869e+06
4.46885e+06
4.43833e+06
4.40711e+06
4.37515e+06
4.34244e+06
4.30901e+06
4.27487e+06
4.24009e+06
4.20471e+06
4.1688e+06
4.13241e+06
4.09557e+06
4.0583e+06
5.03933e+06
5.00882e+06
5.00987e+06
4.98424e+06
4.97864e+06
4.95956e+06
4.95048e+06
4.93434e+06
4.92232e+06
4.90612e+06
4.89114e+06
4.87333e+06
4.8553e+06
4.83514e+06
4.81419e+06
4.79163e+06
4.76824e+06
4.74374e+06
4.71859e+06
4.69275e+06
4.66643e+06
4.63963e+06
4.61242e+06
4.58475e+06
4.55662e+06
4.52796e+06
4.49874e+06
4.46888e+06
4.43836e+06
4.40712e+06
4.37514e+06
4.34243e+06
4.30898e+06
4.27484e+06
4.24005e+06
4.20467e+06
4.16877e+06
4.13239e+06
4.09556e+06
4.0583e+06
5.03933e+06
5.00882e+06
5.00988e+06
4.98426e+06
4.97866e+06
4.95959e+06
4.95051e+06
4.93437e+06
4.92235e+06
4.90614e+06
4.89114e+06
4.87331e+06
4.85526e+06
4.83509e+06
4.81413e+06
4.79156e+06
4.76817e+06
4.74368e+06
4.71854e+06
4.69272e+06
4.66643e+06
4.63965e+06
4.61246e+06
4.58482e+06
4.5567e+06
4.52805e+06
4.49883e+06
4.46896e+06
4.43842e+06
4.40715e+06
4.37515e+06
4.34239e+06
4.30892e+06
4.27475e+06
4.23995e+06
4.20457e+06
4.16868e+06
4.13232e+06
4.09551e+06
4.05828e+06
5.03931e+06
5.00879e+06
5.00984e+06
4.98425e+06
4.97867e+06
4.95962e+06
4.95055e+06
4.93441e+06
4.92239e+06
4.90617e+06
4.89115e+06
4.87329e+06
4.85521e+06
4.835e+06
4.814e+06
4.79142e+06
4.76801e+06
4.74352e+06
4.71841e+06
4.69262e+06
4.66638e+06
4.63966e+06
4.61252e+06
4.58493e+06
4.55685e+06
4.52823e+06
4.49902e+06
4.46914e+06
4.43857e+06
4.40725e+06
4.37518e+06
4.34235e+06
4.30881e+06
4.27459e+06
4.23975e+06
4.20436e+06
4.16847e+06
4.13214e+06
4.09538e+06
4.05821e+06
5.05687e+06
5.02453e+06
5.02494e+06
4.99759e+06
4.99064e+06
4.97007e+06
4.95966e+06
4.94227e+06
4.92914e+06
4.91194e+06
4.89604e+06
4.87741e+06
4.85863e+06
4.83781e+06
4.81624e+06
4.79314e+06
4.76927e+06
4.74436e+06
4.71887e+06
4.69275e+06
4.66622e+06
4.63924e+06
4.61188e+06
4.58409e+06
4.55584e+06
4.52707e+06
4.49772e+06
4.46773e+06
4.43704e+06
4.40562e+06
4.37345e+06
4.34053e+06
4.3069e+06
4.27259e+06
4.23767e+06
4.20221e+06
4.16626e+06
4.12987e+06
4.09308e+06
4.05587e+06
5.05691e+06
5.02457e+06
5.02499e+06
4.99762e+06
4.99065e+06
4.97006e+06
4.95965e+06
4.94225e+06
4.92912e+06
4.91192e+06
4.89604e+06
4.87743e+06
4.85868e+06
4.83789e+06
4.81635e+06
4.79328e+06
4.76942e+06
4.74451e+06
4.719e+06
4.69285e+06