/*--------------------------------*- C++ -*----------------------------------*\
  =========                 |
  \\      /  F ield         | OpenFOAM: The Open Source CFD Toolbox
   \\    /   O peration     | Website:  https://openfoam.org
    \\  /    A nd           | Version:  7
     \\/     M anipulation  |
\*---------------------------------------------------------------------------*/
FoamFile
{
    version     2.0;
    format      ascii;
    class       volScalarField;
    location    "1.6675";
    object      T;
}
// * * * * * * * * * * * * * * * * * * * * * * * * * * * * * * * * * * * * * //

dimensions      [0 0 0 1 0 0 0];

internalField   nonuniform List<scalar> 
7920
(
282.696
282.625
282.46
282.52
282.486
282.608
282.599
282.667
282.623
282.65
282.615
282.641
282.624
282.632
282.63
282.611
282.657
282.568
282.744
282.427
282.748
282.699
282.58
282.582
282.54
282.609
282.627
282.686
282.687
282.707
282.697
282.708
282.709
282.705
282.719
282.682
282.74
282.627
282.823
282.464
282.715
282.686
282.559
282.57
282.48
282.516
282.486
282.551
282.551
282.609
282.614
282.656
282.667
282.686
282.705
282.686
282.728
282.648
282.758
282.568
282.739
282.719
282.621
282.634
282.556
282.57
282.532
282.57
282.57
282.619
282.64
282.686
282.72
282.754
282.791
282.797
282.83
282.801
282.835
282.771
282.719
282.705
282.592
282.617
282.529
282.549
282.496
282.532
282.517
282.566
282.575
282.629
282.655
282.71
282.743
282.783
282.802
282.821
282.817
282.824
282.724
282.722
282.609
282.64
282.552
282.575
282.52
282.557
282.538
282.586
282.589
282.643
282.666
282.726
282.758
282.81
282.828
282.864
282.852
282.881
282.724
282.722
282.609
282.64
282.552
282.575
282.52
282.557
282.537
282.586
282.589
282.643
282.665
282.726
282.757
282.811
282.827
282.864
282.852
282.881
282.719
282.705
282.592
282.617
282.529
282.549
282.495
282.533
282.516
282.567
282.574
282.63
282.654
282.712
282.74
282.786
282.799
282.825
282.813
282.827
282.739
282.719
282.621
282.634
282.556
282.57
282.532
282.57
282.57
282.62
282.638
282.689
282.716
282.76
282.784
282.808
282.816
282.82
282.81
282.801
282.715
282.686
282.559
282.57
282.48
282.517
282.486
282.551
282.55
282.611
282.612
282.659
282.661
282.695
282.691
282.708
282.695
282.7
282.682
282.679
282.748
282.699
282.579
282.582
282.539
282.61
282.626
282.686
282.686
282.708
282.695
282.712
282.703
282.715
282.703
282.708
282.697
282.701
282.691
282.695
282.696
282.625
282.46
282.52
282.486
282.608
282.598
282.667
282.622
282.651
282.613
282.644
282.619
282.64
282.617
282.633
282.618
282.635
282.623
282.643
283.227
283.144
283.17
283.066
283.162
283.15
283.258
283.222
283.257
283.187
283.214
283.168
283.207
283.151
283.194
283.109
283.211
283.032
283.346
282.738
283.169
283.093
283.087
283.005
283.014
282.998
283.053
283.07
283.107
283.101
283.119
283.102
283.122
283.089
283.118
283.046
283.122
282.965
283.182
282.797
283.215
283.127
283.165
283.071
283.09
283.029
283.073
283.058
283.117
283.115
283.168
283.161
283.206
283.183
283.221
283.164
283.214
283.104
283.205
283.012
283.185
283.089
283.115
283.029
283.036
282.972
282.993
282.969
283.009
283.01
283.057
283.07
283.117
283.126
283.162
283.149
283.169
283.127
283.141
283.077
283.208
283.104
283.148
283.05
283.07
282.996
283.024
282.987
283.029
283.018
283.068
283.075
283.13
283.146
283.192
283.195
283.217
283.201
283.195
283.173
283.2
283.086
283.129
283.027
283.048
282.971
282.999
282.96
283.001
282.987
283.034
283.04
283.094
283.113
283.16
283.172
283.194
283.191
283.181
283.171
283.2
283.086
283.129
283.027
283.047
282.971
282.999
282.961
283.001
282.988
283.034
283.04
283.094
283.113
283.16
283.172
283.194
283.191
283.181
283.171
283.208
283.104
283.148
283.05
283.07
282.996
283.024
282.988
283.029
283.019
283.067
283.076
283.129
283.147
283.19
283.197
283.214
283.204
283.193
283.175
283.185
283.089
283.115
283.029
283.036
282.973
282.993
282.97
283.008
283.011
283.055
283.072
283.113
283.131
283.155
283.158
283.158
283.142
283.124
283.099
283.214
283.127
283.164
283.071
283.089
283.029
283.073
283.058
283.116
283.116
283.165
283.165
283.2
283.192
283.207
283.186
283.182
283.151
283.139
283.104
283.169
283.093
283.087
283.005
283.014
282.999
283.052
283.071
283.106
283.103
283.115
283.107
283.114
283.102
283.097
283.079
283.069
283.052
283.043
283.026
283.227
283.144
283.17
283.066
283.162
283.15
283.258
283.223
283.256
283.189
283.211
283.173
283.199
283.163
283.174
283.143
283.152
283.135
283.141
283.118
283.14
283.101
283.066
283.007
283.002
283.045
283.163
283.227
283.226
283.149
283.13
283.115
283.169
283.12
283.184
283.045
283.251
282.905
283.5
282.525
283.137
283.101
283.069
283.023
282.992
282.977
283.003
283.041
283.096
283.126
283.165
283.161
283.194
283.15
283.194
283.085
283.185
282.983
283.217
282.862
283.138
283.102
283.073
283.032
283.003
282.979
282.981
282.991
283.024
283.055
283.106
283.139
283.19
283.2
283.235
283.205
283.229
283.157
283.184
283.08
283.137
283.1
283.07
283.028
282.997
282.973
282.97
282.975
282.996
283.02
283.059
283.098
283.146
283.181
283.215
283.226
283.235
283.222
283.202
283.18
283.138
283.101
283.072
283.03
283
282.976
282.973
282.978
282.997
283.019
283.054
283.092
283.138
283.178
283.212
283.234
283.243
283.248
283.226
283.223
283.138
283.1
283.071
283.028
282.997
282.973
282.97
282.975
282.993
283.014
283.048
283.085
283.13
283.17
283.204
283.228
283.237
283.245
283.227
283.224
283.138
283.1
283.071
283.028
282.997
282.973
282.97
282.975
282.993
283.014
283.048
283.085
283.13
283.17
283.205
283.228
283.238
283.244
283.228
283.223
283.138
283.101
283.072
283.03
283
282.976
282.973
282.978
282.997
283.019
283.053
283.092
283.138
283.178
283.213
283.234
283.244
283.246
283.229
283.218
283.137
283.101
283.07
283.028
282.997
282.973
282.97
282.976
282.995
283.021
283.058
283.099
283.145
283.183
283.214
283.228
283.233
283.223
283.203
283.177
283.138
283.102
283.073
283.032
283.002
282.979
282.98
282.992
283.022
283.058
283.102
283.144
283.184
283.209
283.224
283.22
283.21
283.181
283.156
283.113
283.137
283.101
283.068
283.023
282.992
282.978
283.001
283.043
283.093
283.13
283.158
283.172
283.178
283.173
283.159
283.136
283.111
283.089
283.071
283.06
283.14
283.102
283.066
283.008
283.001
283.045
283.162
283.229
283.223
283.153
283.123
283.126
283.152
283.149
283.138
283.122
283.121
283.123
283.129
283.127
283.14
283.101
283.066
283.007
283.002
283.045
283.163
283.227
283.225
283.149
283.13
283.115
283.169
283.12
283.184
283.045
283.251
282.905
283.5
282.525
283.137
283.101
283.069
283.023
282.992
282.977
283.003
283.041
283.096
283.126
283.165
283.161
283.194
283.15
283.194
283.085
283.185
282.983
283.217
282.862
283.138
283.102
283.073
283.032
283.003
282.979
282.981
282.991
283.024
283.055
283.106
283.139
283.19
283.2
283.235
283.205
283.229
283.157
283.184
283.08
283.137
283.1
283.07
283.028
282.997
282.973
282.97
282.975
282.996
283.02
283.059
283.098
283.146
283.181
283.215
283.226
283.235
283.222
283.202
283.18
283.138
283.101
283.072
283.03
283
282.976
282.973
282.978
282.997
283.019
283.054
283.092
283.138
283.178
283.212
283.234
283.243
283.248
283.226
283.223
283.138
283.1
283.071
283.028
282.997
282.973
282.97
282.975
282.993
283.014
283.048
283.085
283.13
283.17
283.204
283.228
283.237
283.245
283.227
283.224
283.138
283.1
283.071
283.028
282.997
282.973
282.97
282.975
282.993
283.014
283.048
283.085
283.13
283.17
283.205
283.228
283.238
283.244
283.228
283.223
283.138
283.101
283.072
283.03
283
282.976
282.973
282.978
282.997
283.019
283.053
283.092
283.138
283.178
283.213
283.234
283.244
283.246
283.229
283.218
283.137
283.101
283.07
283.028
282.997
282.973
282.97
282.976
282.995
283.021
283.058
283.099
283.145
283.183
283.214
283.228
283.233
283.223
283.203
283.177
283.138
283.102
283.073
283.032
283.002
282.979
282.98
282.992
283.022
283.058
283.102
283.144
283.184
283.209
283.224
283.22
283.21
283.181
283.156
283.113
283.137
283.101
283.068
283.023
282.992
282.978
283.001
283.043
283.093
283.13
283.158
283.172
283.178
283.173
283.159
283.136
283.111
283.089
283.071
283.06
283.14
283.102
283.066
283.008
283.001
283.045
283.162
283.229
283.223
283.153
283.123
283.126
283.151
283.149
283.138
283.122
283.121
283.123
283.129
283.127
283.227
283.144
283.17
283.066
283.162
283.15
283.258
283.222
283.257
283.187
283.214
283.168
283.207
283.151
283.194
283.109
283.211
283.032
283.346
282.738
283.169
283.093
283.087
283.005
283.014
282.998
283.053
283.07
283.107
283.101
283.119
283.102
283.122
283.089
283.118
283.046
283.122
282.965
283.182
282.797
283.215
283.127
283.165
283.071
283.09
283.029
283.073
283.058
283.117
283.115
283.168
283.161
283.206
283.183
283.221
283.164
283.214
283.104
283.205
283.012
283.185
283.089
283.115
283.029
283.036
282.972
282.993
282.969
283.009
283.01
283.057
283.07
283.117
283.126
283.162
283.149
283.169
283.127
283.141
283.077
283.208
283.104
283.148
283.05
283.07
282.996
283.024
282.987
283.029
283.018
283.068
283.075
283.13
283.146
283.192
283.195
283.217
283.201
283.195
283.173
283.2
283.086
283.129
283.027
283.048
282.971
282.999
282.96
283.001
282.987
283.034
283.04
283.094
283.113
283.16
283.172
283.194
283.191
283.181
283.171
283.2
283.086
283.129
283.027
283.047
282.971
282.999
282.961
283.001
282.988
283.034
283.04
283.094
283.113
283.16
283.172
283.194
283.191
283.181
283.171
283.208
283.104
283.148
283.05
283.07
282.996
283.024
282.988
283.029
283.019
283.067
283.076
283.129
283.147
283.19
283.197
283.214
283.204
283.193
283.175
283.185
283.089
283.115
283.029
283.036
282.973
282.993
282.97
283.008
283.011
283.055
283.072
283.113
283.131
283.155
283.158
283.158
283.142
283.124
283.099
283.214
283.127
283.164
283.071
283.089
283.029
283.073
283.058
283.116
283.116
283.165
283.165
283.2
283.192
283.207
283.186
283.182
283.151
283.139
283.104
283.169
283.093
283.087
283.005
283.014
282.999
283.052
283.071
283.106
283.103
283.115
283.107
283.114
283.102
283.097
283.079
283.069
283.052
283.043
283.026
283.227
283.144
283.17
283.066
283.162
283.15
283.258
283.223
283.256
283.189
283.211
283.173
283.199
283.163
283.174
283.143
283.152
283.135
283.141
283.118
282.696
282.625
282.46
282.52
282.486
282.608
282.599
282.667
282.623
282.65
282.615
282.641
282.624
282.632
282.63
282.611
282.657
282.568
282.744
282.427
282.748
282.699
282.58
282.582
282.54
282.609
282.627
282.686
282.687
282.707
282.697
282.708
282.709
282.705
282.719
282.682
282.74
282.627
282.823
282.464
282.715
282.686
282.559
282.57
282.48
282.516
282.486
282.551
282.551
282.609
282.614
282.656
282.667
282.686
282.705
282.686
282.728
282.648
282.758
282.568
282.739
282.719
282.621
282.634
282.556
282.57
282.532
282.57
282.57
282.619
282.64
282.686
282.72
282.754
282.791
282.797
282.83
282.801
282.835
282.771
282.719
282.705
282.592
282.617
282.529
282.549
282.496
282.532
282.517
282.566
282.575
282.629
282.655
282.71
282.743
282.783
282.802
282.821
282.817
282.824
282.724
282.722
282.609
282.64
282.552
282.575
282.52
282.557
282.538
282.586
282.589
282.643
282.666
282.726
282.758
282.81
282.828
282.864
282.852
282.881
282.724
282.722
282.609
282.64
282.552
282.575
282.52
282.557
282.537
282.586
282.589
282.643
282.665
282.726
282.757
282.811
282.827
282.864
282.852
282.881
282.719
282.705
282.592
282.617
282.529
282.549
282.495
282.533
282.516
282.567
282.574
282.63
282.654
282.712
282.74
282.786
282.799
282.825
282.813
282.827
282.739
282.719
282.621
282.634
282.556
282.57
282.532
282.57
282.57
282.62
282.638
282.689
282.716
282.76
282.784
282.808
282.816
282.82
282.81
282.801
282.715
282.686
282.559
282.57
282.48
282.517
282.486
282.551
282.55
282.611
282.612
282.659
282.661
282.695
282.691
282.708
282.695
282.7
282.682
282.679
282.748
282.699
282.579
282.582
282.539
282.61
282.626
282.686
282.686
282.709
282.695
282.712
282.703
282.715
282.703
282.708
282.697
282.701
282.691
282.695
282.696
282.625
282.46
282.52
282.486
282.608
282.598
282.667
282.622
282.651
282.613
282.644
282.619
282.64
282.617
282.633
282.618
282.635
282.623
282.643
284.758
286.381
287.459
288.311
288.978
289.567
290.09
290.594
291.053
291.481
291.866
292.228
292.568
292.894
293.198
293.481
293.734
293.963
294.168
294.353
294.515
294.655
294.77
294.86
294.928
294.977
295.01
295.031
295.045
295.052
295.056
295.059
295.059
295.06
295.06
295.059
295.059
295.059
295.058
295.058
295.058
295.057
295.057
295.057
295.057
295.057
295.056
295.056
295.056
295.056
295.056
295.056
295.056
295.056
295.056
295.056
295.056
295.055
295.055
295.055
295.056
295.056
295.056
295.056
295.056
295.056
295.056
295.056
295.056
295.056
295.056
295.056
295.057
295.057
295.057
295.057
295.057
295.057
295.057
295.057
295.057
295.057
295.057
295.057
295.056
295.057
295.055
295.056
295.053
295.049
283.931
285.404
286.446
287.282
287.945
288.522
289.033
289.525
289.981
290.408
290.794
291.154
291.491
291.816
292.121
292.406
292.664
292.898
293.108
293.297
293.465
293.611
293.733
293.831
293.905
293.96
293.997
294.022
294.037
294.046
294.051
294.054
294.055
294.056
294.055
294.055
294.055
294.054
294.054
294.054
294.053
294.053
294.053
294.052
294.052
294.052
294.052
294.051
294.051
294.051
294.051
294.051
294.051
294.05
294.05
294.05
294.05
294.05
294.05
294.05
294.05
294.05
294.05
294.05
294.05
294.05
294.05
294.05
294.05
294.05
294.051
294.051
294.051
294.051
294.051
294.051
294.051
294.051
294.051
294.051
294.051
294.051
294.051
294.051
294.051
294.051
294.05
294.05
294.047
294.043
283.132
284.172
285.057
285.84
286.471
287.017
287.489
287.95
288.388
288.812
289.196
289.551
289.879
290.196
290.5
290.791
291.058
291.303
291.522
291.721
291.899
292.059
292.196
292.311
292.4
292.468
292.517
292.55
292.571
292.584
292.591
292.595
292.597
292.598
292.598
292.598
292.598
292.598
292.597
292.597
292.596
292.596
292.596
292.595
292.595
292.595
292.595
292.594
292.594
292.594
292.594
292.594
292.593
292.593
292.593
292.593
292.593
292.593
292.593
292.593
292.593
292.593
292.593
292.593
292.593
292.593
292.593
292.593
292.593
292.593
292.593
292.593
292.593
292.593
292.593
292.593
292.593
292.593
292.593
292.593
292.593
292.593
292.592
292.593
292.592
292.592
292.59
292.591
292.587
292.581
282.86
283.388
284.017
284.668
285.231
285.71
286.117
286.516
286.915
287.316
287.688
288.029
288.338
288.638
288.933
289.222
289.496
289.748
289.976
290.184
290.374
290.547
290.701
290.833
290.94
291.024
291.086
291.129
291.157
291.175
291.186
291.192
291.195
291.196
291.196
291.196
291.196
291.196
291.195
291.195
291.194
291.194
291.193
291.193
291.193
291.192
291.192
291.192
291.192
291.191
291.191
291.191
291.191
291.191
291.19
291.19
291.19
291.19
291.19
291.19
291.19
291.19
291.19
291.19
291.19
291.19
291.19
291.19
291.19
291.19
291.19
291.19
291.19
291.19
291.19
291.19
291.19
291.19
291.19
291.19
291.19
291.19
291.19
291.19
291.189
291.19
291.188
291.189
291.186
291.181
282.757
282.946
283.314
283.816
284.279
284.679
285.005
285.331
285.673
286.039
286.386
286.705
286.989
287.266
287.543
287.825
288.098
288.354
288.586
288.799
288.996
289.179
289.345
289.491
289.613
289.711
289.783
289.836
289.871
289.893
289.907
289.914
289.919
289.921
289.921
289.921
289.921
289.921
289.92
289.92
289.92
289.919
289.919
289.918
289.918
289.918
289.918
289.917
289.917
289.917
289.917
289.916
289.916
289.916
289.916
289.916
289.916
289.916
289.915
289.915
289.915
289.915
289.915
289.915
289.915
289.915
289.915
289.915
289.915
289.915
289.915
289.915
289.915
289.915
289.915
289.915
289.915
289.915
289.915
289.915
289.915
289.915
289.915
289.915
289.914
289.915
289.913
289.913
289.911
289.906
282.784
282.795
282.977
283.337
283.693
284.001
284.243
284.488
284.767
285.083
285.394
285.678
285.933
286.18
286.435
286.702
286.966
287.217
287.447
287.66
287.858
288.044
288.215
288.368
288.498
288.602
288.681
288.738
288.777
288.802
288.817
288.825
288.83
288.832
288.833
288.833
288.833
288.833
288.832
288.832
288.831
288.831
288.83
288.83
288.83
288.829
288.829
288.829
288.828
288.828
288.828
288.828
288.827
288.827
288.827
288.827
288.827
288.827
288.827
288.827
288.826
288.826
288.826
288.826
288.826
288.826
288.826
288.826
288.826
288.826
288.826
288.826
288.826
288.826
288.826
288.826
288.826
288.827
288.827
288.827
288.827
288.827
288.826
288.827
288.826
288.826
288.826
288.825
288.826
288.822
282.788
282.734
282.815
283.068
283.325
283.546
283.713
283.891
284.113
284.378
284.646
284.893
285.115
285.336
285.57
285.818
286.069
286.311
286.534
286.741
286.936
287.119
287.289
287.441
287.57
287.674
287.752
287.809
287.847
287.872
287.887
287.896
287.901
287.903
287.904
287.904
287.903
287.903
287.903
287.902
287.902
287.901
287.901
287.9
287.9
287.9
287.899
287.899
287.899
287.898
287.898
287.898
287.898
287.898
287.897
287.897
287.897
287.897
287.897
287.897
287.897
287.897
287.897
287.897
287.897
287.897
287.897
287.897
287.897
287.897
287.897
287.897
287.897
287.897
287.897
287.897
287.897
287.897
287.897
287.897
287.897
287.897
287.897
287.897
287.897
287.897
287.897
287.896
287.897
287.895
282.75
282.697
282.74
282.919
283.093
283.239
283.345
283.479
283.657
283.879
284.102
284.313
284.507
284.708
284.924
285.157
285.392
285.62
285.833
286.032
286.219
286.395
286.557
286.7
286.82
286.916
286.988
287.039
287.074
287.096
287.11
287.117
287.121
287.123
287.124
287.124
287.123
287.123
287.123
287.122
287.122
287.121
287.121
287.121
287.12
287.12
287.12
287.119
287.119
287.119
287.119
287.118
287.118
287.118
287.118
287.118
287.118
287.118
287.117
287.117
287.117
287.117
287.117
287.117
287.117
287.117
287.117
287.117
287.117
287.117
287.117
287.117
287.117
287.117
287.117
287.117
287.117
287.117
287.117
287.117
287.117
287.117
287.117
287.117
287.117
287.117
287.116
287.115
287.115
287.114
282.75
282.719
282.76
282.881
282.986
283.07
283.139
283.245
283.392
283.574
283.757
283.935
284.108
284.294
284.497
284.715
284.934
285.147
285.346
285.534
285.711
285.874
286.022
286.15
286.254
286.336
286.396
286.438
286.466
286.483
286.494
286.499
286.502
286.503
286.504
286.503
286.503
286.503
286.502
286.502
286.501
286.501
286.5
286.5
286.499
286.499
286.499
286.499
286.498
286.498
286.498
286.498
286.497
286.497
286.497
286.497
286.497
286.497
286.497
286.497
286.496
286.496
286.496
286.496
286.496
286.496
286.496
286.496
286.496
286.496
286.496
286.496
286.496
286.496
286.496
286.496
286.496
286.497
286.496
286.497
286.496
286.497
286.496
286.496
286.496
286.496
286.496
286.494
286.496
286.495
282.663
282.684
282.724
282.811
282.862
282.915
282.968
283.068
283.196
283.35
283.502
283.66
283.821
284.003
284.199
284.406
284.612
284.811
284.998
285.175
285.339
285.488
285.618
285.728
285.814
285.879
285.926
285.958
285.978
285.991
285.998
286.001
286.003
286.004
286.004
286.003
286.003
286.003
286.002
286.002
286.001
286.001
286
286
286
285.999
285.999
285.999
285.998
285.998
285.998
285.998
285.998
285.997
285.997
285.997
285.997
285.997
285.997
285.997
285.997
285.997
285.997
285.997
285.997
285.997
285.997
285.997
285.997
285.997
285.997
285.997
285.997
285.997
285.997
285.997
285.997
285.997
285.997
285.997
285.996
285.996
285.996
285.996
285.995
285.995
285.994
285.994
285.994
285.992
282.693
282.732
282.77
282.821
282.842
282.877
282.93
283.027
283.144
283.278
283.412
283.559
283.718
283.898
284.09
284.289
284.484
284.673
284.851
285.018
285.171
285.307
285.421
285.514
285.585
285.637
285.673
285.696
285.711
285.719
285.724
285.726
285.727
285.727
285.726
285.726
285.725
285.725
285.724
285.724
285.723
285.723
285.722
285.722
285.722
285.721
285.721
285.721
285.72
285.72
285.72
285.72
285.719
285.719
285.719
285.719
285.719
285.719
285.719
285.718
285.718
285.718
285.718
285.718
285.718
285.718
285.718
285.718
285.718
285.718
285.718
285.718
285.718
285.718
285.718
285.718
285.718
285.718
285.718
285.718
285.718
285.718
285.718
285.718
285.717
285.717
285.716
285.716
285.716
285.715
282.632
282.684
282.718
282.76
282.769
282.805
282.86
282.96
283.073
283.201
283.329
283.475
283.634
283.816
284.007
284.203
284.394
284.579
284.753
284.917
285.064
285.194
285.301
285.387
285.451
285.497
285.528
285.549
285.561
285.568
285.571
285.573
285.573
285.573
285.573
285.573
285.572
285.571
285.571
285.57
285.57
285.57
285.569
285.569
285.568
285.568
285.568
285.567
285.567
285.567
285.567
285.566
285.566
285.566
285.566
285.566
285.565
285.565
285.565
285.565
285.565
285.565
285.565
285.565
285.565
285.565
285.565
285.565
285.565
285.565
285.565
285.565
285.565
285.565
285.565
285.565
285.565
285.565
285.564
285.564
285.564
285.564
285.564
285.564
285.563
285.563
285.562
285.562
285.561
285.56
285.442
287.216
288.356
289.199
289.888
290.471
291.01
291.507
291.973
292.395
292.784
293.143
293.486
293.811
294.115
294.394
294.646
294.872
295.076
295.257
295.417
295.553
295.664
295.752
295.817
295.863
295.894
295.913
295.925
295.932
295.935
295.937
295.937
295.937
295.937
295.936
295.935
295.935
295.934
295.934
295.933
295.933
295.933
295.932
295.932
295.932
295.931
295.931
295.931
295.931
295.93
295.93
295.93
295.93
295.93
295.93
295.93
295.93
295.93
295.93
295.93
295.93
295.93
295.93
295.93
295.93
295.93
295.93
295.93
295.93
295.931
295.931
295.931
295.931
295.931
295.931
295.932
295.932
295.932
295.932
295.933
295.933
295.933
295.933
295.934
295.934
295.936
295.935
295.941
295.941
284.098
285.557
286.631
287.466
288.147
288.72
289.241
289.729
290.191
290.617
291.008
291.368
291.708
292.032
292.339
292.625
292.885
293.119
293.33
293.519
293.687
293.833
293.956
294.054
294.129
294.184
294.222
294.247
294.262
294.272
294.276
294.279
294.28
294.28
294.28
294.279
294.279
294.278
294.278
294.277
294.277
294.276
294.276
294.276
294.275
294.275
294.275
294.275
294.274
294.274
294.274
294.274
294.274
294.274
294.274
294.274
294.274
294.273
294.273
294.273
294.273
294.273
294.274
294.274
294.274
294.274
294.274
294.274
294.274
294.274
294.274
294.274
294.275
294.275
294.275
294.275
294.275
294.275
294.276
294.276
294.276
294.276
294.277
294.277
294.277
294.277
294.278
294.278
294.283
294.282
283.413
284.324
285.205
285.958
286.6
287.128
287.606
288.054
288.497
288.916
289.305
289.658
289.988
290.303
290.609
290.899
291.17
291.414
291.636
291.835
292.015
292.176
292.315
292.431
292.524
292.593
292.643
292.677
292.699
292.712
292.72
292.724
292.726
292.726
292.726
292.726
292.725
292.725
292.724
292.723
292.723
292.722
292.722
292.722
292.721
292.721
292.72
292.72
292.72
292.72
292.719
292.719
292.719
292.719
292.719
292.719
292.719
292.719
292.718
292.718
292.718
292.718
292.718
292.718
292.718
292.718
292.718
292.719
292.719
292.719
292.719
292.719
292.719
292.719
292.719
292.719
292.72
292.72
292.72
292.72
292.721
292.721
292.721
292.721
292.722
292.722
292.723
292.723
292.727
292.727
283.085
283.491
284.082
284.693
285.251
285.712
286.117
286.503
286.903
287.301
287.678
288.018
288.33
288.628
288.923
289.213
289.489
289.744
289.975
290.184
290.376
290.551
290.707
290.842
290.953
291.04
291.105
291.15
291.18
291.199
291.21
291.216
291.219
291.221
291.221
291.221
291.22
291.22
291.219
291.218
291.218
291.217
291.217
291.216
291.216
291.216
291.215
291.215
291.215
291.214
291.214
291.214
291.214
291.214
291.213
291.213
291.213
291.213
291.213
291.213
291.213
291.213
291.213
291.213
291.213
291.213
291.213
291.213
291.213
291.213
291.213
291.213
291.213
291.213
291.213
291.213
291.214
291.214
291.214
291.214
291.214
291.214
291.214
291.215
291.215
291.215
291.216
291.215
291.219
291.217
283.066
283.129
283.457
283.889
284.337
284.703
285.018
285.32
285.656
286.011
286.361
286.676
286.962
287.233
287.509
287.788
288.062
288.319
288.554
288.768
288.966
289.15
289.319
289.469
289.596
289.697
289.773
289.828
289.866
289.89
289.904
289.912
289.916
289.918
289.919
289.919
289.918
289.918
289.917
289.916
289.916
289.915
289.915
289.914
289.914
289.913
289.913
289.912
289.912
289.912
289.911
289.911
289.911
289.911
289.911
289.91
289.91
289.91
289.91
289.91
289.91
289.91
289.91
289.91
289.91
289.91
289.909
289.909
289.91
289.91
289.91
289.91
289.91
289.91
289.91
289.91
289.91
289.91
289.91
289.91
289.911
289.911
289.911
289.911
289.912
289.912
289.913
289.913
289.916
289.915
283.055
282.954
283.103
283.387
283.722
283.993
284.216
284.437
284.704
285.009
285.319
285.602
285.856
286.098
286.349
286.613
286.878
287.13
287.363
287.577
287.777
287.965
288.139
288.296
288.431
288.541
288.624
288.685
288.727
288.754
288.771
288.78
288.785
288.787
288.788
288.788
288.788
288.787
288.787
288.786
288.785
288.785
288.784
288.784
288.783
288.783
288.783
288.782
288.782
288.782
288.781
288.781
288.781
288.781
288.78
288.78
288.78
288.78
288.78
288.78
288.78
288.779
288.779
288.779
288.779
288.779
288.779
288.779
288.779
288.779
288.779
288.779
288.779
288.779
288.779
288.779
288.78
288.78
288.78
288.78
288.78
288.78
288.78
288.78
288.781
288.781
288.782
288.781
288.783
288.782
283.061
282.907
282.966
283.15
283.387
283.567
283.71
283.861
284.067
284.319
284.582
284.825
285.044
285.257
285.485
285.728
285.979
286.22
286.445
286.653
286.848
287.033
287.206
287.362
287.496
287.605
287.688
287.749
287.79
287.817
287.834
287.843
287.848
287.85
287.851
287.851
287.851
287.85
287.849
287.849
287.848
287.848
287.847
287.847
287.846
287.846
287.845
287.845
287.844
287.844
287.844
287.844
287.843
287.843
287.843
287.843
287.843
287.842
287.842
287.842
287.842
287.842
287.842
287.842
287.842
287.842
287.842
287.842
287.842
287.842
287.842
287.842
287.842
287.842
287.842
287.842
287.842
287.842
287.842
287.842
287.842
287.842
287.843
287.843
287.843
287.843
287.844
287.843
287.845
287.844
283.067
282.924
282.955
283.077
283.235
283.34
283.425
283.526
283.687
283.889
284.106
284.306
284.494
284.682
284.891
285.116
285.349
285.574
285.787
285.985
286.172
286.348
286.512
286.658
286.782
286.882
286.958
287.012
287.049
287.072
287.086
287.094
287.098
287.1
287.101
287.1
287.1
287.099
287.098
287.098
287.097
287.096
287.096
287.095
287.095
287.094
287.094
287.093
287.093
287.093
287.092
287.092
287.092
287.092
287.091
287.091
287.091
287.091
287.091
287.09
287.09
287.09
287.09
287.09
287.09
287.09
287.09
287.09
287.09
287.09
287.09
287.09
287.09
287.09
287.09
287.09
287.09
287.09
287.091
287.09
287.091
287.091
287.091
287.091
287.092
287.092
287.093
287.092
287.095
287.095
283.009
282.92
282.952
283.039
283.132
283.187
283.239
283.318
283.452
283.618
283.794
283.961
284.127
284.303
284.499
284.711
284.927
285.137
285.336
285.523
285.7
285.864
286.014
286.144
286.252
286.336
286.399
286.443
286.473
286.491
286.502
286.508
286.511
286.512
286.512
286.511
286.511
286.51
286.509
286.509
286.508
286.507
286.507
286.506
286.506
286.505
286.505
286.504
286.504
286.504
286.503
286.503
286.503
286.503
286.502
286.502
286.502
286.502
286.502
286.502
286.501
286.501
286.501
286.501
286.501
286.501
286.501
286.501
286.501
286.501
286.501
286.501
286.501
286.501
286.501
286.501
286.501
286.501
286.501
286.501
286.502
286.502
286.502
286.502
286.502
286.502
286.503
286.502
286.504
286.504
283.051
283.003
283.043
283.089
283.135
283.154
283.195
283.267
283.385
283.521
283.667
283.811
283.966
284.136
284.326
284.526
284.729
284.924
285.11
285.286
285.449
285.598
285.73
285.841
285.929
285.996
286.044
286.077
286.098
286.11
286.117
286.121
286.122
286.123
286.122
286.122
286.121
286.12
286.119
286.119
286.118
286.117
286.117
286.116
286.116
286.115
286.115
286.114
286.114
286.114
286.113
286.113
286.113
286.112
286.112
286.112
286.112
286.112
286.111
286.111
286.111
286.111
286.111
286.111
286.111
286.111
286.111
286.111
286.111
286.111
286.111
286.111
286.111
286.111
286.111
286.111
286.111
286.111
286.111
286.111
286.111
286.111
286.112
286.112
286.113
286.112
286.114
286.113
286.115
286.116
283.006
283.003
283.041
283.063
283.079
283.092
283.137
283.215
283.325
283.445
283.574
283.71
283.864
284.036
284.224
284.418
284.611
284.797
284.974
285.139
285.291
285.426
285.541
285.634
285.705
285.757
285.793
285.817
285.831
285.84
285.844
285.846
285.847
285.846
285.846
285.845
285.844
285.844
285.843
285.842
285.842
285.841
285.84
285.84
285.839
285.839
285.839
285.838
285.838
285.837
285.837
285.837
285.837
285.836
285.836
285.836
285.836
285.836
285.835
285.835
285.835
285.835
285.835
285.835
285.835
285.835
285.835
285.835
285.835
285.834
285.834
285.834
285.835
285.834
285.835
285.835
285.835
285.835
285.835
285.835
285.835
285.835
285.835
285.835
285.836
285.835
285.837
285.836
285.838
285.838
283.112
283.115
283.151
283.151
283.157
283.167
283.221
283.3
283.407
283.518
283.641
283.775
283.932
284.106
284.293
284.483
284.671
284.851
285.022
285.182
285.326
285.452
285.556
285.638
285.699
285.742
285.771
285.79
285.801
285.807
285.81
285.811
285.811
285.81
285.809
285.809
285.808
285.807
285.806
285.806
285.805
285.804
285.804
285.803
285.803
285.802
285.802
285.801
285.801
285.801
285.8
285.8
285.8
285.799
285.799
285.799
285.799
285.799
285.798
285.798
285.798
285.798
285.798
285.798
285.798
285.798
285.798
285.797
285.797
285.797
285.797
285.797
285.797
285.797
285.797
285.797
285.798
285.798
285.798
285.798
285.798
285.798
285.798
285.798
285.799
285.799
285.8
285.8
285.802
285.803
286.047
288.348
289.657
290.579
291.315
291.942
292.513
293.033
293.51
293.94
294.337
294.707
295.058
295.387
295.692
295.968
296.216
296.437
296.637
296.812
296.965
297.091
297.194
297.272
297.329
297.368
297.394
297.409
297.419
297.423
297.426
297.426
297.426
297.425
297.425
297.423
297.423
297.422
297.421
297.42
297.42
297.419
297.418
297.417
297.417
297.416
297.416
297.415
297.415
297.414
297.414
297.413
297.413
297.413
297.413
297.412
297.412
297.412
297.412
297.411
297.411
297.411
297.411
297.411
297.411
297.41
297.411
297.41
297.41
297.41
297.41
297.41
297.41
297.41
297.411
297.41
297.411
297.41
297.411
297.411
297.411
297.411
297.412
297.411
297.412
297.412
297.414
297.412
297.419
297.42
283.849
285.47
286.695
287.617
288.352
288.968
289.524
290.039
290.52
290.962
291.365
291.737
292.088
292.421
292.735
293.025
293.287
293.523
293.735
293.924
294.091
294.236
294.356
294.452
294.524
294.577
294.613
294.637
294.651
294.66
294.664
294.667
294.667
294.668
294.667
294.667
294.667
294.666