/*--------------------------------*- C++ -*----------------------------------*\
  =========                 |
  \\      /  F ield         | OpenFOAM: The Open Source CFD Toolbox
   \\    /   O peration     | Website:  https://openfoam.org
    \\  /    A nd           | Version:  7
     \\/     M anipulation  |
\*---------------------------------------------------------------------------*/
FoamFile
{
    version     2.0;
    format      ascii;
    class       volScalarField;
    location    "0.0325";
    object      nut;
}
// * * * * * * * * * * * * * * * * * * * * * * * * * * * * * * * * * * * * * //

dimensions      [0 2 -1 0 0 0 0];

internalField   nonuniform List<scalar> 
1440
(
0.000329487
0.00076573
0.00122561
0.00161278
0.00191875
0.00214717
0.00230699
0.00241095
0.00246996
0.00249661
0.00249408
0.00248205
0.00245581
0.00242046
0.00238091
0.00233934
0.00229728
0.00225582
0.00221565
0.00217725
0.00214088
0.00210667
0.00207467
0.00204485
0.00201712
0.00199139
0.00196753
0.00194539
0.00192486
0.00190578
0.00188803
0.00187149
0.00185603
0.00184156
0.00182797
0.00181515
0.00180304
0.00179157
0.00178067
0.00177028
0.00176036
0.00175086
0.00174173
0.00173294
0.00172447
0.00171629
0.00170837
0.0017007
0.00169325
0.00168603
0.001679
0.00167217
0.00166553
0.00165905
0.00165275
0.00164659
0.00164059
0.00163473
0.00162899
0.00162339
0.00161789
0.00161251
0.00160723
0.00160205
0.00159697
0.00159199
0.00158709
0.0015823
0.00157759
0.00157299
0.00156848
0.00156407
0.00155977
0.00155556
0.00155145
0.00154743
0.0015435
0.00153965
0.00153587
0.00153215
0.00152848
0.00152486
0.00152129
0.00151775
0.00151427
0.00151082
0.00150742
0.00150407
0.00150077
0.00149752
0.00149433
0.0014912
0.00148812
0.00148511
0.00148216
0.00147927
0.00147644
0.00147367
0.00147095
0.00146828
0.00146566
0.0014631
0.00146058
0.00145811
0.00145568
0.00145329
0.00145096
0.00144864
0.00144639
0.00144412
0.00144197
0.00143974
0.0014377
0.00143546
0.00143361
0.00143125
0.0014297
0.00142714
0.00142591
0.00142293
1.54447e-05
7.35676e-05
0.000165325
0.000284153
0.000435115
0.000592149
0.00073703
0.000866508
0.000974958
0.00106524
0.00113596
0.00119156
0.00123409
0.00126564
0.00128844
0.00130449
0.00131532
0.00132234
0.00132648
0.00132871
0.00132946
0.0013293
0.00132883
0.00132792
0.00132692
0.00132592
0.00132503
0.00132426
0.00132365
0.00132318
0.00132288
0.00132268
0.00132263
0.00132265
0.00132271
0.00132284
0.001323
0.00132318
0.00132336
0.00132354
0.00132369
0.00132383
0.00132391
0.00132398
0.00132398
0.00132395
0.00132388
0.00132374
0.00132355
0.00132331
0.00132301
0.00132266
0.00132226
0.0013218
0.00132129
0.00132074
0.00132015
0.00131951
0.00131884
0.00131814
0.00131741
0.00131666
0.00131589
0.0013151
0.0013143
0.00131347
0.00131264
0.00131178
0.00131091
0.00131001
0.00130909
0.00130815
0.00130718
0.00130619
0.00130518
0.00130414
0.00130308
0.00130201
0.00130092
0.00129983
0.00129875
0.00129767
0.00129659
0.00129553
0.00129447
0.00129343
0.00129238
0.00129134
0.00129029
0.00128924
0.00128818
0.00128711
0.00128602
0.00128492
0.00128381
0.00128269
0.00128156
0.00128042
0.00127928
0.00127813
0.00127698
0.00127583
0.00127469
0.00127354
0.00127241
0.00127126
0.00127015
0.00126899
0.00126793
0.00126675
0.00126573
0.00126453
0.00126358
0.00126232
0.00126146
0.00126012
0.00125935
0.00125794
0.00125723
0.0012555
1.62235e-06
3.99366e-06
1.14491e-05
2.50165e-05
4.64467e-05
7.56244e-05
0.000113694
0.000158055
0.000203903
0.000250097
0.000294547
0.000336274
0.000374652
0.000409334
0.000440231
0.000467448
0.000491205
0.000511789
0.00052953
0.00054474
0.000557767
0.000568874
0.000578377
0.000586506
0.000593493
0.000599526
0.000604784
0.000609411
0.000613536
0.000617266
0.000620694
0.000623896
0.000626936
0.000629869
0.000632736
0.000635578
0.00063842
0.000641289
0.000644198
0.000647165
0.000650195
0.000653297
0.000656473
0.000659727
0.000663056
0.000666459
0.000669933
0.000673475
0.000677079
0.000680739
0.000684451
0.000688209
0.000692007
0.000695838
0.000699699
0.000703584
0.000707488
0.000711407
0.000715337
0.000719274
0.000723213
0.000727153
0.000731089
0.000735019
0.000738937
0.000742843
0.000746729
0.000750595
0.000754434
0.000758246
0.000762022
0.000765764
0.000769463
0.000773123
0.000776732
0.000780301
0.000783814
0.000787288
0.000790705
0.000794087
0.00079741
0.000800704
0.000803938
0.000807148
0.000810294
0.000813421
0.000816476
0.000819517
0.000822478
0.00082543
0.000828289
0.000831148
0.0008339
0.000836662
0.000839303
0.000841969
0.000844494
0.000847066
0.000849474
0.000851956
0.000854245
0.000856642
0.000858811
0.000861134
0.000863181
0.000865437
0.00086736
0.000869563
0.000871356
0.00087352
0.000875176
0.000877317
0.000878828
0.000880962
0.000882316
0.000884456
0.000885648
0.000887788
0.000888832
0.000891346
1.57871e-06
1.59487e-06
1.71791e-06
2.33039e-06
4.01405e-06
7.09021e-06
1.18172e-05
1.83201e-05
2.69254e-05
3.72992e-05
4.86301e-05
6.08449e-05
7.33667e-05
8.60896e-05
9.85997e-05
0.000110842
0.000122542
0.000133717
0.000144192
0.000154044
0.000163157
0.000171649
0.000179437
0.000186661
0.000193253
0.000199364
0.000204927
0.000210099
0.000214807
0.000219206
0.000223217
0.000226995
0.000230451
0.000233737
0.000236755
0.000239659
0.000242339
0.000244952
0.000247374
0.000249769
0.000251999
0.000254236
0.000256326
0.00025845
0.00026044
0.000262489
0.000264411
0.000266412
0.000268291
0.000270268
0.000272121
0.000274091
0.000275934
0.00027791
0.000279754
0.000281749
0.000283605
0.000285628
0.000287504
0.000289565
0.000291467
0.000293574
0.000295509
0.000297667
0.000299637
0.000301849
0.000303855
0.000306121
0.000308161
0.000310481
0.00031255
0.000314921
0.000317016
0.000319435
0.000321552
0.000324018
0.000326157
0.000328672
0.000330832
0.000333401
0.000335585
0.000338212
0.000340422
0.000343109
0.000345343
0.000348091
0.000350346
0.00035315
0.000355417
0.000358273
0.000360544
0.000363446
0.000365711
0.000368654
0.000370906
0.000373887
0.000376118
0.000379134
0.00038134
0.00038439
0.000386565
0.000389651
0.000391789
0.000394913
0.000397011
0.000400173
0.000402226
0.000405428
0.000407432
0.000410677
0.000412626
0.000415916
0.000417805
0.000421143
0.000422968
0.000426349
0.000428111
0.000431521
0.000433228
0.000437431
1.57737e-06
1.58307e-06
1.59723e-06
1.62682e-06
1.68124e-06
1.79015e-06
2.01488e-06
2.44788e-06
3.18621e-06
4.43514e-06
5.78134e-06
8.00166e-06
9.71732e-06
1.26599e-05
1.45681e-05
1.79497e-05
1.99143e-05
2.34777e-05
2.54033e-05
2.88792e-05
3.08548e-05
3.40741e-05
3.59897e-05
3.89555e-05
4.07605e-05
4.34805e-05
4.51531e-05
4.76345e-05
4.9163e-05
5.14506e-05
5.28523e-05
5.49719e-05
5.62581e-05
5.82237e-05
5.94064e-05
6.12529e-05
6.23541e-05
6.41038e-05
6.51368e-05
6.67974e-05
6.77645e-05
6.93513e-05
7.02645e-05
7.17927e-05
7.26666e-05
7.41473e-05
7.49866e-05
7.64258e-05
7.72317e-05
7.86306e-05
7.94049e-05
8.07709e-05
8.15186e-05
8.28569e-05
8.35813e-05
8.48933e-05
8.55953e-05
8.68855e-05
8.75702e-05
8.88419e-05
8.95104e-05
9.07671e-05
9.14233e-05
9.26702e-05
9.33178e-05
9.45579e-05
9.5198e-05
9.64306e-05
9.70639e-05
9.82916e-05
9.89191e-05
0.00010014
0.000100762
0.00010198
0.000102597
0.00010381
0.000104423
0.000105637
0.00010625
0.000107467
0.000108084
0.000109309
0.000109932
0.000111169
0.000111799
0.000113052
0.000113691
0.000114961
0.000115608
0.000116894
0.000117547
0.000118845
0.000119504
0.000120814
0.000121478
0.000122798
0.000123466
0.000124794
0.000125467
0.000126803
0.00012748
0.000128825
0.000129506
0.000130861
0.000131548
0.000132915
0.000133608
0.000134986
0.000135685
0.000137077
0.000137784
0.00013919
0.000139904
0.000141324
0.000142047
0.00014348
0.000144215
0.00014566
0.000146396
0.000148216
1.57677e-06
1.58082e-06
1.59274e-06
1.62225e-06
1.6596e-06
1.7393e-06
1.80169e-06
1.92847e-06
2.0113e-06
2.17644e-06
2.2791e-06
2.48597e-06
2.61528e-06
2.87923e-06
3.04203e-06
3.37384e-06
3.56942e-06
3.96376e-06
4.18394e-06
4.62114e-06
4.8561e-06
5.3172e-06
5.55664e-06
6.02435e-06
6.26183e-06
6.72526e-06
6.95692e-06
7.4087e-06
7.63242e-06
8.06943e-06
8.28544e-06
8.70865e-06
8.9179e-06
9.32832e-06
9.53133e-06
9.93014e-06
1.01286e-05
1.052e-05
1.07155e-05
1.1101e-05
1.12936e-05
1.16738e-05
1.18644e-05
1.22408e-05
1.24301e-05
1.28045e-05
1.29935e-05
1.33686e-05
1.35579e-05
1.3933e-05
1.41216e-05
1.44957e-05
1.46835e-05
1.50557e-05
1.52427e-05
1.56138e-05
1.58007e-05
1.61716e-05
1.63582e-05
1.67287e-05
1.69152e-05
1.72856e-05
1.7472e-05
1.78423e-05
1.8029e-05
1.84005e-05
1.85878e-05
1.89604e-05
1.91481e-05
1.95216e-05
1.97093e-05
2.00824e-05
2.02697e-05
2.06422e-05
2.08291e-05
2.12007e-05
2.13875e-05
2.17591e-05
2.19464e-05
2.23193e-05
2.25078e-05
2.28837e-05
2.30743e-05
2.34545e-05
2.36475e-05
2.40327e-05
2.42284e-05
2.46187e-05
2.48165e-05
2.5211e-05
2.54105e-05
2.58081e-05
2.60086e-05
2.64082e-05
2.66093e-05
2.701e-05
2.72113e-05
2.76122e-05
2.78133e-05
2.82141e-05
2.84152e-05
2.88158e-05
2.90169e-05
2.94176e-05
2.9619e-05
3.00203e-05
3.02221e-05
3.06244e-05
3.08269e-05
3.12306e-05
3.14341e-05
3.18397e-05
3.20445e-05
3.24522e-05
3.26585e-05
3.30687e-05
3.32768e-05
3.36893e-05
3.38986e-05
3.44178e-05
1.57677e-06
1.58082e-06
1.59274e-06
1.62225e-06
1.6596e-06
1.73931e-06
1.80169e-06
1.92849e-06
2.01131e-06
2.17646e-06
2.27907e-06
2.48581e-06
2.61486e-06
2.87825e-06
3.04035e-06
3.37066e-06
3.56481e-06
3.95603e-06
4.17394e-06
4.60601e-06
4.83805e-06
5.29299e-06
5.52877e-06
5.98885e-06
6.22182e-06
6.67596e-06
6.90254e-06
7.34438e-06
7.56326e-06
7.99103e-06
8.20253e-06
8.61687e-06
8.82141e-06
9.22216e-06
9.42038e-06
9.81e-06
1.0004e-05
1.03863e-05
1.05768e-05
1.09521e-05
1.11391e-05
1.15081e-05
1.16924e-05
1.20561e-05
1.22386e-05
1.25998e-05
1.27819e-05
1.31431e-05
1.3325e-05
1.36855e-05
1.3867e-05
1.42267e-05
1.44075e-05
1.47659e-05
1.49464e-05
1.53049e-05
1.54853e-05
1.58433e-05
1.60233e-05
1.63808e-05
1.65604e-05
1.69168e-05
1.70957e-05
1.74512e-05
1.763e-05
1.79853e-05
1.81641e-05
1.85197e-05
1.86987e-05
1.90547e-05
1.92338e-05
1.95901e-05
1.97695e-05
2.01268e-05
2.03065e-05
2.06639e-05
2.08432e-05
2.11998e-05
2.13789e-05
2.17355e-05
2.19143e-05
2.22701e-05
2.24478e-05
2.28011e-05
2.29775e-05
2.33286e-05
2.35041e-05
2.38535e-05
2.40283e-05
2.43761e-05
2.45506e-05
2.48984e-05
2.50738e-05
2.54239e-05
2.56009e-05
2.59541e-05
2.61329e-05
2.64899e-05
2.6671e-05
2.70329e-05
2.72167e-05
2.75839e-05
2.77705e-05
2.81432e-05
2.83327e-05
2.87113e-05
2.89037e-05
2.92883e-05
2.94837e-05
2.9874e-05
3.00722e-05
3.04677e-05
3.06685e-05
3.10686e-05
3.12718e-05
3.16759e-05
3.18814e-05
3.22886e-05
3.24953e-05
3.30081e-05
1.57737e-06
1.58307e-06
1.59723e-06
1.62683e-06
1.68124e-06
1.79014e-06
2.01478e-06
2.44768e-06
3.18525e-06
4.43384e-06
5.778e-06
7.99592e-06
9.70793e-06
1.26452e-05
1.45476e-05
1.79199e-05
1.98761e-05
2.34191e-05
2.53451e-05
2.87769e-05
3.07759e-05
3.39459e-05
3.58757e-05
3.87911e-05
4.06035e-05
4.32731e-05
4.49443e-05
4.73858e-05
4.89178e-05
5.11718e-05
5.25774e-05
5.46603e-05
5.59463e-05
5.78793e-05
5.90645e-05
6.0883e-05
6.19893e-05
6.37108e-05
6.47445e-05
6.63771e-05
6.73421e-05
6.89002e-05
6.98109e-05
7.13103e-05
7.21789e-05
7.36303e-05
7.44615e-05
7.58697e-05
7.66671e-05
7.80374e-05
7.88039e-05
8.01422e-05
8.08834e-05
8.21957e-05
8.29145e-05
8.42034e-05
8.49002e-05
8.61675e-05
8.68468e-05
8.80979e-05
8.87624e-05
8.99977e-05
9.06473e-05
9.187e-05
9.25091e-05
9.3724e-05
9.43538e-05
9.5561e-05
9.61819e-05
9.73832e-05
9.79996e-05
9.91989e-05
9.98124e-05
0.00010101
0.00010162
0.000102817
0.000103426
0.000104624
0.000105232
0.00010643
0.000107037
0.000108234
0.000108839
0.000110035
0.000110639
0.000111837
0.000112442
0.000113642
0.000114248
0.000115452
0.000116061
0.000117273
0.000117889
0.000119114
0.000119737
0.000120976
0.000121608
0.000122864
0.000123505
0.000124782
0.000125434
0.000126733
0.000127396
0.000128717
0.000129391
0.000130734
0.00013142
0.000132785
0.000133482
0.00013487
0.000135577
0.000136986
0.000137703
0.000139131
0.000139858
0.0001413
0.00014204
0.000143495
0.000144236
0.000146069
1.57871e-06
1.59486e-06
1.71782e-06
2.33001e-06
4.01334e-06
7.08887e-06
1.18155e-05
1.83213e-05
2.69123e-05
3.72925e-05
4.86077e-05
6.08198e-05
7.33222e-05
8.60355e-05
9.85211e-05
0.000110746
0.000122416
0.000133568
0.000144009
0.000153833
0.00016291
0.000171373
0.000179124
0.00018632
0.000192878
0.000198963
0.000204497
0.000209647
0.00021433
0.000218715
0.000222708
0.000226478
0.000229921
0.000233205
0.000236215
0.000239122
0.000241796
0.000244412
0.000246828
0.000249225
0.000251447
0.000253684
0.000255762
0.000257884
0.000259861
0.000261906
0.000263812
0.00026581
0.000267673
0.000269648
0.000271489
0.00027346
0.000275294
0.000277276
0.000279116
0.000281121
0.000282976
0.000285012
0.000286889
0.000288963
0.000290866
0.000292984
0.000294916
0.00029708
0.000299043
0.000301258
0.000303253
0.00030552
0.000307548
0.000309869
0.00031193
0.000314305
0.000316397
0.000318826
0.000320947
0.000323429
0.000325574
0.000328105
0.000330269
0.000332847
0.000335025
0.000337645
0.000339831
0.000342491
0.000344681
0.00034738
0.00034957
0.000352309
0.000354497
0.000357276
0.000359461
0.000362283
0.000364462
0.00036733
0.000369502
0.000372417
0.00037458
0.000377543
0.000379693
0.000382706
0.000384839
0.000387901
0.000390013
0.000393125
0.000395209
0.000398372
0.000400421
0.000403635
0.000405643
0.000408907
0.000410866
0.000414181
0.000416086
0.000419449
0.000421293
0.000424702
0.000426481
0.00042992
0.000431642
0.000435878
1.6223e-06
3.9919e-06
1.1445e-05
2.501e-05
4.64402e-05
7.56124e-05
0.000113696
0.00015802
0.000203875
0.000250043
0.000294482
0.00033618
0.000374542
0.000409193
0.00044007
0.000467255
0.000490992
0.000511547
0.000529268
0.000544457
0.000557467
0.000568561
0.000578054
0.000586178
0.000593164
0.000599201
0.000604468
0.000609108
0.000613252
0.000617005
0.000620463
0.000623697
0.000626777
0.000629751
0.000632665
0.000635553
0.000638442
0.000641355
0.000644308
0.000647314
0.000650382
0.00065352
0.000656729
0.000660013
0.00066337
0.000666798
0.000670297
0.000673862
0.00067749
0.000681176
0.000684915
0.000688701
0.000692531
0.000696398
0.000700297
0.000704222
0.000708169
0.000712131
0.000716104
0.000720083
0.000724063
0.000728041
0.000732011
0.00073597
0.000739913
0.00074384
0.000747743
0.000751624
0.000755475
0.0007593
0.000763088
0.000766846
0.000770561
0.000774244
0.000777877
0.000781475
0.000785018
0.000788522
0.000791966
0.000795371
0.000798709
0.000802008
0.000805235
0.000808427
0.00081154
0.000814623
0.000817622
0.000820599
0.000823486
0.00082636
0.000829137
0.000831913
0.000834583
0.000837268
0.000839834
0.000842433
0.000844896
0.000847416
0.000849778
0.000852225
0.000854484
0.000856865
0.000859021
0.000861342
0.000863391
0.000865662
0.000867597
0.000869827
0.000871642
0.000873842
0.000875526
0.000877709
0.000879251
0.000881431
0.000882816
0.000885003
0.000886223
0.000888411
0.000889478
0.000892047
1.54344e-05
7.35323e-05
0.00016528
0.000284099
0.000435091
0.000592052
0.000736976
0.00086639
0.000974853
0.00106509
0.00113578
0.00119137
0.00123388
0.00126542
0.00128822
0.00130426
0.00131512
0.00132214
0.00132633
0.00132857
0.0013294
0.00132926
0.00132884
0.001328
0.00132705
0.00132612
0.00132528
0.00132457
0.00132402
0.00132363
0.00132338
0.00132326
0.00132327
0.00132334
0.00132348
0.00132368
0.0013239
0.00132414
0.00132436
0.00132458
0.00132476
0.00132492
0.00132503
0.00132511
0.00132511
0.00132509
0.00132503
0.0013249
0.00132472
0.00132448
0.0013242
0.00132387
0.0013235
0.00132307
0.00132261
0.0013221
0.00132155
0.00132096
0.00132033
0.00131966
0.00131897
0.00131824
0.00131748
0.00131669
0.00131588
0.00131504
0.00131418
0.0013133
0.0013124
0.00131148
0.00131054
0.00130959
0.00130862
0.00130764
0.00130665
0.00130564
0.00130461
0.00130358
0.00130253
0.00130147
0.0013004
0.00129932
0.00129823
0.00129714
0.00129604
0.00129494
0.00129383
0.00129273
0.00129162
0.00129051
0.00128941
0.00128831
0.00128722
0.00128613
0.00128504
0.00128396
0.00128288
0.0012818
0.00128073
0.00127966
0.0012786
0.00127753
0.00127648
0.0012754
0.00127436
0.00127328
0.00127225
0.00127115
0.00127014
0.00126902
0.00126805
0.00126689
0.00126597
0.00126474
0.00126389
0.00126259
0.00126183
0.00126043
0.00125973
0.00125801
0.00032948
0.000765661
0.00122557
0.00161265
0.00191855
0.00214679
0.00230645
0.00241012
0.00246897
0.00249521
0.00249254
0.0024803
0.00245373
0.00241815
0.0023784
0.00233665
0.00229444
0.00225284
0.00221257
0.00217408
0.00213764
0.00210338
0.00207135
0.00204151
0.00201377
0.00198803
0.00196416
0.00194203
0.00192149
0.00190242
0.00188466
0.00186811
0.00185264
0.00183815
0.00182454
0.00181171
0.0017996
0.00178812
0.00177721
0.00176682
0.00175689
0.00174738
0.00173825
0.00172947
0.001721
0.00171283
0.00170492
0.00169725
0.00168982
0.00168259
0.00167556
0.00166872
0.00166205
0.00165555
0.0016492
0.001643
0.00163695
0.00163104
0.00162525
0.0016196
0.00161407
0.00160866
0.00160336
0.00159818
0.00159311
0.00158815
0.00158329
0.00157853
0.00157386
0.00156929
0.00156481
0.00156042
0.00155612
0.0015519
0.00154777
0.00154372
0.00153975
0.00153586
0.00153205
0.00152833
0.00152468
0.0015211
0.00151761
0.00151419
0.00151084
0.00150756
0.00150435
0.00150121
0.00149812
0.0014951
0.00149213
0.00148921
0.00148634
0.00148351
0.00148073
0.00147799
0.00147528
0.00147262
0.00146999
0.0014674
0.00146484
0.00146231
0.00145982
0.00145735
0.00145493
0.00145252
0.00145017
0.00144782
0.00144554
0.00144324
0.00144105
0.00143878
0.0014367
0.00143441
0.00143253
0.00143013
0.00142854
0.00142594
0.00142469
0.00142167
)
;

boundaryField
{
    upperWall
    {
        type            zeroGradient;
    }
    lowerWall
    {
        type            zeroGradient;
    }
    inlet
    {
        type            zeroGradient;
    }
    outlet
    {
        type            zeroGradient;
    }
    frontAndBack
    {
        type            empty;
    }
}


// ************************************************************************* //
