/*--------------------------------*- C++ -*----------------------------------*\
  =========                 |
  \\      /  F ield         | OpenFOAM: The Open Source CFD Toolbox
   \\    /   O peration     | Website:  https://openfoam.org
    \\  /    A nd           | Version:  7
     \\/     M anipulation  |
\*---------------------------------------------------------------------------*/
FoamFile
{
    version     2.0;
    format      ascii;
    class       surfaceScalarField;
    location    "0.0325";
    object      phi_0;
}
// * * * * * * * * * * * * * * * * * * * * * * * * * * * * * * * * * * * * * //

dimensions      [1 0 -1 0 0 0 0];

internalField   nonuniform List<scalar> 
2748
(
0.0119973
6.16704e-05
0.0118337
0.000163433
0.0115862
0.00024725
0.0112694
0.000316498
0.010899
0.000370209
0.0104914
0.000407354
0.0100619
0.000429166
0.00962385
0.000437852
0.00918714
0.000436469
0.00875967
0.000427236
0.00834731
0.000412129
0.00795362
0.000393471
0.00758138
0.000372034
0.00723249
0.0003487
0.00690761
0.000324702
0.00660677
0.000300688
0.00632956
0.000277079
0.00607523
0.000254234
0.00584273
0.000232417
0.00563088
0.000211802
0.00543835
0.000192496
0.00526379
0.000174563
0.00510579
0.000158016
0.00496299
0.000142844
0.00483402
0.000129009
0.00471762
0.000116452
0.00461256
0.000105101
0.0045177
9.48799e-05
0.00443199
8.57049e-05
0.00435445
7.74929e-05
0.00428421
7.01619e-05
0.00422044
6.36322e-05
0.00416243
5.78281e-05
0.00410952
5.2678e-05
0.00406112
4.81155e-05
0.00401672
4.40789e-05
0.00397585
4.05121e-05
0.00393812
3.73639e-05
0.00390317
3.45877e-05
0.00387068
3.21416e-05
0.00384039
2.99877e-05
0.00381204
2.80921e-05
0.00378542
2.64238e-05
0.00376034
2.49551e-05
0.00373664
2.3661e-05
0.00371415
2.25188e-05
0.00369273
2.15082e-05
0.00367227
2.06108e-05
0.00365263
1.98104e-05
0.00363372
1.90927e-05
0.00361544
1.84454e-05
0.00359771
1.78579e-05
0.00358045
1.73209e-05
0.0035636
1.68268e-05
0.00354711
1.63697e-05
0.00353095
1.59453e-05
0.00351507
1.55506e-05
0.00349947
1.51836e-05
0.00348414
1.48436e-05
0.00346908
1.45301e-05
0.0034543
1.42431e-05
0.00343979
1.39825e-05
0.00342558
1.37482e-05
0.00341168
1.35394e-05
0.00339809
1.33547e-05
0.0033848
1.31916e-05
0.00337182
1.3047e-05
0.00335911
1.29167e-05
0.00334666
1.27961e-05
0.00333444
1.26805e-05
0.00332241
1.25646e-05
0.00331052
1.24432e-05
0.00329874
1.23116e-05
0.00328702
1.21663e-05
0.00327533
1.20053e-05
0.00326365
1.18278e-05
0.00325196
1.16347e-05
0.00324026
1.14276e-05
0.00322855
1.12095e-05
0.00321683
1.09849e-05
0.00320516
1.07606e-05
0.00319359
1.05447e-05
0.00318219
1.03463e-05
0.00317105
1.01734e-05
0.00316021
1.00321e-05
0.00314973
9.92472e-06
0.00313959
9.85055e-06
0.00312978
9.80552e-06
0.00312028
9.78374e-06
0.00311101
9.77808e-06
0.00310195
9.78151e-06
0.00309303
9.78739e-06
0.00308423
9.79032e-06
0.00307551
9.78608e-06
0.00306686
9.77195e-06
0.00305825
9.74674e-06
0.0030497
9.7103e-06
0.00304121
9.6641e-06
0.0030328
9.60939e-06
0.00302447
9.54949e-06
0.00301626
9.48519e-06
0.00300816
9.4212e-06
0.0030002
9.35578e-06
0.00299237
9.29598e-06
0.00298469
9.23469e-06
0.00297716
9.18482e-06
0.00296978
9.12869e-06
0.00296254
9.09294e-06
0.00295546
9.03826e-06
0.00294851
9.02135e-06
0.00294173
8.95802e-06
0.00293505
8.96807e-06
0.00292857
8.87474e-06
0.00292215
8.92669e-06
0.00291601
8.76117e-06
0.00290987
8.88076e-06
0.00290413
8.57478e-06
0.00289827
8.82259e-06
0.00289296
8.35753e-06
9.11897e-06
0.012084
3.5483e-05
0.0121405
0.000106736
0.012216
0.000171457
0.0123037
0.000228576
0.0123941
0.000279514
0.012478
0.000323217
0.0125487
0.000358267
0.0126021
0.000384196
0.0126367
0.000401581
0.0126524
0.000411344
0.0126498
0.000414455
0.012631
0.000412084
0.0125976
0.000405149
0.0125516
0.00039451
0.012495
0.000381095
0.0124298
0.000365694
0.0123577
0.000348955
0.0122804
0.000331419
0.0121991
0.000313548
0.012115
0.000295712
0.0120292
0.000278208
0.0119424
0.00026127
0.0118552
0.000245063
0.0117683
0.000229704
0.011682
0.000215269
0.0115966
0.000201791
0.0115124
0.000189278
0.0114295
0.000177715
0.0113482
0.000167073
0.0112683
0.000157308
0.0111901
0.000148372
0.0111136
0.000140212
0.0110386
0.00013277
0.0109653
0.000125991
0.0108936
0.000119819
0.0108235
0.0001142
0.0107549
0.000109083
0.0106878
0.000104421
0.0106222
0.000100168
0.0105579
9.62846e-05
0.0104951
9.27321e-05
0.0104336
8.94757e-05
0.0103734
8.64839e-05
0.0103145
8.37276e-05
0.0102569
8.11804e-05
0.0102004
7.88183e-05
0.0101451
7.66197e-05
0.010091
7.4565e-05
0.010038
7.2637e-05
0.00998603
7.08212e-05
0.00993516
6.91052e-05
0.00988533
6.74771e-05
0.0098365
6.59269e-05
0.00978866
6.44462e-05
0.00974176
6.30287e-05
0.00969579
6.16694e-05
0.00965072
6.03649e-05
0.00960652
5.91125e-05
0.00956317
5.79108e-05
0.00952065
5.67587e-05
0.00947893
5.56552e-05
0.00943799
5.45994e-05
0.00939782
5.359e-05
0.0093584
5.26252e-05
0.00931972
5.17024e-05
0.00928176
5.08183e-05
0.00924452
4.99688e-05
0.00920799
4.91493e-05
0.00917216
4.83547e-05
0.00913701
4.75794e-05
0.00910254
4.68184e-05
0.00906874
4.60663e-05
0.00903559
4.5319e-05
0.00900308
4.45734e-05
0.00897118
4.38278e-05
0.00893989
4.30817e-05
0.00890917
4.23364e-05
0.00887901
4.15942e-05
0.00884938
4.08591e-05
0.00882025
4.01361e-05
0.00879161
3.94319e-05
0.00876341
3.87534e-05
0.00873566
3.8108e-05
0.00870832
3.75014e-05
0.0086814
3.69383e-05
0.00865487
3.64199e-05
0.00862873
3.59456e-05
0.00860298
3.55118e-05
0.00857761
3.51135e-05
0.00855261
3.47441e-05
0.00852796
3.4397e-05
0.00850366
3.40653e-05
0.00847969
3.37432e-05
0.00845605
3.34253e-05
0.00843273
3.3108e-05
0.00840971
3.27886e-05
0.00838699
3.2466e-05
0.00836455
3.21397e-05
0.0083424
3.18107e-05
0.00832054
3.148e-05
0.00829894
3.11494e-05
0.00827763
3.08209e-05
0.00825659
3.04957e-05
0.00823583
3.01763e-05
0.00821534
2.98624e-05
0.00819513
2.95575e-05
0.00817519
2.92587e-05
0.00815554
2.89711e-05
0.00813615
2.86882e-05
0.00811706
2.8418e-05
0.00809822
2.81487e-05
0.0080797
2.78916e-05
0.0080614
2.76301e-05
0.00804348
2.73721e-05
0.00802571
2.71069e-05
0.00800844
2.68075e-05
0.00799121
2.65179e-05
0.00797479
2.60652e-05
0.00795824
2.57664e-05
2.55756e-05
0.0120675
2.50328e-05
0.0120985
7.54949e-05
0.0121467
0.000122972
0.0122105
0.00016461
0.0122887
0.000201007
0.0123794
0.000232284
0.0124795
0.0002579
0.0125859
0.000277583
0.0126956
0.000291623
0.0128061
0.000300661
0.0129149
0.000305341
0.0130205
0.000306274
0.0131213
0.000304092
0.0132163
0.000299337
0.0133047
0.000292451
0.0133863
0.000283908
0.0134609
0.000274145
0.0135286
0.000263533
0.0135896
0.000252394
0.0136442
0.000240999
0.0136926
0.000229583
0.0137354
0.000218342
0.0137729
0.000207432
0.0138055
0.000196965
0.0138337
0.000187018
0.0138577
0.00017764
0.0138781
0.000168857
0.0138951
0.000160678
0.013909
0.000153096
0.0139202
0.000146096
0.0139288
0.000139656
0.0139353
0.000133746
0.0139397
0.000128335
0.0139423
0.00012339
0.0139433
0.000118874
0.0139427
0.000114755
0.0139408
0.000110998
0.0139377
0.000107571
0.0139335
0.000104444
0.0139282
0.000101589
0.013922
9.89773e-05
0.0139149
9.65855e-05
0.013907
9.43903e-05
0.0138984
9.23702e-05
0.013889
9.05058e-05
0.0138791
8.87787e-05
0.0138685
8.71725e-05
0.0138574
8.56717e-05
0.0138457
8.42622e-05
0.0138335
8.29334e-05
0.0138209
8.16773e-05
0.0138078
8.04831e-05
0.0137942
7.9343e-05
0.0137803
7.82505e-05
0.013766
7.72008e-05
0.0137513
7.61899e-05
0.0137362
7.52156e-05
0.0137209
7.42761e-05
0.0137052
7.33709e-05
0.0136892
7.24992e-05
0.0136729
7.16611e-05
0.0136563
7.08561e-05
0.0136395
7.00837e-05
0.0136225
6.93419e-05
0.0136052
6.86291e-05
0.0135877
6.79421e-05
0.01357
6.72778e-05
0.0135522
6.66317e-05
0.0135341
6.59994e-05
0.0135159
6.53757e-05
0.0134975
6.47561e-05
0.013479
6.41357e-05
0.0134604
6.35111e-05
0.0134417
6.28793e-05
0.0134228
6.22394e-05
0.0134039
6.15912e-05
0.0133849
6.09367e-05
0.0133658
6.02786e-05
0.0133467
5.96218e-05
0.0133275
5.89715e-05
0.0133082
5.83349e-05
0.013289
5.77186e-05
0.0132697
5.71302e-05
0.0132503
5.65753e-05
0.013231
5.6059e-05
0.0132116
5.55828e-05
0.0131923
5.51471e-05
0.0131729
5.47485e-05
0.0131535
5.43832e-05
0.0131341
5.40443e-05
0.0131147
5.37261e-05
0.0130954
5.34209e-05
0.013076
5.31235e-05
0.0130566
5.28272e-05
0.0130373
5.2529e-05
0.0130179
5.22243e-05
0.0129986
5.1913e-05
0.0129793
5.15922e-05
0.01296
5.1265e-05
0.0129407
5.09287e-05
0.0129214
5.05897e-05
0.0129022
5.02431e-05
0.0128831
4.99e-05
0.0128639
4.95494e-05
0.0128448
4.92107e-05
0.0128258
4.88598e-05
0.0128068
4.85341e-05
0.0127878
4.81817e-05
0.0127689
4.78785e-05
0.01275
4.75152e-05
0.0127311
4.72486e-05
0.0127124
4.68491e-05
0.0126936
4.6644e-05
0.012675
4.61517e-05
0.0126562
4.60547e-05
0.0126378
4.53536e-05
0.012619
4.54522e-05
0.0126009
4.42873e-05
0.0125821
4.46081e-05
4.28249e-05
0.0120654
1.61995e-05
0.012092
4.85891e-05
0.0121351
7.95981e-05
0.0121922
0.000107284
0.0122617
0.000131335
0.0123418
0.000151899
0.0124306
0.000168881
0.0125258
0.000182126
0.0126254
0.000191725
0.0127278
0.000198023
0.0128315
0.000201448
0.0129351
0.000202417
0.0130376
0.000201345
0.0131382
0.000198581
0.013236
0.000194423
0.0133305
0.000189171
0.0134214
0.000183117
0.0135082
0.000176513
0.0135908
0.000169569
0.0136692
0.000162453
0.0137434
0.0001553
0.0138133
0.000148243
0.0138792
0.000141398
0.0139412
0.000134824
0.0139996
0.00012857
0.0140545
0.000122666
0.0141061
0.000117128
0.0141547
0.000111957
0.0142006
0.000107149
0.014244
0.000102694
0.014285
9.85835e-05
0.0143239
9.48001e-05
0.0143609
9.13269e-05
0.0143962
8.81443e-05
0.0144298
8.52329e-05
0.014462
8.25726e-05
0.0144929
8.01443e-05
0.0145225
7.79289e-05
0.0145511
7.59087e-05
0.0145786
7.40662e-05
0.0146053
7.23855e-05
0.014631
7.08511e-05
0.014656
6.94492e-05
0.0146802
6.81661e-05
0.0147038
6.69896e-05
0.0147267
6.59078e-05
0.014749
6.49101e-05
0.0147707
6.39859e-05
0.0147918
6.31267e-05
0.0148124
6.23247e-05
0.0148325
6.15738e-05
0.014852
6.08672e-05
0.0148711
6.01995e-05
0.0148898
5.9566e-05
0.0149079
5.89636e-05
0.0149256
5.83894e-05
0.0149429
5.78423e-05
0.0149597
5.73209e-05
0.0149761
5.68251e-05
0.014992
5.63545e-05
0.0150076
5.59092e-05
0.0150227
5.54888e-05
0.0150374
5.50933e-05
0.0150518
5.47204e-05
0.0150658
5.43687e-05
0.0150793
5.40358e-05
0.0150926
5.37191e-05
0.0151054
5.34148e-05
0.0151179
5.31193e-05
0.01513
5.28283e-05
0.0151418
5.25382e-05
0.0151533
5.22451e-05
0.0151644
5.19464e-05
0.0151752
5.16397e-05
0.0151856
5.13244e-05
0.0151957
5.10005e-05
0.0152054
5.06701e-05
0.0152149
5.03357e-05
0.015224
5.00017e-05
0.0152327
4.96724e-05
0.0152412
4.9354e-05
0.0152494
4.9052e-05
0.0152572
4.87728e-05
0.0152648
4.8521e-05
0.0152721
4.83007e-05
0.0152791
4.81133e-05
0.0152858
4.79592e-05
0.0152923
4.78355e-05
0.0152985
4.77392e-05
0.0153046
4.76644e-05
0.0153103
4.76063e-05
0.0153159
4.75581e-05
0.0153212
4.75153e-05
0.0153264
4.74717e-05
0.0153313
4.74247e-05
0.015336
4.73695e-05
0.0153405
4.7306e-05
0.0153447
4.72306e-05
0.0153488
4.71465e-05
0.0153527
4.70498e-05
0.0153564
4.69475e-05
0.0153599
4.68331e-05
0.0153633
4.67191e-05
0.0153664
4.6592e-05
0.0153694
4.64746e-05
0.0153722
4.6338e-05
0.0153748
4.62262e-05
0.0153773
4.60791e-05
0.0153796
4.59835e-05
0.0153818
4.58169e-05
0.0153837
4.57532e-05
0.0153855
4.55435e-05
0.0153872
4.55376e-05
0.0153887
4.5235e-05
0.01539
4.53294e-05
0.0153911
4.48348e-05
0.015392
4.50906e-05
0.0153927
4.42148e-05
0.0153931
4.4723e-05
4.30221e-05
0.0120644
8.00651e-06
0.0120888
2.39338e-05
0.0121289
3.92683e-05
0.0121828
5.31346e-05
0.0122487
6.51837e-05
0.0123249
7.54491e-05
0.0124095
8.39832e-05
0.0125007
9.07534e-05
0.0125964
9.57747e-05
0.012695
9.91804e-05
0.012795
0.000101171
0.0128952
0.000101961
0.0129946
0.000101746
0.0130923
0.0001007
0.0131875
9.89731e-05
0.0132798
9.67078e-05
0.0133686
9.40485e-05
0.0134538
9.11214e-05
0.0135352
8.80226e-05
0.0136127
8.48305e-05
0.0136862
8.16079e-05
0.0137559
7.84166e-05
0.0138219
7.53058e-05
0.0138843
7.23047e-05
0.0139433
6.94314e-05
0.0139992
6.67e-05
0.0140521
6.41223e-05
0.0141023
6.16872e-05
0.01415
5.93942e-05
0.0141954
5.72437e-05
0.0142387
5.52334e-05
0.0142801
5.33596e-05
0.0143198
5.16169e-05
0.0143579
4.99994e-05
0.0143947
4.8501e-05
0.0144301
4.71155e-05
0.0144645
4.58365e-05
0.0144978
4.46575e-05
0.0145301
4.35719e-05
0.0145616
4.25736e-05
0.0145924
4.16562e-05
0.0146225
4.08138e-05
0.0146519
4.00406e-05
0.0146808
3.93308e-05
0.0147091
3.8679e-05
0.014737
3.80795e-05
0.0147644
3.75272e-05
0.0147913
3.7017e-05
0.0148179
3.65443e-05
0.0148441
3.61052e-05
0.01487
3.56958e-05
0.0148955
3.53131e-05
0.0149207
3.4954e-05
0.0149456
3.46163e-05
0.0149702
3.42981e-05
0.0149945
3.39984e-05
0.0150185
3.37165e-05
0.0150422
3.34522e-05
0.0150657
3.32055e-05
0.0150889
3.29767e-05
0.0151118
3.27657e-05
0.0151345
3.25726e-05
0.015157
3.23967e-05
0.0151792
3.22372e-05
0.0152012
3.20924e-05
0.0152229
3.19609e-05
0.0152445
3.18402e-05
0.0152658
3.17278e-05
0.0152869
3.16206e-05
0.0153078
3.15155e-05
0.0153285
3.14097e-05
0.015349
3.13005e-05
0.0153693
3.1186e-05
0.0153894
3.10646e-05
0.0154093
3.09361e-05
0.015429
3.0801e-05
0.0154485
3.06612e-05
0.0154678
3.0519e-05
0.0154869
3.03779e-05
0.0155058
3.02419e-05
0.0155245
3.01155e-05
0.015543
3.00036e-05
0.0155614
2.99106e-05
0.0155795
2.98403e-05
0.0155975
2.97956e-05
0.0156153
2.97776e-05
0.015633
2.97861e-05
0.0156505
2.98193e-05
0.0156679
2.98742e-05
0.0156852
2.99467e-05
0.0157024
3.00322e-05
0.0157195
3.01256e-05
0.0157364
3.02226e-05
0.0157532
3.03186e-05
0.01577
3.04104e-05
0.0157866
3.04945e-05
0.0158032
3.05698e-05
0.0158196
3.0634e-05
0.015836
3.06881e-05
0.0158522
3.07305e-05
0.0158684
3.07645e-05
0.0158845
3.07876e-05
0.0159005
3.08061e-05
0.0159164
3.08145e-05
0.0159322
3.08241e-05
0.015948
3.08221e-05
0.0159637
3.08297e-05
0.0159793
3.08197e-05
0.0159948
3.08326e-05
0.0160103
3.08128e-05
0.0160257
3.08392e-05
0.016041
3.08015e-05
0.0160562
3.0852e-05
0.0160713
3.07774e-05
0.0160865
3.08648e-05
0.0161013
3.07146e-05
0.0161163
3.08443e-05
0.0161307
3.0535e-05
0.0161455
3.06503e-05
3.0057e-05
0.0120639
1.01077e-07
0.0120873
2.97212e-07
0.0121259
4.78149e-07
0.0121781
6.28286e-07
0.0122423
7.35364e-07
0.0123167
8.30951e-07
0.0123995
9.64161e-07
0.0124888
1.16479e-06
0.0125829
1.436e-06
0.0126801
1.77033e-06
0.0127788
2.16308e-06
0.012878
2.61335e-06
0.0129764
3.119e-06
0.0130732
3.67797e-06
0.0131676
4.28249e-06
0.0132592
4.92198e-06
0.0133475
5.58722e-06
0.0134322
6.26731e-06
0.0135131
6.94923e-06
0.0135901
7.62071e-06
0.0136633
8.26896e-06
0.0137327
8.88581e-06
0.0137984
9.46379e-06
0.0138606
9.99499e-06
0.0139194
1.0471e-05
0.0139752
1.08863e-05
0.014028
1.12366e-05
0.0140781
1.15158e-05
0.0141257
1.17248e-05
0.014171
1.18708e-05
0.0142142
1.19593e-05
0.0142556
1.19973e-05
0.0142952
1.199e-05
0.0143332
1.19438e-05
0.0143699
1.1865e-05
0.0144052
1.17602e-05
0.0144394
1.16353e-05
0.0144726
1.14959e-05
0.0145049
1.13468e-05
0.0145363
1.11925e-05
0.0145669
1.10366e-05
0.0145969
1.08826e-05
0.0146262
1.07332e-05
0.014655
1.05908e-05
0.0146833
1.04565e-05
0.014711
1.03312e-05
0.0147384
1.02151e-05
0.0147653
1.01081e-05
0.0147918
1.00101e-05
0.014818
9.9206e-06
0.0148438
9.8392e-06
0.0148693
9.76556e-06
0.0148945
9.69931e-06
0.0149194
9.64029e-06
0.0149441
9.58847e-06
0.0149684
9.54413e-06
0.0149925
9.5077e-06
0.0150164
9.47982e-06
0.0150399
9.4611e-06
0.0150633
9.45218e-06
0.0150864
9.45349e-06
0.0151093
9.46518e-06
0.0151319
9.48691e-06
0.0151544
9.51818e-06
0.0151766
9.55807e-06
0.0151987
9.60534e-06
0.0152205
9.65825e-06
0.0152422
9.71472e-06
0.0152636
9.77247e-06
0.0152849
9.82925e-06
0.015306
9.8829e-06
0.0153269
9.93163e-06
0.0153477
9.97408e-06
0.0153683
1.00095e-05
0.0153887
1.0038e-05
0.0154089
1.00605e-05
0.015429
1.00784e-05
0.0154489
1.00943e-05
0.0154686
1.01112e-05
0.0154882
1.01324e-05
0.0155076
1.01617e-05
0.0155269
1.0203e-05
0.015546
1.02598e-05
0.015565
1.03349e-05
0.0155838
1.04303e-05
0.0156025
1.05469e-05
0.0156211
1.06843e-05
0.0156396
1.08409e-05
0.015658
1.10141e-05
0.0156764
1.12005e-05
0.0156946
1.1396e-05
0.0157127
1.15964e-05
0.0157308
1.17978e-05
0.0157488
1.19962e-05
0.0157668
1.21886e-05
0.0157847
1.23723e-05
0.0158025
1.25454e-05
0.0158203
1.27067e-05
0.015838
1.28558e-05
0.0158557
1.29927e-05
0.0158733
1.31182e-05
0.0158909
1.32328e-05
0.0159085
1.33382e-05
0.015926
1.34351e-05
0.0159435
1.35257e-05
0.015961
1.36102e-05
0.0159784
1.36916e-05
0.0159958
1.37689e-05
0.0160132
1.38461e-05
0.0160305
1.39204e-05
0.0160479
1.39971e-05
0.0160652
1.40717e-05
0.0160825
1.415e-05
0.0160997
1.42275e-05
0.0161169
1.43073e-05
0.016134
1.43906e-05
0.0161511
1.44633e-05
0.0161678
1.45461e-05
0.0161847
1.45757e-05
1.47069e-05
0.0120639
-7.79401e-06
0.0120873
-2.33058e-05
0.0121258
-3.82629e-05
0.012178
-5.18538e-05
0.0122422
-6.37333e-05
0.0123166
-7.38382e-05
0.0123995
-8.21133e-05
0.0124889
-8.84803e-05
0.012583
-9.29602e-05
0.0126803
-9.56999e-05
0.0127791
-9.69052e-05
0.0128783
-9.6789e-05
0.0129767
-9.55501e-05
0.0130735
-9.33719e-05
0.013168
-9.04243e-05
0.0132596
-8.68735e-05
0.0133479
-8.2875e-05
0.0134325
-7.85778e-05
0.0135134
-7.41044e-05
0.0135904
-6.95612e-05
0.0136636
-6.50375e-05
0.013733
-6.06074e-05
0.0137986
-5.63299e-05
0.0138607
-5.22551e-05
0.0139195
-4.84224e-05
0.0139752
-4.48556e-05
0.0140279
-4.15689e-05
0.0140779
-3.85722e-05
0.0141254
-3.58618e-05
0.0141707
-3.34192e-05
0.0142138
-3.12332e-05
0.0142551
-2.92877e-05
0.0142946
-2.75648e-05
0.0143326
-2.60457e-05
0.0143692
-2.47111e-05
0.0144045
-2.35416e-05
0.0144387
-2.25183e-05
0.0144718
-2.16236e-05
0.014504
-2.0841e-05
0.0145354
-2.01557e-05
0.014566
-1.95541e-05
0.014596
-1.90233e-05
0.0146253
-1.85516e-05
0.014654
-1.81289e-05
0.0146823
-1.7747e-05
0.01471
-1.73992e-05
0.0147373
-1.70796e-05
0.0147642
-1.67835e-05
0.0147907
-1.65069e-05
0.0148169
-1.62466e-05
0.0148427
-1.59998e-05
0.0148682
-1.57641e-05
0.0148934
-1.55373e-05
0.0149183
-1.53177e-05
0.0149429
-1.51034e-05
0.0149672
-1.48928e-05
0.0149913
-1.46841e-05
0.0150151
-1.4476e-05
0.0150387
-1.42672e-05
0.015062
-1.40564e-05
0.0150851
-1.38427e-05
0.015108
-1.36254e-05
0.0151306
-1.34049e-05
0.0151531
-1.31812e-05
0.0151753
-1.29547e-05
0.0151973
-1.27263e-05
0.0152191
-1.24972e-05
0.0152407
-1.22692e-05
0.0152622
-1.20438e-05
0.0152834
-1.18226e-05
0.0153045
-1.16073e-05
0.0153254
-1.13991e-05
0.0153461
-1.11986e-05
0.0153666
-1.10062e-05
0.015387
-1.08214e-05
0.0154072
-1.06431e-05
0.0154272
-1.04695e-05
0.0154471
-1.02984e-05
0.0154668
-1.0127e-05
0.0154863
-9.95215e-06
0.0155057
-9.77062e-06
0.015525
-9.57926e-06
0.0155441
-9.37523e-06
0.015563
-9.15629e-06
0.0155819
-8.92098e-06
0.0156006
-8.66881e-06
0.0156192
-8.40035e-06
0.0156377
-8.11714e-06
0.015656
-7.82167e-06
0.0156743
-7.51709e-06
0.0156925
-7.20705e-06
0.0157106
-6.89529e-06
0.0157287
-6.58561e-06
0.0157467
-6.28136e-06
0.0157646
-5.98565e-06
0.0157824
-5.70069e-06
0.0158002
-5.42853e-06
0.0158179
-5.16985e-06
0.0158356
-4.92575e-06
0.0158532
-4.6953e-06
0.0158708
-4.4793e-06
0.0158884
-4.27501e-06
0.0159059
-4.08412e-06
0.0159234
-3.90121e-06
0.0159408
-3.73093e-06
0.0159582
-3.56282e-06
0.0159756
-3.40853e-06
0.015993
-3.24735e-06
0.0160104
-3.10593e-06
0.0160277
-2.94202e-06
0.016045
-2.81354e-06
0.0160622
-2.63312e-06
0.0160795
-2.5229e-06
0.0160967
-2.30289e-06
0.0161139
-2.22355e-06
0.0161309
-1.91961e-06
0.016148
-1.88897e-06
0.0161648
-1.40687e-06
0.0161816
-1.44258e-06
-6.4347e-07
0.0120643
-1.59667e-05
0.0120886
-4.78499e-05
0.0121286
-7.84173e-05
0.0121824
-0.000105923
0.0122483
-0.000129949
0.0123247
-0.000150434
0.0124095
-0.000167173
0.0125008
-0.000180019
0.0125967
-0.000189089
0.0126955
-0.000194733
0.0127957
-0.000197372
0.0128961
-0.000197426
0.0129956
-0.000195302
0.0130934
-0.000191359
0.0131887
-0.000185937
0.013281
-0.000179359
0.0133699
-0.000171927
0.013455
-0.000163915
0.0135363
-0.000155558
0.0136136
-0.000147056
0.013687
-0.000138579
0.0137565
-0.000130267
0.0138223
-0.000122227
0.0138845
-0.000114552
0.0139433
-0.000107319
0.0139989
-0.000100567
0.0140515
-9.43197e-05
0.0141015
-8.85852e-05
0.0141489
-8.3357e-05
0.0141941
-7.86159e-05
0.0142371
-7.43391e-05
0.0142783
-7.04981e-05
0.0143178
-6.7062e-05
0.0143557
-6.39968e-05
0.0143923
-6.12687e-05
0.0144276
-5.88439e-05
0.0144618
-5.66902e-05
0.014495
-5.47765e-05
0.0145272
-5.30751e-05
0.0145587
-5.15607e-05
0.0145894
-5.02098e-05
0.0146194
-4.89993e-05
0.0146487
-4.79091e-05
0.0146776
-4.69215e-05
0.0147059
-4.6022e-05
0.0147337
-4.51975e-05
0.0147611
-4.44375e-05
0.014788
-4.37322e-05
0.0148146
-4.30737e-05
0.0148408
-4.24552e-05
0.0148666
-4.18713e-05
0.0148922
-4.13167e-05
0.0149174
-4.0787e-05
0.0149423
-4.02782e-05
0.0149669
-3.9787e-05
0.0149912
-3.931e-05
0.0150152
-3.88447e-05
0.015039
-3.83885e-05
0.0150625
-3.79394e-05
0.0150858
-3.74956e-05
0.0151088
-3.70559e-05
0.0151316
-3.6619e-05
0.0151541
-3.61848e-05
0.0151764
-3.57527e-05
0.0151985
-3.53231e-05
0.0152203
-3.48963e-05
0.015242
-3.44735e-05
0.0152634
-3.40559e-05
0.0152846
-3.36446e-05
0.0153056
-3.32408e-05
0.0153265
-3.28458e-05
0.0153471
-3.24598e-05
0.0153675
-3.20837e-05
0.0153877
-3.17167e-05
0.0154078
-3.13585e-05
0.0154277
-3.10075e-05
0.0154473
-3.0662e-05
0.0154668
-3.03193e-05
0.0154861
-2.99771e-05
0.0155053
-2.96321e-05
0.0155243
-2.92819e-05
0.0155431
-2.89232e-05
0.0155617
-2.85541e-05
0.0155802
-2.81724e-05
0.0155985
-2.77776e-05
0.0156167
-2.73689e-05
0.0156348
-2.69479e-05
0.0156527
-2.65156e-05
0.0156705
-2.60751e-05
0.0156882
-2.56289e-05
0.0157057
-2.51811e-05
0.0157232
-2.47346e-05
0.0157406
-2.42938e-05
0.0157578
-2.38609e-05
0.015775
-2.34399e-05
0.0157921
-2.30318e-05
0.0158091
-2.26395e-05
0.0158261
-2.22625e-05
0.0158429
-2.19032e-05
0.0158597
-2.15589e-05
0.0158765
-2.12326e-05
0.0158932
-2.09186e-05
0.0159098
-2.06226e-05
0.0159264
-2.03334e-05
0.0159429
-2.00636e-05
0.0159594
-1.97911e-05
0.0159758
-1.95439e-05
0.0159922
-1.92773e-05
0.0160085
-1.90519e-05
0.0160248
-1.87753e-05
0.0160411
-1.85777e-05
0.0160573
-1.82645e-05
0.0160734
-1.8112e-05
0.0160895
-1.7713e-05
0.0161056
-1.76426e-05
0.0161214
-1.70609e-05
0.0161374
-1.71354e-05
0.016153
-1.61681e-05
0.0161687
-1.64485e-05
-1.47236e-05
0.0120653
-2.47855e-05
0.0120918
-7.45296e-05
0.0121346
-0.000121461
0.0121916
-0.000163156
0.0122611
-0.00019976
0.0123415
-0.000231043
0.0124305
-0.000256434
0.012526
-0.000275731
0.0126259
-0.000289271
0.0127286
-0.000297672
0.0128326
-0.000301563
0.0129365
-0.000301572
0.0130392
-0.000298308
0.01314
-0.000292298
0.0132379
-0.000284065
0.0133324
-0.00027411
0.0134232
-0.000262878
0.0135099
-0.000250776
0.0135923
-0.000238158
0.0136704
-0.000225323
0.0137442
-0.00021253
0.0138138
-0.000199991
0.0138793
-0.000187876
0.0139409
-0.000176317
0.0139989
-0.000165413
0.0140535
-0.000155225
0.0141049
-0.000145785
0.0141533
-0.000137102
0.0141991
-0.000129165
0.0142423
-0.00012195
0.0142834
-0.00011542
0.0143224
-0.000109533
0.0143596
-0.000104242
0.014395
-9.94951e-05
0.014429
-9.52429e-05
0.0144616
-9.14348e-05
0.014493
-8.80242e-05
0.0145232
-8.4967e-05
0.0145523
-8.22245e-05
0.0145806
-7.97603e-05
0.0146079
-7.75384e-05
0.0146345
-7.55251e-05
0.0146603
-7.36917e-05
0.0146854
-7.20134e-05
0.0147099
-7.04691e-05
0.0147338
-6.90401e-05
0.0147571
-6.77104e-05
0.0147798
-6.64661e-05
0.014802
-6.52952e-05
0.0148237
-6.41872e-05
0.014845
-6.31347e-05
0.0148658
-6.21295e-05
0.0148861
-6.11652e-05
0.014906
-6.0236e-05
0.0149255
-5.93369e-05
0.0149445
-5.84633e-05
0.0149632
-5.76116e-05
0.0149814
-5.67782e-05
0.0149993
-5.59606e-05
0.0150168
-5.51565e-05
0.0150339
-5.43645e-05
0.0150506
-5.35829e-05
0.015067
-5.28111e-05
0.015083
-5.20478e-05
0.0150987
-5.12931e-05
0.015114
-5.05473e-05
0.015129
-4.98116e-05
0.0151437
-4.90867e-05
0.015158
-4.83737e-05
0.015172
-4.76731e-05
0.0151858
-4.69859e-05
0.0151992
-4.63119e-05
0.0152123
-4.56516e-05
0.0152251
-4.50039e-05
0.0152376
-4.43682e-05
0.0152498
-4.37427e-05
0.0152618
-4.31256e-05
0.0152735
-4.25144e-05
0.0152849
-4.19068e-05
0.015296
-4.12999e-05
0.0153069
-4.06916e-05
0.0153175
-4.0079e-05
0.0153279
-3.9461e-05
0.0153381
-3.88356e-05
0.015348
-3.8203e-05
0.0153577
-3.75628e-05
0.0153672
-3.69168e-05
0.0153766
-3.62661e-05
0.0153857
-3.56141e-05
0.0153946
-3.49628e-05
0.0154034
-3.43165e-05
0.015412
-3.36775e-05
0.0154205
-3.30501e-05
0.0154288
-3.24359e-05
0.015437
-3.18386e-05
0.0154451
-3.12587e-05
0.015453
-3.0699e-05
0.0154608
-3.01585e-05
0.0154685
-2.96395e-05
0.0154761
-2.91389e-05
0.0154836
-2.86599e-05
0.015491
-2.81961e-05
0.0154983
-2.77534e-05
0.0155055
-2.73203e-05
0.0155126
-2.69093e-05
0.0155196
-2.64984e-05
0.0155266
-2.61152e-05
0.0155334
-2.57151e-05
0.0155402
-2.53589e-05
0.0155468
-2.49529e-05
0.0155534
-2.46297e-05
0.0155599
-2.41886e-05
0.0155663
-2.39175e-05
0.0155726
-2.33843e-05
0.0155789
-2.32081e-05
0.0155849
-2.24662e-05
0.015591
-2.24682e-05
0.0155968
-2.12631e-05
0.0156025
-2.1515e-05
-1.9444e-05
0.0120674
-3.51349e-05
0.0120978
-0.00010522
0.0121457
-0.000169521
0.0122093
-0.000227042
0.0122876
-0.000278336
0.0123784
-0.000322028
0.0124785
-0.000356793
0.0125848
-0.000382315
0.0126945
-0.000399194
0.0128049
-0.000408306
0.0129138
-0.00041067
0.0130194
-0.000407413
0.0131203
-0.000399462
0.0132155
-0.000387727
0.0133043
-0.000373105
0.0133864
-0.000356403
0.0134617
-0.000338312
0.0135301
-0.000319416
0.013592
-0.000300204
0.0136476
-0.00028108
0.0136973
-0.000262364
0.0137414
-0.000244312
0.0137805
-0.000227112
0.013815
-0.000210891
0.0138452
-0.000195737
0.0138716
-0.000181692
0.0138945
-0.000168764
0.0139142
-0.000156935
0.0139312
-0.000146168
0.0139456
-0.000136407
0.0139577
-0.000127589
0.0139678
-0.000119646
0.0139761
-0.000112502
0.0139826
-0.000106085
0.0139877
-0.000100324
0.0139914
-9.51482e-05
0.0139939
-9.04903e-05
0.0139953
-8.62939e-05
0.0139956
-8.25185e-05
0.013995
-7.91129e-05
0.0139935
-7.60261e-05
0.0139912
-7.32156e-05
0.0139881
-7.06454e-05
0.0139844
-6.82848e-05
0.0139801
-6.61067e-05
0.0139751
-6.40878e-05
0.0139696
-6.22079e-05
0.0139636
-6.04496e-05
0.0139571
-5.87981e-05
0.0139501
-5.72397e-05
0.0139426
-5.57641e-05
0.0139348
-5.43615e-05
0.0139266
-5.30236e-05
0.013918
-5.17431e-05
0.013909
-5.05136e-05
0.0138997
-4.93294e-05
0.0138901
-4.81858e-05
0.0138802
-4.70786e-05
0.0138701
-4.60044e-05
0.0138596
-4.49604e-05
0.013849
-4.39449e-05
0.013838
-4.29564e-05
0.0138269
-4.19934e-05
0.0138156
-4.10524e-05
0.0138041
-4.01332e-05
0.0137924
-3.92363e-05
0.0137806
-3.83622e-05
0.0137686
-3.75109e-05
0.0137565
-3.66828e-05
0.0137443
-3.58778e-05
0.013732
-3.50959e-05
0.0137195
-3.43366e-05
0.013707
-3.35994e-05
0.0136945
-3.2883e-05
0.0136818
-3.21862e-05
0.0136692
-3.15071e-05
0.0136564
-3.08439e-05
0.0136437
-3.01942e-05
0.0136309
-2.95558e-05
0.0136181
-2.89264e-05
0.0136054
-2.83039e-05
0.0135926
-2.76865e-05
0.0135799
-2.70729e-05
0.0135672
-2.6462e-05
0.0135546
-2.58538e-05
0.013542
-2.52484e-05
0.0135295
-2.46471e-05
0.0135171
-2.4051e-05
0.0135048
-2.34625e-05
0.0134926
-2.28834e-05
0.0134805
-2.23165e-05
0.0134686
-2.17636e-05
0.0134568
-2.12273e-05
0.0134451
-2.07089e-05
0.0134335
-2.02105e-05
0.0134221
-1.97321e-05
0.0134109
-1.92752e-05
0.0133997
-1.88387e-05
0.0133887
-1.84234e-05
0.0133779
-1.80273e-05
0.0133671
-1.76507e-05
0.0133565
-1.72906e-05
0.0133461
-1.69478e-05
0.0133357
-1.66177e-05
0.0133255
-1.63031e-05
0.0133154
-1.59963e-05
0.0133053
-1.57042e-05
0.0132954
-1.54132e-05
0.0132856
-1.5139e-05
0.0132759
-1.48553e-05
0.0132662
-1.45957e-05
0.0132567
-1.43067e-05
0.0132472
-1.40598e-05
0.0132378
-1.3742e-05
0.0132284
-1.35069e-05
0.0132193
-1.31081e-05
0.01321
-1.28792e-05
0.0132012
-1.22695e-05
0.0131919
-1.20684e-05
-1.11804e-05
0.0120807
-5.8063e-05
0.0121333
-0.000158079
0.0122064
-0.00024282
0.0122924
-0.000313315
0.0123816
-0.000367798
0.0124647
-0.000405387
0.0125351
-0.000427414
0.0125888
-0.000436291
0.0126244
-0.000434961
0.0126414
-0.000425606
0.012641
-0.000410464
0.0126249
-0.000391535
0.0125949
-0.000369707
0.0125531
-0.000346112
0.0125014
-0.000321686
0.0124419
-0.00029709
0.0123763
-0.000272828
0.0123059
-0.000249283
0.0122323
-0.00022674
0.0121565
-0.000205403
0.0120794
-0.000185406
0.0120018
-0.000166833
0.0119242
-0.000149719
0.0118473
-0.000134062
0.0117713
-0.000119833
0.0116965
-0.000106982
0.0116231
-9.54391e-05
0.0115512
-8.51231e-05
0.011481
-7.5946e-05
0.0114123
-6.78159e-05
0.0113453
-6.06392e-05
0.01128
-5.43261e-05
0.0112162
-4.87875e-05
0.0111541
-4.39409e-05
0.0110934
-3.97083e-05
0.0110343
-3.60166e-05
0.0109766
-3.27908e-05
0.0109202
-2.99594e-05
0.0108652
-2.75238e-05
0.0108115
-2.54155e-05
0.010759
-2.35839e-05
0.0107077
-2.19905e-05
0.0106576
-2.06022e-05
0.0106086
-1.93901e-05
0.0105608
-1.83289e-05
0.010514
-1.73973e-05
0.0104682
-1.65769e-05
0.0104235
-1.5852e-05
0.0103798
-1.52091e-05
0.010337
-1.4636e-05
0.0102952
-1.41229e-05
0.0102543
-1.36612e-05
0.0102143
-1.32432e-05
0.0101752
-1.28625e-05
0.0101369
-1.25134e-05
0.0100995
-1.21909e-05
0.0100629
-1.18909e-05
0.0100272
-1.161e-05
0.00999222
-1.13453e-05
0.00995804
-1.10944e-05
0.00992463
-1.08558e-05
0.00989197
-1.06298e-05
0.00986006
-1.04172e-05
0.00982889
-1.02095e-05
0.00979844
-1.00086e-05
0.00976869
-9.81513e-06
0.00973964
-9.62907e-06
0.00971127
-9.45032e-06
0.00968358
-9.27889e-06
0.00965653
-9.11463e-06
0.00963014
-8.95728e-06
0.00960437
-8.80631e-06
0.00957921
-8.66111e-06
0.00955465
-8.52077e-06
0.00953068
-8.38435e-06
0.00950728
-8.25068e-06
0.00948443
-8.11861e-06
0.00946213
-7.98685e-06
0.00944037
-7.8543e-06
0.00941912
-7.71984e-06
0.00939839
-7.58266e-06
0.00937816
-7.44207e-06
0.00935842
-7.29784e-06
0.00933917
-7.14988e-06
0.00932039
-6.99866e-06
0.00930209
-6.84479e-06
0.00928424
-6.68936e-06
0.00926684
-6.53349e-06
0.00924988
-6.37866e-06
0.00923335
-6.22614e-06
0.00921724
-6.07745e-06
0.00920154
-5.93363e-06
0.00918623
-5.79587e-06
0.00917129
-5.66474e-06
0.00915672
-5.54089e-06
0.0091425
-5.42432e-06
0.00912861
-5.3151e-06
0.00911502
-5.21276e-06
0.00910173
-5.11694e-06
0.00908873
-5.0269e-06
0.00907598
-4.94193e-06
0.00906349
-4.86139e-06
0.00905123
-4.7842e-06
0.0090392
-4.7103e-06
0.00902739
-4.6378e-06
0.00901578
-4.56829e-06
0.00900437
-4.49752e-06
0.00899315
-4.43117e-06
0.00898211
-4.35877e-06
0.00897127
-4.29585e-06
0.00896059
-4.21633e-06
0.00895012
-4.15911e-06
0.00893979