/*--------------------------------*- C++ -*----------------------------------*\
  =========                 |
  \\      /  F ield         | OpenFOAM: The Open Source CFD Toolbox
   \\    /   O peration     | Website:  https://openfoam.org
    \\  /    A nd           | Version:  7
     \\/     M anipulation  |
\*---------------------------------------------------------------------------*/
FoamFile
{
    version     2.0;
    format      ascii;
    class       volVectorField;
    location    "1.1725";
    object      UMean;
}
// * * * * * * * * * * * * * * * * * * * * * * * * * * * * * * * * * * * * * //

dimensions      [0 1 -1 0 0 0 0];

internalField   nonuniform List<vector> 
4950
(
(3.52383 0.410765 -27.0295)
(2.84919 0.143294 -27.0666)
(2.12565 0.0413847 -27.0686)
(1.94245 -0.0237004 -27.0758)
(1.68014 -0.0429879 -27.074)
(1.67717 -0.0489443 -27.0781)
(1.53027 -0.0496913 -27.076)
(1.5637 -0.0484382 -27.079)
(1.45679 -0.0471311 -27.0772)
(1.49582 -0.045807 -27.0796)
(1.4112 -0.044225 -27.0781)
(1.44908 -0.0441043 -27.0801)
(1.38001 -0.0411429 -27.079)
(1.41507 -0.043881 -27.0805)
(1.35687 -0.0352956 -27.0799)
(1.38935 -0.0454131 -27.0808)
(1.3364 -0.0150157 -27.081)
(1.35731 -0.0444371 -27.0803)
(1.32975 0.0891176 -27.0835)
(1.12485 0.122029 -27.0716)
(4.59656 0.536378 -27.0545)
(4.79003 0.361804 -27.0838)
(4.50422 0.272751 -27.0838)
(4.46428 0.175253 -27.0909)
(4.18554 0.120908 -27.0908)
(4.17147 0.0908473 -27.0952)
(3.96066 0.0725791 -27.0944)
(3.9752 0.0621567 -27.0972)
(3.81382 0.0543579 -27.0964)
(3.8424 0.049524 -27.0984)
(3.71511 0.0447822 -27.098)
(3.74963 0.0428409 -27.0995)
(3.64589 0.0379275 -27.0995)
(3.6839 0.039818 -27.1004)
(3.594 0.0296134 -27.1013)
(3.64159 0.0404149 -27.1008)
(3.54888 0.0119624 -27.104)
(3.64029 0.0343597 -27.0994)
(3.49725 -0.0207393 -27.1097)
(3.84394 -0.0645416 -27.0793)
(4.71443 0.281353 -27.0562)
(5.18648 0.200612 -27.08)
(5.28273 0.177155 -27.073)
(5.51775 0.11691 -27.0774)
(5.45479 0.0805698 -27.0736)
(5.57515 0.0556449 -27.0774)
(5.48257 0.0382098 -27.0744)
(5.5622 0.0262624 -27.0775)
(5.47245 0.0172365 -27.0752)
(5.53222 0.0100505 -27.0777)
(5.45231 0.00514608 -27.0761)
(5.49899 -7.6715e-05 -27.0781)
(5.43121 -0.00192429 -27.0773)
(5.46556 -0.00690902 -27.0789)
(5.41386 -0.00468258 -27.0791)
(5.42773 -0.0111694 -27.0798)
(5.40446 0.000779926 -27.0816)
(5.3663 -0.00755662 -27.0804)
(5.38925 0.0324494 -27.085)
(5.23836 0.0608652 -27.0644)
(4.69232 0.165342 -27.0648)
(5.10549 0.125522 -27.0889)
(5.29729 0.116901 -27.0835)
(5.62674 0.0868633 -27.0859)
(5.67553 0.0683423 -27.0829)
(5.88708 0.0561484 -27.0849)
(5.88542 0.0474519 -27.0828)
(6.03365 0.0416587 -27.0842)
(6.01388 0.0367458 -27.0828)
(6.12434 0.0330645 -27.0838)
(6.09675 0.0295412 -27.0829)
(6.18289 0.0271696 -27.0837)
(6.15062 0.0238692 -27.0833)
(6.2226 0.0232876 -27.084)
(6.18442 0.0181896 -27.084)
(6.255 0.0213341 -27.0846)
(6.20523 0.00975948 -27.0853)
(6.30266 0.0174243 -27.0855)
(6.23478 -0.000906739 -27.087)
(6.4469 -0.00892115 -27.0671)
(4.69355 -2.1879e-08 -27.06)
(5.10237 5.19629e-08 -27.0826)
(5.30348 -3.85003e-08 -27.0743)
(5.64681 1.736e-07 -27.0769)
(5.70872 -2.94144e-08 -27.0717)
(5.93441 4.99494e-07 -27.0743)
(5.94922 1.90984e-07 -27.0706)
(6.11321 1.30301e-06 -27.0727)
(6.11216 1.18488e-06 -27.0698)
(6.23758 3.66559e-06 -27.0717)
(6.22954 4.19448e-06 -27.0695)
(6.32613 1.22162e-05 -27.0712)
(6.31606 9.99373e-06 -27.0697)
(6.38695 4.56618e-05 -27.0712)
(6.38261 1.53125e-05 -27.0703)
(6.41994 0.000160992 -27.0718)
(6.4392 2.41164e-05 -27.0714)
(6.41068 0.00047068 -27.073)
(6.47555 0.000144083 -27.073)
(6.33431 0.0007945 -27.0554)
(4.69232 -0.165342 -27.0648)
(5.10549 -0.125522 -27.0889)
(5.29729 -0.116901 -27.0835)
(5.62674 -0.0868631 -27.0859)
(5.67553 -0.0683422 -27.0829)
(5.88708 -0.0561477 -27.0849)
(5.88542 -0.0474511 -27.0828)
(6.03365 -0.0416571 -27.0842)
(6.01388 -0.0367425 -27.0828)
(6.12435 -0.0330605 -27.0838)
(6.09675 -0.02953 -27.0828)
(6.18291 -0.0271576 -27.0838)
(6.15063 -0.0238391 -27.0832)
(6.22265 -0.0232418 -27.0841)
(6.18446 -0.0181219 -27.0838)
(6.2551 -0.0211698 -27.0848)
(6.20539 -0.00959378 -27.085)
(6.30288 -0.0169486 -27.0859)
(6.23523 0.00152957 -27.0866)
(6.44756 0.0101724 -27.0675)
(4.71443 -0.281353 -27.0562)
(5.18648 -0.200611 -27.08)
(5.28273 -0.177155 -27.073)
(5.51775 -0.11691 -27.0774)
(5.45479 -0.0805698 -27.0736)
(5.57515 -0.0556442 -27.0774)
(5.48257 -0.0382093 -27.0744)
(5.5622 -0.0262606 -27.0775)
(5.47245 -0.0172346 -27.0752)
(5.53224 -0.0100453 -27.0777)
(5.45231 -0.00514005 -27.076)
(5.49903 9.36556e-05 -27.0783)
(5.4312 0.00193636 -27.0771)
(5.46567 0.00697258 -27.0792)
(5.41389 0.0046917 -27.0786)
(5.42801 0.0113933 -27.0806)
(5.40465 -0.000792489 -27.0804)
(5.36699 0.00819701 -27.0823)
(5.39009 -0.0323066 -27.0824)
(5.24038 -0.0594554 -27.068)
(4.59656 -0.536378 -27.0545)
(4.79003 -0.361804 -27.0838)
(4.50422 -0.272751 -27.0838)
(4.46428 -0.175253 -27.0909)
(4.18554 -0.120908 -27.0908)
(4.17147 -0.0908472 -27.0952)
(3.96066 -0.0725784 -27.0944)
(3.9752 -0.0621564 -27.0972)
(3.81382 -0.0543556 -27.0964)
(3.84241 -0.0495233 -27.0985)
(3.71512 -0.044775 -27.0979)
(3.74967 -0.042838 -27.0996)
(3.64592 -0.0379083 -27.0993)
(3.68401 -0.0398011 -27.1008)
(3.59412 -0.02957 -27.1007)
(3.64185 -0.0403385 -27.1019)
(3.54935 -0.0118618 -27.102)
(3.6409 -0.0341189 -27.1029)
(3.49858 0.0210649 -27.1029)
(3.84587 0.0648207 -27.0916)
(3.52383 -0.410765 -27.0295)
(2.84919 -0.143294 -27.0666)
(2.12565 -0.0413848 -27.0686)
(1.94245 0.0237005 -27.0758)
(1.68014 0.0429878 -27.074)
(1.67718 0.0489445 -27.0781)
(1.53027 0.0496912 -27.076)
(1.5637 0.0484386 -27.079)
(1.4568 0.0471306 -27.0772)
(1.49582 0.0458079 -27.0796)
(1.41121 0.0442233 -27.0781)
(1.4491 0.0441065 -27.0801)
(1.38003 0.041138 -27.0789)
(1.41514 0.043887 -27.0806)
(1.35695 0.0352829 -27.0797)
(1.38951 0.0454287 -27.0811)
(1.33671 0.0149845 -27.0804)
(1.35772 0.0444921 -27.0815)
(1.33073 -0.0890862 -27.0808)
(1.12654 -0.12146 -27.0797)
(4.49842 0.185085 0.00529659)
(3.76594 0.270408 0.00369633)
(3.19299 0.23093 0.00447443)
(2.65618 0.156609 0.0034439)
(2.41013 0.108784 0.00418349)
(2.16541 0.0775437 0.00336218)
(2.09924 0.0629909 0.00401367)
(1.97786 0.0549856 0.0033112)
(1.96512 0.0515211 0.00386368)
(1.8904 0.0496973 0.00325386)
(1.89054 0.0482169 0.00371887)
(1.83847 0.0484406 0.00319037)
(1.84124 0.0456859 0.00358231)
(1.80323 0.0490037 0.00312586)
(1.80573 0.0394246 0.00345719)
(1.78036 0.0529904 0.003063)
(1.77494 0.0131351 0.00334679)
(1.79893 0.0597247 0.00300085)
(1.71531 -0.12145 0.00328046)
(2.15114 -0.162391 0.00288333)
(4.62476 0.104089 0.0034301)
(4.66196 0.221913 0.00213844)
(4.79166 0.197085 0.00287454)
(4.67236 0.143324 0.00185648)
(4.64928 0.0892236 0.00258977)
(4.501 0.0482348 0.00176585)
(4.46288 0.0216996 0.00241381)
(4.34471 0.00544142 0.00170955)
(4.31729 -0.00486338 0.00226)
(4.22908 -0.0112695 0.00164952)
(4.21079 -0.0155048 0.002113)
(4.14445 -0.0193711 0.00158492)
(4.13288 -0.0198367 0.00197446)
(4.08023 -0.0250959 0.00152052)
(4.07691 -0.01882 0.00184518)
(4.02486 -0.0308123 0.00145879)
(4.04284 -0.0089273 0.00171912)
(3.94976 -0.0263109 0.00139308)
(4.03944 0.0044637 0.00156812)
(3.6672 0.0732047 0.00120819)
(4.55856 0.0592185 0.00472136)
(4.71764 0.179034 0.00351876)
(5.0279 0.205141 0.00422291)
(5.13503 0.180707 0.00319416)
(5.30592 0.149717 0.00391663)
(5.31997 0.119074 0.00308774)
(5.39821 0.0980955 0.00373658)
(5.37746 0.0823562 0.00303325)
(5.41695 0.0714026 0.00358701)
(5.39031 0.0633466 0.00297805)
(5.41217 0.0565319 0.00344478)
(5.38847 0.0521412 0.00291676)
(5.39913 0.0464003 0.0033106)
(5.38313 0.0451897 0.00285339)
(5.38102 0.0368393 0.00318875)
(5.38378 0.0415578 0.00279105)
(5.35566 0.0179928 0.00308879)
(5.40938 0.0363956 0.00273336)
(5.33789 -0.0444804 0.00306317)
(5.48523 -0.0433319 0.00269066)
(4.5173 0.0276393 0.00326468)
(4.58549 0.0686507 0.00217794)
(4.91754 0.0707168 0.00287098)
(5.07582 0.0618032 0.00186244)
(5.32344 0.0483911 0.0025801)
(5.41457 0.0359949 0.00175055)
(5.56599 0.0269002 0.00239486)
(5.61329 0.0203766 0.00168962)
(5.71204 0.0156776 0.00224003)
(5.73955 0.012183 0.00163043)
(5.80883 0.0094079 0.00209428)
(5.82544 0.00686846 0.00156731)
(5.87714 0.00540206 0.0019566)
(5.8839 0.00267847 0.00150377)
(5.92827 0.00333736 0.00182659)
(5.91625 -0.000726938 0.00144126)
(5.97082 0.0035689 0.00169405)
(5.89585 0.00116369 0.00136769)
(5.9983 0.00216189 0.00150568)
(5.69524 0.0310973 0.00119896)
(4.5486 -9.82354e-09 0.00463304)
(4.66677 5.27506e-08 0.00354751)
(4.97236 2.05649e-09 0.00422966)
(5.12181 1.41578e-07 0.0032064)
(5.36099 5.0455e-08 0.00392045)
(5.45444 3.52443e-07 0.00308753)
(5.61102 3.65047e-07 0.00373409)
(5.66753 8.37567e-07 0.00302956)
(5.77624 1.50222e-06 0.00358331)
(5.81648 2.12113e-06 0.00297446)
(5.89638 4.89397e-06 0.00344164)
(5.9285 6.00084e-06 0.00291393)
(5.98678 1.36499e-05 0.00330827)
(6.01624 1.83183e-05 0.00285121)
(6.05311 3.72593e-05 0.00318766)
(6.09101 5.1658e-05 0.00278957)
(6.09885 0.000115901 0.00309203)
(6.16708 0.000145703 0.00273362)
(6.15359 0.000408381 0.00308007)
(6.24117 0.000584648 0.00271201)
(4.5173 -0.0276394 0.00326468)
(4.58549 -0.0686506 0.00217794)
(4.91754 -0.0707169 0.00287098)
(5.07583 -0.0618028 0.00186244)
(5.32343 -0.0483912 0.0025801)
(5.41457 -0.0359938 0.00175055)
(5.56599 -0.0269001 0.00239486)
(5.61329 -0.0203737 0.00168962)
(5.71204 -0.0156764 0.00224003)
(5.73956 -0.0121749 0.00163044)
(5.80883 -0.00940366 0.00209428)
(5.82545 -0.00684294 0.00156732)
(5.87714 -0.00539199 0.00195659)
(5.88394 -0.00259442 0.00150377)
(5.92828 -0.00331824 0.00182656)
(5.91635 0.000990765 0.00144125)
(5.9709 -0.00351189 0.00169401)
(5.89611 -0.000438268 0.00136765)
(5.99867 -0.00186156 0.00150576)
(5.69598 -0.0294884 0.00119879)
(4.55856 -0.0592185 0.00472136)
(4.71764 -0.179034 0.00351876)
(5.0279 -0.205141 0.00422291)
(5.13503 -0.180707 0.00319416)
(5.30592 -0.149717 0.00391662)
(5.31997 -0.119074 0.00308774)
(5.39821 -0.0980946 0.00373658)
(5.37746 -0.0823549 0.00303325)
(5.41695 -0.0713996 0.003587)
(5.39033 -0.063343 0.00297806)
(5.41217 -0.0565225 0.00344477)
(5.3885 -0.0521301 0.00291677)
(5.39913 -0.0463745 0.00331057)
(5.38322 -0.0451513 0.00285343)
(5.38107 -0.0367705 0.00318868)
(5.38399 -0.0414364 0.00279115)
(5.35589 -0.0177849 0.00308861)
(5.4099 -0.0360762 0.00273355)
(5.33862 0.045202 0.00306276)
(5.48667 0.0441806 0.00269076)
(4.62476 -0.104089 0.0034301)
(4.66196 -0.221913 0.00213844)
(4.79166 -0.197085 0.00287454)
(4.67236 -0.143324 0.00185648)
(4.64928 -0.0892236 0.00258977)
(4.501 -0.0482343 0.00176585)
(4.46288 -0.0216994 0.00241381)
(4.34472 -0.00544006 0.00170955)
(4.31729 0.00486435 0.00226)
(4.2291 0.0112733 0.00164952)
(4.21078 0.0155075 0.00211299)
(4.1445 0.0193831 0.00158492)
(4.13289 0.0198411 0.00197444)
(4.08038 0.0251364 0.00152054)
(4.07694 0.0188206 0.00184511)
(4.02526 0.030944 0.00145885)
(4.04296 0.008916 0.00171896)
(3.95098 0.0266934 0.00139319)
(4.03983 -0.00435293 0.00156789)
(3.67114 -0.0720993 0.00120828)
(4.49842 -0.185085 0.00529659)
(3.76594 -0.270408 0.00369633)
(3.19299 -0.23093 0.00447443)
(2.65618 -0.156609 0.0034439)
(2.41013 -0.108784 0.00418349)
(2.16541 -0.0775438 0.00336218)
(2.09925 -0.0629905 0.00401367)
(1.97786 -0.0549858 0.0033112)
(1.96513 -0.0515198 0.00386367)
(1.89041 -0.0496979 0.00325386)
(1.89055 -0.048213 0.00371886)
(1.8385 -0.0484417 0.00319038)
(1.84127 -0.0456747 0.00358229)
(1.80331 -0.049003 0.0031259)
(1.80586 -0.0393956 0.00345712)
(1.78054 -0.0529773 0.00306313)
(1.77537 -0.0130695 0.00334652)
(1.79942 -0.0597077 0.00300131)
(1.71635 0.121525 0.00327925)
(2.15339 0.161847 0.00288569)
(4.45121 0.0632702 -1.60968e-08)
(4.24196 0.112468 -1.61703e-08)
(3.88981 0.120375 -1.62077e-08)
(3.57145 0.10451 -1.61921e-08)
(3.2516 0.0801172 -1.6248e-08)
(3.00848 0.0571956 -1.62078e-08)
(2.79976 0.0362536 -1.62707e-08)
(2.65648 0.021233 -1.61721e-08)
(2.54335 0.00920575 -1.62072e-08)
(2.46934 0.00215276 -1.61029e-08)
(2.41397 -0.00360543 -1.62135e-08)
(2.37701 -0.00565669 -1.61753e-08)
(2.35044 -0.00869709 -1.6324e-08)
(2.33234 -0.00761682 -1.62839e-08)
(2.31641 -0.0111919 -1.64388e-08)
(2.31434 -0.00642452 -1.64218e-08)
(2.28913 -0.0151766 -1.6592e-08)
(2.32451 -0.00511723 -1.65782e-08)
(2.24823 -0.0271329 -1.67443e-08)
(2.38721 -0.042417 -1.6654e-08)
(4.51074 0.0562665 -1.60473e-08)
(4.64298 0.104972 -1.60555e-08)
(4.71997 0.132405 -1.6065e-08)
(4.79997 0.139126 -1.60541e-08)
(4.81028 0.132391 -1.61322e-08)
(4.8174 0.116316 -1.61698e-08)
(4.78643 0.0981496 -1.63183e-08)
(4.76094 0.0793522 -1.62623e-08)
(4.72014 0.0642517 -1.63004e-08)
(4.68744 0.0509776 -1.6196e-08)
(4.65085 0.0419912 -1.63205e-08)
(4.62075 0.0340335 -1.6308e-08)
(4.59237 0.0294359 -1.64687e-08)
(4.5674 0.0247983 -1.64129e-08)
(4.54752 0.0220307 -1.65227e-08)
(4.52768 0.0209581 -1.64512e-08)
(4.51483 0.0154701 -1.66075e-08)
(4.50076 0.0248311 -1.65896e-08)
(4.48649 0.00727522 -1.68216e-08)
(4.47926 0.0431573 -1.67224e-08)
(4.50063 0.0211174 -1.60729e-08)
(4.62176 0.0524482 -1.61036e-08)
(4.72307 0.0758642 -1.61091e-08)
(4.87845 0.0866369 -1.60845e-08)
(4.99422 0.0868441 -1.61629e-08)
(5.12109 0.0806994 -1.617e-08)
(5.20689 0.0703823 -1.62792e-08)
(5.28971 0.0599758 -1.62212e-08)
(5.34251 0.0497158 -1.63106e-08)
(5.39214 0.0416348 -1.62786e-08)
(5.4231 0.0343664 -1.64696e-08)
(5.45385 0.0295142 -1.65134e-08)
(5.47245 0.0242749 -1.67071e-08)
(5.49437 0.0222648 -1.66449e-08)
(5.50558 0.0166582 -1.6708e-08)
(5.5243 0.0187936 -1.65569e-08)
(5.53194 0.00787553 -1.66557e-08)
(5.54677 0.0184215 -1.65902e-08)
(5.56344 -0.00593733 -1.6797e-08)
(5.55802 0.00921249 -1.67612e-08)
(4.49888 0.0169888 -1.60617e-08)
(4.59696 0.032212 -1.61057e-08)
(4.68698 0.0422153 -1.61212e-08)
(4.83841 0.0463937 -1.61185e-08)
(4.96291 0.0468637 -1.61979e-08)
(5.10836 0.044092 -1.61942e-08)
(5.22021 0.0400338 -1.62765e-08)
(5.33379 0.0351131 -1.62034e-08)
(5.42013 0.030804 -1.62791e-08)
(5.50355 0.0267458 -1.62383e-08)
(5.56948 0.0237333 -1.64109e-08)
(5.63185 0.0210622 -1.64446e-08)
(5.68522 0.0190777 -1.6629e-08)
(5.73281 0.0175799 -1.66271e-08)
(5.78063 0.0156222 -1.67552e-08)
(5.81315 0.0160501 -1.65754e-08)
(5.86593 0.0118019 -1.66601e-08)
(5.86991 0.0178942 -1.66456e-08)
(5.9495 0.00735244 -1.67842e-08)
(5.89001 0.0263659 -1.67012e-08)
(4.49959 -2.96142e-08 -1.60738e-08)
(4.60861 8.5777e-08 -1.61153e-08)
(4.6995 -6.53366e-08 -1.61435e-08)
(4.85006 2.14882e-07 -1.61501e-08)
(4.9711 -5.94242e-08 -1.62313e-08)
(5.11516 5.33433e-07 -1.6209e-08)
(5.22713 1.93255e-07 -1.62865e-08)
(5.34326 1.31001e-06 -1.62305e-08)
(5.43307 1.12864e-06 -1.63418e-08)
(5.52188 3.63342e-06 -1.63168e-08)
(5.59277 3.47485e-06 -1.64624e-08)
(5.6626 1.15217e-05 -1.64169e-08)
(5.72086 7.86688e-06 -1.65244e-08)
(5.77832 3.74091e-05 -1.64508e-08)
(5.82929 1.76465e-05 -1.657e-08)
(5.87543 0.000108763 -1.64997e-08)
(5.92851 6.15713e-05 -1.6613e-08)
(5.95162 0.000267209 -1.65908e-08)
(6.0365 0.00027941 -1.67395e-08)
(6.00152 0.000573748 -1.66409e-08)
(4.49888 -0.0169889 -1.60635e-08)
(4.59696 -0.0322118 -1.61115e-08)
(4.68698 -0.0422155 -1.61461e-08)
(4.83841 -0.0463933 -1.61689e-08)
(4.96291 -0.0468639 -1.62445e-08)
(5.10836 -0.0440908 -1.62106e-08)
(5.2202 -0.0400337 -1.62787e-08)
(5.33379 -0.0351101 -1.62476e-08)
(5.42013 -0.0308027 -1.63906e-08)
(5.50355 -0.0267374 -1.63788e-08)
(5.56948 -0.0237291 -1.64878e-08)
(5.63185 -0.021036 -1.63719e-08)
(5.68523 -0.0190694 -1.64134e-08)
(5.73282 -0.017497 -1.63035e-08)
(5.78066 -0.0156058 -1.64396e-08)
(5.81319 -0.0158139 -1.64304e-08)
(5.86604 -0.0117244 -1.66017e-08)
(5.87002 -0.0173229 -1.6577e-08)
(5.9498 -0.00689913 -1.66894e-08)
(5.89038 -0.0251737 -1.65654e-08)
(4.50063 -0.0211174 -1.60745e-08)
(4.62176 -0.052448 -1.61281e-08)
(4.72307 -0.0758643 -1.61824e-08)
(4.87845 -0.0866366 -1.62164e-08)
(4.99422 -0.0868441 -1.62925e-08)
(5.1211 -0.0806985 -1.624e-08)
(5.20689 -0.0703819 -1.62973e-08)
(5.28972 -0.0599735 -1.62572e-08)
(5.3425 -0.0497138 -1.63891e-08)
(5.39215 -0.0416284 -1.63501e-08)
(5.4231 -0.0343603 -1.64213e-08)
(5.45388 -0.0294939 -1.62716e-08)
(5.47245 -0.0242617 -1.63033e-08)
(5.49444 -0.0221988 -1.62576e-08)
(5.50562 -0.0166316 -1.64701e-08)
(5.52446 -0.0186006 -1.64394e-08)
(5.53214 -0.007785 -1.65458e-08)
(5.54714 -0.0179502 -1.65485e-08)
(5.5641 0.00637934 -1.66623e-08)
(5.55904 -0.00823307 -1.65011e-08)
(4.51074 -0.0562665 -1.60845e-08)
(4.64298 -0.104972 -1.61709e-08)
(4.71997 -0.132405 -1.62178e-08)
(4.79997 -0.139126 -1.62394e-08)
(4.81028 -0.132391 -1.63023e-08)
(4.8174 -0.116315 -1.62212e-08)
(4.78642 -0.0981492 -1.62398e-08)
(4.76095 -0.0793506 -1.62046e-08)
(4.72013 -0.0642502 -1.638e-08)
(4.68746 -0.0509728 -1.64008e-08)
(4.65084 -0.0419878 -1.65237e-08)
(4.62082 -0.0340172 -1.64274e-08)
(4.59235 -0.0294316 -1.65061e-08)
(4.56758 -0.0247437 -1.64451e-08)
(4.54753 -0.0220299 -1.65946e-08)
(4.52809 -0.0207984 -1.65488e-08)
(4.51497 -0.0154536 -1.66628e-08)
(4.50177 -0.0244485 -1.65435e-08)
(4.48709 -0.00705411 -1.66416e-08)
(4.48187 -0.0423888 -1.64687e-08)
(4.45121 -0.0632702 -1.60745e-08)
(4.24196 -0.112468 -1.60853e-08)
(3.88981 -0.120375 -1.61056e-08)
(3.57145 -0.10451 -1.6122e-08)
(3.2516 -0.080117 -1.61954e-08)
(3.00848 -0.0571956 -1.61696e-08)
(2.79976 -0.036253 -1.62857e-08)
(2.65649 -0.0212331 -1.63205e-08)
(2.54336 -0.00920409 -1.6518e-08)
(2.46935 -0.00215305 -1.65299e-08)
(2.41398 0.00360949 -1.66537e-08)
(2.37706 0.00565745 -1.65766e-08)
(2.35048 0.00870503 -1.66719e-08)
(2.33246 0.00762484 -1.65954e-08)
(2.31654 0.0112049 -1.66913e-08)
(2.31463 0.00645816 -1.65961e-08)
(2.28952 0.0152053 -1.66757e-08)
(2.32545 0.00520121 -1.65841e-08)
(2.24882 0.0272592 -1.66976e-08)
(2.3911 0.0424563 -1.66354e-08)
(4.49842 0.185085 -0.00529661)
(3.76594 0.270408 -0.00369636)
(3.19299 0.23093 -0.00447446)
(2.65618 0.156609 -0.00344393)
(2.41013 0.108784 -0.00418352)
(2.16541 0.0775437 -0.00336221)
(2.09924 0.0629909 -0.0040137)
(1.97786 0.0549856 -0.00331123)
(1.96512 0.0515211 -0.0038637)
(1.8904 0.0496973 -0.00325389)
(1.89054 0.048217 -0.0037189)
(1.83847 0.0484406 -0.0031904)
(1.84123 0.0456859 -0.00358234)
(1.80323 0.0490037 -0.00312589)
(1.80573 0.0394246 -0.00345722)
(1.78036 0.0529904 -0.00306303)
(1.77494 0.0131351 -0.00334682)
(1.79893 0.0597247 -0.00300088)
(1.71531 -0.12145 -0.00328049)
(2.15114 -0.162391 -0.00288336)
(4.62476 0.104089 -0.00343013)
(4.66196 0.221913 -0.00213846)
(4.79166 0.197085 -0.00287457)
(4.67236 0.143324 -0.0018565)
(4.64928 0.0892236 -0.00258979)
(4.501 0.0482348 -0.00176588)
(4.46288 0.0216996 -0.00241384)
(4.34471 0.00544141 -0.00170958)
(4.31729 -0.00486339 -0.00226003)
(4.22908 -0.0112695 -0.00164954)
(4.21078 -0.0155048 -0.00211302)
(4.14445 -0.0193711 -0.00158494)
(4.13288 -0.0198367 -0.00197449)
(4.08023 -0.0250959 -0.00152054)
(4.07691 -0.01882 -0.0018452)
(4.02486 -0.0308123 -0.00145882)
(4.04284 -0.00892731 -0.00171915)
(3.94976 -0.0263109 -0.00139311)
(4.03944 0.0044637 -0.00156815)
(3.6672 0.0732047 -0.00120822)
(4.55856 0.0592186 -0.00472138)
(4.71764 0.179034 -0.00351879)
(5.0279 0.205141 -0.00422294)
(5.13503 0.180707 -0.00319418)
(5.30592 0.149717 -0.00391665)
(5.31997 0.119074 -0.00308777)
(5.39821 0.0980955 -0.00373661)
(5.37746 0.0823562 -0.00303328)
(5.41695 0.0714026 -0.00358704)
(5.39031 0.0633466 -0.00297808)
(5.41217 0.0565319 -0.00344481)
(5.38847 0.0521412 -0.00291678)
(5.39913 0.0464003 -0.00331063)
(5.38313 0.0451897 -0.00285342)
(5.38102 0.0368393 -0.00318878)
(5.38378 0.0415578 -0.00279107)
(5.35566 0.0179928 -0.00308882)
(5.40938 0.0363955 -0.00273339)
(5.33789 -0.0444804 -0.0030632)
(5.48523 -0.0433319 -0.00269069)
(4.5173 0.0276393 -0.00326471)
(4.58549 0.0686507 -0.00217796)
(4.91754 0.0707168 -0.00287101)
(5.07582 0.0618032 -0.00186247)
(5.32343 0.0483911 -0.00258012)
(5.41457 0.0359949 -0.00175058)
(5.56599 0.0269002 -0.00239489)
(5.61329 0.0203766 -0.00168965)
(5.71204 0.0156776 -0.00224006)
(5.73955 0.012183 -0.00163046)
(5.80883 0.0094079 -0.00209431)
(5.82544 0.00686846 -0.00156734)
(5.87714 0.00540207 -0.00195662)
(5.8839 0.00267846 -0.0015038)
(5.92827 0.00333736 -0.00182661)
(5.91625 -0.000726948 -0.00144128)
(5.97082 0.00356889 -0.00169408)
(5.89585 0.00116368 -0.00136772)
(5.9983 0.00216188 -0.00150571)
(5.69524 0.0310973 -0.00119899)
(4.5486 -1.06691e-08 -0.00463306)
(4.66677 4.68479e-08 -0.00354754)
(4.97236 -3.14851e-09 -0.00422969)
(5.12181 1.3686e-07 -0.00320643)
(5.36099 5.03399e-08 -0.00392048)
(5.45444 3.53773e-07 -0.00308756)
(5.61102 3.70337e-07 -0.00373412)
(5.66753 8.41993e-07 -0.00302959)
(5.77624 1.50668e-06 -0.00358334)
(5.81648 2.12605e-06 -0.00297449)
(5.89638 4.89738e-06 -0.00344167)
(5.9285 6.00263e-06 -0.00291396)
(5.98678 1.36397e-05 -0.0033083)
(6.01624 1.83133e-05 -0.00285124)
(6.05311 3.72418e-05 -0.00318768)
(6.09101 5.16512e-05 -0.0027896)
(6.09885 0.000115885 -0.00309206)
(6.16708 0.00014569 -0.00273365)
(6.15359 0.000408369 -0.00308009)
(6.24117 0.000584623 -0.00271204)
(4.5173 -0.0276394 -0.00326471)
(4.58549 -0.0686506 -0.00217796)
(4.91754 -0.0707169 -0.00287101)
(5.07583 -0.0618028 -0.00186247)
(5.32343 -0.0483912 -0.00258012)
(5.41457 -0.0359938 -0.00175058)
(5.56599 -0.0269001 -0.00239489)
(5.61329 -0.0203737 -0.00168965)
(5.71204 -0.0156764 -0.00224006)
(5.73956 -0.0121748 -0.00163046)
(5.80882 -0.00940366 -0.00209431)
(5.82545 -0.00684293 -0.00156734)
(5.87714 -0.00539198 -0.00195662)
(5.88394 -0.00259442 -0.0015038)
(5.92828 -0.00331823 -0.00182659)
(5.91635 0.000990766 -0.00144128)
(5.9709 -0.00351189 -0.00169404)
(5.89611 -0.000438276 -0.00136767)
(5.99867 -0.00186156 -0.00150579)
(5.69598 -0.0294884 -0.00119882)
(4.55856 -0.0592186 -0.00472138)
(4.71764 -0.179034 -0.00351879)
(5.0279 -0.205141 -0.00422294)
(5.13503 -0.180707 -0.00319418)
(5.30592 -0.149717 -0.00391665)
(5.31997 -0.119074 -0.00308777)
(5.39821 -0.0980946 -0.00373661)
(5.37746 -0.0823549 -0.00303328)
(5.41695 -0.0713996 -0.00358703)
(5.39033 -0.063343 -0.00297809)
(5.41217 -0.0565225 -0.0034448)
(5.3885 -0.0521301 -0.0029168)
(5.39913 -0.0463745 -0.0033106)
(5.38322 -0.0451513 -0.00285346)
(5.38107 -0.0367705 -0.00318871)
(5.38399 -0.0414365 -0.00279117)
(5.35589 -0.0177849 -0.00308864)
(5.4099 -0.0360762 -0.00273358)
(5.33862 0.045202 -0.00306279)
(5.48667 0.0441806 -0.00269078)
(4.62476 -0.104089 -0.00343013)
(4.66196 -0.221913 -0.00213846)
(4.79166 -0.197085 -0.00287457)
(4.67236 -0.143324 -0.0018565)
(4.64928 -0.0892236 -0.00258979)
(4.501 -0.0482343 -0.00176588)
(4.46288 -0.0216994 -0.00241384)
(4.34472 -0.00544005 -0.00170958)
(4.31729 0.00486436 -0.00226003)
(4.2291 0.0112733 -0.00164955)
(4.21078 0.0155075 -0.00211302)
(4.1445 0.0193831 -0.00158495)
(4.13289 0.0198411 -0.00197447)
(4.08038 0.0251364 -0.00152057)
(4.07694 0.0188206 -0.00184514)
(4.02526 0.030944 -0.00145888)
(4.04296 0.00891601 -0.00171899)
(3.95098 0.0266934 -0.00139322)
(4.03983 -0.00435291 -0.00156792)
(3.67114 -0.0720993 -0.00120831)
(4.49842 -0.185085 -0.00529661)
(3.76594 -0.270408 -0.00369636)
(3.19299 -0.23093 -0.00447446)
(2.65618 -0.156609 -0.00344393)
(2.41013 -0.108784 -0.00418351)
(2.16541 -0.0775438 -0.00336221)
(2.09925 -0.0629905 -0.0040137)
(1.97786 -0.0549858 -0.00331123)
(1.96513 -0.0515198 -0.0038637)
(1.89041 -0.0496979 -0.00325389)
(1.89055 -0.048213 -0.00371889)
(1.8385 -0.0484417 -0.00319041)
(1.84127 -0.0456747 -0.00358232)
(1.80331 -0.049003 -0.00312592)
(1.80586 -0.0393956 -0.00345715)
(1.78054 -0.0529773 -0.00306315)
(1.77537 -0.0130695 -0.00334655)
(1.79942 -0.0597077 -0.00300134)
(1.71635 0.121525 -0.00327927)
(2.15339 0.161847 -0.00288572)
(3.52383 0.410765 27.0295)
(2.84919 0.143294 27.0666)
(2.12565 0.0413848 27.0686)
(1.94245 -0.0237004 27.0758)
(1.68014 -0.0429879 27.074)
(1.67717 -0.0489443 27.0781)
(1.53027 -0.0496913 27.076)
(1.5637 -0.0484382 27.079)
(1.45679 -0.0471311 27.0772)
(1.49582 -0.045807 27.0796)
(1.4112 -0.044225 27.0781)
(1.44907 -0.0441043 27.0801)
(1.38001 -0.0411429 27.079)
(1.41507 -0.043881 27.0805)
(1.35687 -0.0352956 27.0799)
(1.38935 -0.0454131 27.0808)
(1.3364 -0.0150157 27.081)
(1.35731 -0.0444371 27.0803)
(1.32975 0.0891176 27.0835)
(1.12485 0.122029 27.0716)
(4.59656 0.536378 27.0545)
(4.79003 0.361804 27.0838)
(4.50422 0.272751 27.0838)
(4.46428 0.175253 27.0909)
(4.18554 0.120908 27.0908)
(4.17147 0.0908473 27.0952)
(3.96066 0.0725791 27.0944)
(3.9752 0.0621567 27.0972)
(3.81382 0.0543579 27.0964)
(3.8424 0.049524 27.0984)
(3.71511 0.0447822 27.098)
(3.74963 0.0428409 27.0995)
(3.64589 0.0379274 27.0995)
(3.68389 0.039818 27.1004)
(3.594 0.0296134 27.1013)
(3.64159 0.0404149 27.1008)
(3.54888 0.0119623 27.104)
(3.64029 0.0343597 27.0994)
(3.49725 -0.0207394 27.1097)
(3.84394 -0.0645416 27.0793)
(4.71443 0.281353 27.0562)
(5.18648 0.200612 27.08)
(5.28273 0.177155 27.073)
(5.51775 0.11691 27.0774)
(5.45479 0.0805698 27.0736)
(5.57515 0.0556449 27.0774)
(5.48257 0.0382098 27.0744)
(5.5622 0.0262624 27.0775)
(5.47245 0.0172365 27.0752)
(5.53222 0.0100504 27.0777)
(5.45231 0.00514607 27.0761)
(5.49899 -7.6719e-05 27.0781)
(5.4312 -0.00192429 27.0773)
(5.46556 -0.00690901 27.0789)
(5.41386 -0.00468258 27.0791)
(5.42773 -0.0111694 27.0798)
(5.40446 0.000779933 27.0816)
(5.36629 -0.00755664 27.0804)
(5.38925 0.0324495 27.085)
(5.23836 0.0608652 27.0644)
(4.69232 0.165342 27.0648)
(5.10549 0.125522 27.0889)
(5.29729 0.116901 27.0835)
(5.62674 0.0868634 27.0859)
(5.67553 0.0683423 27.0829)
(5.88708 0.0561484 27.0849)
(5.88542 0.0474519 27.0828)
(6.03365 0.0416587 27.0842)
(6.01388 0.0367458 27.0828)
(6.12434 0.0330645 27.0838)
(6.09675 0.0295412 27.0829)
(6.18289 0.0271696 27.0837)
(6.15062 0.0238692 27.0833)
(6.2226 0.0232876 27.084)
(6.18442 0.0181896 27.084)
(6.255 0.0213341 27.0846)
(6.20523 0.00975946 27.0853)
(6.30266 0.0174243 27.0855)
(6.23478 -0.000906759 27.087)
(6.4469 -0.00892118 27.0671)
(4.69355 -1.38142e-09 27.06)
(5.10237 6.96347e-08 27.0826)
(5.30348 9.2684e-10 27.0743)
(5.64681 2.0112e-07 27.0769)
(5.70872 7.28424e-09 27.0717)
(5.93441 5.27751e-07 27.0743)
(5.94922 2.2794e-07 27.0706)
(6.11321 1.33505e-06 27.0727)
(6.11216 1.2158e-06 27.0698)
(6.23758 3.68962e-06 27.0717)
(6.22954 4.21387e-06 27.0695)
(6.32613 1.2232e-05 27.0712)
(6.31606 1.00004e-05 27.0697)
(6.38694 4.56673e-05 27.0712)
(6.38261 1.53155e-05 27.0703)
(6.41994 0.000161002 27.0718)
(6.4392 2.4136e-05 27.0714)
(6.41068 0.000470696 27.073)
(6.47555 0.000144093 27.073)
(6.33431 0.000794485 27.0554)
(4.69232 -0.165342 27.0648)
(5.10549 -0.125522 27.0889)
(5.29729 -0.116901 27.0835)
(5.62674 -0.0868631 27.0859)
(5.67553 -0.0683422 27.0829)
(5.88708 -0.0561477 27.0849)
(5.88542 -0.0474511 27.0828)
(6.03365 -0.0416571 27.0842)
(6.01388 -0.0367425 27.0828)
(6.12435 -0.0330605 27.0838)
(6.09675 -0.0295299 27.0828)
(6.18291 -0.0271575 27.0838)
(6.15062 -0.0238391 27.0832)
(6.22265 -0.0232418 27.0841)
(6.18445 -0.0181219 27.0838)
(6.2551 -0.0211698 27.0848)
(6.20539 -0.00959377 27.085)
(6.30288 -0.0169486 27.0859)
(6.23523 0.00152957 27.0866)
(6.44756 0.0101724 27.0675)
(4.71443 -0.281353 27.0562)
(5.18648 -0.200611 27.08)
(5.28273 -0.177155 27.073)
(5.51775 -0.11691 27.0774)
(5.45479 -0.0805697 27.0736)
(5.57515 -0.0556442 27.0774)
(5.48257 -0.0382093 27.0744)
(5.5622 -0.0262606 27.0775)
(5.47245 -0.0172345 27.0752)
(5.53224 -0.0100453 27.0777)
(5.45231 -0.00514004 27.076)
(5.49903 9.36709e-05 27.0783)
(5.4312 0.00193638 27.0771)
(5.46567 0.0069726 27.0792)
(5.41389 0.00469172 27.0786)
(5.42801 0.0113933 27.0806)
(5.40465 -0.000792478 27.0804)
(5.36699 0.00819702 27.0823)
(5.39009 -0.0323066 27.0824)
(5.24038 -0.0594554 27.068)
(4.59656 -0.536378 27.0545)
(4.79003 -0.361804 27.0838)
(4.50422 -0.27275 27.0838)
(4.46428 -0.175253 27.0909)
(4.18554 -0.120908 27.0908)
(4.17147 -0.0908472 27.0952)
(3.96066 -0.0725784 27.0944)
(3.9752 -0.0621564 27.0972)
(3.81382 -0.0543555 27.0964)
(3.84241 -0.0495233 27.0985)
(3.71512 -0.0447749 27.0979)
(3.74967 -0.042838 27.0996)
(3.64592 -0.0379083 27.0993)
(3.68401 -0.0398011 27.1008)
(3.59412 -0.02957 27.1007)
(3.64185 -0.0403385 27.1019)
(3.54935 -0.0118618 27.102)
(3.6409 -0.0341189 27.1029)
(3.49857 0.0210649 27.1029)
(3.84587 0.0648207 27.0916)
(3.52383 -0.410765 27.0295)
(2.84919 -0.143294 27.0666)
(2.12565 -0.0413847 27.0686)
(1.94245 0.0237005 27.0758)
(1.68014 0.0429878 27.074)
(1.67718 0.0489445 27.0781)
(1.53027 0.0496912 27.076)
(1.5637 0.0484386 27.079)
(1.4568 0.0471306 27.0772)
(1.49582 0.0458079 27.0796)
(1.41121 0.0442233 27.0781)
(1.4491 0.0441065 27.0801)
(1.38003 0.041138 27.0789)
(1.41514 0.043887 27.0806)
(1.35695 0.0352829 27.0797)
(1.38951 0.0454286 27.0811)
(1.33671 0.0149844 27.0804)
(1.35772 0.0444921 27.0815)
(1.33073 -0.0890863 27.0808)
(1.12654 -0.12146 27.0797)
(1.15623 -0.154835 -27.1236)
(1.2363 -0.144788 -27.2341)
(1.18742 -0.113269 -27.2987)
(1.20579 -0.109533 -27.3464)
(1.17342 -0.109072 -27.3801)
(1.18988 -0.108974 -27.4078)
(1.16494 -0.109349 -27.4281)
(1.17901 -0.109356 -27.4453)
(1.15881 -0.109619 -27.4579)
(1.17091 -0.109594 -27.4686)
(1.15412 -0.109762 -27.4763)
(1.16473 -0.10971 -27.4825)
(1.15052 -0.109812 -27.4867)
(1.16001 -0.109745 -27.4899)
(1.1478 -0.109806 -27.4917)
(1.15642 -0.109737 -27.493)
(1.1458 -0.109775 -27.4937)
(1.15372 -0.109711 -27.4941)
(1.1444 -0.109739 -27.4942)
(1.15174 -0.109683 -27.4943)
(1.14348 -0.109707 -27.4942)
(1.15032 -0.109658 -27.4941)
(1.14297 -0.109679 -27.494)
(1.14936 -0.109637 -27.4939)
(1.14277 -0.109656 -27.4937)
(1.14878 -0.109619 -27.4936)
(1.14284 -0.109637 -27.4934)
(1.14848 -0.109605 -27.4932)
(1.14312 -0.109621 -27.4931)
(1.14843 -0.109592 -27.4929)
(1.14357 -0.109607 -27.4928)
(1.14857 -0.109581 -27.4926)
(1.14416 -0.109595 -27.4924)
(1.14888 -0.109572 -27.4922)
(1.14487 -0.109585 -27.492)
(1.14931 -0.109564 -27.4918)
(1.14566 -0.109576 -27.4917)
(1.14986 -0.109556 -27.4915)
(1.14653 -0.109567 -27.4913)
(1.15049 -0.10955 -27.4911)
(1.14745 -0.109559 -27.4909)
(1.1512 -0.109543 -27.4907)
(1.14843 -0.109552 -27.4905)
(1.15198 -0.109537 -27.4903)
(1.14945 -0.109545 -27.4901)
(1.15281 -0.109532 -27.4899)
(1.1505 -0.109539 -27.4897)
(1.15368 -0.109526 -27.4895)
(1.15158 -0.109533 -27.4893)
(1.1546 -0.109521 -27.4891)
(1.15268 -0.109527 -27.489)