/*--------------------------------*- C++ -*----------------------------------*\
  =========                 |
  \\      /  F ield         | OpenFOAM: The Open Source CFD Toolbox
   \\    /   O peration     | Website:  https://openfoam.org
    \\  /    A nd           | Version:  7
     \\/     M anipulation  |
\*---------------------------------------------------------------------------*/
FoamFile
{
    version     2.0;
    format      ascii;
    class       surfaceScalarField;
    location    "0.1375";
    object      phi_0;
}
// * * * * * * * * * * * * * * * * * * * * * * * * * * * * * * * * * * * * * //

dimensions      [1 0 -1 0 0 0 0];

internalField   nonuniform List<scalar> 
2748
(
1.07416e-05
5.62584e-08
1.06053e-05
1.36394e-07
1.03859e-05
2.19341e-07
1.01029e-05
2.83025e-07
9.7703e-06
3.3258e-07
9.4043e-06
3.66008e-07
9.01817e-06
3.86124e-07
8.62376e-06
3.94419e-07
8.23013e-06
3.9363e-07
7.84453e-06
3.85606e-07
7.47247e-06
3.72063e-07
7.11716e-06
3.55312e-07
6.78121e-06
3.35952e-07
6.46623e-06
3.14991e-07
6.17291e-06
2.93321e-07
5.90136e-06
2.7156e-07
5.65121e-06
2.50153e-07
5.42177e-06
2.29436e-07
5.21213e-06
2.09643e-07
5.02119e-06
1.90943e-07
4.84775e-06
1.73435e-07
4.69058e-06
1.57173e-07
4.54841e-06
1.42178e-07
4.41999e-06
1.28435e-07
4.30409e-06
1.15909e-07
4.19954e-06
1.04548e-07
4.10526e-06
9.42907e-08
4.0202e-06
8.5067e-08
3.94339e-06
7.68034e-08
3.87397e-06
6.94241e-08
3.81112e-06
6.28532e-08
3.75411e-06
5.70156e-08
3.70228e-06
5.18389e-08
3.65503e-06
4.72546e-08
3.61184e-06
4.31994e-08
3.57223e-06
3.96158e-08
3.53578e-06
3.64518e-08
3.50211e-06
3.3661e-08
3.47091e-06
3.12011e-08
3.44188e-06
2.90338e-08
3.41476e-06
2.71236e-08
3.38933e-06
2.54386e-08
3.36539e-06
2.39502e-08
3.34277e-06
2.26334e-08
3.3213e-06
2.14671e-08
3.30086e-06
2.04336e-08
3.28134e-06
1.95173e-08
3.26263e-06
1.87039e-08
3.24466e-06
1.798e-08
3.22734e-06
1.73325e-08
3.2106e-06
1.675e-08
3.19438e-06
1.62232e-08
3.17864e-06
1.57454e-08
3.16332e-06
1.5312e-08
3.14839e-06
1.49194e-08
3.13383e-06
1.45631e-08
3.11959e-06
1.42378e-08
3.10566e-06
1.39375e-08
3.09202e-06
1.36572e-08
3.07863e-06
1.33938e-08
3.06548e-06
1.31459e-08
3.05256e-06
1.29131e-08
3.03986e-06
1.26943e-08
3.02737e-06
1.24876e-08
3.01509e-06
1.22903e-08
3.003e-06
1.20996e-08
2.99109e-06
1.19137e-08
2.97935e-06
1.17325e-08
2.9678e-06
1.15564e-08
2.95641e-06
1.13863e-08
2.94518e-06
1.12223e-08
2.93413e-06
1.10633e-08
2.92323e-06
1.09078e-08
2.91248e-06
1.07542e-08
2.90188e-06
1.06018e-08
2.89142e-06
1.04516e-08
2.8811e-06
1.03052e-08
2.87093e-06
1.01644e-08
2.8609e-06
1.00291e-08
2.851e-06
9.89805e-09
2.84125e-06
9.76827e-09
2.83162e-06
9.63753e-09
2.82212e-06
9.50503e-09
2.81273e-06
9.37272e-09
2.80347e-06
9.24338e-09
2.79433e-06
9.11981e-09
2.78533e-06
9.00239e-09
2.77644e-06
8.88925e-09
2.76768e-06
8.77682e-09
2.75902e-06
8.66254e-09
2.75048e-06
8.54519e-09
2.74203e-06
8.42733e-09
2.73368e-06
8.31168e-09
2.72544e-06
8.20243e-09
2.71731e-06
8.09926e-09
2.70929e-06
8.00175e-09
2.70138e-06
7.90481e-09
2.69357e-06
7.8055e-09
2.68585e-06
7.70137e-09
2.67822e-06
7.59109e-09
2.67067e-06
7.4821e-09
2.66323e-06
7.36925e-09
2.65589e-06
7.27448e-09
2.64869e-06
7.1711e-09
2.64163e-06
7.10746e-09
2.63475e-06
7.00669e-09
2.62799e-06
6.97661e-09
2.62145e-06
6.84511e-09
2.61497e-06
6.84611e-09
2.60875e-06
6.64009e-09
2.60252e-06
6.68368e-09
2.59662e-06
6.36112e-09
2.59062e-06
6.46078e-09
2.58508e-06
5.99932e-09
2.57942e-06
6.1199e-09
2.57433e-06
5.5701e-09
2.56931e-06
5.50364e-09
2.56473e-06
5.11121e-09
2.56084e-06
4.43799e-09
4.47194e-09
1.08164e-05
3.74508e-08
1.08579e-05
9.4892e-08
1.09223e-05
1.5503e-07
1.09988e-05
2.06477e-07
1.10786e-05
2.52797e-07
1.11535e-05
2.91046e-07
1.12177e-05
3.21995e-07
1.1267e-05
3.45076e-07
1.12997e-05
3.60988e-07
1.1315e-05
3.70231e-07
1.13137e-05
3.73415e-07
1.12972e-05
3.71828e-07
1.12672e-05
3.65964e-07
1.12255e-05
3.56704e-07
1.1174e-05
3.44829e-07
1.11145e-05
3.31045e-07
1.10487e-05
3.15959e-07
1.0978e-05
3.00096e-07
1.09038e-05
2.83886e-07
1.08271e-05
2.67685e-07
1.07487e-05
2.51772e-07
1.06695e-05
2.36366e-07
1.05901e-05
2.21622e-07
1.05109e-05
2.0765e-07
1.04323e-05
1.9452e-07
1.03546e-05
1.82269e-07
1.02779e-05
1.70904e-07
1.02026e-05
1.60417e-07
1.01286e-05
1.50779e-07
1.00561e-05
1.41953e-07
9.98506e-06
1.33892e-07
9.91554e-06
1.26544e-07
9.84753e-06
1.19855e-07
9.78102e-06
1.13769e-07
9.71599e-06
1.08234e-07
9.65242e-06
1.03198e-07
9.59026e-06
9.8614e-08
9.52949e-06
9.44377e-08
9.47007e-06
9.06282e-08
9.41196e-06
8.71476e-08
9.35513e-06
8.39609e-08
9.29953e-06
8.10361e-08
9.24514e-06
7.83441e-08
9.19191e-06
7.58594e-08
9.13982e-06
7.35591e-08
9.08883e-06
7.14234e-08
9.03891e-06
6.94346e-08
8.99003e-06
6.75768e-08
8.94218e-06
6.58353e-08
8.89531e-06
6.41968e-08
8.84941e-06
6.265e-08
8.80446e-06
6.11851e-08
8.76041e-06
5.97947e-08
8.71726e-06
5.84724e-08
8.67497e-06
5.72131e-08
8.63353e-06
5.60114e-08
8.59292e-06
5.48619e-08
8.5531e-06
5.37592e-08
8.51407e-06
5.26985e-08
8.47579e-06
5.16759e-08
8.43825e-06
5.06884e-08
8.40143e-06
4.97335e-08
8.36532e-06
4.88088e-08
8.32989e-06
4.79116e-08
8.29514e-06
4.7039e-08
8.26105e-06
4.61887e-08
8.2276e-06
4.53586e-08
8.19478e-06
4.4548e-08
8.16258e-06
4.37565e-08
8.13098e-06
4.29841e-08
8.09997e-06
4.22309e-08
8.06954e-06
4.14963e-08
8.03968e-06
4.07796e-08
8.01036e-06
4.008e-08
7.98157e-06
3.93971e-08
7.95329e-06
3.8731e-08
7.92552e-06
3.80818e-08
7.89824e-06
3.74499e-08
7.87144e-06
3.68346e-08
7.8451e-06
3.62348e-08
7.81922e-06
3.56485e-08
7.79379e-06
3.50746e-08
7.76878e-06
3.45119e-08
7.74418e-06
3.39613e-08
7.72e-06
3.34233e-08
7.69621e-06
3.28993e-08
7.67282e-06
3.23889e-08
7.64981e-06
3.18916e-08
7.62718e-06
3.14052e-08
7.60491e-06
3.09295e-08
7.583e-06
3.04629e-08
7.56142e-06
3.00072e-08
7.54017e-06
2.9562e-08
7.51924e-06
2.91303e-08
7.49863e-06
2.87094e-08
7.47833e-06
2.83007e-08
7.45833e-06
2.78993e-08
7.43862e-06
2.7506e-08
7.4192e-06
2.71177e-08
7.40004e-06
2.67347e-08
7.38114e-06
2.63618e-08
7.3625e-06
2.59907e-08
7.3441e-06
2.56438e-08
7.32596e-06
2.52832e-08
7.30807e-06
2.49732e-08
7.29045e-06
2.46043e-08
7.27307e-06
2.43401e-08
7.25599e-06
2.39185e-08
7.23913e-06
2.37191e-08
7.22262e-06
2.31747e-08
7.20626e-06
2.30858e-08
7.19037e-06
2.23168e-08
7.1745e-06
2.24073e-08
7.15931e-06
2.1278e-08
7.14393e-06
2.15989e-08
7.12964e-06
1.99683e-08
7.11482e-06
2.04341e-08
7.10182e-06
1.82376e-08
7.08783e-06
1.85411e-08
1.55999e-08
1.08105e-05
2.45199e-08
1.08392e-05
6.6213e-08
1.0885e-05
1.09191e-07
1.09452e-05
1.46337e-07
1.10177e-05
1.80259e-07
1.11002e-05
2.08525e-07
1.11903e-05
2.31938e-07
1.12854e-05
2.49983e-07
1.13832e-05
2.6319e-07
1.14816e-05
2.71868e-07
1.15786e-05
2.76413e-07
1.16728e-05
2.7762e-07
1.17629e-05
2.75814e-07
1.18481e-05
2.71552e-07
1.19276e-05
2.65315e-07
1.20011e-05
2.57562e-07
1.20684e-05
2.48687e-07
1.21294e-05
2.39044e-07
1.21844e-05
2.28931e-07
1.22335e-05
2.18604e-07
1.2277e-05
2.08273e-07
1.23152e-05
1.98108e-07
1.23486e-05
1.88241e-07
1.23775e-05
1.78771e-07
1.24023e-05
1.6977e-07
1.24232e-05
1.61284e-07
1.24408e-05
1.5334e-07
1.24553e-05
1.45947e-07
1.2467e-05
1.39102e-07
1.24761e-05
1.32792e-07
1.2483e-05
1.26995e-07
1.24879e-05
1.21682e-07
1.24909e-05
1.16824e-07
1.24923e-05
1.12386e-07
1.24922e-05
1.08337e-07
1.24908e-05
1.04642e-07
1.24881e-05
1.01272e-07
1.24844e-05
9.81964e-08
1.24796e-05
9.53877e-08
1.2474e-05
9.28196e-08
1.24675e-05
9.04678e-08
1.24602e-05
8.83093e-08
1.24522e-05
8.63235e-08
1.24436e-05
8.44914e-08
1.24344e-05
8.27964e-08
1.24246e-05
8.12234e-08
1.24142e-05
7.97591e-08
1.24034e-05
7.83912e-08
1.23921e-05
7.71083e-08
1.23804e-05
7.59004e-08
1.23683e-05
7.47584e-08
1.23558e-05
7.36751e-08
1.2343e-05
7.26442e-08
1.23298e-05
7.1661e-08
1.23163e-05
7.07214e-08
1.23025e-05
6.98211e-08
1.22884e-05
6.89562e-08
1.2274e-05
6.81225e-08
1.22594e-05
6.73163e-08
1.22445e-05
6.65346e-08
1.22295e-05
6.5775e-08
1.22142e-05
6.50353e-08
1.21987e-05
6.43135e-08
1.2183e-05
6.36072e-08
1.21671e-05
6.29142e-08
1.21511e-05
6.22324e-08
1.21349e-05
6.15605e-08
1.21186e-05
6.08976e-08
1.21021e-05
6.02437e-08
1.20855e-05
5.95989e-08
1.20687e-05
5.89632e-08
1.20519e-05
5.83364e-08
1.2035e-05
5.77183e-08
1.20179e-05
5.71087e-08
1.20008e-05
5.65078e-08
1.19836e-05
5.59158e-08
1.19664e-05
5.53335e-08
1.19491e-05
5.47608e-08
1.19317e-05
5.41975e-08
1.19143e-05
5.36426e-08
1.18968e-05
5.3095e-08
1.18793e-05
5.25535e-08
1.18618e-05
5.20178e-08
1.18443e-05
5.14885e-08
1.18267e-05
5.09658e-08
1.18092e-05
5.04512e-08
1.17916e-05
4.99438e-08
1.17741e-05
4.94441e-08
1.17566e-05
4.89499e-08
1.1739e-05
4.84621e-08
1.17215e-05
4.79789e-08
1.1704e-05
4.75033e-08
1.16866e-05
4.70343e-08
1.16692e-05
4.6575e-08
1.16518e-05
4.61234e-08
1.16344e-05
4.56807e-08
1.16171e-05
4.52439e-08
1.15998e-05
4.48126e-08
1.15825e-05
4.43865e-08
1.15653e-05
4.39621e-08
1.15481e-05
4.3549e-08
1.15309e-05
4.31307e-08
1.15138e-05
4.27396e-08
1.14967e-05
4.23212e-08
1.14797e-05
4.19626e-08
1.14628e-05
4.15193e-08
1.14459e-05
4.12071e-08
1.14291e-05
4.06846e-08
1.14123e-05
4.04516e-08
1.13957e-05
3.97552e-08
1.13791e-05
3.96781e-08
1.13627e-05
3.86475e-08
1.13463e-05
3.8868e-08
1.13303e-05
3.72352e-08
1.13139e-05
3.79595e-08
1.12986e-05
3.53054e-08
1.12823e-05
3.67268e-08
1.1268e-05
3.24785e-08
1.12521e-05
3.44956e-08
2.80569e-08
1.08062e-05
1.57514e-08
1.08287e-05
4.37076e-08
1.08658e-05
7.21424e-08
1.09156e-05
9.65148e-08
1.09772e-05
1.18671e-07
1.10487e-05
1.3704e-07
1.11284e-05
1.52265e-07
1.12143e-05
1.6404e-07
1.13048e-05
1.72745e-07
1.1398e-05
1.78596e-07
1.14926e-05
1.81864e-07
1.15872e-05
1.82993e-07
1.16808e-05
1.82214e-07
1.17725e-05
1.79881e-07
1.18615e-05
1.76276e-07
1.19474e-05
1.71683e-07
1.20298e-05
1.66347e-07
1.21083e-05
1.6049e-07
1.2183e-05
1.543e-07
1.22536e-05
1.47939e-07
1.23204e-05
1.41542e-07
1.23833e-05
1.35218e-07
1.24425e-05
1.29054e-07
1.24981e-05
1.23114e-07
1.25504e-05
1.17447e-07
1.25996e-05
1.12085e-07
1.26459e-05
1.07047e-07
1.26895e-05
1.02344e-07
1.27307e-05
9.79739e-08
1.27695e-05
9.39325e-08
1.28063e-05
9.02079e-08
1.28412e-05
8.67853e-08
1.28744e-05
8.36473e-08
1.2906e-05
8.07753e-08
1.29362e-05
7.815e-08
1.29651e-05
7.57524e-08
1.29928e-05
7.35641e-08
1.30194e-05
7.15675e-08
1.30451e-05
6.9746e-08
1.30698e-05
6.80837e-08
1.30938e-05
6.65656e-08
1.31169e-05
6.51779e-08
1.31393e-05
6.39076e-08
1.31611e-05
6.2743e-08
1.31822e-05
6.16733e-08
1.32027e-05
6.06888e-08
1.32227e-05
5.97808e-08
1.32422e-05
5.89411e-08
1.32611e-05
5.81621e-08
1.32796e-05
5.74371e-08
1.32976e-05
5.676e-08
1.33151e-05
5.61257e-08
1.33322e-05
5.55299e-08
1.33489e-05
5.49688e-08
1.33652e-05
5.44392e-08
1.33811e-05
5.3938e-08
1.33966e-05
5.34621e-08
1.34117e-05
5.30087e-08
1.34264e-05
5.25751e-08
1.34408e-05
5.21588e-08
1.34548e-05
5.17579e-08
1.34685e-05
5.13705e-08
1.34818e-05
5.0995e-08
1.34948e-05
5.06295e-08
1.35074e-05
5.02726e-08
1.35198e-05
4.99226e-08
1.35318e-05
4.95785e-08
1.35434e-05
4.92398e-08
1.35548e-05
4.8906e-08
1.35658e-05
4.85773e-08
1.35765e-05
4.82535e-08
1.3587e-05
4.79346e-08
1.35971e-05
4.76206e-08
1.36069e-05
4.73112e-08
1.36164e-05
4.70066e-08
1.36256e-05
4.67068e-08
1.36345e-05
4.64119e-08
1.36431e-05
4.6122e-08
1.36515e-05
4.58368e-08
1.36596e-05
4.55557e-08
1.36674e-05
4.52777e-08
1.36749e-05
4.50024e-08
1.36822e-05
4.47293e-08
1.36892e-05
4.44585e-08
1.3696e-05
4.41905e-08
1.37025e-05
4.39258e-08
1.37087e-05
4.36644e-08
1.37148e-05
4.34063e-08
1.37206e-05
4.31512e-08
1.37261e-05
4.28989e-08
1.37315e-05
4.26495e-08
1.37366e-05
4.24036e-08
1.37415e-05
4.21618e-08
1.37461e-05
4.19248e-08
1.37506e-05
4.16927e-08
1.37548e-05
4.14646e-08
1.37589e-05
4.12409e-08
1.37627e-05
4.10181e-08
1.37663e-05
4.08008e-08
1.37697e-05
4.05795e-08
1.37729e-05
4.03703e-08
1.37759e-05
4.01476e-08
1.37787e-05
3.99528e-08
1.37813e-05
3.97205e-08
1.37837e-05
3.95491e-08
1.37859e-05
3.92838e-08
1.3788e-05
3.91501e-08
1.37898e-05
3.88029e-08
1.37915e-05
3.87389e-08
1.3793e-05
3.82232e-08
1.37944e-05
3.83013e-08
1.37955e-05
3.74651e-08
1.37965e-05
3.78204e-08
1.37973e-05
3.64005e-08
1.3798e-05
3.72448e-08
1.37985e-05
3.48056e-08
1.37988e-05
3.63748e-08
1.3799e-05
3.22812e-08
1.37989e-05
3.45218e-08
2.81583e-08
1.08054e-05
7.74486e-09
1.08278e-05
2.13603e-08
1.08648e-05
3.5179e-08
1.09141e-05
4.72204e-08
1.09744e-05
5.83509e-08
1.10437e-05
6.76874e-08
1.11204e-05
7.55644e-08
1.12027e-05
8.17545e-08
1.1289e-05
8.64365e-08
1.13779e-05
8.9698e-08
1.14681e-05
9.16638e-08
1.15586e-05
9.25589e-08
1.16483e-05
9.25028e-08
1.17365e-05
9.16743e-08
1.18226e-05
9.0217e-08
1.1906e-05
8.82732e-08
1.19864e-05
8.59635e-08
1.20635e-05
8.33945e-08
1.21371e-05
8.06562e-08
1.22072e-05
7.78236e-08
1.22738e-05
7.49584e-08
1.23369e-05
7.21101e-08
1.23967e-05
6.93167e-08
1.24532e-05
6.66076e-08
1.25066e-05
6.40038e-08
1.25572e-05
6.15199e-08
1.26051e-05
5.91649e-08
1.26505e-05
5.69438e-08
1.26936e-05
5.4858e-08
1.27346e-05
5.29062e-08
1.27738e-05
5.10852e-08
1.28111e-05
4.93903e-08
1.2847e-05
4.78159e-08
1.28814e-05
4.63558e-08
1.29146e-05
4.50034e-08
1.29466e-05
4.37524e-08
1.29775e-05
4.25963e-08
1.30076e-05
4.15292e-08
1.30368e-05
4.05451e-08
1.30652e-05
3.96384e-08
1.3093e-05
3.88034e-08
1.31202e-05
3.80348e-08
1.31468e-05
3.73276e-08
1.31728e-05
3.66768e-08
1.31984e-05
3.60781e-08
1.32236e-05
3.55272e-08
1.32484e-05
3.50201e-08
1.32728e-05
3.45529e-08
1.32968e-05
3.4122e-08
1.33205e-05
3.37237e-08
1.33439e-05
3.3355e-08
1.3367e-05
3.3013e-08
1.33898e-05
3.26953e-08
1.34124e-05
3.23997e-08
1.34347e-05
3.21243e-08
1.34568e-05
3.18672e-08
1.34786e-05
3.16264e-08
1.35002e-05
3.14001e-08
1.35216e-05
3.11866e-08
1.35428e-05
3.09845e-08
1.35637e-05
3.07923e-08
1.35845e-05
3.06089e-08
1.36051e-05
3.04331e-08
1.36254e-05
3.02638e-08
1.36456e-05
3.00999e-08
1.36656e-05
2.99405e-08
1.36854e-05
2.97848e-08
1.37051e-05
2.96323e-08
1.37245e-05
2.94827e-08
1.37438e-05
2.93358e-08
1.37628e-05
2.91917e-08
1.37817e-05
2.90502e-08
1.38005e-05
2.89113e-08
1.3819e-05
2.87749e-08
1.38374e-05
2.86409e-08
1.38556e-05
2.85095e-08
1.38736e-05
2.83805e-08
1.38915e-05
2.82541e-08
1.39092e-05
2.81301e-08
1.39267e-05
2.80081e-08
1.39441e-05
2.78876e-08
1.39613e-05
2.77685e-08
1.39784e-05
2.76504e-08
1.39953e-05
2.75336e-08
1.4012e-05
2.74181e-08
1.40286e-05
2.73043e-08
1.40451e-05
2.71925e-08
1.40614e-05
2.70824e-08
1.40776e-05
2.69743e-08
1.40936e-05
2.68679e-08
1.41095e-05
2.67637e-08
1.41252e-05
2.66616e-08
1.41408e-05
2.65624e-08
1.41563e-05
2.64656e-08
1.41717e-05
2.63722e-08
1.41869e-05
2.62799e-08
1.4202e-05
2.61914e-08
1.42169e-05
2.61008e-08
1.42317e-05
2.60162e-08
1.42464e-05
2.59244e-08
1.4261e-05
2.58455e-08
1.42754e-05
2.57498e-08
1.42897e-05
2.56813e-08
1.43038e-05
2.55751e-08
1.43179e-05
2.55235e-08
1.43318e-05
2.53898e-08
1.43456e-05
2.53647e-08
1.43592e-05
2.51701e-08
1.43727e-05
2.51906e-08
1.4386e-05
2.48787e-08
1.43993e-05
2.49847e-08
1.44123e-05
2.44624e-08
1.44254e-05
2.47248e-08
1.44379e-05
2.384e-08
1.44507e-05
2.4361e-08
1.44626e-05
2.2873e-08
1.44752e-05
2.37485e-08
1.44861e-05
2.1311e-08
1.44982e-05
2.24663e-08
1.86957e-08
1.0805e-05
1.51789e-10
1.08261e-05
2.3611e-10
1.08608e-05
4.71092e-10
1.09075e-05
5.32918e-10
1.09652e-05
6.88812e-10
1.10321e-05
7.99553e-10
1.11066e-05
9.84095e-10
1.11872e-05
1.20504e-09
1.12721e-05
1.49222e-09
1.136e-05
1.85461e-09
1.14494e-05
2.27702e-09
1.15392e-05
2.77579e-09
1.16283e-05
3.33464e-09
1.17161e-05
3.94862e-09
1.18017e-05
4.60603e-09
1.18847e-05
5.29457e-09
1.19646e-05
6.0017e-09
1.20413e-05
6.71349e-09
1.21146e-05
7.41718e-09
1.21843e-05
8.09977e-09
1.22505e-05
8.75003e-09
1.23133e-05
9.35781e-09
1.23727e-05
9.91439e-09
1.24289e-05
1.04134e-08
1.2482e-05
1.085e-08
1.25323e-05
1.12217e-08
1.258e-05
1.15276e-08
1.26251e-05
1.17685e-08
1.26681e-05
1.19471e-08
1.27089e-05
1.2067e-08
1.27479e-05
1.21329e-08
1.27851e-05
1.21502e-08
1.28208e-05
1.21249e-08
1.28551e-05
1.20629e-08
1.28881e-05
1.19705e-08
1.292e-05
1.18535e-08
1.29509e-05
1.17177e-08
1.29809e-05
1.15683e-08
1.301e-05
1.14103e-08
1.30384e-05
1.12479e-08
1.30662e-05
1.10848e-08
1.30933e-05
1.09241e-08
1.31198e-05
1.07684e-08
1.31459e-05
1.06199e-08
1.31715e-05
1.04803e-08
1.31967e-05
1.03506e-08
1.32215e-05
1.02317e-08
1.32459e-05
1.0124e-08
1.327e-05
1.00275e-08
1.32938e-05
9.94189e-09
1.33173e-05
9.86687e-09
1.33405e-05
9.80191e-09
1.33634e-05
9.74649e-09
1.33861e-05
9.70004e-09
1.34086e-05
9.66196e-09
1.34308e-05
9.63156e-09
1.34528e-05
9.60805e-09
1.34746e-05
9.59061e-09
1.34962e-05
9.57846e-09
1.35176e-05
9.5709e-09
1.35388e-05
9.56729e-09
1.35599e-05
9.56707e-09
1.35808e-05
9.56966e-09
1.36015e-05
9.5745e-09
1.3622e-05
9.58102e-09
1.36424e-05
9.58874e-09
1.36626e-05
9.59722e-09
1.36826e-05
9.60619e-09
1.37025e-05
9.61546e-09
1.37222e-05
9.62489e-09
1.37418e-05
9.63438e-09
1.37612e-05
9.64381e-09
1.37805e-05
9.6531e-09
1.37996e-05
9.66222e-09
1.38186e-05
9.67108e-09
1.38374e-05
9.67983e-09
1.38561e-05
9.68837e-09
1.38747e-05
9.69672e-09
1.38931e-05
9.70473e-09
1.39114e-05
9.71221e-09
1.39295e-05
9.71895e-09
1.39475e-05
9.72483e-09
1.39654e-05
9.72994e-09
1.39832e-05
9.73437e-09
1.40009e-05
9.73851e-09
1.40184e-05
9.74248e-09
1.40359e-05
9.74675e-09
1.40532e-05
9.75111e-09
1.40704e-05
9.75607e-09
1.40875e-05
9.76131e-09
1.41045e-05
9.76749e-09
1.41214e-05
9.77414e-09
1.41382e-05
9.78232e-09
1.41549e-05
9.79071e-09
1.41715e-05
9.801e-09
1.4188e-05
9.80987e-09
1.42044e-05
9.82114e-09
1.42207e-05
9.8278e-09
1.42369e-05
9.83932e-09
1.4253e-05
9.84129e-09
1.42691e-05
9.85438e-09
1.4285e-05
9.84984e-09
1.43008e-05
9.86798e-09
1.43166e-05
9.85326e-09
1.43322e-05
9.88068e-09
1.43478e-05
9.84695e-09
1.43632e-05
9.88748e-09
1.43786e-05
9.81925e-09
1.43939e-05
9.87693e-09
1.4409e-05
9.7524e-09
1.44241e-05
9.8331e-09
1.44389e-05
9.62555e-09
1.44538e-05
9.73477e-09
1.44682e-05
9.41518e-09
1.4483e-05
9.5518e-09
1.44967e-05
9.0913e-09
1.45112e-05
9.23719e-09
1.45238e-05
8.60101e-09
1.45376e-05
8.72602e-09
7.82088e-09
1.0805e-05
-7.39459e-09
1.08261e-05
-2.09137e-08
1.08609e-05
-3.43173e-08
1.09077e-05
-4.62787e-08
1.09655e-05
-5.71146e-08
1.10325e-05
-6.62394e-08
1.11073e-05
-7.37439e-08
1.1188e-05
-7.9482e-08
1.1273e-05
-8.35761e-08
1.1361e-05
-8.60899e-08
1.14505e-05
-8.71927e-08
1.15403e-05
-8.70675e-08
1.16295e-05
-8.58682e-08
1.17173e-05
-8.37878e-08
1.18029e-05
-8.09924e-08
1.18858e-05
-7.76501e-08
1.19657e-05
-7.39065e-08
1.20423e-05
-6.98967e-08
1.21155e-05
-6.5736e-08
1.21851e-05
-6.15259e-08
1.22512e-05
-5.73504e-08
1.23139e-05
-5.32795e-08
1.23732e-05
-4.93686e-08
1.24292e-05
-4.56596e-08
1.24823e-05
-4.2183e-08
1.25325e-05
-3.89585e-08
1.258e-05
-3.59965e-08
1.2625e-05
-3.32997e-08
1.26679e-05
-3.08642e-08
1.27086e-05
-2.8681e-08
1.27475e-05
-2.67371e-08
1.27846e-05
-2.50165e-08
1.28203e-05
-2.35017e-08
1.28545e-05
-2.2174e-08
1.28875e-05
-2.10145e-08
1.29194e-05
-2.00049e-08
1.29502e-05
-1.91271e-08
1.29802e-05
-1.83645e-08
1.30093e-05
-1.77014e-08
1.30377e-05
-1.71236e-08
1.30654e-05
-1.66182e-08
1.30925e-05
-1.61735e-08
1.3119e-05
-1.57795e-08
1.31451e-05
-1.5427e-08
1.31707e-05
-1.51084e-08
1.31959e-05
-1.4817e-08
1.32206e-05
-1.45474e-08
1.32451e-05
-1.4295e-08
1.32691e-05
-1.4056e-08
1.32929e-05
-1.38278e-08
1.33164e-05
-1.36078e-08
1.33396e-05
-1.33944e-08
1.33625e-05
-1.31862e-08
1.33852e-05
-1.29821e-08
1.34076e-05
-1.27814e-08
1.34298e-05
-1.25836e-08
1.34518e-05
-1.23883e-08
1.34736e-05
-1.21954e-08
1.34952e-05
-1.20049e-08
1.35166e-05
-1.18167e-08
1.35378e-05
-1.16307e-08
1.35588e-05
-1.14468e-08
1.35796e-05
-1.12648e-08
1.36003e-05
-1.10849e-08
1.36208e-05
-1.09071e-08
1.36411e-05
-1.07315e-08
1.36613e-05
-1.05582e-08
1.36813e-05
-1.03872e-08
1.37012e-05
-1.02187e-08
1.37209e-05
-1.00526e-08
1.37404e-05
-9.88906e-09
1.37598e-05
-9.72833e-09
1.3779e-05
-9.57055e-09
1.37981e-05
-9.41575e-09
1.3817e-05
-9.26401e-09
1.38358e-05
-9.11514e-09
1.38545e-05
-8.96921e-09
1.3873e-05
-8.82618e-09
1.38914e-05
-8.68615e-09
1.39096e-05
-8.5493e-09
1.39278e-05
-8.41566e-09
1.39457e-05
-8.28524e-09
1.39636e-05
-8.15766e-09
1.39814e-05
-8.03274e-09
1.3999e-05
-7.90986e-09
1.40165e-05
-7.78881e-09
1.40339e-05
-7.66903e-09
1.40512e-05
-7.55068e-09
1.40684e-05
-7.43315e-09
1.40855e-05
-7.31681e-09
1.41024e-05
-7.2009e-09
1.41193e-05
-7.08602e-09
1.41361e-05
-6.97113e-09
1.41528e-05
-6.8578e-09
1.41693e-05
-6.74428e-09
1.41858e-05
-6.63423e-09
1.42022e-05
-6.52369e-09
1.42185e-05
-6.41999e-09
1.42346e-05
-6.31362e-09
1.42507e-05
-6.21859e-09
1.42667e-05
-6.11552e-09
1.42826e-05
-6.02954e-09
1.42985e-05
-5.92699e-09
1.43142e-05
-5.84989e-09
1.43298e-05
-5.74518e-09
1.43453e-05
-5.67731e-09
1.43608e-05
-5.57184e-09
1.43761e-05
-5.51158e-09
1.43914e-05
-5.41568e-09
1.44065e-05
-5.3521e-09
1.44216e-05
-5.292e-09
1.44363e-05
-5.18871e-09
1.44512e-05
-5.2197e-09
1.44656e-05
-4.98737e-09
1.44803e-05
-5.2065e-09
1.4494e-05
-4.66751e-09
1.45084e-05
-5.19836e-09
1.45211e-05
-4.0764e-09
1.45347e-05
-4.90625e-09
-2.98589e-09
1.08053e-05
-1.52346e-08
1.08275e-05
-4.31245e-08
1.08642e-05
-7.10703e-08
1.09134e-05
-9.54367e-08
1.09736e-05
-1.1736e-07
1.1043e-05
-1.35593e-07
1.11198e-05
-1.50509e-07
1.12022e-05
-1.61882e-07
1.12886e-05
-1.7004e-07
1.13777e-05
-1.75161e-07
1.14681e-05
-1.77583e-07
1.15587e-05
-1.77689e-07
1.16486e-05
-1.75752e-07
1.1737e-05
-1.72144e-07
1.18232e-05
-1.6717e-07
1.19067e-05
-1.61142e-07
1.19871e-05
-1.54331e-07
1.20642e-05
-1.46989e-07
1.21378e-05
-1.39333e-07
1.22078e-05
-1.31553e-07
1.22743e-05
-1.23806e-07
1.23372e-05
-1.16224e-07
1.23968e-05
-1.08912e-07
1.24531e-05
-1.01948e-07
1.25063e-05
-9.53895e-08
1.25566e-05
-8.92746e-08
1.26042e-05
-8.36238e-08
1.26494e-05
-7.84434e-08
1.26922e-05
-7.37281e-08
1.2733e-05
-6.94633e-08
1.27719e-05
-6.5627e-08
1.28091e-05
-6.21925e-08
1.28447e-05
-5.91299e-08
1.2879e-05
-5.64073e-08
1.29119e-05
-5.39925e-08
1.29438e-05
-5.18541e-08
1.29746e-05
-4.99616e-08
1.30046e-05
-4.82864e-08
1.30337e-05
-4.68019e-08
1.3062e-05
-4.54835e-08
1.30897e-05
-4.43088e-08
1.31168e-05
-4.32578e-08
1.31434e-05
-4.23123e-08
1.31694e-05
-4.14566e-08
1.3195e-05
-4.06765e-08
1.32201e-05
-3.99603e-08
1.32449e-05
-3.92974e-08
1.32693e-05
-3.86793e-08
1.32933e-05
-3.80988e-08
1.3317e-05
-3.75498e-08
1.33404e-05
-3.70274e-08
1.33636e-05
-3.65277e-08
1.33864e-05
-3.60473e-08
1.3409e-05
-3.55837e-08
1.34314e-05
-3.51347e-08
1.34535e-05
-3.46986e-08
1.34754e-05
-3.42741e-08
1.3497e-05
-3.38601e-08
1.35185e-05
-3.34557e-08
1.35397e-05
-3.30599e-08
1.35607e-05
-3.26718e-08
1.35816e-05
-3.22908e-08
1.36023e-05
-3.19162e-08
1.36227e-05
-3.15474e-08
1.3643e-05
-3.11841e-08
1.36631e-05
-3.0826e-08
1.36831e-05
-3.0473e-08
1.37028e-05
-3.0125e-08
1.37224e-05
-2.97819e-08
1.37418e-05
-2.94438e-08
1.3761e-05
-2.9111e-08
1.37801e-05
-2.87835e-08
1.3799e-05
-2.84616e-08
1.38178e-05
-2.81453e-08
1.38363e-05
-2.78346e-08
1.38548e-05
-2.75293e-08
1.3873e-05
-2.72293e-08
1.38911e-05
-2.69346e-08
1.39091e-05
-2.66453e-08
1.39269e-05
-2.63613e-08
1.39445e-05
-2.60825e-08
1.3962e-05
-2.58088e-08
1.39794e-05
-2.55394e-08
1.39966e-05
-2.52743e-08
1.40137e-05
-2.50127e-08
1.40306e-05
-2.47545e-08
1.40475e-05
-2.44989e-08
1.40641e-05
-2.42462e-08
1.40807e-05
-2.39954e-08
1.40971e-05
-2.37472e-08
1.41134e-05
-2.35003e-08
1.41296e-05
-2.32558e-08
1.41457e-05
-2.30124e-08
1.41616e-05
-2.27725e-08
1.41774e-05
-2.25339e-08
1.41931e-05
-2.2301e-08
1.42087e-05
-2.20696e-08
1.42241e-05
-2.18473e-08
1.42395e-05
-2.16244e-08
1.42547e-05
-2.14144e-08
1.42698e-05
-2.11992e-08
1.42848e-05
-2.10007e-08
1.42997e-05
-2.07905e-08
1.43145e-05
-2.05998e-08
1.43291e-05
-2.0393e-08
1.43437e-05
-2.02034e-08
1.43581e-05
-2.00052e-08
1.43724e-05
-1.98008e-08
1.43866e-05
-1.96337e-08
1.44006e-05
-1.93759e-08
1.44145e-05
-1.92941e-08
1.44282e-05
-1.88916e-08
1.4442e-05
-1.90065e-08
1.44552e-05
-1.8263e-08
1.44687e-05
-1.87691e-08
1.44813e-05
-1.73102e-08
1.44945e-05
-1.84637e-08
1.45061e-05
-1.5701e-08
1.45187e-05
-1.75233e-08
-1.29477e-08
1.08061e-05
-2.38164e-08
1.08286e-05
-6.56543e-08
1.08657e-05
-1.08159e-07
1.09157e-05
-1.4543e-07
1.09775e-05
-1.79184e-07
1.10493e-05
-2.07388e-07
1.11293e-05
-2.30529e-07
1.12156e-05
-2.4819e-07
1.13064e-05
-2.60849e-07
1.14e-05
-2.68746e-07
1.14949e-05
-2.72424e-07
1.15897e-05
-2.72547e-07
1.16835e-05
-2.69499e-07
1.17752e-05
-2.6388e-07
1.18642e-05
-2.56189e-07
1.195e-05
-2.46917e-07
1.20322e-05
-2.36489e-07
1.21105e-05
-2.25291e-07
1.21848e-05
-2.13653e-07
1.22551e-05
-2.0186e-07
1.23215e-05
-1.90147e-07
1.2384e-05
-1.78708e-07
1.24427e-05
-1.67692e-07
1.2498e-05
-1.57213e-07
1.255e-05
-1.4735e-07
1.25989e-05
-1.38155e-07
1.26449e-05
-1.29653e-07
1.26883e-05
-1.2185e-07
1.27293e-05
-1.14734e-07
1.27681e-05
-1.0828e-07
1.28049e-05
-1.02454e-07
1.284e-05
-9.72146e-08
1.28734e-05
-9.2517e-08
1.29053e-05
-8.83136e-08
1.29358e-05
-8.45571e-08
1.29652e-05
-8.12019e-08
1.29934e-05
-7.82039e-08
1.30207e-05
-7.55223e-08
1.3047e-05
-7.31189e-08
1.30725e-05
-7.09589e-08
1.30972e-05
-6.90106e-08
1.31212e-05
-6.72454e-08
1.31445e-05
-6.56376e-08
1.31673e-05
-6.41647e-08
1.31894e-05
-6.28069e-08
1.3211e-05
-6.1547e-08
1.32321e-05
-6.03705e-08
1.32526e-05
-5.92648e-08
1.32728e-05
-5.82195e-08
1.32924e-05
-5.72259e-08
1.33117e-05
-5.62766e-08
1.33305e-05
-5.53657e-08
1.33489e-05
-5.44883e-08
1.3367e-05
-5.36404e-08
1.33847e-05
-5.28187e-08
1.3402e-05
-5.20206e-08
1.3419e-05
-5.12439e-08
1.34356e-05
-5.04868e-08
1.34519e-05
-4.97476e-08
1.34678e-05
-4.90248e-08
1.34835e-05
-4.83168e-08
1.34988e-05
-4.76223e-08
1.35138e-05
-4.69401e-08
1.35286e-05
-4.62691e-08
1.3543e-05
-4.56087e-08
1.35572e-05
-4.49582e-08
1.3571e-05
-4.43171e-08
1.35846e-05
-4.36852e-08
1.35979e-05
-4.30622e-08
1.36109e-05
-4.24483e-08
1.36237e-05
-4.18435e-08
1.36361e-05
-4.1248e-08
1.36484e-05
-4.06622e-08
1.36603e-05
-4.00859e-08
1.3672e-05
-3.95193e-08
1.36834e-05
-3.89621e-08
1.36946e-05
-3.84144e-08
1.37055e-05
-3.7876e-08
1.37162e-05
-3.7347e-08
1.37267e-05
-3.68273e-08
1.37369e-05
-3.63169e-08
1.37469e-05
-3.58152e-08
1.37567e-05
-3.5322e-08
1.37662e-05
-3.48367e-08
1.37755e-05
-3.43586e-08
1.37847e-05
-3.38874e-08
1.37936e-05
-3.34223e-08
1.38023e-05
-3.29635e-08
1.38108e-05
-3.25096e-08
1.38191e-05
-3.20617e-08
1.38272e-05
-3.16177e-08
1.38352e-05
-3.11798e-08
1.38429e-05
-3.07453e-08
1.38505e-05
-3.03182e-08
1.38579e-05
-2.98945e-08
1.38651e-05
-2.94807e-08
1.38721e-05
-2.90707e-08
1.3879e-05
-2.86739e-08
1.38856e-05
-2.82795e-08
1.38922e-05
-2.79018e-08
1.38985e-05
-2.75225e-08
1.39047e-05
-2.71626e-08
1.39107e-05
-2.67957e-08
1.39166e-05
-2.64485e-08
1.39223e-05
-2.60922e-08
1.39278e-05
-2.57472e-08
1.39332e-05
-2.54076e-08
1.39384e-05
-2.50424e-08
1.39435e-05
-2.47444e-08
1.39484e-05
-2.43104e-08
1.39532e-05
-2.41146e-08
1.39578e-05
-2.3505e-08
1.39623e-05
-2.35312e-08
1.39665e-05
-2.25278e-08
1.39707e-05
-2.29733e-08
1.39745e-05
-2.11771e-08
1.39783e-05
-2.22824e-08
1.39817e-05
-1.90747e-08
1.3985e-05
-2.08428e-08
-1.56138e-08
1.08094e-05
-3.56105e-08
1.08373e-05
-9.35804e-08
1.08825e-05
-1.53382e-07
1.09423e-05
-2.0522e-07
1.10147e-05
-2.51579e-07
1.10972e-05
-2.89911e-07
1.11874e-05
-3.2068e-07
1.12826e-05
-3.43431e-07
1.13806e-05
-3.58832e-07
1.14792e-05
-3.67283e-07
1.15764e-05
-3.69647e-07
1.16708e-05
-3.66994e-07
1.17612e-05
-3.5991e-07
1.18467e-05
-3.4935e-07
1.19266e-05
-3.36097e-07
1.20006e-05
-3.209e-07
1.20685e-05
-3.04392e-07
1.21304e-05
-2.8713e-07
1.21863e-05
-2.69574e-07
1.22366e-05
-2.52107e-07
1.22814e-05
-2.3503e-07
1.23213e-05
-2.18579e-07
1.23566e-05
-2.02928e-07
1.23875e-05
-1.88193e-07
1.24146e-05
-1.74451e-07
1.24382e-05
-1.61739e-07
1.24586e-05
-1.50061e-07
1.24762e-05
-1.39399e-07
1.24912e-05
-1.29716e-07
1.25039e-05
-1.20961e-07
1.25145e-05
-1.13072e-07
1.25232e-05
-1.05983e-07
1.25304e-05
-9.96246e-08
1.2536e-05
-9.39278e-08
1.25402e-05
-8.88253e-08
1.25433e-05
-8.42536e-08
1.25453e-05
-8.01532e-08
1.25462e-05
-7.64693e-08
1.25463e-05
-7.31518e-08
1.25455e-05
-7.01555e-08
1.25439e-05
-6.74396e-08
1.25416e-05
-6.49676e-08
1.25387e-05
-6.27072e-08
1.25352e-05
-6.063e-08
1.25311e-05
-5.87112e-08
1.25265e-05
-5.69297e-08
1.25214e-05
-5.52669e-08
1.25158e-05
-5.37075e-08
1.25098e-05
-5.22382e-08
1.25034e-05
-5.08484e-08
1.24967e-05
-4.95284e-08
1.24896e-05
-4.82707e-08
1.24822e-05
-4.70688e-08
1.24744e-05
-4.59172e-08
1.24664e-05
-4.48114e-08
1.24582e-05
-4.37473e-08
1.24496e-05
-4.27217e-08
1.24409e-05
-4.17317e-08
1.24319e-05
-4.07746e-08
1.24227e-05
-3.9848e-08
1.24134e-05
-3.89496e-08
1.24038e-05
-3.80772e-08
1.23941e-05
-3.72291e-08
1.23843e-05
-3.64037e-08
1.23743e-05
-3.55998e-08
1.23642e-05
-3.48164e-08
1.23539e-05
-3.40528e-08
1.23435e-05
-3.33082e-08
1.23331e-05
-3.25821e-08
1.23225e-05
-3.18743e-08
1.23118e-05
-3.11845e-08
1.23011e-05
-3.05128e-08
1.22903e-05
-2.98589e-08
1.22794e-05
-2.92226e-08
1.22685e-05
-2.86031e-08
1.22576e-05
-2.79998e-08
1.22465e-05
-2.74122e-08
1.22355e-05
-2.68397e-08
1.22244e-05
-2.62823e-08
1.22133e-05
-2.57399e-08
1.22022e-05
-2.52122e-08
1.21911e-05
-2.46988e-08
1.218e-05
-2.41988e-08
1.21688e-05
-2.3712e-08
1.21577e-05
-2.32374e-08
1.21466e-05
-2.27749e-08
1.21355e-05
-2.23237e-08
1.21244e-05
-2.18841e-08
1.21134e-05
-2.14548e-08
1.21024e-05
-2.10364e-08
1.20914e-05
-2.06267e-08
1.20805e-05
-2.02267e-08
1.20696e-05
-1.98338e-08
1.20587e-05
-1.94505e-08
1.20479e-05
-1.90735e-08
1.20372e-05
-1.87075e-08
1.20265e-05
-1.83476e-08
1.20158e-05
-1.80017e-08
1.20052e-05
-1.766e-08
1.19946e-05
-1.73362e-08
1.19841e-05
-1.70126e-08
1.19736e-05
-1.67103e-08
1.19632e-05
-1.64035e-08
1.19529e-05
-1.61186e-08
1.19426e-05
-1.58278e-08
1.19324e-05
-1.55521e-08
1.19222e-05
-1.52818e-08
1.19122e-05
-1.49968e-08
1.19022e-05
-1.47654e-08
1.18923e-05
-1.44334e-08
1.18824e-05
-1.42806e-08
1.18727e-05
-1.3827e-08
1.1863e-05
-1.38189e-08
1.18536e-05
-1.31127e-08
1.1844e-05
-1.33234e-08
1.1835e-05
-1.21715e-08
1.18253e-05
-1.26098e-08
1.18171e-05
-1.07845e-08
1.18075e-05
-1.12691e-08
-8.46017e-09
1.08138e-05
-5.17853e-08
1.08531e-05
-1.32864e-07
1.09152e-05
-2.15479e-07
1.099e-05
-2.8007e-07
1.10687e-05
-3.30193e-07
1.1143e-05
-3.64272e-07
1.12071e-05
-3.84757e-07
1.1257e-05
-3.93319e-07
1.12907e-05
-3.92596e-07
1.13078e-05
-3.84349e-07
1.13089e-05
-3.70696e-07
1.12954e-05
-3.53541e-07
1.12691e-05
-3.33595e-07
1.12318e-05
-3.12019e-07
1.11854e-05
-2.89667e-07
1.11316e-05
-2.67181e-07
1.10723e-05