/*--------------------------------*- C++ -*----------------------------------*\
  =========                 |
  \\      /  F ield         | OpenFOAM: The Open Source CFD Toolbox
   \\    /   O peration     | Website:  https://openfoam.org
    \\  /    A nd           | Version:  7
     \\/     M anipulation  |
\*---------------------------------------------------------------------------*/
FoamFile
{
    version     2.0;
    format      ascii;
    class       surfaceScalarField;
    location    "0.4275";
    object      phi;
}
// * * * * * * * * * * * * * * * * * * * * * * * * * * * * * * * * * * * * * //

dimensions      [1 0 -1 0 0 0 0];

internalField   nonuniform List<scalar> 
13265
(
0.00261906
0.00109951
1.32285e-05
0.00200359
0.000603816
6.58518e-06
0.0016027
0.000384113
1.14235e-05
0.00139663
0.000193906
6.87141e-06
0.00127479
0.000105936
1.07858e-05
0.00120046
6.21883e-05
7.12864e-06
0.00114662
3.86552e-05
1.02357e-05
0.00110781
2.67069e-05
7.21829e-06
0.00107517
1.80934e-05
9.704e-06
0.00105
1.30952e-05
7.2254e-06
0.00102715
8.7107e-06
9.22231e-06
0.00100909
5.84933e-06
7.18734e-06
0.000992702
2.46127e-06
8.78972e-06
0.000980394
-6.24568e-08
7.11966e-06
0.000970297
-3.64798e-06
8.40375e-06
0.000962458
-4.61251e-06
7.0362e-06
0.000951812
-2.88819e-06
8.06881e-06
0.000952362
-1.29732e-05
6.9309e-06
0.000854424
8.44997e-05
7.96703e-06
5.6861e-05
6.51672e-06
0.000785561
0.00389976
0.000928224
2.90232e-06
0.00384973
0.000651879
-3.15748e-06
0.00369875
0.00052761
1.46207e-06
0.00354263
0.000346984
-3.09858e-06
0.00340121
0.000240971
7.93844e-07
0.00328506
0.000176164
-2.88455e-06
0.00318562
0.000133092
2.18371e-07
0.00310516
0.000105465
-2.80574e-06
0.00303524
8.42043e-05
-3.191e-07
0.00297833
6.90271e-05
-2.79904e-06
0.00292742
5.68143e-05
-8.00869e-07
0.00288547
4.69625e-05
-2.83184e-06
0.00284936
3.59049e-05
-1.23488e-06
0.00282041
2.76033e-05
-2.89249e-06
0.00280017
1.3789e-05
-1.64223e-06
0.00278068
1.31528e-05
-2.97015e-06
0.00278222
-7.25906e-06
-2.07371e-06
0.00276521
2.02152e-06
-3.10052e-06
0.00285841
-1.11937e-05
-2.72255e-06
-5.17538e-05
-4.07711e-06
0.00296569
0.00412185
0.000526851
1.13302e-05
0.00436469
0.000398046
5.94866e-06
0.00450989
0.000365791
1.03977e-05
0.00458048
0.000263851
5.86224e-06
0.0046049
0.000200742
9.73976e-06
0.0046119
0.000157948
6.08717e-06
0.00460412
0.000127047
9.20981e-06
0.00459328
0.000105583
6.20275e-06
0.00457639
8.80409e-05
8.69637e-06
0.00456093
7.44504e-05
6.22147e-06
0.00454262
6.38863e-05
8.22343e-06
0.00452711
5.38863e-05
6.19227e-06
0.00450791
4.50627e-05
7.80453e-06
0.0044929
3.39608e-05
6.13387e-06
0.00447112
2.51391e-05
7.44065e-06
0.0044604
1.43901e-05
6.05404e-06
0.00443035
1.18828e-05
7.1732e-06
0.00441901
3.28454e-06
5.96245e-06
0.00436018
3.58875e-05
7.32102e-06
4.21041e-05
5.85746e-06
0.00425537
0.00407754
0.000178248
2.47027e-06
0.0043371
0.000136362
-2.90024e-06
0.00456666
0.00012848
1.46538e-06
0.00473148
9.53157e-05
-3.10137e-06
0.00485078
7.45037e-05
7.48394e-07
0.00494565
6.08888e-05
-2.93557e-06
0.00501704
5.10035e-05
1.77407e-07
0.00507668
4.43508e-05
-2.8427e-06
0.00512206
3.84506e-05
-3.51778e-07
0.00516107
3.40277e-05
-2.83174e-06
0.00519262
2.97971e-05
-8.34329e-07
0.00522025
2.68164e-05
-2.8622e-06
0.00524283
2.21279e-05
-1.26575e-06
0.00525815
1.99616e-05
-2.91761e-06
0.0052707
1.22029e-05
-1.68003e-06
0.00527199
1.34148e-05
-3.00724e-06
0.00528391
-9.29423e-07
-2.16041e-06
0.00528165
5.26675e-06
-3.20266e-06
0.00533353
-1.6563e-05
-3.05728e-06
-3.19197e-05
-4.13869e-06
0.00540724
0.00407722
-0.000178248
1.10672e-05
0.00433886
-0.000136362
6.0527e-06
0.00457915
-0.000128481
1.03735e-05
0.00475708
-9.53151e-05
5.85318e-06
0.00489015
-7.45033e-05
9.7042e-06
0.00500075
-6.08854e-05
6.04867e-06
0.00508915
-5.10008e-05
9.17458e-06
0.00516725
-4.43444e-05
6.17051e-06
0.00523085
-3.84421e-05
8.66673e-06
0.00528828
-3.40136e-05
6.1921e-06
0.00533608
-2.9771e-05
8.19413e-06
0.00538111
-2.67744e-05
6.16475e-06
0.00541598
-2.20597e-05
7.78138e-06
0.00544828
-1.98114e-05
6.1142e-06
0.00546333
-1.20669e-05
7.4284e-06
0.0054811
-1.28754e-05
6.03749e-06
0.00546887
1.2356e-06
7.18489e-06
0.00546843
-3.57016e-06
5.94691e-06
0.00542314
1.7921e-05
7.41739e-06
3.57715e-05
5.93275e-06
0.00534531
0.00407754
-0.000526851
2.47027e-06
0.0043371
-0.000398046
-2.90024e-06
0.00456666
-0.000365792
1.46538e-06
0.00473148
-0.00026385
-3.10137e-06
0.00485078
-0.000200742
7.48395e-07
0.00494565
-0.000157945
-2.93557e-06
0.00501704
-0.000127044
1.77404e-07
0.00507668
-0.000105577
-2.8427e-06
0.00512206
-8.80334e-05
-3.51775e-07
0.00516107
-7.44378e-05
-2.83174e-06
0.00519263
-6.38633e-05
-8.34328e-07
0.00522026
-5.38498e-05
-2.86222e-06
0.00524285
-4.50035e-05
-1.26578e-06
0.0052582
-3.38336e-05
-2.91769e-06
0.00527076
-2.50217e-05
-1.68012e-06
0.00527211
-1.39061e-05
-3.00746e-06
0.00528406
-1.16112e-05
-2.16075e-06
0.00528201
-1.78671e-06
-3.20279e-06
0.00533409
-3.475e-05
-3.05657e-06
-3.86665e-05
-4.13979e-06
0.00540824
0.00412185
-0.000928224
1.13302e-05
0.00436469
-0.000651879
5.94866e-06
0.00450989
-0.000527611
1.03977e-05
0.00458048
-0.000346984
5.86225e-06
0.0046049
-0.000240971
9.73977e-06
0.0046119
-0.000176162
6.08717e-06
0.00460412
-0.00013309
9.20981e-06
0.00459328
-0.000105461
6.20275e-06
0.0045764
-8.41985e-05
8.69637e-06
0.00456094
-6.90181e-05
6.22147e-06
0.00454264
-5.67979e-05
8.22342e-06
0.00452714
-4.69365e-05
6.19226e-06
0.00450796
-3.58641e-05
7.80449e-06
0.00449297
-2.75091e-05
6.13389e-06
0.00447123
-1.37153e-05
7.44061e-06
0.00446067
-1.2821e-05
6.05405e-06
0.00443074
7.40057e-06
7.17286e-06
0.00441985
-9.49699e-07
5.96251e-06
0.00436146
1.18518e-05
7.32039e-06
5.38389e-05
5.85718e-06
0.00425806
0.00389976
-0.00109951
2.90232e-06
0.00384973
-0.000603816
-3.15747e-06
0.00369875
-0.000384113
1.46208e-06
0.00354263
-0.000193906
-3.09857e-06
0.00340121
-0.000105936
7.93856e-07
0.00328506
-6.21877e-05
-2.88455e-06
0.00318563
-3.86542e-05
2.18369e-07
0.00310517
-2.67055e-05
-2.80575e-06
0.00303525
-1.80904e-05
-3.19104e-07
0.00297834
-1.30918e-05
-2.79905e-06
0.00292744
-8.70302e-06
-8.00884e-07
0.0028855
-5.84066e-06
-2.83189e-06
0.00284942
-2.44321e-06
-1.23492e-06
0.00282053
9.43512e-08
-2.8926e-06
0.00280032
3.68659e-06
-1.6423e-06
0.00278104
4.73631e-06
-2.97025e-06
0.00278261
2.9879e-06
-2.07368e-06
0.00276636
1.33264e-05
-3.10108e-06
0.00285962
-8.39935e-05
-2.7206e-06
-5.58662e-05
-4.08026e-06
0.00296813
0.00261906
1.32286e-05
0.00200359
6.58525e-06
0.0016027
1.14236e-05
0.00139663
6.87149e-06
0.00127479
1.07859e-05
0.00120046
7.12871e-06
0.00114662
1.02358e-05
0.00110781
7.21836e-06
0.00107518
9.70406e-06
0.00105001
7.22546e-06
0.00102717
9.22236e-06
0.00100912
7.18741e-06
0.000992741
8.78974e-06
0.000980464
7.11976e-06
0.000970405
8.40368e-06
0.00096269
7.03649e-06
0.000952142
8.06846e-06
0.000953053
6.93123e-06
0.000855594
7.96668e-06
6.51639e-06
0.000787792
0.00340933
0.000331693
2.98266e-06
0.00283554
0.000570471
4.77949e-06
0.0023344
0.000504877
2.08694e-06
0.00197415
0.000358137
3.51741e-06
0.00173993
0.000238022
1.82265e-06
0.00158859
0.000150581
2.94592e-06
0.00149238
9.98196e-05
1.84781e-06
0.00142326
6.89541e-05
2.70896e-06
0.0013761
5.03312e-05
1.93049e-06
0.00133756
3.85989e-05
2.53487e-06
0.0013102
2.98845e-05
1.97106e-06
0.00128591
2.42499e-05
2.34739e-06
0.00126901
1.86801e-05
1.97163e-06
0.00125377
1.50108e-05
2.18694e-06
0.00124519
9.7241e-06
1.97311e-06
0.00123547
9.29585e-06
2.07704e-06
0.00124554
-9.4301e-06
1.99095e-06
0.00122788
1.70962e-05
2.01443e-06
0.00138533
-0.0001568
1.91351e-06
-0.000135662
2.14547e-06
0.0015199
0.00385541
0.000202619
7.78128e-06
0.00392281
0.000485419
9.32085e-06
0.00391691
0.000498792
7.28186e-06
0.00384382
0.000413587
8.26749e-06
0.00375405
0.000316001
6.98603e-06
0.00365807
0.000230903
7.78692e-06
0.00357319
0.000173215
7.02011e-06
0.00349434
0.00013304
7.58633e-06
0.0034283
0.000105103
7.09542e-06
0.00336797
8.54021e-05
7.42707e-06
0.00331764
6.92703e-05
7.10665e-06
0.0032722
5.64635e-05
7.26006e-06
0.00323498
4.41499e-05
7.07785e-06
0.0032046
3.16036e-05
7.11435e-06
0.00317833
2.31608e-05
7.05988e-06
0.00316442
8.77123e-06
7.01027e-06
0.00313523
5.82381e-06
7.09485e-06
0.00313889
-1.71101e-06
6.9572e-06
0.00301762
-5.07673e-05
7.2667e-06
1.2748e-05
7.30921e-06
0.00285242
0.00385005
9.17722e-05
3.03228e-06
0.00405114
0.000280281
4.85057e-06
0.00423058
0.000321145
2.2693e-06
0.00435254
0.000287181
3.75547e-06
0.00443239
0.000238179
1.94325e-06
0.00447279
0.000188526
3.15302e-06
0.00449535
0.000153342
1.94146e-06
0.00450078
0.000126389
2.89242e-06
0.0045018
0.000106522
2.03008e-06
0.00449586
9.13942e-05
2.71462e-06
0.00449048
7.82369e-05
2.08464e-06
0.00448043
6.81287e-05
2.54141e-06
0.00447228
5.5928e-05
2.10101e-06
0.00445821
4.6916e-05
2.38981e-06
0.00445174
3.19753e-05
2.10665e-06
0.00443375
2.71317e-05
2.27726e-06
0.00443864
2.25441e-06
2.09499e-06
0.00442316
1.32465e-05
2.21997e-06
0.00445102
-7.787e-05
1.87426e-06
-5.37833e-05
2.24442e-06
0.00451571
0.00377569
4.21558e-05
7.63968e-06
0.00394646
9.22078e-05
9.20772e-06
0.00415814
9.72561e-05
7.27225e-06
0.00433858
8.87332e-05
8.29373e-06
0.00449076
7.40149e-05
6.99794e-06
0.00460399
5.976e-05
7.78511e-06
0.00469696
4.90639e-05
7.00006e-06
0.00476728
4.10643e-05
7.55853e-06
0.00482692
3.49533e-05
7.06115e-06
0.00487403
3.02248e-05
7.39188e-06
0.00491542
2.62035e-05
7.0742e-06
0.0049492
2.24466e-05
7.23235e-06
0.00497597
1.93216e-05
7.0574e-06
0.00499673
1.43166e-05
7.09611e-06
0.00500472
1.28459e-05
7.048e-06
0.00501382
5.11414e-06
6.99675e-06
0.00499463
8.94903e-06
7.10282e-06
0.00499129
2.70997e-06
6.9762e-06
0.00489199
6.90951e-06
7.39803e-06
3.79413e-05
7.36964e-06
0.00478356
0.00382328
-4.2156e-05
3.01036e-06
0.00400373
-9.22076e-05
4.84428e-06
0.00419991
-9.72567e-05
2.31897e-06
0.0043728
-8.87317e-05
3.81252e-06
0.0045228
-7.40147e-05
1.9879e-06
0.00464038
-5.97572e-05
3.19754e-06
0.00474126
-4.90635e-05
1.96896e-06
0.00482204
-4.10594e-05
2.9183e-06
0.00489398
-3.49478e-05
2.04761e-06
0.00495393
-3.02114e-05
2.73177e-06
0.00500959
-2.61839e-05
2.10152e-06
0.00505625
-2.2403e-05
2.56267e-06
0.00509913
-1.92724e-05
2.12491e-06
0.00512968
-1.4155e-05
2.41684e-06
0.00515832
-1.27265e-05
2.13061e-06
0.005169
-4.61781e-06
2.3022e-06
0.00518846
-8.50721e-06
2.10108e-06
0.00519278
-1.42924e-06
2.24639e-06
0.00520664
-5.18096e-06
1.83431e-06
-3.43967e-05
2.2537e-06
0.0052777
0.00377569
-9.17723e-05
7.63968e-06
0.00394646
-0.000280281
9.20772e-06
0.00415814
-0.000321145
7.27225e-06
0.00433858
-0.000287179
8.29373e-06
0.00449076
-0.000238179
6.99793e-06
0.00460399
-0.000188523
7.78511e-06
0.00469696
-0.000153341
7.00006e-06
0.00476728
-0.000126384
7.55853e-06
0.00482692
-0.000106517
7.06115e-06
0.00487404
-9.13816e-05
7.39188e-06
0.00491543
-7.82196e-05
7.0742e-06
0.00494921
-6.8088e-05
7.23236e-06
0.00497599
-5.58846e-05
7.0574e-06
0.00499676
-4.67674e-05
7.09617e-06
0.00500476
-3.1873e-05
7.04801e-06
0.0050139
-2.66758e-05
6.99695e-06
0.00499479
-1.88586e-06
7.10313e-06
0.00499159
-1.20984e-05
6.9763e-06
0.0048925
7.93792e-05
7.39745e-06
5.68853e-05
7.36989e-06
0.00478453
0.00385005
-0.000202619
3.03228e-06
0.00405114
-0.000485419
4.85057e-06
0.00423058
-0.000498793
2.2693e-06
0.00435254
-0.000413587
3.75547e-06
0.00443239
-0.000316001
1.94324e-06
0.00447279
-0.000230902
3.15302e-06
0.00449535
-0.000173215
1.94146e-06
0.00450078
-0.000133036
2.89242e-06
0.0045018
-0.000105099
2.03008e-06
0.00449587
-8.53933e-05
2.71461e-06
0.00449049
-6.92565e-05
2.08464e-06
0.00448045
-5.6435e-05
2.5414e-06
0.00447231
-4.41158e-05
2.10102e-06
0.00445829
-3.15017e-05
2.38978e-06
0.00445184
-2.3079e-05
2.10665e-06
0.00443399
-8.44734e-06
2.27724e-06
0.00443893
-5.5193e-06
2.09502e-06
0.00442385
2.48988e-06
2.21977e-06
0.00445196
5.19749e-05
1.8741e-06
-1.02319e-05
2.24368e-06
0.00451729
0.00385541
-0.000331693
7.78128e-06
0.00392281
-0.000570471
9.32085e-06
0.00391691
-0.000504878
7.28186e-06
0.00384382
-0.000358137
8.26748e-06
0.00375405
-0.000238022
6.98603e-06
0.00365808
-0.00015058
7.78692e-06
0.00357319
-9.98189e-05
7.02011e-06
0.00349434
-6.89526e-05
7.58634e-06
0.00342831
-5.03286e-05
7.09542e-06
0.00336798
-3.8595e-05
7.42708e-06
0.00331765
-2.98771e-05
7.10664e-06
0.00327223
-2.42364e-05
7.26009e-06
0.00323503
-1.86629e-05
7.07784e-06
0.00320469
-1.4959e-05
7.11444e-06
0.00317848
-9.69182e-06
7.05988e-06
0.00316474
-9.13394e-06
7.01034e-06
0.00313573
9.53464e-06
7.09482e-06
0.0031398
-1.66778e-05
6.9575e-06
0.00301929
0.00015716
7.26542e-06
0.000136213
7.31049e-06
0.00285617
0.00340934
2.98265e-06
0.00283554
4.77949e-06
0.0023344
2.08695e-06
0.00197415
3.51741e-06
0.00173993
1.82265e-06
0.00158859
2.94591e-06
0.00149238
1.84781e-06
0.00142327
2.70895e-06
0.00137611
1.93049e-06
0.00133757
2.53485e-06
0.00131021
1.97105e-06
0.00128594
2.34739e-06
0.00126906
1.97162e-06
0.00125387
2.18699e-06
0.00124532
1.97309e-06
0.00123576
2.07701e-06
0.00124593
1.99105e-06
0.00122871
2.01408e-06
0.00138645
1.91394e-06
2.14412e-06
0.00152172
0.00359591
0.00014064
-2.98274e-06
0.00333552
0.000264669
-4.77959e-06
0.00301834
0.000315406
-2.08703e-06
0.00270773
0.000311883
-3.5175e-06
0.00242667
0.000279424
-1.82273e-06
0.00219393
0.000233838
-2.94601e-06
0.00200692
0.000186327
-1.84789e-06
0.00186618
0.000142024
-2.70905e-06
0.00176342
0.000102492
-1.93057e-06
0.00169517
6.90731e-05
-2.53495e-06
0.00165135
4.33345e-05
-1.97114e-06
0.00162514
2.62819e-05
-2.34747e-06
0.00160988
1.43919e-05
-1.97172e-06
0.0015996
9.70351e-06
-2.18702e-06
0.00159644
2.02416e-06
-1.9732e-06
0.00158913
6.3148e-06
-2.07713e-06
0.00159662
-8.70276e-06
-1.99104e-06
0.00158545
9.9962e-06
-2.01452e-06
0.00161301
-2.88131e-05
-1.9136e-06
-2.59687e-05
-2.14556e-06
0.00163812
0.00379631
9.05545e-05
-7.78138e-06
0.00388323
0.00019113
-9.32096e-06
0.00394717
0.000259626
-7.28196e-06
0.00397992
0.000289294
-8.26759e-06
0.00397895
0.000288834
-6.98613e-06
0.00395721
0.000266277
-7.78703e-06
0.00391925
0.000233715
-7.02023e-06
0.00387561
0.000196587
-7.58645e-06
0.00382871
0.00016005
-7.09553e-06
0.0037841
0.000125753
-7.42718e-06
0.00374189
9.73432e-05
-7.10676e-06
0.00370516
7.49956e-05
-7.26017e-06
0.00367412
5.66719e-05
-7.07796e-06
0.00365053
4.42062e-05
-7.11446e-06
0.00363402
2.89219e-05
-7.05999e-06
0.0036231
2.70798e-05
-7.01038e-06
0.00361839
5.5322e-06
-7.09497e-06
0.00361179
2.53761e-05
-6.95732e-06
0.00361091
-1.87795e-05
-7.26682e-06
2.69694e-05
-7.30934e-06
0.00356712
0.00378245
4.48511e-05
-3.03237e-06
0.00387507
0.000102948
-4.85067e-06
0.00398547
0.000147269
-2.26938e-06
0.00410519
0.000170606
-3.75556e-06
0.00421588
0.000176545
-1.94333e-06
0.00431442
0.000169312
-3.15312e-06
0.00439332
0.000154087
-1.94155e-06
0.0044559
0.000135173
-2.89251e-06
0.00450172
0.000114178
-2.03017e-06
0.00453565
9.41727e-05
-2.71471e-06
0.00455907
7.60361e-05
-2.08474e-06
0.004575
6.2539e-05
-2.54151e-06
0.00458481
4.92454e-05
-2.10111e-06
0.00458991
4.153e-05
-2.38992e-06
0.00459287
2.73362e-05
-2.10675e-06
0.00459412
2.71701e-05
-2.27736e-06
0.00459543
4.77992e-06
-2.0951e-06
0.00459907
2.18456e-05
-2.22007e-06
0.00459743
-1.83851e-05
-1.87436e-06
1.27823e-05
-2.24452e-06
0.00461017
0.00377096
1.98493e-05
-7.63978e-06
0.00384803
3.90146e-05
-9.20783e-06
0.00395093
5.23961e-05
-7.27235e-06
0.00407252
5.9141e-05
-8.29384e-06
0.00419626
6.1383e-05
-6.99804e-06
0.00431721
5.92738e-05
-7.78522e-06
0.00442554
5.51631e-05
-7.00017e-06
0.0045219
4.92077e-05
-7.55864e-06
0.00460287
4.30173e-05
-7.06125e-06
0.00467212
3.64466e-05
-7.39199e-06
0.0047293
3.09684e-05
-7.07431e-06
0.00477869
2.62479e-05
-7.23247e-06
0.00481827
2.23347e-05
-7.05751e-06
0.00485271
1.92693e-05
-7.09623e-06
0.00487638
1.51703e-05
-7.04812e-06
0.00490026
1.43278e-05
-6.99687e-06
0.00490847
7.5406e-06
-7.10294e-06
0.0049268
1.36222e-05
-6.97632e-06
0.00491772
1.02443e-06
-7.39815e-06
2.12157e-05
-7.36976e-06
0.00491823
0.0037764
-1.98496e-05
-3.01045e-06
0.00385885
-3.90141e-05
-4.84437e-06
0.00396176
-5.23971e-05
-2.31905e-06
0.0040812
-5.91394e-05
-3.81262e-06
0.00420252
-6.13841e-05
-1.98799e-06
0.00432281
-5.92709e-05
-3.19763e-06
0.00443248
-5.51634e-05
-1.96905e-06
0.00453198
-4.92023e-05
-2.91839e-06
0.00461775
-4.30135e-05
-2.0477e-06
0.0046928
-3.64323e-05
-2.73186e-06
0.00475687
-3.09558e-05
-2.10162e-06
0.00481312
-2.61994e-05
-2.56277e-06
0.00486062
-2.23066e-05
-2.125e-06
0.00490189
-1.91039e-05
-2.41694e-06
0.00493387
-1.51053e-05
-2.13071e-06
0.0049637
-1.38208e-05
-2.3023e-06
0.00497956
-7.28835e-06
-2.10118e-06
0.00500631
-1.23584e-05
-2.24649e-06
0.00500639
3.07485e-07
-1.8344e-06
-1.85843e-05
-2.2538e-06
0.005045
0.00377096
-4.48513e-05
-7.63978e-06
0.00384803
-0.000102947
-9.20783e-06
0.00395093
-0.00014727
-7.27235e-06
0.00407252
-0.000170605
-8.29384e-06
0.00419626
-0.000176546
-6.99804e-06
0.00431721
-0.000169309
-7.78522e-06
0.00442554
-0.000154087
-7.00017e-06
0.0045219
-0.000135167
-7.55864e-06
0.00460287
-0.000114175
-7.06125e-06
0.00467213
-9.41585e-05
-7.39199e-06
0.0047293
-7.60253e-05
-7.07431e-06
0.0047787
-6.24926e-05
-7.23248e-06
0.00481827
-4.92213e-05
-7.05752e-06
0.00485272
-4.13731e-05
-7.09628e-06
0.0048764
-2.7282e-05
-7.04812e-06
0.00490032
-2.66912e-05
-6.99706e-06
0.00490856
-4.56201e-06
-7.10325e-06
0.00492698
-2.06601e-05
-6.97641e-06
0.00491802
1.95861e-05
-7.39756e-06
-1.03499e-05
-7.37e-06
0.00491873
0.00378245
-9.05546e-05
-3.03237e-06
0.00387507
-0.000191129
-4.85067e-06
0.00398547
-0.000259627
-2.26939e-06
0.00410519
-0.000289293
-3.75557e-06
0.00421588
-0.000288835
-1.94333e-06
0.00431442
-0.000266274
-3.15312e-06
0.00439332
-0.000233715
-1.94155e-06
0.0044559
-0.000196582
-2.89251e-06
0.00450172
-0.000160048
-2.03017e-06
0.00453565
-0.000125741
-2.71471e-06
0.00455907
-9.73357e-05
-2.08474e-06
0.00457502
-7.49566e-05
-2.5415e-06
0.00458483
-5.66556e-05
-2.10111e-06
0.00458996
-4.40762e-05
-2.38987e-06
0.00459294
-2.8888e-05
-2.10673e-06
0.00459428
-2.66877e-05
-2.27733e-06
0.00459563
-5.37095e-06
-2.09512e-06
0.00459952
-2.44243e-05
-2.21986e-06
0.00459811
1.97353e-05
-1.87419e-06
-2.50342e-05
-2.24377e-06
0.00461137
0.00379631
-0.00014064
-7.78138e-06
0.00388323
-0.000264669
-9.32096e-06
0.00394717
-0.000315406
-7.28197e-06
0.00397992
-0.000311882
-8.2676e-06
0.00397895
-0.000279424
-6.98614e-06
0.00395721
-0.000233837
-7.78703e-06
0.00391925
-0.000186327
-7.02022e-06
0.00387562
-0.000142023
-7.58645e-06
0.00382871
-0.00010249
-7.09552e-06
0.00378411
-6.90676e-05
-7.4272e-06
0.00374191
-4.33291e-05
-7.10675e-06
0.00370519
-2.62625e-05
-7.26021e-06
0.00367416
-1.43811e-05
-7.07795e-06
0.00365062
-9.63456e-06
-7.11456e-06
0.00363414
-2.00633e-06
-7.05999e-06
0.0036234
-6.10327e-06
-7.01046e-06
0.00361874
8.79536e-06
-7.09494e-06
0.00361265
-9.50456e-06
-6.95762e-06
0.00361207
2.93843e-05
-7.26553e-06
2.67553e-05
-7.31059e-06
0.00356952
0.00359591
-2.98275e-06
0.00333552
-4.77959e-06
0.00301834
-2.08703e-06
0.00270773
-3.5175e-06
0.00242667
-1.82273e-06
0.00219393
-2.94601e-06
0.00200692
-1.84789e-06
0.00186618
-2.70905e-06
0.00176343
-1.93058e-06
0.00169518
-2.53496e-06
0.00165137
-1.97115e-06
0.00162517
-2.3475e-06
0.00160993
-1.97172e-06
0.00159971
-2.18709e-06
0.00159658
-1.97319e-06
0.00158947
-2.07712e-06
0.00159705
-1.99115e-06
0.0015864
-2.01418e-06
0.00161442
-1.91403e-06
-2.14423e-06
0.00164055
0.00340933
0.000331693
-1.32287e-05
0.00283554
0.000570471
-6.58531e-06
0.0023344
0.000504878
-1.14237e-05
0.00197415
0.000358137
-6.87155e-06
0.00173993
0.000238022
-1.07859e-05
0.00158859
0.00015058
-7.12877e-06
0.00149238
9.98195e-05
-1.02359e-05
0.00142326
6.8954e-05
-7.21842e-06
0.0013761
5.0331e-05
-9.70413e-06
0.00133756
3.85986e-05
-7.22552e-06
0.0013102
2.98842e-05
-9.22244e-06
0.00128591
2.42496e-05
-7.18747e-06
0.00126901
1.86799e-05
-8.78985e-06
0.00125377
1.50106e-05
-7.11979e-06
0.00124519
9.72394e-06
-8.40388e-06
0.00123547
9.29575e-06
-7.03634e-06
0.00124554
-9.43012e-06
-8.06895e-06
0.00122788
1.70962e-05
-6.93104e-06
0.00138533
-0.0001568
-7.96716e-06
-0.000135662
-6.51685e-06
0.00151989
0.00385541
0.000202619
-2.90239e-06
0.00392281
0.000485419
3.15741e-06
0.00391691
0.000498792
-1.46214e-06
0.00384382
0.000413587
3.0985e-06
0.00375405
0.000316001
-7.93918e-07
0.00365807
0.000230903
2.88449e-06
0.00357319
0.000173215
-2.18431e-07
0.00349434
0.00013304
2.80568e-06
0.0034283
0.000105103
3.19041e-07
0.00336797
8.54019e-05
2.79898e-06
0.00331764
6.927e-05
8.00817e-07
0.0032722
5.64634e-05
2.83179e-06
0.00323498
4.41499e-05
1.23484e-06
0.0032046
3.16037e-05
2.89244e-06
0.00317833
2.3161e-05
1.64218e-06
0.00316442
8.77139e-06
2.9701e-06
0.00313523
5.82406e-06
2.07366e-06
0.00313889
-1.71076e-06
3.10047e-06
0.00301762
-5.0767e-05
2.72249e-06
1.27483e-05
4.07705e-06
0.00285242
0.00385005
9.17722e-05
-1.13302e-05
0.00405114
0.000280282
-5.94872e-06
0.00423058
0.000321145
-1.03978e-05
0.00435254
0.00028718
-5.86232e-06
0.00443238
0.000238179
-9.73983e-06
0.00447279
0.000188526
-6.08723e-06
0.00449535
0.000153342
-9.20987e-06
0.00450078
0.000126389
-6.20282e-06
0.0045018
0.000106522
-8.69644e-06
0.00449586
9.1394e-05
-6.22154e-06
0.00449048
7.82367e-05
-8.22349e-06
0.00448043
6.81289e-05
-6.19232e-06
0.00447228
5.59286e-05
-7.80457e-06
0.00445821
4.69168e-05
-6.13392e-06
0.00445174
3.19762e-05
-7.4407e-06
0.00443375
2.71324e-05
-6.0541e-06
0.00443864
2.25503e-06
-7.17325e-06
0.00442316
1.3247e-05
-5.9625e-06
0.00445102
-7.78694e-05
-7.32107e-06
-5.37826e-05
-5.85752e-06
0.00451571
0.00377569
4.21558e-05
-2.47034e-06
0.00394646
9.22079e-05
2.90017e-06
0.00415814
9.72561e-05
-1.46545e-06
0.00433858
8.87328e-05
3.1013e-06
0.00449076
7.40143e-05
-7.48459e-07
0.00460399
5.97597e-05
2.93551e-06
0.00469696
4.9064e-05
-1.7747e-07
0.00476728
4.10645e-05
2.84263e-06
0.00482692
3.49532e-05
3.51709e-07
0.00487403
3.02245e-05
2.83167e-06
0.00491542
2.62032e-05
8.34262e-07
0.0049492
2.24468e-05
2.86214e-06
0.00497597
1.93223e-05
1.26569e-06
0.00499673
1.43178e-05
2.91755e-06
0.00500472
1.28472e-05
1.67998e-06
0.00501382
5.1152e-06
3.00718e-06
0.00499463
8.94995e-06
2.16035e-06
0.00499129
2.71063e-06
3.2026e-06
0.00489199
6.91025e-06
3.05722e-06
3.79421e-05
4.13863e-06
0.00478356
0.00382328
-4.2156e-05
-1.10673e-05
0.00400373
-9.22075e-05
-6.05277e-06
0.00419991
-9.72567e-05
-1.03735e-05
0.0043728
-8.87321e-05
-5.85325e-06
0.0045228
-7.40153e-05
-9.70426e-06
0.00464038
-5.97575e-05
-6.04873e-06
0.00474126
-4.90634e-05
-9.17465e-06
0.00482204
-4.10593e-05
-6.17058e-06
0.00489397
-3.49479e-05
-8.6668e-06
0.00495393
-3.02118e-05
-6.19216e-06
0.00500959
-2.61842e-05
-8.1942e-06
0.00505625
-2.24028e-05
-6.16481e-06
0.00509913
-1.92717e-05
-7.78145e-06
0.00512968
-1.41537e-05
-6.11427e-06
0.00515832
-1.27252e-05
-7.42847e-06
0.005169
-4.61676e-06
-6.03756e-06
0.00518846
-8.50633e-06
-7.18496e-06
0.00519278
-1.42857e-06
-5.94698e-06
0.00520664
-5.1802e-06
-7.41746e-06
-3.43959e-05
-5.93281e-06
0.0052777
0.00377569
-9.17723e-05
-2.47034e-06
0.00394646
-0.000280281
2.90017e-06
0.00415814
-0.000321145
-1.46545e-06
0.00433858
-0.00028718
3.1013e-06
0.00449076
-0.00023818
-7.48458e-07
0.00460399
-0.000188524
2.93551e-06
0.00469696
-0.000153341
-1.77472e-07
0.00476728
-0.000126384
2.84264e-06
0.00482692
-0.000106517
3.51712e-07
0.00487404
-9.13818e-05
2.83168e-06
0.00491543
-7.82197e-05
8.34267e-07
0.00494921
-6.80878e-05
2.86215e-06
0.00497599
-5.5884e-05
1.2657e-06
0.00499676
-4.67665e-05
2.91761e-06
0.00500476
-3.18721e-05
1.68004e-06
0.0050139
-2.66751e-05
3.00738e-06
0.00499479
-1.88525e-06
2.16068e-06
0.00499159
-1.20979e-05
3.20271e-06
0.0048925
7.93798e-05
3.05649e-06
5.6886e-05
4.13971e-06
0.00478452
0.00385005
-0.000202619
-1.13302e-05
0.00405114
-0.000485419
-5.94873e-06
0.00423058
-0.000498793
-1.03978e-05
0.00435254
-0.000413587
-5.86231e-06
0.00443238
-0.000316001
-9.73982e-06
0.00447279
-0.000230902
-6.08723e-06
0.00449535
-0.000173215
-9.20988e-06
0.00450078
-0.000133036
-6.20282e-06
0.0045018
-0.000105099
-8.69643e-06
0.00449587
-8.53934e-05
-6.22153e-06
0.00449049
-6.92567e-05
-8.22349e-06
0.00448045
-5.6435e-05
-6.19234e-06
0.00447231
-4.41157e-05
-7.80458e-06
0.00445829
-3.15015e-05
-6.13398e-06
0.00445184
-2.30789e-05
-7.4407e-06
0.00443399
-8.44719e-06
-6.05414e-06
0.00443893
-5.51906e-06
-7.17294e-06
0.00442385
2.49019e-06
-5.9626e-06
0.00445197
5.19753e-05
-7.32047e-06
-1.02314e-05
-5.85725e-06
0.00451729
0.00385541
-0.000331693
-2.9024e-06
0.00392281
-0.000570471
3.15741e-06
0.00391691
-0.000504878
-1.46214e-06
0.00384382
-0.000358137
3.09852e-06
0.00375405
-0.000238022
-7.9391e-07
0.00365808
-0.00015058
2.88449e-06
0.00357319
-9.9819e-05
-2.18437e-07
0.00349434
-6.89527e-05
2.80568e-06
0.00342831
-5.03288e-05
3.19034e-07
0.00336798
-3.85952e-05
2.79898e-06
0.00331765
-2.98774e-05
8.00805e-07
0.00327223
-2.42367e-05
2.8318e-06
0.00323503
-1.86631e-05
1.23483e-06
0.00320469
-1.49592e-05
2.89252e-06
0.00317848
-9.69195e-06
1.64222e-06
0.00316474
-9.13401e-06
2.97017e-06
0.00313573
9.53466e-06
2.0736e-06
0.0031398
-1.66777e-05
3.101e-06
0.00301929
0.00015716
2.72052e-06
0.000136213
4.08019e-06
0.00285617
0.00340933
-1.32286e-05
0.00283554
-6.58525e-06
0.0023344
-1.14236e-05
0.00197415
-6.87149e-06
0.00173993
-1.07859e-05
0.00158859
-7.12871e-06
0.00149238
-1.02358e-05
0.00142327
-7.21837e-06
0.0013761
-9.70406e-06
0.00133757
-7.22547e-06
0.00131021
-9.22236e-06
0.00128594
-7.18742e-06
0.00126906
-8.78975e-06
0.00125387
-7.11977e-06
0.00124532
-8.40369e-06
0.00123576
-7.0365e-06
0.00124593
-8.06846e-06
0.00122871
-6.93124e-06
0.00138645
-7.96669e-06
-6.51638e-06
0.00152172
0.00261906
0.00109951
0.00200359
0.000603816
0.0016027
0.000384113
0.00139663
0.000193906
0.00127479
0.000105936
0.00120046
6.21881e-05
0.00114662
3.86548e-05
0.00110781
2.67063e-05
0.00107517
1.80926e-05
0.00105
1.30942e-05
0.00102715
8.70972e-06
0.00100909
5.84843e-06
0.000992701
2.46047e-06
0.000980394
-6.31446e-08
0.000970296
-3.64855e-06
0.000962458
-4.61297e-06
0.000951812
-2.88853e-06
0.000952362
-1.29734e-05
0.000854423
8.44996e-05
5.68609e-05
0.000785561
0.00389976
0.000928223
0.00384973
0.000651879
0.00369875
0.000527611
0.00354263
0.000346984
0.00340121
0.000240971
0.00328506
0.000176164
0.00318562
0.000133091
0.00310517
0.000105464
0.00303524
8.4203e-05
0.00297833
6.90257e-05
0.00292742
5.68128e-05
0.00288547
4.6961e-05
0.00284936
3.59034e-05
0.00282041
2.7602e-05
0.00280016
1.37879e-05
0.00278068
1.31519e-05
0.00278222
-7.2599e-06
0.00276521
2.02093e-06
0.00285841
-1.11942e-05
-5.17541e-05
0.00296569
0.00412185
0.000526851
0.00436469
0.000398046
0.00450989
0.000365792
0.00458048
0.000263851
0.0046049
0.000200742
0.0046119
0.000157947
0.00460412
0.000127046
0.00459328
0.000105582
0.00457639
8.80394e-05
0.00456094
7.44488e-05
0.00454262
6.38846e-05
0.00452711
5.38845e-05
0.00450791
4.50609e-05
0.0044929
3.39593e-05
0.00447112
2.51377e-05
0.0044604
1.4389e-05
0.00443035
1.18818e-05
0.00441901
3.28375e-06
0.00436018
3.58867e-05
4.21038e-05
0.00425537
0.00407754
0.000178248
0.0043371
0.000136362
0.00456666
0.00012848
0.00473148
9.53161e-05
0.00485078
7.45032e-05
0.00494565
6.08877e-05
0.00501704
5.1002e-05
0.00507668
4.43492e-05
0.00512206
3.84489e-05
0.00516106
3.40261e-05
0.00519262
2.97954e-05
0.00522025
2.68146e-05
0.00524283
2.21261e-05
0.00525815
1.99599e-05
0.0052707
1.22016e-05
0.00527199
1.34136e-05
0.00528391
-9.30501e-07
0.00528165
5.26589e-06
0.00533352
-1.65639e-05
-3.19202e-05
0.00540724
0.00407722
-0.000178248
0.00433886
-0.000136362
0.00457915
-0.00012848
0.00475708
-9.53148e-05
0.00489015
-7.45037e-05
0.00500075
-6.08865e-05
0.00508915
-5.10022e-05
0.00516725
-4.4346e-05
0.00523085
-3.84436e-05
0.00528828
-3.40152e-05
0.00533608
-2.97727e-05
0.00538111
-2.67762e-05
0.00541598
-2.20615e-05
0.00544828
-1.9813e-05
0.00546333
-1.20683e-05
0.0054811
-1.28765e-05
0.00546886
1.23456e-06
0.00546843
-3.57099e-06
0.00542314
1.79201e-05
3.57712e-05
0.00534531
0.00407754
-0.000526851
0.0043371
-0.000398046
0.00456666
-0.000365792
0.00473148
-0.00026385
0.00485078
-0.000200742
0.00494565
-0.000157946
0.00501704
-0.000127046
0.00507668
-0.000105579
0.00512206
-8.80348e-05
0.00516107
-7.44393e-05
0.00519262
-6.3865e-05
0.00522026
-5.38516e-05
0.00524285
-4.50053e-05
0.0052582
-3.38351e-05
0.00527076
-2.50229e-05
0.00527211
-1.39071e-05
0.00528406
-1.16122e-05
0.00528201
-1.78742e-06
0.00533409
-3.47507e-05
-3.86666e-05
0.00540824
0.00412185
-0.000928224
0.00436469
-0.000651879
0.00450989
-0.000527611
0.00458048
-0.000346983
0.0046049
-0.000240971
0.0046119
-0.000176163
0.00460412
-0.000133091
0.00459328
-0.000105462
0.00457639
-8.41996e-05
0.00456094
-6.90194e-05
0.00454263
-5.67994e-05
0.00452713
-4.6938e-05
0.00450795
-3.58655e-05
0.00449297
-2.75104e-05
0.00447123
-1.37163e-05
0.00446067
-1.28219e-05
0.00443074
7.39984e-06
0.00441985
-9.50197e-07
0.00436146
1.18515e-05
5.38389e-05
0.00425806
0.00389976
-0.00109951
0.00384973
-0.000603816
0.00369875
-0.000384113
0.00354263
-0.000193905
0.00340121
-0.000105936
0.00328506
-6.21878e-05
0.00318562
-3.86544e-05
0.00310517
-2.67059e-05
0.00303525
-1.80911e-05
0.00297834
-1.30927e-05
0.00292744
-8.70393e-06
0.0028855
-5.84148e-06
0.00284942
-2.44391e-06
0.00282053
9.3771e-08
0.00280032
3.68614e-06
0.00278104
4.73596e-06
0.00278261
2.98768e-06
0.00276636
1.33263e-05
0.00285962
-8.39935e-05
-5.58662e-05
0.00296812
0.00261906
0.00200359
0.0016027
0.00139663
0.00127479
0.00120046
0.00114662
0.00110781
0.00107517
0.00105001
0.00102717
0.00100911
0.00099274
0.000980463
0.000970405
0.000962689
0.000952141
0.000953053
0.000855594
0.000787792
0.000900839
-0.000199291
6.81229e-05
0.000918152
-9.08098e-05
5.99887e-05
0.0009038
-6.11035e-05
6.3696e-05
0.000895686
-5.93991e-05
5.7144e-05
0.000889418
-6.23543e-05
5.90279e-05
0.000885623
-6.03767e-05
5.44487e-05
0.000881444
-6.16005e-05
5.55046e-05
0.000877913
-5.94426e-05
5.22881e-05
0.000874266
-5.99588e-05
5.28725e-05
0.000871716
-5.82148e-05
5.05906e-05
0.000870095
-5.85652e-05
5.08933e-05
0.00086964
-5.72462e-05
4.92539e-05
0.000869926
-5.75484e-05
4.93811e-05
0.000870345
-5.65644e-05
4.81867e-05
0.000870454
-5.68533e-05
4.82054e-05
0.000869803
-5.6104e-05
4.73277e-05
0.000868544
-5.63411e-05
4.7289e-05
0.000866803