/*--------------------------------*- C++ -*----------------------------------*\
  =========                 |
  \\      /  F ield         | OpenFOAM: The Open Source CFD Toolbox
   \\    /   O peration     | Website:  https://openfoam.org
    \\  /    A nd           | Version:  7
     \\/     M anipulation  |
\*---------------------------------------------------------------------------*/
FoamFile
{
    version     2.0;
    format      ascii;
    class       volScalarField;
    location    "2.8125";
    object      nut;
}
// * * * * * * * * * * * * * * * * * * * * * * * * * * * * * * * * * * * * * //

dimensions      [0 2 -1 0 0 0 0];

internalField   nonuniform List<scalar> 
7920
(
0.00875596
0.00912503
0.00912853
0.00913294
0.00912706
0.00912786
0.00912329
0.0091243
0.00912129
0.00912245
0.00912027
0.00912131
0.00911953
0.00912028
0.009119
0.00911941
0.00911922
0.00911764
0.00912431
0.00913461
0.00451616
0.00454389
0.00445001
0.0043581
0.00431369
0.00429637
0.00428142
0.00427695
0.00426913
0.00426746
0.00426247
0.00426161
0.00425861
0.00425833
0.00425637
0.00425605
0.00425494
0.00425386
0.00428294
0.00428467
0.00345162
0.00368652
0.00371039
0.00370759
0.00369988
0.00369802
0.00369327
0.00369249
0.0036892
0.00368863
0.003686
0.00368554
0.00368342
0.00368303
0.00368132
0.00368095
0.00367959
0.00367904
0.00367972
0.00368472
0.00332047
0.00359156
0.00364313
0.00366179
0.00366673
0.0036736
0.00367481
0.00367853
0.00367885
0.00368114
0.00368108
0.00368256
0.00368232
0.00368336
0.00368301
0.00368374
0.00368333
0.00368382
0.00368386
0.00368841
0.00330602
0.00358054
0.00363484
0.00365679
0.00366439
0.00367401
0.00367724
0.00368382
0.00368586
0.00369068
0.00369213
0.00369586
0.00369691
0.00369983
0.00370059
0.0037029
0.00370345
0.00370512
0.00370581
0.00371083
0.00330755
0.00357982
0.00363381
0.00365607
0.00366442
0.003675
0.00367921
0.00368698
0.00368995
0.00369611
0.00369843
0.00370343
0.00370528
0.00370936
0.00371084
0.00371418
0.00371536
0.00371788
0.00371931
0.00372448
0.00330755
0.00357982
0.00363381
0.00365607
0.00366442
0.003675
0.00367921
0.00368698
0.00368995
0.00369611
0.00369843
0.00370343
0.00370528
0.00370937
0.00371083
0.00371419
0.00371536
0.00371789
0.00371932
0.00372449
0.00330602
0.00358054
0.00363484
0.00365679
0.00366439
0.00367402
0.00367724
0.00368383
0.00368586
0.00369069
0.00369213
0.00369587
0.0036969
0.00369984
0.00370058
0.00370293
0.00370344
0.00370516
0.00370581
0.00371089
0.00332047
0.00359156
0.00364313
0.00366179
0.00366673
0.0036736
0.0036748
0.00367853
0.00367885
0.00368114
0.00368107
0.00368258
0.0036823
0.0036834
0.00368297
0.00368382
0.00368324
0.00368399
0.00368373
0.00368858
0.00345162
0.00368652
0.00371039
0.00370759
0.00369988
0.00369802
0.00369326
0.00369249
0.0036892
0.00368863
0.00368599
0.00368555
0.00368339
0.00368308
0.00368124
0.00368107
0.00367936
0.00367948
0.0036793
0.00368536
0.00451616
0.00454389
0.00445001
0.0043581
0.00431369
0.00429637
0.00428142
0.00427696
0.00426912
0.00426747
0.00426245
0.00426162
0.00425858
0.00425837
0.0042563
0.00425617
0.00425469
0.00425435
0.00428162
0.00428612
0.00875596
0.00912503
0.00912853
0.00913294
0.00912706
0.00912787
0.00912329
0.00912431
0.00912129
0.00912246
0.00912026
0.00912133
0.00911949
0.00912035
0.00911889
0.0091196
0.00911885
0.00911833
0.00912278
0.00913787
0.00336296
0.00377596
0.00379282
0.003768
0.00376111
0.00374697
0.00374634
0.0037382
0.00373848
0.00373295
0.00373347
0.00372944
0.00372992
0.00372682
0.00372726
0.00372465
0.00372542
0.00372221
0.0037229
0.00373204
0.00297826
0.0034869
0.00355871
0.00356823
0.00356938
0.00356932
0.00356893
0.00356853
0.00356801
0.0035675
0.00356702
0.00356647
0.00356609
0.00356553
0.00356528
0.00356471
0.0035645
0.00356397
0.0035648
0.0035663
0.00289851
0.00341298
0.0034884
0.00350365
0.00350624
0.00350986
0.00351093
0.00351344
0.00351425
0.00351608
0.00351667
0.00351798
0.00351845
0.00351934
0.00351983
0.00352031
0.00352094
0.00352094
0.00352135
0.00352784
0.00289635
0.00341093
0.00348553
0.0035
0.00350103
0.00350311
0.00350305
0.00350425
0.00350451
0.0035057
0.00350606
0.00350709
0.0035075
0.00350834
0.00350886
0.00350935
0.0035101
0.00351016
0.00351084
0.00351502
0.00289334
0.00340757
0.00348217
0.003497
0.00349783
0.00349964
0.0034991
0.00349992
0.00349964
0.00350037
0.00350028
0.00350091
0.00350095
0.0035015
0.00350162
0.00350209
0.00350225
0.00350263
0.00350288
0.00350727
0.00289496
0.00340932
0.00348368
0.0034984
0.00349919
0.00350097
0.00350039
0.00350117
0.00350079
0.00350143
0.0035012
0.00350173
0.00350161
0.00350203
0.00350198
0.00350232
0.00350233
0.00350258
0.00350261
0.00350663
0.00289496
0.00340932
0.00348368
0.0034984
0.00349919
0.00350097
0.00350038
0.00350117
0.00350079
0.00350143
0.0035012
0.00350173
0.0035016
0.00350204
0.00350198
0.00350233
0.00350232
0.00350259
0.00350261
0.00350662
0.00289334
0.00340757
0.00348217
0.003497
0.00349783
0.00349964
0.0034991
0.00349993
0.00349964
0.00350037
0.00350027
0.00350092
0.00350095
0.00350151
0.00350161
0.00350211
0.00350223
0.00350266
0.00350285
0.00350727
0.00289635
0.00341093
0.00348553
0.0035
0.00350103
0.00350311
0.00350305
0.00350425
0.00350451
0.00350571
0.00350605
0.00350711
0.00350749
0.00350838
0.00350877
0.00350947
0.00350994
0.00351026
0.00351074
0.00351513
0.00289851
0.00341298
0.0034884
0.00350365
0.00350624
0.00350986
0.00351093
0.00351344
0.00351424
0.00351609
0.00351666
0.003518
0.00351842
0.00351941
0.00351972
0.00352049
0.00352065
0.00352129
0.00352089
0.00352831
0.00297826
0.0034869
0.00355871
0.00356823
0.00356938
0.00356932
0.00356893
0.00356853
0.003568
0.00356751
0.003567
0.00356648
0.00356606
0.00356558
0.0035652
0.00356486
0.00356423
0.00356438
0.00356409
0.00356762
0.00336296
0.00377596
0.00379282
0.003768
0.00376111
0.00374697
0.00374634
0.0037382
0.00373848
0.00373295
0.00373346
0.00372944
0.00372991
0.00372684
0.00372724
0.00372472
0.00372534
0.00372244
0.00372255
0.00373303
0.000838528
0.00123547
0.00129256
0.00127571
0.00123238
0.0011918
0.00115946
0.00113592
0.00111837
0.00110456
0.00109448
0.0010852
0.00107874
0.00107179
0.00106729
0.00106197
0.00105824
0.00105528
0.00104935
0.0010551
0.000356014
0.000750837
0.000881117
0.000931631
0.000948934
0.000959621
0.000964929
0.000970693
0.000973555
0.000976616
0.000977638
0.000978863
0.000978926
0.000979103
0.000978845
0.0009787
0.000978234
0.000977924
0.000977311
0.000979436
0.000307707
0.000664832
0.000783367
0.000836476
0.000852591
0.000864284
0.000866995
0.000872493
0.00087442
0.000878586
0.00088062
0.000884302
0.00088649
0.000889516
0.000891764
0.000894181
0.000896418
0.000898403
0.000899879
0.000903569
0.000316816
0.000668846
0.000784478
0.000835302
0.000851055
0.000860821
0.000862273
0.000864855
0.000864989
0.000865863
0.000866101
0.000866921
0.000867392
0.000868264
0.000869175
0.000869836
0.000871156
0.000871771
0.000872899
0.000875735
0.000312495
0.000664422
0.000779623
0.000830724
0.000846167
0.000855954
0.000857161
0.000859512
0.000859323
0.000859746
0.000859491
0.00085967
0.000859532
0.000859631
0.00085965
0.000859715
0.000859932
0.000860006
0.000860247
0.0008621
0.000314921
0.000666898
0.000782119
0.000832868
0.000848408
0.000858057
0.000859393
0.000861672
0.000861519
0.000861892
0.000861633
0.000861732
0.000861541
0.000861527
0.000861445
0.000861335
0.000861355
0.00086127
0.000861375
0.000862973
0.000314921
0.000666898
0.000782119
0.000832868
0.000848407
0.000858057
0.000859393
0.000861672
0.000861519
0.000861892
0.000861633
0.000861732
0.00086154
0.000861527
0.000861445
0.000861336
0.000861354
0.000861271
0.000861374
0.000862972
0.000312495
0.000664422
0.000779623
0.000830724
0.000846167
0.000855954
0.00085716
0.000859512
0.000859322
0.000859746
0.00085949
0.000859671
0.000859531
0.000859632
0.00085965
0.000859714
0.000859931
0.000860003
0.000860244
0.00086209
0.000316815
0.000668846
0.000784478
0.000835303
0.000851054
0.000860822
0.000862272
0.000864856
0.000864989
0.000865864
0.0008661
0.000866925
0.000867383
0.000868277
0.000869152
0.000869853
0.000871132
0.000871759
0.000872876
0.000875696
0.000307706
0.000664833
0.000783366
0.000836477
0.00085259
0.000864284
0.000866995
0.000872493
0.000874419
0.000878589
0.000880613
0.00088431
0.000886475
0.000889533
0.000891726
0.000894209
0.000896358
0.0008984
0.000899833
0.000903486
0.000356014
0.000750838
0.000881116
0.000931631
0.000948933
0.000959622
0.000964927
0.000970695
0.00097355
0.000976622
0.000977628
0.00097887
0.000978919
0.000979107
0.000978808
0.000978707
0.000978163
0.000977944
0.000977213
0.000979443
0.000838528
0.00123547
0.00129256
0.00127571
0.00123238
0.0011918
0.00115946
0.00113593
0.00111837
0.00110457
0.00109448
0.00108522
0.00107874
0.00107183
0.00106729
0.00106208
0.00105825
0.00105551
0.00104942
0.00105578
0.000838528
0.00123547
0.00129256
0.00127571
0.00123238
0.0011918
0.00115946
0.00113592
0.00111837
0.00110456
0.00109448
0.0010852
0.00107874
0.00107179
0.00106729
0.00106197
0.00105824
0.00105528
0.00104935
0.0010551
0.000356014
0.000750837
0.000881117
0.000931631
0.000948934
0.000959621
0.000964929
0.000970693
0.000973555
0.000976616
0.000977638
0.000978863
0.000978926
0.000979103
0.000978845
0.0009787
0.000978234
0.000977924
0.000977311
0.000979436
0.000307707
0.000664832
0.000783367
0.000836476
0.000852591
0.000864284
0.000866995
0.000872493
0.00087442
0.000878586
0.00088062
0.000884302
0.00088649
0.000889516
0.000891764
0.000894181
0.000896418
0.000898403
0.000899879
0.000903569
0.000316816
0.000668846
0.000784478
0.000835302
0.000851055
0.000860821
0.000862273
0.000864855
0.000864989
0.000865863
0.000866101
0.000866921
0.000867392
0.000868264
0.000869175
0.000869836
0.000871156
0.000871771
0.000872899
0.000875735
0.000312495
0.000664422
0.000779623
0.000830724
0.000846167
0.000855954
0.000857161
0.000859512
0.000859323
0.000859746
0.000859491
0.00085967
0.000859532
0.000859631
0.00085965
0.000859715
0.000859932
0.000860006
0.000860247
0.0008621
0.000314921
0.000666898
0.000782119
0.000832868
0.000848408
0.000858057
0.000859393
0.000861672
0.000861519
0.000861892
0.000861633
0.000861732
0.000861541
0.000861527
0.000861445
0.000861335
0.000861355
0.00086127
0.000861375
0.000862973
0.000314921
0.000666898
0.000782119
0.000832868
0.000848408
0.000858057
0.000859393
0.000861672
0.000861519
0.000861892
0.000861633
0.000861732
0.00086154
0.000861527
0.000861445
0.000861336
0.000861354
0.000861271
0.000861374
0.000862972
0.000312495
0.000664422
0.000779623
0.000830724
0.000846167
0.000855954
0.00085716
0.000859512
0.000859322
0.000859746
0.00085949
0.000859671
0.000859531
0.000859632
0.00085965
0.000859714
0.000859931
0.000860003
0.000860244
0.00086209
0.000316815
0.000668846
0.000784478
0.000835303
0.000851054
0.000860822
0.000862272
0.000864856
0.000864989
0.000865864
0.0008661
0.000866925
0.000867383
0.000868277
0.000869152
0.000869853
0.000871132
0.000871759
0.000872876
0.000875696
0.000307706
0.000664833
0.000783366
0.000836477
0.00085259
0.000864284
0.000866995
0.000872493
0.000874419
0.000878589
0.000880613
0.00088431
0.000886475
0.000889533
0.000891726
0.000894209
0.000896358
0.0008984
0.000899833
0.000903486
0.000356014
0.000750838
0.000881116
0.000931631
0.000948933
0.000959622
0.000964927
0.000970695
0.00097355
0.000976622
0.000977628
0.00097887
0.000978919
0.000979107
0.000978808
0.000978707
0.000978163
0.000977944
0.000977213
0.000979443
0.000838528
0.00123547
0.00129256
0.00127571
0.00123238
0.0011918
0.00115946
0.00113593
0.00111837
0.00110457
0.00109448
0.00108522
0.00107874
0.00107183
0.00106729
0.00106208
0.00105825
0.00105551
0.00104942
0.00105578
0.00336296
0.00377596
0.00379282
0.003768
0.00376111
0.00374697
0.00374634
0.0037382
0.00373848
0.00373295
0.00373347
0.00372944
0.00372992
0.00372682
0.00372726
0.00372465
0.00372542
0.00372221
0.0037229
0.00373204
0.00297826
0.0034869
0.00355871
0.00356823
0.00356938
0.00356932
0.00356893
0.00356853
0.00356801
0.0035675
0.00356702
0.00356647
0.00356609
0.00356553
0.00356528
0.00356471
0.0035645
0.00356397
0.0035648
0.0035663
0.00289851
0.00341298
0.0034884
0.00350365
0.00350624
0.00350986
0.00351093
0.00351344
0.00351425
0.00351608
0.00351667
0.00351798
0.00351845
0.00351934
0.00351983
0.00352031
0.00352094
0.00352094
0.00352135
0.00352784
0.00289635
0.00341093
0.00348553
0.0035
0.00350103
0.00350311
0.00350305
0.00350425
0.00350451
0.0035057
0.00350606
0.00350709
0.0035075
0.00350834
0.00350886
0.00350935
0.0035101
0.00351016
0.00351084
0.00351502
0.00289334
0.00340757
0.00348217
0.003497
0.00349783
0.00349964
0.0034991
0.00349992
0.00349964
0.00350037
0.00350028
0.00350091
0.00350095
0.0035015
0.00350162
0.00350209
0.00350225
0.00350263
0.00350288
0.00350727
0.00289496
0.00340932
0.00348368
0.0034984
0.00349919
0.00350097
0.00350039
0.00350117
0.00350079
0.00350143
0.0035012
0.00350173
0.00350161
0.00350203
0.00350198
0.00350232
0.00350233
0.00350258
0.00350261
0.00350663
0.00289496
0.00340932
0.00348368
0.0034984
0.00349919
0.00350097
0.00350038
0.00350117
0.00350079
0.00350143
0.0035012
0.00350173
0.0035016
0.00350204
0.00350198
0.00350233
0.00350232
0.00350259
0.00350261
0.00350662
0.00289334
0.00340757
0.00348217
0.003497
0.00349783
0.00349964
0.0034991
0.00349993
0.00349964
0.00350037
0.00350027
0.00350092
0.00350095
0.00350151
0.00350161
0.00350211
0.00350223
0.00350266
0.00350285
0.00350727
0.00289635
0.00341093
0.00348553
0.0035
0.00350103
0.00350311
0.00350305
0.00350425
0.00350451
0.00350571
0.00350605
0.00350711
0.00350749
0.00350838
0.00350877
0.00350947
0.00350994
0.00351026
0.00351074
0.00351513
0.00289851
0.00341298
0.0034884
0.00350365
0.00350624
0.00350986
0.00351093
0.00351344
0.00351424
0.00351609
0.00351666
0.003518
0.00351842
0.00351941
0.00351972
0.00352049
0.00352065
0.00352129
0.00352089
0.00352831
0.00297826
0.0034869
0.00355871
0.00356823
0.00356938
0.00356932
0.00356893
0.00356853
0.003568
0.00356751
0.003567
0.00356648
0.00356606
0.00356558
0.0035652
0.00356486
0.00356423
0.00356438
0.00356409
0.00356762
0.00336296
0.00377596
0.00379282
0.003768
0.00376111
0.00374697
0.00374634
0.0037382
0.00373848
0.00373295
0.00373346
0.00372944
0.00372991
0.00372684
0.00372724
0.00372472
0.00372534
0.00372244
0.00372255
0.00373303
0.00875596
0.00912503
0.00912853
0.00913294
0.00912706
0.00912786
0.00912329
0.0091243
0.00912129
0.00912245
0.00912027
0.00912131
0.00911953
0.00912028
0.009119
0.00911941
0.00911922
0.00911764
0.00912431
0.00913461
0.00451616
0.00454389
0.00445001
0.0043581
0.00431369
0.00429637
0.00428142
0.00427695
0.00426913
0.00426746
0.00426247
0.00426161
0.00425861
0.00425833
0.00425637
0.00425605
0.00425494
0.00425386
0.00428294
0.00428467
0.00345162
0.00368652
0.00371039
0.00370759
0.00369988
0.00369802
0.00369327
0.00369249
0.0036892
0.00368863
0.003686
0.00368554
0.00368342
0.00368303
0.00368132
0.00368095
0.00367959
0.00367904
0.00367972
0.00368472
0.00332047
0.00359156
0.00364313
0.00366179
0.00366673
0.0036736
0.00367481
0.00367853
0.00367885
0.00368114
0.00368108
0.00368256
0.00368232
0.00368336
0.00368301
0.00368374
0.00368333
0.00368382
0.00368386
0.00368841
0.00330602
0.00358054
0.00363484
0.00365679
0.00366439
0.00367401
0.00367724
0.00368382
0.00368586
0.00369068
0.00369213
0.00369586
0.00369691
0.00369983
0.00370059
0.0037029
0.00370345
0.00370512
0.00370581
0.00371083
0.00330755
0.00357982
0.00363381
0.00365607
0.00366442
0.003675
0.00367921
0.00368698
0.00368995
0.00369611
0.00369843
0.00370343
0.00370528
0.00370936
0.00371084
0.00371418
0.00371536
0.00371788
0.00371931
0.00372448
0.00330755
0.00357982
0.00363381
0.00365607
0.00366442
0.003675
0.00367921
0.00368698
0.00368995
0.00369611
0.00369843
0.00370343
0.00370528
0.00370937
0.00371083
0.00371419
0.00371536
0.00371789
0.00371932
0.00372449
0.00330602
0.00358054
0.00363484
0.00365679
0.00366439
0.00367402
0.00367724
0.00368383
0.00368586
0.00369069
0.00369213
0.00369587
0.0036969
0.00369984
0.00370058
0.00370293
0.00370344
0.00370516
0.00370581
0.00371089
0.00332047
0.00359156
0.00364313
0.00366179
0.00366673
0.0036736
0.0036748
0.00367853
0.00367885
0.00368114
0.00368107
0.00368258
0.0036823
0.0036834
0.00368297
0.00368382
0.00368324
0.00368399
0.00368373
0.00368858
0.00345162
0.00368652
0.00371039
0.00370759
0.00369988
0.00369802
0.00369326
0.00369249
0.0036892
0.00368863
0.00368599
0.00368555
0.00368339
0.00368308
0.00368124
0.00368107
0.00367936
0.00367948
0.0036793
0.00368536
0.00451616
0.00454389
0.00445001
0.0043581
0.00431369
0.00429637
0.00428142
0.00427696
0.00426912
0.00426747
0.00426245
0.00426162
0.00425858
0.00425837
0.0042563
0.00425617
0.00425469
0.00425435
0.00428162
0.00428612
0.00875596
0.00912503
0.00912853
0.00913294
0.00912706
0.00912787
0.00912329
0.00912431
0.00912129
0.00912246
0.00912026
0.00912133
0.00911949
0.00912035
0.00911889
0.0091196
0.00911885
0.00911833
0.00912278
0.00913787
0.0266124
0.0268053
0.0268998
0.0269781
0.0270388
0.0270962
0.0271441
0.0271912
0.0272322
0.027273
0.0273093
0.0273454
0.0273781
0.027411
0.0274412
0.0274716
0.0274997
0.0275277
0.0275538
0.0275799
0.0276043
0.0276287
0.0276514
0.0276739
0.0276949
0.0277154
0.0277345
0.0277531
0.0277702
0.0277867
0.0278016
0.0278158
0.0278285
0.0278405
0.0278509
0.0278606
0.0278689
0.0278765
0.0278828
0.0278885
0.027893
0.0278971
0.0279002
0.0279029
0.0279049
0.0279066
0.0279077
0.0279086
0.0279092
0.0279097
0.0279099
0.0279102
0.0279102
0.0279104
0.0279103
0.0279105
0.0279104
0.0279105
0.0279105
0.0279106
0.0279105
0.0279106
0.0279106
0.0279106
0.0279106
0.0279107
0.0279106
0.0279107
0.0279107
0.0279108
0.0279107
0.0279108
0.0279108
0.0279109
0.0279108
0.0279109
0.0279109
0.0279109
0.0279109
0.0279109
0.0279109
0.0279109
0.0279108
0.0279109
0.0279108
0.0279108
0.0279105
0.0279107
0.0279077
0.027906
0.015245
0.0155257
0.0155769
0.0156231
0.0156539
0.0156886
0.0157132
0.015742
0.0157633
0.0157883
0.0158072
0.0158293
0.0158465
0.0158667
0.0158827
0.0159013
0.0159162
0.0159333
0.0159473
0.0159632
0.0159763
0.0159912
0.0160034
0.0160171
0.0160283
0.0160409
0.0160511
0.0160624
0.0160715
0.0160815
0.0160894
0.016098
0.0161046
0.0161119
0.0161173
0.0161233
0.0161274
0.0161322
0.0161352
0.0161388
0.0161409
0.0161436
0.016145
0.0161469
0.0161476
0.0161489
0.0161492
0.0161501
0.0161501
0.0161507
0.0161506
0.0161511
0.0161509
0.0161513
0.0161511
0.0161515
0.0161513
0.0161517
0.0161515
0.0161518
0.0161517
0.016152
0.0161518
0.0161521
0.016152
0.0161523
0.0161521
0.0161524
0.0161523
0.0161526
0.0161525
0.0161527
0.0161526
0.0161528
0.0161527
0.0161529
0.0161529
0.0161531
0.016153
0.0161532
0.0161531
0.0161532
0.0161531
0.0161533
0.0161531
0.0161533
0.016153
0.0161533
0.0161506
0.0161491
0.0122431
0.0126419
0.0126805
0.0127175
0.0127361
0.0127649
0.0127802
0.0128046
0.0128181
0.0128395
0.0128518
0.0128709
0.0128822
0.0128997
0.0129104
0.0129265
0.0129367
0.0129516
0.0129612
0.0129751
0.0129842
0.0129971
0.0130057
0.0130177
0.0130256
0.0130367
0.0130439
0.013054
0.0130605
0.0130695
0.0130751
0.013083
0.0130878
0.0130946
0.0130984
0.0131041
0.0131071
0.0131118
0.0131139
0.0131176
0.013119
0.0131219
0.0131228
0.013125
0.0131254
0.0131271
0.0131271
0.0131284
0.0131282
0.0131293
0.013129
0.0131299
0.0131296
0.0131304
0.0131301
0.0131308
0.0131305
0.0131312
0.013131
0.0131316
0.0131314
0.013132
0.0131318
0.0131324
0.0131322
0.0131328
0.0131326
0.0131331
0.013133
0.0131335
0.0131334
0.0131339
0.0131338
0.0131342
0.0131341
0.0131346
0.0131345
0.0131349
0.0131348
0.0131352
0.0131351
0.0131354
0.0131353
0.0131356
0.0131355
0.0131358
0.0131356
0.013136
0.013135
0.0131312
0.011786
0.0122806
0.0123195
0.0123527
0.0123656
0.0123918
0.0124027
0.0124253
0.0124354
0.0124557
0.0124652
0.0124835
0.0124924
0.0125092
0.0125179
0.0125336
0.0125419
0.0125565
0.0125645
0.0125781
0.0125857
0.0125985
0.0126058
0.0126177
0.0126245
0.0126356
0.0126419
0.012652
0.0126577
0.012667
0.012672
0.0126802
0.0126844
0.0126916
0.0126951
0.0127013
0.012704
0.0127092
0.0127112
0.0127154
0.0127168
0.0127201
0.012721
0.0127237
0.0127241
0.0127261
0.0127262
0.0127279
0.0127277
0.0127291
0.0127288
0.0127299
0.0127296
0.0127307
0.0127303
0.0127313
0.012731
0.0127319
0.0127317
0.0127325
0.0127323
0.0127331
0.0127329
0.0127337
0.0127335
0.0127343
0.0127341
0.0127349
0.0127347
0.0127354
0.0127353
0.012736
0.0127359
0.0127365
0.0127365
0.012737
0.012737
0.0127375
0.0127375
0.012738
0.012738
0.0127384
0.0127384
0.0127388
0.0127388
0.0127392
0.0127391
0.0127394
0.0127395
0.0127347
0.0117508
0.0122957
0.012336
0.0123667
0.0123752
0.0123984
0.012406
0.0124263
0.0124338
0.0124526
0.01246
0.0124771
0.0124843
0.0125002
0.0125073
0.0125223
0.0125294
0.0125435
0.0125502
0.0125634
0.01257
0.0125825
0.0125888
0.0126005
0.0126065
0.0126174
0.012623
0.0126331
0.0126382
0.0126474
0.012652
0.0126603
0.0126643
0.0126716
0.0126749
0.0126813
0.012684
0.0126894
0.0126914
0.0126959
0.0126973
0.0127009
0.0127018
0.0127048
0.0127053
0.0127076
0.0127077
0.0127096
0.0127095
0.0127111
0.0127108
0.0127122
0.0127119
0.012713
0.0127127
0.0127138
0.0127136
0.0127146
0.0127144
0.0127154
0.0127152
0.0127161
0.0127159
0.0127168
0.0127167
0.0127176
0.0127175
0.0127183
0.0127182
0.012719
0.0127189
0.0127197
0.0127197
0.0127204
0.0127203
0.012721
0.012721
0.0127216
0.0127217
0.0127222
0.0127223
0.0127228
0.0127228
0.0127233
0.0127233
0.0127238
0.0127237
0.0127241
0.0127245
0.0127191
0.0117681
0.0123421
0.0123829
0.0124107
0.0124154
0.0124349
0.0124395
0.0124568
0.0124619
0.0124783
0.0124839
0.0124993
0.0125048
0.0125192
0.012525
0.0125388
0.0125447
0.0125577
0.0125634
0.0125757
0.0125813
0.0125931
0.0125985
0.0126096
0.0126148
0.0126251
0.01263
0.0126397
0.0126442
0.0126531
0.0126572
0.0126653
0.0126688
0.012676
0.0126791
0.0126854
0.0126879
0.0126933
0.0126952
0.0126997
0.0127011
0.0127048
0.0127057
0.0127088
0.0127092
0.0127117
0.0127119
0.0127139
0.0127138
0.0127155
0.0127152
0.0127166
0.0127164
0.0127176
0.0127174
0.0127185
0.0127183
0.0127194
0.0127192
0.0127202
0.01272
0.012721
0.0127209
0.0127218
0.0127217
0.0127227
0.0127226
0.0127235
0.0127234
0.0127242
0.0127242
0.012725
0.012725
0.0127258
0.0127258
0.0127265
0.0127265
0.0127272
0.0127272
0.0127279
0.0127279
0.0127285
0.0127285
0.0127291
0.0127291
0.0127296
0.0127297
0.01273
0.0127306
0.012725
0.0117684
0.0123402
0.0123773
0.0124011
0.0124021
0.0124178
0.0124196
0.0124338
0.0124367
0.0124507
0.0124545
0.0124678
0.0124718
0.0124844
0.0124888
0.0125011
0.0125058
0.0125175
0.0125221
0.0125331
0.0125377
0.0125483
0.0125529
0.0125629
0.0125672
0.0125766
0.0125807
0.0125895
0.0125934
0.0126016
0.0126051
0.0126125
0.0126156
0.0126223
0.012625
0.0126309
0.0126331
0.0126382
0.0126398
0.0126441
0.0126453
0.0126489
0.0126497
0.0126527
0.0126531
0.0126556
0.0126557
0.0126577
0.0126576
0.0126592
0.012659
0.0126604
0.0126601
0.0126614
0.0126611
0.0126623
0.012662
0.0126631
0.0126629
0.012664
0.0126638
0.0126648
0.0126647
0.0126656
0.0126655
0.0126664
0.0126664
0.0126672
0.0126672
0.012668
0.012668
0.0126688
0.0126688
0.0126696
0.0126696
0.0126703
0.0126703
0.012671
0.0126711
0.0126717
0.0126717
0.0126723
0.0126724
0.0126729
0.012673
0.0126734
0.0126735
0.0126738
0.0126745
0.012669
0.0117514
0.0122877
0.0123158
0.0123338
0.0123314
0.0123435
0.0123428
0.0123543
0.0123553
0.0123668
0.0123689
0.0123801
0.0123826
0.0123933
0.0123964
0.0124069
0.0124103
0.0124203
0.0124238
0.0124333
0.0124368
0.0124459
0.0124494
0.0124581
0.0124615
0.0124696
0.0124728
0.0124804
0.0124835
0.0124906
0.0124934
0.0124999
0.0125023
0.0125082
0.0125103
0.0125155
0.0125173
0.0125218
0.0125231
0.0125269
0.0125279
0.0125311
0.0125317
0.0125344
0.0125347
0.0125369
0.012537
0.0125388
0.0125387
0.0125402
0.0125399
0.0125413
0.012541
0.0125421
0.0125419
0.012543
0.0125427
0.0125437
0.0125435
0.0125445
0.0125443
0.0125453
0.0125451
0.012546
0.0125459
0.0125467
0.0125466
0.0125475
0.0125474
0.0125482
0.0125481
0.0125489
0.0125489
0.0125496
0.0125496
0.0125502
0.0125503
0.0125509
0.0125509
0.0125515
0.0125515
0.0125521
0.0125521
0.0125526
0.0125526
0.012553
0.0125531
0.0125533
0.0125539
0.0125489
0.0117825
0.0122559
0.012272
0.0122838
0.012279
0.0122878
0.0122853
0.0122942
0.0122937
0.0123028
0.0123035
0.0123123
0.0123136
0.0123221
0.0123239
0.0123324
0.0123345
0.0123426
0.0123448
0.0123524
0.0123548
0.0123622
0.0123646
0.0123715
0.0123739
0.0123804
0.0123827
0.0123889
0.0123911
0.0123968
0.0123988
0.012404
0.0124058
0.0124105
0.012412
0.0124162
0.0124174
0.0124211
0.012422
0.0124252
0.0124258
0.0124284
0.0124288
0.012431
0.0124312
0.012433
0.012433
0.0124345
0.0124343
0.0124356
0.0124353
0.0124365
0.0124361
0.0124372
0.0124369
0.0124378
0.0124376
0.0124385
0.0124382
0.0124391
0.0124389
0.0124397
0.0124395
0.0124403
0.0124402
0.0124409
0.0124408
0.0124415
0.0124414
0.0124421
0.012442
0.0124427
0.0124426
0.0124432
0.0124432
0.0124438
0.0124437
0.0124443
0.0124442
0.0124448
0.0124447
0.0124452
0.0124452
0.0124456
0.0124456
0.012446
0.012446
0.0124462
0.0124465
0.012442
0.0122223
0.0125788
0.0125821
0.0125892
0.0125835
0.0125897
0.0125865
0.012593
0.0125916
0.0125982
0.0125979
0.0126042
0.0126044
0.0126106
0.0126113
0.0126173
0.0126183
0.012624
0.0126251
0.0126305
0.0126318
0.012637
0.0126383
0.0126432
0.0126445
0.0126491
0.0126504
0.0126548
0.012656
0.01266
0.0126612
0.0126648
0.0126658
0.0126692
0.01267
0.012673
0.0126737
0.0126763
0.0126767
0.012679
0.0126792
0.0126811
0.0126812
0.0126829
0.0126828
0.0126842
0.012684
0.0126852
0.0126849
0.0126859
0.0126856
0.0126865
0.0126861
0.0126869
0.0126866
0.0126874
0.0126871
0.0126878
0.0126876
0.0126882
0.012688
0.0126886
0.0126884
0.012689
0.0126889
0.0126894
0.0126893
0.0126898
0.0126897
0.0126902
0.0126901
0.0126906
0.0126905
0.012691
0.0126909
0.0126913
0.0126913
0.0126917
0.0126916
0.012692
0.0126919
0.0126923
0.0126922
0.0126925
0.0126924
0.0126927
0.0126926
0.0126928
0.0126924
0.0126889
0.0151796
0.015386
0.0153849
0.0153887
0.0153849
0.0153887
0.0153867
0.0153907
0.0153898
0.0153939
0.0153937
0.0153976
0.0153978
0.0154014
0.015402
0.0154056
0.0154063
0.0154096
0.0154104
0.0154136
0.0154144
0.0154175
0.0154184
0.0154212
0.0154221
0.0154247
0.0154256
0.0154281
0.0154289
0.0154312
0.0154319
0.015434
0.0154347
0.0154366
0.0154372
0.0154388
0.0154393
0.0154407
0.015441
0.0154423
0.0154425
0.0154435
0.0154436
0.0154445
0.0154445
0.0154452
0.0154451
0.0154457
0.0154456
0.0154461
0.0154459
0.0154463
0.0154461
0.0154465
0.0154463
0.0154467
0.0154465
0.0154469
0.0154467
0.0154471
0.0154469
0.0154472
0.0154471
0.0154474
0.0154473
0.0154475
0.0154474
0.0154477
0.0154476
0.0154479
0.0154478
0.015448
0.0154479
0.0154481
0.0154481
0.0154483
0.0154482
0.0154484
0.0154483
0.0154485
0.0154485
0.0154486
0.0154485
0.0154487
0.0154486
0.0154487
0.0154485
0.0154487
0.0154463
0.0154451
0.0264624
0.0265197
0.0265215
0.0265246
0.0265237
0.0265265
0.0265266
0.0265296
0.0265305
0.0265337
0.0265351
0.0265381
0.0265397
0.0265426
0.0265444
0.0265473
0.0265491
0.0265518
0.0265536
0.0265562
0.0265579
0.0265604
0.0265621
0.0265644
0.026566
0.0265682
0.0265697
0.0265718
0.0265732
0.0265751
0.0265764
0.0265781
0.0265793
0.0265808
0.0265818
0.0265831
0.026584
0.0265851
0.0265858
0.0265867
0.0265873
0.026588
0.0265884
0.026589
0.0265892
0.0265896
0.0265898
0.0265901
0.0265901
0.0265904
0.0265903
0.0265905
0.0265905
0.0265906
0.0265905
0.0265906
0.0265906
0.0265907
0.0265906
0.0265907
0.0265907
0.0265907
0.0265907
0.0265908
0.0265907
0.0265908
0.0265908
0.0265908
0.0265908
0.0265909
0.0265908
0.0265909
0.0265909
0.0265909
0.0265909
0.026591
0.0265909
0.026591
0.026591
0.026591
0.026591
0.026591
0.0265909
0.026591
0.0265909
0.0265909
0.0265908
0.0265908
0.0265882
0.026587
0.0121797
0.0123319
0.0123762
0.0124093
0.0124371
0.0124621
0.0124838
0.0125049
0.0125232
0.0125418
0.0125577
0.0125743
0.0125886
0.012604
0.0126171
0.0126314
0.0126435
0.0126567
0.012668
0.0126804
0.0126909
0.0127025
0.0127122
0.0127229
0.0127319
0.0127417
0.0127498
0.0127586
0.0127658
0.0127736
0.0127798
0.0127865
0.0127917
0.0127974
0.0128016
0.0128062
0.0128094
0.012813
0.0128153
0.0128181
0.0128197
0.0128217
0.0128227
0.0128241
0.0128246
0.0128256
0.0128258
0.0128265
0.0128264
0.0128269
0.0128268
0.0128271
0.012827
0.0128273
0.0128271
0.0128274
0.0128272
0.0128275
0.0128273
0.0128276
0.0128274
0.0128277
0.0128276
0.0128278
0.0128277
0.0128279
0.0128278
0.012828
0.0128279
0.0128281
0.012828
0.0128282
0.0128281
0.0128283
0.0128282
0.0128284
0.0128284
0.0128285
0.0128285
0.0128287
0.0128286
0.0128288
0.0128288
0.012829
0.012829
0.0128293
0.0128293
0.0128297
0.012829
0.0128291
0.0117429
0.0120159
0.0120611
0.0120948
0.0121217
0.012147
0.0121682
0.0121893
0.0122074
0.0122258
0.0122416
0.0122581
0.0122723
0.0122874
0.0123005
0.0123145
0.0123266
0.0123396
0.0123509
0.012363
0.0123735
0.0123848
0.0123945
0.012405
0.0124139
0.0124235
0.0124316
0.0124402
0.0124474
0.0124551
0.0124613
0.0124679
0.0124731
0.0124787
0.0124829
0.0124874
0.0124907
0.0124943
0.0124967
0.0124994
0.0125011
0.0125031
0.0125042
0.0125056
0.0125062
0.0125071
0.0125074
0.012508
0.0125081
0.0125085
0.0125085
0.0125088
0.0125088
0.012509
0.0125089
0.0125092
0.0125091
0.0125093
0.0125093
0.0125095
0.0125094
0.0125096
0.0125095
0.0125097
0.0125097
0.0125099
0.0125098
0.01251
0.01251
0.0125102
0.0125101
0.0125103
0.0125103
0.0125104
0.0125104
0.0125106
0.0125106
0.0125107
0.0125107
0.0125108
0.0125108
0.012511
0.012511
0.0125111
0.0125111
0.0125113
0.0125112
0.0125115
0.0125113
0.0125116
0.0112736
0.011665
0.011715
0.0117463
0.0117716
0.0117949
0.0118151
0.0118346
0.011852
0.0118691
0.0118845
0.0118998
0.0119137
0.0119278
0.0119406
0.0119537
0.0119656
0.0119777
0.0119888
0.0120002
0.0120105
0.0120211
0.0120308
0.0120406
0.0120495
0.0120585
0.0120666
0.0120748
0.0120821
0.0120894
0.0120957
0.0121021
0.0121075
0.0121129
0.0121173
0.0121217
0.0121253
0.0121288
0.0121315
0.0121341
0.0121361
0.012138
0.0121394
0.0121407
0.0121416
0.0121425
0.012143
0.0121435
0.0121437
0.0121441
0.0121442
0.0121444
0.0121445
0.0121446
0.0121446
0.0121448
0.0121448
0.0121449
0.0121449
0.012145
0.012145
0.0121451
0.0121451
0.0121453
0.0121453
0.0121454
0.0121454
0.0121455
0.0121455
0.0121456
0.0121456
0.0121458
0.0121458
0.0121459
0.0121459
0.012146
0.012146
0.0121461
0.0121461
0.0121462