/*--------------------------------*- C++ -*----------------------------------*\
  =========                 |
  \\      /  F ield         | OpenFOAM: The Open Source CFD Toolbox
   \\    /   O peration     | Website:  https://openfoam.org
    \\  /    A nd           | Version:  7
     \\/     M anipulation  |
\*---------------------------------------------------------------------------*/
FoamFile
{
    version     2.0;
    format      ascii;
    class       volScalarField;
    location    "0.15";
    object      k;
}
// * * * * * * * * * * * * * * * * * * * * * * * * * * * * * * * * * * * * * //

dimensions      [0 2 -2 0 0 0 0];

internalField   nonuniform List<scalar> 
1352
(
7.88553
9.50528
8.27149
6.28534
5.00592
4.22978
0.954234
3.00819
3.85476
3.84465
3.7177
3.53253
0.0268128
0.199093
0.510371
0.695045
0.759103
0.794198
0.000356433
0.008489
0.0296824
0.0707202
0.0830204
0.0978162
2.27433e-05
0.00025398
0.00104654
0.00328981
0.00415879
0.00566497
2.07828e-05
2.99695e-05
7.49719e-05
0.000234282
0.000493313
0.000461839
0.00017377
0.00273255
0.0106053
0.019943
0.0317818
0.0353737
0.0236174
0.167647
0.390557
0.53026
0.596504
0.637655
0.984604
2.76854
3.55642
3.63858
3.57174
3.41774
8.01118
9.0211
7.70864
5.83962
4.61606
3.93182
0.0116342
0.0467397
0.0571575
0.0585351
0.0607031
0.0617847
0.0638164
0.066688
0.0719243
0.0777273
0.0841687
0.0886048
0.0917341
0.0893257
0.0735333
0.0256939
0.0176384
0.023379
0.0298788
0.0363
0.0458972
0.0535606
0.0573093
0.0611964
0.0725204
0.132704
0.342187
0.680339
0.998478
1.18631
1.24574
1.15944
0.987492
0.781876
0.613945
0.470922
0.370903
0.31724
0.297372
0.317489
0.419974
0.785064
1.25596
1.50574
1.56988
1.41977
1.18968
0.948741
0.778052
0.696171
0.669905
0.778926
1.06865
1.69414
2.5009
2.65896
2.24249
1.2943
0.742573
0.414555
0.0723494
0.0859153
0.0702831
0.0515806
0.0401124
0.0340607
0.0296573
0.0276399
0.0244778
0.0252578
0.0281642
0.0346521
0.0424521
0.0582621
0.0637128
0.0598874
0.0510886
0.0376751
0.0300569
0.0339762
0.04907
0.0631073
0.0799078
0.139078
0.281229
0.447203
0.60222
0.691902
0.732606
0.618529
0.521098
0.46467
0.446935
0.46422
0.469777
0.458461
0.446988
0.425445
0.43242
0.500159
0.655547
0.835268
0.95333
0.865248
0.743443
0.6825
0.666719
0.731494
0.791547
0.824726
0.839304
0.841234
0.814313
0.822366
0.893312
1.19444
1.39945
1.25738
0.792313
0.420858
0.154514
0.0933217
0.0479687
0.0363821
0.0310004
0.0275122
0.0250085
0.0232536
0.0218217
0.0208187
0.0210778
0.0221799
0.0247773
0.0305903
0.0424407
0.0505638
0.0494386
0.0440186
0.0417499
0.0567978
0.107667
0.173365
0.228214
0.309159
0.40275
0.483632
0.536597
0.485516
0.418477
0.395889
0.409218
0.460526
0.539655
0.602226
0.636892
0.648833
0.649043
0.595436
0.545603
0.534205
0.621324
0.695516
0.700652
0.662144
0.650884
0.66322
0.670773
0.673033
0.654052
0.606375
0.534382
0.488801
0.486691
0.492964
0.522787
0.6089
0.833247
0.913584
0.793674
0.486805
0.156777
0.0676418
0.0411344
0.0359444
0.0333621
0.0293825
0.0259567
0.0234077
0.0220341
0.021738
0.0221447
0.0233272
0.0258349
0.030607
0.0389126
0.045363
0.0488393
0.0491495
0.0583928
0.12749
0.190268
0.222887
0.269447
0.32999
0.382602
0.404928
0.376574
0.361394
0.371085
0.412988
0.520782
0.639591
0.699241
0.725853
0.735846
0.736939
0.745156
0.748085
0.751616
0.717129
0.698823
0.719612
0.711354
0.67522
0.67196
0.671075
0.640279
0.609632
0.57063
0.480613
0.376809
0.31705
0.309161
0.31834
0.340647
0.390579
0.557348
0.705505
0.702649
0.544697
0.10164
0.0692336
0.0541517
0.0464743
0.0396564
0.0352094
0.0310704
0.0286079
0.0279046
0.0279067
0.029043
0.031729
0.0366405
0.0442306
0.0555414
0.0636276
0.0656249
0.0636178
0.0920231
0.163538
0.205667
0.236768
0.278227
0.315653
0.332548
0.340395
0.338758
0.351197
0.396685
0.491625
0.606785
0.670427
0.708647
0.718124
0.709346
0.689427
0.689864
0.724816
0.771845
0.811283
0.833917
0.811404
0.747474
0.690777
0.668494
0.651926
0.601908
0.541366
0.478884
0.372318
0.27481
0.237773
0.24006
0.266218
0.284161
0.303332
0.362153
0.560856
0.626131
0.56606
0.0827126
0.0886007
0.0719933
0.065562
0.0616938
0.0593597
0.058235
0.0578012
0.0597786
0.0644261
0.0730468
0.0868122
0.106808
0.13252
0.156897
0.17107
0.168482
0.154767
0.146689
0.171086
0.20623
0.244892
0.289973
0.324981
0.339945
0.342505
0.341637
0.354386
0.395115
0.477754
0.563
0.6075
0.610828
0.572386
0.489981
0.422834
0.373391
0.379983
0.411249
0.480734
0.640325
0.77158
0.777447
0.750272
0.683114
0.619198
0.538165
0.468147
0.388714
0.283519
0.211271
0.206013
0.222929
0.265836
0.284897
0.286219
0.298982
0.389352
0.545504
0.539457
0.0594642
0.0780985
0.103187
0.129726
0.143885
0.15851
0.168317
0.177907
0.19483
0.219203
0.259214
0.321509
0.408128
0.503713
0.580523
0.624083
0.611145
0.527106
0.378263
0.266745
0.227827
0.236302
0.272222
0.312132
0.332638
0.335832
0.334175
0.341051
0.376636
0.468393
0.552487
0.590476
0.579578
0.471205
0.331999
0.226306
0.154621
0.140571
0.153702
0.212306
0.294413
0.350236
0.461254
0.536028
0.533591
0.509335
0.448493
0.369189
0.298219
0.217188
0.17816
0.195114
0.27219
0.340498
0.351894
0.337447
0.308975
0.327141
0.43953
0.489693
0.078705
0.080575
0.0971967
0.130002
0.16462
0.210838
0.267447
0.350653
0.431812
0.515783
0.617209
0.748619
0.889721
0.991594
1.03829
1.04231
1.03818
1.03005
0.968709
0.669755
0.368728
0.265931
0.260821
0.277384
0.304987
0.313092
0.311448
0.31661
0.371283
0.477025
0.562769
0.586227
0.538024
0.350826
0.212452
0.13166
0.084842
0.0600607
0.0565973
0.0636115
0.0966362
0.167234
0.210285
0.238447
0.265976
0.26038
0.24168
0.209011
0.174045
0.13825
0.152735
0.231008
0.393095
0.424297
0.410877
0.386593
0.326252
0.3188
0.366314
0.431219
0.502317
0.412145
0.380475
0.386665
0.401114
0.423347
0.45153
0.490021
0.546966
0.61938
0.713015
0.848103
0.993099
1.05738
1.05382
1.01369
0.95404
0.957368
1.0367
1.07185
0.835579
0.418214
0.284587
0.271478
0.275964
0.282358
0.287599
0.303969
0.374966
0.492691
0.576349
0.582479
0.481517
0.293143
0.170993
0.100226
0.0632062
0.0429729
0.032273
0.0301956
0.0320423
0.040379
0.0701592
0.0942759
0.100626
0.0987628
0.0927391
0.0927981
0.0944303
0.102324
0.148691
0.360693
0.481101
0.481571
0.429741
0.395404
0.341446
0.313423
0.324887
0.366665
2.86947
2.21802
1.84585
1.64049
1.5202
1.43676
1.35877
1.26959
1.18883
1.14717
1.14559
1.1549
1.14269
1.10092
1.00902
0.855961
0.681562
0.603055
0.618436
0.903051
1.10125
0.964988
0.524373
0.345341
0.297134
0.289136
0.290824
0.31079
0.406409
0.554305
0.615657
0.596329
0.429086
0.244532
0.135801
0.0811007
0.0540208
0.039531
0.0298808
0.0245394
0.0231027
0.0233666
0.0249864
0.0311462
0.0389063
0.0427348
0.047845
0.0610467
0.0711964
0.0944446
0.22846
0.529839
0.567309
0.518335
0.422851
0.384331
0.35605
0.319295
0.320473
0.329013
3.12285
2.8049
2.54166
2.31354
2.12052
1.95347
1.81574
1.69805
1.58744
1.49423
1.38573
1.25439
1.12116
0.94265
0.737725
0.585819
0.435081
0.303016
0.280508
0.305485
0.464492
0.834564
0.916361
0.843174
0.606028
0.460281
0.423091
0.44507
0.577401
0.658413
0.654475
0.560693
0.304731
0.158215
0.0972618
0.0684878
0.050622
0.0393098
0.0320497
0.0265624
0.0234803
0.0222662
0.0221669
0.022903
0.0273174
0.0317547
0.0407787
0.0528694
0.0652028
0.115216
0.422008
0.643169
0.606041
0.484581
0.40515
0.372333
0.360893
0.335597
0.330965
0.332948
0.766471
0.722868
0.685097
0.649593
0.614934
0.578044
0.540019
0.503791
0.467698
0.434099
0.398599
0.356116
0.306536
0.246937
0.187701
0.141091
0.101165
0.0741517
0.0689769
0.0727355
0.0915093
0.166622
0.433832
0.661357
0.716369
0.717126
0.712493
0.713852
0.723454
0.707665
0.618233
0.331672
0.168881
0.103872
0.0817054
0.0651045
0.0541845
0.0484414
0.0442921
0.0400147
0.0373954
0.0357572
0.0334419
0.0315875
0.0315396
0.0335255
0.0423351
0.0519298
0.0746589
0.200499
0.654736
0.711376
0.578094
0.442937
0.392165
0.379305
0.379185
0.374241
0.362483
0.361404
0.0952215
0.0897044
0.0846797
0.0800207
0.0760933
0.0718076
0.0668847
0.0618256
0.056432
0.0516887
0.0476124
0.0436517
0.0391648
0.0331082
0.0265624
0.0209705
0.0161979
0.0127866
0.0118596
0.0122393
0.0145767
0.0246368
0.0629242
0.176758
0.389403
0.534526
0.596082
0.601204
0.58328
0.494897
0.267583
0.142023
0.100095
0.0825522
0.0789182
0.0804487
0.0833827
0.0826696
0.0797442
0.0735357
0.0719621
0.0721622
0.0718437
0.0677306
0.0609006
0.0611569
0.0647263
0.0772827
0.128672
0.442356
0.779675
0.739954
0.508424
0.397402
0.36455
0.374379
0.399519
0.422996
0.431462
0.435063
0.00524748
0.0048324
0.00450312
0.00422053
0.00398591
0.00375659
0.00360623
0.00357773
0.00360276
0.00364708
0.0037317
0.00411779
0.00466009
0.00499343
0.00518414
0.00533733
0.00537793
0.00533909
0.00520745
0.00504449
0.00502238
0.00559685
0.00883345
0.0215654
0.0518861
0.129655
0.192816
0.20047
0.18838
0.135089
0.0934004
0.082631
0.085422
0.0991187
0.135753
0.160221
0.169811
0.16798
0.159984
0.151487
0.152103
0.156413
0.156398
0.150272
0.134363
0.134183
0.140265
0.166453
0.292237
0.675022
0.827899
0.734132
0.486513
0.376426
0.349479
0.360268
0.399107
0.437088
0.453051
0.446862
0.000632403
0.000804261
0.000948156
0.00105306
0.00126539
0.00147324
0.0017843
0.0023666
0.00296099
0.00382803
0.00493993
0.00612182
0.00745902
0.00869648
0.00998108
0.0114484
0.0121561
0.0120656
0.0116654
0.0107891
0.00876462
0.00814521
0.00867661
0.00970555
0.0112472
0.0195675
0.027589
0.0284661
0.0301901
0.0393952
0.0627303
0.113575
0.210919
0.321375
0.395802
0.429189
0.427428
0.417882
0.398468
0.392781
0.409259
0.409002
0.402214
0.376063
0.341018
0.335968
0.349784
0.404027
0.592735
0.768312
0.748451
0.749542
0.502972
0.368887
0.346776
0.352466
0.389621
0.425552
0.43593
0.419639
0.0408327
0.0446797
0.0480261
0.0511564
0.0542959
0.0575852
0.0614223
0.0660137
0.0712465
0.0772286
0.0839958
0.0915518
0.0981139
0.104119
0.110444
0.11285
0.112083
0.109725
0.105865
0.100041
0.0901741
0.0854816
0.0845488
0.0877907
0.0886115
0.0966147
0.112626
0.144465
0.213313
0.304381
0.5419
0.80192
1.02822
1.17096
1.21959
1.21239
1.18531
1.16165
1.17459
1.17476
1.15498
1.09974
1.0095
0.836758
0.735341
0.728679
0.744955
0.741107
0.659389
0.522076
0.538267
0.870083
0.755512
0.41891
0.355014
0.352709
0.378409
0.401243
0.400405
0.382272
0.657423
0.666103
0.665989
0.663114
0.65932
0.654964
0.65058
0.648095
0.648181
0.65245
0.661278
0.672597
0.684964
0.696077
0.705473
0.709114
0.707296
0.702498
0.695019
0.685393
0.676915
0.675356
0.683309
0.694088
0.726483
0.788263
0.927773
1.11383
1.40651
1.82363
2.03068
2.08608
2.07419
1.96897
1.83255
1.73785
1.66604
1.59861
1.49943
1.36315
1.23273
1.10259
0.991995
0.934644
0.895873
0.84545
0.728197
0.530512
0.39389
0.342562
0.357699
0.730175
1.0585
0.696693
0.427304
0.356353
0.352371
0.367938
0.362541
0.354948
3.10227
2.83284
2.62442
2.46359
2.34145
2.25047
2.18444
2.13761
2.10433
2.08195
2.06597
2.05354
2.045
2.04125
2.04009
2.03991
2.04121
2.04656
2.06186
2.08452
2.10968
2.1482
2.20645
2.29035
2.39966
2.51436
2.60328
2.63003
2.60542
2.45418
2.18698
1.87501
1.5466
1.25515
1.05676
0.94198
0.861127
0.782305
0.717232
0.693541
0.700985
0.701425
0.703714
0.708371
0.662277
0.5221
0.407503
0.364595
0.37568
0.46332
0.752944
0.797814
0.882787
1.10718
1.04197
0.759304
0.493646
0.338145
0.298154
0.326501
2.99051
2.67768
2.52105
2.43608
2.38464
2.3474
2.31427
2.27988
2.24174
2.19879
2.15119
2.10069
2.05012
2.00279
1.963
1.93553
1.92685
1.93457
1.96292
2.02168
2.10314
2.20319
2.31216
2.41216
2.47296
2.46493
2.33012
2.03019
1.6037
1.14727
0.786519
0.550111
0.385416
0.270662
0.214222
0.202652
0.207099
0.209871
0.210685
0.215597
0.220753
0.221881
0.223809
0.224365
0.202253
0.174302
0.178227
0.237128
0.402294
0.80067
1.41506
1.53387
0.776067
0.491152
1.06157
1.5869
1.64936
0.95215
0.320185
0.166477
0.233667
0.189935
0.244333
0.313572
0.454647
1.11212
3.17478
4.79855
0.270678
0.285067
0.393877
0.537394
0.610318
0.738967
1.65628
3.98811
0.358955
0.369665
0.499492
0.565285
0.595087
0.482968
0.559753
1.89925
0.393081
0.37659
0.452595
0.47493
0.472248
0.376641
0.261003
0.736395
0.403586
0.360237
0.35731
0.337151
0.303747
0.213512
0.157428
0.300786
0.422961
0.336219
0.307047
0.252508
0.200454
0.135163
0.116531
0.169598
0.430613
0.324974
0.285063
0.211034
0.144066
0.0993677
0.0983834
0.141081
0.410168
0.323952
0.278921
0.183835
0.112671
0.0829804
0.0902594
0.14464
0.362401
0.319756
0.259658
0.157952
0.0962577
0.076686
0.0888949
0.157519
0.321011
0.29143
0.22385
0.14308
0.0906394
0.0756844
0.0908333
0.181538
0.322516
0.286234
0.218726
0.141541
0.092332
0.0809518
0.0993721
0.214805
0.345966
0.307613
0.222974
0.145129
0.104127
0.0951123
0.117673
0.265422
0.403811
0.318793
0.210167
0.157
0.129927
0.120461
0.149398
0.341952
0.395153
0.292061
0.212348
0.198094
0.18045
0.167258
0.21486
0.465742
0.362809
0.296911
0.266055
0.267243
0.264934
0.325154
0.439336
0.685974
0.342999
0.316029
0.324892
0.399232
0.544775
1.05446
0.963872
0.999391
0.351177
0.389381
0.614599
0.900161
1.19185
1.8718
1.40711
1.41624
0.40789
0.682852
1.27706
1.50826
1.63401
2.22885
1.61337
1.73902
0.294273
0.737206
1.24752
1.30947
1.17816
1.43349
1.06381
1.21574
)
;

boundaryField
{
    inlet
    {
        type            fixedValue;
        value           uniform 2e-05;
    }
    outlet
    {
        type            inletOutlet;
        inletValue      uniform 0;
        value           nonuniform List<scalar> 
19
(
4.79855
3.98811
1.89925
0.736395
0.300786
0.169598
0.141081
0.14464
0.157519
0.181538
0.214805
0.265422
0.341952
0.465742
0.685974
0.999391
1.41624
1.73902
1.21574
)
;
    }
    upperWall
    {
        type            fixedValue;
        value           uniform 0;
    }
    lowerWall
    {
        type            fixedValue;
        value           uniform 0;
    }
    frontAndBack
    {
        type            empty;
    }
}


// ************************************************************************* //
