/*--------------------------------*- C++ -*----------------------------------*\
  =========                 |
  \\      /  F ield         | OpenFOAM: The Open Source CFD Toolbox
   \\    /   O peration     | Website:  https://openfoam.org
    \\  /    A nd           | Version:  7
     \\/     M anipulation  |
\*---------------------------------------------------------------------------*/
FoamFile
{
    version     2.0;
    format      ascii;
    class       surfaceScalarField;
    location    "2.2";
    object      phi_0;
}
// * * * * * * * * * * * * * * * * * * * * * * * * * * * * * * * * * * * * * //

dimensions      [1 0 -1 0 0 0 0];

internalField   nonuniform List<scalar> 
8090
(
0.000588566
0.0017201
0.000526726
0.000500586
-0.000203719
0.0002917
0.000457108
-0.000366285
0.000409776
0.000454302
-0.0003588
0.000361608
0.000451725
-0.000368128
0.000370706
0.000463362
-0.000372768
0.000361132
0.000466395
-0.000352819
0.000349787
0.000486973
-0.000361034
0.000340456
0.000485807
-0.000311085
0.000312253
-0.000244707
0.000312294
0.000418221
0.00177986
0.00286658
-9.49693e-05
0.00154711
0.000387352
-0.000358319
0.00141285
1.24467e-05
-0.000244891
0.00142359
-7.55393e-05
-0.000293995
0.00140751
-6.71514e-05
-0.000284904
0.00143441
-0.000105082
-0.000294584
0.00144985
-6.20759e-05
-0.000306184
0.00148881
-8.43471e-05
-0.000315638
0.00157331
-4.99346e-05
-0.000345652
-5.30812e-05
-0.000346841
0.00172852
0.00276002
0.00270893
0.000230467
0.00270058
0.000428702
1.80903e-05
0.00259071
-1.48329e-05
0.000135339
0.0026084
-0.000182945
8.97071e-05
0.00259914
-0.000156449
9.85555e-05
0.00263012
-0.000225055
8.90005e-05
0.00266521
-0.000174605
7.74347e-05
0.00271442
-0.000201569
6.80147e-05
0.00281577
-0.000190627
3.93381e-05
-0.000126777
4.03979e-05
0.00284907
0.00348387
0.00205054
6.25035e-06
0.00360607
0.000561099
-0.000254588
0.00354805
0.00018749
-0.000142487
0.00356782
-8.97215e-06
-0.000193864
0.00358434
1.20588e-05
-0.000185025
0.00361306
-5.93804e-05
-0.000194398
0.00366199
-1.73623e-05
-0.000206176
0.00371632
-4.02822e-05
-0.000215614
0.00381143
-4.02464e-05
-0.000245488
-6.85216e-06
-0.000245882
0.00393739
0.00368454
0.00106476
0.000133557
0.00404745
0.000284258
-8.60728e-05
0.00412728
7.52092e-05
3.29318e-05
0.00417407
-4.0418e-05
-1.59095e-05
0.00422087
-2.82517e-05
-6.48925e-06
0.00424935
-7.19879e-05
-1.58669e-05
0.00430928
-4.96899e-05
-2.76054e-05
0.0043679
-6.18917e-05
-3.70039e-05
0.00445784
-6.40552e-05
-6.61393e-05
-3.65848e-05
-6.53987e-05
0.00455298
0.00382192
1.78779e-08
7.48544e-05
0.0042723
1.19124e-08
-0.000166132
0.0044011
2.40537e-08
-5.36729e-05
0.00446261
2.87862e-08
-0.000101284
0.00452783
1.00805e-07
-9.35666e-05
0.00455848
1.5417e-07
-0.000102797
0.00462285
5.88481e-07
-0.00011464
0.00468423
7.75848e-07
-0.000124046
0.00477057
3.20019e-06
-0.000153603
8.48314e-06
-0.000153295
0.0048788
0.00382193
-0.00106473
7.48548e-05
0.00427231
-0.000284232
-0.000166133
0.00440111
-7.51687e-05
-5.36749e-05
0.00446262
4.0493e-05
-0.000101283
0.00452786
2.84283e-05
-9.3565e-05
0.00455851
7.23052e-05
-0.0001028
0.00462303
5.07074e-05
-0.000114634
0.00468446
6.34018e-05
-0.000124059
0.00477174
6.95174e-05
-0.000153594
5.29194e-05
-0.000153374
0.00488067
0.00368454
-0.00205052
0.000133557
0.00404746
-0.000561076
-8.60714e-05
0.00412731
-0.000187498
3.29269e-05
0.00417411
9.04116e-06
-1.59044e-05
0.00422095
-1.19234e-05
-6.48996e-06
0.00424951
5.96073e-05
-1.58668e-05
0.00430969
1.81443e-05
-2.76107e-05
0.00436871
4.13861e-05
-3.69998e-05
0.00446035
4.40318e-05
-6.61561e-05
2.04503e-05
-6.53481e-05
0.00455817
0.00348388
-0.00270892
6.2506e-06
0.00360608
-0.000428684
-0.000254589
0.00354808
1.48456e-05
-0.000142478
0.00356786
0.000182983
-0.000193866
0.00358444
0.000156522
-0.000185023
0.00361323
0.000225222
-0.000194402
0.00366254
0.000175005
-0.000206173
0.00371732
0.000202245
-0.000215633
0.00381466
0.000192174
-0.000245486
0.000134796
-0.000246015
0.00394634
0.00276003
-0.00286657
0.000230466
0.0027006
-0.000387344
1.80907e-05
0.00259073
-1.24102e-05
0.000135346
0.00260845
7.5555e-05
8.97075e-05
0.00259923
6.71823e-05
9.85542e-05
0.00263031
0.000105146
8.90006e-05
0.00266565
6.22379e-05
7.74282e-05
0.00271525
8.46233e-05
6.80186e-05
0.00281803
5.00888e-05
3.93133e-05
5.86539e-05
4.04494e-05
0.00285372
0.00177986
-0.0017201
-9.49692e-05
0.00154712
0.000203722
-0.00035832
0.00141286
0.000366277
-0.000244894
0.00142361
0.000358808
-0.000293997
0.00140757
0.000368124
-0.000284902
0.00143448
0.000372823
-0.000294588
0.00145012
0.000352786
-0.000306181
0.00148923
0.000361169
-0.00031566
0.00157421
0.000310751
-0.000345636
0.000245317
-0.000347002
0.00173455
0.000588567
0.000526726
0.000500589
0.000291701
0.000457111
0.000409771
0.000454311
0.00036161
0.000451734
0.000370702
0.000463419
0.000361139
0.000466437
0.00034977
0.000487126
0.00034048
0.000485692
0.000312186
0.000312399
0.00041861
0.00142293
0.0021169
-0.000184358
0.000752101
0.00108358
-0.000121056
0.000659489
0.000660256
-0.0001576
0.000596885
0.000582492
-0.000158276
0.000584008
0.000544312
-0.000160727
0.000561724
0.000546557
-0.000163139
0.000539115
0.000534776
-0.000162379
0.000513274
0.000526503
-0.000160204
0.000593481
0.000380728
-0.000148682
0.000309016
-0.000148802
0.000745562
0.00253677
0.00219275
0.000124972
0.00194102
0.00112505
0.000195958
0.00181446
0.000371039
0.000164403
0.00170501
0.000234019
0.000163958
0.00166796
0.000135129
0.000161334
0.00162802
0.000132937
0.000158969
0.00157905
0.000117764
0.000159806
0.00152994
9.79221e-05
0.000162048
0.00137765
1.31092e-05
0.000174255
1.10119e-05
0.000175052
0.00115377
0.00321714
0.00211962
-8.35814e-05
0.00294555
0.00144243
-2.77246e-05
0.00283316
0.00063573
-6.22364e-05
0.0027268
0.000495691
-6.56112e-05
0.00267817
0.0003502
-6.78899e-05
0.00263476
0.0003357
-7.03519e-05
0.00257877
0.000320801
-6.96106e-05
0.00251728
0.000294928
-6.74947e-05
0.00240323
0.000226294
-5.97978e-05
0.000140733
-6.00013e-05
0.00237391
0.0034557
0.00144343
5.83923e-05
0.00352049
0.000997744
0.000125334
0.00356775
0.000397902
9.36729e-05
0.00353421
0.000237618
9.57655e-05
0.00349576
0.000110454
9.31758e-05
0.00345623
9.00642e-05
9.07626e-05
0.00340147
7.77806e-05
9.16113e-05
0.0033321
5.47681e-05
9.39077e-05
0.00319847
8.35892e-06
0.00010608
-1.78949e-06
0.000106816
0.0029883
0.00365882
0.000778988
-3.01861e-05
0.00392509
0.000612782
3.26356e-05
0.00405396
0.000314382
-5.19291e-06
0.00407257
0.000196786
-7.59415e-06
0.00405351
0.000134058
-1.10509e-05
0.00402366
0.000118723
-1.46675e-05
0.003976
0.000110467
-1.26302e-05
0.00390581
9.46585e-05
-6.70673e-06
0.00377041
7.39454e-05
3.67041e-06
5.24418e-05
3.72301e-06
0.00364706
0.00367928
-3.09291e-08
5.69685e-06
0.00404948
1.75661e-08
7.6434e-05
0.00426499
-7.89353e-09
4.3861e-05
0.00433365
6.68703e-08
4.23698e-05
0.00433341
-2.79571e-08
4.07792e-05
0.00431078
2.1854e-07
3.8339e-05
0.00426774
-2.9301e-07
3.91609e-05
0.00419657
3.90918e-07
4.13915e-05
0.00406358
-8.95309e-08
5.3423e-05
6.52272e-06
5.38198e-05
0.00390238
0.00367928
-0.000779045
5.69643e-06
0.00404947
-0.000612748
7.64343e-05
0.00426499
-0.000314393
4.386e-05
0.00433366
-0.000196689
4.23725e-05
0.0043334
-0.000134099
4.0779e-05
0.00431083
-0.000118352
3.83416e-05
0.00426768
-0.000110935
3.91663e-05
0.00419659
-9.39999e-05
4.14148e-05
0.00406281
-7.33888e-05
5.34853e-05
-4.18078e-05
5.40178e-05
0.00390375
0.00365882
-0.00144349
-3.01857e-05
0.00392508
-0.000997703
3.26349e-05
0.00405396
-0.000397934
-5.1933e-06
0.00407258
-0.000237496
-7.59488e-06
0.00405355
-0.000110522
-1.10506e-05
0.0040237
-8.97042e-05
-1.46687e-05
0.00397599
-7.81997e-05
-1.26326e-05
0.00390583
-5.41297e-05
-6.71557e-06
0.00377003
-7.377e-06
3.6415e-06
9.68191e-06
3.57365e-06
0.00364962
0.00345569
-0.00211966
5.83918e-05
0.00352048
-0.00144239
0.000125335
0.00356774
-0.00063575
9.36734e-05
0.00353424
-0.000495609
9.57656e-05
0.00349576
-0.000350238
9.31758e-05
0.00345636
-0.000335478
9.07656e-05
0.00340137
-0.000320993
9.1619e-05
0.00333223
-0.000294558
9.39354e-05
0.00319764
-0.000224432
0.000106158
-0.000137139
0.000107052
0.00299139
0.00321713
-0.00219278
-8.35811e-05
0.00294555
-0.00112502
-2.77245e-05
0.00283315
-0.000371052
-6.22343e-05
0.00272682
-0.000233978
-6.5612e-05
0.00267819
-0.000135159
-6.78892e-05
0.00263486
-0.000132797
-7.0352e-05
0.00257876
-0.00011786
-6.96075e-05
0.00251739
-9.7663e-05
-6.75002e-05
0.00240404
-1.19914e-05
-5.9779e-05
-9.54138e-06
-6.00662e-05
0.00237696
0.00253675
-0.00211691
0.000124972
0.00194102
-0.00108358
0.000195959
0.00181444
-0.00066026
0.000164401
0.00170503
-0.000582488
0.000163959
0.00166793
-0.000544293
0.000161334
0.00162815
-0.000546574
0.000158973
0.001579
-0.000534706
0.000159811
0.00153012
-0.000526516
0.000162072
0.00137842
-0.000380222
0.000174302
-0.000308872
0.000175253
0.00115549
0.00142291
-0.000184358
0.000752101
-0.000121056
0.000659484
-0.000157601
0.000596887
-0.000158276
0.000584022
-0.000160725
0.000561729
-0.000163141
0.000539161
-0.000162368
0.000513335
-0.000160209
0.000593916
-0.000148617
-0.000148793
0.000746238
0.00135888
0.00110346
0.000184358
0.000955859
0.00016091
0.000121056
0.000810845
-0.00017018
0.000157601
0.000763883
-0.000269587
0.000158276
0.000767015
-0.000324585
0.000160727
0.000762733
-0.000321995
0.000163139
0.000773676
-0.0003357
0.000162379
0.000798157
-0.000344889
0.000160204
0.000896834
-0.000396041
0.000148682
-0.000392252
0.000148802
0.000991483
0.00251837
0.00166611
-0.000124972
0.00223072
0.000840468
-0.000195958
0.0020435
0.000345085
-0.000164402
0.00194884
0.000152999
-0.000163958
0.00193348
1.34449e-05
-0.000161334
0.00192485
4.56991e-06
-0.000158969
0.00192854
-1.97759e-05
-0.000159806
0.00195478
-4.70298e-05
-0.000162048
0.00197817
-7.0922e-05
-0.000174255
-5.97044e-05
-0.000175052
0.00199573
0.0030425
0.00128745
8.35814e-05
0.00306164
0.000765879
2.77246e-05
0.00297269
0.000305985
6.22347e-05
0.0029145
7.9957e-05
6.56114e-05
0.00289562
-0.000103459
6.78899e-05
0.00289179
-0.000132303
7.03519e-05
0.002897
-0.000164203
6.96106e-05
0.00291528
-0.000200295
6.74947e-05
0.0029757
-0.000250943
5.97978e-05
-0.000256604
6.00013e-05
0.0030526
0.00323069
0.00100459
-5.83923e-05
0.00351246
0.000734786
-0.000125334
0.0035937
0.000415724
-9.36743e-05
0.00362899
0.000236003
-9.57654e-05
0.00363928
7.26016e-05
-9.31758e-05
0.00365075
3.77574e-05
-9.07626e-05
0.00366277
6.99569e-06
-9.16113e-05
0.00367914
-2.8843e-05
-9.39077e-05
0.00369576
-5.54012e-05
-0.00010608
-3.61876e-05
-0.000106816
0.00368897
0.00330602
0.000469216
3.01861e-05
0.00374651
0.000359562
-3.26356e-05
0.00395535
0.000197313
5.19385e-06
0.00407992
9.56842e-05
7.59339e-06
0.00413017
2.47004e-07
1.10508e-05
0.00416448
-2.58823e-05
1.46675e-05
0.0041891
-4.2886e-05
1.26302e-05
0.00420779
-6.09483e-05
6.70673e-06
0.00423902
-7.9288e-05
-3.67041e-06
-6.71701e-05
-3.723e-06
0.00427745
0.0033117
-5.42203e-08
-5.69685e-06
0.00382411
1.91237e-08
-7.6434e-05
0.00410904
8.4452e-09
-4.38602e-05
0.00429078
1.69711e-08
-4.23705e-05
0.00437242
1.74503e-07
-4.07792e-05
0.00442312
9.52004e-08
-3.8339e-05
0.00445749
1.07135e-06
-3.91609e-05
0.00447822
1.10117e-06
-4.13915e-05
0.00449979
5.9897e-06
-5.3423e-05
2.41922e-05
-5.38198e-05
0.00451607
0.0033117
-0.000469329
-5.69643e-06
0.00382409
-0.000359506
-7.64343e-05
0.00410904
-0.000197314
-4.38608e-05
0.00429077
-9.56307e-05
-4.23718e-05
0.00437247
4.19508e-08
-4.0779e-05
0.00442318
2.60617e-05
-3.83416e-05
0.00445767
4.49133e-05
-3.91663e-05
0.00447889
6.27181e-05
-4.14148e-05
0.00450159
9.02551e-05
-5.34853e-05
0.00011448
-5.40179e-05
0.00451934
0.00330603
-0.00100472
3.01857e-05
0.00374649
-0.000734689
-3.2635e-05
0.00395536
-0.000415766
5.19241e-06
0.00407989
-0.00023591
7.59567e-06
0.00413027
-7.24383e-05
1.10506e-05
0.00416444
-3.74438e-05
1.46687e-05
0.00418952
-5.42897e-06
1.26326e-05
0.00420801
3.07918e-05
6.71557e-06
0.00424085
6.46978e-05
-3.6415e-06
7.58571e-05
-3.57361e-06
0.00428663
0.0032307
-0.00128758
-5.83918e-05
0.00351244
-0.000765751
-0.000125335
0.00359369
-0.000306045
-9.3672e-05
0.00362899
-7.9866e-05
-9.57657e-05
0.00363937
0.00010353
-9.31758e-05
0.0036509
0.00013256
-9.07656e-05
0.00366336
0.000165346
-9.1619e-05
0.00368053
0.000201497
-9.39354e-05
0.00370026
0.000257286
-0.000106158
0.000282047
-0.000107052
0.00370817
0.00304249
-0.00166623
8.35811e-05
0.00306163
-0.000840346
2.77244e-05
0.00297267
-0.000345125
6.2236e-05
0.00291451
-0.000152947
6.56118e-05
0.00289567
-1.34051e-05
6.78892e-05
0.00289191
-4.38044e-06
7.0352e-05
0.0028976
2.044e-05
6.96075e-05
0.0029162
4.78924e-05
6.75002e-05
0.00297959
7.43467e-05
5.9779e-05
7.57686e-05
6.00662e-05
0.00306573
0.00251827
-0.00110348
-0.000124972
0.00223072
-0.000160881
-0.000195959
0.00204347
0.000170168
-0.000164402
0.00194885
0.000269601
-0.000163959
0.00193352
0.000324597
-0.000161334
0.00192503
0.000322055
-0.000158973
0.00192912
0.000335971
-0.000159811
0.00195597
0.000345185
-0.000162072
0.00198187
0.000397049
-0.000174302
0.000397102
-0.000175253
0.00201105
0.00135885
0.000184358
0.00095586
0.000121056
0.000810836
0.0001576
0.000763886
0.000158276
0.000767034
0.000160725
0.000762808
0.000163141
0.000774045
0.000162368
0.000798813
0.000160209
0.000898629
0.000148617
0.000148793
0.000998146
0.00142293
0.0021169
-0.000526726
0.000752101
0.00108358
-0.0002917
0.000659489
0.000660257
-0.000409772
0.000596885
0.000582493
-0.000361608
0.000584008
0.000544312
-0.000370706
0.000561724
0.000546557
-0.000361132
0.000539115
0.000534776
-0.000349787
0.000513274
0.000526503
-0.000340456
0.000593481
0.000380728
-0.000312253
0.000309016
-0.000312294
0.000745562
0.00253677
0.00219275
9.49693e-05
0.00194102
0.00112505
0.000358319
0.00181446
0.000371034
0.000244894
0.00170501
0.00023402
0.000293995
0.00166796
0.000135129
0.000284904
0.00162802
0.000132937
0.000294584
0.00157905
0.000117764
0.000306184
0.00152994
9.79221e-05
0.000315638
0.00137765
1.31092e-05
0.000345652
1.10119e-05
0.000346841
0.00115377
0.00321714
0.00211962
-0.000230467
0.00294555
0.00144243
-1.80902e-05
0.00283316
0.00063573
-0.000135346
0.0027268
0.000495691
-8.97064e-05
0.00267817
0.0003502
-9.85555e-05
0.00263476
0.0003357
-8.90005e-05
0.00257877
0.000320801
-7.74347e-05
0.00251728
0.000294928
-6.80147e-05
0.00240323
0.000226294
-3.93381e-05
0.000140733
-4.03979e-05
0.00237391
0.0034557
0.00144343
-6.25035e-06
0.00352049
0.000997744
0.000254588
0.00356775
0.000397906
0.00014248
0.00353421
0.000237616
0.000193865
0.00349576
0.000110454
0.000185025
0.00345623
9.00642e-05
0.000194398
0.00340147
7.77806e-05
0.000206176
0.0033321
5.4768e-05
0.000215614
0.00319847
8.35893e-06
0.000245488
-1.78953e-06
0.000245882
0.0029883
0.00365882
0.000778988
-0.000133557
0.00392509
0.000612782
8.60728e-05
0.00405396
0.000314378
-3.29277e-05
0.00407257
0.000196786
1.59065e-05
0.00405351
0.000134058
6.48919e-06
0.00402366
0.000118723
1.58669e-05
0.003976
0.000110467
2.76054e-05
0.00390581
9.46585e-05
3.70039e-05
0.00377041
7.39454e-05
6.61393e-05
5.24416e-05
6.53987e-05
0.00364706
0.00367928
-3.09305e-08
-7.48544e-05
0.00404948
1.75569e-08
0.000166132
0.00426499
-1.00821e-08
5.36755e-05
0.00433365
6.88078e-08
0.00010128
0.00433341
-2.7929e-08
9.35666e-05
0.00431078
2.18543e-07
0.000102797
0.00426774
-2.93011e-07
0.00011464
0.00419657
3.90916e-07
0.000124046
0.00406358
-8.95302e-08
0.000153603
6.52276e-06
0.000153295
0.00390238
0.00367928
-0.000779045
-7.48548e-05
0.00404947
-0.000612748
0.000166133
0.00426499
-0.000314397
5.36725e-05
0.00433366
-0.000196689
0.000101287
0.0043334
-0.000134099
9.35651e-05
0.00431083
-0.000118352
0.0001028
0.00426768
-0.000110935
0.000114634
0.00419659
-9.39999e-05
0.000124059
0.00406281
-7.33887e-05
0.000153594
-4.18077e-05
0.000153374
0.00390375
0.00365882
-0.00144349
-0.000133557
0.00392508
-0.000997703
8.60713e-05
0.00405396
-0.00039793
-3.29306e-05
0.00407258
-0.000237497
1.59076e-05
0.00405355
-0.000110522
6.48995e-06
0.0040237
-8.97042e-05
1.58668e-05
0.00397599
-7.81997e-05
2.76107e-05
0.00390583
-5.41297e-05
3.69998e-05
0.00377003
-7.377e-06
6.61561e-05
9.68185e-06
6.5348e-05
0.00364962
0.00345569
-0.00211966
-6.2506e-06
0.00352048
-0.00144239
0.000254589
0.00356774
-0.00063575
0.000142486
0.00353424
-0.000495609
0.000193865
0.00349576
-0.000350238
0.000185023
0.00345636
-0.000335478
0.000194402
0.00340137
-0.000320993
0.000206173
0.00333223
-0.000294558
0.000215633
0.00319764
-0.000224432
0.000245486
-0.000137139
0.000246015
0.00299139
0.00321713
-0.00219278
-0.000230466
0.00294555
-0.00112502
-1.80906e-05
0.00283315
-0.000371057
-0.000135338
0.00272682
-0.000233978
-8.97084e-05
0.00267819
-0.000135159
-9.85542e-05
0.00263486
-0.000132797
-8.90006e-05
0.00257876
-0.00011786
-7.74282e-05
0.00251739
-9.7663e-05
-6.80186e-05
0.00240404
-1.19914e-05
-3.93133e-05
-9.54133e-06
-4.04494e-05
0.00237696
0.00253675
-0.00211691
9.49692e-05
0.00194102
-0.00108358
0.00035832
0.00181444
-0.00066026
0.00024489
0.00170503
-0.000582488
0.000293997
0.00166793
-0.000544293
0.000284902
0.00162815
-0.000546574
0.000294588
0.001579
-0.000534706
0.000306181
0.00153012
-0.000526516
0.00031566
0.00137842
-0.000380222
0.000345636
-0.000308872
0.000347002
0.00115549
0.00142291
-0.000526726
0.000752101
-0.000291701
0.000659484
-0.000409775
0.000596887
-0.00036161
0.000584022
-0.000370702
0.000561729
-0.000361139
0.000539161
-0.00034977
0.000513335
-0.00034048
0.000593916
-0.000312186
-0.000312399
0.000746238
0.000588566
0.0017201
0.000500586
-0.000203719
0.000457108
-0.000366279
0.000454302
-0.0003588
0.000451725
-0.000368128
0.000463362
-0.000372768
0.000466395
-0.000352819
0.000486973
-0.000361034
0.000485807
-0.000311085
-0.000244707
0.000418221
0.00177986
0.00286658
0.00154711
0.000387352
0.00141285
1.24174e-05
0.00142359
-7.5538e-05
0.00140751
-6.71513e-05
0.00143441
-0.000105082
0.00144985
-6.20759e-05
0.00148881
-8.43471e-05
0.00157331
-4.99346e-05
-5.30811e-05
0.00172852
0.00276002
0.00270893
0.00270058
0.000428702
0.00259071
-1.48332e-05
0.0026084
-0.000182942
0.00259914
-0.000156449
0.00263012
-0.000225055
0.00266521
-0.000174605
0.00271442
-0.000201569
0.00281577
-0.000190627
-0.000126777
0.00284907
0.00348387
0.00205054
0.00360607
0.000561099
0.00354805
0.000187522
0.00356782
-8.98285e-06
0.00358434
1.20587e-05
0.00361306
-5.93804e-05
0.00366199
-1.73623e-05
0.00371632
-4.02822e-05
0.00381143
-4.02464e-05
-6.85214e-06
0.00393739
0.00368454
0.00106476
0.00404745
0.000284258
0.00412728
7.52018e-05
0.00417407
-4.04213e-05
0.00422087
-2.82515e-05
0.00424935
-7.19879e-05
0.00430928
-4.96899e-05
0.0043679
-6.18917e-05
0.00445784
-6.40552e-05
-3.65848e-05
0.00455298
0.00382192
1.78786e-08
0.0042723
1.18337e-08
0.0044011
1.52375e-08
0.00446261
4.14934e-08
0.00452783
1.00928e-07
0.00455848
1.54178e-07
0.00462285
5.88483e-07
0.00468423
7.75846e-07
0.00477057
3.20019e-06
8.48315e-06
0.0048788
0.00382193
-0.00106473
0.00427231
-0.000284232
0.00440111
-7.51752e-05
0.00446262
4.04901e-05
0.00452786
2.8428e-05
0.00455851
7.23052e-05
0.00462303
5.07074e-05
0.00468446
6.34018e-05
0.00477174
6.95174e-05
5.29194e-05
0.00488067
0.00368454
-0.00205052
0.00404746
-0.000561076
0.00412731
-0.000187467
0.00417411
9.0304e-06
0.00422095
-1.19234e-05
0.00424951
5.96073e-05
0.00430969
1.81443e-05
0.00436871
4.13861e-05
0.00446035
4.40318e-05
2.04503e-05
0.00455817
0.00348388
-0.00270892
0.00360608
-0.000428683
0.00354808
1.4846e-05
0.00356786
0.000182985
0.00358444
0.000156522
0.00361323
0.000225222
0.00366254
0.000175005
0.00371732
0.000202245
0.00381466
0.000192174
0.000134796
0.00394634
0.00276003
-0.00286657
0.0027006
-0.000387344
0.00259073
-1.24408e-05
0.00260845
7.55567e-05
0.00259923
6.71823e-05
0.00263031
0.000105146
0.00266565
6.22379e-05
0.00271525
8.46233e-05
0.00281803
5.00888e-05
5.86539e-05
0.00285372
0.00177986
-0.0017201
0.00154712
0.000203721
0.00141286
0.000366285
0.00142361
0.000358808
0.00140757
0.000368124
0.00143448
0.000372823
0.00145012
0.000352786
0.00148923
0.000361169
0.00157421
0.000310751
0.000245317
0.00173455
0.000588567
0.000500589
0.000457111
0.000454311
0.000451734
0.000463419
0.000466437
0.000487126
0.000485692
0.00041861
0.000535875
-0.00377846
0.00366107
0.000496749
-0.00351663
0.00355576
0.000495111
-0.00346603
0.00346767
0.000488629
-0.00344643
0.00345292
0.000489682
-0.00345057
0.00344948
0.000488174
-0.00344793
0.00344941
0.000488702
-0.00345287
0.00345238
0.000488354
-0.00345438
0.00345483
0.000488532
-0.00345826
0.00345809
0.000488408
-0.00346133
0.00346125
0.000488444
-0.00346511
0.00346481
0.000488479
-0.00346817
0.00346816
0.00048864
-0.00347076
0.00347112
0.000488788
-0.00347298
0.00347361
0.000488828
-0.0034758
0.00347612
0.000488649
-0.00347983
0.00347933
0.000488267
-0.00348523
0.00348369
0.000487785
-0.0034914
0.00348911
0.000487358
-0.00349738
0.00349499
0.000487124
-0.00350228
0.00350051
0.00048716
-0.00350558
0.00350494
0.000487475
-0.00350719
0.00350788
0.00048803
-0.00350734
0.00350929
0.000488766
-0.00350642
0.00350939
0.00048962
-0.00350478
0.00350849
0.000490547
-0.00350275
0.00350692
0.000491507
-0.0035005
0.00350495
0.000492491
-0.00349816
0.00350275
0.000493475
-0.00349577
0.00350043
0.000494474
-0.00349338
0.00349806
0.000495454
-0.00349095
0.00349566
0.000496463
-0.00348856
0.00349325
0.000497426
-0.00348611
0.00349084
0.000498443
-0.00348377
0.00348845
0.000499341
-0.00348134
0.00348615
0.00050029
-0.00347916
0.00348391
0.000500789
-0.00347758
0.00348279
0.000500705
-0.00347588
0.00348168
0.000510889
-0.0034993
0.00349483
-0.00354774
0.0034998
0.00157154
-0.00178314
-0.00184491
0.00147889
-0.00144089
-0.00198299
0.00146549
-0.00137225
-0.00208043
0.00145487
-0.0013357
-0.00210014
0.00145399
-0.00134109
-0.00210868
0.00145215
-0.00133279
-0.00211338
0.00145236
-0.00133807
-0.00211503
0.00145208
-0.00133711
-0.00211693
0.00145223
-0.00134041
-0.00211803
0.0014521
-0.00134195
-0.00211948
0.00145206
-0.0013446
-0.00212079
0.00145212
-0.00134618
-0.00212209
0.00145248
-0.00134758
-0.00212307
0.00145293
-0.00134884
-0.00212387
0.00145315
-0.00135096
-0.00212473
0.00145281
-0.00135418
-0.00212602
0.00145184
-0.00135832
-0.00212789
0.00145046
-0.00136259
-0.00213024
0.0014491
-0.00136618
-0.00213272
0.00144819
-0.00136856
-0.0021349
0.00144802
-0.00136965
-0.00213646
0.00144869
-0.00136965
-0.00213729
0.00145011
-0.00136895
-0.00213739
0.00145213
-0.00136788
-0.00213692
0.00145456
-0.00136668
-0.00213604
0.00145724
-0.0013655
-0.00213491
0.00146006
-0.00136435
-0.00213363
0.00146296
-0.00136328
-0.00213227
0.00146588
-0.00136221
-0.00213089
0.00146883
-0.00136122
-0.00212948
0.00147176
-0.00136017
-0.00212808
0.00147473
-0.00135923
-0.00212666
0.00147764
-0.00135814
-0.00212524
0.00148059
-0.0013573
-0.00212378
0.00148338
-0.00135622
-0.00212226
0.00148613
-0.00135567
-0.00212061
0.00148791
-0.00135582
-0.00211789
0.00148841
-0.00135558
-0.00211502
0.00150016
-0.00140778
-0.00209747
-0.00143326
-0.00208373
0.00264397
-0.0025405
0.000916305
0.00251485
-0.00211731
0.000805617
0.00248742
-0.00205414
0.000709269
0.00247459
-0.00201356
0.000690652
0.00247082
-0.00202035
0.000682965
0.00246925
-0.00201052
0.000679231
0.0024688
-0.00201604
0.000678412
0.00246876
-0.00201432
0.000677329
0.00246876
-0.00201744
0.000677013
0.00246862
-0.0020185
0.000676452
0.00246845
-0.00202082
0.000676088
0.00246855
-0.00202197
0.000675652
0.00246909
-0.00202295
0.000675292
0.00246984
-0.00202377
0.000674916
0.00247022
-0.0020255
0.000674533
0.00246967
-0.00202838
0.000674097
0.00246803
-0.00203221
0.000673618
0.00246567
-0.00203613
0.000673118
0.00246329
-0.00203932
0.000672635
0.00246165
-0.00204123
0.000672195
0.00246124
-0.00204179
0.000671807
0.00246225
-0.00204125
0.000671461
0.00246457
-0.00204001
0.000671136
0.00246791
-0.00203843
0.000670813
0.00247198
-0.00203674
0.000670478
0.0024765
-0.0020351
0.000670126
0.00248127
-0.00203352
0.000669755
0.00248618
-0.00203203
0.000669371
0.00249115
-0.00203054
0.000668975
0.00249614
-0.00202914
0.000668575
0.00250114
-0.00202766
0.000668167
0.00250614
-0.00202633
0.000667767
0.00251112
-0.0020248
0.000667361
0.0025161
-0.00202358
0.000666987
0.00252092
-0.00202205
0.000666685
0.00252556
-0.00202113
0.000666499
0.00252884
-0.00202081
0.00066739
0.00253033
-0.0020197
0.000668397
0.00251553
-0.00207175
0.000684557
-0.00211992
0.000691303
0.00353912
-0.00116202
-0.000925609
0.00338503
-0.000913854
-0.00105363
0.00334596
-0.000860281
-0.00115147
0.0033323
-0.000827372
-0.00117019
0.00332593
-0.000833317
-0.00117816
0.00332479
-0.000825186
-0.00118193
0.00332368
-0.000829605
-0.00118285
0.00332387
-0.000828049
-0.00118394
0.00332369
-0.000830447
-0.00118429
0.00332357
-0.000831128
-0.0011849
0.00332324
-0.000832832
-0.00118534
0.00332332
-0.000833609
-0.00118582
0.00332396
-0.000834319
-0.00118612
0.00332494
-0.000834936
-0.00118634
0.00332546
-0.000836256
-0.00118657
0.00332477
-0.000838393
-0.00118703
0.0033226
-0.000841155
-0.00118776
0.0033194
-0.000843904
-0.00118873
0.00331611
-0.000846053
-0.00118974
0.00331375
-0.000847261
-0.0011906
0.00331303
-0.000847528
-0.00119116
0.00331422
-0.000847089
-0.00119136
0.0033172
-0.000846242
-0.00119123
0.00332159
-0.000845259
-0.00119083
0.00332699
-0.000844285
-0.00119025
0.00333302
-0.00084341
-0.00118956
0.00333942
-0.00084261
-0.00118882
0.003346
-0.00084191
-0.00118805
0.00335268
-0.000841216
-0.00118727
0.00335938
-0.000840606
-0.00118648
0.00336611
-0.000839926
-0.0011857
0.00337282
-0.000839373
-0.0011849
0.00337955
-0.000838651
-0.00118411
0.0033862
-0.000838195
-0.00118328
0.00339275
-0.000837455
-0.00118238
0.00339898
-0.000837245
-0.00118136
0.00340364
-0.000837425
-0.00117925
0.00340658
-0.000843239
-0.00117674
0.0033869
-0.000891185
-0.00115939
-0.00091469
-0.00114655
0.00414979
-0.000747495
5.57198e-05
0.00398073
-0.000721675
-5.29151e-05
0.00393333
-0.000636655
-0.000153172
0.00391948
-0.000625655
-0.000171677
0.00391119
-0.000627394
-0.000180027
0.00391044
-0.000624602
-0.000183973
0.00390882
-0.000625739
-0.000185268
0.00390918
-0.000624996
-0.000186656
0.00390886
-0.000625494
-0.000187357
0.00390873
-0.000625447
-0.000188285
0.00390828
-0.000625729
-0.000189067
0.00390833
-0.00062572
-0.000189887
0.00390902
-0.000625697
-0.000190558
0.00391014
-0.000625645
-0.000191164
0.00391076
-0.000625812
-0.000191782
0.00390998
-0.000626233
-0.000192573
0.00390745
-0.000626852
-0.000193601
0.00390366
-0.000627469
-0.000194825
0.00389973
-0.000627897
-0.000196101
0.00389685
-0.000628025
-0.000197262
0.00389587
-0.000627854
-0.000198183
0.00389715
-0.000627461
-0.000198813
0.00390053
-0.000626945
-0.000199167
0.00390562
-0.000626395
-0.000199304
0.00391191
-0.000625855
-0.000199293
0.00391897
-0.000625353
-0.000199192
0.00392647
-0.000624878
-0.000199046
0.00393419
-0.000624437
-0.000198877
0.00394203
-0.000623999
-0.000198704
0.0039499
-0.000623589
-0.000198524
0.00395782
-0.000623154
-0.000198351
0.00396569
-0.000622762
-0.000198166
0.00397361
-0.000622312
-0.000197986
0.00398141
-0.000621953
-0.000197772
0.00398915
-0.000621493
-0.000197488
0.00399647
-0.000621215
-0.000197083
0.00400208
-0.000621048
-0.00019561
0.00400607
-0.000670172
-0.000191965
0.00397101
-0.000704185
-0.000174734
-0.000727724
-0.000165624
0.00445259
1.2911e-06
-0.000391761
0.00427775
4.63883e-06
-0.000517471
0.00422637
1.14608e-06
-0.000612552
0.00421256
1.52803e-06
-0.000631726
0.00420332
1.51518e-06
-0.000639727
0.00420278
1.49182e-06
-0.000643653
0.00420089
1.52159e-06
-0.000644597
0.00420134
1.50807e-06
-0.000645781
0.00420094
1.51935e-06
-0.000646174
0.00420081
1.51653e-06
-0.000646838
0.00420029
1.52033e-06
-0.000647328
0.00420031
1.51794e-06
-0.000647877
0.00420102
1.51704e-06
-0.000648273
0.00420222
1.51689e-06
-0.000648604
0.00420288
1.52096e-06
-0.00064893
0.00420206
1.52779e-06
-0.000649412
0.00419934
1.53521e-06
-0.00065012
0.00419527
1.53989e-06
-0.000651024
0.004191
1.54028e-06
-0.000651992
0.00418785
1.5364e-06
-0.000652862
0.00418674
1.52985e-06
-0.000653507
0.00418804
1.52252e-06
-0.00065387
0.00419162
1.51597e-06
-0.000653962
0.00419704
1.51098e-06
-0.000653837
0.00420378
1.5077e-06
-0.000653561
0.00421134
1.5059e-06
-0.000653191
0.00421939
1.50502e-06
-0.000652774
0.00422768
1.50504e-06
-0.00065233
0.0042361
1.50513e-06
-0.000651881
0.00424455
1.50565e-06
-0.000651423
0.00425306
1.50604e-06
-0.000650973
0.00426151
1.50673e-06
-0.000650507
0.00427002
1.50699e-06
-0.00065005
0.00427839
1.50772e-06
-0.000649551
0.00428673
1.50706e-06
-0.000648989
0.00429459
1.5069e-06
-0.000648291
0.00430072
1.4987e-06
-0.000646511
0.00430529
1.44824e-06
-0.000646884
0.00426812
1.29233e-06
-0.00063001
1.33081e-06
-0.00061928
0.00445418
0.000749113
-0.000390811
0.00427992
0.000730651
-0.000516114
0.00422845
0.000638133
-0.000611297
0.00421465
0.000627572
-0.00063043
0.00420541
0.0006293
-0.000638434
0.00420486
0.000626498
-0.000642367
0.00420297
0.000627657
-0.000643312
0.00420342
0.000626903
-0.000644502
0.00420302
0.00062741
-0.000644898
0.00420288
0.00062736
-0.000645566
0.00420236
0.000627644
-0.00064606
0.00420238
0.000627632
-0.000646613
0.00420309
0.000627608
-0.000647013
0.00420428
0.000627555
-0.000647347
0.00420495
0.000627725
-0.000647677
0.00420412
0.000628152
-0.000648163
0.00420139
0.000628778
-0.000648874
0.00419731
0.0006294
-0.000649785
0.00419304
0.000629828
-0.000650759
0.00418988
0.000629951
-0.000651635
0.00418876
0.000629773
-0.000652285
0.00419007
0.000629372
-0.000652652
0.00419365
0.00062885
-0.000652747
0.00419907
0.000628294
-0.000652624
0.00420581
0.000627751
-0.000652349
0.00421338
0.000627247
-0.000651979
0.00422143
0.000626771
-0.000651562
0.00422973
0.00062633
-0.000651118
0.00423816
0.000625892
-0.000650669
0.00424661
0.000625482
-0.000650211
0.00425512
0.000625047
-0.00064976
0.00426358
0.000624657
-0.000649294
0.0042721
0.000624206
-0.000648837
0.00428048
0.000623848
-0.000648337
0.00428882
0.000623387
-0.000647775
0.00429668
0.000623109
-0.000647076
0.00430281
0.000622933
-0.000645298
0.00430739
0.000671723
-0.000645642
0.0042702
0.000705416
-0.000628766
0.000729067
-0.000618035
0.00415434
0.0011649
5.54156e-05
0.0039867
0.0009198
-5.29337e-05
0.00393915
0.000861425
-0.000153126
0.00392532
0.000829034