/*--------------------------------*- C++ -*----------------------------------*\
  =========                 |
  \\      /  F ield         | OpenFOAM: The Open Source CFD Toolbox
   \\    /   O peration     | Website:  https://openfoam.org
    \\  /    A nd           | Version:  7
     \\/     M anipulation  |
\*---------------------------------------------------------------------------*/
FoamFile
{
    version     2.0;
    format      ascii;
    class       volScalarField;
    location    "1.97";
    object      k;
}
// * * * * * * * * * * * * * * * * * * * * * * * * * * * * * * * * * * * * * //

dimensions      [0 2 -2 0 0 0 0];

internalField   nonuniform List<scalar> 
7920
(
52.0161
56.448
56.4531
56.5192
56.4476
56.4764
56.4141
56.4306
56.3819
56.3979
56.3649
56.3801
56.3559
56.3637
56.3505
56.3478
56.3611
56.3169
56.4452
56.5056
13.8397
14.0062
13.4276
12.8783
12.617
12.5189
12.4319
12.4066
12.3597
12.3497
12.3199
12.3148
12.2965
12.2943
12.2835
12.28
12.2764
12.2663
12.4413
12.4469
8.08746
9.22561
9.3434
9.32875
9.28968
9.2813
9.2586
9.25554
9.23977
9.23706
9.22391
9.22134
9.21042
9.20785
9.19894
9.19611
9.18932
9.18511
9.18916
9.21334
7.48575
8.75791
9.01052
9.1028
9.12757
9.16257
9.16951
9.18947
9.19207
9.20481
9.2052
9.21322
9.21217
9.21707
9.21492
9.21768
9.21496
9.21629
9.21575
9.23758
7.42088
8.70434
8.97
9.07866
9.11684
9.16568
9.18275
9.21712
9.22845
9.25419
9.26252
9.28251
9.28836
9.30345
9.30717
9.31821
9.32033
9.32763
9.33018
9.35427
7.42779
8.70087
8.96491
9.07519
9.11717
9.17086
9.193
9.23325
9.24933
9.28194
9.29478
9.32144
9.33156
9.35291
9.3604
9.37703
9.38241
9.3942
9.40047
9.42544
7.42779
8.70087
8.96491
9.07519
9.11717
9.17086
9.193
9.23325
9.24933
9.28194
9.29478
9.32145
9.33155
9.35293
9.36039
9.37707
9.38241
9.39427
9.40054
9.42552
7.42088
8.70434
8.96999
9.07866
9.11683
9.16569
9.18274
9.21714
9.22844
9.25421
9.2625
9.28256
9.28832
9.30354
9.3071
9.31836
9.32027
9.32785
9.33021
9.35456
7.48574
8.75791
9.01052
9.10281
9.12756
9.16259
9.1695
9.1895
9.19204
9.20486
9.20515
9.2133
9.21202
9.2173
9.21463
9.21815
9.21444
9.21723
9.21502
9.23852
8.08746
9.22562
9.3434
9.32875
9.28967
9.28131
9.25858
9.25556
9.23972
9.23712
9.22379
9.22148
9.21015
9.20819
9.19829
9.19695
9.18773
9.18792
9.18673
9.21673
13.8397
14.0062
13.4276
12.8783
12.617
12.5189
12.4319
12.4067
12.3596
12.3498
12.3197
12.3151
12.2961
12.2949
12.2824
12.2818
12.2732
12.2717
12.4298
12.4588
52.0161
56.448
56.4531
56.5193
56.4475
56.4765
56.4139
56.4308
56.3816
56.3984
56.3641
56.3815
56.3538
56.367
56.3449
56.3568
56.3457
56.3432
56.3967
56.5869
7.67229
9.66541
9.7466
9.62209
9.58765
9.51851
9.51409
9.47283
9.47249
9.44473
9.44674
9.42691
9.42926
9.41349
9.41652
9.40221
9.40919
9.38862
9.40045
9.43557
6.02063
8.24853
8.58699
8.63284
8.63852
8.64004
8.63835
8.6366
8.63296
8.63011
8.62703
8.62412
8.6221
8.61873
8.61783
8.61399
8.61439
8.60968
8.61754
8.62085
5.70401
7.90712
8.25823
8.32964
8.34168
8.35964
8.36539
8.37816
8.38223
8.39106
8.39367
8.39936
8.40124
8.40449
8.40648
8.40748
8.41026
8.40896
8.41123
8.44131
5.69565
7.89854
8.24701
8.31518
8.32009
8.33049
8.33087
8.33751
8.33952
8.34609
8.34823
8.35344
8.3553
8.35866
8.36054
8.36177
8.36426
8.36339
8.36581
8.38452
5.68385
7.88305
8.23152
8.30164
8.30584
8.31514
8.31334
8.31819
8.31784
8.32225
8.32273
8.32655
8.32707
8.32966
8.32985
8.33115
8.33109
8.33154
8.33162
8.35104
5.69018
7.89113
8.2387
8.30843
8.3125
8.32178
8.31981
8.3245
8.32373
8.32785
8.32782
8.3312
8.33124
8.33344
8.33304
8.33403
8.33323
8.33331
8.33204
8.35005
5.69018
7.89113
8.2387
8.30843
8.3125
8.32178
8.31981
8.32451
8.32373
8.32786
8.32781
8.33121
8.33123
8.33346
8.33303
8.33404
8.3332
8.33332
8.33208
8.35002
5.68384
7.88305
8.23151
8.30165
8.30583
8.31514
8.31334
8.31821
8.31783
8.32228
8.32271
8.32658
8.32702
8.32972
8.32976
8.33126
8.33095
8.33169
8.33144
8.35108
5.69565
7.89855
8.247
8.31519
8.32009
8.3305
8.33086
8.33753
8.3395
8.34614
8.34818
8.35353
8.35517
8.35892
8.36007
8.36236
8.36355
8.36399
8.36522
8.385
5.704
7.90713
8.25822
8.32965
8.34167
8.35966
8.36537
8.37819
8.3822
8.39113
8.39359
8.39952
8.40101
8.40493
8.40574
8.40857
8.4087
8.41099
8.40866
8.44368
6.02063
8.24853
8.58699
8.63284
8.63851
8.64005
8.63833
8.63663
8.6329
8.63021
8.62687
8.62437
8.6217
8.61935
8.617
8.61541
8.61216
8.61307
8.61172
8.62885
7.67229
9.66541
9.7466
9.6221
9.58764
9.51853
9.51407
9.47287
9.47244
9.44481
9.44662
9.42713
9.42894
9.41405
9.4157
9.4037
9.40689
9.39304
9.39362
9.44738
0.477085
1.03607
1.13429
1.10527
1.03186
0.965268
0.913578
0.876889
0.849926
0.829158
0.814175
0.800574
0.791194
0.781083
0.774754
0.767011
0.762094
0.75747
0.749745
0.757575
0.0858431
0.38219
0.52626
0.588427
0.610509
0.624404
0.631314
0.638892
0.642611
0.646635
0.647939
0.649526
0.649585
0.64976
0.649407
0.649173
0.64854
0.648088
0.647329
0.650119
0.0641641
0.299794
0.416222
0.474605
0.493085
0.506738
0.509938
0.516447
0.518731
0.523673
0.526079
0.530447
0.533047
0.536632
0.539317
0.542184
0.544858
0.547239
0.549021
0.553518
0.0680296
0.303461
0.417517
0.473425
0.491488
0.502889
0.504629
0.507703
0.507883
0.508944
0.509225
0.510179
0.510703
0.511676
0.512694
0.513425
0.514903
0.515562
0.516861
0.520175
0.0661839
0.299455
0.412378
0.468287
0.485916
0.497282
0.49874
0.501538
0.501352
0.501879
0.501605
0.501824
0.501652
0.501744
0.501727
0.501756
0.501927
0.501955
0.502166
0.504254
0.0672175
0.301692
0.415025
0.470712
0.488494
0.499741
0.501358
0.504086
0.503947
0.504423
0.504152
0.504284
0.504069
0.50404
0.503909
0.503703
0.503677
0.503494
0.503572
0.505372
0.0672174
0.301692
0.415024
0.470712
0.488494
0.499741
0.501358
0.504087
0.503947
0.504423
0.504152
0.504284
0.504069
0.50404
0.503908
0.503705
0.503677
0.503494
0.503569
0.50537
0.0661837
0.299455
0.412378
0.468288
0.485915
0.497282
0.49874
0.501539
0.501352
0.50188
0.501605
0.501824
0.501651
0.501745
0.501725
0.501755
0.501925
0.501952
0.502163
0.504243
0.0680292
0.303461
0.417516
0.473425
0.491487
0.50289
0.504628
0.507703
0.507883
0.508945
0.509225
0.510183
0.510694
0.511692
0.512673
0.513431
0.514879
0.515556
0.516835
0.520126
0.0641636
0.299795
0.416221
0.474606
0.493083
0.506739
0.509938
0.516448
0.51873
0.523678
0.526068
0.530459
0.533026
0.53666
0.539265
0.542222
0.54478
0.547242
0.548964
0.553415
0.0858428
0.38219
0.52626
0.588428
0.610507
0.624406
0.63131
0.638898
0.6426
0.646648
0.647918
0.649545
0.649573
0.649772
0.649344
0.64919
0.648428
0.648148
0.647167
0.650118
0.477084
1.03607
1.13429
1.10527
1.03186
0.965271
0.913574
0.876897
0.849918
0.829179
0.814157
0.800624
0.791155
0.781202
0.774673
0.767296
0.761919
0.758089
0.749564
0.758699
0.477085
1.03607
1.13429
1.10527
1.03186
0.965268
0.913578
0.876889
0.849926
0.829158
0.814175
0.800574
0.791194
0.781083
0.774754
0.767011
0.762094
0.75747
0.749745
0.757575
0.0858431
0.38219
0.52626
0.588427
0.610509
0.624404
0.631314
0.638892
0.642611
0.646635
0.647939
0.649526
0.649585
0.649761
0.649407
0.649173
0.64854
0.648088
0.647329
0.650119
0.0641641
0.299794
0.416222
0.474605
0.493085
0.506738
0.509938
0.516447
0.518731
0.523673
0.526079
0.530447
0.533047
0.536632
0.539317
0.542184
0.544858
0.547239
0.549021
0.553519
0.0680296
0.303461
0.417517
0.473425
0.491488
0.502889
0.504629
0.507703
0.507883
0.508944
0.509225
0.510179
0.510703
0.511676
0.512694
0.513425
0.514903
0.515562
0.516861
0.520175
0.0661839
0.299455
0.412378
0.468287
0.485916
0.497282
0.49874
0.501538
0.501352
0.501879
0.501605
0.501824
0.501652
0.501744
0.501727
0.501757
0.501927
0.501955
0.502166
0.504254
0.0672175
0.301692
0.415025
0.470712
0.488494
0.499741
0.501358
0.504086
0.503947
0.504423
0.504152
0.504284
0.504069
0.50404
0.503909
0.503703
0.503677
0.503494
0.503572
0.505372
0.0672174
0.301692
0.415025
0.470712
0.488494
0.499741
0.501358
0.504087
0.503947
0.504423
0.504152
0.504284
0.504069
0.50404
0.503908
0.503705
0.503677
0.503494
0.503569
0.50537
0.0661837
0.299455
0.412378
0.468288
0.485915
0.497282
0.49874
0.501539
0.501352
0.50188
0.501605
0.501824
0.501651
0.501745
0.501726
0.501755
0.501925
0.501952
0.502163
0.504243
0.0680292
0.303461
0.417516
0.473425
0.491487
0.50289
0.504628
0.507703
0.507883
0.508945
0.509225
0.510183
0.510694
0.511692
0.512673
0.513431
0.514879
0.515556
0.516835
0.520126
0.0641636
0.299795
0.416221
0.474606
0.493083
0.506739
0.509938
0.516448
0.51873
0.523678
0.526068
0.530459
0.533026
0.53666
0.539265
0.542222
0.54478
0.547242
0.548964
0.553415
0.0858428
0.38219
0.52626
0.588428
0.610507
0.624406
0.63131
0.638898
0.6426
0.646648
0.647918
0.649545
0.649573
0.649772
0.649344
0.64919
0.648428
0.648148
0.647167
0.650118
0.477085
1.03607
1.13429
1.10527
1.03186
0.965271
0.913574
0.876898
0.849918
0.829179
0.814157
0.800624
0.791155
0.781202
0.774673
0.767296
0.761919
0.758089
0.749564
0.758699
7.67229
9.66541
9.7466
9.62209
9.58765
9.51851
9.51409
9.47283
9.47249
9.44473
9.44674
9.42691
9.42926
9.41349
9.41652
9.40221
9.40919
9.38862
9.40045
9.43557
6.02063
8.24853
8.58699
8.63284
8.63852
8.64004
8.63835
8.6366
8.63296
8.63011
8.62703
8.62413
8.6221
8.61873
8.61783
8.61399
8.61439
8.60968
8.61754
8.62085
5.70401
7.90712
8.25823
8.32964
8.34168
8.35964
8.36539
8.37816
8.38223
8.39106
8.39367
8.39936
8.40124
8.40449
8.40648
8.40748
8.41026
8.40896
8.41123
8.44131
5.69565
7.89854
8.24701
8.31518
8.32009
8.33049
8.33087
8.33751
8.33952
8.34609
8.34823
8.35344
8.3553
8.35866
8.36054
8.36177
8.36426
8.36339
8.36581
8.38452
5.68385
7.88305
8.23152
8.30164
8.30584
8.31514
8.31334
8.31819
8.31784
8.32225
8.32273
8.32655
8.32707
8.32966
8.32985
8.33115
8.33109
8.33154
8.33162
8.35104
5.69018
7.89113
8.2387
8.30843
8.3125
8.32178
8.31981
8.3245
8.32373
8.32785
8.32782
8.3312
8.33124
8.33344
8.33304
8.33403
8.33323
8.33331
8.33204
8.35005
5.69018
7.89113
8.2387
8.30843
8.3125
8.32178
8.31981
8.32451
8.32373
8.32786
8.32781
8.33121
8.33123
8.33346
8.33303
8.33404
8.3332
8.33332
8.33208
8.35002
5.68384
7.88305
8.23151
8.30165
8.30583
8.31514
8.31334
8.31821
8.31783
8.32228
8.32271
8.32658
8.32702
8.32972
8.32976
8.33126
8.33095
8.33169
8.33144
8.35108
5.69565
7.89855
8.247
8.31519
8.32009
8.3305
8.33086
8.33753
8.3395
8.34614
8.34818
8.35353
8.35517
8.35892
8.36007
8.36236
8.36355
8.36399
8.36522
8.385
5.704
7.90713
8.25822
8.32965
8.34167
8.35966
8.36537
8.37819
8.3822
8.39113
8.39359
8.39952
8.40101
8.40493
8.40574
8.40857
8.4087
8.41099
8.40866
8.44368
6.02063
8.24853
8.58699
8.63285
8.63851
8.64005
8.63833
8.63663
8.6329
8.63021
8.62687
8.62437
8.6217
8.61935
8.617
8.61541
8.61216
8.61307
8.61172
8.62885
7.67229
9.66541
9.7466
9.6221
9.58764
9.51853
9.51407
9.47287
9.47244
9.44481
9.44662
9.42713
9.42894
9.41405
9.4157
9.4037
9.40689
9.39304
9.39362
9.44738
52.0161
56.448
56.4531
56.5192
56.4476
56.4764
56.414
56.4306
56.3819
56.3979
56.3649
56.3801
56.3559
56.3637
56.3505
56.3478
56.3611
56.3169
56.4452
56.5056
13.8397
14.0062
13.4276
12.8783
12.617
12.5189
12.4319
12.4066
12.3597
12.3497
12.3199
12.3148
12.2965
12.2943
12.2835
12.28
12.2764
12.2663
12.4413
12.4469
8.08746
9.22561
9.3434
9.32875
9.28968
9.2813
9.2586
9.25554
9.23977
9.23706
9.22391
9.22134
9.21042
9.20785
9.19894
9.19611
9.18932
9.18511
9.18916
9.21334
7.48575
8.75791
9.01052
9.1028
9.12757
9.16257
9.16951
9.18947
9.19207
9.20481
9.2052
9.21322
9.21217
9.21707
9.21492
9.21768
9.21496
9.21629
9.21575
9.23758
7.42088
8.70434
8.97
9.07866
9.11684
9.16568
9.18275
9.21712
9.22845
9.25419
9.26252
9.28251
9.28836
9.30345
9.30717
9.31821
9.32033
9.32763
9.33018
9.35427
7.42779
8.70087
8.96491
9.07519
9.11717
9.17086
9.193
9.23325
9.24933
9.28194
9.29478
9.32144
9.33156
9.35291
9.3604
9.37703
9.38241
9.3942
9.40047
9.42544
7.42779
8.70087
8.96491
9.07519
9.11717
9.17086
9.193
9.23325
9.24933
9.28194
9.29478
9.32145
9.33155
9.35293
9.36039
9.37707
9.38241
9.39427
9.40053
9.42552
7.42088
8.70434
8.96999
9.07866
9.11683
9.16569
9.18274
9.21714
9.22844
9.25421
9.2625
9.28256
9.28832
9.30354
9.3071
9.31836
9.32027
9.32785
9.33021
9.35456
7.48574
8.75791
9.01052
9.10281
9.12756
9.16259
9.1695
9.1895
9.19204
9.20486
9.20515
9.2133
9.21202
9.2173
9.21463
9.21815
9.21443
9.21723
9.21502
9.23852
8.08746
9.22562
9.3434
9.32875
9.28967
9.28131
9.25858
9.25556
9.23972
9.23712
9.22379
9.22148
9.21015
9.20819
9.19829
9.19695
9.18773
9.18792
9.18672
9.21673
13.8397
14.0062
13.4276
12.8783
12.617
12.5189
12.4319
12.4067
12.3596
12.3498
12.3197
12.3151
12.2961
12.2949
12.2824
12.2818
12.2732
12.2717
12.4298
12.4588
52.0161
56.448
56.4531
56.5193
56.4475
56.4765
56.4139
56.4308
56.3816
56.3984
56.3641
56.3815
56.3538
56.367
56.3449
56.3568
56.3457
56.3432
56.3967
56.5869
144.132
146.336
147.404
148.263
148.922
149.555
150.094
150.627
151.083
151.529
151.921
152.317
152.681
153.048
153.383
153.714
154.014
154.313
154.587
154.857
155.101
155.336
155.542
155.735
155.901
156.054
156.178
156.288
156.37
156.44
156.487
156.525
156.547
156.565
156.573
156.581
156.583
156.587
156.586
156.589
156.587
156.589
156.588
156.589
156.588
156.59
156.588
156.59
156.588
156.59
156.588
156.59
156.588
156.59
156.588
156.59
156.588
156.589
156.588
156.589
156.588
156.589
156.588
156.589
156.588
156.588
156.587
156.588
156.587
156.587
156.586
156.587
156.585
156.586
156.584
156.585
156.583
156.583
156.582
156.582
156.58
156.58
156.578
156.578
156.575
156.575
156.571
156.571
156.537
156.514
47.2995
49.0992
49.4377
49.7342
49.9288
50.1516
50.3133
50.5032
50.6419
50.802
50.9217
51.0642
51.1763
51.3085
51.4127
51.5323
51.6264
51.7347
51.8209
51.9194
51.9966
52.0829
52.1483
52.2207
52.2733
52.3317
52.371
52.4149
52.4407
52.4709
52.485
52.5043
52.5102
52.5225
52.5241
52.5326
52.5323
52.5391
52.5382
52.5443
52.5433
52.549
52.5481
52.5536
52.5529
52.5581
52.5576
52.5626
52.5623
52.5671
52.5669
52.5715
52.5714
52.5759
52.5758
52.5802
52.5802
52.5843
52.5844
52.5884
52.5886
52.5924
52.5926
52.5963
52.5964
52.6
52.6002
52.6036
52.6037
52.607
52.6071
52.6103
52.6103
52.6133
52.6133
52.6161
52.616
52.6187
52.6185
52.621
52.6206
52.6229
52.6223
52.6244
52.6235
52.6255
52.6238
52.6265
52.6086
52.5994
30.5128
32.5605
32.7727
32.9694
33.0656
33.2155
33.2976
33.43
33.505
33.6196
33.6843
33.7855
33.8469
33.9421
34.0017
34.0894
34.144
34.2239
34.2747
34.3486
34.3955
34.4621
34.5028
34.5605
34.5937
34.6422
34.6676
34.7067
34.7238
34.7534
34.763
34.7844
34.7884
34.8039
34.8049
34.817
34.8167
34.8271
34.8265
34.8361
34.8355
34.8447
34.8443
34.8531
34.853
34.8615
34.8617
34.8699
34.8702
34.8782
34.8787
34.8864
34.887
34.8945
34.8952
34.9025
34.9033
34.9103
34.9113
34.9181
34.9191
34.9257
34.9267
34.9331
34.9341
34.9403
34.9413
34.9473
34.9483
34.954
34.955
34.9605
34.9615
34.9668
34.9676
34.9727
34.9735
34.9784
34.979
34.9836
34.9841
34.9885
34.9887
34.9929
34.9928
34.9968
34.9961
35.0003
34.9958
34.9764
28.2857
30.7283
30.938
31.1135
31.1783
31.3087
31.3645
31.484
31.5416
31.6498
31.6995
31.794
31.8414
31.9318
31.9811
32.0667
32.1131
32.1916
32.2352
32.309
32.3512
32.4197
32.4577
32.5185
32.5503
32.6029
32.6282
32.6723
32.6905
32.7255
32.7365
32.7626
32.768
32.7873
32.7893
32.8045
32.8048
32.8179
32.8178
32.8298
32.8298
32.8413
32.8414
32.8525
32.853
32.8637
32.8645
32.8749
32.8758
32.886
32.8871
32.897
32.8983
32.9079
32.9094
32.9187
32.9203
32.9293
32.931
32.9397
32.9415
32.95
32.9518
32.9601
32.9619
32.9699
32.9718
32.9795
32.9814
32.9889
32.9906
32.9979
32.9996
33.0067
33.0083
33.015
33.0165
33.023
33.0244
33.0306
33.0318
33.0377
33.0387
33.0444
33.0451
33.0505
33.0508
33.0559
33.057
33.0343
28.1244
30.8051
31.0226
31.1884
31.2316
31.3453
31.3826
31.4898
31.5355
31.6382
31.6785
31.7676
31.8063
31.8929
31.9361
32.0212
32.0631
32.1417
32.1819
32.2568
32.2972
32.3685
32.4063
32.4707
32.5031
32.5597
32.5864
32.6348
32.6549
32.6943
32.7073
32.7372
32.7441
32.7664
32.7693
32.7868
32.7878
32.8027
32.8031
32.8168
32.8172
32.8302
32.8309
32.8435
32.8444
32.8567
32.8579
32.8698
32.8713
32.8829
32.8846
32.8959
32.8978
32.9088
32.9109
32.9216
32.9238
32.9342
32.9365
32.9466
32.949
32.9589
32.9613
32.9709
32.9734
32.9827
32.9851
32.9942
32.9966
33.0054
33.0078
33.0163
33.0186
33.0269
33.0291
33.037
33.0391
33.0468
33.0487
33.056
33.0578
33.0648
33.0663
33.0731
33.0743
33.0807
33.0816
33.0873
33.0905
33.0655
28.2117
31.0393
31.259
31.4119
31.4361
31.5306
31.5515
31.6431
31.6776
31.7705
31.8025
31.8837
31.9152
31.9957
32.0339
32.1158
32.1541
32.231
32.2684
32.3428
32.3817
32.4538
32.4914
32.5573
32.5902
32.6486
32.6762
32.7269
32.7481
32.7899
32.804
32.836
32.8438
32.8677
32.8712
32.8899
32.8912
32.9071
32.9078
32.9223
32.9229
32.9367
32.9377
32.951
32.9522
32.9652
32.9667
32.9794
32.9812
32.9935
32.9955
33.0075
33.0098
33.0215
33.0239
33.0353
33.0378
33.0489
33.0515
33.0624
33.0651
33.0756
33.0784
33.0887
33.0915
33.1015
33.1043
33.114
33.1168
33.1262
33.1289
33.1381
33.1408
33.1496
33.1522
33.1608
33.1632
33.1714
33.1737
33.1817
33.1837
33.1913
33.1932
33.2005
33.2021
33.209
33.2104
33.2162
33.2211
33.1948
28.2133
31.0293
31.2297
31.3614
31.3669
31.4419
31.4488
31.5251
31.5489
31.6303
31.6542
31.7266
31.752
31.8258
31.8594
31.9363
31.9713
32.0447
32.0799
32.152
32.1895
32.2603
32.297
32.3622
32.3946
32.4526
32.4798
32.5302
32.5513
32.5929
32.6069
32.6388
32.6465
32.6704
32.6738
32.6925
32.6938
32.7096
32.7103
32.7247
32.7254
32.7391
32.74
32.7534
32.7546
32.7675
32.769
32.7816
32.7834
32.7957
32.7978
32.8097
32.812
32.8236
32.826
32.8374
32.8399
32.851
32.8536
32.8644
32.8671
32.8777
32.8804
32.8907
32.8935
32.9034
32.9062
32.9159
32.9187
32.9281
32.9308
32.94
32.9426
32.9515
32.954
32.9626
32.965
32.9733
32.9755
32.9835
32.9856
32.9931
32.995
33.0023
33.0039
33.0108
33.0123
33.018
33.023
32.9969
28.1271
30.7639
30.9172
31.0171
31.0046
31.0622
31.0579
31.1215
31.1362
31.2057
31.2229
31.2867
31.3078
31.3752
31.405
31.4761
31.5082
31.5773
31.6107
31.6795
31.7157
31.7834
31.8187
31.881
31.912
31.9673
31.9931
32.0408
32.0604
32.0993
32.112
32.1416
32.1483
32.1704
32.1732
32.1905
32.1914
32.2063
32.2066
32.2202
32.2205
32.2335
32.2341
32.2466
32.2475
32.2597
32.2609
32.2727
32.2742
32.2857
32.2874
32.2986
32.3005
32.3114
32.3134
32.324
32.3262
32.3365
32.3388
32.3489
32.3512
32.361
32.3634
32.373
32.3754
32.3847
32.3871
32.3961
32.3985
32.4072
32.4096
32.4181
32.4204
32.4286
32.4308
32.4387
32.4407
32.4484
32.4503
32.4576
32.4594
32.4664
32.4679
32.4746
32.4758
32.4822
32.4832
32.4886
32.4926
32.4687
28.2675
30.5992
30.6907
30.7561
30.731
30.774
30.7641
30.8173
30.826
30.8841
30.8972
30.9535
30.973
31.0346
31.0625
31.1277
31.1585
31.223
31.2562
31.3213
31.3569
31.4203
31.4545
31.5122
31.5419
31.5926
31.6167
31.6595
31.677
31.7112
31.7218
31.7474
31.7525
31.7715
31.7733
31.7883
31.7886
31.8015
31.8013
31.8132
31.8131
31.8244
31.8246
31.8355
31.8359
31.8465
31.8472
31.8575
31.8585
31.8684
31.8696
31.8793
31.8806
31.89
31.8915
31.9007
31.9023
31.9112
31.9128
31.9215
31.9232
31.9316
31.9334
31.9416
31.9434
31.9513
31.9531
31.9608
31.9626
31.9701
31.9718
31.979
31.9807
31.9877
31.9892
31.996
31.9974
32.0039
32.0052
32.0114
32.0126
32.0185
32.0195
32.0251
32.0258
32.0312
32.0316
32.0363
32.0381
32.0167
30.4018
32.2201
32.2448
32.2847
32.255
32.2902
32.2813
32.3282
32.3356
32.3861
32.3998
32.4523
32.4748
32.5335
32.5637
32.6255
32.6594
32.7217
32.7589
32.8218
32.8605
32.9206
32.9565
33.0103
33.0407
33.0869
33.1106
33.1481
33.1642
33.1928
33.2018
33.2225
33.2263
33.2413
33.2422
33.254
33.2536
33.2638
33.2631
33.2726
33.272
33.2809
33.2805
33.2892
33.289
33.2974
33.2975
33.3056
33.3059
33.3137
33.3141
33.3217
33.3223
33.3297
33.3304
33.3375
33.3384
33.3452
33.3462
33.3528
33.3538
33.3603
33.3613
33.3675
33.3686
33.3746
33.3757
33.3815
33.3825
33.3882
33.3891
33.3946
33.3955
33.4007
33.4016
33.4066
33.4073
33.4122
33.4128
33.4173
33.4178
33.4222
33.4224
33.4265
33.4265
33.4304
33.43
33.4336
33.431
33.4133
46.8623
48.1696
48.1683
48.1958
48.1729
48.2081
48.2131
48.2646
48.2867
48.3434
48.3748
48.439
48.4838
48.5572
48.6117
48.689
48.7488
48.8288
48.893
48.9739
49.0378
49.1136
49.1712
49.2374
49.2853
49.3398
49.3761
49.4175
49.4414
49.4699
49.4829
49.5013
49.5066
49.5184
49.5197
49.5279
49.5274
49.534
49.533
49.5389
49.5379
49.5434
49.5425
49.5478
49.5471
49.5522
49.5516
49.5565
49.5561
49.5609
49.5606
49.5651
49.5649
49.5693
49.5692
49.5735
49.5734
49.5775
49.5776
49.5815
49.5816
49.5853
49.5854
49.5891
49.5892
49.5927
49.5928
49.5962
49.5963
49.5995
49.5995
49.6026
49.6026
49.6056
49.6055
49.6083
49.6082
49.6108
49.6105
49.613
49.6126
49.6149
49.6143
49.6164
49.6156
49.6174
49.616
49.6181
49.6019
49.594
142.363
143.033
143.065
143.109
143.102
143.171
143.23
143.348
143.447
143.581
143.704
143.864
144.023
144.213
144.396
144.599
144.796
145.009
145.216
145.434
145.637
145.84
146.022
146.197
146.348
146.489
146.604
146.706
146.783
146.847
146.89
146.926
146.946
146.963
146.97
146.978
146.979
146.982
146.981
146.984
146.982
146.984
146.982
146.983
146.982
146.983
146.982
146.983
146.981
146.983
146.981
146.982
146.981
146.982
146.981
146.982
146.981
146.982
146.98
146.981
146.98
146.981
146.979
146.98
146.979
146.98
146.978
146.979
146.978
146.978
146.977
146.977
146.976
146.976
146.975
146.975
146.974
146.974
146.972
146.972
146.97
146.97
146.968
146.968
146.965
146.965
146.961
146.961
146.93
146.911
30.1935
30.979
31.2092
31.3774
31.5175
31.6463
31.7596
31.8703
31.9643
32.0586
32.1388
32.2244
32.2985
32.3786
32.446
32.5187
32.5791
32.6454
32.7003
32.7606
32.8091
32.8617
32.9023
32.9464
32.9787
33.0139
33.0377
33.0639
33.0791
33.0969
33.1049
33.1162
33.1193
33.1266
33.1272
33.1324
33.132
33.1362
33.1355
33.1393
33.1385
33.1422
33.1415
33.145
33.1444
33.1478
33.1474
33.1506
33.1502
33.1534
33.1531
33.1561
33.1559
33.1588
33.1587
33.1615
33.1614
33.1641
33.1641
33.1667
33.1667
33.1692
33.1692
33.1717
33.1717
33.174
33.174
33.1763
33.1763
33.1785
33.1785
33.1806
33.1806
33.1826
33.1825
33.1844
33.1844
33.1863
33.1862
33.188
33.1879
33.1897
33.1896
33.1914
33.1913
33.1934
33.1932
33.1964
33.1923
33.1928
28.0581
29.4056
29.6356
29.8025
29.934
30.0593
30.1668
30.2744
30.3652
30.4564
30.5338
30.6155
30.687
30.7635
30.8293
30.8987
30.9578
31.0209
31.0747
31.1323
31.1803
31.2308
31.2714
31.3138
31.3464
31.3805
31.405
31.4305
31.4467
31.464
31.473
31.4838
31.4878
31.4944
31.4957
31.5001
31.5002
31.5035
31.5033
31.5061
31.5058
31.5085
31.5082
31.5108
31.5105
31.513
31.5128
31.5152
31.5151
31.5174
31.5173
31.5195
31.5195
31.5216
31.5217
31.5237
31.5238
31.5258
31.5258
31.5277
31.5279
31.5297
31.5298
31.5316
31.5317
31.5335
31.5336
31.5352
31.5354
31.537
31.5371
31.5387
31.5388
31.5403
31.5404
31.5418
31.5419
31.5433
31.5434
31.5448
31.5448
31.5462
31.5461
31.5475
31.5472
31.5489
31.5483
31.5504
31.5494
31.5513
25.8584
27.7073
27.9551
28.1075
28.2262
28.336
28.4333
28.5298
28.6156
28.6985
28.7711
28.8439
28.9107
28.9798
29.0429
29.1066
29.1635
29.2213
29.2734
29.3267
29.3743
29.4221
29.4633
29.5038
29.5376
29.5705
29.5968
29.6219
29.6404
29.6576
29.6687
29.6792
29.6848
29.6906
29.6929
29.6961
29.6968
29.6988
29.6989
29.7004
29.7004
29.7017
29.7016
29.7028
29.7028
29.704
29.7039
29.7051
29.7051
29.7062
29.7062
29.7073
29.7073
29.7083
29.7084
29.7094
29.7095
29.7105
29.7105
29.7115
29.7116
29.7125
29.7126
29.7135
29.7136
29.7145
29.7146
29.7155
29.7156
29.7164
29.7165
29.7174
29.7175
29.7183
29.7184
29.7192
29.7193
29.72
29.7201
29.7209
29.7209
29.7217
29.7216
29.7224
29.7222
29.7231
29.7225
29.7236
29.7224
29.7023
25.1248
27.2193
27.4638
27.5956
27.6961
27.7894
27.8734
27.96
28.04
28.1176
28.1857
28.2525
28.3149
28.3795
28.4405
28.5018
28.5577
28.6132
28.6646
28.7167
28.765
28.813
28.856
28.8974
28.9335
28.9678
28.9968
29.0238
29.0453
29.0644
29.0782
29.0899
29.0973
29.1036
29.1069
29.1101
29.1112
29.1128
29.1131
29.1141
29.1141
29.1149
29.1148
29.1155
29.1154
29.1161
29.116
29.1166
29.1166
29.1172
29.1172
29.1178
29.1178
29.1183
29.1184
29.1189
29.1189
29.1195
29.1195
29.12
29.1201
29.1205
29.1206
29.1211
29.1211
29.1216
29.1217
29.1221
29.1222
29.1227
29.1227
29.1232
29.1232
29.1237
29.1237
29.1242
29.1242
29.1247
29.1247
29.1251
29.1251
29.1256
29.1255
29.126
29.1258
29.1263
29.1258
29.1265
29.1259
29.1108
24.6792
26.931
27.1607
27.2677
27.345
27.4183
27.4852
27.5586
27.6291
27.6995
27.761
27.821
27.877
27.9362
27.9934
28.0514
28.1049
28.1579
28.2074
28.258
28.3058
28.3538
28.3975
28.4398
28.4771
28.5128
28.5435
28.5723
28.5959
28.6169
28.6326
28.6458
28.6546
28.6618
28.6658
28.6693
28.6708
28.6725
28.6729
28.6738
28.6738
28.6744
28.6743
28.6749
28.6748
28.6753
28.6752
28.6757
28.6756
28.6761
28.6761
28.6765
28.6765
28.6769
28.6769
28.6773
28.6773
28.6777
28.6777
28.6781
28.6781
28.6785
28.6785
28.6789
28.6789
28.6793
28.6793
28.6797
28.6797
28.68
28.68
28.6804
28.6804
28.6808
28.6808
28.6811
28.6811
28.6814
28.6814
28.6818
28.6817
28.6821
28.6819
28.6823
28.682
28.6824
28.6818
28.6822
28.6816
28.6587
24.5893
26.881
27.0873
27.1673
27.2212
27.2739
27.3237
27.3825
27.4422
27.5034
27.5571
27.6096
27.6591
27.7127
27.7654
27.8201
27.8707
27.9214
27.9689
28.0181
28.065
28.1128
28.1565
28.1993
28.2372
28.2737
28.3053
28.3352
28.3599
28.3821
28.3989
28.4132
28.4227
28.4306
28.435
28.4389
28.4406
28.4424
28.4428
28.4438
28.4438
28.4445
28.4444
28.4449
28.4448
28.4453
28.4453
28.4457
28.4457
28.4461
28.4461
28.4465
28.4465
28.4469
28.4469
28.4473
28.4473
28.4477
28.4476
28.448
28.448
28.4484
28.4484
28.4487
28.4487
28.4491
28.4491
28.4494
28.4494
28.4497
28.4497
28.4501
28.45
28.4504
28.4503
28.4507
28.4506
28.4509
28.4509
28.4512
28.4511
28.4514
28.4513
28.4516
28.4514
28.4517
28.4512
28.4516
28.451
28.4304
24.5895
26.8693
27.0565
27.1158
27.1509
27.1867
27.2218
27.2676
27.3161
27.3674
27.4127
27.4577
27.5008
27.5487
27.5966
27.6471
27.6942
27.742
27.7871
27.8344
27.8798
27.9265
27.9694
28.0115
28.0489
28.085
28.1163
28.146
28.1704
28.1925
28.2092
28.2234
28.2328
28.2406
28.2451
28.2489
28.2505
28.2524
28.2528
28.2538
28.2538
28.2544
28.2544
28.2549
28.2548
28.2553
28.2552
28.2557
28.2556
28.2561
28.256
28.2565
28.2564
28.2569
28.2568
28.2573
28.2572
28.2576
28.2576
28.258
28.258
28.2584
28.2583
28.2587
28.2587
28.2591
28.259
28.2594
28.2594
28.2597
28.2597
28.26
28.26
28.2604
28.2603
28.2606
28.2606
28.2609
28.2609
28.2612
28.2611
28.2614
28.2613
28.2616
28.2614
28.2617
28.2613
28.2616
28.2611
28.2409
24.6788
26.8865
27.0562
27.1016
27.1239
27.1483
27.1732
27.2094
27.2482
27.2905
27.328
27.3667
27.4045
27.4477
27.4913
27.5375
27.5811
27.6259
27.6688
27.7141
27.7578
27.8026
27.8439
27.8844
27.9203
27.9549
27.9848
28.0129
28.0359
28.0565
28.0719
28.0849
28.0935
28.1005
28.1045
28.1079
28.1093
28.111
28.1114
28.1122
28.1123
28.1129
28.1128
28.1133
28.1132
28.1137
28.1137
28.1141
28.1141
28.1146
28.1145
28.115
28.1149
28.1154
28.1154
28.1158
28.1158
28.1162
28.1162
28.1166
28.1166
28.117
28.117
28.1174
28.1174
28.1178
28.1178
28.1182
28.1182
28.1185
28.1186
28.1189
28.1189
28.1193
28.1193
28.1196
28.1196
28.12
28.12
28.1203
28.1203
28.1206
28.1205
28.1209
28.1206
28.121
28.1205
28.1207
28.1205
28.0988
25.1044
27.0943
27.2266
27.2572
27.27
27.2867
27.3055
27.3346
27.3655
27.3998
27.4309
27.4649
27.4991
27.5388
27.5787
27.6218
27.6627
27.7057
27.7472
27.7914
27.8335
27.8768
27.9162
27.9548
27.9888
28.0215
28.0492
28.0752
28.0959
28.1143
28.1276
28.1389
28.1461
28.1522
28.1553
28.1584
28.1595
28.161
28.1613
28.1622
28.1623
28.163
28.1629
28.1636
28.1635
28.1641
28.1641
28.1647
28.1647
28.1653
28.1653
28.1658
28.1658
28.1664
28.1664
28.1669
28.167
28.1675
28.1675
28.168
28.1681
28.1686
28.1686
28.1691
28.1692
28.1697
28.1697
28.1702
28.1703
28.1707
28.1708
28.1712
28.1713
28.1718
28.1718
28.1723
28.1723
28.1728
28.1728
28.1732
28.1732
28.1737
28.1736
28.1741
28.1739
28.1744
28.1741
28.1744
28.1741
28.1605
25.7754
27.4305
27.5162
27.5341
27.5404
27.5534
27.5687
27.5938
27.6184
27.6476
27.6741
27.7062
27.738
27.7764
27.8134
27.8549
27.8935
27.9363
27.9764
28.0204
28.0607
28.1029
28.1398
28.177
28.2083
28.2393
28.264
28.2878
28.3053
28.3217
28.3323
28.3422
28.3475
28.353
28.3552
28.3583
28.3589
28.3608
28.3609
28.3623
28.3622
28.3635
28.3634
28.3646
28.3645
28.3657
28.3656
28.3668
28.3667
28.3678
28.3678
28.3689
28.3689
28.3699
28.37
28.3709
28.371
28.372
28.372
28.373
28.3731
28.374
28.3741
28.3749
28.3751
28.3759
28.376
28.3769
28.377
28.3778
28.3779
28.3787
28.3788
28.3796
28.3797
28.3805
28.3806
28.3813
28.3814
28.3822
28.3822
28.383
28.3829
28.3837
28.3836
28.3844
28.384
28.3848
28.3848
28.3665
27.8266
28.8853
28.9112
28.9176
28.9178
28.9311
28.944
28.9695
28.9897
29.0193
29.0433
29.0783
29.1094
29.1507
29.1865
29.2307
29.269
29.3153
29.3558
29.4029
29.4429
29.4872
29.523
29.5617
29.5915
29.6233
29.646
29.6699
29.685
29.7013
29.7096
29.7198
29.7235
29.7298
29.7309
29.7351
29.7351
29.7383
29.738
29.7408
29.7404
29.743
29.7427
29.7452
29.7449
29.7473
29.7471
29.7494
29.7493
29.7515
29.7514
29.7535
29.7535
29.7556
29.7556
29.7575
29.7576
29.7595
29.7596
29.7614
29.7615
29.7633
29.7634
29.7651
29.7652
29.7669
29.767
29.7686
29.7687
29.7703
29.7704
29.7719
29.772
29.7735
29.7736
29.775
29.775
29.7764
29.7765
29.7778
29.7778
29.7792
29.7791
29.7805
29.7803
29.7818
29.7813
29.7832
29.7831
29.7856
29.7874
30.2362
30.245
30.2412
30.2405
30.2502
30.2623
30.2855
30.3041
30.3327
30.356
30.3918
30.4226
30.4652
30.5008
30.5467
30.5852
30.6337
30.6746
30.7239
30.7639
30.81
30.8456
30.8857
30.915
30.9478
30.9696
30.9941
31.0081
31.0248
31.0321
31.0428
31.0456
31.0525
31.0529
31.0579
31.0573
31.0614
31.0606
31.0643
31.0635
31.067
31.0664
31.0697
31.0692
31.0724
31.0719
31.0751
31.0747
31.0777
31.0774
31.0804
31.0801
31.083
31.0828
31.0855
31.0854
31.088
31.088
31.0905
31.0905
31.0929
31.0929
31.0952
31.0952
31.0975
31.0975
31.0997
31.0997
31.1018
31.1017
31.1038
31.1037
31.1057
31.1056
31.1075
31.1074
31.1092
31.1091
31.1108
31.1107
31.1125
31.1123
31.1141
31.114
31.116
31.1159
31.1188
31.115
31.1156
3.63181
3.83572
3.85877
3.87015
3.88857
3.90601
3.92315
3.94246
3.95638
3.97556
3.98674
4.00572
4.015
4.03345
4.04103
4.05845
4.06468
4.08111
4.08633
4.10169
4.10589
4.11993
4.1231
4.13574
4.13793
4.14915
4.15038
4.16014
4.16049
4.16893
4.16859
4.17601
4.17528
4.18199
4.18112
4.18735
4.18651
4.19239
4.19164
4.19725
4.19661
4.20198
4.20147
4.20662
4.20623
4.21117
4.21089
4.21564
4.21546
4.22003
4.21994