/*--------------------------------*- C++ -*----------------------------------*\
  =========                 |
  \\      /  F ield         | OpenFOAM: The Open Source CFD Toolbox
   \\    /   O peration     | Website:  https://openfoam.org
    \\  /    A nd           | Version:  7
     \\/     M anipulation  |
\*---------------------------------------------------------------------------*/
FoamFile
{
    version     2.0;
    format      ascii;
    class       volScalarField;
    location    "1.665";
    object      T;
}
// * * * * * * * * * * * * * * * * * * * * * * * * * * * * * * * * * * * * * //

dimensions      [0 0 0 1 0 0 0];

internalField   nonuniform List<scalar> 
13200
(
282.956
283.04
283.025
283.042
283.024
283.042
283.032
283.049
283.043
283.057
283.053
283.062
283.057
283.061
283.057
283.056
283.058
283.046
283.07
283.004
282.832
282.896
282.873
282.893
282.856
282.887
282.876
282.912
282.913
282.942
282.946
282.963
282.961
282.963
282.961
282.948
282.961
282.912
283.001
282.742
282.737
282.733
282.655
282.675
282.601
282.643
282.616
282.679
282.68
282.743
282.753
282.799
282.803
282.818
282.82
282.796
282.826
282.722
282.886
282.497
282.738
282.7
282.61
282.608
282.527
282.543
282.515
282.565
282.578
282.643
282.679
282.738
282.777
282.802
282.834
282.801
282.853
282.729
282.88
282.569
282.714
282.661
282.54
282.533
282.432
282.438
282.389
282.434
282.433
282.498
282.53
282.604
282.655
282.708
282.753
282.752
282.795
282.721
282.793
282.631
282.728
282.682
282.561
282.55
282.447
282.445
282.389
282.424
282.416
282.473
282.498
282.571
282.625
282.696
282.749
282.78
282.814
282.793
282.813
282.752
282.715
282.665
282.534
282.524
282.414
282.409
282.347
282.378
282.363
282.414
282.43
282.498
282.546
282.625
282.679
282.732
282.761
282.777
282.77
282.765
282.723
282.682
282.551
282.543
282.432
282.428
282.364
282.394
282.377
282.424
282.435
282.499
282.542
282.623
282.675
282.739
282.765
282.799
282.786
282.807
282.717
282.671
282.538
282.529
282.417
282.412
282.348
282.378
282.36
282.406
282.414
282.477
282.516
282.596
282.647
282.716
282.74
282.781
282.766
282.795
282.72
282.676
282.543
282.535
282.423
282.419
282.355
282.385
282.367
282.413
282.42
282.482
282.519
282.6
282.649
282.719
282.743
282.786
282.772
282.802
282.72
282.676
282.543
282.535
282.423
282.419
282.355
282.385
282.366
282.413
282.42
282.482
282.519
282.6
282.649
282.719
282.743
282.786
282.773
282.801
282.717
282.671
282.538
282.529
282.417
282.412
282.348
282.378
282.36
282.406
282.414
282.477
282.515
282.596
282.647
282.715
282.741
282.78
282.768
282.791
282.723
282.682
282.551
282.543
282.432
282.428
282.364
282.394
282.376
282.425
282.434
282.5
282.541
282.623
282.674
282.74
282.765
282.799
282.788
282.803
282.715
282.665
282.534
282.524
282.413
282.409
282.347
282.378
282.362
282.414
282.429
282.499
282.544
282.627
282.676
282.736
282.757
282.78
282.768
282.765
282.728
282.682
282.561
282.551
282.447
282.445
282.389
282.425
282.415
282.474
282.496
282.574
282.621
282.701
282.741
282.79
282.801
282.81
282.794
282.772
282.714
282.661
282.54
282.533
282.432
282.438
282.389
282.434
282.432
282.5
282.528
282.608
282.649
282.717
282.74
282.772
282.766
282.762
282.738
282.7
282.738
282.7
282.609
282.608
282.527
282.543
282.514
282.566
282.577
282.644
282.677
282.742
282.771
282.811
282.818
282.827
282.811
282.796
282.772
282.733
282.737
282.733
282.655
282.675
282.6
282.643
282.616
282.679
282.679
282.743
282.751
282.801
282.799
282.825
282.809
282.815
282.791
282.787
282.763
282.746
282.832
282.896
282.873
282.893
282.856
282.888
282.876
282.912
282.913
282.943
282.946
282.963
282.959
282.966
282.957
282.957
282.945
282.943
282.933
282.929
282.956
283.04
283.025
283.042
283.024
283.042
283.032
283.049
283.043
283.057
283.053
283.062
283.057
283.062
283.056
283.059
283.053
283.055
283.051
283.053
283.2
283.167
283.198
283.147
283.183
283.154
283.194
283.177
283.211
283.197
283.221
283.203
283.219
283.198
283.211
283.183
283.208
283.156
283.25
282.961
283.163
283.102
283.111
283.044
283.066
283.041
283.09
283.096
283.148
283.16
283.198
283.195
283.216
283.19
283.205
283.149
283.2
283.065
283.285
282.781
283.202
283.126
283.155
283.068
283.089
283.042
283.1
283.099
283.177
283.196
283.271
283.279
283.331
283.304
283.34
283.261
283.329
283.148
283.378
282.926
283.175
283.089
283.102
283.015
283.016
282.965
283.002
283.001
283.068
283.098
283.179
283.215
283.284
283.286
283.333
283.276
283.331
283.188
283.313
283.044
283.202
283.112
283.137
283.04
283.046
282.98
283.017
283.002
283.066
283.084
283.17
283.209
283.299
283.319
283.385
283.355
283.4
283.312
283.356
283.218
283.183
283.083
283.103
283.002
283.004
282.934
282.965
282.943
283
283.009
283.088
283.126
283.219
283.254
283.325
283.325
283.361
283.323
283.32
283.26
283.199
283.102
283.129
283.022
283.027
282.954
282.986
282.961
283.015
283.02
283.092
283.128
283.217
283.261
283.333
283.351
283.382
283.373
283.357
283.337
283.189
283.082
283.109
282.999
283.004
282.929
282.961
282.935
282.987
282.989
283.057
283.091
283.176
283.223
283.293
283.32
283.349
283.354
283.334
283.331
283.196
283.094
283.122
283.012
283.017
282.942
282.974
282.948
283
283.001
283.067
283.1
283.183
283.231
283.299
283.33
283.358
283.368
283.35
283.353
283.192
283.088
283.115
283.004
283.009
282.934
282.967
282.94
282.992
282.993
283.059
283.091
283.173
283.221
283.289
283.319
283.347
283.358
283.342
283.345
283.192
283.088
283.115
283.004
283.009
282.934
282.967
282.94
282.992
282.993
283.059
283.091
283.173
283.221
283.289
283.319
283.347
283.358
283.342
283.344
283.196
283.094
283.122
283.012
283.017
282.942
282.974
282.948
283
283.001
283.067
283.1
283.183
283.231
283.299
283.329
283.358
283.367
283.352
283.35
283.189
283.082
283.109
282.999
283.004
282.929
282.961
282.935
282.987
282.989
283.057
283.091
283.176
283.224
283.293
283.32
283.349
283.353
283.337
283.327
283.199
283.102
283.129
283.022
283.027
282.954
282.986
282.962
283.015
283.02
283.091
283.129
283.216
283.263
283.33
283.354
283.38
283.375
283.356
283.336
283.183
283.083
283.103
283.002
283.004
282.934
282.965
282.944
282.999
283.01
283.086
283.128
283.215
283.259
283.319
283.334
283.35
283.335
283.308
283.273
283.202
283.112
283.137
283.04
283.045
282.98
283.017
283.002
283.065
283.086
283.168
283.213
283.294
283.328
283.372
283.373
283.375
283.346
283.314
283.269
283.175
283.089
283.102
283.016
283.016
282.965
283.002
283.002
283.067
283.1
283.176
283.219
283.277
283.298
283.315
283.305
283.286
283.255
283.216
283.179
283.202
283.126
283.155
283.068
283.089
283.042
283.1
283.1
283.176
283.198
283.268
283.283
283.325
283.315
283.322
283.292
283.275
283.242
283.216
283.194
283.163
283.102
283.111
283.044
283.065
283.042
283.09
283.097
283.148
283.162
283.196
283.198
283.211
283.197
283.193
283.171
283.159
283.143
283.129
283.126
283.2
283.167
283.198
283.147
283.183
283.154
283.194
283.177
283.211
283.197
283.22
283.204
283.218
283.2
283.207
283.191
283.194
283.183
283.185
283.179
283.13
283.082
283.039
283.007
283.006
283.015
283.036
283.052
283.07
283.075
283.081
283.07
283.072
283.048
283.065
283.019
283.094
282.941
283.302
282.383
283.129
283.076
283.02
282.957
282.922
282.912
282.938
282.981
283.044
283.093
283.146
283.149
283.173
283.113
283.154
283.013
283.176
282.854
283.35
282.564
283.129
283.079
283.026
282.962
282.915
282.887
282.894
282.917
282.972
283.03
283.116
283.164
283.238
283.221
283.275
283.168
283.248
283.033
283.216
282.88
283.129
283.078
283.026
282.961
282.911
282.879
282.878
282.89
282.926
282.972
283.047
283.114
283.199
283.234
283.293
283.267
283.298
283.206
283.219
283.083
283.129
283.079
283.026
282.962
282.912
282.88
282.877
282.887
282.916
282.954
283.019
283.088
283.169
283.224
283.28
283.296
283.316
283.292
283.26
283.208
283.129
283.078
283.025
282.96
282.909
282.877
282.874
282.884
282.91
282.947
283.006
283.074
283.152
283.212
283.264
283.293
283.309
283.311
283.276
283.25
283.129
283.079
283.025
282.96
282.909
282.878
282.875
282.886
282.911
282.948
283.006
283.075
283.151
283.212
283.261
283.293
283.308
283.316
283.285
283.263
283.129
283.078
283.025
282.959
282.908
282.877
282.874
282.884
282.91
282.947
283.005
283.073
283.148
283.209
283.257
283.289
283.304
283.312
283.285
283.259
283.129
283.079
283.025
282.959
282.908
282.877
282.875
282.885
282.911
282.948
283.007
283.075
283.15
283.211
283.258
283.29
283.304
283.311
283.287
283.257
283.129
283.079
283.025
282.958
282.908
282.877
282.875
282.885
282.911
282.948
283.007
283.075
283.15
283.21
283.257
283.289
283.303
283.309
283.286
283.255
283.129
283.079
283.025
282.958
282.908
282.877
282.875
282.885
282.911
282.948
283.007
283.075
283.15
283.21
283.257
283.289
283.303
283.309
283.286
283.254
283.129
283.079
283.025
282.959
282.908
282.877
282.875
282.885
282.911
282.948
283.007
283.075
283.15
283.211
283.258
283.29
283.305
283.311
283.287
283.256
283.129
283.078
283.025
282.959
282.908
282.877
282.874
282.884
282.91
282.947
283.005
283.073
283.148
283.209
283.258
283.289
283.304
283.31
283.287
283.257
283.129
283.079
283.025
282.96
282.909
282.878
282.875
282.886
282.911
282.948
283.006
283.074
283.151
283.211
283.262
283.292
283.309
283.313
283.289
283.257
283.129
283.078
283.025
282.96
282.909
282.877
282.874
282.884
282.91
282.947
283.006
283.075
283.152
283.212
283.265
283.292
283.311
283.307
283.281
283.241
283.129
283.079
283.026
282.962
282.912
282.88
282.877
282.888
282.915
282.956
283.017
283.089
283.167
283.227
283.277
283.299
283.313
283.292
283.262
283.202
283.129
283.079
283.025
282.962
282.911
282.88
282.877
282.891
282.924
282.974
283.044
283.119
283.192
283.244
283.279
283.285
283.276
283.232
283.191
283.114
283.129
283.079
283.026
282.962
282.915
282.888
282.893
282.919
282.969
283.034
283.109
283.174
283.222
283.244
283.241
283.218
283.176
283.132
283.085
283.046
283.129
283.077
283.019
282.958
282.921
282.912
282.937
282.982
283.042
283.097
283.14
283.158
283.158
283.138
283.112
283.084
283.057
283.051
283.031
283.054
283.13
283.082
283.039
283.007
283.006
283.015
283.036
283.052
283.069
283.076
283.079
283.073
283.067
283.056
283.051
283.045
283.044
283.047
283.046
283.058
283.13
283.082
283.039
283.007
283.006
283.015
283.036
283.052
283.07
283.075
283.081
283.07
283.072
283.048
283.065
283.019
283.094
282.941
283.302
282.383
283.129
283.076
283.02
282.957
282.922
282.912
282.938
282.981
283.044
283.093
283.146
283.149
283.173
283.113
283.154
283.013
283.176
282.854
283.35
282.565
283.129
283.079
283.026
282.962
282.915
282.887
282.894
282.917
282.972
283.03
283.116
283.164
283.238
283.221
283.275
283.168
283.248
283.033
283.216
282.88
283.129
283.078
283.026
282.961
282.911
282.879
282.878
282.89
282.926
282.972
283.047
283.114
283.199
283.234
283.293
283.267
283.298
283.206
283.219
283.083
283.129
283.079
283.026
282.962
282.912
282.88
282.877
282.887
282.916
282.954
283.019
283.088
283.169
283.224
283.28
283.296
283.316
283.291
283.26
283.207
283.129
283.078
283.025
282.96
282.909
282.877
282.874
282.884
282.91
282.947
283.006
283.074
283.152
283.212
283.264
283.293
283.309
283.311
283.276
283.25
283.129
283.079
283.025
282.96
282.909
282.878
282.875
282.886
282.911
282.948
283.006
283.075
283.151
283.212
283.261
283.293
283.308
283.316
283.285
283.263
283.129
283.078
283.025
282.959
282.908
282.877
282.874
282.884
282.91
282.947
283.005
283.073
283.148
283.209
283.257
283.289
283.304
283.312
283.285
283.259
283.129
283.079
283.025
282.959
282.908
282.877
282.875
282.885
282.911
282.948
283.007
283.075
283.15
283.211
283.258
283.29
283.304
283.311
283.287
283.257
283.129
283.079
283.025
282.958
282.908
282.877
282.875
282.885
282.911
282.948
283.007
283.075
283.15
283.21
283.257
283.289
283.303
283.309
283.286
283.255
283.129
283.079
283.025
282.958
282.908
282.877
282.875
282.885
282.911
282.948
283.007
283.075
283.15
283.21
283.257
283.289
283.303
283.309
283.286
283.254
283.129
283.079
283.025
282.959
282.908
282.877
282.875
282.885
282.911
282.948
283.007
283.075
283.15
283.211
283.258
283.29
283.305
283.311
283.287
283.256
283.129
283.078
283.025
282.959
282.908
282.877
282.874
282.884
282.91
282.947
283.005
283.073
283.148
283.209
283.258
283.289
283.304
283.31
283.287
283.257
283.129
283.079
283.025
282.96
282.909
282.878
282.875
282.886
282.911
282.948
283.006
283.074
283.151
283.211
283.262
283.292
283.309
283.313
283.289
283.257
283.129
283.078
283.025
282.96
282.909
282.877
282.874
282.884
282.91
282.947
283.006
283.075
283.152
283.212
283.265
283.292
283.311
283.307
283.281
283.241
283.129
283.079
283.026
282.962
282.912
282.88
282.877
282.888
282.915
282.956
283.017
283.089
283.167
283.227
283.277
283.299
283.313
283.292
283.262
283.202
283.129
283.079
283.025
282.962
282.911
282.88
282.877
282.891
282.924
282.974
283.044
283.119
283.191
283.244
283.279
283.285
283.276
283.232
283.191
283.114
283.129
283.079
283.026
282.962
282.915
282.888
282.893
282.919
282.969
283.034
283.109
283.174
283.222
283.244
283.241
283.218
283.176
283.132
283.085
283.046
283.129
283.077
283.019
282.958
282.921
282.912
282.937
282.982
283.042
283.097
283.14
283.158
283.158
283.138
283.112
283.084
283.057
283.051
283.031
283.054
283.13
283.082
283.039
283.007
283.006
283.015
283.036
283.052
283.069
283.076
283.079
283.073
283.067
283.056
283.051
283.045
283.044
283.047
283.046
283.058
283.2
283.167
283.198
283.147
283.183
283.154
283.194
283.177
283.211
283.197
283.221
283.203
283.219
283.198
283.211
283.183
283.208
283.156
283.25
282.961
283.163
283.102
283.111
283.044
283.066
283.041
283.09
283.096
283.148
283.16
283.198
283.195
283.216
283.19
283.205
283.149
283.2
283.065
283.285
282.781
283.202
283.126
283.155
283.068
283.089
283.042
283.1
283.099
283.177
283.196
283.271
283.279
283.331
283.304
283.34
283.261
283.329
283.148
283.378
282.926
283.175
283.089
283.102
283.015
283.016
282.965
283.002
283.001
283.068
283.098
283.179
283.215
283.284
283.287
283.333
283.276
283.331
283.188
283.314
283.044
283.202
283.112
283.137
283.04
283.046
282.98
283.017
283.002
283.066
283.084
283.17
283.209
283.299
283.319
283.385
283.355
283.4
283.312
283.356
283.218
283.183
283.083
283.103
283.002
283.004
282.934
282.965
282.943
283
283.009
283.088
283.126
283.219
283.254
283.326
283.325
283.361
283.323
283.32
283.26
283.199
283.102
283.129
283.022
283.027
282.954
282.986
282.961
283.015
283.02
283.092
283.128
283.217
283.261
283.333
283.351
283.382
283.373
283.357
283.337
283.189
283.082
283.109
282.999
283.004
282.929
282.961
282.935
282.987
282.989
283.057
283.091
283.176
283.224
283.293
283.32
283.349
283.354
283.334
283.331
283.196
283.094
283.122
283.012
283.017
282.942
282.974
282.948
283
283.001
283.067
283.1
283.183
283.231
283.299
283.33
283.358
283.368
283.35
283.353
283.192
283.088
283.115
283.004
283.009
282.934
282.967
282.94
282.992
282.993
283.059
283.091
283.173
283.221
283.289
283.319
283.347
283.358
283.342
283.345
283.192
283.088
283.115
283.004
283.009
282.934
282.967
282.94
282.992
282.993
283.059
283.091
283.173
283.221
283.289
283.319
283.348
283.358
283.342
283.344
283.196
283.094
283.122
283.012
283.017
282.942
282.974
282.948
283
283.001
283.067
283.1
283.183
283.231
283.299
283.329
283.358
283.367
283.352
283.35
283.189
283.082
283.109
282.999
283.004
282.929
282.961
282.935
282.987
282.989
283.057
283.091
283.176
283.224
283.293
283.32
283.349
283.353
283.337
283.327
283.199
283.102
283.129
283.022
283.027
282.954
282.986
282.962
283.015
283.02
283.091
283.129
283.216
283.263
283.33
283.354
283.38
283.375
283.356
283.336
283.183
283.083
283.103
283.002
283.004
282.934
282.965
282.944
282.999
283.01
283.086
283.128
283.215
283.259
283.319
283.334
283.35
283.335
283.308
283.273
283.202
283.112
283.137
283.04
283.045
282.98
283.017
283.002
283.065
283.085
283.168
283.213
283.294
283.328
283.372
283.373
283.375
283.346
283.314
283.269
283.175
283.089
283.102
283.016
283.016
282.965
283.002
283.002
283.067
283.1
283.176
283.219
283.277
283.298
283.315
283.305
283.286
283.255
283.216
283.179
283.202
283.126
283.155
283.068
283.089
283.042
283.1
283.1
283.176
283.198
283.268
283.283
283.325
283.315
283.322
283.292
283.275
283.242
283.216
283.194
283.163
283.102
283.111
283.044
283.065
283.042
283.09
283.097
283.148
283.162
283.196
283.198
283.211
283.197
283.193
283.171
283.159
283.143
283.129
283.126
283.2
283.167
283.198
283.147
283.183
283.154
283.194
283.177
283.211
283.197
283.22
283.204
283.218
283.2
283.207
283.191
283.194
283.183
283.185
283.179
282.956
283.04
283.025
283.042
283.024
283.042
283.032
283.049
283.043
283.057
283.053
283.062
283.057
283.061
283.057
283.056
283.058
283.047
283.07
283.004
282.832
282.896
282.873
282.893
282.856
282.887
282.876
282.912
282.913
282.942
282.946
282.962
282.961
282.963
282.961
282.948
282.961
282.912
283.001
282.742
282.737
282.733
282.655
282.675
282.601
282.643
282.616
282.679
282.68
282.743
282.753
282.799
282.803
282.818
282.82
282.796
282.826
282.722
282.886
282.497
282.738
282.7
282.61
282.608
282.527
282.543
282.515
282.565
282.578
282.643
282.679
282.738
282.777
282.802
282.834
282.801
282.853
282.729
282.88
282.569
282.714
282.661
282.54
282.533
282.432
282.438
282.389
282.434
282.433
282.498
282.53
282.604
282.655
282.708
282.753
282.752
282.795
282.722
282.793
282.631
282.728
282.682
282.561
282.55
282.447
282.445
282.389
282.424
282.416
282.473
282.498
282.571
282.625
282.696
282.749
282.78
282.814
282.793
282.813
282.752
282.715
282.665
282.534
282.524
282.414
282.409
282.347
282.378
282.363
282.414
282.43
282.498
282.546
282.625
282.679
282.732
282.761
282.776
282.77
282.765
282.723
282.682
282.551
282.543
282.432
282.428
282.364
282.394
282.377
282.424
282.435
282.499
282.542
282.623
282.675
282.739
282.765
282.799
282.786
282.807
282.717
282.671
282.538
282.529
282.417
282.412
282.348
282.378
282.36
282.406
282.414
282.477
282.516
282.596
282.647
282.716
282.74
282.781
282.766
282.795
282.72
282.676
282.543
282.535
282.423
282.419
282.355
282.385
282.367
282.413
282.42
282.482
282.519
282.6
282.649
282.719
282.743
282.786
282.772
282.802
282.72
282.676
282.543
282.535
282.423
282.419
282.355
282.385
282.366
282.413
282.42
282.482
282.519
282.6
282.649
282.719
282.743
282.786
282.773
282.801
282.717
282.671
282.538
282.529
282.417
282.412
282.348
282.378
282.36
282.406
282.414
282.477
282.516
282.596
282.647
282.715
282.741
282.78
282.769
282.791
282.723
282.682
282.551
282.543
282.432
282.428
282.364
282.394
282.376
282.425
282.434
282.5
282.541
282.623
282.674
282.74
282.765
282.799
282.788
282.803
282.715
282.665
282.534
282.524
282.413
282.409
282.347
282.378
282.362
282.414
282.429
282.499
282.544
282.627
282.676
282.736
282.757
282.78
282.768
282.765
282.728
282.682
282.561
282.551
282.447
282.445
282.389
282.425
282.415
282.474
282.496
282.574
282.621
282.701
282.741
282.79
282.801
282.81
282.794
282.772
282.714
282.661
282.54
282.533
282.432
282.438
282.389
282.434
282.432
282.5
282.528
282.608
282.65
282.717
282.74
282.772
282.766
282.762
282.738
282.7
282.738
282.7
282.609
282.608
282.527
282.543
282.514
282.566
282.577
282.644
282.677
282.742
282.771
282.811
282.819
282.827
282.811
282.796
282.772
282.733
282.737
282.733
282.655
282.675
282.6
282.643
282.616
282.679
282.679
282.743
282.751
282.801
282.799
282.825
282.809
282.815
282.791
282.787
282.763
282.746
282.832
282.896
282.873
282.893
282.856
282.888
282.876
282.912
282.913
282.943
282.946
282.964
282.959
282.966
282.957
282.957
282.945
282.943
282.933
282.929
282.956
283.04
283.025
283.042
283.024
283.042
283.032
283.049
283.043
283.057
283.053
283.062
283.057
283.062
283.056
283.059
283.053
283.055
283.051
283.053
285.796
287.931
289.373
290.531
291.449
292.269
292.994
293.685
294.3
294.858
295.333
295.76
296.136
296.48
296.779
297.037
297.245
297.417
297.557
297.678
297.782
297.874
297.951
298.014
298.062
298.098
298.121
298.138
298.148
298.154
298.158
298.161
298.162
298.163
298.164
298.165
298.166
298.167
298.167
298.168
298.169
298.17
298.171
298.171
298.172
298.173
298.174
298.175
298.176
298.177
298.178
298.179
298.18
298.181
298.183
298.184
298.185
298.186
298.188
298.189
298.19
298.191
298.193
298.194
298.196
298.197
298.199
298.2
298.202
298.203
298.205
298.206
298.208
298.209
298.211
298.212
298.214
298.215
298.218
298.218
298.222
298.22
298.225
298.222
298.228
298.225
298.228
298.23
298.226
298.222
285.143
287.22
288.648
289.8
290.715
291.528
292.246
292.932
293.547
294.107
294.585
295.013
295.388
295.734
296.035
296.297
296.51
296.686
296.827
296.95
297.056
297.149
297.228
297.294
297.343
297.381
297.406
297.424
297.435
297.442
297.446
297.448
297.45
297.451
297.452
297.453
297.454
297.454
297.455
297.456
297.457
297.457
297.458
297.459
297.46
297.461
297.462
297.463
297.463
297.464
297.466
297.467
297.468
297.469
297.47
297.471
297.472
297.473
297.475
297.476
297.477
297.479
297.48
297.481
297.483
297.484
297.486
297.487
297.489
297.49
297.492
297.493
297.495
297.496
297.498
297.499
297.501
297.502
297.505
297.505
297.509
297.507
297.512
297.509
297.515
297.512
297.515
297.517
297.513
297.508
284.208
286.083
287.448
288.581
289.481
290.275
290.969
291.64
292.252
292.818
293.302
293.733
294.107
294.454
294.761
295.035
295.26
295.447
295.596
295.724
295.833
295.931
296.015
296.087
296.143
296.186
296.217
296.238
296.251
296.26
296.265
296.268
296.27
296.272
296.273
296.273
296.274
296.275
296.276
296.277
296.277
296.278
296.279
296.28
296.281
296.281
296.282
296.283
296.284
296.285
296.286
296.287
296.288
296.289
296.291
296.292
296.293
296.294
296.295
296.297
296.298
296.299
296.301
296.302
296.303
296.305
296.306
296.308
296.309
296.311
296.312
296.314
296.315
296.317
296.318
296.319
296.321
296.322
296.325
296.325
296.328
296.327
296.332
296.329
296.334
296.332
296.334
296.337
296.332
296.326
283.429
284.894
286.116
287.187
288.053
288.802
289.451
290.084
290.681
291.249
291.742
292.173
292.543
292.887
293.2
293.489
293.734
293.938
294.1
294.235
294.35
294.454
294.546
294.627
294.694
294.747
294.785
294.812
294.83
294.841
294.848
294.853
294.855
294.857
294.858
294.859
294.86
294.861
294.861
294.862
294.863
294.864
294.864
294.865
294.866
294.867
294.868
294.869
294.869
294.87
294.871
294.872
294.874
294.875
294.876
294.877
294.878
294.879
294.88
294.882
294.883
294.884
294.886
294.887
294.888
294.89
294.891
294.892
294.894
294.895
294.897
294.898
294.9
294.901
294.903
294.904
294.906
294.907
294.91
294.909
294.913
294.912
294.916
294.914
294.919
294.917
294.919
294.922
294.917
294.91
282.924
283.897
284.889
285.858
286.663
287.353
287.932
288.507
289.072
289.635
290.131
290.561
290.922
291.256
291.57
291.871
292.138
292.363
292.541
292.685
292.806
292.916
293.016
293.109
293.187
293.252
293.301
293.336
293.36
293.376
293.385
293.391
293.395
293.397
293.399
293.4
293.401
293.402
293.402
293.403
293.404
293.405
293.406
293.407
293.408
293.409
293.409
293.41
293.411
293.412
293.413
293.415
293.416
293.417
293.418
293.419
293.42
293.421
293.423
293.424
293.425
293.427
293.428
293.429
293.431
293.432
293.434
293.435
293.437
293.438
293.44
293.441
293.443
293.444
293.446
293.447
293.449
293.45
293.452
293.452
293.456
293.455
293.459
293.457
293.46
293.461
293.461
293.464
293.46
293.452
282.744
283.274
284.004
284.831
285.559
286.171
286.668
287.163
287.678
288.217
288.71
289.132
289.478
289.793
290.098
290.404
290.687
290.931
291.123
291.275
291.4
291.514
291.621
291.723
291.814
291.89
291.95
291.994
292.024
292.044
292.057
292.064
292.069
292.072
292.073
292.075
292.076
292.076
292.077
292.078
292.079
292.08
292.08
292.081
292.082
292.083
292.084
292.085
292.086
292.087
292.088
292.089
292.09
292.091
292.092
292.094
292.095
292.096
292.097
292.099
292.1
292.101
292.103
292.104
292.105
292.107
292.108
292.11
292.111
292.113
292.114
292.116
292.117
292.119
292.121
292.122
292.124
292.125
292.127
292.128
292.131
292.13
292.133
292.133
292.136
292.137
292.136
292.139
292.137
292.13
282.658
282.877
283.356
284.038
284.674
285.208
285.614
286.021
286.469
286.975
287.453
287.863
288.188
288.478
288.765
289.068
289.359
289.617
289.822
289.981
290.108
290.224
290.335
290.445
290.545
290.632
290.702
290.755
290.791
290.816
290.832
290.841
290.847
290.851
290.853
290.854
290.855
290.856
290.857
290.858
290.858
290.859
290.86
290.861
290.862
290.863
290.864
290.865
290.866
290.867
290.868
290.869
290.87
290.872
290.873
290.874
290.875
290.877
290.878
290.879
290.881
290.882
290.883
290.885
290.886
290.888
290.889
290.891
290.892
290.894
290.895
290.897
290.899
290.9
290.902
290.903
290.905
290.906
290.908
290.909
290.912
290.912
290.915
290.915
290.916
290.918
290.918
290.92
290.919
290.913
282.67
282.693
282.971
283.513
284.058
284.507
284.824
285.137
285.512
285.971
286.424
286.813
287.112
287.371
287.632
287.921
288.213
288.478
288.688
288.85
288.977
289.092
289.204
289.317
289.425
289.52
289.598
289.658
289.7
289.728
289.746
289.757
289.764
289.768
289.77
289.772
289.773
289.774
289.774
289.775
289.776
289.777
289.777
289.778
289.779
289.78
289.781
289.782
289.783
289.784
289.785
289.786
289.787
289.789
289.79
289.791
289.792
289.794
289.795
289.796
289.798
289.799
289.801
289.802
289.803
289.805
289.807
289.808
289.81
289.811
289.813
289.814
289.816
289.818
289.819
289.821
289.823
289.824
289.826
289.827
289.829
289.83
289.832
289.833
289.835
289.837
289.837
289.838
289.839
289.835
282.673
282.587
282.721
283.15
283.606
283.981
284.212
284.442
284.742
285.151
285.57
285.932
286.2
286.426
286.658
286.929
287.212
287.476
287.687
287.847
287.971
288.082
288.193
288.308
288.419
288.52
288.603
288.668
288.714
288.746
288.766
288.778
288.785
288.79
288.792
288.794
288.795
288.796
288.797
288.797
288.798
288.799
288.8
288.801
288.802
288.803
288.803
288.805
288.806
288.807
288.808
288.809
288.81
288.811
288.813
288.814
288.815
288.816
288.818
288.819
288.821
288.822
288.824
288.825
288.827
288.828
288.83
288.831
288.833
288.834
288.836
288.838
288.839
288.841
288.843
288.844
288.846
288.847
288.849
288.851
288.853
288.854
288.856
288.857
288.858
288.86
288.861
288.862
288.863
288.861
282.691
282.552
282.599
282.942
283.322
283.627
283.782
283.937
284.171
284.528
284.906
285.233
285.466
285.657
285.859
286.106
286.374
286.628
286.832
286.984
287.101
287.206
287.314
287.426
287.538
287.64
287.726
287.793
287.84
287.873
287.894
287.907
287.914
287.919
287.921
287.923
287.924
287.925
287.926
287.926
287.927
287.928
287.928
287.929
287.93
287.931
287.932
287.933
287.934
287.935
287.936
287.937
287.938
287.94
287.941
287.942
287.943
287.945
287.946
287.948
287.949
287.95
287.952
287.953
287.955
287.957
287.958
287.96
287.961
287.963
287.965
287.966
287.968
287.97
287.971
287.973
287.975
287.976
287.978
287.98
287.982
287.983
287.985
287.987
287.988
287.99
287.991
287.991
287.994
287.993
282.697
282.541
282.543
282.827
283.143
283.382
283.473
283.567
283.746
284.054
284.387
284.673
284.868
285.027
285.2
285.423
285.672
285.908
286.098
286.239
286.346
286.444
286.546
286.654
286.763
286.864
286.948
287.014
287.061
287.094
287.114
287.127
287.135
287.139
287.142
287.143
287.144
287.145
287.146
287.146
287.147
287.148
287.149
287.149
287.15
287.151
287.152
287.153
287.154
287.155
287.156
287.158
287.159
287.16
287.161
287.163
287.164
287.165
287.167
287.168
287.17
287.171
287.173
287.174
287.176
287.177
287.179
287.181
287.182
287.184
287.186
287.187
287.189
287.191
287.193
287.194
287.196
287.198
287.2
287.201
287.203
287.205
287.206
287.208
287.209
287.211
287.213
287.213
287.216
287.217
282.689
282.54
282.53
282.775
283.035
283.212
283.252
283.302
283.442
283.704
283.99
284.23
284.387
284.515
284.663
284.863
285.088
285.302
285.471
285.597
285.693
285.783
285.878
285.98
286.084
286.179
286.259
286.321
286.366
286.397
286.416
286.428
286.435
286.44
286.442
286.444
286.445
286.446
286.446
286.447
286.448
286.449
286.45
286.451
286.452
286.453
286.454
286.455
286.456
286.457
286.458
286.46
286.461
286.462
286.463
286.465
286.466
286.468
286.469
286.471
286.472
286.474
286.475
286.477
286.479
286.48
286.482
286.484
286.485
286.487
286.489
286.491
286.492
286.494
286.496
286.498
286.5
286.501
286.503
286.505
286.507
286.508
286.51
286.512
286.513
286.515
286.516
286.517
286.52
286.521
282.692
282.562
282.561
282.778
282.989
283.109
283.112
283.133
283.245
283.466
283.705
283.896
284.017
284.117
284.244
284.42
284.618
284.803
284.949
285.056
285.139
285.219
285.306
285.4
285.494
285.581
285.653
285.709
285.749
285.776
285.794
285.805
285.811
285.815
285.817
285.818
285.819
285.82
285.821
285.822
285.823
285.823
285.824
285.825
285.826
285.827
285.828
285.83
285.831
285.832
285.833
285.835
285.836
285.837
285.839
285.84
285.842
285.843
285.845
285.846
285.848
285.849
285.851
285.853
285.854
285.856
285.858
285.86
285.862
285.863
285.865
285.867
285.869
285.871
285.873
285.875
285.877
285.878
285.88
285.882
285.884
285.886
285.888
285.89
285.891
285.893
285.895
285.895
285.898
285.901
282.666
282.568
282.586
282.779
282.941
283.016
282.993
283.004
283.099
283.286
283.476
283.622
283.71
283.791
283.9
284.053
284.222
284.377
284.495
284.583
284.653
284.724
284.801
284.885
284.968
285.044
285.106
285.154
285.188
285.211
285.226
285.235
285.241
285.244
285.246
285.247
285.248
285.249
285.25
285.251
285.252
285.253
285.254
285.255
285.257
285.258
285.259
285.26
285.261
285.263
285.264
285.266
285.267
285.269
285.27
285.272
285.273
285.275
285.276
285.278
285.28
285.282
285.283
285.285
285.287
285.289
285.291
285.293
285.295
285.297
285.299
285.301
285.303
285.304
285.307
285.309
285.311
285.313
285.315
285.317
285.318
285.321
285.322
285.324
285.326
285.328
285.329
285.33
285.333
285.336
282.684
282.62
282.661
282.823
282.938
282.973
282.939
282.947
283.031
283.182
283.326
283.43
283.491
283.555
283.648
283.776
283.913
284.035
284.126
284.195
284.251
284.311
284.378
284.449
284.519
284.581
284.632
284.671
284.697
284.716
284.727
284.734
284.739
284.741
284.743
284.744
284.745
284.746
284.747
284.748
284.749
284.75
284.752
284.753
284.754
284.755
284.757
284.758
284.759
284.761
284.762
284.764
284.765
284.767
284.768