/*--------------------------------*- C++ -*----------------------------------*\
  =========                 |
  \\      /  F ield         | OpenFOAM: The Open Source CFD Toolbox
   \\    /   O peration     | Website:  https://openfoam.org
    \\  /    A nd           | Version:  7
     \\/     M anipulation  |
\*---------------------------------------------------------------------------*/
FoamFile
{
    version     2.0;
    format      ascii;
    class       surfaceScalarField;
    location    "1.385";
    object      phi;
}
// * * * * * * * * * * * * * * * * * * * * * * * * * * * * * * * * * * * * * //

dimensions      [1 0 -1 0 0 0 0];

internalField   nonuniform List<scalar> 
13265
(
0.00259239
0.00108598
1.35116e-05
0.00198788
0.000596961
6.94732e-06
0.00159357
0.000382025
1.17218e-05
0.00139003
0.000195781
7.21455e-06
0.00126897
0.000109445
1.10795e-05
0.0011945
6.64567e-05
7.46026e-06
0.00114023
4.31757e-05
1.05313e-05
0.00110062
3.14841e-05
7.54715e-06
0.00106694
2.30604e-05
1.00045e-05
0.00104062
1.8149e-05
7.55616e-06
0.00101663
1.38177e-05
9.53095e-06
0.000997475
1.09949e-05
7.52492e-06
0.000979433
8.29231e-06
9.10871e-06
0.00096462
6.71222e-06
7.46414e-06
0.000950443
4.82161e-06
8.72736e-06
0.000937644
4.80357e-06
7.38015e-06
0.000920847
7.80373e-06
8.39011e-06
0.000915567
-2.57602e-06
7.26846e-06
0.000812005
9.46975e-05
8.28441e-06
6.21305e-05
6.83811e-06
0.000742475
0.00385731
0.000916727
3.31114e-06
0.0038126
0.000643784
-2.67192e-06
0.00366948
0.000522781
1.89537e-06
0.00352137
0.000346068
-2.61203e-06
0.00338691
0.000242277
1.23753e-06
0.00327662
0.000178745
-2.40022e-06
0.00318219
0.000136531
6.67586e-07
0.00310576
0.000109773
-2.32422e-06
0.00303886
8.92892e-05
1.32977e-07
0.00298433
7.43953e-05
-2.31869e-06
0.00293544
6.23881e-05
-3.45678e-07
0.00289501
5.3079e-05
-2.35127e-06
0.00285861
4.47348e-05
-7.76299e-07
0.00282708
3.99162e-05
-2.41017e-06
0.00280146
3.08869e-05
-1.18005e-06
0.00277474
3.33076e-05
-2.48776e-06
0.00276681
1.66637e-05
-1.61012e-06
0.00274102
2.52106e-05
-2.62308e-06
0.00282392
1.34685e-05
-2.25989e-06
-3.47675e-05
-3.61079e-06
0.00292389
0.00407662
0.000520183
1.16346e-05
0.00432075
0.000392786
6.31768e-06
0.00447039
0.00036197
1.07102e-05
0.00454741
0.000262409
6.22397e-06
0.0045785
0.000200742
1.00546e-05
0.00459168
0.000158766
6.43891e-06
0.00458986
0.000128483
9.52324e-06
0.00458494
0.000107779
6.54851e-06
0.0045737
9.10751e-05
9.01484e-06
0.00456317
7.78205e-05
6.57185e-06
0.00454902
6.73498e-05
8.5516e-06
0.00453726
5.75643e-05
6.54735e-06
0.00452208
5.09821e-05
8.13773e-06
0.00451153
4.31221e-05
6.48962e-06
0.00449398
3.97541e-05
7.77317e-06
0.00448655
3.34046e-05
6.40652e-06
0.00445908
3.57036e-05
7.4999e-06
0.00444873
2.83529e-05
6.30821e-06
0.00439324
6.04898e-05
7.64489e-06
6.00715e-05
6.18204e-06
0.00429147
0.00403249
0.000176114
2.8848e-06
0.00429243
0.000134712
-2.4185e-06
0.00452491
0.000127133
1.89811e-06
0.00469489
9.46265e-05
-2.61243e-06
0.00481978
7.42534e-05
1.19615e-06
0.00491974
6.08857e-05
-2.44888e-06
0.00499609
5.1178e-05
6.26175e-07
0.00506115
4.47499e-05
-2.36301e-06
0.00511255
3.91868e-05
9.95822e-08
0.00515725
3.49877e-05
-2.34977e-06
0.00519344
3.09377e-05
-3.75904e-07
0.00522459
2.8103e-05
-2.37907e-06
0.00525125
2.43369e-05
-8.07041e-07
0.00527258
2.33724e-05
-2.43677e-06
0.00529482
1.78106e-05
-1.21874e-06
0.00530917
2.05811e-05
-2.52296e-06
0.0053367
8.82684e-06
-1.69315e-06
0.00535168
1.50286e-05
-2.72424e-06
0.00541832
-4.55938e-06
-2.59704e-06
-2.15997e-05
-3.68163e-06
0.0055027
0.00403254
-0.000176114
1.13745e-05
0.00429499
-0.000134712
6.41998e-06
0.00453811
-0.000127133
1.06863e-05
0.00472073
-9.46253e-05
6.2165e-06
0.00485882
-7.4253e-05
1.00216e-05
0.00497382
-6.08829e-05
6.40232e-06
0.00506635
-5.11758e-05
9.48839e-06
0.005149
-4.47434e-05
6.51574e-06
0.00521801
-3.91774e-05
8.98523e-06
0.00528096
-3.49712e-05
6.54421e-06
0.0053337
-3.0907e-05
8.52548e-06
0.00538265
-2.80522e-05
6.52246e-06
0.00542236
-2.42605e-05
8.11437e-06
0.00546161
-2.31912e-05
6.46676e-06
0.00548842
-1.76611e-05
7.75626e-06
0.00552159
-1.99739e-05
6.38608e-06
0.00553038
-8.52056e-06
7.5095e-06
0.00555143
-1.34152e-05
6.29046e-06
0.00553222
5.84639e-06
7.73989e-06
2.51989e-05
6.25377e-06
0.00547813
0.00403249
-0.000520183
2.8848e-06
0.00429243
-0.000392786
-2.4185e-06
0.00452491
-0.00036197
1.89811e-06
0.00469489
-0.000262408
-2.61243e-06
0.00481978
-0.000200742
1.19615e-06
0.00491974
-0.000158764
-2.44888e-06
0.00499609
-0.000128481
6.26175e-07
0.00506115
-0.000107773
-2.36301e-06
0.00511255
-9.10664e-05
9.95824e-08
0.00515726
-7.78065e-05
-2.34977e-06
0.00519345
-6.73222e-05
-3.75905e-07
0.0052246
-5.75209e-05
-2.37908e-06
0.00525128
-5.09147e-05
-8.07053e-07
0.00527263
-4.29656e-05
-2.43681e-06
0.00529489
-3.96287e-05
-1.21878e-06
0.00530932
-3.28741e-05
-2.5231e-06
0.00533691
-3.54518e-05
-1.69322e-06
0.00535205
-2.68952e-05
-2.72465e-06
0.00541889
-5.94154e-05
-2.59615e-06
-5.68991e-05
-3.68226e-06
0.0055037
0.00407662
-0.000916727
1.16346e-05
0.00432075
-0.000643784
6.31768e-06
0.00447039
-0.000522781
1.07102e-05
0.00454741
-0.000346067
6.22397e-06
0.0045785
-0.000242277
1.00546e-05
0.00459168
-0.000178744
6.43891e-06
0.00458986
-0.000136529
9.52324e-06
0.00458494
-0.00010977
6.54851e-06
0.00457371
-8.92824e-05
9.01484e-06
0.00456318
-7.43864e-05
6.57185e-06
0.00454903
-6.23679e-05
8.5516e-06
0.00453729
-5.30502e-05
6.54736e-06
0.00452213
-4.46883e-05
8.13772e-06
0.00451163
-3.98074e-05
6.48966e-06
0.00449413
-3.08088e-05
7.77313e-06
0.00448685
-3.29304e-05
6.40664e-06
0.0044595
-1.65321e-05
7.49982e-06
0.0044496
-2.42009e-05
6.30838e-06
0.00439461
-1.28895e-05
7.64429e-06
3.66677e-05
6.18156e-06
0.00429411
0.00385731
-0.00108598
3.31114e-06
0.0038126
-0.000596961
-2.67192e-06
0.00366948
-0.000382025
1.89536e-06
0.00352138
-0.000195781
-2.61203e-06
0.00338691
-0.000109445
1.23753e-06
0.00327662
-6.64561e-05
-2.40022e-06
0.00318219
-4.31747e-05
6.67586e-07
0.00310576
-3.14828e-05
-2.32423e-06
0.00303887
-2.30573e-05
1.32979e-07
0.00298435
-1.81463e-05
-2.3187e-06
0.00293547
-1.38087e-05
-3.45673e-07
0.00289505
-1.09863e-05
-2.35129e-06
0.00285868
-8.27032e-06
-7.76297e-07
0.00282723
-6.67894e-06
-2.41023e-06
0.00280164
-4.78065e-06
-1.18003e-06
0.00277518
-4.68324e-06
-2.48798e-06
0.00276729
-7.70802e-06
-1.60989e-06
0.00274217
2.91596e-06
-2.62392e-06
0.00282519
-9.42384e-05
-2.25788e-06
-6.12272e-05
-3.61322e-06
0.00292616
0.00259239
1.35116e-05
0.00198788
6.94733e-06
0.00159357
1.17218e-05
0.00139003
7.21455e-06
0.00126897
1.10795e-05
0.0011945
7.46027e-06
0.00114023
1.05313e-05
0.00110062
7.54716e-06
0.00106695
1.00045e-05
0.00104063
7.55618e-06
0.00101665
9.53094e-06
0.000997501
7.52495e-06
0.000979481
9.10868e-06
0.000964701
7.46422e-06
0.000950566
8.72723e-06
0.000937886
7.38037e-06
0.000921187
8.38977e-06
0.000916243
7.26897e-06
0.000813146
8.28355e-06
6.83861e-06
0.000744511
0.00337319
0.000327787
3.2889e-06
0.00281097
0.000563494
5.08975e-06
0.00232071
0.000499099
2.36614e-06
0.00196799
0.000355584
3.84907e-06
0.00173784
0.000238652
2.09081e-06
0.00158822
0.00015329
3.28607e-06
0.00149238
0.000103706
2.12319e-06
0.00142268
7.36313e-05
3.04695e-06
0.00137368
5.61837e-05
2.2151e-06
0.00133226
4.54761e-05
2.87448e-06
0.00130091
3.79763e-05
2.27554e-06
0.0012721
3.29848e-05
2.71524e-06
0.00124944
2.88299e-05
2.30764e-06
0.00122791
2.57943e-05
2.57981e-06
0.00121143
2.22603e-05
2.33323e-06
0.00119359
2.21499e-05
2.47639e-06
0.00119454
4.50369e-06
2.36285e-06
0.00116874
3.01026e-05
2.41158e-06
0.00131597
-0.000141769
2.27501e-06
-0.000127204
2.55202e-06
0.00144693
0.00381402
0.000200096
8.05756e-06
0.00388587
0.000478834
9.59027e-06
0.00388694
0.000491892
7.56184e-06
0.0038219
0.000409049
8.54448e-06
0.00373977
0.000314362
7.26415e-06
0.00365064
0.000231589
8.05735e-06
0.00357174
0.000175592
7.28669e-06
0.00349787
0.000136874
7.8463e-06
0.00343561
0.000110673
7.35636e-06
0.00337809
9.23508e-05
7.69172e-06
0.00332949
7.8145e-05
7.38435e-06
0.0032847
6.71095e-05
7.55025e-06
0.0032457
5.88697e-05
7.38287e-06
0.00321123
4.96092e-05
7.42823e-06
0.00317698
4.71423e-05
7.37945e-06
0.00315322
3.53197e-05
7.32978e-06
0.00311139
3.65867e-05
7.40957e-06
0.00310326
2.76829e-05
7.27132e-06
0.00297084
-1.97882e-05
7.57292e-06
3.24899e-05
7.62172e-06
0.00279937
0.00380831
9.07966e-05
3.36875e-06
0.00401104
0.000276701
5.16129e-06
0.00419396
0.00031664
2.58219e-06
0.00432121
0.000283513
4.08341e-06
0.00440703
0.000235957
2.24513e-06
0.00445363
0.000187584
3.48238e-06
0.0044827
0.000153457
2.2415e-06
0.00449489
0.000127636
3.21208e-06
0.00450239
0.000109377
2.33951e-06
0.00450208
9.5625e-05
3.03911e-06
0.00450149
8.41836e-05
2.41989e-06
0.00449594
7.55527e-05
2.88975e-06
0.00449267
6.69577e-05
2.46993e-06
0.0044838
6.1297e-05
2.76414e-06
0.00448236
5.28882e-05
2.50424e-06
0.00446955
5.08814e-05
2.66826e-06
0.00447831
3.18465e-05
2.50395e-06
0.00446693
4.18463e-05
2.60477e-06
0.0044961
-4.43916e-05
2.24317e-06
-2.84054e-05
2.61952e-06
0.0045598
0.00373524
4.1586e-05
7.91756e-06
0.0039086
9.08977e-05
9.478e-06
0.00412331
9.58138e-05
7.55347e-06
0.00430761
8.76042e-05
8.57282e-06
0.00446372
7.33589e-05
7.27888e-06
0.00458093
5.95196e-05
8.05737e-06
0.00467826
4.91494e-05
7.26679e-06
0.00475385
4.15141e-05
7.81906e-06
0.00481963
3.59331e-05
7.32432e-06
0.00487302
3.16795e-05
7.6599e-06
0.00492057
2.8258e-05
7.35358e-06
0.00496048
2.49959e-05
7.52055e-06
0.00499533
2.31213e-05
7.35596e-06
0.00502649
1.94074e-05
7.40111e-06
0.00504951
2.03098e-05
7.35913e-06
0.00507516
1.43622e-05
7.30917e-06
0.00507639
2.04393e-05
7.41182e-06
0.00509243
1.47246e-05
7.28837e-06
0.00501845
1.8301e-05
7.70065e-06
4.65381e-05
7.67209e-06
0.00493123
0.00378193
-4.15861e-05
3.34996e-06
0.00396444
-9.08974e-05
5.15534e-06
0.00416365
-9.5814e-05
2.63587e-06
0.00434051
-8.76032e-05
4.13982e-06
0.00449456
-7.33589e-05
2.2943e-06
0.00461611
-5.95167e-05
3.5256e-06
0.00472129
-4.91479e-05
2.27136e-06
0.00480724
-4.15065e-05
3.23767e-06
0.00488529
-3.59258e-05
2.36129e-06
0.00495158
-3.16594e-05
3.05958e-06
0.00501351
-2.8233e-05
2.44156e-06
0.00506632
-2.49379e-05
2.91037e-06
0.0051173
-2.30526e-05
2.49289e-06
0.00515873
-1.92294e-05
2.78551e-06
0.00520343
-2.01387e-05
2.52561e-06
0.00523427
-1.3827e-05
2.69037e-06
0.00527858
-1.99653e-05
2.5088e-06
0.00530914
-1.32931e-05
2.62991e-06
0.00534863
-1.66819e-05
2.19671e-06
-4.3073e-05
2.62486e-06
0.00544088
0.00373524
-9.07967e-05
7.91756e-06
0.0039086
-0.000276701
9.478e-06
0.00412331
-0.00031664
7.55347e-06
0.00430761
-0.000283512
8.57282e-06
0.00446372
-0.000235957
7.27888e-06
0.00458093
-0.000187581
8.05737e-06
0.00467826
-0.000153455
7.26679e-06
0.00475385
-0.000127629
7.81906e-06
0.00481963
-0.00010937
7.32432e-06
0.00487303
-9.56067e-05
7.6599e-06
0.00492057
-8.41609e-05
7.35358e-06
0.00496049
-7.54995e-05
7.52056e-06
0.00499535
-6.68969e-05
7.35597e-06
0.00502652
-6.11323e-05
7.40113e-06
0.00504957
-5.27419e-05
7.35914e-06
0.00507526
-5.03902e-05
7.30924e-06
0.00507656
-3.14504e-05
7.41177e-06
0.00509276
-4.05744e-05
7.28855e-06
0.00501903
4.57623e-05
7.70012e-06
3.14156e-05
7.67212e-06
0.00493227
0.00380831
-0.000200096
3.36875e-06
0.00401104
-0.000478834
5.16129e-06
0.00419396
-0.000491892
2.58219e-06
0.00432121
-0.000409048
4.08341e-06
0.00440703
-0.000314362
2.24513e-06
0.00445363
-0.000231588
3.48238e-06
0.0044827
-0.00017559
2.2415e-06
0.00449489
-0.000136869
3.21208e-06
0.0045024
-0.000110667
2.33951e-06
0.00450209
-9.23389e-05
3.03911e-06
0.0045015
-7.81253e-05
2.41989e-06
0.00449597
-6.70743e-05
2.88975e-06
0.00449271
-5.88196e-05
2.46995e-06
0.00448389
-4.94966e-05
2.76412e-06
0.00448248
-4.70273e-05
2.50426e-06
0.00446982
-3.49759e-05
2.66819e-06
0.00447867
-3.6283e-05
2.50394e-06
0.00446765
-2.67686e-05
2.60461e-06
0.00449717
2.08138e-05
2.24339e-06
-3.0144e-05
2.61908e-06
0.00456153
0.00381402
-0.000327787
8.05756e-06
0.00388587
-0.000563494
9.59027e-06
0.00388694
-0.000499099
7.56184e-06
0.0038219
-0.000355584
8.54448e-06
0.00373977
-0.000238652
7.26415e-06
0.00365064
-0.00015329
8.05735e-06
0.00357174
-0.000103705
7.28669e-06
0.00349787
-7.36293e-05
7.8463e-06
0.00343561
-5.61802e-05
7.35636e-06
0.0033781
-4.5471e-05
7.69173e-06
0.00332951
-3.79662e-05
7.38435e-06
0.00328474
-3.29692e-05
7.55027e-06
0.00324577
-2.88061e-05
7.38287e-06
0.00321136
-2.57404e-05
7.42828e-06
0.00317718
-2.22143e-05
7.3794e-06
0.00315358
-2.19776e-05
7.32995e-06
0.00311197
-4.41421e-06
7.40932e-06
0.00310429
-2.96466e-05
7.27178e-06
0.00297265
0.000142031
7.57159e-06
0.000127649
7.62266e-06
0.00280308
0.00337319
3.2889e-06
0.00281097
5.08975e-06
0.00232071
2.36614e-06
0.00196799
3.84907e-06
0.00173784
2.09081e-06
0.00158822
3.28607e-06
0.00149238
2.12319e-06
0.00142268
3.04695e-06
0.00137369
2.2151e-06
0.00133228
2.87448e-06
0.00130094
2.27555e-06
0.00127214
2.71523e-06
0.0012495
2.30768e-06
0.00122802
2.57978e-06
0.00121159
2.33331e-06
0.00119393
2.47633e-06
0.00119497
2.36292e-06
0.00116962
2.41146e-06
0.00131712
2.27502e-06
2.55161e-06
0.00144852
0.00355869
0.000138357
-3.28891e-06
0.00330752
0.000260795
-5.08977e-06
0.00300136
0.000310406
-2.36616e-06
0.00270173
0.000306886
-3.84908e-06
0.0024299
0.000275585
-2.09082e-06
0.00220366
0.000232359
-3.28608e-06
0.00202059
0.000186803
-2.1232e-06
0.00188055
0.000145539
-3.04697e-06
0.00177312
0.000111223
-2.21511e-06
0.00169405
8.41641e-05
-2.8745e-06
0.00163402
6.3927e-05
-2.27555e-06
0.00158968
4.91256e-05
-2.71525e-06
0.00155554
3.81388e-05
-2.30765e-06
0.00152868
3.14118e-05
-2.57983e-06
0.00150925
2.35087e-05
-2.33324e-06
0.001489
2.46196e-05
-2.47641e-06
0.00148285
1.03174e-05
-2.36286e-06
0.00146223
2.49016e-05
-2.41159e-06
0.00147971
-1.34852e-05
-2.27503e-06
-1.90404e-05
-2.55203e-06
0.00150333
0.00375585
8.90818e-05
-8.05757e-06
0.003847
0.000188274
-9.59029e-06
0.00391689
0.000255183
-7.56186e-06
0.0039567
0.000283746
-8.5445e-06
0.00396312
0.000283311
-7.26417e-06
0.00394894
0.000262313
-8.05737e-06
0.00391811
0.000231839
-7.28671e-06
0.00388058
0.000198317
-7.84632e-06
0.00383791
0.000168052
-7.35638e-06
0.00379556
0.000141238
-7.69174e-06
0.0037531
0.000120411
-7.38436e-06
0.00371361
0.000102892
-7.55027e-06
0.00367562
9.00052e-05
-7.38289e-06
0.00364158
7.9397e-05
-7.42825e-06
0.00360915
6.97924e-05
-7.37947e-06
0.00358107
6.65057e-05
-7.32979e-06
0.00355435
5.10673e-05
-7.40959e-06
0.00352997
6.31458e-05
-7.27134e-06
0.00350706
2.39511e-05
-7.57293e-06
5.25597e-05
-7.62174e-06
0.00345018
0.00374216
4.41132e-05
-3.36877e-06
0.00383877
0.000101444
-5.16131e-06
0.00395388
0.000144768
-2.5822e-06
0.00407808
0.000167294
-4.08343e-06
0.00419256
0.000172932
-2.24514e-06
0.0042952
0.000166302
-3.48239e-06
0.00437911
0.000152078
-2.24151e-06
0.00444802
0.000135449
-3.2121e-06
0.00450139
0.000118875
-2.33952e-06
0.00454377
0.000104331
-3.03913e-06
0.00457644
9.18771e-05
-2.4199e-06
0.00460222
8.20966e-05
-2.88977e-06
0.00462292
7.33634e-05
-2.46995e-06
0.00463902
6.78645e-05
-2.76416e-06
0.00465313
5.9654e-05
-2.50426e-06
0.00466398
5.99462e-05
-2.66828e-06
0.00467399
4.50176e-05
-2.50396e-06
0.0046839
5.7483e-05
-2.60478e-06
0.00468899
2.24791e-05
-2.24319e-06
4.37662e-05
-2.61954e-06
0.00470225
0.00373087
1.95326e-05
-7.91758e-06
0.00381229
3.8435e-05
-9.47801e-06
0.00392017
5.15269e-05
-7.55349e-06
0.00404615
5.80339e-05
-8.57284e-06
0.00417307
6.01872e-05
-7.2789e-06
0.00429692
5.82291e-05
-8.05738e-06
0.00440876
5.44459e-05
-7.26681e-06
0.00451025
4.92216e-05
-7.81908e-06
0.00459882
4.44796e-05
-7.32434e-06
0.00467814
3.97345e-05
-7.65991e-06
0.00474783
3.62022e-05
-7.3536e-06
0.00481133
3.28678e-05
-7.52057e-06
0.00486799
3.05497e-05
-7.35598e-06
0.00492124
2.84831e-05
-7.40113e-06
0.00496816
2.64156e-05
-7.35915e-06
0.00501534
2.62802e-05
-7.30918e-06
0.00505201
2.20538e-05
-7.41183e-06
0.00509567
2.73151e-05
-7.28839e-06
0.00511619
1.63803e-05
-7.70067e-06
3.33506e-05
-7.67211e-06
0.00514103
0.00373622
-1.95328e-05
-3.34997e-06
0.00382285
-3.84345e-05
-5.15536e-06
0.00393071
-5.15273e-05
-2.63589e-06
0.00405464
-5.80325e-05
-4.13983e-06
0.00417921
-6.01875e-05
-2.29432e-06
0.00430238
-5.82253e-05
-3.52562e-06
0.00441549
-5.44445e-05
-2.27137e-06
0.00452003
-4.9212e-05
-3.23769e-06
0.00461323
-4.44717e-05
-2.36131e-06
0.0046982
-3.97092e-05
-3.0596e-06
0.00477477
-3.61773e-05
-2.44157e-06
0.00484548
-3.27942e-05
-2.91038e-06
0.00491065
-3.04903e-05
-2.4929e-06
0.00497203
-2.82596e-05
-2.78553e-06
0.00502876
-2.62876e-05
-2.52563e-06
0.00508497
-2.56574e-05
-2.69039e-06
0.00513261
-2.16892e-05
-2.50881e-06
0.00518992
-2.58527e-05
-2.62993e-06
0.00522467
-1.49935e-05
-2.19673e-06
-3.04455e-05
-2.62488e-06
0.00529277
0.00373087
-4.41133e-05
-7.91758e-06
0.00381229
-0.000101444
-9.47801e-06
0.00392017
-0.000144768
-7.55349e-06
0.00404615
-0.000167292
-8.57284e-06
0.00417307
-0.000172933
-7.2789e-06
0.00429692
-0.000166298
-8.05738e-06
0.00440876
-0.000152077
-7.26681e-06
0.00451025
-0.00013544
-7.81908e-06
0.00459882
-0.000118868
-7.32434e-06
0.00467815
-0.000104307
-7.65992e-06
0.00474784
-9.18541e-05
-7.3536e-06
0.00481133
-8.20266e-05
-7.52057e-06
0.00486801
-7.33094e-05
-7.35598e-06
0.00492126
-6.76528e-05
-7.40115e-06
0.0049682
-5.95414e-05
-7.35916e-06
0.00501542
-5.93578e-05
-7.30925e-06
0.00505214
-4.47005e-05
-7.41179e-06
0.00509588
-5.61118e-05
-7.28856e-06
0.00511655
-2.12446e-05
-7.70014e-06
-4.11131e-05
-7.67214e-06
0.00514165
0.00374216
-8.90819e-05
-3.36877e-06
0.00383877
-0.000188274
-5.16131e-06
0.00395388
-0.000255183
-2.5822e-06
0.00407808
-0.000283745
-4.08343e-06
0.00419256
-0.000283311
-2.24514e-06
0.0042952
-0.00026231
-3.48239e-06
0.00437911
-0.000231838
-2.24151e-06
0.00444802
-0.000198309
-3.2121e-06
0.00450139
-0.000168045
-2.33952e-06
0.00454378
-0.000141219
-3.03913e-06
0.00457645
-0.000120391
-2.41991e-06
0.00460225
-0.000102836
-2.88976e-06
0.00462296
-8.99626e-05
-2.46996e-06
0.0046391
-7.92246e-05
-2.76414e-06
0.00465324
-6.97135e-05
-2.50428e-06
0.00466419
-6.60241e-05
-2.6682e-06
0.00467431
-5.08522e-05
-2.50396e-06
0.00468448
-6.20395e-05
-2.60463e-06
0.0046899
-2.30404e-05
-2.2434e-06
-5.05165e-05
-2.61909e-06
0.00470377
0.00375585
-0.000138357
-8.05757e-06
0.003847
-0.000260795
-9.59029e-06
0.00391689
-0.000310406
-7.56186e-06
0.0039567
-0.000306885
-8.5445e-06
0.00396312
-0.000275584
-7.26417e-06
0.00394894
-0.000232358
-8.05737e-06
0.00391811
-0.000186802
-7.28671e-06
0.00388058
-0.000145537
-7.84632e-06
0.00383792
-0.000111217
-7.35638e-06
0.00379558
-8.41564e-05
-7.69174e-06
0.00375313
-6.39123e-05
-7.38437e-06
0.00371366
-4.91004e-05
-7.55028e-06
0.00367569
-3.81102e-05
-7.38289e-06
0.00364173
-3.13258e-05
-7.4283e-06
0.00360934
-2.34643e-05
-7.37942e-06
0.00358149
-2.43668e-05
-7.32997e-06
0.00355489
-1.0213e-05
-7.40934e-06
0.00353102
-2.43273e-05
-7.2718e-06
0.00350856
1.3961e-05
-7.57161e-06
1.9829e-05
-7.62267e-06
0.00345293
0.00355869
-3.28891e-06
0.00330752
-5.08977e-06
0.00300136
-2.36616e-06
0.00270173
-3.84908e-06
0.0024299
-2.09082e-06
0.00220366
-3.28608e-06
0.00202059
-2.1232e-06
0.00188056
-3.04697e-06
0.00177313
-2.21512e-06
0.00169407
-2.8745e-06
0.00163405
-2.27557e-06
0.00158974
-2.71524e-06
0.00155563
-2.30769e-06
0.00152885
-2.57979e-06
0.00150946
-2.33332e-06
0.00148948
-2.47634e-06
0.00148343
-2.36293e-06
0.00146337
-2.41148e-06
0.00148136
-2.27503e-06
-2.55163e-06
0.00150574
0.00337319
0.000327787
-1.35116e-05
0.00281097
0.000563494
-6.94734e-06
0.00232071
0.000499099
-1.17218e-05
0.00196799
0.000355584
-7.21456e-06
0.00173784
0.000238652
-1.10795e-05
0.00158822
0.00015329
-7.46027e-06
0.00149238
0.000103706
-1.05314e-05
0.00142268
7.36313e-05
-7.54716e-06
0.00137368
5.61837e-05
-1.00045e-05
0.00133226
4.54761e-05
-7.55618e-06
0.00130091
3.79763e-05
-9.53096e-06
0.0012721
3.29849e-05
-7.52494e-06
0.00124944
2.88299e-05
-9.10873e-06
0.00122791
2.57944e-05
-7.46415e-06
0.00121143
2.22604e-05
-8.72738e-06
0.00119359
2.215e-05
-7.38017e-06
0.00119454
4.50373e-06
-8.39013e-06
0.00116874
3.01026e-05
-7.26848e-06
0.00131597
-0.000141769
-8.28443e-06
-0.000127204
-6.83813e-06
0.00144693
0.00381402
0.000200096
-3.31115e-06
0.00388587
0.000478834
2.67192e-06
0.00388694
0.000491892
-1.89537e-06
0.0038219
0.000409049
2.61202e-06
0.00373977
0.000314362
-1.23754e-06
0.00365064
0.000231589
2.40021e-06
0.00357174
0.000175592
-6.67592e-07
0.00349787
0.000136874
2.32422e-06
0.00343561
0.000110673
-1.32984e-07
0.00337809
9.23509e-05
2.31868e-06
0.00332949
7.81451e-05
3.45669e-07
0.0032847
6.71096e-05
2.35126e-06
0.0032457
5.88698e-05
7.7629e-07
0.00321123
4.96092e-05
2.41016e-06
0.00317698
4.71423e-05
1.18004e-06
0.00315322
3.53197e-05
2.48775e-06
0.00311139
3.65868e-05
1.6101e-06
0.00310326
2.76829e-05
2.62307e-06
0.00297084
-1.97882e-05
2.25988e-06
3.24899e-05
3.61078e-06
0.00279937
0.00380831
9.07966e-05
-1.16347e-05
0.00401104
0.000276701
-6.31768e-06
0.00419396
0.00031664
-1.07102e-05
0.00432121
0.000283513
-6.22398e-06
0.00440703
0.000235957
-1.00546e-05
0.00445363
0.000187584
-6.43892e-06
0.0044827
0.000153457
-9.52325e-06
0.00449489
0.000127636
-6.54851e-06
0.00450239
0.000109377
-9.01485e-06
0.00450208
9.56251e-05
-6.57186e-06
0.00450149
8.41836e-05
-8.55161e-06
0.00449594
7.55528e-05
-6.54736e-06
0.00449267
6.69577e-05
-8.13774e-06
0.0044838
6.1297e-05
-6.48963e-06
0.00448236
5.28882e-05
-7.77318e-06
0.00446955
5.08813e-05
-6.40653e-06
0.00447831
3.18464e-05
-7.49992e-06
0.00446693
4.18463e-05
-6.30822e-06
0.0044961
-4.43917e-05
-7.6449e-06
-2.84055e-05
-6.18206e-06
0.0045598
0.00373524
4.1586e-05
-2.8848e-06
0.0039086
9.08978e-05
2.41849e-06
0.00412331
9.58138e-05
-1.89812e-06
0.00430761
8.76043e-05
2.61243e-06
0.00446372
7.3359e-05
-1.19616e-06
0.00458093
5.95196e-05
2.44887e-06
0.00467826
4.91495e-05
-6.26182e-07
0.00475385
4.15142e-05
2.363e-06
0.00481963
3.59332e-05
-9.95896e-08
0.00487302
3.16796e-05
2.34976e-06
0.00492057
2.82581e-05
3.75896e-07
0.00496048
2.4996e-05
2.37906e-06
0.00499533
2.31213e-05
8.07032e-07
0.00502649
1.94075e-05
2.43676e-06
0.00504951
2.03098e-05
1.21873e-06
0.00507516
1.43621e-05
2.52295e-06
0.00507639
2.04392e-05
1.69314e-06
0.00509243
1.47245e-05
2.72423e-06
0.00501845
1.83009e-05
2.59703e-06
4.6538e-05
3.68162e-06
0.00493123
0.00378193
-4.15861e-05
-1.13745e-05
0.00396444
-9.08974e-05
-6.41999e-06
0.00416365
-9.58139e-05
-1.06863e-05
0.00434051
-8.76031e-05
-6.2165e-06
0.00449456
-7.33588e-05
-1.00216e-05
0.00461611
-5.95166e-05
-6.40233e-06
0.00472129
-4.91478e-05
-9.4884e-06
0.00480724
-4.15064e-05
-6.51575e-06
0.00488529
-3.59257e-05
-8.98524e-06
0.00495158
-3.16593e-05
-6.54422e-06
0.00501351
-2.82329e-05
-8.52549e-06
0.00506632
-2.49378e-05
-6.52247e-06
0.0051173
-2.30525e-05
-8.11438e-06
0.00515873
-1.92294e-05
-6.46677e-06
0.00520343
-2.01387e-05
-7.75627e-06
0.00523427
-1.38271e-05
-6.38609e-06
0.00527858
-1.99654e-05
-7.50951e-06
0.00530914
-1.32932e-05
-6.29047e-06
0.00534863
-1.6682e-05
-7.73989e-06
-4.3073e-05
-6.25378e-06
0.00544088
0.00373524
-9.07967e-05
-2.8848e-06
0.0039086
-0.000276701
2.41849e-06
0.00412331
-0.00031664
-1.89812e-06
0.00430761
-0.000283512
2.61243e-06
0.00446372
-0.000235957
-1.19616e-06
0.00458093
-0.000187581
2.44887e-06
0.00467826
-0.000153455
-6.26183e-07
0.00475385
-0.000127629
2.36301e-06
0.00481963
-0.00010937
-9.95913e-08
0.00487303
-9.56066e-05
2.34976e-06
0.00492057
-8.41608e-05
3.75896e-07
0.00496049
-7.54994e-05
2.37907e-06
0.00499535
-6.68969e-05
8.07044e-07
0.00502652
-6.11323e-05
2.4368e-06
0.00504957
-5.27419e-05
1.21878e-06
0.00507526
-5.03902e-05
2.52309e-06
0.00507656
-3.14504e-05
1.69321e-06
0.00509276
-4.05745e-05
2.72465e-06
0.00501903
4.57623e-05
2.59614e-06
3.14156e-05
3.68225e-06
0.00493227
0.00380831
-0.000200096
-1.16347e-05
0.00401104
-0.000478834
-6.31768e-06
0.00419396
-0.000491892
-1.07102e-05
0.00432121
-0.000409048
-6.22398e-06
0.00440703
-0.000314362
-1.00546e-05
0.00445363
-0.000231588
-6.43892e-06
0.0044827
-0.00017559
-9.52325e-06
0.00449489
-0.000136869
-6.54851e-06
0.0045024
-0.000110667
-9.01485e-06
0.00450209
-9.23389e-05
-6.57186e-06
0.0045015
-7.81253e-05
-8.55161e-06
0.00449597
-6.70742e-05
-6.54736e-06
0.00449271
-5.88195e-05
-8.13773e-06
0.00448389
-4.94965e-05
-6.48966e-06
0.00448248
-4.70272e-05
-7.77314e-06
0.00446982
-3.49759e-05
-6.40664e-06
0.00447867
-3.6283e-05
-7.49982e-06
0.00446765
-2.67686e-05
-6.30839e-06
0.00449717
2.08138e-05
-7.6443e-06
-3.0144e-05
-6.18157e-06
0.00456153
0.00381402
-0.000327787
-3.31115e-06
0.00388587
-0.000563494
2.67192e-06
0.00388694
-0.000499099
-1.89537e-06
0.0038219
-0.000355584
2.61202e-06
0.00373977
-0.000238652
-1.23754e-06
0.00365064
-0.00015329
2.40021e-06
0.00357174
-0.000103705
-6.67595e-07
0.00349787
-7.36293e-05
2.32422e-06
0.00343561
-5.61802e-05
-1.32988e-07
0.0033781
-4.54709e-05
2.31869e-06
0.00332951
-3.79662e-05
3.45665e-07
0.00328474
-3.29691e-05
2.35128e-06
0.00324577
-2.8806e-05
7.7629e-07
0.00321136
-2.57403e-05
2.41022e-06
0.00317718
-2.22142e-05
1.18002e-06
0.00315358
-2.19776e-05
2.48798e-06
0.00311197
-4.41417e-06
1.60989e-06
0.00310429
-2.96466e-05
2.62391e-06
0.00297265
0.000142031
2.25787e-06
0.000127649
3.61321e-06
0.00280308
0.00337319
-1.35116e-05
0.00281097
-6.94733e-06
0.00232071
-1.17218e-05
0.00196799
-7.21455e-06
0.00173784
-1.10795e-05
0.00158822
-7.46027e-06
0.00149238
-1.05313e-05
0.00142268
-7.54716e-06
0.00137369
-1.00045e-05
0.00133228
-7.55618e-06
0.00130094
-9.53094e-06
0.00127214
-7.52495e-06
0.0012495
-9.10868e-06
0.00122802
-7.46422e-06
0.00121159
-8.72723e-06
0.00119393
-7.38037e-06
0.00119497
-8.38977e-06
0.00116962
-7.26897e-06
0.00131712
-8.28356e-06
-6.83861e-06
0.00144852
0.00259239
0.00108598
0.00198788
0.000596961
0.00159357
0.000382025
0.00139003
0.000195781
0.00126897
0.000109445
0.0011945
6.64566e-05
0.00114023
4.31756e-05
0.00110062
3.1484e-05
0.00106694
2.30603e-05
0.00104062
1.81489e-05
0.00101663
1.38176e-05
0.000997474
1.09949e-05
0.000979433
8.29231e-06
0.00096462
6.71222e-06
0.000950443
4.8216e-06
0.000937644
4.80354e-06
0.000920847
7.80369e-06
0.000915567
-2.57609e-06
0.000812005
9.46974e-05
6.21304e-05
0.000742475
0.00385731
0.000916727
0.0038126
0.000643784
0.00366948
0.000522781
0.00352137
0.000346068
0.00338691
0.000242277
0.00327662
0.000178745
0.00318219
0.00013653
0.00310576
0.000109773
0.00303886
8.92891e-05
0.00298433
7.43953e-05
0.00293544
6.23881e-05
0.00289501
5.30791e-05
0.00285861
4.47349e-05
0.00282708
3.99163e-05
0.00280146
3.0887e-05
0.00277474
3.33076e-05
0.00276681
1.66638e-05
0.00274102
2.52106e-05
0.00282392
1.34685e-05
-3.47675e-05
0.00292389
0.00407662
0.000520183
0.00432075
0.000392786
0.00447039
0.00036197
0.00454741
0.000262408
0.0045785
0.000200742
0.00459168
0.000158766
0.00458986
0.000128483
0.00458494
0.000107778
0.0045737
9.10751e-05
0.00456317
7.78205e-05
0.00454902
6.73499e-05
0.00453726
5.75644e-05
0.00452208
5.09821e-05
0.00451153
4.31222e-05
0.00449398
3.97542e-05
0.00448655
3.34047e-05
0.00445908
3.57037e-05
0.00444873
2.8353e-05
0.00439324
6.04899e-05
6.00716e-05
0.00429147
0.00403249
0.000176114
0.00429243
0.000134712
0.00452491
0.000127133
0.00469488
9.46264e-05
0.00481978
7.42532e-05
0.00491974
6.08856e-05
0.00499609
5.11779e-05
0.00506115
4.47499e-05
0.00511255
3.91868e-05
0.00515725
3.49877e-05
0.00519344
3.09378e-05
0.00522459
2.81031e-05
0.00525125
2.4337e-05
0.00527258
2.33725e-05
0.00529482
1.78106e-05
0.00530917
2.05812e-05
0.0053367
8.82693e-06
0.00535168
1.50287e-05
0.00541832
-4.55928e-06
-2.15996e-05
0.0055027
0.00403254
-0.000176114
0.00429499
-0.000134712
0.00453811
-0.000127133
0.00472073
-9.46255e-05
0.00485882
-7.42531e-05
0.00497381
-6.08831e-05
0.00506635
-5.11759e-05
0.005149
-4.47434e-05
0.00521801
-3.91774e-05
0.00528096
-3.49712e-05
0.0053337
-3.09069e-05
0.00538265
-2.80521e-05
0.00542236
-2.42604e-05
0.00546161
-2.31912e-05
0.00548842
-1.7661e-05
0.00552159
-1.99738e-05
0.00553038
-8.52046e-06
0.00555143
-1.34151e-05
0.00553222
5.84649e-06
2.5199e-05
0.00547813
0.00403249
-0.000520183
0.00429243
-0.000392786
0.00452491
-0.00036197
0.00469489
-0.000262408
0.00481978
-0.000200742
0.00491974
-0.000158764
0.00499609
-0.000128481
0.00506115
-0.000107773
0.00511255
-9.10664e-05
0.00515726
-7.78065e-05
0.00519345
-6.73221e-05
0.0052246
-5.75208e-05
0.00525128
-5.09146e-05
0.00527263
-4.29655e-05
0.00529489
-3.96286e-05
0.00530932
-3.2874e-05
0.00533691
-3.54517e-05
0.00535204
-2.68951e-05
0.00541889
-5.94153e-05
-5.6899e-05
0.0055037
0.00407662
-0.000916727
0.00432075
-0.000643784
0.00447039
-0.000522781
0.00454741
-0.000346067
0.0045785
-0.000242277
0.00459168
-0.000178744
0.00458986
-0.000136529
0.00458494
-0.00010977
0.00457371
-8.92824e-05
0.00456318
-7.43864e-05
0.00454903
-6.23678e-05
0.00453729
-5.30502e-05
0.00452213
-4.46882e-05
0.00451163
-3.98073e-05
0.00449413
-3.08087e-05
0.00448685
-3.29304e-05
0.0044595
-1.65321e-05
0.0044496
-2.42008e-05
0.00439461
-1.28895e-05
3.66677e-05
0.0042941
0.00385731
-0.00108598
0.0038126
-0.000596961
0.00366948
-0.000382025
0.00352138
-0.000195781
0.00338691
-0.000109445
0.00327662
-6.64563e-05
0.00318219
-4.31748e-05
0.00310576
-3.14829e-05
0.00303887
-2.30574e-05
0.00298435
-1.81463e-05
0.00293547
-1.38087e-05
0.00289505
-1.09863e-05
0.00285868
-8.2703e-06
0.00282723
-6.67892e-06
0.00280164
-4.78064e-06
0.00277518
-4.68325e-06
0.00276729
-7.70805e-06
0.00274216
2.9159e-06
0.00282519
-9.42385e-05
-6.12273e-05
0.00292616
0.00259239
0.00198788
0.00159357
0.00139003
0.00126897
0.0011945
0.00114023
0.00110062
0.00106695
0.00104063
0.00101665
0.000997501
0.000979481
0.000964701
0.000950566
0.000937886
0.000921187
0.000916243
0.000813146
0.00074451
0.000870733
-0.000198393
6.86296e-05
0.000892121
-8.38788e-05
6.06024e-05
0.000880665
-5.49872e-05
6.417e-05
0.000872698
-5.21185e-05
5.77373e-05
0.000864625
-5.36148e-05
5.95676e-05
0.000858495
-5.08307e-05
5.51259e-05
0.000852349
-5.17332e-05
5.61632e-05
0.000847234
-4.97414e-05
5.30723e-05
0.000842154
-5.04658e-05
5.36507e-05
0.000837695
-4.89246e-05
5.14789e-05
0.00083342
-4.92885e-05
5.17825e-05
0.000829542
-4.7955e-05
5.02384e-05
0.000825909
-4.81594e-05
5.0373e-05
0.000822488
-4.71359e-05
4.92638e-05
0.000819335
-4.73283e-05
4.92981e-05
0.000816297
-4.65052e-05
4.84963e-05