/*--------------------------------*- C++ -*----------------------------------*\
  =========                 |
  \\      /  F ield         | OpenFOAM: The Open Source CFD Toolbox
   \\    /   O peration     | Website:  https://openfoam.org
    \\  /    A nd           | Version:  7
     \\/     M anipulation  |
\*---------------------------------------------------------------------------*/
FoamFile
{
    version     2.0;
    format      ascii;
    class       volScalarField;
    location    "1.1";
    object      k_0;
}
// * * * * * * * * * * * * * * * * * * * * * * * * * * * * * * * * * * * * * //

dimensions      [0 2 -2 0 0 0 0];

internalField   nonuniform List<scalar> 
7920
(
52.0409
56.5377
56.5794
56.6194
56.4845
56.451
56.3551
56.3698
56.3367
56.368
56.3427
56.3605
56.3399
56.3549
56.3496
56.3523
56.3676
56.3225
56.4487
56.5046
13.8477
14.0189
13.4444
12.8901
12.617
12.504
12.4063
12.376
12.3292
12.3206
12.2935
12.2907
12.2757
12.2743
12.2648
12.2623
12.2589
12.2486
12.4201
12.4146
8.09342
9.23347
9.35556
9.34182
9.30042
9.28578
9.25388
9.24418
9.22035
9.21319
9.19529
9.19073
9.17828
9.17565
9.16731
9.16571
9.16064
9.15865
9.16357
9.18946
7.4915
8.76522
9.02218
9.11642
9.14045
9.17144
9.17373
9.18556
9.18175
9.18563
9.17866
9.17962
9.17355
9.17525
9.17168
9.17449
9.17278
9.17617
9.17829
9.20434
7.4266
8.71173
8.98162
9.09237
9.12993
9.17541
9.18863
9.21667
9.22245
9.23897
9.2398
9.24908
9.24885
9.25699
9.25813
9.26684
9.26896
9.27723
9.28203
9.31022
7.43353
8.7083
8.9766
9.08897
9.13027
9.18076
9.19883
9.23377
9.24459
9.26838
9.2737
9.28913
9.29239
9.30545
9.30952
9.32249
9.32716
9.33854
9.34677
9.37478
7.43353
8.7083
8.9766
9.08897
9.13026
9.18076
9.19883
9.23378
9.24459
9.26838
9.27369
9.28914
9.29238
9.30547
9.30951
9.32253
9.32716
9.33861
9.34683
9.37485
7.42659
8.71173
8.98162
9.09237
9.12993
9.17542
9.18862
9.21668
9.22243
9.23899
9.23978
9.24912
9.24881
9.25709
9.25807
9.26699
9.2689
9.27745
9.28206
9.31052
7.49149
8.76522
9.02217
9.11643
9.14044
9.17146
9.17372
9.18558
9.18172
9.18568
9.17859
9.17972
9.17342
9.17547
9.17141
9.17495
9.17228
9.17729
9.17777
9.20506
8.09342
9.23347
9.35555
9.34182
9.30041
9.28579
9.25386
9.2442
9.2203
9.21325
9.19518
9.19087
9.17802
9.17599
9.1667
9.16656
9.15929
9.16121
9.16125
9.19292
13.8477
14.0189
13.4444
12.8901
12.617
12.504
12.4062
12.3761
12.3291
12.3207
12.2933
12.2909
12.2753
12.2749
12.2637
12.264
12.2558
12.2539
12.4092
12.427
52.0409
56.5377
56.5794
56.6195
56.4844
56.4511
56.355
56.37
56.3364
56.3686
56.3419
56.3618
56.3378
56.3583
56.3441
56.3613
56.3524
56.3481
56.4018
56.5839
7.67562
9.6787
9.76177
9.6293
9.5811
9.50129
9.49291
9.45276
9.45612
9.43095
9.43364
9.41356
9.41594
9.40064
9.40404
9.38957
9.39548
9.37365
9.38371
9.41601
6.0245
8.26153
8.60545
8.6491
8.64711
8.63925
8.62962
8.62482
8.62142
8.61998
8.61815
8.61598
8.61472
8.61252
8.61279
8.61032
8.61134
8.60694
8.61425
8.61749
5.70789
7.91865
8.27554
8.34928
8.35957
8.37251
8.37283
8.37833
8.37822
8.3822
8.38286
8.38702
8.38912
8.39356
8.39735
8.40087
8.40673
8.40831
8.41312
8.44662
5.69969
7.9097
8.26372
8.3348
8.33999
8.3474
8.34444
8.34642
8.3431
8.34298
8.33942
8.33929
8.33835
8.34003
8.34238
8.34554
8.35071
8.35338
8.36014
8.38457
5.68787
7.89427
8.24814
8.32128
8.32586
8.33302
8.32863
8.32993
8.32507
8.3236
8.31672
8.31432
8.30902
8.30874
8.30754
8.30905
8.31037
8.314
8.31798
8.34317
5.69423
7.9024
8.25539
8.3281
8.33248
8.33974
8.33535
8.3369
8.33208
8.33067
8.32329
8.32023
8.31339
8.31212
8.30923
8.30982
8.3097
8.31167
8.31441
8.33722
5.69423
7.90241
8.25539
8.3281
8.33248
8.33974
8.33535
8.3369
8.33207
8.33067
8.32329
8.32024
8.31338
8.31213
8.30922
8.30984
8.30969
8.31168
8.31442
8.33715
5.68787
7.89427
8.24814
8.32128
8.32585
8.33302
8.32862
8.32994
8.32505
8.32361
8.3167
8.31435
8.30898
8.30882
8.30746
8.30919
8.31026
8.31414
8.31782
8.34321
5.69969
7.9097
8.26371
8.33481
8.33998
8.34742
8.34443
8.34644
8.34306
8.34301
8.33937
8.33939
8.33824
8.34029
8.34194
8.34616
8.34976
8.35435
8.35952
8.38495
5.70788
7.91865
8.27553
8.34929
8.35956
8.37252
8.37282
8.37836
8.37818
8.38228
8.38279
8.38719
8.38889
8.394
8.39647
8.40219
8.40473
8.41094
8.41081
8.44877
6.0245
8.26153
8.60545
8.64911
8.64711
8.63926
8.6296
8.62486
8.62136
8.62007
8.618
8.61623
8.61432
8.61309
8.61204
8.61154
8.60925
8.61027
8.60857
8.62558
7.67562
9.6787
9.76177
9.62931
9.58109
9.50131
9.4929
9.4528
9.45607
9.43104
9.43352
9.41378
9.41562
9.4012
9.40321
9.39106
9.39318
9.37803
9.37696
9.4275
0.477244
1.03487
1.13087
1.10008
1.02407
0.95588
0.903322
0.866044
0.838847
0.817474
0.801739
0.787186
0.777044
0.766167
0.759127
0.750585
0.744655
0.739346
0.730441
0.737531
0.0859331
0.382768
0.52689
0.588656
0.61019
0.623621
0.630208
0.637657
0.641406
0.645557
0.647038
0.648813
0.648994
0.649448
0.649203
0.649111
0.648731
0.648204
0.647506
0.650392
0.0641808
0.300216
0.416821
0.475068
0.49326
0.506529
0.509478
0.515572
0.517692
0.522414
0.524782
0.529183
0.531854
0.535601
0.538467
0.541559
0.544546
0.547102
0.549057
0.553743
0.0680191
0.303839
0.418083
0.473895
0.491788
0.50287
0.504316
0.507025
0.506955
0.507645
0.507742
0.508482
0.509003
0.510056
0.5112
0.512149
0.513887
0.51486
0.516399
0.520022
0.0661741
0.299829
0.412923
0.468748
0.486236
0.497308
0.498536
0.500933
0.500478
0.500719
0.500154
0.500179
0.499888
0.499947
0.499982
0.500142
0.500603
0.500916
0.501438
0.503914
0.0672127
0.302068
0.415578
0.471171
0.488807
0.499781
0.501155
0.503502
0.503105
0.503295
0.502725
0.502645
0.502249
0.502186
0.502054
0.502041
0.5022
0.502298
0.502655
0.504867
0.0672126
0.302068
0.415578
0.471171
0.488807
0.499782
0.501155
0.503502
0.503105
0.503295
0.502725
0.502645
0.502249
0.502187
0.502054
0.502042
0.502199
0.502298
0.502653
0.504865
0.0661738
0.299829
0.412922
0.468748
0.486236
0.497308
0.498536
0.500933
0.500477
0.500719
0.500154
0.50018
0.499888
0.499949
0.499982
0.500141
0.5006
0.50091
0.501434
0.503903
0.0680187
0.303839
0.418082
0.473895
0.491787
0.50287
0.504315
0.507026
0.506954
0.507646
0.507742
0.508489
0.508996
0.510068
0.511167
0.512177
0.513842
0.514867
0.51638
0.519973
0.0641803
0.300217
0.41682
0.475069
0.493259
0.50653
0.509478
0.515573
0.517691
0.52242
0.524768
0.5292
0.531824
0.535633
0.538405
0.541613
0.544444
0.547126
0.54901
0.553636
0.0859328
0.382769
0.526889
0.588657
0.610188
0.623623
0.630204
0.637663
0.641397
0.64557
0.647016
0.648835
0.648981
0.649456
0.649145
0.64913
0.648606
0.648304
0.647319
0.650384
0.477244
1.03488
1.13087
1.10008
1.02407
0.955884
0.903319
0.866052
0.838839
0.817494
0.801721
0.787234
0.777007
0.766283
0.759047
0.750864
0.74449
0.739927
0.730279
0.738631
0.477244
1.03487
1.13087
1.10008
1.02407
0.95588
0.903322
0.866044
0.838847
0.817474
0.801739
0.787186
0.777044
0.766167
0.759127
0.750585
0.744655
0.739346
0.730441
0.737531
0.0859331
0.382768
0.52689
0.588656
0.61019
0.623621
0.630208
0.637657
0.641407
0.645558
0.647038
0.648813
0.648994
0.649448
0.649203
0.64911
0.648731
0.648204
0.647506
0.650392
0.0641808
0.300216
0.416821
0.475068
0.493261
0.506529
0.509478
0.515572
0.517692
0.522414
0.524782
0.529183
0.531854
0.535601
0.538468
0.541559
0.544546
0.547102
0.549057
0.553743
0.0680191
0.303839
0.418083
0.473895
0.491788
0.50287
0.504316
0.507025
0.506955
0.507645
0.507742
0.508482
0.509003
0.510056
0.5112
0.512149
0.513887
0.51486
0.516399
0.520022
0.0661741
0.299829
0.412923
0.468748
0.486236
0.497308
0.498536
0.500933
0.500478
0.500719
0.500154
0.500179
0.499888
0.499947
0.499982
0.500142
0.500603
0.500916
0.501438
0.503914
0.0672127
0.302068
0.415578
0.471171
0.488807
0.499782
0.501155
0.503503
0.503105
0.503295
0.502726
0.502645
0.50225
0.502187
0.502054
0.502042
0.5022
0.502298
0.502655
0.504867
0.0672126
0.302069
0.415578
0.471171
0.488807
0.499782
0.501155
0.503503
0.503105
0.503295
0.502725
0.502645
0.502249
0.502187
0.502055
0.502042
0.502199
0.502298
0.502653
0.504866
0.0661739
0.299829
0.412922
0.468748
0.486236
0.497309
0.498536
0.500933
0.500478
0.500719
0.500154
0.50018
0.499888
0.499949
0.499982
0.500141
0.5006
0.50091
0.501434
0.503903
0.0680187
0.303839
0.418082
0.473895
0.491787
0.50287
0.504316
0.507026
0.506954
0.507646
0.507742
0.508489
0.508996
0.510068
0.511167
0.512177
0.513843
0.514867
0.51638
0.519973
0.0641804
0.300217
0.41682
0.475069
0.493259
0.50653
0.509478
0.515574
0.517691
0.52242
0.524768
0.5292
0.531825
0.535633
0.538405
0.541613
0.544444
0.547126
0.549011
0.553637
0.0859328
0.382769
0.526889
0.588657
0.610188
0.623623
0.630204
0.637663
0.641397
0.64557
0.647016
0.648835
0.648981
0.649456
0.649145
0.64913
0.648606
0.648305
0.647319
0.650384
0.477244
1.03488
1.13087
1.10008
1.02407
0.955884
0.903319
0.866052
0.838839
0.817494
0.801722
0.787235
0.777007
0.766283
0.759047
0.750864
0.74449
0.739927
0.730279
0.738631
7.67562
9.6787
9.76177
9.6293
9.5811
9.5013
9.49292
9.45276
9.45612
9.43095
9.43364
9.41356
9.41594
9.40064
9.40404
9.38957
9.39548
9.37365
9.38372
9.41601
6.0245
8.26153
8.60545
8.6491
8.64712
8.63925
8.62962
8.62482
8.62142
8.61998
8.61815
8.61598
8.61471
8.61251
8.61279
8.61032
8.61133
8.60694
8.61425
8.61749
5.70789
7.91865
8.27554
8.34928
8.35957
8.37251
8.37283
8.37833
8.37822
8.3822
8.38287
8.38702
8.38912
8.39356
8.39735
8.40087
8.40673
8.40831
8.41312
8.44661
5.69969
7.9097
8.26372
8.3348
8.33999
8.3474
8.34444
8.34642
8.3431
8.34298
8.33942
8.33929
8.33835
8.34003
8.34238
8.34554
8.35071
8.35338
8.36013
8.38456
5.68787
7.89427
8.24814
8.32128
8.32586
8.33302
8.32863
8.32993
8.32507
8.3236
8.31672
8.31432
8.30902
8.30874
8.30754
8.30905
8.31037
8.314
8.31798
8.34316
5.69423
7.9024
8.25539
8.3281
8.33248
8.33974
8.33535
8.3369
8.33208
8.33067
8.32329
8.32023
8.31339
8.31212
8.30923
8.30982
8.3097
8.31167
8.31441
8.33722
5.69423
7.90241
8.25539
8.3281
8.33248
8.33974
8.33535
8.3369
8.33207
8.33067
8.32329
8.32024
8.31338
8.31213
8.30922
8.30984
8.30969
8.31168
8.31442
8.33715
5.68787
7.89427
8.24814
8.32128
8.32585
8.33302
8.32862
8.32994
8.32505
8.32361
8.3167
8.31435
8.30898
8.30881
8.30746
8.30919
8.31026
8.31414
8.31782
8.34321
5.69969
7.9097
8.26371
8.33481
8.33998
8.34742
8.34443
8.34644
8.34306
8.34301
8.33937
8.33939
8.33824
8.34029
8.34194
8.34616
8.34976
8.35435
8.35952
8.38496
5.70788
7.91865
8.27553
8.34929
8.35956
8.37252
8.37282
8.37836
8.37818
8.38227
8.38278
8.38719
8.38889
8.394
8.39647
8.40219
8.40473
8.41094
8.41081
8.44877
6.0245
8.26153
8.60545
8.64911
8.64711
8.63926
8.62959
8.62486
8.62136
8.62006
8.618
8.61623
8.61432
8.61309
8.61204
8.61155
8.60925
8.61027
8.60857
8.62558
7.67562
9.6787
9.76177
9.62931
9.58109
9.50131
9.49289
9.45279
9.45607
9.43104
9.43352
9.41378
9.41563
9.4012
9.40322
9.39106
9.39318
9.37803
9.37696
9.4275
52.0409
56.5377
56.5794
56.6194
56.4845
56.451
56.3551
56.3698
56.3367
56.368
56.3427
56.3605
56.3399
56.3549
56.3496
56.3523
56.3676
56.3225
56.4487
56.5046
13.8477
14.0189
13.4444
12.8901
12.617
12.504
12.4063
12.376
12.3292
12.3206
12.2935
12.2907
12.2757
12.2743
12.2648
12.2623
12.2589
12.2486
12.4201
12.4146
8.09342
9.23347
9.35556
9.34182
9.30042
9.28578
9.25388
9.24418
9.22035
9.21319
9.1953
9.19073
9.17828
9.17565
9.16731
9.16571
9.16064
9.15864
9.16357
9.18946
7.4915
8.76522
9.02218
9.11642
9.14045
9.17144
9.17373
9.18556
9.18175
9.18563
9.17866
9.17962
9.17356
9.17525
9.17168
9.17449
9.17278
9.17617
9.17829
9.20434
7.4266
8.71173
8.98162
9.09237
9.12993
9.17541
9.18863
9.21667
9.22245
9.23897
9.2398
9.24908
9.24885
9.25699
9.25813
9.26684
9.26896
9.27722
9.28203
9.31022
7.43353
8.7083
8.9766
9.08897
9.13027
9.18076
9.19883
9.23377
9.24459
9.26837
9.2737
9.28913
9.29239
9.30545
9.30952
9.32249
9.32716
9.33854
9.34677
9.37477
7.43353
8.7083
8.9766
9.08897
9.13026
9.18076
9.19883
9.23378
9.24459
9.26838
9.27369
9.28914
9.29238
9.30547
9.30951
9.32253
9.32716
9.33861
9.34683
9.37485
7.42659
8.71173
8.98162
9.09237
9.12993
9.17542
9.18862
9.21668
9.22243
9.23899
9.23978
9.24912
9.2488
9.25708
9.25807
9.26699
9.26889
9.27745
9.28206
9.31053
7.49149
8.76522
9.02217
9.11643
9.14044
9.17146
9.17372
9.18558
9.18172
9.18568
9.17859
9.17972
9.17342
9.17547
9.17141
9.17495
9.17228
9.17729
9.17777
9.20506
8.09342
9.23347
9.35555
9.34182
9.30041
9.28579
9.25386
9.2442
9.2203
9.21325
9.19518
9.19087
9.17802
9.17599
9.1667
9.16656
9.1593
9.16122
9.16126
9.19292
13.8477
14.0189
13.4444
12.8901
12.617
12.504
12.4062
12.3761
12.3291
12.3207
12.2933
12.2909
12.2753
12.2749
12.2637
12.264
12.2559
12.2539
12.4092
12.427
52.0409
56.5377
56.5794
56.6195
56.4844
56.4511
56.3549
56.37
56.3364
56.3685
56.3419
56.3618
56.3378
56.3583
56.3441
56.3614
56.3524
56.3481
56.4018
56.5839
144.222
146.291
147.259
148.111
148.823
149.492
150.007
150.465
150.831
151.186
151.483
151.756
151.958
152.123
152.225
152.302
152.339
152.369
152.376
152.386
152.383
152.386
152.38
152.381
152.375
152.375
152.369
152.368
152.362
152.361
152.356
152.354
152.349
152.347
152.342
152.34
152.335
152.333
152.328
152.325
152.32
152.318
152.313
152.31
152.305
152.303
152.298
152.295
152.29
152.287
152.282
152.279
152.274
152.271
152.266
152.263
152.258
152.255
152.25
152.247
152.242
152.239
152.234
152.231
152.227
152.223
152.219
152.215
152.211
152.208
152.204
152.2
152.196
152.193
152.189
152.186
152.182
152.179
152.176
152.173
152.17
152.166
152.165
152.159
152.161
152.152
152.153
152.15
152.114
152.105
47.3017
49.0179
49.3122
49.595
49.801
50.0286
50.1776
50.3348
50.4368
50.5583
50.6404
50.735
50.7886
50.8467
50.8683
50.896
50.8968
50.9075
50.8993
50.9027
50.8915
50.8922
50.8808
50.8805
50.8694
50.8686
50.858
50.8568
50.8467
50.8453
50.8356
50.8339
50.8246
50.8227
50.8137
50.8116
50.803
50.8007
50.7924
50.79
50.7819
50.7794
50.7716
50.7689
50.7615
50.7587
50.7515
50.7487
50.7417
50.7388
50.7321
50.7292
50.7227
50.7198
50.7136
50.7107
50.7048
50.7019
50.6962
50.6935
50.688
50.6853
50.6801
50.6775
50.6726
50.6701
50.6655
50.6632
50.6588
50.6566
50.6526
50.6506
50.6469
50.6451
50.6417
50.6402
50.6371
50.6358
50.6332
50.6319
50.6299
50.6285
50.6273
50.6254
50.6252
50.623
50.6224
50.6224
50.6044
50.5993
30.4945
32.4593
32.6199
32.7825
32.8732
33.0227
33.0971
33.2027
33.2444
33.3221
33.3555
33.4211
33.444
33.4887
33.4931
33.5149
33.5053
33.5133
33.4968
33.4985
33.48
33.4791
33.4607
33.4589
33.4412
33.439
33.4222
33.4196
33.4036
33.4008
33.3855
33.3825
33.3679
33.3646
33.3507
33.3472
33.3338
33.3303
33.3175
33.3138
33.3015
33.2978
33.286
33.2822
33.2709
33.2671
33.2563
33.2524
33.2421
33.2383
33.2284
33.2247
33.2152
33.2116
33.2026
33.199
33.1905
33.1871
33.179
33.1757
33.1681
33.165
33.1578
33.1549
33.1482
33.1455
33.1393
33.1368
33.131
33.1288
33.1235
33.1216
33.1168
33.1151
33.1108
33.1095
33.1057
33.1047
33.1014
33.1006
33.098
33.0974
33.0955
33.0948
33.0937
33.0932
33.092
33.0929
33.0869
33.0723
28.2528
30.6261
30.7721
30.8901
30.9365
31.0654
31.1224
31.2199
31.2423
31.306
31.3242
31.3845
31.4026
31.4505
31.4539
31.479
31.4675
31.4771
31.4571
31.4588
31.4361
31.4345
31.4116
31.409
31.387
31.3839
31.3629
31.3595
31.3396
31.3359
31.3169
31.313
31.2949
31.2908
31.2734
31.2692
31.2526
31.2482
31.2323
31.2278
31.2126
31.208
31.1934
31.1888
31.1748
31.1702
31.1568
31.1522
31.1394
31.1348
31.1226
31.1181
31.1065
31.1021
31.091
31.0868
31.0763
31.0722
31.0622
31.0583
31.0489
31.0453
31.0364
31.033
31.0247
31.0216
31.0139
31.011
31.0039
31.0013
30.9948
30.9926
30.9867
30.9849
30.9797
30.9782
30.9736
30.9726
30.9687
30.9681
30.9649
30.9646
30.9623
30.9622
30.9606
30.9611
30.9597
30.9612
30.9601
30.9412
28.0758
30.7058
30.8549
30.9452
30.9575
31.0668
31.1122
31.205
31.2142
31.267
31.2743
31.3302
31.3461
31.3977
31.4022
31.4316
31.4203
31.4319
31.4105
31.4127
31.3877
31.3859
31.3604
31.3574
31.3327
31.3292
31.3057
31.3019
31.2796
31.2754
31.2541
31.2498
31.2294
31.2249
31.2054
31.2007
31.1821
31.1772
31.1594
31.1544
31.1373
31.1322
31.1158
31.1107
31.0949
31.0898
31.0747
31.0696
31.0552
31.0501
31.0363
31.0313
31.0182
31.0133
31.0008
30.9961
30.9842
30.9796
30.9684
30.9641
30.9534
30.9493
30.9394
30.9355
30.9262
30.9227
30.914
30.9108
30.9028
30.8999
30.8926
30.8902
30.8836
30.8816
30.8757
30.8742
30.8691
30.868
30.8637
30.8632
30.8597
30.8596
30.857
30.8573
30.8555
30.8565
30.8551
30.8569
30.8569
30.837
28.151
30.9415
31.0932
31.1604
31.1461
31.2346
31.2673
31.3493
31.3475
31.3896
31.3876
31.4375
31.451
31.5032
31.5082
31.5397
31.5287
31.5414
31.5195
31.522
31.4959
31.4941
31.4674
31.4641
31.4382
31.4344
31.4098
31.4057
31.3822
31.3779
31.3555
31.3509
31.3296
31.3248
31.3044
31.2995
31.2799
31.2748
31.2561
31.2509
31.2329
31.2276
31.2103
31.205
31.1885
31.1831
31.1673
31.1619
31.1467
31.1414
31.1269
31.1217
31.1079
31.1028
31.0896
31.0847
31.0722
31.0674
31.0556
31.051
31.0398
31.0356
31.0251
31.0211
31.0112
31.0076
30.9984
30.9951
30.9867
30.9838
30.9761
30.9736
30.9667
30.9646
30.9585
30.957
30.9517
30.9507
30.9462
30.9457
30.9421
30.9422
30.9395
30.9401
30.9382
30.9395
30.9384
30.9401
30.9415
30.9197
28.1522
30.9313
31.0639
31.1095
31.0767
31.1482
31.1657
31.2322
31.2207
31.2541
31.2457
31.2909
31.3015
31.3514
31.3557
31.3864
31.3752
31.3877
31.3658
31.3683
31.3423
31.3404
31.3137
31.3104
31.2846
31.2808
31.2563
31.2522
31.2288
31.2245
31.2022
31.1976
31.1763
31.1716
31.1512
31.1463
31.1268
31.1217
31.103
31.0978
31.0799
31.0746
31.0575
31.0521
31.0357
31.0303
31.0145
31.0092
30.9941
30.9888
30.9743
30.9691
30.9554
30.9503
30.9372
30.9322
30.9198
30.915
30.9032
30.8987
30.8876
30.8833
30.8729
30.8689
30.8591
30.8555
30.8464
30.8431
30.8347
30.8318
30.8241
30.8217
30.8147
30.8128
30.8066
30.8051
30.7998
30.7989
30.7944
30.794
30.7904
30.7905
30.7877
30.7885
30.7865
30.7879
30.7867
30.7884
30.79
30.7685
28.0788
30.6636
30.7493
30.7734
30.7304
30.7873
30.7899
30.8395
30.8211
30.8492
30.8393
30.8816
30.8901
30.9357
30.9378
30.9653
30.9533
30.9644
30.943
30.9451
30.9201
30.9184
30.893
30.89
30.8655
30.862
30.8387
30.8348
30.8127
30.8086
30.7875
30.7831
30.763
30.7585
30.7392
30.7345
30.716
30.7112
30.6935
30.6886
30.6716
30.6667
30.6504
30.6453
30.6298
30.6247
30.6098
30.6047
30.5904
30.5854
30.5718
30.5669
30.5538
30.549
30.5366
30.532
30.5202
30.5157
30.5046
30.5003
30.4898
30.4858
30.4759
30.4721
30.4629
30.4594
30.4508
30.4477
30.4398
30.437
30.4298
30.4274
30.4209
30.419
30.4132
30.4117
30.4066
30.4057
30.4014
30.4009
30.3974
30.3975
30.3947
30.3953
30.3933
30.3945
30.3932
30.3947
30.3955
30.3765
28.2331
30.4957
30.5244
30.533
30.4901
30.5339
30.5249
30.5597
30.5392
30.5655
30.5594
30.6001
30.6082
30.6482
30.6483
30.671
30.6587
30.6676
30.6475
30.649
30.6264
30.6248
30.6021
30.5995
30.5777
30.5746
30.5539
30.5505
30.5308
30.5271
30.5084
30.5045
30.4866
30.4826
30.4654
30.4613
30.4449
30.4406
30.4249
30.4205
30.4054
30.401
30.3866
30.3821
30.3683
30.3637
30.3505
30.346
30.3334
30.329
30.3169
30.3125
30.301
30.2968
30.2859
30.2817
30.2714
30.2674
30.2576
30.2538
30.2445
30.241
30.2323
30.2289
30.2208
30.2177
30.2102
30.2074
30.2004
30.1979
30.1915
30.1894
30.1836
30.1819
30.1767
30.1754
30.1709
30.17
30.1661
30.1656
30.1624
30.1623
30.1597
30.1602
30.1582
30.1591
30.1576
30.1588
30.1586
30.141
30.3787
32.1157
32.0922
32.0986
32.0642
32.1002
32.0856
32.1125
32.098
32.1288
32.1332
32.1759
32.1872
32.2231
32.2237
32.2426
32.232
32.2393
32.2226
32.224
32.2056
32.2046
32.1863
32.1845
32.167
32.1647
32.1481
32.1455
32.1297
32.1269
32.1118
32.1088
32.0944
32.0912
32.0774
32.0741
32.0609
32.0574
32.0448
32.0412
32.0291
32.0254
32.0138
32.0101
31.999
31.9953
31.9847
31.981
31.9708
31.9671
31.9574
31.9538
31.9445
31.941
31.9322
31.9287
31.9204
31.9171
31.9091
31.906
31.8985
31.8955
31.8885
31.8857
31.8791
31.8766
31.8704
31.8681
31.8624
31.8603
31.8551
31.8533
31.8486
31.8471
31.8428
31.8416
31.8379
31.837
31.8338
31.8332
31.8305
31.8302
31.8279
31.828
31.8261
31.8265
31.8249
31.8257
31.8215
31.8081
46.8543
48.0829
48.0418
48.058
48.0466
48.0879
48.0848
48.1167
48.1249
48.1758
48.211
48.2738
48.3083
48.3545
48.3697
48.3935
48.3926
48.402
48.3933
48.3962
48.385
48.3855
48.374
48.3736
48.3625
48.3616
48.3511
48.3499
48.3399
48.3384
48.3288
48.3271
48.3179
48.316
48.3072
48.3051
48.2966
48.2943
48.2862
48.2838
48.2759
48.2734
48.2658
48.2632
48.2558
48.2532
48.2461
48.2433
48.2365
48.2337
48.2271
48.2244
48.218
48.2153
48.2092
48.2064
48.2006
48.1979
48.1923
48.1897
48.1843
48.1818
48.1767
48.1742
48.1694
48.1671
48.1626
48.1604
48.1562
48.1541
48.1502
48.1484
48.1447
48.1431
48.1398
48.1384
48.1355
48.1342
48.1317
48.1306
48.1285
48.1276
48.1257
48.1252
48.1234
48.1231
48.1212
48.1215
48.1056
48.1009
142.419
142.973
142.915
142.959
143.007
143.113
143.163
143.245
143.325
143.471
143.624
143.803
143.947
144.077
144.159
144.224
144.255
144.281
144.287
144.295
144.292
144.294
144.288
144.288
144.282
144.282
144.276
144.275
144.269
144.268
144.262
144.261
144.256
144.254
144.249
144.247
144.242
144.24
144.235
144.232
144.227
144.225
144.22
144.218
144.213
144.21
144.205
144.203
144.198
144.195
144.19
144.188
144.183
144.18
144.175
144.172
144.168
144.165
144.16
144.157
144.153
144.15
144.145
144.142
144.138
144.135
144.13
144.127
144.123
144.12
144.116
144.113
144.109
144.106
144.102
144.099
144.096
144.093
144.09
144.087
144.084
144.081
144.079
144.076
144.073
144.071
144.067
144.065
144.035
144.027
30.1924
30.9288
31.1366
31.3023
31.4507
31.5801
31.6825
31.7718
31.8435
31.9143
31.9702
32.0238
32.0584
32.0894
32.103
32.1166
32.1174
32.122
32.1173
32.1182
32.1118
32.1116
32.1048
32.1042
32.0977
32.0969
32.0906
32.0898
32.0837
32.0827
32.0768
32.0757
32.0701
32.0689
32.0634
32.0621
32.0568
32.0553
32.0502
32.0487
32.0437
32.0421
32.0373
32.0356
32.0309
32.0291
32.0246
32.0227
32.0183
32.0164
32.0121
32.0101
32.006
32.004
32
31.998
31.9941
31.9921
31.9883
31.9863
31.9827
31.9807
31.9772
31.9753
31.9719
31.97
31.9668
31.965
31.9619
31.9602
31.9573
31.9556
31.953
31.9514
31.949
31.9476
31.9454
31.9441
31.9423
31.9411
31.9397
31.9385
31.9379
31.9364
31.9367
31.9352
31.9358
31.936
31.9323
31.9336
28.091
29.367
29.5681
29.7278
29.8661
29.9953
30.0949
30.1833
30.2517
30.3202
30.375
30.4287
30.4651
30.4976
30.5137
30.5285
30.5313
30.5364
30.5333
30.5342
30.5291
30.5286
30.523
30.5221
30.5166
30.5156
30.5103
30.5091
30.504
30.5028
30.4979
30.4967
30.492
30.4907
30.4861
30.4848
30.4805
30.4791
30.4749
30.4736
30.4696
30.4682
30.4644
30.463
30.4593
30.458
30.4545
30.4531
30.4498
30.4485
30.4454
30.4441
30.4411
30.4399
30.4371
30.4359
30.4332
30.4321
30.4296
30.4286
30.4263
30.4253
30.4232
30.4223
30.4203
30.4195
30.4176
30.417
30.4153
30.4147
30.4131
30.4126
30.4113
30.4109
30.4096
30.4093
30.4083
30.4081
30.4072
30.407
30.4064
30.4061
30.4059
30.4053
30.4056
30.4049
30.405
30.4055
30.404
30.4064
25.9212
27.7073
27.9169
28.0505
28.1736
28.2957
28.3959
28.4801
28.5453
28.6071
28.6614
28.715
28.7576
28.7943
28.8179
28.8363
28.845
28.852
28.8529
28.8548
28.8529
28.8528
28.8501
28.8495
28.8466
28.846
28.8432
28.8425
28.8399
28.8392
28.8366
28.8359
28.8335
28.8328
28.8304
28.8297
28.8275
28.8268
28.8247
28.8241
28.8221
28.8214
28.8195
28.8189
28.8171
28.8165
28.8148
28.8142
28.8126
28.8121
28.8106
28.8101
28.8087
28.8083
28.807
28.8066
28.8054
28.805
28.8039
28.8036
28.8026
28.8023
28.8014
28.8012
28.8004
28.8002
28.7995
28.7993
28.7987
28.7986
28.798
28.798
28.7975
28.7975
28.7971
28.7971
28.7968
28.7968
28.7966
28.7966
28.7965
28.7964
28.7965
28.7962
28.7965
28.7962
28.796
28.7965
28.7944
28.7805
25.2002
27.2522
27.4507
27.5471
27.6448
27.757
27.8562
27.9386
27.9995
28.0548
28.1066
28.1608
28.2093
28.2524
28.2839
28.3078
28.3221
28.3322
28.3366
28.3399
28.3401
28.3407
28.3397
28.3396
28.3382
28.3379
28.3365
28.3362
28.3349
28.3345
28.3332
28.3329
28.3317
28.3313
28.3301
28.3298
28.3287
28.3283
28.3273
28.3269
28.3259
28.3256
28.3246
28.3243
28.3234
28.3231
28.3222
28.3219
28.3211
28.3208
28.3201
28.3198
28.3191
28.3189
28.3182
28.318
28.3174
28.3172
28.3166
28.3165
28.316
28.3159
28.3154
28.3153
28.3149
28.3148
28.3144
28.3144
28.3141
28.314
28.3138
28.3138
28.3135
28.3135
28.3133
28.3134
28.3132
28.3133
28.3132
28.3132
28.3132
28.3131
28.3133
28.313
28.3133
28.3131
28.3128
28.3133
28.3122
28.3033
24.7534
26.9837
27.1645
27.2218
27.2867
27.3812
27.4724
27.549
27.6017
27.648
27.6932
27.7448
27.7949
27.8415
27.8778
27.9058
27.9236
27.9359
27.9421
27.9462
27.9472
27.9481
27.9473
27.9472
27.946
27.9457
27.9444
27.9441
27.9429
27.9425
27.9413
27.941
27.9398
27.9395
27.9384
27.938
27.937
27.9366
27.9356
27.9353
27.9343
27.934
27.933
27.9327
27.9318
27.9315
27.9307
27.9304
27.9296
27.9293
27.9285
27.9282
27.9275
27.9273
27.9266
27.9264
27.9258
27.9255
27.925
27.9248
27.9242
27.9241
27.9236
27.9234
27.923
27.9229
27.9225
27.9224
27.922
27.9219
27.9216
27.9216
27.9213
27.9213
27.921
27.921
27.9208
27.9208
27.9207
27.9206
27.9206
27.9205
27.9205
27.9204
27.9204
27.9203
27.9198
27.9201
27.9189
27.9021
24.6595
26.9424
27.0996
27.1218
27.1569
27.2307
27.3095
27.3758
27.4189
27.4554
27.4931
27.5402
27.5891
27.637
27.6751
27.7054
27.7249
27.7386
27.7455
27.7503
27.7514
27.7525
27.7517
27.7517
27.7504
27.7501
27.7487
27.7483
27.747
27.7466
27.7453
27.7449
27.7436
27.7432
27.742
27.7416
27.7404
27.74
27.7389
27.7384
27.7373
27.7369
27.7359
27.7354
27.7344
27.734
27.7331
27.7327
27.7318
27.7314
27.7305
27.7301
27.7293
27.729
27.7282
27.7279
27.7271
27.7268
27.7261
27.7258
27.7252
27.7249
27.7244
27.7241
27.7236
27.7234
27.7229
27.7227
27.7222
27.7221
27.7217
27.7215
27.7212
27.7211
27.7207
27.7207
27.7204
27.7203
27.7201
27.72
27.7199
27.7198
27.7197
27.7196
27.7194
27.7194
27.7189
27.7193
27.7182
27.7036
24.6595
26.9304
27.0686
27.0709
27.0868
27.143
27.208
27.2615
27.2942
27.3225
27.3542
27.397
27.4429
27.489
27.526
27.5556
27.5747
27.5882
27.595
27.5997
27.6008
27.6019
27.6011
27.601
27.5997
27.5994
27.598
27.5976
27.5963
27.5959
27.5946
27.5941
27.5929
27.5924
27.5912
27.5908
27.5896
27.5892
27.588
27.5876
27.5865
27.5861
27.585
27.5846
27.5836
27.5832
27.5822
27.5818
27.5809
27.5805
27.5797
27.5793
27.5785
27.5781
27.5773
27.577
27.5762
27.5759
27.5752
27.575
27.5743
27.5741
27.5735
27.5732
27.5727
27.5725
27.572
27.5718
27.5713
27.5712
27.5708
27.5706
27.5703
27.5702
27.5698
27.5697
27.5695
27.5694
27.5692
27.5691
27.5689
27.5689
27.5687
27.5687
27.5685
27.5685
27.5681
27.5683
27.5673
27.5529
24.7525
26.9384
27.0593
27.0565
27.0662
27.111
27.1612
27.2016
27.2253
27.2489
27.2773
27.3171
27.3594
27.4012
27.4346
27.4608
27.4777
27.4894
27.4953
27.4993
27.5001
27.501
27.5001
27.5
27.4988
27.4984
27.4971
27.4968
27.4955
27.4951
27.494
27.4936
27.4924
27.4921
27.491
27.4906
27.4895
27.4892
27.4882
27.4878
27.4868
27.4865
27.4856
27.4852
27.4843
27.484
27.4832
27.4828
27.4821
27.4818
27.481
27.4807
27.48
27.4797
27.4791
27.4788
27.4782
27.478
27.4774
27.4772
27.4767
27.4765
27.476
27.4759
27.4754
27.4753
27.4749
27.4748
27.4744
27.4744
27.4741
27.474
27.4737
27.4737
27.4735
27.4734
27.4733
27.4732
27.4731
27.4731
27.473
27.473
27.4729
27.473
27.4727
27.4728
27.4724
27.4725
27.4718
27.4556
25.1782
27.1253
27.2124
27.2093
27.2194
27.2551
27.29
27.3175
27.3349
27.3566
27.3843
27.4217
27.4593
27.4956
27.5231
27.5448
27.5578
27.5672
27.5712
27.5742
27.5743
27.5749
27.5738
27.5736
27.5722
27.5719
27.5705
27.5702
27.5688
27.5685
27.5671
27.5668
27.5656
27.5652
27.564
27.5637
27.5626
27.5622
27.5611
27.5608
27.5598
27.5595
27.5585
27.5582
27.5573
27.557
27.5561
27.5558
27.555
27.5548
27.554
27.5538
27.5531
27.5528
27.5522
27.552
27.5514
27.5512
27.5507
27.5505
27.55
27.5499
27.5494
27.5493
27.5489
27.5488
27.5485
27.5484
27.5481
27.5481
27.5478
27.5478
27.5476
27.5476
27.5474
27.5475
27.5473
27.5474
27.5473
27.5473
27.5472
27.5473
27.5472
27.5474
27.5472
27.5474
27.547
27.5472
27.5465
27.5384
25.8351
27.4278
27.4771
27.4777
27.4883
27.5143
27.5341
27.5518
27.5653
27.5881
27.6153
27.6503
27.6814
27.7109
27.7305
27.7465
27.754
27.7603
27.7609
27.7625
27.7605
27.7604
27.7577
27.7571
27.7542
27.7536
27.7508
27.7501
27.7475
27.7468
27.7443
27.7436
27.7412
27.7405
27.7382
27.7376
27.7354
27.7347
27.7327
27.732
27.7301
27.7294
27.7276
27.727
27.7253
27.7247
27.723
27.7225
27.721
27.7205
27.719
27.7186
27.7172
27.7168
27.7155
27.7152
27.714
27.7137
27.7126
27.7123
27.7113
27.7111
27.7102
27.71
27.7092
27.7091
27.7084
27.7083
27.7076
27.7076
27.707
27.707
27.7065
27.7066
27.7062
27.7062
27.7059
27.706
27.7057
27.7059
27.7056
27.7058
27.7056
27.7059
27.7055
27.7059
27.7053
27.7057
27.7052
27.6921
27.8532
28.8438
28.8432
28.8438
28.8511
28.8693
28.877
28.8907
28.9023
28.929
28.9553
28.9902
29.0149
29.0404
29.0526
29.0652
29.067
29.0713
29.068
29.0686
29.0635
29.0629
29.0574
29.0565
29.051
29.05
29.0448
29.0437
29.0386
29.0375
29.0326
29.0314
29.0268
29.0255
29.0211
29.0198
29.0155
29.0142
29.0102
29.0088
29.0049
29.0036
28.9999
28.9986
28.995
28.9937
28.9903
28.9891
28.9858
28.9846
28.9815
28.9803
28.9774
28.9763
28.9736
28.9725
28.9699
28.9689
28.9664
28.9655
28.9632
28.9623
28.9602
28.9594
28.9575
28.9568
28.955
28.9544
28.9528
28.9522
28.9508
28.9503
28.949
28.9487
28.9475
28.9473
28.9462
28.9461
28.9452
28.9451
28.9444
28.9444
28.9438
28.944
28.9434
28.9438
28.9431
28.9439
28.9434
28.9461
29.7791
30.1834
30.1724
30.1676
30.1754
30.1866
30.1911
30.2019
30.2141
30.2419
30.2686
30.3031
30.326
30.35
30.3598
30.3712
30.3709
30.3748
30.3699
30.3706
30.3642
30.3639
30.3572
30.3566
30.3501
30.3493
30.343
30.3422
30.3362
30.3352
30.3294
30.3283
30.3228
30.3216
30.3162
30.3149
30.3097
30.3083
30.3033
30.3018
30.2969
30.2954
30.2906
30.289
30.2844
30.2827
30.2783
30.2765
30.2722
30.2703
30.2661
30.2643
30.2602
30.2583
30.2544
30.2525
30.2487
30.2467
30.2431
30.2412
30.2376
30.2357
30.2323
30.2305
30.2272
30.2254
30.2223
30.2206
30.2176
30.216
30.2132
30.2116
30.209
30.2076
30.2052
30.2039
30.2018
30.2006
30.1988
30.1978
30.1963
30.1955
30.1943
30.1938
30.1929
30.1929
30.1924
30.1929
30.1899
30.1911
3.59271
3.77448
3.78814
3.79339
3.80578
3.81558
3.82399
3.83324
3.83781
3.84646
3.84783
3.85449
3.8523
3.85643
3.8513
3.85353
3.8467
3.84786
3.84027
3.84084
3.833
3.83321
3.82536
3.82528
3.81753
3.81719
3.8096
3.80904
3.80165
3.80089
3.79373
3.79279
3.78587
3.78477
3.7781
3.77687
3.77046
3.76912
3.76297
3.76154
3.75565
3.75415
3.7485
3.74696
3.74156
3.73998
3.73483
3.73323
3.72833
3.72673
3.72206
3.72048
3.71605
3.7145