/*--------------------------------*- C++ -*----------------------------------*\
  =========                 |
  \\      /  F ield         | OpenFOAM: The Open Source CFD Toolbox
   \\    /   O peration     | Website:  https://openfoam.org
    \\  /    A nd           | Version:  7
     \\/     M anipulation  |
\*---------------------------------------------------------------------------*/
FoamFile
{
    version     2.0;
    format      ascii;
    class       volVectorField;
    location    "3.3";
    object      U_0;
}
// * * * * * * * * * * * * * * * * * * * * * * * * * * * * * * * * * * * * * //

dimensions      [0 1 -1 0 0 0 0];

internalField   nonuniform List<vector> 
4800
(
(4.495 0.0180771 0)
(4.47023 0.0513717 0)
(4.41813 0.0816964 0)
(4.34093 0.106636 0)
(4.2436 0.125962 0)
(4.13146 0.139555 0)
(4.00838 0.14749 0)
(3.87806 0.150445 0)
(3.7431 0.149234 0)
(3.60672 0.144894 0)
(3.47054 0.138229 0)
(3.33692 0.12984 0)
(3.20692 0.120652 0)
(3.08127 0.110988 0)
(2.96098 0.101099 0)
(2.84651 0.0913639 0)
(2.73814 0.0819876 0)
(2.63603 0.0731006 0)
(2.54022 0.0647782 0)
(2.45068 0.0570577 0)
(2.36728 0.0499494 0)
(2.28985 0.0434466 0)
(2.21816 0.0375302 0)
(2.15196 0.0321752 0)
(2.09098 0.0273509 0)
(2.03494 0.0230237 0)
(1.98352 0.0191585 0)
(1.93644 0.0157208 0)
(1.89338 0.0126771 0)
(1.85404 0.00999582 0)
(1.81814 0.00764568 0)
(1.7854 0.00559702 0)
(1.75555 0.00382144 0)
(1.72835 0.002291 0)
(1.70355 0.000978774 0)
(1.68095 -0.000135948 0)
(1.66033 -0.00107161 0)
(1.6415 -0.00184788 0)
(1.62428 -0.00248713 0)
(1.60852 -0.00301331 0)
(1.59407 -0.00344725 0)
(1.58078 -0.0038031 0)
(1.56853 -0.00409122 0)
(1.55721 -0.00432057 0)
(1.54672 -0.00450048 0)
(1.53698 -0.00463658 0)
(1.52788 -0.00473604 0)
(1.51937 -0.00478686 0)
(1.5114 -0.00478399 0)
(1.50391 -0.00472796 0)
(1.49685 -0.00464615 0)
(1.49015 -0.00454662 0)
(1.4838 -0.00441688 0)
(1.47778 -0.00427794 0)
(1.472 -0.00413864 0)
(1.46646 -0.00397624 0)
(1.46115 -0.00380702 0)
(1.45603 -0.00363477 0)
(1.45108 -0.00345749 0)
(1.44628 -0.00327421 0)
(1.44162 -0.00308597 0)
(1.43708 -0.00289239 0)
(1.43266 -0.00269108 0)
(1.42834 -0.00248614 0)
(1.42412 -0.00228743 0)
(1.41997 -0.00208841 0)
(1.41591 -0.00188704 0)
(1.41187 -0.00167983 0)
(1.40796 -0.00149193 0)
(1.40393 -0.00127368 0)
(1.4002 -0.00110746 0)
(1.39604 -0.000837181 0)
(1.39265 -0.000771808 0)
(1.38803 -0.000284336 0)
(1.38531 -0.000739349 0)
(1.37983 0.00058567 0)
(1.37816 -0.00271902 0)
(1.37379 0.00224809 0)
(1.37061 -0.0160716 0)
(1.38989 0.0079148 0)
(4.50054 0.031073 0)
(4.50891 0.0580687 0)
(4.52525 0.0814589 0)
(4.54805 0.102528 0)
(4.57468 0.12143 0)
(4.60264 0.137886 0)
(4.62978 0.151556 0)
(4.65448 0.162411 0)
(4.67546 0.170635 0)
(4.69204 0.17649 0)
(4.70382 0.18023 0)
(4.7108 0.18206 0)
(4.71316 0.182225 0)
(4.71117 0.180955 0)
(4.70527 0.178444 0)
(4.69588 0.174879 0)
(4.68344 0.170447 0)
(4.66836 0.16532 0)
(4.65106 0.159659 0)
(4.63193 0.153606 0)
(4.61131 0.147292 0)
(4.58951 0.14083 0)
(4.56682 0.134319 0)
(4.54346 0.127845 0)
(4.51966 0.121476 0)
(4.49558 0.115271 0)
(4.47137 0.109271 0)
(4.44715 0.103509 0)
(4.42303 0.0980102 0)
(4.39909 0.0927913 0)
(4.37538 0.0878598 0)
(4.35197 0.0832182 0)
(4.32887 0.0788663 0)
(4.30613 0.0748029 0)
(4.28377 0.0710183 0)
(4.2618 0.0675104 0)
(4.24023 0.0642677 0)
(4.21906 0.0612695 0)
(4.19829 0.0584981 0)
(4.17791 0.0559413 0)
(4.15792 0.0535824 0)
(4.13831 0.0514078 0)
(4.11908 0.0494021 0)
(4.10022 0.0475511 0)
(4.08172 0.0458423 0)
(4.06358 0.0442653 0)
(4.04577 0.0428096 0)
(4.02831 0.0414637 0)
(4.01119 0.0402154 0)
(3.99439 0.039058 0)
(3.97789 0.0379757 0)
(3.96171 0.0369639 0)
(3.94582 0.0360249 0)
(3.93022 0.0351428 0)
(3.91492 0.0343076 0)
(3.8999 0.0335241 0)
(3.88514 0.0327834 0)
(3.87066 0.0320801 0)
(3.85643 0.0314127 0)
(3.84246 0.0307732 0)
(3.82875 0.0301603 0)
(3.81527 0.0295676 0)
(3.80205 0.0289913 0)
(3.78905 0.0284348 0)
(3.77629 0.0279028 0)
(3.76373 0.0273998 0)
(3.75141 0.0269217 0)
(3.73926 0.0264775 0)
(3.72735 0.0260276 0)
(3.71558 0.0256264 0)
(3.70407 0.0251638 0)
(3.69263 0.024867 0)
(3.68144 0.0243545 0)
(3.67033 0.0242996 0)
(3.65917 0.0234952 0)
(3.64853 0.024025 0)
(3.63602 0.0222059 0)
(3.62679 0.0242028 0)
(3.60749 0.0191802 0)
(3.6054 0.0248091 0)
(4.50031 0.0336986 0)
(4.50565 0.050069 0)
(4.51628 0.0656847 0)
(4.5318 0.0806214 0)
(4.55165 0.0943002 0)
(4.57535 0.106487 0)
(4.60237 0.117051 0)
(4.63215 0.125913 0)
(4.664 0.133046 0)
(4.69724 0.138492 0)
(4.73122 0.142337 0)
(4.76536 0.144677 0)
(4.79918 0.145648 0)
(4.83228 0.145409 0)
(4.86435 0.144121 0)
(4.89514 0.141951 0)
(4.92448 0.139065 0)
(4.95222 0.135617 0)
(4.97828 0.131742 0)
(5.00262 0.127559 0)
(5.02523 0.123173 0)
(5.04613 0.118672 0)
(5.06536 0.114134 0)
(5.08298 0.109621 0)
(5.09904 0.105189 0)
(5.11362 0.100878 0)
(5.12681 0.0967186 0)
(5.13868 0.0927356 0)
(5.14932 0.0889461 0)
(5.15882 0.0853664 0)
(5.16726 0.0820012 0)
(5.17472 0.0788505 0)
(5.18129 0.0759057 0)
(5.18703 0.0731686 0)
(5.19203 0.0705881 0)
(5.19633 0.0681975 0)
(5.2 0.0660005 0)
(5.20307 0.0639672 0)
(5.20561 0.0620767 0)
(5.20766 0.0603351 0)
(5.20927 0.058729 0)
(5.21047 0.0572534 0)
(5.21129 0.0558961 0)
(5.21176 0.0546433 0)
(5.21191 0.0534816 0)
(5.21177 0.0524088 0)
(5.21134 0.0514217 0)
(5.21066 0.0505094 0)
(5.20974 0.0496636 0)
(5.2086 0.0488667 0)
(5.20725 0.0481178 0)
(5.20571 0.0474131 0)
(5.20399 0.0467432 0)
(5.20211 0.0461113 0)
(5.20006 0.0455155 0)
(5.19787 0.0449454 0)
(5.19554 0.0443966 0)
(5.19308 0.0438658 0)
(5.19048 0.0433474 0)
(5.18776 0.0428487 0)
(5.18492 0.0423739 0)
(5.18197 0.0419249 0)
(5.17891 0.0414957 0)
(5.17576 0.0410873 0)
(5.1725 0.0406971 0)
(5.16917 0.0403133 0)
(5.16573 0.0399311 0)
(5.16225 0.039553 0)
(5.15861 0.0391883 0)
(5.155 0.0388423 0)
(5.15112 0.0385317 0)
(5.14745 0.0382329 0)
(5.14321 0.0380077 0)
(5.13961 0.0377972 0)
(5.13472 0.0377558 0)
(5.13152 0.03763 0)
(5.12523 0.0380427 0)
(5.12313 0.0381829 0)
(5.11371 0.0405521 0)
(5.11485 0.0417287 0)
(4.50033 0.0400212 0)
(4.5051 0.0534967 0)
(4.51424 0.0654134 0)
(4.52763 0.076504 0)
(4.54494 0.0864396 0)
(4.56576 0.0952144 0)
(4.58964 0.10274 0)
(4.61607 0.108942 0)
(4.64456 0.113824 0)
(4.67461 0.117462 0)
(4.70577 0.119989 0)
(4.73767 0.121545 0)
(4.76995 0.122239 0)
(4.80236 0.122202 0)
(4.83464 0.121554 0)
(4.86657 0.120403 0)
(4.89795 0.118838 0)
(4.92859 0.116944 0)
(4.95835 0.114778 0)
(4.98714 0.112391 0)
(5.01486 0.109836 0)
(5.04147 0.107161 0)
(5.06692 0.104412 0)
(5.09123 0.101615 0)
(5.11438 0.0988156 0)
(5.13639 0.0960338 0)
(5.1573 0.0933018 0)
(5.17713 0.0906315 0)
(5.19595 0.0880362 0)
(5.21378 0.085537 0)
(5.23069 0.0831326 0)
(5.24672 0.0808398 0)
(5.26193 0.078664 0)
(5.27634 0.0766314 0)
(5.29003 0.0747659 0)
(5.30314 0.0730134 0)
(5.31564 0.0713493 0)
(5.32755 0.0697871 0)
(5.33894 0.0683337 0)
(5.34988 0.0669634 0)
(5.36038 0.0656747 0)
(5.37049 0.0644601 0)
(5.38022 0.0633164 0)
(5.38961 0.0622403 0)
(5.39868 0.0612258 0)
(5.40748 0.0602623 0)
(5.416 0.059344 0)
(5.42429 0.0584702 0)
(5.43234 0.0576364 0)
(5.44017 0.0568466 0)
(5.4478 0.056098 0)
(5.45525 0.0553889 0)
(5.46251 0.0547118 0)
(5.46961 0.0540623 0)
(5.47655 0.0534351 0)
(5.48334 0.0528277 0)
(5.48997 0.0522439 0)
(5.49646 0.0516819 0)
(5.50283 0.0511418 0)
(5.50909 0.0506283 0)
(5.51525 0.0501392 0)
(5.52129 0.0496646 0)
(5.5272 0.0492033 0)
(5.533 0.0487529 0)
(5.53867 0.0483122 0)
(5.54423 0.0478867 0)
(5.54967 0.04748 0)
(5.55504 0.0470824 0)
(5.5603 0.0467178 0)
(5.56551 0.0463289 0)
(5.57059 0.0460051 0)
(5.57563 0.0456569 0)
(5.5805 0.0454822 0)
(5.58541 0.045175 0)
(5.59004 0.0452511 0)
(5.5948 0.0449803 0)
(5.5992 0.0458 0)
(5.60398 0.0455911 0)
(5.60828 0.048402 0)
(5.61359 0.048222 0)
(4.50022 0.0422652 0)
(4.50439 0.0495192 0)
(4.51299 0.0555417 0)
(4.52589 0.0614165 0)
(4.54268 0.0668245 0)
(4.56286 0.0717035 0)
(4.58584 0.0759548 0)
(4.6112 0.0795118 0)
(4.63853 0.0823586 0)
(4.66743 0.0845277 0)
(4.6975 0.0860595 0)
(4.72831 0.0870039 0)
(4.75952 0.0874475 0)
(4.79086 0.0874448 0)
(4.82206 0.0870509 0)
(4.85292 0.0863134 0)
(4.88327 0.0852694 0)
(4.91295 0.0839449 0)
(4.94182 0.0823789 0)
(4.96981 0.0806173 0)
(4.99686 0.0787057 0)
(5.02291 0.0767034 0)
(5.04793 0.0746366 0)
(5.07192 0.0725547 0)
(5.09488 0.0704692 0)
(5.11682 0.0684147 0)
(5.13777 0.0664002 0)
(5.15773 0.064445 0)
(5.17675 0.062567 0)
(5.19488 0.0607618 0)
(5.21214 0.0590493 0)
(5.22861 0.0574297 0)
(5.24435 0.0559201 0)
(5.25943 0.0544917 0)
(5.27383 0.0532147 0)
(5.28754 0.052038 0)
(5.30067 0.0509379 0)
(5.31331 0.0499276 0)
(5.32546 0.0490127 0)
(5.33715 0.0481645 0)
(5.34844 0.0473834 0)
(5.35936 0.0466582 0)
(5.36995 0.0459852 0)
(5.38023 0.0453626 0)
(5.39022 0.0447915 0)
(5.39993 0.0442635 0)
(5.40941 0.0437677 0)
(5.41867 0.0433021 0)
(5.42774 0.0428635 0)
(5.43663 0.0424522 0)
(5.44535 0.0420673 0)
(5.45391 0.0417238 0)
(5.46233 0.0414048 0)
(5.4706 0.0410995 0)
(5.47875 0.0408076 0)
(5.48679 0.0405206 0)
(5.49473 0.0402423 0)
(5.50257 0.0399738 0)
(5.51032 0.0397189 0)
(5.51797 0.0394694 0)
(5.52553 0.0392172 0)
(5.53299 0.0389641 0)
(5.54038 0.0387216 0)
(5.54767 0.0384785 0)
(5.55491 0.0382345 0)
(5.56209 0.0379881 0)
(5.56921 0.03776 0)
(5.57626 0.0375183 0)
(5.58323 0.0373053 0)
(5.59013 0.0370885 0)
(5.59705 0.0369252 0)
(5.60391 0.0366976 0)
(5.61078 0.0366243 0)
(5.61749 0.0363819 0)
(5.6244 0.0365429 0)
(5.63116 0.0362873 0)
(5.63836 0.0370112 0)
(5.64533 0.0367573 0)
(5.65348 0.0389162 0)
(5.66135 0.0385924 0)
(4.50023 0.0429588 0)
(4.50444 0.0464004 0)
(4.51281 0.0488283 0)
(4.52524 0.0512871 0)
(4.54138 0.0534726 0)
(4.56081 0.0553168 0)
(4.5831 0.0568451 0)
(4.60783 0.0580804 0)
(4.63458 0.0590428 0)
(4.66292 0.0597568 0)
(4.69243 0.0602231 0)
(4.72277 0.0604547 0)
(4.75362 0.0605079 0)
(4.78465 0.0604052 0)
(4.81561 0.0601746 0)
(4.84628 0.0598572 0)
(4.87644 0.0594804 0)
(4.90595 0.0590568 0)
(4.9347 0.0585946 0)
(4.96261 0.0581176 0)
(4.9896 0.0576192 0)
(5.01561 0.0571484 0)
(5.04059 0.0566731 0)
(5.06453 0.0562098 0)
(5.08743 0.0557506 0)
(5.10931 0.0553072 0)
(5.13017 0.0548665 0)
(5.15008 0.0544321 0)
(5.16904 0.05401 0)
(5.18711 0.0535952 0)
(5.20433 0.0531892 0)
(5.22074 0.0527891 0)
(5.23638 0.0523857 0)
(5.2513 0.0519576 0)
(5.26558 0.0514879 0)
(5.27924 0.0510172 0)
(5.29234 0.0505714 0)
(5.30491 0.0501231 0)
(5.317 0.0496509 0)
(5.32864 0.0491821 0)
(5.33987 0.0487195 0)
(5.35073 0.0482666 0)
(5.36126 0.0478325 0)
(5.37148 0.0474094 0)
(5.38142 0.0469793 0)
(5.39111 0.0465461 0)
(5.40056 0.0461129 0)
(5.40979 0.0456797 0)
(5.41883 0.0452531 0)
(5.42768 0.0448353 0)
(5.43639 0.0444261 0)
(5.44495 0.0440015 0)
(5.45335 0.0435753 0)
(5.4616 0.0431567 0)
(5.46974 0.0427444 0)
(5.47775 0.0423357 0)
(5.48566 0.0419268 0)
(5.49346 0.04152 0)
(5.50118 0.0411151 0)
(5.50881 0.0407202 0)
(5.51636 0.0403462 0)
(5.52385 0.0399867 0)
(5.53126 0.039628 0)
(5.53859 0.039278 0)
(5.54585 0.0389402 0)
(5.55304 0.0385952 0)
(5.56017 0.0382429 0)
(5.56722 0.0378867 0)
(5.57428 0.0375379 0)
(5.58127 0.0372226 0)
(5.58821 0.0369539 0)
(5.59509 0.0366802 0)
(5.60202 0.0364358 0)
(5.60888 0.0361829 0)
(5.61589 0.0360251 0)
(5.62275 0.035796 0)
(5.63015 0.0357566 0)
(5.63739 0.0355608 0)
(5.64582 0.0357889 0)
(5.65407 0.0355994 0)
(4.5002 0.040352 0)
(4.50439 0.0384668 0)
(4.51275 0.0355689 0)
(4.52517 0.0329954 0)
(4.54131 0.030747 0)
(4.56073 0.0288216 0)
(4.58302 0.02719 0)
(4.60775 0.025823 0)
(4.63449 0.0246982 0)
(4.66283 0.0238055 0)
(4.69235 0.0231533 0)
(4.72269 0.0227246 0)
(4.75352 0.0224542 0)
(4.78453 0.0223207 0)
(4.81546 0.0223083 0)
(4.84611 0.0223921 0)
(4.87627 0.0225527 0)
(4.9058 0.0227721 0)
(4.93457 0.0230269 0)
(4.96248 0.0232825 0)
(4.98949 0.0235321 0)
(5.01551 0.0237196 0)
(5.04046 0.0239008 0)
(5.06438 0.0240737 0)
(5.08727 0.0242488 0)
(5.10914 0.0244085 0)
(5.13001 0.0245625 0)
(5.1499 0.0247017 0)
(5.16886 0.0248178 0)
(5.18692 0.0249109 0)
(5.20413 0.0249793 0)
(5.22053 0.02502 0)
(5.23617 0.0250324 0)
(5.25111 0.0251224 0)
(5.26539 0.0251925 0)
(5.27905 0.0252451 0)
(5.29214 0.0253535 0)
(5.30469 0.0254312 0)
(5.31675 0.0254909 0)
(5.32839 0.0255333 0)
(5.33963 0.0255533 0)
(5.35051 0.0255643 0)
(5.36106 0.0255877 0)
(5.37129 0.0256251 0)
(5.38121 0.0256504 0)
(5.39089 0.0256567 0)
(5.40033 0.0256505 0)
(5.40955 0.0256366 0)
(5.41859 0.0256127 0)
(5.42746 0.0255858 0)
(5.43613 0.0255595 0)
(5.44463 0.0255101 0)
(5.45302 0.0254487 0)
(5.46128 0.025386 0)
(5.46942 0.0253168 0)
(5.47744 0.0252465 0)
(5.48536 0.025178 0)
(5.49318 0.0251051 0)
(5.50092 0.0250277 0)
(5.50858 0.024943 0)
(5.51615 0.024851 0)
(5.52361 0.024751 0)
(5.531 0.0246463 0)
(5.53833 0.0245341 0)
(5.54559 0.0244128 0)
(5.55278 0.0242949 0)
(5.55991 0.0241697 0)
(5.56698 0.0240568 0)
(5.57402 0.0239322 0)
(5.58101 0.0237909 0)
(5.58799 0.023629 0)
(5.59487 0.0235278 0)
(5.6018 0.0233843 0)
(5.6086 0.0233012 0)
(5.61561 0.0230384 0)
(5.62249 0.0229666 0)
(5.62987 0.0225093 0)
(5.63707 0.0224474 0)
(5.64548 0.0214709 0)
(5.65368 0.0215052 0)
(4.50018 0.0354957 0)
(4.50431 0.0296339 0)
(4.51279 0.0231617 0)
(4.52571 0.0172885 0)
(4.54259 0.0117346 0)
(4.5627 0.00673155 0)
(4.58563 0.00236334 0)
(4.61096 -0.00131453 0)
(4.63825 -0.00430298 0)
(4.66712 -0.00662786 0)
(4.69715 -0.00833176 0)
(4.72794 -0.00947526 0)
(4.75915 -0.0101346 0)
(4.7905 -0.0103584 0)
(4.82172 -0.0101838 0)
(4.85259 -0.0096513 0)
(4.88293 -0.00879389 0)
(4.91259 -0.00765603 0)
(4.94145 -0.00628604 0)
(4.96944 -0.00474153 0)
(4.99644 -0.00306349 0)
(5.02245 -0.00133821 0)
(5.04748 0.000446716 0)
(5.07149 0.00227003 0)
(5.09444 0.00409681 0)
(5.11636 0.00589589 0)
(5.13727 0.0076418 0)
(5.15721 0.00931963 0)
(5.1762 0.0109108 0)
(5.1943 0.0124064 0)
(5.21156 0.0138095 0)
(5.228 0.0151177 0)
(5.24378 0.0163329 0)
(5.25885 0.017376 0)
(5.27316 0.0183188 0)
(5.28693 0.0191807 0)
(5.30012 0.0198804 0)
(5.31271 0.0205074 0)
(5.32482 0.0210638 0)
(5.33647 0.0215458 0)
(5.34772 0.02196 0)
(5.35863 0.0223108 0)
(5.36923 0.0225727 0)
(5.3795 0.0227506 0)
(5.38947 0.0228845 0)
(5.39918 0.022981 0)
(5.40866 0.0230391 0)
(5.41793 0.0230609 0)
(5.42699 0.0230541 0)
(5.43588 0.0230156 0)
(5.4446 0.0229471 0)
(5.45316 0.022874 0)
(5.46157 0.0227849 0)
(5.46985 0.0226707 0)
(5.47801 0.0225373 0)
(5.48605 0.022389 0)
(5.49398 0.0222261 0)
(5.5018 0.0220574 0)
(5.50951 0.0218831 0)
(5.51713 0.0217053 0)
(5.52467 0.0215193 0)
(5.53214 0.0213368 0)
(5.53954 0.0211574 0)
(5.54687 0.0209891 0)
(5.55413 0.0208187 0)
(5.56134 0.0206491 0)
(5.56848 0.0204655 0)
(5.57554 0.0203013 0)
(5.58255 0.0201093 0)
(5.58947 0.0199686 0)
(5.59641 0.0197437 0)
(5.60328 0.0196071 0)
(5.61016 0.0192567 0)
(5.61689 0.0191721 0)
(5.6238 0.0186115 0)
(5.63051 0.0186285 0)
(5.6377 0.0174152 0)
(5.64457 0.0175074 0)
(5.65267 0.0146085 0)
(5.66036 0.0149077 0)
(4.50016 0.0268528 0)
(4.50488 0.0145748 0)
(4.51411 0.00228712 0)
(4.5274 -0.00879344 0)
(4.54458 -0.018915 0)
(4.56539 -0.027855 0)
(4.58926 -0.0355086 0)
(4.61567 -0.0418353 0)
(4.64411 -0.0468478 0)
(4.6741 -0.0506229 0)
(4.70522 -0.0532836 0)
(4.73709 -0.0549681 0)
(4.76938 -0.0558098 0)
(4.8018 -0.0559447 0)
(4.83408 -0.0554875 0)
(4.866 -0.0545295 0)
(4.89736 -0.0531588 0)
(4.92799 -0.0514511 0)
(4.95775 -0.0494803 0)
(4.98652 -0.0472989 0)
(5.01421 -0.0449686 0)
(5.04079 -0.0424959 0)
(5.06623 -0.0399532 0)
(5.09051 -0.0373822 0)
(5.11364 -0.0348064 0)
(5.13562 -0.0322538 0)
(5.1565 -0.0297506 0)
(5.17631 -0.0273191 0)
(5.1951 -0.024974 0)
(5.21292 -0.0227226 0)
(5.22983 -0.0205854 0)
(5.24588 -0.0185611 0)
(5.26102 -0.0166564 0)
(5.27539 -0.0149559 0)
(5.28914 -0.0133671 0)
(5.30216 -0.0118799 0)
(5.31458 -0.0105771 0)
(5.3265 -0.00936033 0)
(5.33791 -0.00823371 0)
(5.34884 -0.00718681 0)
(5.35934 -0.00620604 0)
(5.36941 -0.00529842 0)
(5.37908 -0.0044879 0)
(5.38844 -0.00377643 0)
(5.39751 -0.00312671 0)
(5.4063 -0.00252886 0)
(5.41482 -0.00198012 0)
(5.42309 -0.00148027 0)
(5.43112 -0.00102 0)
(5.43895 -0.000602887 0)
(5.44656 -0.000226327 0)
(5.454 0.000114176 0)
(5.46126 0.000419256 0)
(5.46835 0.000689151 0)
(5.47529 0.000929585 0)
(5.48209 0.00114395 0)
(5.48875 0.00133942 0)
(5.49527 0.00152644 0)
(5.50167 0.00170255 0)
(5.50795 0.00186278 0)
(5.5141 0.0020091 0)
(5.52013 0.00214085 0)
(5.52605 0.00225098 0)
(5.53188 0.00234555 0)
(5.53758 0.00242452 0)
(5.54319 0.00249781 0)
(5.54868 0.00255425 0)
(5.55411 0.00261859 0)
(5.55942 0.00266096 0)
(5.56468 0.00274329 0)
(5.56977 0.00275489 0)
(5.57482 0.00282993 0)
(5.57973 0.0026861 0)
(5.58471 0.00278694 0)
(5.58943 0.0023688 0)
(5.59431 0.00256635 0)
(5.59871 0.00132341 0)
(5.60349 0.00166702 0)
(5.60772 -0.00187862 0)
(5.61295 -0.00126579 0)
(4.50019 0.0179674 0)
(4.50545 0.0023596 0)
(4.51602 -0.0136495 0)
(4.53144 -0.028742 0)
(4.55122 -0.0425157 0)
(4.57487 -0.0547943 0)
(4.60186 -0.0654541 0)
(4.6316 -0.0744214 0)
(4.66339 -0.0816664 0)
(4.69658 -0.0872147 0)
(4.73051 -0.0911499 0)
(4.76463 -0.0935838 0)
(4.79844 -0.0946657 0)
(4.83155 -0.094558 0)
(4.86363 -0.0934089 0)
(4.89442 -0.091375 0)
(4.92373 -0.0886224 0)
(4.95145 -0.0853132 0)
(4.97749 -0.0815876 0)
(5.0018 -0.0775691 0)
(5.02439 -0.0733549 0)
(5.04527 -0.0690222 0)
(5.06447 -0.064653 0)
(5.08206 -0.0603113 0)
(5.0981 -0.0560495 0)
(5.11265 -0.0519114 0)
(5.12581 -0.0479305 0)
(5.13765 -0.0441339 0)
(5.14827 -0.0405387 0)
(5.15774 -0.0371604 0)
(5.16616 -0.034006 0)
(5.17361 -0.031085 0)
(5.18014 -0.0283914 0)
(5.18585 -0.0258459 0)
(5.19082 -0.0235115 0)
(5.19508 -0.0213885 0)
(5.1987 -0.0193959 0)
(5.20177 -0.0175922 0)
(5.2043 -0.0159529 0)
(5.20634 -0.014469 0)
(5.20792 -0.0131331 0)
(5.20908 -0.0119333 0)
(5.20986 -0.0108418 0)
(5.2103 -0.00984458 0)
(5.21043 -0.0089541 0)
(5.21028 -0.00815941 0)
(5.20985 -0.00744802 0)
(5.20917 -0.00681023 0)
(5.20826 -0.00621941 0)
(5.20712 -0.00569193 0)
(5.20577 -0.00520854 0)
(5.20424 -0.00477185 0)
(5.20252 -0.00438496 0)
(5.20064 -0.00403792 0)
(5.19861 -0.00372394 0)
(5.19644 -0.00343589 0)
(5.19414 -0.00316355 0)
(5.1917 -0.00290897 0)
(5.18912 -0.00267731 0)
(5.18642 -0.00247395 0)
(5.18361 -0.00229465 0)
(5.18071 -0.00213016 0)
(5.17771 -0.00197732 0)
(5.17464 -0.00184209 0)
(5.17147 -0.00171993 0)
(5.16826 -0.00159412 0)
(5.16492 -0.00147589 0)
(5.16159 -0.00135632 0)
(5.15807 -0.00126135 0)
(5.15465 -0.00115986 0)
(5.1509 -0.00111627 0)
(5.1475 -0.00100451 0)
(5.1434 -0.000992329 0)
(5.14023 -0.00084358 0)
(5.13546 -0.000998935 0)
(5.13283 -0.000775906 0)
(5.12653 -0.00148854 0)
(5.12518 -0.00117174 0)
(5.11539 -0.00416699 0)
(5.11731 -0.00439387 0)
(4.50013 0.00121653 0)
(4.50834 -0.0251175 0)
(4.52476 -0.0487331 0)
(4.54754 -0.0698767 0)
(4.57412 -0.0888439 0)
(4.60206 -0.105358 0)
(4.62916 -0.119095 0)
(4.65382 -0.130025 0)
(4.67476 -0.138323 0)
(4.69131 -0.144245 0)
(4.70306 -0.148049 0)
(4.71003 -0.149949 0)
(4.71239 -0.150191 0)
(4.7104 -0.149001 0)
(4.7045 -0.146567 0)
(4.6951 -0.143079 0)
(4.68263 -0.138726 0)
(4.66752 -0.133686 0)
(4.65019 -0.128122 0)
(4.63103 -0.122177 0)
(4.61038 -0.115974 0)
(4.58856 -0.109622 0)
(4.56584 -0.10322 0)
(4.54246 -0.0968535 0)
(4.51863 -0.0905928 0)
(4.49453 -0.0844985 0)
(4.47028 -0.0786133 0)
(4.44604 -0.0729703 0)
(4.42188 -0.0675941 0)
(4.3979 -0.0625003 0)
(4.37416 -0.0576985 0)
(4.35071 -0.053193 0)
(4.32757 -0.0489839 0)
(4.3048 -0.0450588 0)
(4.2824 -0.0414227 0)
(4.26039 -0.0380683 0)
(4.23878 -0.0349694 0)
(4.21759 -0.0321205 0)
(4.1968 -0.0295089 0)
(4.1764 -0.0271185 0)
(4.15638 -0.0249315 0)
(4.13675 -0.0229285 0)
(4.11748 -0.0210892 0)
(4.0986 -0.0194014 0)
(4.08008 -0.0178582 0)
(4.06193 -0.0164483 0)
(4.04412 -0.0151572 0)
(4.02666 -0.0139677 0)
(4.00955 -0.0128961 0)
(3.99275 -0.0119025 0)
(3.97628 -0.0110024 0)
(3.9601 -0.0101845 0)
(3.94421 -0.00942343 0)
(3.92863 -0.00871109 0)
(3.91335 -0.00804267 0)
(3.89836 -0.00742243 0)
(3.88366 -0.00686141 0)
(3.86923 -0.00635547 0)
(3.85506 -0.00588152 0)
(3.84116 -0.0054208 0)
(3.82753 -0.00497591 0)
(3.81414 -0.00455506 0)
(3.80101 -0.00415841 0)
(3.78813 -0.00377585 0)
(3.7755 -0.00341377 0)
(3.76311 -0.00307011 0)
(3.75095 -0.00274464 0)
(3.73904 -0.00243881 0)
(3.72733 -0.00214297 0)
(3.7159 -0.00187533 0)
(3.70459 -0.0015916 0)
(3.69365 -0.00139608 0)
(3.68261 -0.00107484 0)
(3.67231 -0.00101467 0)
(3.66113 -0.000477358 0)
(3.65183 -0.000729878 0)
(3.63888 0.000675407 0)
(3.63179 -0.00033625 0)
(3.6111 0.00379788 0)
(3.61192 0.00100567 0)
(4.49495 -0.00740299 0)
(4.47003 -0.040214 0)
(4.41775 -0.0705361 0)
(4.34042 -0.0954926 0)
(4.24303 -0.114847 0)
(4.13086 -0.128467 0)
(4.00775 -0.13643 0)
(3.8774 -0.139411 0)
(3.74241 -0.138223 0)
(3.60598 -0.133906 0)
(3.46977 -0.127264 0)
(3.33612 -0.118897 0)
(3.20611 -0.10973 0)
(3.08045 -0.100087 0)
(2.96013 -0.090223 0)
(2.84564 -0.0805158 0)
(2.73723 -0.0711702 0)
(2.63508 -0.0623151 0)
(2.53923 -0.0540252 0)
(2.44965 -0.0463378 0)
(2.36622 -0.0392634 0)
(2.28875 -0.0327959 0)
(2.21704 -0.0269168 0)
(2.15082 -0.0216003 0)
(2.08981 -0.0168146 0)
(2.03374 -0.0125256 0)
(1.98229 -0.00869896 0)
(1.93516 -0.00530087 0)
(1.89206 -0.00229798 0)
(1.85268 0.00034154 0)
(1.81674 0.00264799 0)
(1.78396 0.00465017 0)
(1.75408 0.00637694 0)
(1.72684 0.00785905 0)
(1.702 0.00912014 0)
(1.67936 0.0101818 0)
(1.65871 0.0110661 0)
(1.63985 0.0117896 0)
(1.62262 0.0123738 0)
(1.60683 0.0128418 0)
(1.59235 0.013215 0)
(1.57903 0.0135101 0)
(1.56676 0.0137398 0)
(1.55542 0.0139127 0)
(1.54492 0.014037 0)
(1.53518 0.0141184 0)
(1.5261 0.0141704 0)
(1.51758 0.0141876 0)
(1.50961 0.014115 0)
(1.50212 0.0140188 0)
(1.49505 0.0138738 0)
(1.48838 0.0136994 0)
(1.48206 0.0135219 0)
(1.47605 0.0133372 0)
(1.47032 0.013145 0)
(1.4648 0.0129489 0)
(1.4595 0.0127237 0)
(1.45441 0.012467 0)
(1.44952 0.0122113 0)
(1.4448 0.0119561 0)
(1.44023 0.0116917 0)
(1.43579 0.0114249 0)
(1.43148 0.0111587 0)
(1.42728 0.010889 0)
(1.42319 0.0106202 0)
(1.4192 0.0103554 0)
(1.41532 0.0100934 0)
(1.4115 0.00983211 0)
(1.4078 0.00957764 0)
(1.40409 0.0093109 0)
(1.40061 0.00907484 0)
(1.39691 0.00878619 0)
(1.39376 0.00864912 0)
(1.38984 0.008205 0)
(1.38731 0.00855683 0)
(1.38303 0.00747091 0)
(1.38139 0.0106218 0)
(1.37908 0.00666893 0)
(1.37575 0.0245215 0)
(1.39636 0.00468221 0)
(1.32524 0.0131731 0)
(1.32469 0.00262594 0)
(1.31441 0.00427646 0)
(1.29791 0.00504313 0)
(1.28434 0.00549094 0)
(1.27222 0.00526877 0)
(1.26188 0.00464736 0)
(1.25234 0.0038896 0)
(1.24318 0.00324347 0)
(1.23443 0.00259347 0)
(1.2262 0.00210131 0)
(1.21855 0.00176183 0)
(1.21141 0.00149805 0)
(1.20472 0.00138439 0)
(1.19848 0.00129587 0)
(1.19268 0.0012701 0)
(1.18726 0.00126855 0)
(1.18219 0.00124313 0)
(1.17745 0.00117007 0)
(1.17301 0.00112025 0)
(1.16888 0.00107274 0)
(1.165 0.0010348 0)
(1.16136 0.00101212 0)
(1.15794 0.000945923 0)
(1.15473 0.000861147 0)
(1.15171 0.000789278 0)
(1.14885 0.000729368 0)
(1.14616 0.000672609 0)
(1.14362 0.000630122 0)
(1.14123 0.00059117 0)
(1.13899 0.000544391 0)
(1.13688 0.000503172 0)
(1.1349 0.000475374 0)
(1.13303 0.000440575 0)
(1.13124 0.000408097 0)
(1.12955 0.000376185 0)
(1.12796 0.000348428 0)
(1.12647 0.000318839 0)
(1.12507 0.000291423 0)
(1.12376 0.000270209 0)
(1.12253 0.000252346 0)
(1.12139 0.000234679 0)
(1.12033 0.000216308 0)
(1.11933 0.00019772 0)
(1.11839 0.000180131 0)
(1.11751 0.0001649 0)
(1.11668 0.000152654 0)
(1.11592 0.000143617 0)
(1.11523 0.000137362 0)
(1.1146 0.000132091 0)
(1.11403 0.000126413 0)
(1.11351 0.000119872 0)
(1.11303 0.000114212 0)
(1.11259 0.000105792 0)
(1.11219 9.68065e-05 0)
(1.11184 8.81664e-05 0)
(1.11152 8.08945e-05 0)
(1.11124 7.30567e-05 0)
(1.111 6.79135e-05 0)
(1.11081 6.46184e-05 0)
(1.11066 6.14646e-05 0)
(1.11054 5.78445e-05 0)
(1.11045 5.16549e-05 0)
(1.11038 4.5023e-05 0)
(1.11033 3.87694e-05 0)
(1.1103 3.46146e-05 0)
(1.1103 3.03673e-05 0)
(1.11032 2.41816e-05 0)
(1.11037 2.09585e-05 0)
(1.11045 1.84153e-05 0)
(1.11055 1.73982e-05 0)
(1.11067 1.5508e-05 0)
(1.1108 1.50032e-05 0)
(1.11095 1.66426e-05 0)
(1.11111 1.86252e-05 0)
(1.11129 1.81748e-05 0)
(1.11148 1.78841e-05 0)
(1.11169 1.75791e-05 0)
(1.11192 1.57536e-05 0)
(1.11216 1.52556e-05 0)
(1.1124 1.83194e-05 0)
(1.11266 1.68351e-05 0)
(1.11293 1.55729e-05 0)
(1.11321 1.35832e-05 0)
(1.11349 1.00871e-05 0)
(1.11378 7.5638e-06 0)
(1.11408 8.0711e-06 0)
(1.11439 1.04962e-05 0)
(1.1147 1.11688e-05 0)
(1.11502 1.20784e-05 0)
(1.11535 1.02699e-05 0)
(1.11568 8.63742e-06 0)
(1.11601 4.25772e-06 0)
(1.11634 1.0677e-06 0)
(1.11667 -4.62728e-07 0)
(1.11701 -9.21895e-07 0)
(1.11736 -1.16838e-06 0)
(1.1177 -1.25873e-06 0)
(1.11805 -1.13623e-06 0)
(1.11841 -6.23954e-08 0)
(1.11878 5.90042e-07 0)
(1.11914 5.18472e-07 0)
(1.1195 4.01334e-07 0)
(1.11985 9.27618e-07 0)
(1.1202 2.35328e-06 0)
(1.12056 4.44558e-06 0)
(1.12092 6.89052e-06 0)
(1.12129 9.43725e-06 0)
(1.12165 1.18136e-05 0)
(1.12202 1.37591e-05 0)
(1.12239 1.5116e-05 0)
(1.12276 1.58092e-05 0)
(1.12313 1.58405e-05 0)
(1.1235 1.54593e-05 0)
(1.12386 1.52712e-05 0)
(1.12421 1.59487e-05 0)
(1.12457 1.77206e-05 0)
(1.12493 2.01374e-05 0)
(1.12529 2.23199e-05 0)
(1.12567 2.34739e-05 0)
(1.12604 2.33296e-05 0)
(1.1264 2.2267e-05 0)
(1.12676 2.10828e-05 0)
(1.12711 2.05317e-05 0)
(1.12746 2.09184e-05 0)
(1.12782 2.20209e-05 0)
(1.12817 2.33672e-05 0)
(1.12853 2.45763e-05 0)
(1.12888 2.54656e-05 0)
(1.12924 2.59349e-05 0)
(1.1296 2.58647e-05 0)
(1.12996 2.52015e-05 0)
(1.13031 2.41332e-05 0)
(1.13065 2.31164e-05 0)
(1.13099 2.268e-05 0)
(1.13133 2.31514e-05 0)
(1.13167 2.44762e-05 0)
(1.13201 2.6218e-05 0)
(1.13235 2.77685e-05 0)
(1.1327 2.87046e-05 0)
(1.13304 2.90682e-05 0)
(1.13337 2.93341e-05 0)
(1.1337 3.00829e-05 0)
(1.13403 3.16534e-05 0)
(1.13435 3.4026e-05 0)
(1.13468 3.69325e-05 0)
(1.13501 4.00201e-05 0)
(1.13534 4.29486e-05 0)
(1.13567 4.54383e-05 0)
(1.136 4.73156e-05 0)
(1.13632 4.85597e-05 0)
(1.13665 4.93321e-05 0)
(1.13697 4.99741e-05 0)
(1.13729 5.09202e-05 0)
(1.1376 5.24998e-05 0)
(1.13791 5.47266e-05 0)
(1.13822 5.72674e-05 0)
(1.13854 5.9655e-05 0)
(1.13886 6.15753e-05 0)
(1.13918 6.29915e-05 0)
(1.13949 6.40457e-05 0)
(1.1398 6.49017e-05 0)
(1.14011 6.57023e-05 0)
(1.14041 6.66219e-05 0)
(1.14071 6.78764e-05 0)
(1.14101 6.96304e-05 0)
(1.14131 7.18761e-05 0)
(1.14161 7.43921e-05 0)
(1.14192 7.68213e-05 0)
(1.14222 7.88356e-05 0)
(1.14252 8.03141e-05 0)
(1.14282 8.1426e-05 0)
(1.14311 8.25373e-05 0)
(1.1434 8.39863e-05 0)
(1.14369 8.58967e-05 0)
(1.14398 8.81752e-05 0)
(1.14427 9.06478e-05 0)
(1.14456 9.31671e-05 0)
(1.14484 9.56006e-05 0)
(1.14513 9.7789e-05 0)
(1.14542 9.95904e-05 0)
(1.14571 0.000100997 0)
(1.146 0.000102196 0)
(1.14628 0.000103494 0)
(1.14656 0.000105159 0)
(1.14684 0.000107282 0)
(1.14712 0.000109748 0)
(1.1474 0.000112321 0)
(1.14768 0.000114785 0)
(1.14796 0.000117062 0)
(1.14824 0.000119208 0)
(1.14852 0.000121331 0)
(1.1488 0.000123492 0)
(1.14907 0.000125702 0)
(1.14935 0.000127981 0)
(1.14962 0.000130394 0)
(1.1499 0.000133003 0)
(1.15017 0.000135779 0)
(1.15045 0.000138571 0)
(1.15072 0.000141172 0)
(1.15099 0.000143427 0)
(1.15126 0.000145303 0)
(1.15154 0.000146904 0)
(1.15181 0.000148415 0)
(1.15208 0.000150011 0)
(1.15234 0.000151775 0)
(1.15261 0.000153674 0)
(1.15288 0.000155616 0)
(1.15314 0.000157522 0)
(1.15341 0.000159358 0)
(1.15368 0.000161116 0)
(1.15394 0.00016279 0)
(1.15421 0.00016439 0)
(1.15447 0.000165973 0)
(1.15474 0.000167638 0)
(1.155 0.000169472 0)
(1.15526 0.000171495 0)
(1.15552 0.000173647 0)
(1.15579 0.000175807 0)
(1.15605 0.000177837 0)
(1.15632 0.00017962 0)
(1.15658 0.000181093 0)
(1.15684 0.000182271 0)
(1.15711 0.000183263 0)
(1.15737 0.000184253 0)
(1.15763 0.00018544 0)
(1.15788 0.000186963 0)
(1.15814 0.000188835 0)
(1.1584 0.000190912 0)
(1.15865 0.000192955 0)
(1.15891 0.000194723 0)
(1.15917 0.000196086 0)
(1.15943 0.000197068 0)
(1.15969 0.000197833 0)
(1.15994 0.00019863 0)
(1.16019 0.000199708 0)
(1.16044 0.000201229 0)
(1.16069 0.000203199 0)
(1.16094 0.00020544 0)
(1.16119 0.00020765 0)
(1.16145 0.000209534 0)
(1.1617 0.000210944 0)
(1.16195 0.00021194 0)
(1.16221 0.000212748 0)
(1.16245 0.000213645 0)
(1.1627 0.000214849 0)
(1.16294 0.000216457 0)
(1.16319 0.000218441 0)
(1.16344 0.000220664 0)
(1.16369 0.000222908 0)
(1.16394 0.000224917 0)
(1.16419 0.000226463 0)
(1.16444 0.000227441 0)
(1.16469 0.000227947 0)
(1.16493 0.000228262 0)
(1.16518 0.000228744 0)
(1.16542 0.000229653 0)
(1.16566 0.000231033 0)
(1.1659 0.0002327 0)
(1.16614 0.000234348 0)
(1.16638 0.000235712 0)
(1.16663 0.000236689 0)
(1.16687 0.000237375 0)
(1.16711 0.000237997 0)
(1.16735 0.000238778 0)
(1.16759 0.000239834 0)
(1.16782 0.000241158 0)
(1.16806 0.000242673 0)
(1.16829 0.000244282 0)
(1.16853 0.000245876 0)
(1.16877 0.000247327 0)
(1.16901 0.0002485 0)
(1.16925 0.000249311 0)
(1.16949 0.000249781 0)
(1.16973 0.000250064 0)
(1.16996 0.000250395 0)
(1.17019 0.000251008 0)
(1.17042 0.000252026 0)
(1.17066 0.000253411 0)
(1.17089 0.000254971 0)
(1.17113 0.000256451 0)
(1.17137 0.000257627 0)
(1.1716 0.000258391 0)
(1.17184 0.000258771 0)
(1.17208 0.000258915 0)
(1.17231 0.00025903 0)
(1.17254 0.000259317 0)
(1.17277 0.000259901 0)
(1.173 0.000260797 0)
(1.17323 0.000261888 0)
(1.17347 0.000262984 0)
(1.1737 0.000263868 0)
(1.17394 0.000264395 0)
(1.17417 0.000264538 0)
(1.1744 0.000264437 0)
(1.17463 0.000264285 0)
(1.17486 0.000264325 0)
(1.17508 0.000264671 0)
(1.17531 0.000265421 0)
(1.17554 0.00026641 0)
(1.17576 0.000267599 0)
(1.17599 0.000268635 0)
(1.17622 0.000269615 0)
(1.17645 0.000270051 0)
(1.17668 0.000270531 0)
(1.17691 0.000270353 0)
(1.17714 0.000270902 0)
(1.17737 0.000270558 0)
(1.17759 0.000271984 0)
(1.17782 0.00027137 0)
(1.17804 0.000274059 0)
(1.17828 0.000272045 0)
(1.17849 0.000276578 0)
(1.17876 0.00027146 0)
(1.17894 0.000279635 0)
(1.17924 0.000269074 0)
(1.17937 0.000284296 0)
(1.17973 0.000264292 0)
(1.17977 0.000291574 0)
(1.18027 0.000258738 0)
(3.52002 0.0330302 0)
(3.45807 0.0247068 0)
(3.39462 0.0205908 0)
(3.33612 0.0182766 0)
(3.29003 0.0159146 0)
(3.25375 0.0143039 0)
(3.22425 0.0135778 0)
(3.19909 0.0132523 0)
(3.17654 0.0130141 0)
(3.15581 0.0127273 0)
(3.13666 0.0123882 0)
(3.11891 0.0118762 0)
(3.10244 0.0113929 0)
(3.0871 0.0106345 0)
(3.07282 0.00992228 0)
(3.05956 0.00916781 0)
(3.04719 0.0084881 0)
(3.03564 0.00786806 0)