/*--------------------------------*- C++ -*----------------------------------*\
  =========                 |
  \\      /  F ield         | OpenFOAM: The Open Source CFD Toolbox
   \\    /   O peration     | Website:  https://openfoam.org
    \\  /    A nd           | Version:  7
     \\/     M anipulation  |
\*---------------------------------------------------------------------------*/
FoamFile
{
    version     2.0;
    format      ascii;
    class       volScalarField;
    location    "0.0625";
    object      rho;
}
// * * * * * * * * * * * * * * * * * * * * * * * * * * * * * * * * * * * * * //

dimensions      [1 -3 0 0 0 0 0];

internalField   nonuniform List<scalar> 
1440
(
1.19985
1.19566
1.19141
1.18707
1.18262
1.17804
1.17332
1.16846
1.16345
1.15829
1.153
1.14757
1.14202
1.13636
1.1306
1.12476
1.11885
1.11291
1.10694
1.10096
1.09501
1.08908
1.0832
1.07739
1.07166
1.06601
1.06046
1.05502
1.04969
1.04447
1.03937
1.03439
1.02952
1.02477
1.02012
1.01559
1.01116
1.00684
1.00261
0.998475
0.994431
0.990473
0.986596
0.982797
0.979073
0.97542
0.971834
0.968313
0.964852
0.961449
0.958101
0.954805
0.951559
0.94836
0.945207
0.942096
0.939027
0.935998
0.933008
0.930056
0.927139
0.924258
0.92141
0.918595
0.915812
0.913058
0.910334
0.907638
0.904969
0.902326
0.899709
0.897118
0.894551
0.89201
0.889494
0.887002
0.884534
0.88209
0.879669
0.87727
0.874892
0.872533
0.870194
0.867874
0.865572
0.863289
0.861025
0.858781
0.856557
0.854353
0.85217
0.850008
0.847864
0.845739
0.843629
0.841534
0.839453
0.837384
0.835327
0.833284
0.831254
0.82924
0.827246
0.825268
0.823314
0.821375
0.819462
0.817552
0.81567
0.813771
0.811917
0.810007
0.808193
0.806245
0.804523
0.802475
0.800974
0.798655
0.797679
0.794618
1.20194
1.20223
1.20241
1.20242
1.20225
1.20186
1.20125
1.20043
1.19943
1.19823
1.19688
1.19539
1.19377
1.19205
1.19022
1.18832
1.18634
1.18431
1.18222
1.1801
1.17795
1.17576
1.17356
1.17134
1.16911
1.16686
1.16461
1.16235
1.16008
1.15781
1.15554
1.15326
1.15098
1.14869
1.1464
1.1441
1.1418
1.13949
1.13719
1.13487
1.13255
1.13023
1.12791
1.12558
1.12324
1.12091
1.11857
1.11623
1.11388
1.11154
1.10919
1.10684
1.1045
1.10215
1.09981
1.09746
1.09512
1.09278
1.09044
1.08811
1.08578
1.08345
1.08113
1.07882
1.07651
1.0742
1.0719
1.06961
1.06733
1.06506
1.06279
1.06053
1.05828
1.05604
1.0538
1.05158
1.04936
1.04716
1.04496
1.04278
1.0406
1.03844
1.03628
1.03414
1.03201
1.02988
1.02777
1.02567
1.02357
1.02149
1.01942
1.01736
1.01531
1.01327
1.01124
1.00922
1.00721
1.00522
1.00323
1.00125
0.999284
0.997325
0.995379
0.993437
0.991514
0.989587
0.98769
0.985774
0.983911
0.981995
0.98018
0.978242
0.976504
0.974501
0.972902
0.970741
0.969415
0.966909
0.966128
0.962888
1.20179
1.20178
1.20178
1.20178
1.20178
1.20178
1.20178
1.20177
1.20174
1.2017
1.20162
1.20152
1.20138
1.20121
1.20101
1.20078
1.20051
1.20022
1.1999
1.19955
1.19919
1.1988
1.19839
1.19796
1.19752
1.19707
1.19659
1.19611
1.19561
1.1951
1.19458
1.19405
1.1935
1.19295
1.19238
1.1918
1.19121
1.1906
1.18998
1.18936
1.18871
1.18806
1.18739
1.18671
1.18602
1.18532
1.1846
1.18387
1.18313
1.18237
1.1816
1.18082
1.18003
1.17922
1.1784
1.17757
1.17672
1.17586
1.17499
1.17411
1.17322
1.17231
1.1714
1.17047
1.16953
1.16858
1.16762
1.16665
1.16567
1.16467
1.16367
1.16266
1.16164
1.16061
1.15957
1.15853
1.15747
1.15641
1.15533
1.15425
1.15317
1.15207
1.15097
1.14986
1.14874
1.14762
1.14649
1.14536
1.14422
1.14307
1.14192
1.14077
1.1396
1.13844
1.13727
1.13609
1.13491
1.13373
1.13254
1.13135
1.13015
1.12895
1.12775
1.12654
1.12534
1.12412
1.12292
1.12169
1.12049
1.11923
1.11806
1.11677
1.11564
1.11427
1.11323
1.11174
1.11088
1.10912
1.10863
1.10637
1.20176
1.20176
1.20174
1.20173
1.20171
1.20168
1.20165
1.20162
1.20159
1.20156
1.20153
1.2015
1.20147
1.20145
1.20142
1.20139
1.20135
1.20132
1.20129
1.20125
1.20122
1.20118
1.20114
1.2011
1.20105
1.20101
1.20096
1.20091
1.20086
1.2008
1.20075
1.20069
1.20063
1.20057
1.2005
1.20043
1.20036
1.20029
1.20021
1.20013
1.20005
1.19997
1.19988
1.19979
1.1997
1.1996
1.1995
1.19939
1.19929
1.19917
1.19906
1.19894
1.19882
1.19869
1.19856
1.19843
1.19829
1.19815
1.198
1.19785
1.19769
1.19753
1.19737
1.1972
1.19703
1.19685
1.19667
1.19648
1.19629
1.1961
1.1959
1.19569
1.19548
1.19527
1.19505
1.19482
1.19459
1.19436
1.19412
1.19387
1.19363
1.19337
1.19311
1.19285
1.19258
1.19231
1.19203
1.19174
1.19145
1.19116
1.19086
1.19056
1.19025
1.18994
1.18962
1.18929
1.18897
1.18863
1.1883
1.18795
1.18761
1.18725
1.1869
1.18653
1.18617
1.1858
1.18543
1.18504
1.18466
1.18426
1.18389
1.18346
1.18309
1.18263
1.1823
1.18178
1.1815
1.18088
1.18072
1.17992
1.20175
1.20174
1.20173
1.20171
1.20169
1.20167
1.20164
1.20161
1.20158
1.20154
1.20151
1.20147
1.20144
1.2014
1.20137
1.20133
1.2013
1.20127
1.20124
1.20121
1.20118
1.20116
1.20113
1.20111
1.20109
1.20107
1.20105
1.20103
1.20101
1.20099
1.20098
1.20096
1.20095
1.20093
1.20092
1.2009
1.20089
1.20087
1.20086
1.20085
1.20083
1.20082
1.20081
1.20079
1.20078
1.20077
1.20075
1.20074
1.20072
1.20071
1.2007
1.20068
1.20067
1.20065
1.20064
1.20062
1.20061
1.20059
1.20058
1.20056
1.20054
1.20053
1.20051
1.20049
1.20047
1.20045
1.20044
1.20042
1.2004
1.20038
1.20035
1.20033
1.20031
1.20029
1.20027
1.20024
1.20022
1.20019
1.20017
1.20014
1.20012
1.20009
1.20006
1.20003
1.2
1.19997
1.19994
1.19991
1.19987
1.19984
1.19981
1.19977
1.19973
1.1997
1.19966
1.19962
1.19958
1.19954
1.1995
1.19945
1.19941
1.19937
1.19932
1.19927
1.19923
1.19918
1.19913
1.19908
1.19903
1.19897
1.19892
1.19886
1.19881
1.19875
1.1987
1.19863
1.19859
1.1985
1.19847
1.19836
1.20174
1.20173
1.20172
1.20171
1.20169
1.20166
1.20164
1.20161
1.20157
1.20154
1.20151
1.20147
1.20144
1.2014
1.20136
1.20133
1.2013
1.20126
1.20123
1.2012
1.20118
1.20115
1.20112
1.2011
1.20107
1.20105
1.20103
1.20101
1.20099
1.20097
1.20096
1.20094
1.20092
1.20091
1.20089
1.20088
1.20086
1.20085
1.20084
1.20082
1.20081
1.2008
1.20079
1.20077
1.20076
1.20075
1.20074
1.20073
1.20072
1.20071
1.20069
1.20068
1.20067
1.20066
1.20065
1.20064
1.20063
1.20062
1.20061
1.2006
1.20059
1.20058
1.20057
1.20056
1.20055
1.20054
1.20054
1.20053
1.20052
1.20051
1.2005
1.20049
1.20048
1.20047
1.20046
1.20045
1.20045
1.20044
1.20043
1.20042
1.20041
1.2004
1.20039
1.20038
1.20038
1.20037
1.20036
1.20035
1.20034
1.20033
1.20032
1.20031
1.20031
1.2003
1.20029
1.20028
1.20027
1.20026
1.20025
1.20024
1.20023
1.20023
1.20022
1.20021
1.2002
1.20019
1.20018
1.20017
1.20016
1.20016
1.20015
1.20014
1.20013
1.20012
1.20011
1.2001
1.2001
1.20009
1.20008
1.20007
1.20174
1.20173
1.20172
1.20171
1.20169
1.20166
1.20164
1.20161
1.20157
1.20154
1.20151
1.20147
1.20143
1.2014
1.20136
1.20133
1.2013
1.20126
1.20123
1.2012
1.20118
1.20115
1.20112
1.2011
1.20107
1.20105
1.20103
1.20101
1.20099
1.20097
1.20095
1.20094
1.20092
1.20091
1.20089
1.20088
1.20086
1.20085
1.20083
1.20082
1.20081
1.2008
1.20078
1.20077
1.20076
1.20075
1.20074
1.20072
1.20071
1.2007
1.20069
1.20068
1.20067
1.20066
1.20065
1.20064
1.20063
1.20062
1.20061
1.2006
1.20059
1.20058
1.20057
1.20056
1.20055
1.20054
1.20053
1.20052
1.20051
1.2005
1.20049
1.20048
1.20047
1.20046
1.20046
1.20045
1.20044
1.20043
1.20042
1.20041
1.2004
1.20039
1.20038
1.20038
1.20037
1.20036
1.20035
1.20034
1.20033
1.20032
1.20031
1.20031
1.2003
1.20029
1.20028
1.20027
1.20026
1.20025
1.20025
1.20024
1.20023
1.20022
1.20021
1.2002
1.2002
1.20019
1.20018
1.20017
1.20017
1.20016
1.20015
1.20014
1.20014
1.20013
1.20012
1.20011
1.20011
1.2001
1.20009
1.20009
1.20175
1.20174
1.20173
1.20171
1.20169
1.20167
1.20164
1.20161
1.20158
1.20154
1.20151
1.20147
1.20144
1.2014
1.20137
1.20133
1.2013
1.20127
1.20123
1.2012
1.20118
1.20115
1.20112
1.2011
1.20108
1.20105
1.20103
1.20101
1.20099
1.20097
1.20096
1.20094
1.20092
1.20091
1.20089
1.20088
1.20087
1.20085
1.20084
1.20083
1.20081
1.2008
1.20079
1.20078
1.20076
1.20075
1.20074
1.20073
1.20072
1.20071
1.20069
1.20068
1.20067
1.20066
1.20065
1.20064
1.20063
1.20062
1.20061
1.2006
1.20059
1.20058
1.20057
1.20056
1.20055
1.20054
1.20053
1.20052
1.20051
1.2005
1.20049
1.20048
1.20048
1.20047
1.20046
1.20045
1.20044
1.20043
1.20042
1.20041
1.2004
1.20039
1.20038
1.20038
1.20037
1.20036
1.20035
1.20034
1.20033
1.20032
1.20031
1.2003
1.20029
1.20028
1.20028
1.20027
1.20026
1.20025
1.20024
1.20023
1.20022
1.20021
1.2002
1.2002
1.20019
1.20018
1.20017
1.20016
1.20015
1.20015
1.20014
1.20013
1.20012
1.20011
1.20011
1.2001
1.20009
1.20008
1.20008
1.20007
1.20176
1.20176
1.20174
1.20173
1.20171
1.20168
1.20165
1.20162
1.20158
1.20155
1.20151
1.20148
1.20144
1.2014
1.20137
1.20134
1.2013
1.20127
1.20124
1.20121
1.20118
1.20115
1.20113
1.2011
1.20108
1.20106
1.20104
1.20102
1.201
1.20098
1.20096
1.20094
1.20093
1.20091
1.20089
1.20088
1.20086
1.20085
1.20084
1.20082
1.20081
1.20079
1.20078
1.20077
1.20075
1.20074
1.20073
1.20071
1.2007
1.20069
1.20068
1.20066
1.20065
1.20064
1.20063
1.20061
1.2006
1.20059
1.20058
1.20057
1.20055
1.20054
1.20053
1.20052
1.20051
1.20049
1.20048
1.20047
1.20046
1.20045
1.20044
1.20042
1.20041
1.2004
1.20039
1.20038
1.20037
1.20036
1.20034
1.20033
1.20032
1.20031
1.2003
1.20029
1.20027
1.20026
1.20025
1.20024
1.20023
1.20022
1.2002
1.20019
1.20018
1.20017
1.20016
1.20014
1.20013
1.20012
1.20011
1.2001
1.20009
1.20007
1.20006
1.20005
1.20004
1.20003
1.20002
1.20001
1.2
1.19999
1.19998
1.19996
1.19995
1.19994
1.19993
1.19992
1.19991
1.1999
1.19989
1.19988
1.20178
1.20178
1.20177
1.20175
1.20172
1.2017
1.20167
1.20163
1.2016
1.20156
1.20152
1.20149
1.20145
1.20141
1.20137
1.20133
1.20129
1.20126
1.20122
1.20119
1.20115
1.20112
1.20109
1.20106
1.20103
1.201
1.20097
1.20095
1.20092
1.20089
1.20087
1.20085
1.20082
1.2008
1.20078
1.20076
1.20074
1.20072
1.2007
1.20068
1.20066
1.20064
1.20062
1.2006
1.20058
1.20056
1.20055
1.20053
1.20051
1.20049
1.20047
1.20046
1.20044
1.20042
1.2004
1.20039
1.20037
1.20035
1.20034
1.20032
1.2003
1.20029
1.20027
1.20026
1.20024
1.20022
1.20021
1.20019
1.20018
1.20016
1.20015
1.20013
1.20012
1.2001
1.20009
1.20007
1.20006
1.20005
1.20003
1.20002
1.2
1.19999
1.19997
1.19996
1.19995
1.19993
1.19992
1.19991
1.19989
1.19988
1.19987
1.19985
1.19984
1.19983
1.19981
1.1998
1.19979
1.19978
1.19976
1.19975
1.19974
1.19973
1.19972
1.19971
1.19969
1.19968
1.19967
1.19966
1.19965
1.19964
1.19963
1.19962
1.19961
1.1996
1.19959
1.19958
1.19957
1.19956
1.19955
1.19954
1.20182
1.20181
1.2018
1.20178
1.20175
1.20172
1.20168
1.20163
1.20158
1.20152
1.20146
1.2014
1.20134
1.20128
1.20122
1.20116
1.2011
1.20105
1.201
1.20095
1.2009
1.20086
1.20081
1.20078
1.20074
1.2007
1.20067
1.20064
1.20061
1.20058
1.20056
1.20053
1.20051
1.20048
1.20046
1.20044
1.20042
1.2004
1.20038
1.20036
1.20034
1.20032
1.20031
1.20029
1.20027
1.20026
1.20024
1.20023
1.20021
1.20019
1.20018
1.20017
1.20015
1.20014
1.20012
1.20011
1.2001
1.20008
1.20007
1.20006
1.20004
1.20003
1.20002
1.20001
1.19999
1.19998
1.19997
1.19996
1.19995
1.19993
1.19992
1.19991
1.1999
1.19989
1.19988
1.19986
1.19985
1.19984
1.19983
1.19982
1.19981
1.1998
1.19979
1.19978
1.19977
1.19976
1.19975
1.19974
1.19973
1.19972
1.19971
1.1997
1.19969
1.19968
1.19967
1.19966
1.19965
1.19964
1.19963
1.19962
1.19961
1.1996
1.19959
1.19958
1.19957
1.19956
1.19955
1.19954
1.19953
1.19952
1.19951
1.1995
1.19949
1.19948
1.19947
1.19946
1.19945
1.19944
1.19943
1.19942
1.20187
1.20183
1.20178
1.20171
1.20164
1.20155
1.20146
1.20137
1.20129
1.20121
1.20114
1.20108
1.20102
1.20097
1.20093
1.20089
1.20086
1.20083
1.2008
1.20077
1.20075
1.20073
1.20071
1.20069
1.20067
1.20066
1.20064
1.20062
1.2006
1.20059
1.20057
1.20055
1.20054
1.20052
1.2005
1.20049
1.20047
1.20045
1.20044
1.20042
1.2004
1.20039
1.20037
1.20035
1.20034
1.20032
1.20031
1.20029
1.20027
1.20026
1.20024
1.20023
1.20021
1.2002
1.20018
1.20017
1.20016
1.20014
1.20013
1.20011
1.2001
1.20009
1.20007
1.20006
1.20004
1.20003
1.20002
1.2
1.19999
1.19998
1.19997
1.19995
1.19994
1.19993
1.19992
1.1999
1.19989
1.19988
1.19987
1.19985
1.19984
1.19983
1.19982
1.19981
1.19979
1.19978
1.19977
1.19976
1.19975
1.19974
1.19972
1.19971
1.1997
1.19969
1.19968
1.19967
1.19966
1.19965
1.19964
1.19962
1.19961
1.1996
1.19959
1.19958
1.19957
1.19956
1.19955
1.19954
1.19953
1.19952
1.19951
1.1995
1.19949
1.19948
1.19947
1.19945
1.19944
1.19943
1.19942
1.19941
)
;

boundaryField
{
    upperWall
    {
        type            calculated;
        value           nonuniform List<scalar> 
120
(
1.20187
1.20185
1.20182
1.20179
1.20175
1.2017
1.20165
1.20159
1.20153
1.20147
1.20142
1.20136
1.2013
1.20125
1.20119
1.20114
1.20109
1.20105
1.201
1.20096
1.20092
1.20088
1.20085
1.20081
1.20078
1.20075
1.20072
1.2007
1.20067
1.20065
1.20063
1.2006
1.20058
1.20056
1.20054
1.20052
1.2005
1.20048
1.20047
1.20045
1.20043
1.20041
1.2004
1.20038
1.20036
1.20035
1.20033
1.20031
1.2003
1.20028
1.20027
1.20025
1.20024
1.20022
1.20021
1.20019
1.20018
1.20016
1.20015
1.20014
1.20012
1.20011
1.20009
1.20008
1.20007
1.20005
1.20004
1.20002
1.20001
1.2
1.19998
1.19997
1.19996
1.19995
1.19993
1.19992
1.19991
1.19989
1.19988
1.19987
1.19986
1.19984
1.19983
1.19982
1.19981
1.19979
1.19978
1.19977
1.19976
1.19975
1.19973
1.19972
1.19971
1.1997
1.19969
1.19968
1.19966
1.19965
1.19964
1.19963
1.19962
1.19961
1.1996
1.19958
1.19957
1.19956
1.19955
1.19954
1.19953
1.19952
1.19951
1.1995
1.19949
1.19948
1.19946
1.19945
1.19944
1.19943
1.19942
1.19941
)
;
    }
    lowerWall
    {
        type            calculated;
        value           nonuniform List<scalar> 
120
(
0.806794
0.979643
1.04504
1.07234
1.08482
1.09019
1.09147
1.09034
1.08746
1.08361
1.07867
1.07338
1.06766
1.06151
1.05514
1.04861
1.04197
1.03528
1.02857
1.02188
1.01525
1.00869
1.00223
0.995878
0.989658
0.983576
0.97764
0.971854
0.966221
0.960741
0.955413
0.950235
0.945202
0.94031
0.935555
0.930931
0.926432
0.922053
0.917786
0.913628
0.909572
0.905614
0.901747
0.897967
0.89427
0.890651
0.887106
0.883631
0.880223
0.876877
0.873591
0.87036
0.867184
0.864058
0.86098
0.857948
0.854961
0.852017
0.849113
0.84625
0.843424
0.840636
0.837884
0.835166
0.832481
0.829828
0.827206
0.824614
0.822051
0.819515
0.817007
0.814526
0.812072
0.809643
0.807241
0.804865
0.802514
0.800188
0.797885
0.795606
0.793349
0.791113
0.788897
0.786701
0.784525
0.782369
0.780232
0.778116
0.776021
0.773947
0.771893
0.769861
0.767848
0.765854
0.763876
0.761914
0.759966
0.758031
0.75611
0.754202
0.752309
0.750431
0.748573
0.746733
0.744915
0.743112
0.741333
0.73956
0.737814
0.736053
0.734335
0.732567
0.730889
0.729088
0.727498
0.725608
0.724221
0.722088
0.721184
0.718377
)
;
    }
    inlet
    {
        type            calculated;
        value           nonuniform List<scalar> 
12
(
1.20188
1.20182
1.20179
1.20176
1.20175
1.20174
1.20174
1.20175
1.20176
1.20178
1.20182
1.20187
)
;
    }
    outlet
    {
        type            calculated;
        value           nonuniform List<scalar> 
12
(
0.794615
0.962884
1.10636
1.17992
1.19836
1.20007
1.20008
1.20007
1.19988
1.19953
1.19942
1.19941
)
;
    }
    frontAndBack
    {
        type            empty;
    }
}


// ************************************************************************* //
