/*--------------------------------*- C++ -*----------------------------------*\
  =========                 |
  \\      /  F ield         | OpenFOAM: The Open Source CFD Toolbox
   \\    /   O peration     | Website:  https://openfoam.org
    \\  /    A nd           | Version:  7
     \\/     M anipulation  |
\*---------------------------------------------------------------------------*/
FoamFile
{
    version     2.0;
    format      ascii;
    class       volScalarField;
    location    "2.5";
    object      alphat;
}
// * * * * * * * * * * * * * * * * * * * * * * * * * * * * * * * * * * * * * //

dimensions      [1 -1 -1 0 0 0 0];

internalField   nonuniform List<scalar> 
1800
(
0.00155746
0.00357081
0.00412861
0.00409202
0.00391978
0.00367041
0.00346882
0.00331499
0.00319885
0.0031086
0.00303584
0.00297506
0.0029228
0.0028769
0.00283596
0.00279916
0.0027658
0.00273546
0.00270768
0.00268227
0.00265873
0.00263719
0.00261683
0.00259849
0.00258035
0.00256496
0.00254795
0.00253578
0.00251647
0.00253002
0.000278702
0.00112501
0.00197061
0.00238622
0.00257714
0.00264399
0.00265903
0.00265598
0.00264717
0.00263242
0.00261656
0.00259996
0.00258296
0.00256623
0.00254996
0.00253435
0.00251925
0.00250492
0.0024909
0.00247784
0.00246465
0.002453
0.0024402
0.00243042
0.00241727
0.00241005
0.00239593
0.00239029
0.00237242
0.00237307
3.07792e-05
0.000219319
0.000496936
0.000821741
0.00106738
0.00122341
0.00132346
0.00139152
0.00144187
0.00148218
0.00151622
0.00154713
0.00157584
0.00160302
0.00162793
0.00165163
0.00167283
0.00169332
0.00171088
0.00172854
0.00174256
0.00175792
0.00176851
0.00178213
0.00178954
0.00180169
0.00180662
0.00181691
0.00181979
0.00182652
1.363e-05
3.57792e-05
9.38688e-05
0.000178789
0.000285411
0.000382808
0.000458567
0.00051946
0.000568295
0.00061001
0.000645692
0.000678242
0.000707495
0.00073559
0.000761576
0.000787236
0.000811304
0.00083543
0.000858272
0.000881262
0.000903272
0.000925194
0.000946664
0.000967324
0.000988588
0.00100751
0.001029
0.00104537
0.00106753
0.00108063
1.34242e-05
1.46132e-05
2.02098e-05
3.29346e-05
5.37235e-05
7.60179e-05
0.000103621
0.000123973
0.000146585
0.000164013
0.000183702
0.000199449
0.000217507
0.000232161
0.000249184
0.000263003
0.000279273
0.000292398
0.000308141
0.000320705
0.000336127
0.00034824
0.000363546
0.000375269
0.000390678
0.000401965
0.000417738
0.000428298
0.000444803
0.000454453
1.33945e-05
1.39381e-05
1.5504e-05
1.69117e-05
1.95984e-05
2.12301e-05
2.44552e-05
2.63956e-05
3.01175e-05
3.22834e-05
3.64297e-05
3.88374e-05
4.34559e-05
4.61005e-05
5.11767e-05
5.40223e-05
5.94904e-05
6.25027e-05
6.83014e-05
7.14591e-05
7.75467e-05
8.0841e-05
8.719e-05
9.06256e-05
9.71263e-05
0.000100894
0.00010752
0.000111457
0.000118371
0.000122402
1.33945e-05
1.3938e-05
1.5504e-05
1.69124e-05
1.96737e-05
2.12771e-05
2.45535e-05
2.64593e-05
3.02e-05
3.23411e-05
3.65037e-05
3.8891e-05
4.35236e-05
4.61498e-05
5.1238e-05
5.40664e-05
5.95447e-05
6.25395e-05
6.83447e-05
7.14819e-05
7.75694e-05
8.08357e-05
8.71742e-05
9.0563e-05
9.71254e-05
0.000100625
0.000107369
0.000110944
0.000117798
0.000121546
1.34241e-05
1.4614e-05
2.02166e-05
3.29515e-05
5.50977e-05
7.51784e-05
0.000104906
0.000122989
0.000147503
0.000163267
0.000184458
0.000198823
0.000218167
0.000231602
0.000249781
0.000262488
0.000279824
0.00029191
0.000308644
0.000320224
0.000336569
0.000347745
0.000363888
0.000374724
0.000390836
0.000401298
0.000417534
0.000427375
0.00044387
0.00045304
1.36308e-05
3.57974e-05
9.39042e-05
0.000178841
0.000285588
0.000382757
0.000458713
0.0005194
0.000568437
0.000609933
0.000645847
0.000678143
0.000707671
0.00073546
0.000761777
0.000787065
0.000811535
0.000835201
0.000858531
0.00088095
0.000903545
0.000924767
0.000946912
0.000966732
0.000988713
0.00100668
0.00102878
0.00104418
0.00106645
0.00107891
3.08045e-05
0.000219373
0.000497003
0.000821795
0.00106742
0.00122345
0.00132349
0.00139154
0.00144189
0.00148219
0.00151624
0.00154714
0.00157586
0.00160302
0.00162794
0.00165162
0.00167284
0.00169328
0.00171088
0.00172846
0.00174255
0.00175775
0.00176845
0.00178183
0.00178936
0.00180122
0.00180611
0.001816
0.00181877
0.00182489
0.000278787
0.0011251
0.00197064
0.00238623
0.00257713
0.00264397
0.002659
0.00265595
0.00264714
0.00263238
0.00261652
0.00259992
0.00258292
0.00256619
0.00254991
0.00253431
0.00251919
0.00250489
0.00249083
0.00247783
0.00246455
0.00245303
0.00244008
0.00243049
0.00241714
0.00241011
0.00239589
0.00239024
0.00237259
0.00237308
0.00155742
0.00357071
0.0041285
0.00409191
0.00391967
0.00367031
0.00346872
0.0033149
0.00319877
0.00310852
0.00303576
0.00297499
0.00292272
0.00287684
0.0028359
0.00279912
0.00276575
0.00273546
0.00270765
0.00268234
0.00265875
0.00263742
0.00261694
0.00259904
0.00258064
0.00256611
0.00254867
0.00253788
0.00251888
0.00253222
0.00648307
0.00682626
0.00677592
0.00670497
0.00665596
0.00661762
0.00658793
0.00656674
0.00655277
0.00654412
0.00653905
0.00653651
0.00653527
0.00653496
0.00653499
0.00653513
0.00653525
0.00653529
0.00653522
0.00653507
0.00653483
0.00653452
0.00653416
0.00653377
0.00653334
0.0065329
0.00653244
0.00653198
0.00653152
0.00653108
0.00653064
0.00653022
0.00652981
0.00652941
0.00652902
0.00652864
0.00652826
0.00652789
0.00652754
0.0065272
0.00652687
0.00652657
0.00652628
0.006526
0.00652573
0.00652548
0.00652524
0.00652501
0.00652479
0.00652459
0.0065244
0.00652424
0.0065241
0.00652398
0.00652387
0.00652378
0.00652371
0.00652365
0.00652361
0.00652359
0.00652358
0.00652361
0.00652365
0.00652372
0.0065238
0.0065239
0.00652402
0.00652416
0.00652431
0.00652448
0.00652466
0.00652487
0.0065251
0.00652535
0.00652562
0.0065259
0.00652619
0.00652649
0.00652681
0.00652714
0.00652749
0.00652784
0.00652822
0.0065286
0.006529
0.00652941
0.00652983
0.00653026
0.00653069
0.00653113
0.00653158
0.00653203
0.00653249
0.00653297
0.00653345
0.00653394
0.00653444
0.00653495
0.00653547
0.006536
0.00653653
0.00653706
0.0065376
0.00653814
0.00653868
0.00653923
0.00653978
0.00654033
0.00654088
0.00654144
0.00654198
0.00654256
0.00654308
0.0065437
0.00654418
0.00654486
0.00654525
0.00654608
0.0065463
0.00654736
0.00645336
0.00719028
0.00731094
0.00729705
0.00726914
0.0072457
0.00722963
0.00721939
0.00721371
0.0072111
0.00720995
0.00721011
0.00721051
0.00721101
0.00721142
0.00721168
0.00721178
0.00721173
0.00721155
0.0072113
0.00721097
0.00721061
0.00721023
0.00720983
0.00720942
0.007209
0.00720858
0.00720817
0.00720776
0.00720737
0.00720699
0.00720663
0.00720629
0.00720596
0.00720564
0.00720534
0.00720504
0.00720474
0.00720446
0.00720419
0.00720393
0.00720369
0.00720347
0.00720326
0.00720307
0.00720289
0.00720272
0.00720256
0.00720241
0.00720228
0.00720217
0.00720207
0.007202
0.00720195
0.00720192
0.0072019
0.00720191
0.00720192
0.00720196
0.00720201
0.00720208
0.00720217
0.00720229
0.00720243
0.0072026
0.00720278
0.00720298
0.0072032
0.00720344
0.00720369
0.00720396
0.00720425
0.00720456
0.0072049
0.00720525
0.00720562
0.007206
0.0072064
0.00720681
0.00720723
0.00720766
0.00720811
0.00720858
0.00720906
0.00720955
0.00721005
0.00721056
0.00721108
0.00721161
0.00721214
0.00721268
0.00721323
0.00721378
0.00721435
0.00721492
0.0072155
0.00721609
0.00721669
0.0072173
0.00721791
0.00721853
0.00721916
0.00721978
0.00722041
0.00722104
0.00722168
0.00722231
0.00722295
0.00722357
0.00722422
0.00722484
0.00722551
0.0072261
0.0072268
0.00722734
0.00722813
0.00722855
0.00722949
0.00722978
0.00723091
0.00492284
0.00598329
0.00634509
0.00645747
0.00649593
0.00651517
0.00652972
0.00654231
0.00655318
0.00656212
0.00656882
0.00657366
0.00657681
0.00657869
0.00657966
0.00658
0.00657995
0.00657964
0.0065792
0.0065787
0.00657818
0.00657766
0.00657718
0.00657672
0.00657629
0.00657589
0.0065755
0.00657513
0.00657478
0.00657444
0.00657412
0.00657382
0.00657353
0.00657327
0.00657301
0.00657277
0.00657254
0.00657232
0.0065721
0.00657189
0.00657169
0.00657151
0.00657134
0.00657119
0.00657106
0.00657094
0.00657083
0.00657073
0.00657064
0.00657056
0.00657049
0.00657045
0.00657042
0.00657041
0.00657042
0.00657044
0.00657049
0.00657054
0.00657062
0.0065707
0.0065708
0.00657093
0.00657107
0.00657123
0.00657142
0.00657162
0.00657184
0.00657208
0.00657233
0.0065726
0.00657288
0.00657317
0.00657349
0.00657382
0.00657417
0.00657454
0.00657492
0.00657532
0.00657573
0.00657614
0.00657657
0.00657701
0.00657746
0.00657792
0.00657839
0.00657888
0.00657938
0.00657988
0.00658039
0.00658091
0.00658143
0.00658196
0.00658249
0.00658302
0.00658357
0.00658412
0.00658468
0.00658525
0.00658582
0.0065864
0.00658698
0.00658757
0.00658816
0.00658876
0.00658935
0.00658995
0.00659054
0.00659114
0.00659173
0.00659234
0.00659292
0.00659354
0.00659409
0.00659475
0.00659525
0.00659599
0.00659638
0.00659723
0.00659755
0.00659856
0.00273506
0.00405277
0.00477172
0.00512467
0.00530751
0.0054164
0.00549007
0.00554318
0.00558175
0.00560914
0.0056277
0.00563967
0.00564686
0.00565076
0.00565251
0.00565294
0.00565262
0.00565188
0.00565099
0.00565007
0.00564919
0.00564839
0.00564768
0.00564706
0.00564652
0.00564605
0.00564564
0.00564526
0.00564491
0.00564458
0.00564428
0.005644
0.00564374
0.0056435
0.00564328
0.00564307
0.00564288
0.00564269
0.00564251
0.00564233
0.00564216
0.00564201
0.00564186
0.00564173
0.00564162
0.00564152
0.00564144
0.00564136
0.00564129
0.00564123
0.00564118
0.00564114
0.00564111
0.00564111
0.00564112
0.00564115
0.0056412
0.00564126
0.00564134
0.00564142
0.00564152
0.00564163
0.00564175
0.0056419
0.00564206
0.00564225
0.00564245
0.00564267
0.00564289
0.00564313
0.00564338
0.00564365
0.00564392
0.00564421
0.00564452
0.00564485
0.00564519
0.00564554
0.0056459
0.00564627
0.00564665
0.00564703
0.00564743
0.00564784
0.00564825
0.00564868
0.00564912
0.00564957
0.00565002
0.00565048
0.00565094
0.0056514
0.00565187
0.00565234
0.00565282
0.0056533
0.00565379
0.00565428
0.00565478
0.00565529
0.0056558
0.00565631
0.00565683
0.00565735
0.00565787
0.00565839
0.00565891
0.00565944
0.00565995
0.00566048
0.00566098
0.00566153
0.00566201
0.00566259
0.00566302
0.00566367
0.00566401
0.00566474
0.00566504
0.00566592
0.00110224
0.0017623
0.00264596
0.00329413
0.00371617
0.00399108
0.00417355
0.0042965
0.00437947
0.00443478
0.00447076
0.00449336
0.00450684
0.00451428
0.00451788
0.00451908
0.00451897
0.00451804
0.00451692
0.00451566
0.00451444
0.00451334
0.00451239
0.00451155
0.00451086
0.00451028
0.00450979
0.00450936
0.00450897
0.00450863
0.00450831
0.00450802
0.00450775
0.00450751
0.00450729
0.0045071
0.00450691
0.00450674
0.00450657
0.0045064
0.00450624
0.00450608
0.00450593
0.0045058
0.00450568
0.00450557
0.00450548
0.0045054
0.00450532
0.00450525
0.00450518
0.00450513
0.00450509
0.00450506
0.00450505
0.00450506
0.00450508
0.00450512
0.00450517
0.00450522
0.00450528
0.00450536
0.00450544
0.00450554
0.00450566
0.00450579
0.00450595
0.00450611
0.00450629
0.00450648
0.00450667
0.00450687
0.00450708
0.00450731
0.00450754
0.0045078
0.00450806
0.00450834
0.00450863
0.00450892
0.00450922
0.00450953
0.00450984
0.00451016
0.00451049
0.00451083
0.00451118
0.00451154
0.0045119
0.00451227
0.00451265
0.00451302
0.0045134
0.00451378
0.00451416
0.00451454
0.00451493
0.00451532
0.00451572
0.00451613
0.00451653
0.00451694
0.00451736
0.00451777
0.00451819
0.00451861
0.00451903
0.00451945
0.00451986
0.0045203
0.00452069
0.00452114
0.00452152
0.004522
0.00452233
0.00452286
0.00452313
0.00452372
0.00452396
0.00452468
0.000294857
0.00049299
0.000850887
0.00133559
0.001849
0.00227393
0.00260086
0.00284105
0.00301216
0.00313134
0.00321265
0.00326701
0.00330256
0.0033252
0.00333916
0.00334736
0.00335189
0.00335406
0.00335483
0.00335484
0.00335435
0.00335371
0.00335303
0.00335236
0.00335175
0.00335123
0.00335076
0.00335037
0.00335002
0.00334971
0.00334944
0.00334919
0.00334896
0.00334876
0.00334857
0.00334841
0.00334826
0.00334812
0.00334799
0.00334786
0.00334773
0.00334761
0.0033475
0.0033474
0.00334731
0.00334725
0.00334719
0.00334714
0.0033471
0.00334706
0.00334702
0.00334699
0.00334697
0.00334695
0.00334695
0.00334696
0.00334699
0.00334702
0.00334707
0.00334712
0.00334718
0.00334724
0.00334731
0.00334738
0.00334747
0.00334758
0.0033477
0.00334783
0.00334796
0.00334811
0.00334825
0.0033484
0.00334856
0.00334872
0.00334889
0.00334908
0.00334927
0.00334948
0.00334969
0.00334991
0.00335013
0.00335035
0.00335058
0.00335081
0.00335105
0.0033513
0.00335155
0.00335182
0.00335208
0.00335236
0.00335263
0.00335291
0.00335318
0.00335346
0.00335374
0.00335402
0.0033543
0.00335459
0.00335488
0.00335517
0.00335547
0.00335577
0.00335607
0.00335638
0.00335668
0.00335699
0.0033573
0.00335762
0.00335791
0.00335824
0.00335852
0.00335888
0.00335913
0.00335951
0.00335973
0.00336015
0.00336034
0.00336077
0.00336096
0.0033615
0.000293905
0.000490808
0.000847413
0.00133116
0.00184691
0.0022738
0.00260221
0.00284357
0.00301572
0.00313579
0.00321789
0.00327297
0.0033092
0.00333249
0.00334708
0.0033559
0.00336102
0.0033638
0.00336514
0.00336568
0.00336577
0.00336565
0.00336547
0.0033653
0.00336517
0.00336511
0.0033651
0.00336514
0.00336521
0.00336532
0.00336544
0.00336558
0.00336573
0.00336589
0.00336606
0.00336624
0.00336643
0.00336661
0.00336679
0.00336696
0.00336713
0.0033673
0.00336747
0.00336764
0.00336782
0.003368
0.00336819
0.00336837
0.00336856
0.00336874
0.00336891
0.00336908
0.00336925
0.00336942
0.00336959
0.00336977
0.00336996
0.00337014
0.00337033
0.00337052
0.0033707
0.00337088
0.00337106
0.00337125
0.00337144
0.00337164
0.00337185
0.00337206
0.00337227
0.00337248
0.00337269
0.0033729
0.00337311
0.00337333
0.00337355
0.00337377
0.00337401
0.00337425
0.0033745
0.00337475
0.00337499
0.00337524
0.00337549
0.00337574
0.003376
0.00337626
0.00337652
0.00337679
0.00337707
0.00337734
0.00337762
0.00337789
0.00337817
0.00337844
0.00337872
0.00337899
0.00337927
0.00337956
0.00337984
0.00338014
0.00338043
0.00338073
0.00338103
0.00338134
0.00338164
0.00338195
0.00338225
0.00338258
0.00338287
0.0033832
0.00338348
0.00338383
0.00338408
0.00338446
0.00338468
0.0033851
0.00338529
0.00338572
0.00338591
0.00338645
0.00110165
0.0017597
0.00264185
0.00329323
0.00371882
0.00399646
0.00418102
0.0043058
0.00439029
0.00444699
0.00448427
0.00450811
0.00452279
0.0045314
0.0045361
0.0045384
0.0045393
0.00453945
0.00453924
0.00453892
0.00453862
0.00453839
0.00453829
0.00453829
0.0045384
0.00453859
0.00453885
0.00453915
0.00453947
0.00453981
0.00454017
0.00454053
0.0045409
0.00454129
0.00454168
0.00454207
0.00454246
0.00454284
0.00454321
0.00454357
0.00454392
0.00454426
0.00454461
0.00454495
0.00454529
0.00454563
0.00454597
0.0045463
0.00454663
0.00454695
0.00454726
0.00454757
0.00454788
0.00454819
0.0045485
0.00454882
0.00454914
0.00454945
0.00454977
0.00455008
0.00455038
0.00455068
0.00455099
0.00455129
0.00455161
0.00455192
0.00455225
0.00455257
0.0045529
0.00455323
0.00455355
0.00455387
0.0045542
0.00455453
0.00455487
0.00455521
0.00455556
0.00455592
0.00455628
0.00455663
0.00455699
0.00455735
0.00455771
0.00455807
0.00455844
0.00455882
0.0045592
0.00455959
0.00455997
0.00456036
0.00456074
0.00456113
0.00456151
0.00456189
0.00456228
0.00456266
0.00456305
0.00456344
0.00456384
0.00456424
0.00456464
0.00456505
0.00456547
0.00456588
0.0045663
0.00456671
0.00456713
0.00456755
0.00456796
0.00456839
0.00456879
0.00456924
0.00456961
0.00457009
0.00457042
0.00457095
0.00457122
0.0045718
0.00457205
0.00457277
0.00273883
0.00405041
0.00477383
0.00513129
0.00531767
0.00542924
0.00550514
0.00556022
0.00560052
0.00562952
0.00564959
0.00566297
0.00567149
0.00567666
0.00567962
0.00568121
0.00568197
0.0056823
0.00568242
0.00568247
0.00568253
0.00568264
0.00568282
0.00568307
0.00568337
0.00568372
0.0056841
0.0056845
0.0056849
0.00568532
0.00568574
0.00568616
0.00568659
0.00568703
0.00568748
0.00568793
0.00568837
0.0056888
0.00568922
0.00568964
0.00569005
0.00569045
0.00569086
0.00569127
0.00569169
0.00569211
0.00569252
0.00569293
0.00569333
0.00569372
0.00569411
0.0056945
0.00569489
0.00569529
0.00569569
0.0056961
0.00569651
0.00569691
0.00569731
0.00569771
0.00569811
0.0056985
0.0056989
0.00569931
0.00569972
0.00570014
0.00570057
0.00570099
0.00570142
0.00570184
0.00570227
0.00570269
0.00570312
0.00570355
0.005704
0.00570445
0.0057049
0.00570536
0.00570583
0.00570629
0.00570675
0.00570721
0.00570768
0.00570815
0.00570863
0.00570911
0.0057096
0.00571009
0.00571059
0.00571108
0.00571157
0.00571206
0.00571255
0.00571304
0.00571352
0.00571401
0.00571451
0.005715
0.00571551
0.00571601
0.00571652
0.00571704
0.00571755
0.00571807
0.00571859
0.00571911
0.00571963
0.00572016
0.00572067
0.0057212
0.0057217
0.00572225
0.00572273
0.00572331
0.00572373
0.00572438
0.00572472
0.00572545
0.00572574
0.00572662
0.00492608
0.00598775
0.00635608
0.00647292
0.00651454
0.00653636
0.00655316
0.00656781
0.00658054
0.00659128
0.00659967
0.00660603
0.00661066
0.00661392
0.0066162
0.00661778
0.00661889
0.00661971
0.00662035
0.00662088
0.00662136
0.00662183
0.0066223
0.00662277
0.00662325
0.00662374
0.00662422
0.0066247
0.00662518
0.00662565
0.00662613
0.00662661
0.00662709
0.00662759
0.00662808
0.00662857
0.00662906
0.00662953
0.00663
0.00663046
0.00663092
0.00663138
0.00663185
0.00663232
0.0066328
0.00663327
0.00663374
0.00663421
0.00663467
0.00663512
0.00663557
0.00663602
0.00663648
0.00663695
0.00663742
0.00663789
0.00663837
0.00663884
0.00663931
0.00663977
0.00664024
0.00664071
0.00664118
0.00664167
0.00664216
0.00664265
0.00664315
0.00664365
0.00664415
0.00664464
0.00664514
0.00664564
0.00664614
0.00664666
0.00664718
0.00664771
0.00664824
0.00664878
0.00664931
0.00664985
0.00665039
0.00665093
0.00665147
0.00665202
0.00665258
0.00665314
0.00665371
0.00665428
0.00665485
0.00665542
0.00665598
0.00665655
0.00665711
0.00665767
0.00665824
0.0066588
0.00665937
0.00665995
0.00666053
0.00666111
0.0066617
0.00666229
0.00666288
0.00666348
0.00666407
0.00666467
0.00666526
0.00666586
0.00666645
0.00666706
0.00666763
0.00666826
0.00666881
0.00666946
0.00666996
0.00667069
0.00667108
0.00667194
0.00667225
0.00667326
0.00645808
0.00720509
0.00733156
0.00732188
0.00729673
0.00727575
0.00726191
0.00725376
0.00724998
0.00724931
0.00724998
0.00725166
0.00725366
0.00725561
0.0072574
0.00725897
0.00726031
0.00726145
0.00726242
0.00726326
0.00726401
0.00726469
0.00726533
0.00726593
0.00726651
0.00726706
0.00726759
0.00726811
0.00726861
0.00726911
0.0072696
0.0072701
0.00727061
0.00727112
0.00727163
0.00727213
0.00727263
0.00727313
0.00727361
0.00727409
0.00727457
0.00727506
0.00727554
0.00727604
0.00727653
0.00727703
0.00727751
0.007278
0.00727847
0.00727895
0.00727942
0.0072799
0.00728039
0.00728089
0.00728139
0.00728189
0.00728239
0.00728289
0.00728339
0.00728388
0.00728438
0.00728488
0.00728539
0.0072859
0.00728643
0.00728695
0.00728748
0.00728801
0.00728854
0.00728907
0.00728959
0.00729013
0.00729067
0.00729122
0.00729177
0.00729233
0.0072929
0.00729346
0.00729403
0.0072946
0.00729516
0.00729574
0.00729632
0.0072969
0.0072975
0.00729809
0.0072987
0.0072993
0.00729991
0.00730051
0.00730111
0.00730171
0.0073023
0.0073029
0.0073035
0.00730411
0.00730472
0.00730533
0.00730595
0.00730657
0.00730719
0.00730782
0.00730845
0.00730908
0.00730971
0.00731034
0.00731097
0.00731161
0.00731224
0.00731289
0.0073135
0.00731417
0.00731476
0.00731546
0.007316
0.00731678
0.00731721
0.00731814
0.00731844
0.00731956
0.00649149
0.00684784
0.0068004
0.0067331
0.0066865
0.0066501
0.00662224
0.00660283
0.00659057
0.00658358
0.00658005
0.00657889
0.00657909
0.00657999
0.00658124
0.00658254
0.00658377
0.00658487
0.00658583
0.00658666
0.00658738
0.00658802
0.00658859
0.0065891
0.00658957
0.00659001
0.00659041
0.0065908
0.00659118
0.00659155
0.00659191
0.00659228
0.00659265
0.00659303
0.0065934
0.00659377
0.00659414
0.0065945
0.00659486
0.00659522
0.00659558
0.00659594
0.00659631
0.00659669
0.00659707
0.00659744
0.00659782
0.00659819
0.00659856
0.00659893
0.0065993
0.00659968
0.00660006
0.00660045
0.00660085
0.00660124
0.00660164
0.00660204
0.00660244
0.00660283
0.00660324
0.00660364
0.00660406
0.00660448
0.00660491
0.00660533
0.00660577
0.0066062
0.00660663
0.00660706
0.0066075
0.00660794
0.00660839
0.00660884
0.0066093
0.00660977
0.00661023
0.0066107
0.00661117
0.00661164
0.00661212
0.0066126
0.00661308
0.00661357
0.00661407
0.00661457
0.00661508
0.00661558
0.00661609
0.0066166
0.0066171
0.00661761
0.00661812
0.00661863
0.00661914
0.00661966
0.00662018
0.0066207
0.00662123
0.00662177
0.0066223
0.00662284
0.00662338
0.00662393
0.00662447
0.00662502
0.00662556
0.00662612
0.00662666
0.00662723
0.00662777
0.00662834
0.00662887
0.00662948
0.00662996
0.00663064
0.00663102
0.00663185
0.00663207
0.00663313
)
;

boundaryField
{
    upperWall
    {
        type            zeroGradient;
    }
    lowerWall
    {
        type            zeroGradient;
    }
    heatedWall
    {
        type            zeroGradient;
    }
    inlet
    {
        type            zeroGradient;
    }
    outlet
    {
        type            zeroGradient;
    }
    frontAndBack
    {
        type            empty;
    }
}


// ************************************************************************* //
