/*--------------------------------*- C++ -*----------------------------------*\
  =========                 |
  \\      /  F ield         | OpenFOAM: The Open Source CFD Toolbox
   \\    /   O peration     | Website:  https://openfoam.org
    \\  /    A nd           | Version:  7
     \\/     M anipulation  |
\*---------------------------------------------------------------------------*/
FoamFile
{
    version     2.0;
    format      ascii;
    class       surfaceScalarField;
    location    "4.45";
    object      phi;
}
// * * * * * * * * * * * * * * * * * * * * * * * * * * * * * * * * * * * * * //

dimensions      [1 0 -1 0 0 0 0];

internalField   nonuniform List<scalar> 
3438
(
0.0128019
0.00109969
0.0108063
0.00206158
0.00884202
0.00202972
0.00728982
0.00161727
0.00620779
0.00114664
0.00551401
0.000757774
0.00508272
0.000494658
0.00481521
0.000330229
0.00464436
0.000233013
0.0045268
0.000179098
0.00443825
0.000149462
0.00436544
0.000132985
0.00430148
0.000123262
0.00424321
0.000116705
0.00418938
0.000111308
0.00413935
0.000106438
0.00409267
0.00010188
0.00404919
9.74034e-05
0.00400873
9.31385e-05
0.00397107
8.9133e-05
0.00393601
8.52498e-05
0.00390308
8.17438e-05
0.00387231
7.82456e-05
0.00384305
7.55169e-05
0.00381604
7.20611e-05
0.00378921
7.05503e-05
0.00376729
6.41217e-05
0.00374074
6.73544e-05
0.00376741
1.28807e-05
7.95572e-05
0.00372607
0.0141782
0.000817986
0.0145271
0.00177407
0.0145174
0.00210035
0.0142149
0.00198041
0.01377
0.00165167
0.0133023
0.00128511
0.0128675
0.00098851
0.0124815
0.000774628
0.0121459
0.000626546
0.0118557
0.000526713
0.011604
0.000457981
0.0113843
0.000408669
0.0111911
0.00037171
0.0110199
0.000342253
0.0108675
0.000317325
0.0107307
0.000295722
0.0106075
0.000276487
0.0104956
0.000259499
0.0103938
0.000243902
0.0103004
0.000230489
0.010215
0.000217407
0.0101352
0.000207119
0.0100623
0.000195346
0.00999195
0.000188982
0.00992999
0.00017603
0.00986486
0.000176467
0.0098149
0.000153452
0.00974722
0.000173113
0.00969281
0.00010422
0.000195313
0.00961248
0.0140702
0.000635086
0.0145686
0.00132818
0.0151149
0.00160629
0.0155558
0.00159153
0.0158432
0.00141588
0.0159957
0.00118375
0.0160545
0.000980433
0.0160523
0.000827094
0.0160128
0.000715733
0.0159509
0.000637974
0.0158755
0.000582165
0.0157918
0.000540529
0.0157032
0.000507643
0.0156119
0.000480107
0.0155196
0.00045555
0.0154272
0.000433092
0.0153357
0.000411978
0.0152456
0.000392629
0.0151577
0.000373895
0.0150719
0.000357426
0.0149891
0.000340268
0.0149084
0.000326926
0.0148317
0.000310058
0.0147559
0.000301761
0.014686
0.000282067
0.0146144
0.000283126
0.0145508
0.000250955
0.0144831
0.000273504
0.0144114
0.000207591
0.000295397
0.0143416
0.0140029
0.000507213
0.0144149
0.000956266
0.0149208
0.00114042
0.0154172
0.00113495
0.0158429
0.00102979
0.0161781
0.000887751
0.0164385
0.000759002
0.0166423
0.000661856
0.0168046
0.000591618
0.0169384
0.000542154
0.0170512
0.000506738
0.0171479
0.000480647
0.0172316
0.000460267
0.0173039
0.000443403
0.0173663
0.000428233
0.0174197
0.000414099
0.0174648
0.000400454
0.0175024
0.000387883
0.0175333
0.000375201
0.017558
0.000364221
0.0175772
0.000351846
0.0175913
0.000342863
0.0176009
0.000329637
0.0176064
0.00032469
0.0176077
0.000308429
0.017607
0.000310725
0.0175989
0.000285062
0.0175953
0.000302148
0.0175647
0.000262394
0.000319197
0.0175641
0.0139867
0.000380685
0.014364
0.000604088
0.0148329
0.000696541
0.0152972
0.000695632
0.0157068
0.00064497
0.0160451
0.00057412
0.0163199
0.00050874
0.0165463
0.00045974
0.0167387
0.000423329
0.0169071
0.00039765
0.0170589
0.000378427
0.0171988
0.000363963
0.0173296
0.000352225
0.0174529
0.00034239
0.0175698
0.000333254
0.0176809
0.000324379
0.0177867
0.000315698
0.0178875
0.000307673
0.0179834
0.00029943
0.018075
0.000292353
0.0181622
0.000284098
0.0182457
0.000278196
0.0183245
0.000269307
0.018401
0.000266116
0.0184714
0.000255537
0.018542
0.000257033
0.0186018
0.000241693
0.0186682
0.000251394
0.0187143
0.000231311
0.000261446
0.0187864
0.0139718
0.000251958
0.0143316
0.000252663
0.014785
0.000251524
0.0152388
0.000250186
0.0156436
0.000248546
0.0159795
0.000246693
0.016252
0.000244592
0.0164777
0.000242454
0.0166693
0.000239983
0.0168376
0.000237648
0.0169894
0.00023472
0.0171299
0.000231489
0.017262
0.000228038
0.0173874
0.000224539
0.0175074
0.000220677
0.0176224
0.000216506
0.0177331
0.00021209
0.0178399
0.000207772
0.0179429
0.000203268
0.018043
0.000199075
0.0181393
0.00019445
0.0182337
0.000190491
0.0183241
0.000185455
0.018414
0.000182605
0.0184982
0.000177369
0.0185845
0.000176542
0.0186613
0.000170503
0.0187442
0.000173861
0.0188157
0.000164649
0.000175949
0.0189058
0.0139719
0.00010618
0.0143315
-0.000115767
0.0147847
-0.000210627
0.0152385
-0.000212318
0.0156433
-0.000164823
0.0159791
-9.75627e-05
0.0162517
-3.62364e-05
0.0164773
8.69616e-06
0.016669
4.02177e-05
0.0168371
6.16469e-05
0.0169888
7.51254e-05
0.0171293
8.33298e-05
0.0172614
8.83587e-05
0.0173868
9.14614e-05
0.0175067
9.31879e-05
0.0176217
9.38988e-05
0.0177323
9.41216e-05
0.0178392
9.37591e-05
0.0179422
9.33362e-05
0.0180422
9.23529e-05
0.0181385
9.16522e-05
0.0182329
8.98967e-05
0.0183234
8.91975e-05
0.0184134
8.68536e-05
0.0184976
8.74847e-05
0.018584
8.44527e-05
0.018661
8.79518e-05
0.018744
8.55316e-05
0.0188153
8.78382e-05
8.12874e-05
0.0189046
0.0139863
-7.0519e-05
0.0143635
-0.000518552
0.0148323
-0.000704834
0.0152965
-0.000701665
0.0157059
-0.000599276
0.0160442
-0.000460499
0.0163189
-0.000335317
0.0165453
-0.000241882
0.0167375
-0.00017584
0.0169059
-0.000130493
0.0170576
-0.000100113
0.0171972
-7.96793e-05
0.0173277
-6.53422e-05
0.0174509
-5.45592e-05
0.0175678
-4.60543e-05
0.0176788
-3.90955e-05
0.0177845
-3.30278e-05
0.0178853
-2.79782e-05
0.0179813
-2.30924e-05
0.0180729
-1.93241e-05
0.0181601
-1.49412e-05
0.0182438
-1.27644e-05
0.0183226
-8.15947e-06
0.0183994
-7.91133e-06
0.0184701
-6.96962e-07
0.0185414
-3.77287e-06
0.0186023
1.03717e-05
0.01867
1.99448e-06
0.0187177
2.4548e-05
-3.57911e-06
0.0187876
0.0140024
-0.000278188
0.0144141
-0.000970731
0.0149198
-0.0012507
0.015416
-0.00123778
0.0158415
-0.00106437
0.0161766
-0.00083491
0.0164368
-0.000634454
0.0166406
-0.000484143
0.0168028
-0.000376122
0.0169364
-0.000301856
0.017049
-0.000250097
0.0171454
-0.000213126
0.0172287
-0.000185247
0.0173009
-0.000162665
0.0173632
-0.000143547
0.0174164
-0.000126865
0.0174615
-0.000111956
0.0174992
-9.86836e-05
0.0175302
-8.64336e-05
0.0175549
-7.56736e-05
0.0175744
-6.53093e-05
0.0175887
-5.71648e-05
0.017599
-4.78222e-05
0.0176051
-4.25779e-05
0.017608
-3.13414e-05
0.0176087
-3.12627e-05
0.0176043
-1.09259e-05
0.0176032
-2.19931e-05
0.0175778
2.58741e-05
-2.3497e-05
0.0175745
0.0140694
-0.000565332
0.0145675
-0.00152129
0.0151136
-0.00184899
0.0155543
-0.0017303
0.0158414
-0.00140313
0.0159938
-0.00103845
0.0160525
-0.000743861
0.0160501
-0.00053209
0.0160105
-0.000386327
0.0159483
-0.000289004
0.0158726
-0.000223106
0.0157885
-0.000177077
0.0156996
-0.000143686
0.0156081
-0.000117743
0.0155156
-9.66739e-05
0.015423
-7.91398e-05
0.0153315
-6.42775e-05
0.0152415
-5.15872e-05
0.0151537
-4.0624e-05
0.0150681
-3.12097e-05
0.0149857
-2.30306e-05
0.0149057
-1.62941e-05
0.0148299
-1.0088e-05
0.0147558
-5.5487e-06
0.0146877
6.06062e-07
0.0146197
1.82901e-06
0.0145603
1.4692e-05
0.0144998
5.77013e-06
0.0144363
5.79029e-05
9.87813e-06
0.0143742
0.0141773
-0.00096881
0.0145259
-0.00193073
0.014516
-0.00189965
0.0142132
-0.00148783
0.013768
-0.00101799
0.0133
-0.000630088
0.0128651
-0.000368001
0.012479
-0.000204657
0.0121431
-0.000108622
0.0118526
-5.60301e-05
0.0116004
-2.78516e-05
0.0113804
-1.30868e-05
0.0111868
-5.21976e-06
0.0110154
-5.59047e-07
0.0108627
2.93128e-06
0.0107258
5.6548e-06
0.0106024
8.03592e-06
0.0104908
1.01916e-05
0.0103892
1.21318e-05
0.0102962
1.39425e-05
0.010211
1.5414e-05
0.0101323
1.68143e-05
0.0100601
1.7726e-05
0.0099924
1.88989e-05
0.00993139
1.94931e-05
0.00987202
2.03887e-05
0.00982435
2.28936e-05
0.00977085
2.14136e-05
0.00972294
6.95067e-05
1.49944e-05
0.00968305
0.0128008
0.0108049
0.00884039
0.00728784
0.00620544
0.00551139
0.00507992
0.00481229
0.00464117
0.00452327
0.00443424
0.00436101
0.00429675
0.00423821
0.00418411
0.00413385
0.00408715
0.0040438
0.0040035
0.00396608
0.00393126
0.00389907
0.00386909
0.00384145
0.00381563
0.0037921
0.00377252
0.00375305
0.00378343
0.00375931
0.00361901
0.000235868
0.00355164
0.00017257
0.00348205
0.000154263
0.00343989
0.000108982
0.00340856
8.6197e-05
0.00338226
6.88712e-05
0.00336181
5.15943e-05
0.00334723
3.78215e-05
0.00333701
2.65058e-05
0.00333003
1.8101e-05
0.00332547
1.25248e-05
0.00332221
7.96583e-06
0.00332003
5.04813e-06
0.00331835
2.90858e-06
0.00331699
1.70349e-06
0.00331584
1.35124e-06
0.0033149
1.44774e-06
0.00331393
1.29266e-06
0.00331291
1.14652e-06
0.00331196
1.24139e-06
0.00331098
1.19673e-06
0.00330997
1.1645e-06
0.003309
1.3111e-06
0.00330806
1.49804e-06
0.00330713
1.56804e-06
0.00330627
1.55101e-06
0.00330539
1.26724e-06
0.00330446
9.24887e-07
0.00330359
9.55943e-07
0.00330283
1.19397e-06
0.00330205
1.07461e-06
0.00330127
9.07015e-07
0.00330055
8.52316e-07
0.00329981
6.51905e-07
0.00329909
5.12994e-07
0.00329838
4.71804e-07
0.00329768
5.4225e-07
0.00329705
7.68722e-07
0.00329648
8.98285e-07
0.00329587
6.98155e-07
0.00329521
4.69821e-07
0.00329461
5.19676e-07
0.00329406
6.42546e-07
0.00329349
6.41772e-07
0.00329294
6.19025e-07
0.0032924
6.08292e-07
0.00329186
5.74255e-07
0.00329134
5.23533e-07
0.00329082
4.37407e-07
0.00329028
3.80686e-07
0.00328977
4.84519e-07
0.00328932
6.33839e-07
0.00328886
5.88735e-07
0.00328836
4.33183e-07
0.00328788
3.80216e-07
0.00328742
4.05357e-07
0.00328696
4.35791e-07
0.00328651
4.83723e-07
0.00328607
5.13011e-07
0.00328563
5.02547e-07
0.00328521
4.79849e-07
0.00328479
4.06505e-07
0.00328435
2.90266e-07
0.00328391
2.61555e-07
0.0032835
3.52752e-07
0.00328311
4.50102e-07
0.00328272
4.86134e-07
0.00328233
4.70313e-07
0.00328194
4.185e-07
0.00328154
3.70851e-07
0.00328116
3.61068e-07
0.00328078
3.64288e-07
0.0032804
3.59602e-07
0.00328003
3.74533e-07
0.00327967
4.08319e-07
0.00327933
4.03002e-07
0.00327898
3.43758e-07
0.00327862
2.92284e-07
0.00327827
2.94071e-07
0.00327793
3.39197e-07
0.00327761
3.93912e-07
0.00327729
4.19339e-07
0.00327696
4.05705e-07
0.00327664
3.81916e-07
0.00327633
3.60203e-07
0.00327601
3.29114e-07
0.0032757
3.08228e-07
0.00327539
3.36219e-07
0.0032751
4.07549e-07
0.00327482
4.69255e-07
0.00327454
4.75577e-07
0.00327426
4.3125e-07
0.00327398
3.86583e-07
0.00327371
3.84582e-07
0.00327345
4.18871e-07
0.00327319
4.62774e-07
0.00327294
5.12808e-07
0.00327271
5.668e-07
0.00327249
5.97563e-07
0.00327228
5.89061e-07
0.00327207
5.70393e-07
0.00327187
5.80887e-07
0.00327168
6.33698e-07
0.00327151
7.10027e-07
0.00327135
7.8389e-07
0.00327121
8.27886e-07
0.00327107
8.57811e-07
0.00327095
8.81413e-07
0.00327083
9.22316e-07
0.00327074
9.40428e-07
0.00327064
1.00111e-06
0.00327059
1.04714e-06
0.00327051
1.19261e-06
0.00327053
1.21848e-06
0.00327045
1.38262e-06
0.00327056
1.25499e-06
0.00327041
1.5189e-06
0.00327066
1.21083e-06
0.00327039
1.77514e-06
1.29829e-06
0.00931091
0.00065829
0.00912189
0.000461636
0.00897402
0.000383411
0.0088721
0.000275503
0.00880079
0.0002099
0.00874568
0.000164684
0.00870396
0.000123398
0.00867435
9.02046e-05
0.00865383
6.2906e-05
0.00863982
4.30058e-05
0.00863013
2.998e-05
0.00862314
1.96429e-05
0.00861812
1.30242e-05
0.00861415
8.27141e-06
0.00861079
5.57281e-06
0.00860781
4.68441e-06
0.0086051
4.77328e-06
0.00860241
4.40829e-06
0.0085997
4.07765e-06
0.00859707
4.23937e-06
0.00859444
4.11843e-06
0.00859182
4.00489e-06
0.00858926
4.2469e-06
0.00858677
4.54267e-06
0.00858434
4.60146e-06
0.00858201
4.55207e-06
0.00857972
3.96046e-06
0.00857742
3.2565e-06
0.00857522
3.22468e-06
0.00857317
3.65241e-06
0.00857114
3.40054e-06
0.00856915
3.05181e-06
0.00856725
2.87867e-06
0.00856538
2.45689e-06
0.00856354
2.1503e-06
0.00856175
2.04762e-06
0.00856
2.13666e-06
0.00855835
2.55982e-06
0.00855677
2.79038e-06
0.00855518
2.36826e-06
0.00855358
1.90236e-06
0.00855204
1.97767e-06
0.00855057
2.19731e-06
0.00854911
2.17634e-06
0.00854768
2.11349e-06
0.00854628
2.07511e-06
0.0085449
1.99197e-06
0.00854355
1.87715e-06
0.00854221
1.69382e-06
0.00854087
1.56767e-06
0.00853957
1.75606e-06
0.00853835
2.03529e-06
0.00853712
1.93495e-06
0.00853588
1.61877e-06
0.00853466
1.50322e-06
0.00853347
1.54085e-06
0.00853229
1.58918e-06
0.00853114
1.67229e-06
0.00853
1.71947e-06
0.00852887
1.68915e-06
0.00852777
1.63541e-06
0.00852668
1.48308e-06
0.00852558
1.2471e-06
0.00852449
1.18113e-06
0.00852344
1.35047e-06
0.00852241
1.53259e-06
0.00852139
1.5951e-06
0.00852038
1.55652e-06
0.00851938
1.44764e-06
0.00851838
1.34684e-06
0.0085174
1.32014e-06
0.00851643
1.31904e-06
0.00851547
1.30243e-06
0.00851452
1.32418e-06
0.00851359
1.3832e-06
0.00851268
1.36608e-06
0.00851178
1.24347e-06
0.00851087
1.13578e-06
0.00850998
1.1319e-06
0.0085091
1.21289e-06
0.00850825
1.31282e-06
0.0085074
1.35553e-06
0.00850656
1.32172e-06
0.00850573
1.26785e-06
0.00850491
1.21786e-06
0.0085041
1.14919e-06
0.0085033
1.09987e-06
0.00850251
1.14571e-06
0.00850174
1.27628e-06
0.00850099
1.38795e-06
0.00850026
1.39099e-06
0.00849953
1.29438e-06
0.00849881
1.19638e-06
0.00849811
1.18116e-06
0.00849743
1.23636e-06
0.00849676
1.3098e-06
0.00849612
1.39461e-06
0.0084955
1.48686e-06
0.00849491
1.533e-06
0.00849434
1.50174e-06
0.00849378
1.44934e-06
0.00849325
1.45372e-06
0.00849275
1.53941e-06
0.00849228
1.67173e-06
0.00849184
1.79672e-06
0.00849143
1.86537e-06
0.00849105
1.90158e-06
0.0084907
1.9308e-06
0.00849038
1.98389e-06
0.0084901
2.00524e-06
0.00848984
2.08933e-06
0.00848964
2.17319e-06
0.00848946
2.40888e-06
0.00848937
2.47078e-06
0.00848925
2.71572e-06
0.00848927
2.51296e-06
0.00848917
2.90226e-06
0.00848934
2.4174e-06
0.00848924
3.28945e-06
2.50433e-06
0.0138451
0.00125739
0.0135328
0.00086039
0.0133317
0.00065581
0.0131983
0.000465592
0.0131105
0.000343747
0.0130479
0.000263057
0.0130029
0.000195075
0.012972
0.000141322
0.0129508
9.85273e-05
0.0129359
6.76244e-05
0.0129255
4.72738e-05
0.0129177
3.16415e-05
0.0129117
2.17341e-05
0.0129068
1.4666e-05
0.0129023
1.06543e-05
0.0128981
9.28625e-06
0.0128942
9.36116e-06
0.0128903
8.79679e-06
0.0128864
8.28545e-06
0.0128825
8.48287e-06
0.0128787
8.25819e-06
0.0128749
8.03446e-06
0.0128713
8.29721e-06
0.0128677
8.62391e-06
0.0128642
8.61586e-06
0.0128609
8.52078e-06
0.0128576
7.57151e-06
0.0128543
6.57334e-06
0.0128512
6.52692e-06
0.0128483
6.97808e-06
0.0128453
6.59664e-06
0.0128425
6.06424e-06
0.0128398
5.73756e-06
0.0128371
5.09536e-06
0.0128345
4.6141e-06
0.0128319
4.41512e-06
0.0128294
4.49995e-06
0.012827
5.07388e-06
0.0128247
5.37199e-06
0.0128224
4.73147e-06
0.0128202
4.04e-06
0.0128179
4.12e-06
0.0128158
4.40871e-06
0.0128137
4.35381e-06
0.0128116
4.24041e-06
0.0128096
4.16322e-06
0.0128076
4.02287e-06
0.0128056
3.8383e-06
0.0128037
3.55628e-06
0.0128018
3.35605e-06
0.0127999
3.60746e-06
0.0127981
3.99095e-06
0.0127963
3.83109e-06
0.0127945
3.36219e-06
0.0127928
3.18112e-06
0.012791
3.22012e-06
0.0127893
3.27478e-06
0.0127877
3.37999e-06
0.012786
3.43428e-06
0.0127844
3.37781e-06
0.0127828
3.28853e-06
0.0127812
3.05837e-06
0.0127796
2.70823e-06
0.012778
2.60134e-06
0.0127765
2.83256e-06
0.012775
3.08248e-06
0.0127735
3.16137e-06
0.012772
3.09588e-06
0.0127706
2.92972e-06
0.0127691
2.77513e-06
0.0127677
2.72694e-06
0.0127663
2.71565e-06
0.0127649
2.68206e-06
0.0127635
2.70351e-06
0.0127621
2.77885e-06
0.0127608
2.74535e-06
0.0127595
2.56057e-06
0.0127582
2.39692e-06
0.0127569
2.38193e-06
0.0127556
2.48864e-06
0.0127543
2.62261e-06
0.0127531
2.67464e-06
0.0127519
2.61684e-06
0.0127506
2.53015e-06
0.0127494
2.44884e-06
0.0127483
2.34034e-06
0.0127471
2.25899e-06
0.0127459
2.3137e-06
0.0127448
2.48967e-06
0.0127437
2.63846e-06
0.0127426
2.63119e-06
0.0127415
2.48035e-06
0.0127405
2.32667e-06
0.0127394
2.29107e-06
0.0127384
2.35583e-06
0.0127374
2.44603e-06
0.0127365
2.55179e-06
0.0127355
2.66789e-06
0.0127346
2.71705e-06
0.0127338
2.65451e-06
0.0127329
2.56013e-06
0.0127321
2.54698e-06
0.0127314
2.6486e-06
0.0127306
2.81797e-06
0.0127299
2.97358e-06
0.0127293
3.05127e-06
0.0127287
3.07589e-06
0.0127281
3.09806e-06
0.0127276
3.14078e-06
0.0127272
3.15601e-06
0.0127267
3.23231e-06
0.0127264
3.34912e-06
0.0127261
3.62171e-06
0.0127258
3.73424e-06
0.0127256
3.97575e-06
0.0127255
3.77065e-06
0.0127254
4.11893e-06
0.0127254
3.65675e-06
0.0127255
4.50998e-06
3.76235e-06
0.0173727
0.00152699
0.0170963
0.00120361
0.0169035
0.000904722
0.0167802
0.000634305
0.0167088
0.000451122
0.0166664
0.000333708
0.0166408
0.000242073
0.0166251
0.000173167
0.0166147
0.000120138
0.0166075
8.26353e-05
0.016602
5.81336e-05
0.0165973
3.9827e-05
0.0165929
2.84313e-05
0.0165886
2.02576e-05
0.0165842
1.563e-05
0.0165799
1.41121e-05
0.0165755
1.43059e-05
0.0165712
1.36241e-05
0.0165668
1.29673e-05
0.0165625
1.31882e-05
0.0165583
1.28515e-05
0.0165541
1.24876e-05
0.01655
1.2734e-05
0.016546
1.30173e-05
0.0165422
1.29155e-05
0.0165384
1.27698e-05
0.0165348
1.15881e-05
0.0165312
1.02324e-05
0.0165278
1.01534e-05
0.0165245
1.06216e-05
0.0165212
1.00743e-05
0.016518
9.41357e-06
0.016515
8.94551e-06
0.016512
8.11376e-06
0.016509
7.44218e-06
0.0165061
7.14866e-06
0.0165033
7.2227e-06
0.0165006
7.89642e-06
0.016498
8.23168e-06
0.0164954
7.40865e-06
0.0164928
6.52153e-06
0.0164902
6.59248e-06
0.0164878
6.92507e-06
0.0164854
6.83165e-06
0.016483
6.66709e-06
0.0164806
6.54865e-06
0.0164783
6.35252e-06
0.0164761
6.10255e-06
0.0164738
5.73187e-06
0.0164716
5.46252e-06
0.0164695
5.75548e-06
0.0164674
6.21452e-06
0.0164653
5.99896e-06
0.0164632
5.39918e-06
0.0164612
5.15745e-06
0.0164592
5.18986e-06
0.0164572
5.24193e-06
0.0164552
5.35759e-06
0.0164533
5.41054e-06
0.0164514
5.32609e-06
0.0164495
5.20175e-06
0.0164476
4.90263e-06
0.0164458
4.45362e-06
0.016444
4.30707e-06
0.0164422
4.58191e-06
0.0164404
4.88012e-06
0.0164387
4.96614e-06
0.016437
4.8733e-06
0.0164353
4.65535e-06
0.0164336
4.45164e-06
0.0164319
4.38047e-06
0.0164302
4.35541e-06
0.0164286
4.30253e-06
0.016427
4.3182e-06
0.0164254
4.40144e-06
0.0164238
4.3497e-06
0.0164223
4.10957e-06
0.0164207
3.8954e-06
0.0164192
3.86613e-06
0.0164177
3.9883e-06
0.0164162
4.14451e-06
0.0164148
4.19894e-06
0.0164133
4.11667e-06
0.0164119
3.99834e-06
0.0164105
3.88654e-06
0.0164091
3.7404e-06
0.0164077
3.6275e-06
0.0164063
3.68359e-06
0.016405
3.89037e-06
0.0164037
4.06327e-06
0.0164024
4.04179e-06
0.0164011
3.84089e-06
0.0163998
3.63546e-06
0.0163986
3.57639e-06
0.0163974
3.64169e-06
0.0163962
3.73789e-06
0.0163951
3.85265e-06
0.0163939
3.98e-06
0.0163929
4.02321e-06
0.0163918
3.92657e-06
0.0163908
3.7886e-06
0.0163898
3.75153e-06
0.0163889
3.85543e-06
0.016388
4.0445e-06
0.0163871
4.21304e-06
0.0163863
4.28748e-06
0.0163856
4.28905e-06
0.0163849
4.29519e-06
0.0163842
4.31291e-06
0.0163836
4.31465e-06
0.0163831
4.36269e-06
0.0163826
4.50317e-06
0.0163822
4.77255e-06
0.0163818
4.93796e-06
0.0163816
5.11562e-06
0.0163814
4.96217e-06
0.0163813
5.13818e-06
0.0163811
4.86097e-06
0.0163813
5.43558e-06
5.09761e-06
0.0192257
0.00113711
0.0194226
0.00104925
0.0194968
0.000867083
0.0195113
0.000649576
0.0195177
0.000467902
0.0195323
0.000337185
0.0195503
0.000238151
0.0195663
0.000167475
0.019578
0.000115743
0.0195849
8.08269e-05
0.0195881
5.8553e-05
0.0195883
4.19363e-05
0.0195866
3.17208e-05
0.0195838
2.40629e-05
0.0195802
1.96855e-05
0.0195764
1.8342e-05
0.0195725
1.86945e-05
0.0195686
1.79044e-05
0.0195648
1.70875e-05
0.0195611
1.72437e-05
0.0195575
1.67435e-05
0.019554
1.62355e-05
0.0195506
1.63996e-05
0.0195473
1.66084e-05
0.0195442
1.64065e-05
0.0195411
1.62139e-05
0.0195381
1.48249e-05
0.0195352
1.32476e-05
0.0195323
1.31497e-05
0.0195296
1.36219e-05
0.0195269
1.29831e-05
0.0195242
1.22056e-05
0.0195216
1.16522e-05
0.0195191
1.0678e-05
0.0195166
9.87949e-06
0.0195141
9.52764e-06
0.0195117
9.59769e-06
0.0195093
1.03325e-05
0.019507
1.06932e-05
0.0195047
9.75079e-06
0.0195024
8.72518e-06
0.0195002
8.78849e-06
0.019498
9.14981e-06
0.0194959
9.02854e-06
0.0194937
8.82752e-06
0.0194916
8.67935e-06
0.0194896
8.44322e-06
0.0194875
8.14659e-06
0.0194855
7.71285e-06
0.0194835
7.39314e-06
0.0194815
7.71128e-06
0.0194796
8.2191e-06
0.0194777
7.96305e-06
0.0194758
7.27055e-06
0.019474
6.98397e-06
0.0194721
7.00859e-06
0.0194703
7.05528e-06
0.0194685
7.17458e-06
0.0194667
7.22318e-06
0.0194649
7.1161e-06
0.0194632
6.9646e-06
0.0194615
6.61501e-06
0.0194598
6.09393e-06
0.0194581
5.91629e-06
0.0194564
6.21754e-06
0.0194548
6.54507e-06
0.0194532
6.63225e-06
0.0194515
6.51723e-06
0.01945
6.26025e-06
0.0194484
6.01904e-06
0.0194468
5.92839e-06
0.0194453
5.89024e-06
0.0194437
5.8203e-06
0.0194422
5.82821e-06
0.0194407
5.91338e-06
0.0194393
5.84574e-06
0.0194378
5.56384e-06
0.0194364
5.31096e-06
0.019435
5.26813e-06
0.0194335
5.39726e-06
0.0194321
5.5651e-06
0.0194308
5.61757e-06
0.0194294
5.51475e-06
0.0194281
5.37089e-06
0.0194267
5.23428e-06
0.0194254
5.05811e-06
0.0194241
4.91916e-06
0.0194228
4.97201e-06
0.0194216
5.19581e-06
0.0194203
5.38112e-06
0.0194191
5.34556e-06
0.0194179
5.10534e-06
0.0194167
4.85889e-06
0.0194155
4.77829e-06
0.0194144
4.83854e-06
0.0194133
4.93313e-06
0.0194122
5.04804e-06
0.0194111
5.177e-06
0.0194101
5.20965e-06
0.0194091
5.08234e-06
0.0194081
4.90649e-06
0.0194072
4.84494e-06
0.0194063
4.94204e-06
0.0194054
5.13628e-06
0.0194046
5.30444e-06
0.0194039
5.36754e-06
0.0194031
5.34219e-06
0.0194025
5.32798e-06
0.0194019
5.31483e-06
0.0194013
5.29939e-06
0.0194008
5.30893e-06
0.0194004
5.46408e-06
0.0194
5.69956e-06
0.0193997
5.91829e-06
0.0193995
5.98491e-06
0.0193993
5.9343e-06
0.0193993
5.83274e-06
0.0193991
5.8778e-06
0.0193995
5.95783e-06
6.39345e-06
0.0195851
0.000473881
0.020156
0.00049368
0.0206539
0.00038316
0.021017
0.000297799
0.0212535
0.000240203
0.0214027
0.00019446
0.021491
0.00015483
0.0215394
0.00012208
0.0215628
9.53899e-05
0.0215715
7.40233e-05
0.0215722
5.92813e-05
0.0215688
4.63201e-05
0.0215637
3.75076e-05
0.0215582
2.99882e-05
0.0215531
2.51219e-05
0.0215486
2.3096e-05
0.0215448
2.27658e-05
0.0215416
2.12718e-05
0.021539
1.98553e-05
0.0215369
1.95733e-05
0.021535
1.87169e-05
0.0215335
1.79363e-05
0.0215321
1.79456e-05
0.0215309
1.80299e-05
0.0215297
1.77859e-05
0.0215286
1.75449e-05
0.0215275
1.60703e-05
0.0215263
1.44088e-05
0.0215252
1.43574e-05
0.0215241
1.48839e-05
0.021523
1.42322e-05
0.0215218
1.3443e-05
0.0215207
1.28648e-05
0.0215195
1.18753e-05
0.0215183
1.10599e-05
0.0215171
1.07021e-05
0.0215159
1.07889e-05
0.0215147
1.15656e-05
0.0215135
1.19591e-05
0.0215123
1.09835e-05
0.0215111
9.90723e-06
0.0215099
9.98024e-06
0.0215087
1.03665e-05
0.0215076
1.02437e-05
0.0215064
1.00365e-05
0.0215052
9.88436e-06
0.021504
9.63863e-06
0.0215028
9.32861e-06
0.0215016
8.87293e-06
0.0215005
8.53566e-06
0.0214993
8.86938e-06
0.0214981
9.40325e-06
0.021497
9.13359e-06
0.0214959
8.40251e-06
0.0214947
8.09827e-06
0.0214936
8.12165e-06
0.0214925
8.1675e-06
0.0214914
8.28978e-06
0.0214903
8.33765e-06
0.0214892
8.22132e-06
0.0214881
8.05866e-06
0.021487
7.68702e-06
0.021486
7.13249e-06
0.0214849
6.94021e-06
0.0214838
7.25336e-06
0.0214828
7.59355e-06
0.0214818
7.68049e-06
0.0214808
7.55488e-06
0.0214797
7.27939e-06
0.0214787
7.01985e-06
0.0214777
6.91904e-06
0.0214768
6.87362e-06
0.0214758
6.79428e-06
0.0214748
6.79696e-06
0.0214738
6.88162e-06
0.0214729
6.80535e-06
0.021472
6.50233e-06
0.021471
6.22929e-06
0.0214701
6.17811e-06
0.0214692
6.30839e-06
0.0214683
6.47943e-06
0.0214674
6.52881e-06
0.0214665
6.41417e-06
0.0214657
6.256e-06
0.0214648
6.10523e-06
0.021464
5.912e-06
0.0214631
5.75756e-06
0.0214623
5.80557e-06
0.0214615
6.03389e-06
0.0214607
6.2215e-06
0.0214599
6.17577e-06
0.0214591
5.91292e-06
0.0214583
5.64234e-06
0.0214576
5.54653e-06
0.0214569
5.59923e-06
0.0214562
5.68735e-06
0.0214555
5.79632e-06
0.0214548
5.91966e-06
0.0214542
5.94082e-06
0.0214535
5.79143e-06
0.021453
5.58976e-06
0.0214524
5.50769e-06
0.0214519
5.59307e-06
0.0214514
5.7797e-06
0.0214509
5.93841e-06
0.0214505
5.98468e-06
0.0214501
5.93601e-06
0.0214498
5.89949e-06
0.0214495
5.85904e-06
0.0214493
5.82379e-06
0.0214491
5.79633e-06
0.021449
5.95439e-06
0.0214489
6.13763e-06
0.0214489
6.40329e-06
0.021449
6.33389e-06
0.0214491
6.41903e-06
0.0214494
5.99082e-06
0.0214495
6.42924e-06
0.0214502
5.91015e-06
7.28166e-06
0.0195846
-0.000224999
0.0201573
-9.2262e-05
0.020657
-0.000125992
0.0210206
-7.42571e-05
0.0212595
-5.40444e-06
0.0214123
3.6253e-05
0.0215053
5.79229e-05
0.021558
6.71643e-05
0.0215856
6.57087e-05
0.0215984
5.98925e-05
0.0216028
5.40468e-05
0.0216029
4.57221e-05
0.0216011
3.89565e-05
0.0215988
3.21656e-05
0.0215967
2.72287e-05
0.0215951
2.4704e-05
0.021594
2.37808e-05
0.0215936
2.17297e-05
0.0215936
1.98531e-05
0.0215939
1.92048e-05
0.0215946
1.8078e-05
0.0215954
1.71399e-05
0.0215963
1.70344e-05
0.0215972
1.70787e-05
0.0215982
1.68148e-05
0.0215991
1.65631e-05
0.0216
1.51612e-05
0.0216009
1.35771e-05
0.0216017
1.3595e-05
0.0216024
1.41875e-05
0.021603
1.35869e-05
0.0216036
1.28688e-05
0.0216042
1.23555e-05
0.0216046
1.1463e-05
0.0216051
1.06921e-05
0.0216054
1.03639e-05
0.0216058
1.04791e-05
0.0216061
1.12667e-05
0.0216063
1.16865e-05
0.0216066
1.0761e-05
0.0216068
9.72694e-06
0.0216069
9.82121e-06
0.0216071
1.02207e-05
0.0216072
1.01195e-05
0.0216073
9.93426e-06
0.0216074
9.80182e-06
0.0216075
9.5762e-06
0.0216075
9.28628e-06
0.0216075
8.85182e-06
0.0216075
8.53165e-06
0.0216076
8.86817e-06
0.0216075
9.40019e-06
0.0216075
9.14513e-06
0.0216075
8.43547e-06
0.0216075
8.14358e-06
0.0216074
8.17256e-06
0.0216074
8.22244e-06
0.0216073
8.34681e-06
0.0216072
8.39792e-06
0.0216072
8.28757e-06
0.0216071
8.13196e-06
0.021607
7.77074e-06
0.0216069
7.2278e-06
0.0216068
7.04079e-06
0.0216067
7.3503e-06
0.0216066
7.68527e-06
0.0216065
7.7714e-06
0.0216064
7.64934e-06
0.0216063
7.37981e-06
0.0216062
7.12519e-06
0.0216061
7.02635e-06
0.021606
6.98173e-06
0.0216059
6.90333e-06
0.0216058
6.90531e-06
0.0216057
6.98807e-06
0.0216056
6.91277e-06
0.0216055
6.61382e-06
0.0216054
6.34372e-06
0.0216053
6.2919e-06
0.0216052
6.41832e-06
0.0216051
6.58448e-06
0.021605
6.6309e-06
0.0216049
6.51586e-06
0.0216048
6.35772e-06
0.0216047
6.20648e-06
0.0216046
6.01275e-06
0.0216045
5.85668e-06
0.0216044
5.89967e-06
0.0216043
6.11962e-06
0.0216043
6.2992e-06
0.0216042
6.24901e-06
0.0216041
5.98418e-06
0.0216041
5.71061e-06
0.0216041
5.6087e-06
0.021604
5.65262e-06
0.021604
5.7305e-06
0.021604
5.8282e-06
0.021604
5.93946e-06
0.021604
5.94961e-06
0.0216041
5.79042e-06
0.0216042
5.57887e-06
0.0216043
5.4841e-06
0.0216044
5.55387e-06
0.0216045
5.72206e-06
0.0216047
5.86222e-06
0.0216049
5.89047e-06
0.0216052
5.82373e-06
0.0216054
5.7695e-06
0.0216057
5.70671e-06
0.0216061
5.65586e-06
0.0216065
5.59629e-06
0.0216069
5.74649e-06
0.0216075
5.87187e-06
0.021608
6.15929e-06
0.0216086
5.97983e-06
0.0216092
6.16518e-06
0.0216101
5.50162e-06
0.0216107
6.21397e-06
0.0216118
5.25821e-06
7.25943e-06
0.0192291
-0.000718001
0.019434
-0.00033813
0.0195206
-0.000244788
0.0195407
-0.00012118
0.019552
-3.79115e-05
0.0195738
-2.34716e-06
0.0196014
1.78546e-05
0.0196282
3.11643e-05
0.0196511
3.61135e-05
0.0196693
3.72204e-05
0.0196832
3.70919e-05
0.0196938
3.32639e-05
0.0197018
2.96002e-05
0.0197082
2.51245e-05
0.0197135
2.16654e-05
0.019718
1.9973e-05
0.019722
1.94659e-05
0.0197257
1.77863e-05
0.0197292
1.62008e-05
0.0197326
1.56645e-05
0.0197358
1.46913e-05
0.0197389
1.38956e-05
0.0197419
1.38587e-05
0.0197448
1.39567e-05
0.0197476
1.37628e-05
0.0197503
1.35598e-05
0.0197529
1.23875e-05
0.0197555
1.10291e-05
0.0197579
1.10935e-05
0.0197603
1.16967e-05
0.0197626
1.12011e-05
0.0197648
1.06115e-05
0.0197669
1.0229e-05
0.019769
9.46644e-06
0.019771
8.77624e-06
0.019773
8.49986e-06
0.0197749
8.6379e-06
0.0197767
9.38561e-06
0.0197785
9.80455e-06
0.0197802
8.99806e-06
0.019782
8.08816e-06
0.0197836
8.20223e-06
0.0197852
8.59095e-06
0.0197868
8.52421e-06
0.0197883
8.37998e-06
0.0197898
8.28254e-06
0.0197913
8.09928e-06
0.0197927
7.8564e-06
0.0197941
7.48092e-06
0.0197955
7.2076e-06
0.0197969
7.52859e-06
0.0197982
8.02565e-06
0.0197995
7.80967e-06
0.0198007
7.17953e-06
0.019802
6.92761e-06
0.0198032
6.96619e-06
0.0198044
7.02262e-06
0.0198056
7.14597e-06
0.0198068
7.2025e-06
0.0198079
7.1122e-06
0.0198091
6.98085e-06
0.0198102
6.66229e-06
0.0198113
6.17698e-06
0.0198124
6.01507e-06
0.0198134
6.30411e-06
0.0198145
6.61501e-06
0.0198155
6.69969e-06
0.0198166
6.59567e-06
0.0198176
6.35746e-06
0.0198186
6.13215e-06
0.0198196
6.04813e-06
0.0198205
6.01313e-06
0.0198215
5.94697e-06
0.0198224
5.95364e-06
0.0198234
6.03374e-06
0.0198243
5.97017e-06
0.0198252
5.70257e-06
0.0198261
5.46069e-06
0.0198271
5.4174e-06
0.019828
5.53591e-06
0.0198288
5.69006e-06
0.0198297
5.73515e-06
0.0198306
5.63325e-06
0.0198314
5.49187e-06
0.0198323
5.35637e-06
0.0198332
5.1816e-06
0.019834
5.04069e-06
0.0198348
5.08074e-06
0.0198357
5.28123e-06
0.0198365
5.44457e-06
0.0198373
5.3987e-06
0.0198382
5.15669e-06
0.019839
4.90586e-06
0.0198398
4.81099e-06
0.0198407
4.84848e-06
0.0198415
4.91615e-06
0.0198423
5.00113e-06
0.0198432
5.09805e-06
0.019844
5.10225e-06
0.0198449
4.95151e-06
0.0198458
4.75203e-06
0.0198467
4.65876e-06
0.0198476
4.71412e-06
0.0198485
4.85925e-06
0.0198494
4.97675e-06
0.0198504
4.99369e-06
0.0198514
4.92002e-06
0.0198524
4.86199e-06
0.0198534
4.78804e-06
0.0198545
4.73574e-06
0.0198556
4.657e-06
0.0198567
4.79563e-06
0.0198578
4.86964e-06
0.019859
5.15396e-06
0.0198603
4.91466e-06
0.0198615
5.15458e-06
0.0198629
4.39423e-06
0.0198642
5.22359e-06
0.0198657
4.06379e-06
6.23788e-06
0.0173881
-0.00061152
0.0171399
-0.000155709
0.0169657
-0.000123842
0.0168518
-5.02335e-05
0.0167872
-8.20013e-06
0.0167544
3.44033e-06
0.0167407
1.144e-05
0.0167379
1.8815e-05
0.0167415
2.1774e-05
0.0167484
2.2997e-05
0.0167566
2.37747e-05
0.0167651
2.1558e-05
0.0167732
1.93357e-05
0.0167808
1.64378e-05
0.0167878
1.41871e-05
0.0167941
1.32437e-05
0.0167998
1.3184e-05
0.0168052
1.2059e-05
0.0168102
1.09533e-05
0.0168148
1.06716e-05
0.0168192
9.99396e-06
0.0168234
9.45592e-06
0.0168274
9.52138e-06
0.0168312
9.67071e-06
0.0168349
9.59292e-06
0.0168385
9.46882e-06
0.0168419
8.62897e-06
0.0168454
7.57872e-06
0.0168487