/*--------------------------------*- C++ -*----------------------------------*\
  =========                 |
  \\      /  F ield         | OpenFOAM: The Open Source CFD Toolbox
   \\    /   O peration     | Website:  https://openfoam.org
    \\  /    A nd           | Version:  7
     \\/     M anipulation  |
\*---------------------------------------------------------------------------*/
FoamFile
{
    version     2.0;
    format      ascii;
    class       volVectorField;
    location    "1.915";
    object      UMean;
}
// * * * * * * * * * * * * * * * * * * * * * * * * * * * * * * * * * * * * * //

dimensions      [0 1 -1 0 0 0 0];

internalField   nonuniform List<vector> 
4950
(
(3.51916 0.414512 -27.0291)
(2.83075 0.146122 -27.0661)
(2.09536 0.0427798 -27.068)
(1.90175 -0.0236175 -27.0753)
(1.63301 -0.043621 -27.0736)
(1.62411 -0.0499355 -27.0777)
(1.47339 -0.0507922 -27.0756)
(1.5029 -0.0495872 -27.0787)
(1.39327 -0.0482642 -27.0769)
(1.42936 -0.0469372 -27.0793)
(1.34259 -0.0452986 -27.0778)
(1.37812 -0.0451488 -27.0798)
(1.30731 -0.0420753 -27.0787)
(1.34043 -0.0447949 -27.0802)
(1.2809 -0.0361021 -27.0795)
(1.31155 -0.046232 -27.0803)
(1.25789 -0.0154274 -27.0805)
(1.27641 -0.0448306 -27.0798)
(1.25035 0.0911888 -27.083)
(1.03636 0.122573 -27.0715)
(4.59845 0.541399 -27.0541)
(4.79123 0.36865 -27.0831)
(4.50258 0.279825 -27.0831)
(4.45552 0.181559 -27.0901)
(4.17028 0.126282 -27.0901)
(4.14823 0.095548 -27.0945)
(3.93071 0.0766891 -27.0939)
(3.93817 0.0658532 -27.0968)
(3.77074 0.0577094 -27.0963)
(3.79338 0.0526058 -27.0984)
(3.66086 0.0476384 -27.098)
(3.69043 0.045498 -27.0994)
(3.58224 0.0404351 -27.0994)
(3.61603 0.0421654 -27.1002)
(3.52252 0.0318296 -27.1009)
(3.56623 0.0423657 -27.1003)
(3.47135 0.0137254 -27.1034)
(3.55823 0.035278 -27.0984)
(3.41696 -0.0198477 -27.1089)
(3.76122 -0.0685712 -27.0781)
(4.71696 0.28432 -27.0558)
(5.19367 0.205108 -27.0793)
(5.29752 0.182654 -27.072)
(5.5362 0.122475 -27.0764)
(5.47795 0.0858386 -27.0724)
(5.59938 0.0606291 -27.0762)
(5.50938 0.0428004 -27.0733)
(5.58867 0.0305332 -27.0765)
(5.50027 0.0211647 -27.0743)
(5.559 0.0136591 -27.077)
(5.4797 0.00848283 -27.0755)
(5.52498 0.00293838 -27.0776)
(5.45738 0.000910569 -27.0768)
(5.49016 -0.00445289 -27.0783)
(5.43847 -0.00220008 -27.0784)
(5.45058 -0.00928125 -27.0789)
(5.42732 0.00321367 -27.0806)
(5.38718 -0.00658326 -27.0789)
(5.4099 0.0350893 -27.0835)
(5.25617 0.0584956 -27.0623)
(4.69491 0.166913 -27.0645)
(5.11193 0.127925 -27.0883)
(5.31305 0.119951 -27.0826)
(5.64922 0.090104 -27.0848)
(5.70754 0.0715749 -27.0816)
(5.92529 0.0593829 -27.0834)
(5.93242 0.0506135 -27.0815)
(6.08599 0.0447789 -27.0828)
(6.07411 0.039781 -27.0816)
(6.18918 0.0360187 -27.0827)
(6.16855 0.0324006 -27.0819)
(6.25873 0.0299146 -27.0827)
(6.23247 0.0265271 -27.0823)
(6.30812 0.0257892 -27.083)
(6.27484 0.0206413 -27.083)
(6.34922 0.0235075 -27.0833)
(6.30265 0.0119821 -27.0838)
(6.40496 0.01892 -27.0837)
(6.33631 0.00105257 -27.0849)
(6.55687 -0.00957788 -27.0644)
(4.69617 -1.89253e-08 -27.0597)
(5.10862 6.566e-08 -27.082)
(5.31931 -3.63477e-08 -27.0734)
(5.66986 2.07999e-07 -27.0758)
(5.74208 -1.16299e-08 -27.0704)
(5.97492 5.79794e-07 -27.0729)
(5.99981 2.71411e-07 -27.0691)
(6.17058 1.49395e-06 -27.0713)
(6.1792 1.50932e-06 -27.0685)
(6.31099 4.1066e-06 -27.0704)
(6.312 5.23488e-06 -27.0683)
(6.4145 1.34957e-05 -27.07)
(6.41272 1.2668e-05 -27.0685)
(6.48911 5.00579e-05 -27.0701)
(6.49206 2.07998e-05 -27.0691)
(6.53481 0.000175015 -27.0704)
(6.55959 3.79789e-05 -27.0698)
(6.53789 0.000504695 -27.0711)
(6.6034 0.000168223 -27.0708)
(6.47332 0.000824457 -27.0524)
(4.69491 -0.166913 -27.0645)
(5.11193 -0.127925 -27.0883)
(5.31305 -0.119951 -27.0826)
(5.64923 -0.0901037 -27.0848)
(5.70754 -0.0715747 -27.0816)
(5.92529 -0.0593822 -27.0835)
(5.93242 -0.0506125 -27.0814)
(6.08599 -0.044777 -27.0829)
(6.07411 -0.039777 -27.0816)
(6.18919 -0.036014 -27.0827)
(6.16855 -0.0323874 -27.0818)
(6.25875 -0.0299007 -27.0828)
(6.23247 -0.0264925 -27.0822)
(6.30818 -0.0257376 -27.0831)
(6.27488 -0.0205642 -27.0828)
(6.34934 -0.0233251 -27.0836)
(6.30283 -0.0117985 -27.0835)
(6.40522 -0.018404 -27.0841)
(6.33681 -0.000383091 -27.0844)
(6.5576 0.0108932 -27.0648)
(4.71696 -0.28432 -27.0558)
(5.19367 -0.205108 -27.0793)
(5.29752 -0.182654 -27.072)
(5.5362 -0.122474 -27.0764)
(5.47795 -0.0858385 -27.0724)
(5.59938 -0.0606283 -27.0762)
(5.50937 -0.0427998 -27.0733)
(5.58867 -0.0305311 -27.0765)
(5.50027 -0.0211623 -27.0743)
(5.55902 -0.0136533 -27.077)
(5.4797 -0.00847537 -27.0754)
(5.52503 -0.00291963 -27.0778)
(5.45738 -0.000895042 -27.0766)
(5.49029 0.00452219 -27.0787)
(5.4385 0.00221475 -27.0779)
(5.45091 0.00952161 -27.0797)
(5.42754 -0.00321905 -27.0793)
(5.38796 0.00725931 -27.0809)
(5.41084 -0.0349212 -27.0807)
(5.25839 -0.0570422 -27.0661)
(4.59845 -0.541399 -27.0541)
(4.79123 -0.36865 -27.0831)
(4.50258 -0.279825 -27.0831)
(4.45552 -0.181559 -27.0901)
(4.17029 -0.126282 -27.0901)
(4.14824 -0.0955479 -27.0945)
(3.93072 -0.0766883 -27.0939)
(3.93817 -0.0658529 -27.0969)
(3.77075 -0.0577067 -27.0963)
(3.79339 -0.0526049 -27.0984)
(3.66087 -0.0476303 -27.098)
(3.69048 -0.0454944 -27.0996)
(3.58227 -0.040414 -27.0992)
(3.61616 -0.0421464 -27.1005)
(3.52266 -0.031782 -27.1003)
(3.56653 -0.0422821 -27.1014)
(3.47188 -0.0136158 -27.1013)
(3.5589 -0.0350278 -27.1021)
(3.41842 0.0201993 -27.1019)
(3.76325 0.0688186 -27.0908)
(3.51916 -0.414512 -27.0291)
(2.83075 -0.146122 -27.0661)
(2.09536 -0.0427798 -27.068)
(1.90175 0.0236176 -27.0753)
(1.63301 0.0436209 -27.0736)
(1.62411 0.0499357 -27.0777)
(1.47339 0.050792 -27.0756)
(1.50291 0.0495877 -27.0787)
(1.39328 0.0482636 -27.0769)
(1.42937 0.0469382 -27.0793)
(1.3426 0.0452967 -27.0778)
(1.37814 0.045151 -27.0798)
(1.30733 0.0420693 -27.0786)
(1.34051 0.0448012 -27.0803)
(1.28099 0.036088 -27.0793)
(1.31173 0.0462482 -27.0807)
(1.25823 0.0153884 -27.0799)
(1.27685 0.0448848 -27.081)
(1.25139 -0.091151 -27.0803)
(1.03814 -0.121981 -27.0794)
(4.49817 0.188134 0.0052514)
(3.75232 0.274836 0.00363991)
(3.16743 0.235879 0.00442461)
(2.61112 0.160593 0.00338653)
(2.35439 0.111808 0.00413546)
(2.09464 0.0796448 0.00330981)
(2.02277 0.0645532 0.00397184)
(1.89088 0.056199 0.00326625)
(1.87532 0.0525624 0.00382888)
(1.79267 0.0506552 0.00321609)
(1.79126 0.0491454 0.00369033)
(1.73278 0.0493694 0.00315879)
(1.73469 0.0466384 0.00355912)
(1.69121 0.0499596 0.00309968)
(1.69352 0.0404496 0.00343875)
(1.66291 0.0538837 0.00304177)
(1.65882 0.0138669 0.00333289)
(1.6763 0.060319 0.00298429)
(1.59881 -0.124015 0.00327132)
(2.03221 -0.166046 0.00287054)
(4.62852 0.106347 0.00337787)
(4.6639 0.226907 0.00207661)
(4.79831 0.204012 0.00281956)
(4.67311 0.150611 0.00179424)
(4.64928 0.0959956 0.00253689)
(4.49193 0.0539718 0.00170862)
(4.45069 0.0264778 0.00236697)
(4.32289 0.00938859 0.00165954)
(4.29184 -0.00156386 0.00222002)
(4.1945 -0.00847947 0.00160653)
(4.1727 -0.0131307 0.00207914)
(4.09802 -0.0173599 0.00154799)
(4.0833 -0.0180852 0.00194584)
(4.02303 -0.0236974 0.00148891)
(4.01718 -0.0174608 0.00182124)
(3.95774 -0.0300244 0.00143211)
(3.97471 -0.00761712 0.00169962)
(3.87282 -0.0266232 0.00137096)
(3.96607 0.00586814 0.00155305)
(3.57468 0.0704869 0.00118709)
(4.56131 0.0601666 0.00467486)
(4.72007 0.182268 0.00346357)
(5.04046 0.210574 0.00417427)
(5.15057 0.187019 0.00313784)
(5.33082 0.156356 0.00386933)
(5.34645 0.125464 0.00303579)
(5.43115 0.104222 0.00369497)
(5.41018 0.088142 0.0029884)
(5.45396 0.0769143 0.00355227)
(5.42607 0.0685881 0.00294034)
(5.45082 0.0615375 0.00341634)
(5.42538 0.0568982 0.0028853)
(5.43799 0.050982 0.00328758)
(5.42009 0.0494443 0.00282741)
(5.41914 0.0411207 0.00317054)
(5.42024 0.0451357 0.00277009)
(5.39223 0.0221964 0.00307517)
(5.44529 0.0387501 0.00271706)
(5.37124 -0.0410586 0.00305444)
(5.52043 -0.0445123 0.0026774)
(4.51956 0.0282226 0.00321181)
(4.58574 0.0701285 0.00211685)
(4.92813 0.0731106 0.00281671)
(5.09074 0.0647135 0.00180096)
(5.35055 0.0515353 0.00252777)
(5.4472 0.039107 0.00169368)
(5.60962 0.0299416 0.00234824)
(5.66197 0.0233058 0.00163976)
(5.77033 0.0185172 0.00220018)
(5.80238 0.0149303 0.00158762)
(5.88016 0.0120774 0.00206066)
(5.90089 0.00943561 0.00153071)
(5.96011 0.00791269 0.00192834)
(5.97068 0.0050315 0.00147262)
(6.02147 0.00571511 0.00180312)
(6.01339 0.00132111 0.00141509)
(6.07255 0.00581635 0.001675)
(6.00326 0.0025252 0.001346)
(6.10542 0.00379607 0.00149093)
(5.81161 0.0310368 0.00117911)
(4.55123 -1.53639e-08 0.00458625)
(4.66797 6.0194e-08 0.00349268)
(4.98334 -3.5796e-10 0.00418137)
(5.13692 1.66436e-07 0.00315047)
(5.38835 7.44766e-08 0.00387341)
(5.48781 4.17664e-07 0.00303569)
(5.65621 4.6403e-07 0.0036925)
(5.71885 1.00393e-06 0.00298466)
(5.83847 1.82601e-06 0.0035485)
(5.88478 2.53882e-06 0.00293667)
(5.97478 5.78792e-06 0.00341315)
(6.0129 7.11618e-06 0.00288245)
(6.08043 1.59553e-05 0.00328526)
(6.1159 2.09787e-05 0.0028253)
(6.16079 4.3005e-05 0.00316955)
(6.20516 5.66096e-05 0.00276877)
(6.21868 0.000129098 0.00307868)
(6.29505 0.000155552 0.00271749)
(6.2818 0.000438588 0.00307199)
(6.37941 0.000629038 0.00270001)
(4.51956 -0.0282226 0.00321181)
(4.58574 -0.0701284 0.00211685)
(4.92813 -0.0731107 0.00281671)
(5.09074 -0.064713 0.00180096)
(5.35055 -0.0515354 0.00252777)
(5.4472 -0.0391057 0.00169368)
(5.60962 -0.0299413 0.00234824)
(5.66197 -0.0233025 0.00163976)
(5.77032 -0.0185156 0.00220018)
(5.80239 -0.014921 0.00158762)
(5.88015 -0.0120717 0.00206065)
(5.90091 -0.00940723 0.00153071)
(5.9601 -0.00789866 0.00192833)
(5.97072 -0.00494011 0.00147262)
(6.02148 -0.00568661 0.0018031)
(6.0135 -0.00103916 0.00141508)
(6.07264 -0.00573824 0.00167496)
(6.00355 -0.00175755 0.00134595)
(6.10584 -0.0034667 0.00149101)
(5.81243 -0.0293543 0.00117895)
(4.56131 -0.0601666 0.00467486)
(4.72007 -0.182268 0.00346357)
(5.04046 -0.210574 0.00417427)
(5.15057 -0.187019 0.00313784)
(5.33082 -0.156356 0.00386933)
(5.34645 -0.125463 0.00303579)
(5.43115 -0.104221 0.00369497)
(5.41019 -0.0881405 0.00298841)
(5.45396 -0.0769107 0.00355227)
(5.42608 -0.0685838 0.00294034)
(5.45082 -0.0615264 0.00341633)
(5.42541 -0.0568851 0.00288532)
(5.438 -0.050952 0.00328755)
(5.42019 -0.0494011 0.00282745)
(5.4192 -0.0410415 0.00317047)
(5.42048 -0.0450027 0.00277019)
(5.39249 -0.0219626 0.00307499)
(5.44588 -0.0384087 0.00271725)
(5.37207 0.0418364 0.00305402)
(5.52203 0.0453852 0.00267748)
(4.62852 -0.106347 0.00337787)
(4.6639 -0.226907 0.00207661)
(4.79831 -0.204012 0.00281956)
(4.67311 -0.15061 0.00179424)
(4.64928 -0.0959956 0.00253689)
(4.49193 -0.0539712 0.00170862)
(4.45069 -0.0264774 0.00236696)
(4.32289 -0.009387 0.00165954)
(4.29184 0.00156514 0.00222001)
(4.19452 0.00848383 0.00160653)
(4.1727 0.0131342 0.00207913)
(4.09807 0.0173733 0.001548)
(4.08331 0.0180916 0.00194582)
(4.02319 0.0237417 0.00148893)
(4.01722 0.0174657 0.00182117)
(3.95819 0.0301648 0.00143218)
(3.97487 0.00761336 0.00169945)
(3.87417 0.0270232 0.00137108)
(3.96656 -0.00573777 0.00155282)
(3.57895 -0.0693389 0.0011872)
(4.49817 -0.188134 0.0052514)
(3.75232 -0.274836 0.00363991)
(3.16743 -0.235879 0.00442461)
(2.61112 -0.160593 0.00338653)
(2.35439 -0.111808 0.00413546)
(2.09464 -0.0796448 0.00330981)
(2.02277 -0.0645527 0.00397184)
(1.89088 -0.0561992 0.00326626)
(1.87533 -0.052561 0.00382887)
(1.79268 -0.0506558 0.00321609)
(1.79127 -0.0491411 0.00369032)
(1.73281 -0.0493705 0.0031588)
(1.73473 -0.0466263 0.0035591)
(1.6913 -0.0499591 0.00309972)
(1.69366 -0.0404184 0.00343867)
(1.66312 -0.0538718 0.0030419)
(1.65929 -0.0137965 0.00333262)
(1.67684 -0.0603082 0.00298476)
(1.59995 0.124074 0.00327008)
(2.03448 0.165424 0.00287295)
(4.45308 0.064456 -1.12882e-08)
(4.23458 0.116339 -1.1339e-08)
(3.87264 0.125728 -1.13651e-08)
(3.53525 0.110392 -1.13572e-08)
(3.19908 0.0858611 -1.13988e-08)
(2.93414 0.0623701 -1.1374e-08)
(2.70904 0.0405926 -1.14206e-08)
(2.5465 0.024666 -1.13575e-08)
(2.4206 0.0117456 -1.1387e-08)
(2.33171 0.00391646 -1.13191e-08)
(2.26774 -0.00250415 -1.13935e-08)
(2.2198 -0.00505125 -1.1364e-08)
(2.18792 -0.00848592 -1.14598e-08)
(2.16139 -0.00765555 -1.14299e-08)
(2.14263 -0.0114071 -1.15307e-08)
(2.13309 -0.00676759 -1.1518e-08)
(2.10785 -0.0154827 -1.16307e-08)
(2.13438 -0.00582701 -1.16226e-08)
(2.06469 -0.0274026 -1.1736e-08)
(2.18966 -0.0468966 -1.16794e-08)
(4.51214 0.0571188 -1.12647e-08)
(4.6439 0.108107 -1.12743e-08)
(4.72709 0.13775 -1.12803e-08)
(4.80672 0.146272 -1.12708e-08)
(4.82049 0.140794 -1.13214e-08)
(4.824 0.125227 -1.13411e-08)
(4.79273 0.107045 -1.14394e-08)
(4.76076 0.0877459 -1.14041e-08)
(4.71696 0.0720022 -1.14382e-08)
(4.67609 0.057902 -1.13728e-08)
(4.63502 0.0482254 -1.14571e-08)
(4.59602 0.0394861 -1.14446e-08)
(4.56259 0.0344158 -1.15484e-08)
(4.52845 0.029051 -1.15091e-08)
(4.50378 0.0261797 -1.15828e-08)
(4.47439 0.0241297 -1.15363e-08)
(4.45808 0.0192066 -1.16404e-08)
(4.43331 0.0264397 -1.16271e-08)
(4.41858 0.0104424 -1.17801e-08)
(4.39892 0.0407246 -1.17157e-08)
(4.50195 0.0214954 -1.12818e-08)
(4.62198 0.0541905 -1.13057e-08)
(4.73017 0.0791276 -1.13116e-08)
(4.88866 0.0913486 -1.12966e-08)
(5.01419 0.0927133 -1.13496e-08)
(5.1462 0.0873076 -1.13496e-08)
(5.24191 0.0773252 -1.1421e-08)
(5.32939 0.0669348 -1.13802e-08)
(5.39041 0.0564992 -1.14427e-08)
(5.44318 0.0481146 -1.14208e-08)
(5.48025 0.0405474 -1.15478e-08)
(5.51267 0.03533 -1.15731e-08)
(5.53548 0.0298823 -1.17009e-08)
(5.55809 0.0274591 -1.1661e-08)
(5.57181 0.0218869 -1.17089e-08)
(5.59099 0.0233463 -1.16161e-08)
(5.59908 0.0129581 -1.16865e-08)
(5.61548 0.0219488 -1.1645e-08)
(5.62847 -0.00127293 -1.17802e-08)
(5.62826 0.0095775 -1.17524e-08)
(4.50026 0.0172591 -1.12743e-08)
(4.59673 0.0331705 -1.13065e-08)
(4.69303 0.0438789 -1.13183e-08)
(4.84719 0.0487199 -1.13172e-08)
(4.98161 0.0497701 -1.13709e-08)
(5.13317 0.0473902 -1.13658e-08)
(5.25672 0.0435714 -1.14218e-08)
(5.3776 0.0387178 -1.1373e-08)
(5.47546 0.0344054 -1.1427e-08)
(5.56597 0.0302533 -1.13992e-08)
(5.64241 0.0271679 -1.15136e-08)
(5.71131 0.0243653 -1.15313e-08)
(5.774 0.0223391 -1.16527e-08)
(5.82778 0.0206848 -1.16492e-08)
(5.88359 0.0187764 -1.17374e-08)
(5.92261 0.0189313 -1.16276e-08)
(5.98135 0.0148953 -1.16902e-08)
(5.99345 0.0203368 -1.1682e-08)
(6.07459 0.010066 -1.17761e-08)
(6.02652 0.027478 -1.17237e-08)
(4.50095 -3.49812e-08 -1.12828e-08)
(4.60868 1.00274e-07 -1.13131e-08)
(4.70593 -7.17167e-08 -1.1333e-08)
(4.85917 2.54171e-07 -1.13369e-08)
(4.98997 -4.12644e-08 -1.13917e-08)
(5.14002 6.33923e-07 -1.1375e-08)
(5.26369 3.15056e-07 -1.14294e-08)
(5.38733 1.56048e-06 -1.13921e-08)
(5.48905 1.57937e-06 -1.14692e-08)
(5.58556 4.26331e-06 -1.14512e-08)
(5.66771 4.73412e-06 -1.1549e-08)
(5.74505 1.32623e-05 -1.15181e-08)
(5.81371 1.08486e-05 -1.15925e-08)
(5.87863 4.21857e-05 -1.15458e-08)
(5.93899 2.40891e-05 -1.16282e-08)
(5.99304 0.000120449 -1.15844e-08)
(6.05383 7.52809e-05 -1.16625e-08)
(6.08619 0.000290361 -1.16477e-08)
(6.17501 0.000306998 -1.17468e-08)
(6.15092 0.000606679 -1.16842e-08)
(4.50026 -0.0172592 -1.12756e-08)
(4.59673 -0.0331703 -1.13104e-08)
(4.69303 -0.043879 -1.13337e-08)
(4.84719 -0.0487193 -1.13475e-08)
(4.98161 -0.0497703 -1.13982e-08)
(5.13317 -0.0473888 -1.13753e-08)
(5.25671 -0.0435711 -1.14247e-08)
(5.3776 -0.0387143 -1.14045e-08)
(5.47546 -0.0344032 -1.15018e-08)
(5.56597 -0.0302436 -1.14923e-08)
(5.64241 -0.0271613 -1.15674e-08)
(5.71132 -0.0243356 -1.14934e-08)
(5.774 -0.0223253 -1.15277e-08)
(5.8278 -0.0205921 -1.1459e-08)
(5.88363 -0.0187484 -1.15514e-08)
(5.92265 -0.0186708 -1.15435e-08)
(5.98147 -0.0147937 -1.1655e-08)
(5.99358 -0.0197165 -1.16362e-08)
(6.07494 -0.00956561 -1.17118e-08)
(6.02692 -0.0262151 -1.16335e-08)
(4.50195 -0.0214954 -1.12835e-08)
(4.62198 -0.0541904 -1.1321e-08)
(4.73017 -0.0791277 -1.13567e-08)
(4.88866 -0.0913482 -1.1377e-08)
(5.01419 -0.0927133 -1.1429e-08)
(5.1462 -0.0873065 -1.13959e-08)
(5.2419 -0.0773246 -1.14408e-08)
(5.32939 -0.066932 -1.14158e-08)
(5.3904 -0.0564963 -1.15064e-08)
(5.4432 -0.0481071 -1.14791e-08)
(5.48024 -0.040539 -1.153e-08)
(5.51271 -0.0353067 -1.1434e-08)
(5.53548 -0.0298638 -1.14618e-08)
(5.55818 -0.0273848 -1.1432e-08)
(5.57186 -0.021849 -1.15708e-08)
(5.59117 -0.0231335 -1.15496e-08)
(5.59931 -0.0128435 -1.1622e-08)
(5.61591 -0.0214409 -1.16223e-08)
(5.62923 0.00176204 -1.17007e-08)
(5.62941 -0.00855932 -1.16039e-08)
(4.51214 -0.0571188 -1.12894e-08)
(4.6439 -0.108107 -1.13481e-08)
(4.72709 -0.13775 -1.13813e-08)
(4.80672 -0.146272 -1.13973e-08)
(4.82049 -0.140794 -1.14435e-08)
(4.824 -0.125226 -1.1393e-08)
(4.79273 -0.107045 -1.14112e-08)
(4.76077 -0.087744 -1.13851e-08)
(4.71695 -0.072 -1.14986e-08)
(4.67612 -0.0578964 -1.1507e-08)
(4.63501 -0.0482203 -1.15913e-08)
(4.5961 -0.0394677 -1.15318e-08)
(4.56258 -0.0344078 -1.15921e-08)
(4.52865 -0.0289907 -1.15559e-08)
(4.5038 -0.0261715 -1.16588e-08)
(4.47486 -0.0239568 -1.16303e-08)
(4.45827 -0.0191757 -1.17099e-08)
(4.43445 -0.0260347 -1.16349e-08)
(4.4193 -0.0101966 -1.17045e-08)
(4.4018 -0.0399448 -1.15956e-08)
(4.45308 -0.064456 -1.12855e-08)
(4.23458 -0.116339 -1.12966e-08)
(3.87264 -0.125728 -1.13121e-08)
(3.53525 -0.110392 -1.13205e-08)
(3.19908 -0.0858609 -1.13687e-08)
(2.93414 -0.0623701 -1.13477e-08)
(2.70904 -0.040592 -1.14246e-08)
(2.5465 -0.0246662 -1.14425e-08)
(2.4206 -0.0117436 -1.15731e-08)
(2.33173 -0.00391667 -1.15794e-08)
(2.26775 0.00250901 -1.1667e-08)
(2.21986 0.00505219 -1.16209e-08)
(2.18797 0.00849571 -1.16918e-08)
(2.16153 0.00766399 -1.1646e-08)
(2.14279 0.011424 -1.17153e-08)
(2.13343 0.0068014 -1.16562e-08)
(2.10833 0.0155196 -1.17129e-08)
(2.1354 0.00590655 -1.16533e-08)
(2.06544 0.0275419 -1.17292e-08)
(2.19369 0.0468881 -1.16835e-08)
(4.49817 0.188134 -0.00525141)
(3.75232 0.274836 -0.00363993)
(3.16743 0.235879 -0.00442463)
(2.61112 0.160593 -0.00338655)
(2.35438 0.111808 -0.00413547)
(2.09464 0.0796448 -0.00330983)
(2.02277 0.0645532 -0.00397186)
(1.89088 0.056199 -0.00326627)
(1.87532 0.0525624 -0.00382889)
(1.79267 0.0506552 -0.0032161)
(1.79126 0.0491454 -0.00369034)
(1.73278 0.0493694 -0.0031588)
(1.73469 0.0466384 -0.00355914)
(1.69121 0.0499596 -0.0030997)
(1.69352 0.0404496 -0.00343877)
(1.66291 0.0538837 -0.00304179)
(1.65882 0.0138669 -0.0033329)
(1.6763 0.060319 -0.00298431)
(1.59881 -0.124015 -0.00327134)
(2.03221 -0.166046 -0.00287056)
(4.62852 0.106347 -0.00337789)
(4.6639 0.226907 -0.00207663)
(4.79831 0.204012 -0.00281958)
(4.67311 0.150611 -0.00179426)
(4.64928 0.0959956 -0.00253691)
(4.49193 0.0539718 -0.00170864)
(4.45069 0.0264778 -0.00236698)
(4.32289 0.00938858 -0.00165956)
(4.29184 -0.00156387 -0.00222004)
(4.1945 -0.00847948 -0.00160655)
(4.1727 -0.0131307 -0.00207916)
(4.09802 -0.0173599 -0.00154801)
(4.0833 -0.0180852 -0.00194586)
(4.02302 -0.0236974 -0.00148893)
(4.01718 -0.0174608 -0.00182126)
(3.95774 -0.0300245 -0.00143213)
(3.9747 -0.00761712 -0.00169964)
(3.87282 -0.0266232 -0.00137098)
(3.96607 0.00586814 -0.00155307)
(3.57468 0.0704869 -0.00118711)
(4.56131 0.0601666 -0.00467488)
(4.72007 0.182268 -0.00346359)
(5.04046 0.210574 -0.00417429)
(5.15057 0.187019 -0.00313786)
(5.33082 0.156356 -0.00386935)
(5.34645 0.125464 -0.00303581)
(5.43115 0.104222 -0.00369499)
(5.41018 0.088142 -0.00298842)
(5.45396 0.0769143 -0.00355229)
(5.42606 0.0685881 -0.00294036)
(5.45082 0.0615375 -0.00341636)
(5.42538 0.0568982 -0.00288532)
(5.43799 0.050982 -0.0032876)
(5.42009 0.0494443 -0.00282743)
(5.41914 0.0411207 -0.00317056)
(5.42024 0.0451357 -0.00277011)
(5.39223 0.0221964 -0.00307518)
(5.44529 0.0387501 -0.00271708)
(5.37124 -0.0410586 -0.00305446)
(5.52043 -0.0445124 -0.00267742)
(4.51956 0.0282226 -0.00321183)
(4.58574 0.0701285 -0.00211687)
(4.92813 0.0731106 -0.00281673)
(5.09074 0.0647135 -0.00180098)
(5.35055 0.0515353 -0.00252778)
(5.4472 0.039107 -0.0016937)
(5.60962 0.0299415 -0.00234826)
(5.66197 0.0233058 -0.00163978)
(5.77033 0.0185172 -0.0022002)
(5.80238 0.0149303 -0.00158764)
(5.88016 0.0120774 -0.00206067)
(5.90089 0.00943561 -0.00153073)
(5.96011 0.00791269 -0.00192836)
(5.97068 0.00503149 -0.00147264)
(6.02147 0.00571511 -0.00180314)
(6.01339 0.0013211 -0.00141511)
(6.07255 0.00581634 -0.00167502)
(6.00326 0.00252519 -0.00134602)
(6.10542 0.00379606 -0.00149095)
(5.81161 0.0310368 -0.00117913)
(4.55123 -1.61035e-08 -0.00458626)
(4.66797 5.6182e-08 -0.0034927)
(4.98334 -4.1536e-09 -0.00418139)
(5.13692 1.62828e-07 -0.00315048)
(5.38835 7.35369e-08 -0.00387343)
(5.48781 4.17333e-07 -0.00303571)
(5.65621 4.65674e-07 -0.00369252)
(5.71885 1.0046e-06 -0.00298468)
(5.83847 1.8264e-06 -0.00354852)
(5.88478 2.53943e-06 -0.00293669)
(5.97478 5.78773e-06 -0.00341317)
(6.0129 7.11522e-06 -0.00288247)
(6.08043 1.59473e-05 -0.00328528)
(6.1159 2.09742e-05 -0.00282532)
(6.16079 4.29933e-05 -0.00316957)
(6.20516 5.66051e-05 -0.00276879)
(6.21868 0.000129088 -0.0030787)
(6.29505 0.000155544 -0.00271751)
(6.2818 0.000438582 -0.00307201)
(6.37941 0.000629022 -0.00270003)
(4.51956 -0.0282226 -0.00321183)
(4.58574 -0.0701284 -0.00211687)
(4.92813 -0.0731107 -0.00281673)
(5.09074 -0.064713 -0.00180098)
(5.35055 -0.0515354 -0.00252778)
(5.4472 -0.0391057 -0.0016937)
(5.60962 -0.0299413 -0.00234825)
(5.66197 -0.0233025 -0.00163978)
(5.77032 -0.0185156 -0.0022002)
(5.80239 -0.014921 -0.00158764)
(5.88015 -0.0120717 -0.00206067)
(5.90091 -0.00940722 -0.00153073)
(5.9601 -0.00789866 -0.00192835)
(5.97072 -0.00494011 -0.00147264)
(6.02148 -0.00568661 -0.00180312)
(6.0135 -0.00103917 -0.0014151)
(6.07264 -0.00573824 -0.00167498)
(6.00355 -0.00175756 -0.00134597)
(6.10584 -0.00346671 -0.00149103)
(5.81243 -0.0293543 -0.00117897)
(4.56131 -0.0601666 -0.00467488)
(4.72007 -0.182268 -0.00346359)
(5.04046 -0.210574 -0.00417429)
(5.15057 -0.187019 -0.00313786)
(5.33082 -0.156356 -0.00386935)
(5.34645 -0.125463 -0.00303581)
(5.43115 -0.104221 -0.00369499)
(5.41019 -0.0881405 -0.00298843)
(5.45396 -0.0769107 -0.00355229)
(5.42608 -0.0685838 -0.00294036)
(5.45082 -0.0615264 -0.00341635)
(5.42541 -0.0568851 -0.00288534)
(5.438 -0.050952 -0.00328757)
(5.42019 -0.0494011 -0.00282747)
(5.4192 -0.0410415 -0.00317049)
(5.42048 -0.0450027 -0.00277021)
(5.39249 -0.0219626 -0.00307501)
(5.44588 -0.0384087 -0.00271727)
(5.37207 0.0418364 -0.00305404)
(5.52203 0.0453852 -0.0026775)
(4.62852 -0.106347 -0.00337789)
(4.6639 -0.226907 -0.00207663)
(4.79831 -0.204012 -0.00281958)
(4.67311 -0.15061 -0.00179426)
(4.64928 -0.0959956 -0.00253691)
(4.49193 -0.0539712 -0.00170864)
(4.45069 -0.0264774 -0.00236698)
(4.32289 -0.00938699 -0.00165956)
(4.29184 0.00156515 -0.00222003)
(4.19452 0.00848384 -0.00160655)
(4.1727 0.0131342 -0.00207915)
(4.09807 0.0173733 -0.00154802)
(4.08331 0.0180916 -0.00194583)
(4.02319 0.0237417 -0.00148895)
(4.01722 0.0174657 -0.00182119)
(3.95819 0.0301648 -0.0014322)
(3.97487 0.00761337 -0.00169947)
(3.87417 0.0270232 -0.0013711)
(3.96656 -0.00573776 -0.00155284)
(3.57895 -0.0693389 -0.00118722)
(4.49817 -0.188134 -0.00525141)
(3.75232 -0.274836 -0.00363993)
(3.16743 -0.235879 -0.00442463)
(2.61112 -0.160593 -0.00338655)
(2.35439 -0.111808 -0.00413547)
(2.09464 -0.0796448 -0.00330983)
(2.02277 -0.0645527 -0.00397186)
(1.89088 -0.0561992 -0.00326627)
(1.87533 -0.052561 -0.00382889)
(1.79268 -0.0506558 -0.00321611)
(1.79127 -0.0491411 -0.00369034)
(1.73281 -0.0493705 -0.00315882)
(1.73473 -0.0466263 -0.00355912)
(1.6913 -0.0499591 -0.00309974)
(1.69366 -0.0404184 -0.00343869)
(1.66312 -0.0538718 -0.00304192)
(1.65929 -0.0137965 -0.00333264)
(1.67684 -0.0603082 -0.00298478)
(1.59995 0.124074 -0.0032701)
(2.03448 0.165424 -0.00287297)
(3.51916 0.414512 27.0291)
(2.83075 0.146122 27.0661)
(2.09536 0.0427798 27.068)
(1.90175 -0.0236175 27.0753)
(1.63301 -0.043621 27.0736)
(1.62411 -0.0499355 27.0777)
(1.47339 -0.0507922 27.0756)
(1.5029 -0.0495872 27.0787)
(1.39327 -0.0482642 27.0769)
(1.42936 -0.0469372 27.0793)
(1.34259 -0.0452986 27.0778)
(1.37812 -0.0451488 27.0798)
(1.30731 -0.0420753 27.0787)
(1.34043 -0.0447949 27.0802)
(1.2809 -0.0361021 27.0795)
(1.31155 -0.0462321 27.0803)
(1.25789 -0.0154274 27.0805)
(1.27641 -0.0448306 27.0798)
(1.25035 0.0911888 27.083)
(1.03636 0.122573 27.0715)
(4.59845 0.541399 27.0541)
(4.79123 0.368651 27.0831)
(4.50258 0.279825 27.0831)
(4.45552 0.181559 27.0901)
(4.17028 0.126282 27.0901)
(4.14823 0.095548 27.0945)
(3.93071 0.0766891 27.0939)
(3.93817 0.0658532 27.0968)
(3.77074 0.0577094 27.0963)
(3.79338 0.0526058 27.0984)
(3.66086 0.0476384 27.098)
(3.69043 0.045498 27.0994)
(3.58224 0.0404351 27.0994)
(3.61602 0.0421653 27.1002)
(3.52252 0.0318296 27.1009)
(3.56623 0.0423657 27.1003)
(3.47135 0.0137253 27.1034)
(3.55822 0.035278 27.0984)
(3.41696 -0.0198477 27.1089)
(3.76122 -0.0685712 27.0781)
(4.71696 0.28432 27.0558)
(5.19367 0.205108 27.0793)
(5.29752 0.182654 27.072)
(5.5362 0.122475 27.0764)
(5.47795 0.0858386 27.0724)
(5.59938 0.0606291 27.0762)
(5.50937 0.0428004 27.0733)
(5.58867 0.0305332 27.0765)
(5.50027 0.0211647 27.0743)
(5.559 0.0136591 27.077)
(5.4797 0.00848282 27.0755)
(5.52498 0.00293837 27.0776)
(5.45738 0.000910566 27.0768)
(5.49016 -0.00445288 27.0783)
(5.43847 -0.00220008 27.0784)
(5.45058 -0.00928125 27.0789)
(5.42732 0.00321368 27.0806)
(5.38718 -0.00658327 27.0789)
(5.4099 0.0350893 27.0835)
(5.25617 0.0584955 27.0623)
(4.69491 0.166913 27.0645)
(5.11193 0.127925 27.0883)
(5.31305 0.119951 27.0826)
(5.64922 0.090104 27.0848)
(5.70754 0.0715749 27.0816)
(5.92529 0.0593829 27.0834)
(5.93242 0.0506135 27.0815)
(6.08599 0.0447789 27.0828)
(6.07411 0.039781 27.0816)
(6.18918 0.0360187 27.0827)
(6.16855 0.0324006 27.0819)
(6.25873 0.0299146 27.0827)
(6.23246 0.0265271 27.0823)
(6.30812 0.0257892 27.083)
(6.27484 0.0206413 27.083)
(6.34921 0.0235075 27.0833)
(6.30265 0.0119821 27.0838)
(6.40496 0.01892 27.0837)
(6.33631 0.00105255 27.0849)
(6.55687 -0.0095779 27.0644)
(4.69617 -5.80017e-09 27.0597)
(5.10862 7.8248e-08 27.082)
(5.31931 -9.40921e-09 27.0734)
(5.66986 2.28635e-07 27.0758)
(5.74208 1.54993e-08 27.0704)
(5.97492 6.0225e-07 27.0729)
(5.99981 2.99152e-07 27.0691)
(6.17058 1.51807e-06 27.0713)
(6.1792 1.53186e-06 27.0685)
(6.31099 4.1239e-06 27.0704)
(6.312 5.24849e-06 27.0683)
(6.4145 1.35066e-05 27.07)
(6.41272 1.26728e-05 27.0685)
(6.48911 5.00621e-05 27.0701)
(6.49206 2.08019e-05 27.0691)
(6.53481 0.000175021 27.0704)
(6.55959 3.79911e-05 27.0698)
(6.53789 0.000504703 27.0711)
(6.6034 0.000168228 27.0708)
(6.47332 0.000824446 27.0524)
(4.69491 -0.166913 27.0645)
(5.11193 -0.127925 27.0883)
(5.31305 -0.119951 27.0826)
(5.64923 -0.0901037 27.0848)
(5.70754 -0.0715747 27.0816)
(5.92529 -0.0593821 27.0835)
(5.93242 -0.0506125 27.0814)
(6.08599 -0.044777 27.0829)
(6.07411 -0.039777 27.0816)
(6.18919 -0.036014 27.0827)
(6.16855 -0.0323874 27.0818)
(6.25875 -0.0299007 27.0828)
(6.23247 -0.0264925 27.0822)
(6.30818 -0.0257376 27.0831)
(6.27488 -0.0205642 27.0828)
(6.34934 -0.0233251 27.0836)
(6.30283 -0.0117985 27.0835)
(6.40522 -0.018404 27.0841)
(6.33681 -0.000383089 27.0844)
(6.5576 0.0108932 27.0648)
(4.71696 -0.28432 27.0558)
(5.19367 -0.205108 27.0793)
(5.29752 -0.182654 27.072)
(5.5362 -0.122474 27.0764)
(5.47795 -0.0858385 27.0724)
(5.59938 -0.0606283 27.0762)
(5.50937 -0.0427998 27.0733)
(5.58867 -0.0305311 27.0765)
(5.50027 -0.0211623 27.0743)
(5.55901 -0.0136533 27.077)
(5.4797 -0.00847536 27.0754)
(5.52503 -0.00291962 27.0778)
(5.45738 -0.000895028 27.0766)
(5.49029 0.0045222 27.0787)
(5.4385 0.00221476 27.0779)
(5.45091 0.00952163 27.0797)
(5.42754 -0.00321905 27.0793)
(5.38796 0.00725932 27.0809)
(5.41084 -0.0349212 27.0807)
(5.25839 -0.0570422 27.0661)
(4.59845 -0.541399 27.0541)
(4.79123 -0.36865 27.0831)
(4.50258 -0.279825 27.0831)
(4.45552 -0.181559 27.0901)
(4.17028 -0.126282 27.0901)
(4.14824 -0.0955478 27.0945)
(3.93072 -0.0766882 27.0939)
(3.93817 -0.0658528 27.0969)
(3.77075 -0.0577067 27.0963)
(3.79339 -0.0526049 27.0984)
(3.66087 -0.0476302 27.098)
(3.69048 -0.0454944 27.0996)
(3.58227 -0.040414 27.0992)
(3.61616 -0.0421464 27.1005)
(3.52266 -0.031782 27.1003)
(3.56653 -0.0422821 27.1014)
(3.47188 -0.0136158 27.1013)
(3.5589 -0.0350278 27.1021)
(3.41842 0.0201993 27.1019)
(3.76324 0.0688186 27.0908)
(3.51916 -0.414512 27.0291)
(2.83075 -0.146122 27.0661)
(2.09536 -0.0427798 27.068)
(1.90175 0.0236176 27.0753)
(1.63301 0.043621 27.0736)
(1.62411 0.0499357 27.0777)
(1.47339 0.050792 27.0756)
(1.50291 0.0495877 27.0787)
(1.39328 0.0482636 27.0769)
(1.42937 0.0469382 27.0793)
(1.3426 0.0452967 27.0778)
(1.37814 0.045151 27.0798)
(1.30733 0.0420693 27.0786)
(1.34051 0.0448012 27.0803)
(1.28099 0.036088 27.0793)
(1.31173 0.0462481 27.0807)
(1.25823 0.0153884 27.0799)
(1.27685 0.0448848 27.081)
(1.25139 -0.0911511 27.0803)
(1.03814 -0.121981 27.0794)
(1.10844 -0.155747 -27.1267)
(1.19939 -0.144942 -27.243)
(1.15475 -0.11386 -27.3145)
(1.17399 -0.110306 -27.3698)
(1.14329 -0.109984 -27.4114)
(1.15981 -0.110031 -27.4477)
(1.13623 -0.110546 -27.4769)
(1.15023 -0.110702 -27.5032)
(1.13128 -0.11111 -27.5251)
(1.14326 -0.111233 -27.5451)
(1.12762 -0.111544 -27.562)
(1.13809 -0.111637 -27.5774)
(1.12492 -0.111875 -27.5905)
(1.13424 -0.111944 -27.6023)
(1.12299 -0.112126 -27.6123)
(1.13141 -0.112173 -27.6212)
(1.12165 -0.112312 -27.6287)
(1.12935 -0.112339 -27.6353)
(1.12081 -0.112442 -27.6407)
(1.1279 -0.112452 -27.6453)
(1.12035 -0.112527 -27.649)
(1.12693 -0.112524 -27.652)
(1.12021 -0.112578 -27.6544)
(1.12634 -0.112564 -27.6562)
(1.12032 -0.112602 -27.6576)
(1.12606 -0.112582 -27.6587)
(1.12063 -0.112609 -27.6594)
(1.12601 -0.112586 -27.6598)
(1.12111 -0.112606 -27.6601)
(1.12616 -0.112582 -27.6603)
(1.12172 -0.112598 -27.6603)
(1.12648 -0.112576 -27.6603)
(1.12245 -0.112589 -27.6602)
(1.12693 -0.112568 -27.6601)
(1.12326 -0.11258 -27.66)
(1.12748 -0.112561 -27.6599)
(1.12415 -0.112572 -27.6598)
(1.12813 -0.112555 -27.6596)
(1.12509 -0.112565 -27.6595)
(1.12885 -0.112549 -27.6593)
(1.12607 -0.112558 -27.6592)
(1.12962 -0.112544 -27.6591)
(1.12709 -0.112552 -27.6589)
(1.13045 -0.112539 -27.6588)
(1.12814 -0.112547 -27.6587)
(1.13131 -0.112534 -27.6585)
(1.1292 -0.112542 -27.6584)
(1.13221 -0.11253 -27.6582)
(1.13028 -0.112537 -27.6581)
(1.13313 -0.112527 -27.658)
(1.13138 -0.112533 -27.6578)