/*--------------------------------*- C++ -*----------------------------------*\
  =========                 |
  \\      /  F ield         | OpenFOAM: The Open Source CFD Toolbox
   \\    /   O peration     | Website:  https://openfoam.org
    \\  /    A nd           | Version:  7
     \\/     M anipulation  |
\*---------------------------------------------------------------------------*/
FoamFile
{
    version     2.0;
    format      ascii;
    class       volScalarField;
    location    "4.35";
    object      alphat;
}
// * * * * * * * * * * * * * * * * * * * * * * * * * * * * * * * * * * * * * //

dimensions      [1 -1 -1 0 0 0 0];

internalField   nonuniform List<scalar> 
1800
(
0.00155773
0.00357137
0.00412921
0.00409263
0.00392039
0.003671
0.00346938
0.00331555
0.00319941
0.00310911
0.00303631
0.00297554
0.00292331
0.00287742
0.00283653
0.00279972
0.00276637
0.00273599
0.00270824
0.00268272
0.00265925
0.00263746
0.00261728
0.00259843
0.00258064
0.00256428
0.00254771
0.00253426
0.00251394
0.00253002
0.000278663
0.00112508
0.00197087
0.0023866
0.00257754
0.00264442
0.00265944
0.00265639
0.00264758
0.00263284
0.00261696
0.00260035
0.00258335
0.0025666
0.00255033
0.00253468
0.0025196
0.00250519
0.00249124
0.00247806
0.00246502
0.00245314
0.00244063
0.00243046
0.00241771
0.00241009
0.0023961
0.00239088
0.00237216
0.00237386
3.07682e-05
0.000219306
0.000496962
0.000821867
0.00106756
0.00122362
0.00132368
0.00139175
0.00144208
0.00148244
0.00151644
0.00154734
0.00157602
0.00160321
0.00162809
0.00165181
0.00167296
0.00169351
0.001711
0.00172878
0.00174268
0.00175826
0.00176866
0.00178262
0.00178978
0.00180238
0.00180725
0.00181818
0.00182117
0.001829
1.36334e-05
3.57775e-05
9.38716e-05
0.000178814
0.000285272
0.000383102
0.000458545
0.000519804
0.000568301
0.00061044
0.000645699
0.000678684
0.000707443
0.000736069
0.000761466
0.00078777
0.000811124
0.000836042
0.000858019
0.000881984
0.000902965
0.000926077
0.000946361
0.000968416
0.000988407
0.00100886
0.00102923
0.00104707
0.00106892
0.001083
1.3427e-05
1.46151e-05
2.02069e-05
3.29296e-05
5.1994e-05
7.88046e-05
0.000101563
0.000125716
0.000145202
0.000165425
0.000182641
0.00020063
0.000216556
0.000233185
0.0002483
0.000263915
0.000278427
0.000293217
0.000307316
0.00032144
0.000335347
0.000348937
0.000362883
0.000375981
0.000390242
0.000402753
0.000417741
0.000429313
0.000445729
0.000456048
1.33983e-05
1.39453e-05
1.55144e-05
1.69229e-05
1.949e-05
2.1215e-05
2.43966e-05
2.63963e-05
3.00911e-05
3.23354e-05
3.65308e-05
3.90466e-05
4.37776e-05
4.65433e-05
5.17663e-05
5.47358e-05
6.03649e-05
6.34984e-05
6.94586e-05
7.27312e-05
7.89008e-05
8.24559e-05
8.87343e-05
9.25872e-05
9.8999e-05
0.000103085
0.000109745
0.000113963
0.000121079
0.000125379
1.33982e-05
1.39447e-05
1.5515e-05
1.6924e-05
1.96862e-05
2.12873e-05
2.45811e-05
2.64697e-05
3.02027e-05
3.23605e-05
3.65843e-05
3.90299e-05
4.37936e-05
4.64971e-05
5.17458e-05
5.46573e-05
6.03046e-05
6.33806e-05
6.93534e-05
7.25643e-05
7.88061e-05
8.21296e-05
8.85959e-05
9.20182e-05
9.86789e-05
0.000102179
0.000108987
0.000112519
0.0001194
0.000123019
1.34264e-05
1.46152e-05
2.02142e-05
3.29429e-05
5.50828e-05
7.5148e-05
0.00010525
0.000122569
0.000147686
0.00016289
0.000184553
0.000198429
0.000218192
0.000231177
0.000249716
0.000261989
0.000279658
0.000291336
0.000308396
0.000319584
0.000336234
0.000347016
0.000363426
0.00037386
0.000390176
0.000400228
0.00041653
0.000425941
0.000442257
0.000451083
1.36345e-05
3.58094e-05
9.39125e-05
0.00017884
0.000285594
0.000382664
0.000458659
0.000519255
0.000568338
0.000609794
0.000645758
0.000677984
0.000707589
0.000735287
0.000761684
0.000786852
0.000811423
0.000834953
0.000858417
0.000880676
0.000903425
0.000924439
0.000946744
0.000966297
0.000988408
0.00100604
0.00102816
0.00104317
0.00106522
0.00107739
3.0832e-05
0.000219402
0.000497006
0.000821741
0.00106734
0.00122337
0.00132339
0.00139145
0.00144177
0.00148213
0.00151614
0.00154703
0.00157575
0.0016029
0.00162782
0.00165148
0.0016727
0.00169313
0.00171074
0.00172829
0.00174239
0.00175754
0.00176825
0.00178152
0.00178904
0.00180073
0.00180553
0.00181515
0.00181788
0.00182386
0.000278869
0.0011252
0.00197066
0.00238624
0.00257714
0.00264399
0.00265902
0.00265597
0.00264716
0.00263243
0.00261656
0.00259997
0.00258297
0.00256625
0.00254996
0.00253435
0.00251922
0.00250492
0.00249083
0.00247785
0.00246454
0.00245305
0.00244006
0.00243052
0.00241713
0.00241014
0.00239592
0.00239038
0.00237284
0.00237346
0.00155746
0.00357071
0.00412847
0.00409189
0.00391968
0.00367034
0.00346877
0.00331498
0.00319887
0.00310859
0.00303582
0.00297508
0.00292286
0.00287701
0.00283612
0.00279937
0.00276602
0.00273577
0.00270796
0.00268272
0.00265913
0.00263795
0.00261749
0.00259986
0.0025815
0.00256746
0.00255006
0.00254021
0.00252139
0.00253562
0.00645218
0.00675433
0.00669509
0.00661145
0.00655302
0.00650737
0.00647167
0.00644543
0.00642665
0.00641397
0.00640511
0.00639921
0.00639496
0.00639175
0.00638917
0.00638691
0.00638481
0.0063828
0.00638081
0.00637885
0.0063769
0.00637497
0.00637308
0.00637123
0.00636942
0.00636765
0.00636594
0.00636427
0.00636266
0.0063611
0.00635959
0.00635812
0.0063567
0.00635532
0.00635398
0.00635268
0.00635141
0.00635018
0.00634897
0.0063478
0.00634666
0.00634554
0.00634444
0.00634337
0.00634233
0.0063413
0.00634029
0.0063393
0.00633833
0.00633738
0.00633645
0.00633553
0.00633462
0.00633373
0.00633286
0.006332
0.00633115
0.00633031
0.00632949
0.00632867
0.00632787
0.00632708
0.0063263
0.00632553
0.00632477
0.00632402
0.00632328
0.00632255
0.00632182
0.00632111
0.00632041
0.00631971
0.00631902
0.00631834
0.00631767
0.00631701
0.00631635
0.00631571
0.00631507
0.00631444
0.00631383
0.00631322
0.00631261
0.00631202
0.00631144
0.00631087
0.00631031
0.00630977
0.00630923
0.00630871
0.0063082
0.0063077
0.00630722
0.00630676
0.00630631
0.00630588
0.00630546
0.00630507
0.00630469
0.00630434
0.00630401
0.00630371
0.00630342
0.00630317
0.00630293
0.00630273
0.00630255
0.00630242
0.00630229
0.00630222
0.00630214
0.00630217
0.00630212
0.00630226
0.00630221
0.00630253
0.00630241
0.00630296
0.00630284
0.00630354
0.00643713
0.00713718
0.00724058
0.00721183
0.00717432
0.0071412
0.0071171
0.00710065
0.0070883
0.00708055
0.00707511
0.00707106
0.00706778
0.00706492
0.00706227
0.00705974
0.00705726
0.00705482
0.00705242
0.00705005
0.00704773
0.00704547
0.00704327
0.00704113
0.00703905
0.00703704
0.0070351
0.00703323
0.00703141
0.00702965
0.00702795
0.00702631
0.00702471
0.00702316
0.00702166
0.0070202
0.00701878
0.00701739
0.00701604
0.00701473
0.00701344
0.00701219
0.00701097
0.00700977
0.0070086
0.00700745
0.00700632
0.00700522
0.00700414
0.00700307
0.00700203
0.00700101
0.007
0.00699901
0.00699803
0.00699707
0.00699612
0.00699519
0.00699428
0.00699337
0.00699248
0.0069916
0.00699073
0.00698988
0.00698903
0.0069882
0.00698738
0.00698656
0.00698576
0.00698497
0.00698419
0.00698341
0.00698265
0.0069819
0.00698115
0.00698042
0.00697969
0.00697897
0.00697827
0.00697757
0.00697688
0.00697621
0.00697554
0.00697488
0.00697424
0.0069736
0.00697298
0.00697237
0.00697177
0.00697119
0.00697062
0.00697007
0.00696953
0.00696901
0.00696851
0.00696803
0.00696756
0.00696712
0.0069667
0.0069663
0.00696593
0.00696558
0.00696526
0.00696497
0.00696471
0.00696448
0.00696427
0.00696411
0.00696395
0.00696387
0.00696377
0.00696379
0.00696372
0.00696388
0.0069638
0.00696416
0.00696401
0.00696458
0.00696463
0.00696504
0.00491731
0.00596357
0.00630473
0.00640358
0.00643188
0.00644179
0.00644813
0.00645399
0.00645855
0.00646209
0.00646414
0.00646473
0.00646409
0.00646253
0.00646037
0.00645783
0.00645511
0.00645233
0.00644958
0.0064469
0.00644432
0.00644185
0.0064395
0.00643726
0.00643512
0.00643309
0.00643114
0.00642928
0.0064275
0.00642578
0.00642414
0.00642254
0.00642101
0.00641952
0.00641808
0.00641669
0.00641533
0.00641402
0.00641274
0.00641149
0.00641027
0.00640908
0.00640792
0.00640679
0.00640568
0.00640459
0.00640353
0.00640248
0.00640146
0.00640046
0.00639947
0.0063985
0.00639755
0.00639662
0.0063957
0.00639479
0.0063939
0.00639302
0.00639216
0.00639131
0.00639047
0.00638964
0.00638883
0.00638802
0.00638723
0.00638645
0.00638567
0.00638491
0.00638416
0.00638341
0.00638268
0.00638195
0.00638124
0.00638053
0.00637983
0.00637914
0.00637846
0.00637779
0.00637713
0.00637647
0.00637583
0.00637519
0.00637456
0.00637395
0.00637334
0.00637275
0.00637216
0.00637159
0.00637103
0.00637048
0.00636995
0.00636943
0.00636892
0.00636843
0.00636796
0.0063675
0.00636707
0.00636665
0.00636625
0.00636587
0.00636552
0.00636519
0.00636488
0.0063646
0.00636434
0.00636412
0.00636391
0.00636375
0.0063636
0.00636352
0.00636341
0.00636342
0.00636334
0.00636348
0.00636338
0.0063637
0.00636357
0.00636401
0.00636422
0.00636439
0.00273253
0.00405544
0.00475774
0.00509776
0.0052704
0.00537027
0.00543582
0.00548206
0.00551452
0.00553661
0.00555065
0.00555863
0.00556227
0.00556297
0.00556181
0.00555956
0.00555675
0.00555372
0.00555066
0.0055477
0.0055449
0.00554226
0.0055398
0.0055375
0.00553535
0.00553333
0.00553142
0.00552961
0.0055279
0.00552626
0.00552468
0.00552317
0.00552171
0.00552031
0.00551895
0.00551763
0.00551635
0.00551511
0.0055139
0.00551272
0.00551158
0.00551046
0.00550937
0.00550831
0.00550727
0.00550625
0.00550525
0.00550428
0.00550332
0.00550239
0.00550147
0.00550056
0.00549968
0.0054988
0.00549795
0.00549711
0.00549628
0.00549546
0.00549466
0.00549387
0.00549309
0.00549232
0.00549156
0.00549082
0.00549008
0.00548936
0.00548864
0.00548793
0.00548723
0.00548654
0.00548586
0.00548519
0.00548453
0.00548387
0.00548323
0.00548259
0.00548196
0.00548134
0.00548072
0.00548012
0.00547952
0.00547893
0.00547836
0.00547779
0.00547722
0.00547667
0.00547613
0.0054756
0.00547508
0.00547458
0.00547408
0.0054736
0.00547313
0.00547267
0.00547223
0.00547181
0.0054714
0.00547101
0.00547063
0.00547028
0.00546995
0.00546963
0.00546934
0.00546907
0.00546882
0.00546861
0.0054684
0.00546824
0.00546808
0.00546799
0.00546786
0.00546786
0.00546775
0.00546787
0.00546775
0.00546802
0.0054679
0.0054682
0.00546848
0.00546855
0.00110415
0.00176857
0.00265176
0.00328952
0.00370104
0.00396659
0.00414091
0.00425712
0.00433447
0.00438511
0.0044172
0.00443643
0.00444694
0.00445171
0.00445285
0.00445181
0.00444957
0.00444675
0.00444372
0.00444071
0.00443783
0.00443513
0.00443263
0.00443032
0.00442818
0.00442619
0.00442432
0.00442256
0.0044209
0.00441932
0.0044178
0.00441635
0.00441494
0.00441358
0.00441225
0.00441098
0.00440974
0.00440854
0.00440738
0.00440625
0.00440515
0.00440408
0.00440303
0.00440202
0.00440102
0.00440005
0.0043991
0.00439817
0.00439726
0.00439636
0.00439549
0.00439463
0.00439379
0.00439297
0.00439215
0.00439136
0.00439057
0.0043898
0.00438904
0.0043883
0.00438756
0.00438684
0.00438612
0.00438542
0.00438473
0.00438404
0.00438337
0.0043827
0.00438205
0.0043814
0.00438076
0.00438013
0.00437951
0.00437889
0.00437829
0.00437769
0.0043771
0.00437651
0.00437594
0.00437537
0.00437481
0.00437426
0.00437372
0.00437318
0.00437266
0.00437214
0.00437163
0.00437114
0.00437065
0.00437017
0.00436971
0.00436925
0.00436881
0.00436838
0.00436797
0.00436757
0.00436718
0.00436681
0.00436645
0.00436611
0.00436579
0.00436549
0.0043652
0.00436494
0.00436469
0.00436447
0.00436426
0.0043641
0.00436391
0.00436382
0.00436366
0.00436366
0.00436349
0.0043636
0.00436342
0.00436364
0.00436353
0.00436368
0.00436394
0.00436398
0.000299697
0.000499609
0.000858293
0.0013428
0.00185213
0.00227355
0.00259703
0.00283389
0.00300167
0.00311747
0.00319557
0.00324696
0.00327977
0.00329989
0.00331151
0.00331754
0.00332001
0.00332029
0.00331927
0.00331757
0.00331556
0.00331346
0.00331141
0.00330947
0.00330769
0.00330606
0.00330458
0.00330324
0.00330202
0.00330091
0.00329989
0.00329895
0.00329809
0.0032973
0.00329655
0.00329584
0.00329517
0.00329452
0.0032939
0.00329331
0.00329274
0.00329218
0.00329165
0.00329113
0.00329062
0.00329014
0.00328966
0.0032892
0.00328875
0.00328832
0.00328789
0.00328748
0.00328707
0.00328668
0.00328629
0.00328592
0.00328555
0.00328519
0.00328483
0.00328449
0.00328415
0.00328382
0.00328349
0.00328317
0.00328285
0.00328254
0.00328224
0.00328194
0.00328165
0.00328136
0.00328107
0.00328079
0.00328052
0.00328024
0.00327998
0.00327971
0.00327946
0.0032792
0.00327895
0.0032787
0.00327846
0.00327823
0.00327799
0.00327777
0.00327754
0.00327732
0.00327711
0.0032769
0.0032767
0.00327651
0.00327632
0.00327613
0.00327596
0.00327579
0.00327563
0.00327548
0.00327533
0.0032752
0.00327507
0.00327496
0.00327485
0.00327476
0.00327467
0.00327461
0.00327453
0.00327451
0.00327444
0.00327447
0.00327441
0.00327449
0.00327442
0.00327459
0.00327448
0.00327475
0.00327462
0.00327494
0.00327491
0.00327512
0.00327538
0.00327556
0.000295922
0.000488921
0.000842222
0.00132343
0.00184218
0.00227244
0.00260336
0.00284628
0.00301914
0.00313935
0.00322136
0.00327636
0.00331259
0.00333602
0.00335085
0.00336003
0.00336557
0.00336883
0.00337073
0.00337186
0.00337259
0.00337315
0.00337368
0.00337424
0.00337487
0.00337557
0.00337635
0.0033772
0.0033781
0.00337905
0.00338003
0.00338103
0.00338205
0.00338309
0.00338412
0.00338516
0.00338618
0.00338719
0.00338819
0.00338917
0.00339015
0.00339111
0.00339206
0.00339299
0.00339392
0.00339483
0.00339573
0.00339663
0.00339751
0.00339838
0.00339924
0.00340009
0.00340093
0.00340176
0.00340258
0.00340339
0.0034042
0.00340499
0.00340578
0.00340656
0.00340733
0.00340809
0.00340884
0.00340959
0.00341033
0.00341106
0.00341178
0.0034125
0.00341321
0.00341391
0.0034146
0.00341529
0.00341597
0.00341665
0.00341731
0.00341797
0.00341863
0.00341927
0.00341992
0.00342055
0.00342118
0.0034218
0.00342242
0.00342303
0.00342363
0.00342423
0.00342482
0.00342541
0.00342599
0.00342657
0.00342714
0.0034277
0.00342826
0.00342881
0.00342936
0.00342991
0.00343045
0.00343098
0.00343151
0.00343204
0.00343256
0.00343309
0.0034336
0.00343412
0.00343462
0.00343515
0.00343563
0.00343617
0.00343663
0.0034372
0.00343761
0.00343824
0.00343858
0.00343928
0.00343956
0.00344031
0.00344059
0.00344128
0.00344175
0.00344247
0.00109872
0.00175379
0.00263278
0.0032862
0.00371322
0.00399155
0.00417672
0.0043022
0.00438786
0.004446
0.00448492
0.00451054
0.00452713
0.00453774
0.0045445
0.00454887
0.00455184
0.00455404
0.00455585
0.00455751
0.00455914
0.0045608
0.00456251
0.00456427
0.00456608
0.00456792
0.00456977
0.00457163
0.00457348
0.00457532
0.00457713
0.00457893
0.00458069
0.00458242
0.00458412
0.0045858
0.00458746
0.0045891
0.00459071
0.0045923
0.00459386
0.00459541
0.00459694
0.00459844
0.00459993
0.0046014
0.00460285
0.00460428
0.00460569
0.00460709
0.00460847
0.00460983
0.00461118
0.00461252
0.00461383
0.00461514
0.00461643
0.0046177
0.00461896
0.00462021
0.00462144
0.00462266
0.00462387
0.00462506
0.00462624
0.00462741
0.00462857
0.00462971
0.00463085
0.00463197
0.00463308
0.00463418
0.00463526
0.00463634
0.0046374
0.00463846
0.0046395
0.00464053
0.00464155
0.00464256
0.00464357
0.00464456
0.00464554
0.00464651
0.00464747
0.00464842
0.00464937
0.0046503
0.00465122
0.00465214
0.00465304
0.00465394
0.00465483
0.00465571
0.00465659
0.00465745
0.00465831
0.00465916
0.00466
0.00466084
0.00466167
0.00466249
0.00466331
0.00466412
0.00466493
0.00466574
0.00466653
0.00466734
0.0046681
0.00466893
0.00466966
0.00467053
0.0046712
0.00467214
0.00467273
0.00467375
0.00467427
0.00467531
0.00467597
0.00467707
0.00273883
0.00404515
0.0047703
0.00513132
0.00532048
0.00543378
0.00551097
0.00556723
0.00560891
0.00563929
0.00566089
0.0056759
0.00568617
0.00569314
0.00569795
0.00570138
0.00570399
0.00570616
0.0057081
0.00570996
0.0057118
0.00571366
0.00571556
0.0057175
0.00571947
0.00572145
0.00572346
0.00572546
0.00572746
0.00572946
0.00573144
0.00573341
0.00573536
0.0057373
0.00573921
0.0057411
0.00574298
0.00574483
0.00574667
0.00574848
0.00575028
0.00575206
0.00575382
0.00575556
0.00575728
0.00575898
0.00576067
0.00576234
0.00576399
0.00576562
0.00576724
0.00576884
0.00577043
0.005772
0.00577355
0.00577509
0.00577661
0.00577812
0.00577961
0.00578109
0.00578255
0.005784
0.00578543
0.00578685
0.00578826
0.00578965
0.00579103
0.0057924
0.00579375
0.00579509
0.00579641
0.00579772
0.00579902
0.00580031
0.00580158
0.00580285
0.0058041
0.00580533
0.00580656
0.00580777
0.00580898
0.00581017
0.00581135
0.00581252
0.00581368
0.00581483
0.00581596
0.00581709
0.00581821
0.00581932
0.00582042
0.00582151
0.00582259
0.00582367
0.00582473
0.00582579
0.00582684
0.00582789
0.00582893
0.00582996
0.00583099
0.00583201
0.00583302
0.00583404
0.00583505
0.00583606
0.00583705
0.00583807
0.00583905
0.00584008
0.00584103
0.0058421
0.00584299
0.00584415
0.00584493
0.00584623
0.00584687
0.00584828
0.00584901
0.0058505
0.00492645
0.00598751
0.00635961
0.00648015
0.00652444
0.00654778
0.00656597
0.0065821
0.00659661
0.00660896
0.00661917
0.00662743
0.00663397
0.00663917
0.00664337
0.00664687
0.00664989
0.00665261
0.00665514
0.00665756
0.00665991
0.00666223
0.00666454
0.00666683
0.00666912
0.00667141
0.00667369
0.00667596
0.00667823
0.00668049
0.00668274
0.00668497
0.00668719
0.00668939
0.00669158
0.00669375
0.00669591
0.00669805
0.00670017
0.00670227
0.00670435
0.00670642
0.00670847
0.0067105
0.00671251
0.00671451
0.00671648
0.00671844
0.00672038
0.0067223
0.00672421
0.0067261
0.00672797
0.00672982
0.00673166
0.00673348
0.00673528
0.00673707
0.00673884
0.00674059
0.00674233
0.00674405
0.00674575
0.00674744
0.00674911
0.00675077
0.00675241
0.00675404
0.00675565
0.00675724
0.00675882
0.00676039
0.00676194
0.00676347
0.006765
0.0067665
0.006768
0.00676948
0.00677094
0.0067724
0.00677384
0.00677526
0.00677668
0.00677808
0.00677947
0.00678085
0.00678221
0.00678357
0.00678491
0.00678625
0.00678757
0.00678889
0.00679019
0.00679149
0.00679278
0.00679406
0.00679533
0.00679659
0.00679785
0.00679911
0.00680035
0.0068016
0.00680283
0.00680407
0.0068053
0.00680653
0.00680775
0.00680899
0.00681019
0.00681145
0.00681262
0.00681392
0.00681503
0.00681643
0.0068174
0.006819
0.00681977
0.00682157
0.00682231
0.00682426
0.00646154
0.00721027
0.00734252
0.00733488
0.00731183
0.00729177
0.00727932
0.00727285
0.00727125
0.00727232
0.00727529
0.00727932
0.0072836
0.00728782
0.00729186
0.00729564
0.0072992
0.00730254
0.00730571
0.00730874
0.00731166
0.0073145
0.00731727
0.00731999
0.00732267
0.00732532
0.00732795
0.00733055
0.00733314
0.00733571
0.00733826
0.00734079
0.00734331
0.00734582
0.00734831
0.00735077
0.00735323
0.00735567
0.00735809
0.00736049
0.00736288
0.00736525
0.0073676
0.00736993
0.00737225
0.00737455
0.00737683
0.00737909
0.00738133
0.00738356
0.00738576
0.00738795
0.00739012
0.00739226
0.0073944
0.00739651
0.0073986
0.00740068
0.00740274
0.00740477
0.00740679
0.0074088
0.00741078
0.00741275
0.0074147
0.00741663
0.00741854
0.00742044
0.00742232
0.00742418
0.00742602
0.00742785
0.00742966
0.00743146
0.00743323
0.007435
0.00743674
0.00743847
0.00744019
0.00744189
0.00744357
0.00744524
0.0074469
0.00744854
0.00745017
0.00745178
0.00745338
0.00745497
0.00745655
0.00745812
0.00745967
0.00746121
0.00746275
0.00746427
0.00746578
0.00746729
0.00746878
0.00747027
0.00747175
0.00747323
0.0074747
0.00747616
0.00747762
0.00747907
0.00748052
0.00748197
0.0074834
0.00748486
0.00748628
0.00748775
0.00748913
0.00749066
0.00749197
0.00749361
0.00749476
0.00749662
0.00749751
0.00749967
0.00750035
0.00750285
0.00649888
0.0068583
0.00681759
0.00675103
0.00670499
0.00666983
0.00664376
0.00662635
0.00661622
0.00661124
0.00660994
0.0066109
0.00661324
0.00661625
0.00661951
0.00662281
0.00662604
0.00662915
0.00663212
0.00663497
0.00663771
0.00664036
0.00664294
0.00664547
0.00664796
0.00665042
0.00665285
0.00665527
0.00665767
0.00666006
0.00666244
0.00666481
0.00666717
0.00666951
0.00667185
0.00667417
0.00667648
0.00667878
0.00668107
0.00668335
0.0066856
0.00668785
0.00669008
0.00669229
0.00669449
0.00669668
0.00669884
0.006701
0.00670313
0.00670525
0.00670735
0.00670943
0.0067115
0.00671355
0.00671559
0.00671761
0.00671961
0.00672159
0.00672355
0.0067255
0.00672744
0.00672935
0.00673125
0.00673313
0.006735
0.00673684
0.00673868
0.00674049
0.00674229
0.00674408
0.00674584
0.00674759
0.00674933
0.00675105
0.00675275
0.00675444
0.00675612
0.00675778
0.00675942
0.00676105
0.00676267
0.00676427
0.00676586
0.00676744
0.006769
0.00677055
0.00677209
0.00677362
0.00677513
0.00677664
0.00677813
0.00677962
0.00678109
0.00678256
0.00678401
0.00678546
0.0067869
0.00678833
0.00678975
0.00679117
0.00679258
0.00679399
0.00679539
0.00679679
0.00679818
0.00679958
0.00680095
0.00680235
0.00680371
0.00680513
0.00680645
0.00680791
0.00680917
0.00681073
0.00681184
0.00681361
0.00681445
0.00681656
0.00681702
0.00681973
)
;

boundaryField
{
    upperWall
    {
        type            zeroGradient;
    }
    lowerWall
    {
        type            zeroGradient;
    }
    heatedWall
    {
        type            zeroGradient;
    }
    inlet
    {
        type            zeroGradient;
    }
    outlet
    {
        type            zeroGradient;
    }
    frontAndBack
    {
        type            empty;
    }
}


// ************************************************************************* //
