/*--------------------------------*- C++ -*----------------------------------*\
  =========                 |
  \\      /  F ield         | OpenFOAM: The Open Source CFD Toolbox
   \\    /   O peration     | Website:  https://openfoam.org
    \\  /    A nd           | Version:  7
     \\/     M anipulation  |
\*---------------------------------------------------------------------------*/
FoamFile
{
    version     2.0;
    format      ascii;
    class       volVectorField;
    location    "1.605";
    object      U_0;
}
// * * * * * * * * * * * * * * * * * * * * * * * * * * * * * * * * * * * * * //

dimensions      [0 1 -1 0 0 0 0];

internalField   nonuniform List<vector> 
7920
(
(2.93033 0.101331 -32.3633)
(2.10638 -0.462002 -32.3969)
(1.39545 -0.616183 -32.3877)
(1.288 -0.672367 -32.4078)
(1.05491 -0.689316 -32.4076)
(1.08198 -0.694358 -32.4221)
(0.942428 -0.698465 -32.4154)
(0.988759 -0.69863 -32.42)
(0.884759 -0.70074 -32.4116)
(0.93073 -0.700455 -32.4154)
(0.848313 -0.701993 -32.4111)
(0.890086 -0.701477 -32.415)
(0.823221 -0.702456 -32.4122)
(0.859996 -0.70187 -32.4139)
(0.80509 -0.702213 -32.4136)
(0.83683 -0.702281 -32.4126)
(0.790567 -0.698371 -32.4182)
(0.812948 -0.704898 -32.4092)
(0.779615 -0.646612 -32.4296)
(0.610104 -0.658731 -32.3928)
(4.41195 0.967232 -32.4253)
(4.33583 0.872818 -32.4578)
(3.68591 0.81853 -32.4504)
(3.54077 0.751578 -32.464)
(3.14377 0.723996 -32.4664)
(3.14068 0.710769 -32.4797)
(2.88058 0.704316 -32.4799)
(2.92483 0.700875 -32.4852)
(2.73175 0.698785 -32.4817)
(2.7864 0.697051 -32.4834)
(2.63416 0.695929 -32.4808)
(2.68822 0.694732 -32.4823)
(2.56481 0.694069 -32.4811)
(2.61484 0.693085 -32.4807)
(2.51319 0.692433 -32.4815)
(2.5599 0.692457 -32.4779)
(2.46983 0.689229 -32.4846)
(2.53283 0.694163 -32.4725)
(2.41427 0.684381 -32.4952)
(2.69269 0.676961 -32.4449)
(4.75249 0.192683 -32.433)
(5.26047 -0.22906 -32.4625)
(5.11796 -0.37479 -32.4481)
(5.23197 -0.493227 -32.4576)
(4.99011 -0.558264 -32.4532)
(5.04289 -0.59509 -32.4654)
(4.83164 -0.619614 -32.4649)
(4.87713 -0.633464 -32.4754)
(4.70372 -0.64402 -32.4748)
(4.74686 -0.650665 -32.4817)
(4.60484 -0.656082 -32.4802)
(4.64512 -0.660095 -32.4837)
(4.52817 -0.663223 -32.4819)
(4.56468 -0.665951 -32.4822)
(4.46877 -0.668029 -32.4816)
(4.49792 -0.668968 -32.478)
(4.4264 -0.672319 -32.4814)
(4.42845 -0.667869 -32.4715)
(4.40534 -0.669181 -32.484)
(4.3129 -0.688879 -32.4474)
(4.75336 0.649133 -32.4432)
(5.28639 0.749401 -32.4715)
(5.38898 0.796575 -32.4578)
(5.69654 0.766989 -32.4643)
(5.64037 0.749231 -32.459)
(5.81487 0.735057 -32.4677)
(5.72399 0.724783 -32.4669)
(5.8393 0.716742 -32.4758)
(5.74762 0.71062 -32.4773)
(5.83164 0.704952 -32.4853)
(5.74785 0.700969 -32.4873)
(5.81286 0.696783 -32.4924)
(5.73831 0.694328 -32.4931)
(5.79152 0.690852 -32.4939)
(5.72412 0.690035 -32.4938)
(5.77337 0.686023 -32.491)
(5.70534 0.689017 -32.4913)
(5.76891 0.68189 -32.4849)
(5.68237 0.696238 -32.4869)
(5.82531 0.707621 -32.4565)
(4.74551 -0.0883619 -32.4423)
(5.25014 -0.387106 -32.4703)
(5.40976 -0.47962 -32.4541)
(5.77259 -0.545469 -32.4612)
(5.78573 -0.581413 -32.4536)
(6.02045 -0.601571 -32.4623)
(5.99638 -0.615927 -32.4592)
(6.16444 -0.623925 -32.4679)
(6.132 -0.630807 -32.4678)
(6.2597 -0.635151 -32.4767)
(6.22647 -0.639316 -32.4784)
(6.32649 -0.64233 -32.4857)
(6.29471 -0.645424 -32.4866)
(6.37454 -0.647297 -32.49)
(6.34543 -0.650854 -32.489)
(6.40863 -0.64937 -32.489)
(6.38673 -0.658645 -32.4869)
(6.42735 -0.647254 -32.4844)
(6.42626 -0.670924 -32.4809)
(6.42704 -0.691894 -32.4544)
(4.73296 0.352065 -32.446)
(5.19342 0.557036 -32.4745)
(5.36308 0.635347 -32.4583)
(5.74137 0.655544 -32.4655)
(5.77835 0.665855 -32.4576)
(6.03677 0.669296 -32.4663)
(6.03938 0.671505 -32.4626)
(6.23193 0.671599 -32.4711)
(6.22678 0.67188 -32.4704)
(6.37798 0.671075 -32.4791)
(6.37089 0.670909 -32.4807)
(6.49242 0.669996 -32.4884)
(6.4843 0.670035 -32.4895)
(6.58346 0.668755 -32.4939)
(6.57422 0.670119 -32.4929)
(6.65664 0.666469 -32.494)
(6.64693 0.673858 -32.4914)
(6.71668 0.662835 -32.4902)
(6.71151 0.686215 -32.4855)
(6.77805 0.708423 -32.4591)
(4.73296 -0.352065 -32.446)
(5.19342 -0.557036 -32.4745)
(5.36308 -0.635347 -32.4583)
(5.74137 -0.655544 -32.4655)
(5.77835 -0.665856 -32.4576)
(6.03677 -0.669294 -32.4663)
(6.03938 -0.671505 -32.4626)
(6.23193 -0.671595 -32.4711)
(6.22678 -0.671877 -32.4704)
(6.37798 -0.671066 -32.4792)
(6.3709 -0.670895 -32.4807)
(6.49241 -0.669971 -32.4885)
(6.48434 -0.669997 -32.4895)
(6.58344 -0.668663 -32.4939)
(6.57432 -0.670048 -32.4929)
(6.65657 -0.666134 -32.4941)
(6.64715 -0.673757 -32.4913)
(6.71651 -0.661848 -32.4903)
(6.71179 -0.685757 -32.4855)
(6.77773 -0.706597 -32.459)
(4.74551 0.0883618 -32.4423)
(5.25014 0.387106 -32.4703)
(5.40976 0.479619 -32.4541)
(5.77259 0.54547 -32.4612)
(5.78573 0.581413 -32.4536)
(6.02046 0.601572 -32.4623)
(5.99637 0.615928 -32.4591)
(6.16444 0.623927 -32.468)
(6.13199 0.630811 -32.4677)
(6.25972 0.635157 -32.4767)
(6.22645 0.639332 -32.4784)
(6.32654 0.642348 -32.4858)
(6.29467 0.645467 -32.4864)
(6.37467 0.647371 -32.4902)
(6.34537 0.650935 -32.4887)
(6.40894 0.649672 -32.4894)
(6.38677 0.658759 -32.4864)
(6.42805 0.648226 -32.4849)
(6.42691 0.671355 -32.4805)
(6.42888 0.69387 -32.4548)
(4.75336 -0.649133 -32.4432)
(5.28639 -0.7494 -32.4715)
(5.38898 -0.796576 -32.4578)
(5.69654 -0.766988 -32.4643)
(5.64037 -0.749232 -32.459)
(5.81487 -0.735056 -32.4677)
(5.72399 -0.724784 -32.4668)
(5.8393 -0.716738 -32.4759)
(5.74762 -0.710619 -32.4772)
(5.83166 -0.704942 -32.4854)
(5.74785 -0.700961 -32.4872)
(5.8129 -0.696756 -32.4926)
(5.73833 -0.694306 -32.4927)
(5.79165 -0.690762 -32.4946)
(5.72423 -0.690002 -32.4929)
(5.77363 -0.685717 -32.4922)
(5.70581 -0.689009 -32.4896)
(5.76941 -0.681047 -32.4872)
(5.68369 -0.69604 -32.484)
(5.82646 -0.706322 -32.46)
(4.75249 -0.192683 -32.433)
(5.26047 0.22906 -32.4625)
(5.11796 0.37479 -32.4481)
(5.23197 0.493227 -32.4577)
(4.99011 0.558265 -32.4531)
(5.0429 0.59509 -32.4655)
(4.83163 0.619616 -32.4649)
(4.87714 0.633464 -32.4755)
(4.70372 0.644025 -32.4747)
(4.74689 0.650665 -32.4819)
(4.60483 0.656097 -32.4799)
(4.64523 0.660097 -32.4842)
(4.52814 0.663261 -32.4813)
(4.56496 0.665973 -32.4832)
(4.46876 0.6681 -32.48)
(4.4986 0.66911 -32.4805)
(4.42667 0.672417 -32.4775)
(4.43004 0.668461 -32.4775)
(4.40683 0.66946 -32.4751)
(4.31741 0.690168 -32.4602)
(4.41195 -0.967232 -32.4253)
(4.33583 -0.872818 -32.4578)
(3.68591 -0.81853 -32.4504)
(3.54077 -0.751578 -32.464)
(3.14377 -0.723997 -32.4663)
(3.14068 -0.710769 -32.4798)
(2.88058 -0.704317 -32.4799)
(2.92484 -0.700872 -32.4852)
(2.73175 -0.698786 -32.4816)
(2.78642 -0.697044 -32.4835)
(2.63417 -0.69593 -32.4806)
(2.68829 -0.694715 -32.4827)
(2.56485 -0.694069 -32.4805)
(2.61503 -0.69303 -32.4817)
(2.51334 -0.692446 -32.4797)
(2.5603 -0.692276 -32.4808)
(2.47051 -0.689331 -32.4797)
(2.53346 -0.693718 -32.481)
(2.41655 -0.684706 -32.4801)
(2.69329 -0.677218 -32.4716)
(2.93033 -0.101331 -32.3633)
(2.10638 0.462002 -32.3969)
(1.39545 0.616183 -32.3877)
(1.288 0.672367 -32.4078)
(1.05491 0.689316 -32.4076)
(1.08198 0.694357 -32.4221)
(0.942428 0.698466 -32.4154)
(0.988763 0.698628 -32.4201)
(0.88476 0.700743 -32.4116)
(0.930743 0.700449 -32.4156)
(0.848314 0.701999 -32.4108)
(0.890128 0.701463 -32.4153)
(0.823225 0.702472 -32.4117)
(0.860111 0.701832 -32.4148)
(0.805127 0.702254 -32.4121)
(0.837097 0.702185 -32.4152)
(0.790822 0.698511 -32.4139)
(0.813499 0.704766 -32.4168)
(0.780734 0.647245 -32.4158)
(0.612228 0.659616 -32.4177)
(4.3261 0.56576 0.00699562)
(3.08309 0.847451 0.00452805)
(2.32138 0.869222 0.00579883)
(1.75624 0.852523 0.00432432)
(1.61924 0.855355 0.00547166)
(1.41659 0.867453 0.00430509)
(1.41087 0.877584 0.00526104)
(1.29052 0.885769 0.0042794)
(1.29891 0.889996 0.00506076)
(1.21467 0.893641 0.00423366)
(1.22412 0.89535 0.00487535)
(1.16306 0.89742 0.00418122)
(1.1708 0.89818 0.00470795)
(1.12467 0.899641 0.00412673)
(1.13134 0.899442 0.00455902)
(1.09311 0.90184 0.00407278)
(1.10173 0.894298 0.00442849)
(1.08058 0.91625 0.00401631)
(1.03602 0.792701 0.00434117)
(1.4799 0.82013 0.00390436)
(4.75951 -0.100191 0.00441953)
(4.61543 -0.277122 0.00238874)
(4.53214 -0.476827 0.00369086)
(4.15293 -0.64267 0.00224932)
(4.01296 -0.739114 0.00340258)
(3.73772 -0.794696 0.00224145)
(3.66611 -0.82235 0.00320156)
(3.48183 -0.839568 0.00222446)
(3.44392 -0.849807 0.00300916)
(3.31392 -0.857579 0.00218378)
(3.29037 -0.862859 0.00282658)
(3.19493 -0.867334 0.0021333)
(3.17803 -0.870221 0.00266104)
(3.1046 -0.873518 0.0020809)
(3.0928 -0.874133 0.00251309)
(3.02942 -0.878646 0.00202858)
(3.03216 -0.875517 0.00237839)
(2.94854 -0.882354 0.00197651)
(3.02715 -0.886319 0.00223078)
(2.62927 -0.893362 0.00185375)
(4.63817 0.434952 0.00571758)
(4.82906 0.870728 0.00376268)
(5.14661 0.968845 0.00494675)
(5.09003 0.959964 0.00346516)
(5.1545 0.94208 0.00459244)
(5.02209 0.929155 0.00341864)
(5.03051 0.919881 0.00437261)
(4.91441 0.914069 0.0033925)
(4.91108 0.907578 0.00417597)
(4.81768 0.903968 0.00334919)
(4.80942 0.899422 0.00399115)
(4.73494 0.89734 0.00329641)
(4.72395 0.894389 0.00382322)
(4.66482 0.892906 0.00324153)
(4.6507 0.891412 0.00367322)
(4.60784 0.889234 0.0031864)
(4.58066 0.88814 0.00354153)
(4.57792 0.888219 0.00312913)
(4.50002 0.848969 0.00345204)
(4.61879 0.890717 0.00304283)
(4.57648 -0.201691 0.00453911)
(4.7028 -0.398159 0.00280421)
(5.13493 -0.518702 0.0039933)
(5.23732 -0.623362 0.00254064)
(5.45668 -0.691193 0.00366917)
(5.4606 -0.738538 0.0024991)
(5.57471 -0.765307 0.00345552)
(5.5521 -0.784761 0.00247846)
(5.61884 -0.797356 0.00326451)
(5.59076 -0.807843 0.00244085)
(5.63118 -0.81558 0.00308489)
(5.60369 -0.822335 0.00239257)
(5.62836 -0.827601 0.00292077)
(5.60306 -0.832299 0.00234106)
(5.61851 -0.836214 0.00277291)
(5.59358 -0.838956 0.00228848)
(5.60769 -0.84617 0.00263676)
(5.56627 -0.840318 0.00223374)
(5.6077 -0.875894 0.0024855)
(5.41477 -0.89644 0.00213614)
(4.58952 0.341251 0.00519228)
(4.69881 0.687971 0.00349654)
(5.1109 0.802772 0.00463814)
(5.2341 0.844447 0.00317165)
(5.49353 0.86167 0.00428765)
(5.54636 0.871629 0.0031111)
(5.71106 0.875492 0.00406428)
(5.74075 0.878073 0.00308498)
(5.85599 0.87733 0.00386998)
(5.87596 0.877435 0.0030452)
(5.95888 0.875754 0.00368869)
(5.97293 0.875366 0.00299566)
(6.0332 0.873959 0.00352359)
(6.04383 0.873141 0.00294328)
(6.08662 0.873007 0.00337533)
(6.09799 0.869979 0.00288975)
(6.12154 0.874369 0.00324264)
(6.14202 0.866034 0.00283279)
(6.14385 0.869882 0.00313648)
(6.14338 0.917121 0.0027612)
(4.58348 -0.268969 0.00482149)
(4.67072 -0.539113 0.0031903)
(5.07766 -0.653457 0.00433121)
(5.20213 -0.724334 0.00287176)
(5.47293 -0.764924 0.00398591)
(5.54082 -0.79276 0.00280924)
(5.72349 -0.807503 0.00376231)
(5.77253 -0.818316 0.00278324)
(5.90781 -0.824072 0.0035686)
(5.94849 -0.829383 0.00274432)
(6.0518 -0.832501 0.00338812)
(6.08603 -0.835815 0.0026956)
(6.16599 -0.838073 0.00322376)
(6.19455 -0.840018 0.00264406)
(6.25696 -0.842771 0.00307601)
(6.28027 -0.841695 0.00259143)
(6.32958 -0.850597 0.00294126)
(6.33977 -0.839849 0.00253542)
(6.39216 -0.870475 0.00280987)
(6.30837 -0.905334 0.00245877)
(4.58348 0.268969 0.00482149)
(4.67072 0.539114 0.0031903)
(5.07766 0.653457 0.00433121)
(5.20213 0.724335 0.00287175)
(5.47293 0.764924 0.00398591)
(5.54082 0.792762 0.00280923)
(5.72349 0.807503 0.00376231)
(5.77253 0.81832 0.00278323)
(5.9078 0.824076 0.00356861)
(5.9485 0.829394 0.00274431)
(6.05178 0.832514 0.00338814)
(6.08606 0.835851 0.00269556)
(6.16595 0.838106 0.0032238)
(6.19463 0.840133 0.00264396)
(6.25688 0.842858 0.00307612)
(6.28048 0.842022 0.00259118)
(6.32945 0.850894 0.00294163)
(6.34043 0.840663 0.00253489)
(6.39245 0.871486 0.00281125)
(6.30946 0.907331 0.00245823)
(4.58952 -0.341251 0.00519228)
(4.69881 -0.687971 0.00349654)
(5.1109 -0.802773 0.00463813)
(5.2341 -0.844446 0.00317165)
(5.49353 -0.861671 0.00428765)
(5.54636 -0.871626 0.00311111)
(5.71106 -0.875492 0.00406427)
(5.74075 -0.878068 0.00308499)
(5.85599 -0.877328 0.00386997)
(5.87596 -0.877422 0.00304522)
(5.95889 -0.875745 0.00368866)
(5.97293 -0.875325 0.00299571)
(6.03324 -0.873938 0.00352352)
(6.04383 -0.873015 0.00294339)
(6.08677 -0.872954 0.00337517)
(6.09797 -0.869642 0.00289001)
(6.12196 -0.874179 0.00324218)
(6.14186 -0.86534 0.00283324)
(6.14459 -0.869144 0.00313511)
(6.14347 -0.915406 0.00276119)
(4.57648 0.201691 0.00453911)
(4.7028 0.398159 0.00280421)
(5.13493 0.518702 0.0039933)
(5.23732 0.623363 0.00254064)
(5.45668 0.691193 0.00366917)
(5.46061 0.738539 0.0024991)
(5.5747 0.765308 0.00345552)
(5.55211 0.784763 0.00247846)
(5.61883 0.797361 0.00326451)
(5.59079 0.80785 0.00244084)
(5.63116 0.815595 0.00308489)
(5.60377 0.822357 0.00239255)
(5.62833 0.827638 0.00292078)
(5.60326 0.832377 0.00234102)
(5.6185 0.836311 0.00277294)
(5.59408 0.839195 0.00228838)
(5.60784 0.846493 0.00263695)
(5.56764 0.841017 0.00223342)
(5.6088 0.876988 0.00248674)
(5.41822 0.89825 0.00213554)
(4.63817 -0.434952 0.00571758)
(4.82906 -0.870728 0.00376268)
(5.14661 -0.968846 0.00494674)
(5.09003 -0.959963 0.00346516)
(5.1545 -0.942081 0.00459243)
(5.0221 -0.929153 0.00341864)
(5.03051 -0.919881 0.0043726)
(4.91442 -0.914064 0.00339251)
(4.91108 -0.907578 0.00417594)
(4.81771 -0.903956 0.00334922)
(4.80942 -0.899421 0.0039911)
(4.73502 -0.897304 0.00329649)
(4.72398 -0.894388 0.00382309)
(4.665 -0.892797 0.00324172)
(4.65087 -0.89142 0.0036729)
(4.60823 -0.888956 0.00318686)
(4.58127 -0.88814 0.00354073)
(4.57881 -0.887775 0.00312997)
(4.50156 -0.848766 0.00345019)
(4.62121 -0.89024 0.00304321)
(4.75951 0.100191 0.00441953)
(4.61544 0.277122 0.00238874)
(4.53213 0.476827 0.00369086)
(4.15293 0.642669 0.00224932)
(4.01296 0.739114 0.00340258)
(3.73772 0.794696 0.00224145)
(3.6661 0.822352 0.00320155)
(3.48184 0.839567 0.00222446)
(3.44392 0.849812 0.00300915)
(3.31397 0.857577 0.00218379)
(3.29036 0.862872 0.00282656)
(3.19504 0.867329 0.00213332)
(3.17803 0.870254 0.00266101)
(3.10489 0.873512 0.00208094)
(3.09287 0.87422 0.00251298)
(3.03017 0.87865 0.00202871)
(3.03245 0.875788 0.00237816)
(2.95082 0.882542 0.00197676)
(3.02775 0.88726 0.00223089)
(2.63751 0.894898 0.00185416)
(4.3261 -0.56576 0.00699562)
(3.08309 -0.847451 0.00452805)
(2.32138 -0.869222 0.00579883)
(1.75625 -0.852522 0.00432433)
(1.61924 -0.855356 0.00547166)
(1.41659 -0.867452 0.00430509)
(1.41087 -0.877585 0.00526102)
(1.29053 -0.885766 0.00427941)
(1.29892 -0.889999 0.00506074)
(1.21469 -0.893633 0.0042337)
(1.22414 -0.895358 0.00487528)
(1.16311 -0.8974 0.00418132)
(1.17086 -0.898202 0.00470779)
(1.12478 -0.899582 0.004127)
(1.13153 -0.899509 0.00455856)
(1.09336 -0.90169 0.0040735)
(1.10229 -0.894525 0.00442724)
(1.0812 -0.916072 0.00401818)
(1.03734 -0.793845 0.00433723)
(1.48113 -0.821588 0.00390977)
(4.3797 0.09702 0.00141034)
(3.97104 0.148937 0.00195387)
(3.43851 0.162894 0.000999867)
(2.96418 0.156769 0.00154237)
(2.55416 0.145233 0.00102003)
(2.25272 0.136677 0.00143733)
(2.03006 0.131674 0.00109381)
(1.87932 0.131322 0.00135573)
(1.77825 0.133708 0.00112367)
(1.70683 0.138197 0.00127772)
(1.66313 0.143201 0.00113506)
(1.62453 0.14861 0.00121732)
(1.6039 0.153216 0.00114317)
(1.57845 0.158123 0.00117578)
(1.5666 0.160844 0.00115542)
(1.55029 0.166145 0.0011513)
(1.53645 0.16454 0.00117731)
(1.54088 0.174794 0.00113796)
(1.49758 0.160104 0.00119131)
(1.5744 0.168266 0.00120754)
(4.54207 0.0877158 0.00320135)
(4.68112 0.119268 0.00392344)
(4.7256 0.120613 0.00296288)
(4.71705 0.0944758 0.0034811)
(4.64239 0.0564272 0.0029343)
(4.54974 0.0140737 0.00333773)
(4.44468 -0.0239783 0.00298644)
(4.34218 -0.0567148 0.00324599)
(4.24851 -0.0817433 0.00301206)
(4.15894 -0.101646 0.00316533)
(4.08386 -0.116132 0.00302094)
(4.00974 -0.127777 0.00310264)
(3.95132 -0.136293 0.00302786)
(3.89076 -0.143546 0.00306003)
(3.84603 -0.148923 0.00303982)
(3.79695 -0.153545 0.00303424)
(3.76256 -0.157918 0.00306392)
(3.72569 -0.159587 0.00301873)
(3.69319 -0.165785 0.00311515)
(3.6752 -0.170136 0.00312166)
(4.51743 0.0457141 0.00176729)
(4.6591 0.110328 0.00237423)
(4.79299 0.162611 0.00144585)
(4.9438 0.191114 0.00196752)
(5.05367 0.201541 0.00142639)
(5.14074 0.202578 0.00183567)
(5.19395 0.199414 0.00149216)
(5.22583 0.196439 0.00175657)
(5.24226 0.194544 0.00152836)
(5.24509 0.194104 0.00168405)
(5.24423 0.194479 0.00154281)
(5.23466 0.195419 0.00162533)
(5.22608 0.196113 0.00155194)
(5.21276 0.197297 0.00158467)
(5.19964 0.196762 0.00156405)
(5.18839 0.199311 0.00156056)
(5.1696 0.194265 0.00158262)
(5.16688 0.20416 0.00155303)
(5.13781 0.184215 0.00157892)
(5.14843 0.20934 0.00161442)
(4.51348 0.0441298 0.00278507)
(4.62474 0.0508073 0.00350152)
(4.75067 0.0465074 0.00259776)
(4.9125 0.0290332 0.00312529)
(5.05428 0.00686778 0.00257046)
(5.18931 -0.0182342 0.00296844)
(5.29862 -0.0420753 0.0026141)
(5.39089 -0.06366 0.00287341)
(5.46758 -0.0813681 0.0026407)
(5.52989 -0.0959974 0.00279487)
(5.58605 -0.107548 0.0026517)
(5.6311 -0.116849 0.00273381)
(5.67486 -0.124611 0.00265943)
(5.70974 -0.130528 0.00269184)
(5.74512 -0.136602 0.00267102)
(5.77314 -0.139639 0.0026667)
(5.80312 -0.146377 0.00269257)
(5.82342 -0.145182 0.00265857)
(5.85465 -0.155088 0.00274554)
(5.85463 -0.152638 0.00275129)
(4.51459 0.0165805 0.00208497)
(4.62591 0.0556322 0.00275605)
(4.74488 0.0913177 0.00186205)
(4.9007 0.116991 0.00238047)
(5.04024 0.133352 0.00182327)
(5.179 0.144518 0.00222119)
(5.29682 0.152328 0.00186948)
(5.40206 0.159091 0.0021309)
(5.49466 0.164975 0.0019008)
(5.57542 0.170551 0.00205611)
(5.65191 0.175386 0.00191454)
(5.71853 0.179827 0.00199717)
(5.78549 0.183187 0.00192386)
(5.84328 0.186621 0.00195678)
(5.90409 0.187989 0.00193634)
(5.95405 0.191857 0.00193336)
(6.01313 0.189105 0.00195492)
(6.04894 0.198402 0.00192986)
(6.12112 0.184527 0.00196487)
(6.11962 0.209938 0.00199827)
(4.51333 0.0119113 0.00241775)
(4.61808 -0.0040197 0.00311795)
(4.73564 -0.0234166 0.00223164)
(4.88975 -0.0448618 0.00275611)
(5.02842 -0.0639529 0.00219759)
(5.16704 -0.0817656 0.00259398)
(5.28593 -0.0972933 0.00223983)
(5.39338 -0.111082 0.00250026)
(5.48953 -0.122607 0.00226907)
(5.57464 -0.132368 0.00242406)
(5.65694 -0.140375 0.00228198)
(5.7294 -0.146911 0.00236445)
(5.80435 -0.152415 0.00229088)
(5.86859 -0.156658 0.00232359)
(5.94007 -0.16058 0.00230326)
(5.99538 -0.163286 0.00229986)
(6.0694 -0.165984 0.00232364)
(6.10615 -0.168662 0.00229682)
(6.20091 -0.167978 0.00236054)
(6.19147 -0.177478 0.00237661)
(4.51333 -0.0119115 0.00241775)
(4.61808 0.00402019 0.00311795)
(4.73564 0.0234161 0.00223164)
(4.88975 0.0448629 0.00275611)
(5.02842 0.0639523 0.00219759)
(5.16704 0.0817682 0.00259398)
(5.28593 0.0972934 0.00223983)
(5.39338 0.111088 0.00250027)
(5.48953 0.12261 0.00226906)
(5.57464 0.132383 0.00242407)
(5.65694 0.140385 0.00228196)
(5.72941 0.146953 0.00236448)
(5.80435 0.152437 0.00229084)
(5.86861 0.156783 0.00232368)
(5.94007 0.160631 0.00230313)
(5.99541 0.163622 0.00230008)
(6.06942 0.16616 0.00232319)
(6.10622 0.169438 0.00229716)
(6.20103 0.1687 0.00235851)
(6.1917 0.179039 0.00237708)
(4.51459 -0.0165807 0.00208497)
(4.62591 -0.0556317 0.00275605)
(4.74488 -0.0913183 0.00186205)
(4.9007 -0.11699 0.00238047)
(5.04024 -0.133352 0.00182327)
(5.179 -0.144515 0.00222119)
(5.29682 -0.152329 0.00186948)
(5.40206 -0.159085 0.0021309)
(5.49466 -0.164972 0.00190081)
(5.57542 -0.170536 0.00205609)
(5.65192 -0.175378 0.00191456)
(5.71853 -0.179784 0.00199714)
(5.78551 -0.183168 0.0019239)
(5.84328 -0.186496 0.00195669)
(5.90417 -0.187943 0.00193646)
(5.95406 -0.191525 0.00193314)
(6.01333 -0.188943 0.00195532)
(6.04901 -0.197652 0.00192948)
(6.12156 -0.183859 0.00196661)
(6.11997 -0.20849 0.00199779)
(4.51348 -0.0441299 0.00278507)
(4.62474 -0.0508069 0.00350152)
(4.75067 -0.0465078 0.00259775)
(4.9125 -0.0290322 0.00312529)
(5.05428 -0.00686828 0.00257046)
(5.18932 0.0182364 0.00296845)
(5.29862 0.0420755 0.00261409)
(5.3909 0.063665 0.00287342)
(5.46757 0.0813711 0.00264069)
(5.52991 0.09601 0.00279489)
(5.58604 0.107558 0.00265167)
(5.63114 0.116886 0.00273386)
(5.67487 0.124633 0.00265937)
(5.70982 0.130639 0.00269193)
(5.74518 0.136648 0.00267086)
(5.77331 0.139945 0.00266689)
(5.8034 0.146528 0.00269209)
(5.82383 0.145904 0.00265887)
(5.85556 0.155718 0.00274361)
(5.85582 0.154117 0.00275143)
(4.51743 -0.0457142 0.00176729)
(4.6591 -0.110328 0.00237423)
(4.79299 -0.162611 0.00144585)
(4.9438 -0.191113 0.00196752)
(5.05367 -0.201542 0.00142639)
(5.14074 -0.202576 0.00183567)
(5.19394 -0.199414 0.00149216)
(5.22585 -0.196433 0.00175657)
(5.24225 -0.194543 0.00152835)
(5.24513 -0.19409 0.00168406)
(5.24421 -0.194474 0.0015428)
(5.23475 -0.195382 0.00162534)
(5.22607 -0.196103 0.00155193)
(5.21296 -0.19719 0.00158466)
(5.19971 -0.196743 0.00156407)
(5.1888 -0.199034 0.00156049)
(5.17002 -0.194182 0.00158277)
(5.16777 -0.203566 0.00155284)
(5.13919 -0.183795 0.00157983)
(5.15061 -0.208363 0.00161428)
(4.54207 -0.0877158 0.00320135)
(4.68112 -0.119268 0.00392344)
(4.7256 -0.120614 0.00296288)
(4.71706 -0.0944754 0.00348111)
(4.64239 -0.056427 0.00293429)
(4.54975 -0.0140728 0.00333774)
(4.44467 0.0239793 0.00298642)
(4.3422 0.0567165 0.00324601)
(4.2485 0.081747 0.00301202)
(4.159 0.10165 0.00316539)
(4.08383 0.116142 0.00302085)
(4.0099 0.127792 0.00310278)
(3.95128 0.136311 0.00302765)
(3.89114 0.143598 0.00306035)
(3.84603 0.148955 0.00303932)
(3.7978 0.153698 0.00303496)
(3.76282 0.158006 0.0030627)
(3.72765 0.159956 0.00302027)
(3.69427 0.166152 0.00311188)
(3.67992 0.170895 0.00312461)
(4.3797 -0.09702 0.00141034)
(3.97104 -0.148937 0.00195387)
(3.43851 -0.162894 0.000999866)
(2.96419 -0.156769 0.00154237)
(2.55416 -0.145233 0.00102003)
(2.25272 -0.136677 0.00143733)
(2.03006 -0.131674 0.0010938)
(1.87934 -0.131321 0.00135574)
(1.77825 -0.133708 0.00112366)
(1.70688 -0.138194 0.00127774)
(1.66314 -0.143202 0.00113504)
(1.62464 -0.148601 0.00121735)
(1.60393 -0.15322 0.00114312)
(1.57872 -0.158096 0.00117586)
(1.56676 -0.160861 0.00115528)
(1.55088 -0.166071 0.00115151)
(1.53697 -0.164586 0.00117688)
(1.54241 -0.174649 0.00113858)
(1.49857 -0.160198 0.00118994)
(1.57918 -0.168379 0.00120976)
(4.3797 0.09702 -0.00141034)
(3.97104 0.148937 -0.00195388)
(3.43851 0.162894 -0.000999869)
(2.96418 0.156769 -0.00154237)
(2.55416 0.145233 -0.00102003)
(2.25272 0.136677 -0.00143733)
(2.03006 0.131674 -0.00109381)
(1.87932 0.131322 -0.00135574)
(1.77825 0.133708 -0.00112367)
(1.70683 0.138197 -0.00127773)
(1.66313 0.143201 -0.00113506)
(1.62453 0.14861 -0.00121732)
(1.6039 0.153216 -0.00114317)
(1.57845 0.158123 -0.00117578)
(1.5666 0.160844 -0.00115543)
(1.55029 0.166145 -0.00115131)
(1.53645 0.16454 -0.00117731)
(1.54088 0.174794 -0.00113797)
(1.49758 0.160104 -0.00119132)
(1.5744 0.168266 -0.00120754)
(4.54207 0.0877158 -0.00320136)
(4.68112 0.119268 -0.00392344)
(4.7256 0.120613 -0.00296288)
(4.71705 0.0944758 -0.0034811)
(4.64239 0.0564272 -0.0029343)
(4.54974 0.0140737 -0.00333773)
(4.44468 -0.0239782 -0.00298644)
(4.34218 -0.0567147 -0.00324599)
(4.24851 -0.0817432 -0.00301206)
(4.15894 -0.101646 -0.00316533)
(4.08386 -0.116132 -0.00302094)
(4.00974 -0.127777 -0.00310264)
(3.95132 -0.136293 -0.00302786)
(3.89076 -0.143546 -0.00306003)
(3.84603 -0.148923 -0.00303982)
(3.79695 -0.153545 -0.00303425)
(3.76256 -0.157918 -0.00306392)
(3.72569 -0.159587 -0.00301873)
(3.69319 -0.165785 -0.00311515)
(3.6752 -0.170136 -0.00312166)
(4.51743 0.0457141 -0.0017673)
(4.6591 0.110328 -0.00237423)
(4.79299 0.162611 -0.00144585)
(4.9438 0.191114 -0.00196753)
(5.05367 0.201541 -0.00142639)
(5.14074 0.202578 -0.00183567)
(5.19395 0.199414 -0.00149216)
(5.22583 0.196439 -0.00175657)
(5.24226 0.194544 -0.00152836)
(5.24509 0.194104 -0.00168406)
(5.24423 0.194479 -0.00154281)
(5.23466 0.195419 -0.00162533)
(5.22608 0.196113 -0.00155194)
(5.21276 0.197297 -0.00158467)
(5.19964 0.196762 -0.00156405)
(5.18839 0.199311 -0.00156057)
(5.1696 0.194265 -0.00158262)
(5.16688 0.20416 -0.00155303)
(5.13781 0.184215 -0.00157892)
(5.14843 0.209339 -0.00161443)
(4.51348 0.0441298 -0.00278507)
(4.62474 0.0508073 -0.00350153)
(4.75067 0.0465074 -0.00259776)
(4.9125 0.0290332 -0.0031253)
(5.05428 0.00686781 -0.00257046)
(5.18931 -0.0182341 -0.00296845)
(5.29862 -0.0420753 -0.0026141)
(5.39089 -0.06366 -0.00287342)
(5.46758 -0.0813681 -0.00264071)
(5.52989 -0.0959974 -0.00279488)
(5.58605 -0.107548 -0.00265171)
(5.6311 -0.116849 -0.00273382)
(5.67486 -0.124611 -0.00265944)
(5.70974 -0.130528 -0.00269184)
(5.74512 -0.136602 -0.00267102)
(5.77314 -0.139639 -0.0026667)
(5.80312 -0.146377 -0.00269258)
(5.82342 -0.145182 -0.00265858)
(5.85465 -0.155088 -0.00274554)
(5.85463 -0.152638 -0.00275129)
(4.51459 0.0165805 -0.00208497)
(4.62591 0.0556322 -0.00275605)
(4.74488 0.0913178 -0.00186205)
(4.9007 0.116991 -0.00238047)
(5.04024 0.133352 -0.00182328)
(5.179 0.144518 -0.00222119)
(5.29682 0.152328 -0.00186948)
(5.40206 0.159091 -0.0021309)
(5.49466 0.164975 -0.00190081)
(5.57542 0.170551 -0.00205611)
(5.65191 0.175386 -0.00191455)
(5.71853 0.179826 -0.00199717)
(5.78549 0.183187 -0.00192386)
(5.84328 0.186621 -0.00195678)
(5.90409 0.187989 -0.00193635)
(5.95405 0.191857 -0.00193336)
(6.01313 0.189105 -0.00195492)
(6.04894 0.198402 -0.00192987)
(6.12112 0.184527 -0.00196488)
(6.11962 0.209938 -0.00199827)
(4.51333 0.0119113 -0.00241775)
(4.61808 -0.00401969 -0.00311796)
(4.73564 -0.0234166 -0.00223165)
(4.88975 -0.0448618 -0.00275611)
(5.02842 -0.0639529 -0.0021976)
(5.16704 -0.0817656 -0.00259398)
(5.28593 -0.0972933 -0.00223984)
(5.39338 -0.111082 -0.00250026)
(5.48953 -0.122607 -0.00226907)
(5.57464 -0.132369 -0.00242406)
(5.65694 -0.140375 -0.00228198)
(5.7294 -0.146911 -0.00236445)
(5.80435 -0.152415 -0.00229089)
(5.86859 -0.156658 -0.00232359)
(5.94007 -0.16058 -0.00230326)
(5.99538 -0.163286 -0.00229986)
(6.0694 -0.165984 -0.00232364)
(6.10615 -0.168662 -0.00229682)
(6.20091 -0.167978 -0.00236055)
(6.19147 -0.177478 -0.00237661)
(4.51333 -0.0119115 -0.00241775)
(4.61808 0.0040202 -0.00311796)
(4.73564 0.0234161 -0.00223164)
(4.88975 0.044863 -0.00275611)
(5.02842 0.0639524 -0.00219759)
(5.16704 0.0817682 -0.00259398)
(5.28593 0.0972934 -0.00223983)
(5.39338 0.111088 -0.00250027)
(5.48953 0.12261 -0.00226906)
(5.57464 0.132383 -0.00242408)
(5.65694 0.140385 -0.00228196)
(5.72941 0.146953 -0.00236448)
(5.80435 0.152437 -0.00229084)
(5.86861 0.156783 -0.00232368)
(5.94007 0.160631 -0.00230313)
(5.99541 0.163622 -0.00230008)
(6.06942 0.16616 -0.0023232)
(6.10622 0.169438 -0.00229716)
(6.20103 0.1687 -0.00235851)
(6.1917 0.179039 -0.00237708)
(4.51459 -0.0165807 -0.00208497)
(4.62591 -0.0556317 -0.00275605)
(4.74488 -0.0913182 -0.00186205)
(4.9007 -0.11699 -0.00238047)
(5.04024 -0.133352 -0.00182328)
(5.179 -0.144515 -0.00222119)
(5.29682 -0.152329 -0.00186948)
(5.40206 -0.159085 -0.0021309)
(5.49466 -0.164972 -0.00190081)
(5.57542 -0.170536 -0.0020561)
(5.65192 -0.175378 -0.00191456)
(5.71853 -0.179784 -0.00199714)
(5.78551 -0.183168 -0.0019239)
(5.84328 -0.186496 -0.0019567)
(5.90417 -0.187943 -0.00193646)
(5.95406 -0.191525 -0.00193314)
(6.01333 -0.188943 -0.00195532)
(6.04901 -0.197652 -0.00192948)
(6.12156 -0.183859 -0.00196661)
(6.11997 -0.20849 -0.0019978)
(4.51348 -0.0441299 -0.00278507)
(4.62474 -0.0508069 -0.00350153)
(4.75067 -0.0465078 -0.00259776)
(4.9125 -0.0290321 -0.0031253)
(5.05428 -0.00686825 -0.00257046)
(5.18931 0.0182364 -0.00296845)
(5.29862 0.0420755 -0.0026141)
(5.3909 0.063665 -0.00287343)
(5.46757 0.0813711 -0.00264069)
(5.52991 0.09601 -0.0027949)
(5.58604 0.107558 -0.00265168)
(5.63114 0.116886 -0.00273386)
(5.67487 0.124633 -0.00265937)
(5.70982 0.130639 -0.00269193)
(5.74518 0.136648 -0.00267086)
(5.77331 0.139945 -0.00266689)
(5.8034 0.146528 -0.00269209)
(5.82383 0.145904 -0.00265888)
(5.85556 0.155718 -0.00274361)
(5.85582 0.154116 -0.00275144)
(4.51743 -0.0457142 -0.0017673)
(4.6591 -0.110328 -0.00237424)
(4.79299 -0.162611 -0.00144585)
(4.9438 -0.191113 -0.00196753)
(5.05367 -0.201542 -0.00142639)
(5.14074 -0.202576 -0.00183568)
(5.19394 -0.199414 -0.00149216)
(5.22585 -0.196433 -0.00175658)
(5.24225 -0.194543 -0.00152836)
(5.24513 -0.19409 -0.00168406)
(5.24421 -0.194474 -0.0015428)
(5.23475 -0.195382 -0.00162534)
(5.22607 -0.196103 -0.00155193)
(5.21296 -0.19719 -0.00158466)
(5.19971 -0.196743 -0.00156407)
(5.1888 -0.199034 -0.00156049)
(5.17002 -0.194182 -0.00158277)
(5.16777 -0.203566 -0.00155284)
(5.13919 -0.183795 -0.00157984)
(5.15061 -0.208363 -0.00161429)
(4.54207 -0.0877158 -0.00320136)
(4.68112 -0.119268 -0.00392344)
(4.7256 -0.120614 -0.00296288)
(4.71706 -0.0944755 -0.00348111)
(4.64239 -0.056427 -0.0029343)
(4.54975 -0.0140728 -0.00333774)
(4.44467 0.0239794 -0.00298643)
(4.3422 0.0567166 -0.00324602)
(4.2485 0.0817471 -0.00301202)
(4.159 0.10165 -0.00316539)
(4.08383 0.116142 -0.00302086)
(4.0099 0.127792 -0.00310278)
(3.95128 0.136311 -0.00302765)
(3.89114 0.143598 -0.00306035)
(3.84603 0.148955 -0.00303932)
(3.7978 0.153698 -0.00303496)
(3.76282 0.158006 -0.0030627)
(3.72765 0.159956 -0.00302028)
(3.69427 0.166152 -0.00311188)
(3.67992 0.170896 -0.00312461)
(4.3797 -0.09702 -0.00141034)
(3.97104 -0.148937 -0.00195388)
(3.43851 -0.162894 -0.000999869)
(2.96418 -0.156769 -0.00154237)
(2.55416 -0.145233 -0.00102003)
(2.25272 -0.136677 -0.00143733)
(2.03006 -0.131674 -0.00109381)
(1.87934 -0.131321 -0.00135574)
(1.77825 -0.133708 -0.00112367)
(1.70688 -0.138194 -0.00127774)
(1.66314 -0.143202 -0.00113504)
(1.62464 -0.148601 -0.00121736)
(1.60393 -0.15322 -0.00114312)
(1.57872 -0.158096 -0.00117586)
(1.56676 -0.160861 -0.00115528)
(1.55088 -0.166071 -0.00115152)
(1.53697 -0.164586 -0.00117688)
(1.54241 -0.174649 -0.00113858)
(1.49857 -0.160198 -0.00118994)
(1.57918 -0.168379 -0.00120976)
(4.3261 0.56576 -0.00699562)
(3.08309 0.847451 -0.00452806)
(2.32138 0.869222 -0.00579883)
(1.75624 0.852523 -0.00432433)
(1.61924 0.855355 -0.00547167)
(1.41659 0.867453 -0.00430509)
(1.41087 0.877584 -0.00526104)
(1.29052 0.885769 -0.0042794)
(1.29891 0.889995 -0.00506077)
(1.21467 0.893641 -0.00423367)
(1.22412 0.89535 -0.00487535)
(1.16306 0.89742 -0.00418122)
(1.1708 0.89818 -0.00470795)
(1.12467 0.899641 -0.00412673)