/*--------------------------------*- C++ -*----------------------------------*\
  =========                 |
  \\      /  F ield         | OpenFOAM: The Open Source CFD Toolbox
   \\    /   O peration     | Website:  https://openfoam.org
    \\  /    A nd           | Version:  7
     \\/     M anipulation  |
\*---------------------------------------------------------------------------*/
FoamFile
{
    version     2.0;
    format      ascii;
    class       volScalarField;
    location    "0.4825";
    object      nut;
}
// * * * * * * * * * * * * * * * * * * * * * * * * * * * * * * * * * * * * * //

dimensions      [0 2 -1 0 0 0 0];

internalField   nonuniform List<scalar> 
1600
(
1.27176e-07
1.07207e-07
8.29456e-08
6.64723e-08
5.59631e-08
4.86135e-08
4.29692e-08
3.84271e-08
3.46977e-08
3.15987e-08
2.89993e-08
2.68042e-08
2.49418e-08
2.3355e-08
2.19964e-08
2.08263e-08
1.98128e-08
1.89306e-08
1.81603e-08
1.74865e-08
1.68964e-08
1.63794e-08
1.59261e-08
1.55282e-08
1.51787e-08
1.48714e-08
1.46008e-08
1.43624e-08
1.41523e-08
1.39673e-08
1.38043e-08
1.3661e-08
1.35351e-08
1.34246e-08
1.33276e-08
1.32414e-08
1.31602e-08
1.30713e-08
1.29239e-08
1.22548e-08
1.22714e-07
1.2799e-07
1.18746e-07
1.0481e-07
9.27062e-08
8.23686e-08
7.35396e-08
6.60654e-08
5.97812e-08
5.45006e-08
5.00468e-08
4.62744e-08
4.30687e-08
4.03359e-08
3.79961e-08
3.59819e-08
3.4238e-08
3.27205e-08
3.13957e-08
3.02366e-08
2.92216e-08
2.8332e-08
2.7552e-08
2.68673e-08
2.62656e-08
2.5736e-08
2.52694e-08
2.48578e-08
2.44944e-08
2.41736e-08
2.38903e-08
2.36404e-08
2.342e-08
2.32262e-08
2.30557e-08
2.29053e-08
2.27695e-08
2.26411e-08
2.25049e-08
2.21467e-08
1.14498e-07
1.23749e-07
1.2291e-07
1.18362e-07
1.10678e-07
1.01684e-07
9.25231e-08
8.40033e-08
7.64687e-08
6.996e-08
6.43823e-08
5.96109e-08
5.55311e-08
5.20409e-08
4.90478e-08
4.64695e-08
4.42363e-08
4.22923e-08
4.05936e-08
3.91061e-08
3.78021e-08
3.66583e-08
3.56544e-08
3.47725e-08
3.39966e-08
3.3313e-08
3.27096e-08
3.21762e-08
3.1704e-08
3.12857e-08
3.09148e-08
3.0586e-08
3.02947e-08
3.0037e-08
2.98097e-08
2.96098e-08
2.94344e-08
2.92812e-08
2.9152e-08
2.90638e-08
1.10471e-07
1.17056e-07
1.20765e-07
1.20951e-07
1.18447e-07
1.12585e-07
1.04842e-07
9.66699e-08
8.88957e-08
8.1878e-08
7.56908e-08
7.02937e-08
6.56165e-08
6.15801e-08
5.81005e-08
5.50939e-08
5.24842e-08
5.02077e-08
4.82144e-08
4.64649e-08
4.49279e-08
4.35772e-08
4.23898e-08
4.13451e-08
4.04248e-08
3.96128e-08
3.88947e-08
3.82584e-08
3.76936e-08
3.71913e-08
3.6744e-08
3.63454e-08
3.59903e-08
3.56741e-08
3.53937e-08
3.51468e-08
3.49326e-08
3.47525e-08
3.46124e-08
3.45289e-08
1.08552e-07
1.13297e-07
1.17164e-07
1.19762e-07
1.197e-07
1.17339e-07
1.11903e-07
1.05015e-07
9.78594e-08
9.10236e-08
8.47487e-08
7.91075e-08
7.41089e-08
6.97282e-08
6.59135e-08
6.25955e-08
5.97016e-08
5.71667e-08
5.49378e-08
5.29735e-08
5.12413e-08
4.97138e-08
4.83673e-08
4.718e-08
4.61321e-08
4.52057e-08
4.43849e-08
4.36558e-08
4.30066e-08
4.24271e-08
4.19088e-08
4.14445e-08
4.10284e-08
4.06556e-08
4.03226e-08
4.00277e-08
3.97712e-08
3.95569e-08
3.93933e-08
3.92966e-08
1.07198e-07
1.10367e-07
1.1359e-07
1.16808e-07
1.18467e-07
1.177e-07
1.1472e-07
1.09551e-07
1.03614e-07
9.75513e-08
9.16897e-08
8.61977e-08
8.1175e-08
7.66718e-08
7.26888e-08
6.91874e-08
6.61093e-08
6.33945e-08
6.09918e-08
5.88611e-08
5.6971e-08
5.52956e-08
5.38124e-08
5.25002e-08
5.13389e-08
5.03099e-08
4.93962e-08
4.85826e-08
4.78559e-08
4.7205e-08
4.66204e-08
4.6094e-08
4.56195e-08
4.51917e-08
4.48069e-08
4.44634e-08
4.4162e-08
4.39077e-08
4.37116e-08
4.3593e-08
1.06414e-07
1.08718e-07
1.10875e-07
1.13595e-07
1.15696e-07
1.15955e-07
1.14424e-07
1.10949e-07
1.06502e-07
1.01599e-07
9.65423e-08
9.15459e-08
8.67852e-08
8.23878e-08
7.84164e-08
7.48738e-08
7.17247e-08
6.89207e-08
6.64164e-08
6.4176e-08
6.21724e-08
6.03838e-08
5.87907e-08
5.73745e-08
5.61166e-08
5.49988e-08
5.40037e-08
5.31154e-08
5.232e-08
5.16052e-08
5.09606e-08
5.03777e-08
4.98493e-08
4.93701e-08
4.8936e-08
4.85452e-08
4.81987e-08
4.7902e-08
4.76682e-08
4.75224e-08
1.06923e-07
1.07443e-07
1.08695e-07
1.10514e-07
1.12144e-07
1.12664e-07
1.12147e-07
1.10201e-07
1.07095e-07
1.03477e-07
9.94316e-08
9.51651e-08
9.08946e-08
8.68068e-08
8.30208e-08
7.9582e-08
7.64824e-08
7.36887e-08
7.11648e-08
6.88813e-08
6.68175e-08
6.49579e-08
6.32886e-08
6.17952e-08
6.04622e-08
5.92733e-08
5.82118e-08
5.7262e-08
5.64094e-08
5.5641e-08
5.49458e-08
5.43146e-08
5.37397e-08
5.32154e-08
5.27373e-08
5.23034e-08
5.19144e-08
5.15761e-08
5.13029e-08
5.11267e-08
1.06503e-07
1.06429e-07
1.06737e-07
1.07567e-07
1.08517e-07
1.08967e-07
1.08794e-07
1.07973e-07
1.06211e-07
1.03652e-07
1.00621e-07
9.71745e-08
9.35286e-08
8.9899e-08
8.64423e-08
8.32377e-08
8.03019e-08
7.76177e-08
7.51591e-08
7.29046e-08
7.08406e-08
6.89591e-08
6.72536e-08
6.57157e-08
6.43344e-08
6.30966e-08
6.19877e-08
6.09928e-08
6.00976e-08
5.9289e-08
5.85555e-08
5.78873e-08
5.72763e-08
5.67162e-08
5.62023e-08
5.57323e-08
5.53065e-08
5.49304e-08
5.46193e-08
5.44113e-08
1.06145e-07
1.05662e-07
1.05269e-07
1.05328e-07
1.05529e-07
1.05671e-07
1.05575e-07
1.05186e-07
1.04294e-07
1.02761e-07
1.00501e-07
9.78046e-08
9.48167e-08
9.17205e-08
8.86872e-08
8.5814e-08
8.3135e-08
8.06462e-08
7.83307e-08
7.61744e-08
7.4171e-08
7.23199e-08
7.0622e-08
6.90763e-08
6.76776e-08
6.64169e-08
6.52827e-08
6.42621e-08
6.33416e-08
6.25086e-08
6.17514e-08
6.10599e-08
6.04255e-08
5.98414e-08
5.93028e-08
5.88065e-08
5.83524e-08
5.79453e-08
5.76006e-08
5.73615e-08
1.06265e-07
1.05555e-07
1.04437e-07
1.03767e-07
1.03375e-07
1.03118e-07
1.02878e-07
1.02563e-07
1.02012e-07
1.01032e-07
9.95236e-08
9.74356e-08
9.49937e-08
9.24273e-08
8.9852e-08
8.73612e-08
8.49968e-08
8.27632e-08
8.06501e-08
7.86492e-08
7.67599e-08
7.4988e-08
7.33413e-08
7.18255e-08
7.04418e-08
6.91861e-08
6.80506e-08
6.70251e-08
6.6098e-08
6.52575e-08
6.44924e-08
6.37925e-08
6.31489e-08
6.25545e-08
6.20037e-08
6.1493e-08
6.10214e-08
6.05927e-08
6.02214e-08
5.99541e-08
1.05729e-07
1.05088e-07
1.03802e-07
1.02739e-07
1.01931e-07
1.01295e-07
1.0078e-07
1.00327e-07
9.9811e-08
9.90506e-08
9.79001e-08
9.63342e-08
9.44253e-08
9.22865e-08
9.01228e-08
8.80138e-08
8.59791e-08
8.40259e-08
8.21472e-08
8.03379e-08
7.86012e-08
7.69471e-08
7.53886e-08
7.39369e-08
7.25987e-08
7.1375e-08
7.02619e-08
6.92523e-08
6.83371e-08
6.75058e-08
6.67483e-08
6.60547e-08
6.54161e-08
6.4825e-08
6.42754e-08
6.3763e-08
6.32859e-08
6.28467e-08
6.24581e-08
6.21678e-08
1.06418e-07
1.05131e-07
1.03456e-07
1.0214e-07
1.01047e-07
1.00083e-07
9.92515e-08
9.85491e-08
9.78927e-08
9.71319e-08
9.61284e-08
9.48312e-08
9.32776e-08
9.15717e-08
8.97801e-08
8.79794e-08
8.62426e-08
8.45595e-08
8.29158e-08
8.13086e-08
7.97423e-08
7.82289e-08
7.6784e-08
7.54224e-08
7.41545e-08
7.29856e-08
7.19156e-08
7.09404e-08
7.00534e-08
6.92462e-08
6.851e-08
6.78357e-08
6.72147e-08
6.66394e-08
6.61033e-08
6.56014e-08
6.5131e-08
6.4693e-08
6.42977e-08
6.39912e-08
1.06393e-07
1.05018e-07
1.03358e-07
1.01907e-07
1.00613e-07
9.93784e-08
9.82413e-08
9.72504e-08
9.63671e-08
9.5481e-08
9.44783e-08
9.33015e-08
9.19596e-08
9.05089e-08
8.90086e-08
8.75105e-08
8.60174e-08
8.45441e-08
8.31043e-08
8.16845e-08
8.02845e-08
7.8916e-08
7.75951e-08
7.63375e-08
7.51558e-08
7.40577e-08
7.30459e-08
7.21192e-08
7.1273e-08
7.05014e-08
6.9797e-08
6.91519e-08
6.85583e-08
6.80086e-08
6.74961e-08
6.70152e-08
6.65621e-08
6.61362e-08
6.57448e-08
6.543e-08
1.0577e-07
1.04733e-07
1.03239e-07
1.01809e-07
1.00444e-07
9.90351e-08
9.76498e-08
9.63881e-08
9.52601e-08
9.4197e-08
9.31134e-08
9.19552e-08
9.07135e-08
8.94136e-08
8.80903e-08
8.67727e-08
8.54719e-08
8.41892e-08
8.29087e-08
8.16318e-08
8.03706e-08
7.91336e-08
7.79319e-08
7.67794e-08
7.56887e-08
7.46684e-08
7.37228e-08
7.28525e-08
7.20549e-08
7.13258e-08
7.06596e-08
7.005e-08
6.94899e-08
6.89721e-08
6.84899e-08
6.80373e-08
6.76097e-08
6.72047e-08
6.68268e-08
6.65119e-08
1.06248e-07
1.04863e-07
1.0326e-07
1.01827e-07
1.00416e-07
9.88927e-08
9.73323e-08
9.58608e-08
9.45241e-08
9.32903e-08
9.20996e-08
9.09056e-08
8.96899e-08
8.84586e-08
8.72278e-08
8.60122e-08
8.48173e-08
8.36408e-08
8.24755e-08
8.13195e-08
8.01708e-08
7.90374e-08
7.79335e-08
7.6875e-08
7.58701e-08
7.49257e-08
7.40464e-08
7.32336e-08
7.24865e-08
7.18022e-08
7.11766e-08
7.06045e-08
7.00801e-08
6.95967e-08
6.9148e-08
6.87276e-08
6.83303e-08
6.79525e-08
6.75955e-08
6.72876e-08
1.0594e-07
1.05166e-07
1.03347e-07
1.01838e-07
1.00372e-07
9.87831e-08
9.71321e-08
9.55397e-08
9.40672e-08
9.27081e-08
9.14244e-08
9.01789e-08
8.89503e-08
8.77343e-08
8.65359e-08
8.53613e-08
8.42129e-08
8.30883e-08
8.19827e-08
8.08933e-08
7.982e-08
7.87692e-08
7.77489e-08
7.6767e-08
7.58331e-08
7.49546e-08
7.41352e-08
7.33758e-08
7.2676e-08
7.20343e-08
7.14475e-08
7.09117e-08
7.04217e-08
6.9972e-08
6.95565e-08
6.9169e-08
6.88038e-08
6.84561e-08
6.81248e-08
6.78298e-08
1.06556e-07
1.05351e-07
1.03418e-07
1.018e-07
1.0025e-07
9.8627e-08
9.69557e-08
9.53243e-08
9.3792e-08
9.23662e-08
9.10238e-08
8.97361e-08
8.84834e-08
8.72572e-08
8.60571e-08
8.48861e-08
8.3746e-08
8.26359e-08
8.15536e-08
8.04973e-08
7.94675e-08
7.84676e-08
7.75033e-08
7.65803e-08
7.57049e-08
7.48811e-08
7.41115e-08
7.33976e-08
7.27392e-08
7.2135e-08
7.15827e-08
7.10792e-08
7.06204e-08
7.02014e-08
6.98167e-08
6.94603e-08
6.91263e-08
6.88093e-08
6.8506e-08
6.8228e-08
1.06731e-07
1.05298e-07
1.03342e-07
1.01686e-07
1.00112e-07
9.84809e-08
9.68098e-08
9.51747e-08
9.3629e-08
9.21815e-08
9.08147e-08
8.9505e-08
8.82343e-08
8.69936e-08
8.57811e-08
8.45992e-08
8.34506e-08
8.2337e-08
8.12588e-08
8.02159e-08
7.92091e-08
7.82405e-08
7.73134e-08
7.64315e-08
7.55983e-08
7.48161e-08
7.40864e-08
7.34097e-08
7.27857e-08
7.22134e-08
7.16909e-08
7.12156e-08
7.07842e-08
7.03924e-08
7.00353e-08
6.97073e-08
6.94024e-08
6.91149e-08
6.88402e-08
6.85816e-08
1.06991e-07
1.05545e-07
1.03392e-07
1.01664e-07
1.00074e-07
9.84271e-08
9.67398e-08
9.50955e-08
9.35463e-08
9.20971e-08
9.07282e-08
8.94153e-08
8.81401e-08
8.68932e-08
8.5673e-08
8.44823e-08
8.33256e-08
8.2207e-08
8.1129e-08
8.00932e-08
7.91009e-08
7.81535e-08
7.72529e-08
7.6401e-08
7.55996e-08
7.48494e-08
7.41514e-08
7.35057e-08
7.29114e-08
7.2367e-08
7.18711e-08
7.14212e-08
7.10147e-08
7.06478e-08
7.0316e-08
7.00141e-08
6.97364e-08
6.9477e-08
6.92306e-08
6.89926e-08
1.06705e-07
1.0547e-07
1.03419e-07
1.01721e-07
1.00134e-07
9.84734e-08
9.67663e-08
9.51057e-08
9.35479e-08
9.20976e-08
9.07322e-08
8.94246e-08
8.81549e-08
8.69125e-08
8.56954e-08
8.45068e-08
8.33522e-08
8.22369e-08
8.11651e-08
8.01396e-08
7.91624e-08
7.82347e-08
7.7358e-08
7.65331e-08
7.57608e-08
7.50414e-08
7.43744e-08
7.37587e-08
7.31932e-08
7.26766e-08
7.22073e-08
7.17833e-08
7.1402e-08
7.10601e-08
7.07534e-08
7.04772e-08
7.0226e-08
6.99938e-08
6.97754e-08
6.95586e-08
1.05932e-07
1.05126e-07
1.03424e-07
1.01852e-07
1.00311e-07
9.86485e-08
9.6909e-08
9.52115e-08
9.36289e-08
9.21694e-08
9.08066e-08
8.95083e-08
8.82508e-08
8.70217e-08
8.58181e-08
8.46434e-08
8.35037e-08
8.24051e-08
8.13528e-08
8.03502e-08
7.93992e-08
7.85009e-08
7.76559e-08
7.68643e-08
7.6126e-08
7.54406e-08
7.48073e-08
7.42249e-08
7.36921e-08
7.32075e-08
7.27693e-08
7.23753e-08
7.20232e-08
7.17096e-08
7.14307e-08
7.1182e-08
7.09582e-08
7.07533e-08
7.05629e-08
7.03673e-08
1.05989e-07
1.05146e-07
1.03589e-07
1.02114e-07
1.00668e-07
9.90242e-08
9.7242e-08
9.54844e-08
9.38559e-08
9.23733e-08
9.10057e-08
8.97142e-08
8.84699e-08
8.72581e-08
8.60752e-08
8.49241e-08
8.38108e-08
8.27414e-08
8.17208e-08
8.07521e-08
7.98373e-08
7.89772e-08
7.8172e-08
7.74215e-08
7.67251e-08
7.60821e-08
7.54911e-08
7.49509e-08
7.44597e-08
7.40157e-08
7.36169e-08
7.32608e-08
7.29448e-08
7.26657e-08
7.24196e-08
7.22019e-08
7.20077e-08
7.18308e-08
7.16685e-08
7.1493e-08
1.06499e-07
1.0573e-07
1.0406e-07
1.0253e-07
1.01109e-07
9.94956e-08
9.77065e-08
9.59192e-08
9.42615e-08
9.27604e-08
9.13849e-08
9.00933e-08
8.88555e-08
8.76567e-08
8.64936e-08
8.53693e-08
8.42891e-08
8.32581e-08
8.22804e-08
8.13583e-08
8.04929e-08
7.96844e-08
7.89324e-08
7.82363e-08
7.75951e-08
7.70073e-08
7.64715e-08
7.59858e-08
7.55482e-08
7.51562e-08
7.48074e-08
7.4499e-08
7.42278e-08
7.39903e-08
7.37825e-08
7.35997e-08
7.34371e-08
7.32883e-08
7.3153e-08
7.29941e-08
1.06486e-07
1.06173e-07
1.04488e-07
1.02956e-07
1.01601e-07
1.00036e-07
9.82696e-08
9.64899e-08
9.48344e-08
9.3335e-08
9.19615e-08
9.0673e-08
8.94415e-08
8.82554e-08
8.71136e-08
8.60203e-08
8.49806e-08
8.39985e-08
8.30764e-08
8.22152e-08
8.14145e-08
8.06735e-08
7.99909e-08
7.9365e-08
7.87941e-08
7.82764e-08
7.78096e-08
7.73915e-08
7.70194e-08
7.66905e-08
7.64016e-08
7.61494e-08
7.59302e-08
7.57398e-08
7.5574e-08
7.54279e-08
7.52968e-08
7.51737e-08
7.50622e-08
7.49138e-08
1.06776e-07
1.06166e-07
1.04728e-07
1.03538e-07
1.02291e-07
1.00752e-07
9.90032e-08
9.72428e-08
9.56063e-08
9.41229e-08
9.27622e-08
9.1485e-08
9.0267e-08
8.91008e-08
8.79889e-08
8.69373e-08
8.59511e-08
8.50331e-08
8.41837e-08
8.34016e-08
8.26844e-08
8.20294e-08
8.14337e-08
8.08944e-08
8.04089e-08
7.99743e-08
7.9588e-08
7.92473e-08
7.89489e-08
7.86895e-08
7.84657e-08
7.82734e-08
7.81084e-08
7.79661e-08
7.78416e-08
7.773e-08
7.76267e-08
7.75238e-08
7.74303e-08
7.72829e-08
1.07102e-07
1.06079e-07
1.05107e-07
1.04197e-07
1.03032e-07
1.01542e-07
9.98506e-08
9.81485e-08
9.65637e-08
9.51238e-08
9.38003e-08
9.25575e-08
9.1376e-08
9.0253e-08
8.91946e-08
8.82087e-08
8.73001e-08
8.64702e-08
8.57172e-08
8.50371e-08
8.44247e-08
8.38749e-08
8.33826e-08
8.29434e-08
8.25535e-08
8.22094e-08
8.19082e-08
8.16468e-08
8.14221e-08
8.12309e-08
8.10692e-08
8.09331e-08
8.08178e-08
8.07182e-08
8.06293e-08
8.05456e-08
8.0463e-08
8.03726e-08
8.02886e-08
8.01322e-08
1.05937e-07
1.05661e-07
1.05009e-07
1.04263e-07
1.03317e-07
1.02052e-07
1.00571e-07
9.90517e-08
9.76174e-08
9.63001e-08
9.50793e-08
9.39289e-08
9.28374e-08
9.18077e-08
9.08495e-08
8.99714e-08
8.91783e-08
8.84697e-08
8.78416e-08
8.72872e-08
8.67987e-08
8.63682e-08
8.59886e-08
8.56541e-08
8.536e-08
8.5103e-08
8.48802e-08
8.46894e-08
8.45284e-08
8.43944e-08
8.42841e-08
8.41936e-08
8.4118e-08
8.4052e-08
8.399e-08
8.39262e-08
8.38568e-08
8.37714e-08
8.3688e-08
8.35166e-08
1.06611e-07
1.05811e-07
1.04885e-07
1.04161e-07
1.03364e-07
1.02328e-07
1.0113e-07
9.99041e-08
9.87428e-08
9.76663e-08
9.66576e-08
9.57e-08
9.47903e-08
9.39358e-08
9.3148e-08
9.24359e-08
9.18037e-08
9.12503e-08
9.07705e-08
9.03562e-08
8.9998e-08
8.96867e-08
8.9414e-08
8.91737e-08
8.89615e-08
8.87751e-08
8.86133e-08
8.84755e-08
8.83613e-08
8.82691e-08
8.81965e-08
8.81403e-08
8.80955e-08
8.80558e-08
8.80151e-08
8.79669e-08
8.79071e-08
8.78243e-08
8.77359e-08
8.75486e-08
1.07399e-07
1.06659e-07
1.0525e-07
1.044e-07
1.03656e-07
1.02785e-07
1.01832e-07
1.00932e-07
1.00129e-07
9.94112e-08
9.87464e-08
9.81123e-08
9.75032e-08
9.69236e-08
9.63835e-08
9.58923e-08
9.54547e-08
9.50721e-08
9.4742e-08
9.44587e-08
9.42143e-08
9.40008e-08
9.38109e-08
9.36396e-08
9.34846e-08
9.33462e-08
9.32254e-08
9.31238e-08
9.30436e-08
9.29845e-08
9.29439e-08
9.29199e-08
9.29067e-08
9.2896e-08
9.28795e-08
9.285e-08
9.28029e-08
9.27264e-08
9.26328e-08
9.24307e-08
1.0711e-07
1.0666e-07
1.05686e-07
1.05053e-07
1.04479e-07
1.03784e-07
1.03099e-07
1.02574e-07
1.02207e-07
1.01966e-07
1.01782e-07
1.01602e-07
1.01402e-07
1.01173e-07
1.00924e-07
1.00671e-07
1.00421e-07
1.00185e-07
9.99714e-08
9.97812e-08
9.96128e-08
9.94618e-08
9.93239e-08
9.91962e-08
9.90793e-08
9.89767e-08
9.88922e-08
9.88272e-08
9.87854e-08
9.87713e-08
9.87744e-08
9.87936e-08
9.88277e-08
9.88602e-08
9.88765e-08
9.88691e-08
9.88408e-08
9.87757e-08
9.86728e-08
9.84505e-08
1.07459e-07
1.07714e-07
1.07031e-07
1.06636e-07
1.06313e-07
1.05874e-07
1.05548e-07
1.05523e-07
1.05669e-07
1.0602e-07
1.06426e-07
1.06771e-07
1.07008e-07
1.07118e-07
1.07117e-07
1.07059e-07
1.06932e-07
1.06781e-07
1.06628e-07
1.06487e-07
1.06362e-07
1.06253e-07
1.06158e-07
1.06075e-07
1.06004e-07
1.05954e-07
1.0593e-07
1.0593e-07
1.05949e-07
1.06001e-07
1.06078e-07
1.06167e-07
1.06256e-07
1.06335e-07
1.06387e-07
1.0639e-07
1.06367e-07
1.06297e-07
1.06163e-07
1.0589e-07
1.07762e-07
1.08201e-07
1.08402e-07
1.08911e-07
1.09292e-07
1.09555e-07
1.09917e-07
1.10552e-07
1.11457e-07
1.12471e-07
1.13426e-07
1.14208e-07
1.14764e-07
1.15091e-07
1.15226e-07
1.15219e-07
1.1516e-07
1.15043e-07
1.14929e-07
1.14832e-07
1.14764e-07
1.14724e-07
1.14707e-07
1.14707e-07
1.14721e-07
1.1476e-07
1.14828e-07
1.14918e-07
1.15032e-07
1.15165e-07
1.15307e-07
1.15447e-07
1.15567e-07
1.15654e-07
1.15689e-07
1.15669e-07
1.15598e-07
1.15445e-07
1.15217e-07
1.1484e-07
1.07719e-07
1.09316e-07
1.10579e-07
1.12351e-07
1.14146e-07
1.15759e-07
1.1731e-07
1.18911e-07
1.20531e-07
1.22039e-07
1.23313e-07
1.24279e-07
1.24926e-07
1.25293e-07
1.25447e-07
1.2546e-07
1.25433e-07
1.25382e-07
1.25359e-07
1.25366e-07
1.25408e-07
1.25491e-07
1.2559e-07
1.257e-07
1.25818e-07
1.25947e-07
1.26086e-07
1.26234e-07
1.26384e-07
1.26527e-07
1.26653e-07
1.26747e-07
1.26785e-07
1.26763e-07
1.26685e-07
1.26517e-07
1.26264e-07
1.25924e-07
1.25504e-07
1.24939e-07
1.09001e-07
1.12352e-07
1.15717e-07
1.19719e-07
1.23536e-07
1.26728e-07
1.29367e-07
1.31621e-07
1.33548e-07
1.35144e-07
1.36387e-07
1.37282e-07
1.37864e-07
1.38204e-07
1.38383e-07
1.38474e-07
1.38541e-07
1.38619e-07
1.38727e-07
1.38861e-07
1.39009e-07
1.3916e-07
1.39297e-07
1.39415e-07
1.39511e-07
1.39587e-07
1.39642e-07
1.39673e-07
1.39667e-07
1.39631e-07
1.39544e-07
1.39386e-07
1.39151e-07
1.38832e-07
1.38429e-07
1.37938e-07
1.37363e-07
1.36705e-07
1.35983e-07
1.35147e-07
1.11736e-07
1.17877e-07
1.25706e-07
1.33559e-07
1.39699e-07
1.43994e-07
1.46974e-07
1.49178e-07
1.50895e-07
1.5227e-07
1.53334e-07
1.5411e-07
1.54627e-07
1.54958e-07
1.55161e-07
1.55275e-07
1.55344e-07
1.55392e-07
1.55424e-07
1.55425e-07
1.55391e-07
1.55307e-07
1.55158e-07
1.54962e-07
1.54713e-07
1.54414e-07
1.54066e-07
1.53668e-07
1.53214e-07
1.52698e-07
1.52114e-07
1.51447e-07
1.50696e-07
1.49866e-07
1.4896e-07
1.47987e-07
1.46958e-07
1.45877e-07
1.44779e-07
1.43647e-07
1.16174e-07
1.29149e-07
1.44325e-07
1.55998e-07
1.63417e-07
1.67871e-07
1.70522e-07
1.72336e-07
1.73704e-07
1.74804e-07
1.75585e-07
1.76048e-07
1.76158e-07
1.76056e-07
1.75765e-07
1.75276e-07
1.74696e-07
1.74061e-07
1.73376e-07
1.72633e-07
1.71823e-07
1.70945e-07
1.7e-07
1.68979e-07
1.67902e-07
1.66784e-07
1.6563e-07
1.64441e-07
1.63214e-07
1.61943e-07
1.60626e-07
1.59276e-07
1.57888e-07
1.56459e-07
1.54997e-07
1.53512e-07
1.52018e-07
1.50528e-07
1.49092e-07
1.47743e-07
1.30891e-07
1.62113e-07
1.80131e-07
1.90343e-07
1.96089e-07
1.99821e-07
2.01576e-07
2.02428e-07
2.02578e-07
2.02312e-07
2.01516e-07
1.99943e-07
1.97939e-07
1.95737e-07
1.93477e-07
1.91283e-07
1.89168e-07
1.87105e-07
1.85068e-07
1.83039e-07
1.81006e-07
1.78965e-07
1.76922e-07
1.74879e-07
1.72841e-07
1.70814e-07
1.68797e-07
1.66787e-07
1.6478e-07
1.62772e-07
1.60762e-07
1.58751e-07
1.56747e-07
1.54758e-07
1.52793e-07
1.50865e-07
1.48991e-07
1.47189e-07
1.45525e-07
1.44086e-07
1.70225e-07
2.1344e-07
2.2814e-07
2.35084e-07
2.36207e-07
2.34956e-07
2.3192e-07
2.28122e-07
2.23825e-07
2.19109e-07
2.14077e-07
2.08857e-07
2.03677e-07
1.98714e-07
1.94057e-07
1.89722e-07
1.85691e-07
1.81924e-07
1.78369e-07
1.74986e-07
1.71746e-07
1.68629e-07
1.65626e-07
1.62728e-07
1.59927e-07
1.57216e-07
1.54583e-07
1.5202e-07
1.49519e-07
1.47074e-07
1.44683e-07
1.42347e-07
1.40072e-07
1.37863e-07
1.35729e-07
1.33681e-07
1.31732e-07
1.29903e-07
1.28263e-07
1.26932e-07
2.43716e-07
2.74246e-07
2.73485e-07
2.64139e-07
2.47385e-07
2.29701e-07
2.13197e-07
1.98967e-07
1.86918e-07
1.76616e-07
1.6768e-07
1.59855e-07
1.52986e-07
1.46947e-07
1.41617e-07
1.36875e-07
1.32614e-07
1.28742e-07
1.25184e-07
1.21881e-07
1.18793e-07
1.1589e-07
1.13151e-07
1.10559e-07
1.08098e-07
1.05756e-07
1.03518e-07
1.01374e-07
9.93154e-08
9.73355e-08
9.5431e-08
9.3601e-08
9.18465e-08
9.01701e-08
8.8575e-08
8.70654e-08
8.56476e-08
8.43333e-08
8.31631e-08
8.22172e-08
)
;

boundaryField
{
    upperWall
    {
        type            zeroGradient;
    }
    lowerWall
    {
        type            zeroGradient;
    }
    inlet
    {
        type            zeroGradient;
    }
    outlet
    {
        type            zeroGradient;
    }
    frontAndBack
    {
        type            empty;
    }
}


// ************************************************************************* //
