/*--------------------------------*- C++ -*----------------------------------*\
  =========                 |
  \\      /  F ield         | OpenFOAM: The Open Source CFD Toolbox
   \\    /   O peration     | Website:  https://openfoam.org
    \\  /    A nd           | Version:  7
     \\/     M anipulation  |
\*---------------------------------------------------------------------------*/
FoamFile
{
    version     2.0;
    format      ascii;
    class       volScalarField;
    location    "0.13";
    object      nut;
}
// * * * * * * * * * * * * * * * * * * * * * * * * * * * * * * * * * * * * * //

dimensions      [0 2 -1 0 0 0 0];

internalField   nonuniform List<scalar> 
1440
(
0.000134079
0.00031167
0.000497945
0.000654444
0.000777673
0.00086943
0.000933531
0.000975032
0.000998595
0.00100885
0.00100766
0.00100256
0.000991568
0.000977
0.000960725
0.000943627
0.000926334
0.000909288
0.000892785
0.00087702
0.000862103
0.000848093
0.000835007
0.000822831
0.000811531
0.000801063
0.000791372
0.000782399
0.000774085
0.000766372
0.000759203
0.000752525
0.000746286
0.000740444
0.000734954
0.00072978
0.000724887
0.000720247
0.000715831
0.000711617
0.00070758
0.000703706
0.000699973
0.000696372
0.000692882
0.000689497
0.000686203
0.000682988
0.000679853
0.000676759
0.000673763
0.000670721
0.000667884
0.000664761
0.0006622
0.000658721
0.000656681
0.0006525
0.000650895
0.000645848
6.53554e-06
2.95446e-05
6.70026e-05
0.000115482
0.000177105
0.000240831
0.000299671
0.000352129
0.00039614
0.000432706
0.000461299
0.000483782
0.000500896
0.000513571
0.000522674
0.000529071
0.00053333
0.000536096
0.000537653
0.00053851
0.000538698
0.000538606
0.000538365
0.000537962
0.000537526
0.000537103
0.000536722
0.000536397
0.000536136
0.00053594
0.000535803
0.000535721
0.000535683
0.000535689
0.00053571
0.000535753
0.000535811
0.000535871
0.000535935
0.000535989
0.00053604
0.000536071
0.000536098
0.000536098
0.000536089
0.000536065
0.000536022
0.000535961
0.000535884
0.000535796
0.000535688
0.000535583
0.000535447
0.000535341
0.000535179
0.000535098
0.000534913
0.000534898
0.00053475
0.000535093
1.58677e-06
2.17934e-06
4.92904e-06
1.04004e-05
1.917e-05
3.1093e-05
4.66434e-05
6.47511e-05
8.34029e-05
0.000102281
0.000120386
0.000137425
0.000153042
0.000167164
0.0001797
0.000190756
0.000200376
0.000208728
0.0002159
0.00022206
0.000227308
0.000231788
0.000235603
0.000238874
0.000241674
0.000244108
0.000246219
0.000248098
0.000249758
0.000251282
0.000252664
0.000253982
0.000255212
0.000256434
0.000257603
0.000258803
0.000259967
0.000261188
0.00026238
0.000263648
0.000264887
0.00026622
0.000267518
0.000268927
0.000270289
0.000271778
0.000273204
0.000274769
0.000276253
0.000277891
0.000279436
0.000281145
0.000282761
0.000284534
0.00028624
0.000288067
0.0002899
0.000291775
0.000293791
0.000295743
1.57741e-06
1.58214e-06
1.60802e-06
1.74176e-06
2.21544e-06
3.28967e-06
5.11821e-06
7.86101e-06
1.11362e-05
1.55701e-05
2.01234e-05
2.52411e-05
3.03197e-05
3.56168e-05
4.07165e-05
4.5772e-05
5.05244e-05
5.51208e-05
5.9402e-05
6.34602e-05
6.71743e-05
7.06373e-05
7.37911e-05
7.67395e-05
7.94169e-05
8.19145e-05
8.41631e-05
8.62707e-05
8.81859e-05
8.99958e-05
9.16334e-05
9.31789e-05
9.45706e-05
9.59084e-05
9.71336e-05
9.83367e-05
9.9449e-05
0.00010054
0.000101542
0.000102539
0.000103464
0.000104402
0.000105282
0.00010618
0.00010702
0.000107885
0.000108722
0.000109599
0.000110457
0.000111334
0.000112177
0.000113042
0.00011392
0.000114825
0.000115789
0.000116737
0.000117768
0.000118769
0.0001199
0.000121008
1.57667e-06
1.57873e-06
1.58452e-06
1.59698e-06
1.61787e-06
1.65364e-06
1.71326e-06
1.83269e-06
2.03386e-06
2.43357e-06
2.89112e-06
3.7144e-06
4.37317e-06
5.46823e-06
6.37172e-06
7.58263e-06
8.58303e-06
9.76866e-06
1.08654e-05
1.20716e-05
1.31438e-05
1.42173e-05
1.52055e-05
1.62255e-05
1.71953e-05
1.81446e-05
1.90041e-05
1.9835e-05
2.06347e-05
2.14368e-05
2.22063e-05
2.2944e-05
2.36153e-05
2.42567e-05
2.48779e-05
2.55201e-05
2.61625e-05
2.6779e-05
2.7346e-05
2.78784e-05
2.84072e-05
2.89624e-05
2.95363e-05
3.00731e-05
3.05621e-05
3.10135e-05
3.15006e-05
3.20296e-05
3.25934e-05
3.31266e-05
3.35904e-05
3.40318e-05
3.44853e-05
3.49947e-05
3.55556e-05
3.61094e-05
3.66533e-05
3.71616e-05
3.7681e-05
3.82485e-05
1.5765e-06
1.578e-06
1.58271e-06
1.59437e-06
1.6095e-06
1.63665e-06
1.66809e-06
1.72007e-06
1.7504e-06
1.80499e-06
1.85519e-06
1.93843e-06
1.98231e-06
2.05419e-06
2.11218e-06
2.2306e-06
2.31044e-06
2.40554e-06
2.47929e-06
2.62465e-06
2.74762e-06
2.87446e-06
2.9653e-06
3.09163e-06
3.22683e-06
3.38172e-06
3.5074e-06
3.61771e-06
3.72987e-06
3.85906e-06
4.01135e-06
4.15039e-06
4.27545e-06
4.36958e-06
4.47526e-06
4.60291e-06
4.75893e-06
4.90294e-06
5.02175e-06
5.10663e-06
5.21214e-06
5.34689e-06
5.5151e-06
5.65954e-06
5.77088e-06
5.84933e-06
5.96368e-06
6.11334e-06
6.29348e-06
6.45823e-06
6.58804e-06
6.69339e-06
6.80205e-06
6.95576e-06
7.14995e-06
7.3464e-06
7.52574e-06
7.68078e-06
7.83476e-06
8.0171e-06
1.5765e-06
1.578e-06
1.58271e-06
1.59377e-06
1.61132e-06
1.63181e-06
1.67322e-06
1.71795e-06
1.75358e-06
1.79306e-06
1.86637e-06
1.93706e-06
1.98533e-06
2.03251e-06
2.12668e-06
2.23079e-06
2.31899e-06
2.38655e-06
2.48764e-06
2.61891e-06
2.75801e-06
2.86573e-06
2.9702e-06
3.08411e-06
3.23065e-06
3.37493e-06
3.50787e-06
3.61229e-06
3.72543e-06
3.85267e-06
4.0033e-06
4.14131e-06
4.26235e-06
4.35505e-06
4.45806e-06
4.58035e-06
4.73341e-06
4.8718e-06
4.98357e-06
5.06196e-06
5.15822e-06
5.28408e-06
5.43926e-06
5.57042e-06
5.66347e-06
5.72886e-06
5.81414e-06
5.94008e-06
6.09219e-06
6.22107e-06
6.31039e-06
6.36357e-06
6.42226e-06
6.51496e-06
6.62784e-06
6.74285e-06
6.82093e-06
6.86233e-06
6.88536e-06
6.9308e-06
1.57667e-06
1.57873e-06
1.58452e-06
1.59657e-06
1.61832e-06
1.65322e-06
1.71364e-06
1.82619e-06
2.04307e-06
2.37376e-06
2.94305e-06
3.62182e-06
4.43752e-06
5.37356e-06
6.45227e-06
7.53468e-06
8.63502e-06
9.73478e-06
1.08951e-05
1.20454e-05
1.31618e-05
1.41956e-05
1.52142e-05
1.62066e-05
1.7198e-05
1.81231e-05
1.89998e-05
1.98128e-05
2.06203e-05
2.14092e-05
2.2184e-05
2.29057e-05
2.35808e-05
2.4206e-05
2.48276e-05
2.54522e-05
2.60885e-05
2.66893e-05
2.72442e-05
2.77527e-05
2.82666e-05
2.87966e-05
2.93413e-05
2.98477e-05
3.02978e-05
3.07106e-05
3.11419e-05
3.16168e-05
3.21144e-05
3.25703e-05
3.29501e-05
3.32815e-05
3.36165e-05
3.39937e-05
3.43924e-05
3.47748e-05
3.50956e-05
3.5364e-05
3.56033e-05
3.58664e-05
1.57741e-06
1.58214e-06
1.60802e-06
1.74176e-06
2.21542e-06
3.28963e-06
5.11843e-06
7.72565e-06
1.1259e-05
1.54892e-05
2.0187e-05
2.51924e-05
3.03608e-05
3.55833e-05
4.07442e-05
4.57453e-05
5.05413e-05
5.50997e-05
5.94109e-05
6.34408e-05
6.71779e-05
7.06156e-05
7.37898e-05
7.6713e-05
7.94107e-05
8.18806e-05
8.41491e-05
8.62298e-05
8.81596e-05
8.9944e-05
9.1594e-05
9.31097e-05
9.45134e-05
9.58171e-05
9.70514e-05
9.8217e-05
9.93311e-05
0.000100382
0.000101379
0.000102326
0.00010324
0.000104117
0.000104974
0.000105799
0.000106598
0.000107375
0.000108147
0.000108912
0.000109676
0.000110412
0.000111117
0.000111802
0.00011248
0.000113162
0.000113838
0.000114504
0.000115139
0.00011576
0.00011636
0.000116958
1.58677e-06
2.17934e-06
4.92902e-06
1.04003e-05
1.91699e-05
3.10928e-05
4.66451e-05
6.47492e-05
8.34035e-05
0.000102279
0.000120386
0.000137422
0.000153041
0.00016716
0.000179697
0.00019075
0.000200372
0.00020872
0.000215894
0.000222048
0.000227299
0.000231771
0.000235588
0.000238851
0.000241653
0.000244076
0.00024619
0.000248054
0.000249717
0.000251221
0.000252605
0.000253898
0.00025513
0.00025632
0.000257489
0.000258647
0.00025981
0.000260977
0.000262163
0.000263363
0.000264588
0.000265834
0.00026711
0.000268407
0.000269735
0.000271081
0.000272452
0.000273836
0.000275238
0.000276646
0.000278067
0.000279491
0.000280918
0.000282344
0.000283762
0.000285174
0.000286569
0.000287953
0.000289312
0.000290656
6.53553e-06
2.95446e-05
6.70025e-05
0.000115481
0.000177104
0.00024083
0.000299671
0.000352128
0.000396138
0.000432704
0.000461298
0.000483781
0.000500894
0.000513568
0.000522671
0.000529067
0.000533325
0.000536091
0.000537646
0.000538503
0.000538688
0.000538595
0.000538351
0.000537946
0.000537506
0.000537081
0.000536693
0.000536367
0.000536097
0.000535898
0.000535749
0.000535664
0.000535609
0.000535606
0.000535617
0.000535643
0.000535683
0.000535724
0.000535765
0.000535793
0.000535814
0.000535811
0.000535796
0.000535762
0.000535703
0.000535618
0.000535512
0.000535377
0.00053522
0.000535035
0.000534827
0.000534591
0.000534332
0.000534047
0.000533739
0.000533409
0.000533055
0.000532684
0.000532291
0.000531887
0.000134079
0.00031167
0.000497945
0.000654444
0.000777673
0.00086943
0.000933531
0.000975033
0.000998595
0.00100885
0.00100766
0.00100256
0.00099157
0.000977003
0.000960729
0.000943632
0.000926341
0.000909297
0.000892797
0.000877034
0.000862121
0.000848115
0.000835034
0.000822865
0.000811573
0.000801114
0.000791432
0.000782472
0.000774173
0.000766477
0.000759327
0.000752672
0.00074646
0.000740649
0.000735195
0.000730064
0.00072522
0.000720637
0.000716287
0.00071215
0.000708202
0.000704431
0.000700818
0.000697354
0.000694024
0.000690824
0.000687741
0.000684776
0.000681917
0.000679166
0.000676518
0.000673971
0.000671526
0.00066918
0.000666941
0.000664799
0.000662769
0.00066084
0.000659024
0.000657315
0.000644763
0.000644955
0.000645598
0.000646959
0.000648402
0.000649984
0.00065147
0.000652959
0.000654359
0.00065573
0.000657035
0.000658309
0.00065954
0.000660747
0.00066193
0.000663101
0.000664264
0.000665425
0.000666587
0.000667752
0.000668921
0.000670098
0.000671282
0.000672477
0.000673684
0.000674905
0.000676141
0.000677394
0.000678661
0.000679942
0.000681235
0.000682541
0.000683858
0.00068519
0.000686534
0.000687894
0.000689269
0.00069066
0.000692064
0.00069348
0.00069491
0.000696345
0.000697802
0.000699256
0.000700747
0.000702226
0.000703761
0.000705267
0.000706848
0.00070839
0.00071
0.000711616
0.000713212
0.000714999
0.000716487
0.000718617
0.000719885
0.000722532
0.000723663
0.000727166
0.00053494
0.000534265
0.000532877
0.000530858
0.000528595
0.000526043
0.000523368
0.000520563
0.000517718
0.000514837
0.000511971
0.000509125
0.000506324
0.000503572
0.000500881
0.000498255
0.000495699
0.000493216
0.00049081
0.000488481
0.00048623
0.000484057
0.000481959
0.000479935
0.000477982
0.000476099
0.000474287
0.000472541
0.000470865
0.000469252
0.000467706
0.00046622
0.000464794
0.000463423
0.000462107
0.000460843
0.000459629
0.000458469
0.000457352
0.000456295
0.000455267
0.000454309
0.000453355
0.000452489
0.000451595
0.000450821
0.000449971
0.000449295
0.000448476
0.0004479
0.000447095
0.000446616
0.000445806
0.000445403
0.00044459
0.000444207
0.000443442
0.000442919
0.000442409
0.000441352
0.000297987
0.00030016
0.000302433
0.000304613
0.000306777
0.000308835
0.000310823
0.000312692
0.000314468
0.000316125
0.000317682
0.000319122
0.00032046
0.000321684
0.000322803
0.000323824
0.000324739
0.00032557
0.000326305
0.000326968
0.000327538
0.000328037
0.000328457
0.000328803
0.000329082
0.000329302
0.000329459
0.000329566
0.000329623
0.000329613
0.000329573
0.000329485
0.000329353
0.000329168
0.00032896
0.000328701
0.000328431
0.000328102
0.000327772
0.000327374
0.000326988
0.000326526
0.000326096
0.000325574
0.000325109
0.00032453
0.000324039
0.000323406
0.000322901
0.000322214
0.000321703
0.000320955
0.000320442
0.000319621
0.000319109
0.000318201
0.000317684
0.000316675
0.000316119
0.000314665
0.000122289
0.000123569
0.000124954
0.000126341
0.000127799
0.000129275
0.000130817
0.000132387
0.00013397
0.000135542
0.000137109
0.000138647
0.000140189
0.00014174
0.000143307
0.000144853
0.000146394
0.000147873
0.000149332
0.000150741
0.000152151
0.000153515
0.000154904
0.000156245
0.000157607
0.000158871
0.000160149
0.000161336
0.000162558
0.000163676
0.000164837
0.000165899
0.000167057
0.000168075
0.000169185
0.000170139
0.000171212
0.000172091
0.000173103
0.000173913
0.000174863
0.000175605
0.000176524
0.000177205
0.000178028
0.000178579
0.000179317
0.000179791
0.00018045
0.000180832
0.000181415
0.000181726
0.000182212
0.00018247
0.000182864
0.000183044
0.00018339
0.000183593
0.000183847
0.000184115
3.89195e-05
3.96116e-05
4.03147e-05
4.09728e-05
4.16071e-05
4.22981e-05
4.30263e-05
4.38578e-05
4.47047e-05
4.55321e-05
4.63435e-05
4.70841e-05
4.77725e-05
4.85302e-05
4.93263e-05
5.01759e-05
5.11001e-05
5.19725e-05
5.28002e-05
5.35582e-05
5.4277e-05
5.49684e-05
5.57284e-05
5.65114e-05
5.737e-05
5.82148e-05
5.90491e-05
5.98296e-05
6.05524e-05
6.1241e-05
6.19116e-05
6.25687e-05
6.33196e-05
6.40647e-05
6.48127e-05
6.55543e-05
6.63351e-05
6.70417e-05
6.77164e-05
6.84116e-05
6.91268e-05
6.97806e-05
7.04259e-05
7.10182e-05
7.15008e-05
7.18833e-05
7.22467e-05
7.2502e-05
7.26473e-05
7.26769e-05
7.27008e-05
7.27622e-05
7.27926e-05
7.27707e-05
7.27893e-05
7.28614e-05
7.29309e-05
7.28903e-05
7.28876e-05
7.28287e-05
8.25628e-06
8.51876e-06
8.78813e-06
9.02499e-06
9.23558e-06
9.46754e-06
9.71797e-06
1.00343e-05
1.03673e-05
1.07047e-05
1.10359e-05
1.13144e-05
1.1561e-05
1.18216e-05
1.21064e-05
1.24436e-05
1.28345e-05
1.32248e-05
1.35799e-05
1.38909e-05
1.41612e-05
1.44011e-05
1.46774e-05
1.49953e-05
1.53676e-05
1.57599e-05
1.61532e-05
1.64994e-05
1.68018e-05
1.70666e-05
1.73298e-05
1.76149e-05
1.79352e-05
1.82797e-05
1.8629e-05
1.8953e-05
1.92934e-05
1.963e-05
1.99891e-05
2.03834e-05
2.07557e-05
2.10852e-05
2.13392e-05
2.14712e-05
2.15132e-05
2.15122e-05
2.15206e-05
2.15246e-05
2.15242e-05
2.15235e-05
2.15191e-05
2.15093e-05
2.14857e-05
2.14091e-05
2.13385e-05
2.11633e-05
2.10605e-05
2.08362e-05
2.07239e-05
2.04141e-05
7.00905e-06
7.1013e-06
7.18508e-06
7.24433e-06
7.27709e-06
7.29838e-06
7.33395e-06
7.4085e-06
7.50807e-06
7.61186e-06
7.70244e-06
7.76767e-06
7.80553e-06
7.82728e-06
7.85553e-06
7.91708e-06
8.0159e-06
8.12921e-06
8.23956e-06
8.33228e-06
8.39769e-06
8.43495e-06
8.45746e-06
8.48926e-06
8.556e-06
8.66164e-06
8.79165e-06
8.91617e-06
9.01219e-06
9.07364e-06
9.11417e-06
9.1554e-06
9.21627e-06
9.30096e-06
9.40927e-06
9.5298e-06
9.65374e-06
9.76967e-06
9.86673e-06
9.93628e-06
9.97452e-06
9.98599e-06
9.98632e-06
9.98623e-06
9.98605e-06
9.98362e-06
9.97544e-06
9.94813e-06
9.87152e-06
9.66434e-06
9.41698e-06
9.08831e-06
8.78522e-06
8.39959e-06
8.08954e-06
7.68331e-06
7.4207e-06
7.02276e-06
6.84155e-06
6.4165e-06
3.61484e-05
3.64346e-05
3.66736e-05
3.68401e-05
3.69373e-05
3.70264e-05
3.7158e-05
3.73597e-05
3.7576e-05
3.77601e-05
3.78836e-05
3.79516e-05
3.79884e-05
3.80282e-05
3.81104e-05
3.82934e-05
3.8513e-05
3.87204e-05
3.88942e-05
3.90275e-05
3.91182e-05
3.91733e-05
3.92225e-05
3.93203e-05
3.95001e-05
3.97227e-05
3.99699e-05
4.02104e-05
4.04077e-05
4.05391e-05
4.06354e-05
4.07348e-05
4.0882e-05
4.10807e-05
4.13249e-05
4.15853e-05
4.1847e-05
4.20946e-05
4.23184e-05
4.25194e-05
4.26931e-05
4.28444e-05
4.29624e-05
4.30501e-05
4.31002e-05
4.31193e-05
4.3128e-05
4.3129e-05
4.31187e-05
4.30594e-05
4.28616e-05
4.23922e-05
4.19719e-05
4.14097e-05
4.09617e-05
4.03582e-05
4.00386e-05
3.94937e-05
3.92842e-05
3.8811e-05
0.00011754
0.000118113
0.000118659
0.000119183
0.000119688
0.000120197
0.00012072
0.000121259
0.000121802
0.00012233
0.00012284
0.000123334
0.000123838
0.00012437
0.000124946
0.000125551
0.000126162
0.000126772
0.000127361
0.000127964
0.000128568
0.000129206
0.000129875
0.000130582
0.000131304
0.000132049
0.000132803
0.000133527
0.000134283
0.000134992
0.000135779
0.000136512
0.000137349
0.000138152
0.00013905
0.000139887
0.000140781
0.000141681
0.00014251
0.000143442
0.000144189
0.000145141
0.000145879
0.000146839
0.00014755
0.000148479
0.000149166
0.00015008
0.000150718
0.000151637
0.000152216
0.000153066
0.000153629
0.000154514
0.000155027
0.000155925
0.000156477
0.000157442
0.000157963
0.000159224
0.000291974
0.000293275
0.000294552
0.000295815
0.000297056
0.000298282
0.000299491
0.000300689
0.000301875
0.000303053
0.000304223
0.000305388
0.000306545
0.000307697
0.000308843
0.000309987
0.000311126
0.000312264
0.000313397
0.000314528
0.000315655
0.000316779
0.000317897
0.000319012
0.000320121
0.000321229
0.000322329
0.000323424
0.000324514
0.000325599
0.000326677
0.000327744
0.000328808
0.000329862
0.000330906
0.00033195
0.000332967
0.000334003
0.000334989
0.000336014
0.000336965
0.000337984
0.000338908
0.000339913
0.00034081
0.000341808
0.000342678
0.000343679
0.000344518
0.000345533
0.000346347
0.00034738
0.000348164
0.000349226
0.000349966
0.000351071
0.000351748
0.00035289
0.000353474
0.00035484
0.000531467
0.000531043
0.000530612
0.000530184
0.000529758
0.000529343
0.000528938
0.000528549
0.000528178
0.000527826
0.000527496
0.000527188
0.000526903
0.00052664
0.000526401
0.000526184
0.00052599
0.000525816
0.000525662
0.000525527
0.000525409
0.000525308
0.000525221
0.000525148
0.000525088
0.000525039
0.000525
0.000524969
0.000524947
0.000524931
0.00052492
0.000524915
0.000524914
0.000524916
0.00052492
0.000524926
0.000524934
0.000524943
0.000524953
0.000524964
0.000524974
0.000524986
0.000524996
0.000525009
0.00052502
0.000525032
0.000525044
0.000525057
0.00052507
0.000525081
0.000525097
0.000525105
0.000525121
0.000525126
0.000525137
0.000525133
0.000525131
0.000525107
0.000525087
0.000524985
0.000655719
0.000654232
0.000652852
0.000651576
0.000650396
0.000649308
0.000648303
0.000647374
0.000646512
0.00064571
0.00064496
0.000644255
0.000643588
0.000642954
0.000642347
0.000641762
0.000641196
0.000640646
0.000640107
0.000639578
0.000639057
0.000638542
0.000638031
0.000637525
0.000637021
0.00063652
0.00063602
0.000635523
0.000635027
0.000634533
0.00063404
0.000633549
0.00063306
0.000632574
0.000632088
0.000631606
0.000631125
0.000630648
0.00063017
0.000629699
0.000629223
0.000628757
0.00062828
0.000627818
0.000627336
0.000626875
0.000626384
0.000625921
0.000625416
0.000624944
0.000624426
0.000623928
0.000623407
0.000622857
0.000622357
0.000621715
0.000621273
0.000620517
0.000620133
0.000619237
)
;

boundaryField
{
    upperWall
    {
        type            zeroGradient;
    }
    lowerWall
    {
        type            zeroGradient;
    }
    heatedWall
    {
        type            zeroGradient;
    }
    inlet
    {
        type            zeroGradient;
    }
    outlet
    {
        type            zeroGradient;
    }
    frontAndBack
    {
        type            empty;
    }
}


// ************************************************************************* //
