/*--------------------------------*- C++ -*----------------------------------*\
  =========                 |
  \\      /  F ield         | OpenFOAM: The Open Source CFD Toolbox
   \\    /   O peration     | Website:  https://openfoam.org
    \\  /    A nd           | Version:  7
     \\/     M anipulation  |
\*---------------------------------------------------------------------------*/
FoamFile
{
    version     2.0;
    format      ascii;
    class       volVectorField;
    location    "2.985";
    object      UMean;
}
// * * * * * * * * * * * * * * * * * * * * * * * * * * * * * * * * * * * * * //

dimensions      [0 1 -1 0 0 0 0];

internalField   nonuniform List<vector> 
7920
(
(2.93678 0.100667 -32.3848)
(2.12558 -0.460346 -32.4388)
(1.42276 -0.613237 -32.4403)
(1.32173 -0.668767 -32.4499)
(1.09214 -0.685358 -32.4463)
(1.12236 -0.690257 -32.4521)
(0.98462 -0.694324 -32.4487)
(1.03279 -0.694525 -32.4529)
(0.929852 -0.696731 -32.4502)
(0.976908 -0.696439 -32.4535)
(0.895057 -0.697958 -32.4514)
(0.937447 -0.697406 -32.4539)
(0.870809 -0.698373 -32.4523)
(0.908011 -0.697795 -32.4542)
(0.85296 -0.698175 -32.4533)
(0.885241 -0.698262 -32.4544)
(0.838031 -0.694461 -32.4545)
(0.861788 -0.700863 -32.4539)
(0.825526 -0.643472 -32.4573)
(0.660342 -0.654252 -32.4469)
(4.41089 0.961224 -32.4315)
(4.33961 0.864638 -32.4767)
(3.69771 0.810484 -32.4804)
(3.56196 0.744161 -32.4933)
(3.17319 0.717153 -32.4927)
(3.17699 0.704235 -32.4996)
(2.92302 0.698018 -32.498)
(2.97161 0.694779 -32.5024)
(2.78277 0.692823 -32.5013)
(2.84006 0.691262 -32.5043)
(2.6908 0.690223 -32.5034)
(2.74653 0.689121 -32.5055)
(2.62527 0.688476 -32.5052)
(2.6765 0.687634 -32.5064)
(2.57606 0.686981 -32.507)
(2.62406 0.687267 -32.5067)
(2.53354 0.683963 -32.5099)
(2.59934 0.689273 -32.5045)
(2.47598 0.679774 -32.5177)
(2.75859 0.673531 -32.4791)
(4.74945 0.190182 -32.436)
(5.25232 -0.232139 -32.4713)
(5.10587 -0.378193 -32.4635)
(5.2197 -0.496202 -32.4754)
(4.97776 -0.560261 -32.4706)
(5.03243 -0.596253 -32.4796)
(4.82243 -0.619945 -32.4757)
(4.8703 -0.633267 -32.4826)
(4.69861 -0.643386 -32.4796)
(4.74406 -0.649717 -32.4851)
(4.60374 -0.654884 -32.483)
(4.64604 -0.658631 -32.4871)
(4.53046 -0.661598 -32.4862)
(4.56875 -0.664039 -32.4889)
(4.47364 -0.666119 -32.4895)
(4.50479 -0.666626 -32.4899)
(4.43273 -0.670255 -32.4939)
(4.43802 -0.664692 -32.4891)
(4.41151 -0.667074 -32.5007)
(4.32522 -0.68233 -32.469)
(4.75036 0.645185 -32.4459)
(5.27699 0.742838 -32.4784)
(5.36999 0.788741 -32.4686)
(5.67065 0.758712 -32.477)
(5.60636 0.740862 -32.4716)
(5.77605 0.726593 -32.4784)
(5.67904 0.716432 -32.4748)
(5.79118 0.708593 -32.4803)
(5.69475 0.702723 -32.4779)
(5.77654 0.697342 -32.4821)
(5.68894 0.693558 -32.4809)
(5.75232 0.689602 -32.4839)
(5.67472 0.687236 -32.4838)
(5.72667 0.684043 -32.4857)
(5.65685 0.683137 -32.4869)
(5.70482 0.679705 -32.4873)
(5.63512 0.68209 -32.4902)
(5.69696 0.676177 -32.4884)
(5.60999 0.689849 -32.4938)
(5.75072 0.703198 -32.4683)
(4.74238 -0.088631 -32.445)
(5.24124 -0.386957 -32.4771)
(5.3905 -0.479739 -32.4642)
(5.74491 -0.54567 -32.4725)
(5.7471 -0.581364 -32.4645)
(5.97382 -0.601282 -32.4714)
(5.93938 -0.615316 -32.4658)
(6.10035 -0.623184 -32.4714)
(6.05845 -0.62993 -32.4675)
(6.17985 -0.634226 -32.472)
(6.13804 -0.63831 -32.4694)
(6.23245 -0.64124 -32.473)
(6.193 -0.644268 -32.4715)
(6.26782 -0.646 -32.4743)
(6.23211 -0.649537 -32.4738)
(6.29048 -0.647782 -32.4759)
(6.26361 -0.657147 -32.4763)
(6.29826 -0.644858 -32.4778)
(6.29603 -0.669583 -32.4789)
(6.28739 -0.687121 -32.4577)
(4.7298 0.350319 -32.4486)
(5.18509 0.553816 -32.4812)
(5.34461 0.631523 -32.4682)
(5.71432 0.651451 -32.4765)
(5.73975 0.661516 -32.468)
(5.9893 0.664712 -32.4748)
(5.98027 0.666741 -32.4687)
(6.16429 0.666793 -32.4741)
(6.14779 0.667074 -32.4697)
(6.29079 0.666352 -32.4741)
(6.27282 0.666224 -32.471)
(6.38652 0.665389 -32.4746)
(6.36831 0.665438 -32.4726)
(6.46005 0.664256 -32.4756)
(6.44193 0.665556 -32.4744)
(6.51684 0.662097 -32.4769)
(6.50038 0.66919 -32.4764)
(6.56112 0.658312 -32.4786)
(6.55386 0.682059 -32.4787)
(6.60828 0.703437 -32.4573)
(4.7298 -0.350319 -32.4486)
(5.18509 -0.553816 -32.4813)
(5.34461 -0.631523 -32.4682)
(5.71432 -0.651451 -32.4765)
(5.73975 -0.661516 -32.468)
(5.9893 -0.664711 -32.4748)
(5.98027 -0.66674 -32.4687)
(6.16429 -0.66679 -32.4741)
(6.1478 -0.667071 -32.4697)
(6.29079 -0.666345 -32.4741)
(6.27282 -0.666211 -32.471)
(6.38652 -0.665369 -32.4746)
(6.36833 -0.665399 -32.4725)
(6.46003 -0.664183 -32.4756)
(6.44201 -0.665477 -32.4743)
(6.51678 -0.661813 -32.4769)
(6.50058 -0.669067 -32.4764)
(6.56096 -0.657435 -32.4787)
(6.55413 -0.681586 -32.4787)
(6.60794 -0.701751 -32.4573)
(4.74238 0.088631 -32.445)
(5.24124 0.386957 -32.4771)
(5.3905 0.479739 -32.4642)
(5.74491 0.54567 -32.4725)
(5.7471 0.581364 -32.4645)
(5.97382 0.601283 -32.4714)
(5.93938 0.615317 -32.4658)
(6.10035 0.623187 -32.4714)
(6.05844 0.629935 -32.4674)
(6.17986 0.634232 -32.4721)
(6.13803 0.638325 -32.4693)
(6.23248 0.641254 -32.4731)
(6.19298 0.644312 -32.4713)
(6.26791 0.646057 -32.4745)
(6.23208 0.649626 -32.4735)
(6.29073 0.648031 -32.4762)
(6.26366 0.657289 -32.4759)
(6.29888 0.645707 -32.4782)
(6.2966 0.670046 -32.4784)
(6.28911 0.688953 -32.4581)
(4.75036 -0.645185 -32.4459)
(5.27699 -0.742838 -32.4784)
(5.36999 -0.788741 -32.4686)
(5.67065 -0.758712 -32.477)
(5.60636 -0.740862 -32.4716)
(5.77605 -0.726591 -32.4784)
(5.67904 -0.716432 -32.4748)
(5.79118 -0.70859 -32.4803)
(5.69475 -0.702721 -32.4778)
(5.77655 -0.697335 -32.4822)
(5.68895 -0.693549 -32.4807)
(5.75236 -0.689582 -32.4841)
(5.67475 -0.687211 -32.4835)
(5.72677 -0.683972 -32.4861)
(5.65696 -0.683092 -32.4862)
(5.70504 -0.679442 -32.4883)
(5.63555 -0.682057 -32.4888)
(5.69739 -0.675407 -32.4903)
(5.61121 -0.689632 -32.4912)
(5.75171 -0.701957 -32.4715)
(4.74945 -0.190182 -32.436)
(5.25232 0.232139 -32.4713)
(5.10587 0.378193 -32.4635)
(5.2197 0.496202 -32.4754)
(4.97776 0.560261 -32.4705)
(5.03243 0.596253 -32.4796)
(4.82243 0.619946 -32.4756)
(4.87031 0.633267 -32.4827)
(4.69861 0.64339 -32.4796)
(4.74409 0.649718 -32.4852)
(4.60374 0.654897 -32.4829)
(4.64611 0.658632 -32.4874)
(4.53046 0.661634 -32.4858)
(4.56896 0.664053 -32.4895)
(4.47367 0.666196 -32.4885)
(4.50535 0.666733 -32.4915)
(4.43303 0.670381 -32.4911)
(4.43942 0.665188 -32.4936)
(4.41287 0.667412 -32.4935)
(4.32943 0.683551 -32.4802)
(4.41089 -0.961224 -32.4315)
(4.33961 -0.864638 -32.4767)
(3.69771 -0.810484 -32.4804)
(3.56196 -0.744161 -32.4934)
(3.1732 -0.717153 -32.4927)
(3.177 -0.704234 -32.4996)
(2.92302 -0.698018 -32.498)
(2.97162 -0.694777 -32.5024)
(2.78278 -0.692823 -32.5012)
(2.84008 -0.691258 -32.5043)
(2.69081 -0.690222 -32.5033)
(2.74658 -0.689109 -32.5057)
(2.62531 -0.688471 -32.505)
(2.67666 -0.687592 -32.5068)
(2.57621 -0.686983 -32.5064)
(2.62441 -0.687112 -32.5079)
(2.53419 -0.684045 -32.5077)
(2.59988 -0.688851 -32.5089)
(2.47819 -0.680058 -32.5085)
(2.75906 -0.673681 -32.4993)
(2.93678 -0.100667 -32.3848)
(2.12558 0.460346 -32.4388)
(1.42276 0.613237 -32.4403)
(1.32173 0.668767 -32.4499)
(1.09214 0.685358 -32.4463)
(1.12236 0.690256 -32.4521)
(0.984621 0.694324 -32.4487)
(1.03279 0.694524 -32.4529)
(0.929855 0.696733 -32.4502)
(0.976916 0.696436 -32.4535)
(0.895063 0.697962 -32.4514)
(0.937475 0.697397 -32.4539)
(0.870824 0.698384 -32.4523)
(0.908096 0.697766 -32.4543)
(0.853018 0.698208 -32.4531)
(0.885448 0.698178 -32.4547)
(0.838325 0.694593 -32.4539)
(0.862204 0.700716 -32.4551)
(0.826729 0.64411 -32.4544)
(0.66233 0.655038 -32.4545)
(4.32701 0.561578 0.00698734)
(3.09966 0.841442 0.00453196)
(2.35028 0.863116 0.00579579)
(1.80126 0.84688 0.00432694)
(1.66932 0.849687 0.00546049)
(1.47624 0.861291 0.00429683)
(1.47179 0.871015 0.00524033)
(1.35803 0.878865 0.00426377)
(1.36625 0.882965 0.00503487)
(1.28667 0.886486 0.00421174)
(1.29526 0.88811 0.00484317)
(1.23772 0.89004 0.0041527)
(1.24437 0.89072 0.00467037)
(1.201 0.892101 0.0040929)
(1.20618 0.891873 0.00451609)
(1.17052 0.894294 0.00403325)
(1.17646 0.886655 0.00437932)
(1.15942 0.908823 0.00397141)
(1.10865 0.787036 0.00428472)
(1.55517 0.812932 0.00385512)
(4.75405 -0.101994 0.00441689)
(4.61208 -0.280004 0.00239525)
(4.52826 -0.479969 0.00368952)
(4.15969 -0.644113 0.00225422)
(4.02378 -0.738807 0.00339613)
(3.75974 -0.792756 0.00223799)
(3.6917 -0.819349 0.00318547)
(3.51707 -0.835793 0.00221148)
(3.48191 -0.845526 0.00298535)
(3.36002 -0.852903 0.00216388)
(3.33837 -0.857867 0.00279723)
(3.24953 -0.862044 0.00210764)
(3.23375 -0.864712 0.00262658)
(3.16589 -0.867745 0.0020496)
(3.15437 -0.868325 0.00247329)
(3.09633 -0.87247 0.00199134)
(3.09746 -0.869658 0.00233297)
(3.02115 -0.875683 0.00193289)
(3.09231 -0.880694 0.00217974)
(2.71159 -0.88353 0.00180454)
(4.63424 0.432222 0.00571117)
(4.82259 0.863428 0.0037651)
(5.12933 0.958847 0.00494191)
(5.07184 0.949151 0.00346673)
(5.13067 0.930914 0.00458301)
(5.00093 0.91791 0.00341242)
(5.00686 0.908704 0.00435403)
(4.8947 0.903068 0.00337663)
(4.8902 0.896872 0.00414865)
(4.80097 0.893482 0.0033254)
(4.79215 0.889166 0.00395746)
(4.72169 0.887217 0.00326658)
(4.71044 0.884419 0.00378445)
(4.65505 0.883108 0.0032064)
(4.64065 0.881616 0.00362972)
(4.60127 0.879889 0.00314617)
(4.57341 0.878211 0.00349304)
(4.57415 0.879821 0.00308364)
(4.49434 0.839103 0.00339788)
(4.61815 0.882798 0.002993)
(4.57318 -0.201801 0.00453557)
(4.69847 -0.398434 0.00280862)
(5.11796 -0.519911 0.00398994)
(5.21506 -0.624308 0.00254376)
(5.42283 -0.691655 0.00366178)
(5.42244 -0.738239 0.00249556)
(5.52725 -0.764476 0.00344011)
(5.50154 -0.783436 0.00246589)
(5.56088 -0.795696 0.00324059)
(5.53068 -0.805882 0.00242019)
(5.56516 -0.813365 0.0030541)
(5.53627 -0.819847 0.0023653)
(5.55609 -0.824914 0.00288425)
(5.52987 -0.829276 0.0023078)
(5.54129 -0.833178 0.00273119)
(5.51565 -0.835302 0.00224967)
(5.52656 -0.842949 0.00259039)
(5.48395 -0.835588 0.00218941)
(5.52424 -0.872281 0.00243434)
(5.32599 -0.887533 0.00208708)
(4.58603 0.33957 0.00518694)
(4.69489 0.683486 0.00349922)
(5.09477 0.796614 0.00463333)
(5.2121 0.837283 0.00317325)
(5.45841 0.853745 0.00427854)
(5.50456 0.863125 0.0031057)
(5.65712 0.866612 0.00404693)
(5.68024 0.868968 0.0030705)
(5.78438 0.868175 0.00384414)
(5.79808 0.868267 0.00302262)
(5.87095 0.866635 0.00365584)
(5.87916 0.86627 0.00296627)
(5.93051 0.864916 0.00348465)
(5.93571 0.864172 0.00290758)
(5.97087 0.864021 0.00333078)
(5.97665 0.861246 0.00284834)
(5.99461 0.865195 0.00319299)
(6.00777 0.8576 0.00278621)
(6.00825 0.860489 0.00308154)
(5.9986 0.90778 0.00270967)
(4.58 -0.268169 0.00481696)
(4.66706 -0.536944 0.00319345)
(5.06213 -0.650915 0.00432672)
(5.18106 -0.721227 0.00287371)
(5.43866 -0.761325 0.00397732)
(5.49943 -0.788626 0.00280454)
(5.66912 -0.803036 0.00374577)
(5.71041 -0.813585 0.00276965)
(5.83317 -0.819227 0.00354375)
(5.8659 -0.824446 0.00272278)
(5.9573 -0.827522 0.00335642)
(5.98367 -0.830767 0.00266734)
(6.05258 -0.832993 0.00318597)
(6.07352 -0.834852 0.00260937)
(6.12605 -0.837606 0.00303248)
(6.14155 -0.836366 0.00255079)
(6.1831 -0.845259 0.0028927)
(6.18375 -0.833965 0.0024893)
(6.23342 -0.864613 0.00275629)
(6.136 -0.896988 0.00240717)
(4.58 0.268169 0.00481696)
(4.66706 0.536944 0.00319345)
(5.06213 0.650914 0.00432672)
(5.18106 0.721227 0.00287371)
(5.43866 0.761325 0.00397732)
(5.49943 0.788627 0.00280454)
(5.66912 0.803037 0.00374577)
(5.71041 0.813588 0.00276965)
(5.83316 0.819231 0.00354375)
(5.8659 0.824455 0.00272278)
(5.95729 0.827536 0.00335642)
(5.98369 0.830794 0.00266732)
(6.05255 0.833032 0.00318599)
(6.07357 0.834937 0.00260931)
(6.12598 0.83771 0.00303253)
(6.14173 0.836626 0.00255063)
(6.18298 0.845558 0.00289294)
(6.18433 0.83471 0.00248893)
(6.23364 0.865497 0.0027574)
(6.13707 0.898958 0.00240685)
(4.58603 -0.33957 0.00518694)
(4.69489 -0.683486 0.00349922)
(5.09477 -0.796615 0.00463333)
(5.2121 -0.837283 0.00317325)
(5.45841 -0.853745 0.00427854)
(5.50456 -0.863123 0.0031057)
(5.65712 -0.866611 0.00404693)
(5.68024 -0.868964 0.0030705)
(5.78438 -0.868172 0.00384414)
(5.79808 -0.868257 0.00302263)
(5.87095 -0.866625 0.00365583)
(5.87917 -0.86624 0.00296629)
(5.93054 -0.864887 0.00348461)
(5.93573 -0.864077 0.00290765)
(5.97099 -0.863949 0.00333068)
(5.97664 -0.860969 0.00284851)
(5.99498 -0.864994 0.00319266)
(6.00763 -0.856943 0.00278652)
(6.00894 -0.859839 0.00308041)
(5.99865 -0.906059 0.0027096)
(4.57318 0.2018 0.00453557)
(4.69847 0.398434 0.00280862)
(5.11796 0.519911 0.00398994)
(5.21506 0.624308 0.00254377)
(5.42283 0.691655 0.00366178)
(5.42244 0.738239 0.00249556)
(5.52725 0.764478 0.00344011)
(5.50155 0.783438 0.00246589)
(5.56087 0.7957 0.00324059)
(5.5307 0.805887 0.00242019)
(5.56515 0.81338 0.0030541)
(5.53633 0.819862 0.0023653)
(5.55607 0.824955 0.00288424)
(5.53002 0.829328 0.00230779)
(5.54129 0.83329 0.00273119)
(5.51608 0.835477 0.00224962)
(5.5267 0.843275 0.00259048)
(5.48517 0.836206 0.00218924)
(5.52516 0.873223 0.00243527)
(5.32926 0.889319 0.0020868)
(4.63424 -0.432222 0.00571117)
(4.82259 -0.863428 0.0037651)
(5.12933 -0.958847 0.00494191)
(5.07184 -0.949151 0.00346673)
(5.13067 -0.930914 0.00458301)
(5.00094 -0.917909 0.00341242)
(5.00685 -0.908704 0.00435402)
(4.89471 -0.903065 0.00337663)
(4.8902 -0.89687 0.00414864)
(4.80099 -0.893473 0.00332541)
(4.79216 -0.889161 0.00395743)
(4.72175 -0.887191 0.00326662)
(4.71047 -0.884407 0.00378438)
(4.65519 -0.883028 0.00320651)
(4.6408 -0.881596 0.00362952)
(4.60163 -0.879659 0.00314646)
(4.57394 -0.878182 0.00349246)
(4.57498 -0.879363 0.00308425)
(4.49572 -0.83899 0.00339631)
(4.62041 -0.882149 0.00299336)
(4.75405 0.101994 0.00441689)
(4.61208 0.280004 0.00239525)
(4.52826 0.479969 0.00368952)
(4.15969 0.644113 0.00225422)
(4.02378 0.738807 0.00339613)
(3.75975 0.792756 0.00223799)
(3.6917 0.81935 0.00318547)
(3.51708 0.835793 0.00221149)
(3.48191 0.845529 0.00298535)
(3.36004 0.852902 0.00216388)
(3.33837 0.857878 0.00279723)
(3.24961 0.86204 0.00210765)
(3.23378 0.864743 0.00262657)
(3.16611 0.867733 0.00204962)
(3.15447 0.868414 0.00247323)
(3.09696 0.872449 0.00199141)
(3.09777 0.869927 0.00233283)
(3.02313 0.875809 0.00193307)
(3.09292 0.881507 0.00217981)
(2.71922 0.884996 0.00180517)
(4.32701 -0.561578 0.00698734)
(3.09966 -0.841442 0.00453196)
(2.35028 -0.863116 0.00579579)
(1.80126 -0.84688 0.00432695)
(1.66933 -0.849687 0.00546049)
(1.47624 -0.86129 0.00429684)
(1.47179 -0.871015 0.00524033)
(1.35803 -0.878864 0.00426378)
(1.36625 -0.882966 0.00503487)
(1.28668 -0.886482 0.00421174)
(1.29528 -0.888113 0.00484316)
(1.23776 -0.890027 0.00415273)
(1.24441 -0.890732 0.00467034)
(1.2011 -0.892056 0.00409297)
(1.20633 -0.89192 0.00451597)
(1.17078 -0.894163 0.00403347)
(1.17694 -0.886853 0.00437891)
(1.15999 -0.908596 0.00397204)
(1.11015 -0.788062 0.00428304)
(1.55569 -0.814261 0.00385817)
(4.37805 0.0954351 0.00140462)
(3.97931 0.145269 0.00194569)
(3.4582 0.157993 0.000997786)
(3.00424 0.151334 0.00153602)
(2.6117 0.139842 0.00101478)
(2.3313 0.131655 0.0014251)
(2.12326 0.127114 0.00108152)
(1.98819 0.127124 0.00133898)
(1.89563 0.129697 0.00110737)
(1.83364 0.134213 0.00125799)
(1.79326 0.139116 0.00111473)
(1.76025 0.144278 0.00119459)
(1.74049 0.148629 0.00111997)
(1.71911 0.153134 0.00115131)
(1.70658 0.155641 0.00112979)
(1.69428 0.160526 0.00112491)
(1.67686 0.158759 0.00114892)
(1.68872 0.168657 0.00110981)
(1.634 0.154052 0.00116001)
(1.72587 0.162071 0.00117573)
(4.53919 0.0863154 0.00319184)
(4.67636 0.115855 0.00391041)
(4.71419 0.115394 0.00295669)
(4.70678 0.0880529 0.00347076)
(4.63098 0.0496569 0.0029257)
(4.54469 0.00784326 0.00332248)
(4.44312 -0.0290917 0.00297054)
(4.34995 -0.0603893 0.00322456)
(4.26207 -0.0839958 0.00299057)
(4.18288 -0.102554 0.00314063)
(4.11422 -0.115948 0.00299656)
(4.05034 -0.126602 0.00307646)
(3.99792 -0.134411 0.00300159)
(3.94716 -0.140823 0.00303282)
(3.9072 -0.14594 0.00301178)
(3.8681 -0.149412 0.00300583)
(3.83563 -0.154444 0.00303362)
(3.81099 -0.15372 0.00298862)
(3.77441 -0.162038 0.00308198)
(3.7735 -0.160974 0.00308823)
(4.51493 0.0450731 0.00176115)
(4.65519 0.107879 0.00236489)
(4.78007 0.157977 0.00144297)
(4.92571 0.184397 0.00196085)
(5.02477 0.193257 0.00142214)
(5.10652 0.193344 0.0018256)
(5.15086 0.189733 0.00148183)
(5.17979 0.18662 0.00174079)
(5.19043 0.184695 0.00151197)
(5.19278 0.18425 0.00166385)
(5.1888 0.184544 0.00152235)
(5.18056 0.185387 0.00160256)
(5.17075 0.185901 0.00152885)
(5.15986 0.187051 0.00156017)
(5.14681 0.186195 0.00153893)
(5.13849 0.189117 0.0015347)
(5.12089 0.183183 0.00155577)
(5.12064 0.194441 0.00152592)
(5.09464 0.173054 0.00155058)
(5.10534 0.200761 0.00158398)
(4.51094 0.043353 0.00277674)
(4.62139 0.0491416 0.00348935)
(4.73892 0.0439755 0.00259181)
(4.89561 0.0257908 0.00311486)
(5.02556 0.0032053 0.00256225)
(5.15286 -0.0218948 0.00295435)
(5.2497 -0.0453812 0.00260003)
(5.33432 -0.0663562 0.00285409)
(5.39983 -0.0833867 0.00262099)
(5.4556 -0.0973198 0.00277134)
(5.5023 -0.108279 0.00262784)
(5.54191 -0.117009 0.00270749)
(5.57776 -0.124368 0.00263266)
(5.60795 -0.129721 0.00266365)
(5.63696 -0.135686 0.00264209)
(5.66035 -0.137832 0.00263731)
(5.68638 -0.145138 0.00266196)
(5.70026 -0.142059 0.0026284)
(5.7325 -0.153473 0.00271288)
(5.72114 -0.147279 0.00271901)
(4.51203 0.0163977 0.00207822)
(4.62247 0.0545897 0.00274538)
(4.73321 0.0891728 0.00185746)
(4.88418 0.113717 0.00237173)
(5.01214 0.12912 0.00181712)
(5.14314 0.139533 0.00220945)
(5.24816 0.146767 0.00185789)
(5.34495 0.153054 0.00211414)
(5.42518 0.158516 0.0018837)
(5.49777 0.163682 0.00203525)
(5.56279 0.168114 0.00189339)
(5.6216 0.172142 0.00197351)
(5.67793 0.17513 0.00189964)
(5.72806 0.178208 0.00193088)
(5.7792 0.179253 0.00190959)
(5.82112 0.182916 0.00190578)
(5.87241 0.179783 0.00192633)
(5.89843 0.189111 0.00190122)
(5.96696 0.175123 0.00193522)
(5.95239 0.20042 0.00196626)
(4.51078 0.0116337 0.0024103)
(4.61476 -0.00430463 0.00310651)
(4.72417 -0.0235832 0.00222631)
(4.87353 -0.0448094 0.00274642)
(5.00077 -0.063628 0.00219039)
(5.13177 -0.081072 0.00258108)
(5.23794 -0.0961549 0.00222708)
(5.33693 -0.109435 0.00248232)
(5.42056 -0.120444 0.00225081)
(5.49724 -0.129697 0.00240207)
(5.5676 -0.137239 0.0022597)
(5.63175 -0.143338 0.00233969)
(5.69526 -0.148477 0.00226554)
(5.7511 -0.152331 0.00229662)
(5.81168 -0.156039 0.00227533)
(5.85807 -0.158289 0.00227124)
(5.92263 -0.161058 0.00229368)
(5.94873 -0.162918 0.00226698)
(6.03755 -0.162859 0.00232846)
(6.01482 -0.170685 0.00234356)
(4.51078 -0.0116338 0.0024103)
(4.61476 0.00430491 0.00310651)
(4.72417 0.0235829 0.00222631)
(4.87353 0.0448101 0.00274642)
(5.00077 0.0636278 0.00219039)
(5.13177 0.0810737 0.00258108)
(5.23794 0.0961553 0.00222708)
(5.33693 0.109439 0.00248232)
(5.42056 0.120447 0.0022508)
(5.49725 0.129708 0.00240208)
(5.5676 0.13725 0.0022597)
(5.63176 0.143368 0.00233971)
(5.69525 0.148504 0.00226552)
(5.75111 0.152429 0.00229668)
(5.81168 0.156097 0.00227527)
(5.85809 0.158578 0.00227138)
(5.92265 0.161217 0.00229337)
(5.9488 0.163646 0.00226722)
(6.03767 0.163497 0.0023268)
(6.01506 0.172191 0.00234387)
(4.51203 -0.0163978 0.00207822)
(4.62247 -0.0545894 0.00274538)
(4.73321 -0.0891731 0.00185746)
(4.88418 -0.113716 0.00237173)
(5.01214 -0.129121 0.00181712)
(5.14314 -0.139531 0.00220945)
(5.24816 -0.146767 0.00185789)
(5.34495 -0.15305 0.00211414)
(5.42518 -0.158513 0.0018837)
(5.49777 -0.163671 0.00203524)
(5.56279 -0.168104 0.00189339)
(5.6216 -0.17211 0.00197349)
(5.67795 -0.175105 0.00189966)
(5.72806 -0.178111 0.00193083)
(5.77927 -0.179199 0.00190965)
(5.82112 -0.182631 0.00190564)
(5.87259 -0.179638 0.00192658)
(5.89849 -0.188407 0.00190097)
(5.96735 -0.174537 0.00193657)
(5.95271 -0.19902 0.00196591)
(4.51094 -0.0433531 0.00277674)
(4.62139 -0.0491414 0.00348935)
(4.73892 -0.0439757 0.00259181)
(4.89561 -0.0257902 0.00311486)
(5.02556 -0.00320542 0.00256225)
(5.15286 0.0218964 0.00295435)
(5.2497 0.0453818 0.00260002)
(5.33432 0.0663599 0.0028541)
(5.39983 0.08339 0.00262098)
(5.45562 0.097329 0.00277136)
(5.50229 0.10829 0.00262782)
(5.54195 0.117035 0.00270752)
(5.57777 0.124395 0.00263263)
(5.60802 0.129806 0.0026637)
(5.63702 0.135741 0.002642)
(5.6605 0.138093 0.00263742)
(5.68663 0.145275 0.0026616)
(5.70064 0.142736 0.00262861)
(5.73329 0.154024 0.00271128)
(5.72227 0.148713 0.002719)
(4.51493 -0.0450732 0.00176115)
(4.65519 -0.107879 0.00236489)
(4.78007 -0.157977 0.00144297)
(4.92571 -0.184397 0.00196086)
(5.02476 -0.193257 0.00142214)
(5.10652 -0.193342 0.0018256)
(5.15086 -0.189733 0.00148183)
(5.1798 -0.186616 0.00174079)
(5.19043 -0.184693 0.00151197)
(5.19281 -0.18424 0.00166386)
(5.18878 -0.184537 0.00152234)
(5.18062 -0.18536 0.00160257)
(5.17075 -0.185885 0.00152883)
(5.16003 -0.18697 0.00156018)
(5.14687 -0.186165 0.00153892)
(5.13884 -0.188882 0.00153468)
(5.12124 -0.18311 0.0015558)
(5.12144 -0.193874 0.00152588)
(5.09583 -0.172704 0.00155116)
(5.10733 -0.199788 0.00158395)
(4.53919 -0.0863154 0.00319184)
(4.67636 -0.115855 0.00391041)
(4.71418 -0.115394 0.00295669)
(4.70679 -0.0880528 0.00347076)
(4.63098 -0.0496566 0.0029257)
(4.54469 -0.00784279 0.00332248)
(4.44311 0.0290928 0.00297054)
(4.34997 0.0603905 0.00322458)
(4.26206 0.0839994 0.00299055)
(4.18292 0.102556 0.00314067)
(4.11421 0.115958 0.00299651)
(4.05045 0.126612 0.00307654)
(3.99791 0.134433 0.00300147)
(3.94746 0.14086 0.00303302)
(3.90722 0.14598 0.00301145)
(3.86881 0.149541 0.00300633)
(3.83587 0.154524 0.0030327)
(3.81272 0.154082 0.00298985)
(3.77533 0.16235 0.0030792)
(3.77791 0.161758 0.00309078)
(4.37805 -0.0954352 0.00140462)
(3.97931 -0.145269 0.00194569)
(3.4582 -0.157993 0.000997786)
(3.00424 -0.151334 0.00153602)
(2.6117 -0.139842 0.00101478)
(2.3313 -0.131655 0.0014251)
(2.12326 -0.127113 0.00108152)
(1.9882 -0.127123 0.00133898)
(1.89563 -0.129696 0.00110737)
(1.83366 -0.134212 0.00125799)
(1.79328 -0.139115 0.00111473)
(1.76032 -0.144273 0.00119459)
(1.74055 -0.148627 0.00111996)
(1.71929 -0.153118 0.00115132)
(1.70679 -0.155644 0.00112976)
(1.69469 -0.160473 0.00112496)
(1.67751 -0.158787 0.00114873)
(1.68977 -0.16853 0.00111012)
(1.6354 -0.154132 0.00115914)
(1.72997 -0.162159 0.00117724)
(4.37805 0.0954351 -0.00140465)
(3.97931 0.145269 -0.00194572)
(3.4582 0.157994 -0.000997818)
(3.00424 0.151334 -0.00153605)
(2.6117 0.139842 -0.00101481)
(2.3313 0.131655 -0.00142513)
(2.12326 0.127114 -0.00108155)
(1.98819 0.127124 -0.00133901)
(1.89563 0.129697 -0.0011074)
(1.83364 0.134213 -0.00125802)
(1.79326 0.139116 -0.00111476)
(1.76025 0.144278 -0.00119462)
(1.74049 0.148629 -0.00112)
(1.71911 0.153134 -0.00115134)
(1.70658 0.155641 -0.00112982)
(1.69428 0.160526 -0.00112494)
(1.67686 0.158759 -0.00114895)
(1.68872 0.168657 -0.00110984)
(1.634 0.154052 -0.00116005)
(1.72587 0.162071 -0.00117577)
(4.53919 0.0863154 -0.00319187)
(4.67636 0.115855 -0.00391044)
(4.71419 0.115394 -0.00295672)
(4.70678 0.0880529 -0.00347079)
(4.63098 0.0496569 -0.00292574)
(4.54469 0.00784324 -0.00332251)
(4.44312 -0.0290917 -0.00297058)
(4.34995 -0.0603894 -0.00322459)
(4.26207 -0.0839958 -0.0029906)
(4.18288 -0.102554 -0.00314067)
(4.11422 -0.115948 -0.00299659)
(4.05034 -0.126602 -0.00307649)
(3.99792 -0.134411 -0.00300162)
(3.94716 -0.140823 -0.00303285)
(3.9072 -0.14594 -0.00301181)
(3.8681 -0.149412 -0.00300587)
(3.83563 -0.154444 -0.00303366)
(3.81099 -0.15372 -0.00298866)
(3.77441 -0.162038 -0.00308201)
(3.7735 -0.160974 -0.00308826)
(4.51493 0.0450731 -0.00176118)
(4.65519 0.107879 -0.00236492)
(4.78007 0.157977 -0.001443)
(4.92571 0.184397 -0.00196089)
(5.02477 0.193257 -0.00142218)
(5.10652 0.193344 -0.00182563)
(5.15086 0.189733 -0.00148186)
(5.17979 0.18662 -0.00174082)
(5.19043 0.184695 -0.001512)
(5.19278 0.18425 -0.00166388)
(5.1888 0.184544 -0.00152238)
(5.18055 0.185387 -0.0016026)
(5.17075 0.185902 -0.00152888)
(5.15986 0.187051 -0.00156021)
(5.14681 0.186195 -0.00153897)
(5.13849 0.189117 -0.00153474)
(5.12089 0.183183 -0.0015558)
(5.12064 0.194441 -0.00152595)
(5.09464 0.173054 -0.00155061)
(5.10534 0.200761 -0.00158401)
(4.51094 0.043353 -0.00277677)
(4.62139 0.0491416 -0.00348938)
(4.73892 0.0439755 -0.00259184)
(4.89561 0.0257907 -0.00311489)
(5.02556 0.00320528 -0.00256228)
(5.15286 -0.0218948 -0.00295438)
(5.2497 -0.0453812 -0.00260006)
(5.33432 -0.0663562 -0.00285412)
(5.39983 -0.0833867 -0.00262102)
(5.4556 -0.0973198 -0.00277138)
(5.5023 -0.108279 -0.00262787)
(5.54191 -0.117009 -0.00270753)
(5.57776 -0.124368 -0.00263269)
(5.60795 -0.129721 -0.00266368)
(5.63696 -0.135686 -0.00264213)
(5.66035 -0.137832 -0.00263734)
(5.68638 -0.145138 -0.00266199)
(5.70026 -0.142059 -0.00262843)
(5.7325 -0.153473 -0.00271292)
(5.72114 -0.147279 -0.00271904)
(4.51203 0.0163977 -0.00207825)
(4.62247 0.0545897 -0.00274541)
(4.73321 0.0891728 -0.00185749)
(4.88418 0.113717 -0.00237176)
(5.01214 0.12912 -0.00181715)
(5.14314 0.139533 -0.00220948)
(5.24816 0.146767 -0.00185792)
(5.34495 0.153054 -0.00211417)
(5.42518 0.158516 -0.00188373)
(5.49777 0.163682 -0.00203528)
(5.56279 0.168114 -0.00189342)
(5.6216 0.172142 -0.00197354)
(5.67793 0.17513 -0.00189967)
(5.72806 0.178208 -0.00193091)
(5.7792 0.179253 -0.00190962)
(5.82112 0.182916 -0.00190581)
(5.87241 0.179783 -0.00192636)
(5.89843 0.189111 -0.00190125)
(5.96696 0.175123 -0.00193525)
(5.95239 0.20042 -0.00196629)
(4.51078 0.0116337 -0.00241034)
(4.61476 -0.00430464 -0.00310654)
(4.72417 -0.0235832 -0.00222634)
(4.87353 -0.0448094 -0.00274645)
(5.00077 -0.063628 -0.00219042)
(5.13177 -0.081072 -0.00258111)
(5.23794 -0.0961549 -0.00222712)
(5.33693 -0.109435 -0.00248235)
(5.42056 -0.120444 -0.00225084)
(5.49724 -0.129697 -0.0024021)
(5.5676 -0.137239 -0.00225973)
(5.63175 -0.143338 -0.00233973)
(5.69526 -0.148477 -0.00226557)
(5.7511 -0.152331 -0.00229666)
(5.81168 -0.156039 -0.00227537)
(5.85807 -0.158289 -0.00227128)
(5.92263 -0.161058 -0.00229371)
(5.94873 -0.162918 -0.00226702)
(6.03755 -0.162859 -0.00232849)
(6.01482 -0.170685 -0.0023436)
(4.51078 -0.0116338 -0.00241034)
(4.61476 0.00430492 -0.00310654)
(4.72417 0.023583 -0.00222634)
(4.87353 0.0448101 -0.00274645)
(5.00077 0.0636278 -0.00219042)
(5.13177 0.0810738 -0.00258111)
(5.23794 0.0961554 -0.00222711)
(5.33693 0.10944 -0.00248235)
(5.42056 0.120447 -0.00225084)
(5.49725 0.129708 -0.00240211)
(5.5676 0.13725 -0.00225973)
(5.63176 0.143368 -0.00233974)
(5.69525 0.148504 -0.00226555)
(5.75111 0.152429 -0.00229671)
(5.81168 0.156097 -0.0022753)
(5.85809 0.158578 -0.00227141)
(5.92265 0.161217 -0.00229341)
(5.9488 0.163646 -0.00226726)
(6.03767 0.163497 -0.00232684)
(6.01506 0.172191 -0.0023439)
(4.51203 -0.0163978 -0.00207825)
(4.62247 -0.0545894 -0.00274541)
(4.73321 -0.0891731 -0.00185749)
(4.88418 -0.113716 -0.00237176)
(5.01214 -0.129121 -0.00181715)
(5.14314 -0.139531 -0.00220948)
(5.24816 -0.146767 -0.00185792)
(5.34495 -0.15305 -0.00211417)
(5.42518 -0.158513 -0.00188373)
(5.49777 -0.163671 -0.00203528)
(5.56279 -0.168104 -0.00189342)
(5.6216 -0.17211 -0.00197352)
(5.67795 -0.175105 -0.00189969)
(5.72806 -0.178111 -0.00193086)
(5.77927 -0.179199 -0.00190968)
(5.82112 -0.182631 -0.00190568)
(5.87259 -0.179638 -0.00192661)
(5.89849 -0.188407 -0.001901)
(5.96735 -0.174537 -0.00193661)
(5.95271 -0.19902 -0.00196594)
(4.51094 -0.0433531 -0.00277677)
(4.62139 -0.0491414 -0.00348938)
(4.73892 -0.0439757 -0.00259184)
(4.89561 -0.0257901 -0.00311489)
(5.02556 -0.00320541 -0.00256228)
(5.15286 0.0218964 -0.00295438)
(5.2497 0.0453818 -0.00260006)
(5.33432 0.0663599 -0.00285413)
(5.39983 0.08339 -0.00262101)
(5.45562 0.097329 -0.00277139)
(5.50229 0.10829 -0.00262786)
(5.54195 0.117035 -0.00270755)
(5.57777 0.124395 -0.00263266)
(5.60802 0.129806 -0.00266373)
(5.63702 0.135741 -0.00264203)
(5.6605 0.138093 -0.00263746)
(5.68662 0.145275 -0.00266164)
(5.70064 0.142736 -0.00262864)
(5.73329 0.154024 -0.00271131)
(5.72227 0.148713 -0.00271904)
(4.51493 -0.0450732 -0.00176118)
(4.65519 -0.107879 -0.00236492)
(4.78007 -0.157977 -0.001443)
(4.92571 -0.184397 -0.00196089)
(5.02476 -0.193257 -0.00142217)
(5.10652 -0.193342 -0.00182563)
(5.15086 -0.189733 -0.00148186)
(5.1798 -0.186616 -0.00174082)
(5.19042 -0.184693 -0.001512)
(5.19281 -0.18424 -0.00166389)
(5.18878 -0.184537 -0.00152238)
(5.18062 -0.18536 -0.00160261)
(5.17075 -0.185885 -0.00152887)
(5.16003 -0.18697 -0.00156021)
(5.14687 -0.186165 -0.00153895)
(5.13884 -0.188882 -0.00153472)
(5.12124 -0.18311 -0.00155584)
(5.12144 -0.193874 -0.00152591)
(5.09583 -0.172704 -0.0015512)
(5.10733 -0.199788 -0.00158398)
(4.53919 -0.0863154 -0.00319187)
(4.67636 -0.115855 -0.00391044)
(4.71418 -0.115394 -0.00295672)
(4.70679 -0.0880528 -0.00347079)
(4.63098 -0.0496566 -0.00292573)
(4.54469 -0.00784277 -0.00332251)
(4.44311 0.0290929 -0.00297057)
(4.34997 0.0603905 -0.00322461)
(4.26206 0.0839995 -0.00299058)
(4.18292 0.102556 -0.0031407)
(4.11421 0.115958 -0.00299654)
(4.05045 0.126612 -0.00307657)
(3.99791 0.134433 -0.0030015)
(3.94746 0.14086 -0.00303305)
(3.90722 0.14598 -0.00301148)
(3.86881 0.149541 -0.00300636)
(3.83587 0.154524 -0.00303273)
(3.81272 0.154082 -0.00298989)
(3.77532 0.16235 -0.00307923)
(3.77791 0.161758 -0.00309081)
(4.37805 -0.0954352 -0.00140465)
(3.97931 -0.145269 -0.00194572)
(3.4582 -0.157993 -0.000997818)
(3.00424 -0.151334 -0.00153605)
(2.6117 -0.139842 -0.00101481)
(2.3313 -0.131655 -0.00142514)
(2.12326 -0.127113 -0.00108155)
(1.9882 -0.127123 -0.00133901)
(1.89563 -0.129696 -0.0011074)
(1.83366 -0.134212 -0.00125802)
(1.79328 -0.139115 -0.00111476)
(1.76032 -0.144273 -0.00119463)
(1.74055 -0.148627 -0.00112)
(1.71929 -0.153118 -0.00115135)
(1.70679 -0.155644 -0.00112979)
(1.69469 -0.160473 -0.00112499)
(1.67751 -0.158787 -0.00114876)
(1.68977 -0.16853 -0.00111015)
(1.6354 -0.154132 -0.00115917)
(1.72997 -0.162159 -0.00117727)
(4.32701 0.561578 -0.00698736)
(3.09966 0.841442 -0.00453198)
(2.35028 0.863116 -0.00579582)
(1.80126 0.84688 -0.00432697)
(1.66932 0.849687 -0.00546051)
(1.47624 0.861291 -0.00429686)
(1.47179 0.871015 -0.00524035)
(1.35803 0.878865 -0.0042638)
(1.36625 0.882965 -0.0050349)
(1.28667 0.886486 -0.00421176)
(1.29526 0.88811 -0.0048432)
(1.23772 0.89004 -0.00415273)
(1.24437 0.89072 -0.00467039)