/*--------------------------------*- C++ -*----------------------------------*\
  =========                 |
  \\      /  F ield         | OpenFOAM: The Open Source CFD Toolbox
   \\    /   O peration     | Website:  https://openfoam.org
    \\  /    A nd           | Version:  7
     \\/     M anipulation  |
\*---------------------------------------------------------------------------*/
FoamFile
{
    version     2.0;
    format      ascii;
    class       volVectorField;
    location    "0.195";
    object      UMean;
}
// * * * * * * * * * * * * * * * * * * * * * * * * * * * * * * * * * * * * * //

dimensions      [0 1 -1 0 0 0 0];

internalField   nonuniform List<vector> 
1440
(
(29.5791 0.0787206 0)
(29.3438 0.308313 0)
(28.8686 0.525134 0)
(28.1819 0.701229 0)
(27.3381 0.829865 0)
(26.387 0.909143 0)
(25.3694 0.942758 0)
(24.3161 0.937417 0)
(23.2557 0.902613 0)
(22.2067 0.845538 0)
(21.1913 0.774288 0)
(20.2162 0.696346 0)
(19.2911 0.614365 0)
(18.4224 0.532321 0)
(17.6125 0.453405 0)
(16.8622 0.379533 0)
(16.1711 0.311857 0)
(15.5379 0.25095 0)
(14.9605 0.196967 0)
(14.4362 0.149767 0)
(13.9617 0.109011 0)
(13.5336 0.0742296 0)
(13.1486 0.0448885 0)
(12.8031 0.0204292 0)
(12.4936 0.000299343 0)
(12.2167 -0.0160354 0)
(11.9692 -0.0290762 0)
(11.7482 -0.0392834 0)
(11.5507 -0.0470689 0)
(11.3742 -0.0527971 0)
(11.2163 -0.0567837 0)
(11.0749 -0.0593007 0)
(10.9479 -0.0605902 0)
(10.8338 -0.0608727 0)
(10.7308 -0.0604624 0)
(10.6377 -0.0596098 0)
(10.553 -0.0584528 0)
(10.4757 -0.0570555 0)
(10.4049 -0.055456 0)
(10.3396 -0.0536894 0)
(10.2793 -0.0517919 0)
(10.2232 -0.0497975 0)
(10.1708 -0.047737 0)
(10.1216 -0.0456372 0)
(10.0753 -0.043522 0)
(10.0315 -0.0414117 0)
(9.98988 -0.0393235 0)
(9.95016 -0.0372708 0)
(9.91215 -0.0352647 0)
(9.87564 -0.0333137 0)
(9.84047 -0.0314238 0)
(9.80649 -0.0295996 0)
(9.77358 -0.027844 0)
(9.74164 -0.026159 0)
(9.71057 -0.0245455 0)
(9.68029 -0.0230037 0)
(9.65073 -0.021533 0)
(9.62184 -0.0201322 0)
(9.59357 -0.0187999 0)
(9.56586 -0.0175339 0)
(9.53868 -0.0163321 0)
(9.51199 -0.0151923 0)
(9.48578 -0.0141125 0)
(9.46001 -0.0130907 0)
(9.43465 -0.0121247 0)
(9.4097 -0.0112124 0)
(9.38514 -0.0103516 0)
(9.36094 -0.00953997 0)
(9.3371 -0.00877544 0)
(9.31361 -0.00805597 0)
(9.29046 -0.00737979 0)
(9.26763 -0.00674506 0)
(9.24513 -0.00615017 0)
(9.22294 -0.00559404 0)
(9.20105 -0.00507506 0)
(9.17947 -0.00459181 0)
(9.15818 -0.00414268 0)
(9.13718 -0.00372175 0)
(9.11646 -0.0033225 0)
(9.09602 -0.00294135 0)
(9.07587 -0.00257712 0)
(9.05599 -0.0022298 0)
(9.03638 -0.00189934 0)
(9.01704 -0.00158583 0)
(8.99797 -0.00128911 0)
(8.97916 -0.00100919 0)
(8.96062 -0.000745582 0)
(8.94232 -0.000498142 0)
(8.92428 -0.000266193 0)
(8.90649 -4.95458e-05 0)
(8.88895 0.000152771 0)
(8.87165 0.000341065 0)
(8.85459 0.000516279 0)
(8.83777 0.000678616 0)
(8.82118 0.000828926 0)
(8.80483 0.000967477 0)
(8.7887 0.00109515 0)
(8.77279 0.00121225 0)
(8.75711 0.0013193 0)
(8.74165 0.00141692 0)
(8.7264 0.0015051 0)
(8.71135 0.00158547 0)
(8.69653 0.00165614 0)
(8.68189 0.00172155 0)
(8.66748 0.00177524 0)
(8.65324 0.00182896 0)
(8.63924 0.00186427 0)
(8.62537 0.00191194 0)
(8.61179 0.00192353 0)
(8.59825 0.00197575 0)
(8.58513 0.00194788 0)
(8.57184 0.00202724 0)
(8.5593 0.00192067 0)
(8.5461 0.00207271 0)
(8.53444 0.00179798 0)
(8.52092 0.00211565 0)
(8.51093 0.00149237 0)
(8.49599 0.00220932 0)
(8.48975 0.000980467 0)
(8.4693 0.00287947 0)
(29.6287 0.113755 0)
(29.7261 0.319497 0)
(29.8907 0.50234 0)
(30.0957 0.66605 0)
(30.3171 0.809783 0)
(30.5334 0.929596 0)
(30.7271 1.02328 0)
(30.8847 1.09128 0)
(30.9992 1.13602 0)
(31.0677 1.16021 0)
(31.0922 1.16658 0)
(31.0754 1.15798 0)
(31.0222 1.13684 0)
(30.9377 1.10545 0)
(30.8267 1.06604 0)
(30.6938 1.02067 0)
(30.5435 0.971165 0)
(30.3796 0.919043 0)
(30.2057 0.865587 0)
(30.0247 0.811871 0)
(29.839 0.758759 0)
(29.6508 0.706974 0)
(29.4616 0.657066 0)
(29.2729 0.609437 0)
(29.0856 0.564388 0)
(28.9007 0.522109 0)
(28.7186 0.482693 0)
(28.5398 0.446158 0)
(28.3647 0.412459 0)
(28.1933 0.38151 0)
(28.0259 0.353189 0)
(27.8625 0.327351 0)
(27.703 0.303835 0)
(27.5474 0.28246 0)
(27.3956 0.263031 0)
(27.2475 0.245359 0)
(27.1031 0.229277 0)
(26.9622 0.214647 0)
(26.8248 0.20134 0)
(26.6907 0.189235 0)
(26.5599 0.178217 0)
(26.4323 0.168179 0)
(26.3077 0.159022 0)
(26.186 0.150657 0)
(26.0673 0.143003 0)
(25.9513 0.135989 0)
(25.8381 0.129547 0)
(25.7275 0.123618 0)
(25.6195 0.118151 0)
(25.514 0.113098 0)
(25.411 0.108417 0)
(25.3104 0.104071 0)
(25.2122 0.100028 0)
(25.1162 0.0962577 0)
(25.0225 0.0927346 0)
(24.9309 0.0894353 0)
(24.8415 0.0863392 0)
(24.7541 0.0834279 0)
(24.6688 0.0806848 0)
(24.5854 0.0780952 0)
(24.504 0.0756458 0)
(24.4245 0.0733248 0)
(24.3468 0.0711217 0)
(24.2709 0.0690268 0)
(24.1967 0.0670315 0)
(24.1242 0.0651282 0)
(24.0534 0.0633103 0)
(23.9843 0.0615715 0)
(23.9167 0.0599067 0)
(23.8506 0.0583107 0)
(23.786 0.0567794 0)
(23.7229 0.0553086 0)
(23.6612 0.0538949 0)
(23.6009 0.0525348 0)
(23.5419 0.0512255 0)
(23.4842 0.0499645 0)
(23.4277 0.0487499 0)
(23.3725 0.0475807 0)
(23.3185 0.0464562 0)
(23.2656 0.045375 0)
(23.2139 0.0443355 0)
(23.1633 0.0433355 0)
(23.1137 0.042373 0)
(23.0652 0.0414461 0)
(23.0176 0.0405533 0)
(22.971 0.0396928 0)
(22.9254 0.0388635 0)
(22.8807 0.0380637 0)
(22.8369 0.0372924 0)
(22.794 0.0365482 0)
(22.7519 0.0358302 0)
(22.7106 0.0351372 0)
(22.6701 0.0344682 0)
(22.6304 0.0338222 0)
(22.5914 0.0331983 0)
(22.5532 0.0325958 0)
(22.5156 0.0320136 0)
(22.4788 0.0314511 0)
(22.4426 0.030907 0)
(22.4071 0.0303816 0)
(22.3722 0.0298725 0)
(22.3379 0.0293815 0)
(22.3043 0.0289041 0)
(22.2712 0.0284449 0)
(22.2386 0.0279954 0)
(22.2066 0.0275664 0)
(22.1752 0.0271398 0)
(22.1443 0.0267402 0)
(22.114 0.0263283 0)
(22.0839 0.0259597 0)
(22.0547 0.0255478 0)
(22.0254 0.0252145 0)
(21.9976 0.0247726 0)
(21.9685 0.0244812 0)
(21.9427 0.0239499 0)
(21.9128 0.0236968 0)
(21.8908 0.0229754 0)
(21.8575 0.0227148 0)
(21.8438 0.0217696 0)
(21.8004 0.0214664 0)
(29.6253 0.0758657 0)
(29.6771 0.221348 0)
(29.7751 0.355061 0)
(29.9146 0.475121 0)
(30.0912 0.580843 0)
(30.3005 0.670984 0)
(30.5369 0.744388 0)
(30.7931 0.800844 0)
(31.0612 0.841151 0)
(31.3339 0.866628 0)
(31.605 0.878727 0)
(31.8694 0.87911 0)
(32.1234 0.869331 0)
(32.3641 0.850902 0)
(32.5897 0.825412 0)
(32.7988 0.794462 0)
(32.9908 0.759562 0)
(33.1657 0.722062 0)
(33.3238 0.683129 0)
(33.466 0.643756 0)
(33.5928 0.604768 0)
(33.7054 0.566824 0)
(33.8048 0.530432 0)
(33.892 0.495962 0)
(33.968 0.463666 0)
(34.0339 0.433693 0)
(34.0906 0.406104 0)
(34.139 0.380887 0)
(34.1799 0.357977 0)
(34.2141 0.337264 0)
(34.2423 0.318609 0)
(34.2652 0.301854 0)
(34.2831 0.286833 0)
(34.2967 0.273382 0)
(34.3064 0.261369 0)
(34.3126 0.250667 0)
(34.3156 0.241138 0)
(34.3157 0.232646 0)
(34.3133 0.225059 0)
(34.3086 0.218261 0)
(34.3017 0.212144 0)
(34.2928 0.206614 0)
(34.2822 0.201588 0)
(34.2699 0.196994 0)
(34.2561 0.192768 0)
(34.2409 0.188856 0)
(34.2243 0.185211 0)
(34.2066 0.181793 0)
(34.1877 0.178567 0)
(34.1677 0.175505 0)
(34.1468 0.17258 0)
(34.1249 0.169773 0)
(34.1022 0.167064 0)
(34.0786 0.164439 0)
(34.0543 0.161886 0)
(34.0293 0.159396 0)
(34.0036 0.156961 0)
(33.9773 0.154573 0)
(33.9504 0.152228 0)
(33.9229 0.14992 0)
(33.8949 0.147646 0)
(33.8665 0.145404 0)
(33.8376 0.14319 0)
(33.8083 0.141004 0)
(33.7786 0.138844 0)
(33.7486 0.136709 0)
(33.7182 0.134599 0)
(33.6875 0.132515 0)
(33.6565 0.130455 0)
(33.6254 0.128421 0)
(33.5939 0.126413 0)
(33.5623 0.12443 0)
(33.5305 0.122474 0)
(33.4985 0.120545 0)
(33.4663 0.118644 0)
(33.4341 0.11677 0)
(33.4017 0.114926 0)
(33.3693 0.113109 0)
(33.3368 0.11132 0)
(33.3042 0.109558 0)
(33.2716 0.107823 0)
(33.2389 0.106114 0)
(33.2063 0.104432 0)
(33.1736 0.102776 0)
(33.141 0.101146 0)
(33.1084 0.0995427 0)
(33.0758 0.097966 0)
(33.0433 0.096415 0)
(33.0108 0.0948907 0)
(32.9784 0.0933917 0)
(32.9461 0.0919194 0)
(32.9139 0.090472 0)
(32.8818 0.089051 0)
(32.8498 0.0876543 0)
(32.8179 0.0862841 0)
(32.7862 0.0849374 0)
(32.7545 0.083617 0)
(32.7231 0.0823189 0)
(32.6917 0.0810474 0)
(32.6605 0.0797964 0)
(32.6295 0.0785727 0)
(32.5987 0.0773666 0)
(32.568 0.0761899 0)
(32.5375 0.0750256 0)
(32.5071 0.0738957 0)
(32.477 0.0727682 0)
(32.447 0.0716865 0)
(32.4172 0.0705871 0)
(32.3877 0.0695586 0)
(32.3582 0.0684699 0)
(32.3293 0.0675074 0)
(32.2999 0.0663921 0)
(32.2719 0.0655234 0)
(32.2422 0.0643008 0)
(32.2158 0.0635853 0)
(32.1846 0.0620798 0)
(32.1618 0.0616378 0)
(32.1263 0.0594725 0)
(32.1119 0.0595176 0)
(32.0651 0.0558513 0)
(29.625 0.0510848 0)
(29.6709 0.150768 0)
(29.7579 0.244077 0)
(29.882 0.32814 0)
(30.0391 0.401635 0)
(30.225 0.463869 0)
(30.4348 0.514312 0)
(30.6634 0.552812 0)
(30.9055 0.579836 0)
(31.1562 0.59639 0)
(31.4114 0.603762 0)
(31.6675 0.603323 0)
(31.9215 0.596383 0)
(32.1712 0.58414 0)
(32.4144 0.567738 0)
(32.6497 0.548236 0)
(32.8757 0.526608 0)
(33.0917 0.503675 0)
(33.2971 0.480127 0)
(33.4916 0.456509 0)
(33.6751 0.433262 0)
(33.848 0.410717 0)
(34.0104 0.389121 0)
(34.1628 0.368634 0)
(34.3057 0.349355 0)
(34.4397 0.331328 0)
(34.5654 0.314571 0)
(34.6834 0.299071 0)
(34.7943 0.2848 0)
(34.8988 0.271705 0)
(34.9973 0.259726 0)
(35.0905 0.24879 0)
(35.1789 0.238824 0)
(35.2628 0.229757 0)
(35.3428 0.221531 0)
(35.4192 0.214079 0)
(35.4923 0.20733 0)
(35.5625 0.201206 0)
(35.63 0.195638 0)
(35.6951 0.190561 0)
(35.758 0.18592 0)
(35.8188 0.181663 0)
(35.8778 0.177748 0)
(35.935 0.174134 0)
(35.9906 0.170786 0)
(36.0447 0.167671 0)
(36.0973 0.164763 0)
(36.1487 0.162036 0)
(36.1987 0.159468 0)
(36.2475 0.157041 0)
(36.2952 0.154738 0)
(36.3417 0.152545 0)
(36.3872 0.150449 0)
(36.4316 0.148439 0)
(36.4751 0.146508 0)
(36.5175 0.144647 0)
(36.559 0.14285 0)
(36.5996 0.141112 0)
(36.6392 0.139428 0)
(36.678 0.137793 0)
(36.7159 0.136205 0)
(36.7529 0.134659 0)
(36.7892 0.133154 0)
(36.8246 0.131686 0)
(36.8591 0.130254 0)
(36.8929 0.128856 0)
(36.9259 0.127491 0)
(36.9582 0.126156 0)
(36.9897 0.124851 0)
(37.0204 0.123573 0)
(37.0504 0.122324 0)
(37.0797 0.121099 0)
(37.1083 0.1199 0)
(37.1362 0.118724 0)
(37.1634 0.117571 0)
(37.1899 0.11644 0)
(37.2157 0.115331 0)
(37.2409 0.114241 0)
(37.2655 0.11317 0)
(37.2894 0.112115 0)
(37.3127 0.111078 0)
(37.3353 0.110056 0)
(37.3574 0.109051 0)
(37.3788 0.108061 0)
(37.3997 0.107087 0)
(37.42 0.106126 0)
(37.4398 0.10518 0)
(37.4589 0.104246 0)
(37.4776 0.103327 0)
(37.4957 0.102419 0)
(37.5132 0.101525 0)
(37.5303 0.100641 0)
(37.5468 0.0997704 0)
(37.5628 0.0989088 0)
(37.5784 0.0980601 0)
(37.5934 0.0972194 0)
(37.608 0.0963915 0)
(37.6221 0.0955701 0)
(37.6357 0.094762 0)
(37.6489 0.0939581 0)
(37.6616 0.0931691 0)
(37.6739 0.0923803 0)
(37.6858 0.0916107 0)
(37.6973 0.0908333 0)
(37.7083 0.0900851 0)
(37.719 0.0893123 0)
(37.7292 0.0885914 0)
(37.7391 0.0878101 0)
(37.7485 0.0871295 0)
(37.7577 0.0863126 0)
(37.7663 0.0857003 0)
(37.7749 0.0847923 0)
(37.7826 0.0843048 0)
(37.7907 0.0831933 0)
(37.7973 0.0829384 0)
(37.8053 0.0814038 0)
(37.8103 0.0815655 0)
(37.8188 0.0791861 0)
(37.8213 0.0799522 0)
(37.8316 0.0757953 0)
(29.6248 0.0297829 0)
(29.6677 0.0881647 0)
(29.7488 0.143314 0)
(29.865 0.193308 0)
(30.0133 0.237069 0)
(30.1897 0.274179 0)
(30.3895 0.304432 0)
(30.6078 0.327763 0)
(30.8398 0.344408 0)
(31.0807 0.354944 0)
(31.3265 0.360144 0)
(31.5738 0.360817 0)
(31.8198 0.357725 0)
(32.062 0.351545 0)
(32.2986 0.342892 0)
(32.5281 0.332323 0)
(32.7492 0.320331 0)
(32.9611 0.307339 0)
(33.1633 0.293705 0)
(33.3555 0.27973 0)
(33.5377 0.265675 0)
(33.7099 0.25176 0)
(33.8725 0.238166 0)
(34.0259 0.225031 0)
(34.1704 0.212456 0)
(34.3067 0.200513 0)
(34.4352 0.189255 0)
(34.5566 0.178716 0)
(34.6715 0.168917 0)
(34.7803 0.159864 0)
(34.8837 0.151553 0)
(34.9822 0.143966 0)
(35.0762 0.137071 0)
(35.1661 0.130833 0)
(35.2524 0.125209 0)
(35.3355 0.12015 0)
(35.4156 0.115606 0)
(35.4931 0.111525 0)
(35.5683 0.107854 0)
(35.6413 0.10455 0)
(35.7124 0.101571 0)
(35.7818 0.0988797 0)
(35.8497 0.0964438 0)
(35.9161 0.0942331 0)
(35.9812 0.0922208 0)
(36.045 0.0903829 0)
(36.1078 0.0886981 0)
(36.1696 0.0871474 0)
(36.2304 0.0857145 0)
(36.2903 0.0843848 0)
(36.3494 0.0831461 0)
(36.4076 0.0819878 0)
(36.4651 0.0809006 0)
(36.5219 0.0798764 0)
(36.578 0.0789082 0)
(36.6334 0.0779897 0)
(36.6882 0.0771155 0)
(36.7423 0.0762809 0)
(36.7959 0.0754818 0)
(36.8489 0.0747146 0)
(36.9013 0.073976 0)
(36.9532 0.0732635 0)
(37.0045 0.0725746 0)
(37.0553 0.0719072 0)
(37.1055 0.0712596 0)
(37.1553 0.0706302 0)
(37.2045 0.0700176 0)
(37.2533 0.0694206 0)
(37.3016 0.0688379 0)
(37.3494 0.0682686 0)
(37.3968 0.0677119 0)
(37.4436 0.067167 0)
(37.4901 0.0666333 0)
(37.5361 0.0661102 0)
(37.5816 0.0655972 0)
(37.6267 0.0650936 0)
(37.6714 0.0645989 0)
(37.7157 0.0641124 0)
(37.7595 0.0636337 0)
(37.8029 0.0631625 0)
(37.846 0.0626986 0)
(37.8886 0.0622421 0)
(37.9308 0.0617928 0)
(37.9727 0.0613506 0)
(38.0142 0.0609154 0)
(38.0552 0.060487 0)
(38.0959 0.0600652 0)
(38.1363 0.0596498 0)
(38.1763 0.0592408 0)
(38.2159 0.0588379 0)
(38.2551 0.0584411 0)
(38.294 0.0580501 0)
(38.3326 0.057665 0)
(38.3708 0.0572853 0)
(38.4087 0.0569116 0)
(38.4462 0.0565428 0)
(38.4834 0.0561799 0)
(38.5203 0.0558213 0)
(38.5568 0.0554692 0)
(38.593 0.0551199 0)
(38.6289 0.0547784 0)
(38.6645 0.0544372 0)
(38.6998 0.0541069 0)
(38.7348 0.0537712 0)
(38.7695 0.0534538 0)
(38.8039 0.0531195 0)
(38.8379 0.0528191 0)
(38.8718 0.0524773 0)
(38.905 0.0522025 0)
(38.9386 0.0518352 0)
(38.9709 0.051604 0)
(39.0044 0.0511748 0)
(39.0354 0.0510227 0)
(39.0695 0.0504601 0)
(39.0981 0.0504532 0)
(39.1342 0.0496184 0)
(39.1581 0.0498603 0)
(39.1996 0.0484671 0)
(39.2133 0.0490081 0)
(39.2673 0.0463653 0)
(29.6247 0.00980383 0)
(29.6662 0.0290397 0)
(29.7446 0.0472665 0)
(29.857 0.0638436 0)
(30.0009 0.0783723 0)
(30.1726 0.0907056 0)
(30.3677 0.100794 0)
(30.5814 0.108632 0)
(30.8089 0.114293 0)
(31.0458 0.11796 0)
(31.2881 0.119874 0)
(31.5323 0.120299 0)
(31.7756 0.119463 0)
(32.0155 0.117584 0)
(32.2501 0.11484 0)
(32.4778 0.11141 0)
(32.6974 0.107442 0)
(32.908 0.103082 0)
(33.1092 0.098442 0)
(33.3005 0.0936386 0)
(33.482 0.0887652 0)
(33.6537 0.0839139 0)
(33.8159 0.0791559 0)
(33.969 0.0745569 0)
(34.1133 0.0701654 0)
(34.2494 0.0660229 0)
(34.3779 0.0621553 0)
(34.4993 0.0585823 0)
(34.6141 0.0553104 0)
(34.723 0.0523461 0)
(34.8265 0.0496882 0)
(34.925 0.0473311 0)
(35.019 0.0452593 0)
(35.1089 0.0434547 0)
(35.1952 0.0418931 0)
(35.2782 0.0405512 0)
(35.3583 0.0394029 0)
(35.4357 0.0384237 0)
(35.5107 0.0375887 0)
(35.5836 0.0368761 0)
(35.6546 0.0362655 0)
(35.7238 0.0357405 0)
(35.7915 0.0352858 0)
(35.8578 0.0348897 0)
(35.9227 0.0345408 0)
(35.9865 0.0342309 0)
(36.0491 0.0339515 0)
(36.1108 0.033697 0)
(36.1715 0.0334614 0)
(36.2313 0.033241 0)
(36.2903 0.0330317 0)
(36.3485 0.0328312 0)
(36.406 0.0326367 0)
(36.4628 0.0324465 0)
(36.519 0.0322587 0)
(36.5745 0.0320722 0)
(36.6294 0.0318857 0)
(36.6837 0.0316987 0)
(36.7374 0.0315104 0)
(36.7906 0.0313207 0)
(36.8433 0.0311291 0)
(36.8955 0.0309357 0)
(36.9471 0.0307404 0)
(36.9983 0.0305435 0)
(37.049 0.0303449 0)
(37.0992 0.030145 0)
(37.149 0.0299438 0)
(37.1983 0.0297417 0)
(37.2472 0.0295387 0)
(37.2956 0.0293351 0)
(37.3437 0.029131 0)
(37.3913 0.0289269 0)
(37.4385 0.0287227 0)
(37.4853 0.0285189 0)
(37.5317 0.0283153 0)
(37.5778 0.0281123 0)
(37.6234 0.0279097 0)
(37.6687 0.0277079 0)
(37.7137 0.0275066 0)
(37.7582 0.0273063 0)
(37.8025 0.0271069 0)
(37.8463 0.0269089 0)
(37.8899 0.0267121 0)
(37.9331 0.0265169 0)
(37.9759 0.0263231 0)
(38.0185 0.0261311 0)
(38.0607 0.0259406 0)
(38.1026 0.0257521 0)
(38.1442 0.0255653 0)
(38.1855 0.0253805 0)
(38.2265 0.0251975 0)
(38.2672 0.0250165 0)
(38.3077 0.0248375 0)
(38.3478 0.0246605 0)
(38.3877 0.0244856 0)
(38.4272 0.0243126 0)
(38.4666 0.0241417 0)
(38.5056 0.0239726 0)
(38.5444 0.0238058 0)
(38.5829 0.0236404 0)
(38.6212 0.0234776 0)
(38.6593 0.0233154 0)
(38.697 0.0231568 0)
(38.7346 0.0229971 0)
(38.7718 0.022843 0)
(38.809 0.0226845 0)
(38.8457 0.0225358 0)
(38.8825 0.0223756 0)
(38.9186 0.0222347 0)
(38.9552 0.0220674 0)
(38.9905 0.0219389 0)
(39.0272 0.0217533 0)
(39.0611 0.0216471 0)
(39.0987 0.0214209 0)
(39.1302 0.021357 0)
(39.1703 0.0210446 0)
(39.1966 0.0210564 0)
(39.2429 0.0205495 0)
(39.2579 0.0206527 0)
(39.3183 0.0196555 0)
(29.6247 -0.00979783 0)
(29.6662 -0.0290205 0)
(29.7446 -0.0472319 0)
(29.857 -0.0637912 0)
(30.0009 -0.0782984 0)
(30.1726 -0.0906021 0)
(30.3678 -0.100647 0)
(30.5814 -0.108423 0)
(30.8089 -0.114 0)
(31.0458 -0.117561 0)
(31.2881 -0.119349 0)
(31.5324 -0.119626 0)
(31.7757 -0.118624 0)
(32.0156 -0.116561 0)
(32.2502 -0.113621 0)
(32.4779 -0.109987 0)
(32.6975 -0.105812 0)
(32.9081 -0.101244 0)
(33.1093 -0.0964015 0)
(33.3006 -0.0914016 0)
(33.4821 -0.0863417 0)
(33.6538 -0.0813167 0)
(33.816 -0.0764008 0)
(33.969 -0.0716605 0)
(34.1133 -0.0671453 0)
(34.2494 -0.0628985 0)
(34.3779 -0.0589466 0)
(34.4993 -0.0553097 0)
(34.6141 -0.051994 0)
(34.723 -0.049005 0)
(34.8264 -0.0463396 0)
(34.9249 -0.0439892 0)
(35.0189 -0.041935 0)
(35.1089 -0.0401548 0)
(35.1951 -0.0386207 0)
(35.2782 -0.0373056 0)
(35.3582 -0.0361811 0)
(35.4356 -0.0352227 0)
(35.5107 -0.0344069 0)
(35.5836 -0.0337141 0)
(35.6545 -0.0331252 0)
(35.7238 -0.032624 0)
(35.7914 -0.0321946 0)
(35.8577 -0.0318243 0)
(35.9226 -0.031501 0)
(35.9863 -0.0312159 0)
(36.049 -0.0309606 0)
(36.1106 -0.0307288 0)
(36.1713 -0.0305145 0)
(36.2312 -0.0303136 0)
(36.2902 -0.0301221 0)
(36.3484 -0.0299377 0)
(36.4059 -0.0297577 0)
(36.4627 -0.0295809 0)
(36.5188 -0.0294053 0)
(36.5743 -0.0292303 0)
(36.6292 -0.0290547 0)
(36.6836 -0.028878 0)
(36.7373 -0.0286995 0)
(36.7905 -0.0285191 0)
(36.8432 -0.0283361 0)
(36.8953 -0.0281507 0)
(36.947 -0.0279621 0)
(36.9981 -0.0277707 0)
(37.0488 -0.0275762 0)
(37.0991 -0.0273789 0)
(37.1488 -0.0271789 0)
(37.1981 -0.0269769 0)
(37.247 -0.0267728 0)
(37.2955 -0.0265674 0)
(37.3435 -0.0263605 0)
(37.3911 -0.0261527 0)
(37.4383 -0.025944 0)
(37.4851 -0.0257349 0)
(37.5316 -0.0255252 0)
(37.5776 -0.0253157 0)
(37.6233 -0.0251061 0)
(37.6685 -0.024897 0)
(37.7135 -0.0246885 0)
(37.758 -0.0244809 0)
(37.8023 -0.0242745 0)
(37.8461 -0.0240695 0)
(37.8896 -0.0238659 0)
(37.9328 -0.0236642 0)
(37.9757 -0.0234643 0)
(38.0182 -0.0232666 0)
(38.0605 -0.023071 0)
(38.1024 -0.0228778 0)
(38.144 -0.022687 0)
(38.1853 -0.0224988 0)
(38.2263 -0.0223132 0)
(38.267 -0.0221303 0)
(38.3074 -0.0219502 0)
(38.3475 -0.021773 0)
(38.3874 -0.0215987 0)
(38.427 -0.0214272 0)
(38.4663 -0.0212588 0)
(38.5053 -0.0210932 0)
(38.5441 -0.0209308 0)
(38.5827 -0.020771 0)
(38.6209 -0.0206149 0)
(38.659 -0.0204606 0)
(38.6967 -0.0203109 0)
(38.7343 -0.0201616 0)
(38.7715 -0.020019 0)
(38.8087 -0.0198735 0)
(38.8454 -0.019739 0)
(38.8822 -0.019595 0)
(38.9183 -0.0194709 0)
(38.9549 -0.0193233 0)
(38.9901 -0.0192143 0)
(39.0269 -0.0190529 0)
(39.0608 -0.0189687 0)
(39.0984 -0.0187723 0)
(39.1298 -0.0187316 0)
(39.17 -0.0184566 0)
(39.1963 -0.018489 0)
(39.2426 -0.0180295 0)
(39.2575 -0.0181413 0)
(39.3179 -0.0172119 0)
(29.6248 -0.0297789 0)
(29.6677 -0.0881494 0)
(29.7488 -0.143283 0)
(29.865 -0.193258 0)
(30.0133 -0.236999 0)
(30.1897 -0.27408 0)
(30.3896 -0.30429 0)
(30.6079 -0.327561 0)
(30.8399 -0.344126 0)
(31.0808 -0.354561 0)
(31.3267 -0.359638 0)
(31.574 -0.360167 0)
(31.82 -0.356908 0)
(32.0623 -0.350541 0)
(32.2989 -0.341682 0)
(32.5284 -0.330895 0)
(32.7494 -0.31868 0)
(32.9613 -0.305465 0)
(33.1635 -0.291614 0)
(33.3557 -0.277433 0)
(33.5379 -0.263186 0)
(33.7101 -0.249095 0)
(33.8727 -0.235344 0)
(34.026 -0.222075 0)
(34.1705 -0.209389 0)
(34.3067 -0.197359 0)
(34.4352 -0.186037 0)
(34.5566 -0.175457 0)
(34.6714 -0.165638 0)
(34.7802 -0.156586 0)
(34.8836 -0.148295 0)
(34.982 -0.140743 0)
(35.076 -0.133895 0)
(35.1659 -0.127707 0)
(35.2522 -0.12213 0)
(35.3352 -0.117112 0)
(35.4154 -0.112602 0)
(35.4929 -0.108552 0)
(35.568 -0.104916 0)
(35.6411 -0.101652 0)
(35.7122 -0.0987187 0)
(35.7816 -0.0960772 0)
(35.8494 -0.0936907 0)
(35.9158 -0.0915266 0)
(35.9809 -0.0895566 0)
(36.0447 -0.0877561 0)
(36.1075 -0.0861039 0)
(36.1693 -0.0845811 0)
(36.2301 -0.0831715 0)
(36.29 -0.0818608 0)
(36.349 -0.0806369 0)
(36.4073 -0.0794898 0)
(36.4648 -0.0784106 0)
(36.5216 -0.0773919 0)
(36.5776 -0.076427 0)
(36.6331 -0.0755103 0)
(36.6878 -0.0746366 0)
(36.742 -0.0738016 0)
(36.7956 -0.0730012 0)
(36.8485 -0.072232 0)
(36.9009 -0.0714908 0)
(36.9528 -0.0707748 0)
(37.0041 -0.070081 0)
(37.0549 -0.0694071 0)
(37.1052 -0.0687509 0)
(37.1549 -0.068111 0)
(37.2042 -0.0674865 0)
(37.253 -0.0668766 0)
(37.3013 -0.0662807 0)
(37.3491 -0.065698 0)
(37.3964 -0.0651278 0)
(37.4433 -0.0645693 0)
(37.4898 -0.064022 0)
(37.5358 -0.0634853 0)
(37.5813 -0.0629586 0)
(37.6264 -0.0624414 0)
(37.6711 -0.0619333 0)
(37.7154 -0.0614339 0)
(37.7593 -0.0609429 0)
(37.8027 -0.0604601 0)
(37.8457 -0.0599854 0)
(37.8884 -0.0595185 0)
(37.9306 -0.0590592 0)
(37.9725 -0.0586074 0)
(38.014 -0.0581628 0)
(38.0551 -0.0577254 0)
(38.0958 -0.0572951 0)
(38.1362 -0.0568717 0)
(38.1761 -0.0564552 0)
(38.2158 -0.0560455 0)
(38.255 -0.0556426 0)
(38.294 -0.0552462 0)
(38.3325 -0.0548566 0)
(38.3708 -0.0544734 0)
(38.4087 -0.0540969 0)
(38.4462 -0.0537264 0)
(38.4834 -0.0533629 0)
(38.5203 -0.0530048 0)
(38.5569 -0.0526543 0)
(38.5931 -0.0523079 0)
(38.6291 -0.0519705 0)
(38.6647 -0.0516347 0)
(38.7 -0.0513111 0)
(38.735 -0.0509839 0)
(38.7697 -0.0506759 0)
(38.8042 -0.050353 0)
(38.8382 -0.0500649 0)
(38.8721 -0.0497379 0)
(38.9054 -0.0494783 0)
(38.939 -0.0491298 0)
(38.9714 -0.0489167 0)
(39.0049 -0.048511 0)
(39.0359 -0.0483796 0)
(39.07 -0.0478464 0)
(39.0986 -0.0478621 0)
(39.1348 -0.0470641 0)
(39.1587 -0.0473283 0)
(39.2002 -0.045981 0)
(39.214 -0.0465387 0)
(39.268 -0.0439478 0)
(29.625 -0.0510867 0)
(29.6709 -0.150767 0)
(29.7579 -0.244068 0)
(29.882 -0.32812 0)
(30.0392 -0.401598 0)
(30.2251 -0.463803 0)
(30.4349 -0.514198 0)
(30.6635 -0.552633 0)
(30.9057 -0.579574 0)
(31.1565 -0.596029 0)
(31.4117 -0.603284 0)
(31.6679 -0.602709 0)
(31.922 -0.595612 0)
(32.1717 -0.583189 0)
(32.415 -0.566586 0)
(32.6502 -0.546863 0)
(32.8762 -0.524997 0)
(33.0922 -0.501815 0)
(33.2975 -0.478013 0)
(33.492 -0.454144 0)
(33.6755 -0.430657 0)
(33.8483 -0.407885 0)
(34.0106 -0.386082 0)
(34.1629 -0.365412 0)
(34.3057 -0.345974 0)
(34.4397 -0.327815 0)
(34.5653 -0.310951 0)
(34.6832 -0.29537 0)
(34.7941 -0.281041 0)
(34.8985 -0.267914 0)
(34.997 -0.255926 0)
(35.0902 -0.245003 0)
(35.1785 -0.23507 0)
(35.2625 -0.226045 0)
(35.3424 -0.21785 0)
(35.4188 -0.210409 0)
(35.492 -0.203651 0)
(35.5622 -0.197507 0)
(35.6297 -0.191922 0)
(35.6948 -0.18684 0)
(35.7577 -0.182212 0)
(35.8185 -0.177984 0)
(35.8775 -0.174106 0)
(35.9348 -0.170535 0)
(35.9904 -0.167232 0)
(36.0445 -0.164163 0)
(36.0972 -0.1613 0)
(36.1485 -0.158617 0)
(36.1986 -0.156093 0)
(36.2475 -0.153706 0)
(36.2952 -0.151443 0)
(36.3418 -0.149286 0)
(36.3873 -0.147226 0)
(36.4318 -0.14525 0)
(36.4752 -0.143352 0)
(36.5177 -0.141523 0)
(36.5593 -0.139758 0)
(36.5999 -0.138051 0)
(36.6396 -0.136397 0)
(36.6784 -0.134792 0)
(36.7163 -0.133233 0)
(36.7534 -0.131716 0)
(36.7897 -0.130239 0)
(36.8251 -0.128796 0)
(36.8597 -0.127385 0)
(36.8936 -0.126003 0)
(36.9266 -0.124651 0)
(36.9589 -0.123326 0)
(36.9904 -0.122028 0)
(37.0212 -0.120756 0)
(37.0512 -0.119509 0)
(37.0806 -0.118286 0)
(37.1092 -0.117087 0)
(37.1371 -0.11591 0)
(37.1643 -0.114756 0)
(37.1909 -0.113622 0)
(37.2167 -0.11251 0)
(37.242 -0.111416 0)
(37.2665 -0.110343 0)
(37.2905 -0.109286 0)
(37.3138 -0.108249 0)
(37.3365 -0.107227 0)
(37.3586 -0.106224 0)
(37.3801 -0.105235 0)
(37.401 -0.104262 0)
(37.4213 -0.103304 0)
(37.441 -0.102361 0)
(37.4602 -0.10143 0)
(37.4789 -0.100514 0)
(37.497 -0.0996104 0)
(37.5146 -0.0987207 0)
(37.5316 -0.0978416 0)
(37.5482 -0.0969763 0)
(37.5642 -0.0961206 0)
(37.5798 -0.0952785 0)
(37.5948 -0.0944449 0)
(37.6094 -0.0936249 0)
(37.6235 -0.0928121 0)
(37.6372 -0.0920133 0)
(37.6503 -0.0912196 0)
(37.6631 -0.0904417 0)
(37.6754 -0.089665 0)
(37.6873 -0.0889085 0)
(37.6987 -0.0881454 0)
(37.7098 -0.0874123 0)
(37.7204 -0.0866563 0)
(37.7306 -0.0859525 0)
(37.7405 -0.0851909 0)
(37.7499 -0.0845294 0)
(37.7591 -0.0837358 0)
(37.7677 -0.0831444 0)
(37.7762 -0.0822643 0)
(37.7839 -0.081799 0)
(37.792 -0.0807221 0)
(37.7985 -0.0804898 0)
(37.8065 -0.0790001 0)
(37.8115 -0.0791818 0)
(37.8199 -0.0768624 0)
(37.8224 -0.0776402 0)
(37.8326 -0.073566 0)
(29.6253 -0.0758731 0)
(29.6771 -0.221372 0)
(29.7751 -0.355115 0)
(29.9146 -0.475213 0)
(30.0913 -0.580958 0)
(30.3006 -0.671091 0)
(30.5371 -0.744457 0)
(30.7933 -0.800848 0)
(31.0615 -0.841072 0)
(31.3342 -0.866449 0)
(31.6052 -0.87844 0)
(31.8695 -0.878709 0)
(32.1235 -0.868808 0)
(32.3641 -0.85025 0)
(32.5896 -0.824625 0)
(32.7985 -0.79353 0)
(32.9903 -0.758475 0)
(33.165 -0.720811 0)
(33.3229 -0.681709 0)
(33.4648 -0.642169 0)
(33.5915 -0.603019 0)
(33.7038 -0.564926 0)
(33.803 -0.5284 0)
(33.8899 -0.493813 0)
(33.9658 -0.461422 0)
(34.0315 -0.431375 0)
(34.088 -0.403734 0)
(34.1363 -0.378489 0)
(34.1771 -0.355572 0)
(34.2112 -0.334876 0)
(34.2393 -0.316263 0)
(34.262 -0.299579 0)
(34.2799 -0.284661 0)
(34.2934 -0.271342 0)
(34.303 -0.259462 0)
(34.3092 -0.248862 0)
(34.3122 -0.239394 0)
(34.3123 -0.23092 0)
(34.3098 -0.22332 0)
(34.305 -0.216494 0)
(34.298 -0.210346 0)
(34.289 -0.204786 0)
(34.2783 -0.199732 0)
(34.2659 -0.195111 0)
(34.252 -0.190859 0)
(34.2367 -0.186922 0)
(34.2201 -0.18325 0)
(34.2023 -0.179805 0)
(34.1833 -0.176551 0)
(34.1632 -0.17346 0)
(34.1422 -0.170507 0)
(34.1202 -0.167672 0)
(34.0974 -0.164936 0)
(34.0737 -0.162286 0)
(34.0493 -0.159709 0)
(34.0241 -0.157197 0)
(33.9983 -0.154741 0)
(33.9718 -0.152334 0)
(33.9448 -0.149972 0)
(33.9172 -0.14765 0)
(33.889 -0.145366 0)
(33.8604 -0.143117 0)
(33.8313 -0.140902 0)
(33.8019 -0.138716 0)
(33.772 -0.136558 0)
(33.7418 -0.134425 0)
(33.7112 -0.132317 0)
(33.6803 -0.130232 0)
(33.6492 -0.128172 0)
(33.6177 -0.126135 0)
(33.5861 -0.124123 0)
(33.5542 -0.122134 0)
(33.5222 -0.120171 0)
(33.49 -0.118232 0)
(33.4576 -0.116319 0)
(33.4251 -0.114432 0)
(33.3925 -0.112572 0)
(33.3598 -0.110737 0)
(33.327 -0.108929 0)
(33.2942 -0.107148 0)
(33.2613 -0.105394 0)
(33.2284 -0.103667 0)
(33.1955 -0.101967 0)
(33.1626 -0.100295 0)
(33.1297 -0.09865 0)
(33.0969 -0.0970323 0)
(33.064 -0.0954425 0)
(33.0312 -0.0938797 0)
(32.9985 -0.0923446 0)
(32.9659 -0.0908362 0)
(32.9333 -0.0893556 0)
(32.9008 -0.0879013 0)
(32.8685 -0.0864747 0)
(32.8362 -0.0850737 0)
(32.8041 -0.0837002 0)
(32.772 -0.0823515 0)
(32.7401 -0.0810304 0)
(32.7084 -0.0797328 0)
(32.6768 -0.0784631 0)
(32.6454 -0.0772151 0)
(32.6141 -0.0759958 0)
(32.5829 -0.0747954 0)
(32.552 -0.0736258 0)
(32.5212 -0.0724701 0)
(32.4906 -0.0713502 0)
(32.4601 -0.0702346 0)
(32.4299 -0.0691659 0)
(32.3998 -0.0680815 0)
(32.37 -0.0670689 0)
(32.3402 -0.0659988 0)
(32.311 -0.0650547 0)
(32.2813 -0.0639625 0)
(32.253 -0.0631143 0)
(32.223 -0.0619216 0)
(32.1963 -0.0612273 0)
(32.1647 -0.0597644 0)
(32.1416 -0.059342 0)
(32.1057 -0.0572457 0)
(32.0911 -0.0573011 0)
(32.0437 -0.0537646 0)
(29.6287 -0.113613 0)
(29.726 -0.319201 0)
(29.8904 -0.502033 0)
(30.0952 -0.665804 0)
(30.3163 -0.809586 0)
(30.532 -0.929404 0)
(30.7251 -1.02304 0)
(30.8818 -1.09094 0)
(30.9955 -1.13551 0)
(31.0629 -1.15948 0)
(31.0862 -1.16558 0)
(31.0682 -1.15667 0)
(31.0138 -1.13518 0)
(30.9281 -1.10343 0)
(30.8159 -1.06366 0)
(30.6818 -1.01795 0)
(30.5304 -0.968112 0)
(30.3655 -0.915685 0)
(30.1906 -0.86195 0)
(30.0087 -0.807983 0)
(29.8222 -0.754649 0)
(29.6332 -0.702668 0)
(29.4434 -0.652595 0)
(29.2541 -0.604825 0)
(29.0663 -0.559659 0)
(28.8808 -0.517283 0)
(28.6983 -0.477788 0)
(28.5191 -0.441189 0)
(28.3436 -0.407438 0)
(28.1719 -0.376444 0)
(28.0041 -0.348081 0)
(27.8403 -0.322201 0)
(27.6805 -0.298644 0)
(27.5245 -0.277239 0)
(27.3724 -0.257819 0)
(27.2241 -0.240217 0)
(27.0794 -0.224269 0)
(26.9382 -0.209817 0)
(26.8005 -0.19671 0)
(26.6661 -0.184799 0)
(26.535 -0.173955 0)
(26.407 -0.164068 0)
(26.282 -0.155043 0)
(26.16 -0.146796 0)
(26.0409 -0.139245 0)
(25.9246 -0.132324 0)
(25.8111 -0.125965 0)
(25.7001 -0.12011 0)
(25.5918 -0.114708 0)
(25.486 -0.109713 0)
(25.3826 -0.105085 0)
(25.2816 -0.100787 0)
(25.183 -0.0967872 0)
(25.0866 -0.0930553 0)
(24.9925 -0.0895656 0)
(24.9006 -0.0862949 0)
(24.8107 -0.0832226 0)
(24.723 -0.0803303 0)
(24.6372 -0.0776015 0)
(24.5534 -0.0750217 0)
(24.4716 -0.0725781 0)
(24.3916 -0.0702596 0)
(24.3135 -0.0680573 0)
(24.2372 -0.0659652 0)
(24.1626 -0.0639775 0)
(24.0897 -0.0620877 0)
(24.0185 -0.0602889 0)
(23.9489 -0.0585743 0)
(23.8809 -0.056938 0)
(23.8144 -0.0553746 0)
(23.7494 -0.0538793 0)
(23.6859 -0.0524477 0)
(23.6238 -0.051076 0)
(23.563 -0.0497604 0)
(23.5037 -0.0484981 0)
(23.4456 -0.0472861 0)
(23.3887 -0.0461217 0)
(23.3332 -0.0450026 0)
(23.2788 -0.0439265 0)
(23.2255 -0.0428911 0)
(23.1735 -0.0418946 0)
(23.1225 -0.0409351 0)
(23.0725 -0.0400109 0)
(23.0237 -0.0391205 0)
(22.9758 -0.0382625 0)
(22.9289 -0.0374356 0)
(22.8829 -0.0366385 0)
(22.8379 -0.0358699 0)
(22.7938 -0.0351289 0)
(22.7505 -0.0344141 0)
(22.7081 -0.0337247 0)
(22.6665 -0.0330596 0)
(22.6257 -0.0324179 0)
(22.5857 -0.0317986 0)
(22.5464 -0.0312008 0)
(22.5079 -0.0306239 0)
(22.47 -0.0300667 0)
(22.4329 -0.0295288 0)
(22.3964 -0.029009 0)
(22.3606 -0.0285073 0)
(22.3254 -0.0280218 0)
(22.2908 -0.0275538 0)
(22.2568 -0.0270995 0)
(22.2234 -0.026663 0)
(22.1906 -0.0262366 0)
(22.1583 -0.0258301 0)
(22.1266 -0.0254269 0)
(22.0953 -0.0250498 0)
(22.0646 -0.0246624 0)
(22.0342 -0.0243164 0)
(22.0047 -0.0239305 0)
(21.975 -0.0236204 0)
(21.9469 -0.0232072 0)
(21.9174 -0.0229405 0)
(21.8913 -0.022442 0)
(21.8609 -0.0222194 0)
(21.8386 -0.0215363 0)
(21.8047 -0.0213294 0)
(21.7908 -0.020425 0)
(21.7467 -0.0202364 0)
(29.5774 -0.0785734 0)
(29.3386 -0.307968 0)
(28.8599 -0.52469 0)
(28.1697 -0.700706 0)
(27.3226 -0.829217 0)
(26.3682 -0.908323 0)
(25.3474 -0.941696 0)
(24.291 -0.936086 0)
(23.2277 -0.900958 0)
(22.176 -0.843504 0)
(21.158 -0.771905 0)
(20.1805 -0.693562 0)
(19.2534 -0.611164 0)
(18.3828 -0.528744 0)
(17.5713 -0.449495 0)
(16.8196 -0.375345 0)
(16.1273 -0.307457 0)
(15.4933 -0.246406 0)