/*--------------------------------*- C++ -*----------------------------------*\
  =========                 |
  \\      /  F ield         | OpenFOAM: The Open Source CFD Toolbox
   \\    /   O peration     | Website:  https://openfoam.org
    \\  /    A nd           | Version:  7
     \\/     M anipulation  |
\*---------------------------------------------------------------------------*/
FoamFile
{
    version     2.0;
    format      ascii;
    class       volScalarField;
    location    "2.495";
    object      alphat;
}
// * * * * * * * * * * * * * * * * * * * * * * * * * * * * * * * * * * * * * //

dimensions      [1 -1 -1 0 0 0 0];

internalField   nonuniform List<scalar> 
4950
(
0.0108241
0.0115276
0.0115526
0.01156
0.011555
0.0115565
0.0115511
0.0115511
0.0115463
0.0115463
0.0115425
0.0115426
0.0115396
0.0115399
0.0115375
0.0115377
0.0115367
0.0115352
0.0115408
0.0115734
0.00569231
0.0060641
0.00602374
0.00591061
0.00582671
0.00578386
0.00575427
0.00574043
0.00572649
0.00572011
0.00571126
0.00570741
0.00570099
0.00569846
0.00569376
0.00569193
0.00569183
0.00568574
0.00573948
0.00575901
0.00452582
0.00501474
0.00512374
0.00514976
0.00515451
0.00516093
0.00516289
0.00516675
0.005168
0.00517066
0.00517122
0.0051729
0.00517297
0.00517411
0.00517372
0.00517477
0.00517397
0.0051748
0.00517579
0.00518698
0.00442443
0.0049111
0.00503857
0.00508822
0.00511146
0.00513154
0.00514312
0.00515648
0.00516395
0.00517395
0.00517916
0.005187
0.00519072
0.005197
0.00519967
0.0052046
0.00520677
0.0052099
0.00521211
0.00522164
0.00441065
0.00490212
0.00503099
0.00508268
0.00510743
0.005129
0.00514203
0.00515694
0.00516601
0.00517769
0.00518459
0.00519411
0.00519951
0.00520734
0.00521161
0.0052179
0.00522153
0.0052261
0.00522914
0.00523952
0.00442443
0.0049111
0.00503857
0.00508823
0.00511146
0.00513154
0.00514312
0.00515649
0.00516395
0.00517395
0.00517916
0.005187
0.00519072
0.005197
0.00519967
0.00520461
0.00520678
0.00520989
0.00521222
0.00522163
0.00452582
0.00501474
0.00512374
0.00514976
0.00515451
0.00516093
0.00516289
0.00516675
0.00516801
0.00517065
0.00517123
0.00517288
0.00517299
0.00517408
0.00517378
0.0051747
0.0051741
0.00517458
0.00517622
0.0051865
0.00569231
0.0060641
0.00602374
0.00591061
0.00582671
0.00578386
0.00575427
0.00574043
0.00572649
0.00572011
0.00571125
0.00570741
0.00570098
0.00569841
0.00569376
0.0056918
0.00569192
0.00568547
0.00573952
0.00575703
0.0108241
0.0115276
0.0115526
0.01156
0.011555
0.0115565
0.0115511
0.0115511
0.0115463
0.0115463
0.0115425
0.0115426
0.0115396
0.0115399
0.0115375
0.0115378
0.0115365
0.0115356
0.0115403
0.0115736
0.00424947
0.00511004
0.00521914
0.00520109
0.00518597
0.00516269
0.00515658
0.005143
0.00514024
0.00513131
0.00512978
0.00512331
0.00512239
0.00511737
0.00511695
0.00511255
0.00511301
0.00510783
0.00510513
0.00513181
0.00366485
0.00464302
0.00483364
0.00487345
0.00488239
0.00488695
0.00488913
0.00489172
0.00489284
0.00489442
0.00489488
0.00489585
0.00489587
0.00489662
0.00489624
0.00489718
0.00489599
0.00489751
0.00489703
0.00490682
0.00357305
0.00454277
0.00473802
0.00478507
0.00479373
0.0047992
0.00479986
0.00480322
0.00480406
0.0048072
0.00480815
0.00481089
0.00481181
0.00481405
0.00481492
0.00481668
0.00481737
0.00481878
0.00481809
0.00482965
0.00357767
0.00454612
0.00473987
0.00478636
0.00479527
0.00479958
0.00479946
0.00480069
0.00480056
0.00480151
0.00480155
0.00480248
0.00480259
0.00480344
0.00480357
0.0048043
0.00480454
0.00480502
0.00480555
0.00481348
0.00356862
0.00453549
0.00472995
0.0047776
0.00478619
0.00479093
0.0047903
0.0047916
0.00479091
0.0047919
0.0047914
0.00479222
0.00479186
0.00479252
0.00479224
0.00479276
0.00479247
0.00479282
0.00479242
0.00479932
0.00357767
0.00454612
0.00473987
0.00478636
0.00479527
0.00479958
0.00479946
0.00480069
0.00480056
0.00480151
0.00480155
0.00480248
0.0048026
0.00480343
0.00480359
0.0048043
0.0048045
0.00480501
0.00480556
0.00481341
0.00357305
0.00454277
0.00473802
0.00478507
0.00479373
0.0047992
0.00479987
0.00480322
0.00480407
0.0048072
0.00480814
0.00481089
0.0048118
0.00481407
0.00481489
0.00481671
0.00481732
0.00481873
0.00481831
0.00482915
0.00366485
0.00464302
0.00483364
0.00487345
0.00488239
0.00488695
0.00488913
0.00489172
0.00489285
0.00489441
0.00489489
0.00489584
0.00489591
0.00489656
0.00489634
0.004897
0.00489623
0.004897
0.00489788
0.00490526
0.00424947
0.00511004
0.00521914
0.00520109
0.00518597
0.00516269
0.00515658
0.005143
0.00514024
0.00513131
0.00512978
0.00512331
0.0051224
0.00511736
0.005117
0.0051125
0.00511319
0.0051076
0.00510621
0.00512873
0.00101637
0.00185733
0.00208535
0.00212088
0.00210381
0.00206621
0.00202833
0.001997
0.00197206
0.00195142
0.00193617
0.00192222
0.00191272
0.00190258
0.00189636
0.00188887
0.00188359
0.00188032
0.00186937
0.00188707
0.000476112
0.00113699
0.00144066
0.001566
0.00161613
0.00164104
0.00165327
0.00166397
0.00167145
0.00167929
0.00168484
0.00169054
0.00169424
0.00169824
0.00170058
0.00170334
0.00170512
0.00170658
0.00170755
0.0017139
0.000440197
0.0010458
0.00131938
0.00144602
0.0014933
0.00151979
0.00152737
0.00153563
0.00153774
0.00154254
0.00154447
0.00154875
0.00155097
0.001555
0.00155756
0.00156115
0.00156371
0.00156714
0.00156867
0.00157521
0.000446474
0.00105933
0.00133203
0.00145425
0.0015007
0.00152461
0.00153185
0.00153741
0.00153821
0.00153988
0.00154003
0.00154067
0.00154085
0.00154134
0.00154181
0.00154216
0.00154297
0.0015433
0.0015442
0.00154847
0.000439376
0.00104405
0.0013137
0.00143869
0.00148458
0.00151024
0.0015167
0.00152307
0.00152346
0.00152498
0.00152468
0.00152515
0.00152483
0.00152506
0.00152483
0.00152495
0.00152475
0.00152484
0.00152431
0.00152764
0.000446474
0.00105933
0.00133203
0.00145425
0.0015007
0.00152461
0.00153185
0.00153741
0.00153821
0.00153988
0.00154003
0.00154067
0.00154086
0.00154134
0.00154181
0.00154216
0.00154296
0.00154329
0.00154417
0.00154846
0.000440197
0.0010458
0.00131938
0.00144602
0.0014933
0.00151979
0.00152737
0.00153563
0.00153775
0.00154253
0.00154448
0.00154875
0.00155096
0.00155501
0.00155753
0.00156116
0.00156369
0.00156707
0.00156869
0.00157505
0.000476112
0.00113699
0.00144066
0.001566
0.00161613
0.00164104
0.00165327
0.00166397
0.00167145
0.00167929
0.00168484
0.00169053
0.00169425
0.00169821
0.00170062
0.00170324
0.00170523
0.00170623
0.00170797
0.00171311
0.00101637
0.00185733
0.00208535
0.00212088
0.00210381
0.00206621
0.00202833
0.001997
0.00197207
0.00195142
0.00193617
0.00192222
0.00191274
0.00190259
0.00189644
0.00188885
0.0018839
0.00187996
0.00187072
0.00188516
0.00424947
0.00511004
0.00521914
0.00520109
0.00518597
0.00516269
0.00515658
0.005143
0.00514024
0.00513131
0.00512978
0.00512331
0.00512239
0.00511737
0.00511695
0.00511255
0.00511301
0.00510783
0.00510513
0.00513181
0.00366485
0.00464302
0.00483364
0.00487345
0.00488239
0.00488695
0.00488913
0.00489172
0.00489284
0.00489442
0.00489488
0.00489585
0.00489587
0.00489662
0.00489624
0.00489718
0.00489599
0.00489751
0.00489703
0.00490682
0.00357305
0.00454277
0.00473802
0.00478507
0.00479373
0.0047992
0.00479986
0.00480322
0.00480406
0.0048072
0.00480815
0.00481089
0.00481181
0.00481405
0.00481492
0.00481668
0.00481737
0.00481878
0.00481809
0.00482965
0.00357767
0.00454612
0.00473987
0.00478636
0.00479527
0.00479958
0.00479946
0.00480069
0.00480056
0.00480151
0.00480155
0.00480248
0.00480259
0.00480344
0.00480357
0.0048043
0.00480454
0.00480502
0.00480555
0.00481348
0.00356862
0.00453549
0.00472995
0.0047776
0.00478619
0.00479093
0.0047903
0.0047916
0.00479091
0.0047919
0.0047914
0.00479222
0.00479186
0.00479252
0.00479224
0.00479276
0.00479247
0.00479282
0.00479242
0.00479932
0.00357767
0.00454612
0.00473987
0.00478636
0.00479527
0.00479958
0.00479946
0.00480069
0.00480056
0.00480151
0.00480155
0.00480248
0.0048026
0.00480343
0.00480359
0.0048043
0.0048045
0.00480501
0.00480556
0.00481341
0.00357305
0.00454277
0.00473802
0.00478507
0.00479373
0.0047992
0.00479987
0.00480322
0.00480407
0.0048072
0.00480814
0.00481089
0.0048118
0.00481407
0.00481489
0.00481671
0.00481732
0.00481873
0.00481831
0.00482915
0.00366485
0.00464302
0.00483364
0.00487345
0.00488239
0.00488695
0.00488913
0.00489172
0.00489285
0.00489441
0.00489489
0.00489584
0.00489591
0.00489656
0.00489634
0.004897
0.00489623
0.004897
0.00489788
0.00490526
0.00424947
0.00511004
0.00521914
0.00520109
0.00518597
0.00516269
0.00515658
0.005143
0.00514024
0.00513131
0.00512978
0.00512331
0.0051224
0.00511736
0.005117
0.0051125
0.00511319
0.0051076
0.00510621
0.00512873
0.0108241
0.0115276
0.0115526
0.01156
0.011555
0.0115565
0.0115511
0.0115511
0.0115463
0.0115463
0.0115425
0.0115426
0.0115396
0.0115399
0.0115375
0.0115377
0.0115367
0.0115352
0.0115408
0.0115734
0.00569231
0.0060641
0.00602374
0.00591061
0.00582671
0.00578386
0.00575427
0.00574043
0.00572649
0.00572011
0.00571126
0.00570741
0.00570099
0.00569846
0.00569376
0.00569193
0.00569183
0.00568574
0.00573948
0.00575901
0.00452582
0.00501474
0.00512374
0.00514976
0.00515451
0.00516093
0.00516289
0.00516675
0.005168
0.00517066
0.00517122
0.0051729
0.00517297
0.00517411
0.00517372
0.00517477
0.00517397
0.0051748
0.00517579
0.00518698
0.00442443
0.0049111
0.00503857
0.00508822
0.00511146
0.00513154
0.00514312
0.00515648
0.00516395
0.00517395
0.00517916
0.005187
0.00519072
0.005197
0.00519967
0.0052046
0.00520677
0.0052099
0.00521211
0.00522164
0.00441065
0.00490212
0.00503099
0.00508268
0.00510743
0.005129
0.00514203
0.00515694
0.00516601
0.00517769
0.00518459
0.00519411
0.00519951
0.00520734
0.00521161
0.0052179
0.00522153
0.0052261
0.00522914
0.00523952
0.00442443
0.0049111
0.00503857
0.00508823
0.00511146
0.00513154
0.00514312
0.00515649
0.00516395
0.00517395
0.00517916
0.005187
0.00519072
0.005197
0.00519967
0.00520461
0.00520678
0.00520989
0.00521222
0.00522163
0.00452582
0.00501474
0.00512374
0.00514976
0.00515451
0.00516093
0.00516289
0.00516675
0.00516801
0.00517065
0.00517123
0.00517288
0.00517299
0.00517408
0.00517378
0.0051747
0.0051741
0.00517458
0.00517622
0.0051865
0.00569231
0.0060641
0.00602374
0.00591061
0.00582671
0.00578386
0.00575427
0.00574043
0.00572649
0.00572011
0.00571125
0.00570741
0.00570098
0.00569841
0.00569376
0.0056918
0.00569192
0.00568547
0.00573952
0.00575703
0.0108241
0.0115276
0.0115526
0.01156
0.011555
0.0115565
0.0115511
0.0115511
0.0115463
0.0115463
0.0115425
0.0115426
0.0115396
0.0115399
0.0115375
0.0115378
0.0115365
0.0115356
0.0115403
0.0115736
0.0337167
0.033841
0.0338415
0.03384
0.033834
0.0338324
0.0338279
0.0338265
0.0338228
0.0338213
0.033818
0.0338165
0.0338135
0.033812
0.0338093
0.0338077
0.0338051
0.0338035
0.0338011
0.0337995
0.0337972
0.0337955
0.0337933
0.0337916
0.0337893
0.0337876
0.0337854
0.0337837
0.0337815
0.0337797
0.0337775
0.0337758
0.0337736
0.0337719
0.0337698
0.0337681
0.0337661
0.0337644
0.0337625
0.033761
0.0337592
0.0337576
0.0337559
0.0337544
0.0337528
0.0337513
0.0337497
0.0337482
0.0337466
0.0337452
0.0337436
0.0337422
0.0337406
0.0337392
0.0337376
0.0337362
0.0337346
0.0337332
0.0337316
0.0337301
0.0337286
0.0337271
0.0337256
0.0337241
0.0337226
0.0337211
0.0337196
0.0337182
0.0337166
0.0337152
0.0337136
0.0337122
0.0337106
0.0337092
0.0337076
0.0337062
0.0337046
0.0337031
0.0337016
0.0337001
0.0336986
0.0336971
0.0336956
0.033694
0.0336925
0.0336909
0.0336894
0.0336879
0.0336813
0.033676
0.0197248
0.0202585
0.0202688
0.0202743
0.0202637
0.0202673
0.0202588
0.0202621
0.020255
0.0202577
0.0202514
0.0202535
0.020248
0.0202499
0.020245
0.0202467
0.0202421
0.0202435
0.0202393
0.0202405
0.0202367
0.0202376
0.020234
0.0202347
0.0202312
0.0202318
0.0202284
0.0202287
0.0202255
0.0202256
0.0202224
0.0202224
0.0202194
0.0202193
0.0202165
0.0202163
0.0202137
0.0202136
0.0202113
0.0202111
0.0202091
0.020209
0.0202072
0.0202072
0.0202056
0.0202056
0.0202041
0.0202041
0.0202026
0.0202026
0.0202012
0.0202011
0.0201998
0.0201997
0.0201984
0.0201982
0.020197
0.0201968
0.0201956
0.0201953
0.0201942
0.0201939
0.0201927
0.0201924
0.0201913
0.020191
0.0201899
0.0201896
0.0201885
0.0201881
0.0201871
0.0201866
0.0201856
0.0201852
0.0201842
0.0201837
0.0201827
0.0201822
0.0201812
0.0201807
0.0201797
0.0201791
0.0201782
0.0201775
0.0201766
0.0201759
0.0201749
0.0201745
0.0201702
0.0201683
0.0166063
0.0174469
0.0174847
0.0174967
0.0174823
0.0174884
0.0174762
0.0174817
0.0174714
0.0174765
0.0174672
0.0174715
0.0174631
0.0174672
0.0174598
0.0174636
0.0174568
0.0174602
0.0174539
0.017457
0.0174514
0.0174542
0.0174489
0.0174515
0.0174465
0.0174487
0.0174441
0.017446
0.0174417
0.0174433
0.0174392
0.0174406
0.0174369
0.017438
0.0174347
0.0174357
0.0174327
0.0174336
0.0174309
0.0174318
0.0174294
0.0174304
0.0174283
0.0174293
0.0174274
0.0174284
0.0174267
0.0174276
0.017426
0.0174269
0.0174254
0.0174262
0.0174248
0.0174255
0.0174242
0.0174249
0.0174236
0.0174242
0.017423
0.0174235
0.0174224
0.0174228
0.0174218
0.0174222
0.0174212
0.0174215
0.0174205
0.0174208
0.0174199
0.0174201
0.0174192
0.0174194
0.0174185
0.0174187
0.0174178
0.0174179
0.0174171
0.0174172
0.0174164
0.0174163
0.0174156
0.0174155
0.0174148
0.0174146
0.0174139
0.0174137
0.017413
0.0174126
0.0174124
0.0174052
0.0162264
0.0172741
0.0173513
0.0173732
0.0173595
0.0173665
0.0173536
0.0173596
0.0173485
0.0173542
0.0173442
0.017349
0.0173399
0.0173444
0.0173364
0.0173408
0.0173334
0.0173373
0.0173305
0.0173341
0.017328
0.0173314
0.0173257
0.0173288
0.0173234
0.0173262
0.0173213
0.0173238
0.0173192
0.0173214
0.0173172
0.0173191
0.0173152
0.0173169
0.0173133
0.0173149
0.0173117
0.0173131
0.0173103
0.0173116
0.0173091
0.0173105
0.0173083
0.0173096
0.0173077
0.017309
0.0173073
0.0173086
0.017307
0.0173082
0.0173068
0.0173079
0.0173065
0.0173075
0.0173063
0.0173072
0.017306
0.0173069
0.0173058
0.0173066
0.0173055
0.0173063
0.0173053
0.0173059
0.017305
0.0173056
0.0173047
0.0173052
0.0173044
0.0173049
0.0173041
0.0173045
0.0173037
0.0173041
0.0173034
0.0173037
0.017303
0.0173032
0.0173026
0.0173027
0.0173021
0.0173022
0.0173016
0.0173017
0.017301
0.017301
0.0173005
0.0173002
0.0173003
0.0172933
0.0162318
0.0173054
0.0173932
0.0174196
0.0174074
0.0174145
0.0174024
0.0174083
0.0173977
0.0174035
0.0173938
0.0173987
0.0173897
0.0173944
0.0173865
0.017391
0.0173839
0.0173879
0.0173813
0.0173851
0.017379
0.0173826
0.0173771
0.0173804
0.0173752
0.0173782
0.0173734
0.0173761
0.0173717
0.0173741
0.0173699
0.0173721
0.0173683
0.0173702
0.0173667
0.0173685
0.0173653
0.0173669
0.0173641
0.0173656
0.0173631
0.0173646
0.0173624
0.0173639
0.017362
0.0173634
0.0173617
0.0173631
0.0173615
0.0173628
0.0173614
0.0173626
0.0173613
0.0173624
0.0173612
0.0173622
0.017361
0.017362
0.0173609
0.0173618
0.0173608
0.0173616
0.0173606
0.0173614
0.0173605
0.0173612
0.0173603
0.017361
0.0173601
0.0173607
0.0173599
0.0173605
0.0173597
0.0173602
0.0173595
0.0173599
0.0173592
0.0173595
0.0173589
0.0173592
0.0173586
0.0173588
0.0173582
0.0173583
0.0173577
0.0173578
0.0173573
0.0173571
0.0173582
0.0173498
0.016227
0.0172773
0.0173571
0.0173806
0.0173691
0.0173761
0.0173651
0.0173709
0.0173614
0.0173671
0.0173584
0.0173633
0.0173552
0.0173598
0.0173527
0.0173572
0.0173507
0.0173548
0.0173488
0.0173525
0.0173471
0.0173506
0.0173456
0.0173489
0.0173442
0.0173471
0.0173428
0.0173455
0.0173415
0.0173439
0.0173402
0.0173423
0.0173388
0.0173407
0.0173375
0.0173392
0.0173363
0.0173378
0.0173352
0.0173367
0.0173343
0.0173357
0.0173336
0.017335
0.0173331
0.0173344
0.0173327
0.017334
0.0173324
0.0173337
0.0173322
0.0173334
0.017332
0.017333
0.0173318
0.0173328
0.0173316
0.0173325
0.0173313
0.0173322
0.0173311
0.0173319
0.0173309
0.0173315
0.0173306
0.0173312
0.0173303
0.0173309
0.0173301
0.0173306
0.0173298
0.0173302
0.0173295
0.0173298
0.0173291
0.0173294
0.0173287
0.017329
0.0173283
0.0173286
0.0173279
0.0173281
0.0173274
0.0173275
0.0173269
0.0173269
0.0173264
0.0173261
0.0173262
0.0173191
0.0166061
0.0174505
0.0174913
0.0175051
0.0174936
0.0174994
0.0174894
0.0174947
0.0174863
0.0174911
0.0174836
0.0174877
0.0174808
0.0174846
0.0174786
0.0174823
0.0174768
0.0174801
0.017475
0.017478
0.0174734
0.0174763
0.017472
0.0174746
0.0174706
0.017473
0.0174693
0.0174715
0.017468
0.0174699
0.0174667
0.0174684
0.0174653
0.0174668
0.017464
0.0174654
0.0174628
0.017464
0.0174616
0.0174627
0.0174605
0.0174616
0.0174596
0.0174607
0.0174589
0.0174599
0.0174582
0.0174592
0.0174576
0.0174585
0.0174571
0.0174579
0.0174565
0.0174573
0.017456
0.0174566
0.0174554
0.017456
0.0174548
0.0174554
0.0174543
0.0174547
0.0174537
0.0174541
0.0174531
0.0174535
0.0174525
0.0174528
0.0174519
0.0174522
0.0174513
0.0174515
0.0174507
0.0174508
0.01745
0.0174501
0.0174493
0.0174494
0.0174486
0.0174486
0.0174479
0.0174478
0.0174471
0.017447
0.0174463
0.0174461
0.0174454
0.017445
0.0174449
0.0174375
0.0197222
0.0202594
0.0202711
0.0202777
0.0202687
0.0202722
0.0202648
0.020268
0.0202619
0.0202646
0.0202591
0.0202612
0.0202563
0.0202582
0.0202539
0.0202556
0.0202516
0.0202531
0.0202494
0.0202507
0.0202473
0.0202484
0.0202453
0.0202463
0.0202433
0.0202442
0.0202414
0.0202421
0.0202395
0.0202401
0.0202376
0.0202381
0.0202357
0.0202361
0.0202339
0.0202342
0.020232
0.0202323
0.0202303
0.0202305
0.0202286
0.0202288
0.020227
0.0202272
0.0202255
0.0202256
0.0202241
0.0202242
0.0202227
0.0202227
0.0202213
0.0202213
0.02022
0.0202199
0.0202186
0.0202185
0.0202172
0.0202171
0.0202159
0.0202157
0.0202145
0.0202143
0.0202131
0.0202129
0.0202117
0.0202114
0.0202104
0.02021
0.020209
0.0202086
0.0202076
0.0202072
0.0202062
0.0202058
0.0202048
0.0202043
0.0202033
0.0202029
0.0202019
0.0202014
0.0202004
0.0201998
0.0201989
0.0201983
0.0201973
0.0201967
0.0201957
0.0201953
0.020191
0.0201892
0.0337626
0.033899
0.0339034
0.0339052
0.0339019
0.0339032
0.0339011
0.0339024
0.0339013
0.0339026
0.0339019
0.0339031
0.0339026
0.0339036
0.0339032
0.0339041
0.0339038
0.0339044
0.0339041
0.0339046
0.0339042
0.0339046
0.0339042
0.0339044
0.0339039
0.0339039
0.0339034
0.0339033
0.0339026
0.0339023
0.0339015
0.033901
0.0339001
0.0338994
0.0338983
0.0338975
0.0338962
0.0338953
0.0338939
0.0338927
0.0338912
0.03389
0.0338884
0.0338871
0.0338855
0.0338841
0.0338825
0.0338811
0.0338795
0.0338781
0.0338765
0.0338751
0.0338735
0.0338721
0.0338705
0.0338691
0.0338675
0.0338661
0.0338645
0.0338631
0.0338615
0.0338601
0.0338585
0.0338571
0.0338555
0.0338541
0.0338525
0.0338511
0.0338496
0.0338481
0.0338466
0.0338451
0.0338436
0.0338421
0.0338406
0.0338391
0.0338376
0.0338361
0.0338346
0.0338331
0.0338316
0.0338301
0.0338286
0.033827
0.0338255
0.0338239
0.0338223
0.0338208
0.0338142
0.0338089
0.0164556
0.0166671
0.0166701
0.0166686
0.0166659
0.0166656
0.0166631
0.0166637
0.0166611
0.0166618
0.0166589
0.0166597
0.0166569
0.0166578
0.016655
0.0166557
0.016653
0.0166536
0.016651
0.0166516
0.016649
0.0166494
0.0166469
0.0166472
0.0166447
0.0166448
0.0166424
0.0166424
0.01664
0.0166399
0.0166375
0.0166374
0.0166351
0.0166349
0.0166327
0.0166326
0.0166306
0.0166304
0.0166286
0.0166284
0.0166268
0.0166267
0.0166253
0.0166252
0.0166238
0.0166238
0.0166225
0.0166224
0.0166212
0.0166211
0.0166199
0.0166198
0.0166187
0.0166185
0.0166174
0.0166172
0.0166161
0.0166159
0.0166148
0.0166146
0.0166136
0.0166133
0.0166123
0.016612
0.016611
0.0166107
0.0166098
0.0166094
0.0166085
0.0166081
0.0166072
0.0166068
0.016606
0.0166056
0.0166047
0.0166043
0.0166035
0.0166031
0.0166023
0.0166019
0.016601
0.0166007
0.0165999
0.0165995
0.0165987
0.0165985
0.0165976
0.016598
0.0165951
0.0165952
0.0157795
0.016321
0.0163461
0.0163481
0.0163461
0.0163468
0.0163451
0.0163459
0.0163443
0.0163449
0.0163431
0.0163434
0.0163417
0.0163421
0.0163404
0.0163406
0.0163389
0.0163389
0.0163372
0.0163372
0.0163355
0.0163354
0.0163337
0.0163334
0.0163317
0.0163313
0.0163295
0.0163289
0.0163271
0.0163264
0.0163245
0.0163238
0.016322
0.0163212
0.0163194
0.0163187
0.0163171
0.0163164
0.0163149
0.0163143
0.0163131
0.0163125
0.0163115
0.016311
0.0163101
0.0163097
0.0163088
0.0163084
0.0163076
0.0163072
0.0163064
0.016306
0.0163052
0.0163048
0.016304
0.0163036
0.0163028
0.0163024
0.0163017
0.0163012
0.0163005
0.0163
0.0162993
0.0162988
0.0162981
0.0162976
0.0162969
0.0162964
0.0162957
0.0162952
0.0162945
0.016294
0.0162933
0.0162928
0.0162921
0.0162916
0.0162909
0.0162904
0.0162897
0.0162892
0.0162885
0.016288
0.0162873
0.0162868
0.0162861
0.0162857
0.0162848
0.0162844
0.0162838
0.0162828
0.0150518
0.0158793
0.0159459
0.0159551
0.015955
0.0159559
0.0159548
0.0159552
0.0159544
0.0159546
0.0159536
0.0159532
0.0159521
0.0159518
0.0159509
0.0159505
0.0159495
0.0159489
0.0159478
0.0159472
0.0159462
0.0159455
0.0159444
0.0159437
0.0159425
0.0159416
0.0159403
0.0159394
0.0159381
0.015937
0.0159356
0.0159344
0.015933
0.0159319
0.0159305
0.0159293
0.015928
0.015927
0.0159258
0.0159248
0.0159238
0.0159229
0.015922
0.0159213
0.0159205
0.0159199
0.0159192
0.0159186
0.0159179
0.0159173
0.0159167
0.0159161
0.0159155
0.0159149
0.0159142
0.0159136
0.015913
0.0159124
0.0159118
0.0159112
0.0159106
0.01591
0.0159094
0.0159088
0.0159081
0.0159075
0.0159069
0.0159063
0.0159057
0.0159051
0.0159044
0.0159039
0.0159032
0.0159026
0.015902
0.0159014
0.0159007
0.0159001
0.0158995
0.0158989
0.0158982
0.0158976
0.0158969
0.0158964
0.0158956
0.0158951
0.0158942
0.0158937
0.0158932
0.015887
0.0148567
0.0157765
0.0158636
0.0158757
0.0158767
0.0158775
0.0158766
0.0158768
0.0158764
0.0158764
0.0158757
0.0158752
0.0158743
0.0158737
0.015873
0.0158725
0.0158717
0.015871
0.01587
0.0158693
0.0158684
0.0158677
0.0158668
0.0158659
0.0158649
0.015864
0.0158629
0.0158619
0.0158608
0.0158597
0.0158585
0.0158573
0.015856
0.0158548
0.0158535
0.0158523
0.0158511
0.0158499
0.0158488
0.0158477
0.0158466
0.0158457
0.0158448
0.0158439
0.0158432
0.0158424
0.0158417
0.015841
0.0158404
0.0158397
0.0158391
0.0158384
0.0158378
0.0158371
0.0158365
0.0158358
0.0158352
0.0158346
0.0158339
0.0158333
0.0158327
0.015832
0.0158314
0.0158307
0.0158301
0.0158294
0.0158288
0.0158282
0.0158275
0.0158269
0.0158262
0.0158256
0.015825
0.0158243
0.0158237
0.015823
0.0158224
0.0158217
0.0158211
0.0158204
0.0158197
0.0158191
0.0158184
0.0158178
0.015817
0.0158164
0.0158156
0.015815
0.015814
0.0158091
0.0147145
0.0156953
0.0157917
0.0158054
0.0158066
0.0158077
0.0158069
0.0158072
0.015807
0.0158072
0.0158067
0.0158062
0.0158053
0.0158047
0.015804
0.0158036
0.0158028
0.0158021
0.0158012
0.0158005
0.0157996
0.0157989
0.015798
0.0157972
0.0157962
0.0157953
0.0157943
0.0157934
0.0157923
0.0157913
0.0157901
0.015789
0.0157878
0.0157867
0.0157854
0.0157843
0.0157831
0.015782
0.0157809
0.0157798
0.0157788
0.0157778
0.0157769
0.015776
0.0157753
0.0157745
0.0157738
0.0157731
0.0157724
0.0157717
0.0157711
0.0157704
0.0157698
0.0157691
0.0157685
0.0157678
0.0157672
0.0157665
0.0157659
0.0157653
0.0157646
0.015764
0.0157633
0.0157627
0.015762
0.0157614
0.0157607
0.0157601
0.0157594
0.0157588
0.0157581
0.0157575
0.0157568
0.0157562
0.0157555
0.0157549
0.0157542
0.0157536
0.0157529
0.0157523
0.0157516
0.0157509
0.0157502
0.0157496
0.0157488
0.0157482
0.0157474
0.0157466
0.0157463
0.0157397
0.0148563
0.0157752
0.015862
0.0158744
0.0158757
0.0158767
0.0158762
0.0158766
0.0158764
0.0158767
0.0158762
0.0158757
0.0158749
0.0158743
0.0158737
0.0158733
0.0158725
0.0158718
0.015871
0.0158702
0.0158694
0.0158687
0.0158679
0.0158671
0.0158662
0.0158653
0.0158644
0.0158635
0.0158626
0.0158616
0.0158606
0.0158595
0.0158584
0.0158574
0.0158563
0.0158552
0.0158542
0.0158531
0.0158521
0.0158511
0.0158501
0.0158492
0.0158483
0.0158475
0.0158467
0.015846
0.0158453
0.0158446
0.015844
0.0158433
0.0158427
0.015842
0.0158414
0.0158407
0.0158401
0.0158395
0.0158389
0.0158382
0.0158376
0.0158369
0.0158363
0.0158357
0.015835
0.0158344
0.0158338
0.0158331
0.0158325
0.0158318
0.0158312
0.0158306
0.0158299
0.0158293
0.0158286
0.015828
0.0158274
0.0158267
0.0158261
0.0158254
0.0158248
0.0158242
0.0158235
0.0158229
0.0158221
0.0158215
0.0158208
0.0158202
0.0158194
0.0158187
0.0158179
0.0158132
0.0150503
0.0158775
0.0159449
0.0159544
0.0159552
0.0159565
0.015956
0.0159566
0.0159563
0.0159567
0.015956
0.0159557
0.0159547
0.0159544
0.0159536
0.0159532
0.0159523
0.0159518
0.0159507
0.0159502
0.0159492
0.0159486
0.0159477
0.015947
0.015946
0.0159453
0.0159442
0.0159435
0.0159425
0.0159417
0.0159406
0.0159398
0.0159387
0.0159378
0.0159368
0.0159359
0.0159349
0.015934
0.015933
0.0159322
0.0159313
0.0159305
0.0159297
0.015929
0.0159283
0.0159277
0.015927
0.0159264
0.0159257
0.0159252
0.0159245
0.0159239
0.0159233
0.0159227
0.0159221
0.0159215
0.0159209
0.0159203
0.0159197
0.0159191
0.0159185
0.0159179
0.0159173
0.0159167
0.0159161
0.0159155
0.0159149
0.0159143
0.0159137
0.0159131
0.0159125
0.0159119
0.0159112
0.0159107
0.01591
0.0159094
0.0159088
0.0159082
0.0159076
0.015907
0.0159063
0.0159058
0.0159051
0.0159045
0.0159038
0.0159032
0.0159024
0.0159018
0.0159018
0.0158959
0.01578
0.0163263
0.0163536
0.0163568
0.0163563
0.0163574
0.0163565
0.0163576
0.0163565
0.0163574
0.0163559
0.0163564
0.0163548
0.0163552
0.0163537
0.016354
0.0163524
0.0163525
0.0163509
0.016351
0.0163494
0.0163494
0.0163479
0.0163478
0.0163463
0.0163462
0.0163447
0.0163445
0.0163431
0.0163428
0.0163414
0.0163411
0.0163397
0.0163393
0.016338
0.0163377
0.0163364
0.016336
0.0163348
0.0163344
0.0163333
0.016333
0.016332
0.0163316
0.0163307
0.0163303
0.0163295
0.0163291
0.0163283
0.016328
0.0163271
0.0163268
0.016326
0.0163256
0.0163248
0.0163244
0.0163237
0.0163233
0.0163225
0.0163221
0.0163213
0.0163209
0.0163202
0.0163198
0.016319
0.0163186
0.0163179
0.0163174
0.0163167
0.0163162
0.0163155
0.0163151
0.0163144
0.0163139
0.0163132
0.0163127
0.016312
0.0163116
0.0163109
0.0163104
0.0163097
0.0163092
0.0163085
0.0163081
0.0163074
0.016307
0.0163062
0.0163057
0.0163057
0.0163048
0.0164854
0.016711
0.0167185
0.0167187
0.0167182
0.016719
0.0167179
0.0167193
0.0167179
0.0167195
0.0167178
0.0167194
0.0167175
0.0167191
0.0167172
0.0167187
0.0167167
0.0167181
0.0167162
0.0167175
0.0167156
0.0167168
0.016715
0.016716
0.0167142
0.0167151
0.0167134
0.0167142
0.0167125
0.0167132
0.0167115
0.0167121
0.0167105
0.0167109
0.0167093
0.0167097
0.0167081
0.0167084
0.0167069
0.0167071
0.0167056
0.0167057
0.0167043
0.0167044
0.016703
0.0167031
0.0167018
0.0167018
0.0167005
0.0167005
0.0166993
0.0166992
0.016698
0.0166979
0.0166968
0.0166966
0.0166955
0.0166953
0.0166943
0.0166941
0.016693
0.0166928
0.0166918
0.0166915
0.0166906
0.0166903
0.0166893
0.016689
0.0166881
0.0166877
0.0166868
0.0166865
0.0166856
0.0166853
0.0166844
0.016684
0.0166832
0.0166828
0.016682
0.0166817
0.0166809
0.0166805
0.0166797
0.0166795
0.0166787
0.0166785
0.0166777
0.0166781
0.0166756
0.0166758
0.00737649
0.00762552
0.00763351
0.00762988
0.00763175
0.00763369
0.00763526
0.00763959
0.00763956
0.00764472
0.00764326
0.00764882
0.00764643
0.00765201
0.00764897
0.00765426
0.0076508
0.00765579
0.00765213
0.0076568
0.00765302
0.00765729
0.00765347
0.00765735
0.00765356
0.00765708
0.00765336
0.00765652
0.0076529
0.00765574
0.0076523
0.00765489
0.00765165
0.00765407
0.00765106
0.00765334
0.00765058
0.00765276
0.00765026
0.00765237
0.00765013
0.00765216
0.00765014
0.00765208
0.00765023
0.00765207
0.00765036
0.00765208
0.00765049
0.00765209
0.00765061
0.0076521
0.00765072
0.0076521
0.00765081
0.00765209
0.00765089
0.00765208
0.00765096
0.00765207
0.00765102
0.00765206
0.00765108
0.00765206
0.00765114
0.00765206
0.0076512
0.00765207
0.00765127
0.0076521
0.00765135
0.00765216
0.00765145
0.00765223
0.00765157
0.00765235
0.00765172
0.00765251
0.00765192
0.00765272
0.00765216
0.00765298
0.00765245
0.00765328
0.00765276
0.00765359
0.00765296
0.00765418
0.00765209
0.00765275
0.00712369
0.0078395
0.00790558
0.0079113
0.00791174
0.00791299
0.00791292
0.00791464
0.00791416
0.00791583
0.00791484
0.00791646
0.00791528
0.00791691
0.00791557
0.00791705
0.00791553
0.00791684
0.00791527
0.00791648
0.00791488
0.00791592
0.00791425
0.00791509
0.00791339
0.00791408
0.00791235
0.00791287
0.00791112
0.00791148
0.00790977
0.00791001
0.00790842
0.00790858
0.00790714
0.00790726
0.007906
0.00790612
0.00790507
0.00790524
0.00790438
0.00790462
0.00790392
0.00790421
0.00790362
0.00790393
0.0079034
0.00790371
0.00790323
0.00790352
0.00790306
0.00790333
0.0079029
0.00790314
0.00790273
0.00790295
0.00790256
0.00790275
0.00790238
0.00790256
0.00790221
0.00790236
0.00790202
0.00790216
0.00790184
0.00790197
0.00790166
0.00790178
0.00790148
0.00790159
0.00790131
0.00790141
0.00790114
0.00790124
0.00790098
0.00790108
0.00790083
0.00790094
0.0079007
0.00790082
0.00790058
0.00790071
0.00790047
0.00790062
0.00790037
0.00790053
0.00790029
0.00790019
0.00790034
0.0079009
0.00642919
0.00745308
0.007598
0.00762194
0.00762581
0.00762759
0.0076275
0.00762826
0.00762804
0.00762845
0.00762793
0.007628
0.00762744
0.00762753
0.00762706
0.00762707
0.0076265
0.00762635
0.00762573
0.00762555
0.00762494
0.0076247
0.00762403
0.00762366
0.00762291
0.00762245
0.00762165
0.00762111
0.00762024
0.00761959
0.00761865
0.00761794
0.007617
0.00761629
0.0076154
0.00761472
0.0076139
0.00761328
0.00761258
0.00761206
0.00761149
0.00761109
0.00761065
0.00761034
0.00761002
0.00760977
0.00760951
0.00760929
0.00760906
0.00760886
0.00760865
0.00760845
0.00760824
0.00760805
0.00760783
0.00760764
0.00760742
0.00760723
0.00760702
0.00760683
0.00760661
0.00760642
0.0076062
0.00760601
0.00760579
0.00760561
0.00760539
0.0076052
0.00760498
0.00760479
0.00760457
0.00760439
0.00760417
0.00760399
0.00760377
0.00760359
0.00760337
0.00760319
0.00760297
0.0076028
0.00760257
0.00760241
0.00760217
0.00760201
0.00760176
0.00760162
0.00760134
0.00760122
0.00760119
0.00759892
0.00616618
0.00727311
0.00745437
0.00748423
0.00749068
0.0074907
0.00749125
0.0074903
0.00749064
0.00748973
0.00748959
0.00748844
0.00748806
0.00748713
0.00748686
0.00748611
0.00748571
0.0074849
0.00748439
0.00748366
0.00748319
0.00748253
0.00748201
0.0074813
0.00748068
0.00747993
0.00747928
0.00747851
0.00747779
0.00747695
0.00747613
0.00747523
0.00747438
0.00747347
0.00747264
0.00747176
0.00747097
0.00747014
0.00746942
0.00746868
0.00746806
0.00746745
0.00746696
0.00746646
0.00746608
0.00746567
0.00746536
0.00746499
0.00746472
0.00746439
0.00746413
0.0074638
0.00746355
0.00746323
0.00746298
0.00746267
0.00746241
0.0074621
0.00746185