/*--------------------------------*- C++ -*----------------------------------*\
  =========                 |
  \\      /  F ield         | OpenFOAM: The Open Source CFD Toolbox
   \\    /   O peration     | Website:  https://openfoam.org
    \\  /    A nd           | Version:  7
     \\/     M anipulation  |
\*---------------------------------------------------------------------------*/
FoamFile
{
    version     2.0;
    format      ascii;
    class       volVectorField;
    location    "0.015";
    object      U_0;
}
// * * * * * * * * * * * * * * * * * * * * * * * * * * * * * * * * * * * * * //

dimensions      [0 1 -1 0 0 0 0];

internalField   nonuniform List<vector> 
1440
(
(19.7386 0.0618948 0)
(19.6252 0.226447 0)
(19.3527 0.374846 0)
(18.9349 0.492764 0)
(18.4094 0.579167 0)
(17.8083 0.633604 0)
(17.1602 0.658767 0)
(16.4831 0.658572 0)
(15.7988 0.639853 0)
(15.1169 0.607654 0)
(14.4546 0.566669 0)
(13.8171 0.52304 0)
(13.2099 0.477276 0)
(12.6378 0.43048 0)
(12.102 0.384396 0)
(11.6033 0.340037 0)
(11.1416 0.298144 0)
(10.7165 0.259275 0)
(10.327 0.223621 0)
(9.9716 0.191143 0)
(9.64805 0.161859 0)
(9.35439 0.13569 0)
(9.08868 0.112321 0)
(8.84843 0.0915648 0)
(8.63085 0.0734739 0)
(8.43373 0.0579983 0)
(8.25511 0.0448636 0)
(8.09269 0.0338561 0)
(7.94409 0.0250174 0)
(7.80746 0.0184339 0)
(7.68158 0.013883 0)
(7.56546 0.0107379 0)
(7.45817 0.00817939 0)
(7.35897 0.00552315 0)
(7.26734 0.00244527 0)
(7.18297 -0.00101955 0)
(7.10566 -0.00461341 0)
(7.03511 -0.00799123 0)
(6.97098 -0.0108302 0)
(6.91283 -0.0129073 0)
(6.86017 -0.0141445 0)
(6.81251 -0.0145994 0)
(6.76936 -0.0143833 0)
(6.73024 -0.0135914 0)
(6.69467 -0.0122749 0)
(6.66214 -0.0104436 0)
(6.63213 -0.0081092 0)
(6.60409 -0.00532549 0)
(6.57751 -0.00218002 0)
(6.55194 0.00122184 0)
(6.52699 0.00475095 0)
(6.50239 0.00825973 0)
(6.4779 0.0116041 0)
(6.45337 0.0146591 0)
(6.42876 0.0173367 0)
(6.40409 0.019604 0)
(6.37951 0.0214823 0)
(6.35516 0.0230197 0)
(6.3312 0.0242709 0)
(6.30772 0.0252861 0)
(6.28474 0.0260868 0)
(6.26223 0.0266638 0)
(6.24015 0.0269983 0)
(6.21853 0.0270839 0)
(6.19744 0.0269379 0)
(6.17701 0.0265978 0)
(6.15735 0.0261185 0)
(6.13851 0.0255672 0)
(6.12046 0.0250106 0)
(6.10304 0.0245076 0)
(6.086 0.0241087 0)
(6.06905 0.0238506 0)
(6.05193 0.023754 0)
(6.0345 0.0238312 0)
(6.01669 0.0240876 0)
(5.9986 0.0245126 0)
(5.98035 0.0250682 0)
(5.96216 0.0256934 0)
(5.94425 0.0263153 0)
(5.9268 0.0268632 0)
(5.90997 0.0272852 0)
(5.89386 0.0275576 0)
(5.87847 0.0276841 0)
(5.8638 0.0276896 0)
(5.84974 0.0276122 0)
(5.8362 0.0274895 0)
(5.82304 0.0273548 0)
(5.81016 0.0272312 0)
(5.79744 0.0271325 0)
(5.78482 0.0270629 0)
(5.77222 0.0270212 0)
(5.75962 0.0270022 0)
(5.74701 0.0269996 0)
(5.73437 0.0270055 0)
(5.72172 0.0270155 0)
(5.70906 0.0270249 0)
(5.69642 0.0270312 0)
(5.6838 0.0270318 0)
(5.67122 0.0270264 0)
(5.65871 0.0270133 0)
(5.64627 0.0269933 0)
(5.63394 0.0269643 0)
(5.6217 0.0269286 0)
(5.60961 0.0268819 0)
(5.59764 0.0268309 0)
(5.58585 0.0267639 0)
(5.5742 0.0266978 0)
(5.5628 0.0266052 0)
(5.55152 0.0265249 0)
(5.54058 0.0263958 0)
(5.52971 0.0263047 0)
(5.51941 0.026119 0)
(5.50892 0.0260281 0)
(5.49956 0.0257475 0)
(5.48927 0.0256875 0)
(5.48141 0.0252085 0)
(5.47109 0.0252638 0)
(5.46514 0.0242491 0)
(5.45599 0.02459 0)
(5.44778 0.0225518 0)
(19.7566 0.0854603 0)
(19.8133 0.233585 0)
(19.9148 0.357622 0)
(20.0467 0.464831 0)
(20.1924 0.558866 0)
(20.3361 0.638532 0)
(20.4661 0.702249 0)
(20.5734 0.749908 0)
(20.6538 0.783017 0)
(20.7051 0.803537 0)
(20.7281 0.813102 0)
(20.7242 0.81344 0)
(20.6953 0.805575 0)
(20.6449 0.790391 0)
(20.5762 0.769097 0)
(20.4926 0.743028 0)
(20.397 0.71341 0)
(20.2918 0.681296 0)
(20.1795 0.647594 0)
(20.0622 0.613047 0)
(19.9415 0.578352 0)
(19.8189 0.544147 0)
(19.6956 0.510908 0)
(19.5725 0.479042 0)
(19.4502 0.448885 0)
(19.3292 0.420667 0)
(19.2098 0.394501 0)
(19.0922 0.370458 0)
(18.9762 0.348565 0)
(18.8618 0.328779 0)
(18.7486 0.311029 0)
(18.6366 0.29515 0)
(18.5256 0.280895 0)
(18.4154 0.267935 0)
(18.3057 0.255864 0)
(18.1966 0.244323 0)
(18.0882 0.233089 0)
(17.9805 0.222093 0)
(17.8739 0.21136 0)
(17.7687 0.200922 0)
(17.6651 0.190808 0)
(17.5636 0.181062 0)
(17.4645 0.171728 0)
(17.368 0.162815 0)
(17.2746 0.154336 0)
(17.1843 0.146341 0)
(17.0976 0.138915 0)
(17.0145 0.132107 0)
(16.9352 0.125905 0)
(16.8598 0.120253 0)
(16.7883 0.115109 0)
(16.7208 0.110469 0)
(16.6575 0.106319 0)
(16.5983 0.102568 0)
(16.5433 0.0990616 0)
(16.4926 0.0956494 0)
(16.4461 0.0922287 0)
(16.4038 0.0888026 0)
(16.3654 0.0854915 0)
(16.3308 0.082463 0)
(16.2995 0.0798493 0)
(16.2713 0.0776931 0)
(16.2458 0.0759108 0)
(16.2228 0.0743121 0)
(16.2019 0.072712 0)
(16.183 0.0710484 0)
(16.1659 0.0693995 0)
(16.15 0.0679459 0)
(16.1352 0.0669285 0)
(16.1207 0.0665744 0)
(16.1063 0.0669931 0)
(16.0913 0.068109 0)
(16.0754 0.0696764 0)
(16.0584 0.0713503 0)
(16.0403 0.0727731 0)
(16.021 0.0736518 0)
(16.0007 0.0738104 0)
(15.9798 0.073211 0)
(15.9587 0.071947 0)
(15.9377 0.0702133 0)
(15.9174 0.0682582 0)
(15.8982 0.0663298 0)
(15.8802 0.0646305 0)
(15.8637 0.0632908 0)
(15.8485 0.0623633 0)
(15.8346 0.0618335 0)
(15.8217 0.0616399 0)
(15.8097 0.0616971 0)
(15.7983 0.0619161 0)
(15.7873 0.0622187 0)
(15.7765 0.0625453 0)
(15.7659 0.0628553 0)
(15.7554 0.063126 0)
(15.7449 0.0633471 0)
(15.7344 0.063519 0)
(15.724 0.0636448 0)
(15.7135 0.0637314 0)
(15.7031 0.063781 0)
(15.6927 0.0637994 0)
(15.6824 0.0637861 0)
(15.6721 0.0637473 0)
(15.6619 0.0636798 0)
(15.6519 0.0635921 0)
(15.6419 0.0634758 0)
(15.6321 0.0633446 0)
(15.6224 0.0631792 0)
(15.6128 0.0630055 0)
(15.6035 0.0627822 0)
(15.5942 0.0625645 0)
(15.5854 0.0622614 0)
(15.5764 0.0620006 0)
(15.5683 0.0615729 0)
(15.5595 0.0612875 0)
(15.5522 0.0606421 0)
(15.5438 0.0603933 0)
(15.5375 0.0593367 0)
(15.5297 0.0592561 0)
(15.5241 0.0573834 0)
(15.5186 0.0576206 0)
(15.5111 0.0544424 0)
(19.7539 0.051184 0)
(19.7763 0.14888 0)
(19.8282 0.237733 0)
(19.9115 0.316937 0)
(20.022 0.387106 0)
(20.1545 0.448013 0)
(20.304 0.498747 0)
(20.4663 0.538655 0)
(20.637 0.567853 0)
(20.8118 0.586978 0)
(20.9862 0.596758 0)
(21.1567 0.598129 0)
(21.3205 0.592351 0)
(21.4759 0.580669 0)
(21.6217 0.564297 0)
(21.7572 0.54437 0)
(21.8821 0.521879 0)
(21.996 0.497691 0)
(22.0992 0.472553 0)
(22.1918 0.447067 0)
(22.2743 0.421762 0)
(22.3473 0.397144 0)
(22.4113 0.373623 0)
(22.467 0.351493 0)
(22.5151 0.331032 0)
(22.5561 0.312501 0)
(22.591 0.296029 0)
(22.6202 0.281603 0)
(22.6444 0.269181 0)
(22.6642 0.25872 0)
(22.6801 0.250104 0)
(22.6927 0.243057 0)
(22.7023 0.237167 0)
(22.7091 0.231976 0)
(22.7131 0.227078 0)
(22.7144 0.222194 0)
(22.7129 0.217207 0)
(22.7088 0.212137 0)
(22.7023 0.207065 0)
(22.6936 0.202068 0)
(22.6829 0.197198 0)
(22.6703 0.192478 0)
(22.6561 0.187899 0)
(22.6404 0.183426 0)
(22.6233 0.179027 0)
(22.6049 0.174703 0)
(22.5855 0.170495 0)
(22.5652 0.166459 0)
(22.5443 0.162607 0)
(22.5231 0.158896 0)
(22.5018 0.155248 0)
(22.4804 0.151585 0)
(22.4592 0.147852 0)
(22.4382 0.143991 0)
(22.4176 0.139924 0)
(22.3974 0.135559 0)
(22.3777 0.130847 0)
(22.3588 0.125835 0)
(22.3406 0.120653 0)
(22.3233 0.115481 0)
(22.307 0.110496 0)
(22.2919 0.10581 0)
(22.278 0.101426 0)
(22.2655 0.0972802 0)
(22.2544 0.0933037 0)
(22.2446 0.0894588 0)
(22.2358 0.0857692 0)
(22.2279 0.0823658 0)
(22.2206 0.0794481 0)
(22.2139 0.0771983 0)
(22.2077 0.0757383 0)
(22.2026 0.0751127 0)
(22.1986 0.0752925 0)
(22.1961 0.0761969 0)
(22.1949 0.0776978 0)
(22.1946 0.0795886 0)
(22.1946 0.0815723 0)
(22.1941 0.083301 0)
(22.1926 0.0844509 0)
(22.1893 0.0847947 0)
(22.1841 0.0842492 0)
(22.1771 0.0828811 0)
(22.1683 0.0808868 0)
(22.1584 0.0785393 0)
(22.1477 0.0761342 0)
(22.1369 0.0739254 0)
(22.1264 0.0720928 0)
(22.1166 0.0707228 0)
(22.1076 0.0698238 0)
(22.0997 0.0693417 0)
(22.0928 0.0691896 0)
(22.0868 0.0692678 0)
(22.0816 0.0694868 0)
(22.0771 0.0697711 0)
(22.0731 0.0700679 0)
(22.0697 0.0703406 0)
(22.0665 0.0705715 0)
(22.0636 0.0707515 0)
(22.061 0.0708815 0)
(22.0584 0.0709606 0)
(22.0561 0.070994 0)
(22.0538 0.0709804 0)
(22.0516 0.0709279 0)
(22.0495 0.0708324 0)
(22.0475 0.0707074 0)
(22.0457 0.0705383 0)
(22.0439 0.0703504 0)
(22.0423 0.070103 0)
(22.0406 0.0698533 0)
(22.0394 0.0695018 0)
(22.0378 0.0691894 0)
(22.037 0.0686809 0)
(22.0356 0.0683174 0)
(22.0354 0.0675516 0)
(22.034 0.0671782 0)
(22.0346 0.0659674 0)
(22.0332 0.0656705 0)
(22.0348 0.0636761 0)
(22.0334 0.0635535 0)
(22.0354 0.0602304 0)
(19.7537 0.0349262 0)
(19.772 0.103194 0)
(19.8162 0.167043 0)
(19.889 0.224363 0)
(19.9867 0.274429 0)
(20.1037 0.317113 0)
(20.2354 0.352221 0)
(20.3787 0.379556 0)
(20.5311 0.399247 0)
(20.6898 0.411876 0)
(20.852 0.418328 0)
(21.0153 0.419647 0)
(21.1775 0.416919 0)
(21.3372 0.411071 0)
(21.4933 0.402837 0)
(21.6446 0.392818 0)
(21.7904 0.38153 0)
(21.9298 0.369412 0)
(22.0625 0.356805 0)
(22.188 0.343954 0)
(22.3064 0.331091 0)
(22.4175 0.318469 0)
(22.5216 0.306308 0)
(22.6188 0.294777 0)
(22.7096 0.284019 0)
(22.7942 0.274176 0)
(22.8731 0.265337 0)
(22.9469 0.257519 0)
(23.0161 0.2507 0)
(23.0813 0.244832 0)
(23.1427 0.239811 0)
(23.2011 0.235451 0)
(23.2568 0.231507 0)
(23.31 0.227741 0)
(23.361 0.223958 0)
(23.4098 0.220032 0)
(23.4564 0.215928 0)
(23.5011 0.211702 0)
(23.5439 0.20743 0)
(23.5847 0.203143 0)
(23.6238 0.198818 0)
(23.661 0.194421 0)
(23.6966 0.189954 0)
(23.7305 0.185448 0)
(23.7628 0.180948 0)
(23.7935 0.176493 0)
(23.8228 0.172099 0)
(23.8506 0.167748 0)
(23.8771 0.163404 0)
(23.9022 0.159037 0)
(23.9261 0.154644 0)
(23.9488 0.150245 0)
(23.9703 0.145844 0)
(23.9906 0.141405 0)
(24.0098 0.136857 0)
(24.0278 0.132151 0)
(24.0445 0.127288 0)
(24.0598 0.122314 0)
(24.0736 0.117315 0)
(24.086 0.112383 0)
(24.097 0.107598 0)
(24.1068 0.103013 0)
(24.1157 0.0986617 0)
(24.1238 0.0945839 0)
(24.131 0.0908558 0)
(24.1372 0.0875761 0)
(24.1425 0.0848139 0)
(24.1468 0.0825883 0)
(24.1505 0.0808801 0)
(24.154 0.0796324 0)
(24.1575 0.0787606 0)
(24.1614 0.0781878 0)
(24.1658 0.0778782 0)
(24.1707 0.0778437 0)
(24.1761 0.0781257 0)
(24.182 0.0787559 0)
(24.1882 0.0797163 0)
(24.1947 0.0809245 0)
(24.2016 0.0822493 0)
(24.2086 0.0835367 0)
(24.2155 0.0846347 0)
(24.2222 0.08541 0)
(24.2283 0.0857632 0)
(24.2336 0.0856359 0)
(24.238 0.0850206 0)
(24.2415 0.0839626 0)
(24.2441 0.0825516 0)
(24.2461 0.0809047 0)
(24.2477 0.0791495 0)
(24.249 0.0774038 0)
(24.2505 0.0757649 0)
(24.2522 0.0742999 0)
(24.2543 0.0730466 0)
(24.2569 0.0720141 0)
(24.26 0.071195 0)
(24.2636 0.0705669 0)
(24.2677 0.0701021 0)
(24.2722 0.0697631 0)
(24.2771 0.0695173 0)
(24.2823 0.0693308 0)
(24.2876 0.0691796 0)
(24.2933 0.069041 0)
(24.299 0.0689039 0)
(24.305 0.0687516 0)
(24.311 0.068586 0)
(24.3172 0.0683867 0)
(24.3234 0.0681727 0)
(24.3298 0.0679024 0)
(24.3362 0.067628 0)
(24.3429 0.067253 0)
(24.3493 0.0669081 0)
(24.3565 0.0663713 0)
(24.3627 0.0659545 0)
(24.3706 0.0651594 0)
(24.3764 0.0646927 0)
(24.3853 0.0634741 0)
(24.39 0.0630228 0)
(24.4008 0.0611162 0)
(24.4033 0.0608077 0)
(24.4173 0.057804 0)
(19.7536 0.0206244 0)
(19.7697 0.0611481 0)
(19.8098 0.0993537 0)
(19.8768 0.133755 0)
(19.9682 0.16366 0)
(20.0789 0.189026 0)
(20.2042 0.209946 0)
(20.3408 0.226458 0)
(20.4865 0.238665 0)
(20.6387 0.246918 0)
(20.7949 0.251785 0)
(20.9527 0.253875 0)
(21.1098 0.253721 0)
(21.2648 0.251727 0)
(21.4164 0.248181 0)
(21.5637 0.243312 0)
(21.7058 0.237341 0)
(21.8422 0.230497 0)
(21.9722 0.223 0)
(22.0957 0.215046 0)
(22.2126 0.206814 0)
(22.3228 0.198484 0)
(22.4266 0.19024 0)
(22.5242 0.182264 0)
(22.6158 0.174722 0)
(22.7018 0.167755 0)
(22.7826 0.161467 0)
(22.8587 0.155916 0)
(22.9305 0.151117 0)
(22.9986 0.147044 0)
(23.0632 0.143619 0)
(23.1249 0.140713 0)
(23.1841 0.138167 0)
(23.241 0.135824 0)
(23.2959 0.133552 0)
(23.349 0.131246 0)
(23.4002 0.128841 0)
(23.4497 0.126321 0)
(23.4976 0.1237 0)
(23.5439 0.120998 0)
(23.5887 0.11822 0)
(23.6322 0.115377 0)
(23.6742 0.112502 0)
(23.715 0.109653 0)
(23.7544 0.106879 0)
(23.7925 0.104214 0)
(23.8294 0.101647 0)
(23.865 0.0991346 0)
(23.8995 0.096646 0)
(23.9329 0.094196 0)
(23.965 0.0918419 0)
(23.9959 0.0896436 0)
(24.0256 0.0875968 0)
(24.0541 0.0855983 0)
(24.0814 0.0835059 0)
(24.1074 0.0812414 0)
(24.1319 0.0788378 0)
(24.1548 0.0764067 0)
(24.176 0.0740572 0)
(24.1954 0.0718187 0)
(24.2132 0.069636 0)
(24.2293 0.0674433 0)
(24.2438 0.0652486 0)
(24.2568 0.06316 0)
(24.2683 0.06135 0)
(24.2783 0.0599813 0)
(24.2871 0.0590835 0)
(24.2947 0.0585109 0)
(24.3017 0.0580067 0)
(24.3083 0.057321 0)
(24.3147 0.0563412 0)
(24.3211 0.0551613 0)
(24.3274 0.0540452 0)
(24.3338 0.0533081 0)
(24.3402 0.0531821 0)
(24.3469 0.0537179 0)
(24.3539 0.054768 0)
(24.3615 0.0560513 0)
(24.3701 0.0572638 0)
(24.3796 0.0581814 0)
(24.3902 0.0587119 0)
(24.4017 0.058891 0)
(24.4138 0.0588425 0)
(24.426 0.0587084 0)
(24.438 0.0585991 0)
(24.4495 0.058567 0)
(24.46 0.058602 0)
(24.4696 0.0586513 0)
(24.4782 0.0586524 0)
(24.4859 0.0585505 0)
(24.4929 0.0583127 0)
(24.4993 0.0579347 0)
(24.5055 0.0574376 0)
(24.5116 0.0568592 0)
(24.5178 0.0562452 0)
(24.5241 0.0556393 0)
(24.5306 0.055076 0)
(24.5373 0.0545754 0)
(24.5443 0.0541441 0)
(24.5515 0.053777 0)
(24.5589 0.0534638 0)
(24.5664 0.0531891 0)
(24.5742 0.0529419 0)
(24.5821 0.0527047 0)
(24.5901 0.0524742 0)
(24.5983 0.0522286 0)
(24.6065 0.051979 0)
(24.6149 0.0516864 0)
(24.6232 0.0513908 0)
(24.632 0.0510085 0)
(24.6403 0.0506461 0)
(24.6494 0.050116 0)
(24.6576 0.0496773 0)
(24.6674 0.0489115 0)
(24.6749 0.0484132 0)
(24.6859 0.0472689 0)
(24.6921 0.0467843 0)
(24.7051 0.0450313 0)
(24.7084 0.0447414 0)
(24.7252 0.0419912 0)
(19.7536 0.00710379 0)
(19.7686 0.0210432 0)
(19.8065 0.0341736 0)
(19.8707 0.0459711 0)
(19.959 0.0561958 0)
(20.0665 0.0648956 0)
(20.1888 0.0721999 0)
(20.3225 0.0781869 0)
(20.4654 0.0829115 0)
(20.6152 0.0864694 0)
(20.7692 0.0890144 0)
(20.9251 0.0907127 0)
(21.0806 0.0916891 0)
(21.2341 0.0920307 0)
(21.3843 0.0918004 0)
(21.5304 0.0910567 0)
(21.6714 0.0898656 0)
(21.8067 0.0883138 0)
(21.9359 0.0865116 0)
(22.0588 0.0845803 0)
(22.1751 0.0826197 0)
(22.285 0.0807117 0)
(22.3886 0.0789439 0)
(22.4861 0.0774055 0)
(22.5778 0.0761832 0)
(22.6639 0.0753441 0)
(22.745 0.074924 0)
(22.8213 0.0749146 0)
(22.8934 0.075275 0)
(22.9615 0.0759523 0)
(23.0261 0.076882 0)
(23.0876 0.0779702 0)
(23.1464 0.0790917 0)
(23.2028 0.0801135 0)
(23.257 0.0809243 0)
(23.3092 0.0814521 0)
(23.3596 0.0816712 0)
(23.4082 0.081599 0)
(23.4552 0.0812787 0)
(23.5007 0.0807524 0)
(23.5449 0.0800532 0)
(23.5876 0.0792086 0)
(23.6291 0.0782495 0)
(23.6692 0.0772195 0)
(23.7081 0.0761226 0)
(23.7457 0.0749977 0)
(23.7822 0.073853 0)
(23.8176 0.0726779 0)
(23.8518 0.0714834 0)
(23.8849 0.0703141 0)
(23.9167 0.0692154 0)
(23.9473 0.0681975 0)
(23.9767 0.0672334 0)
(24.0052 0.0662722 0)
(24.0325 0.0652709 0)
(24.0586 0.0642302 0)
(24.0833 0.0632024 0)
(24.1063 0.062245 0)
(24.1277 0.061356 0)
(24.1473 0.060455 0)
(24.1654 0.0594346 0)
(24.1821 0.0582406 0)
(24.1972 0.0569464 0)
(24.2108 0.0557676 0)
(24.2227 0.0549306 0)
(24.2331 0.0545396 0)
(24.2421 0.0544415 0)
(24.2503 0.0543276 0)
(24.258 0.0538989 0)
(24.2657 0.0530106 0)
(24.2736 0.0517606 0)
(24.2815 0.0504563 0)
(24.2893 0.0494743 0)
(24.2967 0.049102 0)
(24.3038 0.0494173 0)
(24.3107 0.0502505 0)
(24.3176 0.051253 0)
(24.325 0.0520376 0)
(24.3333 0.0523222 0)
(24.3428 0.052017 0)
(24.3536 0.0512262 0)
(24.3658 0.0501864 0)
(24.3791 0.0491911 0)
(24.3931 0.0484643 0)
(24.4073 0.0481175 0)
(24.4213 0.0481402 0)
(24.4348 0.0484261 0)
(24.4475 0.0488156 0)
(24.4593 0.0491529 0)
(24.4702 0.0493093 0)
(24.4803 0.0492169 0)
(24.4897 0.0488692 0)
(24.4984 0.0483037 0)
(24.5068 0.047585 0)
(24.5148 0.0467866 0)
(24.5226 0.0459769 0)
(24.5304 0.0452085 0)
(24.5381 0.0445146 0)
(24.5458 0.0439099 0)
(24.5536 0.0433941 0)
(24.5614 0.0429582 0)
(24.5693 0.0425863 0)
(24.5772 0.0422638 0)
(24.5853 0.0419702 0)
(24.5934 0.0416971 0)
(24.6017 0.0414202 0)
(24.61 0.0411455 0)
(24.6185 0.0408347 0)
(24.6268 0.0405219 0)
(24.6356 0.0401294 0)
(24.6439 0.0397534 0)
(24.6531 0.0392228 0)
(24.6612 0.0387735 0)
(24.671 0.0380265 0)
(24.6785 0.0375241 0)
(24.6894 0.0364434 0)
(24.6956 0.0359723 0)
(24.7086 0.0343648 0)
(24.7119 0.0341059 0)
(24.7286 0.0316484 0)
(19.7536 -0.00615245 0)
(19.7686 -0.0182585 0)
(19.8063 -0.029787 0)
(19.8703 -0.0403237 0)
(19.9585 -0.0495624 0)
(20.0661 -0.057331 0)
(20.1885 -0.0635263 0)
(20.3224 -0.0680947 0)
(20.4654 -0.0710725 0)
(20.6153 -0.0725882 0)
(20.7695 -0.072825 0)
(20.9255 -0.071986 0)
(21.081 -0.0702546 0)
(21.2346 -0.0677811 0)
(21.3848 -0.0647052 0)
(21.5308 -0.0611475 0)
(21.6719 -0.0572011 0)
(21.8072 -0.052954 0)
(21.9365 -0.0484954 0)
(22.0594 -0.0438897 0)
(22.1758 -0.0391695 0)
(22.2858 -0.0343474 0)
(22.3896 -0.0294472 0)
(22.4872 -0.0245122 0)
(22.5789 -0.0195975 0)
(22.6652 -0.0147447 0)
(22.7463 -0.00999217 0)
(22.8226 -0.00540319 0)
(22.8946 -0.00105914 0)
(22.9626 0.00297072 0)
(23.027 0.0066424 0)
(23.0883 0.00992127 0)
(23.1467 0.0127661 0)
(23.2027 0.0151375 0)
(23.2564 0.0170197 0)
(23.3081 0.0184314 0)
(23.3579 0.019422 0)
(23.4061 0.0200593 0)
(23.4527 0.0204102 0)
(23.4978 0.0205302 0)
(23.5416 0.0204575 0)
(23.584 0.020235 0)
(23.6252 0.0199218 0)
(23.665 0.0195742 0)
(23.7036 0.0192746 0)
(23.741 0.0190032 0)
(23.7773 0.0187226 0)
(23.8125 0.0184122 0)
(23.8465 0.018085 0)
(23.8794 0.0177918 0)
(23.911 0.0175964 0)
(23.9415 0.0175221 0)
(23.9709 0.0175356 0)
(23.9993 0.0175924 0)
(24.0267 0.0176902 0)
(24.0529 0.0178867 0)
(24.0776 0.0182699 0)
(24.1007 0.0188897 0)
(24.122 0.019705 0)
(24.1418 0.0205898 0)
(24.16 0.0214128 0)
(24.1767 0.0221496 0)
(24.1918 0.0229374 0)
(24.2052 0.0239273 0)
(24.2169 0.0250848 0)
(24.227 0.0264838 0)
(24.2361 0.0279206 0)
(24.2446 0.0289999 0)
(24.2529 0.0293854 0)
(24.2613 0.0289752 0)
(24.2696 0.0279681 0)
(24.2775 0.0267965 0)
(24.2848 0.0259327 0)
(24.2916 0.0256798 0)
(24.2981 0.0260495 0)
(24.3045 0.0267634 0)
(24.3115 0.0273717 0)
(24.3194 0.0274336 0)
(24.3286 0.0266728 0)
(24.339 0.0250903 0)
(24.3506 0.0229386 0)
(24.3631 0.0206361 0)
(24.3763 0.0187422 0)
(24.3897 0.0176229 0)
(24.4031 0.0174589 0)
(24.4161 0.0182325 0)
(24.4287 0.0197332 0)
(24.4407 0.0216365 0)
(24.4522 0.0236768 0)
(24.4631 0.0255894 0)
(24.4735 0.0271789 0)
(24.4833 0.0283482 0)
(24.4928 0.0290845 0)
(24.5019 0.0294352 0)
(24.5107 0.0294808 0)
(24.5192 0.0293124 0)
(24.5276 0.0290142 0)
(24.5358 0.0286543 0)
(24.544 0.0282799 0)
(24.5521 0.0279183 0)
(24.5601 0.0275824 0)
(24.5682 0.0272733 0)
(24.5763 0.0269886 0)
(24.5844 0.0267173 0)
(24.5926 0.026457 0)
(24.6009 0.026188 0)
(24.6091 0.0259185 0)
(24.6175 0.0256124 0)
(24.6258 0.0253044 0)
(24.6345 0.0249182 0)
(24.6428 0.0245505 0)
(24.6519 0.024032 0)
(24.6599 0.0235985 0)
(24.6696 0.0228775 0)
(24.6771 0.0224055 0)
(24.6879 0.0213815 0)
(24.694 0.020966 0)
(24.7068 0.0194915 0)
(24.71 0.0193148 0)
(24.7265 0.017109 0)
(19.7536 -0.0195976 0)
(19.7695 -0.058111 0)
(19.809 -0.0946085 0)
(19.8756 -0.127755 0)
(19.9667 -0.156755 0)
(20.0775 -0.181279 0)
(20.2031 -0.201166 0)
(20.3402 -0.216356 0)
(20.4863 -0.226966 0)
(20.639 -0.233366 0)
(20.7957 -0.236106 0)
(20.9538 -0.235756 0)
(21.1112 -0.232828 0)
(21.2663 -0.227781 0)
(21.4179 -0.221036 0)
(21.5652 -0.212964 0)
(21.7073 -0.203879 0)
(21.8435 -0.194053 0)
(21.9735 -0.183719 0)
(22.0971 -0.17307 0)
(22.2141 -0.162258 0)
(22.3246 -0.151406 0)
(22.4287 -0.140616 0)
(22.5266 -0.129969 0)
(22.6186 -0.119527 0)
(22.705 -0.109336 0)
(22.786 -0.0994573 0)
(22.8623 -0.089976 0)
(22.934 -0.0809861 0)
(23.0017 -0.0725668 0)
(23.0658 -0.064778 0)
(23.1266 -0.0576693 0)
(23.1845 -0.0512844 0)
(23.24 -0.0456509 0)
(23.2933 -0.0407668 0)
(23.3446 -0.0365912 0)
(23.3941 -0.0330533 0)
(23.442 -0.030071 0)
(23.4883 -0.0275669 0)
(23.5333 -0.0254646 0)
(23.577 -0.0236877 0)
(23.6195 -0.0221534 0)
(23.6607 -0.0207841 0)
(23.7007 -0.0195259 0)
(23.7394 -0.0183 0)
(23.777 -0.0171136 0)
(23.8133 -0.0159719 0)
(23.8485 -0.0148534 0)
(23.8825 -0.013726 0)
(23.9153 -0.0125694 0)
(23.947 -0.0113806 0)
(23.9776 -0.010171 0)
(24.0072 -0.00896124 0)
(24.0357 -0.00773837 0)
(24.0633 -0.00642508 0)
(24.0895 -0.00490354 0)
(24.1143 -0.00307841 0)
(24.1375 -0.000952572 0)
(24.1589 0.00133674 0)
(24.1787 0.003583 0)
(24.1968 0.00564409 0)
(24.2134 0.00753536 0)
(24.2283 0.00939988 0)
(24.2411 0.011474 0)
(24.2521 0.0139976 0)
(24.2618 0.0166109 0)
(24.2706 0.0188533 0)
(24.2788 0.0203462 0)
(24.2868 0.0208838 0)
(24.2944 0.0205607 0)
(24.3016 0.0197416 0)
(24.3083 0.0188878 0)
(24.3145 0.0183809 0)
(24.3202 0.0183926 0)
(24.326 0.0188308 0)
(24.3322 0.0193707 0)
(24.3393 0.0195709 0)
(24.3475 0.0190424 0)
(24.3569 0.017621 0)
(24.3672 0.015423 0)
(24.378 0.0128395 0)
(24.3892 0.0103977 0)
(24.4003 0.00846008 0)
(24.4109 0.00734888 0)
(24.4209 0.00718001 0)
(24.4304 0.00786179 0)
(24.4393 0.00918966 0)
(24.448 0.0109147 0)
(24.4566 0.0126986 0)
(24.4652 0.0143125 0)
(24.4738 0.0156212 0)
(24.4824 0.0165629 0)
(24.491 0.0171389 0)
(24.4996 0.0173965 0)
(24.5081 0.0174058 0)
(24.5166 0.0172421 0)
(24.525 0.0169739 0)
(24.5333 0.0166571 0)
(24.5415 0.01633 0)
(24.5497 0.0160152 0)
(24.5578 0.0157221 0)
(24.566 0.0154516 0)
(24.5741 0.0152001 0)
(24.5822 0.0149582 0)
(24.5903 0.0147226 0)
(24.5985 0.0144763 0)
(24.6067 0.0142248 0)
(24.6151 0.0139371 0)
(24.6233 0.0136429 0)
(24.6319 0.0132742 0)
(24.64 0.0129186 0)
(24.649 0.0124228 0)
(24.6569 0.0120033 0)
(24.6665 0.0113206 0)
(24.6738 0.010865 0)
(24.6845 0.00991679 0)
(24.6905 0.00951181 0)
(24.7031 0.00819183 0)
(24.7063 0.00801909 0)
(24.7225 0.00619086 0)
(19.7537 -0.0337811 0)
(19.7715 -0.0999377 0)
(19.8148 -0.162115 0)
(19.8866 -0.218308 0)
(19.9838 -0.267525 0)
(20.101 -0.309264 0)
(20.2333 -0.343149 0)
(20.3774 -0.369018 0)
(20.5305 -0.387094 0)
(20.6899 -0.39801 0)
(20.853 -0.40265 0)
(21.017 -0.401976 0)
(21.1799 -0.396879 0)
(21.34 -0.38817 0)
(21.4962 -0.376596 0)
(21.6473 -0.362874 0)
(21.7927 -0.347671 0)
(21.9318 -0.331553 0)
(22.064 -0.314945 0)
(22.1892 -0.298163 0)
(22.3072 -0.281471 0)
(22.4182 -0.265094 0)
(22.5223 -0.249181 0)
(22.6197 -0.233813 0)
(22.7108 -0.219041 0)
(22.7959 -0.204912 0)
(22.8754 -0.191479 0)
(22.9496 -0.178788 0)
(23.019 -0.16688 0)
(23.084 -0.155791 0)
(23.145 -0.145558 0)
(23.2025 -0.136221 0)
(23.257 -0.127805 0)
(23.3088 -0.120303 0)
(23.3581 -0.113669 0)
(23.4054 -0.107831 0)
(23.4507 -0.102709 0)
(23.4943 -0.0982246 0)
(23.5364 -0.0942957 0)
(23.5771 -0.0908254 0)
(23.6164 -0.0876973 0)
(23.6543 -0.0847925 0)
(23.6909 -0.0820299 0)
(23.7261 -0.0793577 0)
(23.76 -0.0767743 0)
(23.7927 -0.0742702 0)
(23.824 -0.0718616 0)
(23.854 -0.0695083 0)
(23.8828 -0.0671037 0)
(23.9102 -0.0645627 0)
(23.9364 -0.0618963 0)
(23.9616 -0.0591808 0)
(23.9859 -0.0564599 0)
(24.0093 -0.053667 0)
(24.0317 -0.050634 0)
(24.0529 -0.0471886 0)
(24.0726 -0.0432682 0)
(24.0909 -0.0389702 0)
(24.1076 -0.0345129 0)
(24.123 -0.0301173 0)
(24.1371 -0.0258767 0)
(24.1497 -0.0217251 0)
(24.1609 -0.0175537 0)
(24.1709 -0.0132824 0)
(24.1797 -0.00886808 0)
(24.1877 -0.00479585 0)
(24.1951 -0.00153857 0)
(24.2024 0.000641414 0)
(24.2095 0.00172168 0)
(24.216 0.00190619 0)
(24.2216 0.00157535 0)
(24.2263 0.00115976 0)
(24.2304 0.000946476 0)
(24.2346 0.000962555 0)
(24.2396 0.000988179 0)
(24.2462 0.000679194 0)
(24.2544 -0.000285748 0)
(24.264 -0.00207748 0)
(24.2742 -0.00462713 0)
(24.2842 -0.00764039 0)
(24.2931 -0.0106279 0)
(24.3002 -0.0130428 0)
(24.3052 -0.0145775 0)
(24.3085 -0.0150116 0)
(24.3104 -0.0143452 0)
(24.3118 -0.0127787 0)
(24.3131 -0.0106035 0)
(24.3148 -0.00812017 0)
(24.3172 -0.00568738 0)
(24.3205 -0.00353339 0)
(24.3248 -0.00178161 0)
(24.33 -0.000473145 0)
(24.3359 0.000418457 0)
(24.3423 0.000961311 0)
(24.349 0.0012346 0)
(24.3559 0.00131775 0)
(24.3629 0.00127694 0)
(24.3699 0.00116855 0)
(24.3768 0.00102614 0)
(24.3837 0.000870814 0)
(24.3906 0.000709212 0)
(24.3974 0.000547204 0)
(24.4042 0.00038058 0)
(24.4111 0.00020896 0)
(24.4179 2.65489e-05 0)
(24.4247 -0.000172389 0)
(24.4315 -0.000390135 0)
(24.4385 -0.000640967 0)
(24.4453 -0.000912855 0)
(24.4525 -0.00124648 0)
(24.4593 -0.00158708 0)
(24.4667 -0.00204113 0)
(24.4733 -0.00244902 0)
(24.4812 -0.00307151 0)
(24.4872 -0.00351863 0)
(24.4959 -0.00436504 0)
(24.5009 -0.00477235 0)
(24.5111 -0.00589456 0)
(24.5139 -0.00610197 0)
(24.5267 -0.00748575 0)
(19.7539 -0.0499397 0)
(19.7753 -0.145997 0)
(19.8258 -0.234534 0)
(19.9077 -0.314156 0)
(20.0178 -0.384432 0)
(20.1506 -0.444645 0)
(20.3007 -0.493991 0)
(20.4633 -0.532147 0)
(20.634 -0.559462 0)
(20.8081 -0.576725 0)
(20.9817 -0.584908 0)
(21.1511 -0.585136 0)
(21.3137 -0.578474 0)
(21.4676 -0.565961 0)
(21.6116 -0.54864 0)
(21.7448 -0.527565 0)
(21.8669 -0.503744 0)
(21.978 -0.478078 0)
(22.0781 -0.451326 0)
(22.1679 -0.424111 0)
(22.2477 -0.396939 0)
(22.3183 -0.370205 0)
(22.3804 -0.344219 0)
(22.4346 -0.319228 0)
(22.4815 -0.295446 0)
(22.522 -0.273035 0)
(22.5566 -0.252105 0)
(22.586 -0.232719 0)
(22.6107 -0.214929 0)
(22.6313 -0.198789 0)
(22.6483 -0.184342 0)
(22.6623 -0.171592 0)
(22.6735 -0.160482 0)
(22.6824 -0.150895 0)
(22.6892 -0.142674 0)
(22.6941 -0.135648 0)
(22.6973 -0.129651 0)
(22.6989 -0.124521 0)
(22.6991 -0.120085 0)
(22.6979 -0.116162 0)
(22.6954 -0.112581 0)
(22.6916 -0.10921 0)
(22.6864 -0.105965 0)
(22.6801 -0.102787 0)
(22.6725 -0.0996202 0)
(22.6637 -0.0964671 0)
(22.6537 -0.0934207 0)
(22.6429 -0.0905502 0)
(22.6313 -0.0878303 0)
(22.6191 -0.085191 0)
(22.6066 -0.0825886 0)
(22.5937 -0.0799973 0)
(22.5809 -0.0773411 0)
(22.5682 -0.0744651 0)
(22.5556 -0.0711733 0)
(22.5431 -0.0673079 0)
(22.5309 -0.0628307 0)
(22.5189 -0.0578596 0)
(22.5074 -0.0526205 0)
(22.4964 -0.0473249 0)
(22.4862 -0.0420704 0)
(22.4771 -0.03687 0)
(22.469 -0.0317452 0)
(22.4622 -0.0268291 0)
(22.4568 -0.022404 0)
(22.4527 -0.0184687 0)
(22.4498 -0.0150004 0)
(22.4478 -0.011932 0)
(22.4464 -0.00922208 0)
(22.4453 -0.00697031 0)
(22.4443 -0.00540336 0)
(22.4439 -0.00478509 0)
(22.4445 -0.00530297 0)
(22.4464 -0.00693809 0)
(22.4497 -0.00940302 0)
(22.4541 -0.012203 0)
(22.4591 -0.0147926 0)
(22.4636 -0.0167253 0)
(22.4668 -0.0177387 0)
(22.4678 -0.0177547 0)
(22.4663 -0.0168792 0)
(22.4625 -0.0153553 0)
(22.4567 -0.0133832 0)
(22.4495 -0.0112722 0)
(22.4417 -0.0092945 0)
(22.4339 -0.00764533 0)
(22.4268 -0.00644282 0)
(22.4205 -0.00572855 0)
(22.4153 -0.00540766 0)
(22.4112 -0.00539856 0)
(22.408 -0.00561905 0)
(22.4056 -0.00597716 0)
(22.4038 -0.00639751 0)
(22.4023 -0.00681728 0)
(22.4012 -0.00720317 0)
(22.4002 -0.00753225 0)
(22.3993 -0.00780589 0)
(22.3985 -0.00802738 0)
(22.3978 -0.00821185 0)
(22.397 -0.00836529 0)
(22.3963 -0.00850218 0)
(22.3956 -0.00862368 0)
(22.395 -0.00874625 0)
(22.3944 -0.00886564 0)
(22.3938 -0.00899885 0)
(22.3932 -0.0091417 0)
(22.3927 -0.00930778 0)
(22.3922 -0.00949595 0)
(22.3916 -0.0097132 0)
(22.3912 -0.00997325 0)
(22.3906 -0.0102501 0)
(22.3902 -0.0106144 0)
(22.3896 -0.0109446 0)
(22.3891 -0.0114539 0)
(22.3884 -0.0118024 0)
(22.3877 -0.0124983 0)
(22.387 -0.0127895 0)
(22.3859 -0.0136438 0)
(22.3853 -0.0137907 0)
(22.3828 -0.0144623 0)
(19.7561 -0.0781051 0)
(19.8077 -0.218689 0)
(19.9026 -0.342357 0)
(20.0281 -0.452032 0)
(20.1674 -0.547869 0)
(20.3036 -0.627707 0)
(20.4236 -0.690169 0)
(20.5186 -0.735462 0)
(20.5845 -0.765075 0)
(20.6197 -0.780823 0)
(20.6257 -0.784587 0)
(20.604 -0.778284 0)
(20.5579 -0.763572 0)
(20.4909 -0.742038 0)
(20.4063 -0.715204 0)
(20.3074 -0.684468 0)
(20.1972 -0.650994 0)
(20.0784 -0.61578 0)
(19.9532 -0.579639 0)
(19.8239 -0.543265 0)
(19.6922 -0.507212 0)
(19.5595 -0.471896 0)
(19.427 -0.437689 0)
(19.2956 -0.404836 0)
(19.1661 -0.373494 0)
(19.039 -0.34376 0)
(18.9147 -0.315703 0)
(18.7936 -0.289398 0)
(18.6758 -0.264921 0)
(18.5613 -0.242336 0)
(18.4503 -0.221673 0)
(18.3425 -0.202922 0)
(18.238 -0.186018 0)
(18.1365 -0.170843 0)
(18.0379 -0.157273 0)
(17.9419 -0.145187 0)
(17.8485 -0.134458 0)
(17.7574 -0.124912 0)
(17.6685 -0.116333 0)
(17.5816 -0.108499 0)
(17.4966 -0.101208 0)
(17.4135 -0.0943139 0)
(17.3323 -0.0877344 0)
(17.253 -0.0813759 0)
(17.1759 -0.0752177 0)
(17.101 -0.0693266 0)
(17.0284 -0.0638002 0)
(16.9583 -0.058724 0)
(16.891 -0.0541304 0)
(16.8265 -0.0500471 0)
(16.7651 -0.0465281 0)
(16.7068 -0.0435921 0)
(16.6516 -0.0411239 0)
(16.5998 -0.0388536 0)
(16.5514 -0.036475 0)
(16.5065 -0.0338095 0)
(16.4655 -0.0308757 0)
(16.4282 -0.0278482 0)
(16.3949 -0.0249675 0)
(16.3652 -0.0224362 0)
(16.3389 -0.0203335 0)
(16.3158 -0.0185952 0)
(16.2957 -0.0170595 0)
(16.2785 -0.0155495 0)
(16.2639 -0.0139921 0)
(16.2515 -0.0124378 0)
(16.241 -0.0110594 0)
(16.2319 -0.0100359 0)
(16.2237 -0.00950647 0)
(16.216 -0.00955773 0)
(16.2082 -0.0102177 0)
(16.1999 -0.0114161 0)
(16.1906 -0.0129336 0)
(16.1798 -0.0144487 0)
(16.1673 -0.0156461 0)
(16.1531 -0.0163076 0)
(16.1373 -0.0163391 0)
(16.1205 -0.0157608 0)
(16.1031 -0.01468 0)
(16.0857 -0.0132618 0)
(16.0689 -0.01172 0)
(16.0529 -0.0102781 0)
(16.0379 -0.0090783 0)
(16.0241 -0.00818546 0)
(16.0115 -0.00760053 0)
(16 -0.00728866 0)
(15.9894 -0.00719246 0)
(15.9796 -0.00725381 0)
(15.9703 -0.00741486 0)
(15.9614 -0.0076347 0)
(15.9527 -0.00787704 0)
(15.9442 -0.00811678 0)
(15.9358 -0.00833957 0)
(15.9275 -0.00853918 0)
(15.9191 -0.00871349 0)
(15.9107 -0.00886292 0)
(15.9024 -0.00898992 0)
(15.894 -0.00909597 0)
(15.8857 -0.00918612 0)
(15.8774 -0.00926379 0)
(15.869 -0.00933603 0)
(15.8608 -0.00940354 0)
(15.8525 -0.00947535 0)
(15.8443 -0.00954733 0)
(15.8361 -0.00963281 0)
(15.8279 -0.00972308 0)
(15.8198 -0.00983333 0)
(15.8116 -0.00995772 0)
(15.8034 -0.0101008 0)
(15.7952 -0.0102784 0)
(15.7871 -0.0104563 0)
(15.7786 -0.0107169 0)
(15.7706 -0.0109077 0)
(15.7616 -0.0113044 0)
(15.754 -0.0114448 0)
(15.7438 -0.012039 0)
(15.7372 -0.0120157 0)
(15.7249 -0.0127804 0)
(15.7209 -0.0125104 0)
(15.7036 -0.0127366 0)
(19.7211 -0.0552636 0)
(19.5482 -0.212614 0)
(19.2131 -0.359349 0)
(18.7386 -0.477384 0)
(18.1613 -0.562941 0)
(17.5117 -0.615205 0)
(16.8166 -0.636819 0)
(16.0964 -0.632404 0)
(15.3715 -0.608218 0)
(14.6547 -0.569262 0)
(13.9608 -0.521033 0)
(13.2943 -0.468444 0)
(12.662 -0.413428 0)
(12.0677 -0.358717 0)
(11.5132 -0.306275 0)