/*--------------------------------*- C++ -*----------------------------------*\
  =========                 |
  \\      /  F ield         | OpenFOAM: The Open Source CFD Toolbox
   \\    /   O peration     | Website:  https://openfoam.org
    \\  /    A nd           | Version:  7
     \\/     M anipulation  |
\*---------------------------------------------------------------------------*/
FoamFile
{
    version     2.0;
    format      ascii;
    class       volScalarField;
    location    "1.05";
    object      nut;
}
// * * * * * * * * * * * * * * * * * * * * * * * * * * * * * * * * * * * * * //

dimensions      [0 2 -1 0 0 0 0];

internalField   nonuniform List<scalar> 
1800
(
0.00126687
0.00290424
0.00335625
0.00332588
0.00318469
0.002981
0.00281648
0.00269086
0.00259567
0.00252151
0.0024616
0.00241148
0.00236832
0.00233034
0.00229642
0.00226582
0.00223802
0.00221263
0.00218939
0.00216796
0.00214824
0.00212989
0.00211287
0.00209692
0.0020818
0.00206788
0.00205382
0.0020419
0.00202595
0.00203506
0.000226917
0.000915514
0.001603
0.00194083
0.00209517
0.00214895
0.00216071
0.00215815
0.00215089
0.0021387
0.00212561
0.00211163
0.00209737
0.00208333
0.00206971
0.00205661
0.00204401
0.00203195
0.00202028
0.00200923
0.00199834
0.00198838
0.00197802
0.00196946
0.00195903
0.00195241
0.00194125
0.00193613
0.00192189
0.00192094
2.50729e-05
0.000178623
0.00040453
0.000669038
0.000868529
0.000994874
0.00107558
0.00113072
0.0011716
0.00120464
0.00123231
0.00125774
0.00128128
0.00130353
0.00132383
0.00134318
0.00136044
0.00137722
0.00139149
0.00140596
0.00141719
0.00142975
0.0014381
0.00144932
0.00145512
0.00146523
0.00146926
0.00147801
0.00148048
0.00148653
1.10849e-05
2.91537e-05
7.64674e-05
0.000145662
0.000232336
0.000311859
0.000372623
0.000422176
0.000461458
0.000495837
0.0005246
0.000551641
0.000575272
0.000598816
0.000619653
0.000641203
0.000660337
0.000680819
0.000698932
0.000718689
0.000735944
0.000754846
0.000771403
0.00078929
0.000805535
0.000822097
0.000838597
0.000853072
0.000870729
0.00088216
1.09166e-05
1.1883e-05
1.64451e-05
2.68226e-05
4.23547e-05
6.39758e-05
8.27064e-05
0.000101934
0.000117855
0.000134269
0.00014834
0.000162879
0.000176118
0.000189848
0.000202376
0.000215071
0.000226919
0.000239065
0.000250677
0.000262539
0.000273919
0.000285159
0.000296501
0.000307269
0.000318824
0.000329071
0.000341113
0.000350442
0.000363633
0.000371975
1.08927e-05
1.1332e-05
1.25988e-05
1.37412e-05
1.58267e-05
1.72183e-05
1.97915e-05
2.14001e-05
2.43835e-05
2.61766e-05
2.95168e-05
3.15018e-05
3.52556e-05
3.74718e-05
4.16577e-05
4.40295e-05
4.84349e-05
5.12277e-05
5.52808e-05
5.87489e-05
6.32028e-05
6.647e-05
7.1002e-05
7.45999e-05
7.93277e-05
8.3013e-05
8.80996e-05
9.16042e-05
9.71227e-05
0.000100641
1.08927e-05
1.1332e-05
1.25989e-05
1.37421e-05
1.59849e-05
1.72836e-05
1.99746e-05
2.14914e-05
2.45206e-05
2.62521e-05
2.96436e-05
3.15864e-05
3.53875e-05
3.75549e-05
4.17644e-05
4.40827e-05
4.85659e-05
5.10158e-05
5.57788e-05
5.83726e-05
6.34069e-05
6.60927e-05
7.1294e-05
7.40467e-05
7.93771e-05
8.21723e-05
8.75598e-05
9.03292e-05
9.56644e-05
9.84995e-05
1.09167e-05
1.1884e-05
1.6452e-05
2.68399e-05
4.49393e-05
6.12322e-05
8.60191e-05
9.93052e-05
0.000120127
0.000132283
0.000150137
0.000161287
0.000177648
0.000188461
0.000203728
0.000213808
0.000228142
0.000237889
0.000251744
0.000261382
0.000274819
0.000284009
0.000297165
0.000306017
0.00031904
0.000327493
0.000340448
0.000348183
0.000361203
0.000368394
1.10857e-05
2.91717e-05
7.65038e-05
0.000145719
0.000232718
0.000311625
0.000372904
0.000421932
0.000461772
0.000495586
0.000524959
0.00055134
0.000575673
0.000598443
0.000620114
0.000640732
0.000660868
0.000680215
0.000699523
0.000717906
0.000736556
0.000753808
0.000771929
0.000787872
0.00080573
0.000820093
0.000837926
0.00085015
0.000867957
0.000877842
2.50945e-05
0.000178679
0.000404607
0.000669135
0.000868589
0.000994917
0.0010756
0.00113075
0.00117164
0.00120467
0.00123235
0.00125776
0.00128132
0.00130353
0.00132386
0.00134315
0.00136047
0.00137713
0.0013915
0.00140576
0.00141717
0.00142937
0.00143797
0.00144864
0.00145468
0.00146411
0.00146799
0.00147579
0.0014779
0.00148264
0.000226987
0.000915616
0.00160308
0.0019409
0.00209521
0.00214897
0.00216073
0.00215817
0.0021509
0.00213872
0.00212561
0.00211164
0.00209737
0.00208334
0.00206969
0.00205663
0.00204397
0.002032
0.0020202
0.00200932
0.00199819
0.00198858
0.00197777
0.00196981
0.0019587
0.00195287
0.00194106
0.00193638
0.00192182
0.0019221
0.00126687
0.00290423
0.00335623
0.00332586
0.00318467
0.00298098
0.00281647
0.00269085
0.00259565
0.0025215
0.00246159
0.00241147
0.00236832
0.00233036
0.00229643
0.00226587
0.00223806
0.00221277
0.00218948
0.00216828
0.00214844
0.00213059
0.0021133
0.00209838
0.00208273
0.00207078
0.00205588
0.00204724
0.00203131
0.00204227
0.00525635
0.00553935
0.00551456
0.00546366
0.00542905
0.00540149
0.00538013
0.00536555
0.00535688
0.00535224
0.00535016
0.00534964
0.00534996
0.00535074
0.0053518
0.0053529
0.00535387
0.00535453
0.00535479
0.00535462
0.00535405
0.00535321
0.0053522
0.00535112
0.00535002
0.00534894
0.00534786
0.00534672
0.0053455
0.00534419
0.00534279
0.00534134
0.00533987
0.00533843
0.00533703
0.00533571
0.00533447
0.00533332
0.00533225
0.00533126
0.00533036
0.00532955
0.00532883
0.00532821
0.00532768
0.00532727
0.00532696
0.00532677
0.0053267
0.00532677
0.00532696
0.0053273
0.00532778
0.0053284
0.00532917
0.00533008
0.00533113
0.00533232
0.00533365
0.00533511
0.0053367
0.00533841
0.00534023
0.00534216
0.00534418
0.00534629
0.00534848
0.00535073
0.00535305
0.00535541
0.00535782
0.00536026
0.00536274
0.00536523
0.00536775
0.00537029
0.00537283
0.00537539
0.00537796
0.00538055
0.00538313
0.00538573
0.00538834
0.00539097
0.00539361
0.00539627
0.00539894
0.00540164
0.00540435
0.00540709
0.00540985
0.00541263
0.00541544
0.00541828
0.00542114
0.00542403
0.00542695
0.0054299
0.00543288
0.00543589
0.00543892
0.00544199
0.00544508
0.00544821
0.00545136
0.00545455
0.00545776
0.00546102
0.00546427
0.00546763
0.00547088
0.00547438
0.00547757
0.0054813
0.00548431
0.00548845
0.005491
0.00549591
0.00549768
0.0055039
0.00522043
0.0058087
0.00591167
0.00590665
0.00589039
0.00587563
0.00586575
0.00586019
0.00585838
0.00585882
0.00586045
0.00586281
0.00586514
0.0058673
0.00586926
0.005871
0.00587252
0.00587376
0.00587471
0.00587533
0.00587566
0.00587572
0.0058756
0.00587533
0.00587497
0.00587457
0.00587413
0.00587365
0.00587311
0.00587249
0.0058718
0.00587106
0.00587028
0.00586949
0.0058687
0.00586794
0.0058672
0.00586649
0.00586582
0.00586517
0.00586455
0.00586396
0.0058634
0.00586286
0.00586235
0.00586187
0.00586141
0.00586098
0.00586059
0.00586022
0.00585989
0.00585959
0.00585934
0.00585912
0.00585894
0.00585881
0.00585873
0.00585869
0.0058587
0.00585877
0.00585888
0.00585905
0.00585928
0.00585957
0.00585991
0.00586032
0.00586078
0.00586131
0.0058619
0.00586255
0.00586326
0.00586403
0.00586487
0.00586576
0.00586672
0.00586774
0.00586883
0.00586997
0.00587118
0.00587244
0.00587377
0.00587515
0.00587659
0.00587809
0.00587965
0.00588127
0.00588295
0.00588468
0.00588648
0.00588833
0.00589024
0.00589221
0.00589423
0.00589631
0.00589845
0.00590064
0.0059029
0.00590521
0.00590758
0.00591001
0.00591249
0.00591504
0.00591763
0.00592029
0.005923
0.00592578
0.00592859
0.0059315
0.0059344
0.00593747
0.00594043
0.0059437
0.00594664
0.00595022
0.005953
0.00595709
0.00595945
0.00596433
0.00596619
0.00597214
0.0039928
0.00484079
0.0051251
0.00521759
0.00525333
0.00527321
0.00528828
0.00530101
0.00531224
0.005322
0.00533038
0.00533743
0.00534312
0.00534759
0.0053511
0.00535391
0.00535629
0.00535845
0.0053605
0.00536252
0.00536451
0.00536642
0.00536822
0.00536987
0.00537135
0.00537268
0.00537391
0.00537508
0.00537625
0.00537743
0.00537861
0.00537978
0.00538093
0.00538205
0.00538315
0.00538421
0.00538525
0.00538628
0.00538729
0.00538829
0.0053893
0.00539031
0.00539133
0.00539235
0.00539339
0.00539443
0.00539548
0.00539655
0.00539763
0.00539872
0.00539982
0.00540093
0.00540206
0.00540321
0.00540437
0.00540554
0.00540673
0.00540794
0.00540916
0.0054104
0.00541166
0.00541294
0.00541424
0.00541556
0.0054169
0.00541827
0.00541965
0.00542106
0.0054225
0.00542395
0.00542544
0.00542695
0.00542848
0.00543004
0.00543163
0.00543325
0.00543489
0.00543657
0.00543827
0.00544
0.00544176
0.00544355
0.00544537
0.00544722
0.0054491
0.00545102
0.00545296
0.00545494
0.00545695
0.00545899
0.00546107
0.00546317
0.00546531
0.00546749
0.00546969
0.00547194
0.00547421
0.00547652
0.00547887
0.00548125
0.00548366
0.00548611
0.0054886
0.00549112
0.00549367
0.00549628
0.00549889
0.00550158
0.00550424
0.00550704
0.00550972
0.00551268
0.00551531
0.00551852
0.00552097
0.00552461
0.00552669
0.00553091
0.00553271
0.00553776
0.00222631
0.00329652
0.0038659
0.00414765
0.00429714
0.00438834
0.00445045
0.00449477
0.0045269
0.00455036
0.00456768
0.00458055
0.00459005
0.00459698
0.00460196
0.00460559
0.00460842
0.00461091
0.0046134
0.00461611
0.00461909
0.0046223
0.00462563
0.00462894
0.0046321
0.00463505
0.0046378
0.00464044
0.00464307
0.00464576
0.00464853
0.00465137
0.00465424
0.00465711
0.00465994
0.0046627
0.0046654
0.00466802
0.00467058
0.0046731
0.00467558
0.00467804
0.00468048
0.0046829
0.00468532
0.00468773
0.00469015
0.00469256
0.00469497
0.00469738
0.00469979
0.0047022
0.00470461
0.00470702
0.00470943
0.00471184
0.00471425
0.00471667
0.00471908
0.0047215
0.00472391
0.00472633
0.00472875
0.00473117
0.00473359
0.00473601
0.00473844
0.00474087
0.0047433
0.00474573
0.00474817
0.00475061
0.00475305
0.00475549
0.00475794
0.00476039
0.00476285
0.00476531
0.00476777
0.00477023
0.0047727
0.00477518
0.00477765
0.00478014
0.00478262
0.00478511
0.00478761
0.00479011
0.00479261
0.00479512
0.00479763
0.00480015
0.00480267
0.0048052
0.00480773
0.00481027
0.00481282
0.00481537
0.00481793
0.00482049
0.00482306
0.00482564
0.00482822
0.00483082
0.00483341
0.00483602
0.00483861
0.00484126
0.00484385
0.00484654
0.00484909
0.00485188
0.00485433
0.0048573
0.00485953
0.00486282
0.0048647
0.00486839
0.00487009
0.00487449
0.00090067
0.00144209
0.00216033
0.0026811
0.00302247
0.00324649
0.00339486
0.0034934
0.00355884
0.00360247
0.00363188
0.00365195
0.00366575
0.00367516
0.00368144
0.00368554
0.00368828
0.00369034
0.00369228
0.00369448
0.00369714
0.00370028
0.00370381
0.00370754
0.00371128
0.00371487
0.00371823
0.00372143
0.00372457
0.00372778
0.00373112
0.00373461
0.00373822
0.00374187
0.00374552
0.0037491
0.0037526
0.00375599
0.0037593
0.00376252
0.00376568
0.00376879
0.00377186
0.00377491
0.00377793
0.00378093
0.00378393
0.00378691
0.00378989
0.00379286
0.00379582
0.00379878
0.00380172
0.00380466
0.00380758
0.0038105
0.00381342
0.00381632
0.00381921
0.0038221
0.00382498
0.00382785
0.00383071
0.00383357
0.00383641
0.00383925
0.00384207
0.00384489
0.0038477
0.0038505
0.00385329
0.00385607
0.00385885
0.00386161
0.00386437
0.00386711
0.00386985
0.00387258
0.0038753
0.003878
0.0038807
0.00388339
0.00388608
0.00388875
0.00389141
0.00389406
0.0038967
0.00389933
0.00390195
0.00390456
0.00390715
0.00390974
0.00391232
0.00391489
0.00391745
0.00392
0.00392253
0.00392506
0.00392757
0.00393008
0.00393257
0.00393505
0.00393753
0.00394
0.00394245
0.00394491
0.00394732
0.00394978
0.00395214
0.00395462
0.0039569
0.00395944
0.0039616
0.00396428
0.00396621
0.00396911
0.00397076
0.00397388
0.00397539
0.00397916
0.000241982
0.000407216
0.000701309
0.00109739
0.00151694
0.00186518
0.00213151
0.00232438
0.00245951
0.00255259
0.00261634
0.00266006
0.0026901
0.00271063
0.00272441
0.00273338
0.00273906
0.00274264
0.00274509
0.00274713
0.00274919
0.00275153
0.0027542
0.00275715
0.00276022
0.00276323
0.00276609
0.0027688
0.00277145
0.00277415
0.00277698
0.00277999
0.00278315
0.00278642
0.00278971
0.00279298
0.00279619
0.00279931
0.00280235
0.0028053
0.00280819
0.00281102
0.00281382
0.00281658
0.00281932
0.00282205
0.00282476
0.00282747
0.00283017
0.00283286
0.00283554
0.00283822
0.00284089
0.00284355
0.0028462
0.00284885
0.00285149
0.00285412
0.00285674
0.00285936
0.00286196
0.00286456
0.00286715
0.00286973
0.0028723
0.00287486
0.00287741
0.00287995
0.00288248
0.00288501
0.00288752
0.00289002
0.00289252
0.002895
0.00289748
0.00289994
0.00290239
0.00290483
0.00290726
0.00290968
0.00291208
0.00291448
0.00291686
0.00291924
0.0029216
0.00292395
0.00292629
0.00292861
0.00293092
0.00293321
0.0029355
0.00293777
0.00294002
0.00294227
0.0029445
0.00294672
0.00294893
0.00295112
0.0029533
0.00295546
0.00295762
0.00295976
0.00296187
0.00296399
0.00296607
0.00296818
0.00297021
0.00297233
0.00297429
0.00297643
0.00297829
0.00298049
0.00298218
0.0029845
0.002986
0.00298848
0.0029898
0.00299234
0.00299361
0.00299671
0.000238184
0.000397558
0.000686639
0.00107911
0.00150805
0.00186384
0.0021351
0.00233145
0.0024694
0.00256485
0.00263061
0.00267607
0.00270768
0.00272968
0.00274483
0.00275509
0.00276193
0.00276654
0.00276987
0.00277265
0.00277535
0.00277823
0.00278137
0.00278472
0.00278809
0.0027913
0.00279426
0.00279699
0.00279959
0.00280219
0.00280491
0.00280779
0.00281082
0.00281395
0.00281713
0.0028203
0.00282341
0.00282644
0.00282939
0.00283226
0.00283508
0.00283785
0.00284057
0.00284327
0.00284595
0.00284861
0.00285126
0.00285391
0.00285654
0.00285917
0.00286179
0.00286441
0.00286702
0.00286962
0.00287221
0.0028748
0.00287739
0.00287997
0.00288253
0.00288509
0.00288765
0.0028902
0.00289273
0.00289525
0.00289777
0.00290029
0.0029028
0.00290529
0.00290778
0.00291025
0.00291272
0.00291518
0.00291764
0.00292008
0.00292251
0.00292494
0.00292736
0.00292976
0.00293215
0.00293453
0.0029369
0.00293926
0.00294161
0.00294395
0.00294629
0.00294861
0.00295091
0.00295321
0.00295549
0.00295776
0.00296002
0.00296227
0.0029645
0.00296673
0.00296894
0.00297114
0.00297333
0.0029755
0.00297767
0.00297983
0.00298197
0.00298411
0.00298621
0.00298832
0.00299038
0.00299248
0.00299451
0.00299661
0.00299858
0.00300072
0.00300258
0.0030048
0.00300647
0.00300879
0.00301028
0.00301277
0.00301408
0.00301665
0.00301791
0.00302101
0.000896165
0.00142905
0.00214198
0.00267533
0.00302817
0.00325936
0.00341197
0.00351356
0.00358152
0.00362719
0.00365815
0.00367943
0.00369424
0.00370457
0.00371171
0.00371657
0.00371992
0.00372243
0.00372466
0.00372701
0.00372971
0.00373281
0.00373625
0.00373984
0.0037434
0.00374677
0.00374989
0.0037528
0.00375564
0.00375855
0.00376162
0.00376485
0.00376823
0.00377168
0.00377515
0.00377857
0.00378192
0.00378519
0.00378836
0.00379147
0.00379451
0.00379752
0.00380049
0.00380344
0.00380637
0.00380928
0.00381219
0.00381508
0.00381797
0.00382084
0.00382371
0.00382657
0.00382943
0.00383228
0.00383512
0.00383796
0.00384079
0.00384362
0.00384643
0.00384924
0.00385205
0.00385484
0.00385764
0.00386043
0.00386321
0.00386598
0.00386874
0.0038715
0.00387425
0.003877
0.00387974
0.00388246
0.00388518
0.0038879
0.0038906
0.00389329
0.00389598
0.00389866
0.00390134
0.003904
0.00390666
0.0039093
0.00391194
0.00391457
0.00391719
0.0039198
0.00392241
0.00392501
0.0039276
0.00393019
0.00393276
0.00393533
0.00393788
0.00394042
0.00394296
0.00394549
0.00394801
0.00395052
0.00395302
0.00395552
0.003958
0.00396047
0.00396293
0.0039654
0.00396785
0.0039703
0.00397271
0.00397516
0.00397753
0.00398
0.00398229
0.00398483
0.003987
0.00398971
0.00399165
0.00399457
0.00399621
0.00399937
0.00400087
0.00400464
0.00223015
0.00328589
0.00386903
0.00416173
0.00431716
0.00441105
0.00447435
0.00451932
0.00455168
0.00457492
0.00459156
0.00460344
0.00461186
0.00461772
0.00462168
0.00462432
0.00462618
0.0046277
0.00462923
0.00463099
0.00463302
0.00463531
0.00463776
0.00464025
0.00464268
0.00464501
0.00464727
0.00464952
0.00465185
0.0046543
0.00465689
0.00465959
0.00466235
0.00466512
0.00466786
0.00467055
0.00467317
0.00467574
0.00467825
0.00468072
0.00468315
0.00468556
0.00468796
0.00469035
0.00469273
0.00469511
0.00469749
0.00469986
0.00470224
0.00470461
0.00470699
0.00470937
0.00471175
0.00471413
0.00471651
0.0047189
0.00472128
0.00472367
0.00472606
0.00472846
0.00473085
0.00473325
0.00473565
0.00473805
0.00474046
0.00474287
0.00474528
0.0047477
0.00475012
0.00475254
0.00475496
0.00475739
0.00475983
0.00476226
0.0047647
0.00476715
0.00476959
0.00477205
0.0047745
0.00477696
0.00477943
0.0047819
0.00478437
0.00478685
0.00478933
0.00479182
0.00479431
0.00479681
0.00479931
0.00480182
0.00480434
0.00480686
0.00480939
0.00481192
0.00481445
0.004817
0.00481955
0.00482211
0.00482467
0.00482724
0.00482982
0.0048324
0.00483499
0.00483759
0.00484019
0.00484281
0.00484541
0.00484806
0.00485066
0.00485336
0.00485592
0.00485872
0.00486118
0.00486417
0.00486641
0.00486972
0.0048716
0.00487532
0.00487701
0.0048814
0.00399896
0.00484831
0.00514284
0.00523832
0.0052728
0.0052905
0.00530347
0.00531428
0.0053234
0.00533089
0.00533678
0.00534121
0.00534434
0.00534639
0.0053476
0.00534828
0.0053487
0.00534906
0.00534949
0.00535003
0.00535065
0.00535131
0.00535198
0.00535266
0.00535335
0.00535408
0.00535492
0.00535587
0.00535695
0.00535813
0.00535936
0.00536061
0.00536185
0.00536306
0.00536424
0.00536538
0.00536649
0.00536759
0.00536867
0.00536974
0.00537081
0.00537189
0.00537297
0.00537406
0.00537516
0.00537627
0.00537739
0.00537852
0.00537966
0.00538082
0.00538199
0.00538317
0.00538437
0.00538558
0.0053868
0.00538805
0.00538931
0.00539058
0.00539187
0.00539318
0.00539451
0.00539586
0.00539723
0.00539862
0.00540003
0.00540146
0.00540292
0.00540439
0.00540589
0.00540741
0.00540896
0.00541054
0.00541213
0.00541376
0.00541541
0.00541709
0.00541879
0.00542052
0.00542228
0.00542406
0.00542588
0.00542772
0.0054296
0.0054315
0.00543343
0.00543539
0.00543739
0.00543941
0.00544146
0.00544355
0.00544566
0.00544781
0.00544999
0.0054522
0.00545445
0.00545672
0.00545903
0.00546137
0.00546375
0.00546616
0.0054686
0.00547108
0.00547359
0.00547613
0.0054787
0.00548133
0.00548395
0.00548666
0.00548934
0.00549216
0.00549485
0.00549782
0.00550046
0.00550367
0.00550613
0.00550976
0.00551185
0.00551608
0.00551786
0.00552291
0.00522822
0.00582391
0.00592397
0.0059148
0.00589141
0.00587112
0.00585683
0.00584747
0.00584185
0.00583865
0.0058368
0.00583557
0.00583457
0.00583359
0.00583261
0.00583165
0.00583073
0.00582985
0.00582897
0.00582803
0.00582701
0.00582592
0.0058248
0.00582374
0.00582279
0.005822
0.00582138
0.00582089
0.00582048
0.00582009
0.00581967
0.00581921
0.0058187
0.00581817
0.00581762
0.00581708
0.00581655
0.00581604
0.00581555
0.00581508
0.00581464
0.00581422
0.00581382
0.00581344
0.00581309
0.00581276
0.00581247
0.0058122
0.00581196
0.00581175
0.00581158
0.00581144
0.00581133
0.00581127
0.00581125
0.00581127
0.00581133
0.00581144
0.00581159
0.0058118
0.00581206
0.00581237
0.00581273
0.00581315
0.00581362
0.00581415
0.00581474
0.00581539
0.00581609
0.00581685
0.00581767
0.00581855
0.00581949
0.00582049
0.00582155
0.00582266
0.00582383
0.00582507
0.00582635
0.0058277
0.0058291
0.00583056
0.00583208
0.00583365
0.00583528
0.00583696
0.0058387
0.00584049
0.00584233
0.00584424
0.00584619
0.0058482
0.00585027
0.00585239
0.00585456
0.00585679
0.00585908
0.00586142
0.00586381
0.00586625
0.00586875
0.0058713
0.00587391
0.00587659
0.0058793
0.0058821
0.00588491
0.00588783
0.00589073
0.00589378
0.00589673
0.00589998
0.00590293
0.00590649
0.00590926
0.00591332
0.00591568
0.0059205
0.00592236
0.00592829
0.0052432
0.00552784
0.00549167
0.00543444
0.00539222
0.00535841
0.00533222
0.00531349
0.00530079
0.00529233
0.00528665
0.00528273
0.00527987
0.00527769
0.00527594
0.00527446
0.00527311
0.00527176
0.00527029
0.00526869
0.00526695
0.00526517
0.00526341
0.00526177
0.00526029
0.00525898
0.0052578
0.00525668
0.00525555
0.00525438
0.00525315
0.00525188
0.0052506
0.00524935
0.00524814
0.005247
0.00524593
0.00524493
0.00524402
0.00524318
0.00524242
0.00524173
0.00524114
0.00524063
0.00524021
0.00523989
0.00523968
0.00523959
0.00523961
0.00523975
0.00524001
0.00524041
0.00524094
0.0052416
0.0052424
0.00524334
0.00524441
0.00524561
0.00524694
0.0052484
0.00524998
0.00525167
0.00525346
0.00525536
0.00525735
0.00525941
0.00526155
0.00526376
0.00526602
0.00526834
0.0052707
0.00527309
0.00527552
0.00527796
0.00528043
0.00528292
0.00528542
0.00528793
0.00529046
0.005293
0.00529555
0.00529811
0.00530068
0.00530327
0.00530587
0.00530849
0.00531113
0.00531378
0.00531646
0.00531916
0.00532188
0.00532463
0.0053274
0.0053302
0.00533302
0.00533587
0.00533875
0.00534166
0.00534459
0.00534755
0.00535055
0.00535357
0.00535662
0.00535971
0.00536281
0.00536596
0.00536912
0.00537234
0.00537553
0.00537885
0.00538205
0.00538549
0.00538864
0.0053923
0.00539527
0.00539934
0.00540187
0.0054067
0.00540845
0.00541467
)
;

boundaryField
{
    upperWall
    {
        type            zeroGradient;
    }
    lowerWall
    {
        type            zeroGradient;
    }
    heatedWall
    {
        type            zeroGradient;
    }
    inlet
    {
        type            zeroGradient;
    }
    outlet
    {
        type            zeroGradient;
    }
    frontAndBack
    {
        type            empty;
    }
}


// ************************************************************************* //
