/*--------------------------------*- C++ -*----------------------------------*\
  =========                 |
  \\      /  F ield         | OpenFOAM: The Open Source CFD Toolbox
   \\    /   O peration     | Website:  https://openfoam.org
    \\  /    A nd           | Version:  7
     \\/     M anipulation  |
\*---------------------------------------------------------------------------*/
FoamFile
{
    version     2.0;
    format      ascii;
    class       volSymmTensorField;
    location    "0.0125";
    object      UPrime2Mean;
}
// * * * * * * * * * * * * * * * * * * * * * * * * * * * * * * * * * * * * * //

dimensions      [0 2 -2 0 0 0 0];

internalField   nonuniform List<symmTensor> 
1440
(
(0.11275 -0.00114651 0 2.84468e-05 0 0)
(0.0172618 0.000118197 0 8.63784e-05 0 0)
(0.0370637 -0.000695061 0 0.000445787 0 0)
(0.0554639 -0.000438426 0 0.00122967 0 0)
(0.0749299 -0.00245979 0 0.0022229 0 0)
(0.105892 -0.0069028 0 0.00301741 0 0)
(0.154292 -0.0111985 0 0.00336661 0 0)
(0.209944 -0.0138261 0 0.00329755 0 0)
(0.265882 -0.014561 0 0.00283825 0 0)
(0.324033 -0.0135055 0 0.00210286 0 0)
(0.384434 -0.0109081 0 0.00130903 0 0)
(0.442178 -0.00738738 0 0.000659494 0 0)
(0.49342 -0.00381409 0 0.000254916 0 0)
(0.538118 -0.000954141 0 8.60483e-05 0 0)
(0.578562 0.00083159 0 5.84629e-05 0 0)
(0.6168 0.00170667 0 7.36214e-05 0 0)
(0.65392 0.00202074 0 8.85376e-05 0 0)
(0.690643 0.00202617 0 9.56787e-05 0 0)
(0.727619 0.00187477 0 9.67984e-05 0 0)
(0.765276 0.00167589 0 9.57143e-05 0 0)
(0.803758 0.00149163 0 9.52646e-05 0 0)
(0.843075 0.00133388 0 9.60257e-05 0 0)
(0.88322 0.00119277 0 9.75401e-05 0 0)
(0.924194 0.00106051 0 9.94769e-05 0 0)
(0.96599 0.000933316 0 0.00010172 0 0)
(1.0086 0.000808538 0 0.000104173 0 0)
(1.05201 0.000683692 0 0.000106749 0 0)
(1.09621 0.000556737 0 0.000109401 0 0)
(1.1412 0.000427367 0 0.000112111 0 0)
(1.18696 0.000295555 0 0.000114868 0 0)
(1.2335 0.000160925 0 0.000117659 0 0)
(1.28081 2.31357e-05 0 0.000120474 0 0)
(1.32887 -0.000117903 0 0.000123299 0 0)
(1.37768 -0.000261802 0 0.000126137 0 0)
(1.42723 -0.000408697 0 0.00012899 0 0)
(1.47752 -0.000557743 0 0.000131855 0 0)
(1.52853 -0.000708565 0 0.000134728 0 0)
(1.58026 -0.000861672 0 0.000137603 0 0)
(1.63271 -0.00101627 0 0.000140469 0 0)
(1.68585 -0.00117201 0 0.000143331 0 0)
(1.73968 -0.00132869 0 0.000146195 0 0)
(1.79419 -0.00148581 0 0.000149062 0 0)
(1.84938 -0.00164389 0 0.000151927 0 0)
(1.90523 -0.00180221 0 0.000154778 0 0)
(1.96174 -0.00196079 0 0.000157621 0 0)
(2.0189 -0.00212022 0 0.000160467 0 0)
(2.0767 -0.00227969 0 0.000163313 0 0)
(2.13513 -0.00243923 0 0.000166151 0 0)
(2.19419 -0.00259869 0 0.000168988 0 0)
(2.25386 -0.00275887 0 0.000171832 0 0)
(2.31413 -0.00291937 0 0.000174685 0 0)
(2.37501 -0.00307975 0 0.000177542 0 0)
(2.43647 -0.00324109 0 0.000180405 0 0)
(2.49851 -0.00340299 0 0.000183284 0 0)
(2.56111 -0.00356497 0 0.000186177 0 0)
(2.62427 -0.00372715 0 0.000189083 0 0)
(2.68797 -0.00388932 0 0.000191995 0 0)
(2.75219 -0.00405248 0 0.000194921 0 0)
(2.81692 -0.00421594 0 0.00019787 0 0)
(2.88214 -0.00437907 0 0.000200833 0 0)
(2.94784 -0.00454281 0 0.000203808 0 0)
(3.01399 -0.00470684 0 0.000206784 0 0)
(3.08058 -0.00487078 0 0.00020977 0 0)
(3.14759 -0.00503426 0 0.000212772 0 0)
(3.21499 -0.00519761 0 0.000215785 0 0)
(3.28279 -0.00536052 0 0.000218802 0 0)
(3.35094 -0.00552344 0 0.000221814 0 0)
(3.41945 -0.00568649 0 0.000224829 0 0)
(3.48829 -0.0058485 0 0.000227851 0 0)
(3.55745 -0.00601011 0 0.000230878 0 0)
(3.62692 -0.00617169 0 0.000233902 0 0)
(3.69669 -0.00633273 0 0.000236915 0 0)
(3.76674 -0.00649296 0 0.000239928 0 0)
(3.83706 -0.00665247 0 0.000242945 0 0)
(3.90764 -0.00681139 0 0.000245964 0 0)
(3.97847 -0.00696975 0 0.000248978 0 0)
(4.04953 -0.0071281 0 0.000251986 0 0)
(4.12083 -0.0072855 0 0.000254998 0 0)
(4.19234 -0.00744263 0 0.000258017 0 0)
(4.26406 -0.00759898 0 0.000261039 0 0)
(4.33597 -0.00775378 0 0.000264057 0 0)
(4.40807 -0.0079085 0 0.00026708 0 0)
(4.48034 -0.0080628 0 0.000270118 0 0)
(4.55278 -0.00821606 0 0.000273167 0 0)
(4.62536 -0.00836774 0 0.000276221 0 0)
(4.69808 -0.00851832 0 0.00027928 0 0)
(4.77094 -0.00866804 0 0.000282353 0 0)
(4.8439 -0.00881667 0 0.000285441 0 0)
(4.91697 -0.00896447 0 0.000288537 0 0)
(4.99014 -0.00911034 0 0.000291635 0 0)
(5.06338 -0.00925549 0 0.000294739 0 0)
(5.1367 -0.00939954 0 0.000297853 0 0)
(5.21007 -0.00954129 0 0.000300973 0 0)
(5.2835 -0.00968206 0 0.000304095 0 0)
(5.35697 -0.00982169 0 0.000307208 0 0)
(5.43047 -0.00996003 0 0.000310317 0 0)
(5.504 -0.0100965 0 0.000313425 0 0)
(5.57754 -0.010231 0 0.00031653 0 0)
(5.6511 -0.0103637 0 0.000319622 0 0)
(5.72467 -0.0104948 0 0.000322692 0 0)
(5.79825 -0.0106242 0 0.000325743 0 0)
(5.87183 -0.0107514 0 0.000328787 0 0)
(5.9454 -0.0108762 0 0.0003318 0 0)
(6.01895 -0.0109977 0 0.000334806 0 0)
(6.09248 -0.0111171 0 0.000337743 0 0)
(6.16597 -0.0112315 0 0.000340705 0 0)
(6.23939 -0.0113459 0 0.00034355 0 0)
(6.31271 -0.0114488 0 0.000346483 0 0)
(6.38593 -0.0115584 0 0.000349184 0 0)
(6.45891 -0.0116478 0 0.000352105 0 0)
(6.53183 -0.0117435 0 0.000354565 0 0)
(6.60409 -0.0118362 0 0.000357644 0 0)
(6.67695 -0.0118994 0 0.000359555 0 0)
(6.74742 -0.0119672 0 0.000363638 0 0)
(6.82133 -0.0122064 0 0.000363905 0 0)
(6.88866 -0.0117703 0 0.000372469 0 0)
(6.96371 -0.0131827 0 0.000371397 0 0)
(7.03355 -0.0113443 0 0.000399078 0 0)
(7.09863 -0.0156177 0 0.00041765 0 0)
(7.2245 -0.0187788 0 0.000727744 0 0)
(0.114079 -0.00162218 0 6.00025e-05 0 0)
(0.0170674 0.000371469 0 9.81321e-05 0 0)
(0.0354906 -0.000318768 0 0.000238586 0 0)
(0.0593106 0.000884681 0 0.000594422 0 0)
(0.0827808 0.0022104 0 0.00124279 0 0)
(0.104611 0.00260383 0 0.00205366 0 0)
(0.131206 0.00280791 0 0.00275889 0 0)
(0.15952 0.00335827 0 0.00319063 0 0)
(0.186306 0.00391112 0 0.00326188 0 0)
(0.21356 0.00403648 0 0.0029748 0 0)
(0.242597 0.00364381 0 0.00241596 0 0)
(0.271939 0.00278218 0 0.00172174 0 0)
(0.300725 0.00156531 0 0.00105364 0 0)
(0.329751 0.000251756 0 0.000551737 0 0)
(0.359611 -0.000895629 0 0.000259283 0 0)
(0.39015 -0.0017877 0 0.000121975 0 0)
(0.421293 -0.00247133 0 6.71492e-05 0 0)
(0.453251 -0.00299945 0 4.97778e-05 0 0)
(0.486137 -0.00339933 0 4.71498e-05 0 0)
(0.519874 -0.00370574 0 4.84741e-05 0 0)
(0.554376 -0.0039615 0 5.01685e-05 0 0)
(0.589612 -0.004195 0 5.16871e-05 0 0)
(0.625562 -0.0044173 0 5.30472e-05 0 0)
(0.662191 -0.00463331 0 5.43116e-05 0 0)
(0.699473 -0.00484708 0 5.5557e-05 0 0)
(0.737391 -0.00506097 0 5.68203e-05 0 0)
(0.775934 -0.00527567 0 5.80984e-05 0 0)
(0.815088 -0.00549169 0 5.93837e-05 0 0)
(0.854843 -0.00570961 0 6.06735e-05 0 0)
(0.895188 -0.00592983 0 6.19641e-05 0 0)
(0.936114 -0.00615257 0 6.32506e-05 0 0)
(0.977612 -0.00637799 0 6.45283e-05 0 0)
(1.01967 -0.00660612 0 6.57916e-05 0 0)
(1.06229 -0.00683683 0 6.70381e-05 0 0)
(1.10545 -0.00706998 0 6.82657e-05 0 0)
(1.14915 -0.00730514 0 6.94697e-05 0 0)
(1.19338 -0.00754184 0 7.06461e-05 0 0)
(1.23814 -0.00777983 0 7.17946e-05 0 0)
(1.28341 -0.00801865 0 7.29122e-05 0 0)
(1.32918 -0.00825786 0 7.40013e-05 0 0)
(1.37546 -0.00849713 0 7.50642e-05 0 0)
(1.42224 -0.00873604 0 7.61018e-05 0 0)
(1.4695 -0.00897443 0 7.71167e-05 0 0)
(1.51724 -0.00921206 0 7.81105e-05 0 0)
(1.56545 -0.00944878 0 7.90889e-05 0 0)
(1.61413 -0.00968467 0 8.00575e-05 0 0)
(1.66327 -0.0099196 0 8.10176e-05 0 0)
(1.71287 -0.0101535 0 8.19702e-05 0 0)
(1.76291 -0.0103864 0 8.29201e-05 0 0)
(1.81339 -0.0106186 0 8.38728e-05 0 0)
(1.8643 -0.0108503 0 8.48293e-05 0 0)
(1.91564 -0.0110814 0 8.57879e-05 0 0)
(1.9674 -0.0113123 0 8.67524e-05 0 0)
(2.01956 -0.011543 0 8.77248e-05 0 0)
(2.07211 -0.0117737 0 8.87022e-05 0 0)
(2.12505 -0.0120042 0 8.96821e-05 0 0)
(2.17837 -0.0122346 0 9.06625e-05 0 0)
(2.23204 -0.0124652 0 9.16461e-05 0 0)
(2.28606 -0.0126961 0 9.26316e-05 0 0)
(2.34041 -0.0129271 0 9.36142e-05 0 0)
(2.39507 -0.0131581 0 9.4592e-05 0 0)
(2.45004 -0.0133892 0 9.55629e-05 0 0)
(2.50528 -0.0136203 0 9.65272e-05 0 0)
(2.56079 -0.0138512 0 9.74824e-05 0 0)
(2.61655 -0.0140817 0 9.8427e-05 0 0)
(2.67255 -0.014312 0 9.93594e-05 0 0)
(2.72876 -0.0145418 0 0.000100278 0 0)
(2.78519 -0.0147713 0 0.000101187 0 0)
(2.84181 -0.0150003 0 0.000102084 0 0)
(2.89862 -0.0152285 0 0.000102969 0 0)
(2.9556 -0.0154561 0 0.000103842 0 0)
(3.01275 -0.0156829 0 0.000104702 0 0)
(3.07005 -0.0159089 0 0.000105552 0 0)
(3.1275 -0.016134 0 0.000106393 0 0)
(3.18508 -0.0163582 0 0.000107226 0 0)
(3.2428 -0.0165815 0 0.000108051 0 0)
(3.30064 -0.0168041 0 0.000108869 0 0)
(3.35859 -0.0170259 0 0.000109684 0 0)
(3.41664 -0.0172468 0 0.000110495 0 0)
(3.4748 -0.017467 0 0.000111302 0 0)
(3.53304 -0.0176861 0 0.000112104 0 0)
(3.59136 -0.0179044 0 0.000112905 0 0)
(3.64976 -0.0181221 0 0.000113706 0 0)
(3.70821 -0.018339 0 0.000114505 0 0)
(3.76672 -0.0185548 0 0.000115301 0 0)
(3.82528 -0.0187697 0 0.000116095 0 0)
(3.88387 -0.0189838 0 0.000116888 0 0)
(3.94249 -0.019197 0 0.000117679 0 0)
(4.00113 -0.0194094 0 0.000118468 0 0)
(4.05978 -0.0196207 0 0.000119253 0 0)
(4.11843 -0.019831 0 0.000120034 0 0)
(4.17707 -0.0200404 0 0.000120811 0 0)
(4.2357 -0.0202485 0 0.000121582 0 0)
(4.29431 -0.0204552 0 0.000122345 0 0)
(4.3529 -0.0206607 0 0.0001231 0 0)
(4.41145 -0.020865 0 0.000123847 0 0)
(4.46997 -0.0210678 0 0.000124585 0 0)
(4.52845 -0.0212688 0 0.000125311 0 0)
(4.58688 -0.021468 0 0.000126023 0 0)
(4.64528 -0.0216653 0 0.00012672 0 0)
(4.70363 -0.0218607 0 0.000127403 0 0)
(4.76194 -0.0220541 0 0.000128071 0 0)
(4.8202 -0.0222446 0 0.000128717 0 0)
(4.8784 -0.0224325 0 0.000129347 0 0)
(4.93655 -0.0226174 0 0.00012995 0 0)
(4.99462 -0.0227979 0 0.000130535 0 0)
(5.05262 -0.0229768 0 0.000131098 0 0)
(5.11046 -0.023148 0 0.000131642 0 0)
(5.16824 -0.0233154 0 0.000132144 0 0)
(5.22573 -0.0234869 0 0.000132741 0 0)
(5.28318 -0.0236206 0 0.00013313 0 0)
(5.34015 -0.0238169 0 0.000133983 0 0)
(5.39699 -0.0239235 0 0.000134584 0 0)
(5.45348 -0.0240651 0 0.000135597 0 0)
(5.50909 -0.0244324 0 0.000138744 0 0)
(5.56572 -0.0240936 0 0.000140069 0 0)
(5.61827 -0.0255833 0 0.000152948 0 0)
(5.67745 -0.0244465 0 0.000173341 0 0)
(5.71929 -0.027937 0 0.000204807 0 0)
(5.78843 -0.0315031 0 0.000496891 0 0)
(0.114226 -0.00104998 0 2.38171e-05 0 0)
(0.0171017 0.00018776 0 2.57692e-05 0 0)
(0.0352712 -0.000247552 0 8.60398e-05 0 0)
(0.0572703 0.000404627 0 0.000252786 0 0)
(0.0788491 0.0012683 0 0.000540925 0 0)
(0.100089 0.0016153 0 0.000907754 0 0)
(0.126813 0.0018639 0 0.00125266 0 0)
(0.155017 0.00237655 0 0.00146209 0 0)
(0.181853 0.00295876 0 0.0014933 0 0)
(0.210212 0.00333177 0 0.00136688 0 0)
(0.241386 0.00339504 0 0.00113099 0 0)
(0.273214 0.00313169 0 0.000842551 0 0)
(0.304421 0.0026118 0 0.000569321 0 0)
(0.335668 0.00201378 0 0.000365871 0 0)
(0.367316 0.00149481 0 0.000240193 0 0)
(0.398948 0.00108267 0 0.0001664 0 0)
(0.43055 0.00073028 0 0.000119747 0 0)
(0.46265 0.000419829 0 8.87983e-05 0 0)
(0.495592 0.000170684 0 6.92661e-05 0 0)
(0.52937 -8.67539e-06 0 5.77735e-05 0 0)
(0.563925 -0.000130733 0 5.11804e-05 0 0)
(0.599261 -0.000209363 0 4.74536e-05 0 0)
(0.635374 -0.000253086 0 4.54622e-05 0 0)
(0.672219 -0.000269998 0 4.45073e-05 0 0)
(0.709755 -0.00026877 0 4.41488e-05 0 0)
(0.747961 -0.000256012 0 4.41414e-05 0 0)
(0.786821 -0.000235711 0 4.43579e-05 0 0)
(0.826321 -0.000210611 0 4.47278e-05 0 0)
(0.866447 -0.000182813 0 4.52052e-05 0 0)
(0.907188 -0.000153753 0 4.57592e-05 0 0)
(0.948535 -0.000124344 0 4.63686e-05 0 0)
(0.990479 -9.5182e-05 0 4.70192e-05 0 0)
(1.03301 -6.66233e-05 0 4.76972e-05 0 0)
(1.07612 -3.85981e-05 0 4.83937e-05 0 0)
(1.1198 -1.0876e-05 0 4.9103e-05 0 0)
(1.16405 1.68397e-05 0 4.98195e-05 0 0)
(1.20886 4.49682e-05 0 5.05375e-05 0 0)
(1.25421 7.38613e-05 0 5.12536e-05 0 0)
(1.3001 0.000103845 0 5.19623e-05 0 0)
(1.34653 0.000135418 0 5.26623e-05 0 0)
(1.39348 0.000168952 0 5.33553e-05 0 0)
(1.44096 0.00020468 0 5.40413e-05 0 0)
(1.48895 0.00024269 0 5.47203e-05 0 0)
(1.53744 0.000283053 0 5.53893e-05 0 0)
(1.58643 0.000325937 0 5.60495e-05 0 0)
(1.63592 0.000371263 0 5.67041e-05 0 0)
(1.68589 0.000418872 0 5.73538e-05 0 0)
(1.73635 0.000468595 0 5.79965e-05 0 0)
(1.78727 0.000520302 0 5.86326e-05 0 0)
(1.83866 0.000573714 0 5.9265e-05 0 0)
(1.89052 0.000628497 0 5.98945e-05 0 0)
(1.94282 0.000684424 0 6.05188e-05 0 0)
(1.99556 0.000741219 0 6.11383e-05 0 0)
(2.04874 0.000798627 0 6.17548e-05 0 0)
(2.10234 0.000856539 0 6.23675e-05 0 0)
(2.15635 0.000914811 0 6.29753e-05 0 0)
(2.21077 0.000973244 0 6.35756e-05 0 0)
(2.26557 0.00103171 0 6.41706e-05 0 0)
(2.32074 0.00109011 0 6.47613e-05 0 0)
(2.37627 0.0011485 0 6.53453e-05 0 0)
(2.43214 0.00120685 0 6.59219e-05 0 0)
(2.48834 0.00126506 0 6.6489e-05 0 0)
(2.54485 0.00132329 0 6.70479e-05 0 0)
(2.60165 0.00138175 0 6.7599e-05 0 0)
(2.65872 0.00144039 0 6.81422e-05 0 0)
(2.71606 0.00149917 0 6.86761e-05 0 0)
(2.77365 0.00155816 0 6.91986e-05 0 0)
(2.83147 0.00161741 0 6.97124e-05 0 0)
(2.88952 0.00167708 0 7.02187e-05 0 0)
(2.94777 0.00173723 0 7.07168e-05 0 0)
(3.00623 0.0017977 0 7.12064e-05 0 0)
(3.06487 0.00185848 0 7.16856e-05 0 0)
(3.1237 0.00191978 0 7.21559e-05 0 0)
(3.1827 0.00198164 0 7.26193e-05 0 0)
(3.24186 0.00204386 0 7.30761e-05 0 0)
(3.30117 0.00210633 0 7.35247e-05 0 0)
(3.36063 0.00216897 0 7.39651e-05 0 0)
(3.42023 0.00223187 0 7.43994e-05 0 0)
(3.47996 0.00229501 0 7.4828e-05 0 0)
(3.53981 0.00235821 0 7.52505e-05 0 0)
(3.59977 0.00242148 0 7.56633e-05 0 0)
(3.65983 0.00248485 0 7.60688e-05 0 0)
(3.71999 0.00254814 0 7.64695e-05 0 0)
(3.78024 0.00261127 0 7.68645e-05 0 0)
(3.84056 0.00267434 0 7.72509e-05 0 0)
(3.90095 0.00273734 0 7.7628e-05 0 0)
(3.96141 0.00280017 0 7.79987e-05 0 0)
(4.02191 0.00286282 0 7.83637e-05 0 0)
(4.08245 0.00292518 0 7.87224e-05 0 0)
(4.14303 0.00298726 0 7.90717e-05 0 0)
(4.20363 0.00304915 0 7.94118e-05 0 0)
(4.26425 0.00311077 0 7.97447e-05 0 0)
(4.32488 0.00317223 0 8.00696e-05 0 0)
(4.38551 0.00323352 0 8.03853e-05 0 0)
(4.44613 0.0032944 0 8.06895e-05 0 0)
(4.50674 0.00335497 0 8.0982e-05 0 0)
(4.56734 0.00341544 0 8.12628e-05 0 0)
(4.62792 0.00347584 0 8.15312e-05 0 0)
(4.68848 0.00353602 0 8.17852e-05 0 0)
(4.74902 0.00359593 0 8.2022e-05 0 0)
(4.80953 0.00365573 0 8.22396e-05 0 0)
(4.87002 0.00371538 0 8.24386e-05 0 0)
(4.93047 0.00377541 0 8.26154e-05 0 0)
(4.9909 0.00383479 0 8.27671e-05 0 0)
(5.05127 0.00389556 0 8.28877e-05 0 0)
(5.11159 0.00395485 0 8.29759e-05 0 0)
(5.17184 0.00401641 0 8.30267e-05 0 0)
(5.23198 0.00407782 0 8.30356e-05 0 0)
(5.29203 0.0041359 0 8.30141e-05 0 0)
(5.35181 0.00420577 0 8.2893e-05 0 0)
(5.41158 0.00425076 0 8.28608e-05 0 0)
(5.47074 0.00432988 0 8.25258e-05 0 0)
(5.53009 0.00436276 0 8.27001e-05 0 0)
(5.58843 0.00440844 0 8.21542e-05 0 0)
(5.64678 0.00443398 0 8.33085e-05 0 0)
(5.70492 0.00439348 0 8.31849e-05 0 0)
(5.75965 0.00418097 0 8.88596e-05 0 0)
(5.82129 0.00424069 0 9.5698e-05 0 0)
(5.86333 0.00320276 0 0.000113824 0 0)
(5.94481 0.00444634 0 0.000164901 0 0)
(0.11419 -0.00128791 0 3.11346e-05 0 0)
(0.0171401 0.000380045 0 3.82831e-05 0 0)
(0.0353216 0.000182949 0 3.83423e-05 0 0)
(0.0568167 0.000402385 0 7.03345e-05 0 0)
(0.0777439 0.0010152 0 0.000143544 0 0)
(0.098728 0.00143567 0 0.000251648 0 0)
(0.125556 0.00167416 0 0.000374424 0 0)
(0.153633 0.00190507 0 0.000476839 0 0)
(0.179838 0.00209493 0 0.000528072 0 0)
(0.207351 0.00216644 0 0.000520208 0 0)
(0.237748 0.00214251 0 0.00046829 0 0)
(0.268947 0.00207671 0 0.000393365 0 0)
(0.299761 0.0019975 0 0.000313841 0 0)
(0.33101 0.00191166 0 0.000243239 0 0)
(0.363084 0.00180521 0 0.000186158 0 0)
(0.395418 0.00164804 0 0.000139591 0 0)
(0.427806 0.00142411 0 9.98418e-05 0 0)
(0.460648 0.00115967 0 6.71042e-05 0 0)
(0.494222 0.000904612 0 4.33257e-05 0 0)
(0.528487 0.000694549 0 2.83283e-05 0 0)
(0.563386 0.000539835 0 1.98258e-05 0 0)
(0.598962 0.000436265 0 1.5337e-05 0 0)
(0.635245 0.000374968 0 1.30859e-05 0 0)
(0.672217 0.000345437 0 1.19885e-05 0 0)
(0.709852 0.00033721 0 1.14543e-05 0 0)
(0.74814 0.000341953 0 1.11947e-05 0 0)
(0.787074 0.00035404 0 1.10751e-05 0 0)
(0.826643 0.000369666 0 1.1031e-05 0 0)
(0.866835 0.0003861 0 1.10287e-05 0 0)
(0.907641 0.000401469 0 1.10499e-05 0 0)
(0.949053 0.000414592 0 1.10834e-05 0 0)
(0.991062 0.000424777 0 1.11224e-05 0 0)
(1.03366 0.000431747 0 1.11617e-05 0 0)
(1.07684 0.000435594 0 1.11974e-05 0 0)
(1.12059 0.000436622 0 1.12269e-05 0 0)
(1.16491 0.000435273 0 1.12484e-05 0 0)
(1.20979 0.000432137 0 1.12608e-05 0 0)
(1.25521 0.000427833 0 1.1264e-05 0 0)
(1.30118 0.000422977 0 1.12585e-05 0 0)
(1.34769 0.000418185 0 1.12452e-05 0 0)
(1.39472 0.000413959 0 1.12256e-05 0 0)
(1.44228 0.000410687 0 1.12015e-05 0 0)
(1.49035 0.000408676 0 1.11748e-05 0 0)
(1.53893 0.000408168 0 1.11472e-05 0 0)
(1.58801 0.000409316 0 1.11202e-05 0 0)
(1.63758 0.000412086 0 1.10956e-05 0 0)
(1.68765 0.000416354 0 1.10749e-05 0 0)
(1.73819 0.000421998 0 1.10589e-05 0 0)
(1.78921 0.000428855 0 1.10479e-05 0 0)
(1.8407 0.000436631 0 1.10427e-05 0 0)
(1.89265 0.00044498 0 1.10432e-05 0 0)
(1.94505 0.000453645 0 1.10491e-05 0 0)
(1.9979 0.000462387 0 1.10597e-05 0 0)
(2.05118 0.000470932 0 1.10742e-05 0 0)
(2.10488 0.000479068 0 1.10916e-05 0 0)
(2.15901 0.000486644 0 1.11108e-05 0 0)
(2.21353 0.000493554 0 1.11309e-05 0 0)
(2.26844 0.000499711 0 1.11509e-05 0 0)
(2.32373 0.000505041 0 1.117e-05 0 0)
(2.37937 0.00050957 0 1.11873e-05 0 0)
(2.43536 0.000513358 0 1.12021e-05 0 0)
(2.49168 0.000516474 0 1.1214e-05 0 0)
(2.54831 0.000519054 0 1.12228e-05 0 0)
(2.60523 0.000521238 0 1.12282e-05 0 0)
(2.66243 0.000523107 0 1.12306e-05 0 0)
(2.71989 0.00052478 0 1.12302e-05 0 0)
(2.77761 0.000526388 0 1.12274e-05 0 0)
(2.83556 0.000528037 0 1.12227e-05 0 0)
(2.89374 0.000529811 0 1.12166e-05 0 0)
(2.95212 0.000531794 0 1.12097e-05 0 0)
(3.01071 0.000534045 0 1.12027e-05 0 0)
(3.06949 0.000536598 0 1.1196e-05 0 0)
(3.12845 0.000539532 0 1.11901e-05 0 0)
(3.18759 0.000542845 0 1.11856e-05 0 0)
(3.24689 0.000546462 0 1.11828e-05 0 0)
(3.30634 0.00055038 0 1.11821e-05 0 0)
(3.36595 0.000554568 0 1.11837e-05 0 0)
(3.42569 0.000558991 0 1.11874e-05 0 0)
(3.48556 0.000563614 0 1.11934e-05 0 0)
(3.54556 0.000568381 0 1.12016e-05 0 0)
(3.60567 0.000573326 0 1.12115e-05 0 0)
(3.66588 0.00057842 0 1.1223e-05 0 0)
(3.72619 0.000583551 0 1.1236e-05 0 0)
(3.78659 0.000588691 0 1.12501e-05 0 0)
(3.84707 0.000593935 0 1.12648e-05 0 0)
(3.90762 0.000599329 0 1.12796e-05 0 0)
(3.96823 0.000604778 0 1.12945e-05 0 0)
(4.02889 0.000610248 0 1.1309e-05 0 0)
(4.08959 0.000615784 0 1.13228e-05 0 0)
(4.15033 0.000621466 0 1.13355e-05 0 0)
(4.21109 0.000627366 0 1.13465e-05 0 0)
(4.27187 0.000633419 0 1.13556e-05 0 0)
(4.33266 0.000639644 0 1.13624e-05 0 0)
(4.39345 0.000646138 0 1.13665e-05 0 0)
(4.45424 0.000652916 0 1.13673e-05 0 0)
(4.51502 0.000660014 0 1.13639e-05 0 0)
(4.57579 0.00066747 0 1.13556e-05 0 0)
(4.63653 0.000675325 0 1.13414e-05 0 0)
(4.69726 0.000683624 0 1.13201e-05 0 0)
(4.75797 0.000692445 0 1.12904e-05 0 0)
(4.81865 0.000701917 0 1.12501e-05 0 0)
(4.87931 0.000712025 0 1.11976e-05 0 0)
(4.93993 0.000723052 0 1.11306e-05 0 0)
(5.00053 0.000734888 0 1.10476e-05 0 0)
(5.06107 0.000748446 0 1.09449e-05 0 0)
(5.12158 0.000762583 0 1.0824e-05 0 0)
(5.18199 0.000780104 0 1.06783e-05 0 0)
(5.24231 0.000796347 0 1.05216e-05 0 0)
(5.30253 0.000820184 0 1.03393e-05 0 0)
(5.36249 0.000838175 0 1.01785e-05 0 0)
(5.42246 0.000868226 0 1.00236e-05 0 0)
(5.48171 0.000893697 0 9.96646e-06 0 0)
(5.54139 0.000908819 0 1.01255e-05 0 0)
(5.59964 0.000976146 0 1.05309e-05 0 0)
(5.65844 0.000895693 0 1.19571e-05 0 0)
(5.71641 0.00109628 0 1.42808e-05 0 0)
(5.7714 0.000763054 0 1.92912e-05 0 0)
(5.8336 0.00126842 0 2.97507e-05 0 0)
(5.87524 0.00067157 0 3.95319e-05 0 0)
(5.9605 0.00160942 0 8.2705e-05 0 0)
(0.114217 -0.00131728 0 3.11324e-05 0 0)
(0.0171692 0.000412163 0 4.686e-05 0 0)
(0.0352617 0.000296464 0 3.74661e-05 0 0)
(0.056428 0.000172865 0 2.62183e-05 0 0)
(0.0770341 0.000471164 0 2.55103e-05 0 0)
(0.0979447 0.000794655 0 3.98754e-05 0 0)
(0.124921 0.00098822 0 6.80194e-05 0 0)
(0.153096 0.00108459 0 0.000102672 0 0)
(0.179146 0.00106311 0 0.000131223 0 0)
(0.20631 0.000904462 0 0.000142867 0 0)
(0.236294 0.000683122 0 0.000138909 0 0)
(0.267069 0.000506601 0 0.000128194 0 0)
(0.297535 0.000429335 0 0.00011662 0 0)
(0.328651 0.000434862 0 0.000105877 0 0)
(0.360864 0.000466704 0 9.57709e-05 0 0)
(0.393525 0.000460412 0 8.49964e-05 0 0)
(0.426297 0.000373265 0 7.19192e-05 0 0)
(0.459499 0.000209729 0 5.68903e-05 0 0)
(0.493376 8.89747e-06 0 4.2593e-05 0 0)
(0.527874 -0.000189614 0 3.13915e-05 0 0)
(0.562936 -0.000362895 0 2.37908e-05 0 0)
(0.59862 -0.000503119 0 1.9099e-05 0 0)
(0.634976 -0.000611204 0 1.6379e-05 0 0)
(0.671997 -0.000692628 0 1.48594e-05 0 0)
(0.709665 -0.000754626 0 1.40218e-05 0 0)
(0.747976 -0.000803888 0 1.3564e-05 0 0)
(0.786926 -0.00084553 0 1.33225e-05 0 0)
(0.826505 -0.000883303 0 1.32086e-05 0 0)
(0.866705 -0.000920003 0 1.3172e-05 0 0)
(0.907517 -0.000957625 0 1.31828e-05 0 0)
(0.948932 -0.000997472 0 1.32226e-05 0 0)
(0.990944 -0.0010403 0 1.32794e-05 0 0)
(1.03354 -0.00108645 0 1.33449e-05 0 0)
(1.07672 -0.00113591 0 1.34136e-05 0 0)
(1.12048 -0.00118839 0 1.34817e-05 0 0)
(1.16479 -0.00124338 0 1.35464e-05 0 0)
(1.20967 -0.00130028 0 1.36061e-05 0 0)
(1.25509 -0.00135838 0 1.36599e-05 0 0)
(1.30106 -0.00141704 0 1.37077e-05 0 0)
(1.34757 -0.00147556 0 1.37497e-05 0 0)
(1.3946 -0.00153335 0 1.37866e-05 0 0)
(1.44215 -0.0015899 0 1.38196e-05 0 0)
(1.49022 -0.00164485 0 1.38501e-05 0 0)
(1.5388 -0.00169795 0 1.38795e-05 0 0)
(1.58788 -0.00174907 0 1.39093e-05 0 0)
(1.63746 -0.00179817 0 1.39406e-05 0 0)
(1.68752 -0.00184534 0 1.39748e-05 0 0)
(1.73806 -0.00189074 0 1.40126e-05 0 0)
(1.78908 -0.00193461 0 1.40547e-05 0 0)
(1.84057 -0.00197722 0 1.41015e-05 0 0)
(1.89251 -0.0020189 0 1.4153e-05 0 0)
(1.94491 -0.00205997 0 1.4209e-05 0 0)
(1.99776 -0.00210071 0 1.42689e-05 0 0)
(2.05104 -0.00214142 0 1.43323e-05 0 0)
(2.10475 -0.00218234 0 1.43981e-05 0 0)
(2.15887 -0.00222363 0 1.44654e-05 0 0)
(2.21339 -0.00226544 0 1.45333e-05 0 0)
(2.2683 -0.00230787 0 1.46008e-05 0 0)
(2.32359 -0.00235098 0 1.46671e-05 0 0)
(2.37923 -0.00239474 0 1.47314e-05 0 0)
(2.43522 -0.00243909 0 1.47928e-05 0 0)
(2.49153 -0.00248395 0 1.4851e-05 0 0)
(2.54816 -0.0025292 0 1.49055e-05 0 0)
(2.60508 -0.00257468 0 1.49561e-05 0 0)
(2.66228 -0.00262023 0 1.50027e-05 0 0)
(2.71975 -0.00266575 0 1.50457e-05 0 0)
(2.77746 -0.0027111 0 1.5085e-05 0 0)
(2.83541 -0.00275614 0 1.51211e-05 0 0)
(2.89358 -0.00280076 0 1.51545e-05 0 0)
(2.95197 -0.00284483 0 1.51857e-05 0 0)
(3.01056 -0.0028883 0 1.52151e-05 0 0)
(3.06934 -0.00293112 0 1.52432e-05 0 0)
(3.1283 -0.00297326 0 1.52705e-05 0 0)
(3.18743 -0.00301465 0 1.52973e-05 0 0)
(3.24673 -0.00305534 0 1.53241e-05 0 0)
(3.30619 -0.00309537 0 1.53512e-05 0 0)
(3.36579 -0.00313478 0 1.53788e-05 0 0)
(3.42553 -0.0031736 0 1.54069e-05 0 0)
(3.4854 -0.00321186 0 1.54355e-05 0 0)
(3.5454 -0.00324961 0 1.54648e-05 0 0)
(3.60551 -0.00328692 0 1.54944e-05 0 0)
(3.66572 -0.0033238 0 1.5524e-05 0 0)
(3.72603 -0.0033603 0 1.55535e-05 0 0)
(3.78643 -0.00339647 0 1.55825e-05 0 0)
(3.84691 -0.00343231 0 1.56107e-05 0 0)
(3.90745 -0.00346781 0 1.56377e-05 0 0)
(3.96806 -0.003503 0 1.5663e-05 0 0)
(4.02872 -0.00353788 0 1.56865e-05 0 0)
(4.08942 -0.00357242 0 1.57076e-05 0 0)
(4.15016 -0.0036066 0 1.5726e-05 0 0)
(4.21092 -0.00364038 0 1.57413e-05 0 0)
(4.2717 -0.00367372 0 1.57529e-05 0 0)
(4.33249 -0.00370659 0 1.57604e-05 0 0)
(4.39329 -0.00373889 0 1.57633e-05 0 0)
(4.45407 -0.00377061 0 1.5761e-05 0 0)
(4.51485 -0.00380173 0 1.57526e-05 0 0)
(4.57562 -0.00383217 0 1.57374e-05 0 0)
(4.63636 -0.00386183 0 1.57143e-05 0 0)
(4.69709 -0.00389065 0 1.56823e-05 0 0)
(4.7578 -0.00391859 0 1.56402e-05 0 0)
(4.81848 -0.00394554 0 1.55867e-05 0 0)
(4.87914 -0.00397144 0 1.55204e-05 0 0)
(4.93977 -0.003996 0 1.54405e-05 0 0)
(5.00037 -0.00401933 0 1.53459e-05 0 0)
(5.06091 -0.00404077 0 1.52376e-05 0 0)
(5.12142 -0.00406083 0 1.51157e-05 0 0)
(5.18184 -0.00407839 0 1.4988e-05 0 0)
(5.24216 -0.00409409 0 1.48552e-05 0 0)
(5.30239 -0.00410706 0 1.47487e-05 0 0)
(5.36234 -0.00411729 0 1.46628e-05 0 0)
(5.42232 -0.00412453 0 1.47043e-05 0 0)
(5.48158 -0.00413021 0 1.48351e-05 0 0)
(5.54126 -0.00412988 0 1.53857e-05 0 0)
(5.59951 -0.00413075 0 1.61949e-05 0 0)
(5.65834 -0.00413449 0 1.82272e-05 0 0)
(5.71625 -0.00408584 0 2.0934e-05 0 0)
(5.77137 -0.00415977 0 2.6401e-05 0 0)
(5.83354 -0.00387482 0 3.455e-05 0 0)
(5.87512 -0.0040729 0 4.37088e-05 0 0)
(5.9612 -0.00321731 0 6.72602e-05 0 0)
(0.114228 -0.00133676 0 2.99999e-05 0 0)
(0.0171731 0.000414262 0 6.15501e-05 0 0)
(0.0352476 0.000465301 0 7.31403e-05 0 0)
(0.0563083 0.000114769 0 7.09752e-05 0 0)
(0.0767853 0.000190381 0 6.20245e-05 0 0)
(0.0976336 0.000505229 0 5.15907e-05 0 0)
(0.124623 0.000759684 0 4.26742e-05 0 0)
(0.152796 0.000820428 0 3.82937e-05 0 0)
(0.178766 0.00066012 0 4.03629e-05 0 0)
(0.205813 0.000346892 0 4.58898e-05 0 0)
(0.235688 3.49613e-05 0 5.07493e-05 0 0)
(0.266348 -0.000130786 0 5.30513e-05 0 0)
(0.29669 -0.000102146 0 5.22465e-05 0 0)
(0.327722 6.9322e-05 0 4.98688e-05 0 0)
(0.359927 0.00028866 0 4.8801e-05 0 0)
(0.39265 0.000464603 0 4.92606e-05 0 0)
(0.425527 0.000539996 0 4.81275e-05 0 0)
(0.458855 0.000514106 0 4.32025e-05 0 0)
(0.492866 0.000423871 0 3.56917e-05 0 0)
(0.527488 0.000310355 0 2.81605e-05 0 0)
(0.562654 0.000202947 0 2.22219e-05 0 0)
(0.59842 0.000117022 0 1.81852e-05 0 0)
(0.634839 5.6705e-05 0 1.56795e-05 0 0)
(0.671908 1.94267e-05 0 1.41987e-05 0 0)
(0.709612 -3.30433e-08 0 1.33415e-05 0 0)
(0.747949 -7.07387e-06 0 1.28499e-05 0 0)
(0.786917 -6.27712e-06 0 1.25727e-05 0 0)
(0.826511 -1.26642e-06 0 1.24233e-05 0 0)
(0.866722 5.19132e-06 0 1.23512e-05 0 0)
(0.907542 1.10928e-05 0 1.23259e-05 0 0)
(0.948964 1.50975e-05 0 1.23285e-05 0 0)
(0.99098 1.64122e-05 0 1.2347e-05 0 0)
(1.03358 1.46914e-05 0 1.23732e-05 0 0)
(1.07677 9.9676e-06 0 1.24015e-05 0 0)
(1.12052 2.57286e-06 0 1.24281e-05 0 0)
(1.16484 -6.96144e-06 0 1.24503e-05 0 0)
(1.20972 -1.79764e-05 0 1.24664e-05 0 0)
(1.25515 -2.97442e-05 0 1.24756e-05 0 0)
(1.30112 -4.15329e-05 0 1.24778e-05 0 0)
(1.34762 -5.26497e-05 0 1.24735e-05 0 0)
(1.39466 -6.24845e-05 0 1.24637e-05 0 0)
(1.44221 -7.05489e-05 0 1.24496e-05 0 0)
(1.49028 -7.64791e-05 0 1.24328e-05 0 0)
(1.53886 -8.00308e-05 0 1.24147e-05 0 0)
(1.58794 -8.10777e-05 0 1.2397e-05 0 0)
(1.63752 -7.96223e-05 0 1.2381e-05 0 0)
(1.68758 -7.57926e-05 0 1.23679e-05 0 0)
(1.73812 -6.98011e-05 0 1.23586e-05 0 0)
(1.78914 -6.19182e-05 0 1.23539e-05 0 0)
(1.84063 -5.24705e-05 0 1.2354e-05 0 0)
(1.89258 -4.18256e-05 0 1.23591e-05 0 0)
(1.94498 -3.03503e-05 0 1.23689e-05 0 0)
(1.99782 -1.83855e-05 0 1.2383e-05 0 0)
(2.05111 -6.24552e-06 0 1.24006e-05 0 0)
(2.10481 5.79932e-06 0 1.24208e-05 0 0)
(2.15893 1.75354e-05 0 1.24428e-05 0 0)
(2.21346 2.87972e-05 0 1.24655e-05 0 0)
(2.26837 3.94748e-05 0 1.2488e-05 0 0)
(2.32365 4.95162e-05 0 1.25095e-05 0 0)
(2.3793 5.89203e-05 0 1.25292e-05 0 0)
(2.43529 6.77325e-05 0 1.25464e-05 0 0)
(2.4916 7.60357e-05 0 1.25608e-05 0 0)
(2.54823 8.39484e-05 0 1.25719e-05 0 0)
(2.60515 9.16148e-05 0 1.25797e-05 0 0)
(2.66235 9.91688e-05 0 1.25843e-05 0 0)
(2.71982 0.000106731 0 1.25858e-05 0 0)
(2.77753 0.000114432 0 1.25846e-05 0 0)
(2.83548 0.000122402 0 1.2581e-05 0 0)
(2.89366 0.00013074 0 1.25757e-05 0 0)
(2.95204 0.000139527 0 1.2569e-05 0 0)
(3.01063 0.000148824 0 1.25616e-05 0 0)
(3.06941 0.000158667 0 1.25539e-05 0 0)
(3.12837 0.000169085 0 1.25464e-05 0 0)
(3.18751 0.000180087 0 1.25395e-05 0 0)
(3.24681 0.000191636 0 1.25335e-05 0 0)
(3.30626 0.000203678 0 1.25288e-05 0 0)
(3.36587 0.000216172 0 1.25255e-05 0 0)
(3.42561 0.000229069 0 1.25237e-05 0 0)
(3.48548 0.000242313 0 1.25234e-05 0 0)
(3.54548 0.000255837 0 1.25244e-05 0 0)
(3.60558 0.000269591 0 1.25267e-05 0 0)
(3.6658 0.000283538 0 1.25299e-05 0 0)
(3.72611 0.000297623 0 1.25338e-05 0 0)
(3.78651 0.000311792 0 1.2538e-05 0 0)
(3.84699 0.000326023 0 1.25423e-05 0 0)
(3.90753 0.000340318 0 1.25463e-05 0 0)
(3.96814 0.000354671 0 1.25494e-05 0 0)
(4.0288 0.000369061 0 1.25515e-05 0 0)
(4.08951 0.000383487 0 1.25519e-05 0 0)
(4.15024 0.000397974 0 1.25503e-05 0 0)
(4.21101 0.000412569 0 1.25461e-05 0 0)
(4.27179 0.000427307 0 1.25388e-05 0 0)
(4.33258 0.000442201 0 1.25277e-05 0 0)
(4.39337 0.000457287 0 1.2512e-05 0 0)
(4.45416 0.000472596 0 1.2491e-05 0 0)
(4.51494 0.000488168 0 1.24635e-05 0 0)
(4.5757 0.000504056 0 1.24283e-05 0 0)
(4.63645 0.000520315 0 1.23838e-05 0 0)
(4.69718 0.000536986 0 1.23284e-05 0 0)
(4.75788 0.000554127 0 1.22599e-05 0 0)
(4.81857 0.000571822 0 1.21763e-05 0 0)
(4.87923 0.000590174 0 1.2075e-05 0 0)
(4.93986 0.000609358 0 1.19534e-05 0 0)
(5.00046 0.000629397 0 1.18093e-05 0 0)
(5.06101 0.00065077 0 1.16401e-05 0 0)
(5.12152 0.000673093 0 1.14458e-05 0 0)
(5.18193 0.000697696 0 1.12262e-05 0 0)
(5.24226 0.000723 0 1.09862e-05 0 0)
(5.30249 0.000752095 0 1.07375e-05 0 0)
(5.36245 0.000781445 0 1.0492e-05 0 0)
(5.42244 0.000816123 0 1.03072e-05 0 0)
(5.48169 0.000852286 0 1.01891e-05 0 0)
(5.5414 0.000891905 0 1.03521e-05 0 0)
(5.59961 0.000945352 0 1.07129e-05 0 0)
(5.65853 0.000982364 0 1.1952e-05 0 0)
(5.71638 0.00110034 0 1.35926e-05 0 0)
(5.77172 0.00110754 0 1.72518e-05 0 0)
(5.83396 0.00146343 0 2.19184e-05 0 0)
(5.87616 0.00143667 0 2.80543e-05 0 0)
(5.96338 0.00241974 0 4.0238e-05 0 0)
(0.114235 -0.00135155 0 2.82961e-05 0 0)
(0.0171718 0.000402462 0 8.156e-05 0 0)
(0.0352337 0.000597711 0 0.000136485 0 0)
(0.0562657 5.44906e-06 0 0.00018538 0 0)
(0.0767038 -0.000172702 0 0.000224132 0 0)
(0.0975235 7.48809e-05 0 0.000249155 0 0)
(0.124504 0.000328986 0 0.000257551 0 0)
(0.152684 0.000319163 0 0.000250447 0 0)
(0.178672 1.64529e-05 0 0.000232564 0 0)
(0.205742 -0.000440008 0 0.000207589 0 0)
(0.235623 -0.000843115 0 0.000176133 0 0)
(0.266239 -0.00103427 0 0.000137505 0 0)
(0.29649 -0.000976588 0 9.41063e-05 0 0)
(0.327418 -0.00074099 0 5.47052e-05 0 0)
(0.359538 -0.000437512 0 2.91739e-05 0 0)
(0.392215 -0.000168345 0 1.93386e-05 0 0)