/*--------------------------------*- C++ -*----------------------------------*\
  =========                 |
  \\      /  F ield         | OpenFOAM: The Open Source CFD Toolbox
   \\    /   O peration     | Website:  https://openfoam.org
    \\  /    A nd           | Version:  7
     \\/     M anipulation  |
\*---------------------------------------------------------------------------*/
FoamFile
{
    version     2.0;
    format      ascii;
    class       surfaceScalarField;
    location    "0.8";
    object      phi;
}
// * * * * * * * * * * * * * * * * * * * * * * * * * * * * * * * * * * * * * //

dimensions      [1 0 -1 0 0 0 0];

internalField   nonuniform List<scalar> 
4588
(
0.0134579
0.000401216
0.0124494
0.000998318
0.0111615
0.00127721
0.0098361
0.00131414
0.0086244
0.00120002
0.00759889
0.00101348
0.00678035
0.000806308
0.00615293
0.000615314
0.00568432
0.000456873
0.00533926
0.00033374
0.00508632
0.000241956
0.00490036
0.000175176
0.00476199
0.000127658
0.00465659
9.47056e-05
0.00457331
7.25926e-05
0.00450488
5.78461e-05
0.00444654
4.7959e-05
0.00439516
4.12775e-05
0.00434865
3.67217e-05
0.00430556
3.35615e-05
0.00426495
3.12612e-05
0.00422623
2.94411e-05
0.00418904
2.79062e-05
0.00415318
2.65604e-05
0.00411859
2.53251e-05
0.00408535
2.41237e-05
0.00405357
2.29281e-05
0.00402326
2.17925e-05
0.00399437
2.07092e-05
0.00396676
1.97172e-05
0.00394033
1.86961e-05
0.00391473
1.78899e-05
0.00389002
1.69053e-05
0.00386559
1.64814e-05
0.00384244
1.50324e-05
0.00381826
1.59388e-05
0.00379991
1.01113e-05
0.00377436
1.72794e-05
0.00380118
-3.4863e-05
2.92183e-05
0.00376389
0.0139991
0.00026151
0.0142659
0.000721814
0.014483
0.0010499
0.0145608
0.00122535
0.014492
0.00125732
0.0143095
0.00118426
0.0140565
0.00104783
0.0137726
0.000887561
0.0134842
0.000733512
0.013205
0.000601083
0.0129415
0.000493651
0.0126967
0.000408667
0.0124712
0.000342403
0.0122641
0.000291664
0.0120726
0.000254199
0.0118961
0.000224808
0.0117331
0.000201788
0.0115823
0.000183476
0.0114422
0.000168566
0.0113116
0.000156115
0.0111898
0.000145396
0.0110757
0.00013593
0.0109689
0.00012741
0.0108685
0.000119689
0.0107743
0.000112549
0.0106857
0.000105923
0.0106025
9.96208e-05
0.010524
9.38878e-05
0.0104502
8.83289e-05
0.0103802
8.35317e-05
0.0103141
7.85415e-05
0.0102504
7.50993e-05
0.0101902
7.036e-05
0.0101308
6.87852e-05
0.010076
6.23447e-05
0.0100191
6.49681e-05
0.00997057
5.06404e-05
0.00991381
6.58987e-05
0.00984814
2.27051e-05
8.34184e-05
0.00978593
0.0139551
0.000166605
0.0141733
0.000494659
0.0144803
0.000733493
0.0148245
0.000870953
0.0151526
0.000918375
0.0154325
0.000893495
0.0156503
0.0008194
0.0158066
0.000720882
0.0159103
0.000619257
0.0159724
0.000527862
0.0160028
0.000451772
0.0160096
0.000390457
0.0159993
0.000341607
0.0159775
0.000303179
0.0159475
0.000274727
0.0159109
0.000252596
0.0158694
0.00023502
0.0158242
0.00022086
0.0157761
0.000209229
0.0157258
0.000199369
0.0156739
0.000190702
0.0156205
0.0001829
0.015566
0.000175747
0.0155102
0.000169138
0.0154535
0.00016281
0.0153965
0.00015674
0.0153397
0.000150643
0.0152837
0.000144911
0.0152289
0.000139
0.015175
0.000134042
0.0151218
0.000128525
0.0150685
0.000124999
0.0150154
0.000119319
0.0149615
0.000117807
0.0149082
0.000109967
0.0148542
0.000112674
0.0147999
9.82082e-05
0.0147473
0.000111464
0.014679
8.36237e-05
0.000130137
0.0146248
0.0139327
9.5221e-05
0.0141104
0.000309166
0.0143706
0.000464986
0.0146774
0.000555063
0.014999
0.000587132
0.0153101
0.000572594
0.0155926
0.000527569
0.0158371
0.000467308
0.016043
0.000404048
0.0162149
0.000346012
0.016359
0.000297354
0.0164808
0.000258101
0.0165854
0.000226852
0.0166767
0.000202504
0.0167586
0.000184324
0.0168326
0.000170934
0.0169001
0.000160463
0.0169623
0.000152142
0.0170195
0.000145614
0.0170724
0.000140323
0.0171214
0.000135829
0.017167
0.000131921
0.0172092
0.000128458
0.017248
0.000125402
0.0172831
0.000122506
0.0173147
0.000119765
0.017343
0.00011684
0.0173687
0.000114153
0.0173923
0.000111116
0.0174144
0.00010885
0.0174349
0.000105951
0.0174538
0.000104657
0.0174701
0.000101681
0.0174843
0.000101669
0.0174939
9.74881e-05
0.0175031
9.95504e-05
0.0175038
9.27349e-05
0.0175103
9.94304e-05
0.0174942
9.40169e-05
0.000115633
0.0175028
0.0139242
3.36233e-05
0.0140894
0.000137515
0.0143323
0.000215181
0.0146193
0.000260391
0.0149213
0.000276836
0.0152148
0.000270812
0.0154849
0.000249522
0.0157247
0.000219931
0.0159324
0.000188464
0.0161105
0.000159459
0.0162637
0.000135187
0.0163971
0.000115656
0.0165152
0.00010015
0.0166217
8.80844e-05
0.0167199
7.91372e-05
0.0168121
7.25631e-05
0.0168995
6.75287e-05
0.0169828
6.37211e-05
0.0170625
6.0859e-05
0.0171393
5.86289e-05
0.0172137
5.68223e-05
0.0172861
5.53536e-05
0.0173566
5.41459e-05
0.0174251
5.31876e-05
0.0174914
5.23239e-05
0.0175552
5.15761e-05
0.0176168
5.07176e-05
0.0176765
5.00261e-05
0.0177349
4.90943e-05
0.0177925
4.86473e-05
0.0178493
4.78165e-05
0.0179056
4.79231e-05
0.0179601
4.71129e-05
0.0180134
4.79344e-05
0.0180629
4.66898e-05
0.0181112
4.85694e-05
0.0181536
4.66741e-05
0.0181979
5.06506e-05
0.0182362
5.09408e-05
6.08044e-05
0.0182863
0.0139216
-2.37719e-05
0.0140772
-2.30571e-05
0.0143104
-2.33532e-05
0.0145882
-2.35573e-05
0.0148821
-2.38038e-05
0.0151702
-2.40373e-05
0.0154377
-2.42626e-05
0.0156762
-2.45009e-05
0.015883
-2.46271e-05
0.0160604
-2.47361e-05
0.016213
-2.47669e-05
0.016346
-2.47648e-05
0.0164639
-2.4674e-05
0.0165703
-2.45185e-05
0.0166683
-2.42848e-05
0.0167604
-2.39805e-05
0.0168476
-2.3593e-05
0.0169308
-2.31395e-05
0.0170107
-2.26166e-05
0.0170879
-2.20247e-05
0.017163
-2.13827e-05
0.0172363
-2.06808e-05
0.017308
-1.99386e-05
0.0173779
-1.91453e-05
0.0174458
-1.83298e-05
0.0175116
-1.74651e-05
0.0175754
-1.66046e-05
0.0176378
-1.56486e-05
0.0176991
-1.4786e-05
0.01776
-1.3768e-05
0.0178204
-1.2899e-05
0.0178806
-1.17369e-05
0.0179395
-1.09206e-05
0.0179972
-9.39693e-06
0.018052
-8.7064e-06
0.018105
-6.33275e-06
0.0181548
-6.04499e-06
0.0182037
-2.0103e-06
0.0182541
-3.32456e-06
3.09468e-06
0.0183079
0.0139216
-7.95451e-05
0.0140772
-0.000182062
0.0143104
-0.000260269
0.0145882
-0.00030589
0.0148821
-0.000322804
0.0151702
-0.000317242
0.0154377
-0.00029641
0.0156761
-0.000267227
0.015883
-0.000236049
0.0160604
-0.000207237
0.016213
-0.000183055
0.0163461
-0.000163489
0.016464
-0.000147816
0.0165704
-0.000135445
0.0166685
-0.000126051
0.0167605
-0.000118882
0.0168478
-0.000113104
0.016931
-0.000108419
0.0170109
-0.000104544
0.0170882
-0.000101174
0.0171632
-9.81218e-05
0.0172365
-9.5296e-05
0.0173082
-9.26531e-05
0.0173782
-9.01607e-05
0.0174461
-8.77184e-05
0.0175119
-8.52851e-05
0.0175757
-8.27505e-05
0.0176381
-8.02201e-05
0.0176993
-7.75998e-05
0.0177603
-7.51675e-05
0.0178207
-7.26595e-05
0.0178809
-7.04771e-05
0.0179398
-6.80821e-05
0.0179975
-6.58722e-05
0.0180524
-6.33054e-05
0.0181054
-6.03942e-05
0.0181553
-5.79919e-05
0.0182039
-5.36066e-05
0.0182543
-5.66584e-05
-5.285e-05
0.0183072
0.0139242
-0.000136423
0.0140894
-0.000349059
0.0143323
-0.000505389
0.0146193
-0.00059585
0.0149213
-0.000628334
0.0152148
-0.000614221
0.0154849
-0.000569605
0.0157247
-0.000509707
0.0159324
-0.00044671
0.0161106
-0.000388855
0.0162638
-0.000340269
0.0163973
-0.000300986
0.0165154
-0.000269583
0.016622
-0.000244966
0.0167202
-0.000226383
0.0168125
-0.000212453
0.0169
-0.000201321
0.0169833
-0.000192212
0.0170631
-0.000184774
0.0171399
-0.00017846
0.0172144
-0.000172843
0.0172868
-0.000167719
0.0173574
-0.000162962
0.017426
-0.000158522
0.0174922
-0.000154196
0.0175561
-0.000149932
0.0176177
-0.000145484
0.0176774
-0.000141133
0.0177358
-0.000136552
0.0177935
-0.000132473
0.0178504
-0.00012804
0.0179068
-0.000124617
0.0179614
-0.000120185
0.0180149
-0.000117305
0.0180647
-0.000111934
0.0181134
-0.000109316
0.0181564
-0.000102165
0.0182009
-0.000100132
0.0182395
-9.73874e-05
-0.00010287
0.0182874
0.0139325
-0.000200202
0.0141103
-0.000527264
0.0143705
-0.000766479
0.0146773
-0.000904252
0.0149989
-0.000952015
0.01531
-0.000927486
0.0155925
-0.000853718
0.0158371
-0.000755496
0.016043
-0.000654086
0.0162151
-0.000562846
0.0163592
-0.000486815
0.0164811
-0.000425478
0.0165858
-0.000376495
0.0166772
-0.000337848
0.0167592
-0.000309064
0.0168333
-0.000286495
0.0169009
-0.000268373
0.0169632
-0.000253569
0.0170205
-0.000241193
0.0170735
-0.000230498
0.0171226
-0.000220913
0.0171682
-0.000212114
0.0172105
-0.0002039
0.0172494
-0.000196153
0.0172846
-0.000188654
0.0173163
-0.000181321
0.0173447
-0.000173979
0.0173705
-0.000166858
0.0173943
-0.000159696
0.0174166
-0.000153187
0.0174374
-0.000146468
0.0174567
-0.000141042
0.0174736
-0.000134328
0.0174886
-0.000130118
0.0174994
-0.000121737
0.0175098
-0.000119729
0.0175128
-0.000106032
0.0175206
-0.00010952
0.0175075
-8.5899e-05
-0.000110158
0.0175131
0.013955
-0.000285298
0.0141732
-0.000744796
0.0144801
-0.00107319
0.0148244
-0.0012489
0.0151525
-0.00128111
0.0154324
-0.0012083
0.0156503
-0.0010721
0.0158067
-0.000912034
0.0159104
-0.000758139
0.0159727
-0.000625817
0.0160032
-0.000518429
0.01601
-0.000433426
0.0159999
-0.000367072
0.0159782
-0.000316174
0.0159483
-0.000278471
0.0159119
-0.000248774
0.0158705
-0.00022537
0.0158255
-0.000206602
0.0157775
-0.00019117
0.0157273
-0.000178127
0.0156755
-0.000166763
0.0156223
-0.000156588
0.0155679
-0.000147323
0.0155122
-0.00013879
0.0154558
-0.000130831
0.0153989
-0.000123301
0.0153423
-0.00011614
0.0152866
-0.000109398
0.0152323
-0.000103002
0.0151788
-9.70438e-05
0.0151263
-9.13211e-05
0.0150738
-8.63818e-05
0.0150219
-8.11952e-05
0.0149695
-7.73341e-05
0.0149184
-7.12225e-05
0.0148671
-6.95244e-05
0.0148168
-5.74124e-05
0.014768
-6.25139e-05
0.0147046
-2.45799e-05
-5.60137e-05
0.0146484
0.0139989
-0.00041344
0.0142658
-0.00101025
0.0144828
-0.00128931
0.0145607
-0.00132636
0.0144919
-0.00121235
0.0143095
-0.00102593
0.0140565
-0.000818865
0.0137727
-0.000627972
0.0134844
-0.00046961
0.0132053
-0.000346532
0.0129419
-0.00025477
0.0126972
-0.000187979
0.0124719
-0.000140415
0.0122649
-0.000107382
0.0120735
-8.51487e-05
0.0118972
-7.02455e-05
0.0117344
-6.01617e-05
0.0115837
-5.32478e-05
0.0114437
-4.84233e-05
0.0113134
-4.49603e-05
0.0111917
-4.23262e-05
0.0110778
-4.01434e-05
0.0109711
-3.82234e-05
0.010871
-3.64643e-05
0.010777
-3.48049e-05
0.0106887
-3.31489e-05
0.0106057
-3.15091e-05
0.0105277
-2.98784e-05
0.0104543
-2.83576e-05
0.010385
-2.68099e-05
0.0103196
-2.5401e-05
0.0102572
-2.39066e-05
0.0101982
-2.26595e-05
0.0101411
-2.12423e-05
0.0100882
-1.98586e-05
0.0100359
-1.90946e-05
0.00999044
-1.40717e-05
0.00994327
-1.74126e-05
0.00988455
3.21825e-05
-2.01838e-05
0.00984711
0.0134578
0.0124493
0.0111613
0.00983587
0.00862416
0.00759866
0.00678016
0.00615281
0.00568429
0.00533935
0.00508653
0.00490072
0.00476252
0.00465728
0.00457418
0.00450593
0.00444776
0.00439656
0.00435021
0.00430729
0.00426684
0.00422828
0.00419125
0.00415557
0.00412116
0.00408814
0.0040566
0.00402661
0.00399808
0.003971
0.00394514
0.0039205
0.00389677
0.00387409
0.00385252
0.00383155
0.00381558
0.00379644
0.00382709
0.00380582
0.00365599
7.94894e-05
0.00359766
2.99534e-05
0.00352902
4.0879e-05
0.00347781
2.59147e-05
0.00343649
1.98577e-05
0.00339709
1.8888e-05
0.00336183
1.75288e-05
0.00333263
1.49935e-05
0.00330638
1.19098e-05
0.00328316
8.53962e-06
0.00326499
5.07173e-06
0.00324944
1.85192e-06
0.0032355
-1.21715e-06
0.00322384
-4.53342e-06
0.00321441
-7.48483e-06
0.00320548
-9.76424e-06
0.00319709
-1.15389e-05
0.00319135
-1.27212e-05
0.00318627
-1.27538e-05
0.00318114
-1.20033e-05
0.00317826
-1.08371e-05
0.00317637
-9.34087e-06
0.00317384
-8.10073e-06
0.00317208
-7.71429e-06
0.00317145
-7.82296e-06
0.00317047
-7.97131e-06
0.00316839
-8.02944e-06
0.00316693
-7.7279e-06
0.00316536
-6.80493e-06
0.00316378
-5.41383e-06
0.00316388
-4.16032e-06
0.00316345
-3.20835e-06
0.00316193
-2.85471e-06
0.00316131
-3.18665e-06
0.00316129
-4.21428e-06
0.00316039
-5.10051e-06
0.00315863
-5.13994e-06
0.00315784
-3.53613e-06
0.00315728
-5.76773e-07
0.00315636
2.71428e-06
0.0031565
5.27172e-06
0.00315618
6.77749e-06
0.00315464
7.94133e-06
0.00315437
8.83515e-06
0.0031546
9.18123e-06
0.00315301
8.73868e-06
0.00315149
8.26062e-06
0.00315081
8.94756e-06
0.00314987
1.10097e-05
0.00314923
1.30824e-05
0.00314928
1.35047e-05
0.00314865
1.17136e-05
0.00314736
8.4565e-06
0.0031465
4.93709e-06
0.00314581
1.89787e-06
0.00314419
-6.07573e-07
0.00314215
-2.70347e-06
0.00314054
-2.85094e-06
0.00313931
-3.77294e-07
0.00313803
3.7426e-06
0.00313727
8.30965e-06
0.00313704
1.08978e-05
0.00313686
1.05371e-05
0.0031364
8.58936e-06
0.00313472
7.0621e-06
0.00313343
6.28006e-06
0.00313347
5.33608e-06
0.00313242
4.22221e-06
0.00313168
3.65925e-06
0.0031316
3.93324e-06
0.00313068
4.53248e-06
0.003131
4.57629e-06
0.00313241
4.19951e-06
0.00313307
3.60123e-06
0.00313325
2.64629e-06
0.00313408
1.72687e-06
0.00313643
1.37296e-06
0.00313912
2.01701e-06
0.00314116
3.4589e-06
0.00314499
5.07289e-06
0.00315062
5.54915e-06
0.00315632
4.06988e-06
0.0031619
1.03938e-06
0.00316799
-5.24689e-07
0.00317554
1.55869e-06
0.00318505
5.13952e-06
0.00319604
8.04116e-06
0.00320816
9.60003e-06
0.00322147
1.07368e-05
0.00323634
1.16186e-05
0.00325322
1.0274e-05
0.00327089
6.39127e-06
0.00328838
2.23749e-06
0.00330699
7.48954e-07
0.00332818
2.4899e-06
0.0033514
5.2682e-06
0.00337505
7.24757e-06
0.00339915
8.8252e-06
0.00342447
1.13302e-05
0.00345136
1.46362e-05
0.00347956
1.64086e-05
0.00350775
1.52954e-05
0.00353471
1.162e-05
0.00356174
7.9302e-06
0.00358921
6.02435e-06
0.00361535
5.65028e-06
0.00364136
5.61432e-06
0.00366692
6.41599e-06
0.00369076
8.51332e-06
0.00371521
1.06731e-05
0.00373907
1.05716e-05
0.00375933
7.3635e-06
0.00377837
3.05642e-06
0.00379623
8.13306e-07
0.00381117
1.60137e-06
0.00382547
4.30636e-06
0.00383961
7.49396e-06
0.00385241
1.069e-05
0.0038639
1.33144e-05
0.00387348
1.37137e-05
0.00388197
1.10377e-05
0.00389013
6.74113e-06
0.00389592
3.31121e-06
0.00389914
1.4757e-06
0.00390352
9.78486e-07
0.00390869
1.27658e-06
0.00391116
2.19666e-06
0.00391314
3.10888e-06
0.00391551
3.8965e-06
0.0039179
4.7453e-06
0.00392088
5.88217e-06
0.00392097
7.04581e-06
0.00392086
7.68678e-06
0.0039239
8.14399e-06
0.00392592
9.22938e-06
0.00392586
1.02644e-05
0.00392674
1.00338e-05
0.00392814
8.59387e-06
0.00392979
6.74806e-06
0.00393129
4.77567e-06
0.00393118
2.51409e-06
0.00393067
6.69161e-07
0.0039318
1.02364e-06
0.00393258
4.77155e-06
0.00393327
9.92348e-06
0.00393613
1.30009e-05
0.00393786
1.34567e-05
0.00393858
1.26525e-05
0.00394038
1.19295e-05
0.00394058
1.18145e-05
0.00394155
1.28053e-05
0.00394435
1.51618e-05
0.00394538
1.79501e-05
0.00394742
1.85769e-05
0.00395023
1.63549e-05
0.00395186
1.19273e-05
0.00395289
8.76737e-06
0.00395374
7.30817e-06
0.00395329
1.02429e-05
1.24732e-05
0.00945925
0.000377174
0.00925219
0.0002066
0.0090862
0.000177553
0.00895154
0.000134662
0.00884363
0.000106521
0.00874947
9.34219e-05
0.00866672
8.39466e-05
0.00859596
7.32534e-05
0.00853337
6.17137e-05
0.00847836
4.99668e-05
0.00843224
3.85274e-05
0.00839192
2.81831e-05
0.00835578
1.87318e-05
0.00832404
9.82472e-06
0.00829641
1.87191e-06
0.00827107
-4.72041e-06
0.0082479
-9.92075e-06
0.00822898
-1.3295e-05
0.00821218
-1.43741e-05
0.00819667
-1.37136e-05
0.00818454
-1.1923e-05
0.00817428
-9.55972e-06
0.00816391
-7.78967e-06
0.00815459
-7.49753e-06
0.00814644
-8.20985e-06
0.00813793
-8.84334e-06
0.00812829
-9.2821e-06
0.00811935
-9.02257e-06
0.0081104
-7.39235e-06
0.00810166
-4.69823e-06
0.00809487
-2.39124e-06
0.00808784
-6.88379e-07
0.00807998
1.80061e-07
0.00807325
-5.00802e-07
0.00806728
-2.60563e-06
0.00806059
-4.64184e-06
0.00805311
-4.65667e-06
0.00804663
-1.54935e-06
0.00804038
4.29351e-06
0.00803376
1.08715e-05
0.00802819
1.59084e-05
0.00802219
1.88389e-05
0.00801495
2.11068e-05
0.00800899
2.28591e-05
0.00800354
2.35293e-05
0.00799628
2.26582e-05
0.00798911
2.17121e-05
0.00798279
2.30555e-05
0.00797617
2.70677e-05
0.00796981
3.11239e-05
0.00796412
3.19661e-05
0.00795775
2.84651e-05
0.00795074
2.20855e-05
0.0079442
1.51996e-05
0.00793783
9.21425e-06
0.00793054
4.08779e-06
0.00792287
3.65064e-07
0.00791562
1.60519e-07
0.00790877
4.53888e-06
0.0079018
1.27888e-05
0.00789534
2.17032e-05
0.00788938
2.6774e-05
0.00788349
2.60538e-05
0.00787735
2.22562e-05
0.00787002
1.92168e-05
0.00786307
1.76939e-05
0.00785747
1.58656e-05
0.00785078
1.36412e-05
0.00784444
1.24743e-05
0.00783874
1.30124e-05
0.00783221
1.41208e-05
0.00782693
1.41919e-05
0.00782277
1.34911e-05
0.00781788
1.232e-05
0.00781253
1.03992e-05
0.00780786
8.51405e-06
0.00780477
7.81275e-06
0.00780205
8.92863e-06
0.00779871
1.17297e-05
0.00779718
1.49321e-05
0.00779748
1.5845e-05
0.00779792
1.2844e-05
0.00779834
6.85807e-06
0.00779941
3.72823e-06
0.007802
7.62267e-06
0.00780659
1.46579e-05
0.00781274
2.0229e-05
0.00782016
2.31223e-05
0.00782889
2.52451e-05
0.00783928
2.6835e-05
0.00785183
2.40903e-05
0.00786539
1.63483e-05
0.00787899
8.1277e-06
0.00789393
5.13347e-06
0.00791158
8.26909e-06
0.00793146
1.34828e-05
0.00795199
1.71614e-05
0.00797322
2.00953e-05
0.0079959
2.48075e-05
0.00802035
3.1017e-05
0.00804634
3.43484e-05
0.00807262
3.18938e-05
0.00809796
2.45273e-05
0.00812368
1.71102e-05
0.00815011
1.31665e-05
0.00817545
1.21664e-05
0.00820093
1.19389e-05
0.00822622
1.33809e-05
0.00825002
1.72328e-05
0.00827459
2.1287e-05
0.0082988
2.09687e-05
0.00831964
1.45402e-05
0.00833953
6.04003e-06
0.00835848
1.42452e-06
0.00837466
2.86132e-06
0.00839032
8.09785e-06
0.00840596
1.42625e-05
0.00842039
2.0456e-05
0.00843359
2.55469e-05
0.00844497
2.63144e-05
0.00845537
2.10633e-05
0.00846557
1.2665e-05
0.00847348
5.9925e-06
0.00847887
2.34685e-06
0.00848547
1.311e-06
0.00849291
1.93775e-06
0.00849765
3.74144e-06
0.00850194
5.56422e-06
0.00850666
7.14648e-06
0.00851145
8.87386e-06
0.00851682
1.11543e-05
0.00851931
1.34416e-05
0.00852164
1.47503e-05
0.00852715
1.57423e-05
0.00853163
1.79081e-05
0.00853402
1.99564e-05
0.00853736
1.95605e-05
0.00854125
1.67913e-05
0.0085454
1.32216e-05
0.0085494
9.41885e-06
0.00855184
4.99177e-06
0.00855391
1.2081e-06
0.00855766
1.95163e-06
0.00856103
9.39595e-06
0.00856431
1.94685e-05
0.00856974
2.55557e-05
0.00857409
2.64706e-05
0.00857748
2.48873e-05
0.008582
2.34731e-05
0.00858494
2.32464e-05
0.00858868
2.51942e-05
0.00859423
2.98084e-05
0.00859806
3.52148e-05
0.00860284
3.65047e-05
0.00860852
3.21428e-05
0.00861296
2.35668e-05
0.00861701
1.72893e-05
0.00862067
1.46422e-05
0.00862333
2.00577e-05
2.4704e-05
0.0141708
0.000802681
0.0137888
0.000556362
0.0135222
0.000412025
0.013325
0.000303395
0.0131772
0.000231567
0.0130572
0.000193309
0.0129561
0.000169352
0.0128709
0.000147435
0.0127962
0.000125503
0.0127305
0.000103763
0.0126745
8.28249e-05
0.0126248
6.37507e-05
0.0125793
4.64006e-05
0.0125383
3.06832e-05
0.0125015
1.68852e-05
0.0124671
5.63608e-06
0.0124353
-2.64674e-06
0.0124084
-8.88353e-06
0.0123844
-1.15227e-05
0.0123624
-1.10282e-05
0.0123447
-8.61258e-06
0.0123295
-5.24129e-06
0.0123147
-3.17817e-06
0.0123009
-3.21086e-06
0.0122882
-4.84369e-06
0.0122747
-6.32069e-06
0.0122596
-7.54231e-06
0.0122449
-7.69838e-06
0.0122301
-5.86159e-06
0.0122154
-2.21754e-06
0.012203
8.47018e-07
0.0121907
3.0316e-06
0.0121779
4.13148e-06
0.0121666
3.03547e-06
0.0121565
1.07879e-07
0.0121458
-2.70905e-06
0.0121346
-2.91367e-06
0.0121245
1.47358e-06
0.0121148
9.74275e-06
0.0121046
1.91662e-05
0.0120955
2.63529e-05
0.0120861
3.04635e-05
0.0120755
3.36289e-05
0.0120662
3.6076e-05
0.0120574
3.69978e-05
0.0120468
3.56918e-05
0.0120365
3.42461e-05
0.012027
3.60995e-05
0.0120171
4.17224e-05
0.0120075
4.74697e-05
0.0119985
4.86433e-05
0.0119889
4.35917e-05
0.0119787
3.44478e-05
0.011969
2.45899e-05
0.0119596
1.595e-05
0.0119492
8.46642e-06
0.0119385
3.08665e-06
0.0119283
2.77715e-06
0.0119185
8.94135e-06
0.0119085
2.07271e-05
0.011899
3.34243e-05
0.0118899
4.05933e-05
0.011881
3.9526e-05
0.0118719
3.40607e-05
0.0118617
2.96782e-05
0.0118519
2.74238e-05
0.0118434
2.47541e-05
0.0118338
2.14327e-05
0.0118247
1.96702e-05
0.0118162
2.04102e-05
0.0118068
2.19364e-05
0.0117987
2.19689e-05
0.0117918
2.0919e-05
0.0117841
1.91789e-05
0.0117761
1.63843e-05
0.0117687
1.35577e-05
0.011763
1.24922e-05
0.0117576
1.40167e-05
0.0117516
1.80068e-05
0.0117474
2.25374e-05
0.011745
2.38856e-05
0.0117428
1.94311e-05
0.0117407
1.0736e-05
0.0117394
6.22732e-06
0.0117395
1.15782e-05
0.0117416
2.16627e-05
0.0117452
2.96015e-05
0.0117501
3.36159e-05
0.0117563
3.65137e-05
0.0117642
3.85755e-05
0.0117742
3.46717e-05
0.0117854
2.34193e-05
0.0117968
1.1547e-05
0.0118095
7.11006e-06
0.0118249
1.14506e-05
0.0118425
1.87515e-05
0.0118608
2.38339e-05
0.0118798
2.78911e-05
0.0119004
3.44618e-05
0.0119226
4.30714e-05
0.0119464
4.76845e-05
0.0119705
4.39684e-05
0.0119939
3.32709e-05
0.0120178
2.24815e-05
0.0120424
1.66281e-05
0.012066
1.49815e-05
0.0120897
1.45773e-05
0.0121134
1.63929e-05
0.0121356
2.15945e-05
0.0121586
2.72361e-05
0.0121812
2.65285e-05
0.0122006
1.71843e-05
0.0122192
4.67618e-06
0.0122371
-2.16224e-06
0.0122522
-1.25191e-07
0.0122668
7.15253e-06
0.0122815
1.57489e-05
0.012295
2.44248e-05
0.0123073
3.15424e-05
0.0123178
3.25245e-05
0.0123275
2.49281e-05
0.0123372
1.27482e-05
0.0123447
2.8682e-06
0.0123497
-2.35336e-06
0.0123559
-3.86699e-06
0.0123631
-2.87592e-06
0.0123677
-5.96279e-07
0.0123718
1.89142e-06
0.0123765
4.07806e-06
0.0123813
6.48319e-06
0.0123868
9.65325e-06
0.0123894
1.27847e-05
0.0123919
1.45828e-05
0.0123977
1.59721e-05
0.0124026
1.89926e-05
0.0124053
2.18213e-05
0.0124091
2.121e-05
0.0124135
1.71767e-05
0.0124182
1.19573e-05
0.0124229
6.37812e-06
0.012426
-9.45112e-08
0.012429
-5.49243e-06
0.0124336
-4.31542e-06
0.012438
6.25332e-06
0.0124421
2.057e-05
0.0124484
2.92303e-05
0.0124538
3.04907e-05
0.0124583
2.81755e-05
0.012464
2.60643e-05
0.0124682
2.56841e-05
0.0124733
2.83921e-05
0.0124802
3.49081e-05
0.0124854
4.24973e-05
0.0124914
4.43811e-05
0.0124986
3.80326e-05
0.0125045
2.5961e-05
0.0125103
1.66538e-05
0.0125156
1.32242e-05
0.0125202
2.03723e-05
2.75352e-05
0.0174751
0.000806043
0.0172734
0.000727802
0.0170577
0.000594378
0.0168669
0.000462637
0.0167202
0.000352382
0.0166091
0.000282381
0.0165234
0.000238946
0.0164565
0.000204532
0.0164005
0.000173388
0.0163522
0.000143858
0.0163116
0.000115777
0.0162746
8.99367e-05
0.0162389
6.6277e-05
0.0162046
4.50881e-05
0.0161716
2.66822e-05
0.0161386
1.17669e-05
0.0161065
8.94515e-07
0.0160781
-6.3773e-06
0.0160521
-9.44653e-06
0.0160284
-8.42263e-06
0.0160094
-4.93839e-06
0.0159938
-3.76526e-07
0.0159793
2.50358e-06
0.0159663
2.53472e-06
0.0159542
3.37409e-07
0.0159407
-1.92537e-06
0.0159245
-4.04529e-06
0.0159076
-4.8998e-06
0.0158895
-3.24346e-06
0.0158711
8.14552e-07
0.0158548
4.25414e-06
0.0158388
6.70284e-06
0.0158227
7.63379e-06
0.0158086
6.12164e-06
0.0157962
2.40785e-06
0.0157838
-8.62176e-07
0.0157712
-9.74288e-07
0.01576
4.21168e-06
0.0157493
1.4335e-05
0.0157382
2.59396e-05
0.0157283
3.4804e-05
0.0157182
3.97994e-05
0.015707
4.36106e-05
0.0156971
4.65734e-05
0.0156877
4.76993e-05
0.0156767
4.60155e-05
0.0156659
4.41274e-05
0.0156561
4.63261e-05
0.0156458
5.31394e-05
0.0156356
6.01687e-05
0.0156261
6.15942e-05
0.015616
5.53249e-05
0.0156055
4.40169e-05
0.0155955
3.18481e-05
0.0155857
2.10987e-05
0.015575
1.16835e-05
0.0155642
4.93256e-06
0.0155538
4.47801e-06
0.0155438
1.20886e-05
0.0155336
2.66321e-05
0.0155237
4.23218e-05
0.0155142
5.11217e-05
0.0155049
4.97674e-05
0.0154957
4.29964e-05
0.0154853
3.74945e-05
0.0154752
3.45859e-05
0.0154665
3.12215e-05
0.0154569
2.70195e-05
0.0154476
2.4788e-05
0.015439
2.56796e-05
0.0154295
2.75165e-05
0.0154213
2.74973e-05
0.0154142
2.61121e-05
0.0154064
2.38724e-05
0.0153983
2.03247e-05
0.0153909
1.67845e-05
0.0153852
1.54828e-05
0.0153798
1.73516e-05
0.0153738
2.22569e-05
0.0153695
2.77293e-05
0.015367
2.939e-05
0.0153647
2.37465e-05
0.0153626
1.29274e-05
0.0153615
7.37436e-06
0.0153618
1.38834e-05
0.0153638
2.62777e-05
0.0153673
3.61282e-05
0.0153722
4.0999e-05
0.0153785
4.45237e-05
0.0153862
4.68986e-05
0.0153961
4.2095e-05
0.0154073
2.80697e-05
0.0154188
1.32493e-05
0.0154318
7.62418e-06
0.0154473
1.29334e-05
0.0154649
2.19006e-05
0.0154832
2.80963e-05
0.0155023
3.30075e-05
0.015523
4.09853e-05
0.0155452
5.1449e-05
0.0155689
5.70119e-05
0.015593
5.22802e-05
0.0156164
3.89646e-05
0.0156405
2.55075e-05
0.0156653
1.80866e-05
0.0156891
1.58953e-05
0.015713
1.53699e-05
0.015737
1.74523e-05
0.0157594
2.3742e-05
0.0157824
3.0521e-05
0.015805
2.9532e-05
0.0158246
1.7782e-05
0.0158437
1.98361e-06
0.0158621
-6.6764e-06
0.0158777
-4.25077e-06
0.0158927
4.64621e-06
0.0159077
1.50916e-05
0.0159216
2.56681e-05
0.0159343
3.43246e-05
0.0159451
3.54685e-05
0.0159551
2.59501e-05
0.0159654
1.07893e-05
0.0159735
-1.52849e-06
0.0159792
-8.21145e-06
0.0159861
-1.01268e-05
0.015994
-9.22671e-06
0.0159992
-6.25319e-06
0.016004
-3.26676e-06
0.0160093
-6.69788e-07
0.0160149
2.29238e-06
0.0160211
6.10007e-06
0.0160244
9.81785e-06
0.0160277
1.19616e-05
0.0160344
1.36629e-05
0.0160401
1.73127e-05
0.0160436
2.0712e-05
0.0160481
1.98956e-05
0.0160534
1.48137e-05
0.016059
8.30407e-06
0.0160646
1.4365e-06
0.0160687
-6.60388e-06
0.0160727
-1.34881e-05
0.0160786
-1.2098e-05
0.016084
1.04348e-06
0.016089
1.86245e-05
0.0160963
2.92712e-05
0.0161026
3.08089e-05
0.0161082
2.78796e-05
0.0161151
2.51567e-05
0.0161205
2.46255e-05
0.0161268
2.78721e-05
0.0161349
3.58674e-05
0.0161411
4.50808e-05
0.0161482
4.74589e-05
0.0161565
3.94762e-05
0.0161636
2.47199e-05
0.016171
1.29179e-05
0.0161775
9.02877e-06
0.0161838
1.71802e-05
2.6675e-05
0.0186592
0.000413275
0.0189295
0.000432127
0.019095
0.000398069
0.0191777
0.00034737
0.019208
0.000293408
0.0192148
0.000250433
0.0192146
0.000220625
0.0192156
0.000193273
0.0192172
0.000165463
0.0192196
0.000137441
0.0192235
0.000110097
0.0192248
8.43378e-05
0.0192212
6.03252e-05
0.0192124
3.88331e-05
0.0191984
2.02683e-05
0.0191786
5.40872e-06
0.0191546
-5.14667e-06
0.0191309
-1.15281e-05
0.0191073
-1.35853e-05
0.0190849
-1.0893e-05
0.0190673
-5.18524e-06
0.019054
1.5389e-06
0.0190434
5.71567e-06
0.0190357
6.76563e-06
0.0190297
4.83084e-06
0.019022
2.40305e-06
0.0190103
-1.46316e-07
0.018996
-1.48439e-06
0.0189786
-4.66499e-08
0.018959
4.03332e-06
0.0189405
7.54222e-06
0.0189219
9.89328e-06
0.0189034
1.03741e-05
0.0188874
8.40664e-06
0.0188737
4.00669e-06
0.0188608
9.99158e-08
0.0188483
1.78265e-07
0.0188375
5.94238e-06
0.0188274
1.7298e-05
0.0188172
3.03121e-05
0.0188083
4.02674e-05
0.0187994
4.57897e-05
0.0187895
4.99834e-05
0.0187809
5.32791e-05
0.0187729
5.45834e-05
0.0187633
5.26531e-05
0.018754
5.04186e-05
0.0187457
5.27856e-05
0.0187369
6.03105e-05
0.0187281
6.81702e-05
0.0187199
6.976e-05
0.0187112
6.27215e-05
0.0187021
5.00532e-05
0.0186936
3.64529e-05
0.0186853
2.43081e-05
0.0186762
1.35645e-05
0.0186669
5.9097e-06
0.0186583
5.30887e-06
0.0186499
1.39068e-05
0.0186412
3.02544e-05
0.0186326
4.79018e-05
0.0186244
5.7822e-05
0.0186165
5.62882e-05
0.0186087
4.86098e-05
0.0185999
4.2363e-05
0.0185913
3.8988e-05
0.0185841
3.52193e-05
0.0185759
3.0453e-05
0.0185683
2.79256e-05
0.0185611
2.89221e-05
0.018553
3.09531e-05
0.0185463
3.08855e-05
0.0185407
2.92773e-05
0.0185344
2.67026e-05
0.0185277
2.26646e-05
0.0185218
1.87238e-05
0.0185176
1.72071e-05
0.0185138
1.93273e-05
0.0185092
2.48291e-05
0.0185063
3.08926e-05
0.0185051
3.26891e-05
0.0185041
2.6239e-05
0.0185036
1.41277e-05
0.0185042
7.97078e-06
0.0185059
1.52023e-05
0.0185093
2.90704e-05
0.0185141
4.009e-05
0.0185204
4.55282e-05
0.018528
4.94802e-05
0.0185369
5.20999e-05
0.018548
4.66734e-05
0.0185605
3.08805e-05
0.0185735
1.4049e-05
0.0185881
7.61437e-06
0.0186049
1.35945e-05
0.0186237
2.3699e-05
0.0186433
3.06554e-05
0.0186638
3.61037e-05
0.0186857
4.4949e-05
0.0187091
5.65959e-05
0.0187338
6.2778e-05
0.0187589
5.73475e-05
0.0187836
4.23013e-05
0.018809
2.70918e-05
0.0188352
1.85994e-05
0.0188601
1.60173e-05
0.0188854
1.54319e-05
0.0189106
1.77029e-05
0.0189343
2.46533e-05
0.0189583
3.21571e-05
0.018982
3.10267e-05
0.0190027
1.75315e-05
0.0190232
-5.93372e-07
0.019043
-1.05664e-05
0.01906
-7.76923e-06
0.0190763
2.19372e-06
0.0190926
1.37741e-05
0.0191077
2.55612e-05
0.0191214
3.5221e-05
0.0191333
3.6469e-05
0.0191445
2.5675e-05
0.019156
8.46814e-06
0.0191656
-5.64138e-06
0.0191726
-1.32161e-05
0.0191809
-1.54714e-05
0.0191901
-1.4364e-05
0.0191965
-1.10913e-05
0.0192026
-7.74451e-06
0.0192093
-4.85995e-06
0.0192161
-1.55868e-06
0.0192236
2.62757e-06
0.0192281
6.66292e-06
0.0192327
9.02281e-06
0.0192407
1.09119e-05
0.0192476
1.49659e-05
0.0192522
1.87123e-05
0.019258
1.77253e-05
0.0192644
1.19571e-05
0.0192713
4.6359e-06
0.0192781
-3.25015e-06
0.0192834
-1.23887e-05
0.0192889
-2.02168e-05
0.0192963
-1.84676e-05
0.019303
-3.64153e-06
0.0193091
1.60541e-05
0.0193173
2.80045e-05
0.0193248
2.96854e-05
0.0193316
2.6385e-05
0.0193397
2.3222e-05
0.0193464
2.25654e-05
0.019354
2.61375e-05
0.0193633
3.50496e-05
0.0193706
4.52668e-05
0.0193786
4.79998e-05
0.0193879
3.8941e-05
0.0193963
2.24965e-05
0.0194051
8.94577e-06
0.0194129
4.82523e-06
0.0194205
1.33708e-05
2.48022e-05
0.018756
-5.11744e-05
0.0191685
-1.30314e-06
0.0195498
-9.94303e-06
0.0198845
-1.75741e-05
0.0201731
-2.33603e-05
0.0204153
-1.80033e-05
0.0206199
-4.31093e-06
0.0207915
9.74042e-06
0.0209305
1.98734e-05
0.0210418
2.41623e-05
0.0211308
2.3791e-05
0.021197
2.02021e-05
0.0212417
1.34029e-05
0.0212681
4.53237e-06
0.0212786
-4.74472e-06
0.0212742
-1.26393e-05
0.0212586
-1.8051e-05
0.0212383
-2.08507e-05
0.0212152
-2.03539e-05
0.0211917
-1.56833e-05
0.0211731
-7.71161e-06
0.02116
1.16102e-06
0.0211516
6.50887e-06
0.0211488
8.47846e-06
0.0211497
7.24014e-06
0.02115
5.09894e-06
0.021146
2.6563e-06
0.0211379
1.28288e-06
0.0211243
2.69196e-06
0.0211064
6.71037e-06
0.0210877
1.01043e-05
0.0210678
1.2121e-05
0.0210476
1.20116e-05
0.0210301
9.56571e-06
0.0210155
4.61193e-06
0.0210023
1.92711e-07
0.02099
2.43452e-07
0.02098
6.07401e-06
0.0209709
1.78377e-05
0.020962
3.1353e-05
0.0209545
4.16764e-05
0.0209472
4.73033e-05
0.0209391
5.15981e-05
0.0209323
5.50378e-05
0.0209261
5.64382e-05
0.0209184
5.44168e-05
0.0209112
5.19769e-05
0.020905
5.43117e-05
0.0208981
6.20549e-05
0.0208912
7.02595e-05
0.0208847
7.19467e-05
0.0208779
6.45857e-05
0.0208707
5.14472e-05
0.0208642
3.74399e-05
0.0208579
2.47423e-05
0.0208508