/*--------------------------------*- C++ -*----------------------------------*\
  =========                 |
  \\      /  F ield         | OpenFOAM: The Open Source CFD Toolbox
   \\    /   O peration     | Website:  https://openfoam.org
    \\  /    A nd           | Version:  7
     \\/     M anipulation  |
\*---------------------------------------------------------------------------*/
FoamFile
{
    version     2.0;
    format      ascii;
    class       volVectorField;
    location    "0.8";
    object      U_0;
}
// * * * * * * * * * * * * * * * * * * * * * * * * * * * * * * * * * * * * * //

dimensions      [0 1 -1 0 0 0 0];

internalField   nonuniform List<vector> 
5280
(
(4.49509 0.0105482 0)
(4.47453 0.0404806 0)
(4.42721 0.0692098 0)
(4.35402 0.0935192 0)
(4.26057 0.112604 0)
(4.15265 0.126227 0)
(4.03407 0.134557 0)
(3.90843 0.138228 0)
(3.77819 0.13785 0)
(3.64652 0.134265 0)
(3.51508 0.128189 0)
(3.38626 0.120175 0)
(3.26116 0.111247 0)
(3.1404 0.101804 0)
(3.02497 0.0920362 0)
(2.9153 0.082264 0)
(2.81162 0.0727185 0)
(2.71412 0.0636242 0)
(2.62292 0.0551298 0)
(2.53801 0.0472834 0)
(2.45922 0.0400761 0)
(2.38633 0.0334918 0)
(2.31913 0.0275241 0)
(2.25738 0.0221643 0)
(2.20087 0.0173853 0)
(2.14934 0.0131468 0)
(2.10247 0.00940797 0)
(2.05997 0.00613209 0)
(2.02151 0.00328259 0)
(1.9868 0.0008217 0)
(1.95554 -0.00128743 0)
(1.92744 -0.00307927 0)
(1.90223 -0.00458647 0)
(1.87968 -0.00583996 0)
(1.85954 -0.00686924 0)
(1.84161 -0.00770104 0)
(1.82567 -0.00835921 0)
(1.81153 -0.00886377 0)
(1.79901 -0.00923157 0)
(1.78792 -0.0094781 0)
(1.77812 -0.00961912 0)
(1.76947 -0.00967092 0)
(1.76184 -0.00964922 0)
(1.75513 -0.00956734 0)
(1.74923 -0.00943487 0)
(1.74406 -0.00925617 0)
(1.73951 -0.00903267 0)
(1.73552 -0.00877275 0)
(1.73205 -0.00849575 0)
(1.72903 -0.00821969 0)
(1.72644 -0.00794948 0)
(1.72422 -0.00768058 0)
(1.72231 -0.00740915 0)
(1.72069 -0.00713551 0)
(1.71931 -0.00686226 0)
(1.71816 -0.00659297 0)
(1.71722 -0.00633076 0)
(1.71647 -0.00607709 0)
(1.71591 -0.00583178 0)
(1.7155 -0.00559296 0)
(1.71522 -0.00535863 0)
(1.71505 -0.00512664 0)
(1.71497 -0.00489776 0)
(1.71495 -0.00467214 0)
(1.715 -0.00445489 0)
(1.71509 -0.00424333 0)
(1.71524 -0.00404571 0)
(1.7154 -0.00384767 0)
(1.71568 -0.00367223 0)
(1.71586 -0.00347306 0)
(1.71631 -0.00332953 0)
(1.71636 -0.00307937 0)
(1.71711 -0.00302838 0)
(1.71664 -0.00254206 0)
(1.71798 -0.00294509 0)
(1.71644 -0.0014598 0)
(1.7187 -0.00433563 0)
(1.71761 0.0014152 0)
(1.71842 -0.0144751 0)
(1.73878 0.00920446 0)
(4.50101 0.014509 0)
(4.51637 0.0408976 0)
(4.54006 0.0644272 0)
(4.56854 0.0856609 0)
(4.59997 0.104664 0)
(4.63263 0.121151 0)
(4.66444 0.134891 0)
(4.69374 0.145891 0)
(4.71925 0.154294 0)
(4.74032 0.160315 0)
(4.75656 0.164181 0)
(4.76801 0.166088 0)
(4.77482 0.166309 0)
(4.77729 0.165129 0)
(4.77592 0.162781 0)
(4.77115 0.159446 0)
(4.76335 0.155267 0)
(4.75289 0.15038 0)
(4.7402 0.144936 0)
(4.72569 0.139095 0)
(4.70975 0.133 0)
(4.69265 0.126755 0)
(4.67463 0.120436 0)
(4.65592 0.114105 0)
(4.63675 0.107828 0)
(4.61729 0.101674 0)
(4.59772 0.0957024 0)
(4.57815 0.0899564 0)
(4.55866 0.0844593 0)
(4.53931 0.0792194 0)
(4.52017 0.0742422 0)
(4.50127 0.0695359 0)
(4.48266 0.0651089 0)
(4.46439 0.0609622 0)
(4.44648 0.0570881 0)
(4.42895 0.0534778 0)
(4.41181 0.0501264 0)
(4.39506 0.0470327 0)
(4.37871 0.0441878 0)
(4.36273 0.0415697 0)
(4.34713 0.0391504 0)
(4.33189 0.0369087 0)
(4.31701 0.034836 0)
(4.30247 0.0329301 0)
(4.2883 0.0311845 0)
(4.27446 0.0295831 0)
(4.26096 0.0281015 0)
(4.24778 0.0267175 0)
(4.23493 0.0254234 0)
(4.22238 0.0242261 0)
(4.21015 0.0231316 0)
(4.19822 0.0221323 0)
(4.18659 0.0212095 0)
(4.17524 0.0203427 0)
(4.16415 0.0195205 0)
(4.15332 0.0187392 0)
(4.14276 0.0180013 0)
(4.13246 0.017312 0)
(4.12245 0.0166767 0)
(4.11271 0.0160976 0)
(4.10322 0.0155738 0)
(4.09397 0.0150983 0)
(4.08495 0.0146612 0)
(4.07612 0.0142519 0)
(4.06751 0.0138616 0)
(4.05908 0.0134881 0)
(4.05088 0.0131223 0)
(4.04284 0.012777 0)
(4.03508 0.0124278 0)
(4.02746 0.0121355 0)
(4.02012 0.0118145 0)
(4.01286 0.0116558 0)
(4.00585 0.0113515 0)
(3.99891 0.0114632 0)
(3.9919 0.0110185 0)
(3.98549 0.0116835 0)
(3.9773 0.0105301 0)
(3.97245 0.0123425 0)
(3.95828 0.0088068 0)
(3.96069 0.0127834 0)
(4.50071 0.00886278 0)
(4.51129 0.0261006 0)
(4.52737 0.0423696 0)
(4.54735 0.057413 0)
(4.57136 0.0710714 0)
(4.59945 0.0832026 0)
(4.63105 0.0936931 0)
(4.66545 0.102478 0)
(4.70195 0.109556 0)
(4.73988 0.114985 0)
(4.7786 0.118867 0)
(4.81751 0.121301 0)
(4.85609 0.122429 0)
(4.89395 0.122421 0)
(4.93078 0.121411 0)
(4.96635 0.119514 0)
(5.00043 0.11685 0)
(5.03288 0.113562 0)
(5.06361 0.109796 0)
(5.09261 0.105681 0)
(5.11986 0.101323 0)
(5.14538 0.0968114 0)
(5.16921 0.092223 0)
(5.19139 0.0876229 0)
(5.21199 0.083068 0)
(5.23108 0.0786107 0)
(5.24876 0.0743006 0)
(5.26513 0.0701845 0)
(5.28027 0.0662985 0)
(5.29428 0.0626618 0)
(5.30722 0.0592772 0)
(5.31919 0.0561393 0)
(5.33024 0.0532397 0)
(5.34045 0.0505683 0)
(5.3499 0.0481103 0)
(5.35863 0.04585 0)
(5.36672 0.0437763 0)
(5.37421 0.0418859 0)
(5.38117 0.0401775 0)
(5.38764 0.0386438 0)
(5.39365 0.037267 0)
(5.39923 0.0360232 0)
(5.4044 0.0348908 0)
(5.40922 0.0338569 0)
(5.41371 0.0329161 0)
(5.4179 0.0320649 0)
(5.42182 0.031294 0)
(5.42546 0.0305861 0)
(5.42884 0.0299204 0)
(5.43197 0.0292856 0)
(5.43488 0.0286844 0)
(5.4376 0.0281278 0)
(5.44016 0.0276233 0)
(5.44256 0.0271695 0)
(5.44478 0.0267541 0)
(5.44681 0.0263591 0)
(5.44866 0.0259677 0)
(5.45035 0.0255727 0)
(5.45189 0.0251781 0)
(5.45331 0.0247972 0)
(5.45461 0.0244439 0)
(5.45582 0.0241268 0)
(5.45691 0.0238444 0)
(5.4579 0.0235919 0)
(5.45875 0.0233568 0)
(5.45947 0.0231318 0)
(5.46004 0.0229029 0)
(5.46051 0.0226605 0)
(5.46081 0.0224034 0)
(5.46112 0.0221304 0)
(5.46119 0.0218796 0)
(5.46147 0.0216555 0)
(5.46127 0.0215238 0)
(5.4616 0.0214435 0)
(5.46083 0.021521 0)
(5.4614 0.0215638 0)
(5.45934 0.0220529 0)
(5.46063 0.0222392 0)
(5.45587 0.0244685 0)
(5.45977 0.0255216 0)
(4.50069 0.00619403 0)
(4.51081 0.0184044 0)
(4.52593 0.0301069 0)
(4.54441 0.0409862 0)
(4.56643 0.050821 0)
(4.59204 0.0594878 0)
(4.62076 0.0669256 0)
(4.65196 0.0731015 0)
(4.68513 0.0780138 0)
(4.71983 0.0817113 0)
(4.75564 0.0842895 0)
(4.79214 0.0858631 0)
(4.82901 0.0865559 0)
(4.86593 0.0864956 0)
(4.90268 0.0857986 0)
(4.93906 0.0845742 0)
(4.97488 0.082926 0)
(5.00997 0.0809485 0)
(5.04419 0.0787171 0)
(5.07746 0.0762971 0)
(5.10969 0.0737485 0)
(5.14083 0.0711254 0)
(5.17084 0.0684662 0)
(5.19972 0.0657987 0)
(5.22745 0.0631463 0)
(5.25405 0.0605354 0)
(5.27953 0.0579908 0)
(5.30394 0.055535 0)
(5.32731 0.053181 0)
(5.34967 0.0509338 0)
(5.37109 0.0487923 0)
(5.39162 0.0467567 0)
(5.41133 0.0448287 0)
(5.43027 0.0430109 0)
(5.44849 0.0413013 0)
(5.46606 0.0396978 0)
(5.48301 0.0381999 0)
(5.49941 0.0368117 0)
(5.51528 0.0355366 0)
(5.53068 0.0343733 0)
(5.54563 0.0333115 0)
(5.56017 0.0323367 0)
(5.57432 0.0314354 0)
(5.58814 0.0306013 0)
(5.60164 0.0298328 0)
(5.61486 0.0291307 0)
(5.6278 0.0284906 0)
(5.64048 0.0279016 0)
(5.65291 0.0273496 0)
(5.66511 0.026827 0)
(5.6771 0.0263348 0)
(5.68891 0.025879 0)
(5.70054 0.0254644 0)
(5.71199 0.0250915 0)
(5.72327 0.0247525 0)
(5.73436 0.0244348 0)
(5.74528 0.024124 0)
(5.75605 0.023812 0)
(5.76668 0.023501 0)
(5.77717 0.0232013 0)
(5.78753 0.0229256 0)
(5.79776 0.0226832 0)
(5.80786 0.022475 0)
(5.81782 0.0223007 0)
(5.82766 0.0221523 0)
(5.83738 0.0220253 0)
(5.84698 0.0219088 0)
(5.85647 0.0217804 0)
(5.86583 0.0216449 0)
(5.8751 0.0214657 0)
(5.88421 0.0213144 0)
(5.89326 0.0211404 0)
(5.90213 0.0211051 0)
(5.91098 0.0210565 0)
(5.91956 0.0213173 0)
(5.92827 0.0214121 0)
(5.93653 0.0223239 0)
(5.94534 0.0226477 0)
(5.95367 0.0254206 0)
(5.96332 0.0262547 0)
(4.50067 0.0036585 0)
(4.51051 0.0108714 0)
(4.52503 0.0177788 0)
(4.54265 0.024189 0)
(4.56364 0.0299681 0)
(4.58815 0.0350481 0)
(4.61572 0.039406 0)
(4.64574 0.0430331 0)
(4.67772 0.0459337 0)
(4.71124 0.0481356 0)
(4.74589 0.0496966 0)
(4.7813 0.0506836 0)
(4.81712 0.0511677 0)
(4.85307 0.0512194 0)
(4.8889 0.0509065 0)
(4.92442 0.0502839 0)
(4.95942 0.0493966 0)
(4.99375 0.0482842 0)
(5.02727 0.0469871 0)
(5.05992 0.0455446 0)
(5.09163 0.0439928 0)
(5.12234 0.0423592 0)
(5.15199 0.0406639 0)
(5.18057 0.0389239 0)
(5.20809 0.0371586 0)
(5.23454 0.0353904 0)
(5.25997 0.033643 0)
(5.28441 0.0319376 0)
(5.3079 0.0302917 0)
(5.33047 0.0287175 0)
(5.35217 0.0272231 0)
(5.37305 0.0258133 0)
(5.39316 0.0244911 0)
(5.41257 0.0232566 0)
(5.43131 0.0221075 0)
(5.44944 0.0210403 0)
(5.467 0.0200531 0)
(5.48405 0.0191459 0)
(5.50061 0.018319 0)
(5.51673 0.0175695 0)
(5.53245 0.0168912 0)
(5.54779 0.0162747 0)
(5.56279 0.0157123 0)
(5.57748 0.0151993 0)
(5.5919 0.0147345 0)
(5.60606 0.014317 0)
(5.61998 0.0139426 0)
(5.63368 0.0136032 0)
(5.64716 0.0132898 0)
(5.66044 0.0129962 0)
(5.67356 0.0127221 0)
(5.68652 0.012471 0)
(5.69933 0.0122473 0)
(5.71199 0.0120514 0)
(5.72452 0.0118788 0)
(5.73691 0.0117205 0)
(5.74917 0.0115689 0)
(5.76132 0.0114204 0)
(5.77336 0.0112786 0)
(5.78531 0.0111494 0)
(5.79715 0.0110396 0)
(5.80889 0.0109508 0)
(5.82053 0.0108826 0)
(5.83207 0.010831 0)
(5.84353 0.0107939 0)
(5.8549 0.0107632 0)
(5.8662 0.0107391 0)
(5.87743 0.010702 0)
(5.88859 0.0106702 0)
(5.89969 0.0106114 0)
(5.91073 0.0105971 0)
(5.92167 0.0105602 0)
(5.93259 0.0106556 0)
(5.94338 0.0106997 0)
(5.95424 0.0110279 0)
(5.96503 0.0111848 0)
(5.97608 0.0120243 0)
(5.98721 0.0123945 0)
(5.99913 0.0144037 0)
(6.01116 0.0150119 0)
(4.50066 0.0012079 0)
(4.51035 0.00358399 0)
(4.52456 0.0058563 0)
(4.54176 0.00796452 0)
(4.56225 0.00986648 0)
(4.58623 0.0115407 0)
(4.61325 0.0129808 0)
(4.64272 0.0141859 0)
(4.67416 0.0151579 0)
(4.70717 0.0159058 0)
(4.74136 0.0164469 0)
(4.77634 0.0168025 0)
(4.81179 0.0169956 0)
(4.8474 0.0170478 0)
(4.88293 0.0169761 0)
(4.91816 0.0167917 0)
(4.95291 0.0165075 0)
(4.98701 0.016141 0)
(5.02035 0.0157129 0)
(5.05283 0.0152375 0)
(5.08438 0.0147226 0)
(5.11494 0.0141702 0)
(5.14446 0.0135868 0)
(5.17293 0.0129826 0)
(5.20036 0.0123729 0)
(5.22676 0.0117732 0)
(5.25217 0.0111986 0)
(5.27661 0.0106587 0)
(5.3001 0.0101598 0)
(5.32268 0.00970297 0)
(5.34438 0.00928774 0)
(5.36527 0.0089115 0)
(5.38538 0.008572 0)
(5.40478 0.0082664 0)
(5.42351 0.00799225 0)
(5.44163 0.00774681 0)
(5.45917 0.00752845 0)
(5.4762 0.0073359 0)
(5.49274 0.00716827 0)
(5.50884 0.00702327 0)
(5.52452 0.00689758 0)
(5.53983 0.00678701 0)
(5.55479 0.00668841 0)
(5.56945 0.00660007 0)
(5.58383 0.00652178 0)
(5.59796 0.00645317 0)
(5.61184 0.00639296 0)
(5.6255 0.00633845 0)
(5.63894 0.00628679 0)
(5.65219 0.00623638 0)
(5.66527 0.00618836 0)
(5.67821 0.00614547 0)
(5.69099 0.00611031 0)
(5.70364 0.00608331 0)
(5.71614 0.00606256 0)
(5.72851 0.00604435 0)
(5.74075 0.00602519 0)
(5.75288 0.00600318 0)
(5.7649 0.00597927 0)
(5.77683 0.00595611 0)
(5.78867 0.00593771 0)
(5.80041 0.00592687 0)
(5.81207 0.00592567 0)
(5.82362 0.00593386 0)
(5.8351 0.00595136 0)
(5.84649 0.0059754 0)
(5.85781 0.00600667 0)
(5.86907 0.00603879 0)
(5.88026 0.00607818 0)
(5.89138 0.00611313 0)
(5.90245 0.00616609 0)
(5.91343 0.00621269 0)
(5.92442 0.00630549 0)
(5.93529 0.0063835 0)
(5.94628 0.00656298 0)
(5.95727 0.00669681 0)
(5.96856 0.00705505 0)
(5.98004 0.00727604 0)
(5.99229 0.0079839 0)
(6.0048 0.00827884 0)
(4.50066 -0.00120802 0)
(4.51035 -0.00358428 0)
(4.52456 -0.00585639 0)
(4.54176 -0.00796463 0)
(4.56225 -0.00986632 0)
(4.58623 -0.0115402 0)
(4.61325 -0.0129806 0)
(4.64272 -0.0141857 0)
(4.67416 -0.0151573 0)
(4.70717 -0.0159047 0)
(4.74136 -0.0164456 0)
(4.77634 -0.0168013 0)
(4.81179 -0.0169946 0)
(4.8474 -0.0170467 0)
(4.88293 -0.0169749 0)
(4.91816 -0.0167901 0)
(4.95291 -0.0165056 0)
(4.98701 -0.0161388 0)
(5.02035 -0.0157104 0)
(5.05283 -0.0152346 0)
(5.08438 -0.0147193 0)
(5.11494 -0.0141665 0)
(5.14446 -0.0135827 0)
(5.17293 -0.0129781 0)
(5.20036 -0.012368 0)
(5.22676 -0.011768 0)
(5.25217 -0.0111928 0)
(5.27661 -0.0106521 0)
(5.3001 -0.0101522 0)
(5.32268 -0.00969426 0)
(5.34438 -0.00927766 0)
(5.36527 -0.0088998 0)
(5.38538 -0.00855842 0)
(5.40478 -0.00825072 0)
(5.42351 -0.00797422 0)
(5.44163 -0.00772612 0)
(5.45917 -0.00750471 0)
(5.4762 -0.00730863 0)
(5.49274 -0.00713694 0)
(5.50884 -0.00698736 0)
(5.52452 -0.00685653 0)
(5.53983 -0.00674024 0)
(5.5548 -0.0066352 0)
(5.56946 -0.00653949 0)
(5.58384 -0.00645277 0)
(5.59796 -0.00637453 0)
(5.61185 -0.00630343 0)
(5.6255 -0.00623669 0)
(5.63895 -0.0061713 0)
(5.6522 -0.00610539 0)
(5.66528 -0.0060397 0)
(5.67822 -0.00597662 0)
(5.69101 -0.00591845 0)
(5.70365 -0.00586544 0)
(5.71616 -0.00581549 0)
(5.72853 -0.00576469 0)
(5.74077 -0.00570924 0)
(5.7529 -0.00564678 0)
(5.76493 -0.0055777 0)
(5.77686 -0.00550391 0)
(5.7887 -0.0054288 0)
(5.80045 -0.00535433 0)
(5.8121 -0.00528213 0)
(5.82367 -0.00521099 0)
(5.83514 -0.00514066 0)
(5.84654 -0.00506695 0)
(5.85787 -0.00499074 0)
(5.86913 -0.00490325 0)
(5.88032 -0.00481213 0)
(5.89145 -0.00470155 0)
(5.90253 -0.00459834 0)
(5.91351 -0.00447084 0)
(5.9245 -0.00438337 0)
(5.93539 -0.00425855 0)
(5.94638 -0.00424074 0)
(5.95736 -0.0041459 0)
(5.96865 -0.00431138 0)
(5.98011 -0.00428584 0)
(5.99236 -0.00485693 0)
(6.00484 -0.00488548 0)
(4.50067 -0.00365828 0)
(4.51051 -0.0108713 0)
(4.52503 -0.0177788 0)
(4.54265 -0.0241889 0)
(4.56364 -0.029968 0)
(4.58815 -0.0350478 0)
(4.61572 -0.0394057 0)
(4.64574 -0.0430328 0)
(4.67772 -0.045933 0)
(4.71124 -0.0481346 0)
(4.74589 -0.0496956 0)
(4.7813 -0.0506827 0)
(4.81712 -0.0511668 0)
(4.85307 -0.0512183 0)
(4.8889 -0.0509053 0)
(4.92442 -0.0502824 0)
(4.95942 -0.0493948 0)
(4.99375 -0.0482822 0)
(5.02727 -0.0469849 0)
(5.05992 -0.045542 0)
(5.09163 -0.0439898 0)
(5.12234 -0.0423556 0)
(5.15199 -0.0406598 0)
(5.18058 -0.0389194 0)
(5.20809 -0.0371538 0)
(5.23454 -0.0353854 0)
(5.25997 -0.0336375 0)
(5.28441 -0.0319314 0)
(5.3079 -0.0302845 0)
(5.33047 -0.0287089 0)
(5.35217 -0.0272129 0)
(5.37305 -0.0258014 0)
(5.39317 -0.0244774 0)
(5.41257 -0.0232408 0)
(5.43131 -0.0220895 0)
(5.44944 -0.0210197 0)
(5.46701 -0.0200296 0)
(5.48405 -0.0191189 0)
(5.50062 -0.0182879 0)
(5.51674 -0.0175338 0)
(5.53246 -0.0168503 0)
(5.5478 -0.0162281 0)
(5.5628 -0.0156593 0)
(5.5775 -0.0151391 0)
(5.59192 -0.014666 0)
(5.60608 -0.0142389 0)
(5.62 -0.0138536 0)
(5.6337 -0.0135021 0)
(5.64718 -0.0131752 0)
(5.66047 -0.0128664 0)
(5.67359 -0.012575 0)
(5.68655 -0.0123039 0)
(5.69936 -0.0120573 0)
(5.71204 -0.0118354 0)
(5.72456 -0.0116336 0)
(5.73696 -0.0114431 0)
(5.74922 -0.0112558 0)
(5.76138 -0.0110675 0)
(5.77343 -0.0108812 0)
(5.78539 -0.0107018 0)
(5.79724 -0.0105354 0)
(5.80899 -0.0103831 0)
(5.82064 -0.0102442 0)
(5.8322 -0.0101139 0)
(5.84366 -0.00998969 0)
(5.85505 -0.00986199 0)
(5.86636 -0.00973139 0)
(5.87761 -0.00957508 0)
(5.88879 -0.00941408 0)
(5.89991 -0.00920985 0)
(5.91098 -0.00904107 0)
(5.92193 -0.00882798 0)
(5.93288 -0.00874413 0)
(5.94368 -0.00857717 0)
(5.95456 -0.00870893 0)
(5.96534 -0.00861814 0)
(5.9764 -0.00927161 0)
(5.98749 -0.00935998 0)
(5.9994 -0.0112615 0)
(6.01137 -0.011542 0)
(4.50069 -0.00619358 0)
(4.51081 -0.0184042 0)
(4.52593 -0.0301067 0)
(4.54441 -0.040986 0)
(4.56643 -0.0508208 0)
(4.59204 -0.0594877 0)
(4.62076 -0.0669253 0)
(4.65196 -0.073101 0)
(4.68513 -0.078013 0)
(4.71983 -0.0817104 0)
(4.75564 -0.0842888 0)
(4.79214 -0.0858626 0)
(4.82901 -0.0865553 0)
(4.86593 -0.0864947 0)
(4.90268 -0.0857974 0)
(4.93906 -0.0845728 0)
(4.97488 -0.0829244 0)
(5.00997 -0.0809468 0)
(5.0442 -0.0787152 0)
(5.07746 -0.076295 0)
(5.10969 -0.0737459 0)
(5.14083 -0.0711222 0)
(5.17084 -0.0684623 0)
(5.19972 -0.0657944 0)
(5.22745 -0.0631419 0)
(5.25405 -0.0605309 0)
(5.27954 -0.0579861 0)
(5.30394 -0.0555296 0)
(5.32731 -0.0531744 0)
(5.34968 -0.0509258 0)
(5.3711 -0.0487826 0)
(5.39163 -0.0467453 0)
(5.41133 -0.0448156 0)
(5.43027 -0.042996 0)
(5.4485 -0.0412845 0)
(5.46607 -0.0396786 0)
(5.48302 -0.0381778 0)
(5.49942 -0.0367862 0)
(5.5153 -0.0355072 0)
(5.53069 -0.0343395 0)
(5.54564 -0.0332726 0)
(5.56018 -0.0322924 0)
(5.57434 -0.031385 0)
(5.58817 -0.0305439 0)
(5.60167 -0.0297673 0)
(5.61489 -0.0290558 0)
(5.62784 -0.0284051 0)
(5.64052 -0.0278043 0)
(5.65295 -0.0272393 0)
(5.66516 -0.0267022 0)
(5.67716 -0.0261933 0)
(5.68898 -0.0257184 0)
(5.70063 -0.0252819 0)
(5.71209 -0.0248838 0)
(5.72338 -0.0245166 0)
(5.73449 -0.0241676 0)
(5.74543 -0.0238224 0)
(5.75622 -0.0234722 0)
(5.76687 -0.0231185 0)
(5.77739 -0.0227703 0)
(5.78778 -0.02244 0)
(5.79804 -0.0221358 0)
(5.80818 -0.0218588 0)
(5.81819 -0.0216078 0)
(5.82807 -0.0213752 0)
(5.83784 -0.0211539 0)
(5.8475 -0.0209344 0)
(5.85706 -0.0206894 0)
(5.8665 -0.020429 0)
(5.87586 -0.020106 0)
(5.88507 -0.0198061 0)
(5.89422 -0.0194546 0)
(5.9032 -0.0192478 0)
(5.91218 -0.0189765 0)
(5.92088 -0.019051 0)
(5.92972 -0.0188607 0)
(5.93811 -0.0196107 0)
(5.94702 -0.0195627 0)
(5.95548 -0.0223048 0)
(5.96519 -0.0226259 0)
(4.50071 -0.00886267 0)
(4.51129 -0.0261007 0)
(4.52737 -0.0423693 0)
(4.54735 -0.0574132 0)
(4.57136 -0.0710717 0)
(4.59945 -0.0832032 0)
(4.63105 -0.0936935 0)
(4.66545 -0.102478 0)
(4.70195 -0.109555 0)
(4.73988 -0.114985 0)
(4.7786 -0.118866 0)
(4.81751 -0.121301 0)
(4.85609 -0.122429 0)
(4.89395 -0.12242 0)
(4.93079 -0.12141 0)
(4.96635 -0.119512 0)
(5.00043 -0.116849 0)
(5.03288 -0.113561 0)
(5.06361 -0.109795 0)
(5.09261 -0.105679 0)
(5.11986 -0.10132 0)
(5.14539 -0.0968085 0)
(5.16921 -0.0922196 0)
(5.19139 -0.0876192 0)
(5.21199 -0.0830641 0)
(5.23108 -0.0786067 0)
(5.24877 -0.0742962 0)
(5.26514 -0.0701794 0)
(5.28028 -0.0662924 0)
(5.29429 -0.0626545 0)
(5.30723 -0.0592685 0)
(5.3192 -0.056129 0)
(5.33025 -0.0532279 0)
(5.34047 -0.0505548 0)
(5.34991 -0.0480949 0)
(5.35865 -0.0458325 0)
(5.36674 -0.0437563 0)
(5.37424 -0.041863 0)
(5.38121 -0.0401513 0)
(5.38768 -0.0386137 0)
(5.39369 -0.0372326 0)
(5.39928 -0.0359839 0)
(5.40446 -0.034846 0)
(5.40928 -0.0338059 0)
(5.41379 -0.0328583 0)
(5.41799 -0.0319994 0)
(5.42192 -0.03122 0)
(5.42558 -0.0305024 0)
(5.42898 -0.0298257 0)
(5.43213 -0.0291783 0)
(5.43506 -0.0285625 0)
(5.43781 -0.0279894 0)
(5.44041 -0.0274663 0)
(5.44284 -0.0269918 0)
(5.4451 -0.0265532 0)
(5.44718 -0.0261323 0)
(5.44908 -0.0257117 0)
(5.45083 -0.0252838 0)
(5.45244 -0.0248522 0)
(5.45394 -0.0244296 0)
(5.45533 -0.0240297 0)
(5.45664 -0.0236606 0)
(5.45785 -0.0233208 0)
(5.45897 -0.0230042 0)
(5.45996 -0.0226986 0)
(5.46085 -0.0223939 0)
(5.46159 -0.0220782 0)
(5.46228 -0.0217366 0)
(5.4628 -0.0213746 0)
(5.46339 -0.0209786 0)
(5.46374 -0.0206046 0)
(5.46436 -0.0202265 0)
(5.46449 -0.0199543 0)
(5.46527 -0.0196723 0)
(5.46487 -0.0195988 0)
(5.46599 -0.0193557 0)
(5.46433 -0.0197147 0)
(5.46627 -0.0194672 0)
(5.46189 -0.0217467 0)
(5.46652 -0.0221643 0)
(4.50101 -0.0145109 0)
(4.51638 -0.040898 0)
(4.54006 -0.0644253 0)
(4.56854 -0.0856592 0)
(4.59997 -0.104663 0)
(4.63263 -0.121151 0)
(4.66444 -0.134892 0)
(4.69374 -0.145892 0)
(4.71925 -0.154295 0)
(4.74032 -0.160315 0)
(4.75656 -0.164181 0)
(4.76801 -0.166089 0)
(4.77482 -0.166309 0)
(4.77729 -0.165129 0)
(4.77592 -0.162781 0)
(4.77115 -0.159445 0)
(4.76335 -0.155266 0)
(4.75289 -0.15038 0)
(4.7402 -0.144936 0)
(4.7257 -0.139095 0)
(4.70975 -0.132999 0)
(4.69265 -0.126754 0)
(4.67464 -0.120435 0)
(4.65593 -0.114103 0)
(4.63675 -0.107825 0)
(4.6173 -0.101671 0)
(4.59773 -0.0956986 0)
(4.57816 -0.089952 0)
(4.55867 -0.0844544 0)
(4.53933 -0.0792141 0)
(4.52019 -0.0742364 0)
(4.50129 -0.0695294 0)
(4.48269 -0.0651015 0)
(4.46442 -0.0609538 0)
(4.44652 -0.0570782 0)
(4.42899 -0.053466 0)
(4.41186 -0.0501123 0)
(4.39512 -0.0470163 0)
(4.37877 -0.044169 0)
(4.36281 -0.0415484 0)
(4.34722 -0.0391263 0)
(4.33199 -0.0368814 0)
(4.31712 -0.0348048 0)
(4.30261 -0.0328947 0)
(4.28845 -0.0311443 0)
(4.27464 -0.0295376 0)
(4.26116 -0.0280502 0)
(4.24801 -0.0266596 0)
(4.23519 -0.0253577 0)
(4.22268 -0.0241514 0)
(4.2105 -0.0230464 0)
(4.19862 -0.0220356 0)
(4.18705 -0.0210999 0)
(4.17576 -0.020219 0)
(4.16474 -0.0193811 0)
(4.15399 -0.0185817 0)
(4.14352 -0.0178236 0)
(4.13334 -0.0171115 0)
(4.12344 -0.0164508 0)
(4.11383 -0.0158433 0)
(4.1045 -0.0152883 0)
(4.09541 -0.0147779 0)
(4.08658 -0.0143027 0)
(4.07798 -0.0138503 0)
(4.0696 -0.0134132 0)
(4.06145 -0.0129855 0)
(4.05353 -0.0125624 0)
(4.04586 -0.012148 0)
(4.03845 -0.0117306 0)
(4.03129 -0.0113495 0)
(4.02437 -0.0109532 0)
(4.01773 -0.0106767 0)
(4.01116 -0.0103012 0)
(4.00509 -0.010239 0)
(3.99849 -0.00974941 0)
(3.99332 -0.0101052 0)
(3.98535 -0.00898708 0)
(3.98225 -0.010122 0)
(3.96778 -0.00694316 0)
(3.97261 -0.00934545 0)
(4.49509 -0.0105497 0)
(4.47453 -0.0404806 0)
(4.42721 -0.0692081 0)
(4.35402 -0.0935172 0)
(4.26057 -0.112603 0)
(4.15265 -0.126226 0)
(4.03407 -0.134558 0)
(3.90843 -0.138229 0)
(3.77819 -0.13785 0)
(3.64652 -0.134265 0)
(3.51508 -0.128189 0)
(3.38626 -0.120175 0)
(3.26116 -0.111247 0)
(3.1404 -0.101804 0)
(3.02497 -0.0920362 0)
(2.9153 -0.082264 0)
(2.81163 -0.0727186 0)
(2.71412 -0.0636243 0)
(2.62293 -0.0551297 0)
(2.53801 -0.0472831 0)
(2.45923 -0.0400757 0)
(2.38634 -0.0334914 0)
(2.31913 -0.0275237 0)
(2.25739 -0.0221637 0)
(2.20088 -0.0173845 0)
(2.14934 -0.0131456 0)
(2.10248 -0.00940645 0)
(2.05998 -0.00613039 0)
(2.02153 -0.00328091 0)
(1.98682 -0.000820228 0)
(1.95556 0.0012887 0)
(1.92746 0.00308061 0)
(1.90226 0.00458828 0)
(1.87971 0.0058426 0)
(1.85958 0.00687278 0)
(1.84166 0.00770532 0)
(1.82573 0.00836395 0)
(1.8116 0.00886887 0)
(1.79908 0.00923718 0)
(1.78801 0.00948459 0)
(1.77822 0.00962685 0)
(1.76959 0.00968006 0)
(1.76198 0.00965975 0)
(1.75528 0.00957912 0)
(1.74941 0.00944785 0)
(1.74426 0.00927057 0)
(1.73974 0.00904908 0)
(1.73578 0.00879173 0)
(1.73234 0.00851763 0)
(1.72937 0.00824473 0)
(1.72682 0.00797803 0)
(1.72465 0.00771291 0)
(1.72281 0.00744535 0)
(1.72125 0.00717565 0)
(1.71994 0.00690676 0)
(1.71888 0.0066425 0)
(1.71803 0.00638617 0)
(1.71739 0.00613926 0)
(1.71694 0.00590148 0)
(1.71667 0.00567083 0)
(1.71654 0.00544513 0)
(1.71654 0.00522235 0)
(1.71665 0.00500332 0)
(1.71684 0.00478904 0)
(1.71712 0.00458426 0)
(1.71748 0.00438773 0)
(1.71792 0.00420553 0)
(1.71841 0.00402642 0)
(1.71905 0.00386809 0)
(1.71965 0.0036919 0)
(1.72052 0.00356599 0)
(1.72113 0.00334431 0)
(1.72232 0.00331154 0)
(1.72266 0.00286675 0)
(1.72432 0.00329286 0)
(1.72421 0.00189584 0)
(1.72616 0.00479649 0)
(1.72815 -0.000560348 0)
(1.72595 0.0152832 0)
(1.75331 -0.00667015 0)
(1.68137 0.0261673 0)
(1.70688 0.00137647 0)
(1.73705 0.000415165 0)
(1.7547 0.00127994 0)
(1.76594 0.00141216 0)
(1.77613 0.00152945 0)
(1.7872 0.00145186 0)
(1.79862 0.00119897 0)
(1.80954 0.000888073 0)
(1.81972 0.000560999 0)
(1.8293 0.000237217 0)
(1.83865 -6.43816e-05 0)
(1.84801 -0.000323964 0)
(1.85741 -0.000522219 0)
(1.86675 -0.000651539 0)
(1.87595 -0.000727143 0)
(1.88504 -0.000774634 0)
(1.8941 -0.000813263 0)
(1.90325 -0.000854384 0)
(1.91255 -0.00090035 0)
(1.92201 -0.000948224 0)
(1.9316 -0.000994821 0)
(1.94128 -0.00103445 0)
(1.95094 -0.00105883 0)
(1.96048 -0.00105999 0)
(1.96979 -0.00103492 0)
(1.97876 -0.000986781 0)
(1.9873 -0.00092239 0)
(1.99535 -0.000848728 0)
(2.00291 -0.000770229 0)
(2.00998 -0.000687959 0)
(2.01655 -0.00060114 0)
(2.02263 -0.000509177 0)
(2.02823 -0.00041208 0)
(2.03335 -0.000310273 0)
(2.03799 -0.000205239 0)
(2.04214 -0.00010061 0)
(2.04585 -4.60463e-07 0)
(2.04913 9.09872e-05 0)
(2.05207 0.000169851 0)
(2.05473 0.000235934 0)
(2.0572 0.000291819 0)
(2.05951 0.000340362 0)
(2.06169 0.000384623 0)
(2.06375 0.000427938 0)
(2.06566 0.000471699 0)
(2.06741 0.000514605 0)
(2.06898 0.000553256 0)
(2.0704 0.000585042 0)
(2.07168 0.000609488 0)
(2.07285 0.000628331 0)
(2.0739 0.000644971 0)
(2.07484 0.000662518 0)
(2.07562 0.000682721 0)
(2.07621 0.000705566 0)
(2.07658 0.000729655 0)
(2.07674 0.00075318 0)
(2.07667 0.0007746 0)
(2.07638 0.000793149 0)
(2.0759 0.000808913 0)
(2.07523 0.000821724 0)
(2.07438 0.000832307 0)
(2.07337 0.000840339 0)
(2.07222 0.000846033 0)
(2.07093 0.000848726 0)
(2.06953 0.000848889 0)
(2.06804 0.000845098 0)
(2.06648 0.000838349 0)
(2.06488 0.000828025 0)
(2.06327 0.000814676 0)
(2.06166 0.000799015 0)
(2.06008 0.00078143 0)
(2.05855 0.000762338 0)
(2.05707 0.000742448 0)
(2.05566 0.000721998 0)
(2.05432 0.000701275 0)
(2.05305 0.000680444 0)
(2.05187 0.000659456 0)
(2.05078 0.000638313 0)
(2.04978 0.000617107 0)
(2.04887 0.000595603 0)
(2.04805 0.000574067 0)
(2.04733 0.000552211 0)
(2.04672 0.00053033 0)
(2.0462 0.000508499 0)
(2.04578 0.000486336 0)
(2.04547 0.000464103 0)
(2.04526 0.000443078 0)
(2.04516 0.000420966 0)
(2.04516 0.000398915 0)
(2.04527 0.00037868 0)
(2.04547 0.000357674 0)
(2.04579 0.000336443 0)
(2.04621 0.000317173 0)
(2.04675 0.000297161 0)
(2.04739 0.000276945 0)
(2.04814 0.000257899 0)
(2.049 0.000238903 0)
(2.04998 0.00021984 0)
(2.05108 0.000201261 0)
(2.05228 0.000182908 0)
(2.05361 0.000164732 0)
(2.05505 0.000146909 0)
(2.0566 0.00012932 0)
(2.05827 0.000111983 0)
(2.06005 9.50434e-05 0)
(2.06195 7.84288e-05 0)
(2.06396 6.21074e-05 0)
(2.06607 4.61565e-05 0)
(2.06829 3.0555e-05 0)
(2.07062 1.52662e-05 0)
(2.07305 3.91168e-07 0)
(2.07558 -1.40813e-05 0)
(2.0782 -2.82137e-05 0)
(2.08092 -4.1954e-05 0)
(2.08372 -5.52471e-05 0)
(2.08661 -6.8204e-05 0)
(2.08957 -8.07655e-05 0)
(2.09262 -9.2807e-05 0)
(2.09573 -0.000104509 0)
(2.09891 -0.000115858 0)
(2.10215 -0.000126747 0)
(2.10545 -0.000137165 0)
(2.1088 -0.000147239 0)
(2.1122 -0.000156885 0)
(2.11564 -0.00016613 0)
(2.11911 -0.000175007 0)
(2.12261 -0.000183492 0)
(2.12614 -0.000191495 0)
(2.12968 -0.000199206 0)
(2.13325 -0.000206605 0)
(2.13681 -0.000213548 0)
(2.14039 -0.000220172 0)
(2.14396 -0.00022645 0)
(2.14752 -0.000232385 0)
(2.15107 -0.000238035 0)
(2.1546 -0.000243402 0)
(2.15811 -0.000248405 0)
(2.16159 -0.000253118 0)
(2.16504 -0.000257643 0)
(2.16846 -0.000261934 0)
(2.17183 -0.000265844 0)
(2.17516 -0.000269615 0)
(2.17844 -0.000273242 0)
(2.18166 -0.000276558 0)
(2.18483 -0.000279761 0)
(2.18794 -0.000282713 0)
(2.19099 -0.00028562 0)
(2.19397 -0.000288323 0)
(2.19689 -0.000290977 0)
(2.19974 -0.000293427 0)
(2.20251 -0.000295835 0)
(2.20521 -0.000298218 0)
(2.20783 -0.000300533 0)
(2.21038 -0.000302672 0)
(2.21284 -0.000304908 0)
(2.21524 -0.000307174 0)
(2.21755 -0.000309332 0)
(2.21978 -0.000311534 0)
(2.22193 -0.000313782 0)
(2.22401 -0.000316052 0)
(2.226 -0.000318336 0)
(2.22792 -0.00032077 0)
(2.22976 -0.000323214 0)
(2.23153 -0.000325714 0)
(2.23322 -0.000328403 0)
(2.23485 -0.000331225 0)
(2.2364 -0.000333823 0)
(2.23788 -0.000336825 0)
(2.2393 -0.000340081 0)
(2.24066 -0.000343268 0)
(2.24195 -0.000346503 0)
(2.24319 -0.000350006 0)
(2.24437 -0.000353652 0)
(2.2455 -0.000357379 0)
(2.24658 -0.000361304 0)
(2.24762 -0.000365419 0)
(2.24861 -0.00036948 0)
(2.24957 -0.000373876 0)
(2.25048 -0.000378551 0)
(2.25137 -0.000383185 0)
(2.25223 -0.000387928 0)
(2.25306 -0.000392867 0)
(2.25387 -0.000397971 0)
(2.25466 -0.000403091 0)
(2.25543 -0.000408463 0)
(2.25619 -0.000414002 0)
(2.25694 -0.000419567 0)
(2.25769 -0.000425235 0)
(2.25843 -0.000431059 0)
(2.25918 -0.000436968 0)
(2.25992 -0.000442928 0)
(2.26067 -0.000448978 0)
(2.26143 -0.000455151 0)
(2.2622 -0.000461366 0)
(2.26299 -0.000467615 0)
(2.26378 -0.000473981 0)
(2.2646 -0.00048038 0)
(2.26543 -0.000486668 0)
(2.26629 -0.00049304 0)
(2.26716 -0.000499545 0)
(2.26806 -0.000505952 0)
(2.26899 -0.000512341 0)
(2.26994 -0.000518683 0)
(2.27092 -0.000525052 0)
(2.27192 -0.000531431 0)
(2.27296 -0.000537749 0)
(2.27402 -0.000543922 0)
(2.27511 -0.000550054 0)
(2.27622 -0.000556245 0)
(2.27737 -0.000562293 0)
(2.27855 -0.000568177 0)
(2.27975 -0.000574018 0)
(2.28098 -0.0005798 0)
(2.28223 -0.000585483 0)
(2.28351 -0.000591036 0)
(2.28482 -0.000596439 0)
(2.28615 -0.000601757 0)
(2.2875 -0.000607039 0)
(2.28888 -0.000612104 0)
(2.29027 -0.000617065 0)
(2.29168 -0.000621911 0)
(2.29311 -0.000626647 0)
(2.29455 -0.000631114 0)
(2.29601 -0.000635579 0)
(2.29748 -0.000639937 0)
(2.29896 -0.00064407 0)
(2.30045 -0.000648128 0)
(2.30194 -0.000652132 0)
(2.30345 -0.000655938 0)
(2.30495 -0.00065956 0)
(2.30646 -0.000663054 0)
(2.30796 -0.00066647 0)
(2.30947 -0.000669771 0)
(2.31097 -0.000673054 0)
(2.31246 -0.000676102 0)
(2.31395 -0.000679167 0)
(2.31544 -0.000682108 0)
(2.31691 -0.000684971 0)
(2.31837 -0.000687441 0)
(2.31982 -0.000690121 0)
(2.32126 -0.000692731 0)
(2.32268 -0.000695283 0)
(2.32409 -0.00069735 0)
(2.32548 -0.000699877 0)
(2.32686 -0.000702241 0)
(2.32821 -0.000704284 0)
(2.32955 -0.000706538 0)
(2.33087 -0.000708828 0)
(2.33218 -0.00071091 0)
(2.33346 -0.000712909 0)
(2.33472 -0.000714921 0)
(2.33596 -0.000716991 0)
(2.33718 -0.00071905 0)
(2.33839 -0.000721068 0)
(2.33957 -0.000723086 0)
(2.34073 -0.000725125 0)
(2.34188 -0.000727221 0)
(2.34301 -0.000729308 0)
(2.34412 -0.000731365 0)
(2.34521 -0.000733423 0)
(2.34629 -0.000735526 0)
(2.34735 -0.000737629 0)
(2.3484 -0.000739809 0)
(2.34943 -0.000742018 0)
(2.35045 -0.000744258 0)
(2.35146 -0.000746509 0)
(2.35246 -0.000748793 0)
(2.35345 -0.00075108 0)
(2.35443 -0.000753425 0)
(2.3554 -0.000755819 0)
(2.35636 -0.000758204 0)
(2.35732 -0.000760685 0)
(2.35828 -0.000763111 0)
(2.35923 -0.000765667 0)
(2.36018 -0.000768182 0)
(2.36113 -0.000770818 0)
(2.36208 -0.000773181 0)
(2.36303 -0.000775872 0)
(2.36398 -0.000778579 0)
(2.36493 -0.000781123 0)
(2.36589 -0.00078374 0)
(2.36685 -0.000786406 0)
(2.36782 -0.000789043 0)
(2.36879 -0.00079166 0)
(2.36977 -0.000794278 0)
(2.37075 -0.000796898 0)
(2.37174 -0.000799535 0)
(2.37274 -0.000802155 0)
(2.37375 -0.000804714 0)
(2.37476 -0.000807242 0)
(2.37578 -0.000809722 0)
(2.37681 -0.000812179 0)
(2.37785 -0.000814602 0)
(2.37889 -0.000816977 0)
(2.37994 -0.000819317 0)
(2.381 -0.000821587 0)
(2.38207 -0.000823789 0)
(2.38315 -0.000825925 0)
(2.38423 -0.000827996 0)
(2.38531 -0.000829996 0)
(2.3864 -0.00083194 0)
(2.3875 -0.000833822 0)
(2.3886 -0.000835643 0)
(2.3897 -0.000837373 0)
(2.39081 -0.000838999 0)
(2.39192 -0.000840548 0)
(2.39302 -0.000842001 0)
(2.39413 -0.000843372 0)
(2.39524 -0.000844678 0)
(2.39635 -0.000845891 0)
(2.39745 -0.000847004 0)
(2.39855 -0.000848028 0)
(2.39964 -0.00084897 0)
(2.40073 -0.000849847 0)
(2.40182 -0.000850692 0)