/*--------------------------------*- C++ -*----------------------------------*\
  =========                 |
  \\      /  F ield         | OpenFOAM: The Open Source CFD Toolbox
   \\    /   O peration     | Website:  https://openfoam.org
    \\  /    A nd           | Version:  7
     \\/     M anipulation  |
\*---------------------------------------------------------------------------*/
FoamFile
{
    version     2.0;
    format      ascii;
    class       volVectorField;
    location    "0.0925";
    object      U_0;
}
// * * * * * * * * * * * * * * * * * * * * * * * * * * * * * * * * * * * * * //

dimensions      [0 1 -1 0 0 0 0];

internalField   nonuniform List<vector> 
1440
(
(11.9916 0.0555685 0)
(11.9235 0.160289 0)
(11.734 0.265472 0)
(11.474 0.343266 0)
(11.1442 0.396747 0)
(10.77 0.42564 0)
(10.3644 0.434667 0)
(9.9425 0.427583 0)
(9.51623 0.409263 0)
(9.09362 0.382982 0)
(8.68333 0.351957 0)
(8.28888 0.31949 0)
(7.91424 0.286266 0)
(7.56166 0.253532 0)
(7.23255 0.222251 0)
(6.92737 0.192904 0)
(6.64609 0.165719 0)
(6.38818 0.140808 0)
(6.15279 0.118173 0)
(5.93885 0.0977687 0)
(5.74505 0.0795044 0)
(5.57007 0.0632465 0)
(5.41247 0.0488752 0)
(5.27086 0.036241 0)
(5.14389 0.0251972 0)
(5.03025 0.0156 0)
(4.92869 0.00731348 0)
(4.83801 0.000211615 0)
(4.75707 -0.00582082 0)
(4.68476 -0.0108952 0)
(4.62005 -0.0151269 0)
(4.56205 -0.0186326 0)
(4.51001 -0.021516 0)
(4.4633 -0.0238532 0)
(4.42135 -0.0256935 0)
(4.38362 -0.0270745 0)
(4.34954 -0.0280414 0)
(4.31857 -0.0286561 0)
(4.29027 -0.0289924 0)
(4.26428 -0.0291212 0)
(4.24036 -0.0290942 0)
(4.21831 -0.0289364 0)
(4.19797 -0.0286492 0)
(4.17914 -0.0282233 0)
(4.1616 -0.0276542 0)
(4.14509 -0.0269545 0)
(4.1294 -0.0261572 0)
(4.11439 -0.0253096 0)
(4.10001 -0.0244592 0)
(4.08627 -0.023639 0)
(4.07322 -0.0228524 0)
(4.06084 -0.0220728 0)
(4.04906 -0.0212604 0)
(4.03768 -0.0203855 0)
(4.02654 -0.0194593 0)
(4.01552 -0.0185334 0)
(4.00464 -0.0176689 0)
(3.99403 -0.0169083 0)
(3.98382 -0.0162412 0)
(3.97406 -0.0156081 0)
(3.96468 -0.0149406 0)
(3.95548 -0.0141994 0)
(3.94627 -0.0133934 0)
(3.93696 -0.0125756 0)
(3.92759 -0.0118162 0)
(3.91832 -0.0111608 0)
(3.90932 -0.0106131 0)
(3.90072 -0.0101448 0)
(3.8925 -0.00969967 0)
(3.88455 -0.00921824 0)
(3.87664 -0.00867463 0)
(3.86857 -0.00807482 0)
(3.8602 -0.00744954 0)
(3.8515 -0.00684103 0)
(3.84255 -0.0062801 0)
(3.8335 -0.00578764 0)
(3.8245 -0.00538292 0)
(3.81573 -0.00507079 0)
(3.80731 -0.00481842 0)
(3.79928 -0.00458116 0)
(3.79162 -0.00433001 0)
(3.78426 -0.00405584 0)
(3.77712 -0.00374875 0)
(3.77008 -0.00341314 0)
(3.76306 -0.0030628 0)
(3.756 -0.00269575 0)
(3.74885 -0.00233221 0)
(3.74161 -0.00199453 0)
(3.73426 -0.00169176 0)
(3.72684 -0.0014201 0)
(3.71934 -0.00116856 0)
(3.71178 -0.000930517 0)
(3.70412 -0.000710329 0)
(3.69641 -0.000501669 0)
(3.68858 -0.000293614 0)
(3.68069 -8.56612e-05 0)
(3.67266 0.000111768 0)
(3.66455 0.000320016 0)
(3.65623 0.000571088 0)
(3.64777 0.000846687 0)
(3.63903 0.00114853 0)
(3.6301 0.00146548 0)
(3.62084 0.00181702 0)
(3.61136 0.00216376 0)
(3.60156 0.00257399 0)
(3.59151 0.00293374 0)
(3.5813 0.0033794 0)
(3.57073 0.0036734 0)
(3.56044 0.00415682 0)
(3.54939 0.00438822 0)
(3.53945 0.00501965 0)
(3.52772 0.00507603 0)
(3.51881 0.00580365 0)
(3.50601 0.00552642 0)
(3.49917 0.00643835 0)
(3.48451 0.00584155 0)
(3.48083 0.00697618 0)
(3.46317 0.00640982 0)
(3.46308 0.00732802 0)
(3.44185 0.00819581 0)
(12.0033 0.0584119 0)
(12.0331 0.134836 0)
(12.0912 0.215115 0)
(12.1723 0.281957 0)
(12.2609 0.340779 0)
(12.3505 0.388361 0)
(12.4314 0.425925 0)
(12.4992 0.453201 0)
(12.5499 0.471226 0)
(12.5827 0.480737 0)
(12.5972 0.482689 0)
(12.5948 0.478614 0)
(12.5773 0.469229 0)
(12.5463 0.455667 0)
(12.5041 0.438896 0)
(12.4525 0.419814 0)
(12.3935 0.399183 0)
(12.3287 0.377666 0)
(12.2595 0.355812 0)
(12.1873 0.33407 0)
(12.113 0.312796 0)
(12.0376 0.292263 0)
(11.9617 0.272664 0)
(11.8859 0.254125 0)
(11.8107 0.236729 0)
(11.7362 0.220515 0)
(11.6629 0.205491 0)
(11.5908 0.191643 0)
(11.5202 0.178934 0)
(11.4511 0.167307 0)
(11.3836 0.156688 0)
(11.3177 0.146988 0)
(11.2534 0.138121 0)
(11.1906 0.130015 0)
(11.1294 0.122614 0)
(11.0698 0.115875 0)
(11.0117 0.109748 0)
(10.9552 0.104177 0)
(10.9002 0.0990951 0)
(10.8466 0.0944346 0)
(10.7944 0.090137 0)
(10.7436 0.0861606 0)
(10.694 0.0824806 0)
(10.6457 0.0790825 0)
(10.5986 0.075952 0)
(10.5527 0.0730656 0)
(10.5079 0.0703884 0)
(10.4643 0.0678786 0)
(10.4218 0.0654971 0)
(10.3803 0.0632194 0)
(10.3397 0.0610423 0)
(10.3001 0.0589794 0)
(10.2615 0.0570507 0)
(10.2239 0.0552639 0)
(10.1872 0.0536046 0)
(10.1514 0.0520407 0)
(10.1166 0.0505345 0)
(10.0826 0.0490638 0)
(10.0495 0.0476326 0)
(10.0171 0.0462644 0)
(9.98546 0.0449852 0)
(9.95463 0.0438042 0)
(9.92458 0.0427053 0)
(9.89531 0.0416519 0)
(9.86676 0.0406063 0)
(9.83885 0.0395472 0)
(9.81154 0.0384776 0)
(9.78478 0.0374234 0)
(9.75857 0.0364218 0)
(9.73294 0.0355019 0)
(9.70792 0.0346769 0)
(9.68351 0.0339395 0)
(9.65971 0.0332628 0)
(9.63645 0.0326123 0)
(9.61368 0.0319576 0)
(9.59134 0.031283 0)
(9.56937 0.0305873 0)
(9.54772 0.0298795 0)
(9.52636 0.0291673 0)
(9.50529 0.0284628 0)
(9.48451 0.0277811 0)
(9.46406 0.0271423 0)
(9.44392 0.0265654 0)
(9.4241 0.0260585 0)
(9.40457 0.0256197 0)
(9.38533 0.0252376 0)
(9.36634 0.0249052 0)
(9.34756 0.0246143 0)
(9.32895 0.0243584 0)
(9.31048 0.0241481 0)
(9.29212 0.0239844 0)
(9.27386 0.0238575 0)
(9.25566 0.0237648 0)
(9.23752 0.0237089 0)
(9.21941 0.0236815 0)
(9.20132 0.0236807 0)
(9.18321 0.0237138 0)
(9.16508 0.0237882 0)
(9.14687 0.0239009 0)
(9.12862 0.0240505 0)
(9.11022 0.0242451 0)
(9.09176 0.024446 0)
(9.0731 0.0246805 0)
(9.05438 0.0248755 0)
(9.03547 0.0250938 0)
(9.01657 0.0251631 0)
(8.99759 0.025293 0)
(8.97867 0.025125 0)
(8.95991 0.0251653 0)
(8.94118 0.0246836 0)
(8.92314 0.0246998 0)
(8.90478 0.0238039 0)
(8.8881 0.0239302 0)
(8.86997 0.0225952 0)
(8.85548 0.0230069 0)
(8.83697 0.0213743 0)
(8.82584 0.0220807 0)
(8.80568 0.0208231 0)
(8.79963 0.02138 0)
(8.77593 0.0225075 0)
(12.0022 0.0266199 0)
(12.0247 0.0769047 0)
(12.065 0.129708 0)
(12.125 0.176924 0)
(12.1982 0.220616 0)
(12.2852 0.257753 0)
(12.3812 0.288747 0)
(12.4847 0.312701 0)
(12.5922 0.330045 0)
(12.7018 0.341015 0)
(12.8108 0.346148 0)
(12.9176 0.346552 0)
(13.0206 0.342665 0)
(13.1187 0.335329 0)
(13.211 0.325279 0)
(13.297 0.313204 0)
(13.3762 0.299692 0)
(13.4488 0.285264 0)
(13.5146 0.270357 0)
(13.5739 0.255341 0)
(13.627 0.240514 0)
(13.6743 0.226112 0)
(13.7161 0.212313 0)
(13.7529 0.199241 0)
(13.785 0.186979 0)
(13.8129 0.175576 0)
(13.837 0.165049 0)
(13.8575 0.155395 0)
(13.875 0.14659 0)
(13.8896 0.138595 0)
(13.9016 0.131353 0)
(13.9114 0.124801 0)
(13.9192 0.118876 0)
(13.9251 0.113524 0)
(13.9293 0.108701 0)
(13.932 0.10437 0)
(13.9334 0.100491 0)
(13.9337 0.0970177 0)
(13.9328 0.0938998 0)
(13.931 0.0910884 0)
(13.9283 0.0885427 0)
(13.9249 0.0862337 0)
(13.9207 0.0841436 0)
(13.9159 0.0822595 0)
(13.9104 0.0805662 0)
(13.9045 0.07904 0)
(13.898 0.077648 0)
(13.8911 0.076353 0)
(13.8838 0.075121 0)
(13.8761 0.0739278 0)
(13.8681 0.0727642 0)
(13.8596 0.0716338 0)
(13.8509 0.0705464 0)
(13.8418 0.0695102 0)
(13.8324 0.0685222 0)
(13.8228 0.0675686 0)
(13.8129 0.0666338 0)
(13.8028 0.0657089 0)
(13.7924 0.0648008 0)
(13.7818 0.0639306 0)
(13.771 0.0631216 0)
(13.7599 0.062385 0)
(13.7487 0.0617135 0)
(13.7374 0.0610816 0)
(13.7259 0.0604544 0)
(13.7143 0.0598031 0)
(13.7025 0.0591156 0)
(13.6907 0.0583953 0)
(13.6787 0.0576611 0)
(13.6666 0.0569381 0)
(13.6544 0.0562449 0)
(13.6422 0.05559 0)
(13.6299 0.0549701 0)
(13.6176 0.0543728 0)
(13.6053 0.0537831 0)
(13.5929 0.0531922 0)
(13.5804 0.0525947 0)
(13.5678 0.0519888 0)
(13.5551 0.0513808 0)
(13.5423 0.0507886 0)
(13.5295 0.050231 0)
(13.5165 0.049719 0)
(13.5034 0.049261 0)
(13.4902 0.0488567 0)
(13.477 0.048501 0)
(13.4637 0.0481903 0)
(13.4503 0.047916 0)
(13.4369 0.0476663 0)
(13.4234 0.047435 0)
(13.4098 0.0472203 0)
(13.3962 0.0470242 0)
(13.3825 0.0468558 0)
(13.3688 0.0467175 0)
(13.355 0.0466155 0)
(13.3411 0.0465579 0)
(13.3271 0.0465569 0)
(13.313 0.0466124 0)
(13.2988 0.0467341 0)
(13.2845 0.0469325 0)
(13.2701 0.047198 0)
(13.2555 0.0475245 0)
(13.2408 0.0478745 0)
(13.226 0.0482544 0)
(13.2112 0.0485664 0)
(13.1963 0.0488779 0)
(13.1813 0.0489884 0)
(13.1663 0.0491248 0)
(13.1513 0.0488721 0)
(13.1363 0.0488117 0)
(13.1212 0.0480572 0)
(13.1064 0.047916 0)
(13.0913 0.0465112 0)
(13.0769 0.0465241 0)
(13.0615 0.0442564 0)
(13.0481 0.0448425 0)
(13.0318 0.0415275 0)
(13.0203 0.0431799 0)
(13.002 0.038867 0)
(12.9946 0.0415387 0)
(12.9726 0.0375308 0)
(12.0011 0.0249987 0)
(12.0177 0.0677223 0)
(12.0508 0.110436 0)
(12.0995 0.146478 0)
(12.1614 0.178466 0)
(12.2361 0.204458 0)
(12.3203 0.225531 0)
(12.4129 0.241565 0)
(12.5112 0.253279 0)
(12.6137 0.261096 0)
(12.7183 0.265516 0)
(12.8235 0.267122 0)
(12.9281 0.266243 0)
(13.031 0.263324 0)
(13.1312 0.258706 0)
(13.2281 0.252732 0)
(13.3213 0.245697 0)
(13.4102 0.237873 0)
(13.4948 0.229501 0)
(13.575 0.220796 0)
(13.6507 0.211942 0)
(13.7221 0.203098 0)
(13.7892 0.194389 0)
(13.8523 0.185919 0)
(13.9116 0.177767 0)
(13.9674 0.169993 0)
(14.0198 0.162637 0)
(14.0691 0.155721 0)
(14.1156 0.149256 0)
(14.1595 0.143236 0)
(14.201 0.137647 0)
(14.2404 0.132468 0)
(14.2777 0.127672 0)
(14.3133 0.123238 0)
(14.3472 0.119145 0)
(14.3796 0.115373 0)
(14.4106 0.111904 0)
(14.4404 0.108713 0)
(14.469 0.105775 0)
(14.4967 0.103063 0)
(14.5233 0.100554 0)
(14.5492 0.0982295 0)
(14.5742 0.0960783 0)
(14.5985 0.0940904 0)
(14.6221 0.0922547 0)
(14.6451 0.0905559 0)
(14.6676 0.0889752 0)
(14.6896 0.0874929 0)
(14.711 0.0860918 0)
(14.732 0.0847603 0)
(14.7526 0.0834937 0)
(14.7727 0.0822917 0)
(14.7923 0.081155 0)
(14.8115 0.0800818 0)
(14.8303 0.0790651 0)
(14.8487 0.078094 0)
(14.8667 0.0771578 0)
(14.8843 0.0762501 0)
(14.9014 0.0753708 0)
(14.9182 0.0745249 0)
(14.9345 0.0737179 0)
(14.9505 0.0729503 0)
(14.9661 0.0722159 0)
(14.9814 0.0715035 0)
(14.9963 0.0708011 0)
(15.0108 0.0701012 0)
(15.0251 0.0694049 0)
(15.039 0.0687212 0)
(15.0525 0.0680637 0)
(15.0657 0.0674472 0)
(15.0786 0.0668815 0)
(15.0912 0.0663694 0)
(15.1035 0.0659053 0)
(15.1156 0.0654771 0)
(15.1274 0.0650695 0)
(15.139 0.0646693 0)
(15.1504 0.0642657 0)
(15.1616 0.0638509 0)
(15.1725 0.0634218 0)
(15.1832 0.0629802 0)
(15.1938 0.0625324 0)
(15.2041 0.0620896 0)
(15.2141 0.0616679 0)
(15.224 0.0612821 0)
(15.2337 0.0609396 0)
(15.2431 0.0606463 0)
(15.2523 0.0604068 0)
(15.2613 0.0602232 0)
(15.2701 0.060095 0)
(15.2786 0.0600267 0)
(15.2869 0.0600175 0)
(15.295 0.0600648 0)
(15.3029 0.0601666 0)
(15.3106 0.0603243 0)
(15.3182 0.0605331 0)
(15.3256 0.0607923 0)
(15.333 0.0611018 0)
(15.3402 0.0614556 0)
(15.3474 0.0618519 0)
(15.3545 0.0622728 0)
(15.3615 0.0627196 0)
(15.3686 0.0631343 0)
(15.3756 0.0635465 0)
(15.3827 0.0638419 0)
(15.3897 0.0641241 0)
(15.3966 0.064156 0)
(15.4034 0.0642329 0)
(15.4102 0.0638624 0)
(15.4167 0.0637466 0)
(15.4231 0.06286 0)
(15.429 0.0627027 0)
(15.4349 0.0611583 0)
(15.4401 0.0612656 0)
(15.4453 0.0588486 0)
(15.4495 0.0597349 0)
(15.4541 0.0561261 0)
(15.457 0.0584098 0)
(15.4611 0.0533019 0)
(15.4624 0.0569815 0)
(15.4668 0.0510037 0)
(12.0008 0.0107342 0)
(12.0165 0.0300347 0)
(12.0498 0.0499632 0)
(12.098 0.0678751 0)
(12.159 0.0847805 0)
(12.2316 0.0993798 0)
(12.3129 0.11188 0)
(12.4017 0.121784 0)
(12.4956 0.129176 0)
(12.5933 0.134062 0)
(12.693 0.136583 0)
(12.7935 0.137073 0)
(12.8936 0.135737 0)
(12.9924 0.132911 0)
(13.0891 0.128888 0)
(13.1831 0.123967 0)
(13.2738 0.118408 0)
(13.3609 0.112447 0)
(13.4442 0.106279 0)
(13.5236 0.100071 0)
(13.599 0.0939555 0)
(13.6704 0.0880359 0)
(13.738 0.0823896 0)
(13.8018 0.0770705 0)
(13.8622 0.0721136 0)
(13.9192 0.067538 0)
(13.9731 0.0633501 0)
(14.0241 0.0595458 0)
(14.0725 0.0561125 0)
(14.1184 0.0530305 0)
(14.1621 0.0502749 0)
(14.2038 0.0478185 0)
(14.2437 0.045635 0)
(14.2819 0.0437005 0)
(14.3185 0.0419943 0)
(14.3538 0.0404969 0)
(14.3879 0.0391893 0)
(14.4209 0.0380521 0)
(14.4528 0.0370656 0)
(14.4839 0.0362112 0)
(14.5141 0.0354724 0)
(14.5437 0.0348364 0)
(14.5725 0.034294 0)
(14.6008 0.0338383 0)
(14.6286 0.0334617 0)
(14.6558 0.0331544 0)
(14.6827 0.0329037 0)
(14.7092 0.0326948 0)
(14.7353 0.0325145 0)
(14.7611 0.0323527 0)
(14.7866 0.0322044 0)
(14.8117 0.0320696 0)
(14.8366 0.0319497 0)
(14.8612 0.031846 0)
(14.8855 0.0317566 0)
(14.9096 0.0316771 0)
(14.9334 0.0316034 0)
(14.957 0.0315339 0)
(14.9803 0.0314715 0)
(15.0033 0.0314231 0)
(15.0261 0.0313954 0)
(15.0486 0.0313917 0)
(15.0709 0.0314086 0)
(15.0929 0.0314373 0)
(15.1148 0.0314653 0)
(15.1363 0.0314815 0)
(15.1577 0.0314803 0)
(15.1788 0.0314611 0)
(15.1996 0.031429 0)
(15.2203 0.0313924 0)
(15.2407 0.0313583 0)
(15.261 0.0313308 0)
(15.2811 0.0313105 0)
(15.3011 0.0312937 0)
(15.3209 0.0312763 0)
(15.3407 0.0312553 0)
(15.3603 0.0312292 0)
(15.3799 0.0311989 0)
(15.3993 0.0311693 0)
(15.4187 0.0311473 0)
(15.438 0.0311392 0)
(15.4572 0.0311498 0)
(15.4762 0.0311846 0)
(15.4951 0.0312475 0)
(15.514 0.0313362 0)
(15.5326 0.0314481 0)
(15.5512 0.0315789 0)
(15.5696 0.0317247 0)
(15.5879 0.0318822 0)
(15.606 0.0320521 0)
(15.6241 0.0322367 0)
(15.642 0.0324375 0)
(15.6599 0.0326576 0)
(15.6777 0.0329018 0)
(15.6956 0.0331752 0)
(15.7134 0.0334817 0)
(15.7313 0.0338298 0)
(15.7493 0.0342154 0)
(15.7674 0.0346518 0)
(15.7856 0.0351199 0)
(15.804 0.0356382 0)
(15.8225 0.0361514 0)
(15.8411 0.0367053 0)
(15.8599 0.037187 0)
(15.8787 0.0377168 0)
(15.8977 0.038068 0)
(15.9165 0.038525 0)
(15.9353 0.0386406 0)
(15.9538 0.0390244 0)
(15.9723 0.0388048 0)
(15.9901 0.0392055 0)
(16.0079 0.038539 0)
(16.0245 0.03913 0)
(16.0417 0.0378608 0)
(16.0564 0.0389321 0)
(16.0733 0.0369002 0)
(16.0849 0.0387623 0)
(16.1026 0.0358907 0)
(16.1094 0.0383581 0)
(16.1297 0.035091 0)
(12.0007 0.00564909 0)
(12.0157 0.0164822 0)
(12.0472 0.0270754 0)
(12.0925 0.0360248 0)
(12.1507 0.043813 0)
(12.2204 0.0499818 0)
(12.2992 0.0548894 0)
(12.3859 0.058591 0)
(12.478 0.061364 0)
(12.5744 0.0633905 0)
(12.673 0.0648419 0)
(12.7727 0.0658662 0)
(12.8721 0.0665448 0)
(12.9704 0.0669523 0)
(13.0665 0.0671254 0)
(13.16 0.0670935 0)
(13.2502 0.066874 0)
(13.3368 0.0664815 0)
(13.4197 0.0659285 0)
(13.4986 0.065228 0)
(13.5736 0.0643938 0)
(13.6446 0.0634412 0)
(13.7118 0.0623853 0)
(13.7753 0.0612426 0)
(13.8353 0.0600299 0)
(13.8921 0.058764 0)
(13.9457 0.057461 0)
(13.9965 0.0561353 0)
(14.0447 0.0547995 0)
(14.0905 0.0534637 0)
(14.134 0.052136 0)
(14.1756 0.0508224 0)
(14.2153 0.0495283 0)
(14.2534 0.0482592 0)
(14.2899 0.0470207 0)
(14.3251 0.0458184 0)
(14.3591 0.0446567 0)
(14.392 0.0435378 0)
(14.4239 0.0424623 0)
(14.4549 0.0414292 0)
(14.4851 0.0404379 0)
(14.5146 0.0394882 0)
(14.5434 0.0385808 0)
(14.5717 0.0377169 0)
(14.5994 0.0368969 0)
(14.6267 0.0361202 0)
(14.6536 0.0353846 0)
(14.6801 0.0346873 0)
(14.7062 0.0340258 0)
(14.7321 0.0333986 0)
(14.7576 0.0328054 0)
(14.7828 0.0322468 0)
(14.8078 0.0317228 0)
(14.8325 0.0312318 0)
(14.857 0.0307704 0)
(14.8812 0.0303337 0)
(14.9051 0.0299167 0)
(14.9288 0.029516 0)
(14.9523 0.0291299 0)
(14.9755 0.0287585 0)
(14.9985 0.0284024 0)
(15.0212 0.0280613 0)
(15.0437 0.0277339 0)
(15.066 0.027418 0)
(15.0881 0.0271122 0)
(15.11 0.0268171 0)
(15.1317 0.0265359 0)
(15.1532 0.0262736 0)
(15.1744 0.0260357 0)
(15.1955 0.0258266 0)
(15.2163 0.0256474 0)
(15.2371 0.0254961 0)
(15.2576 0.0253669 0)
(15.2781 0.0252516 0)
(15.2984 0.0251414 0)
(15.3186 0.0250285 0)
(15.3388 0.0249066 0)
(15.3589 0.0247723 0)
(15.3789 0.0246254 0)
(15.3988 0.0244682 0)
(15.4187 0.0243051 0)
(15.4385 0.0241422 0)
(15.4582 0.0239878 0)
(15.4778 0.0238502 0)
(15.4973 0.0237356 0)
(15.5168 0.0236491 0)
(15.5361 0.0235936 0)
(15.5552 0.0235711 0)
(15.5743 0.0235811 0)
(15.5933 0.0236244 0)
(15.6122 0.0236995 0)
(15.631 0.0238027 0)
(15.6498 0.0239323 0)
(15.6685 0.0240843 0)
(15.6873 0.024258 0)
(15.7061 0.0244464 0)
(15.725 0.0246546 0)
(15.744 0.0248692 0)
(15.7631 0.0251046 0)
(15.7825 0.0253334 0)
(15.8019 0.0255891 0)
(15.8216 0.0258105 0)
(15.8414 0.0260736 0)
(15.8614 0.026259 0)
(15.8814 0.0265253 0)
(15.9016 0.0266385 0)
(15.9217 0.0269156 0)
(15.9419 0.026919 0)
(15.9616 0.0272462 0)
(15.9815 0.0271097 0)
(16.0005 0.0275673 0)
(16.0199 0.0272604 0)
(16.0377 0.0279589 0)
(16.0565 0.0274729 0)
(16.0722 0.028533 0)
(16.0907 0.0279191 0)
(16.1033 0.0293438 0)
(16.1225 0.0287916 0)
(16.13 0.0301715 0)
(16.1515 0.0301205 0)
(12.0007 -0.00546866 0)
(12.0157 -0.0162388 0)
(12.0472 -0.0265929 0)
(12.0926 -0.0354902 0)
(12.1509 -0.043103 0)
(12.2207 -0.0491303 0)
(12.2996 -0.0537931 0)
(12.3864 -0.0571845 0)
(12.4787 -0.059552 0)
(12.5751 -0.0610605 0)
(12.6737 -0.0619073 0)
(12.7735 -0.0622163 0)
(12.873 -0.0620934 0)
(12.9712 -0.0616193 0)
(13.0674 -0.0608471 0)
(13.1608 -0.0598232 0)
(13.251 -0.0585825 0)
(13.3376 -0.0571592 0)
(13.4204 -0.0555848 0)
(13.4992 -0.0538919 0)
(13.5741 -0.0521123 0)
(13.6451 -0.0502778 0)
(13.7122 -0.0484179 0)
(13.7756 -0.0465588 0)
(13.8355 -0.0447235 0)
(13.8922 -0.042931 0)
(13.9458 -0.0411959 0)
(13.9965 -0.039529 0)
(14.0446 -0.0379378 0)
(14.0903 -0.0364278 0)
(14.1338 -0.035002 0)
(14.1753 -0.033662 0)
(14.215 -0.0324068 0)
(14.253 -0.031233 0)
(14.2895 -0.0301353 0)
(14.3247 -0.0291079 0)
(14.3587 -0.0281444 0)
(14.3915 -0.0272394 0)
(14.4234 -0.026388 0)
(14.4544 -0.025586 0)
(14.4846 -0.0248289 0)
(14.5141 -0.0241124 0)
(14.5429 -0.0234317 0)
(14.5712 -0.0227816 0)
(14.5989 -0.0221577 0)
(14.6262 -0.0215564 0)
(14.653 -0.0209757 0)
(14.6795 -0.0204146 0)
(14.7057 -0.0198731 0)
(14.7315 -0.0193506 0)
(14.757 -0.0188462 0)
(14.7823 -0.0183583 0)
(14.8072 -0.0178854 0)
(14.8319 -0.0174263 0)
(14.8564 -0.0169807 0)
(14.8805 -0.016549 0)
(14.9045 -0.0161311 0)
(14.9282 -0.0157258 0)
(14.9516 -0.0153306 0)
(14.9748 -0.0149418 0)
(14.9978 -0.0145559 0)
(15.0205 -0.014171 0)
(15.043 -0.0137869 0)
(15.0653 -0.0134051 0)
(15.0874 -0.0130282 0)
(15.1092 -0.0126586 0)
(15.1309 -0.0122973 0)
(15.1523 -0.0119447 0)
(15.1736 -0.0116009 0)
(15.1946 -0.0112658 0)
(15.2155 -0.0109407 0)
(15.2362 -0.0106279 0)
(15.2567 -0.0103301 0)
(15.2771 -0.01005 0)
(15.2974 -0.00978853 0)
(15.3176 -0.00954468 0)
(15.3378 -0.00931541 0)
(15.3578 -0.00909604 0)
(15.3778 -0.00888032 0)
(15.3977 -0.00866225 0)
(15.4175 -0.00843785 0)
(15.4373 -0.00820593 0)
(15.457 -0.00796671 0)
(15.4766 -0.00772068 0)
(15.4961 -0.00746981 0)
(15.5155 -0.00721711 0)
(15.5348 -0.00696618 0)
(15.5539 -0.00672049 0)
(15.573 -0.00648278 0)
(15.5919 -0.00625511 0)
(15.6108 -0.00603721 0)
(15.6296 -0.00582876 0)
(15.6483 -0.0056272 0)
(15.6671 -0.0054326 0)
(15.6858 -0.0052389 0)
(15.7046 -0.00504915 0)
(15.7234 -0.00485132 0)
(15.7424 -0.00465383 0)
(15.7615 -0.00443222 0)
(15.7808 -0.00420772 0)
(15.8002 -0.00393765 0)
(15.8199 -0.00367113 0)
(15.8397 -0.00332445 0)
(15.8597 -0.00299785 0)
(15.8796 -0.00254136 0)
(15.8998 -0.00214686 0)
(15.9198 -0.00155009 0)
(15.94 -0.00109186 0)
(15.9597 -0.000324701 0)
(15.9796 0.000189117 0)
(15.9985 0.00114799 0)
(16.018 0.00171276 0)
(16.0356 0.00286897 0)
(16.0545 0.00353636 0)
(16.0702 0.00484592 0)
(16.0888 0.00579473 0)
(16.1013 0.00707747 0)
(16.1206 0.00871127 0)
(16.1282 0.00953324 0)
(16.1494 0.0125345 0)
(12.0007 -0.0106249 0)
(12.0163 -0.0299624 0)
(12.0496 -0.0497086 0)
(12.0977 -0.0675924 0)
(12.1586 -0.0843174 0)
(12.2312 -0.0987571 0)
(12.3126 -0.110982 0)
(12.4015 -0.120538 0)
(12.4955 -0.127486 0)
(12.5933 -0.131806 0)
(12.6931 -0.133687 0)
(12.7937 -0.133422 0)
(12.894 -0.131246 0)
(12.9929 -0.127508 0)
(13.0897 -0.122512 0)
(13.1838 -0.116576 0)
(13.2746 -0.109977 0)
(13.3617 -0.102971 0)
(13.445 -0.0957716 0)
(13.5243 -0.0885648 0)
(13.5996 -0.0815015 0)
(13.671 -0.0747023 0)
(13.7384 -0.0682586 0)
(13.8021 -0.0622341 0)
(13.8623 -0.0566693 0)
(13.9191 -0.0515842 0)
(13.9728 -0.0469822 0)
(14.0237 -0.042854 0)
(14.0719 -0.039181 0)
(14.1177 -0.0359384 0)
(14.1612 -0.0330972 0)
(14.2027 -0.030627 0)
(14.2424 -0.0284961 0)
(14.2805 -0.0266717 0)
(14.317 -0.0251204 0)
(14.3522 -0.0238092 0)
(14.3862 -0.0227068 0)
(14.4191 -0.0217861 0)
(14.451 -0.0210233 0)
(14.482 -0.0203983 0)
(14.5121 -0.0198929 0)
(14.5416 -0.0194905 0)
(14.5704 -0.0191757 0)
(14.5987 -0.018934 0)
(14.6264 -0.0187514 0)
(14.6537 -0.0186147 0)
(14.6805 -0.018512 0)
(14.707 -0.0184325 0)
(14.7331 -0.0183671 0)
(14.7588 -0.0183081 0)
(14.7843 -0.0182489 0)
(14.8095 -0.0181854 0)
(14.8343 -0.0181153 0)
(14.8589 -0.0180383 0)
(14.8833 -0.0179565 0)
(14.9074 -0.017873 0)
(14.9312 -0.0177913 0)
(14.9547 -0.0177141 0)
(14.978 -0.0176431 0)
(15.0011 -0.017579 0)
(15.0239 -0.0175218 0)
(15.0464 -0.0174708 0)
(15.0688 -0.0174248 0)
(15.0908 -0.0173803 0)
(15.1127 -0.0173319 0)
(15.1343 -0.0172726 0)
(15.1556 -0.0171941 0)
(15.1768 -0.0170904 0)
(15.1977 -0.0169581 0)
(15.2184 -0.016798 0)
(15.2389 -0.0166152 0)
(15.2592 -0.0164183 0)
(15.2794 -0.0162176 0)
(15.2994 -0.016023 0)
(15.3193 -0.0158428 0)
(15.339 -0.0156823 0)
(15.3587 -0.0155443 0)
(15.3784 -0.0154296 0)
(15.3979 -0.0153364 0)
(15.4174 -0.0152609 0)
(15.4368 -0.0151992 0)
(15.4561 -0.0151487 0)
(15.4753 -0.0151061 0)
(15.4944 -0.0150663 0)
(15.5133 -0.0150221 0)
(15.5322 -0.0149678 0)
(15.5509 -0.0149008 0)
(15.5695 -0.01482 0)
(15.588 -0.0147258 0)
(15.6063 -0.0146202 0)
(15.6245 -0.0145071 0)
(15.6427 -0.0143914 0)
(15.6607 -0.0142772 0)
(15.6788 -0.0141725 0)
(15.6968 -0.0140782 0)
(15.7149 -0.0140057 0)
(15.7331 -0.0139504 0)
(15.7514 -0.0139261 0)
(15.7697 -0.0139096 0)
(15.7883 -0.0139211 0)
(15.807 -0.0139153 0)
(15.8259 -0.0139332 0)
(15.8449 -0.0138808 0)
(15.8641 -0.0138407 0)
(15.8833 -0.013652 0)
(15.9028 -0.0134819 0)
(15.922 -0.013073 0)
(15.9414 -0.0127157 0)
(15.9603 -0.0120169 0)
(15.9795 -0.0114189 0)
(15.9977 -0.0104064 0)
(16.0164 -0.00951546 0)
(16.0333 -0.0082317 0)
(16.0516 -0.00688906 0)
(16.0666 -0.00548655 0)
(16.0847 -0.00334715 0)
(16.0968 -0.00222561 0)
(16.1156 0.0013885 0)
(16.123 0.00161111 0)
(16.144 0.00768733 0)
(12.0011 -0.024485 0)
(12.0176 -0.0672027 0)
(12.0508 -0.109621 0)
(12.0996 -0.14574 0)
(12.1617 -0.177659 0)
(12.2365 -0.203637 0)
(12.3211 -0.224573 0)
(12.4139 -0.240384 0)
(12.5126 -0.251765 0)
(12.6153 -0.259101 0)
(12.7201 -0.262948 0)
(12.8256 -0.26384 0)
(12.9304 -0.26214 0)
(13.0334 -0.258306 0)
(13.1337 -0.252693 0)
(13.2306 -0.245667 0)
(13.3236 -0.23754 0)
(13.4124 -0.228609 0)
(13.4968 -0.219135 0)
(13.5767 -0.209356 0)
(13.6521 -0.199479 0)
(13.7231 -0.189681 0)
(13.7899 -0.180107 0)
(13.8526 -0.170872 0)
(13.9115 -0.162064 0)
(13.9669 -0.153743 0)
(14.0189 -0.145944 0)
(14.0679 -0.138685 0)
(14.1141 -0.131965 0)
(14.1577 -0.125775 0)
(14.199 -0.120097 0)
(14.2382 -0.114905 0)
(14.2754 -0.110171 0)
(14.3109 -0.105861 0)
(14.3447 -0.101942 0)
(14.3772 -0.0983778 0)
(14.4082 -0.0951345 0)
(14.4381 -0.0921798 0)
(14.4668 -0.0894842 0)
(14.4946 -0.0870211 0)
(14.5214 -0.0847663 0)
(14.5474 -0.0826989 0)
(14.5726 -0.080799 0)
(14.5971 -0.0790474 0)
(14.621 -0.0774249 0)
(14.6442 -0.0759121 0)
(14.6669 -0.0744925 0)
(14.6892 -0.0731521 0)
(14.7109 -0.0718795 0)
(14.7321 -0.0706664 0)
(14.7529 -0.0695055 0)
(14.7733 -0.0683907 0)
(14.7932 -0.0673171 0)
(14.8127 -0.0662811 0)
(14.8318 -0.0652811 0)
(14.8505 -0.0643166 0)
(14.8688 -0.0633869 0)
(14.8866 -0.0624904 0)
(14.9041 -0.0616233 0)
(14.9211 -0.0607811 0)
(14.9378 -0.0599588 0)
(14.9541 -0.0591522 0)
(14.97 -0.0583589 0)
(14.9856 -0.057577 0)
(15.0008 -0.0568048 0)
(15.0157 -0.0560407 0)
(15.0302 -0.0552827 0)
(15.0445 -0.0545307 0)
(15.0583 -0.0537865 0)
(15.0719 -0.053055 0)
(15.0852 -0.0523444 0)
(15.0982 -0.0516635 0)
(15.1109 -0.0510204 0)
(15.1234 -0.0504195 0)
(15.1356 -0.0498618 0)
(15.1476 -0.0493444 0)
(15.1594 -0.0488591 0)
(15.1709 -0.0483936 0)
(15.1823 -0.0479341 0)
(15.1935 -0.04747 0)
(15.2046 -0.0469973 0)
(15.2154 -0.0465192 0)
(15.2261 -0.046042 0)
(15.2365 -0.0455689 0)
(15.2468 -0.0451037 0)
(15.2569 -0.0446529 0)
(15.2667 -0.0442235 0)
(15.2764 -0.0438223 0)
(15.2858 -0.0434546 0)
(15.295 -0.0431268 0)
(15.304 -0.0428399 0)
(15.3129 -0.0425943 0)
(15.3216 -0.0423889 0)
(15.3302 -0.042225 0)
(15.3386 -0.0420977 0)
(15.347 -0.0420126 0)
(15.3554 -0.0419588 0)
(15.3637 -0.041942 0)
(15.372 -0.0419318 0)
(15.3803 -0.0419391 0)
(15.3886 -0.0419159 0)
(15.3971 -0.0418843 0)
(15.4055 -0.0417479 0)
(15.4141 -0.0415617 0)
(15.4226 -0.0411842 0)
(15.4313 -0.0407321 0)
(15.4397 -0.0400085 0)
(15.4484 -0.0392048 0)
(15.4566 -0.0380711 0)
(15.4652 -0.0368503 0)
(15.4729 -0.0353402 0)
(15.4814 -0.0336438 0)
(15.4884 -0.031898 0)
(15.4968 -0.0295393 0)
(15.5027 -0.0278777 0)
(15.5112 -0.0243951 0)
(15.5157 -0.0234275 0)
(15.5245 -0.0178745 0)
(15.5272 -0.0183846 0)
(15.5369 -0.00945676 0)
(12.0019 -0.0265507 0)
(12.0237 -0.0770785 0)
(12.0639 -0.129717 0)
(12.1235 -0.177009 0)
(12.1969 -0.22057 0)
(12.284 -0.257608 0)
(12.3802 -0.288348 0)
(12.4839 -0.311954 0)
(12.5916 -0.328833 0)
(12.7013 -0.339147 0)
(12.8102 -0.343599 0)
(12.9168 -0.34315 0)
(13.0195 -0.338293 0)
(13.1171 -0.329923 0)
(13.2087 -0.318774 0)
(13.2939 -0.305561 0)
(13.3724 -0.290888 0)
(13.4439 -0.275301 0)
(13.5088 -0.259259 0)
(13.5672 -0.243157 0)
(13.6193 -0.227315 0)
(13.6656 -0.21199 0)
(13.7066 -0.197378 0)
(13.7425 -0.183617 0)
(13.7739 -0.170793 0)
(13.8011 -0.15895 0)
(13.8246 -0.148096 0)
(13.8447 -0.138212 0)
(13.8618 -0.129261 0)
(13.8762 -0.121194 0)
(13.888 -0.113956 0)
(13.8977 -0.107486 0)
(13.9054 -0.101723 0)
(13.9113 -0.0966026 0)
(13.9155 -0.0920589 0)
(13.9184 -0.088027 0)
(13.9199 -0.0844456 0)
(13.9202 -0.0812597 0)
(13.9194 -0.0784222 0)
(13.9177 -0.0758932 0)
(13.9151 -0.0736394 0)
(13.9116 -0.071631 0)
(13.9075 -0.0698395 0)
(13.9026 -0.0682352 0)
(13.8971 -0.0667876 0)
(13.8911 -0.065467 0)
(13.8845 -0.0642464 0)
(13.8774 -0.063103 0)
(13.8699 -0.0620186 0)
(13.8619 -0.0609772 0)
(13.8535 -0.0599642 0)
(13.8448 -0.0589685 0)
(13.8356 -0.057982 0)
(13.8262 -0.0570034 0)
(13.8164 -0.0560377 0)
(13.8063 -0.0550927 0)
(13.7959 -0.0541755 0)
(13.7853 -0.0532909 0)
(13.7743 -0.0524405 0)
(13.7632 -0.051624 0)
(13.7518 -0.0508407 0)
(13.7401 -0.0500904 0)
(13.7283 -0.049372 0)
(13.7163 -0.0486796 0)
(13.7041 -0.0480041 0)
(13.6917 -0.0473309 0)
(13.6793 -0.046645 0)
(13.6667 -0.0459347 0)
(13.654 -0.0451943 0)
(13.6412 -0.0444254 0)
(13.6284 -0.043637 0)
(13.6156 -0.0428441 0)
(13.6027 -0.0420635 0)
(13.5897 -0.0413078 0)
(13.5767 -0.040586 0)
(13.5636 -0.039905 0)
(13.5504 -0.0392653 0)
(13.5372 -0.0386614 0)
(13.5239 -0.0380907 0)
(13.5106 -0.0375532 0)
(13.4971 -0.0370491 0)
(13.4836 -0.0365769 0)
(13.4701 -0.0361322 0)
(13.4564 -0.0357071 0)
(13.4428 -0.0352943 0)
(13.4291 -0.0348892 0)
(13.4154 -0.0344899 0)
(13.4016 -0.0340948 0)
(13.3879 -0.0337008 0)
(13.3742 -0.0333099 0)
(13.3605 -0.0329278 0)
(13.3469 -0.0325658 0)
(13.3333 -0.0322286 0)
(13.3198 -0.0319238 0)
(13.3062 -0.0316558 0)
(13.2927 -0.0314359 0)
(13.2793 -0.0312644 0)
(13.2658 -0.0311538 0)
(13.2523 -0.0310789 0)
(13.2388 -0.0310621 0)
(13.2254 -0.0310573 0)
(13.212 -0.0310849 0)
(13.1986 -0.0310522 0)
(13.1853 -0.0310045 0)
(13.172 -0.030796 0)
(13.159 -0.0305395 0)
(13.1459 -0.030031 0)
(13.1333 -0.0294534 0)
(13.1206 -0.028558 0)
(13.1086 -0.0275759 0)
(13.0962 -0.0263004 0)
(13.085 -0.0248612 0)
(13.0732 -0.0233222 0)
(13.0628 -0.0212654 0)
(13.0518 -0.0196945 0)
(13.0422 -0.0166912 0)
(13.0329 -0.0155391 0)
(13.0234 -0.0108834 0)
(13.0173 -0.0107356 0)
(13.0064 -0.00321654 0)
(12.003 -0.0562387 0)
(12.0325 -0.133374 0)
(12.09 -0.213579 0)
(12.1698 -0.280906 0)
(12.2567 -0.339926 0)
(12.344 -0.387673 0)
(12.4218 -0.425165 0)
(12.4859 -0.452193 0)
(12.5324 -0.46979 0)
(12.5604 -0.478618 0)
(12.5698 -0.479849 0)
(12.5621 -0.474861 0)
(12.5391 -0.464451 0)
(12.5028 -0.449814 0)
(12.4552 -0.43193 0)
(12.3984 -0.411727 0)
(12.3345 -0.389988 0)
(12.2651 -0.367399 0)
(12.1917 -0.34453 0)
(12.1155 -0.32185 0)
(12.0377 -0.299733 0)
(11.9591 -0.27847 0)
(11.8804 -0.25827 0)
(11.8021 -0.239272 0)
(11.7247 -0.221555 0)
(11.6484 -0.205152 0)
(11.5735 -0.190053 0)
(11.5 -0.17622 0)
(11.4282 -0.163594 0)
(11.358 -0.152104 0)
(11.2895 -0.141674 0)
(11.2226 -0.132225 0)
(11.1573 -0.123677 0)
(11.0936 -0.115952 0)
(11.0315 -0.10897 0)
(10.971 -0.102655 0)
(10.9119 -0.0969338 0)
(10.8544 -0.0917391 0)
(10.7982 -0.0870109 0)
(10.7434 -0.0826969 0)
(10.6899 -0.0787518 0)
(10.6376 -0.0751351 0)
(10.5866 -0.07181 0)
(10.5368 -0.068742 0)
(10.4881 -0.0658981 0)
(10.4406 -0.0632484 0)
(10.394 -0.0607671 0)
(10.3486 -0.0584323 0)
(10.3041 -0.0562256 0)
(10.2606 -0.054133 0)
(10.2181 -0.0521456 0)
(10.1766 -0.0502577 0)
(10.136 -0.0484657 0)
(10.0963 -0.0467675 0)
(10.0575 -0.0451583 0)
(10.0197 -0.043633 0)
(9.98268 -0.0421851 0)
(9.94656 -0.040808 0)
(9.91129 -0.039495 0)
(9.87685 -0.0382395 0)
(9.84321 -0.0370347 0)
(9.81036 -0.0358753 0)
(9.77827 -0.0347551 0)
(9.74691 -0.0336699 0)
(9.71626 -0.0326164 0)
(9.6863 -0.0315917 0)
(9.657 -0.0305973 0)
(9.62835 -0.0296329 0)
(9.60035 -0.0286989 0)
(9.57298 -0.0277954 0)
(9.54624 -0.0269252 0)
(9.52011 -0.0260916 0)
(9.49457 -0.0252924 0)
(9.46962 -0.024524 0)
(9.44522 -0.0237878 0)
(9.42135 -0.023092 0)
(9.39799 -0.0224374 0)
(9.37512 -0.0218112 0)
(9.35271 -0.0211992 0)
(9.33075 -0.0205987 0)
(9.30922 -0.0200181 0)
(9.28811 -0.0194684 0)
(9.26741 -0.0189575 0)
(9.24709 -0.0184796 0)
(9.22714 -0.01803 0)
(9.20752 -0.0176124 0)
(9.18822 -0.0172249 0)
(9.16923 -0.0168687 0)
(9.15053 -0.0165468 0)
(9.1321 -0.0162668 0)
(9.11391 -0.0160274 0)
(9.09598 -0.0158205 0)
(9.07828 -0.0156377 0)
(9.0608 -0.0154751 0)
(9.04352 -0.0153293 0)
(9.02644 -0.0152122 0)
(9.00952 -0.0151177 0)
(8.99279 -0.0150508 0)
(8.97616 -0.0149903 0)
(8.95967 -0.0149645 0)
(8.94323 -0.0149459 0)
(8.92695 -0.0149648 0)
(8.91067 -0.0149236 0)
(8.89464 -0.0148903 0)
(8.87855 -0.0147381 0)
(8.86291 -0.0145892 0)
(8.8472 -0.0142472 0)
(8.83226 -0.0139175 0)
(8.81718 -0.013323 0)
(8.80334 -0.0127708 0)
(8.78921 -0.0119286 0)
(8.77698 -0.011129 0)
(8.76418 -0.0100577 0)
(8.75398 -0.00897818 0)
(8.74284 -0.00773359 0)
(8.73497 -0.00633327 0)
(8.72602 -0.00495763 0)
(8.7204 -0.00316325 0)
(8.71469 -0.00180675 0)
(8.71042 0.00094643 0)
(11.9848 -0.052792 0)